FOO
141312
    1MOL0     O    1   4.932   5.212   5.358 -0.4905  0.3806 -0.1241
    1MOL0     C    2   4.899   5.315   5.408 -0.8084 -0.0712  0.2181
    1MOL0     O    3   4.991   5.409   5.464  0.5723  0.5102 -0.0061
    1MOL0     C    4   5.123   5.381   5.466  0.0923 -0.4983  0.0479
    1MOL0     C    5   5.188   5.353   5.348 -0.4720 -0.4332  0.6370
    1MOL0     C    6   5.325   5.320   5.352  0.5712 -0.2562  0.4265
    1MOL0     C    7   5.397   5.318   5.467  0.1489  0.5390 -0.5906
    1MOL0     O    8   5.530   5.292   5.479  0.6956 -0.2336 -0.1570
    1MOL0     C    9   5.620   5.303   5.367 -0.0709  0.2601 -0.2423
    1MOL0     C   10   5.773   5.273   5.405  0.7520 -0.9461 -0.2065
    1MOL0     C   11   5.870   5.253   5.280 -0.1271 -0.5181  0.7656
    1MOL0     C   12   5.836   5.153   5.165 -0.9788  0.2901  0.2721
    1MOL0     C   13   5.957   5.149   5.071  0.4629 -0.6129 -0.1109
    1MOL0     C   14   5.935   5.059   4.953  0.5634 -0.3913 -0.2698
    1MOL0     C   15   6.052   5.081   4.853 -0.5648  0.2698  0.8626
    1MOL0     C   16   6.037   4.972   4.747 -0.0862 -0.2342  0.5982
    1MOL0     N   17   6.138   4.988   4.645 -0.4352 -0.0220 -0.6526
    1MOL0     C   18   6.261   4.910   4.642  0.4335  0.5930 -0.3120
    1MOL0     C   19   6.329   4.948   4.528 -0.5357 -0.3857 -0.2906
    1MOL0     C   20   6.459   4.887   4.478  0.3752 -1.1572  0.3393
    1MOL0     C   21   6.421   4.793   4.363  0.2983 -0.0613 -0.2432
    1MOL0     C   22   6.544   4.739   4.291 -0.7561 -0.5917 -0.3159
    1MOL0     C   23   6.521   4.659   4.167 -0.5626 -1.1766  0.4797
    1MOL0     O   24   6.639   4.582   4.142  0.0341 -0.8165 -0.3426
    1MOL0     C   25   6.644   4.498   4.034 -0.4491 -0.2528  0.6720
    1MOL0     C   26   6.768   4.447   3.984  0.5842 -0.2265  0.4087
    1MOL0     C   27   6.776   4.369   3.863  0.0763  0.1443  0.1921
    1MOL0     C   28   6.915   4.308   3.833  0.2404 -0.3337 -0.1392
    1MOL0     C   29   6.668   4.359   3.766  0.2408 -0.1408 -0.8979
    1MOL0     C   30   6.677   4.300   3.630 -0.2135  1.2391  0.2796
    1MOL0     O   31   6.563   4.306   3.564 -0.2920 -0.5393 -0.0346
    1MOL0     C   32   6.556   4.257   3.438 -0.2120 -0.6847  0.0216
    1MOL0     C   33   6.634   4.305   3.333 -0.3790  0.1150  1.2845
    1MOL0     C   34   6.625   4.256   3.207  0.3040  0.0172  0.5094
    1MOL0     C   35   6.526   4.158   3.171  0.1629 -0.6738  0.1145
    1MOL0     O   36   6.511   4.095   3.051  0.5491  0.8337 -0.1163
    1MOL0     C   37   6.642   4.071   2.982  0.5809  0.4731  0.3221
    1MOL0     C   38   6.718   3.963   3.057 -0.9348  0.1710  0.7951
    1MOL0     C   39   6.826   3.882   2.984  0.2422  0.1152 -0.9328
    1MOL0     C   40   6.766   3.787   2.874  0.0339  0.1509  0.4444
    1MOL0     C   41   6.842   3.653   2.852 -0.4313 -0.7017  0.2742
    1MOL0     C   42   6.992   3.675   2.815  0.0429 -0.5697  0.0936
    1MOL0     C   43   7.071   3.547   2.778  0.0813 -0.2338 -0.0006
    1MOL0     C   44   7.153   3.565   2.660 -0.9428 -0.6857 -0.9168
    1MOL0    Cl   45   7.247   3.417   2.623 -0.5848 -0.7368  0.1167
    1MOL0     C   46   6.444   4.115   3.277  0.3303  0.2593 -0.0553
    1MOL0     C   47   6.458   4.167   3.414  0.8057  0.9436  0.2415
    1MOL0     O   48   6.779   4.231   3.605  0.8801 -0.3863  0.1536
    1MOL0     C   49   6.552   4.416   3.814 -0.3581  0.0744 -0.4027
    1MOL0     C   50   6.539   4.480   3.938  0.7215  0.1100 -0.6078
    1MOL0     N   51   6.242   5.038   4.469  0.0804 -0.3057 -0.4193
    1MOL0     N   52   6.135   5.067   4.531  0.1427  0.1680 -0.1263
    1MOL0     C   53   5.331   5.342   5.589  0.5187  0.7354  0.4344
    1MOL0     C   54   5.193   5.378   5.590 -0.0203 -0.3048  0.5952
    1MOL0     C   55   4.755   5.332   5.416  0.8193 -0.1306 -0.2177
    1MOL0     C   56   4.683   5.312   5.295 -0.6400  0.6725  0.1392
    1MOL0     C   57   4.550   5.345   5.288  1.2667  0.3620 -0.1806
    1MOL0     C   58   4.477   5.395   5.404 -0.3359 -0.1954  0.6941
    1MOL0     O   59   4.340   5.429   5.390 -0.6996  0.3058 -0.8179
    1MOL0     C   60   4.279   5.456   5.510  0.5619 -0.7174  0.6233
    1MOL0     C   61   4.131   5.461   5.475 -0.4471 -0.1864 -0.8675
    1MOL0     C   62   4.093   5.559   5.368 -0.5032  0.2623 -0.0275
    1MOL0     C   63   3.955   5.549   5.314  0.5257  0.5043  0.0102
    1MOL0     C   64   3.854   5.602   5.408  0.9990 -0.1895  0.8544
    1MOL0     C   65   3.775   5.631   5.498  0.7073 -0.2215  0.2805
    1MOL0     C   66   4.559   5.416   5.520 -0.1507  1.3789 -0.1178
    1MOL0     C   67   4.689   5.381   5.532  0.1417 -0.4164 -0.1973
    1MOL0     C   68   4.764   5.400   5.658  1.4175 -0.2769  0.0685
    1MOL0     H   69   5.138   5.346   5.252  0.5847 -0.7326  0.0893
    1MOL0     H   70   5.375   5.303   5.257  0.1659 -0.2661  0.2098
    1MOL0     H   71   5.624   5.402   5.322 -0.6862 -0.3014 -1.5968
    1MOL0     H   72   5.597   5.226   5.293  0.7489  2.1548 -2.5751
    1MOL0     H   73   5.805   5.362   5.460  1.2647 -1.5997  0.5706
    1MOL0     H   74   5.769   5.187   5.472 -1.9083 -0.5670  0.2563
    1MOL0     H   75   5.889   5.352   5.237 -1.9699 -0.5726 -0.3155
    1MOL0     H   76   5.962   5.217   5.326  0.6997  0.0106 -0.4291
    1MOL0     H   77   5.807   5.053   5.200 -4.2474  1.1601  0.4262
    1MOL0     H   78   5.746   5.183   5.110 -0.3269  1.3611 -0.2290
    1MOL0     H   79   6.033   5.098   5.132 -1.9588 -0.3138  3.4983
    1MOL0     H   80   5.990   5.251   5.047  0.8246 -0.1803  2.0057
    1MOL0     H   81   5.927   4.952   4.975 -2.9440  0.1711  1.8683
    1MOL0     H   82   5.835   5.088   4.919  1.3982 -0.8125 -3.4204
    1MOL0     H   83   6.146   5.092   4.908 -0.9542  1.7172  1.3055
    1MOL0     H   84   6.036   5.177   4.803 -3.0426 -0.2173  0.6117
    1MOL0     H   85   6.045   4.869   4.784  1.8137 -0.5755 -0.6413
    1MOL0     H   86   5.934   4.969   4.710 -0.5457 -0.6388  1.8563
    1MOL0     H   87   6.299   4.835   4.710  1.9437  1.1899 -0.4614
    1MOL0     H   88   6.527   4.843   4.552 -0.7545  0.3009  2.3369
    1MOL0     H   89   6.515   4.966   4.426 -0.8019  0.6424  1.6849
    1MOL0     H   90   6.370   4.701   4.394  1.3858 -1.1793 -1.6235
    1MOL0     H   91   6.363   4.852   4.291  0.6161  1.5490  0.7931
    1MOL0     H   92   6.608   4.824   4.261 -0.3760 -1.4744 -2.1589
    1MOL0     H   93   6.602   4.673   4.356 -0.8078  0.5364  0.9163
    1MOL0     H   94   6.442   4.588   4.193 -0.2494 -2.2071 -1.2133
    1MOL0     H   95   6.503   4.722   4.079  3.3983  0.8783  0.9261
    1MOL0     H   96   6.855   4.477   4.041 -0.8224  1.0393  1.9969
    1MOL0     H   97   6.990   4.330   3.909  0.2381  1.3155 -0.5706
    1MOL0     H   98   6.956   4.345   3.738  1.4795 -1.2414  0.0232
    1MOL0     H   99   6.920   4.199   3.840 -2.2362 -0.3818  3.7214
    1MOL0     H  100   6.696   4.394   3.338  1.0145 -0.6200 -1.2545
    1MOL0     H  101   6.694   4.301   3.135 -0.5383 -0.2717 -0.5099
    1MOL0     H  102   6.614   4.029   2.885 -3.2197 -2.7527  2.5380
    1MOL0     H  103   6.701   4.158   2.951  1.6353  0.0558  1.0954
    1MOL0     H  104   6.765   4.024   3.135  0.1360  0.6389 -0.1972
    1MOL0     H  105   6.647   3.893   3.103  1.1226 -3.0721 -0.7056
    1MOL0     H  106   6.891   3.824   3.050 -2.2405  0.2453  1.8278
    1MOL0     H  107   6.891   3.957   2.935 -1.9686  2.0136 -1.1286
    1MOL0     H  108   6.756   3.835   2.776  1.9067 -2.8006 -1.3737
    1MOL0     H  109   6.662   3.768   2.903  0.0327 -0.3124  0.1521
    1MOL0     H  110   6.825   3.588   2.938 -2.4304 -1.6758 -0.7877
    1MOL0     H  111   6.797   3.600   2.768 -0.9812  0.5159 -0.2203
    1MOL0     H  112   7.060   3.712   2.892  0.1659 -1.2855  0.3411
    1MOL0     H  113   6.996   3.742   2.728 -1.3891 -0.3850  0.1386
    1MOL0     H  114   7.004   3.464   2.753 -2.0312  1.8735 -1.8665
    1MOL0     H  115   7.122   3.513   2.869 -2.4565 -0.4768  1.4231
    1MOL0     H  116   7.220   3.649   2.678 -2.0459 -0.1552  1.0371
    1MOL0     H  117   7.081   3.594   2.583 -0.2186  2.3394 -0.5611
    1MOL0     H  118   6.365   4.044   3.254  0.1946  0.0817  0.9320
    1MOL0     H  119   6.393   4.133   3.494  1.1828 -2.0695 -0.6360
    1MOL0     H  120   6.472   4.418   3.740  0.2606 -1.3691 -1.1536
    1MOL0     H  121   6.436   4.508   3.954  0.2460 -0.7648 -1.9328
    1MOL0     H  122   5.391   5.357   5.678  4.1329  2.0834 -2.0084
    1MOL0     H  123   5.146   5.395   5.686  2.0184 -1.2366  1.8293
    1MOL0     H  124   4.736   5.268   5.211  1.8166  0.8119  1.5261
    1MOL0     H  125   4.503   5.347   5.191  0.6707 -3.1779 -0.0849
    1MOL0     H  126   4.303   5.382   5.587  0.0181 -0.6134  0.9019
    1MOL0     H  127   4.303   5.558   5.542 -0.4943 -0.6594  1.3013
    1MOL0     H  128   4.069   5.469   5.564  0.6437 -2.6601  0.2135
    1MOL0     H  129   4.114   5.366   5.422 -0.1343 -0.0397 -1.2350
    1MOL0     H  130   4.118   5.656   5.412  2.7435 -0.2937 -0.4177
    1MOL0     H  131   4.160   5.547   5.283 -1.5156 -0.2096 -0.7784
    1MOL0     H  132   3.932   5.448   5.279  1.9240  0.3596 -0.5508
    1MOL0     H  133   3.952   5.615   5.227  1.8483 -0.8465 -1.1074
    1MOL0     H  134   3.710   5.671   5.574 -0.9641 -2.2454  0.0069
    1MOL0     H  135   4.506   5.464   5.601  0.3357 -0.5310  1.4155
    1MOL0     H  136   4.689   5.400   5.738  2.1714  1.2956  0.8111
    1MOL0     H  137   4.834   5.317   5.669  0.2258 -1.1356  1.5902
    1MOL0     H  138   4.814   5.497   5.664  0.0199  0.4049  1.1917
    2MOL0     O  139   1.858   6.171   3.619  0.5656 -0.2427  0.2971
    2MOL0     C  140   1.768   6.211   3.693 -0.0615 -0.0275 -0.4652
    2MOL0     O  141   1.789   6.297   3.804 -0.5069 -0.1963 -0.3781
    2MOL0     C  142   1.917   6.325   3.831  0.0195  0.2839 -0.5424
    2MOL0     C  143   1.977   6.271   3.943 -0.4916  0.0855  0.3139
    2MOL0     C  144   2.112   6.294   3.977 -0.5468  0.1924  0.5409
    2MOL0     C  145   2.187   6.373   3.889 -0.2046 -1.4356 -0.1419
    2MOL0     O  146   2.324   6.391   3.910 -0.8383 -0.2571  0.4894
    2MOL0     C  147   2.389   6.508   3.863  0.8922  0.0472 -0.0472
    2MOL0     C  148   2.531   6.502   3.897  0.4033 -0.0983 -0.7626
    2MOL0     C  149   2.609   6.628   3.849 -0.6894  0.1069 -0.2945
    2MOL0     C  150   2.767   6.608   3.880  0.0014  0.4496 -0.0705
    2MOL0     C  151   2.867   6.716   3.823 -0.2797 -0.3562 -0.7471
    2MOL0     C  152   3.008   6.678   3.859 -0.6291  0.1317  0.7694
    2MOL0     C  153   3.114   6.762   3.789 -0.9063  0.7687 -0.2654
    2MOL0     C  154   3.097   6.907   3.824  0.7815 -0.7855  0.4752
    2MOL0     N  155   3.201   6.986   3.761  0.3823  0.6883 -0.2317
    2MOL0     C  156   3.319   7.017   3.815 -0.4926 -0.9080  0.3303
    2MOL0     C  157   3.381   7.111   3.738 -0.8576 -0.2691 -1.1239
    2MOL0     C  158   3.517   7.178   3.767  0.0121 -0.9646  0.4896
    2MOL0     C  159   3.642   7.089   3.738 -0.8687 -0.3914  0.2533
    2MOL0     C  160   3.762   7.153   3.799 -0.0826  0.2278 -0.0860
    2MOL0     C  161   3.904   7.101   3.758  0.6953  0.2650  0.1306
    2MOL0     O  162   3.997   7.107   3.868 -0.2680  0.0846  0.3480
    2MOL0     C  163   4.134   7.114   3.843  0.2668  0.9340 -0.0492
    2MOL0     C  164   4.228   7.156   3.936 -0.2946  0.3269 -0.3517
    2MOL0     C  165   4.369   7.175   3.907  0.3556 -0.0096 -0.7752
    2MOL0     C  166   4.461   7.253   4.000  0.2082 -0.0757 -0.0962
    2MOL0     C  167   4.414   7.134   3.779  0.5179  1.3803  0.1892
    2MOL0     C  168   4.559   7.133   3.741 -0.3713  0.7546  0.5059
    2MOL0     O  169   4.655   7.115   3.847  0.2864  0.6077 -0.3026
    2MOL0     C  170   4.791   7.118   3.827  0.5219  0.3167 -0.4993
    2MOL0     C  171   4.858   7.014   3.883  0.2227  0.9133  0.8927
    2MOL0     C  172   4.995   7.009   3.860 -0.4654  0.2460 -0.1296
    2MOL0     C  173   5.068   7.105   3.786  0.0748 -0.0959 -1.4903
    2MOL0     O  174   5.201   7.098   3.757 -0.8969  0.2342 -0.5367
    2MOL0     C  175   5.278   7.153   3.874  0.0937  0.5749  0.3781
    2MOL0     C  176   5.396   7.221   3.825 -0.0785 -0.9048  0.8022
    2MOL0     C  177   5.372   7.363   3.770 -0.3578  0.2572  0.8310
    2MOL0     C  178   5.506   7.422   3.730  0.2269 -0.4369 -0.4116
    2MOL0     C  179   5.480   7.559   3.673  0.3562  0.7174  1.1635
    2MOL0     C  180   5.602   7.642   3.660  0.0567  0.0582 -0.0248
    2MOL0     C  181   5.563   7.772   3.600  0.6979 -0.0372 -0.5853
    2MOL0     C  182   5.688   7.847   3.546  0.1093  0.5101  0.0415
    2MOL0    Cl  183   5.667   8.008   3.484  0.2793 -0.2832 -0.3219
    2MOL0     C  184   5.000   7.218   3.735 -0.2765 -0.1753  0.6000
    2MOL0     C  185   4.858   7.221   3.753  0.3010 -0.4994 -0.0849
    2MOL0     O  186   4.591   7.129   3.627 -0.1792 -0.1177 -0.0223
    2MOL0     C  187   4.328   7.077   3.693  0.0371 -0.4083  0.1294
    2MOL0     C  188   4.194   7.067   3.722  0.1076 -0.7483  0.0749
    2MOL0     N  189   3.298   7.115   3.622  0.0005  0.2866  0.1601
    2MOL0     N  190   3.200   7.032   3.637 -0.8159 -0.4192  0.0978
    2MOL0     C  191   2.125   6.436   3.784 -0.4305 -0.4560  0.2446
    2MOL0     C  192   1.996   6.406   3.752  0.4206 -0.2278  0.4955
    2MOL0     C  193   1.631   6.157   3.669 -0.6830  0.5338  0.5178
    2MOL0     C  194   1.616   6.069   3.559 -0.1659  0.2020  0.3461
    2MOL0     C  195   1.487   6.016   3.522 -1.0448  0.1918 -0.6604
    2MOL0     C  196   1.371   6.060   3.596 -0.3892  0.1444  0.2838
    2MOL0     O  197   1.250   6.016   3.567  0.2588  0.5726  0.4114
    2MOL0     C  198   1.216   5.886   3.506 -0.2166 -0.4423 -0.3602
    2MOL0     C  199   1.078   5.834   3.530  0.2703 -0.2058 -0.2690
    2MOL0     C  200   1.051   5.822   3.680 -1.5638 -0.5008 -0.5464
    2MOL0     C  201   0.904   5.791   3.713  0.6444 -0.1777  0.1611
    2MOL0     C  202   0.893   5.781   3.858 -0.6567 -0.1147 -0.1572
    2MOL0     C  203   0.890   5.796   3.979  0.1065  0.2417 -0.8111
    2MOL0     C  204   1.389   6.146   3.707 -0.0928 -0.7368  1.0933
    2MOL0     C  205   1.517   6.184   3.749  0.0305 -0.7919 -0.6315
    2MOL0     C  206   1.524   6.280   3.873 -0.4530 -0.1998 -0.0987
    2MOL0     H  207   1.921   6.211   4.014  0.1796 -1.0344 -0.0765
    2MOL0     H  208   2.131   6.235   4.066 -1.8018 -1.0311  0.0318
    2MOL0     H  209   2.359   6.606   3.903  4.6802  1.5914 -0.5574
    2MOL0     H  210   2.383   6.505   3.754  1.2509  0.4651 -0.0841
    2MOL0     H  211   2.537   6.503   4.006 -2.8551 -0.3200 -0.4855
    2MOL0     H  212   2.576   6.410   3.860  1.0464  1.3448 -3.8858
    2MOL0     H  213   2.583   6.662   3.748 -2.3896 -2.1581 -0.7086
    2MOL0     H  214   2.598   6.720   3.908  2.4949  0.7657 -0.5304
    2MOL0     H  215   2.783   6.597   3.988 -2.6827 -0.9831  0.2622
    2MOL0     H  216   2.804   6.519   3.829  3.0792  1.1549  0.7662
    2MOL0     H  217   2.839   6.809   3.872  1.6145 -2.0088  4.1822
    2MOL0     H  218   2.852   6.735   3.717 -1.1442 -0.5097 -0.6619
    2MOL0     H  219   3.028   6.678   3.966  0.9071  3.6345  0.6364
    2MOL0     H  220   3.019   6.576   3.821  0.2518  0.9990 -1.4639
    2MOL0     H  221   3.110   6.770   3.680  0.5746  4.4224 -0.1674
    2MOL0     H  222   3.216   6.735   3.821 -0.9434 -0.4652 -1.1133
    2MOL0     H  223   3.000   6.934   3.781  1.3013 -2.5003 -1.9843
    2MOL0     H  224   3.105   6.910   3.933  1.7107 -1.6729  0.4496
    2MOL0     H  225   3.357   6.981   3.911  4.6971  0.5812 -0.8220
    2MOL0     H  226   3.524   7.213   3.870  0.2277  0.4818  0.0144
    2MOL0     H  227   3.516   7.278   3.722  0.0466 -0.0230  2.4645
    2MOL0     H  228   3.626   6.991   3.783 -1.9366 -0.5282 -0.3955
    2MOL0     H  229   3.651   7.069   3.631  1.6943 -1.8806  0.6700
    2MOL0     H  230   3.752   7.261   3.790  0.1838  0.1200 -1.8828
    2MOL0     H  231   3.748   7.134   3.906 -3.2338  1.5561 -0.1534
    2MOL0     H  232   3.889   7.000   3.719 -1.3005  0.6116 -0.0674
    2MOL0     H  233   3.938   7.158   3.671 -1.1584 -0.3245 -1.0326
    2MOL0     H  234   4.201   7.186   4.037 -2.5026 -2.8533  0.1354
    2MOL0     H  235   4.400   7.296   4.081  1.3847 -2.1600  2.0346
    2MOL0     H  236   4.508   7.335   3.945  0.0689 -0.9869 -1.6188
    2MOL0     H  237   4.541   7.193   4.045  0.3804 -0.7808 -1.3055
    2MOL0     H  238   4.797   6.954   3.950  0.0593  1.1785  0.9838
    2MOL0     H  239   5.046   6.921   3.897 -0.3388  0.3521 -0.0503
    2MOL0     H  240   5.216   7.211   3.943 -1.4963 -0.3207 -0.2547
    2MOL0     H  241   5.324   7.064   3.919 -0.0976  0.1585 -0.2423
    2MOL0     H  242   5.473   7.234   3.902 -0.2312  3.2435  0.4972
    2MOL0     H  243   5.444   7.165   3.744 -0.9605 -0.2724 -0.1891
    2MOL0     H  244   5.320   7.422   3.847 -0.7299  1.7825 -0.5259
    2MOL0     H  245   5.305   7.353   3.683  1.0916  0.0096 -0.2935
    2MOL0     H  246   5.560   7.361   3.658  4.5686  0.8480  1.3820
    2MOL0     H  247   5.581   7.427   3.810  0.9643 -1.2272 -1.0401
    2MOL0     H  248   5.440   7.542   3.572  1.6355 -2.3529  1.0617
    2MOL0     H  249   5.422   7.616   3.745  1.0499  2.8296  0.1294
    2MOL0     H  250   5.676   7.593   3.597  0.6938 -0.1302  0.8487
    2MOL0     H  251   5.656   7.651   3.755 -1.6934 -0.8703  1.1096
    2MOL0     H  252   5.523   7.820   3.690  0.8256 -1.9090  0.5199
    2MOL0     H  253   5.481   7.760   3.529  2.3502  1.3480 -2.8742
    2MOL0     H  254   5.747   7.782   3.482  1.1157  1.7506 -0.3487
    2MOL0     H  255   5.754   7.867   3.631 -1.1096  1.0438  0.9028
    2MOL0     H  256   5.049   7.294   3.675 -0.2829 -1.1105 -0.6164
    2MOL0     H  257   4.810   7.292   3.686 -0.9064 -2.1336 -1.0290
    2MOL0     H  258   4.343   7.039   3.592 -0.2384 -1.2318  0.3936
    2MOL0     H  259   4.129   7.032   3.644  0.9009 -1.5245 -0.2519
    2MOL0     H  260   2.175   6.494   3.707 -6.2502  4.3209 -0.6720
    2MOL0     H  261   1.939   6.444   3.668 -1.4320 -0.9379  1.3518
    2MOL0     H  262   1.700   6.026   3.505 -1.4247 -1.7676 -0.1763
    2MOL0     H  263   1.481   5.940   3.445  1.5774 -0.6127 -0.1682
    2MOL0     H  264   1.232   5.896   3.399 -2.4202  0.8885 -0.6116
    2MOL0     H  265   1.279   5.806   3.547 -3.2395 -2.8751 -0.1363
    2MOL0     H  266   1.051   5.740   3.481 -3.3498 -0.2034  1.3637
    2MOL0     H  267   1.006   5.911   3.498 -1.2319 -1.2766  0.4231
    2MOL0     H  268   1.106   5.731   3.706 -3.0881 -1.0049  1.1481
    2MOL0     H  269   1.083   5.910   3.736  0.7206 -0.1330 -2.3040
    2MOL0     H  270   0.872   5.701   3.660 -0.0173 -0.1063  0.4240
    2MOL0     H  271   0.838   5.874   3.688 -0.4862 -1.9081 -3.1915
    2MOL0     H  272   0.890   5.797   4.086  1.0267 -0.0829 -0.8007
    2MOL0     H  273   1.308   6.182   3.770  1.2565  0.5325  2.1528
    2MOL0     H  274   1.431   6.290   3.929  1.1501 -1.1885  2.9514
    2MOL0     H  275   1.600   6.253   3.946 -1.8667 -0.1607  1.4450
    2MOL0     H  276   1.545   6.381   3.837 -1.9910 -0.4047 -1.7180
    3MOL0     O  277   4.799   3.114   7.116 -0.3440 -0.1861 -0.6378
    3MOL0     C  278   4.684   3.076   7.111 -0.4930 -0.2023  1.3727
    3MOL0     O  279   4.574   3.151   7.077  1.0245  0.6470  0.1874
    3MOL0     C  280   4.586   3.273   7.018  1.5736  0.1664 -0.2767
    3MOL0     C  281   4.677   3.287   6.916  0.0234 -0.6806  0.3304
    3MOL0     C  282   4.693   3.412   6.857 -0.7941  0.4987  0.6253
    3MOL0     C  283   4.602   3.517   6.889 -0.4426 -0.5611  0.6538
    3MOL0     O  284   4.618   3.645   6.837 -0.0156 -0.4240  0.1485
    3MOL0     C  285   4.750   3.695   6.797 -0.5238  0.0156 -0.0154
    3MOL0     C  286   4.771   3.669   6.651  0.2812 -0.4056 -0.2270
    3MOL0     C  287   4.918   3.625   6.616  0.1104 -0.1501 -0.2511
    3MOL0     C  288   4.933   3.554   6.481  0.2885 -0.3280 -0.0121
    3MOL0     C  289   5.076   3.522   6.436 -0.0299  0.5722 -0.1766
    3MOL0     C  290   5.068   3.462   6.298  0.3389  0.0354  0.0982
    3MOL0     C  291   4.973   3.539   6.182 -0.5640  0.3346  0.0224
    3MOL0     C  292   5.029   3.673   6.144  0.1832  1.0063 -0.3851
    3MOL0     N  293   5.168   3.659   6.096 -0.1673  0.5389 -0.0873
    3MOL0     C  294   5.203   3.626   5.963  0.2576 -0.9706  0.0473
    3MOL0     C  295   5.334   3.624   5.961  0.4498  0.0691 -0.2154
    3MOL0     C  296   5.413   3.591   5.833 -0.4545  0.3200 -0.1125
    3MOL0     C  297   5.428   3.714   5.737 -0.3561 -0.0284  0.1589
    3MOL0     C  298   5.299   3.735   5.643  0.4949 -0.7972  0.5486
    3MOL0     C  299   5.322   3.853   5.545  0.8063  0.0285  0.3398
    3MOL0     O  300   5.344   3.984   5.613  0.3213  0.4305 -0.0687
    3MOL0     C  301   5.261   4.009   5.723  0.8158  0.4721 -0.8787
    3MOL0     C  302   5.126   3.983   5.706 -1.0348  0.2134  0.1420
    3MOL0     C  303   5.037   3.983   5.815  1.8615 -0.4773  0.1499
    3MOL0     C  304   4.891   3.973   5.792  0.3800  0.4905  0.2561
    3MOL0     C  305   5.089   3.999   5.946  0.5593  0.5115 -0.3069
    3MOL0     C  306   5.001   3.995   6.071  0.2984  0.1008 -0.0255
    3MOL0     O  307   4.868   3.970   6.054 -0.9822 -0.0713 -0.6691
    3MOL0     C  308   4.800   3.971   6.172  0.9604 -0.0647  0.8737
    3MOL0     C  309   4.729   3.855   6.193  0.5905  0.3974 -0.3346
    3MOL0     C  310   4.620   3.854   6.284  0.1588  0.0457  0.7246
    3MOL0     C  311   4.606   3.965   6.372  0.8141  0.0391 -0.5647
    3MOL0     O  312   4.506   3.975   6.466  0.7236 -0.2159 -0.2628
    3MOL0     C  313   4.447   3.851   6.529  0.0521  0.8013 -0.5880
    3MOL0     C  314   4.349   3.885   6.637  0.7190 -0.3109 -0.1573
    3MOL0     C  315   4.238   3.973   6.579  1.2490  0.0472  0.4340
    3MOL0     C  316   4.142   4.013   6.685  0.1891  0.2298 -0.7174
    3MOL0     C  317   4.057   3.891   6.731 -0.6123  0.6439  0.0748
    3MOL0     C  318   3.954   3.911   6.845 -0.3663 -0.4071  0.8662
    3MOL0     C  319   3.843   4.005   6.823  0.0837 -0.1030  0.3469
    3MOL0     C  320   3.770   4.031   6.956 -0.4942 -0.2934  0.0351
    3MOL0    Cl  321   3.687   3.874   7.003  0.2095 -0.0510  0.0314
    3MOL0     C  322   4.693   4.074   6.360  0.0792 -0.5426  0.1374
    3MOL0     C  323   4.780   4.080   6.254  0.5996  0.2313  0.3253
    3MOL0     O  324   5.063   3.990   6.179  0.4291  0.3419 -0.4727
    3MOL0     C  325   5.230   4.027   5.964 -0.2154  0.8579 -0.0750
    3MOL0     C  326   5.319   4.032   5.850  0.4269  0.4931  0.7599
    3MOL0     N  327   5.384   3.653   6.086 -0.4771 -0.4208 -0.0489
    3MOL0     N  328   5.284   3.683   6.165  0.0425 -0.5262  0.1981
    3MOL0     C  329   4.506   3.495   6.987 -0.0864  0.5540 -0.4740
    3MOL0     C  330   4.496   3.372   7.057 -0.0608 -1.5145 -0.4063
    3MOL0     C  331   4.655   2.925   7.138  0.1746 -0.0364 -0.8325
    3MOL0     C  332   4.521   2.890   7.176 -0.3375  0.2101  1.0626
    3MOL0     C  333   4.469   2.761   7.205 -0.0840  0.3905 -0.1676
    3MOL0     C  334   4.557   2.659   7.209 -0.4613  0.2000 -0.4635
    3MOL0     O  335   4.528   2.529   7.227  0.5691 -1.0616  0.0507
    3MOL0     C  336   4.471   2.481   7.107  0.5739  0.3958  0.4106
    3MOL0     C  337   4.386   2.351   7.131 -0.1670 -0.3324 -0.5622
    3MOL0     C  338   4.287   2.367   7.246  0.4005 -0.2520 -0.8288
    3MOL0     C  339   4.147   2.422   7.197  0.3953 -0.2560 -0.0163
    3MOL0     C  340   4.068   2.322   7.121 -0.8551 -0.1171 -0.8232
    3MOL0     C  341   4.006   2.247   7.049  0.7766  0.4338  0.7313
    3MOL0     C  342   4.691   2.690   7.176 -0.6484  0.0593 -0.9153
    3MOL0     C  343   4.742   2.814   7.149 -0.3645 -0.2246 -0.3414
    3MOL0     C  344   4.881   2.837   7.098  0.4345  0.6509 -0.6876
    3MOL0     H  345   4.736   3.206   6.874  0.2866  0.5496 -1.8144
    3MOL0     H  346   4.774   3.432   6.787 -0.2066  2.5839  1.8081
    3MOL0     H  347   4.827   3.647   6.858  0.4313  0.8846 -0.5192
    3MOL0     H  348   4.757   3.803   6.806  4.1977  0.1238 -2.0398
    3MOL0     H  349   4.697   3.595   6.620 -1.4930  1.3780 -0.5298
    3MOL0     H  350   4.748   3.761   6.595 -0.2640 -0.2235  0.2822
    3MOL0     H  351   4.986   3.710   6.605  0.6754 -0.7658 -1.9317
    3MOL0     H  352   4.964   3.560   6.691  0.0145  0.0055 -0.0589
    3MOL0     H  353   4.862   3.473   6.464 -2.4450  1.8013  0.5350
    3MOL0     H  354   4.879   3.626   6.419 -0.8904 -1.2363 -0.0696
    3MOL0     H  355   5.120   3.449   6.505 -1.0585  1.4940  1.5151
    3MOL0     H  356   5.146   3.607   6.434  1.3083 -0.5011 -0.4506
    3MOL0     H  357   5.174   3.455   6.272  0.4870 -3.2306  1.1800
    3MOL0     H  358   5.043   3.356   6.303  0.4361  0.0460  0.8519
    3MOL0     H  359   4.872   3.564   6.216 -1.1837 -2.4829  0.4368
    3MOL0     H  360   4.952   3.477   6.094 -2.3368  1.8971 -0.7146
    3MOL0     H  361   4.963   3.709   6.064 -1.6733  1.0434  1.0748
    3MOL0     H  362   5.025   3.740   6.231  1.5976 -1.4741  1.7399
    3MOL0     H  363   5.142   3.597   5.878  1.7232 -0.1838 -1.3211
    3MOL0     H  364   5.387   3.500   5.778 -0.7147  0.2640  0.0986
    3MOL0     H  365   5.513   3.562   5.867 -0.6284 -0.9441 -0.6455
    3MOL0     H  366   5.454   3.806   5.789 -0.8560  0.3252 -0.2022
    3MOL0     H  367   5.514   3.696   5.672  0.0553  2.2174  0.0234
    3MOL0     H  368   5.288   3.641   5.587  2.2396 -1.4042  1.1370
    3MOL0     H  369   5.209   3.757   5.701  1.3264  2.0978  0.9014
    3MOL0     H  370   5.415   3.842   5.489  1.0478  1.7426  0.3384
    3MOL0     H  371   5.247   3.858   5.465  3.0815  0.0964 -1.9147
    3MOL0     H  372   5.093   3.976   5.602  0.9259  1.4616 -0.6250
    3MOL0     H  373   4.839   4.061   5.831 -2.5577 -0.0029 -2.1320
    3MOL0     H  374   4.849   3.882   5.836 -0.9082  1.1081  0.3601
    3MOL0     H  375   4.865   3.974   5.685 -1.7487 -0.1305  0.7099
    3MOL0     H  376   4.743   3.775   6.121 -0.6602  0.4177 -0.6170
    3MOL0     H  377   4.556   3.766   6.284  1.8251 -1.2454 -0.7256
    3MOL0     H  378   4.391   3.794   6.455  1.5209  2.1144 -2.8185
    3MOL0     H  379   4.520   3.778   6.565 -0.4721 -0.0437 -1.2202
    3MOL0     H  380   4.310   3.784   6.653  0.5648 -1.1183 -4.4782
    3MOL0     H  381   4.395   3.933   6.724 -0.6796  1.2256 -0.2153
    3MOL0     H  382   4.189   3.934   6.489 -0.5184  1.4630  0.7267
    3MOL0     H  383   4.282   4.064   6.538 -1.5799  0.7620 -1.3459
    3MOL0     H  384   4.086   4.097   6.645  3.7501  2.8831 -0.6127
    3MOL0     H  385   4.189   4.057   6.773 -1.3290 -0.3145  0.4042
    3MOL0     H  386   4.012   3.852   6.639  0.2559  0.4583 -0.2800
    3MOL0     H  387   4.132   3.833   6.785  0.0654  2.0988  0.7733
    3MOL0     H  388   4.015   3.958   6.922  0.5017 -1.2641  0.7261
    3MOL0     H  389   3.914   3.813   6.873 -1.3256  0.4835  2.7619
    3MOL0     H  390   3.773   3.972   6.746  0.3360  1.7663 -0.7262
    3MOL0     H  391   3.885   4.103   6.802  0.1222  0.2803  2.0259
    3MOL0     H  392   3.704   4.118   6.944  3.5050  2.7041 -3.0800
    3MOL0     H  393   3.851   4.056   7.026  0.9249 -0.8589 -1.3485
    3MOL0     H  394   4.673   4.157   6.427  2.0840  1.0070 -1.0423
    3MOL0     H  395   4.844   4.164   6.229  1.8382 -0.9436 -0.5838
    3MOL0     H  396   5.276   4.045   6.060  1.3696 -3.9837  0.3189
    3MOL0     H  397   5.427   4.037   5.836  0.3801 -1.0298 -0.4828
    3MOL0     H  398   4.427   3.565   7.014  0.5181  0.8324  0.6487
    3MOL0     H  399   4.418   3.345   7.128 -0.3898 -0.4393 -0.3432
    3MOL0     H  400   4.445   2.967   7.179 -0.5345  0.1293 -0.7009
    3MOL0     H  401   4.365   2.735   7.223 -0.4477  2.0648  0.2726
    3MOL0     H  402   4.389   2.547   7.078  0.2648  0.5318  1.5431
    3MOL0     H  403   4.534   2.470   7.019 -0.7569  0.4989 -0.5887
    3MOL0     H  404   4.464   2.278   7.155  1.4909  1.5096  0.0191
    3MOL0     H  405   4.339   2.316   7.039  2.1114  0.7316 -2.2275
    3MOL0     H  406   4.266   2.267   7.286 -0.4369 -0.4178 -1.6637
    3MOL0     H  407   4.324   2.435   7.323 -1.1916 -1.0067  0.6908
    3MOL0     H  408   4.150   2.518   7.144 -1.3428  0.7483  1.5794
    3MOL0     H  409   4.093   2.435   7.291  1.5445  3.0369  0.3065
    3MOL0     H  410   3.952   2.177   6.989 -2.5967  2.6913  0.8619
    3MOL0     H  411   4.758   2.605   7.173 -0.7747 -0.0221 -2.2546
    3MOL0     H  412   4.923   2.736   7.105 -0.9388 -0.0210 -1.7192
    3MOL0     H  413   4.886   2.858   6.991 -4.4552 -2.3213 -1.8296
    3MOL0     H  414   4.934   2.905   7.165  0.2452 -1.1692  1.4291
    4MOL0     O  415   6.350   3.802   0.584 -0.3430  0.6788  0.2984
    4MOL0     C  416   6.462   3.786   0.537  0.5010 -0.3330  0.6408
    4MOL0     O  417   6.502   3.676   0.460 -0.7683  0.0501 -0.7540
    4MOL0     C  418   6.409   3.587   0.408 -0.9585 -0.2063 -0.5687
    4MOL0     C  419   6.414   3.458   0.451 -0.3213  0.2045 -0.0463
    4MOL0     C  420   6.327   3.357   0.403  0.1048  0.6279  0.4080
    4MOL0     C  421   6.241   3.395   0.291  0.4455  0.8409 -1.4200
    4MOL0     O  422   6.153   3.305   0.224 -0.8312  0.2851 -0.3859
    4MOL0     C  423   6.190   3.166   0.219  0.8629 -0.2409  0.7321
    4MOL0     C  424   6.111   3.077   0.128  0.1512 -0.3698 -0.0925
    4MOL0     C  425   6.137   3.137  -0.006 -0.3364  0.9493  0.5386
    4MOL0     C  426   6.125   3.032  -0.123  0.4260 -0.8497 -0.4205
    4MOL0     C  427   6.186   3.069  -0.257 -0.0453  0.3711  1.0435
    4MOL0     C  428   6.213   2.942  -0.342 -0.5135  0.1165  0.0021
    4MOL0     C  429   6.293   2.977  -0.461  0.0249 -0.3303  0.5599
    4MOL0     C  430   6.228   3.076  -0.553  0.3959 -0.9310 -0.0793
    4MOL0     N  431   6.093   3.039  -0.592  0.6305 -0.2249  0.7966
    4MOL0     C  432   5.979   3.090  -0.543 -0.2406  0.2235 -0.8162
    4MOL0     C  433   5.880   2.996  -0.575 -0.1172 -0.9266 -0.0938
    4MOL0     C  434   5.728   2.994  -0.543 -0.1146 -1.3120  0.7470
    4MOL0     C  435   5.694   3.073  -0.423  0.6527 -0.1666 -0.2586
    4MOL0     C  436   5.539   3.089  -0.411 -0.1830  0.4274 -0.2802
    4MOL0     C  437   5.512   3.174  -0.286 -0.1866  1.4012  0.3123
    4MOL0     O  438   5.573   3.102  -0.179  0.1976 -0.1652  0.0662
    4MOL0     C  439   5.610   3.184  -0.076  0.8423 -1.2078 -0.1954
    4MOL0     C  440   5.528   3.288  -0.015 -0.5263  0.3723  0.0380
    4MOL0     C  441   5.559   3.356   0.102 -0.4135  0.3410 -0.4547
    4MOL0     C  442   5.451   3.451   0.164  0.0020 -0.1098 -0.2531
    4MOL0     C  443   5.679   3.321   0.173 -0.0831 -1.0502  0.5922
    4MOL0     C  444   5.721   3.400   0.292  0.5282 -0.5564  0.0480
    4MOL0     O  445   5.768   3.328   0.402  0.1563 -0.3593 -0.6090
    4MOL0     C  446   5.825   3.408   0.497 -0.1156  0.5508  0.2704
    4MOL0     C  447   5.961   3.445   0.498 -0.4624  0.5070 -0.2274
    4MOL0     C  448   6.021   3.521   0.603 -0.6263 -0.2165 -0.7300
    4MOL0     C  449   5.951   3.545   0.726  0.4192 -0.1879  0.5208
    4MOL0     O  450   6.007   3.606   0.833  0.2394 -0.5234 -0.7140
    4MOL0     C  451   6.145   3.625   0.844  0.2359 -0.6615  0.8174
    4MOL0     C  452   6.178   3.692   0.980 -0.0696  0.6981 -0.6295
    4MOL0     C  453   6.327   3.730   0.998 -0.2464  0.5498  0.3516
    4MOL0     C  454   6.422   3.601   0.985  1.0443 -0.3868 -0.3156
    4MOL0     C  455   6.558   3.617   1.058 -0.1708 -0.6380  0.6591
    4MOL0     C  456   6.637   3.749   1.007  0.3728  0.5866  0.3659
    4MOL0     C  457   6.764   3.764   1.085  0.1360  0.9668 -0.0012
    4MOL0     C  458   6.804   3.908   1.103 -0.0943 -0.5910 -0.1154
    4MOL0    Cl  459   6.942   3.908   1.232  0.5716  0.3758 -0.0124
    4MOL0     C  460   5.810   3.514   0.722  0.0873  0.1578  0.5711
    4MOL0     C  461   5.753   3.444   0.612 -0.5982 -1.4410  0.2945
    4MOL0     O  462   5.718   3.522   0.289  0.4142 -0.7210  0.4988
    4MOL0     C  463   5.752   3.213   0.118  0.7685 -0.1620  0.5608
    4MOL0     C  464   5.722   3.149  -0.002 -0.1499  0.0329  0.8185
    4MOL0     N  465   5.938   2.904  -0.660  0.3788 -0.3306 -0.3328
    4MOL0     N  466   6.057   2.926  -0.661  0.3456 -0.6283  0.4343
    4MOL0     C  467   6.239   3.529   0.247  0.0589  0.1666 -0.0002
    4MOL0     C  468   6.319   3.620   0.303 -0.9645  0.0933 -0.5448
    4MOL0     C  469   6.559   3.905   0.550 -1.3129 -0.3809 -0.2322
    4MOL0     C  470   6.519   4.038   0.552  0.4578  0.0916 -0.2355
    4MOL0     C  471   6.610   4.147   0.557  0.1710  0.3695  0.1871
    4MOL0     C  472   6.747   4.119   0.566 -0.6110  0.1621 -0.7312
    4MOL0     O  473   6.835   4.225   0.574 -0.3969  1.0971 -0.1815
    4MOL0     C  474   6.868   4.224   0.718 -0.2497 -1.1728 -0.2606
    4MOL0     C  475   6.970   4.337   0.747 -0.7186  0.2123  0.3205
    4MOL0     C  476   7.097   4.317   0.657  0.1987  0.3030 -0.1817
    4MOL0     C  477   7.195   4.432   0.677 -0.0582  0.4272  0.4011
    4MOL0     C  478   7.254   4.435   0.812 -0.9965 -0.6351 -0.2668
    4MOL0     C  479   7.302   4.476   0.918  0.1455  0.8409  0.8079
    4MOL0     C  480   6.789   3.988   0.557  0.1769  0.3503 -0.3008
    4MOL0     C  481   6.700   3.883   0.549  0.1841 -1.0984  0.1361
    4MOL0     C  482   6.765   3.748   0.551  0.2497 -0.0163  0.5982
    4MOL0     H  483   6.491   3.433   0.524 -0.5254  1.3107  0.5687
    4MOL0     H  484   6.328   3.258   0.446 -1.5620  1.5748  2.8670
    4MOL0     H  485   6.159   3.134   0.319 -0.0841  2.0863  1.2495
    4MOL0     H  486   6.293   3.151   0.186  1.5932  0.7426  2.4721
    4MOL0     H  487   6.141   2.972   0.133  0.1708 -0.3581  0.0489
    4MOL0     H  488   6.005   3.092   0.153  1.1628  3.8695  2.8087
    4MOL0     H  489   6.071   3.222  -0.024  1.0438  2.8962  3.7983
    4MOL0     H  490   6.240   3.173  -0.014  0.1853 -0.3963  0.8941
    4MOL0     H  491   6.158   2.936  -0.082  0.1081 -1.1820 -0.9326
    4MOL0     H  492   6.020   3.020  -0.149  0.1134 -1.8228  1.1324
    4MOL0     H  493   6.281   3.121  -0.243  1.6330 -3.0285  4.2730
    4MOL0     H  494   6.119   3.141  -0.303 -0.4433 -0.1676  0.7625
    4MOL0     H  495   6.276   2.869  -0.291  0.8847 -0.2463 -2.1356
    4MOL0     H  496   6.113   2.903  -0.367  0.3766 -0.5094 -2.9348
    4MOL0     H  497   6.320   2.889  -0.520  2.5645 -1.7629  3.5210
    4MOL0     H  498   6.397   3.009  -0.444  0.2271 -2.4069  4.1929
    4MOL0     H  499   6.229   3.174  -0.505 -0.0150 -2.0585  2.3375
    4MOL0     H  500   6.301   3.085  -0.635  1.9113 -0.1534  1.2824
    4MOL0     H  501   5.954   3.180  -0.489  0.0062 -0.5239  0.5976
    4MOL0     H  502   5.698   2.891  -0.525 -0.8399 -1.6183 -1.8978
    4MOL0     H  503   5.664   3.036  -0.621 -1.2911 -0.0269  2.3262
    4MOL0     H  504   5.741   3.013  -0.344 -0.3191 -0.1405  0.3465
    4MOL0     H  505   5.724   3.178  -0.429 -2.6378  0.8486 -0.8870
    4MOL0     H  506   5.507   3.125  -0.509  2.5048 -0.7814 -1.7186
    4MOL0     H  507   5.486   2.994  -0.400 -0.8233  0.8437  0.3370
    4MOL0     H  508   5.557   3.271  -0.309  0.0314  1.1096 -0.5174
    4MOL0     H  509   5.408   3.192  -0.256  0.8476  3.1304  3.3879
    4MOL0     H  510   5.440   3.326  -0.066 -1.4421 -2.2516 -0.4932
    4MOL0     H  511   5.485   3.537   0.221  0.2561  0.5634 -1.3895
    4MOL0     H  512   5.385   3.385   0.222 -0.1990 -0.5190 -0.9285
    4MOL0     H  513   5.379   3.483   0.088 -3.1522  0.6318  2.7632
    4MOL0     H  514   6.011   3.411   0.408 -0.6651 -1.2851  0.2890
    4MOL0     H  515   6.127   3.537   0.585  0.1436 -0.3560  2.8370
    4MOL0     H  516   6.208   3.536   0.834  0.8119 -0.0384 -1.8204
    4MOL0     H  517   6.175   3.702   0.773 -0.2779  0.2019  1.5181
    4MOL0     H  518   6.114   3.780   0.992  1.9831  1.9284  2.7113
    4MOL0     H  519   6.146   3.624   1.058  0.7178  1.7133  0.6173
    4MOL0     H  520   6.336   3.764   1.102 -0.4364 -0.4475  0.7061
    4MOL0     H  521   6.362   3.808   0.930 -2.9174  0.3619 -1.3778
    4MOL0     H  522   6.449   3.576   0.882 -0.1967  1.8867 -1.2714
    4MOL0     H  523   6.363   3.515   1.018 -1.6281  0.4976 -2.4465
    4MOL0     H  524   6.537   3.631   1.164 -1.6099  3.3813  0.0212
    4MOL0     H  525   6.617   3.530   1.028 -0.0960 -0.2007 -0.5285
    4MOL0     H  526   6.569   3.835   1.012  0.4398  0.7167 -0.6396
    4MOL0     H  527   6.660   3.744   0.900 -1.7735 -2.0054 -0.0851
    4MOL0     H  528   6.848   3.704   1.049  0.5828  0.0892  2.3502
    4MOL0     H  529   6.745   3.725   1.186  1.7183 -1.7332 -0.6614
    4MOL0     H  530   6.721   3.974   1.128  0.4390  0.7260 -1.6682
    4MOL0     H  531   6.829   3.950   1.005 -0.6571 -1.7390 -0.7854
    4MOL0     H  532   5.750   3.554   0.803 -2.2828 -1.9079 -0.0592
    4MOL0     H  533   5.647   3.421   0.616 -0.8164 -0.3271  3.3899
    4MOL0     H  534   5.837   3.175   0.174  1.2841  0.0710 -0.0470
    4MOL0     H  535   5.784   3.065  -0.033 -0.1823  0.0330  0.7506
    4MOL0     H  536   6.197   3.547   0.149  0.0593 -0.0502 -0.0408
    4MOL0     H  537   6.323   3.718   0.256  0.7538 -1.1472 -3.2157
    4MOL0     H  538   6.412   4.051   0.554  0.1997 -1.7923  1.6727
    4MOL0     H  539   6.574   4.249   0.549  1.2743  1.0074  2.5180
    4MOL0     H  540   6.776   4.227   0.778 -0.5339  1.2194 -0.6884
    4MOL0     H  541   6.913   4.126   0.734 -0.4209 -1.3820 -1.0556
    4MOL0     H  542   7.002   4.326   0.851  1.5981 -1.0159 -0.4511
    4MOL0     H  543   6.922   4.433   0.726 -0.0660  0.4466 -0.1473
    4MOL0     H  544   7.149   4.232   0.703 -0.0554  0.9530  1.3786
    4MOL0     H  545   7.074   4.301   0.551  2.6974 -0.5638 -0.6459
    4MOL0     H  546   7.140   4.522   0.648  0.4222  0.2616 -1.1321
    4MOL0     H  547   7.282   4.417   0.612  0.1455  1.2993  0.4647
    4MOL0     H  548   7.351   4.496   1.011 -2.8987 -1.5032  3.1219
    4MOL0     H  549   6.897   3.980   0.545  0.3155  1.8121 -0.2053
    4MOL0     H  550   6.868   3.758   0.586  0.2339 -0.5368  0.8080
    4MOL0     H  551   6.717   3.680   0.622  0.1332 -0.4712  0.0906
    4MOL0     H  552   6.772   3.689   0.460 -1.3537 -1.2467  1.2193
    5MOL0     O  553   1.291   7.764   0.138 -0.1162 -0.3732 -0.2436
    5MOL0     C  554   1.267   7.673   0.064  1.3018 -0.4256  0.0183
    5MOL0     O  555   1.328   7.647  -0.058 -0.4200 -0.5193  0.8273
    5MOL0     C  556   1.431   7.714  -0.105 -1.0239 -1.3004  0.3029
    5MOL0     C  557   1.527   7.765  -0.018 -0.5525  0.5747 -0.3551
    5MOL0     C  558   1.640   7.831  -0.066  0.2686  1.2199  0.0845
    5MOL0     C  559   1.654   7.858  -0.205 -1.1947  0.1517 -0.2086
    5MOL0     O  560   1.768   7.927  -0.244 -1.1192 -0.3326 -0.2670
    5MOL0     C  561   1.771   8.056  -0.191  0.2121 -0.3386  0.1209
    5MOL0     C  562   1.692   8.145  -0.288  0.2307  0.6531 -0.2477
    5MOL0     C  563   1.696   8.284  -0.232  0.2485 -0.2101  0.4692
    5MOL0     C  564   1.637   8.396  -0.324 -0.9225 -0.6653 -0.8166
    5MOL0     C  565   1.666   8.539  -0.268 -0.3944 -0.7104 -0.0036
    5MOL0     C  566   1.581   8.579  -0.139  0.3425  0.2992 -0.6289
    5MOL0     C  567   1.613   8.716  -0.087 -0.2951 -0.2134 -0.8363
    5MOL0     C  568   1.700   8.691   0.041 -0.0750  0.5240 -0.4748
    5MOL0     N  569   1.827   8.620   0.006  0.4533 -0.6650  0.3062
    5MOL0     C  570   1.945   8.679  -0.028 -0.9096  0.5938 -0.2823
    5MOL0     C  571   2.032   8.579  -0.036 -1.3474  0.2736 -0.1940
    5MOL0     C  572   2.178   8.583  -0.082 -0.0200 -0.4864 -0.8486
    5MOL0     C  573   2.268   8.492   0.009 -0.4987 -0.7565 -0.3324
    5MOL0     C  574   2.249   8.516   0.163  0.3947 -0.6667 -0.2450
    5MOL0     C  575   2.285   8.651   0.214 -0.2258 -0.8546 -0.3760
    5MOL0     O  576   2.199   8.752   0.160  0.2030 -0.4246  0.7179
    5MOL0     C  577   2.215   8.883   0.202 -0.3725 -0.5557 -0.1781
    5MOL0     C  578   2.108   8.972   0.197  0.3129 -0.5588  0.1718
    5MOL0     C  579   2.123   9.100   0.250 -0.3491  0.2092  0.1599
    5MOL0     C  580   1.989   9.171   0.260 -1.0785  0.3842  0.5112
    5MOL0     C  581   2.238   9.143   0.305 -1.0868  0.6908  0.6789
    5MOL0     C  582   2.264   9.276   0.356  0.3124 -0.4160 -0.0930
    5MOL0     O  583   2.368   9.283   0.439 -0.7645 -0.3978  0.0642
    5MOL0     C  584   2.342   9.343   0.560  0.3743 -0.6008 -0.0065
    5MOL0     C  585   2.334   9.484   0.575 -0.0322 -0.2439  0.1580
    5MOL0     C  586   2.291   9.539   0.691  0.9254 -0.2983  0.2628
    5MOL0     C  587   2.250   9.466   0.796 -0.0441  0.2965 -0.4682
    5MOL0     O  588   2.196   9.534   0.906  0.1877 -0.0920 -0.0168
    5MOL0     C  589   2.158   9.459   1.019 -0.0598  0.2258 -0.7046
    5MOL0     C  590   2.294   9.431   1.103  0.6365 -0.5236 -0.8505
    5MOL0     C  591   2.263   9.337   1.218  0.0439  0.2181 -0.6384
    5MOL0     C  592   2.380   9.314   1.321  0.5954 -0.1207  0.2722
    5MOL0     C  593   2.352   9.247   1.458  0.4854 -0.7064  0.3972
    5MOL0     C  594   2.278   9.336   1.557  0.3239 -0.2489 -0.2402
    5MOL0     C  595   2.240   9.253   1.679  0.1527 -0.2420  0.0339
    5MOL0     C  596   2.159   9.342   1.780  0.3172 -0.0575  0.6361
    5MOL0    Cl  597   2.246   9.483   1.834 -0.4607 -0.2340  0.0182
    5MOL0     C  598   2.265   9.324   0.792 -1.0318 -0.0411 -0.0447
    5MOL0     C  599   2.311   9.265   0.669 -0.0472  0.6067 -1.0195
    5MOL0     O  600   2.194   9.373   0.328  0.0467 -0.4428  0.0567
    5MOL0     C  601   2.351   9.055   0.295 -0.3151 -0.5579  0.0914
    5MOL0     C  602   2.342   8.928   0.246  0.4660  0.5009 -0.1013
    5MOL0     N  603   1.966   8.457  -0.012  0.2509 -0.0980  0.8590
    5MOL0     N  604   1.852   8.489   0.021  0.3950 -0.0209 -0.7586
    5MOL0     C  605   1.558   7.812  -0.293 -0.6351  0.6580 -0.2018
    5MOL0     C  606   1.456   7.732  -0.236 -0.3942 -0.4598  0.3490
    5MOL0     C  607   1.154   7.571   0.077  0.7698  0.1828  0.3339
    5MOL0     C  608   1.135   7.470  -0.025  0.4191 -0.1588  0.4807
    5MOL0     C  609   1.030   7.377  -0.024 -0.7539 -0.9370 -0.5046
    5MOL0     C  610   0.939   7.383   0.085 -0.0909 -0.7042  0.0411
    5MOL0     O  611   0.831   7.298   0.091  0.2894  0.0392  0.0599
    5MOL0     C  612   0.805   7.190  -0.010 -0.0227 -0.3695 -0.1800
    5MOL0     C  613   0.689   7.101   0.043  0.4033  0.2838  0.8976
    5MOL0     C  614   0.566   7.176   0.090  0.4858  0.7024 -0.1572
    5MOL0     C  615   0.441   7.090   0.063  0.2969 -0.4900 -0.2399
    5MOL0     C  616   0.323   7.148   0.134 -0.2616  0.5537 -0.5778
    5MOL0     C  617   0.236   7.200   0.197  0.3269 -0.7591  0.1511
    5MOL0     C  618   0.953   7.484   0.184  0.1687  0.4287 -0.3244
    5MOL0     C  619   1.062   7.577   0.187  0.0566  0.8331  1.1900
    5MOL0     C  620   1.077   7.664   0.311  0.3635 -0.5910 -0.1491
    5MOL0     H  621   1.534   7.744   0.088  3.5891  3.6911  0.2351
    5MOL0     H  622   1.709   7.871   0.007  0.5336 -2.3732  2.0203
    5MOL0     H  623   1.875   8.090  -0.182  0.3260 -0.9653  1.4056
    5MOL0     H  624   1.744   8.056  -0.085  0.5296  1.0424  0.2211
    5MOL0     H  625   1.730   8.147  -0.390 -0.0415  0.0579 -0.3666
    5MOL0     H  626   1.586   8.117  -0.286  0.2385  0.6199  1.1381
    5MOL0     H  627   1.646   8.289  -0.134  0.5224  3.4927  0.5774
    5MOL0     H  628   1.798   8.314  -0.206  0.3560 -0.7546  0.6903
    5MOL0     H  629   1.701   8.382  -0.411  0.8373 -1.7755  0.5878
    5MOL0     H  630   1.535   8.366  -0.348  0.4741 -4.7311 -2.6307
    5MOL0     H  631   1.654   8.616  -0.344 -0.0732 -1.4324 -0.8110
    5MOL0     H  632   1.771   8.547  -0.239 -0.6214  0.1186  0.6098
    5MOL0     H  633   1.477   8.572  -0.172 -0.3341  1.4641  1.1274
    5MOL0     H  634   1.587   8.505  -0.059 -1.3795 -2.0881 -2.5296
    5MOL0     H  635   1.513   8.759  -0.077 -1.5932 -2.9503 -1.1055
    5MOL0     H  636   1.673   8.781  -0.151 -3.1787 -1.2773 -4.9866
    5MOL0     H  637   1.720   8.780   0.100 -1.8844  0.3432  0.4870
    5MOL0     H  638   1.646   8.628   0.113 -3.8273  0.7840 -2.7708
    5MOL0     H  639   1.958   8.781  -0.062 -2.5849  0.2282 -2.2243
    5MOL0     H  640   2.222   8.683  -0.074 -0.3887 -0.3758  0.0267
    5MOL0     H  641   2.188   8.543  -0.183  2.0057 -1.1742 -0.4360
    5MOL0     H  642   2.259   8.384  -0.007 -1.1759 -1.0753  1.8712
    5MOL0     H  643   2.368   8.522  -0.023  0.5965  0.5541  3.7805
    5MOL0     H  644   2.149   8.507   0.205  1.3251  0.7708  2.5377
    5MOL0     H  645   2.312   8.442   0.215  2.5649  0.4794 -1.0982
    5MOL0     H  646   2.273   8.654   0.323 -3.5342  0.9750 -0.6380
    5MOL0     H  647   2.390   8.669   0.191 -0.4055 -2.5531 -2.9912
    5MOL0     H  648   2.021   8.929   0.148  1.3556  0.3977 -2.6919
    5MOL0     H  649   1.970   9.205   0.363 -2.2686 -0.8706  0.7503
    5MOL0     H  650   1.907   9.105   0.229 -0.0125 -1.4042  1.3332
    5MOL0     H  651   1.965   9.256   0.196  1.0282  0.7381  0.1366
    5MOL0     H  652   2.360   9.559   0.501 -0.0339 -0.7119 -0.3234
    5MOL0     H  653   2.277   9.646   0.698 -2.1583 -0.5809 -0.2956
    5MOL0     H  654   2.095   9.515   1.088  0.0104 -0.9120  0.3227
    5MOL0     H  655   2.121   9.358   0.995 -1.4897  1.1051 -2.4153
    5MOL0     H  656   2.375   9.392   1.041  1.0479  0.0635 -0.6839
    5MOL0     H  657   2.327   9.527   1.142 -0.6338 -0.1440 -0.6492
    5MOL0     H  658   2.240   9.235   1.188  0.2038 -0.4727  1.3939
    5MOL0     H  659   2.178   9.374   1.276  2.3492  3.9369  0.7910
    5MOL0     H  660   2.428   9.411   1.337 -0.0137  0.3720 -0.7632
    5MOL0     H  661   2.451   9.252   1.266  2.4158  2.5607 -0.6057
    5MOL0     H  662   2.301   9.152   1.441 -0.0520 -0.4718  0.6625
    5MOL0     H  663   2.449   9.219   1.501  1.2493  2.1387  0.7739
    5MOL0     H  664   2.187   9.372   1.509  0.8177  1.8970  0.3049
    5MOL0     H  665   2.341   9.421   1.586 -1.6348  0.7709  1.2906
    5MOL0     H  666   2.328   9.222   1.737  0.0425 -0.8616 -0.1199
    5MOL0     H  667   2.181   9.163   1.657 -0.3975  0.3039 -0.7734
    5MOL0     H  668   2.140   9.275   1.864  3.8511 -1.8006  0.2383
    5MOL0     H  669   2.064   9.374   1.737  1.2192  4.1634  1.2752
    5MOL0     H  670   2.227   9.260   0.872 -0.5932 -0.3835 -0.1033
    5MOL0     H  671   2.325   9.159   0.653  0.6630  0.9225 -2.6795
    5MOL0     H  672   2.452   9.073   0.332  1.7478 -1.7274 -4.2667
    5MOL0     H  673   2.432   8.867   0.244  0.0125 -0.1615 -1.3984
    5MOL0     H  674   1.566   7.813  -0.401  0.0245  0.6577 -0.1617
    5MOL0     H  675   1.375   7.709  -0.305 -1.1382  0.7921  0.7562
    5MOL0     H  676   1.184   7.461  -0.121 -1.8167 -3.6636 -0.5375
    5MOL0     H  677   1.033   7.305  -0.105  0.0107 -0.9910 -0.4402
    5MOL0     H  678   0.781   7.242  -0.103 -1.7720 -0.2308  0.3219
    5MOL0     H  679   0.889   7.123  -0.033  0.6201  0.5926 -0.6714
    5MOL0     H  680   0.717   7.042   0.130 -0.9900 -2.2654 -0.2545
    5MOL0     H  681   0.661   7.032  -0.038 -1.3351  1.8159  0.0989
    5MOL0     H  682   0.574   7.206   0.196  0.6698 -1.4144  0.4652
    5MOL0     H  683   0.542   7.263   0.029 -0.0052  0.4259 -0.3586
    5MOL0     H  684   0.449   6.992   0.110  1.2015  0.4444  1.6694
    5MOL0     H  685   0.420   7.071  -0.043 -2.2569 -2.2007  0.4724
    5MOL0     H  686   0.151   7.236   0.252  1.2077 -1.8980  2.3729
    5MOL0     H  687   0.875   7.492   0.259  1.1939  2.7421  0.5959
    5MOL0     H  688   1.083   7.772   0.290 -1.9127 -0.7757 -2.1409
    5MOL0     H  689   0.994   7.636   0.377 -1.5801 -0.9948 -2.5940
    5MOL0     H  690   1.173   7.643   0.357  1.8038  4.3173 -0.3078
    6MOL0     O  691   7.106   8.641   2.909  0.0531 -0.7501  0.0565
    6MOL0     C  692   7.228   8.619   2.893  0.0099 -0.4539 -0.3802
    6MOL0     O  693   7.328   8.691   2.953 -0.2234 -0.0121  1.2894
    6MOL0     C  694   7.306   8.816   2.994 -0.5136 -0.1007 -0.6873
    6MOL0     C  695   7.388   8.858   3.096  0.1179  0.5975 -0.9750
    6MOL0     C  696   7.379   8.980   3.163  0.4048 -1.2275 -0.7636
    6MOL0     C  697   7.294   9.077   3.109  1.3374  0.3278  0.1693
    6MOL0     O  698   7.286   9.206   3.145 -0.9128  0.0794 -0.3952
    6MOL0     C  699   7.402   9.278   3.119  0.3281  0.4103 -0.3582
    6MOL0     C  700   7.373   9.424   3.164 -0.1401  1.2437 -0.6899
    6MOL0     C  701   7.386   9.433   3.316 -0.1359 -0.1769  0.2051
    6MOL0     C  702   7.350   9.576   3.362  0.2194 -0.3336 -1.0503
    6MOL0     C  703   7.402   9.591   3.509  0.0960 -0.1368 -0.2970
    6MOL0     C  704   7.331   9.702   3.578  0.1810 -0.4175  0.1030
    6MOL0     C  705   7.373   9.691   3.728  0.0040 -0.5176 -0.5158
    6MOL0     C  706   7.264   9.777   3.791 -0.0368  0.1538  0.7816
    6MOL0     N  707   7.290   9.815   3.933 -0.8801 -0.1044  0.6260
    6MOL0     C  708   7.398   9.787   4.010 -0.3622  0.1685 -0.3078
    6MOL0     C  709   7.379   9.842   4.130  0.4542 -0.2945  0.5412
    6MOL0     C  710   7.481   9.816   4.241  0.0073 -0.0302  0.3185
    6MOL0     C  711   7.428   9.754   4.364  0.3359 -0.0745 -0.9141
    6MOL0     C  712   7.425   9.607   4.345  0.2981  0.3925  0.3159
    6MOL0     C  713   7.386   9.549   4.484  0.4882  0.9587 -0.0754
    6MOL0     O  714   7.508   9.523   4.560  0.6711 -0.5826  0.3826
    6MOL0     C  715   7.486   9.500   4.689  0.5104 -0.5788 -1.2027
    6MOL0     C  716   7.596   9.458   4.776  0.4003 -0.5022 -0.2712
    6MOL0     C  717   7.595   9.415   4.908  0.9617  0.4130  0.9672
    6MOL0     C  718   7.730   9.401   4.980  0.2466  0.4713 -0.3108
    6MOL0     C  719   7.468   9.387   4.969 -0.1339 -0.1046 -0.2256
    6MOL0     C  720   7.449   9.332   5.107  0.0899 -0.1062 -0.6964
    6MOL0     O  721   7.559   9.288   5.181  1.0621  0.4688  0.3066
    6MOL0     C  722   7.554   9.221   5.301 -0.1286 -0.7369  0.4277
    6MOL0     C  723   7.445   9.219   5.393  0.1996  0.6744  0.3004
    6MOL0     C  724   7.452   9.165   5.516  0.4926  0.4361 -0.5037
    6MOL0     C  725   7.568   9.096   5.558  0.9553 -0.3764  0.0142
    6MOL0     O  726   7.570   9.032   5.684  0.0596 -0.5139  0.6974
    6MOL0     C  727   7.636   8.917   5.695 -0.0223  0.3004 -0.4863
    6MOL0     C  728   7.573   8.835   5.819 -0.5687  1.0085  0.8010
    6MOL0     C  729   7.627   8.691   5.830  0.6658  0.1469  0.5405
    6MOL0     C  730   7.783   8.680   5.840  0.1360 -0.4690 -0.1299
    6MOL0     C  731   7.825   8.547   5.906 -0.1814  0.3980  0.4040
    6MOL0     C  732   7.973   8.501   5.888 -0.9713 -0.2998  0.3033
    6MOL0     C  733   7.990   8.355   5.923 -0.6042 -0.0336  0.6247
    6MOL0     C  734   8.147   8.314   5.942 -0.6051  0.5235  0.2210
    6MOL0    Cl  735   8.227   8.294   5.774  0.5610  0.1219 -0.2167
    6MOL0     C  736   7.677   9.087   5.464 -0.1692 -0.4196  0.0773
    6MOL0     C  737   7.667   9.145   5.336  0.0871 -0.1238  0.5703
    6MOL0     O  738   7.336   9.335   5.152  0.8914 -0.3595  0.4936
    6MOL0     C  739   7.355   9.438   4.891 -0.3575  1.2801 -0.2980
    6MOL0     C  740   7.359   9.489   4.762 -1.0535  0.2410 -0.5759
    6MOL0     N  741   7.266   9.913   4.121 -0.5369  0.1521 -0.1488
    6MOL0     N  742   7.212   9.902   4.009 -0.2656  0.4665  0.1042
    6MOL0     C  743   7.203   9.038   3.004 -0.0922  0.2953  0.9127
    6MOL0     C  744   7.213   8.904   2.953 -0.1484 -0.0263 -1.0969
    6MOL0     C  745   7.271   8.494   2.819  0.7994  0.0514 -0.6683
    6MOL0     C  746   7.372   8.411   2.868 -1.2573 -0.5064  0.0793
    6MOL0     C  747   7.431   8.307   2.797  0.6242  0.4595 -0.1655
    6MOL0     C  748   7.384   8.275   2.675 -0.1517  0.3555  0.2003
    6MOL0     O  749   7.451   8.171   2.612  0.2317  0.6320  0.4706
    6MOL0     C  750   7.399   8.117   2.478 -0.4410  0.1360 -0.6813
    6MOL0     C  751   7.458   7.985   2.439 -0.0637 -0.5517 -0.1049
    6MOL0     C  752   7.386   7.919   2.319 -0.5374 -0.7700 -0.4587
    6MOL0     C  753   7.451   7.785   2.273  0.5953  0.6465  0.5084
    6MOL0     C  754   7.442   7.677   2.375 -0.5726 -0.1729 -0.0638
    6MOL0     C  755   7.450   7.599   2.464  0.4393  0.4961 -0.7158
    6MOL0     C  756   7.278   8.348   2.624  1.0023  0.2217  0.1427
    6MOL0     C  757   7.220   8.448   2.698  0.6062 -0.6856 -0.5377
    6MOL0     C  758   7.095   8.525   2.652  0.3410  0.2965 -0.7485
    6MOL0     H  759   7.458   8.792   3.146  0.1845  1.0583 -0.4369
    6MOL0     H  760   7.438   8.988   3.253 -2.0918 -0.1046  0.8783
    6MOL0     H  761   7.424   9.286   3.012  0.9074  1.2182 -0.1833
    6MOL0     H  762   7.490   9.243   3.174 -1.1455 -0.9388  1.2693
    6MOL0     H  763   7.443   9.488   3.109  2.0040  0.0662  0.5734
    6MOL0     H  764   7.272   9.450   3.130 -0.5278 -0.7797 -1.1755
    6MOL0     H  765   7.310   9.367   3.358 -0.2503  0.9372  1.8511
    6MOL0     H  766   7.487   9.398   3.339 -0.5019 -1.2525  0.1861
    6MOL0     H  767   7.394   9.656   3.301  0.0029 -0.8971 -1.9687
    6MOL0     H  768   7.242   9.588   3.352 -0.2263 -2.4942  0.4134
    6MOL0     H  769   7.510   9.606   3.506  0.1820 -0.8456 -2.7131
    6MOL0     H  770   7.374   9.495   3.553 -2.2594 -0.9386 -3.1518
    6MOL0     H  771   7.346   9.801   3.535 -3.1474  0.5743  0.9492
    6MOL0     H  772   7.223   9.689   3.565  0.0902  0.4966 -0.0929
    6MOL0     H  773   7.473   9.729   3.751  0.4365 -1.2650 -1.1198
    6MOL0     H  774   7.366   9.591   3.771  0.6679  0.3909  1.8961
    6MOL0     H  775   7.253   9.875   3.743  0.6007  0.4817  1.2956
    6MOL0     H  776   7.167   9.727   3.791  0.1993 -0.3049  0.4802
    6MOL0     H  777   7.492   9.740   3.984  0.8243  1.8892  0.6652
    6MOL0     H  778   7.528   9.911   4.268 -1.4368  0.3820  1.4973
    6MOL0     H  779   7.553   9.750   4.192  2.2383  1.1817  1.8136
    6MOL0     H  780   7.503   9.770   4.442 -0.0394  1.8267 -0.8840
    6MOL0     H  781   7.331   9.792   4.398  1.2855  0.6629  1.1152
    6MOL0     H  782   7.341   9.588   4.278 -0.2807 -0.4087  1.2367
    6MOL0     H  783   7.514   9.561   4.301  1.5722  0.8547  2.2894
    6MOL0     H  784   7.324   9.622   4.537  1.0824 -1.2627  4.0345
    6MOL0     H  785   7.328   9.457   4.472 -0.9633  2.0138 -1.7396
    6MOL0     H  786   7.690   9.468   4.722  0.7754 -1.0412  0.2826
    6MOL0     H  787   7.815   9.449   4.931  0.3528  0.9726  0.3593
    6MOL0     H  788   7.754   9.296   4.999  2.2580  0.6017 -1.8306
    6MOL0     H  789   7.719   9.445   5.079  4.0591  3.4581 -0.9976
    6MOL0     H  790   7.352   9.276   5.392  0.5456  1.3005  1.7686
    6MOL0     H  791   7.369   9.169   5.586  0.9106  0.7806 -0.0235
    6MOL0     H  792   7.647   8.852   5.608 -2.8360 -0.3838 -0.4441
    6MOL0     H  793   7.742   8.935   5.716  0.6320 -1.2979 -2.1402
    6MOL0     H  794   7.609   8.883   5.910  4.0293  0.7686 -0.6001
    6MOL0     H  795   7.465   8.825   5.824 -0.4036 -1.2440  1.1749
    6MOL0     H  796   7.590   8.642   5.740 -0.8837  2.4996 -0.2009
    6MOL0     H  797   7.573   8.648   5.915 -0.5203  1.2120  0.3566
    6MOL0     H  798   7.828   8.762   5.896 -0.1170  0.0356 -0.6611
    6MOL0     H  799   7.826   8.689   5.740  4.5070 -1.5782  1.4163
    6MOL0     H  800   7.793   8.553   6.011 -1.5764 -2.0800  0.1931
    6MOL0     H  801   7.762   8.468   5.865  1.9298 -0.1945 -1.9580
    6MOL0     H  802   8.037   8.567   5.948  0.3571  2.0244 -3.2990
    6MOL0     H  803   8.006   8.520   5.785 -1.1527 -0.7898  0.1562
    6MOL0     H  804   7.940   8.299   5.844  0.9818 -0.3757 -0.1629
    6MOL0     H  805   7.935   8.339   6.017 -1.4549 -0.0818  0.1293
    6MOL0     H  806   8.148   8.219   5.998 -1.9691  1.1547  1.3914
    6MOL0     H  807   8.207   8.386   5.997  0.3898  1.4606 -2.0100
    6MOL0     H  808   7.768   9.035   5.492 -0.5987 -0.2356  1.9274
    6MOL0     H  809   7.760   9.133   5.280  0.6636 -0.3870  1.5627
    6MOL0     H  810   7.259   9.442   4.941 -0.7491 -0.2923 -0.8525
    6MOL0     H  811   7.258   9.504   4.725 -1.1707  0.1547 -0.2895
    6MOL0     H  812   7.140   9.120   2.970 -2.1055 -0.9912  1.3845
    6MOL0     H  813   7.140   8.878   2.878 -0.5782  3.4301 -2.0638
    6MOL0     H  814   7.426   8.432   2.960  1.4468  0.0876 -1.5316
    6MOL0     H  815   7.517   8.257   2.841 -0.0252  0.8770  1.6699
    6MOL0     H  816   7.290   8.108   2.479 -0.5365  0.9462  1.1061
    6MOL0     H  817   7.417   8.190   2.399  2.0644  1.3119  0.8481
    6MOL0     H  818   7.439   7.921   2.526 -0.3448  0.7829  0.8419
    6MOL0     H  819   7.565   8.001   2.425  0.5102 -1.9441  2.1687
    6MOL0     H  820   7.280   7.902   2.340 -0.4723 -0.3471  0.2365
    6MOL0     H  821   7.385   7.979   2.227 -3.4157 -2.7303 -1.8825
    6MOL0     H  822   7.555   7.806   2.244  0.3813  0.3628 -0.5204
    6MOL0     H  823   7.395   7.750   2.186 -1.3302 -0.6648  2.2165
    6MOL0     H  824   7.455   7.524   2.540  0.7281 -2.1314 -3.1720
    6MOL0     H  825   7.247   8.321   2.523  1.4300  1.9809 -0.4940
    6MOL0     H  826   7.052   8.505   2.553  0.2083 -0.2537 -0.5827
    6MOL0     H  827   7.017   8.496   2.723 -0.2243 -1.7122 -2.1132
    6MOL0     H  828   7.119   8.632   2.653  3.1512 -0.2483 -2.0692
    7MOL0     O  829   5.290   1.097   8.943  0.4911  0.0541  0.0337
    7MOL0     C  830   5.391   1.101   8.883 -0.3072  0.4698  0.6255
    7MOL0     O  831   5.416   1.004   8.783 -0.8853 -0.4889  0.0218
    7MOL0     C  832   5.306   0.941   8.730  0.4378 -0.6564  0.0334
    7MOL0     C  833   5.204   1.015   8.655 -0.5430  0.1709  0.5848
    7MOL0     C  834   5.106   0.955   8.588  0.7779  0.2324 -0.1805
    7MOL0     C  835   5.111   0.814   8.584 -0.7579 -0.0352  0.0396
    7MOL0     O  836   5.004   0.747   8.528  0.4136 -0.8358  0.0665
    7MOL0     C  837   4.943   0.800   8.405  0.0142  1.0713  0.1392
    7MOL0     C  838   4.840   0.701   8.357  0.2569  0.0694  0.3500
    7MOL0     C  839   4.734   0.751   8.269  0.1838 -0.8851  0.3895
    7MOL0     C  840   4.784   0.818   8.133 -0.1350 -0.3571  0.0161
    7MOL0     C  841   4.813   0.967   8.133 -0.0865  0.0384 -0.3035
    7MOL0     C  842   4.839   1.042   8.005 -0.3938  0.2464 -0.4867
    7MOL0     C  843   4.975   1.001   7.946 -0.2389 -0.2020  0.4099
    7MOL0     C  844   5.014   1.096   7.830  0.1724  0.5277  0.3040
    7MOL0     N  845   5.153   1.081   7.785  0.2198  0.8388  0.3931
    7MOL0     C  846   5.263   1.090   7.864  0.3798 -0.5554  0.4841
    7MOL0     C  847   5.373   1.071   7.779  0.0926 -0.1312 -0.7772
    7MOL0     C  848   5.517   1.078   7.814 -0.3761 -0.0568  0.7282
    7MOL0     C  849   5.555   1.222   7.851  0.3405 -0.1103  0.3093
    7MOL0     C  850   5.490   1.283   7.977  0.2805  1.3953  0.2662
    7MOL0     C  851   5.597   1.373   8.060  0.6740  0.1958 -0.0536
    7MOL0     O  852   5.611   1.508   8.013 -0.0325 -0.1708 -0.3963
    7MOL0     C  853   5.666   1.609   8.087 -0.4023 -0.8444 -0.2393
    7MOL0     C  854   5.770   1.686   8.028  0.0329 -0.4861  0.8094
    7MOL0     C  855   5.857   1.775   8.102 -0.0740  0.1035 -0.5661
    7MOL0     C  856   5.975   1.842   8.025  0.1861 -0.4966 -0.0864
    7MOL0     C  857   5.840   1.781   8.240 -0.4878 -0.2416  0.4832
    7MOL0     C  858   5.924   1.869   8.327  0.6971 -0.0340  0.9217
    7MOL0     O  859   5.871   1.904   8.450  0.0685  0.8240  0.1946
    7MOL0     C  860   5.948   1.971   8.538  0.2176 -0.6814  0.4001
    7MOL0     C  861   6.054   1.902   8.602 -0.1997  0.5241 -0.1594
    7MOL0     C  862   6.133   1.959   8.701  0.1516 -0.1095 -0.6803
    7MOL0     C  863   6.093   2.085   8.750 -0.1096 -0.2986 -0.0232
    7MOL0     O  864   6.161   2.154   8.843 -0.5092 -0.2800 -0.4176
    7MOL0     C  865   6.291   2.188   8.788  0.3414  0.3185 -0.6971
    7MOL0     C  866   6.351   2.301   8.883 -0.3686  0.0387  0.4565
    7MOL0     C  867   6.488   2.352   8.827 -0.3481 -0.0539  0.0276
    7MOL0     C  868   6.532   2.499   8.866 -0.2743  0.3324  0.3126
    7MOL0     C  869   6.682   2.520   8.816  0.4723 -0.2873  0.3592
    7MOL0     C  870   6.798   2.447   8.884  0.7142  0.7842 -0.6566
    7MOL0     C  871   6.931   2.458   8.811  0.9201 -1.0869 -0.4270
    7MOL0     C  872   7.023   2.349   8.840  0.7584 -0.0156  0.1029
    7MOL0    Cl  873   7.173   2.352   8.740 -0.0289  0.0679 -0.1138
    7MOL0     C  874   5.984   2.152   8.684 -0.0372 -0.6934  0.5041
    7MOL0     C  875   5.913   2.096   8.574 -0.2492 -0.0907 -0.4290
    7MOL0     O  876   6.037   1.889   8.296 -0.0360 -0.2152  0.4805
    7MOL0     C  877   5.739   1.709   8.295 -0.1856  0.0596 -0.2062
    7MOL0     C  878   5.659   1.621   8.225 -0.3702  0.4376  0.5659
    7MOL0     N  879   5.320   1.044   7.656 -0.3877  0.4224 -0.6468
    7MOL0     N  880   5.191   1.047   7.659  0.7895  0.0537  0.9805
    7MOL0     C  881   5.194   0.741   8.674  0.2757 -0.6383 -0.3270
    7MOL0     C  882   5.284   0.807   8.758 -0.1127 -1.5298 -0.2923
    7MOL0     C  883   5.485   1.201   8.924 -0.2869 -0.0668 -0.0766
    7MOL0     C  884   5.460   1.291   9.036  0.3205  0.3119  0.9788
    7MOL0     C  885   5.544   1.398   9.069 -0.0484 -0.0434 -0.5355
    7MOL0     C  886   5.666   1.416   8.998 -0.2657 -0.0027  1.0945
    7MOL0     O  887   5.746   1.518   9.033  0.0841  0.5279  0.7048
    7MOL0     C  888   5.831   1.577   8.930 -0.2326  0.4087  0.1668
    7MOL0     C  889   5.910   1.696   8.970  0.2536  0.3725 -0.3015
    7MOL0     C  890   5.997   1.645   9.084  0.2538  0.7365 -0.0499
    7MOL0     C  891   6.083   1.743   9.158 -0.1610  1.0128  0.1810
    7MOL0     C  892   6.198   1.789   9.082  0.1351  0.4386  0.6273
    7MOL0     C  893   6.300   1.818   9.018 -0.3203  0.7721  1.3197
    7MOL0     C  894   5.700   1.333   8.891  0.7999  0.2171  0.2119
    7MOL0     C  895   5.618   1.225   8.861  0.2194 -0.7402 -0.3316
    7MOL0     C  896   5.687   1.119   8.766 -0.0184  0.6514  0.9480
    7MOL0     H  897   5.209   1.124   8.657  2.8172  0.1727 -1.1589
    7MOL0     H  898   5.034   1.014   8.533  1.3584  0.2976 -0.8898
    7MOL0     H  899   5.023   0.817   8.332  1.5235 -4.3472  0.0872
    7MOL0     H  900   4.887   0.890   8.431  0.7263  1.6274 -0.2244
    7MOL0     H  901   4.892   0.635   8.287 -2.6873 -1.2255 -0.7749
    7MOL0     H  902   4.803   0.656   8.449  1.9229  2.6111  2.4340
    7MOL0     H  903   4.660   0.674   8.247  0.5772 -1.1285 -0.1053
    7MOL0     H  904   4.667   0.824   8.316  0.6581  0.0899 -0.3978
    7MOL0     H  905   4.885   0.779   8.113  0.6524  0.1781  2.5545
    7MOL0     H  906   4.716   0.783   8.055  0.2683 -1.2497  0.0413
    7MOL0     H  907   4.896   0.992   8.201  1.1706  2.0960 -2.4435
    7MOL0     H  908   4.727   1.020   8.175 -0.2021 -1.8683  2.0761
    7MOL0     H  909   4.775   1.013   7.921  0.9090  1.3375 -1.9232
    7MOL0     H  910   4.842   1.150   8.021  2.4194  0.1665 -0.0554
    7MOL0     H  911   4.963   0.908   7.889 -0.1734  1.5016 -2.6447
    7MOL0     H  912   5.061   0.998   8.013  0.5061 -1.0506 -0.5377
    7MOL0     H  913   4.949   1.075   7.744 -1.0173  3.1783  0.4811
    7MOL0     H  914   4.986   1.199   7.853  0.6357  1.8522 -4.1122
    7MOL0     H  915   5.272   1.111   7.970 -1.3228  2.6665  0.1126
    7MOL0     H  916   5.567   1.047   7.723 -2.4525  1.6493 -1.1172
    7MOL0     H  917   5.543   1.013   7.899 -0.5258 -1.7254 -0.4538
    7MOL0     H  918   5.663   1.234   7.867  0.4770  1.4867 -1.5099
    7MOL0     H  919   5.530   1.288   7.768 -0.4462 -0.0502  0.5883
    7MOL0     H  920   5.400   1.332   7.940  0.7669  0.6105 -2.1079
    7MOL0     H  921   5.463   1.193   8.034 -1.2528  2.0865  0.6715
    7MOL0     H  922   5.554   1.382   8.160  1.7810 -2.2710  0.7065
    7MOL0     H  923   5.687   1.312   8.069 -0.4464 -1.1637  4.4122
    7MOL0     H  924   5.780   1.676   7.921 -2.8381 -0.3815  0.4607
    7MOL0     H  925   6.071   1.806   8.064 -0.3128 -0.8866  0.8178
    7MOL0     H  926   5.972   1.950   8.039  2.3680 -0.2718 -1.0865
    7MOL0     H  927   5.964   1.824   7.918 -2.3234 -1.6439  0.2810
    7MOL0     H  928   6.065   1.800   8.565  0.4383  0.4630  0.1929
    7MOL0     H  929   6.207   1.892   8.745  2.4793  0.8840 -2.8486
    7MOL0     H  930   6.361   2.104   8.792  1.2289  1.0784  0.6202
    7MOL0     H  931   6.296   2.223   8.685  0.4649  1.0528 -0.4474
    7MOL0     H  932   6.274   2.377   8.870  1.1213  1.3978 -0.7403
    7MOL0     H  933   6.355   2.246   8.977 -4.6878 -5.1798 -1.8763
    7MOL0     H  934   6.483   2.360   8.718 -0.9940 -0.7600 -0.0047
    7MOL0     H  935   6.571   2.286   8.852  0.1601  1.0452  1.4098
    7MOL0     H  936   6.510   2.517   8.972  1.4489  0.6735  0.6394
    7MOL0     H  937   6.470   2.569   8.809 -1.6720 -1.8984 -1.0589
    7MOL0     H  938   6.681   2.471   8.718 -0.1029 -0.4121  0.4271
    7MOL0     H  939   6.696   2.629   8.808  1.6473 -0.5445 -2.2492
    7MOL0     H  940   6.769   2.341   8.883 -0.3332  1.0671 -1.1760
    7MOL0     H  941   6.819   2.485   8.984  1.8948 -3.5725  0.9967
    7MOL0     H  942   6.975   2.558   8.821 -2.0664  0.4205 -1.3309
    7MOL0     H  943   6.905   2.441   8.706 -1.0455 -2.1819  0.1892
    7MOL0     H  944   6.972   2.253   8.830 -1.2212  0.8617  1.2739
    7MOL0     H  945   7.060   2.351   8.943  1.0728  0.1685 -0.0115
    7MOL0     H  946   5.954   2.253   8.711 -0.3693  0.0380 -2.2558
    7MOL0     H  947   5.830   2.155   8.536 -3.5499 -3.3848  0.9995
    7MOL0     H  948   5.721   1.715   8.402  0.5631  0.6127 -0.0990
    7MOL0     H  949   5.576   1.573   8.275  0.5999  0.1188  1.9582
    7MOL0     H  950   5.197   0.632   8.679  0.2901 -0.8476 -3.3437
    7MOL0     H  951   5.354   0.757   8.824  0.3505 -0.9318 -0.3273
    7MOL0     H  952   5.377   1.263   9.100 -0.0055 -2.9300 -0.6929
    7MOL0     H  953   5.517   1.465   9.150 -1.0343  1.0308 -1.7221
    7MOL0     H  954   5.901   1.507   8.883 -1.3002 -1.1793  0.8523
    7MOL0     H  955   5.768   1.610   8.847 -1.7821 -0.6886  0.8470
    7MOL0     H  956   5.838   1.769   9.010 -1.2711 -0.6979 -1.0004
    7MOL0     H  957   5.968   1.741   8.888  2.3542 -3.0347 -0.8625
    7MOL0     H  958   5.947   1.594   9.167  3.4520  2.2731  3.0900
    7MOL0     H  959   6.064   1.571   9.040  0.0478  0.7416 -0.3728
    7MOL0     H  960   6.114   1.695   9.251 -0.4032  0.1138 -0.1828
    7MOL0     H  961   6.028   1.833   9.187  1.1810  1.6925  0.6613
    7MOL0     H  962   6.391   1.847   8.970  2.0202 -5.2328  1.3477
    7MOL0     H  963   5.795   1.343   8.840  1.5642  0.2742  1.6007
    7MOL0     H  964   5.786   1.147   8.730 -0.6983  2.3139  0.2494
    7MOL0     H  965   5.696   1.030   8.829 -0.7968  0.1027  0.3021
    7MOL0     H  966   5.622   1.108   8.679  2.1212  1.3249 -0.8358
    8MOL0     O  967   9.522   7.184   2.607  0.0931 -0.0411  0.1634
    8MOL0     C  968   9.552   7.061   2.596 -0.7735 -0.7028  0.6779
    8MOL0     O  969   9.582   7.001   2.484  0.0228  0.6687 -0.4621
    8MOL0     C  970   9.548   7.060   2.369  0.4121  0.0467  1.0779
    8MOL0     C  971   9.432   7.026   2.307  0.2889 -0.3726  0.4975
    8MOL0     C  972   9.392   7.089   2.188  0.0614  0.6453 -0.3238
    8MOL0     C  973   9.474   7.192   2.125  0.2488 -0.3349 -0.2776
    8MOL0     O  974   9.419   7.239   2.005 -0.2596  0.0521  0.4446
    8MOL0     C  975   9.480   7.347   1.935 -0.4748  0.6281  0.1457
    8MOL0     C  976   9.452   7.346   1.792 -0.1328  0.1518  0.4422
    8MOL0     C  977   9.494   7.470   1.717  0.4094 -0.1875  0.5990
    8MOL0     C  978   9.496   7.460   1.557  0.0318  0.2159 -0.1555
    8MOL0     C  979   9.485   7.592   1.483 -0.4346 -0.3462  0.5743
    8MOL0     C  980   9.608   7.694   1.509 -0.5978  0.3476  0.4756
    8MOL0     C  981   9.743   7.653   1.443 -1.1961  0.1071  0.4325
    8MOL0     C  982   9.831   7.773   1.393  0.7247  0.2154 -0.4251
    8MOL0     N  983   9.862   7.860   1.504 -1.4192  0.3027 -0.1397
    8MOL0     C  984   9.956   7.842   1.612 -0.4699 -0.2971  1.1058
    8MOL0     C  985   9.929   7.941   1.697  0.3654 -0.0083 -0.4828
    8MOL0     C  986  10.004   7.958   1.832  0.2434  0.2121  0.7654
    8MOL0     C  987   9.978   8.101   1.892  0.2042  0.0476 -0.1977
    8MOL0     C  988  10.036   8.121   2.025 -0.6056 -0.1278  0.4928
    8MOL0     C  989  10.162   8.044   2.071  0.2593 -0.4382 -0.2932
    8MOL0     O  990  10.278   8.056   1.985  0.4955 -0.4262 -0.0291
    8MOL0     C  991  10.398   8.004   2.021 -0.3574  0.1249 -0.4943
    8MOL0     C  992  10.502   8.023   1.939 -0.3008 -0.3095 -0.1421
    8MOL0     C  993  10.628   7.960   1.962  0.6953  0.5702 -0.0609
    8MOL0     C  994  10.744   7.981   1.867  0.0340 -0.3635  0.3992
    8MOL0     C  995  10.646   7.884   2.080 -0.1034 -0.7137 -0.0707
    8MOL0     C  996  10.774   7.827   2.131 -0.0907 -0.4697 -0.3847
    8MOL0     O  997  10.743   7.720   2.218 -0.5841 -0.0503  0.5952
    8MOL0     C  998  10.843   7.636   2.262  0.1531  0.4110  0.0389
    8MOL0     C  999  10.819   7.564   2.385 -0.5030 -0.1465  0.7965
    8MOL0     C 1000  10.902   7.470   2.434 -0.2765  0.1662  0.4020
    8MOL0     C 1001  11.021   7.448   2.363 -0.3103  0.1040  0.6119
    8MOL0     O 1002  11.121   7.367   2.413 -0.5416  0.2044 -0.3340
    8MOL0     C 1003  11.187   7.423   2.532  0.4057  0.7375  0.2112
    8MOL0     C 1004  11.324   7.366   2.558  1.5815  0.6409 -0.2674
    8MOL0     C 1005  11.320   7.213   2.564 -0.1487  0.4855  0.8612
    8MOL0     C 1006  11.462   7.152   2.560 -0.0810  0.1101  0.5884
    8MOL0     C 1007  11.465   7.005   2.491 -0.0407 -0.0241  0.5030
    8MOL0     C 1008  11.603   6.950   2.447 -0.1867  0.1877 -0.1099
    8MOL0     C 1009  11.582   6.825   2.357 -0.0817  0.0055  0.0956
    8MOL0     C 1010  11.712   6.750   2.336 -1.1336  0.3580  0.1814
    8MOL0    Cl 1011  11.687   6.647   2.191 -0.1771 -0.2638  0.0703
    8MOL0     C 1012  11.043   7.505   2.243 -0.4025 -0.9957 -0.2314
    8MOL0     C 1013  10.953   7.600   2.187  0.6768 -0.1650  0.0603
    8MOL0     O 1014  10.887   7.866   2.101  0.1088  0.2594 -0.3264
    8MOL0     C 1015  10.537   7.873   2.165  0.0634  0.1946  0.2776
    8MOL0     C 1016  10.415   7.928   2.135 -0.2717 -0.2778 -0.3479
    8MOL0     N 1017   9.836   8.030   1.640 -1.0031 -0.4132  0.1531
    8MOL0     N 1018   9.801   7.987   1.527 -0.0106 -0.0904  0.5398
    8MOL0     C 1019   9.597   7.228   2.195 -0.2542  0.0766 -1.2302
    8MOL0     C 1020   9.637   7.155   2.315 -0.0250 -1.0791  0.0364
    8MOL0     C 1021   9.586   6.982   2.722 -0.1430  0.0695  0.0549
    8MOL0     C 1022   9.654   7.051   2.832 -0.3058 -0.8105  0.2566
    8MOL0     C 1023   9.691   6.986   2.952  0.6986 -0.6066 -0.4810
    8MOL0     C 1024   9.683   6.848   2.960 -0.0176 -0.1495 -1.3486
    8MOL0     O 1025   9.719   6.784   3.074 -0.6113  0.2309 -0.1356
    8MOL0     C 1026   9.778   6.649   3.060  0.6395 -0.2212 -0.8364
    8MOL0     C 1027   9.707   6.542   3.143 -0.3647  0.1231  0.0947
    8MOL0     C 1028   9.727   6.560   3.298 -0.0612 -0.1073 -0.6466
    8MOL0     C 1029   9.881   6.588   3.331  0.2887  0.6512  0.4816
    8MOL0     C 1030   9.979   6.491   3.287  0.5739 -0.2314 -0.7143
    8MOL0     C 1031  10.053   6.401   3.234  0.7669 -0.4533  0.8476
    8MOL0     C 1032   9.609   6.781   2.855  0.1032 -0.3469  0.2846
    8MOL0     C 1033   9.562   6.844   2.735  0.0011  0.4292  0.6278
    8MOL0     C 1034   9.506   6.747   2.634  0.9705  0.5227  0.3588
    8MOL0     H 1035   9.367   6.960   2.364  1.1110 -1.1739  0.5131
    8MOL0     H 1036   9.297   7.054   2.149  0.4711 -0.6795 -0.2090
    8MOL0     H 1037   9.589   7.346   1.929 -0.4379 -3.6234 -1.7202
    8MOL0     H 1038   9.437   7.441   1.971 -1.4145  0.9242 -1.6399
    8MOL0     H 1039   9.502   7.264   1.742  0.3068  1.1085 -0.7450
    8MOL0     H 1040   9.343   7.338   1.787 -0.6750  0.1075  6.0717
    8MOL0     H 1041   9.425   7.545   1.757  2.2525  1.0505  1.6359
    8MOL0     H 1042   9.595   7.507   1.739  0.6037 -1.2414  1.5645
    8MOL0     H 1043   9.594   7.425   1.524  1.1382  0.9542  2.1934
    8MOL0     H 1044   9.418   7.390   1.523  1.8247 -1.6095 -0.6822
    8MOL0     H 1045   9.387   7.631   1.510 -1.3579 -2.5347  0.5863
    8MOL0     H 1046   9.473   7.577   1.376 -0.5250 -0.1777  0.5606
    8MOL0     H 1047   9.591   7.797   1.477  2.8339  2.2873  3.9040
    8MOL0     H 1048   9.622   7.704   1.617  3.1413  2.2808  0.0024
    8MOL0     H 1049   9.721   7.579   1.367 -1.9080 -0.3716  1.0906
    8MOL0     H 1050   9.801   7.590   1.512 -2.0720  0.2309  1.3060
    8MOL0     H 1051   9.929   7.744   1.352  0.0689 -0.1354 -1.7886
    8MOL0     H 1052   9.775   7.831   1.319 -1.4247 -0.1191  0.8874
    8MOL0     H 1053  10.027   7.762   1.628  2.3201  2.0009  1.0795
    8MOL0     H 1054  10.106   7.950   1.792 -0.4878  0.0577 -1.1993
    8MOL0     H 1055   9.982   7.874   1.899  1.1068 -1.9554 -1.4868
    8MOL0     H 1056  10.026   8.184   1.840  0.0541  0.6640  0.6130
    8MOL0     H 1057   9.871   8.126   1.893 -0.0184 -0.8352 -0.7493
    8MOL0     H 1058  10.062   8.227   2.032 -0.3048 -0.0993 -0.8345
    8MOL0     H 1059   9.959   8.106   2.102 -0.4928  0.6940  0.7715
    8MOL0     H 1060  10.186   8.100   2.161 -1.2113 -0.5820  0.2227
    8MOL0     H 1061  10.137   7.941   2.099  0.5960 -0.4929 -0.1880
    8MOL0     H 1062  10.498   8.084   1.850 -0.6014 -2.5585 -1.7530
    8MOL0     H 1063  10.713   7.985   1.762  3.8718  0.0609 -0.8788
    8MOL0     H 1064  10.812   7.896   1.871  0.7185  0.1104 -0.8170
    8MOL0     H 1065  10.792   8.073   1.901 -1.2006 -0.1750  1.7643
    8MOL0     H 1066  10.727   7.567   2.443 -0.4542  0.9555  0.8382
    8MOL0     H 1067  10.886   7.421   2.529 -1.8658  2.1477  1.2396
    8MOL0     H 1068  11.199   7.531   2.520 -1.7074  1.0243  0.2150
    8MOL0     H 1069  11.120   7.403   2.617  0.3463 -0.2478 -0.0451
    8MOL0     H 1070  11.387   7.401   2.476  1.6067  1.3192  0.0422
    8MOL0     H 1071  11.356   7.404   2.655 -4.3921  1.1992  1.9438
    8MOL0     H 1072  11.251   7.161   2.496  0.7631 -1.8222  1.5932
    8MOL0     H 1073  11.277   7.176   2.658 -1.9503 -0.0898 -0.1420
    8MOL0     H 1074  11.506   7.163   2.659 -2.0413  3.4530  1.2255
    8MOL0     H 1075  11.512   7.210   2.481 -0.5803 -1.6265 -1.0896
    8MOL0     H 1076  11.410   6.934   2.554 -3.3239  1.3206 -0.6127
    8MOL0     H 1077  11.406   6.999   2.400 -0.9689 -4.4930  1.1586
    8MOL0     H 1078  11.668   6.921   2.529 -0.5773  1.1140  0.5496
    8MOL0     H 1079  11.644   7.035   2.390 -0.8039 -0.4388 -1.5366
    8MOL0     H 1080  11.558   6.871   2.260  1.6983  1.2442  0.2113
    8MOL0     H 1081  11.494   6.771   2.395 -1.3759  1.4308 -0.7579
    8MOL0     H 1082  11.736   6.685   2.420 -1.8843 -0.7915 -0.4739
    8MOL0     H 1083  11.793   6.818   2.308 -0.3339 -0.6559 -0.0090
    8MOL0     H 1084  11.137   7.476   2.198 -0.1772  0.4074 -0.7074
    8MOL0     H 1085  10.966   7.649   2.091  0.3876 -1.3900 -0.6274
    8MOL0     H 1086  10.549   7.808   2.251  1.5068  3.0897  2.4284
    8MOL0     H 1087  10.338   7.922   2.210  0.3624  0.5081  0.3895
    8MOL0     H 1088   9.663   7.297   2.144  1.6339 -0.5830  0.1810
    8MOL0     H 1089   9.736   7.163   2.360  0.5346 -2.3416 -0.8976
    8MOL0     H 1090   9.667   7.159   2.829  2.4519 -0.6692  5.2176
    8MOL0     H 1091   9.740   7.040   3.032  2.7024 -1.1611 -1.2500
    8MOL0     H 1092   9.774   6.612   2.957  0.4403  0.5394 -1.1033
    8MOL0     H 1093   9.885   6.655   3.083  0.3819 -0.9785  0.7369
    8MOL0     H 1094   9.760   6.448   3.124 -0.2815  0.4687 -1.4317
    8MOL0     H 1095   9.601   6.531   3.119 -1.2607  2.1814  2.6732
    8MOL0     H 1096   9.651   6.611   3.358 -0.3533 -2.7266  1.3684
    8MOL0     H 1097   9.707   6.462   3.342 -3.3780 -0.1067 -1.8319
    8MOL0     H 1098   9.869   6.583   3.439  0.7213 -0.6145  0.4782
    8MOL0     H 1099   9.913   6.689   3.302 -0.4139  0.4140 -1.2763
    8MOL0     H 1100  10.102   6.315   3.194  0.9795 -1.4520  3.0869
    8MOL0     H 1101   9.589   6.675   2.861 -1.5077 -0.0298  1.2016
    8MOL0     H 1102   9.578   6.720   2.557  0.1119 -2.1024  0.3915
    8MOL0     H 1103   9.471   6.654   2.679  1.3193 -0.6768 -1.7281
    8MOL0     H 1104   9.419   6.790   2.585  0.0206 -1.1625  0.5025
    9MOL0     O 1105   8.428   5.839   2.817 -0.2755 -0.1714  0.1426
    9MOL0     C 1106   8.324   5.900   2.837  0.0895 -0.3902 -0.7602
    9MOL0     O 1107   8.317   6.018   2.907  0.2185  0.3431 -0.3656
    9MOL0     C 1108   8.422   6.042   2.990  0.1183  0.0468 -0.4036
    9MOL0     C 1109   8.549   6.071   2.948 -0.0737 -0.0361 -0.4386
    9MOL0     C 1110   8.652   6.107   3.046 -0.0546  0.2995  0.2119
    9MOL0     C 1111   8.619   6.137   3.183 -0.9166 -0.1425  0.4866
    9MOL0     O 1112   8.720   6.183   3.268  0.4977  0.0797 -0.3219
    9MOL0     C 1113   8.718   6.143   3.407  0.0459 -0.9930 -0.1334
    9MOL0     C 1114   8.821   6.225   3.486  0.7557  0.3347  0.2808
    9MOL0     C 1115   8.957   6.198   3.421 -0.0377  0.3364 -0.1952
    9MOL0     C 1116   9.070   6.240   3.510  0.5081 -0.7727  1.5632
    9MOL0     C 1117   9.094   6.127   3.616  0.1022  0.1481 -0.1493
    9MOL0     C 1118   9.241   6.145   3.651 -0.6403 -0.6985  0.0070
    9MOL0     C 1119   9.311   6.041   3.740  0.8536 -0.3813  0.0818
    9MOL0     C 1120   9.223   6.006   3.866 -0.3262  1.1027  0.7718
    9MOL0     N 1121   9.303   5.892   3.930  0.9411 -0.5614  0.6574
    9MOL0     C 1122   9.280   5.756   3.905 -0.1324 -0.0087 -0.0955
    9MOL0     C 1123   9.360   5.698   4.000  0.0591  0.2082 -0.3733
    9MOL0     C 1124   9.380   5.546   4.029 -0.0399 -0.6799  0.0798
    9MOL0     C 1125   9.392   5.464   3.898  0.1942 -0.2125  0.1354
    9MOL0     C 1126   9.472   5.333   3.915 -0.2216 -0.8156 -0.2084
    9MOL0     C 1127   9.431   5.228   3.817 -0.0404 -0.0895 -0.0474
    9MOL0     O 1128   9.456   5.267   3.685  0.0853  0.5510  0.3181
    9MOL0     C 1129   9.405   5.175   3.587 -0.9190 -0.5305 -0.0398
    9MOL0     C 1130   9.414   5.231   3.457  0.5156 -0.2179  0.1179
    9MOL0     C 1131   9.367   5.171   3.346  0.1288 -0.0260 -0.1785
    9MOL0     C 1132   9.387   5.240   3.208 -0.5162  0.5734 -0.5357
    9MOL0     C 1133   9.295   5.041   3.370  0.4292 -0.3015  0.7301
    9MOL0     C 1134   9.247   4.964   3.253  0.6855  0.6908 -0.4787
    9MOL0     O 1135   9.264   4.825   3.257 -0.7072  0.7214  0.0811
    9MOL0     C 1136   9.175   4.747   3.197  0.2502  0.2065 -1.1997
    9MOL0     C 1137   9.031   4.771   3.191 -1.1752  1.2397 -0.3467
    9MOL0     C 1138   8.944   4.674   3.131  0.3253  0.1245 -0.2557
    9MOL0     C 1139   8.997   4.565   3.070  0.4967 -0.4921  0.3195
    9MOL0     O 1140   8.921   4.488   2.979 -0.2376 -0.0538 -0.0336
    9MOL0     C 1141   8.917   4.529   2.843  0.4498 -0.3377 -0.0291
    9MOL0     C 1142   8.836   4.426   2.762 -0.2749  0.0674  0.4500
    9MOL0     C 1143   8.695   4.461   2.778  0.2489 -0.4476  0.4143
    9MOL0     C 1144   8.597   4.345   2.747 -0.6667 -0.3330 -0.7060
    9MOL0     C 1145   8.449   4.380   2.758 -0.3045 -0.7926  0.1953
    9MOL0     C 1146   8.355   4.269   2.798  0.1557 -0.0496 -0.6270
    9MOL0     C 1147   8.225   4.315   2.860 -0.8259  0.5791 -0.3381
    9MOL0     C 1148   8.120   4.219   2.820 -0.6153 -0.1309 -0.5249
    9MOL0    Cl 1149   8.067   4.238   2.647  0.6383  0.3869 -0.1810
    9MOL0     C 1150   9.136   4.540   3.069  0.4170  0.5042  0.7452
    9MOL0     C 1151   9.225   4.631   3.127 -0.1649 -0.2348 -0.3994
    9MOL0     O 1152   9.176   5.026   3.177 -0.2620  0.1552  0.8141
    9MOL0     C 1153   9.285   4.988   3.501  0.1172  0.4153  0.6839
    9MOL0     C 1154   9.347   5.051   3.609  0.3959  0.0637 -0.0230
    9MOL0     N 1155   9.423   5.798   4.079 -0.1810 -0.0912  0.3261
    9MOL0     N 1156   9.390   5.914   4.034  0.3880  0.3337  0.4780
    9MOL0     C 1157   8.488   6.109   3.224 -0.5214 -0.8583  0.2532
    9MOL0     C 1158   8.391   6.067   3.128 -0.4330 -0.1817 -0.0980
    9MOL0     C 1159   8.199   5.842   2.784 -1.5784  0.6755  0.3239
    9MOL0     C 1160   8.208   5.774   2.664  0.2324  0.0222 -0.9419
    9MOL0     C 1161   8.086   5.726   2.598  0.5154  0.0450  0.0803
    9MOL0     C 1162   7.967   5.743   2.664 -0.4950 -0.3194 -0.1704
    9MOL0     O 1163   7.846   5.685   2.616  0.5263 -0.1134  0.4902
    9MOL0     C 1164   7.847   5.587   2.512 -0.4425  0.0206 -0.1878
    9MOL0     C 1165   7.710   5.516   2.506  0.3331  0.3153  0.4919
    9MOL0     C 1166   7.594   5.620   2.510 -0.1565 -0.7135 -0.9025
    9MOL0     C 1167   7.478   5.595   2.416  0.1904  0.5318 -0.0856
    9MOL0     C 1168   7.517   5.593   2.275  0.3651  0.3674 -0.9081
    9MOL0     C 1169   7.550   5.607   2.164 -0.3543  0.1673  0.7962
    9MOL0     C 1170   7.961   5.810   2.785  0.4550  0.2002  0.1382
    9MOL0     C 1171   8.072   5.859   2.849 -0.4018  0.8114  0.5259
    9MOL0     C 1172   8.048   5.939   2.973 -0.8284  0.4222  0.5368
    9MOL0     H 1173   8.575   6.060   2.843 -1.8445 -3.1647 -0.6589
    9MOL0     H 1174   8.754   6.092   3.012 -0.0235 -0.7104  0.7220
    9MOL0     H 1175   8.744   6.038   3.425  2.9152 -0.1416  1.3004
    9MOL0     H 1176   8.617   6.151   3.449 -0.0687 -0.6787 -0.4590
    9MOL0     H 1177   8.794   6.331   3.483  0.7272  0.3390  0.6311
    9MOL0     H 1178   8.811   6.185   3.587 -1.9079  2.3685  0.9273
    9MOL0     H 1179   8.962   6.091   3.398  2.8995  0.0033  1.5782
    9MOL0     H 1180   8.959   6.250   3.324 -0.2392  0.4577 -0.1349
    9MOL0     H 1181   9.161   6.256   3.452 -0.4668 -4.0325 -1.1749
    9MOL0     H 1182   9.066   6.328   3.574  2.7701 -2.1847  3.8512
    9MOL0     H 1183   9.077   6.030   3.569  0.3471  0.4671 -0.9092
    9MOL0     H 1184   9.038   6.138   3.710  0.8763  0.2159  0.3154
    9MOL0     H 1185   9.304   6.149   3.561 -1.9222  0.0961 -0.8995
    9MOL0     H 1186   9.252   6.235   3.712 -1.9962  0.0007 -0.7329
    9MOL0     H 1187   9.411   6.069   3.772  1.4071 -4.5725  2.7178
    9MOL0     H 1188   9.326   5.949   3.683  2.5180  0.2118 -0.4902
    9MOL0     H 1189   9.222   6.090   3.935 -1.0346  0.0079  2.1313
    9MOL0     H 1190   9.120   5.980   3.839  0.8498 -0.5018 -2.8656
    9MOL0     H 1191   9.210   5.719   3.832 -1.0147  2.8270 -0.7977
    9MOL0     H 1192   9.293   5.519   4.089  0.2684  2.2360  2.0340
    9MOL0     H 1193   9.474   5.552   4.084  1.4179 -2.9022 -1.9550
    9MOL0     H 1194   9.289   5.429   3.883 -0.3476  0.4166  2.1361
    9MOL0     H 1195   9.429   5.532   3.820  0.0577 -1.0943 -0.7244
    9MOL0     H 1196   9.578   5.355   3.901  0.1402 -3.7810 -3.2895
    9MOL0     H 1197   9.467   5.306   4.021  1.4717  1.0223  0.3947
    9MOL0     H 1198   9.485   5.138   3.849 -0.6990  0.3869  2.6580
    9MOL0     H 1199   9.324   5.209   3.818  0.1110 -1.0006  0.0802
    9MOL0     H 1200   9.453   5.332   3.449 -1.8699  0.7645  0.3123
    9MOL0     H 1201   9.429   5.341   3.213 -2.0346  1.1758  1.5811
    9MOL0     H 1202   9.290   5.245   3.158 -0.5297  0.1488 -0.5475
    9MOL0     H 1203   9.463   5.186   3.152  1.6394  0.8092  1.9304
    9MOL0     H 1204   8.982   4.858   3.234 -2.2452  1.5305 -2.0438
    9MOL0     H 1205   8.837   4.691   3.131  0.5539  1.8001  0.7722
    9MOL0     H 1206   8.881   4.632   2.831  2.8381  0.8771  2.2891
    9MOL0     H 1207   9.019   4.530   2.803  0.4385  2.9602 -0.2423
    9MOL0     H 1208   8.864   4.424   2.656  0.6448  1.3153  0.6446
    9MOL0     H 1209   8.854   4.323   2.794  0.4987  0.7393  2.2764
    9MOL0     H 1210   8.666   4.547   2.717 -2.8294 -2.4942 -1.2956
    9MOL0     H 1211   8.667   4.477   2.882  0.5858 -0.5911  0.5296
    9MOL0     H 1212   8.617   4.268   2.822 -1.0483  3.1088  3.3048
    9MOL0     H 1213   8.626   4.305   2.650  0.8459 -2.4468  0.5265
    9MOL0     H 1214   8.439   4.460   2.833 -1.8971 -0.4430 -0.3349
    9MOL0     H 1215   8.418   4.423   2.663 -2.0142 -1.5249  0.3677
    9MOL0     H 1216   8.405   4.213   2.877 -1.6970  0.0831  0.7061
    9MOL0     H 1217   8.342   4.200   2.714 -0.8082 -1.4659  0.6300
    9MOL0     H 1218   8.189   4.411   2.821 -0.2345 -0.0337 -2.5343
    9MOL0     H 1219   8.234   4.328   2.968 -2.7037 -1.4542  0.1523
    9MOL0     H 1220   8.033   4.237   2.884  0.0252  2.2001 -0.2083
    9MOL0     H 1221   8.155   4.115   2.826  1.2638  0.5311  0.9501
    9MOL0     H 1222   9.167   4.457   3.007  0.3700 -0.9450  2.5549
    9MOL0     H 1223   9.332   4.615   3.123  0.4754  3.4352 -2.1455
    9MOL0     H 1224   9.237   4.892   3.516  3.5643 -1.2451  2.1217
    9MOL0     H 1225   9.328   5.000   3.704 -0.5119  0.0245 -0.2210
    9MOL0     H 1226   8.452   6.118   3.326 -0.9003  2.1698 -0.0476
    9MOL0     H 1227   8.288   6.046   3.157 -0.5735  0.9062  0.2577
    9MOL0     H 1228   8.303   5.752   2.615  1.3020  0.0480  1.0209
    9MOL0     H 1229   8.104   5.679   2.502  2.9551  1.3440 -0.1885
    9MOL0     H 1230   7.868   5.630   2.414  0.4625 -1.0048 -0.4531
    9MOL0     H 1231   7.920   5.511   2.543  1.8930  2.4721  0.6676
    9MOL0     H 1232   7.703   5.459   2.599  1.2555 -1.7623 -0.6592
    9MOL0     H 1233   7.711   5.447   2.422 -1.3496 -0.9903  1.4976
    9MOL0     H 1234   7.548   5.630   2.609 -1.3798  2.3365 -1.6793
    9MOL0     H 1235   7.631   5.720   2.487 -2.5529  0.6087  0.7003
    9MOL0     H 1236   7.404   5.674   2.431 -0.4478 -0.2992  1.3600
    9MOL0     H 1237   7.433   5.500   2.446  0.4967 -0.0007 -1.2510
    9MOL0     H 1238   7.585   5.640   2.068 -1.7337  3.2172  1.2104
    9MOL0     H 1239   7.861   5.819   2.826  0.3860 -1.5229  0.4236
    9MOL0     H 1240   8.043   6.043   2.940  1.0199  0.5288  0.5121
    9MOL0     H 1241   7.956   5.916   3.028 -1.2305  2.3118  0.7127
    9MOL0     H 1242   8.129   5.923   3.045  0.2186 -0.4060 -0.7660
   10MOL0     O 1243   1.845   6.962   4.068 -0.1213 -0.1322  0.4454
   10MOL0     C 1244   1.748   6.983   4.144 -0.3118 -1.1800 -0.5377
   10MOL0     O 1245   1.765   7.023   4.282 -0.2919 -0.1183  0.1686
   10MOL0     C 1246   1.892   7.064   4.325  0.3330  0.6542 -0.4243
   10MOL0     C 1247   1.981   7.137   4.247 -0.5347  1.0426  0.3698
   10MOL0     C 1248   2.103   7.175   4.310 -0.4258  0.7074 -0.3686
   10MOL0     C 1249   2.144   7.141   4.434 -0.5249  0.2307 -0.1455
   10MOL0     O 1250   2.273   7.185   4.478 -0.3027 -0.3911 -0.0239
   10MOL0     C 1251   2.310   7.168   4.614  0.7164  0.2461 -0.3637
   10MOL0     C 1252   2.435   7.248   4.643  0.3066  1.0858 -0.1239
   10MOL0     C 1253   2.562   7.178   4.583  0.5111 -0.6073  0.5801
   10MOL0     C 1254   2.692   7.239   4.646  0.0906 -0.7172  0.6838
   10MOL0     C 1255   2.797   7.125   4.647  0.1788 -0.4934 -0.3856
   10MOL0     C 1256   2.941   7.176   4.683 -0.3090  0.6466 -0.1570
   10MOL0     C 1257   3.040   7.064   4.712 -0.4345  0.4993 -0.1509
   10MOL0     C 1258   3.175   7.114   4.767 -0.6612  0.1650 -0.2722
   10MOL0     N 1259   3.292   7.016   4.742  1.3770  0.3747  0.1067
   10MOL0     C 1260   3.408   7.031   4.805 -0.3429  1.4634  0.8795
   10MOL0     C 1261   3.498   6.952   4.730  1.4436  0.3207  0.5167
   10MOL0     C 1262   3.649   6.929   4.757 -0.5510 -0.7201 -0.7063
   10MOL0     C 1263   3.742   7.053   4.763 -1.2596 -0.7463 -0.2008
   10MOL0     C 1264   3.880   7.033   4.710  0.6633  0.1937 -0.4336
   10MOL0     C 1265   3.958   7.155   4.722  0.5021 -0.4141 -0.1198
   10MOL0     O 1266   4.006   7.189   4.853 -0.8901 -0.0783  0.5885
   10MOL0     C 1267   4.067   7.094   4.927  0.1698 -0.0151  0.2565
   10MOL0     C 1268   4.051   7.099   5.063  1.0099 -0.2129  0.2280
   10MOL0     C 1269   4.119   7.007   5.145  0.4114  1.0005 -0.0951
   10MOL0     C 1270   4.107   7.030   5.297 -0.4027  0.8490  0.0936
   10MOL0     C 1271   4.214   6.923   5.081 -0.6258 -0.4360  0.2380
   10MOL0     C 1272   4.311   6.838   5.162 -0.3388 -0.1731  0.0416
   10MOL0     O 1273   4.320   6.716   5.109 -0.4590  0.4983  0.1830
   10MOL0     C 1274   4.410   6.634   5.165 -0.0784 -0.0740  0.0143
   10MOL0     C 1275   4.497   6.565   5.080 -0.0402 -0.3140 -0.0194
   10MOL0     C 1276   4.590   6.473   5.117 -0.7190  0.1304 -0.1494
   10MOL0     C 1277   4.590   6.438   5.256 -1.0914  0.8940  0.2462
   10MOL0     O 1278   4.673   6.327   5.297  0.4395 -0.2024  0.2874
   10MOL0     C 1279   4.697   6.297   5.433  0.1523 -0.4735 -0.3209
   10MOL0     C 1280   4.800   6.188   5.452  0.1470  0.5190  0.4622
   10MOL0     C 1281   4.942   6.231   5.411  0.4215 -0.2627  0.2847
   10MOL0     C 1282   5.045   6.126   5.453  0.5251  0.1555  0.4120
   10MOL0     C 1283   5.186   6.162   5.412  0.5084  0.6601 -0.5098
   10MOL0     C 1284   5.304   6.067   5.447 -0.3255 -0.4904 -0.2009
   10MOL0     C 1285   5.271   5.917   5.475  0.2719 -0.2199  0.0399
   10MOL0     C 1286   5.397   5.840   5.468  0.1848 -0.2072 -0.9101
   10MOL0    Cl 1287   5.363   5.669   5.420  0.5499  0.5744 -0.2036
   10MOL0     C 1288   4.500   6.502   5.345  0.4539  0.0991 -0.2179
   10MOL0     C 1289   4.411   6.602   5.306 -0.6678 -0.3428  0.0550
   10MOL0     O 1290   4.384   6.885   5.246  0.2862 -0.0094 -0.2721
   10MOL0     C 1291   4.222   6.914   4.943 -0.5819 -0.4406  0.8654
   10MOL0     C 1292   4.151   7.003   4.864 -1.1896  0.1444  0.2641
   10MOL0     N 1293   3.427   6.900   4.619  0.9279 -0.3296 -0.8974
   10MOL0     N 1294   3.307   6.939   4.631  0.2039  0.0890 -0.3739
   10MOL0     C 1295   2.050   7.062   4.513 -0.5957 -0.1779 -0.4172
   10MOL0     C 1296   1.930   7.022   4.458 -0.4118 -0.5377  0.9100
   10MOL0     C 1297   1.609   6.977   4.099  0.2675  0.1175 -0.0730
   10MOL0     C 1298   1.508   7.033   4.180 -0.4725 -0.6132 -0.3906
   10MOL0     C 1299   1.374   7.025   4.142  0.6780  0.2005 -0.0217
   10MOL0     C 1300   1.338   6.967   4.021 -0.3476  0.4764  0.7239
   10MOL0     O 1301   1.209   6.962   3.988  0.1576  0.0608  0.8131
   10MOL0     C 1302   1.131   7.081   3.983  0.1563 -0.7755 -0.2384
   10MOL0     C 1303   1.023   7.089   3.882  0.7047 -1.2492 -0.7666
   10MOL0     C 1304   0.923   6.975   3.893 -0.2964 -0.0403 -0.7263
   10MOL0     C 1305   0.829   6.946   3.781  0.9942 -0.1639  0.0950
   10MOL0     C 1306   0.891   6.945   3.654 -0.5749  0.3573  0.3430
   10MOL0     C 1307   0.931   6.932   3.537 -0.6647  0.4608  0.1834
   10MOL0     C 1308   1.433   6.932   3.931 -0.0959  0.3371  0.9820
   10MOL0     C 1309   1.571   6.924   3.971  0.0544 -0.3212  0.6812
   10MOL0     C 1310   1.656   6.862   3.864 -0.5268  0.0421 -0.3211
   10MOL0     H 1311   1.974   7.157   4.141 -1.5281 -0.1998  0.1770
   10MOL0     H 1312   2.174   7.219   4.241  0.1690  0.4813  0.0938
   10MOL0     H 1313   2.341   7.064   4.626  2.0145  0.6582  0.0612
   10MOL0     H 1314   2.226   7.188   4.681  0.6467 -0.1363 -0.3356
   10MOL0     H 1315   2.429   7.347   4.596  0.4415 -0.2580 -3.2640
   10MOL0     H 1316   2.443   7.256   4.751  0.0401  0.3375 -0.0419
   10MOL0     H 1317   2.559   7.069   4.592  0.5247 -0.4797  2.5836
   10MOL0     H 1318   2.552   7.206   4.477 -0.7976  2.3821  1.3883
   10MOL0     H 1319   2.722   7.329   4.591  2.1561 -0.5144  2.0215
   10MOL0     H 1320   2.678   7.270   4.750 -3.8425 -2.9138  1.0111
   10MOL0     H 1321   2.811   7.079   4.549  0.1972 -2.5997  0.5389
   10MOL0     H 1322   2.760   7.054   4.722  0.2020 -1.2211 -1.0589
   10MOL0     H 1323   2.975   7.232   4.595 -1.3133  1.9774  0.2754
   10MOL0     H 1324   2.931   7.246   4.766  1.8659  2.0025 -0.9659
   10MOL0     H 1325   3.060   6.999   4.627  0.9828 -1.5153  1.6149
   10MOL0     H 1326   2.999   7.009   4.798  0.5056 -1.5920 -0.9881
   10MOL0     H 1327   3.213   7.203   4.717 -0.3029 -0.5562 -1.3013
   10MOL0     H 1328   3.170   7.136   4.874  0.3173 -2.1181  0.3088
   10MOL0     H 1329   3.426   7.088   4.896 -1.4152  0.3468  1.8303
   10MOL0     H 1330   3.676   6.864   4.674  0.2889  0.1030 -1.1007
   10MOL0     H 1331   3.662   6.875   4.851 -0.2684  0.4157 -0.0749
   10MOL0     H 1332   3.684   7.136   4.722 -1.1750 -2.2047 -3.5660
   10MOL0     H 1333   3.756   7.079   4.869 -1.9659 -1.5808  0.1057
   10MOL0     H 1334   3.924   6.943   4.755 -0.9410 -0.8430 -0.8573
   10MOL0     H 1335   3.869   6.993   4.609  0.8216 -0.7380 -0.0904
   10MOL0     H 1336   4.038   7.149   4.647 -0.9332  0.0917 -1.7654
   10MOL0     H 1337   3.901   7.237   4.678  1.5728 -0.4462 -1.6458
   10MOL0     H 1338   3.993   7.172   5.119  0.8627 -0.2659  0.1448
   10MOL0     H 1339   4.137   6.943   5.357  0.1425  1.5129  0.8066
   10MOL0     H 1340   4.002   7.048   5.321 -0.5379 -0.3347  0.4953
   10MOL0     H 1341   4.178   7.108   5.323 -0.2532  1.0892 -1.0083
   10MOL0     H 1342   4.491   6.582   4.973 -1.4055 -0.7996 -0.0247
   10MOL0     H 1343   4.656   6.422   5.048  1.3014  0.3834  1.5238
   10MOL0     H 1344   4.729   6.386   5.489 -5.9038  3.0838 -1.6112
   10MOL0     H 1345   4.606   6.267   5.485  1.5327 -4.4548  0.1708
   10MOL0     H 1346   4.812   6.163   5.558  2.3478  1.9243  0.6116
   10MOL0     H 1347   4.769   6.099   5.396  0.2735  1.6683 -1.5455
   10MOL0     H 1348   4.964   6.328   5.458 -1.1587 -0.9213  2.5988
   10MOL0     H 1349   4.944   6.237   5.302 -1.2851 -0.7299  0.1946
   10MOL0     H 1350   5.018   6.035   5.398  1.4529 -0.4457  0.9305
   10MOL0     H 1351   5.039   6.105   5.560  0.4016 -0.0311  0.3698
   10MOL0     H 1352   5.176   6.177   5.304 -3.1216 -2.9875 -0.9082
   10MOL0     H 1353   5.203   6.263   5.450 -0.4020  1.4388 -2.0617
   10MOL0     H 1354   5.342   6.109   5.541 -1.8242  1.0571 -0.2366
   10MOL0     H 1355   5.382   6.093   5.376 -0.2242 -0.7803 -0.1958
   10MOL0     H 1356   5.200   5.879   5.401 -1.0133  1.8239  0.1522
   10MOL0     H 1357   5.219   5.897   5.569  1.3578  1.1049  0.9700
   10MOL0     H 1358   5.444   5.838   5.566 -0.4452  0.1303 -0.5929
   10MOL0     H 1359   5.464   5.880   5.391 -0.1086  0.3903 -0.8656
   10MOL0     H 1360   4.501   6.471   5.449  3.3943 -0.2799 -0.2814
   10MOL0     H 1361   4.355   6.641   5.391  0.3704 -2.5919  1.9057
   10MOL0     H 1362   4.287   6.847   4.888 -0.3447 -0.5206  1.2375
   10MOL0     H 1363   4.179   7.023   4.761  0.9023  1.4498  1.0076
   10MOL0     H 1364   2.058   7.022   4.613 -2.1620 -4.2116 -1.6900
   10MOL0     H 1365   1.861   6.972   4.525 -0.6344  0.5976  1.5588
   10MOL0     H 1366   1.535   7.082   4.272  3.5652 -1.4527 -0.9441
   10MOL0     H 1367   1.292   7.059   4.205  1.4339  2.3331 -0.1122
   10MOL0     H 1368   1.081   7.085   4.081  0.1785  0.6913 -0.2565
   10MOL0     H 1369   1.202   7.164   3.972  0.0039 -0.7926 -1.4097
   10MOL0     H 1370   1.063   7.091   3.780 -1.2504 -4.1524 -1.7081
   10MOL0     H 1371   0.969   7.183   3.898  1.5849 -0.9679  0.7914
   10MOL0     H 1372   0.973   6.884   3.928  0.1679 -0.2040 -1.7925
   10MOL0     H 1373   0.861   7.013   3.975  0.9625  1.9718 -0.6327
   10MOL0     H 1374   0.752   7.024   3.777 -0.0930 -1.1905  0.2104
   10MOL0     H 1375   0.778   6.851   3.803 -0.4500  0.8565  1.3738
   10MOL0     H 1376   0.959   6.917   3.435  0.1421 -0.3432  0.5081
   10MOL0     H 1377   1.398   6.890   3.837 -3.7856 -1.3495  2.9085
   10MOL0     H 1378   1.758   6.838   3.895  0.1078  2.4891 -0.3785
   10MOL0     H 1379   1.613   6.762   3.848  1.5583 -1.4016  2.2215
   10MOL0     H 1380   1.664   6.920   3.772 -2.5294 -0.6649 -0.9862
   11MOL0     O 1381   5.221   1.506   8.474 -0.1452  0.4514  0.3276
   11MOL0     C 1382   5.320   1.435   8.457 -0.5923  0.6169 -0.2529
   11MOL0     O 1383   5.443   1.479   8.491  0.0308 -0.7023  0.6793
   11MOL0     C 1384   5.459   1.589   8.570 -0.1278  0.2833  0.8326
   11MOL0     C 1385   5.464   1.577   8.709  0.3341  0.1614 -0.9555
   11MOL0     C 1386   5.490   1.693   8.789  0.5004  0.3581  1.1195
   11MOL0     C 1387   5.501   1.816   8.735  0.0699 -0.6519  0.4112
   11MOL0     O 1388   5.514   1.931   8.817  0.2210  0.1900  0.2454
   11MOL0     C 1389   5.495   2.061   8.753 -1.3185 -0.1663 -0.0411
   11MOL0     C 1390   5.525   2.153   8.867  0.2128 -0.1151  0.4459
   11MOL0     C 1391   5.667   2.176   8.907 -1.2288 -0.8829  0.1625
   11MOL0     C 1392   5.694   2.096   9.035  0.3040 -0.5706 -0.5332
   11MOL0     C 1393   5.827   2.128   9.094 -0.0700 -0.5564 -0.3419
   11MOL0     C 1394   5.822   2.246   9.187  1.0900  0.6074 -0.7997
   11MOL0     C 1395   5.957   2.269   9.258 -0.0404 -0.5523 -0.2540
   11MOL0     C 1396   6.080   2.310   9.166 -0.9648  0.2534 -0.0490
   11MOL0     N 1397   6.202   2.344   9.244  0.6684 -0.5225 -0.1690
   11MOL0     C 1398   6.234   2.293   9.367 -0.2604 -0.3542 -0.1377
   11MOL0     C 1399   6.363   2.343   9.394  0.0952  0.0578 -0.2990
   11MOL0     C 1400   6.434   2.315   9.522 -0.7101 -0.0815 -0.6745
   11MOL0     C 1401   6.555   2.218   9.519  0.3929 -0.4326 -0.3051
   11MOL0     C 1402   6.628   2.214   9.653 -0.1547 -0.2695  0.0749
   11MOL0     C 1403   6.770   2.160   9.629  0.2827  0.1091 -1.1770
   11MOL0     O 1404   6.838   2.174   9.753  0.1650  0.4838  0.3947
   11MOL0     C 1405   6.971   2.124   9.763  0.1365 -0.0959 -0.3474
   11MOL0     C 1406   7.041   2.128   9.880 -0.5348  0.3316 -0.3773
   11MOL0     C 1407   7.178   2.123   9.885 -0.6195  0.1759 -0.6059
   11MOL0     C 1408   7.230   2.136  10.025 -0.9426  0.1396 -0.3182
   11MOL0     C 1409   7.255   2.106   9.766 -1.6229 -0.0383 -0.1499
   11MOL0     C 1410   7.405   2.118   9.767  0.5855 -0.0897 -0.9175
   11MOL0     O 1411   7.466   2.081   9.656  0.0008 -0.2385 -0.9678
   11MOL0     C 1412   7.596   2.050   9.662  0.3583  0.1245 -1.3259
   11MOL0     C 1413   7.674   2.135   9.591  0.1637 -0.9001 -0.5074
   11MOL0     C 1414   7.814   2.133   9.598  0.6905 -0.5572  0.3337
   11MOL0     C 1415   7.881   2.041   9.673  0.4078 -0.6913  0.4369
   11MOL0     O 1416   8.018   2.030   9.668 -0.1938  0.7829  0.2103
   11MOL0     C 1417   8.088   1.937   9.756  0.3591  0.4665  0.1486
   11MOL0     C 1418   8.232   1.947   9.790  0.4390  0.1505 -0.5326
   11MOL0     C 1419   8.291   1.831   9.881  0.3971 -0.6592  0.3563
   11MOL0     C 1420   8.433   1.852   9.918 -0.5784  0.0649 -0.3185
   11MOL0     C 1421   8.498   1.729   9.995  0.4947 -0.1207  0.2704
   11MOL0     C 1422   8.649   1.727  10.017 -0.1989 -0.2951 -0.3053
   11MOL0     C 1423   8.701   1.593  10.078  0.8606 -0.7304 -0.1473
   11MOL0     C 1424   8.853   1.573  10.075 -0.6108  0.2338 -0.3925
   11MOL0    Cl 1425   8.934   1.623  10.229  0.1611  0.2822  0.0946
   11MOL0     C 1426   7.801   1.941   9.733  0.3707 -0.0278  1.0768
   11MOL0     C 1427   7.659   1.939   9.728  0.8368  0.1387 -0.1688
   11MOL0     O 1428   7.449   2.186   9.857 -0.7447 -0.4218 -0.7404
   11MOL0     C 1429   7.186   2.081   9.653  0.5454 -0.6696  0.6357
   11MOL0     C 1430   7.045   2.102   9.647  0.4087 -0.0526  0.4288
   11MOL0     N 1431   6.409   2.418   9.298  0.1253 -1.1632  0.6519
   11MOL0     N 1432   6.309   2.421   9.210 -1.1876  0.1774 -0.4399
   11MOL0     C 1433   5.493   1.824   8.591  0.2276  0.2814  0.0669
   11MOL0     C 1434   5.479   1.712   8.512 -0.5541 -0.3164  0.1132
   11MOL0     C 1435   5.313   1.300   8.389  1.1063 -0.9633 -0.8671
   11MOL0     C 1436   5.428   1.230   8.369 -0.2302  0.5058  0.4738
   11MOL0     C 1437   5.427   1.101   8.311 -0.0341 -0.0682  0.4187
   11MOL0     C 1438   5.312   1.036   8.264 -0.2985 -0.1740 -0.4996
   11MOL0     O 1439   5.310   0.914   8.201 -0.0706  0.5551  0.3140
   11MOL0     C 1440   5.424   0.828   8.203 -0.0479  0.6423 -0.5357
   11MOL0     C 1441   5.381   0.685   8.178  0.2696  0.3662 -0.5736
   11MOL0     C 1442   5.283   0.640   8.292 -0.8536  0.3398 -0.9991
   11MOL0     C 1443   5.254   0.490   8.286 -0.0670 -0.0166  0.3722
   11MOL0     C 1444   5.175   0.443   8.406  0.5682  0.5255 -0.0097
   11MOL0     C 1445   5.084   0.417   8.488  0.5508 -0.1289 -0.4684
   11MOL0     C 1446   5.197   1.111   8.287  0.2042 -0.4316  0.3139
   11MOL0     C 1447   5.188   1.239   8.346  0.1709  0.2631  0.0399
   11MOL0     C 1448   5.051   1.303   8.338 -0.8140 -0.4881 -0.1308
   11MOL0     H 1449   5.438   1.489   8.766  0.8274  1.9962  2.3815
   11MOL0     H 1450   5.482   1.680   8.896  0.6195 -0.2305  1.0615
   11MOL0     H 1451   5.396   2.077   8.710 -1.9354 -3.8250 -0.3149
   11MOL0     H 1452   5.571   2.073   8.675 -0.8008 -0.0611  0.4620
   11MOL0     H 1453   5.514   2.252   8.821  1.4401 -0.0478  0.2449
   11MOL0     H 1454   5.452   2.153   8.948 -0.5427 -2.5932 -0.1601
   11MOL0     H 1455   5.741   2.144   8.833  0.3824  1.4267  0.6586
   11MOL0     H 1456   5.686   2.283   8.918  0.5490 -0.7363 -3.0141
   11MOL0     H 1457   5.614   2.125   9.103 -0.5573  2.1823 -2.5394
   11MOL0     H 1458   5.672   1.990   9.018  1.3675 -1.1879  1.5247
   11MOL0     H 1459   5.912   2.128   9.024  1.6981 -0.3251  1.7144
   11MOL0     H 1460   5.849   2.052   9.169 -0.5571  0.9301  1.3774
   11MOL0     H 1461   5.786   2.337   9.136  0.3236 -0.6921 -2.7113
   11MOL0     H 1462   5.754   2.235   9.272  0.6993 -2.2647 -1.4036
   11MOL0     H 1463   5.974   2.170   9.302 -2.5632 -1.9563 -2.1312
   11MOL0     H 1464   5.942   2.340   9.339  3.1302 -0.6617  0.5606
   11MOL0     H 1465   6.097   2.231   9.092  0.3943  0.0411  0.4659
   11MOL0     H 1466   6.068   2.399   9.104  1.9021  0.3507 -0.6286
   11MOL0     H 1467   6.173   2.218   9.415 -1.4431 -0.3621 -1.5597
   11MOL0     H 1468   6.363   2.269   9.592  1.1317 -0.6804  0.8971
   11MOL0     H 1469   6.472   2.405   9.571  1.5265 -0.7992 -0.9896
   11MOL0     H 1470   6.514   2.118   9.508 -1.4651 -0.0605  2.4754
   11MOL0     H 1471   6.624   2.236   9.435  0.1372  4.1490  0.1912
   11MOL0     H 1472   6.646   2.315   9.692  2.6830 -0.1146 -1.3369
   11MOL0     H 1473   6.569   2.152   9.720 -2.1496 -1.5235 -2.6901
   11MOL0     H 1474   6.766   2.056   9.595 -2.5521 -0.0597 -0.5784
   11MOL0     H 1475   6.812   2.232   9.558 -3.1088 -0.2329 -3.8030
   11MOL0     H 1476   6.988   2.153   9.972  0.1019  1.7790 -0.3731
   11MOL0     H 1477   7.149   2.113  10.095 -3.1770 -1.5083 -3.2247
   11MOL0     H 1478   7.275   2.235  10.035 -0.3279 -0.2313  0.8242
   11MOL0     H 1479   7.316   2.069  10.033  1.3502  2.9968  0.7240
   11MOL0     H 1480   7.617   2.202   9.527 -1.4443 -1.5691  0.1640
   11MOL0     H 1481   7.864   2.216   9.548 -2.2027  0.8771 -0.4375
   11MOL0     H 1482   8.042   1.931   9.854 -0.1873 -0.7831 -0.1655
   11MOL0     H 1483   8.071   1.835   9.720 -1.8371  0.8350  0.0244
   11MOL0     H 1484   8.301   1.935   9.705  3.3000 -0.8140  1.7369
   11MOL0     H 1485   8.235   2.043   9.841 -1.5918 -0.9817  1.9200
   11MOL0     H 1486   8.288   1.732   9.834  3.5068 -1.1625  0.9931
   11MOL0     H 1487   8.237   1.821   9.975  1.2448 -0.1395  0.9016
   11MOL0     H 1488   8.446   1.943   9.977 -2.0839 -0.3863  0.7747
   11MOL0     H 1489   8.495   1.882   9.834  1.8231 -0.7114  1.0754
   11MOL0     H 1490   8.444   1.714  10.089  0.3129 -0.2966  0.1381
   11MOL0     H 1491   8.476   1.645   9.929 -1.0468  1.3303 -1.1804
   11MOL0     H 1492   8.670   1.807  10.088 -2.3376  1.1886 -1.2556
   11MOL0     H 1493   8.701   1.747   9.922  0.5476 -2.8328 -0.5208
   11MOL0     H 1494   8.655   1.515  10.016 -2.8843  1.1240 -0.0000
   11MOL0     H 1495   8.663   1.576  10.179 -1.1686  0.7600 -0.5846
   11MOL0     H 1496   8.900   1.632   9.996  3.5648 -0.3276  1.4377
   11MOL0     H 1497   8.881   1.469  10.055  2.7997  1.1421 -0.9915
   11MOL0     H 1498   7.830   1.848   9.779 -2.3915 -1.0051  1.0618
   11MOL0     H 1499   7.585   1.877   9.778 -0.5813  2.2367  0.4567
   11MOL0     H 1500   7.232   2.048   9.560 -1.4372 -2.7365  0.2894
   11MOL0     H 1501   6.984   2.102   9.557 -0.3126  0.1861  0.9080
   11MOL0     H 1502   5.503   1.921   8.543 -1.0032 -0.1091 -1.0621
   11MOL0     H 1503   5.460   1.723   8.406 -2.6172  4.9982  0.7442
   11MOL0     H 1504   5.527   1.270   8.388  0.6717 -0.7734 -1.2562
   11MOL0     H 1505   5.517   1.042   8.298  0.1123 -1.3476  5.2473
   11MOL0     H 1506   5.496   0.859   8.128 -1.9386  0.0536 -2.7130
   11MOL0     H 1507   5.466   0.835   8.304 -1.7849  2.5168  0.1547
   11MOL0     H 1508   5.467   0.624   8.147 -0.5954 -0.5134 -1.3501
   11MOL0     H 1509   5.313   0.689   8.093  0.8313  0.4868 -1.0252
   11MOL0     H 1510   5.328   0.669   8.388  0.5161  0.5438 -1.6725
   11MOL0     H 1511   5.187   0.691   8.285 -0.8826  0.2568 -1.2207
   11MOL0     H 1512   5.350   0.441   8.264 -0.2384  0.3584 -1.3478
   11MOL0     H 1513   5.191   0.472   8.198  2.1000  1.5869 -1.6198
   11MOL0     H 1514   5.014   0.390   8.565 -0.5577 -1.4113 -1.8594
   11MOL0     H 1515   5.105   1.058   8.265 -0.7564  0.0680  2.7998
   11MOL0     H 1516   5.051   1.411   8.317 -0.6819 -1.0266 -3.3157
   11MOL0     H 1517   4.988   1.254   8.263  0.7961 -2.1490 -0.4368
   11MOL0     H 1518   5.004   1.288   8.436  0.2574  0.1888  0.5042
   12MOL0     O 1519   7.426  10.115   7.800  0.0793  0.3674  0.4486
   12MOL0     C 1520   7.440  10.146   7.913 -0.0801 -0.5235 -0.6769
   12MOL0     O 1521   7.547  10.127   7.986  0.0403  1.0056  0.0723
   12MOL0     C 1522   7.664  10.085   7.932  0.4220  0.3100  0.4711
   12MOL0     C 1523   7.721  10.122   7.809  0.5797  0.7197 -0.7012
   12MOL0     C 1524   7.839  10.070   7.767  0.0928 -0.5135  0.1994
   12MOL0     C 1525   7.904   9.978   7.846 -0.5142  0.3987 -0.0166
   12MOL0     O 1526   8.019   9.900   7.813  1.0188  0.2757 -0.8757
   12MOL0     C 1527   8.089   9.936   7.695 -0.2310 -0.3102  0.0479
   12MOL0     C 1528   8.235   9.879   7.705 -0.3254  0.5879 -0.0487
   12MOL0     C 1529   8.309   9.953   7.815 -0.0216  0.4072  0.7513
   12MOL0     C 1530   8.424   9.881   7.876 -0.4317 -0.3639  0.0241
   12MOL0     C 1531   8.538   9.913   7.776  0.0141  0.1909 -0.3774
   12MOL0     C 1532   8.671   9.858   7.812 -0.3920  1.0319  0.4507
   12MOL0     C 1533   8.713   9.915   7.944  0.3884  0.1021  0.0298
   12MOL0     C 1534   8.846   9.852   7.992 -0.7702 -0.0854  0.4171
   12MOL0     N 1535   8.945   9.928   7.913 -0.7476  0.4226 -0.0367
   12MOL0     C 1536   9.038  10.012   7.969 -0.5559 -0.4355  0.7758
   12MOL0     C 1537   9.145  10.013   7.884 -0.0379  0.6314 -1.0055
   12MOL0     C 1538   9.273  10.080   7.917 -0.9034  1.0316  0.4364
   12MOL0     C 1539   9.380  10.059   7.807 -0.6808 -0.0818 -0.0567
   12MOL0     C 1540   9.515  10.137   7.830 -1.1392  0.6804  0.2207
   12MOL0     C 1541   9.616  10.124   7.711  0.4983  0.6749 -0.1522
   12MOL0     O 1542   9.725  10.216   7.744  0.6719  0.0464 -0.0160
   12MOL0     C 1543   9.843  10.186   7.682  0.2257 -1.1436 -0.3476
   12MOL0     C 1544   9.867  10.137   7.556  0.6196 -0.0199 -0.7617
   12MOL0     C 1545   9.990  10.128   7.498 -0.2079  0.0357  0.3528
   12MOL0     C 1546  10.000  10.068   7.359 -0.3873 -0.5585 -0.2888
   12MOL0     C 1547  10.102  10.159   7.577 -0.3794  0.0436  0.5935
   12MOL0     C 1548  10.242  10.148   7.529  0.2764 -0.5285  0.4288
   12MOL0     O 1549  10.276  10.179   7.400  0.1395 -0.6747  0.3231
   12MOL0     C 1550  10.402  10.215   7.360  0.5564  0.3801 -0.6558
   12MOL0     C 1551  10.506  10.256   7.442 -0.2341 -1.0635 -0.2887
   12MOL0     C 1552  10.626  10.290   7.390 -0.8536  0.1453  0.0134
   12MOL0     C 1553  10.654  10.300   7.257  0.7950 -0.3085  0.2337
   12MOL0     O 1554  10.768  10.365   7.220  0.0015 -0.2595  0.1836
   12MOL0     C 1555  10.800  10.404   7.081  0.9125 -0.7851  0.6329
   12MOL0     C 1556  10.934  10.481   7.087  0.2384  0.3856 -0.0919
   12MOL0     C 1557  10.981  10.536   6.950  0.6920 -0.2109 -0.6799
   12MOL0     C 1558  10.901  10.662   6.913  0.8084  0.2956  0.5394
   12MOL0     C 1559  10.929  10.708   6.769 -0.3922  0.1835  1.1599
   12MOL0     C 1560  10.835  10.824   6.735  0.2828  0.2577  0.2466
   12MOL0     C 1561  10.880  10.906   6.608  0.2991  0.4273 -0.8125
   12MOL0     C 1562  10.911  10.816   6.483 -0.6556 -0.7224 -0.3187
   12MOL0    Cl 1563  10.770  10.705   6.453  0.0757  0.0109 -0.1083
   12MOL0     C 1564  10.549  10.267   7.172 -1.0930 -0.4042 -0.9656
   12MOL0     C 1565  10.428  10.222   7.222  0.7289 -0.1931  0.3499
   12MOL0     O 1566  10.319  10.105   7.610  0.2216  0.3924  0.2017
   12MOL0     C 1567  10.075  10.202   7.706 -0.2378  1.0152 -0.0110
   12MOL0     C 1568   9.945  10.214   7.762 -0.7039  0.1397  0.8976
   12MOL0     N 1569   9.114   9.934   7.778 -0.2517  0.3312 -0.3453
   12MOL0     N 1570   8.997   9.886   7.793  0.0577  0.6289  0.1773
   12MOL0     C 1571   7.849   9.945   7.963  0.6889  0.0560  0.4676
   12MOL0     C 1572   7.729  10.001   8.012  0.0132 -0.2395 -0.8905
   12MOL0     C 1573   7.331  10.221   7.985 -0.4688 -0.0205 -0.1692
   12MOL0     C 1574   7.349  10.252   8.124 -0.3541 -0.4429 -0.1089
   12MOL0     C 1575   7.257  10.325   8.196  0.5313 -0.2993 -0.7202
   12MOL0     C 1576   7.145  10.382   8.133 -0.5637 -0.1999  0.5210
   12MOL0     O 1577   7.068  10.460   8.213 -0.0462  0.1129 -0.9097
   12MOL0     C 1578   6.982  10.561   8.150 -0.7486  0.4406 -0.8054
   12MOL0     C 1579   6.936  10.648   8.270  0.4367  0.2486 -0.7826
   12MOL0     C 1580   6.856  10.771   8.211 -0.8642 -0.7692 -0.1792
   12MOL0     C 1581   6.827  10.874   8.314  0.2309  0.8282  0.4897
   12MOL0     C 1582   6.733  10.977   8.261  0.7907 -0.2358 -0.6841
   12MOL0     C 1583   6.645  11.039   8.205 -0.4096 -0.3288  0.0019
   12MOL0     C 1584   7.118  10.347   7.995 -0.3558 -1.0028  0.1485
   12MOL0     C 1585   7.210  10.269   7.920 -1.0941 -0.3355  0.2209
   12MOL0     C 1586   7.164  10.207   7.797  0.2549 -0.5939  0.1586
   12MOL0     H 1587   7.661  10.187   7.747 -0.2667  0.7860  0.1699
   12MOL0     H 1588   7.860  10.111   7.669 -2.9308  1.0975  0.1108
   12MOL0     H 1589   8.107  10.044   7.693 -0.1989 -0.3216 -0.3687
   12MOL0     H 1590   8.040   9.915   7.599 -0.4024  0.5541 -0.0673
   12MOL0     H 1591   8.217   9.776   7.736  1.1613  0.2860 -0.1049
   12MOL0     H 1592   8.296   9.882   7.614  0.3128  1.3813  0.3927
   12MOL0     H 1593   8.337  10.053   7.781  2.2020 -0.2944  0.3744
   12MOL0     H 1594   8.236   9.973   7.895 -1.8825 -1.2208 -0.4432
   12MOL0     H 1595   8.435   9.930   7.973  1.0743  3.0858 -1.7221
   12MOL0     H 1596   8.383   9.780   7.881 -2.5108  0.4124 -0.2292
   12MOL0     H 1597   8.550  10.021   7.783 -1.4048  0.2953  1.3288
   12MOL0     H 1598   8.517   9.871   7.677  2.1516 -0.5811 -0.5450
   12MOL0     H 1599   8.660   9.749   7.824 -2.7039  0.8973 -2.0714
   12MOL0     H 1600   8.740   9.880   7.730  0.6274  1.5327  1.4061
   12MOL0     H 1601   8.640   9.903   8.024 -0.3317  3.6656  0.0601
   12MOL0     H 1602   8.722  10.023   7.928 -1.0424  0.5384  1.8745
   12MOL0     H 1603   8.863   9.870   8.098 -1.4163 -0.0273  0.5128
   12MOL0     H 1604   8.846   9.743   7.979 -0.3493  0.0328 -0.6920
   12MOL0     H 1605   9.041  10.051   8.071 -0.1049  0.4137  0.4443
   12MOL0     H 1606   9.308  10.041   8.013  1.5155 -2.4310 -1.6109
   12MOL0     H 1607   9.251  10.187   7.919 -1.0658  1.0234 -0.4055
   12MOL0     H 1608   9.408   9.953   7.813 -1.2848 -0.2529 -0.1365
   12MOL0     H 1609   9.338  10.086   7.710 -2.1654 -0.3981  0.4648
   12MOL0     H 1610   9.493  10.243   7.844  0.0548  0.8496  0.8845
   12MOL0     H 1611   9.562  10.110   7.925  0.9600  0.6650 -0.7755
   12MOL0     H 1612   9.657  10.024   7.700  0.1761  0.8047 -4.7981
   12MOL0     H 1613   9.572  10.153   7.615  2.6156  0.5476 -1.2105
   12MOL0     H 1614   9.772  10.111   7.509 -1.3902  3.7145  0.7505
   12MOL0     H 1615  10.050  10.139   7.291  2.4274 -3.1405 -1.1440
   12MOL0     H 1616   9.900  10.045   7.322 -0.4881 -1.8331  0.7145
   12MOL0     H 1617  10.058   9.975   7.360 -0.0384 -0.3417  0.0375
   12MOL0     H 1618  10.478  10.268   7.546 -1.8688  0.4738 -0.8592
   12MOL0     H 1619  10.714  10.329   7.440  1.5003 -4.5744  0.1194
   12MOL0     H 1620  10.812  10.312   7.024  0.7564 -0.0063 -0.6897
   12MOL0     H 1621  10.722  10.467   7.036  0.7800 -3.4307 -3.3400
   12MOL0     H 1622  10.927  10.567   7.154 -0.6264  2.7853 -3.0407
   12MOL0     H 1623  11.010  10.421   7.138 -1.4219 -2.5547 -0.8311
   12MOL0     H 1624  10.957  10.457   6.878 -0.2420 -0.6103  0.0479
   12MOL0     H 1625  11.089  10.555   6.945  0.4417  1.1370 -3.4900
   12MOL0     H 1626  10.936  10.731   6.990 -1.1527 -2.5350  4.2586
   12MOL0     H 1627  10.794  10.645   6.925  1.0089 -1.1278  0.4781
   12MOL0     H 1628  11.035  10.734   6.758  0.0198 -1.7270  0.1861
   12MOL0     H 1629  10.915  10.625   6.698  2.5970  0.9314 -0.4774
   12MOL0     H 1630  10.815  10.897   6.814 -2.7636  1.1842 -1.2123
   12MOL0     H 1631  10.737  10.783   6.706  0.5970  0.7125 -1.5924
   12MOL0     H 1632  10.962  10.968   6.645 -1.0685  0.5681  2.2975
   12MOL0     H 1633  10.795  10.971   6.584  0.5044  0.9604 -0.1367
   12MOL0     H 1634  10.993  10.750   6.510 -0.9761 -0.3211  1.7859
   12MOL0     H 1635  10.935  10.885   6.401  0.9604  1.1128  1.5815
   12MOL0     H 1636  10.579  10.286   7.069  1.2559  4.7447  0.3653
   12MOL0     H 1637  10.342  10.207   7.158 -1.4888  0.5975  2.9401
   12MOL0     H 1638  10.154  10.242   7.769  0.7574 -0.6447 -0.1661
   12MOL0     H 1639   9.932  10.240   7.867 -0.1130 -2.4538  1.6728
   12MOL0     H 1640   7.894   9.869   8.025  0.1870  0.0119  0.7891
   12MOL0     H 1641   7.689   9.978   8.110 -1.6735 -0.6306 -1.6407
   12MOL0     H 1642   7.432  10.224   8.189  0.0553  0.6066 -0.1733
   12MOL0     H 1643   7.265  10.345   8.303  1.5216 -0.3386 -0.7790
   12MOL0     H 1644   7.047  10.614   8.081 -1.2186  1.1386 -0.7172
   12MOL0     H 1645   6.886  10.530   8.108 -1.9556 -0.1798  2.1511
   12MOL0     H 1646   7.023  10.694   8.317 -1.0656  1.5493  0.8678
   12MOL0     H 1647   6.879  10.599   8.350  0.2679  1.5425 -0.0852
   12MOL0     H 1648   6.909  10.812   8.124  0.5190 -1.5121  0.2866
   12MOL0     H 1649   6.763  10.722   8.184 -1.8320  0.4758  0.7901
   12MOL0     H 1650   6.918  10.919   8.354 -0.9189  2.2283  1.6615
   12MOL0     H 1651   6.785  10.817   8.397  2.0709  0.6349  1.3196
   12MOL0     H 1652   6.583  11.112   8.157  1.6784  2.3529  1.0760
   12MOL0     H 1653   7.031  10.385   7.942 -0.0737 -2.4704 -1.4510
   12MOL0     H 1654   7.180  10.099   7.811 -0.0274 -0.6156  0.3179
   12MOL0     H 1655   7.057  10.226   7.786  0.5926 -0.1542 -3.5607
   12MOL0     H 1656   7.220  10.231   7.706 -0.5583  0.4350 -0.0849
   13MOL0     O 1657   4.324   3.194   8.449 -0.2542  0.6509 -0.6178
   13MOL0     C 1658   4.224   3.263   8.444  0.9852  0.7475 -0.2983
   13MOL0     O 1659   4.161   3.316   8.337 -0.0146 -0.2177 -0.3845
   13MOL0     C 1660   4.206   3.285   8.215 -0.0000 -0.3821 -0.7018
   13MOL0     C 1661   4.148   3.364   8.116 -0.1909  0.5081  0.4322
   13MOL0     C 1662   4.157   3.345   7.976  0.1636  1.1479  0.0334
   13MOL0     C 1663   4.248   3.243   7.928  0.0899  0.9580 -0.5734
   13MOL0     O 1664   4.276   3.216   7.800 -0.8750 -0.0597  0.3186
   13MOL0     C 1665   4.181   3.265   7.705  0.0353 -0.8918  0.0944
   13MOL0     C 1666   4.244   3.286   7.564  0.6019 -0.3761  0.1414
   13MOL0     C 1667   4.361   3.389   7.566  0.4560 -0.1914 -0.3697
   13MOL0     C 1668   4.445   3.389   7.437  0.3895  0.0179 -0.2049
   13MOL0     C 1669   4.589   3.447   7.462  0.2650 -0.1761 -0.5370
   13MOL0     C 1670   4.676   3.458   7.336  1.3160  1.0092  0.4917
   13MOL0     C 1671   4.795   3.550   7.355 -0.3898  0.5370 -0.5553
   13MOL0     C 1672   4.848   3.579   7.217  0.4054 -0.1914  0.2816
   13MOL0     N 1673   4.972   3.650   7.221 -0.2157 -0.0514 -0.1163
   13MOL0     C 1674   5.089   3.583   7.245  0.2782  0.5734  0.7768
   13MOL0     C 1675   5.181   3.685   7.243 -1.4599  0.5112 -0.0516
   13MOL0     C 1676   5.336   3.682   7.267 -0.0025 -0.2451 -0.2958
   13MOL0     C 1677   5.362   3.615   7.399  0.8127  1.2444 -0.0714
   13MOL0     C 1678   5.500   3.649   7.454  0.3951  1.0511  0.6882
   13MOL0     C 1679   5.497   3.793   7.498  0.7447  0.1524 -0.0996
   13MOL0     O 1680   5.606   3.840   7.559 -1.0257  0.0524  0.4578
   13MOL0     C 1681   5.647   3.971   7.557  1.1935 -0.3271 -0.6601
   13MOL0     C 1682   5.764   4.009   7.620 -0.4497 -0.2260  0.5431
   13MOL0     C 1683   5.792   4.142   7.646  0.2199 -0.8859  0.6166
   13MOL0     C 1684   5.936   4.165   7.690  0.1367 -0.0722 -0.7983
   13MOL0     C 1685   5.700   4.241   7.607  0.3847 -0.0072 -0.3772
   13MOL0     C 1686   5.737   4.390   7.621  0.5679 -0.3227 -0.4045
   13MOL0     O 1687   5.829   4.432   7.714 -0.0804 -0.3339 -0.0333
   13MOL0     C 1688   5.851   4.569   7.726  0.5607  0.4861 -0.3188
   13MOL0     C 1689   5.744   4.638   7.767 -0.2181  0.8950 -0.0824
   13MOL0     C 1690   5.760   4.773   7.813  0.6886  0.4028  0.5641
   13MOL0     C 1691   5.890   4.826   7.817  0.5866  0.5656  0.0644
   13MOL0     O 1692   5.919   4.946   7.861  0.1277 -0.2866  0.0794
   13MOL0     C 1693   5.873   4.969   7.991 -0.1745  0.0250  0.2417
   13MOL0     C 1694   5.886   5.126   8.006 -0.3851  0.5192 -0.2503
   13MOL0     C 1695   5.840   5.165   8.143  0.1154 -0.6968 -0.2427
   13MOL0     C 1696   5.885   5.304   8.175  0.8576  0.1412 -0.5748
   13MOL0     C 1697   5.860   5.343   8.326  0.2376  0.2647 -0.1980
   13MOL0     C 1698   5.840   5.495   8.345 -0.9572 -0.4322  0.3849
   13MOL0     C 1699   5.942   5.575   8.277  0.5602  0.2019  0.2619
   13MOL0     C 1700   5.931   5.720   8.321 -0.2120  1.0559 -0.7174
   13MOL0    Cl 1701   5.788   5.804   8.237 -0.5127 -0.2684 -0.2734
   13MOL0     C 1702   5.999   4.754   7.770  0.9741 -0.1599  0.5549
   13MOL0     C 1703   5.979   4.628   7.719 -0.2822 -0.1418  0.2069
   13MOL0     O 1704   5.683   4.467   7.540  0.9935 -0.1358  0.4004
   13MOL0     C 1705   5.586   4.203   7.535  0.4531  0.9349 -0.3304
   13MOL0     C 1706   5.567   4.072   7.503  0.0271  0.4460 -0.6182
   13MOL0     N 1707   5.121   3.802   7.208 -0.2893  0.4871 -0.6517
   13MOL0     N 1708   5.000   3.782   7.203 -0.4412  0.5672 -0.4314
   13MOL0     C 1709   4.306   3.162   8.031 -0.2817  0.0140  0.7453
   13MOL0     C 1710   4.284   3.182   8.167  0.9537 -0.7069 -0.5113
   13MOL0     C 1711   4.158   3.288   8.568  0.3948 -0.0897  0.3026
   13MOL0     C 1712   4.023   3.312   8.560 -0.2639 -0.4180  0.7735
   13MOL0     C 1713   3.946   3.347   8.667  0.6580 -0.4467 -0.5435
   13MOL0     C 1714   4.007   3.368   8.792 -0.4577  0.3148  0.5387
   13MOL0     O 1715   3.942   3.409   8.912 -0.3960 -0.9519 -0.3990
   13MOL0     C 1716   3.826   3.487   8.908 -1.0294  0.7075 -0.1385
   13MOL0     C 1717   3.846   3.626   8.853  0.1034  0.8503 -0.2899
   13MOL0     C 1718   3.903   3.743   8.936  0.1809  0.5511  0.1191
   13MOL0     C 1719   3.906   3.882   8.854 -0.0861 -0.2740 -0.6302
   13MOL0     C 1720   3.938   3.989   8.949 -0.5117  0.4193 -0.4061
   13MOL0     C 1721   3.986   4.065   9.029 -0.3579 -0.2365 -0.4779
   13MOL0     C 1722   4.139   3.341   8.808 -0.7333 -1.1311 -0.4840
   13MOL0     C 1723   4.217   3.301   8.700 -0.0720  0.1348  0.7800
   13MOL0     C 1724   4.365   3.289   8.722 -0.4290 -0.1938  0.0307
   13MOL0     H 1725   4.078   3.442   8.145 -2.6598 -0.6603 -1.9926
   13MOL0     H 1726   4.090   3.404   7.914 -2.3086 -1.1639  0.3287
   13MOL0     H 1727   4.150   3.368   7.726  2.0332  0.3796 -2.4454
   13MOL0     H 1728   4.095   3.199   7.696  0.7813 -1.8858  0.1418
   13MOL0     H 1729   4.281   3.190   7.526  3.1668  0.8717 -0.7390
   13MOL0     H 1730   4.171   3.308   7.485  1.0142 -1.4395 -0.5628
   13MOL0     H 1731   4.320   3.490   7.571  1.1557  0.1564 -1.2804
   13MOL0     H 1732   4.430   3.367   7.648  1.4932 -1.9182 -1.6162
   13MOL0     H 1733   4.440   3.289   7.392 -0.0237 -0.6569  1.2433
   13MOL0     H 1734   4.385   3.463   7.384 -2.2310  0.8957  3.5711
   13MOL0     H 1735   4.645   3.393   7.539 -3.7327  0.1434  3.0028
   13MOL0     H 1736   4.585   3.550   7.498  0.4493 -0.9106  1.7703
   13MOL0     H 1737   4.713   3.362   7.297 -2.0571  0.2972 -1.3372
   13MOL0     H 1738   4.608   3.511   7.269 -1.4755  0.1213  2.4543
   13MOL0     H 1739   4.874   3.500   7.412 -2.5799 -0.9267  1.3351
   13MOL0     H 1740   4.781   3.649   7.399  0.5774  1.5423 -2.3582
   13MOL0     H 1741   4.857   3.484   7.164  0.7847  1.1905 -2.2990
   13MOL0     H 1742   4.773   3.633   7.159  1.5843  2.0853  0.7776
   13MOL0     H 1743   5.108   3.477   7.261 -1.0977 -0.1928 -2.1293
   13MOL0     H 1744   5.377   3.780   7.242  1.3220 -0.5562  0.5593
   13MOL0     H 1745   5.371   3.614   7.189 -1.7582  0.8768 -2.1646
   13MOL0     H 1746   5.288   3.638   7.476  1.0624  1.0513  0.2322
   13MOL0     H 1747   5.361   3.509   7.374  4.3621  1.1195 -0.2661
   13MOL0     H 1748   5.535   3.569   7.521 -0.3581 -0.9616 -1.2086
   13MOL0     H 1749   5.570   3.635   7.372  0.2479 -1.4758  0.9168
   13MOL0     H 1750   5.484   3.846   7.403  2.6177 -0.9812 -1.0340
   13MOL0     H 1751   5.419   3.815   7.571  0.9253 -0.9095  0.4330
   13MOL0     H 1752   5.832   3.929   7.648 -2.0795 -1.3973  1.3366
   13MOL0     H 1753   5.984   4.240   7.626  3.1117 -1.7905 -0.7326
   13MOL0     H 1754   5.999   4.078   7.672 -1.3819 -1.8883  1.9592
   13MOL0     H 1755   5.945   4.194   7.795  3.5160  4.0332 -1.9472
   13MOL0     H 1756   5.645   4.595   7.762  0.0331  0.2422  0.3622
   13MOL0     H 1757   5.685   4.835   7.861 -0.4689  0.2554 -0.9663
   13MOL0     H 1758   5.773   4.927   8.009 -0.4590  0.3918 -0.4610
   13MOL0     H 1759   5.942   4.929   8.065 -0.8608  0.7880  1.3206
   13MOL0     H 1760   5.989   5.151   7.979  0.0245  0.0172  0.7973
   13MOL0     H 1761   5.813   5.169   7.937 -0.0515 -0.2214 -1.0887
   13MOL0     H 1762   5.864   5.087   8.216  3.2057 -0.9911 -1.4062
   13MOL0     H 1763   5.731   5.163   8.132  0.1388  1.1689 -1.2029
   13MOL0     H 1764   5.829   5.373   8.111 -0.7202 -1.1102 -0.5945
   13MOL0     H 1765   5.993   5.315   8.163  1.2014 -1.4868  0.6643
   13MOL0     H 1766   5.766   5.301   8.363  1.2016  0.0032  2.1549
   13MOL0     H 1767   5.929   5.301   8.399 -0.5368 -0.1885  0.2902
   13MOL0     H 1768   5.851   5.511   8.452  2.6146 -3.5934  0.6745
   13MOL0     H 1769   5.739   5.533   8.324 -0.9375  1.0448  2.6573
   13MOL0     H 1770   5.930   5.568   8.168  1.5533 -0.6254  0.1847
   13MOL0     H 1771   6.040   5.537   8.306  1.5781  2.6240  0.2233
   13MOL0     H 1772   6.024   5.763   8.284  0.3760 -0.8665 -1.5347
   13MOL0     H 1773   5.932   5.731   8.430  1.6532 -0.5430 -0.5293
   13MOL0     H 1774   6.101   4.791   7.769  1.3136 -1.0227  1.7058
   13MOL0     H 1775   6.058   4.564   7.680  1.3553  0.7225  1.9688
   13MOL0     H 1776   5.519   4.285   7.507 -1.0078 -0.0705  0.1048
   13MOL0     H 1777   5.482   4.038   7.444  0.4076  0.7273 -1.3389
   13MOL0     H 1778   4.376   3.089   7.993  1.8111  2.5737 -0.6999
   13MOL0     H 1779   4.323   3.109   8.236 -1.4078 -2.2437 -0.6909
   13MOL0     H 1780   3.975   3.302   8.464  0.6143 -0.2045  0.2962
   13MOL0     H 1781   3.841   3.368   8.651 -0.0402 -2.6442  0.6244
   13MOL0     H 1782   3.749   3.438   8.848 -0.9964  0.5624 -0.0633
   13MOL0     H 1783   3.780   3.501   9.006  0.8345  1.6704  0.6469
   13MOL0     H 1784   3.749   3.653   8.810  1.1485  1.2715 -2.5736
   13MOL0     H 1785   3.903   3.624   8.759  2.3060 -0.2221  1.0006
   13MOL0     H 1786   3.838   3.762   9.022  1.0378  1.4798  0.5811
   13MOL0     H 1787   4.006   3.720   8.965  0.3840 -0.3487 -1.2049
   13MOL0     H 1788   3.811   3.910   8.807 -1.3605 -2.1347  0.7055
   13MOL0     H 1789   3.990   3.891   8.785  1.6931 -0.6414  1.3861
   13MOL0     H 1790   4.047   4.108   9.107 -1.9256 -0.5625  0.9826
   13MOL0     H 1791   4.170   3.342   8.912  0.6537  0.3642 -0.8759
   13MOL0     H 1792   4.392   3.183   8.715  1.1700  0.2660 -1.6648
   13MOL0     H 1793   4.419   3.346   8.646 -1.4369  1.6920  0.6715
   13MOL0     H 1794   4.391   3.322   8.823 -0.4552  1.8525 -0.5781
   14MOL0     O 1795   3.414   5.203   9.615 -0.0222  0.2571 -0.2962
   14MOL0     C 1796   3.484   5.273   9.534 -0.2777 -0.0183 -0.3976
   14MOL0     O 1797   3.598   5.334   9.573  0.1598  0.5755  0.1277
   14MOL0     C 1798   3.687   5.258   9.634  0.0089 -0.9072 -0.1864
   14MOL0     C 1799   3.788   5.342   9.701  0.1529 -0.6556  0.1771
   14MOL0     C 1800   3.886   5.278   9.775 -0.8383  0.8169 -0.0872
   14MOL0     C 1801   3.905   5.141   9.784  0.5383 -0.4989  0.0009
   14MOL0     O 1802   4.013   5.093   9.838 -0.5579  0.7803 -0.1091
   14MOL0     C 1803   4.074   4.975   9.790 -0.4185 -0.4111  0.4693
   14MOL0     C 1804   4.195   4.950   9.878 -1.0662 -0.2658  0.1353
   14MOL0     C 1805   4.278   4.827   9.835  0.4820  0.3420 -1.0742
   14MOL0     C 1806   4.367   4.862   9.707  0.6314 -0.7077  0.3604
   14MOL0     C 1807   4.420   4.736   9.652 -1.1970  0.2932 -0.0046
   14MOL0     C 1808   4.498   4.779   9.530  0.3229  1.2859 -0.1160
   14MOL0     C 1809   4.558   4.677   9.429 -0.9426  0.0999  0.5710
   14MOL0     C 1810   4.454   4.640   9.328 -0.2018 -0.5022  0.4917
   14MOL0     N 1811   4.514   4.592   9.204 -0.0408  0.8029  0.0170
   14MOL0     C 1812   4.589   4.477   9.198  0.3743 -0.2679 -0.0161
   14MOL0     C 1813   4.568   4.440   9.067 -0.3625 -0.6743 -0.0040
   14MOL0     C 1814   4.626   4.316   9.009 -0.2917 -1.1541 -0.3786
   14MOL0     C 1815   4.780   4.331   8.993  0.2643  0.4916 -0.0807
   14MOL0     C 1816   4.831   4.236   8.887 -0.3621  0.0235  0.1851
   14MOL0     C 1817   4.977   4.242   8.876  0.7081 -0.1736  0.8155
   14MOL0     O 1818   5.042   4.179   8.980 -0.7965 -0.5576 -0.6313
   14MOL0     C 1819   5.178   4.199   8.978 -0.7373  0.3548  0.4062
   14MOL0     C 1820   5.263   4.103   8.919  0.4562  0.0091  0.0688
   14MOL0     C 1821   5.399   4.124   8.901 -0.3357  0.0929 -0.9013
   14MOL0     C 1822   5.478   4.005   8.847  0.0024 -0.3447 -1.2719
   14MOL0     C 1823   5.456   4.246   8.942 -0.1059  0.2831  0.1839
   14MOL0     C 1824   5.607   4.287   8.924 -0.1753  0.7580 -0.0002
   14MOL0     O 1825   5.652   4.389   8.998 -0.1170  0.1045  0.3046
   14MOL0     C 1826   5.790   4.407   8.996 -0.1317  0.5961 -0.5534
   14MOL0     C 1827   5.849   4.480   8.892 -0.0394  0.5778  0.7826
   14MOL0     C 1828   5.986   4.485   8.871  0.1642  0.7341  0.4116
   14MOL0     C 1829   6.079   4.414   8.947  0.1093  0.8455 -0.0856
   14MOL0     O 1830   6.218   4.412   8.936  0.0127  0.6811  0.1641
   14MOL0     C 1831   6.274   4.434   8.806  0.2592  0.0042  0.1365
   14MOL0     C 1832   6.413   4.384   8.801  0.0150  0.5337 -0.0791
   14MOL0     C 1833   6.435   4.233   8.831 -0.3037 -0.5196 -0.0369
   14MOL0     C 1834   6.433   4.144   8.704  0.7323 -0.0564  0.1066
   14MOL0     C 1835   6.365   4.010   8.731 -0.2744  0.3216 -0.2862
   14MOL0     C 1836   6.215   4.023   8.702  0.7984  0.3849 -0.5355
   14MOL0     C 1837   6.166   4.025   8.560  0.1228  0.3409  0.5478
   14MOL0     C 1838   6.021   4.041   8.545  0.2670 -0.2875 -0.5587
   14MOL0    Cl 1839   5.980   4.034   8.368  0.0257  0.5221  0.1046
   14MOL0     C 1840   6.018   4.339   9.051  0.0534  0.1896  0.1846
   14MOL0     C 1841   5.878   4.337   9.080  0.5948 -0.9811  0.1451
   14MOL0     O 1842   5.665   4.219   8.837  0.0823  0.2343  0.2429
   14MOL0     C 1843   5.369   4.338   8.998 -0.0482 -0.1588  0.4408
   14MOL0     C 1844   5.233   4.317   9.021 -0.3827  0.0474 -0.1946
   14MOL0     N 1845   4.499   4.535   8.998 -0.6801 -0.1032 -0.5722
   14MOL0     N 1846   4.471   4.635   9.082  0.1957  0.4723 -0.2558
   14MOL0     C 1847   3.806   5.063   9.726 -0.1981  0.3132  0.5188
   14MOL0     C 1848   3.702   5.123   9.650  0.8544 -0.4245  0.3432
   14MOL0     C 1849   3.422   5.322   9.405  0.6615 -1.0408 -0.0246
   14MOL0     C 1850   3.490   5.424   9.340 -0.6129  0.2267 -0.2794
   14MOL0     C 1851   3.436   5.478   9.223 -0.1858 -0.0024 -0.4932
   14MOL0     C 1852   3.320   5.421   9.161  0.7755  0.0091 -0.4448
   14MOL0     O 1853   3.257   5.464   9.047  0.2901  0.7698  0.2805
   14MOL0     C 1854   3.331   5.535   8.944  0.0848  0.5339 -0.9778
   14MOL0     C 1855   3.432   5.457   8.868 -0.8284 -0.4553 -0.5260
   14MOL0     C 1856   3.441   5.506   8.731 -0.4258  0.0995  0.2689
   14MOL0     C 1857   3.542   5.431   8.647 -0.0046 -0.1121 -0.7521
   14MOL0     C 1858   3.538   5.461   8.502 -0.1283 -0.7452  0.0968
   14MOL0     C 1859   3.537   5.488   8.310 -0.2657 -0.7846  0.1399
   14MOL0     C 1860   3.254   5.323   9.233 -1.2276  0.6392 -0.1645
   14MOL0     C 1861   3.304   5.272   9.358  0.7983 -0.1789 -0.1420
   14MOL0     C 1862   3.217   5.170   9.426  0.3590 -0.0722  0.1279
   14MOL0     H 1863   3.769   5.449   9.696 -0.0958 -0.3955  3.8882
   14MOL0     H 1864   3.962   5.346   9.813 -2.1749  2.1549  0.2875
   14MOL0     H 1865   4.101   4.996   9.686 -1.2382 -0.8797  0.1520
   14MOL0     H 1866   4.011   4.886   9.795 -0.8860 -0.0047  3.3650
   14MOL0     H 1867   4.263   5.035   9.875 -2.9024  1.2105 -1.7744
   14MOL0     H 1868   4.164   4.933   9.982  2.3712  0.8152  1.5108
   14MOL0     H 1869   4.342   4.811   9.922  0.6298  0.5230 -1.1475
   14MOL0     H 1870   4.216   4.739   9.821  1.0002 -0.2964  0.4512
   14MOL0     H 1871   4.301   4.900   9.628  0.8005 -4.1530 -1.6546
   14MOL0     H 1872   4.443   4.937   9.727 -0.7175  1.4333 -1.9588
   14MOL0     H 1873   4.341   4.665   9.625 -0.8007  1.0306 -3.5914
   14MOL0     H 1874   4.483   4.687   9.727 -2.3891  0.5911  1.2341
   14MOL0     H 1875   4.447   4.852   9.466  0.5455 -1.6909 -4.0904
   14MOL0     H 1876   4.588   4.833   9.562  0.8273  2.6410 -3.3367
   14MOL0     H 1877   4.599   4.592   9.485 -2.4910 -0.5231  0.8083
   14MOL0     H 1878   4.643   4.723   9.377  0.4987 -2.2604  0.6856
   14MOL0     H 1879   4.388   4.561   9.366 -3.0296 -0.4247 -3.6004
   14MOL0     H 1880   4.391   4.726   9.301  0.9384 -0.4417 -2.2744
   14MOL0     H 1881   4.641   4.426   9.278 -2.4975  1.0331  2.9261
   14MOL0     H 1882   4.575   4.301   8.913 -0.2300 -1.9694 -0.2945
   14MOL0     H 1883   4.605   4.227   9.070 -0.7687 -0.3591  0.6502
   14MOL0     H 1884   4.806   4.424   8.943 -0.8085  1.5623  1.2596
   14MOL0     H 1885   4.827   4.321   9.092 -1.3974  0.8240  0.7782
   14MOL0     H 1886   4.804   4.132   8.911  0.1046 -0.7254 -2.2467
   14MOL0     H 1887   4.791   4.258   8.788  0.2366 -0.7214 -0.2376
   14MOL0     H 1888   5.004   4.203   8.777 -0.2674  3.3186 -0.9900
   14MOL0     H 1889   4.994   4.350   8.870 -1.7451  0.2328 -0.5006
   14MOL0     H 1890   5.206   4.017   8.887 -2.7311  2.7742 -2.3780
   14MOL0     H 1891   5.566   3.986   8.910  0.2017  1.1463 -1.0557
   14MOL0     H 1892   5.516   4.030   8.747  1.4539  0.9534 -0.4549
   14MOL0     H 1893   5.428   3.909   8.857  2.0896 -1.2982  1.2184
   14MOL0     H 1894   5.778   4.536   8.832 -0.5155  0.1204  0.9204
   14MOL0     H 1895   6.023   4.547   8.790  2.3299  0.3967  1.0656
   14MOL0     H 1896   6.214   4.382   8.730  1.7675 -1.4908 -0.1044
   14MOL0     H 1897   6.267   4.539   8.779 -0.8595 -0.7273 -2.8763
   14MOL0     H 1898   6.449   4.407   8.701 -0.2877 -0.2701 -0.3759
   14MOL0     H 1899   6.468   4.440   8.877  1.0378 -2.0423  1.2009
   14MOL0     H 1900   6.359   4.203   8.904 -1.3179  2.0520  0.0738
   14MOL0     H 1901   6.534   4.220   8.874 -0.4894  0.7393  0.8348
   14MOL0     H 1902   6.538   4.121   8.685  0.6495  1.2603 -2.3338
   14MOL0     H 1903   6.386   4.199   8.622 -0.3582 -1.6277 -0.3551
   14MOL0     H 1904   6.411   3.934   8.667 -5.6854 -1.6521 -2.4099
   14MOL0     H 1905   6.374   3.985   8.837  1.5923 -0.0348 -0.5032
   14MOL0     H 1906   6.174   4.115   8.746  0.5621  0.0401 -0.0279
   14MOL0     H 1907   6.152   3.952   8.756 -0.2289 -0.7918 -3.1116
   14MOL0     H 1908   6.201   3.931   8.517 -2.3658 -2.5657  4.2278
   14MOL0     H 1909   6.217   4.107   8.510 -0.6933  0.9074  0.6177
   14MOL0     H 1910   5.992   4.136   8.591  1.2530 -1.1422  1.9614
   14MOL0     H 1911   5.975   3.958   8.600  1.6545 -0.6060  0.1509
   14MOL0     H 1912   6.078   4.268   9.107  0.9703  0.8514  0.0728
   14MOL0     H 1913   5.857   4.272   9.165  1.9602 -3.0580 -1.0213
   14MOL0     H 1914   5.402   4.439   9.020  0.5448 -0.5484  1.4142
   14MOL0     H 1915   5.170   4.393   9.066  1.8643  2.1940 -0.4321
   14MOL0     H 1916   3.820   4.957   9.740 -3.3907 -0.2089  0.5106
   14MOL0     H 1917   3.631   5.044   9.628  3.6834 -2.0875 -4.0957
   14MOL0     H 1918   3.576   5.474   9.384  0.3343 -0.2644 -1.5071
   14MOL0     H 1919   3.489   5.562   9.179 -0.2655  1.8284  2.5659
   14MOL0     H 1920   3.255   5.567   8.872 -1.8580  0.6379  1.0145
   14MOL0     H 1921   3.368   5.626   8.992  1.3742  0.6708 -2.1576
   14MOL0     H 1922   3.402   5.352   8.869  1.7535 -1.2816  0.5180
   14MOL0     H 1923   3.531   5.457   8.915 -0.7019 -3.9578 -0.4875
   14MOL0     H 1924   3.342   5.496   8.686 -0.9883  1.9898  0.9965
   14MOL0     H 1925   3.464   5.613   8.734  1.6690 -0.3073  0.4096
   14MOL0     H 1926   3.532   5.326   8.674  0.3312 -0.0777 -0.4911
   14MOL0     H 1927   3.638   5.471   8.681  0.8287 -2.0950 -0.6650
   14MOL0     H 1928   3.549   5.513   8.207 -0.5332 -0.9152  0.0753
   14MOL0     H 1929   3.166   5.282   9.185 -0.6013 -2.6781  1.2137
   14MOL0     H 1930   3.130   5.140   9.367 -0.2062 -3.3468  2.3674
   14MOL0     H 1931   3.263   5.075   9.453 -2.2597 -0.8949  2.1333
   14MOL0     H 1932   3.177   5.213   9.519  3.8603  2.3888  0.6716
   15MOL0     O 1933   7.795   8.614  10.271 -0.3468  0.1344 -0.2495
   15MOL0     C 1934   7.724   8.689  10.206 -0.3220  0.0340  0.8080
   15MOL0     O 1935   7.745   8.707  10.072  0.5345 -0.1506 -0.5397
   15MOL0     C 1936   7.868   8.691  10.014 -0.0237  0.5014  0.0907
   15MOL0     C 1937   7.945   8.568  10.024  0.0697  0.1617 -1.1339
   15MOL0     C 1938   8.079   8.569   9.979  0.3081  0.3153 -0.0637
   15MOL0     C 1939   8.132   8.674   9.906  0.5354 -0.3397 -0.7988
   15MOL0     O 1940   8.253   8.665   9.863  0.2799  0.4976 -0.0795
   15MOL0     C 1941   8.328   8.782   9.805 -0.4609  0.4419 -0.0621
   15MOL0     C 1942   8.479   8.757   9.810 -0.3956 -0.8452  0.3153
   15MOL0     C 1943   8.531   8.630   9.727  0.2941  0.7145  0.3467
   15MOL0     C 1944   8.673   8.658   9.673 -0.0134 -0.9976 -0.4797
   15MOL0     C 1945   8.725   8.539   9.588  0.3806 -0.5483  0.2318
   15MOL0     C 1946   8.852   8.575   9.519 -0.1087  0.1086  0.1682
   15MOL0     C 1947   8.910   8.464   9.421  0.1507  0.1864  0.1858
   15MOL0     C 1948   8.835   8.468   9.286 -0.4749 -0.3557 -0.4464
   15MOL0     N 1949   8.915   8.431   9.172 -0.0596  0.4522  0.3103
   15MOL0     C 1950   8.967   8.302   9.144 -0.1242 -0.2239 -0.1641
   15MOL0     C 1951   9.050   8.330   9.036  0.4465  0.7361 -0.5003
   15MOL0     C 1952   9.146   8.235   8.965 -0.2561  0.0314  0.4332
   15MOL0     C 1953   9.078   8.166   8.855  0.5470 -0.0669  0.3227
   15MOL0     C 1954   9.172   8.080   8.768  0.7574 -0.4997  0.0067
   15MOL0     C 1955   9.241   8.150   8.653 -0.9045 -0.9024  0.0907
   15MOL0     O 1956   9.345   8.240   8.709  0.3516 -0.5931  0.1669
   15MOL0     C 1957   9.464   8.181   8.732 -0.3727  0.2657 -0.4421
   15MOL0     C 1958   9.548   8.151   8.625 -0.2472  0.7677 -0.1986
   15MOL0     C 1959   9.669   8.088   8.659  0.3519  0.6503  0.4963
   15MOL0     C 1960   9.753   8.067   8.524 -0.2101  0.3861 -0.5815
   15MOL0     C 1961   9.711   8.050   8.789 -0.2415 -0.1111  0.3697
   15MOL0     C 1962   9.839   7.976   8.829  0.4329 -0.3112  0.4938
   15MOL0     O 1963   9.927   7.940   8.734  0.1911  0.9938  0.4423
   15MOL0     C 1964  10.056   7.895   8.757 -1.3412 -0.6027  0.1554
   15MOL0     C 1965  10.161   7.980   8.814 -0.5712 -0.7081 -0.1175
   15MOL0     C 1966  10.291   7.924   8.825  0.1462 -0.0061  0.4620
   15MOL0     C 1967  10.330   7.794   8.779  0.1788 -0.6210 -0.6521
   15MOL0     O 1968  10.454   7.744   8.808 -0.1112 -0.1406 -1.1684
   15MOL0     C 1969  10.488   7.616   8.757  0.4409 -0.3709  0.0313
   15MOL0     C 1970  10.635   7.608   8.738 -0.1902 -0.3110 -0.4670
   15MOL0     C 1971  10.669   7.699   8.617 -0.2781  0.9020 -0.5899
   15MOL0     C 1972  10.830   7.691   8.622  0.7447 -0.3204  0.0106
   15MOL0     C 1973  10.887   7.576   8.537  0.2459  0.5982 -0.3210
   15MOL0     C 1974  11.034   7.549   8.543  0.2760 -0.4486  0.4502
   15MOL0     C 1975  11.120   7.676   8.507  0.2297 -0.1974  0.6717
   15MOL0     C 1976  11.264   7.636   8.491 -0.0843  0.2205  0.1959
   15MOL0    Cl 1977  11.335   7.534   8.625  0.3805 -0.1531  0.4962
   15MOL0     C 1978  10.227   7.718   8.721 -0.3455 -0.7598 -0.1547
   15MOL0     C 1979  10.097   7.772   8.707 -0.3151 -0.0262 -1.1120
   15MOL0     O 1980   9.854   7.957   8.949  0.0973  0.6460  0.2798
   15MOL0     C 1981   9.614   8.079   8.891  0.1305  0.4744 -0.0202
   15MOL0     C 1982   9.497   8.141   8.865  0.3843  0.0035  0.6742
   15MOL0     N 1983   9.045   8.464   9.009 -0.1816  0.6643 -0.7827
   15MOL0     N 1984   8.963   8.524   9.087 -0.4086 -0.0857  0.8593
   15MOL0     C 1985   8.044   8.784   9.876 -0.5760  0.8290  0.5179
   15MOL0     C 1986   7.914   8.785   9.931 -0.0326  0.5718 -0.3292
   15MOL0     C 1987   7.581   8.717  10.246 -0.4272 -0.0655  0.6011
   15MOL0     C 1988   7.508   8.787  10.154  0.7965  0.2317  0.2681
   15MOL0     C 1989   7.382   8.834  10.174  0.4147 -0.2922  0.0885
   15MOL0     C 1990   7.314   8.798  10.290 -0.3223  0.5219  0.7064
   15MOL0     O 1991   7.187   8.857  10.300 -0.1650 -0.1609  0.0907
   15MOL0     C 1992   7.100   8.822  10.414 -0.7706 -0.0715 -0.0288
   15MOL0     C 1993   6.943   8.838  10.380 -0.7692  1.2928 -0.0065
   15MOL0     C 1994   6.928   8.993  10.370  0.2115 -0.4503  0.1185
   15MOL0     C 1995   6.779   9.036  10.384  0.3041 -0.8545 -0.0937
   15MOL0     C 1996   6.688   8.995  10.277 -0.3351 -0.1224 -0.6383
   15MOL0     C 1997   6.615   8.971  10.186 -0.2126  0.4261 -0.3318
   15MOL0     C 1998   7.393   8.727  10.392  0.0038 -0.9237  1.2779
   15MOL0     C 1999   7.520   8.685  10.370 -0.9108 -1.2779  0.5638
   15MOL0     C 2000   7.602   8.607  10.477  0.0185 -0.0738 -0.4222
   15MOL0     H 2001   7.908   8.484  10.082 -0.3788  1.2743  0.2484
   15MOL0     H 2002   8.135   8.477   9.991  1.1101  0.4977 -1.9539
   15MOL0     H 2003   8.311   8.871   9.866 -1.0525  1.0669 -1.0946
   15MOL0     H 2004   8.293   8.805   9.703  1.5409 -4.1153 -2.0532
   15MOL0     H 2005   8.506   8.846   9.752  0.9817 -0.3599  1.6354
   15MOL0     H 2006   8.511   8.765   9.914 -1.3622  0.5427  0.5442
   15MOL0     H 2007   8.545   8.547   9.797  0.1120  2.2778  2.3170
   15MOL0     H 2008   8.454   8.605   9.653 -0.4722  1.2893  0.9479
   15MOL0     H 2009   8.667   8.752   9.618  1.9737 -1.4725 -1.6138
   15MOL0     H 2010   8.738   8.670   9.760 -2.1692 -2.6597  1.4973
   15MOL0     H 2011   8.647   8.508   9.518 -1.9498  1.4532  1.7734
   15MOL0     H 2012   8.736   8.461   9.664 -0.1188 -0.4450  0.4165
   15MOL0     H 2013   8.854   8.670   9.466  0.7399  1.1535  1.9813
   15MOL0     H 2014   8.932   8.591   9.592  1.7341 -0.4068 -1.6407
   15MOL0     H 2015   8.904   8.365   9.467  0.4396 -1.3517 -2.8961
   15MOL0     H 2016   9.012   8.502   9.410  0.2419 -0.0722  0.1401
   15MOL0     H 2017   8.736   8.422   9.283 -1.1401  1.0806 -2.2288
   15MOL0     H 2018   8.811   8.572   9.265 -3.1585 -1.2607 -2.3714
   15MOL0     H 2019   8.951   8.214   9.204  0.1734  0.5849  1.1422
   15MOL0     H 2020   9.201   8.177   9.039  1.1295  1.4670  0.5935
   15MOL0     H 2021   9.216   8.309   8.925 -0.2995 -0.2311 -0.1440
   15MOL0     H 2022   9.005   8.095   8.897 -0.5121  1.8968  2.0130
   15MOL0     H 2023   9.012   8.223   8.790 -1.9311 -3.6629 -0.6270
   15MOL0     H 2024   9.250   8.032   8.828 -0.3937 -2.0027  0.3561
   15MOL0     H 2025   9.109   8.004   8.720  0.1335  1.1315 -1.9189
   15MOL0     H 2026   9.293   8.090   8.578  3.1155  0.6113  1.4065
   15MOL0     H 2027   9.163   8.216   8.613 -0.3154  1.7743  2.9720
   15MOL0     H 2028   9.517   8.170   8.523 -1.7771 -0.9740 -0.0935
   15MOL0     H 2029   9.839   8.135   8.529 -0.0369  0.1605  3.4888
   15MOL0     H 2030   9.690   8.069   8.435 -0.5843  2.3068 -0.3195
   15MOL0     H 2031   9.788   7.963   8.523 -1.0436  0.1013 -0.6627
   15MOL0     H 2032  10.141   8.082   8.845  1.7271 -1.2787  4.0043
   15MOL0     H 2033  10.370   7.986   8.865  0.8949 -0.1446 -0.7456
   15MOL0     H 2034  10.457   7.535   8.825  1.3802  0.0910  1.0478
   15MOL0     H 2035  10.446   7.607   8.657  1.8136 -0.2037 -0.5784
   15MOL0     H 2036  10.684   7.643   8.829  0.6922  0.2580 -1.1459
   15MOL0     H 2037  10.669   7.511   8.703  0.4313 -0.1353 -0.3549
   15MOL0     H 2038  10.635   7.798   8.647  4.2633  2.0049  1.7787
   15MOL0     H 2039  10.633   7.663   8.520  0.2522 -0.0330 -0.4566
   15MOL0     H 2040  10.870   7.672   8.722  0.7017  0.3067  0.1557
   15MOL0     H 2041  10.859   7.788   8.580 -0.5652 -0.2106 -0.6874
   15MOL0     H 2042  10.832   7.483   8.551  2.1792 -0.4332  0.8351
   15MOL0     H 2043  10.868   7.610   8.435 -3.0019  1.4961  0.4559
   15MOL0     H 2044  11.060   7.475   8.467 -0.4359  0.9873 -1.2517
   15MOL0     H 2045  11.059   7.512   8.643  0.0212 -1.5529  0.1233
   15MOL0     H 2046  11.119   7.732   8.601 -2.1571 -0.4310  0.8436
   15MOL0     H 2047  11.069   7.725   8.424 -0.9622  1.0954  2.0969
   15MOL0     H 2048  11.314   7.731   8.471 -3.0756  2.1087  1.1127
   15MOL0     H 2049  11.281   7.580   8.398 -2.0174  0.0315 -0.0813
   15MOL0     H 2050  10.233   7.617   8.681 -0.8366 -0.9623  0.2743
   15MOL0     H 2051  10.031   7.695   8.669  1.7131 -2.6224  0.2179
   15MOL0     H 2052   9.633   8.047   8.993  1.4836 -1.2973 -0.7765
   15MOL0     H 2053   9.432   8.171   8.946 -0.5967  0.9065 -0.4162
   15MOL0     H 2054   8.074   8.866   9.810 -0.5401  0.7216  0.3994
   15MOL0     H 2055   7.846   8.867   9.909 -0.6524  0.2585  0.3734
   15MOL0     H 2056   7.543   8.816  10.056 -1.3406 -0.8488 -0.8916
   15MOL0     H 2057   7.319   8.886  10.103  1.3161 -2.2417 -2.2626
   15MOL0     H 2058   7.126   8.717  10.429  2.5630  0.6324 -0.1315
   15MOL0     H 2059   7.122   8.882  10.503 -1.2030  2.5526 -1.5872
   15MOL0     H 2060   6.881   8.804  10.463  1.7529  2.0302  2.3573
   15MOL0     H 2061   6.925   8.789  10.284  2.4856  1.1283 -0.6497
   15MOL0     H 2062   6.985   9.043  10.449  1.9671 -1.7861 -0.2280
   15MOL0     H 2063   6.956   9.015  10.266 -2.0879 -4.0898 -1.4712
   15MOL0     H 2064   6.779   9.145  10.384 -2.0557 -0.7997  1.4800
   15MOL0     H 2065   6.737   8.998  10.478  2.4835 -1.3941  0.7441
   15MOL0     H 2066   6.540   8.956  10.111  3.0385  0.6321 -3.9375
   15MOL0     H 2067   7.341   8.713  10.487 -0.5733 -0.7815  0.9869
   15MOL0     H 2068   7.551   8.596  10.573  1.2180  2.0818  0.5388
   15MOL0     H 2069   7.627   8.514  10.425  2.8446  1.1177 -1.4290
   15MOL0     H 2070   7.699   8.648  10.507 -0.0282 -1.9667  2.7498
   16MOL0     O 2071   7.384   9.110   8.575  0.2990  0.4071  0.1730
   16MOL0     C 2072   7.423   9.144   8.462  0.5679 -0.6650 -0.2578
   16MOL0     O 2073   7.549   9.143   8.425  0.3681 -0.4799  0.2714
   16MOL0     C 2074   7.641   9.080   8.507 -0.5562  0.3244 -0.9651
   16MOL0     C 2075   7.636   8.954   8.571  0.5815 -0.2591 -0.7597
   16MOL0     C 2076   7.741   8.919   8.661 -0.5867  0.2445 -0.1705
   16MOL0     C 2077   7.843   9.005   8.690 -0.4962  0.2040  0.4270
   16MOL0     O 2078   7.945   8.971   8.778 -0.1378 -0.2452  0.2139
   16MOL0     C 2079   7.963   8.835   8.818 -0.1757  0.0965 -0.8982
   16MOL0     C 2080   8.102   8.814   8.886 -0.3117  0.3418 -0.0185
   16MOL0     C 2081   8.214   8.853   8.784  0.3024 -0.0901 -0.2480
   16MOL0     C 2082   8.342   8.804   8.839  0.1048  0.6037  1.0015
   16MOL0     C 2083   8.440   8.781   8.733 -0.4370  0.3814 -0.2358
   16MOL0     C 2084   8.574   8.731   8.793  0.6276  0.4679 -0.6158
   16MOL0     C 2085   8.560   8.587   8.821  0.7364  0.5289 -0.7493
   16MOL0     C 2086   8.693   8.538   8.872  0.2573 -0.4538  0.0152
   16MOL0     N 2087   8.799   8.549   8.766  0.5295 -0.1613 -0.1722
   16MOL0     C 2088   8.908   8.628   8.755 -0.3231 -0.2764  0.4523
   16MOL0     C 2089   8.974   8.586   8.642 -0.1290  0.2908 -0.4441
   16MOL0     C 2090   9.100   8.653   8.600  0.6805 -0.1955 -0.5046
   16MOL0     C 2091   9.216   8.563   8.623 -0.0493  0.0913 -0.0131
   16MOL0     C 2092   9.349   8.602   8.543  0.4768  0.6368 -0.2627
   16MOL0     C 2093   9.461   8.492   8.553  0.1600  0.0375  0.3303
   16MOL0     O 2094   9.569   8.528   8.479  0.0288  0.4278  0.3342
   16MOL0     C 2095   9.703   8.496   8.506 -0.6972  0.3838 -0.0775
   16MOL0     C 2096   9.751   8.452   8.635  0.0577 -0.6686  0.1508
   16MOL0     C 2097   9.881   8.422   8.666 -0.6194 -0.3718  0.2615
   16MOL0     C 2098   9.916   8.377   8.799 -0.1722 -0.3607  0.9626
   16MOL0     C 2099   9.980   8.424   8.554  1.0770  0.9879  0.2719
   16MOL0     C 2100  10.125   8.391   8.563  0.6836  0.6471 -0.4340
   16MOL0     O 2101  10.170   8.306   8.663 -0.4894  0.0116 -0.6638
   16MOL0     C 2102  10.301   8.277   8.687  0.0631  0.6906  0.2406
   16MOL0     C 2103  10.391   8.232   8.591 -0.0871  1.3366 -0.1350
   16MOL0     C 2104  10.526   8.211   8.622  0.1753 -0.1112 -0.0539
   16MOL0     C 2105  10.567   8.232   8.756  0.3358 -0.6689 -0.0587
   16MOL0     O 2106  10.694   8.200   8.795  0.2240 -0.1061 -0.7780
   16MOL0     C 2107  10.762   8.102   8.726  0.4575  0.0577 -0.7626
   16MOL0     C 2108  10.889   8.050   8.798 -0.6401  0.7168 -0.1967
   16MOL0     C 2109  10.859   7.980   8.937  0.4268  1.0822 -0.0891
   16MOL0     C 2110  10.871   8.083   9.036 -0.4416 -1.3068 -0.3257
   16MOL0     C 2111  10.850   8.029   9.175  0.0366  0.2429  0.0720
   16MOL0     C 2112  10.710   7.969   9.204 -0.2834  0.9366 -0.3274
   16MOL0     C 2113  10.584   8.025   9.141 -0.0080 -0.5525 -0.4895
   16MOL0     C 2114  10.462   7.967   9.205 -0.4407  0.9279  0.6076
   16MOL0    Cl 2115  10.338   8.064   9.116 -0.3589 -0.2225  0.6274
   16MOL0     C 2116  10.485   8.272   8.853  0.7595 -0.2961  0.2149
   16MOL0     C 2117  10.359   8.302   8.819  0.7226  0.6949  1.2436
   16MOL0     O 2118  10.200   8.452   8.486  1.0932  0.5097 -1.1895
   16MOL0     C 2119   9.938   8.474   8.432 -0.0029 -0.5013  0.0516
   16MOL0     C 2120   9.801   8.508   8.407 -0.4645 -1.1468 -0.7030
   16MOL0     N 2121   8.911   8.483   8.594  0.0296 -0.0502  0.7697
   16MOL0     N 2122   8.807   8.455   8.659  0.5206 -0.7529  0.1749
   16MOL0     C 2123   7.848   9.134   8.632  0.0569  0.0255  0.2464
   16MOL0     C 2124   7.753   9.167   8.540 -0.4506  0.3888  1.0892
   16MOL0     C 2125   7.317   9.192   8.354 -0.0389 -0.5166 -0.4754
   16MOL0     C 2126   7.372   9.206   8.223  0.2573 -1.0652  0.2859
   16MOL0     C 2127   7.296   9.271   8.125  0.4323 -0.4832  0.3508
   16MOL0     C 2128   7.169   9.308   8.145  0.3744 -0.8348 -0.1241
   16MOL0     O 2129   7.078   9.354   8.049 -0.7313  0.3001 -0.2358
   16MOL0     C 2130   7.138   9.455   7.964 -0.1220  0.1235 -0.1942
   16MOL0     C 2131   7.037   9.478   7.853 -1.2554 -0.3831 -0.3518
   16MOL0     C 2132   7.090   9.587   7.757 -0.0658 -0.6957 -0.3012
   16MOL0     C 2133   7.219   9.557   7.686  0.2693  0.3449 -0.1966
   16MOL0     C 2134   7.286   9.688   7.674  1.1789 -0.1317 -0.0733
   16MOL0     C 2135   7.334   9.803   7.667 -0.6263 -0.6106 -0.2218
   16MOL0     C 2136   7.111   9.282   8.269 -0.3392 -0.2102  0.5229
   16MOL0     C 2137   7.185   9.231   8.374  0.2649  0.4859 -0.0365
   16MOL0     C 2138   7.111   9.222   8.504  0.4702  0.2923  0.5387
   16MOL0     H 2139   7.552   8.887   8.559 -0.1431  0.6487 -0.8761
   16MOL0     H 2140   7.738   8.818   8.702 -1.2468 -0.5609 -2.1176
   16MOL0     H 2141   7.952   8.770   8.730 -2.9180 -0.4922 -0.2170
   16MOL0     H 2142   7.889   8.798   8.889  1.3069  0.4555  0.8994
   16MOL0     H 2143   8.104   8.881   8.972 -3.5189  2.6196 -1.5081
   16MOL0     H 2144   8.114   8.709   8.914  1.9000 -0.0694 -2.0717
   16MOL0     H 2145   8.194   8.809   8.686 -0.2211 -1.3843  0.4136
   16MOL0     H 2146   8.223   8.961   8.774  2.5411 -0.2333 -0.1458
   16MOL0     H 2147   8.385   8.877   8.908 -0.4604  1.5903  0.3191
   16MOL0     H 2148   8.327   8.708   8.890  0.0202 -0.0420 -0.2154
   16MOL0     H 2149   8.463   8.884   8.703  0.8830 -0.0933 -0.9073
   16MOL0     H 2150   8.404   8.714   8.654 -2.6254 -1.1002  1.8775
   16MOL0     H 2151   8.645   8.765   8.717 -0.9911  1.1713 -1.8763
   16MOL0     H 2152   8.596   8.784   8.887  1.7121 -0.4535 -0.3318
   16MOL0     H 2153   8.527   8.524   8.737  3.4284 -2.4856  0.2702
   16MOL0     H 2154   8.484   8.571   8.899  0.9161  1.7838 -0.2945
   16MOL0     H 2155   8.712   8.580   8.971  1.8831  1.4780 -1.0440
   16MOL0     H 2156   8.682   8.431   8.893  0.3581 -0.0204  2.5894
   16MOL0     H 2157   8.939   8.709   8.821 -1.7824 -0.9567  2.0465
   16MOL0     H 2158   9.103   8.742   8.664 -0.9525 -0.6820  0.2839
   16MOL0     H 2159   9.093   8.671   8.493 -0.3486 -3.1928 -1.0462
   16MOL0     H 2160   9.230   8.552   8.731 -2.8489 -0.7480  0.3509
   16MOL0     H 2161   9.189   8.462   8.591  0.9452 -0.9308  2.1333
   16MOL0     H 2162   9.325   8.622   8.438  5.0027 -0.4304 -1.7680
   16MOL0     H 2163   9.393   8.689   8.593  0.1352  0.4460  0.3873
   16MOL0     H 2164   9.468   8.462   8.658 -0.1155  2.9659  1.2661
   16MOL0     H 2165   9.420   8.410   8.493 -1.1082  0.7916  0.1222
   16MOL0     H 2166   9.677   8.454   8.714 -0.7597  1.6565 -0.6044
   16MOL0     H 2167   9.943   8.272   8.793  2.5287  0.1530  2.5680
   16MOL0     H 2168   9.832   8.384   8.869 -1.0610 -0.8192 -0.0323
   16MOL0     H 2169   9.997   8.428   8.852 -0.5019 -1.0072  2.1232
   16MOL0     H 2170  10.347   8.217   8.493  2.5588  0.8525 -1.3411
   16MOL0     H 2171  10.589   8.181   8.539  0.5605  0.2476  0.1045
   16MOL0     H 2172  10.689   8.024   8.707  0.8996 -1.1685  2.1233
   16MOL0     H 2173  10.800   8.158   8.640  3.3368  0.4592  0.6111
   16MOL0     H 2174  10.942   7.984   8.729  1.8233  2.6918 -0.3308
   16MOL0     H 2175  10.943   8.145   8.796  3.9319 -1.6005  0.3453
   16MOL0     H 2176  10.934   7.902   8.951  0.1732  0.8401 -0.0686
   16MOL0     H 2177  10.761   7.931   8.931  1.0819 -0.5750  1.5576
   16MOL0     H 2178  10.797   8.162   9.019  1.2681  0.6263  0.7395
   16MOL0     H 2179  10.962   8.143   9.022 -2.6456  2.1337 -1.0155
   16MOL0     H 2180  10.935   7.965   9.197  1.0367  1.4836 -0.0665
   16MOL0     H 2181  10.854   8.112   9.245 -1.7173 -1.3626  2.2192
   16MOL0     H 2182  10.713   7.962   9.314 -0.7414  0.0885 -0.3544
   16MOL0     H 2183  10.722   7.862   9.181  0.2009 -0.1505  3.9614
   16MOL0     H 2184  10.583   8.005   9.033 -0.4677 -1.6210 -0.2984
   16MOL0     H 2185  10.594   8.133   9.160 -0.5133 -1.0606  3.4858
   16MOL0     H 2186  10.460   7.974   9.314 -3.4556 -0.5272  0.7542
   16MOL0     H 2187  10.459   7.859   9.185 -0.1006  1.1643 -0.8308
   16MOL0     H 2188  10.514   8.297   8.955  0.1269  0.4628  0.2176
   16MOL0     H 2189  10.284   8.337   8.891  0.2433 -1.1290  1.6752
   16MOL0     H 2190  10.010   8.484   8.351  0.2593  0.4640  0.3904
   16MOL0     H 2191   9.776   8.554   8.312  0.3677 -0.1612 -0.4736
   16MOL0     H 2192   7.919   9.203   8.677  1.9187 -2.5104  1.4152
   16MOL0     H 2193   7.775   9.263   8.494  0.4369  1.5924  3.8479
   16MOL0     H 2194   7.471   9.174   8.193  0.8404 -0.2198  1.2659
   16MOL0     H 2195   7.345   9.298   8.032 -0.6647 -0.6282 -0.2785
   16MOL0     H 2196   7.141   9.548   8.023 -0.9638  1.0165 -1.5061
   16MOL0     H 2197   7.240   9.428   7.934  0.2531 -1.9004  2.4948
   16MOL0     H 2198   6.941   9.511   7.894 -1.1343  0.0833 -0.4408
   16MOL0     H 2199   7.040   9.384   7.797 -0.9900 -0.1713 -0.6956
   16MOL0     H 2200   7.016   9.611   7.681 -0.3594 -2.8098 -0.7499
   16MOL0     H 2201   7.107   9.670   7.827 -2.2702 -1.1040  0.7927
   16MOL0     H 2202   7.195   9.506   7.592 -1.9577 -1.6261  1.3420
   16MOL0     H 2203   7.289   9.494   7.740 -0.4220 -1.5645 -1.4164
   16MOL0     H 2204   7.362   9.905   7.658  1.5575 -1.1494 -0.1064
   16MOL0     H 2205   7.012   9.323   8.283 -1.5315 -2.3064 -1.0341
   16MOL0     H 2206   7.150   9.286   8.583  0.1620  0.2163  0.7530
   16MOL0     H 2207   7.005   9.241   8.488 -0.0445 -1.8305  1.0361
   16MOL0     H 2208   7.121   9.119   8.540 -4.4841 -0.0556  1.5408
   17MOL0     O 2209  10.476   6.921  10.197  0.7843 -0.7605 -0.4082
   17MOL0     C 2210  10.533   6.895  10.304  0.7861  0.3387 -0.3400
   17MOL0     O 2211  10.494   6.803  10.388  0.1689 -0.0851 -0.7698
   17MOL0     C 2212  10.403   6.711  10.342  0.0554  0.4372 -0.1478
   17MOL0     C 2213  10.280   6.707  10.399 -0.0909 -0.6714  0.0127
   17MOL0     C 2214  10.177   6.622  10.348 -0.5571 -1.3993  0.9104
   17MOL0     C 2215  10.208   6.520  10.265  0.3902 -0.4816 -0.0301
   17MOL0     O 2216  10.119   6.412  10.246 -0.2564  0.2836 -0.0259
   17MOL0     C 2217  10.024   6.436  10.151  0.0789  0.0491 -0.4037
   17MOL0     C 2218   9.896   6.377  10.211  1.2075 -0.1789 -0.1528
   17MOL0     C 2219   9.779   6.366  10.111 -0.1168 -0.4171  0.4419
   17MOL0     C 2220   9.811   6.316   9.968  0.3296 -0.9295  0.9772
   17MOL0     C 2221   9.679   6.320   9.890 -0.6644 -0.3179 -0.0569
   17MOL0     C 2222   9.698   6.253   9.753 -0.2895  0.1522  0.1100
   17MOL0     C 2223   9.565   6.251   9.681 -0.5275 -0.1022  0.8411
   17MOL0     C 2224   9.554   6.155   9.562 -0.6932  0.0723 -0.7058
   17MOL0     N 2225   9.665   6.172   9.475  0.2286 -0.5239 -0.1659
   17MOL0     C 2226   9.769   6.085   9.463 -0.5642 -0.3190  0.3764
   17MOL0     C 2227   9.857   6.149   9.377  0.2707  0.6347 -0.1366
   17MOL0     C 2228   9.968   6.072   9.305 -0.6573  0.2007 -0.1074
   17MOL0     C 2229  10.076   6.026   9.412  0.3344  0.9154  0.5351
   17MOL0     C 2230  10.217   5.991   9.364 -0.2402 -0.0538  0.9127
   17MOL0     C 2231  10.208   5.868   9.277  0.1397  0.5796  0.6318
   17MOL0     O 2232  10.271   5.751   9.352  0.1097 -0.7362  0.3042
   17MOL0     C 2233  10.402   5.750   9.397 -0.3043 -0.5221 -0.5649
   17MOL0     C 2234  10.505   5.815   9.322 -1.2096 -0.0194  0.2638
   17MOL0     C 2235  10.632   5.842   9.382  0.6730 -0.4181 -1.0134
   17MOL0     C 2236  10.734   5.921   9.299  0.5425  0.1499 -0.6164
   17MOL0     C 2237  10.657   5.773   9.504 -0.2524  0.4419 -0.0504
   17MOL0     C 2238  10.794   5.747   9.549 -0.1275 -0.8452 -0.4477
   17MOL0     O 2239  10.813   5.629   9.617 -0.6473 -0.2559  0.2000
   17MOL0     C 2240  10.941   5.603   9.663  0.1342 -0.8438  0.0557
   17MOL0     C 2241  11.045   5.583   9.574  0.2194 -1.3962  0.7525
   17MOL0     C 2242  11.180   5.585   9.612  0.3730  0.6653 -1.1315
   17MOL0     C 2243  11.205   5.614   9.752 -0.5738  0.3368  0.1739
   17MOL0     O 2244  11.332   5.637   9.801  0.6809 -1.0392  0.8755
   17MOL0     C 2245  11.446   5.666   9.716  0.5264 -0.8521 -0.4959
   17MOL0     C 2246  11.561   5.583   9.773 -0.1831 -0.0255  0.0712
   17MOL0     C 2247  11.532   5.426   9.754 -0.0996 -0.4798  1.0088
   17MOL0     C 2248  11.650   5.340   9.792 -0.3205  0.0581  0.9932
   17MOL0     C 2249  11.649   5.275   9.939 -1.0838 -0.8060 -0.6748
   17MOL0     C 2250  11.543   5.169   9.950 -0.6875  0.4249  0.3261
   17MOL0     C 2251  11.522   5.127  10.093 -0.3982  0.2234 -1.3327
   17MOL0     C 2252  11.636   5.133  10.188 -0.4342  0.1355  0.6089
   17MOL0    Cl 2253  11.675   5.295  10.259  0.0349 -0.2465  0.0858
   17MOL0     C 2254  11.105   5.628   9.844 -0.5855  0.2507  0.9714
   17MOL0     C 2255  10.967   5.621   9.801 -0.1416 -0.1623 -0.2192
   17MOL0     O 2256  10.883   5.832   9.536  0.7037 -0.3092 -0.2332
   17MOL0     C 2257  10.551   5.702   9.573  0.6628  0.3052  0.3136
   17MOL0     C 2258  10.423   5.697   9.528  0.1332 -0.8113  0.2298
   17MOL0     N 2259   9.807   6.273   9.350  1.0638 -0.7317  0.1173
   17MOL0     N 2260   9.685   6.289   9.398 -0.5334  0.2621 -0.0267
   17MOL0     C 2261  10.341   6.512  10.212  0.3958 -1.0215  0.6796
   17MOL0     C 2262  10.435   6.616  10.242 -0.1879 -0.0690  0.0610
   17MOL0     C 2263  10.650   6.981  10.335 -0.0283 -0.1071 -0.6890
   17MOL0     C 2264  10.633   7.121  10.345  0.5198  0.1845  0.6905
   17MOL0     C 2265  10.733   7.211  10.376  0.1155  0.7798  0.2923
   17MOL0     C 2266  10.859   7.159  10.405 -0.6820 -0.2039  0.3996
   17MOL0     O 2267  10.963   7.244  10.430  0.0281 -0.3487  0.1592
   17MOL0     C 2268  10.945   7.326  10.548  0.8178 -0.6446 -0.3805
   17MOL0     C 2269  11.040   7.444  10.553  0.1026 -0.1858 -0.1511
   17MOL0     C 2270  11.187   7.397  10.546  0.1760  1.1471  0.0616
   17MOL0     C 2271  11.291   7.511  10.542  0.0438  0.4801 -0.0314
   17MOL0     C 2272  11.423   7.475  10.522  0.2075 -0.3983  0.3222
   17MOL0     C 2273  11.541   7.452  10.518 -0.3169  0.9922  1.3010
   17MOL0     C 2274  10.879   7.015  10.407  0.7307 -0.2659 -0.8113
   17MOL0     C 2275  10.776   6.927  10.370 -0.1134 -0.6441 -0.0017
   17MOL0     C 2276  10.809   6.778  10.381  0.1356 -0.1595 -0.1023
   17MOL0     H 2277  10.258   6.779  10.477 -0.0454  0.8895 -1.3692
   17MOL0     H 2278  10.095   6.633  10.419  0.9812 -1.6852  2.8128
   17MOL0     H 2279  10.055   6.387  10.058 -2.9394  0.4001 -1.7175
   17MOL0     H 2280  10.008   6.542  10.133 -1.5480  0.5483  3.2313
   17MOL0     H 2281   9.914   6.284  10.265  3.8341  1.4851  2.0977
   17MOL0     H 2282   9.873   6.448  10.291  3.2007 -0.0799  0.3777
   17MOL0     H 2283   9.702   6.298  10.149 -1.2282  1.1383  1.0551
   17MOL0     H 2284   9.722   6.460  10.114 -1.2689 -1.0988  2.3133
   17MOL0     H 2285   9.889   6.368   9.912 -0.2467 -0.1495  0.8923
   17MOL0     H 2286   9.830   6.208   9.970 -0.1133 -1.0511 -0.3621
   17MOL0     H 2287   9.638   6.419   9.868  1.2420  1.6355  4.0506
   17MOL0     H 2288   9.599   6.273   9.947 -0.5738  0.3120  0.6062
   17MOL0     H 2289   9.780   6.300   9.697  1.0127 -1.5725  0.4601
   17MOL0     H 2290   9.723   6.150   9.780 -1.9247  0.5351  3.5435
   17MOL0     H 2291   9.535   6.353   9.654  2.4496  0.5949 -0.1713
   17MOL0     H 2292   9.484   6.227   9.751 -2.0269  0.5116 -0.5983
   17MOL0     H 2293   9.549   6.055   9.606  0.4659  0.5625  0.6129
   17MOL0     H 2294   9.457   6.175   9.516 -1.2979 -1.4025 -0.1184
   17MOL0     H 2295   9.772   5.985   9.507  0.4968 -0.0894  0.8391
   17MOL0     H 2296  10.019   6.126   9.225 -1.2729 -1.7542 -1.9115
   17MOL0     H 2297   9.921   5.981   9.266  2.3653 -0.5923 -2.2352
   17MOL0     H 2298  10.102   6.104   9.485  1.0274  1.2233 -0.0359
   17MOL0     H 2299  10.034   5.940   9.467  1.2113 -0.1883 -0.4710
   17MOL0     H 2300  10.258   6.073   9.303  0.7112 -1.1523  0.0273
   17MOL0     H 2301  10.294   5.993   9.442  1.4912  2.6417 -0.6711
   17MOL0     H 2302  10.105   5.837   9.257  0.1284  0.9957  0.0197
   17MOL0     H 2303  10.252   5.883   9.178 -1.1342 -2.3102 -0.4767
   17MOL0     H 2304  10.494   5.849   9.219  2.6264 -0.6771 -0.5200
   17MOL0     H 2305  10.757   6.021   9.336 -0.1555 -0.3272  1.2242
   17MOL0     H 2306  10.694   5.936   9.198  0.4818 -1.4475 -0.8451
   17MOL0     H 2307  10.826   5.863   9.288  0.0204 -0.7018 -0.5941
   17MOL0     H 2308  11.013   5.562   9.472 -0.2080 -1.0012  0.8031
   17MOL0     H 2309  11.262   5.576   9.541  0.1217  0.0770 -1.3509
   17MOL0     H 2310  11.439   5.643   9.610 -0.9110 -2.4107 -0.1219
   17MOL0     H 2311  11.463   5.773   9.720  2.4833 -1.1110 -1.0698
   17MOL0     H 2312  11.654   5.605   9.720  1.8623  2.2718  4.1527
   17MOL0     H 2313  11.579   5.611   9.877 -1.4345  3.1533 -0.4759
   17MOL0     H 2314  11.497   5.417   9.651  1.5625  2.8319 -0.0278
   17MOL0     H 2315  11.453   5.391   9.820 -1.0599 -1.5193 -0.6169
   17MOL0     H 2316  11.751   5.378   9.773 -0.2092 -1.5369 -2.5967
   17MOL0     H 2317  11.640   5.253   9.725 -2.2370 -0.2851  1.6607
   17MOL0     H 2318  11.746   5.231   9.962 -0.8639  0.8842  2.0642
   17MOL0     H 2319  11.631   5.359  10.007  4.4936  1.7972 -1.8343
   17MOL0     H 2320  11.575   5.077   9.900 -2.1769  0.4445 -0.7351
   17MOL0     H 2321  11.448   5.190   9.899  0.1239  1.5346 -0.7989
   17MOL0     H 2322  11.485   5.024  10.094  0.3146 -0.1051 -3.3924
   17MOL0     H 2323  11.448   5.190  10.143 -1.4530 -1.8409 -0.1430
   17MOL0     H 2324  11.732   5.088  10.159 -0.4547  0.7142 -0.3836
   17MOL0     H 2325  11.605   5.065  10.268 -0.3968 -2.2672 -1.2863
   17MOL0     H 2326  11.126   5.642   9.950  2.9854 -3.1180  0.9292
   17MOL0     H 2327  10.885   5.637   9.870  0.4843  2.0597  0.1064
   17MOL0     H 2328  10.572   5.644   9.662  0.7340  1.5509  1.1284
   17MOL0     H 2329  10.347   5.644   9.583  2.4499 -3.2688  1.2977
   17MOL0     H 2330  10.366   6.443  10.133 -0.6916 -0.9634  0.2596
   17MOL0     H 2331  10.532   6.625  10.194 -0.6135 -0.9988 -1.0209
   17MOL0     H 2332  10.536   7.166  10.325 -1.7065 -3.6212  1.8602
   17MOL0     H 2333  10.709   7.317  10.373  0.2313  0.8702  1.5951
   17MOL0     H 2334  10.848   7.376  10.556  2.0457  1.6636  1.1185
   17MOL0     H 2335  10.952   7.265  10.639  0.0460  0.3260  0.3525
   17MOL0     H 2336  11.030   7.501  10.646  0.4460  0.5584 -0.5594
   17MOL0     H 2337  11.016   7.508  10.467  0.2946  1.2044  0.7897
   17MOL0     H 2338  11.206   7.342  10.638  3.3453 -0.8073 -1.5784
   17MOL0     H 2339  11.207   7.333  10.459 -0.1553  1.7745 -0.4900
   17MOL0     H 2340  11.294   7.573  10.632  1.4212  2.5067 -1.3865
   17MOL0     H 2341  11.260   7.584  10.466  0.2829 -1.6280 -2.2718
   17MOL0     H 2342  11.648   7.446  10.507 -0.2145  1.5725  1.8600
   17MOL0     H 2343  10.972   6.968  10.437 -0.4955 -1.7350  0.8494
   17MOL0     H 2344  10.726   6.720  10.421 -2.2456  1.8298 -1.8368
   17MOL0     H 2345  10.843   6.738  10.285  0.9672 -1.6284  0.7703
   17MOL0     H 2346  10.892   6.767  10.451 -0.5587 -0.2929  0.7152
   18MOL0     O 2347   5.664   1.634   6.860  0.1317  0.5625 -0.6916
   18MOL0     C 2348   5.614   1.528   6.883  0.2146  0.5444 -1.1339
   18MOL0     O 2349   5.493   1.507   6.937 -0.5661  0.3070  0.2655
   18MOL0     C 2350   5.419   1.617   6.977  0.1245 -0.4843  0.2762
   18MOL0     C 2351   5.475   1.702   7.073 -0.3775 -0.6060 -0.1428
   18MOL0     C 2352   5.387   1.789   7.130  0.6346 -0.2043  1.3465
   18MOL0     C 2353   5.260   1.824   7.078  1.2616  0.1347  0.0798
   18MOL0     O 2354   5.186   1.913   7.149  0.2739  0.8469 -0.0186
   18MOL0     C 2355   5.047   1.937   7.118 -0.2044  0.3365 -0.5341
   18MOL0     C 2356   4.982   2.022   7.231  0.4223 -0.1699  0.4957
   18MOL0     C 2357   4.984   1.953   7.366  0.8187  0.4926  0.3417
   18MOL0     C 2358   5.080   2.017   7.463 -0.8149  0.4889 -0.6683
   18MOL0     C 2359   5.069   1.955   7.604  0.2308  0.3561 -0.2915
   18MOL0     C 2360   5.154   2.024   7.711 -0.8642 -0.1113  0.3870
   18MOL0     C 2361   5.305   2.003   7.693 -0.8474  0.1357  0.2134
   18MOL0     C 2362   5.398   2.109   7.767 -0.8161  0.1139  0.0629
   18MOL0     N 2363   5.538   2.089   7.748  0.0598 -0.3414 -0.2976
   18MOL0     C 2364   5.618   2.116   7.641 -1.0422  0.5467 -0.6837
   18MOL0     C 2365   5.739   2.062   7.668  0.0765  0.4354  0.1887
   18MOL0     C 2366   5.856   2.052   7.564 -0.2186 -0.1942  0.1388
   18MOL0     C 2367   5.991   2.005   7.621 -0.1758  0.3412 -0.1152
   18MOL0     C 2368   6.047   2.090   7.739  0.7159 -0.4982  0.9725
   18MOL0     C 2369   6.183   2.039   7.785 -0.6421 -0.3848  0.3453
   18MOL0     O 2370   6.274   2.002   7.683  0.4396 -0.1984  0.4669
   18MOL0     C 2371   6.405   1.993   7.714  0.0399 -0.7263  0.3209
   18MOL0     C 2372   6.483   1.965   7.608 -0.0443 -0.4531  0.5187
   18MOL0     C 2373   6.623   1.951   7.608  0.0350 -0.4171 -0.2715
   18MOL0     C 2374   6.682   1.919   7.481 -0.7695 -0.0634  1.4501
   18MOL0     C 2375   6.688   1.959   7.736 -0.0772 -0.3794  0.5115
   18MOL0     C 2376   6.829   1.927   7.765 -0.5606 -0.3819  0.5410
   18MOL0     O 2377   6.877   1.974   7.879 -0.1574 -0.2317  0.2090
   18MOL0     C 2378   7.019   1.951   7.892 -0.0952 -0.0859 -0.0404
   18MOL0     C 2379   7.078   1.822   7.913  0.0848  0.1524 -0.7069
   18MOL0     C 2380   7.216   1.803   7.926 -0.4405 -0.0934 -0.4011
   18MOL0     C 2381   7.305   1.918   7.946 -0.1947 -0.0594  0.4251
   18MOL0     O 2382   7.443   1.918   7.966  0.2170 -0.5499 -0.4088
   18MOL0     C 2383   7.513   1.788   7.954  0.2557  0.2029 -0.3706
   18MOL0     C 2384   7.652   1.804   8.016 -0.5953  0.6777 -0.1557
   18MOL0     C 2385   7.739   1.912   7.949  1.0623 -0.3377  0.1925
   18MOL0     C 2386   7.888   1.901   7.987 -0.3461 -0.6486  0.1363
   18MOL0     C 2387   7.908   1.914   8.138 -0.1558  0.6258  0.6825
   18MOL0     C 2388   8.055   1.933   8.166  0.1051  0.3425  0.2404
   18MOL0     C 2389   8.078   1.923   8.318  0.0921  0.3743  0.0901
   18MOL0     C 2390   8.228   1.948   8.352  0.4951 -0.8879 -0.7857
   18MOL0    Cl 2391   8.336   1.872   8.234  0.9386  0.4134  0.2635
   18MOL0     C 2392   7.245   2.042   7.941 -0.0794  0.3978  0.1121
   18MOL0     C 2393   7.104   2.063   7.923  0.4860  0.4951  0.2988
   18MOL0     O 2394   6.894   1.853   7.685 -0.3892  0.1245  0.0021
   18MOL0     C 2395   6.610   1.980   7.852 -0.0585  1.2325 -0.3982
   18MOL0     C 2396   6.475   2.000   7.841  0.8379  0.9631  0.4385
   18MOL0     N 2397   5.734   2.016   7.796  0.0779  0.5715 -0.6023
   18MOL0     N 2398   5.617   2.036   7.846  0.1778 -0.6005  0.0674
   18MOL0     C 2399   5.219   1.754   6.960 -0.2624  0.5712 -1.4036
   18MOL0     C 2400   5.301   1.645   6.919 -0.0757  0.6218  0.6686
   18MOL0     C 2401   5.690   1.404   6.831  2.4047  0.1380  0.1355
   18MOL0     C 2402   5.617   1.283   6.836 -0.8494 -0.3874  0.2065
   18MOL0     C 2403   5.663   1.167   6.778  0.9861 -0.3915 -0.8821
   18MOL0     C 2404   5.785   1.168   6.715  0.4264  0.1886 -0.3720
   18MOL0     O 2405   5.810   1.050   6.651  0.1484 -0.8630  0.2443
   18MOL0     C 2406   5.939   1.037   6.579 -0.5122 -0.5940 -0.3179
   18MOL0     C 2407   5.933   0.912   6.489  0.6371  0.1814  0.5228
   18MOL0     C 2408   5.840   0.937   6.370  0.5362  0.7705  0.2181
   18MOL0     C 2409   5.909   1.019   6.260  0.7962 -0.6429 -0.3098
   18MOL0     C 2410   5.927   0.948   6.141 -0.8019  0.0878 -0.2033
   18MOL0     C 2411   5.954   0.888   6.039  0.0139  0.0043  0.0337
   18MOL0     C 2412   5.865   1.282   6.718 -0.2418  0.1367  0.8292
   18MOL0     C 2413   5.821   1.402   6.784  0.5683 -0.1556 -0.7879
   18MOL0     C 2414   5.917   1.523   6.796  0.2295 -0.1619 -0.1146
   18MOL0     H 2415   5.576   1.691   7.113 -0.4543  0.9585  0.5726
   18MOL0     H 2416   5.409   1.837   7.225 -0.8896 -0.5720  1.9069
   18MOL0     H 2417   4.983   1.849   7.113  0.5078 -0.2864  0.7982
   18MOL0     H 2418   5.043   1.985   7.020 -3.3475 -0.8865 -1.1272
   18MOL0     H 2419   5.032   2.119   7.241  1.5484 -0.6648 -0.1114
   18MOL0     H 2420   4.877   2.033   7.203 -1.1575 -3.8247  3.9558
   18MOL0     H 2421   4.884   1.951   7.411  0.4393  0.7455 -0.4727
   18MOL0     H 2422   5.005   1.846   7.354  2.0799  0.3430  2.9860
   18MOL0     H 2423   5.182   1.991   7.434 -0.7349 -0.3127  0.2816
   18MOL0     H 2424   5.074   2.126   7.472  1.3821  0.6692 -0.7476
   18MOL0     H 2425   5.096   1.849   7.599 -1.1836 -0.0597  0.3922
   18MOL0     H 2426   4.967   1.954   7.643  0.5110 -0.3001  0.4338
   18MOL0     H 2427   5.149   2.133   7.708  0.1231 -0.0058  1.9633
   18MOL0     H 2428   5.116   1.988   7.807  1.8245  1.6865  2.2611
   18MOL0     H 2429   5.321   2.016   7.585  1.5309 -0.5701  0.4298
   18MOL0     H 2430   5.322   1.898   7.719 -2.1022 -0.1366  0.0078
   18MOL0     H 2431   5.374   2.212   7.741 -1.8172 -0.5255 -1.6914
   18MOL0     H 2432   5.382   2.093   7.874 -1.9888 -0.9038 -0.2443
   18MOL0     H 2433   5.589   2.151   7.542  0.5090  3.3961 -0.2545
   18MOL0     H 2434   5.881   2.149   7.519 -0.9564  1.0018  2.1618
   18MOL0     H 2435   5.830   1.985   7.482  1.4273  2.2256 -2.5471
   18MOL0     H 2436   5.980   1.900   7.651  0.0007  0.7810  1.5574
   18MOL0     H 2437   6.067   2.009   7.542 -1.7028 -1.0606 -1.7605
   18MOL0     H 2438   6.057   2.195   7.710 -3.8833  0.4313  1.8750
   18MOL0     H 2439   5.984   2.093   7.829  0.0015 -0.6720  0.4869
   18MOL0     H 2440   6.234   2.126   7.827  1.3740 -0.2243 -2.1810
   18MOL0     H 2441   6.178   1.950   7.849  1.1582 -1.0185 -0.3249
   18MOL0     H 2442   6.436   1.948   7.512  2.0470  1.2969 -0.9143
   18MOL0     H 2443   6.626   1.849   7.418  0.1763  0.0900  0.3884
   18MOL0     H 2444   6.783   1.879   7.494 -2.0350 -3.5305  1.5324
   18MOL0     H 2445   6.685   2.014   7.426  0.7461 -0.8946 -0.0039
   18MOL0     H 2446   7.009   1.739   7.912  0.3170 -0.0499 -0.3325
   18MOL0     H 2447   7.248   1.704   7.959 -0.8617 -0.2033 -0.3178
   18MOL0     H 2448   7.461   1.704   8.000 -0.4374 -2.0490 -4.7943
   18MOL0     H 2449   7.514   1.765   7.847 -0.6915  2.3034 -0.8943
   18MOL0     H 2450   7.635   1.820   8.123  1.4252 -2.9212  0.8600
   18MOL0     H 2451   7.697   1.705   8.011 -0.7169  0.6504 -0.9686
   18MOL0     H 2452   7.695   2.008   7.978 -0.0542 -0.8993  0.4301
   18MOL0     H 2453   7.731   1.895   7.841 -0.1467  4.0939 -0.6144
   18MOL0     H 2454   7.938   1.982   7.933 -0.1364 -0.5357  0.4952
   18MOL0     H 2455   7.938   1.809   7.955 -0.2344 -0.6970  0.4402
   18MOL0     H 2456   7.847   1.999   8.169 -1.8935  0.2268 -1.3989
   18MOL0     H 2457   7.865   1.829   8.191  2.3355 -0.0761  1.6985
   18MOL0     H 2458   8.082   2.033   8.131 -1.7249  0.2824 -1.5148
   18MOL0     H 2459   8.112   1.849   8.124  0.0598  0.8812 -0.9510
   18MOL0     H 2460   8.064   1.824   8.361  0.8853  0.7905  1.3857
   18MOL0     H 2461   8.018   1.987   8.384 -2.3269 -2.5809  1.0189
   18MOL0     H 2462   8.264   1.914   8.449  2.1096  1.4960 -0.4678
   18MOL0     H 2463   8.242   2.056   8.346  1.7318 -1.0875 -5.3634
   18MOL0     H 2464   7.306   2.131   7.940 -1.8001  1.6695 -2.2680
   18MOL0     H 2465   7.062   2.158   7.892  0.4594  0.5730  0.5678
   18MOL0     H 2466   6.654   1.961   7.949 -1.4652  0.1787  0.0534
   18MOL0     H 2467   6.420   1.972   7.930 -1.1922 -4.3382 -2.0705
   18MOL0     H 2468   5.124   1.763   6.907 -0.8746  2.0489 -0.1391
   18MOL0     H 2469   5.270   1.589   6.832 -2.6094  0.0972  1.8041
   18MOL0     H 2470   5.517   1.282   6.879  0.3129  2.7749  3.4082
   18MOL0     H 2471   5.598   1.080   6.776 -0.8336  0.9292 -1.8348
   18MOL0     H 2472   5.958   1.127   6.519 -0.1407  0.0927  0.7873
   18MOL0     H 2473   6.021   1.033   6.651  0.8023  2.8709 -1.3882
   18MOL0     H 2474   5.891   0.831   6.549 -3.5310 -0.4221 -2.7088
   18MOL0     H 2475   6.036   0.891   6.458  0.8207 -2.2683  2.4898
   18MOL0     H 2476   5.808   0.839   6.333 -0.3368  0.6077  1.3471
   18MOL0     H 2477   5.745   0.972   6.411 -1.0290 -3.6899  0.8877
   18MOL0     H 2478   6.012   1.048   6.284  0.6261 -0.8869  0.7586
   18MOL0     H 2479   5.848   1.102   6.225 -0.6744 -0.4591  2.4870
   18MOL0     H 2480   5.980   0.858   5.940 -1.2357 -1.9014  0.2253
   18MOL0     H 2481   5.962   1.298   6.673 -0.7760  2.3019  0.3703
   18MOL0     H 2482   6.020   1.492   6.814  0.7182  0.8755 -0.9771
   18MOL0     H 2483   5.922   1.573   6.699  0.8220  3.2180  1.4938
   18MOL0     H 2484   5.887   1.595   6.874  0.1966  0.7449 -0.9506
   19MOL0     O 2485   8.471   2.850   4.910 -0.1054  0.3174 -0.5110
   19MOL0     C 2486   8.445   2.730   4.910  0.0635 -1.4379 -0.1929
   19MOL0     O 2487   8.357   2.670   4.819 -0.5817 -0.3522  0.6622
   19MOL0     C 2488   8.265   2.740   4.750  0.0151  0.0079  0.0805
   19MOL0     C 2489   8.300   2.863   4.682 -0.1753  0.3251 -0.5833
   19MOL0     C 2490   8.202   2.912   4.593 -0.6050  0.5352  0.5091
   19MOL0     C 2491   8.078   2.855   4.567 -1.5039  0.1778  0.6057
   19MOL0     O 2492   8.005   2.907   4.464 -0.2354 -1.1325 -0.1784
   19MOL0     C 2493   7.952   2.813   4.372 -0.1549  0.2540  0.0734
   19MOL0     C 2494   7.919   2.885   4.245 -0.1810  0.2707  0.7519
   19MOL0     C 2495   7.888   2.782   4.136 -0.3374 -0.5392  0.7124
   19MOL0     C 2496   7.787   2.672   4.178  0.1119  0.4287 -0.3977
   19MOL0     C 2497   7.729   2.600   4.049  0.7290  0.2998  0.5859
   19MOL0     C 2498   7.833   2.526   3.972  0.4454 -0.4388  0.3674
   19MOL0     C 2499   7.770   2.453   3.852  0.5688  0.1587 -1.0237
   19MOL0     C 2500   7.659   2.357   3.891  0.4244 -0.8934  0.1472
   19MOL0     N 2501   7.644   2.247   3.800 -0.7171  0.3876  0.5426
   19MOL0     C 2502   7.729   2.141   3.797 -0.2402  0.1257 -0.4635
   19MOL0     C 2503   7.654   2.060   3.708 -0.1552  0.0239 -0.0222
   19MOL0     C 2504   7.689   1.921   3.665 -1.0491  0.1061 -0.4912
   19MOL0     C 2505   7.664   1.822   3.774  0.4291 -0.8009 -0.1068
   19MOL0     C 2506   7.706   1.684   3.736 -0.9332  0.6015 -0.2412
   19MOL0     C 2507   7.659   1.580   3.838 -0.3035  0.1420 -0.1935
   19MOL0     O 2508   7.723   1.450   3.827 -0.0212 -0.9046  0.9281
   19MOL0     C 2509   7.700   1.348   3.910 -0.4208  0.8622 -0.0190
   19MOL0     C 2510   7.571   1.340   3.964 -0.0890 -0.0322  0.0208
   19MOL0     C 2511   7.521   1.223   4.020  0.5354  0.5983 -0.5204
   19MOL0     C 2512   7.375   1.226   4.050 -0.0098  0.1661  0.1156
   19MOL0     C 2513   7.602   1.109   4.022  0.5766  0.2557 -0.3456
   19MOL0     C 2514   7.569   0.981   4.085 -0.1894  0.0673 -0.1974
   19MOL0     O 2515   7.631   0.875   4.038 -0.7127  0.2904 -0.3439
   19MOL0     C 2516   7.584   0.750   4.068  0.1153  0.6153 -0.0111
   19MOL0     C 2517   7.535   0.699   4.191  0.6745  0.6560  0.2842
   19MOL0     C 2518   7.500   0.569   4.213  0.6176  0.2396  0.3071
   19MOL0     C 2519   7.525   0.470   4.116 -0.4501  1.3093 -0.2194
   19MOL0     O 2520   7.513   0.341   4.157 -0.0728 -0.8874 -0.1104
   19MOL0     C 2521   7.509   0.230   4.059 -0.3364 -0.0215  0.2158
   19MOL0     C 2522   7.382   0.142   4.057  0.0322 -0.4831  0.1409
   19MOL0     C 2523   7.251   0.204   4.000 -0.5246  0.0118 -0.6035
   19MOL0     C 2524   7.190   0.312   4.096  0.3510 -0.0377 -0.9730
   19MOL0     C 2525   7.037   0.332   4.061 -0.4452 -0.1141  0.3884
   19MOL0     C 2526   6.964   0.385   4.179  0.7796 -0.7813 -0.7396
   19MOL0     C 2527   6.977   0.544   4.198 -0.3435 -0.2368 -0.5477
   19MOL0     C 2528   6.878   0.587   4.301 -0.4332 -0.7471  0.3720
   19MOL0    Cl 2529   6.723   0.595   4.224  0.1934  0.1629 -0.5113
   19MOL0     C 2530   7.569   0.518   3.987  0.5049  0.1180  0.4571
   19MOL0     C 2531   7.603   0.650   3.968  0.8062 -0.6015  0.1506
   19MOL0     O 2532   7.484   0.983   4.170  0.0646 -0.3578  0.5959
   19MOL0     C 2533   7.733   1.118   3.968  0.6682  0.1904  0.0677
   19MOL0     C 2534   7.786   1.236   3.913  0.3389 -0.2332 -0.4034
   19MOL0     N 2535   7.544   2.122   3.657 -0.3157 -0.1532  0.3456
   19MOL0     N 2536   7.533   2.228   3.719 -0.0470 -0.0437  0.0168
   19MOL0     C 2537   8.050   2.731   4.630 -0.6088  0.1510  0.2955
   19MOL0     C 2538   8.145   2.680   4.716 -0.8160  1.6978  0.4774
   19MOL0     C 2539   8.529   2.636   4.995 -0.2699 -0.3123  0.3554
   19MOL0     C 2540   8.670   2.655   4.986 -0.1183  1.0176  0.1375
   19MOL0     C 2541   8.750   2.582   5.075 -0.7475 -0.2186 -0.0637
   19MOL0     C 2542   8.707   2.466   5.143 -0.1741 -0.2375 -0.8711
   19MOL0     O 2543   8.783   2.368   5.214 -0.3449 -0.5788 -0.0804
   19MOL0     C 2544   8.910   2.429   5.273 -0.1649  0.1746 -0.1727
   19MOL0     C 2545   8.991   2.327   5.346  0.0880 -0.8167 -0.1423
   19MOL0     C 2546   9.039   2.217   5.256  0.1254 -0.0137  0.6098
   19MOL0     C 2547   9.167   2.246   5.183 -0.8393 -0.1106  0.5350
   19MOL0     C 2548   9.183   2.132   5.087  0.4909  0.4997 -0.8158
   19MOL0     C 2549   9.207   2.038   5.011 -0.2035 -1.3368 -1.5632
   19MOL0     C 2550   8.569   2.450   5.147  0.4692 -0.5406  0.1652
   19MOL0     C 2551   8.481   2.538   5.082 -0.1598  1.3291 -0.5161
   19MOL0     C 2552   8.334   2.504   5.102  0.0363 -0.2502 -0.0998
   19MOL0     H 2553   8.396   2.914   4.689 -0.0420  0.4030 -2.5166
   19MOL0     H 2554   8.218   3.006   4.541 -1.3178 -1.7087 -4.2664
   19MOL0     H 2555   7.869   2.754   4.412 -0.4750  1.1034  0.6732
   19MOL0     H 2556   8.025   2.736   4.345  2.0472  1.9575  0.8815
   19MOL0     H 2557   7.827   2.938   4.272 -0.7605 -0.6296  0.5819
   19MOL0     H 2558   8.000   2.941   4.199 -0.4442 -2.1877 -3.1595
   19MOL0     H 2559   7.835   2.835   4.057 -0.9177 -0.4007  1.1899
   19MOL0     H 2560   7.983   2.737   4.105 -2.3180 -3.6824 -1.2996
   19MOL0     H 2561   7.848   2.599   4.233 -0.9037  0.7522  1.2060
   19MOL0     H 2562   7.705   2.700   4.244 -0.3757 -0.2726 -0.6888
   19MOL0     H 2563   7.686   2.677   3.985 -1.9295 -1.7051 -0.2337
   19MOL0     H 2564   7.646   2.535   4.079 -2.1230  4.0605  1.6973
   19MOL0     H 2565   7.903   2.599   3.928  1.2232 -0.7619  1.0445
   19MOL0     H 2566   7.891   2.462   4.039 -0.7893 -2.0474 -0.0439
   19MOL0     H 2567   7.843   2.397   3.793  0.7986 -0.9460  0.2560
   19MOL0     H 2568   7.726   2.528   3.786  1.3061  2.1787  0.6507
   19MOL0     H 2569   7.672   2.322   3.993 -2.7644  4.1100  2.6839
   19MOL0     H 2570   7.566   2.415   3.896  1.0366  0.0155  1.4598
   19MOL0     H 2571   7.827   2.121   3.840  1.0269  0.9267 -2.7953
   19MOL0     H 2572   7.792   1.900   3.634 -1.8445 -2.1861 -1.8493
   19MOL0     H 2573   7.624   1.891   3.582 -1.5239 -1.9218  0.5464
   19MOL0     H 2574   7.708   1.856   3.868  2.2578  1.1814 -1.5781
   19MOL0     H 2575   7.556   1.810   3.786  0.5582 -0.2657  2.1093
   19MOL0     H 2576   7.659   1.660   3.641 -1.0055 -0.7752  0.1247
   19MOL0     H 2577   7.813   1.679   3.713 -1.1193  2.8432 -1.8842
   19MOL0     H 2578   7.692   1.619   3.935 -0.6025  0.7811 -0.3406
   19MOL0     H 2579   7.550   1.572   3.835 -0.3587  0.7280 -0.0408
   19MOL0     H 2580   7.502   1.424   3.960 -0.0464  0.1051  1.5138
   19MOL0     H 2581   7.347   1.193   4.151 -2.0920 -0.3073 -0.5593
   19MOL0     H 2582   7.332   1.164   3.971 -0.2167  0.1512  0.2394
   19MOL0     H 2583   7.330   1.323   4.029 -0.7719 -0.6489 -2.3920
   19MOL0     H 2584   7.531   0.773   4.270  0.6405  1.8211 -0.7722
   19MOL0     H 2585   7.460   0.538   4.309 -0.6248 -0.4588 -0.4129
   19MOL0     H 2586   7.532   0.264   3.957 -3.0425 -0.0279 -0.4747
   19MOL0     H 2587   7.590   0.164   4.090 -2.0637 -1.7208  1.3607
   19MOL0     H 2588   7.410   0.048   4.009 -2.8502 -1.7005  0.6400
   19MOL0     H 2589   7.355   0.114   4.159 -2.0632 -1.8676 -0.7156
   19MOL0     H 2590   7.178   0.125   3.985  0.5878 -0.8266 -1.7968
   19MOL0     H 2591   7.270   0.253   3.904  0.1192  3.3156  1.0619
   19MOL0     H 2592   7.238   0.409   4.081  2.6761 -0.7104  1.3155
   19MOL0     H 2593   7.194   0.287   4.203 -1.0312 -1.8378 -1.2842
   19MOL0     H 2594   7.010   0.402   3.982 -0.9022  1.3123  1.7661
   19MOL0     H 2595   7.003   0.228   4.053 -0.0584 -0.4499  2.6162
   19MOL0     H 2596   6.986   0.332   4.272 -1.7286 -2.0010 -0.7712
   19MOL0     H 2597   6.856   0.381   4.163 -0.4501  4.6092  3.2831
   19MOL0     H 2598   6.959   0.606   4.110  2.1142  2.9374  0.9682
   19MOL0     H 2599   7.082   0.561   4.223 -0.7620 -0.9800  1.9847
   19MOL0     H 2600   6.909   0.688   4.329  2.6010 -0.5408 -3.0707
   19MOL0     H 2601   6.879   0.521   4.388  1.8536 -1.5451 -0.2189
   19MOL0     H 2602   7.599   0.449   3.909  4.3247  1.6570  0.3753
   19MOL0     H 2603   7.656   0.676   3.877  1.7655 -2.1077  0.2385
   19MOL0     H 2604   7.800   1.034   3.955 -0.1242 -0.3264 -0.8909
   19MOL0     H 2605   7.881   1.250   3.862  1.6161 -0.3246  1.8205
   19MOL0     H 2606   7.956   2.682   4.610 -0.6184  0.6889 -1.0540
   19MOL0     H 2607   8.116   2.585   4.762  2.2086  1.0146  1.2149
   19MOL0     H 2608   8.702   2.727   4.912  2.3355 -1.4194 -1.4076
   19MOL0     H 2609   8.855   2.612   5.075 -1.2476  1.9107  2.6018
   19MOL0     H 2610   8.977   2.481   5.204  2.4092 -0.0984  1.9640
   19MOL0     H 2611   8.873   2.507   5.341 -0.6409 -0.1923 -0.0007
   19MOL0     H 2612   8.935   2.277   5.425 -1.0142 -0.6678 -0.8074
   19MOL0     H 2613   9.080   2.385   5.372 -0.9017  0.8139 -0.1950
   19MOL0     H 2614   9.058   2.119   5.301  0.4243 -0.5544 -0.6470
   19MOL0     H 2615   8.955   2.194   5.190 -0.8172  1.3390  1.3011
   19MOL0     H 2616   9.249   2.248   5.255 -1.0857 -0.7592  0.8467
   19MOL0     H 2617   9.166   2.341   5.130  3.6070 -2.1106 -4.0690
   19MOL0     H 2618   9.231   1.950   4.956  2.2720 -1.5042 -0.3812
   19MOL0     H 2619   8.527   2.372   5.209 -1.5508 -0.1598 -0.6615
   19MOL0     H 2620   8.298   2.451   5.013  1.2190  1.4037 -1.6417
   19MOL0     H 2621   8.309   2.442   5.189 -0.2586  0.8610  0.6272
   19MOL0     H 2622   8.270   2.592   5.111 -0.4998 -0.7929  1.7382
   20MOL0     O 2623   4.671   3.726   2.295  0.3262  0.5475  0.6383
   20MOL0     C 2624   4.565   3.699   2.236  0.5494  0.1901 -0.1481
   20MOL0     O 2625   4.440   3.701   2.292  0.3279 -0.7331  0.2676
   20MOL0     C 2626   4.437   3.757   2.416  0.9220  0.0298 -0.6008
   20MOL0     C 2627   4.506   3.699   2.521  0.3056 -0.1400  0.9810
   20MOL0     C 2628   4.489   3.751   2.650 -0.9030  0.9926  0.1335
   20MOL0     C 2629   4.406   3.857   2.679  0.1398  0.1630 -0.2172
   20MOL0     O 2630   4.393   3.903   2.806  0.1502  0.2061 -0.2401
   20MOL0     C 2631   4.368   4.049   2.826 -0.4971 -0.0702 -0.3260
   20MOL0     C 2632   4.490   4.139   2.807 -0.3082  0.0664  0.0048
   20MOL0     C 2633   4.611   4.066   2.877 -0.3069 -0.4995  0.0185
   20MOL0     C 2634   4.720   4.171   2.894 -0.4327 -0.6249 -0.4978
   20MOL0     C 2635   4.812   4.176   2.765  0.2235 -0.5266  0.8572
   20MOL0     C 2636   4.921   4.283   2.767  0.6297 -0.4796  0.3172
   20MOL0     C 2637   5.022   4.253   2.660 -0.6961 -0.0674  0.3144
   20MOL0     C 2638   5.096   4.388   2.617 -0.2107 -0.0851  0.6602
   20MOL0     N 2639   5.171   4.447   2.725 -0.3211 -0.2958  0.5278
   20MOL0     C 2640   5.135   4.557   2.802  0.0618 -0.4807  0.0003
   20MOL0     C 2641   5.234   4.564   2.903  0.1592 -0.2835 -0.4313
   20MOL0     C 2642   5.209   4.639   3.039 -1.3152  0.6337  1.1437
   20MOL0     C 2643   5.276   4.564   3.154 -0.6213 -0.0967  0.7603
   20MOL0     C 2644   5.267   4.645   3.281 -1.2369  0.3469  0.2355
   20MOL0     C 2645   5.360   4.571   3.388  0.0072 -1.0491  0.2508
   20MOL0     O 2646   5.334   4.629   3.516 -0.1353  0.0052 -0.7533
   20MOL0     C 2647   5.416   4.605   3.622 -0.8663  0.2056  0.0167
   20MOL0     C 2648   5.415   4.689   3.722  0.4361 -0.7202  0.4041
   20MOL0     C 2649   5.506   4.680   3.832 -0.0204  0.0621  0.8036
   20MOL0     C 2650   5.480   4.780   3.940  0.4356  0.1467  0.1802
   20MOL0     C 2651   5.593   4.560   3.852 -0.3711  0.1428  0.1470
   20MOL0     C 2652   5.683   4.533   3.972  0.3146 -0.2971  0.2501
   20MOL0     O 2653   5.710   4.400   3.998  0.1187 -0.0363 -0.2335
   20MOL0     C 2654   5.722   4.346   4.122 -0.9543 -0.0357  0.8064
   20MOL0     C 2655   5.832   4.381   4.202  0.1492 -0.2347 -0.4626
   20MOL0     C 2656   5.838   4.327   4.330  0.3232 -0.0248  0.2248
   20MOL0     C 2657   5.733   4.256   4.383  0.7028  0.1306  0.3249
   20MOL0     O 2658   5.747   4.201   4.511 -0.3955 -0.0673  0.2607
   20MOL0     C 2659   5.658   4.235   4.616  0.1912 -0.5231 -0.2650
   20MOL0     C 2660   5.746   4.297   4.723  0.5339 -1.2318  0.4231
   20MOL0     C 2661   5.857   4.396   4.658  0.1298 -0.0589  0.1270
   20MOL0     C 2662   5.922   4.473   4.767 -0.1066  0.3610 -0.3310
   20MOL0     C 2663   6.048   4.537   4.722 -0.2939  0.5940 -0.5464
   20MOL0     C 2664   6.172   4.441   4.700 -0.8305  0.6476  0.0271
   20MOL0     C 2665   6.299   4.537   4.679  0.8493  0.4311  0.2696
   20MOL0     C 2666   6.434   4.484   4.718 -0.2013 -0.1397 -0.1373
   20MOL0    Cl 2667   6.476   4.371   4.583 -0.2014 -0.3745  0.3285
   20MOL0     C 2668   5.621   4.219   4.299  0.5133 -0.9487 -1.1674
   20MOL0     C 2669   5.618   4.264   4.171  0.1263  0.5051  0.3608
   20MOL0     O 2670   5.682   4.625   4.057 -0.4983 -0.4926  0.7337
   20MOL0     C 2671   5.580   4.463   3.749 -0.1045  0.2286 -0.3864
   20MOL0     C 2672   5.502   4.490   3.635 -0.2520 -0.4296 -0.1164
   20MOL0     N 2673   5.324   4.464   2.869  0.0222  0.5212  0.7131
   20MOL0     N 2674   5.286   4.393   2.765 -0.2345  0.2235 -0.4993
   20MOL0     C 2675   4.327   3.905   2.570  0.3786 -0.7454 -0.2496
   20MOL0     C 2676   4.340   3.849   2.444  0.5688 -0.4077  0.3306
   20MOL0     C 2677   4.577   3.660   2.080 -0.4692 -0.0953  0.0009
   20MOL0     C 2678   4.702   3.676   2.009 -0.7272 -0.5890 -0.0671
   20MOL0     C 2679   4.708   3.641   1.878 -0.7202  0.5499  0.8022
   20MOL0     C 2680   4.598   3.595   1.807  0.2139 -0.1657 -0.4168
   20MOL0     O 2681   4.619   3.553   1.683  0.4095 -0.2073  0.2316
   20MOL0     C 2682   4.671   3.651   1.589 -0.4208  0.4643 -0.7900
   20MOL0     C 2683   4.665   3.598   1.449  0.4312 -0.3735 -0.1510
   20MOL0     C 2684   4.530   3.633   1.390  0.6128 -0.1151  0.7853
   20MOL0     C 2685   4.544   3.612   1.237 -0.0217 -0.2484 -1.0788
   20MOL0     C 2686   4.426   3.635   1.157  0.1468 -0.5580  0.2832
   20MOL0     C 2687   4.325   3.636   1.083 -0.4207 -0.3498  0.6249
   20MOL0     C 2688   4.472   3.590   1.871  0.1283 -0.4797 -0.0562
   20MOL0     C 2689   4.457   3.623   2.007  0.4037  0.3331  0.4236
   20MOL0     C 2690   4.321   3.589   2.072  0.2201  0.1558  0.0369
   20MOL0     H 2691   4.570   3.617   2.494 -3.3335 -2.8867 -0.0432
   20MOL0     H 2692   4.547   3.708   2.731 -3.2120  0.6808  1.7306
   20MOL0     H 2693   4.323   4.072   2.923  2.7895  3.7155  0.5862
   20MOL0     H 2694   4.288   4.083   2.759  0.1143  1.6613 -0.2380
   20MOL0     H 2695   4.507   4.156   2.700  0.4197  0.7700  0.2225
   20MOL0     H 2696   4.478   4.235   2.858 -4.6121  0.0023 -0.4758
   20MOL0     H 2697   4.570   4.028   2.971 -2.8009 -0.1596 -0.8388
   20MOL0     H 2698   4.652   3.980   2.824 -0.3919 -2.4767  2.9183
   20MOL0     H 2699   4.695   4.277   2.907  0.7507 -0.4431  0.5625
   20MOL0     H 2700   4.777   4.136   2.981 -0.3441  1.4144  0.3286
   20MOL0     H 2701   4.752   4.191   2.676 -1.0964 -0.3218  1.7525
   20MOL0     H 2702   4.857   4.076   2.759 -1.5671 -1.6959  3.9911
   20MOL0     H 2703   4.877   4.383   2.762  2.2563  0.2491 -0.2694
   20MOL0     H 2704   4.974   4.272   2.862  0.1619  0.5127  0.7088
   20MOL0     H 2705   4.964   4.219   2.573  0.8442 -1.1840 -0.3230
   20MOL0     H 2706   5.085   4.174   2.701 -3.4868 -3.1688 -0.8908
   20MOL0     H 2707   5.157   4.354   2.533 -1.1203 -0.9611  0.3404
   20MOL0     H 2708   5.025   4.461   2.576 -0.6344 -1.1746 -0.6007
   20MOL0     H 2709   5.047   4.620   2.810  1.3694  1.3181  1.0901
   20MOL0     H 2710   5.100   4.640   3.047 -1.3191 -0.4982  1.4529
   20MOL0     H 2711   5.246   4.738   3.011 -1.1722  0.1962 -0.2940
   20MOL0     H 2712   5.235   4.465   3.177  3.7381 -2.5023 -0.6753
   20MOL0     H 2713   5.384   4.552   3.139 -0.2895 -0.3001  2.9347
   20MOL0     H 2714   5.311   4.742   3.257 -1.3651 -0.1495 -2.3713
   20MOL0     H 2715   5.160   4.656   3.300 -0.8908  2.4255  1.2248
   20MOL0     H 2716   5.344   4.462   3.388 -2.8360 -0.7049 -0.6306
   20MOL0     H 2717   5.468   4.586   3.382 -0.2965  2.5180  1.8035
   20MOL0     H 2718   5.342   4.769   3.713 -0.8603 -1.9840 -0.9272
   20MOL0     H 2719   5.577   4.814   3.978  0.9536  0.4783 -1.3567
   20MOL0     H 2720   5.423   4.744   4.026 -1.5493  0.7780 -0.8111
   20MOL0     H 2721   5.433   4.872   3.902 -2.8121 -1.3477  0.2726
   20MOL0     H 2722   5.904   4.449   4.157  0.8011 -0.5959  0.0124
   20MOL0     H 2723   5.933   4.337   4.382  0.3369  2.4071 -0.1581
   20MOL0     H 2724   5.575   4.292   4.574 -0.0568  0.0933  1.0238
   20MOL0     H 2725   5.610   4.141   4.646 -1.6482  0.1790 -0.9264
   20MOL0     H 2726   5.681   4.364   4.780 -1.3223 -1.4257 -1.3598
   20MOL0     H 2727   5.779   4.213   4.786 -3.2943  0.2226  4.9316
   20MOL0     H 2728   5.814   4.471   4.591  1.2444  0.9481  0.5068
   20MOL0     H 2729   5.928   4.333   4.605 -0.3992  1.2854 -2.3302
   20MOL0     H 2730   5.949   4.411   4.853 -0.0993  0.8380  0.0119
   20MOL0     H 2731   5.858   4.552   4.807  2.7998  2.1302  1.1718
   20MOL0     H 2732   6.028   4.598   4.633  3.1045  0.8763 -1.2847
   20MOL0     H 2733   6.079   4.617   4.789  2.1217  1.4732 -2.5264
   20MOL0     H 2734   6.158   4.367   4.621  2.7797  1.0953 -1.2402
   20MOL0     H 2735   6.170   4.377   4.789 -4.6310  1.3398  0.6211
   20MOL0     H 2736   6.283   4.612   4.757 -0.9006 -0.1389  0.4987
   20MOL0     H 2737   6.307   4.585   4.581 -0.9370 -2.8996 -1.6626
   20MOL0     H 2738   6.435   4.438   4.817  1.2035  2.3244  1.0685
   20MOL0     H 2739   6.502   4.568   4.729  0.4985 -0.5216 -1.3711
   20MOL0     H 2740   5.541   4.156   4.336  1.8663 -2.0272  0.0908
   20MOL0     H 2741   5.530   4.232   4.116  0.2582 -0.9827  0.9722
   20MOL0     H 2742   5.635   4.370   3.762  3.5575  2.4238  1.4610
   20MOL0     H 2743   5.516   4.422   3.551  0.0021  0.0521 -0.4642
   20MOL0     H 2744   4.257   3.988   2.580  1.2284 -0.0266 -0.1742
   20MOL0     H 2745   4.274   3.871   2.360 -0.5732 -2.6062  0.5777
   20MOL0     H 2746   4.795   3.703   2.059  0.6547 -0.4439 -2.5949
   20MOL0     H 2747   4.808   3.638   1.837 -0.0855  1.3706  2.2374
   20MOL0     H 2748   4.606   3.735   1.615 -2.8473 -2.4244  3.8059
   20MOL0     H 2749   4.775   3.661   1.621 -0.5935  1.5606 -0.5425
   20MOL0     H 2750   4.674   3.490   1.434  1.2800 -0.5127  1.2097
   20MOL0     H 2751   4.752   3.636   1.396  1.0468 -1.3065  0.1737
   20MOL0     H 2752   4.448   3.578   1.436 -1.0677  1.6983  0.0997
   20MOL0     H 2753   4.515   3.739   1.412 -0.2067 -0.8213  4.0723
   20MOL0     H 2754   4.581   3.511   1.216 -0.1149 -0.2356 -1.3055
   20MOL0     H 2755   4.623   3.681   1.205  0.8794 -0.4044  0.6796
   20MOL0     H 2756   4.241   3.642   1.018  0.2673 -0.7004 -0.3247
   20MOL0     H 2757   4.394   3.564   1.800 -0.5823 -1.2750  0.9799
   20MOL0     H 2758   4.262   3.537   1.996  1.9476 -3.2246  0.8122
   20MOL0     H 2759   4.342   3.509   2.144  1.2876 -0.8980 -1.3865
   20MOL0     H 2760   4.281   3.680   2.117  2.4798  2.1770 -1.8275
   21MOL0     O 2761  11.138  10.355  11.118 -0.6449 -0.0912  0.0053
   21MOL0     C 2762  11.161  10.473  11.109  0.0473  0.2111  0.6640
   21MOL0     O 2763  11.068  10.571  11.086  0.5480 -0.2920  0.4809
   21MOL0     C 2764  10.941  10.537  11.057 -0.5193  0.3765 -0.1982
   21MOL0     C 2765  10.893  10.542  10.925  0.0601  0.2778 -0.6780
   21MOL0     C 2766  10.755  10.515  10.903 -0.2241 -1.0973 -0.5309
   21MOL0     C 2767  10.665  10.493  11.013  0.2285 -0.6279  1.1241
   21MOL0     O 2768  10.528  10.489  10.990  0.2589  0.1173  0.2283
   21MOL0     C 2769  10.475  10.523  10.860  0.2305 -0.3553  0.6537
   21MOL0     C 2770  10.323  10.501  10.859 -0.5242 -0.1359 -0.4231
   21MOL0     C 2771  10.248  10.572  10.739  0.5091  0.2551 -0.3327
   21MOL0     C 2772  10.277  10.726  10.727  0.4615  0.7165 -0.3373
   21MOL0     C 2773  10.178  10.777  10.618  0.6902 -0.7932  0.2366
   21MOL0     C 2774  10.199  10.925  10.591 -1.4163  0.4198 -0.2353
   21MOL0     C 2775  10.118  10.974  10.475  0.4075  0.4285  0.0689
   21MOL0     C 2776  10.117  11.124  10.475  0.5355  0.2857 -0.6642
   21MOL0     N 2777  10.236  11.170  10.400 -0.3153  0.1936  0.5236
   21MOL0     C 2778  10.329  11.261  10.441 -0.3831 -0.0551  0.0816
   21MOL0     C 2779  10.409  11.301  10.337 -0.5425 -0.8173  0.8239
   21MOL0     C 2780  10.524  11.391  10.353 -0.2465 -0.2830  0.5502
   21MOL0     C 2781  10.643  11.311  10.388 -1.0689  0.2098  0.4714
   21MOL0     C 2782  10.762  11.395  10.430 -0.1683  0.1735 -0.2994
   21MOL0     C 2783  10.892  11.321  10.403 -0.2248  0.0185 -0.5724
   21MOL0     O 2784  10.920  11.207  10.484 -0.5279  0.3339  0.0580
   21MOL0     C 2785  11.031  11.214  10.568  0.2347 -0.2033 -0.5646
   21MOL0     C 2786  11.002  11.267  10.698 -0.3302  0.4993  0.7485
   21MOL0     C 2787  11.102  11.280  10.788 -0.3717 -0.1088 -0.0250
   21MOL0     C 2788  11.062  11.349  10.912 -0.5999 -0.1642  0.0530
   21MOL0     C 2789  11.235  11.231  10.761  0.1481  0.0731 -0.3718
   21MOL0     C 2790  11.348  11.248  10.853  0.0356  0.2407  0.3286
   21MOL0     O 2791  11.466  11.235  10.794 -0.3672 -0.1764 -0.0088
   21MOL0     C 2792  11.573  11.296  10.846  0.0953  0.1156 -0.2749
   21MOL0     C 2793  11.648  11.221  10.940 -0.9467 -0.0453 -0.1246
   21MOL0     C 2794  11.773  11.270  10.981 -1.4264  0.1482 -0.3825
   21MOL0     C 2795  11.813  11.394  10.939 -1.1407  0.4752 -0.0989
   21MOL0     O 2796  11.933  11.446  10.978 -0.5105  0.3680  0.3066
   21MOL0     C 2797  11.996  11.418  11.104 -0.1147  0.0887 -0.0300
   21MOL0     C 2798  12.114  11.319  11.082 -0.0099 -0.4530  0.5203
   21MOL0     C 2799  12.215  11.376  10.984 -0.6943 -0.0883 -0.3616
   21MOL0     C 2800  12.345  11.310  10.985  0.1129  0.2088 -0.5729
   21MOL0     C 2801  12.443  11.362  10.877 -0.2819 -1.1419  0.0630
   21MOL0     C 2802  12.586  11.292  10.896 -0.2067  0.5794 -0.4349
   21MOL0     C 2803  12.687  11.340  10.797 -0.0021 -0.3151  0.3495
   21MOL0     C 2804  12.828  11.377  10.858  0.6851  1.0140  0.5272
   21MOL0    Cl 2805  12.955  11.393  10.727  0.3337 -0.2125  0.4702
   21MOL0     C 2806  11.730  11.467  10.852 -0.3543  0.0781 -0.6336
   21MOL0     C 2807  11.616  11.420  10.803 -0.1357  0.8097 -0.1334
   21MOL0     O 2808  11.328  11.257  10.973 -0.0835 -0.4735 -0.8093
   21MOL0     C 2809  11.252  11.163  10.635 -0.0777  0.0512 -0.2002
   21MOL0     C 2810  11.159  11.173  10.532 -0.2766 -0.0779 -0.4663
   21MOL0     N 2811  10.357  11.230  10.228  0.0297  0.3691 -0.3389
   21MOL0     N 2812  10.242  11.171  10.260 -0.3729 -0.1159 -0.5654
   21MOL0     C 2813  10.719  10.474  11.135  0.2710 -0.0021 -1.0719
   21MOL0     C 2814  10.857  10.493  11.163 -1.0544  0.7752 -0.0408
   21MOL0     C 2815  11.292  10.533  11.156  0.0403  0.2413  0.2577
   21MOL0     C 2816  11.288  10.640  11.251  0.8486  0.2472  0.2983
   21MOL0     C 2817  11.404  10.699  11.309  0.5939 -0.3756 -1.0013
   21MOL0     C 2818  11.529  10.657  11.266  0.2383 -0.3976 -0.5070
   21MOL0     O 2819  11.646  10.695  11.324  0.1471  0.3027  0.4522
   21MOL0     C 2820  11.651  10.802  11.415  0.3991  1.2027  0.0160
   21MOL0     C 2821  11.780  10.836  11.472  0.3102 -0.0378 -0.2716
   21MOL0     C 2822  11.881  10.875  11.366 -0.0191 -0.0524  0.4918
   21MOL0     C 2823  12.007  10.958  11.416 -0.8658 -0.1822  0.1326
   21MOL0     C 2824  12.109  10.985  11.313  0.5436 -0.9494  0.8252
   21MOL0     C 2825  12.187  11.014  11.226  0.4845 -0.3705  0.4748
   21MOL0     C 2826  11.532  10.559  11.163 -0.4006  0.4559 -0.6700
   21MOL0     C 2827  11.417  10.498  11.108 -0.1820  0.4485 -0.4473
   21MOL0     C 2828  11.423  10.409  10.986 -0.1339 -0.5510 -0.3683
   21MOL0     H 2829  10.962  10.571  10.847  1.1330 -0.2758  0.0441
   21MOL0     H 2830  10.733  10.526  10.797 -1.2671  1.2550 -0.1442
   21MOL0     H 2831  10.521  10.461  10.783 -0.8583 -3.0790  2.0155
   21MOL0     H 2832  10.501  10.627  10.842  0.8167 -0.4948  0.6848
   21MOL0     H 2833  10.289  10.397  10.862 -1.6806  0.2353  0.3511
   21MOL0     H 2834  10.287  10.558  10.946  1.1695  1.7514 -0.8790
   21MOL0     H 2835  10.276  10.523  10.645 -1.8546 -0.4556 -0.7286
   21MOL0     H 2836  10.139  10.561  10.747  0.6537 -0.2584  1.0748
   21MOL0     H 2837  10.244  10.769  10.822  1.8892  0.5180  0.2668
   21MOL0     H 2838  10.378  10.758  10.701  0.6129  0.9913  0.5720
   21MOL0     H 2839  10.074  10.769  10.649  0.0658  0.7768 -1.3183
   21MOL0     H 2840  10.187  10.711  10.531  1.0431 -0.9748  0.4092
   21MOL0     H 2841  10.155  10.982  10.674  0.2461 -0.7742  1.5400
   21MOL0     H 2842  10.305  10.952  10.586 -1.4152  1.8728  3.8498
   21MOL0     H 2843  10.016  10.939  10.493  1.2596 -2.5795 -0.3655
   21MOL0     H 2844  10.147  10.945  10.374  0.3101 -0.3386  0.2568
   21MOL0     H 2845  10.023  11.156  10.430  1.1994  2.8023 -0.3959
   21MOL0     H 2846  10.109  11.171  10.573 -2.1084  3.8495 -2.3898
   21MOL0     H 2847  10.352  11.280  10.546  1.6495 -1.3570 -0.0762
   21MOL0     H 2848  10.507  11.472  10.425 -0.3709  0.1779  0.0001
   21MOL0     H 2849  10.525  11.440  10.256 -2.3929 -0.6298  0.2932
   21MOL0     H 2850  10.628  11.242  10.472  1.2975 -3.6486 -1.9353
   21MOL0     H 2851  10.666  11.247  10.302  3.0348 -0.5796  1.8955
   21MOL0     H 2852  10.769  11.491  10.378  0.2698  0.6115  0.5421
   21MOL0     H 2853  10.743  11.411  10.537 -2.9349  0.8978 -0.8303
   21MOL0     H 2854  10.906  11.308  10.295 -1.0046 -0.3786 -0.6322
   21MOL0     H 2855  10.972  11.393  10.421 -1.3411  0.5992  2.7978
   21MOL0     H 2856  10.900  11.294  10.725  0.2952  0.9237  2.8871
   21MOL0     H 2857  11.059  11.269  10.987 -0.6261 -0.7132 -0.5267
   21MOL0     H 2858  10.966  11.399  10.919 -0.8543 -0.7193  0.7241
   21MOL0     H 2859  11.130  11.432  10.936 -2.6498  1.0041  2.1843
   21MOL0     H 2860  11.620  11.122  10.976  0.9073 -0.9373 -0.9566
   21MOL0     H 2861  11.827  11.198  11.042 -2.5355 -1.4524 -1.1839
   21MOL0     H 2862  12.048  11.511  11.130 -0.2659  0.4048 -0.8463
   21MOL0     H 2863  11.937  11.374  11.185  2.1472 -0.9139  1.1665
   21MOL0     H 2864  12.163  11.313  11.179  0.7811 -0.4890  0.1238
   21MOL0     H 2865  12.071  11.221  11.059 -2.3324  0.1254  2.0467
   21MOL0     H 2866  12.231  11.482  11.009  0.8452 -0.6149  1.1030
   21MOL0     H 2867  12.189  11.360  10.879 -0.7302  1.9898 -0.7160
   21MOL0     H 2868  12.318  11.204  10.979 -0.3136  0.1423  1.7807
   21MOL0     H 2869  12.386  11.338  11.082 -0.4012  0.6060 -0.4675
   21MOL0     H 2870  12.412  11.337  10.775  3.8909  1.3211 -2.0655
   21MOL0     H 2871  12.449  11.470  10.886 -0.6415 -0.9930 -1.2320
   21MOL0     H 2872  12.579  11.183  10.895 -2.4673  0.6675 -1.7949
   21MOL0     H 2873  12.618  11.333  10.993  1.4059  0.6758 -0.9790
   21MOL0     H 2874  12.646  11.425  10.743 -1.1593 -0.9447  0.2063
   21MOL0     H 2875  12.695  11.260  10.722 -2.3095 -1.3725  1.1462
   21MOL0     H 2876  12.852  11.300  10.931  2.9597  3.7656  2.9351
   21MOL0     H 2877  12.822  11.471  10.913 -0.2289 -0.0442  2.2935
   21MOL0     H 2878  11.769  11.563  10.822 -0.0691  0.9812  2.2925
   21MOL0     H 2879  11.558  11.461  10.721  0.0811 -2.8354 -2.3516
   21MOL0     H 2880  11.347  11.115  10.614  0.5861  1.3355 -0.2046
   21MOL0     H 2881  11.192  11.132  10.437  2.2397  1.4669 -0.3549
   21MOL0     H 2882  10.650  10.455  11.217  2.6980  2.5007  1.7895
   21MOL0     H 2883  10.910  10.479  11.256  1.2958 -2.6569 -1.6550
   21MOL0     H 2884  11.190  10.669  11.286  0.1259 -1.6576 -0.0519
   21MOL0     H 2885  11.409  10.768  11.392  1.3298  1.1371 -2.2534
   21MOL0     H 2886  11.620  10.894  11.364  1.4700  0.7189 -1.5971
   21MOL0     H 2887  11.576  10.778  11.490 -1.5876  1.6314 -1.7231
   21MOL0     H 2888  11.815  10.748  11.528 -1.1703 -1.2495 -1.1681
   21MOL0     H 2889  11.766  10.921  11.539  1.9930  0.8223 -0.9529
   21MOL0     H 2890  11.924  10.784  11.324 -1.0954 -0.6157  0.5949
   21MOL0     H 2891  11.843  10.939  11.286  1.1597  0.8746  0.6296
   21MOL0     H 2892  12.052  10.907  11.501  1.2144 -2.2029 -2.0373
   21MOL0     H 2893  11.971  11.050  11.463  0.2099 -0.1647  0.9583
   21MOL0     H 2894  12.262  11.055  11.160 -0.5745  3.8139  1.5964
   21MOL0     H 2895  11.629  10.538  11.121  0.6888  4.1377 -0.3173
   21MOL0     H 2896  11.400  10.308  11.022 -0.6704  0.6809  3.1353
   21MOL0     H 2897  11.357  10.452  10.910  0.9595 -0.3324 -1.2122
   21MOL0     H 2898  11.520  10.396  10.936  0.0825 -0.7011  0.0820
   22MOL0     O 2899   0.164   7.560   2.369 -0.2580 -0.3872  0.3727
   22MOL0     C 2900   0.217   7.632   2.282  0.1419 -0.1591 -0.6447
   22MOL0     O 2901   0.348   7.633   2.254 -0.2681  0.1238 -0.3659
   22MOL0     C 2902   0.426   7.530   2.309  0.9455  0.1451  0.1352
   22MOL0     C 2903   0.395   7.390   2.294  0.2794 -0.1235 -0.2949
   22MOL0     C 2904   0.485   7.293   2.332  0.3108  0.0793  0.0114
   22MOL0     C 2905   0.609   7.333   2.383  0.0632  0.1360 -0.2299
   22MOL0     O 2906   0.683   7.231   2.444 -0.2480 -0.4969  0.5790
   22MOL0     C 2907   0.826   7.255   2.476  0.4152  0.2139 -0.0144
   22MOL0     C 2908   0.906   7.258   2.332  0.4110  0.4397 -0.5157
   22MOL0     C 2909   1.054   7.290   2.344  0.1067 -0.7880 -0.3483
   22MOL0     C 2910   1.125   7.290   2.209 -0.7880  0.2846 -0.0852
   22MOL0     C 2911   1.276   7.307   2.222 -0.2817  0.0071  0.2066
   22MOL0     C 2912   1.343   7.304   2.078 -0.5325 -0.8783 -0.2075
   22MOL0     C 2913   1.490   7.327   2.096 -0.7033  0.1573  0.1080
   22MOL0     C 2914   1.572   7.302   1.965  0.0347 -0.6505  0.1866
   22MOL0     N 2915   1.522   7.384   1.857 -0.0570  0.4062  0.2884
   22MOL0     C 2916   1.420   7.345   1.773 -0.0091 -0.0739 -0.5324
   22MOL0     C 2917   1.391   7.463   1.707 -0.3967  0.9311 -0.1045
   22MOL0     C 2918   1.280   7.487   1.606  0.1847  0.8071  0.6296
   22MOL0     C 2919   1.151   7.558   1.669 -0.5649 -0.3033 -0.5593
   22MOL0     C 2920   1.039   7.603   1.573 -0.4302 -0.2982 -0.6576
   22MOL0     C 2921   1.064   7.725   1.485  0.5897 -1.0585  0.6464
   22MOL0     O 2922   1.053   7.850   1.561  0.5923  0.0070 -0.2571
   22MOL0     C 2923   1.161   7.923   1.611  0.8673 -0.2489  0.4082
   22MOL0     C 2924   1.296   7.890   1.591  0.6581  0.9609 -0.5834
   22MOL0     C 2925   1.399   7.970   1.636 -0.1049  0.7516  0.4002
   22MOL0     C 2926   1.534   7.899   1.637  1.1401 -0.6609 -0.4167
   22MOL0     C 2927   1.373   8.092   1.697 -0.6772 -0.3619 -0.9702
   22MOL0     C 2928   1.479   8.186   1.738 -0.1434 -0.7671 -0.6694
   22MOL0     O 2929   1.600   8.180   1.681 -1.0880 -0.7795 -0.4564
   22MOL0     C 2930   1.711   8.240   1.743  0.4792 -0.0428  0.2285
   22MOL0     C 2931   1.820   8.174   1.786 -0.0270 -0.5306  0.4081
   22MOL0     C 2932   1.936   8.243   1.843 -0.3483  0.2853 -0.7527
   22MOL0     C 2933   1.934   8.379   1.852  0.3235  0.6572 -0.9968
   22MOL0     O 2934   2.047   8.443   1.907  0.2732  0.3948 -0.0334
   22MOL0     C 2935   2.054   8.586   1.928  0.5292 -0.1724  0.8114
   22MOL0     C 2936   2.148   8.616   2.044 -0.3419  0.4891  0.6553
   22MOL0     C 2937   2.297   8.578   2.004  0.3125 -0.6722 -0.8878
   22MOL0     C 2938   2.412   8.632   2.093 -0.0849 -0.6076 -0.2679
   22MOL0     C 2939   2.542   8.615   2.016 -0.4895  0.8453 -0.4029
   22MOL0     C 2940   2.591   8.480   1.983 -0.1339 -1.3165  0.2853
   22MOL0     C 2941   2.718   8.475   1.901 -0.0839  0.6896 -0.0674
   22MOL0     C 2942   2.856   8.512   1.967  0.5474  0.0349 -0.2511
   22MOL0    Cl 2943   2.896   8.389   2.095 -0.3445 -0.3372  0.1062
   22MOL0     C 2944   1.827   8.442   1.800 -0.0257 -0.4995 -0.2514
   22MOL0     C 2945   1.710   8.378   1.758  0.1238 -0.0213 -0.1615
   22MOL0     O 2946   1.456   8.264   1.827 -0.0955  0.3290 -0.1700
   22MOL0     C 2947   1.238   8.127   1.717  0.1624 -0.4684  0.7444
   22MOL0     C 2948   1.134   8.039   1.680  0.4333  0.7025 -0.5251
   22MOL0     N 2949   1.488   7.548   1.746  0.9491 -0.6417  0.7327
   22MOL0     N 2950   1.559   7.513   1.841 -0.2588 -0.4927 -0.5375
   22MOL0     C 2951   0.643   7.468   2.390 -0.1439 -1.1882 -0.2917
   22MOL0     C 2952   0.549   7.563   2.357  0.3771 -0.1353  0.8197
   22MOL0     C 2953   0.135   7.727   2.206  0.3484  0.0006  0.3232
   22MOL0     C 2954   0.207   7.832   2.154  0.1286  0.3561 -0.4381
   22MOL0     C 2955   0.149   7.922   2.065  0.8782  0.1713  1.0916
   22MOL0     C 2956   0.016   7.933   2.033  0.9174 -0.2533 -0.1221
   22MOL0     O 2957  -0.029   8.041   1.950 -1.1034 -0.8605 -0.6700
   22MOL0     C 2958  -0.168   8.072   1.951 -0.3104 -0.1211  0.0438
   22MOL0     C 2959  -0.161   8.228   1.930 -0.5094  0.7959  0.0195
   22MOL0     C 2960  -0.117   8.307   2.056 -0.5618  0.4779  0.5053
   22MOL0     C 2961  -0.161   8.451   2.041 -1.0694  0.8566 -0.5506
   22MOL0     C 2962  -0.109   8.532   2.153  0.6856 -0.0863  0.2684
   22MOL0     C 2963  -0.083   8.600   2.250  0.5048 -0.1992 -0.8954
   22MOL0     C 2964  -0.061   7.828   2.089  0.2871  0.0288  0.3114
   22MOL0     C 2965  -0.004   7.731   2.172  0.1943 -0.2864  0.5146
   22MOL0     C 2966  -0.093   7.630   2.230 -0.4343 -0.2240  0.2003
   22MOL0     H 2967   0.303   7.355   2.247  1.0762 -1.7040 -0.7463
   22MOL0     H 2968   0.471   7.186   2.321  2.8562 -0.3453  0.2926
   22MOL0     H 2969   0.862   7.173   2.538 -1.1100  1.6963  3.0187
   22MOL0     H 2970   0.837   7.346   2.536  3.2309 -1.4573  2.2374
   22MOL0     H 2971   0.904   7.157   2.292  1.2895  0.5927 -0.9835
   22MOL0     H 2972   0.852   7.313   2.255 -3.5604 -0.3432  1.4594
   22MOL0     H 2973   1.066   7.393   2.377 -1.4368 -0.8094  0.3449
   22MOL0     H 2974   1.100   7.219   2.414  1.0779 -0.6968 -0.8642
   22MOL0     H 2975   1.105   7.189   2.171 -1.3700 -0.3812  1.8752
   22MOL0     H 2976   1.084   7.369   2.145 -2.8419  0.6893  1.6284
   22MOL0     H 2977   1.318   7.223   2.278  2.9623  1.1442 -0.2826
   22MOL0     H 2978   1.297   7.400   2.276 -0.0330 -1.1767  2.2705
   22MOL0     H 2979   1.334   7.198   2.049 -0.9092 -0.4894 -1.5717
   22MOL0     H 2980   1.283   7.372   2.017 -0.6718 -0.5397  0.3017
   22MOL0     H 2981   1.526   7.255   2.170  0.5104 -0.4736 -1.0485
   22MOL0     H 2982   1.513   7.426   2.135  0.1531  1.1798 -2.7283
   22MOL0     H 2983   1.678   7.321   1.977 -0.2047  0.3584  0.7975
   22MOL0     H 2984   1.574   7.196   1.939 -0.6840 -1.0141  1.5365
   22MOL0     H 2985   1.375   7.247   1.760  0.6428 -0.5181  0.4379
   22MOL0     H 2986   1.265   7.386   1.567 -2.5680  1.3221  0.1494
   22MOL0     H 2987   1.304   7.546   1.518 -2.3289  1.5984  0.4010
   22MOL0     H 2988   1.104   7.495   1.744 -2.6845  1.0444 -0.6850
   22MOL0     H 2989   1.187   7.653   1.710  1.0705 -0.2948 -1.9004
   22MOL0     H 2990   0.994   7.516   1.522 -1.8500 -0.6828  1.1601
   22MOL0     H 2991   0.951   7.625   1.634  0.2647 -1.8726  1.0023
   22MOL0     H 2992   1.163   7.720   1.440  0.8088 -0.4661  1.0567
   22MOL0     H 2993   0.987   7.731   1.407  1.0251 -1.0281  0.2158
   22MOL0     H 2994   1.318   7.795   1.544  0.6872  1.8878 -2.5271
   22MOL0     H 2995   1.610   7.931   1.709  1.5504  0.2425 -1.2316
   22MOL0     H 2996   1.576   7.917   1.537  3.4607 -0.6074  0.5016
   22MOL0     H 2997   1.523   7.792   1.655 -1.5154 -0.6512 -1.5188
   22MOL0     H 2998   1.822   8.069   1.760  1.5140 -0.2976 -0.5538
   22MOL0     H 2999   2.021   8.178   1.864 -1.3147  0.0378  2.9701
   22MOL0     H 3000   2.072   8.644   1.837 -3.3243  1.7055  1.0377
   22MOL0     H 3001   1.960   8.633   1.961 -0.5607 -1.2426 -0.6385
   22MOL0     H 3002   2.145   8.725   2.055  1.3115  0.8830 -1.9788
   22MOL0     H 3003   2.133   8.568   2.141 -0.2740 -1.2656 -0.1638
   22MOL0     H 3004   2.321   8.602   1.900  0.8959  0.3058 -0.5422
   22MOL0     H 3005   2.311   8.470   2.008 -0.2916 -0.7380 -0.3897
   22MOL0     H 3006   2.410   8.587   2.193 -2.7713  1.6571  0.8392
   22MOL0     H 3007   2.421   8.739   2.113 -1.0888 -0.8389  1.6496
   22MOL0     H 3008   2.548   8.681   1.928 -1.8000 -0.4843 -1.5478
   22MOL0     H 3009   2.620   8.658   2.080 -0.0964  1.3175 -1.1817
   22MOL0     H 3010   2.513   8.438   1.919 -0.7498  0.3082 -0.0702
   22MOL0     H 3011   2.602   8.418   2.073  1.1425 -1.0899  0.3153
   22MOL0     H 3012   2.701   8.537   1.813 -1.4369 -1.6322 -1.5531
   22MOL0     H 3013   2.728   8.372   1.866  0.9953  1.4054 -2.0102
   22MOL0     H 3014   2.843   8.609   2.015  1.1553  1.0037 -1.9777
   22MOL0     H 3015   2.939   8.516   1.896  0.4183  0.7299 -0.3588
   22MOL0     H 3016   1.826   8.550   1.786  1.3346 -0.7533 -2.8233
   22MOL0     H 3017   1.628   8.430   1.709 -0.3270 -0.3394  0.2520
   22MOL0     H 3018   1.211   8.229   1.742 -1.4834 -0.2650 -1.5743
   22MOL0     H 3019   1.030   8.067   1.694  0.4620  0.4306  0.2794
   22MOL0     H 3020   0.739   7.500   2.428 -0.8469 -0.6139  1.0926
   22MOL0     H 3021   0.581   7.665   2.374 -0.2505  0.3949 -0.9855
   22MOL0     H 3022   0.310   7.858   2.174 -0.1919  4.2468 -2.7918
   22MOL0     H 3023   0.216   7.999   2.031 -0.8928  1.3995  0.2350
   22MOL0     H 3024  -0.211   8.014   1.868  0.8018 -1.6855  0.5211
   22MOL0     H 3025  -0.206   8.050   2.051  2.9488  2.4696  2.0509
   22MOL0     H 3026  -0.257   8.260   1.888 -2.6778 -1.8848  2.5132
   22MOL0     H 3027  -0.082   8.246   1.857  0.0078  0.8032  0.5663
   22MOL0     H 3028  -0.187   8.263   2.128  0.8913 -0.5179  1.3432
   22MOL0     H 3029  -0.011   8.300   2.082  0.5591  0.8113 -3.3922
   22MOL0     H 3030  -0.270   8.463   2.037 -1.5470 -2.1850  0.8463
   22MOL0     H 3031  -0.129   8.495   1.945 -0.4936  0.4409 -0.5549
   22MOL0     H 3032  -0.073   8.659   2.339  1.3059 -2.1129  0.3583
   22MOL0     H 3033  -0.169   7.829   2.077  0.2917  3.1260 -0.3012
   22MOL0     H 3034  -0.114   7.665   2.331  3.8554 -3.5088  2.6355
   22MOL0     H 3035  -0.176   7.623   2.160  0.7604 -1.8942 -1.1397
   22MOL0     H 3036  -0.047   7.532   2.250  1.5232  1.3462  4.4881
   23MOL0     O 3037   5.084  11.058  10.484  0.5189 -0.6184  0.0794
   23MOL0     C 3038   4.988  11.133  10.519  0.0649  0.8096  0.8910
   23MOL0     O 3039   4.902  11.194  10.431  0.3719 -0.1496  0.9249
   23MOL0     C 3040   4.927  11.187  10.294  0.1190 -0.0803  0.4864
   23MOL0     C 3041   4.875  11.076  10.223 -0.6143 -0.3296  0.1575
   23MOL0     C 3042   4.928  11.059  10.089  0.7829 -0.1637 -0.2978
   23MOL0     C 3043   5.010  11.156  10.029  0.8532 -0.6191  0.0553
   23MOL0     O 3044   5.040  11.149   9.894 -0.2433  0.1561 -0.1460
   23MOL0     C 3045   5.170  11.187   9.845  0.1927  0.6121  0.6964
   23MOL0     C 3046   5.280  11.104   9.908 -0.3068  1.3374  0.3185
   23MOL0     C 3047   5.364  11.014   9.813  0.2000 -0.2571 -0.7100
   23MOL0     C 3048   5.287  10.891   9.762 -0.2199  1.0940 -0.2647
   23MOL0     C 3049   5.380  10.769   9.740 -0.2390  0.0505 -1.0988
   23MOL0     C 3050   5.489  10.800   9.630  0.4240 -0.8242 -1.0169
   23MOL0     C 3051   5.545  10.662   9.592 -0.1989  0.2516 -0.5356
   23MOL0     C 3052   5.658  10.681   9.494  0.3175 -1.1177 -0.2732
   23MOL0     N 3053   5.753  10.577   9.475 -0.0490 -0.0507  0.5666
   23MOL0     C 3054   5.893  10.587   9.479  0.3511 -0.3384  0.8465
   23MOL0     C 3055   5.943  10.463   9.445 -0.2118 -0.0486  0.2697
   23MOL0     C 3056   6.083  10.416   9.437 -0.0788 -0.2574  0.1157
   23MOL0     C 3057   6.153  10.442   9.571 -0.6123 -0.4496 -0.0359
   23MOL0     C 3058   6.273  10.346   9.570  0.2119 -0.0398  0.0944
   23MOL0     C 3059   6.360  10.345   9.701 -0.1396  0.4476 -0.3105
   23MOL0     O 3060   6.421  10.475   9.715 -0.2647 -0.1562  0.4325
   23MOL0     C 3061   6.448  10.515   9.843  0.0479 -0.6462 -0.5950
   23MOL0     C 3062   6.348  10.528   9.941 -0.3636  0.9374 -0.3265
   23MOL0     C 3063   6.372  10.580  10.067  0.4619 -0.6086 -0.0228
   23MOL0     C 3064   6.247  10.591  10.155  0.3071 -0.1490  0.1720
   23MOL0     C 3065   6.500  10.614  10.110  0.5862  0.2950 -0.1304
   23MOL0     C 3066   6.542  10.642  10.248  0.0869  0.4891 -0.1192
   23MOL0     O 3067   6.662  10.693  10.275  0.0176 -0.2492 -0.1150
   23MOL0     C 3068   6.710  10.737  10.399 -0.2313 -0.8189 -0.7898
   23MOL0     C 3069   6.841  10.784  10.395 -0.0028 -0.2923  0.1879
   23MOL0     C 3070   6.912  10.829  10.501 -0.7727  0.7767 -1.1703
   23MOL0     C 3071   6.854  10.836  10.629  0.1514 -1.2748 -0.1888
   23MOL0     O 3072   6.919  10.893  10.738 -0.3784  0.2397  0.4031
   23MOL0     C 3073   7.063  10.894  10.739  0.6162 -0.9405  0.1181
   23MOL0     C 3074   7.130  11.021  10.693  0.5359  0.5551  0.5178
   23MOL0     C 3075   7.276  11.008  10.680  0.5384 -0.3944 -0.3342
   23MOL0     C 3076   7.360  11.124  10.617  0.5778 -0.0187  0.2880
   23MOL0     C 3077   7.509  11.086  10.633  0.2378  0.4322 -0.2339
   23MOL0     C 3078   7.591  11.182  10.553  0.2126 -0.3344 -0.2315
   23MOL0     C 3079   7.745  11.194  10.574  0.0880  0.0963 -0.4478
   23MOL0     C 3080   7.821  11.086  10.499  0.1160  0.3250 -0.3623
   23MOL0    Cl 3081   7.981  11.140  10.446  0.5552  0.2538  0.1485
   23MOL0     C 3082   6.721  10.780  10.638  0.8126  0.5356 -0.3296
   23MOL0     C 3083   6.658  10.720  10.530  0.5395 -0.2441  0.1943
   23MOL0     O 3084   6.471  10.594  10.329  0.0595  0.3462  0.1649
   23MOL0     C 3085   6.599  10.607  10.010 -0.4625  0.7358 -0.3832
   23MOL0     C 3086   6.576  10.561   9.879  0.2513  0.1831  0.9955
   23MOL0     N 3087   5.833  10.376   9.430 -0.7264 -0.6982  0.5265
   23MOL0     N 3088   5.729  10.449   9.438  0.5288 -0.0759  0.0542
   23MOL0     C 3089   5.054  11.265  10.098  0.7010 -0.1384  0.4128
   23MOL0     C 3090   5.000  11.282  10.232 -0.1050  0.2466 -0.0209
   23MOL0     C 3091   4.956  11.143  10.659  0.4069 -0.1124  0.1462
   23MOL0     C 3092   4.820  11.169  10.688  0.0610 -0.1059 -0.2151
   23MOL0     C 3093   4.767  11.171  10.815 -0.2844 -0.2541 -0.3737
   23MOL0     C 3094   4.860  11.161  10.925 -0.1894  0.1126  0.0145
   23MOL0     O 3095   4.821  11.179  11.061  0.5705  0.0560 -0.7761
   23MOL0     C 3096   4.685  11.182  11.096 -0.2897  0.3703  0.1108
   23MOL0     C 3097   4.663  11.132  11.247  0.0502  0.1972  0.5289
   23MOL0     C 3098   4.736  11.001  11.290  0.0995  0.3599  0.3896
   23MOL0     C 3099   4.698  10.956  11.431 -0.0133 -0.4050  1.1512
   23MOL0     C 3100   4.748  11.044  11.536 -0.2870  0.0308  0.3219
   23MOL0     C 3101   4.806  11.119  11.611  0.0166 -0.2640  0.3777
   23MOL0     C 3102   4.999  11.150  10.897 -0.8976 -0.1235 -0.4038
   23MOL0     C 3103   5.047  11.126  10.766 -0.5255 -0.2151 -0.4367
   23MOL0     C 3104   5.197  11.108  10.740 -0.1585  0.2098 -0.1060
   23MOL0     H 3105   4.814  11.003  10.276  0.8056  0.4944  3.1382
   23MOL0     H 3106   4.894  10.975  10.029  0.7976  0.6912 -1.5461
   23MOL0     H 3107   5.186  11.294   9.860  1.0445  0.6494 -0.3650
   23MOL0     H 3108   5.160  11.175   9.737 -1.2582  3.5512  0.4013
   23MOL0     H 3109   5.357  11.167   9.953  1.0292  2.5194 -3.2439
   23MOL0     H 3110   5.247  11.046   9.994  0.6331 -0.3643 -0.4170
   23MOL0     H 3111   5.393  11.064   9.720  1.3892 -3.0979 -1.9775
   23MOL0     H 3112   5.453  10.987   9.870  0.0461  0.0919 -0.2991
   23MOL0     H 3113   5.210  10.864   9.836  0.4949  2.9200  1.2480
   23MOL0     H 3114   5.232  10.918   9.671 -4.2484 -0.6235  1.3839
   23MOL0     H 3115   5.315  10.685   9.712  1.5063 -0.7696 -2.9601
   23MOL0     H 3116   5.429  10.732   9.831 -0.5755 -1.4429 -1.4968
   23MOL0     H 3117   5.443  10.838   9.538 -2.7103  1.3370  1.2218
   23MOL0     H 3118   5.555  10.872   9.678  0.4672 -2.4522  1.5816
   23MOL0     H 3119   5.469  10.593   9.555  1.3578 -2.9623  1.8171
   23MOL0     H 3120   5.585  10.618   9.683 -1.1491  0.8603  0.1976
   23MOL0     H 3121   5.606  10.713   9.403  2.1919  0.3206 -0.9063
   23MOL0     H 3122   5.717  10.765   9.532 -0.3680 -0.4501 -0.6660
   23MOL0     H 3123   5.952  10.676   9.500 -0.0077 -0.5987  3.1164
   23MOL0     H 3124   6.145  10.459   9.358 -0.4151  1.4812  0.7588
   23MOL0     H 3125   6.082  10.311   9.407  3.4818 -0.2909 -0.2515
   23MOL0     H 3126   6.200  10.539   9.587  0.2628 -1.0209  1.0745
   23MOL0     H 3127   6.088  10.424   9.658 -1.0910  1.3286  0.0065
   23MOL0     H 3128   6.252  10.242   9.543 -0.5034 -0.0715  0.7385
   23MOL0     H 3129   6.342  10.366   9.487 -1.9054  0.8764 -1.5600
   23MOL0     H 3130   6.291  10.317   9.782 -0.0324  1.2141  0.0579
   23MOL0     H 3131   6.436  10.266   9.699 -4.2204 -3.9171 -0.3965
   23MOL0     H 3132   6.245  10.512   9.913  0.3490  1.1225 -3.4794
   23MOL0     H 3133   6.157  10.569  10.098  1.7269 -0.8410 -1.9240
   23MOL0     H 3134   6.241  10.695  10.188  0.3608 -0.2575  0.5302
   23MOL0     H 3135   6.253  10.524  10.242  1.6338 -1.7117 -1.0378
   23MOL0     H 3136   6.893  10.785  10.300  2.0357 -1.0124  1.2242
   23MOL0     H 3137   7.015  10.855  10.479 -0.3207 -0.4721 -0.6693
   23MOL0     H 3138   7.112  10.887  10.837  8.3383  1.0493 -2.8432
   23MOL0     H 3139   7.098  10.807  10.683  2.9065 -0.3549  0.5169
   23MOL0     H 3140   7.095  11.063  10.599  1.8398  1.8853  0.5817
   23MOL0     H 3141   7.106  11.092  10.773  0.2283 -0.3204  1.2190
   23MOL0     H 3142   7.299  10.912  10.634  0.0302 -0.5835 -0.1912
   23MOL0     H 3143   7.311  11.009  10.784  0.6376 -0.7931 -0.3642
   23MOL0     H 3144   7.327  11.217  10.666  0.7285  0.3392 -0.2796
   23MOL0     H 3145   7.331  11.135  10.512  1.2804  2.5441  0.2928
   23MOL0     H 3146   7.539  11.096  10.738  3.2177  0.6071 -1.0163
   23MOL0     H 3147   7.535  10.986  10.599  1.9750  0.8445 -0.2335
   23MOL0     H 3148   7.563  11.286  10.573  3.7774  0.9940 -1.3839
   23MOL0     H 3149   7.563  11.168  10.448 -0.6394  0.5418 -0.1424
   23MOL0     H 3150   7.769  11.187  10.680 -0.6023 -1.5056 -0.3558
   23MOL0     H 3151   7.783  11.292  10.545  1.1435  0.1491  1.0137
   23MOL0     H 3152   7.758  11.066  10.411  2.0369 -1.0585 -1.5042
   23MOL0     H 3153   7.829  10.992  10.554  0.8277  0.8097  0.3779
   23MOL0     H 3154   6.673  10.776  10.735  2.1451 -1.0420  0.3269
   23MOL0     H 3155   6.564  10.665  10.539  0.4477 -0.5859 -2.0688
   23MOL0     H 3156   6.702  10.628  10.038 -1.1377 -1.2383  4.5214
   23MOL0     H 3157   6.650  10.554   9.799 -1.9123  1.3670 -1.2438
   23MOL0     H 3158   5.118  11.344  10.060  0.8980 -1.7100 -2.8179
   23MOL0     H 3159   5.019  11.368  10.295  0.3908  0.7752 -0.8717
   23MOL0     H 3160   4.746  11.185  10.610  0.1709  2.1594  0.0589
   23MOL0     H 3161   4.662  11.196  10.830  0.2554  2.4180 -0.5860
   23MOL0     H 3162   4.653  11.286  11.087  0.9088  0.8227  0.8571
   23MOL0     H 3163   4.633  11.118  11.024 -0.2325  0.0377  0.3599
   23MOL0     H 3164   4.554  11.126  11.251 -0.0320 -0.7399 -1.7708
   23MOL0     H 3165   4.696  11.207  11.320 -1.9260  0.6522  1.0163
   23MOL0     H 3166   4.701  10.921  11.224  2.3569  1.2720 -2.1360
   23MOL0     H 3167   4.844  11.003  11.272 -0.0041  0.9619 -0.2054
   23MOL0     H 3168   4.747  10.859  11.445 -1.8019 -1.4886  0.2906
   23MOL0     H 3169   4.590  10.943  11.445 -0.2521 -0.9729 -0.9721
   23MOL0     H 3170   4.859  11.197  11.662  1.2287  1.2725 -2.9347
   23MOL0     H 3171   5.069  11.163  10.979 -0.1759  3.5061 -1.4382
   23MOL0     H 3172   5.228  11.170  10.655  0.6705  2.6142  1.8317
   23MOL0     H 3173   5.247  11.145  10.830 -0.3945  3.3797 -1.1503
   23MOL0     H 3174   5.218  11.001  10.730 -0.9090  0.0900 -0.5058
   24MOL0     O 3175  10.166   3.865  11.041 -0.0978 -0.1076 -0.6099
   24MOL0     C 3176  10.125   3.769  10.972  1.1136  0.8039  0.3078
   24MOL0     O 3177  10.196   3.695  10.878  0.3872  0.0490  0.2329
   24MOL0     C 3178  10.333   3.717  10.871  0.0108 -0.1197  0.4841
   24MOL0     C 3179  10.421   3.738  10.976 -0.3805  0.5310  0.0388
   24MOL0     C 3180  10.561   3.742  10.974 -0.3830 -0.5054  1.0907
   24MOL0     C 3181  10.612   3.723  10.847 -0.2003  0.6913  0.6004
   24MOL0     O 3182  10.744   3.731  10.822 -0.0505  0.4720  0.1054
   24MOL0     C 3183  10.820   3.631  10.898  0.3337 -0.4253 -0.9751
   24MOL0     C 3184  10.948   3.594  10.837 -0.5073  0.2354 -0.1950
   24MOL0     C 3185  10.922   3.497  10.725  0.9519  0.7640  0.1232
   24MOL0     C 3186  10.886   3.559  10.595  0.2426 -1.0189 -0.1499
   24MOL0     C 3187  10.949   3.485  10.479 -0.5668  0.2233  0.6787
   24MOL0     C 3188  10.943   3.567  10.341  0.3500  0.1797  0.6088
   24MOL0     C 3189  10.800   3.590  10.295  1.0417  0.1452  0.5082
   24MOL0     C 3190  10.726   3.472  10.227 -0.4598  0.2376 -0.2720
   24MOL0     N 3191  10.591   3.511  10.190  0.2378  0.2321  0.0768
   24MOL0     C 3192  10.546   3.584  10.085  0.4602  0.3132 -0.7278
   24MOL0     C 3193  10.406   3.568  10.095 -0.3132 -0.3105  0.4244
   24MOL0     C 3194  10.313   3.637   9.997 -0.0386  0.2706  0.5533
   24MOL0     C 3195  10.327   3.581   9.855  0.7162  0.1399  0.2612
   24MOL0     C 3196  10.294   3.437   9.848 -0.6310 -0.6764  0.7400
   24MOL0     C 3197  10.411   3.334   9.869 -0.7154 -0.1110 -0.6201
   24MOL0     O 3198  10.490   3.293   9.754 -0.2003 -0.1431 -0.3784
   24MOL0     C 3199  10.444   3.183   9.678 -0.1068 -0.3560  0.2949
   24MOL0     C 3200  10.327   3.113   9.686  0.0050  0.6186 -0.3641
   24MOL0     C 3201  10.311   2.989   9.624  0.0577 -1.5802 -0.4338
   24MOL0     C 3202  10.185   2.921   9.639  1.1933 -0.2620  0.9711
   24MOL0     C 3203  10.416   2.943   9.542 -0.3064  0.6178  0.3873
   24MOL0     C 3204  10.407   2.833   9.440 -0.6545 -1.0249  0.2614
   24MOL0     O 3205  10.497   2.837   9.342  0.0414  0.3009 -0.3800
   24MOL0     C 3206  10.456   2.787   9.219 -0.6608 -0.1299 -0.7013
   24MOL0     C 3207  10.570   2.744   9.150  0.9223  0.3818  0.0293
   24MOL0     C 3208  10.552   2.687   9.026 -0.2659 -0.0877 -0.9373
   24MOL0     C 3209  10.427   2.663   8.969  0.6042 -0.1919 -0.1254
   24MOL0     O 3210  10.398   2.607   8.842 -0.1233 -0.2563 -0.4875
   24MOL0     C 3211  10.501   2.574   8.744 -0.6222  0.5932 -0.2952
   24MOL0     C 3212  10.565   2.442   8.775  0.4094  0.0978 -1.1537
   24MOL0     C 3213  10.696   2.415   8.698 -0.0778  0.2636 -0.2917
   24MOL0     C 3214  10.816   2.435   8.785 -0.2502 -0.0751  0.4553
   24MOL0     C 3215  10.950   2.427   8.715 -0.2573  0.3057  0.0615
   24MOL0     C 3216  10.967   2.318   8.609  0.4385 -0.7648  0.3494
   24MOL0     C 3217  11.106   2.317   8.539  0.7210 -0.3941  0.6673
   24MOL0     C 3218  11.098   2.237   8.409  0.5963 -0.0939  0.1717
   24MOL0    Cl 3219  11.084   2.061   8.456  0.0738 -0.2060 -0.1696
   24MOL0     C 3220  10.315   2.715   9.044  0.5708 -0.2296  0.4095
   24MOL0     C 3221  10.333   2.767   9.171 -0.9595 -0.3476 -0.2239
   24MOL0     O 3222  10.334   2.746   9.463 -0.2994 -0.7699 -0.2066
   24MOL0     C 3223  10.542   3.014   9.534  0.6773 -0.3636  0.4179
   24MOL0     C 3224  10.554   3.135   9.607  0.1485  0.2795 -0.3632
   24MOL0     N 3225  10.372   3.484  10.194 -0.0558 -0.8589 -0.0207
   24MOL0     N 3226  10.485   3.450  10.248  0.1889 -0.1422 -0.3847
   24MOL0     C 3227  10.532   3.697  10.737  0.4261  0.6085 -0.2230
   24MOL0     C 3228  10.388   3.701  10.745 -1.0610  0.4712  1.3773
   24MOL0     C 3229  10.000   3.706  11.035 -0.2320 -1.4281 -0.4059
   24MOL0     C 3230   9.972   3.734  11.171  0.1509  0.4702 -0.1947
   24MOL0     C 3231   9.851   3.683  11.223  0.2291 -0.4882  0.9699
   24MOL0     C 3232   9.766   3.601  11.146 -0.4301 -1.0038 -0.0341
   24MOL0     O 3233   9.658   3.547  11.205  0.2009  0.9271  0.9528
   24MOL0     C 3234   9.567   3.634  11.283 -0.0493  0.3252 -0.2806
   24MOL0     C 3235   9.427   3.674  11.213 -0.7977 -0.2525 -0.6043
   24MOL0     C 3236   9.431   3.807  11.143 -0.6568 -0.1947 -0.0107
   24MOL0     C 3237   9.443   3.916  11.247  0.4290 -0.5100 -0.9000
   24MOL0     C 3238   9.531   4.025  11.193  0.4225 -0.1434 -0.1065
   24MOL0     C 3239   9.607   4.102  11.144 -1.1667 -0.5973 -0.2625
   24MOL0     C 3240   9.802   3.565  11.019 -0.2303  0.1105 -0.5096
   24MOL0     C 3241   9.915   3.625  10.955  0.3832  0.4956 -1.0060
   24MOL0     C 3242   9.932   3.580  10.812  0.6575  0.0245  0.4806
   24MOL0     H 3243  10.387   3.738  11.079  3.0900  0.0235  1.3329
   24MOL0     H 3244  10.615   3.767  11.065 -0.4870 -2.2577  1.6627
   24MOL0     H 3245  10.754   3.548  10.924 -1.3117  0.3403 -2.4448
   24MOL0     H 3246  10.842   3.674  10.996  1.5114 -0.5536 -1.1654
   24MOL0     H 3247  11.006   3.675  10.792 -2.7217  2.7094  1.0477
   24MOL0     H 3248  11.004   3.552  10.921 -0.0375  1.6414  0.2291
   24MOL0     H 3249  11.015   3.441  10.707  2.6698  3.2070  0.8892
   24MOL0     H 3250  10.843   3.426  10.751  2.7736 -0.5956  2.3004
   24MOL0     H 3251  10.777   3.548  10.594  0.1625 -0.5618 -2.2765
   24MOL0     H 3252  10.903   3.667  10.590 -4.3169 -0.1169 -0.7665
   24MOL0     H 3253  10.902   3.386  10.480 -1.8983  0.8264  0.7059
   24MOL0     H 3254  11.053   3.465  10.504 -1.0322 -2.4968  0.7139
   24MOL0     H 3255  10.988   3.666  10.353  2.1332 -0.4277 -0.6387
   24MOL0     H 3256  10.994   3.511  10.263  0.9973 -0.7121  1.6381
   24MOL0     H 3257  10.805   3.678  10.229  1.0737 -0.2387 -0.0087
   24MOL0     H 3258  10.737   3.633  10.374  2.3598  2.3316  0.4592
   24MOL0     H 3259  10.783   3.430  10.144  0.7679  0.1225  0.6050
   24MOL0     H 3260  10.712   3.385  10.292 -1.8720  0.3911 -0.3376
   24MOL0     H 3261  10.599   3.641  10.010 -2.2415  4.2612  0.0578
   24MOL0     H 3262  10.318   3.746   9.991 -6.2740  0.8611 -1.6009
   24MOL0     H 3263  10.206   3.631  10.019 -1.6158  2.6302 -4.8617
   24MOL0     H 3264  10.263   3.635   9.785  1.8647 -0.3399 -1.2035
   24MOL0     H 3265  10.428   3.606   9.823  1.4698 -1.3991  1.3189
   24MOL0     H 3266  10.213   3.423   9.920  0.1576  0.7373  1.9606
   24MOL0     H 3267  10.263   3.419   9.745  2.0297 -0.6818 -0.1284
   24MOL0     H 3268  10.484   3.372   9.942 -0.0409 -1.4146 -0.5996
   24MOL0     H 3269  10.362   3.244   9.907  1.1516 -1.1095 -0.4503
   24MOL0     H 3270  10.249   3.166   9.739 -0.9071  3.0078 -3.7900
   24MOL0     H 3271  10.144   2.884   9.544 -0.3243  2.4953  0.4566
   24MOL0     H 3272  10.108   2.989   9.676 -0.7867 -1.7849 -0.1302
   24MOL0     H 3273  10.198   2.829   9.696  3.9786  0.5961  1.9030
   24MOL0     H 3274  10.665   2.775   9.193 -0.2428  2.1515  1.5048
   24MOL0     H 3275  10.637   2.646   8.972 -1.8226 -3.2861 -1.2204
   24MOL0     H 3276  10.457   2.559   8.645  0.1822 -2.4263 -0.2964
   24MOL0     H 3277  10.567   2.662   8.741 -3.5976  2.9550 -1.4551
   24MOL0     H 3278  10.581   2.461   8.882  0.3466  1.3169 -1.3464
   24MOL0     H 3279  10.490   2.362   8.766 -0.5923  0.0286  4.2302
   24MOL0     H 3280  10.709   2.476   8.609  3.1380  3.0359  1.8633
   24MOL0     H 3281  10.698   2.310   8.666 -2.2866  0.5905 -1.6926
   24MOL0     H 3282  10.803   2.353   8.857  0.6076 -1.7976 -1.2705
   24MOL0     H 3283  10.810   2.533   8.833 -0.7877 -0.2102  0.6751
   24MOL0     H 3284  10.963   2.525   8.669 -2.0642 -0.3407 -1.9725
   24MOL0     H 3285  11.026   2.406   8.791 -2.2505 -2.1900  1.5008
   24MOL0     H 3286  10.891   2.329   8.531 -0.7774 -0.8662  1.4822
   24MOL0     H 3287  10.939   2.221   8.649 -2.3430 -0.4060 -0.4882
   24MOL0     H 3288  11.185   2.286   8.608  2.7815 -0.1875 -1.4899
   24MOL0     H 3289  11.136   2.420   8.518 -0.2262 -0.3908 -0.7869
   24MOL0     H 3290  11.194   2.248   8.358  0.5531  0.0965  0.1280
   24MOL0     H 3291  11.015   2.281   8.352  1.1362 -0.2945 -0.7942
   24MOL0     H 3292  10.220   2.698   8.995 -0.5968  5.5546 -0.0842
   24MOL0     H 3293  10.244   2.788   9.230 -1.0909 -1.4469  0.0008
   24MOL0     H 3294  10.620   2.984   9.465  2.2862 -0.5389  2.2261
   24MOL0     H 3295  10.642   3.197   9.599  0.7814 -0.5644 -0.0912
   24MOL0     H 3296  10.582   3.682  10.642 -2.8978 -2.9637 -1.6675
   24MOL0     H 3297  10.335   3.707  10.650  0.9877 -0.2361  0.1392
   24MOL0     H 3298  10.038   3.794  11.233 -0.1010  0.5846 -0.0346
   24MOL0     H 3299   9.820   3.717  11.321  0.9039  1.1024  0.6583
   24MOL0     H 3300   9.544   3.582  11.377 -2.2191  1.9667  0.1816
   24MOL0     H 3301   9.620   3.726  11.310  1.1264 -0.2491 -0.5506
   24MOL0     H 3302   9.348   3.668  11.288 -1.0881  1.4175 -0.7381
   24MOL0     H 3303   9.413   3.597  11.137  0.1256 -2.0109  0.9032
   24MOL0     H 3304   9.514   3.815  11.072  0.2732  0.1984  1.0817
   24MOL0     H 3305   9.333   3.824  11.099 -0.4164 -1.3276 -1.0514
   24MOL0     H 3306   9.471   3.880  11.346 -1.9154  0.7306  0.2904
   24MOL0     H 3307   9.345   3.964  11.259  1.3675  1.8545 -1.9355
   24MOL0     H 3308   9.675   4.169  11.096 -0.9975 -0.1689  0.5488
   24MOL0     H 3309   9.740   3.489  10.972  1.0976 -0.6431 -1.1010
   24MOL0     H 3310  10.011   3.504  10.810  1.1078  0.4827  0.9041
   24MOL0     H 3311   9.841   3.547  10.760  1.0002 -0.5246  0.2214
   24MOL0     H 3312   9.966   3.667  10.756 -1.2746  0.0593 -0.7459
   25MOL0     O 3313   6.799  11.052   3.098  0.0242  0.4921  0.2420
   25MOL0     C 3314   6.697  11.087   3.158  0.5223  0.7119  0.0943
   25MOL0     O 3315   6.699  11.195   3.244  0.2465 -0.6964  0.0494
   25MOL0     C 3316   6.803  11.287   3.224  0.0870 -0.1815  0.7616
   25MOL0     C 3317   6.917  11.306   3.313  0.4359  0.0342 -0.9321
   25MOL0     C 3318   7.014  11.401   3.291 -0.1032 -0.1853 -0.3102
   25MOL0     C 3319   7.011  11.481   3.173  0.9831 -0.3352  0.5818
   25MOL0     O 3320   7.085  11.592   3.143  0.1040  0.6293  0.1566
   25MOL0     C 3321   7.214  11.600   3.194 -0.0247 -0.4727  0.5315
   25MOL0     C 3322   7.309  11.651   3.083 -0.2781  0.5934  0.1103
   25MOL0     C 3323   7.354  11.551   2.988  0.3970  1.5882  0.4924
   25MOL0     C 3324   7.246  11.512   2.890  0.4042  0.0858 -0.3565
   25MOL0     C 3325   7.290  11.385   2.814 -0.4863  0.8319 -0.4364
   25MOL0     C 3326   7.422  11.389   2.733  0.3906  0.6092  0.1808
   25MOL0     C 3327   7.432  11.264   2.650  0.4775  0.3366 -0.8007
   25MOL0     C 3328   7.433  11.134   2.736 -0.3673  0.2450 -0.1355
   25MOL0     N 3329   7.485  11.019   2.659 -0.2783 -0.0903  0.3622
   25MOL0     C 3330   7.544  10.906   2.708 -0.2880 -0.3198  0.0388
   25MOL0     C 3331   7.594  10.837   2.603  0.1505 -0.5197  0.2334
   25MOL0     C 3332   7.663  10.705   2.596 -0.9616  0.0669  0.1547
   25MOL0     C 3333   7.711  10.650   2.733 -0.6491 -0.2376 -0.4312
   25MOL0     C 3334   7.822  10.730   2.811  0.1525  1.1052  0.2505
   25MOL0     C 3335   7.814  10.716   2.965 -0.6972 -0.5341  0.3257
   25MOL0     O 3336   7.690  10.760   3.018  0.3279 -0.4657  0.9425
   25MOL0     C 3337   7.722  10.861   3.112 -0.5539  0.4539 -0.0769
   25MOL0     C 3338   7.721  10.828   3.247 -0.2181  0.6777  0.2485
   25MOL0     C 3339   7.739  10.928   3.341 -0.6301 -0.2792 -0.1830
   25MOL0     C 3340   7.697  10.897   3.480 -0.4589 -0.3567  0.5237
   25MOL0     C 3341   7.769  11.062   3.306  0.2982  0.6405  0.5053
   25MOL0     C 3342   7.789  11.173   3.397  0.9233  0.2577 -0.9906
   25MOL0     O 3343   7.778  11.304   3.353  0.5163  0.8471 -0.0528
   25MOL0     C 3344   7.782  11.410   3.431  0.5961 -0.0816 -0.7906
   25MOL0     C 3345   7.730  11.420   3.557 -0.6728  0.5241 -0.4797
   25MOL0     C 3346   7.735  11.542   3.633 -0.6986  1.0178  0.5296
   25MOL0     C 3347   7.825  11.643   3.597 -0.7695 -0.2342  0.0788
   25MOL0     O 3348   7.856  11.761   3.669  0.5868  1.3090  0.1834
   25MOL0     C 3349   7.901  11.714   3.798  0.9774  0.7600 -0.5386
   25MOL0     C 3350   7.892  11.820   3.909 -0.0401 -0.4164 -0.0937
   25MOL0     C 3351   7.950  11.954   3.858  0.4428  0.3837  0.7758
   25MOL0     C 3352   8.099  11.945   3.824  0.6166  0.1069  0.3085
   25MOL0     C 3353   8.153  12.083   3.815 -0.2612 -0.1794 -0.1089
   25MOL0     C 3354   8.161  12.154   3.683  0.7351  0.1139  0.2978
   25MOL0     C 3355   8.273  12.102   3.590 -0.3869  1.0108 -0.3880
   25MOL0     C 3356   8.235  11.987   3.499 -0.6642 -0.8529 -0.2718
   25MOL0    Cl 3357   8.387  11.908   3.455  0.2328  0.4573  0.3362
   25MOL0     C 3358   7.874  11.639   3.466 -0.3783 -0.0765  0.3221
   25MOL0     C 3359   7.854  11.522   3.387  0.6432  0.2317  0.9117
   25MOL0     O 3360   7.835  11.142   3.508 -0.6459 -0.8481 -1.2969
   25MOL0     C 3361   7.738  11.098   3.175  0.2265  0.2336  0.6086
   25MOL0     C 3362   7.725  10.997   3.071 -0.6348  0.1325 -0.6628
   25MOL0     N 3363   7.546  10.899   2.490  0.0578  0.8511 -1.0766
   25MOL0     N 3364   7.487  11.005   2.520  0.1426  0.4632  0.2667
   25MOL0     C 3365   6.903  11.461   3.097  0.1835  0.0704  0.1034
   25MOL0     C 3366   6.798  11.374   3.117 -0.2789  0.7442  0.2145
   25MOL0     C 3367   6.577  11.005   3.130 -1.0006 -0.3404 -0.0976
   25MOL0     C 3368   6.476  11.022   3.229  1.0193  0.4651 -0.7320
   25MOL0     C 3369   6.359  10.945   3.234  0.3717  0.1358  0.1431
   25MOL0     C 3370   6.336  10.852   3.136  0.6240  0.4197  0.0545
   25MOL0     O 3371   6.219  10.789   3.137  0.6640 -0.3716 -0.3811
   25MOL0     C 3372   6.200  10.690   3.040 -0.3813  0.2370 -0.3325
   25MOL0     C 3373   6.085  10.607   3.081  0.1022  0.7586  0.1361
   25MOL0     C 3374   6.107  10.541   3.222  0.3661 -1.1391 -0.3362
   25MOL0     C 3375   5.978  10.507   3.287 -0.8887 -0.4003  0.1112
   25MOL0     C 3376   5.916  10.397   3.208  0.0593  0.2088  0.4548
   25MOL0     C 3377   5.862  10.309   3.144  0.0456  0.9674 -0.1065
   25MOL0     C 3378   6.439  10.834   3.033 -0.3275  0.1092 -0.6106
   25MOL0     C 3379   6.559  10.904   3.027  0.3562  0.0045 -1.0435
   25MOL0     C 3380   6.656  10.856   2.930 -0.2788 -0.5482  0.2179
   25MOL0     H 3381   6.916  11.245   3.403 -2.4813  1.1461 -0.0932
   25MOL0     H 3382   7.096  11.416   3.361  1.7904 -1.5700 -2.1127
   25MOL0     H 3383   7.252  11.504   3.231  2.4600  1.3211  3.0810
   25MOL0     H 3384   7.214  11.668   3.280  0.4112  2.2808 -1.5403
   25MOL0     H 3385   7.259  11.730   3.028  1.8176  1.4656 -0.6386
   25MOL0     H 3386   7.395  11.691   3.138  1.2603 -2.8753  0.5000
   25MOL0     H 3387   7.437  11.602   2.938  2.0981  0.1018  1.6561
   25MOL0     H 3388   7.390  11.458   3.032 -0.3556  0.0157 -2.0384
   25MOL0     H 3389   7.150  11.487   2.937  0.1173  1.6382 -0.0655
   25MOL0     H 3390   7.217  11.588   2.816 -0.4509 -0.7841 -0.9320
   25MOL0     H 3391   7.210  11.368   2.741 -0.2029  1.9184 -1.0115
   25MOL0     H 3392   7.287  11.296   2.879 -2.5197  0.5639 -0.8367
   25MOL0     H 3393   7.431  11.478   2.670  1.5351  0.1566 -0.3235
   25MOL0     H 3394   7.504  11.388   2.806 -0.9589  0.0243  1.7426
   25MOL0     H 3395   7.525  11.274   2.592  0.4397 -0.2305 -0.9663
   25MOL0     H 3396   7.348  11.249   2.581 -1.6029 -5.7064  2.3513
   25MOL0     H 3397   7.485  11.154   2.829 -0.5224 -0.0571  0.0192
   25MOL0     H 3398   7.332  11.105   2.767 -0.5987 -1.4810 -2.2395
   25MOL0     H 3399   7.547  10.870   2.810 -1.4843 -0.2569  0.1060
   25MOL0     H 3400   7.750  10.716   2.529 -1.1067  0.0346 -0.0387
   25MOL0     H 3401   7.595  10.631   2.554  1.5092 -1.3604 -1.5755
   25MOL0     H 3402   7.623  10.639   2.797  0.1925  0.9528  1.0174
   25MOL0     H 3403   7.748  10.548   2.723 -1.1773 -0.6968  1.7103
   25MOL0     H 3404   7.920  10.703   2.770 -0.9246 -0.5066 -1.3846
   25MOL0     H 3405   7.811  10.837   2.790 -0.3226  1.2802  1.3703
   25MOL0     H 3406   7.830  10.612   2.993  2.6639 -0.6217 -1.4239
   25MOL0     H 3407   7.893  10.783   3.001 -4.8511  3.9902  2.0808
   25MOL0     H 3408   7.707  10.724   3.277  0.1307  0.4533 -0.3341
   25MOL0     H 3409   7.790  10.874   3.532  1.3777  1.5067 -1.7252
   25MOL0     H 3410   7.632  10.808   3.479 -2.1830  0.8009 -2.6215
   25MOL0     H 3411   7.646  10.972   3.541  1.3424 -0.7973  2.7401
   25MOL0     H 3412   7.676  11.331   3.590 -0.1322  0.6486  0.7775
   25MOL0     H 3413   7.684  11.544   3.729  3.5261  0.5043  3.0285
   25MOL0     H 3414   7.850  11.622   3.829  5.6080 -2.2598 -0.8461
   25MOL0     H 3415   8.005  11.683   3.788  0.6147 -1.1833  1.1140
   25MOL0     H 3416   7.789  11.822   3.944 -0.4463 -2.6035 -1.0240
   25MOL0     H 3417   7.935  11.790   4.005 -3.8284  0.1164  1.9393
   25MOL0     H 3418   7.934  12.023   3.941 -1.8544 -0.4620  1.1262
   25MOL0     H 3419   7.900  11.988   3.767  2.4161  1.1396 -0.0814
   25MOL0     H 3420   8.126  11.887   3.735  4.5898 -0.6723  1.8355
   25MOL0     H 3421   8.152  11.908   3.912  1.6093  0.5445 -0.0930
   25MOL0     H 3422   8.091  12.149   3.876 -0.7037 -1.1937  0.5751
   25MOL0     H 3423   8.256  12.069   3.849 -0.1262 -2.7139 -1.3381
   25MOL0     H 3424   8.193  12.254   3.712  2.2941  0.3204 -1.8890
   25MOL0     H 3425   8.066  12.160   3.628  0.6727 -3.9243 -0.3284
   25MOL0     H 3426   8.349  12.057   3.654 -4.0627 -2.9317  1.7461
   25MOL0     H 3427   8.308  12.185   3.527 -1.8709  2.0959  0.1456
   25MOL0     H 3428   8.194  12.033   3.409  2.5923 -0.7227 -1.8359
   25MOL0     H 3429   8.160  11.924   3.548  1.5458 -2.4214  1.2712
   25MOL0     H 3430   7.917  11.734   3.434  0.1631 -0.5570 -0.4128
   25MOL0     H 3431   7.892  11.510   3.286  0.7016 -2.1542  1.1439
   25MOL0     H 3432   7.744  11.198   3.133  1.2976 -0.1871 -0.2940
   25MOL0     H 3433   7.697  11.013   2.967  0.9369  0.0035 -1.1343
   25MOL0     H 3434   6.899  11.523   3.007  2.7552  0.0896 -0.0790
   25MOL0     H 3435   6.718  11.359   3.045 -0.8525  0.3622  0.9152
   25MOL0     H 3436   6.485  11.096   3.308 -2.5096 -1.7979  2.1426
   25MOL0     H 3437   6.277  10.964   3.302  1.3687 -2.7736  2.3507
   25MOL0     H 3438   6.194  10.730   2.939 -3.5825 -3.5803 -1.9167
   25MOL0     H 3439   6.288  10.624   3.038  2.0697  3.0978 -4.8475
   25MOL0     H 3440   6.077  10.530   3.004 -1.5524 -0.8379  1.7821
   25MOL0     H 3441   5.992  10.665   3.083  0.2511  1.0038 -0.1137
   25MOL0     H 3442   6.163  10.448   3.207  0.3193 -1.5376  1.6574
   25MOL0     H 3443   6.167  10.605   3.287  1.0870  0.5829 -2.5738
   25MOL0     H 3444   5.908  10.591   3.292 -0.1817  0.2826 -1.0153
   25MOL0     H 3445   5.992  10.488   3.394 -0.4913  0.1132  0.1547
   25MOL0     H 3446   5.819  10.242   3.072 -0.4508  0.4881  0.6296
   25MOL0     H 3447   6.422  10.754   2.962 -1.7488  1.9927 -2.5535
   25MOL0     H 3448   6.726  10.779   2.962  0.4786 -0.2602 -0.6882
   25MOL0     H 3449   6.603  10.809   2.846 -1.5770  0.1266  0.6244
   25MOL0     H 3450   6.712  10.941   2.890 -0.5103  0.4394  1.8987
   26MOL0     O 3451  10.001   6.799   2.528  0.5467  0.0944 -0.4227
   26MOL0     C 3452  10.039   6.685   2.506  0.1558 -0.2211  0.9632
   26MOL0     O 3453  10.037   6.629   2.385  0.6216  0.2347 -0.0880
   26MOL0     C 3454   9.977   6.692   2.282  0.1189 -0.2324 -0.0983
   26MOL0     C 3455   9.850   6.750   2.290 -0.4272  0.8130 -0.0466
   26MOL0     C 3456   9.794   6.822   2.188  0.5530  0.1940  0.3832
   26MOL0     C 3457   9.867   6.838   2.067 -0.1203 -0.0110 -0.6280
   26MOL0     O 3458   9.816   6.902   1.961  0.3896 -0.4053 -0.3494
   26MOL0     C 3459   9.676   6.902   1.941  0.9127  0.0951  1.2425
   26MOL0     C 3460   9.653   6.958   1.808 -0.1549 -0.4956  0.1253
   26MOL0     C 3461   9.505   6.965   1.787  0.4213 -0.6275  0.1559
   26MOL0     C 3462   9.455   6.979   1.643  0.6696  0.2000  0.6876
   26MOL0     C 3463   9.304   6.954   1.627  0.7550 -0.5374  0.3245
   26MOL0     C 3464   9.289   6.937   1.475  1.0625  0.3781 -0.4461
   26MOL0     C 3465   9.142   6.889   1.449 -0.2152 -0.2573  0.1987
   26MOL0     C 3466   9.137   6.740   1.460  0.8752  0.1942 -0.7412
   26MOL0     N 3467   9.006   6.687   1.406  0.5747  0.3910  0.0557
   26MOL0     C 3468   8.892   6.669   1.489 -0.0195 -0.2158  0.2722
   26MOL0     C 3469   8.798   6.626   1.405  0.0758  0.1932 -1.0479
   26MOL0     C 3470   8.655   6.578   1.443 -1.1197  0.6988  0.7419
   26MOL0     C 3471   8.589   6.504   1.323 -0.2009  0.0599 -0.5425
   26MOL0     C 3472   8.623   6.350   1.313  0.1214 -0.0576 -0.8752
   26MOL0     C 3473   8.766   6.320   1.255  0.3622  0.0230 -0.1778
   26MOL0     O 3474   8.804   6.183   1.246 -0.1861  1.0755 -0.4886
   26MOL0     C 3475   8.944   6.168   1.245  0.3915 -0.0873 -0.9625
   26MOL0     C 3476   9.040   6.269   1.214 -0.6117  1.1566 -0.7539
   26MOL0     C 3477   9.178   6.235   1.220  0.1951  0.3602 -0.4828
   26MOL0     C 3478   9.281   6.350   1.193 -0.8613  0.0145 -0.4089
   26MOL0     C 3479   9.213   6.100   1.256 -0.0113 -0.0403 -0.3107
   26MOL0     C 3480   9.349   6.047   1.280 -0.0637 -0.7218  0.3518
   26MOL0     O 3481   9.449   6.135   1.281  0.4484 -0.1031 -0.4313
   26MOL0     C 3482   9.582   6.097   1.288  0.8035 -0.0774 -0.2324
   26MOL0     C 3483   9.635   5.974   1.236 -0.3269  0.7814  0.5301
   26MOL0     C 3484   9.770   5.945   1.252  0.3840 -0.2502 -0.9594
   26MOL0     C 3485   9.861   6.030   1.323  0.7379  0.5821  0.2925
   26MOL0     O 3486   9.988   5.979   1.339  0.4759  0.3257 -0.4650
   26MOL0     C 3487  10.083   6.041   1.254 -0.8772 -0.5304 -0.1131
   26MOL0     C 3488  10.198   6.083   1.341 -0.8091  0.0443 -0.0476
   26MOL0     C 3489  10.315   6.126   1.262 -0.1969  0.1223 -0.7358
   26MOL0     C 3490  10.429   6.153   1.364 -0.2815 -0.3235  0.1435
   26MOL0     C 3491  10.540   6.245   1.287  0.3140  0.2939  1.1922
   26MOL0     C 3492  10.591   6.343   1.393 -0.7662  0.0038  0.1997
   26MOL0     C 3493  10.721   6.429   1.350  0.4622  0.0006  0.0336
   26MOL0     C 3494  10.695   6.531   1.245 -0.1844  0.5344 -0.1771
   26MOL0    Cl 3495  10.597   6.664   1.321 -0.5069 -0.0807 -0.0099
   26MOL0     C 3496   9.804   6.154   1.372 -0.1230  0.2468 -0.3575
   26MOL0     C 3497   9.670   6.184   1.353  0.5396 -0.2490 -0.2052
   26MOL0     O 3498   9.366   5.922   1.289  0.0667 -0.1262  0.5758
   26MOL0     C 3499   9.112   6.005   1.277  0.7771 -0.6512 -0.0736
   26MOL0     C 3500   8.983   6.038   1.260  0.1111  0.6589 -0.8444
   26MOL0     N 3501   8.853   6.616   1.278 -0.0122  0.3628 -0.0964
   26MOL0     N 3502   8.980   6.638   1.280 -0.6038  0.4782 -0.3327
   26MOL0     C 3503   9.992   6.776   2.061 -0.1092 -0.1643  0.5793
   26MOL0     C 3504  10.047   6.704   2.168  0.5313 -0.3803 -0.0117
   26MOL0     C 3505  10.065   6.581   2.611  0.3907  0.4542 -0.0246
   26MOL0     C 3506  10.087   6.442   2.565  0.2556 -0.7598 -0.2576
   26MOL0     C 3507  10.101   6.342   2.659  0.9518  0.6546 -1.0568
   26MOL0     C 3508  10.101   6.367   2.796 -0.4579  0.0738 -0.0966
   26MOL0     O 3509  10.125   6.265   2.891 -0.0003  0.2766  0.2670
   26MOL0     C 3510  10.182   6.136   2.861  0.8403 -0.2329  0.4031
   26MOL0     C 3511  10.168   6.035   2.974  0.1663 -0.8431 -0.0241
   26MOL0     C 3512  10.211   5.897   2.919 -0.5836  0.8277  0.3482
   26MOL0     C 3513  10.242   5.803   3.035  0.6734  0.7165  0.2704
   26MOL0     C 3514  10.116   5.755   3.097 -0.2740  0.8954  0.6283
   26MOL0     C 3515  10.018   5.704   3.150  0.0744  0.5398  0.1234
   26MOL0     C 3516  10.078   6.499   2.838 -0.4479 -0.2642  0.3699
   26MOL0     C 3517  10.062   6.606   2.752  0.4591 -0.7846  0.7208
   26MOL0     C 3518  10.034   6.732   2.820 -0.2741 -0.3038 -0.2269
   26MOL0     H 3519   9.783   6.740   2.376 -0.2635  1.7481  0.1937
   26MOL0     H 3520   9.695   6.864   2.204 -1.4505 -2.9582 -2.4214
   26MOL0     H 3521   9.635   6.971   2.015 -4.7374 -1.9458  0.5033
   26MOL0     H 3522   9.636   6.801   1.957  0.7553  0.1836  1.4191
   26MOL0     H 3523   9.698   7.058   1.813 -3.6886  1.1668  1.4730
   26MOL0     H 3524   9.703   6.892   1.736  2.3295 -1.4925  2.5699
   26MOL0     H 3525   9.456   6.878   1.829 -0.4974 -0.7803 -1.1937
   26MOL0     H 3526   9.467   7.052   1.842  0.6089 -1.1096  1.0554
   26MOL0     H 3527   9.469   7.085   1.620 -1.6657  0.2602 -0.7275
   26MOL0     H 3528   9.522   6.923   1.577 -1.4192 -0.8862 -0.6071
   26MOL0     H 3529   9.246   7.041   1.660  1.3469  0.9970 -2.3179
   26MOL0     H 3530   9.272   6.865   1.682 -1.8224 -0.7094 -1.2458
   26MOL0     H 3531   9.304   7.039   1.438 -0.6516  0.0603 -2.1197
   26MOL0     H 3532   9.353   6.865   1.423  1.2662 -0.5753  1.0445
   26MOL0     H 3533   9.108   6.925   1.351  0.2528 -2.7088 -0.9647
   26MOL0     H 3534   9.068   6.929   1.519  0.3202  1.3591 -0.1248
   26MOL0     H 3535   9.211   6.692   1.396  0.6012  0.3408 -1.1752
   26MOL0     H 3536   9.139   6.720   1.567  2.1903 -0.1896 -0.8199
   26MOL0     H 3537   8.883   6.696   1.594  2.5284  1.9039  0.0479
   26MOL0     H 3538   8.585   6.656   1.473 -2.4422 -0.4714  0.7867
   26MOL0     H 3539   8.658   6.517   1.533 -0.1440 -1.5599 -0.7395
   26MOL0     H 3540   8.482   6.520   1.339  0.4819  3.5518  1.6477
   26MOL0     H 3541   8.616   6.549   1.228 -2.5165  1.8247 -0.4474
   26MOL0     H 3542   8.604   6.284   1.399  0.1209 -1.9500 -2.2507
   26MOL0     H 3543   8.558   6.303   1.239  0.9991 -3.8760  0.5228
   26MOL0     H 3544   8.771   6.377   1.162 -0.4041  2.3363  1.1027
   26MOL0     H 3545   8.833   6.366   1.329  0.2148 -0.2563  0.1327
   26MOL0     H 3546   9.022   6.374   1.196  0.6794  1.1954 -1.9854
   26MOL0     H 3547   9.248   6.450   1.163 -2.0371 -0.7456 -1.7825
   26MOL0     H 3548   9.364   6.314   1.131  0.4685 -2.2070  2.4134
   26MOL0     H 3549   9.324   6.358   1.294 -1.8737 -2.2211  0.2727
   26MOL0     H 3550   9.587   5.898   1.174 -0.1280  2.0040 -1.2063
   26MOL0     H 3551   9.820   5.854   1.220  1.3626 -0.7088  1.6657
   26MOL0     H 3552  10.120   5.976   1.174  0.5077  1.3324 -1.0557
   26MOL0     H 3553  10.041   6.128   1.204  1.4669  0.6911 -0.0895
   26MOL0     H 3554  10.169   6.164   1.409  0.0308  3.7992 -3.7412
   26MOL0     H 3555  10.227   6.002   1.407 -1.5446  0.7035  1.1178
   26MOL0     H 3556  10.282   6.209   1.199 -1.3089  0.2119 -0.0529
   26MOL0     H 3557  10.337   6.045   1.191 -4.2364  0.3801 -2.5702
   26MOL0     H 3558  10.478   6.059   1.390  0.5674 -0.8811 -3.0349
   26MOL0     H 3559  10.401   6.201   1.458 -0.1577  0.1112 -0.0401
   26MOL0     H 3560  10.619   6.181   1.247  0.7471  1.2333  0.4981
   26MOL0     H 3561  10.496   6.299   1.203 -1.0068 -2.1100  0.2392
   26MOL0     H 3562  10.619   6.284   1.481  1.8790  2.5757  1.2448
   26MOL0     H 3563  10.511   6.411   1.422 -1.6473 -0.6357 -0.6581
   26MOL0     H 3564  10.803   6.361   1.322  3.5958  3.9212 -1.2655
   26MOL0     H 3565  10.767   6.472   1.439 -1.2766 -0.6133  1.2819
   26MOL0     H 3566  10.652   6.489   1.153  0.4764  1.2747 -0.8369
   26MOL0     H 3567  10.792   6.574   1.218 -0.1433  0.2828 -0.4335
   26MOL0     H 3568   9.876   6.202   1.438 -1.1064 -2.2507  2.7628
   26MOL0     H 3569   9.635   6.273   1.406 -3.0899 -2.1580  0.9620
   26MOL0     H 3570   9.122   5.899   1.298 -1.0251 -0.5710  1.4575
   26MOL0     H 3571   8.908   5.961   1.245  0.1571  0.5467 -0.5049
   26MOL0     H 3572  10.051   6.784   1.970 -0.6711 -0.7452  0.1538
   26MOL0     H 3573  10.145   6.659   2.157  0.8000  0.3516 -0.7081
   26MOL0     H 3574  10.061   6.404   2.467 -2.5245 -1.1507  0.5526
   26MOL0     H 3575  10.125   6.240   2.630 -1.1001 -1.2887  3.1850
   26MOL0     H 3576  10.124   6.097   2.776  1.0151  2.3400 -0.9666
   26MOL0     H 3577  10.287   6.138   2.832  1.2417 -3.5166  1.1972
   26MOL0     H 3578  10.065   6.026   3.011 -0.8050  2.0517 -1.6620
   26MOL0     H 3579  10.230   6.058   3.061 -2.5202  1.1811  1.5275
   26MOL0     H 3580  10.136   5.846   2.858  1.4039 -4.1804  1.6260
   26MOL0     H 3581  10.306   5.899   2.865 -1.5000  0.2209 -1.3546
   26MOL0     H 3582  10.313   5.848   3.105  5.0693 -1.9991 -2.0533
   26MOL0     H 3583  10.303   5.731   2.981  0.8994  1.4768 -0.5142
   26MOL0     H 3584   9.948   5.650   3.211 -1.1207  1.9971  0.0969
   26MOL0     H 3585  10.072   6.513   2.946  0.1431 -0.0902  0.3844
   26MOL0     H 3586  10.081   6.807   2.756 -1.5848 -0.3060 -1.2237
   26MOL0     H 3587   9.927   6.751   2.820 -0.2654  0.0782  2.0370
   26MOL0     H 3588  10.063   6.732   2.926 -1.4550  1.8413  0.1601
   27MOL0     O 3589   7.216   5.692   8.981 -0.2373 -0.2656  0.7663
   27MOL0     C 3590   7.155   5.598   8.935  1.0485 -0.4898  0.1281
   27MOL0     O 3591   7.057   5.530   9.005 -0.0504  0.0358 -0.0549
   27MOL0     C 3592   7.051   5.554   9.137 -0.6640  0.6212 -0.1428
   27MOL0     C 3593   7.136   5.500   9.227  0.3166  0.5555  0.4726
   27MOL0     C 3594   7.130   5.522   9.367 -0.2540  0.7163  0.4478
   27MOL0     C 3595   7.042   5.617   9.417 -0.2332 -0.0013 -0.5828
   27MOL0     O 3596   7.029   5.631   9.553  0.9979  0.3221 -0.0431
   27MOL0     C 3597   6.986   5.760   9.604  0.4156 -0.1488 -0.0321
   27MOL0     C 3598   6.989   5.781   9.752  0.3064 -0.2842 -0.1405
   27MOL0     C 3599   7.121   5.722   9.813 -0.2764 -1.0245  0.2066
   27MOL0     C 3600   7.244   5.797   9.763 -0.6329  0.5004  0.4055
   27MOL0     C 3601   7.239   5.946   9.766  0.3546  0.5104 -0.1489
   27MOL0     C 3602   7.214   6.009   9.903 -1.0869  0.1219  0.2832
   27MOL0     C 3603   7.320   5.953  10.002  0.3979 -0.9518  0.8153
   27MOL0     C 3604   7.330   6.027  10.131  0.3988 -0.2732 -1.3517
   27MOL0     N 3605   7.389   6.151  10.114 -0.5314 -0.2985  0.2239
   27MOL0     C 3606   7.532   6.173  10.112 -0.0871 -0.1070 -1.1229
   27MOL0     C 3607   7.554   6.299  10.075  0.5442 -1.2391  0.0546
   27MOL0     C 3608   7.682   6.372  10.065 -0.4020  0.0695  1.1782
   27MOL0     C 3609   7.801   6.304  10.128 -0.0229 -0.2687 -0.2848
   27MOL0     C 3610   7.874   6.208  10.033 -0.1047 -1.1815 -0.3897
   27MOL0     C 3611   7.991   6.142  10.097  0.1197  0.4409  0.3271
   27MOL0     O 3612   8.024   6.195  10.229  0.3924 -0.6554  0.3264
   27MOL0     C 3613   8.134   6.138  10.295  0.0643 -0.1251  0.7973
   27MOL0     C 3614   8.192   6.021  10.261 -0.1168  0.1706 -0.2749
   27MOL0     C 3615   8.321   5.985  10.308  0.3164  0.3277  0.9589
   27MOL0     C 3616   8.373   5.852  10.266  0.1393 -0.4935 -0.7854
   27MOL0     C 3617   8.393   6.080  10.389  0.2251  1.2117  0.7232
   27MOL0     C 3618   8.532   6.059  10.441  0.0816  0.3600 -0.3352
   27MOL0     O 3619   8.576   5.932  10.468  0.5226 -0.7087  0.0801
   27MOL0     C 3620   8.686   5.903  10.535  0.6398  0.6146 -0.1120
   27MOL0     C 3621   8.677   5.801  10.631 -0.0896  0.1220  0.1840
   27MOL0     C 3622   8.792   5.771  10.706 -0.5552  0.4789 -0.6447
   27MOL0     C 3623   8.919   5.826  10.680 -0.3787 -0.4765 -0.6584
   27MOL0     O 3624   9.023   5.782  10.758 -0.6597  0.0243 -0.7235
   27MOL0     C 3625   9.143   5.855  10.742 -0.0452 -0.5222 -0.3744
   27MOL0     C 3626   9.246   5.808  10.844  0.6518  0.0226  0.7949
   27MOL0     C 3627   9.382   5.884  10.837 -0.1992 -0.1796  0.0623
   27MOL0     C 3628   9.500   5.784  10.863  0.6312  1.1768 -0.6709
   27MOL0     C 3629   9.487   5.737  11.017  0.6485  0.2967  0.4075
   27MOL0     C 3630   9.610   5.652  11.070  0.0958  0.4033  0.1100
   27MOL0     C 3631   9.619   5.522  10.981  0.5021  0.3456 -0.3810
   27MOL0     C 3632   9.724   5.424  11.022 -0.3495  0.7438  0.6065
   27MOL0    Cl 3633   9.697   5.291  10.905 -0.4428  0.1619  0.4897
   27MOL0     C 3634   8.921   5.930  10.591 -0.2320 -0.0792 -0.0972
   27MOL0     C 3635   8.815   5.970  10.518  0.8450  0.6238  0.1857
   27MOL0     O 3636   8.597   6.157  10.475 -0.0669  0.2788  0.0082
   27MOL0     C 3637   8.328   6.201  10.421  0.2928  0.0422  0.9728
   27MOL0     C 3638   8.195   6.231  10.381  0.7634  1.1255 -0.3711
   27MOL0     N 3639   7.420   6.360  10.067 -1.0396  0.1358 -0.5725
   27MOL0     N 3640   7.329   6.271  10.080 -0.3589 -0.0276 -0.0420
   27MOL0     C 3641   6.952   5.680   9.325 -0.6708 -0.0968 -0.4180
   27MOL0     C 3642   6.959   5.643   9.186  0.3737 -0.3201 -0.0190
   27MOL0     C 3643   7.192   5.559   8.803  0.1638 -0.8375  0.4567
   27MOL0     C 3644   7.104   5.569   8.695  0.1335 -0.6034  0.0730
   27MOL0     C 3645   7.151   5.550   8.566  0.3460  0.2659 -0.1255
   27MOL0     C 3646   7.275   5.507   8.545  0.5283 -0.4064 -0.0214
   27MOL0     O 3647   7.314   5.478   8.415 -0.5415  0.1818 -0.7932
   27MOL0     C 3648   7.444   5.427   8.379  0.0161 -1.1474 -0.2164
   27MOL0     C 3649   7.438   5.275   8.363  0.6435  0.0509  1.3004
   27MOL0     C 3650   7.333   5.246   8.261 -0.4506  0.3500  0.4716
   27MOL0     C 3651   7.315   5.106   8.221  0.2081  0.4634  1.1261
   27MOL0     C 3652   7.237   5.103   8.097 -0.9295  0.0060  0.0481
   27MOL0     C 3653   7.188   5.081   7.990 -0.1061 -0.0431  0.7751
   27MOL0     C 3654   7.366   5.482   8.657 -0.4233 -0.4293  1.4795
   27MOL0     C 3655   7.323   5.513   8.787 -0.3647 -1.2376  1.1582
   27MOL0     C 3656   7.422   5.498   8.886 -0.3834  0.8109 -0.9593
   27MOL0     H 3657   7.210   5.431   9.189 -2.2165 -1.6014 -0.7889
   27MOL0     H 3658   7.192   5.460   9.431 -0.1410  0.7535  0.3755
   27MOL0     H 3659   6.879   5.771   9.584  0.3775 -1.3446 -0.5844
   27MOL0     H 3660   7.050   5.837   9.562 -0.0957  1.0822  1.3630
   27MOL0     H 3661   6.979   5.889   9.766  1.0033 -0.1220 -0.8059
   27MOL0     H 3662   6.906   5.719   9.785 -0.5083  0.8136 -0.0879
   27MOL0     H 3663   7.116   5.734   9.921  4.3138 -0.8841  0.6017
   27MOL0     H 3664   7.149   5.619   9.787  0.3191 -0.4110 -1.8038
   27MOL0     H 3665   7.329   5.747   9.810 -1.2084 -1.9370 -0.9587
   27MOL0     H 3666   7.265   5.784   9.656 -2.2534 -0.8154  0.2085
   27MOL0     H 3667   7.166   5.981   9.692 -0.9045  1.3902  1.4120
   27MOL0     H 3668   7.339   5.983   9.744  0.7498 -0.6630 -0.3966
   27MOL0     H 3669   7.232   6.117   9.903 -0.2183  0.0450 -2.3420
   27MOL0     H 3670   7.112   5.986   9.936 -2.5645 -1.1559 -4.4228
   27MOL0     H 3671   7.424   5.963   9.969  0.6053  2.5634  2.1357
   27MOL0     H 3672   7.297   5.846  10.008 -0.5769 -1.0005 -2.1298
   27MOL0     H 3673   7.234   6.040  10.181  1.4484  1.0191  0.4220
   27MOL0     H 3674   7.396   5.968  10.195 -1.1315 -1.9163 -1.1836
   27MOL0     H 3675   7.614   6.106  10.136  0.9046  0.6694 -2.2162
   27MOL0     H 3676   7.678   6.470  10.114 -3.3726 -0.4484  2.1664
   27MOL0     H 3677   7.714   6.387   9.962 -1.4450  0.6446  0.9264
   27MOL0     H 3678   7.879   6.380  10.142  0.6517 -0.9980  0.0246
   27MOL0     H 3679   7.782   6.256  10.225  0.0663  2.3909  1.1543
   27MOL0     H 3680   7.809   6.132   9.990  0.9610 -1.4239 -1.6185
   27MOL0     H 3681   7.927   6.264   9.956  0.4379 -0.9891  0.1114
   27MOL0     H 3682   7.976   6.034  10.104  1.5387  0.2083  0.1387
   27MOL0     H 3683   8.080   6.151  10.035  0.0547 -1.1767 -0.0527
   27MOL0     H 3684   8.129   5.956  10.202 -0.6452 -0.8121  1.3152
   27MOL0     H 3685   8.381   5.789  10.355  1.8477 -0.9630 -1.2227
   27MOL0     H 3686   8.472   5.866  10.220 -0.3006  1.5010 -1.2227
   27MOL0     H 3687   8.321   5.780  10.202  1.2020 -2.7898  0.7621
   27MOL0     H 3688   8.577   5.764  10.652 -0.5092 -1.0277 -3.1740
   27MOL0     H 3689   8.773   5.682  10.765 -0.2874  1.6866  1.3706
   27MOL0     H 3690   9.175   5.830  10.641 -0.7722 -1.3863 -0.4057
   27MOL0     H 3691   9.132   5.963  10.754  1.4351 -0.4651  0.7441
   27MOL0     H 3692   9.205   5.810  10.945  1.6210 -2.8349  1.3257
   27MOL0     H 3693   9.265   5.703  10.818 -0.2406  0.2430 -0.9098
   27MOL0     H 3694   9.383   5.973  10.901  1.4501 -2.9038  4.2530
   27MOL0     H 3695   9.385   5.921  10.734 -3.9029  4.0284  1.1661
   27MOL0     H 3696   9.588   5.850  10.862 -0.1848  2.3058 -0.4214
   27MOL0     H 3697   9.492   5.695  10.802 -1.0705  2.0793 -1.8454
   27MOL0     H 3698   9.483   5.822  11.086 -1.2103  0.2074  0.4513
   27MOL0     H 3699   9.398   5.675  11.030 -0.0135  0.8462 -1.1999
   27MOL0     H 3700   9.587   5.632  11.176 -1.2269  1.5770  0.0766
   27MOL0     H 3701   9.700   5.714  11.069  0.4714 -0.1194 -2.2050
   27MOL0     H 3702   9.647   5.546  10.878  2.2750 -2.0133 -0.5404
   27MOL0     H 3703   9.516   5.485  10.984  0.0958  1.5093  0.7364
   27MOL0     H 3704   9.706   5.396  11.126  2.2855 -0.0194  0.9385
   27MOL0     H 3705   9.831   5.447  11.029 -0.0141 -0.5585  0.1548
   27MOL0     H 3706   9.010   5.992  10.581 -1.5924  1.6474 -2.2916
   27MOL0     H 3707   8.826   6.039  10.435  0.2803 -1.7195 -1.9659
   27MOL0     H 3708   8.386   6.261  10.491  1.2530  0.7086 -0.3449
   27MOL0     H 3709   8.146   6.322  10.415 -0.0978  1.2912 -1.9155
   27MOL0     H 3710   6.881   5.753   9.364  0.5975  0.0394  1.8143
   27MOL0     H 3711   6.905   5.701   9.112  3.2284  1.5061 -0.8589
   27MOL0     H 3712   7.003   5.605   8.712  0.0601  0.2083 -1.7709
   27MOL0     H 3713   7.080   5.560   8.485  0.7600  1.1614 -0.3978
   27MOL0     H 3714   7.473   5.471   8.284  0.9136 -1.8737 -0.2867
   27MOL0     H 3715   7.525   5.453   8.449 -1.8403 -0.9763  1.9926
   27MOL0     H 3716   7.398   5.243   8.459 -1.1475  3.5948  1.8996
   27MOL0     H 3717   7.532   5.222   8.343 -1.3919 -2.7488 -2.0864
   27MOL0     H 3718   7.237   5.278   8.304 -0.2772  1.0929  0.3108
   27MOL0     H 3719   7.353   5.307   8.173  1.5297 -1.2961 -0.2818
   27MOL0     H 3720   7.274   5.035   8.294  0.3256  0.0370  0.7835
   27MOL0     H 3721   7.418   5.075   8.202  0.4395  1.9076 -0.1222
   27MOL0     H 3722   7.135   5.045   7.904  0.9309  0.2499 -0.0032
   27MOL0     H 3723   7.471   5.460   8.644 -0.2036 -0.7245  3.4567
   27MOL0     H 3724   7.483   5.589   8.899  1.5153 -0.1872 -2.3958
   27MOL0     H 3725   7.383   5.461   8.981  1.1160 -1.8780 -1.2964
   27MOL0     H 3726   7.502   5.429   8.858  0.0821  1.0916 -0.3643
   28MOL0     O 3727  11.427   5.067   2.403  0.0418 -0.7678 -0.3149
   28MOL0     C 3728  11.345   5.033   2.483  0.3661  0.2151 -0.2394
   28MOL0     O 3729  11.339   4.912   2.550 -0.3064  0.4543  0.4252
   28MOL0     C 3730  11.436   4.821   2.531 -0.1180 -0.1453  0.0657
   28MOL0     C 3731  11.432   4.716   2.429 -0.5245 -0.0811 -0.0001
   28MOL0     C 3732  11.535   4.621   2.412  0.7484 -0.1163 -0.6307
   28MOL0     C 3733  11.646   4.633   2.503  0.1890  0.3992 -0.9545
   28MOL0     O 3734  11.759   4.556   2.489  0.0192 -0.2066  0.0938
   28MOL0     C 3735  11.729   4.418   2.471  1.0785  0.0087  0.1425
   28MOL0     C 3736  11.866   4.336   2.480 -0.1862 -1.0956 -1.6824
   28MOL0     C 3737  11.964   4.389   2.579 -0.3291  0.0276 -0.1215
   28MOL0     C 3738  11.921   4.382   2.723 -1.3148 -0.1687 -0.0459
   28MOL0     C 3739  12.020   4.442   2.818  0.1880  0.2482  0.1841
   28MOL0     C 3740  11.978   4.584   2.844  0.3810  0.4707 -0.1259
   28MOL0     C 3741  12.079   4.653   2.937  0.5523  0.1419 -0.3727
   28MOL0     C 3742  12.056   4.806   2.965 -0.7025  0.0203 -1.4930
   28MOL0     N 3743  11.982   4.849   3.086  0.6485  0.4011 -0.2346
   28MOL0     C 3744  11.963   4.778   3.203 -0.1903 -0.1408  0.0512
   28MOL0     C 3745  11.876   4.853   3.285  0.1148  0.1106  1.0200
   28MOL0     C 3746  11.825   4.815   3.426  0.4036  0.7567  0.8670
   28MOL0     C 3747  11.811   4.945   3.508 -0.0282  0.6375 -0.2362
   28MOL0     C 3748  11.764   4.923   3.655  0.0930 -0.1889 -0.0941
   28MOL0     C 3749  11.619   4.869   3.651  0.2716  1.0954  0.0377
   28MOL0     O 3750  11.585   4.816   3.778 -1.1011 -0.2418  0.2040
   28MOL0     C 3751  11.449   4.788   3.793  0.7869  0.2651 -0.9283
   28MOL0     C 3752  11.398   4.773   3.928 -0.3153  0.4316  0.3651
   28MOL0     C 3753  11.263   4.757   3.964  0.3708 -0.5276  0.2737
   28MOL0     C 3754  11.232   4.724   4.111 -1.2927 -0.4123 -0.1951
   28MOL0     C 3755  11.168   4.761   3.860 -0.1375 -0.4055 -0.5009
   28MOL0     C 3756  11.026   4.768   3.883  0.1897 -0.6333 -0.2198
   28MOL0     O 3757  10.933   4.754   3.782  0.4822  0.0234  0.0958
   28MOL0     C 3758  10.799   4.764   3.805 -0.3741 -0.5919 -0.3640
   28MOL0     C 3759  10.723   4.660   3.863 -0.5412  0.5273 -0.0198
   28MOL0     C 3760  10.581   4.644   3.838 -0.2403  0.0292 -0.1968
   28MOL0     C 3761  10.516   4.747   3.768  0.5372  0.3473  0.0846
   28MOL0     O 3762  10.383   4.749   3.742 -0.0113 -0.2020 -0.8326
   28MOL0     C 3763  10.309   4.722   3.864  0.0295  0.0067  0.2983
   28MOL0     C 3764  10.175   4.789   3.852  0.3316 -0.0028  0.1298
   28MOL0     C 3765  10.087   4.809   3.989 -0.4853  0.4011  0.5698
   28MOL0     C 3766  10.153   4.917   4.072  0.1739  1.0073 -0.5384
   28MOL0     C 3767  10.076   4.979   4.181  0.1139  0.2515 -0.1160
   28MOL0     C 3768  10.142   5.104   4.239  0.3549  0.9653  0.0466
   28MOL0     C 3769  10.042   5.167   4.335 -0.6952  0.2536  0.2290
   28MOL0     C 3770  10.120   5.258   4.430  0.2612  0.2988  0.8309
   28MOL0    Cl 3771  10.009   5.326   4.551  0.2739  0.1496  0.2846
   28MOL0     C 3772  10.592   4.862   3.722  0.1503 -0.5163 -0.2376
   28MOL0     C 3773  10.733   4.868   3.739  0.0880  0.2771  0.9636
   28MOL0     O 3774  10.993   4.776   4.001 -0.5393  0.4218  0.1680
   28MOL0     C 3775  11.206   4.773   3.724  0.9912  0.4717 -0.1527
   28MOL0     C 3776  11.344   4.783   3.698 -0.3597 -1.0568  0.8661
   28MOL0     N 3777  11.847   4.963   3.210 -0.2058 -0.0880  0.3689
   28MOL0     N 3778  11.903   4.961   3.097  0.0763  0.1677  0.4305
   28MOL0     C 3779  11.646   4.724   2.604 -0.5751 -1.1394  0.5233
   28MOL0     C 3780  11.544   4.822   2.617  0.3263  0.3951 -1.2499
   28MOL0     C 3781  11.241   5.137   2.500 -0.0498  1.4672 -0.5285
   28MOL0     C 3782  11.272   5.253   2.574 -0.4071 -0.3565  0.1332
   28MOL0     C 3783  11.178   5.352   2.593  0.1769 -0.2433 -0.6886
   28MOL0     C 3784  11.047   5.326   2.559 -0.2606  0.2665  0.3474
   28MOL0     O 3785  10.945   5.403   2.597  0.5482 -0.6768 -0.3629
   28MOL0     C 3786  10.954   5.484   2.716  0.1581 -0.4185 -0.4601
   28MOL0     C 3787  10.811   5.550   2.743 -0.6772  0.6095 -0.9239
   28MOL0     C 3788  10.714   5.443   2.757  0.1949 -0.3874  0.1544
   28MOL0     C 3789  10.583   5.504   2.787 -0.3030 -0.5406  0.1708
   28MOL0     C 3790  10.540   5.570   2.669 -0.5497  0.5874  0.2045
   28MOL0     C 3791  10.490   5.629   2.577 -0.3974 -0.4637 -0.6075
   28MOL0     C 3792  11.018   5.206   2.487  0.2365 -0.8809 -0.9871
   28MOL0     C 3793  11.111   5.111   2.458 -0.1284  0.3071 -0.0729
   28MOL0     C 3794  11.078   4.985   2.379  0.5755  0.3506  0.5755
   28MOL0     H 3795  11.348   4.708   2.361 -2.0406  4.9751  0.9087
   28MOL0     H 3796  11.539   4.553   2.328 -0.1454  1.1945 -1.7638
   28MOL0     H 3797  11.692   4.394   2.371  0.2309 -0.5871  0.5823
   28MOL0     H 3798  11.656   4.387   2.547 -1.3575  1.0916 -1.6178
   28MOL0     H 3799  11.851   4.228   2.482  1.1333 -1.2924 -1.5839
   28MOL0     H 3800  11.910   4.348   2.381 -0.9859 -0.9889 -2.0309
   28MOL0     H 3801  12.058   4.334   2.563  0.6870  1.7760 -0.3761
   28MOL0     H 3802  11.988   4.495   2.565 -1.8084  0.2157 -1.5373
   28MOL0     H 3803  11.821   4.425   2.737 -1.3227  1.4835 -3.9868
   28MOL0     H 3804  11.928   4.275   2.747 -0.0753 -0.0028  0.4004
   28MOL0     H 3805  12.117   4.439   2.766 -0.2640  0.4334 -0.6955
   28MOL0     H 3806  12.033   4.381   2.908  0.9531 -1.5926 -1.1166
   28MOL0     H 3807  11.957   4.645   2.756 -3.0985 -2.3969 -1.5427
   28MOL0     H 3808  11.880   4.586   2.893 -0.3721  2.1933 -1.5731
   28MOL0     H 3809  12.174   4.625   2.891  0.2417 -1.3429 -0.1698
   28MOL0     H 3810  12.075   4.600   3.032 -0.2438  0.4457 -0.2305
   28MOL0     H 3811  12.158   4.846   2.970  0.6237 -3.2219  0.9795
   28MOL0     H 3812  12.009   4.852   2.878 -0.4870  0.0092 -1.6162
   28MOL0     H 3813  12.001   4.678   3.224 -2.2092 -0.8867  0.3358
   28MOL0     H 3814  11.895   4.745   3.472  0.7934  0.4300 -0.2171
   28MOL0     H 3815  11.726   4.770   3.416  0.3079  0.2347  3.3643
   28MOL0     H 3816  11.908   4.993   3.524 -0.0172  0.7371 -0.5989
   28MOL0     H 3817  11.758   5.013   3.440  3.0127  0.8351 -2.6590
   28MOL0     H 3818  11.831   4.850   3.700 -2.0598 -3.2846 -1.5951
   28MOL0     H 3819  11.774   5.017   3.711 -0.7984 -1.4193  2.2339
   28MOL0     H 3820  11.550   4.953   3.645 -0.9862  0.1894  1.2961
   28MOL0     H 3821  11.609   4.795   3.571  3.7255  0.9059 -0.3999
   28MOL0     H 3822  11.467   4.787   4.011 -0.7764  0.3417  0.7664
   28MOL0     H 3823  11.192   4.622   4.116 -3.7481  0.4650 -0.3174
   28MOL0     H 3824  11.162   4.791   4.163  1.1233  1.4840  0.8123
   28MOL0     H 3825  11.326   4.727   4.166 -1.1166  1.7323 -0.5198
   28MOL0     H 3826  10.791   4.587   3.906  3.4907  2.0723 -3.1702
   28MOL0     H 3827  10.545   4.551   3.880 -0.3161  1.2799  2.7139
   28MOL0     H 3828  10.286   4.615   3.873 -2.5927  0.6480  2.6983
   28MOL0     H 3829  10.362   4.755   3.953 -2.3597  1.0765  1.4219
   28MOL0     H 3830  10.193   4.887   3.808 -0.8900 -0.1645 -0.7848
   28MOL0     H 3831  10.107   4.727   3.792 -0.7182 -0.6232  1.8594
   28MOL0     H 3832  10.078   4.720   4.052 -2.7932 -0.9127 -1.4544
   28MOL0     H 3833   9.986   4.840   3.959  0.4329  2.2638 -0.7782
   28MOL0     H 3834  10.179   4.999   4.004  2.3410 -1.2558 -2.6552
   28MOL0     H 3835  10.244   4.874   4.116  1.0719  0.9950 -2.2894
   28MOL0     H 3836   9.972   4.998   4.152 -0.2656  1.0808  1.6223
   28MOL0     H 3837  10.080   4.908   4.264  0.1519  1.6450  1.1242
   28MOL0     H 3838  10.167   5.177   4.162 -0.6825  0.0539 -1.2176
   28MOL0     H 3839  10.235   5.077   4.291  0.9755 -1.0840 -1.9493
   28MOL0     H 3840   9.983   5.093   4.391  0.5772 -0.9425  0.0306
   28MOL0     H 3841   9.974   5.223   4.269  0.3190  1.0262 -0.1837
   28MOL0     H 3842  10.169   5.339   4.375 -1.7774  0.1553 -1.3520
   28MOL0     H 3843  10.192   5.202   4.490 -0.8424 -0.4402  1.5142
   28MOL0     H 3844  10.551   4.954   3.681  0.1288 -0.7311 -0.6935
   28MOL0     H 3845  10.793   4.949   3.701  1.4563  0.3534  3.1378
   28MOL0     H 3846  11.131   4.778   3.646 -1.5404 -2.5947  1.8248
   28MOL0     H 3847  11.379   4.805   3.598 -2.5884  0.3908  0.3304
   28MOL0     H 3848  11.734   4.731   2.667 -0.3797  1.5665  0.0721
   28MOL0     H 3849  11.549   4.897   2.695  1.7314  2.0190 -2.7970
   28MOL0     H 3850  11.369   5.272   2.619 -0.8967  3.3357 -0.0732
   28MOL0     H 3851  11.197   5.434   2.662 -2.3569  0.3914 -0.6177
   28MOL0     H 3852  10.985   5.420   2.799 -0.1440 -1.0881 -0.8524
   28MOL0     H 3853  11.030   5.561   2.699  0.0165 -0.0502  0.5418
   28MOL0     H 3854  10.785   5.615   2.659  0.6448 -0.1990 -2.0080
   28MOL0     H 3855  10.814   5.611   2.834  1.3227  1.8866 -1.7791
   28MOL0     H 3856  10.701   5.393   2.661 -0.8588  2.1993 -1.1380
   28MOL0     H 3857  10.748   5.364   2.825  1.5335 -0.4798 -0.5962
   28MOL0     H 3858  10.603   5.572   2.870  2.8216 -0.4696 -0.4983
   28MOL0     H 3859  10.504   5.433   2.812  0.3356 -0.8761  1.2854
   28MOL0     H 3860  10.447   5.690   2.501  1.5655  3.5767  1.2276
   28MOL0     H 3861  10.917   5.189   2.452 -0.7598  0.1729  1.1953
   28MOL0     H 3862  11.135   4.978   2.285 -1.9710 -0.4165 -0.9978
   28MOL0     H 3863  11.106   4.893   2.431 -1.5369 -0.9955 -0.5348
   28MOL0     H 3864  10.974   4.978   2.348  0.3331  0.6778  1.3033
   29MOL0     O 3865   8.764   3.864   2.532  0.8137  0.1806  0.1216
   29MOL0     C 3866   8.734   3.982   2.506 -0.0680 -0.5920 -0.9119
   29MOL0     O 3867   8.619   4.046   2.550 -0.4870 -0.3198  0.2836
   29MOL0     C 3868   8.527   3.981   2.625 -0.4727 -1.1128 -0.2599
   29MOL0     C 3869   8.562   3.912   2.746  0.3965  0.3087 -0.1893
   29MOL0     C 3870   8.460   3.862   2.817  0.0655  0.3477  0.0065
   29MOL0     C 3871   8.327   3.863   2.772 -0.4134  0.2157  0.2557
   29MOL0     O 3872   8.235   3.816   2.863 -0.3164  0.2810 -0.0085
   29MOL0     C 3873   8.095   3.840   2.826 -0.4290  0.5937  0.8429
   29MOL0     C 3874   8.010   3.754   2.926 -0.8125  0.7657  0.3248
   29MOL0     C 3875   7.871   3.811   2.971  1.3459 -0.0338  1.1078
   29MOL0     C 3876   7.808   3.724   3.083  0.1837  0.1237  0.6880
   29MOL0     C 3877   7.657   3.748   3.091 -0.0402  0.2199 -0.3568
   29MOL0     C 3878   7.631   3.884   3.165  0.0168  0.2744 -0.8597
   29MOL0     C 3879   7.485   3.919   3.189 -0.0191 -0.3627 -0.2204
   29MOL0     C 3880   7.420   3.967   3.053  0.0861  0.2752 -0.1008
   29MOL0     N 3881   7.304   4.056   3.078  0.2562  0.6883 -0.5345
   29MOL0     C 3882   7.189   4.020   3.145 -0.2431  0.1736 -0.7211
   29MOL0     C 3883   7.126   4.144   3.171 -0.2353 -0.7066 -0.0564
   29MOL0     C 3884   7.003   4.181   3.244 -0.3393  0.1001  0.0246
   29MOL0     C 3885   7.033   4.225   3.387  0.4597  0.0278  0.0755
   29MOL0     C 3886   7.083   4.107   3.478 -0.4864  0.5867  0.3863
   29MOL0     C 3887   7.235   4.102   3.476 -1.0921  0.2878  0.5624
   29MOL0     O 3888   7.256   3.967   3.509  0.1635  0.3912 -0.5166
   29MOL0     C 3889   7.359   3.934   3.590  0.1749  0.0633  0.1009
   29MOL0     C 3890   7.322   3.846   3.685 -0.7538 -0.0570 -0.2598
   29MOL0     C 3891   7.416   3.784   3.764 -0.9740 -1.2814 -0.2519
   29MOL0     C 3892   7.365   3.689   3.865 -0.0740  0.1577 -0.2750
   29MOL0     C 3893   7.555   3.825   3.746 -0.1828  1.3549  0.2860
   29MOL0     C 3894   7.673   3.754   3.801 -0.3159  1.1419  0.0722
   29MOL0     O 3895   7.654   3.636   3.874 -0.2732  0.7208  0.4659
   29MOL0     C 3896   7.757   3.567   3.926  0.4075  0.5619  0.0989
   29MOL0     C 3897   7.742   3.528   4.061  0.5029  0.3302  0.1895
   29MOL0     C 3898   7.833   3.443   4.120  0.4049 -0.0404  0.5947
   29MOL0     C 3899   7.945   3.392   4.038 -0.2435  0.4675 -0.1081
   29MOL0     O 3900   8.034   3.296   4.084 -0.3674 -0.3409 -0.3049
   29MOL0     C 3901   8.163   3.341   4.124  0.4100  0.3818  0.5313
   29MOL0     C 3902   8.221   3.220   4.198  0.4398 -1.0293 -0.8512
   29MOL0     C 3903   8.247   3.104   4.106 -0.5755 -0.2649  0.5147
   29MOL0     C 3904   8.335   2.997   4.171 -0.4835 -0.1272 -0.1137
   29MOL0     C 3905   8.345   2.873   4.087 -0.0126  0.0720 -0.9733
   29MOL0     C 3906   8.402   2.742   4.156 -0.4676 -0.2327 -0.2675
   29MOL0     C 3907   8.369   2.613   4.082 -0.4064  0.0877 -0.0971
   29MOL0     C 3908   8.442   2.495   4.148  0.0307 -0.3375  0.9231
   29MOL0    Cl 3909   8.447   2.496   4.322 -0.1974 -0.2091 -0.3705
   29MOL0     C 3910   7.964   3.443   3.904  0.7421  0.5601  0.6366
   29MOL0     C 3911   7.864   3.523   3.846 -0.2214 -0.7390 -0.3283
   29MOL0     O 3912   7.782   3.807   3.782 -0.4051 -0.4309 -0.4973
   29MOL0     C 3913   7.585   3.925   3.650  0.4559 -0.2058  0.4467
   29MOL0     C 3914   7.484   3.983   3.572 -0.4933  0.3376 -0.7441
   29MOL0     N 3915   7.197   4.238   3.107 -0.0157  0.1153 -0.0747
   29MOL0     N 3916   7.302   4.186   3.053 -1.0087  0.5790 -0.0477
   29MOL0     C 3917   8.297   3.915   2.642  0.5551  0.3441 -0.1434
   29MOL0     C 3918   8.398   3.981   2.571  0.5091 -0.3920 -0.5082
   29MOL0     C 3919   8.818   4.066   2.413  0.2081 -0.4474  0.0932
   29MOL0     C 3920   8.775   4.204   2.390  0.5647  0.3943  0.4089
   29MOL0     C 3921   8.850   4.280   2.301  0.3122 -1.2189 -0.3030
   29MOL0     C 3922   8.961   4.221   2.239  0.0404  0.5605 -0.0245
   29MOL0     O 3923   9.051   4.290   2.152  0.5930 -0.1979 -0.5087
   29MOL0     C 3924   9.038   4.433   2.132 -0.1721 -0.2981 -1.0376
   29MOL0     C 3925   9.105   4.514   2.248 -0.0608  0.4567 -1.1515
   29MOL0     C 3926   9.245   4.448   2.300 -0.3750 -0.3126 -0.2965
   29MOL0     C 3927   9.242   4.429   2.453 -0.1355  0.1917 -1.2941
   29MOL0     C 3928   9.145   4.337   2.518 -0.3100  0.6416 -0.6827
   29MOL0     C 3929   9.066   4.257   2.554 -0.0198  0.8809 -0.5448
   29MOL0     C 3930   9.009   4.097   2.263  0.5039  0.1608  0.9181
   29MOL0     C 3931   8.943   4.013   2.352 -0.6974 -0.7045  0.2906
   29MOL0     C 3932   9.015   3.894   2.406 -0.1714  0.1194  0.5671
   29MOL0     H 3933   8.667   3.909   2.775  0.3916  1.6740  0.0078
   29MOL0     H 3934   8.497   3.821   2.910  0.9156  0.8334 -0.1112
   29MOL0     H 3935   8.079   3.798   2.726  0.9855 -0.0605  0.8598
   29MOL0     H 3936   8.063   3.944   2.836  4.0485  2.1919  0.9692
   29MOL0     H 3937   7.990   3.658   2.877  0.7011  1.9504 -2.8346
   29MOL0     H 3938   8.069   3.745   3.018 -0.5076 -2.0280 -0.0534
   29MOL0     H 3939   7.898   3.904   3.022  6.3216 -0.0182 -0.9796
   29MOL0     H 3940   7.805   3.819   2.884  0.0255 -2.7793  1.7285
   29MOL0     H 3941   7.813   3.618   3.056 -1.5912  0.4466 -1.0820
   29MOL0     H 3942   7.858   3.732   3.180  1.9743 -0.5562 -0.1336
   29MOL0     H 3943   7.597   3.675   3.146 -0.0011 -0.9239 -1.7878
   29MOL0     H 3944   7.616   3.754   2.990 -1.7159  1.7886  0.3525
   29MOL0     H 3945   7.684   3.875   3.261 -0.2618  3.0249 -0.3784
   29MOL0     H 3946   7.681   3.960   3.104  0.7106  1.7175  1.3825
   29MOL0     H 3947   7.488   3.998   3.265 -1.5627  0.1878 -0.6803
   29MOL0     H 3948   7.432   3.830   3.222  0.3225 -0.4392  0.1237
   29MOL0     H 3949   7.495   4.023   2.997 -0.1842  2.4473  1.5757
   29MOL0     H 3950   7.391   3.881   2.991  1.8975  1.4067 -2.7291
   29MOL0     H 3951   7.156   3.930   3.197  0.1513  0.4376  0.0135
   29MOL0     H 3952   6.933   4.097   3.240  1.1783 -1.1826 -0.9116
   29MOL0     H 3953   6.946   4.257   3.190  1.6914  1.7830  0.1303
   29MOL0     H 3954   7.112   4.299   3.371 -2.0524  3.0360  0.7833
   29MOL0     H 3955   6.948   4.281   3.427 -0.2034 -1.7145  1.2431
   29MOL0     H 3956   7.041   4.128   3.577 -1.3610  1.0908 -0.0775
   29MOL0     H 3957   7.049   4.009   3.445 -2.5066  1.8937 -1.6981
   29MOL0     H 3958   7.285   4.135   3.385 -0.8588  0.0529  0.6051
   29MOL0     H 3959   7.288   4.153   3.557  3.7812  0.0572 -2.1220
   29MOL0     H 3960   7.214   3.830   3.688 -0.8778  0.8973  1.1477
   29MOL0     H 3961   7.425   3.676   3.956  0.1082  0.1328 -0.3984
   29MOL0     H 3962   7.361   3.589   3.821 -0.0487 -0.7404  1.6624
   29MOL0     H 3963   7.264   3.720   3.896  0.1040  1.0668 -0.5790
   29MOL0     H 3964   7.658   3.561   4.122 -0.3365  0.5958 -1.0753
   29MOL0     H 3965   7.819   3.409   4.222 -0.8413 -0.2609  0.3596
   29MOL0     H 3966   8.225   3.357   4.035  0.4032  2.0699  0.7997
   29MOL0     H 3967   8.154   3.428   4.189 -1.2481 -0.8806  2.0739
   29MOL0     H 3968   8.322   3.240   4.234  0.9034 -0.1014 -2.5911
   29MOL0     H 3969   8.158   3.180   4.279 -0.6088 -0.1758 -1.2222
   29MOL0     H 3970   8.290   3.128   4.008 -1.0482 -3.6403 -0.6312
   29MOL0     H 3971   8.144   3.068   4.092  0.2950 -2.5208 -0.5976
   29MOL0     H 3972   8.299   2.974   4.271  0.7544  0.4665  0.4837
   29MOL0     H 3973   8.438   3.032   4.180 -0.3793 -0.2311 -0.8409
   29MOL0     H 3974   8.241   2.854   4.058  0.4115  0.1311 -2.5848
   29MOL0     H 3975   8.387   2.900   3.990  0.5585  2.6738 -0.0888
   29MOL0     H 3976   8.357   2.749   4.256  1.1785  2.6429  0.4024
   29MOL0     H 3977   8.510   2.759   4.165 -0.0664 -2.2524 -0.6931
   29MOL0     H 3978   8.405   2.628   3.980  1.4536  2.4260  0.8061
   29MOL0     H 3979   8.261   2.598   4.086 -0.4082  0.3072  1.3212
   29MOL0     H 3980   8.547   2.502   4.117  0.2891 -0.8729  1.6566
   29MOL0     H 3981   8.398   2.399   4.122 -2.4826  0.5731  1.5556
   29MOL0     H 3982   8.042   3.407   3.838 -0.7510 -0.8328 -0.4458
   29MOL0     H 3983   7.862   3.555   3.743 -1.5815 -3.2994 -1.1749
   29MOL0     H 3984   7.684   3.969   3.640  0.3599  0.1010  0.7918
   29MOL0     H 3985   7.501   4.069   3.509  1.8725 -0.7017 -1.6314
   29MOL0     H 3986   8.196   3.925   2.603  1.4116  4.6207 -1.8076
   29MOL0     H 3987   8.368   4.041   2.485 -1.1553  0.1119  0.3841
   29MOL0     H 3988   8.687   4.242   2.440  0.2519  0.1072  0.0779
   29MOL0     H 3989   8.823   4.381   2.274 -0.5765 -0.0476  4.1679
   29MOL0     H 3990   9.090   4.458   2.039 -0.7017  0.1012 -1.2307
   29MOL0     H 3991   8.934   4.464   2.115 -0.2582 -0.4735 -0.8315
   29MOL0     H 3992   9.035   4.518   2.332  0.0297  0.5616 -1.0808
   29MOL0     H 3993   9.128   4.611   2.205  4.2227  0.7126  1.1341
   29MOL0     H 3994   9.255   4.343   2.268 -1.1233 -1.5659  3.1544
   29MOL0     H 3995   9.333   4.510   2.282 -0.5709  0.6511  1.7556
   29MOL0     H 3996   9.221   4.526   2.498 -1.5763 -1.3064  1.5764
   29MOL0     H 3997   9.339   4.398   2.492 -2.2240 -2.0520  2.7416
   29MOL0     H 3998   8.992   4.187   2.589  0.7661  1.6590  3.0972
   29MOL0     H 3999   9.101   4.054   2.225 -0.2157 -0.5435 -0.0993
   29MOL0     H 4000   9.097   3.866   2.339 -0.4118 -1.6346  0.9628
   29MOL0     H 4001   9.072   3.922   2.495 -0.9525 -0.0433  1.1311
   29MOL0     H 4002   8.949   3.808   2.417  0.6590 -0.9683 -2.1382
   30MOL0     O 4003   5.891  10.154   0.669 -0.0967  0.3920 -0.0670
   30MOL0     C 4004   5.831  10.084   0.752  0.4087 -0.4571 -0.1573
   30MOL0     O 4005   5.874   9.964   0.797 -0.2143  0.4027 -0.2236
   30MOL0     C 4006   6.000   9.913   0.776 -0.2598 -0.4925 -0.3917
   30MOL0     C 4007   6.057   9.844   0.885 -0.4663  0.4788  0.4757
   30MOL0     C 4008   6.185   9.797   0.869 -0.2578  0.4180  0.9878
   30MOL0     C 4009   6.255   9.810   0.747  1.4604 -0.4045 -0.4606
   30MOL0     O 4010   6.385   9.766   0.750  0.1115  0.3241 -0.4815
   30MOL0     C 4011   6.463   9.783   0.632  0.4006 -0.2739 -0.0653
   30MOL0     C 4012   6.583   9.699   0.646  0.6769  0.2938 -0.0053
   30MOL0     C 4013   6.693   9.739   0.749 -0.1825 -0.8652  0.2221
   30MOL0     C 4014   6.817   9.652   0.749  0.6153 -0.2239  0.2913
   30MOL0     C 4015   6.931   9.704   0.816  0.1063 -0.9550 -0.5006
   30MOL0     C 4016   7.063   9.644   0.764  0.5313  0.1485 -0.9016
   30MOL0     C 4017   7.173   9.737   0.791  0.8784 -0.0550 -0.1422
   30MOL0     C 4018   7.301   9.720   0.704 -0.1618 -0.0998  0.1949
   30MOL0     N 4019   7.425   9.784   0.753 -0.4680 -0.4995  0.4815
   30MOL0     C 4020   7.551   9.727   0.784  0.3425  0.4819 -0.0062
   30MOL0     C 4021   7.625   9.832   0.817 -0.1660  0.2456 -0.1305
   30MOL0     C 4022   7.765   9.809   0.858  0.1410  0.7185  0.2603
   30MOL0     C 4023   7.772   9.753   1.009  0.1673  0.4955  0.5546
   30MOL0     C 4024   7.811   9.856   1.114 -0.7395  0.4142  0.4984
   30MOL0     C 4025   7.802   9.793   1.255 -0.9013  0.0983  0.7335
   30MOL0     O 4026   7.671   9.757   1.292  0.6293  0.1876  0.6531
   30MOL0     C 4027   7.577   9.864   1.298 -0.1042  0.1581  0.0515
   30MOL0     C 4028   7.459   9.839   1.222  0.2660  0.5853  1.1216
   30MOL0     C 4029   7.354   9.937   1.206  0.0090  0.5872  0.2990
   30MOL0     C 4030   7.232   9.906   1.116  0.5159  0.3844  0.2431
   30MOL0     C 4031   7.367  10.056   1.284  0.3460 -1.0770 -0.0710
   30MOL0     C 4032   7.255  10.157   1.311  0.1416 -0.0975  0.5123
   30MOL0     O 4033   7.280  10.259   1.401 -0.3068  0.6896  0.5868
   30MOL0     C 4034   7.184  10.361   1.428  1.2328 -0.4216 -0.5152
   30MOL0     C 4035   7.046  10.358   1.419 -0.6683  0.4468 -0.0910
   30MOL0     C 4036   6.968  10.472   1.447  0.4402 -0.5476  0.0775
   30MOL0     C 4037   7.014  10.587   1.503 -0.6377  0.1407  0.3866
   30MOL0     O 4038   6.911  10.667   1.541 -0.3762 -0.5358  0.1314
   30MOL0     C 4039   6.952  10.796   1.589 -0.0287 -0.3959  0.7592
   30MOL0     C 4040   6.970  10.899   1.483  0.8355 -0.4748 -0.2287
   30MOL0     C 4041   6.839  10.923   1.414  0.3028  0.4965 -0.5224
   30MOL0     C 4042   6.855  11.038   1.317 -0.2155  0.1443  0.1678
   30MOL0     C 4043   6.729  11.061   1.235  0.4273 -0.7621  0.4671
   30MOL0     C 4044   6.605  11.113   1.324 -0.7212 -0.5611  0.3335
   30MOL0     C 4045   6.503  11.189   1.237  1.5253 -0.3196  0.0705
   30MOL0     C 4046   6.431  11.304   1.313 -0.0908  0.5800 -0.5416
   30MOL0    Cl 4047   6.331  11.415   1.216 -0.0313 -0.2319 -0.0209
   30MOL0     C 4048   7.158  10.584   1.522 -0.3108 -0.6520 -0.5714
   30MOL0     C 4049   7.234  10.482   1.485 -0.1916 -0.2045 -1.0404
   30MOL0     O 4050   7.152  10.143   1.246 -0.2275 -0.0079 -0.3800
   30MOL0     C 4051   7.487  10.080   1.364 -0.2723 -0.6311 -0.2310
   30MOL0     C 4052   7.597   9.987   1.360  0.3718  0.1968 -0.0015
   30MOL0     N 4053   7.554   9.953   0.804 -0.5459 -0.2953  0.0050
   30MOL0     N 4054   7.437   9.922   0.764  0.2408 -0.0035 -0.5212
   30MOL0     C 4055   6.197   9.893   0.647 -1.2262 -0.4173 -0.0626
   30MOL0     C 4056   6.072   9.936   0.659 -0.3939 -0.4428  0.2562
   30MOL0     C 4057   5.695  10.119   0.801  0.2488 -0.4385 -0.2785
   30MOL0     C 4058   5.617  10.023   0.860  0.3747  0.5814  0.6066
   30MOL0     C 4059   5.478  10.044   0.894 -0.3212 -0.6051  0.3144
   30MOL0     C 4060   5.427  10.175   0.880 -0.2381 -0.4684  0.9757
   30MOL0     O 4061   5.298  10.207   0.903  0.1601  0.1141 -0.5583
   30MOL0     C 4062   5.198  10.114   0.936 -0.9282  0.7150  0.3051
   30MOL0     C 4063   5.172  10.024   0.815 -0.3848  0.4300  0.8299
   30MOL0     C 4064   5.036  10.057   0.751  0.0810 -0.5968 -1.2480
   30MOL0     C 4065   4.920   9.974   0.808  0.6472  0.1975  0.2945
   30MOL0     C 4066   4.947   9.829   0.830  0.8207 -0.8067  0.7781
   30MOL0     C 4067   4.958   9.714   0.859 -0.5386  0.1505 -0.5147
   30MOL0     C 4068   5.515  10.284   0.837 -0.0291  0.3860 -0.5278
   30MOL0     C 4069   5.644  10.249   0.798  0.4718 -0.5270 -0.6167
   30MOL0     C 4070   5.718  10.373   0.755  0.2111  0.1790  0.1564
   30MOL0     H 4071   5.998   9.830   0.975 -1.0056  1.4659  0.2837
   30MOL0     H 4072   6.227   9.735   0.948 -0.6833  0.2135  1.0549
   30MOL0     H 4073   6.505   9.884   0.623  0.3874  0.1461  3.2696
   30MOL0     H 4074   6.409   9.749   0.542 -0.4301 -1.1797  0.7498
   30MOL0     H 4075   6.552   9.595   0.658  4.3076 -0.7392  2.3498
   30MOL0     H 4076   6.640   9.704   0.553  1.4576 -0.0830  0.4366
   30MOL0     H 4077   6.730   9.842   0.736  1.5915 -1.0405  3.0972
   30MOL0     H 4078   6.665   9.738   0.855  0.0541  4.1711  0.6019
   30MOL0     H 4079   6.788   9.557   0.795 -0.4790  0.0935  0.2941
   30MOL0     H 4080   6.834   9.641   0.642 -5.0013  0.7062 -1.0553
   30MOL0     H 4081   6.928   9.679   0.922  2.4707 -3.9713 -1.0085
   30MOL0     H 4082   6.932   9.812   0.798 -0.8819 -1.3962 -4.1308
   30MOL0     H 4083   7.075   9.556   0.829 -2.1489 -0.7669 -1.5233
   30MOL0     H 4084   7.057   9.631   0.656 -0.3322  2.3503 -1.1603
   30MOL0     H 4085   7.201   9.723   0.896 -1.7264 -4.8300  0.1883
   30MOL0     H 4086   7.133   9.838   0.779  0.0494 -0.4121 -0.4337
   30MOL0     H 4087   7.316   9.617   0.670 -1.1281 -0.9886  2.2635
   30MOL0     H 4088   7.281   9.777   0.613  3.0566  2.7489  1.0544
   30MOL0     H 4089   7.574   9.621   0.775  2.0700  0.8652 -0.5433
   30MOL0     H 4090   7.823   9.901   0.856 -0.4744  1.0992 -1.1317
   30MOL0     H 4091   7.802   9.735   0.786 -3.4623 -0.0372 -1.0318
   30MOL0     H 4092   7.675   9.713   1.040  0.1905 -0.2687 -0.2969
   30MOL0     H 4093   7.832   9.661   1.014 -3.2228 -2.0758 -1.1828
   30MOL0     H 4094   7.909   9.902   1.103 -0.9130  0.8285  0.6396
   30MOL0     H 4095   7.748   9.945   1.118  1.1511  1.7737  1.7731
   30MOL0     H 4096   7.866   9.705   1.255  2.8196  2.5579 -0.9846
   30MOL0     H 4097   7.846   9.857   1.332 -2.0212 -0.4570  1.8857
   30MOL0     H 4098   7.448   9.738   1.182  3.4960  0.8000 -0.6851
   30MOL0     H 4099   7.232   9.804   1.078 -0.0753  1.7675 -4.0154
   30MOL0     H 4100   7.249   9.962   1.023  1.1927 -0.4351 -0.1462
   30MOL0     H 4101   7.135   9.925   1.162  0.2006  0.0682 -0.2741
   30MOL0     H 4102   6.997  10.271   1.376 -1.4018  0.6767  0.2624
   30MOL0     H 4103   6.862  10.468   1.424 -0.0014  3.1043  0.8636
   30MOL0     H 4104   6.890  10.829   1.672  1.2541 -1.7792  2.3488
   30MOL0     H 4105   7.048  10.792   1.641 -1.1163 -1.1299  2.8007
   30MOL0     H 4106   6.999  10.998   1.519 -0.3257  0.4709 -1.7798
   30MOL0     H 4107   7.049  10.868   1.413  0.2505  0.1851 -1.1883
   30MOL0     H 4108   6.769  10.954   1.492 -0.9627  0.1037 -1.4607
   30MOL0     H 4109   6.795  10.829   1.379 -1.2715  0.6972  0.7965
   30MOL0     H 4110   6.940  11.016   1.252 -1.1119  0.3987 -1.1366
   30MOL0     H 4111   6.883  11.125   1.376  1.6551  0.1197 -0.6228
   30MOL0     H 4112   6.756  11.118   1.145  1.2419 -0.7494  0.7128
   30MOL0     H 4113   6.697  10.968   1.185  1.0465 -0.2165 -1.0133
   30MOL0     H 4114   6.652  11.176   1.400  1.5089  2.5661 -3.3162
   30MOL0     H 4115   6.555  11.023   1.362 -0.8946 -2.1027 -3.1486
   30MOL0     H 4116   6.431  11.119   1.192  1.2385 -0.7661  1.1854
   30MOL0     H 4117   6.555  11.237   1.153  2.0073  1.9161  1.5650
   30MOL0     H 4118   6.503  11.374   1.358 -1.4804  2.9384 -1.7917
   30MOL0     H 4119   6.359  11.263   1.385  1.8313  0.9314  1.7095
   30MOL0     H 4120   7.201  10.675   1.561  1.1372 -1.8137  0.6523
   30MOL0     H 4121   7.343  10.487   1.489 -0.2803  2.9161  0.1566
   30MOL0     H 4122   7.501  10.168   1.427  2.4676 -0.7506 -0.5936
   30MOL0     H 4123   7.683  10.026   1.412 -2.6153  4.0549  2.6096
   30MOL0     H 4124   6.253   9.924   0.560 -1.5067 -0.1310 -0.1433
   30MOL0     H 4125   6.021   9.987   0.578 -0.7201  1.3903  1.5448
   30MOL0     H 4126   5.664   9.925   0.872  1.0517  0.8963  0.5403
   30MOL0     H 4127   5.426   9.961   0.941  0.9002 -0.6718  1.5980
   30MOL0     H 4128   5.235  10.040   1.007 -1.3361 -2.6684 -2.7529
   30MOL0     H 4129   5.107  10.161   0.975 -0.0724  2.5854  0.1478
   30MOL0     H 4130   5.184   9.919   0.846 -0.6835 -0.0236 -0.5162
   30MOL0     H 4131   5.251  10.044   0.742  1.7185 -2.7845  1.9942
   30MOL0     H 4132   5.024  10.165   0.760 -2.5819 -0.9729  0.9850
   30MOL0     H 4133   5.026  10.027   0.646 -0.6259 -0.8544 -1.1118
   30MOL0     H 4134   4.837   9.989   0.738  1.5488 -0.3186 -0.9114
   30MOL0     H 4135   4.894  10.014   0.906  0.2308 -1.4020  0.8634
   30MOL0     H 4136   4.958   9.611   0.888  0.6059 -0.1460 -1.4792
   30MOL0     H 4137   5.467  10.381   0.829 -3.0566 -1.0080 -0.6733
   30MOL0     H 4138   5.773  10.359   0.661  2.5740  3.0008  0.9723
   30MOL0     H 4139   5.654  10.459   0.733  0.4259  0.1651 -0.5630
   30MOL0     H 4140   5.792  10.388   0.834 -0.4488  2.1847  0.4598
   31MOL0     O 4141   5.773   5.585   5.218  0.0949  0.1344 -0.2066
   31MOL0     C 4142   5.749   5.698   5.181  0.3179  0.5035 -0.6987
   31MOL0     O 4143   5.679   5.734   5.071 -0.3156  0.2855  0.2177
   31MOL0     C 4144   5.609   5.627   5.011 -0.1386 -0.1285  0.8675
   31MOL0     C 4145   5.491   5.579   5.066  0.5393 -0.8597  1.0020
   31MOL0     C 4146   5.407   5.482   5.022  0.5599  0.4123  1.1438
   31MOL0     C 4147   5.427   5.433   4.891 -0.4455 -0.2887 -0.9074
   31MOL0     O 4148   5.342   5.338   4.841  0.0968 -0.2984  0.6922
   31MOL0     C 4149   5.314   5.342   4.699  0.3194  0.7144  0.7117
   31MOL0     C 4150   5.234   5.222   4.642 -0.0408  0.5400 -0.0174
   31MOL0     C 4151   5.319   5.094   4.651 -1.1306  0.6589  0.9054
   31MOL0     C 4152   5.268   4.978   4.567 -0.9672 -0.2802 -0.3526
   31MOL0     C 4153   5.118   4.943   4.576  0.4602  0.5441  0.5439
   31MOL0     C 4154   5.064   4.805   4.509  0.2593  0.6262  0.4617
   31MOL0     C 4155   5.111   4.676   4.572 -0.6527 -0.2133 -0.0998
   31MOL0     C 4156   5.094   4.665   4.722  0.1038  0.0791 -0.0456
   31MOL0     N 4157   4.967   4.618   4.768  0.1421 -0.3833  0.1764
   31MOL0     C 4158   4.859   4.696   4.801  0.1083 -0.5583  0.9774
   31MOL0     C 4159   4.765   4.610   4.832 -0.6879  0.3192 -0.2030
   31MOL0     C 4160   4.647   4.650   4.902 -0.3688 -0.5401  0.2254
   31MOL0     C 4161   4.519   4.636   4.803 -0.7955  1.0105  0.4409
   31MOL0     C 4162   4.391   4.653   4.883  0.0836 -0.1304  0.1103
   31MOL0     C 4163   4.264   4.621   4.795  0.3030  0.1273 -0.6772
   31MOL0     O 4164   4.261   4.708   4.679 -0.0225 -0.6539  0.7010
   31MOL0     C 4165   4.167   4.682   4.581  0.9531 -0.2228 -0.7404
   31MOL0     C 4166   4.029   4.702   4.606 -0.6437 -0.6404  1.0045
   31MOL0     C 4167   3.929   4.670   4.512 -0.0990 -0.0357 -0.1613
   31MOL0     C 4168   3.788   4.685   4.560 -0.4929 -0.2360 -0.6069
   31MOL0     C 4169   3.967   4.605   4.398  0.6416 -0.3375  0.0842
   31MOL0     C 4170   3.873   4.562   4.287 -0.4172 -0.1978 -0.7513
   31MOL0     O 4171   3.915   4.569   4.160  0.2705  0.2887 -0.2079
   31MOL0     C 4172   3.847   4.492   4.073  0.5947 -1.0273 -0.9241
   31MOL0     C 4173   3.724   4.546   4.028  0.6103  0.7065 -0.6372
   31MOL0     C 4174   3.661   4.479   3.922  0.4067  0.9866  0.1269
   31MOL0     C 4175   3.718   4.363   3.858  0.0667 -0.3422  0.1938
   31MOL0     O 4176   3.651   4.293   3.756  0.5302 -0.8710  1.1371
   31MOL0     C 4177   3.621   4.385   3.643  0.3796 -0.3074 -0.8072
   31MOL0     C 4178   3.489   4.361   3.585  0.4090  0.0147  0.8368
   31MOL0     C 4179   3.487   4.244   3.482  0.0454  0.4011  0.4587
   31MOL0     C 4180   3.346   4.227   3.422  0.4810 -0.2733  0.7224
   31MOL0     C 4181   3.328   4.102   3.331 -0.7111 -0.0140 -0.4260
   31MOL0     C 4182   3.363   3.963   3.404 -0.7792  0.1968 -0.2584
   31MOL0     C 4183   3.294   3.935   3.539  1.0357  0.7169 -0.8423
   31MOL0     C 4184   3.313   3.789   3.586 -0.2702  0.4050  0.8597
   31MOL0    Cl 4185   3.209   3.688   3.494  0.2956 -0.0543  0.1365
   31MOL0     C 4186   3.843   4.319   3.905 -0.0954  0.7302  0.1465
   31MOL0     C 4187   3.907   4.385   4.014  0.3087 -0.3388  0.0914
   31MOL0     O 4188   3.758   4.525   4.319 -0.3695  0.2055 -0.0985
   31MOL0     C 4189   4.103   4.580   4.379  0.5459  0.2299  0.2040
   31MOL0     C 4190   4.200   4.610   4.468  0.5802 -1.4804 -0.8331
   31MOL0     N 4191   4.815   4.477   4.812  1.3527 -0.1098  0.0104
   31MOL0     N 4192   4.930   4.489   4.771 -0.8371  0.3265  0.4292
   31MOL0     C 4193   5.541   5.480   4.818  0.3461 -0.2623 -0.5550
   31MOL0     C 4194   5.634   5.563   4.883 -1.4086 -0.3623 -0.9744
   31MOL0     C 4195   5.749   5.808   5.288 -0.7865 -0.7728 -0.0479
   31MOL0     C 4196   5.792   5.776   5.422 -0.8704  0.7389  0.1860
   31MOL0     C 4197   5.789   5.870   5.522  0.1846  0.6591 -0.3929
   31MOL0     C 4198   5.753   6.004   5.489  0.5098  0.1992  0.0235
   31MOL0     O 4199   5.732   6.106   5.575  0.0959 -0.2807 -0.8352
   31MOL0     C 4200   5.777   6.092   5.720 -0.0223  1.3752  0.3451
   31MOL0     C 4201   5.763   6.227   5.799 -0.0814  0.6927  0.1859
   31MOL0     C 4202   5.767   6.203   5.951 -0.4033  0.0216  1.5166
   31MOL0     C 4203   5.772   6.334   6.032  0.1318  0.3727 -0.4356
   31MOL0     C 4204   5.640   6.396   6.033  0.1381 -0.4458 -0.2245
   31MOL0     C 4205   5.530   6.463   6.033 -0.2982 -0.0331  0.4371
   31MOL0     C 4206   5.740   6.036   5.362  0.4675  0.0336 -0.0869
   31MOL0     C 4207   5.738   5.946   5.260  0.8633  0.0333 -0.3598
   31MOL0     C 4208   5.746   6.002   5.113  0.4967  0.4384 -0.3674
   31MOL0     H 4209   5.471   5.621   5.164 -1.1614  1.6782 -0.3195
   31MOL0     H 4210   5.324   5.443   5.079  0.6242  1.0678  1.6904
   31MOL0     H 4211   5.403   5.342   4.635  1.2441 -1.3996  1.8698
   31MOL0     H 4212   5.261   5.436   4.684  0.1108  0.4845 -0.0089
   31MOL0     H 4213   5.130   5.213   4.675  0.6160  1.0798  2.4640
   31MOL0     H 4214   5.222   5.239   4.535  2.4518  0.0907 -0.4253
   31MOL0     H 4215   5.422   5.113   4.619 -1.2602  1.5896  1.0292
   31MOL0     H 4216   5.321   5.059   4.755 -0.6427  0.1069  0.7190
   31MOL0     H 4217   5.293   4.996   4.462 -0.5079  3.2133  0.2348
   31MOL0     H 4218   5.318   4.881   4.584 -1.9385 -0.9011 -0.9474
   31MOL0     H 4219   5.053   5.018   4.529  0.6593 -0.1536 -0.9128
   31MOL0     H 4220   5.094   4.929   4.682 -2.0458  0.7517  0.0782
   31MOL0     H 4221   4.956   4.797   4.519  0.1575 -0.3439 -1.0171
   31MOL0     H 4222   5.079   4.801   4.401  0.7350 -3.1402  0.5371
   31MOL0     H 4223   5.217   4.666   4.546 -0.9130 -0.6297 -1.0717
   31MOL0     H 4224   5.074   4.589   4.517 -1.0839 -0.8040  1.0833
   31MOL0     H 4225   5.168   4.596   4.763  0.4883  0.8312  0.5614
   31MOL0     H 4226   5.109   4.759   4.776 -0.9842 -0.0687  0.5377
   31MOL0     H 4227   4.850   4.804   4.810  2.8155  0.0507 -1.7905
   31MOL0     H 4228   4.645   4.750   4.946  1.2893 -0.0419 -0.7556
   31MOL0     H 4229   4.635   4.578   4.984 -0.3193 -0.0053  0.7093
   31MOL0     H 4230   4.517   4.723   4.737 -3.5895  1.5810  1.1221
   31MOL0     H 4231   4.517   4.542   4.746  0.1295 -1.2016  3.7295
   31MOL0     H 4232   4.400   4.589   4.971 -0.1112  0.2297  0.3968
   31MOL0     H 4233   4.392   4.759   4.911 -0.7889  0.2397 -1.1490
   31MOL0     H 4234   4.275   4.518   4.759 -0.1100 -0.6157  1.2223
   31MOL0     H 4235   4.176   4.634   4.859 -0.1098 -2.5617 -0.5957
   31MOL0     H 4236   4.011   4.755   4.699  2.1583  1.3792  0.5371
   31MOL0     H 4237   3.728   4.747   4.493 -0.0452  0.8171 -0.0571
   31MOL0     H 4238   3.786   4.730   4.659  0.9236 -0.6722 -0.3462
   31MOL0     H 4239   3.744   4.585   4.569 -1.1311  0.0829 -0.1055
   31MOL0     H 4240   3.678   4.638   4.062  2.1250  1.9714 -1.8512
   31MOL0     H 4241   3.563   4.508   3.885  0.5250  1.8844  0.5036
   31MOL0     H 4242   3.609   4.490   3.672 -0.6354 -0.7378  0.3979
   31MOL0     H 4243   3.699   4.378   3.566 -0.5171  1.0235 -1.9016
   31MOL0     H 4244   3.422   4.336   3.667 -1.8957 -1.5503 -1.3635
   31MOL0     H 4245   3.452   4.450   3.533 -0.1065 -0.4693  0.3599
   31MOL0     H 4246   3.516   4.157   3.541  0.9794  0.0919 -0.4311
   31MOL0     H 4247   3.568   4.256   3.410 -1.3589  1.8923 -0.9536
   31MOL0     H 4248   3.331   4.312   3.355  0.4781 -3.1260 -3.2840
   31MOL0     H 4249   3.276   4.219   3.506  1.1249  0.2477  1.3153
   31MOL0     H 4250   3.220   4.098   3.312 -0.8887  1.4400  0.1387
   31MOL0     H 4251   3.382   4.109   3.237 -1.4101  1.7141 -0.7343
   31MOL0     H 4252   3.470   3.949   3.415 -0.2975  1.9227 -2.1832
   31MOL0     H 4253   3.336   3.884   3.333  1.8735 -0.9860 -0.0317
   31MOL0     H 4254   3.186   3.949   3.529  0.1982 -1.6086  2.8186
   31MOL0     H 4255   3.349   3.993   3.614  3.6309 -0.6909 -1.5239
   31MOL0     H 4256   3.289   3.770   3.691  0.1987 -5.1086  0.2675
   31MOL0     H 4257   3.415   3.753   3.571 -1.3075 -1.8271 -1.8412
   31MOL0     H 4258   3.902   4.242   3.856  0.0929  0.7824  0.2925
   31MOL0     H 4259   4.008   4.353   4.036  1.0638  2.0962  0.4422
   31MOL0     H 4260   4.144   4.537   4.289 -0.4534 -0.1782 -0.0780
   31MOL0     H 4261   4.303   4.582   4.446  1.0123 -2.0502  1.6152
   31MOL0     H 4262   5.565   5.472   4.713  2.0342  1.1055 -0.3129
   31MOL0     H 4263   5.722   5.599   4.832 -3.3438  1.2629 -3.4274
   31MOL0     H 4264   5.804   5.670   5.441 -1.2368  0.8339  0.9933
   31MOL0     H 4265   5.814   5.837   5.622  0.7599 -0.0945 -0.7757
   31MOL0     H 4266   5.720   6.007   5.759  4.6569 -1.6387  1.3883
   31MOL0     H 4267   5.884   6.072   5.718 -0.1112  0.9318 -0.3195
   31MOL0     H 4268   5.679   6.290   5.768  1.0560  2.9682  1.5205
   31MOL0     H 4269   5.847   6.287   5.764  0.8780 -0.6537  0.0924
   31MOL0     H 4270   5.683   6.139   5.979 -0.7815 -1.0394 -1.6441
   31MOL0     H 4271   5.858   6.148   5.977 -1.1518 -1.6054  0.8362
   31MOL0     H 4272   5.855   6.394   5.992 -0.1125  1.5041  0.6735
   31MOL0     H 4273   5.788   6.310   6.137 -2.9642  0.6836  0.2191
   31MOL0     H 4274   5.439   6.518   6.024 -0.6244 -0.9796 -3.4890
   31MOL0     H 4275   5.714   6.139   5.336 -1.7204 -0.3809  0.2868
   31MOL0     H 4276   5.842   5.971   5.070  1.1124 -0.0296  1.2543
   31MOL0     H 4277   5.664   5.962   5.053  1.4883 -0.4673 -1.1496
   31MOL0     H 4278   5.758   6.111   5.105 -1.2132  0.7946  1.1782
   32MOL0     O 4279   1.110   0.459   2.345  0.0591  0.3222 -0.5941
   32MOL0     C 4280   1.128   0.362   2.275  0.5313  0.3948  0.6539
   32MOL0     O 4281   1.240   0.287   2.275  0.3423 -0.6127  0.1298
   32MOL0     C 4282   1.325   0.295   2.383 -0.3431 -0.0396 -0.0016
   32MOL0     C 4283   1.463   0.318   2.367  0.2255  0.3412 -0.0535
   32MOL0     C 4284   1.548   0.318   2.484  0.3495 -0.0963 -1.2760
   32MOL0     C 4285   1.498   0.294   2.614 -0.7819 -0.5323 -0.3899
   32MOL0     O 4286   1.584   0.314   2.721  0.2871 -0.1185  0.3564
   32MOL0     C 4287   1.517   0.333   2.849 -0.4676 -0.8269  0.2562
   32MOL0     C 4288   1.621   0.369   2.962 -0.4025 -0.1767 -0.7126
   32MOL0     C 4289   1.723   0.480   2.943 -0.3966 -0.6718  0.2044
   32MOL0     C 4290   1.837   0.487   3.046  0.0305 -0.3797 -0.5088
   32MOL0     C 4291   1.926   0.613   3.033 -0.2698 -0.3418 -1.0934
   32MOL0     C 4292   2.034   0.620   3.145 -0.8045  0.4875 -1.4029
   32MOL0     C 4293   2.137   0.735   3.149 -0.0923 -0.1469  0.8564
   32MOL0     C 4294   2.264   0.690   3.228  0.5592  0.3331 -1.4906
   32MOL0     N 4295   2.353   0.815   3.229 -0.7103  0.4682 -0.2405
   32MOL0     C 4296   2.362   0.900   3.338  0.0878 -0.5696  0.1648
   32MOL0     C 4297   2.469   0.975   3.306 -0.4016  0.1309  0.1840
   32MOL0     C 4298   2.529   1.073   3.392 -0.1611 -0.5983  0.3070
   32MOL0     C 4299   2.640   1.156   3.319  0.2642 -0.0805  0.2641
   32MOL0     C 4300   2.714   1.231   3.422  0.3639  0.4733  1.0608
   32MOL0     C 4301   2.778   1.354   3.356  0.2388  0.0758 -0.3035
   32MOL0     O 4302   2.871   1.307   3.255 -0.3484 -0.4428 -0.3874
   32MOL0     C 4303   2.967   1.395   3.218 -0.2422 -0.0273 -0.7346
   32MOL0     C 4304   3.035   1.361   3.096  1.2424  0.3852 -0.3398
   32MOL0     C 4305   3.134   1.444   3.037 -0.2801  0.1560 -0.2863
   32MOL0     C 4306   3.196   1.404   2.913 -0.8752  0.0499 -0.0892
   32MOL0     C 4307   3.166   1.562   3.098  0.3418 -0.3401 -0.1608
   32MOL0     C 4308   3.275   1.653   3.063 -0.8178 -1.3260  0.3793
   32MOL0     O 4309   3.239   1.782   3.077 -0.0703  0.2221  0.1748
   32MOL0     C 4310   3.313   1.879   3.004  0.0049  1.2072 -0.1999
   32MOL0     C 4311   3.453   1.903   3.037  0.3494  0.5503 -0.5653
   32MOL0     C 4312   3.526   1.989   2.955  0.2082  0.3641  0.5322
   32MOL0     C 4313   3.468   2.065   2.856  0.6571  0.3652  0.0727
   32MOL0     O 4314   3.536   2.155   2.778 -0.0941 -0.2628  0.2778
   32MOL0     C 4315   3.655   2.206   2.821  0.4987 -0.2253 -0.7099
   32MOL0     C 4316   3.735   2.303   2.741  0.8970  0.3356 -0.5365
   32MOL0     C 4317   3.735   2.267   2.594  0.3184  0.4380 -0.7925
   32MOL0     C 4318   3.844   2.345   2.515  0.7481 -0.7813  0.2293
   32MOL0     C 4319   3.845   2.310   2.366  0.1305 -0.8472  0.1970
   32MOL0     C 4320   3.924   2.419   2.285  0.3612  0.3068  0.5955
   32MOL0     C 4321   3.938   2.393   2.137 -0.6857  0.8107 -0.0858
   32MOL0     C 4322   4.062   2.308   2.115  0.4886 -0.5092  0.3433
   32MOL0    Cl 4323   4.087   2.252   1.949  0.1857 -0.5262 -0.4238
   32MOL0     C 4324   3.336   2.036   2.825  0.1313 -0.7523 -0.5898
   32MOL0     C 4325   3.258   1.948   2.903 -0.1166  0.3893  0.0122
   32MOL0     O 4326   3.379   1.614   3.011  0.2096  0.1982 -0.0680
   32MOL0     C 4327   3.100   1.596   3.220  0.2039 -0.2733  0.2813
   32MOL0     C 4328   3.003   1.511   3.274 -0.3209 -1.0600 -0.4099
   32MOL0     N 4329   2.523   0.926   3.186 -0.0219 -0.2537 -0.5666
   32MOL0     N 4330   2.448   0.835   3.137 -0.5130 -0.2498 -0.1725
   32MOL0     C 4331   1.357   0.269   2.623 -0.2712 -0.3700  0.3886
   32MOL0     C 4332   1.280   0.273   2.510 -0.4201 -0.4130 -0.2798
   32MOL0     C 4333   1.051   0.367   2.153 -0.5508 -0.5888 -0.3668
   32MOL0     C 4334   0.927   0.428   2.162 -0.3115  0.0728  0.3447
   32MOL0     C 4335   0.847   0.437   2.050 -0.6832  0.5545 -1.0608
   32MOL0     C 4336   0.879   0.389   1.928  0.0924 -0.7272  0.9055
   32MOL0     O 4337   0.790   0.409   1.828  0.0216  1.0869  0.8304
   32MOL0     C 4338   0.823   0.393   1.693 -0.3409 -0.4533 -0.0061
   32MOL0     C 4339   0.712   0.437   1.602 -0.0055  0.4887 -0.8004
   32MOL0     C 4340   0.732   0.392   1.456 -0.3180 -0.0007  0.6010
   32MOL0     C 4341   0.596   0.363   1.393  1.0081  0.1442  0.5836
   32MOL0     C 4342   0.534   0.497   1.390 -1.5177 -0.0747  0.2064
   32MOL0     C 4343   0.490   0.614   1.388  0.6565  0.4831 -0.9885
   32MOL0     C 4344   1.008   0.350   1.910 -0.2336  0.6044 -0.3134
   32MOL0     C 4345   1.096   0.330   2.020 -0.0366 -0.5486 -1.0771
   32MOL0     C 4346   1.233   0.279   1.981  0.5688 -0.6068 -0.7167
   32MOL0     H 4347   1.493   0.364   2.273  3.6613  0.6039  1.0371
   32MOL0     H 4348   1.649   0.357   2.475  0.0452  1.4913  1.1858
   32MOL0     H 4349   1.463   0.241   2.875  0.9770 -1.3491  1.5451
   32MOL0     H 4350   1.443   0.415   2.850 -1.4969 -1.5891 -2.7838
   32MOL0     H 4351   1.571   0.389   3.057 -0.8019 -0.9739 -0.7521
   32MOL0     H 4352   1.686   0.282   2.978 -0.7098 -0.2517  0.2310
   32MOL0     H 4353   1.775   0.452   2.851  0.7750  1.5874  0.1122
   32MOL0     H 4354   1.671   0.571   2.912 -0.7666 -1.6093 -2.1465
   32MOL0     H 4355   1.787   0.481   3.143 -1.4212 -0.9647 -1.2572
   32MOL0     H 4356   1.899   0.401   3.021 -0.2957 -0.7393 -0.1101
   32MOL0     H 4357   1.880   0.712   3.035  2.6174  1.1234  2.2986
   32MOL0     H 4358   1.980   0.609   2.938  0.7398 -0.0998 -0.5426
   32MOL0     H 4359   1.994   0.610   3.246 -0.5858  1.8013 -1.1632
   32MOL0     H 4360   2.088   0.525   3.140 -0.9068  0.2472  0.9334
   32MOL0     H 4361   2.091   0.823   3.194 -1.5208 -0.0624 -0.6797
   32MOL0     H 4362   2.169   0.757   3.047  0.9531  1.0706  1.4082
   32MOL0     H 4363   2.255   0.664   3.334  4.1173  1.5892 -0.7246
   32MOL0     H 4364   2.321   0.614   3.174 -1.6925 -2.6279  0.0030
   32MOL0     H 4365   2.315   0.884   3.434 -1.2279 -1.6297 -0.6108
   32MOL0     H 4366   2.562   1.021   3.483 -0.5326  0.6875  1.2006
   32MOL0     H 4367   2.448   1.139   3.424  0.8379  0.5817  0.4834
   32MOL0     H 4368   2.703   1.101   3.249 -0.2646  0.0144 -0.2954
   32MOL0     H 4369   2.577   1.232   3.271 -1.4209 -2.8564 -2.2762
   32MOL0     H 4370   2.640   1.270   3.492  1.7533  1.4309  2.0282
   32MOL0     H 4371   2.778   1.161   3.477 -0.6067 -0.8817  0.5260
   32MOL0     H 4372   2.713   1.418   3.296  2.7336 -0.3669 -3.7238
   32MOL0     H 4373   2.815   1.418   3.437  2.8092 -2.1938  0.4561
   32MOL0     H 4374   3.029   1.259   3.058 -0.1170 -0.1542  1.1929
   32MOL0     H 4375   3.130   1.341   2.852 -1.5556  0.6926 -0.0315
   32MOL0     H 4376   3.289   1.350   2.932  0.2184  0.8611 -2.6629
   32MOL0     H 4377   3.235   1.489   2.856  1.7449 -0.3366  0.9701
   32MOL0     H 4378   3.504   1.839   3.109  0.0972  2.4952  1.4678
   32MOL0     H 4379   3.634   2.000   2.966  0.1230  0.4952  1.2812
   32MOL0     H 4380   3.632   2.241   2.922 -3.1011 -3.6162 -0.0973
   32MOL0     H 4381   3.728   2.126   2.836  1.0957  0.5307  0.6120
   32MOL0     H 4382   3.684   2.400   2.739 -0.5562 -0.3912 -3.1253
   32MOL0     H 4383   3.824   2.316   2.804  0.4342 -1.8320  0.6569
   32MOL0     H 4384   3.636   2.286   2.553  1.4101  3.0265 -2.5570
   32MOL0     H 4385   3.752   2.159   2.580  0.8307 -0.0960  2.9089
   32MOL0     H 4386   3.936   2.326   2.571  0.6569  2.1611  1.5181
   32MOL0     H 4387   3.842   2.453   2.532  1.2628 -0.5512 -1.0618
   32MOL0     H 4388   3.896   2.214   2.349  3.1376  0.7409 -0.6140
   32MOL0     H 4389   3.746   2.296   2.321  2.0563 -1.6455 -4.3866
   32MOL0     H 4390   4.015   2.461   2.328 -1.8627  4.8265  1.5197
   32MOL0     H 4391   3.864   2.511   2.287 -1.3728 -0.7245 -0.4912
   32MOL0     H 4392   3.942   2.483   2.075  3.7443  0.3369 -0.7917
   32MOL0     H 4393   3.848   2.336   2.116 -0.9440  1.2897 -0.3000
   32MOL0     H 4394   4.054   2.224   2.185 -1.0301 -1.5422 -0.9934
   32MOL0     H 4395   4.158   2.347   2.150 -1.2797  2.2238  2.5618
   32MOL0     H 4396   3.276   2.082   2.746  1.3253  3.9787  0.9854
   32MOL0     H 4397   3.151   1.938   2.885 -0.1308 -1.9717  1.0928
   32MOL0     H 4398   3.120   1.693   3.265  0.4602  0.4225 -1.2306
   32MOL0     H 4399   2.952   1.538   3.366  0.2280 -0.5981 -0.2302
   32MOL0     H 4400   1.309   0.260   2.720  1.6251  2.6329  1.7582
   32MOL0     H 4401   1.173   0.260   2.520 -0.2227 -1.6933  0.4228
   32MOL0     H 4402   0.897   0.464   2.260  2.0236  2.1350  0.4053
   32MOL0     H 4403   0.752   0.489   2.053  0.1874  2.1623 -0.3166
   32MOL0     H 4404   0.909   0.458   1.673  0.3838 -0.5297  2.5445
   32MOL0     H 4405   0.844   0.286   1.685  0.0695 -0.6005  2.3584
   32MOL0     H 4406   0.699   0.546   1.605 -1.4248  0.3489 -1.2052
   32MOL0     H 4407   0.623   0.385   1.640  1.9605 -1.9759  0.7035
   32MOL0     H 4408   0.781   0.475   1.405 -0.7334 -0.1087  0.0220
   32MOL0     H 4409   0.798   0.304   1.451  0.0891  0.3744 -2.2131
   32MOL0     H 4410   0.535   0.285   1.440  1.6920 -1.2492 -0.7494
   32MOL0     H 4411   0.611   0.323   1.292 -2.0635 -1.5280  0.6638
   32MOL0     H 4412   0.459   0.716   1.392  0.2582  0.3633 -0.8910
   32MOL0     H 4413   1.056   0.329   1.815 -0.0684 -1.2295  0.1298
   32MOL0     H 4414   1.299   0.351   2.031 -2.0772  2.7677 -1.7614
   32MOL0     H 4415   1.245   0.178   2.023  1.5606 -0.4628 -0.6249
   32MOL0     H 4416   1.249   0.280   1.873 -2.7961 -0.8494 -1.3415
   33MOL0     O 4417   3.635  11.442   2.567  0.4472  0.7098 -0.0407
   33MOL0     C 4418   3.599  11.478   2.453  1.0089 -0.2598 -0.5646
   33MOL0     O 4419   3.474  11.538   2.419 -0.2413 -0.0383 -0.0506
   33MOL0     C 4420   3.354  11.499   2.466  0.1321  0.0415 -1.4335
   33MOL0     C 4421   3.244  11.577   2.417  0.1904  0.4122  0.3924
   33MOL0     C 4422   3.112  11.552   2.470 -1.1860 -1.1867  0.4267
   33MOL0     C 4423   3.087  11.441   2.548 -0.1334  0.3292 -0.0927
   33MOL0     O 4424   2.958  11.422   2.586  0.7120 -0.5028  0.0825
   33MOL0     C 4425   2.927  11.329   2.681  0.3621 -0.7635 -0.5982
   33MOL0     C 4426   2.873  11.212   2.608 -0.2122  0.1643 -0.4907
   33MOL0     C 4427   2.811  11.102   2.700 -0.5419 -0.7394 -0.4261
   33MOL0     C 4428   2.761  10.976   2.617  0.1317 -0.4648 -0.5679
   33MOL0     C 4429   2.748  10.851   2.715 -0.6169  0.8690  0.8519
   33MOL0     C 4430   2.671  10.738   2.637  0.2133 -0.7568  0.2641
   33MOL0     C 4431   2.605  10.625   2.721 -0.4671 -0.7245  0.3535
   33MOL0     C 4432   2.699  10.548   2.823 -0.3851 -1.6641  0.1978
   33MOL0     N 4433   2.683  10.402   2.831 -0.7811 -0.2273  0.1407
   33MOL0     C 4434   2.782  10.314   2.871 -0.7398  1.0909  0.5255
   33MOL0     C 4435   2.721  10.194   2.864  0.4918 -0.3418 -0.4147
   33MOL0     C 4436   2.788  10.058   2.857 -0.1081  0.1669  0.0513
   33MOL0     C 4437   2.714   9.949   2.939  0.0706  0.1860 -0.0902
   33MOL0     C 4438   2.765   9.805   2.912 -0.6517 -1.1359 -0.4831
   33MOL0     C 4439   2.918   9.791   2.883  0.1346  0.4815  0.5662
   33MOL0     O 4440   2.988   9.839   3.000  0.1914 -0.2397 -0.1618
   33MOL0     C 4441   3.127   9.839   2.988  0.2994 -0.3686  0.3538
   33MOL0     C 4442   3.202   9.755   2.899  0.3960  0.3177  0.6284
   33MOL0     C 4443   3.340   9.755   2.900  0.4145 -0.0286 -0.4863
   33MOL0     C 4444   3.413   9.643   2.827 -0.2892 -0.0350 -0.2592
   33MOL0     C 4445   3.414   9.842   2.979  0.5380  0.5373  0.1933
   33MOL0     C 4446   3.566   9.870   2.957  0.5429  0.6039  0.5033
   33MOL0     O 4447   3.621   9.865   2.831 -0.1040 -0.1567  0.9458
   33MOL0     C 4448   3.751   9.824   2.817  0.0495 -0.3092  0.5257
   33MOL0     C 4449   3.821   9.758   2.923 -0.1825  0.5989 -0.6751
   33MOL0     C 4450   3.953   9.717   2.886 -0.2416  0.0556  0.7096
   33MOL0     C 4451   4.019   9.742   2.758  0.3138 -0.5230 -0.2413
   33MOL0     O 4452   4.151   9.692   2.751 -0.2597  0.5748 -0.0465
   33MOL0     C 4453   4.230   9.767   2.659 -0.3585 -0.1020 -0.3144
   33MOL0     C 4454   4.372   9.722   2.665 -0.9059 -0.3078  0.0883
   33MOL0     C 4455   4.451   9.766   2.550 -0.3849 -0.6549  0.9196
   33MOL0     C 4456   4.591   9.709   2.557  0.5061 -0.4361  0.7246
   33MOL0     C 4457   4.698   9.762   2.461  0.0938 -0.3704  0.1327
   33MOL0     C 4458   4.673   9.754   2.314  0.4819 -0.2902 -0.6792
   33MOL0     C 4459   4.654   9.611   2.264  0.6688  0.4763 -0.2026
   33MOL0     C 4460   4.672   9.609   2.109  0.3100  0.0559 -0.3539
   33MOL0    Cl 4461   4.848   9.614   2.080  0.2557  0.0619  0.4360
   33MOL0     C 4462   3.944   9.810   2.668 -0.6504  0.8563 -0.0533
   33MOL0     C 4463   3.809   9.850   2.695  0.9149  0.2064  1.0735
   33MOL0     O 4464   3.624   9.903   3.057 -0.0566  0.1627  0.2027
   33MOL0     C 4465   3.343   9.921   3.062 -0.2873 -0.7525 -0.2239
   33MOL0     C 4466   3.202   9.920   3.071  0.4384 -0.3798  0.2474
   33MOL0     N 4467   2.592  10.213   2.812 -0.1687 -0.6100 -1.1948
   33MOL0     N 4468   2.571  10.336   2.804  1.3935 -0.7412  0.0177
   33MOL0     C 4469   3.200  11.366   2.594  0.0063  0.1087 -0.1199
   33MOL0     C 4470   3.331  11.389   2.556 -0.7023 -0.0311  0.8846
   33MOL0     C 4471   3.694  11.455   2.340  1.0394 -0.1451 -0.8484
   33MOL0     C 4472   3.637  11.467   2.208  0.0599  0.1549 -0.5576
   33MOL0     C 4473   3.718  11.459   2.095  0.1456  0.1746  0.0625
   33MOL0     C 4474   3.852  11.441   2.106  1.1431  0.1304  0.3070
   33MOL0     O 4475   3.942  11.420   2.003  0.4885 -0.7448  0.3459
   33MOL0     C 4476   3.954  11.528   1.905  0.8879 -0.0152 -0.1976
   33MOL0     C 4477   3.854  11.507   1.788 -0.2821 -0.4153  0.2056
   33MOL0     C 4478   3.874  11.368   1.725 -0.6005 -0.1502  0.7533
   33MOL0     C 4479   3.781  11.329   1.619 -0.8396 -0.6424 -0.2816
   33MOL0     C 4480   3.774  11.423   1.507  0.4620 -0.9112 -0.6636
   33MOL0     C 4481   3.764  11.505   1.414  0.1708  0.7995  0.2069
   33MOL0     C 4482   3.905  11.436   2.238 -0.3990 -0.4806  0.0159
   33MOL0     C 4483   3.833  11.450   2.350 -0.4873  0.4473 -0.1544
   33MOL0     C 4484   3.904  11.446   2.488 -0.4640  0.0043  0.8618
   33MOL0     H 4485   3.272  11.659   2.352  3.3539 -2.9880 -3.0812
   33MOL0     H 4486   3.027  11.611   2.439  0.2764  0.5868 -0.3873
   33MOL0     H 4487   2.856  11.381   2.745  2.1512 -0.6256  1.3805
   33MOL0     H 4488   3.012  11.301   2.744  1.3359  0.4574 -1.3170
   33MOL0     H 4489   2.797  11.236   2.533  0.4491 -2.0355 -1.9764
   33MOL0     H 4490   2.955  11.163   2.554 -1.1147 -3.0668  0.8164
   33MOL0     H 4491   2.881  11.066   2.776 -0.7075 -2.4402 -1.0296
   33MOL0     H 4492   2.727  11.150   2.752  0.3741  1.4120 -0.8346
   33MOL0     H 4493   2.665  11.006   2.575 -0.1309 -0.1441  0.2375
   33MOL0     H 4494   2.840  10.959   2.543  3.4481 -0.0938  2.5525
   33MOL0     H 4495   2.679  10.869   2.797 -3.5113 -0.3245 -1.1650
   33MOL0     H 4496   2.848  10.826   2.752 -0.6305 -0.6493 -0.0727
   33MOL0     H 4497   2.597  10.782   2.569 -3.1258 -2.7572  2.2978
   33MOL0     H 4498   2.754  10.711   2.572  1.1456 -0.0498  1.1263
   33MOL0     H 4499   2.565  10.556   2.646  0.8510 -0.6540 -0.4545
   33MOL0     H 4500   2.522  10.661   2.783  1.0405  1.7826  1.0719
   33MOL0     H 4501   2.800  10.569   2.788 -0.7835 -0.6053 -0.3432
   33MOL0     H 4502   2.696  10.589   2.925 -0.2820  3.6480 -1.6145
   33MOL0     H 4503   2.887  10.337   2.890 -0.2049 -1.3501  0.9566
   33MOL0     H 4504   2.892  10.062   2.892 -0.4554  0.8979  1.0569
   33MOL0     H 4505   2.793  10.034   2.751 -4.9603 -1.1131 -0.1019
   33MOL0     H 4506   2.724   9.976   3.045  0.3100  1.8541 -0.5147
   33MOL0     H 4507   2.610   9.945   2.907 -0.8527  2.1013  2.3415
   33MOL0     H 4508   2.755   9.742   3.001 -0.5251 -1.9798 -1.0591
   33MOL0     H 4509   2.699   9.765   2.834  0.7237 -1.3402 -1.5784
   33MOL0     H 4510   2.938   9.686   2.861 -0.4605  1.0117 -3.3381
   33MOL0     H 4511   2.943   9.842   2.789 -2.4639 -1.5652 -1.3708
   33MOL0     H 4512   3.162   9.679   2.833 -2.5739  1.4588  0.9514
   33MOL0     H 4513   3.344   9.561   2.803  1.2512 -1.3558 -0.3238
   33MOL0     H 4514   3.505   9.613   2.879  0.5106 -2.2008 -2.6769
   33MOL0     H 4515   3.445   9.683   2.730 -3.8386  2.2228 -0.6566
   33MOL0     H 4516   3.782   9.714   3.015  0.8521 -2.5618 -1.6003
   33MOL0     H 4517   4.003   9.667   2.969 -0.4147  2.5620  2.4157
   33MOL0     H 4518   4.194   9.744   2.558  1.1750 -2.7464 -0.3599
   33MOL0     H 4519   4.215   9.872   2.687 -1.3877 -0.3266  0.0053
   33MOL0     H 4520   4.416   9.762   2.757  0.4890 -1.0047 -0.2464
   33MOL0     H 4521   4.380   9.613   2.659  0.7119 -0.2559  0.7219
   33MOL0     H 4522   4.461   9.875   2.543  0.4180 -0.8477 -2.8452
   33MOL0     H 4523   4.397   9.740   2.459 -0.6906  0.9492  0.6014
   33MOL0     H 4524   4.574   9.601   2.559 -1.1012 -0.2049  0.8508
   33MOL0     H 4525   4.630   9.744   2.653 -0.7328  3.6203 -0.0538
   33MOL0     H 4526   4.691   9.867   2.488 -2.5393 -0.5348  0.3442
   33MOL0     H 4527   4.796   9.722   2.489  1.6828  2.3789 -1.1116
   33MOL0     H 4528   4.775   9.781   2.285  0.9937 -0.6917  0.6527
   33MOL0     H 4529   4.596   9.827   2.289 -0.6511 -0.5119  1.8712
   33MOL0     H 4530   4.562   9.566   2.303  0.6639  1.3409  0.8520
   33MOL0     H 4531   4.734   9.557   2.315  3.0966  1.7595 -2.4261
   33MOL0     H 4532   4.609   9.691   2.074 -4.4684 -1.1090  4.2180
   33MOL0     H 4533   4.629   9.519   2.065 -1.3389  0.8207 -0.3615
   33MOL0     H 4534   3.984   9.840   2.572 -1.4663  0.5082 -0.5119
   33MOL0     H 4535   3.760   9.909   2.618  2.7308  1.5514  0.8739
   33MOL0     H 4536   3.400   9.997   3.114  2.3114  0.0268 -3.8467
   33MOL0     H 4537   3.163   9.999   3.135 -2.7040 -1.8680  0.3566
   33MOL0     H 4538   3.196  11.280   2.661 -0.3396  1.0027  1.0290
   33MOL0     H 4539   3.415  11.325   2.582 -0.6507  0.0252  0.8573
   33MOL0     H 4540   3.531  11.455   2.188 -0.3341 -0.4654  1.7203
   33MOL0     H 4541   3.665  11.481   2.003  0.2109  0.8846  0.1929
   33MOL0     H 4542   3.918  11.621   1.952 -3.8762 -1.9481  0.6320
   33MOL0     H 4543   4.060  11.537   1.883  0.8942 -1.0850 -0.6622
   33MOL0     H 4544   3.857  11.583   1.709  0.1610 -0.1300  0.4925
   33MOL0     H 4545   3.757  11.521   1.836  0.6871  2.1987  1.5845
   33MOL0     H 4546   3.974  11.372   1.680 -0.2885  0.2360  1.4655
   33MOL0     H 4547   3.869  11.291   1.803 -0.4252  0.0008  0.9148
   33MOL0     H 4548   3.685  11.299   1.659 -0.9483  0.5622  0.3946
   33MOL0     H 4549   3.822  11.237   1.575  1.0418 -0.8290  1.7038
   33MOL0     H 4550   3.772  11.568   1.328 -0.2202 -0.1854 -0.5757
   33MOL0     H 4551   4.011  11.417   2.256 -0.5606  0.3055  2.1260
   33MOL0     H 4552   3.894  11.542   2.538  3.0257  0.3648  1.0899
   33MOL0     H 4553   3.859  11.366   2.549  1.3785 -0.2318  1.9859
   33MOL0     H 4554   4.009  11.424   2.470 -0.4335  1.5069 -1.1606
   34MOL0     O 4555  10.838   4.595   8.485 -0.2569  0.4212  0.4030
   34MOL0     C 4556  10.846   4.718   8.480 -0.0251  1.0281 -0.7763
   34MOL0     O 4557  10.948   4.792   8.439 -0.1390 -0.1550 -0.4320
   34MOL0     C 4558  11.071   4.738   8.440 -0.1589 -0.1124  0.6076
   34MOL0     C 4559  11.127   4.643   8.530  0.0809  0.0418  0.4966
   34MOL0     C 4560  11.259   4.610   8.521 -0.0989  0.6018  0.3020
   34MOL0     C 4561  11.348   4.662   8.418 -0.2581  0.5865 -0.0856
   34MOL0     O 4562  11.479   4.629   8.408 -0.0361 -0.3447  0.3856
   34MOL0     C 4563  11.555   4.607   8.528 -0.5108 -0.1892 -0.2255
   34MOL0     C 4564  11.701   4.670   8.506 -0.5224  0.3978  1.3409
   34MOL0     C 4565  11.787   4.637   8.621 -0.5956  0.2104 -0.3528
   34MOL0     C 4566  11.930   4.665   8.573  0.2628  0.2496 -0.1234
   34MOL0     C 4567  12.044   4.614   8.675  1.0523 -0.6371  0.3373
   34MOL0     C 4568  12.185   4.644   8.628 -1.0594 -0.0610  0.0366
   34MOL0     C 4569  12.302   4.579   8.703  0.1490  0.1799 -0.3787
   34MOL0     C 4570  12.436   4.596   8.624  0.2133  0.3311  1.0684
   34MOL0     N 4571  12.551   4.545   8.699  0.2914  0.1007  0.3182
   34MOL0     C 4572  12.593   4.409   8.700  0.5585 -0.3958  0.2384
   34MOL0     C 4573  12.681   4.403   8.805 -0.4869 -0.5255 -0.0164
   34MOL0     C 4574  12.778   4.290   8.837 -0.2240 -0.1406 -0.3285
   34MOL0     C 4575  12.919   4.349   8.858 -0.0520 -0.9285  0.7361
   34MOL0     C 4576  13.030   4.246   8.900 -0.3033 -1.3529 -0.5191
   34MOL0     C 4577  13.048   4.127   8.808  0.3077 -0.6570 -0.6609
   34MOL0     O 4578  13.086   4.173   8.679 -0.7824 -0.0282  0.0497
   34MOL0     C 4579  13.210   4.133   8.628  0.1207  0.6626 -0.6305
   34MOL0     C 4580  13.211   4.024   8.543  0.1291  0.0987 -0.9775
   34MOL0     C 4581  13.322   3.995   8.459  0.0926 -0.3521  0.3567
   34MOL0     C 4582  13.308   3.874   8.376  0.0011  0.5616 -0.2434
   34MOL0     C 4583  13.435   4.077   8.463 -0.5449 -0.4441  0.1378
   34MOL0     C 4584  13.572   4.042   8.398 -0.5874  0.3998 -0.3435
   34MOL0     O 4585  13.652   4.144   8.383  0.0155 -0.1061 -0.1646
   34MOL0     C 4586  13.780   4.118   8.335  0.1163 -0.6969 -0.4057
   34MOL0     C 4587  13.883   4.205   8.370 -0.2533  0.0969 -0.0368
   34MOL0     C 4588  14.013   4.183   8.328 -0.9252 -0.1368 -0.7658
   34MOL0     C 4589  14.036   4.095   8.221 -0.1107 -0.0915  1.5666
   34MOL0     O 4590  14.160   4.100   8.167 -0.1372  0.0180  0.3163
   34MOL0     C 4591  14.162   4.155   8.042 -0.4338 -0.1754  0.0163
   34MOL0     C 4592  14.302   4.166   7.979 -0.1408  0.3576  0.0140
   34MOL0     C 4593  14.302   4.264   7.864  0.9994 -0.1400  0.6274
   34MOL0     C 4594  14.432   4.289   7.798  0.6752  1.0802  0.1369
   34MOL0     C 4595  14.424   4.410   7.698 -1.0375  0.1345 -0.3272
   34MOL0     C 4596  14.318   4.388   7.588 -0.1043  0.6059 -0.2187
   34MOL0     C 4597  14.336   4.506   7.482  0.2898  0.8833  0.5223
   34MOL0     C 4598  14.215   4.496   7.386 -0.1218 -0.7355  0.6454
   34MOL0    Cl 4599  14.268   4.567   7.223 -0.3416  0.2668  0.2141
   34MOL0     C 4600  13.935   4.012   8.172 -1.0667 -1.6466 -0.0161
   34MOL0     C 4601  13.806   4.029   8.228  0.1838  0.0310 -0.6225
   34MOL0     O 4602  13.603   3.924   8.385  0.5471  1.1724  0.1272
   34MOL0     C 4603  13.430   4.194   8.551 -0.6185 -0.1608  0.0199
   34MOL0     C 4604  13.321   4.218   8.633  0.1560  0.5664  0.2651
   34MOL0     N 4605  12.685   4.527   8.866 -0.3792 -0.1032  0.1982
   34MOL0     N 4606  12.602   4.605   8.807 -0.1372  0.3307  0.2545
   34MOL0     C 4607  11.294   4.761   8.330 -0.5643 -1.0055  0.0408
   34MOL0     C 4608  11.160   4.796   8.340  0.1742  0.1811  0.2011
   34MOL0     C 4609  10.723   4.792   8.524  0.3980  0.0496 -0.7264
   34MOL0     C 4610  10.735   4.932   8.543 -0.0821  1.0544 -0.8634
   34MOL0     C 4611  10.627   5.014   8.573  0.4079 -0.4851  0.3148
   34MOL0     C 4612  10.497   4.956   8.583  0.0219  0.6571 -0.7432
   34MOL0     O 4613  10.381   5.006   8.634 -0.1261 -0.3150  0.4381
   34MOL0     C 4614  10.373   5.041   8.769 -0.8888  0.6471  0.8867
   34MOL0     C 4615  10.256   5.141   8.773  0.1850 -0.4881 -0.1448
   34MOL0     C 4616  10.116   5.084   8.770 -1.1721  0.3977 -0.3313
   34MOL0     C 4617  10.099   4.953   8.848  0.6225  0.4692 -0.5065
   34MOL0     C 4618   9.961   4.903   8.840 -0.0068 -0.1560  1.1819
   34MOL0     C 4619   9.854   4.852   8.830  0.6282  0.8627  0.1999
   34MOL0     C 4620  10.483   4.818   8.572 -0.6758  0.0435 -0.6263
   34MOL0     C 4621  10.594   4.731   8.545 -0.5144 -0.1873 -0.6184
   34MOL0     C 4622  10.573   4.580   8.566  0.3087 -0.4270  0.4946
   34MOL0     H 4623  11.064   4.599   8.606 -1.6410  0.5408 -0.5691
   34MOL0     H 4624  11.297   4.547   8.601 -0.8256  0.6782  0.7130
   34MOL0     H 4625  11.567   4.500   8.546  0.9395  0.1468  1.0526
   34MOL0     H 4626  11.507   4.659   8.612 -0.3030  1.2147 -0.9536
   34MOL0     H 4627  11.728   4.631   8.407  3.3858  2.4534  1.3884
   34MOL0     H 4628  11.695   4.779   8.497  1.0911  0.3750 -1.0592
   34MOL0     H 4629  11.755   4.693   8.710  0.6022  0.9032 -0.3364
   34MOL0     H 4630  11.780   4.529   8.638 -0.5102 -0.2382 -2.8509
   34MOL0     H 4631  11.960   4.615   8.480 -1.3563 -1.5383  0.2773
   34MOL0     H 4632  11.943   4.773   8.560  1.8701  0.6843  3.7904
   34MOL0     H 4633  12.036   4.506   8.689  0.7925 -1.1169 -2.7533
   34MOL0     H 4634  12.029   4.666   8.770 -0.6035 -1.2907  0.4757
   34MOL0     H 4635  12.199   4.602   8.528  1.8542 -0.4803  0.5284
   34MOL0     H 4636  12.204   4.751   8.618  3.1485 -0.6395  0.2954
   34MOL0     H 4637  12.271   4.474   8.704 -1.3352  0.5721 -1.6826
   34MOL0     H 4638  12.314   4.625   8.801 -4.0657  3.8875 -1.2950
   34MOL0     H 4639  12.427   4.533   8.535  2.1092 -0.0993  1.1580
   34MOL0     H 4640  12.461   4.700   8.600  1.2202 -0.6888 -2.9843
   34MOL0     H 4641  12.573   4.330   8.628  1.6223 -3.0793  2.7255
   34MOL0     H 4642  12.779   4.220   8.752  0.3208  2.9563 -3.0486
   34MOL0     H 4643  12.751   4.228   8.924 -1.9368  1.5206  0.3885
   34MOL0     H 4644  12.940   4.387   8.758  0.9873 -1.1363  0.8627
   34MOL0     H 4645  12.910   4.430   8.932 -0.6630  2.1238 -2.3986
   34MOL0     H 4646  13.124   4.303   8.895 -1.6912  0.9629 -2.3188
   34MOL0     H 4647  13.002   4.225   9.004 -0.9049  2.3407  0.2062
   34MOL0     H 4648  13.133   4.066   8.839  1.7131  0.7755 -1.5432
   34MOL0     H 4649  12.961   4.062   8.811  1.2257 -1.8978 -0.2089
   34MOL0     H 4650  13.124   3.961   8.529  0.5639 -1.4970  2.3474
   34MOL0     H 4651  13.371   3.879   8.287  0.9202  0.6045  0.3893
   34MOL0     H 4652  13.203   3.869   8.348 -0.4914  0.2853  1.5340
   34MOL0     H 4653  13.332   3.780   8.427 -0.9408  0.4441 -0.0041
   34MOL0     H 4654  13.852   4.280   8.442 -0.8084  0.9611 -1.1443
   34MOL0     H 4655  14.093   4.243   8.370 -2.3372  0.6120  0.9874
   34MOL0     H 4656  14.091   4.107   7.973 -2.0524 -0.2734  1.6711
   34MOL0     H 4657  14.127   4.259   8.048 -1.9179 -0.6654  0.2771
   34MOL0     H 4658  14.379   4.185   8.055  0.9931  2.1226 -1.4909
   34MOL0     H 4659  14.323   4.072   7.927 -1.2789  0.7720 -1.2592
   34MOL0     H 4660  14.267   4.363   7.895 -0.6770 -0.1894 -0.9361
   34MOL0     H 4661  14.235   4.237   7.782 -0.8477 -1.8957  2.5770
   34MOL0     H 4662  14.447   4.194   7.746 -3.1036  0.8996 -0.9818
   34MOL0     H 4663  14.514   4.300   7.870 -0.2322  0.2354  1.3522
   34MOL0     H 4664  14.404   4.501   7.754  1.5132 -0.1104  1.1737
   34MOL0     H 4665  14.523   4.419   7.652 -0.0064  1.0933  1.8845
   34MOL0     H 4666  14.215   4.391   7.624  0.2740 -2.0010  1.3598
   34MOL0     H 4667  14.341   4.291   7.543 -1.7435 -0.1296  0.4666
   34MOL0     H 4668  14.430   4.479   7.434 -1.4185 -2.1003 -1.5226
   34MOL0     H 4669  14.341   4.606   7.526 -3.1173  1.3972  0.0631
   34MOL0     H 4670  14.125   4.539   7.429 -0.4094 -2.3059  1.7112
   34MOL0     H 4671  14.189   4.390   7.375 -1.1842 -0.5754  1.4798
   34MOL0     H 4672  13.962   3.949   8.088 -2.2803  1.0214 -2.5765
   34MOL0     H 4673  13.718   3.979   8.192 -1.6852  0.3802  2.9517
   34MOL0     H 4674  13.512   4.264   8.540 -1.8593  1.0831 -1.7414
   34MOL0     H 4675  13.322   4.309   8.693  0.6342  0.3240  0.6312
   34MOL0     H 4676  11.357   4.808   8.256 -2.2640 -0.5522 -1.1671
   34MOL0     H 4677  11.113   4.864   8.270  0.4329  0.5007  0.3361
   34MOL0     H 4678  10.823   4.990   8.518  0.6547  0.6661  0.6961
   34MOL0     H 4679  10.634   5.122   8.570  0.9885 -0.4688  1.7054
   34MOL0     H 4680  10.370   4.952   8.833 -1.1016 -2.1644 -2.6476
   34MOL0     H 4681  10.467   5.094   8.785  0.5644 -1.3087 -0.6215
   34MOL0     H 4682  10.256   5.219   8.696  0.9972  1.8890  2.1461
   34MOL0     H 4683  10.273   5.198   8.864  1.4634 -0.8922 -0.1011
   34MOL0     H 4684  10.051   5.159   8.816 -2.1283 -0.8084  0.3476
   34MOL0     H 4685  10.100   5.054   8.666  2.3045  2.0691 -1.5037
   34MOL0     H 4686  10.132   4.971   8.950 -0.4196 -0.7339  0.0737
   34MOL0     H 4687  10.167   4.881   8.802 -1.3165 -0.2768 -2.4242
   34MOL0     H 4688   9.753   4.815   8.825  1.1328 -1.2251  2.8551
   34MOL0     H 4689  10.386   4.773   8.591 -0.8737  0.3379 -0.9213
   34MOL0     H 4690  10.654   4.555   8.636  1.0160 -3.1024 -1.1210
   34MOL0     H 4691  10.470   4.556   8.595  0.8250 -1.3649  1.6524
   34MOL0     H 4692  10.602   4.530   8.473  2.5406  0.9456  0.3728
   35MOL0     O 4693   9.567   5.670   2.449 -0.6213  0.2139  0.0604
   35MOL0     C 4694   9.468   5.705   2.517 -0.0703 -0.8730 -0.2298
   35MOL0     O 4695   9.449   5.679   2.650  0.2583  0.3786  0.7818
   35MOL0     C 4696   9.527   5.608   2.737 -0.1195 -0.0620 -0.2591
   35MOL0     C 4697   9.493   5.622   2.870  0.3475  0.3072  0.2106
   35MOL0     C 4698   9.560   5.556   2.971 -0.2984 -0.2367  0.4917
   35MOL0     C 4699   9.677   5.486   2.944  0.1854 -0.5976  0.4752
   35MOL0     O 4700   9.745   5.425   3.049  0.7681 -0.7198  0.4245
   35MOL0     C 4701   9.861   5.349   3.022 -0.2261 -0.1469 -0.0513
   35MOL0     C 4702   9.924   5.288   3.150  0.7055  0.5046 -0.4450
   35MOL0     C 4703   9.833   5.196   3.230  0.3385  0.1583  0.4627
   35MOL0     C 4704   9.862   5.208   3.383 -0.1010 -0.0378  0.4752
   35MOL0     C 4705   9.783   5.105   3.453  0.0803  0.6297  0.6810
   35MOL0     C 4706   9.840   4.958   3.434 -0.6078 -0.8990  0.6858
   35MOL0     C 4707   9.748   4.841   3.459 -0.4118  0.3814  0.0639
   35MOL0     C 4708   9.608   4.850   3.389 -0.3299  1.1484 -0.6506
   35MOL0     N 4709   9.548   4.716   3.388  0.0417 -0.0365  0.2949
   35MOL0     C 4710   9.580   4.602   3.318 -0.0044 -0.0452 -0.1837
   35MOL0     C 4711   9.484   4.513   3.358  0.3520 -0.1638  0.4540
   35MOL0     C 4712   9.460   4.374   3.300 -0.1539 -0.1113 -0.4003
   35MOL0     C 4713   9.581   4.283   3.283  0.4170 -0.3914  0.8808
   35MOL0     C 4714   9.529   4.137   3.256 -0.7597 -0.3922 -0.6687
   35MOL0     C 4715   9.638   4.034   3.268  0.5063 -0.0777 -0.1465
   35MOL0     O 4716   9.683   4.021   3.405 -0.3866  0.2508  0.2625
   35MOL0     C 4717   9.735   3.899   3.443 -0.2088  0.3705 -1.3907
   35MOL0     C 4718   9.673   3.834   3.556 -0.4771  0.3260  0.3623
   35MOL0     C 4719   9.729   3.709   3.613 -0.5870 -0.1049  0.6936
   35MOL0     C 4720   9.651   3.643   3.725  1.3020  0.0097  0.1426
   35MOL0     C 4721   9.855   3.665   3.551 -0.0204  0.2455  0.7056
   35MOL0     C 4722   9.944   3.561   3.600 -0.2352  0.6521  0.7345
   35MOL0     O 4723  10.048   3.529   3.528 -0.9345  0.3294 -0.5187
   35MOL0     C 4724  10.157   3.468   3.587  0.1552  0.0970  0.3648
   35MOL0     C 4725  10.160   3.343   3.645 -0.4573 -0.1910 -0.1221
   35MOL0     C 4726  10.286   3.285   3.683 -0.4662 -0.1213  0.8440
   35MOL0     C 4727  10.404   3.357   3.670 -0.1451  0.9368 -0.8646
   35MOL0     O 4728  10.513   3.282   3.700 -0.3301 -0.0064 -0.2813
   35MOL0     C 4729  10.610   3.298   3.593  0.3950  0.2003  0.0229
   35MOL0     C 4730  10.721   3.192   3.604  0.5636 -0.1171 -0.1367
   35MOL0     C 4731  10.791   3.187   3.471  0.0527 -0.2324 -0.5963
   35MOL0     C 4732  10.924   3.122   3.497  0.2987 -0.0697 -0.7785
   35MOL0     C 4733  11.021   3.118   3.377 -0.3081  0.7517  0.6303
   35MOL0     C 4734  10.977   3.015   3.271  0.4019  0.0656 -0.4338
   35MOL0     C 4735  11.052   3.019   3.143  0.7202  1.1689  0.1118
   35MOL0     C 4736  10.978   2.929   3.042  0.7959 -0.6820 -0.2118
   35MOL0    Cl 4737  11.053   2.930   2.881 -0.1617 -0.1273  0.1088
   35MOL0     C 4738  10.406   3.492   3.625  0.9779  0.6405  0.4381
   35MOL0     C 4739  10.279   3.539   3.576  0.3998  0.0982 -0.9431
   35MOL0     O 4740   9.920   3.526   3.715  0.3523 -0.8329  0.8084
   35MOL0     C 4741   9.908   3.731   3.442  0.0376 -0.8805  0.2423
   35MOL0     C 4742   9.848   3.844   3.389 -0.1621 -0.2002  0.3796
   35MOL0     N 4743   9.411   4.561   3.470  0.0513 -0.6085 -0.2497
   35MOL0     N 4744   9.453   4.679   3.483  0.3934 -0.3466  0.4868
   35MOL0     C 4745   9.713   5.458   2.808 -0.3399 -1.2461 -1.0232
   35MOL0     C 4746   9.634   5.521   2.711  1.0305 -0.3320  0.1721
   35MOL0     C 4747   9.379   5.806   2.448  0.0658  0.7973  0.1413
   35MOL0     C 4748   9.404   5.837   2.314 -0.0124 -0.9453  0.3224
   35MOL0     C 4749   9.323   5.930   2.247 -0.4130  1.1189 -0.1668
   35MOL0     C 4750   9.215   5.981   2.308  0.5193  0.5199 -0.5677
   35MOL0     O 4751   9.137   6.078   2.255  0.2683 -1.5978  0.6075
   35MOL0     C 4752   9.172   6.141   2.128  0.1504 -0.3428 -0.3178
   35MOL0     C 4753   9.072   6.259   2.109  0.2398  0.2847 -0.0900
   35MOL0     C 4754   8.928   6.204   2.104 -0.4060  0.7493  1.1235
   35MOL0     C 4755   8.825   6.312   2.077  0.1822  0.5285  0.3441
   35MOL0     C 4756   8.819   6.388   2.195 -0.1693 -1.3391  0.6076
   35MOL0     C 4757   8.825   6.457   2.291  0.2216  0.0290 -0.7378
   35MOL0     C 4758   9.185   5.938   2.435  0.4583  0.1477 -0.5629
   35MOL0     C 4759   9.263   5.856   2.515  0.0953 -0.1792 -0.6108
   35MOL0     C 4760   9.223   5.804   2.657  1.1725  0.8390 -0.0220
   35MOL0     H 4761   9.403   5.677   2.896  0.6745  0.3516  1.3103
   35MOL0     H 4762   9.541   5.581   3.075  0.3180 -0.7531  0.7368
   35MOL0     H 4763   9.946   5.399   2.975  0.4937  0.0513  1.4202
   35MOL0     H 4764   9.834   5.268   2.953 -0.3018  2.5406 -3.4937
   35MOL0     H 4765  10.018   5.235   3.129  0.5098 -1.2595  2.6245
   35MOL0     H 4766   9.935   5.366   3.226 -0.6233 -0.5911  0.9337
   35MOL0     H 4767   9.730   5.220   3.202  0.4064 -0.0055  0.0643
   35MOL0     H 4768   9.856   5.097   3.190  0.8228  0.7789 -0.8649
   35MOL0     H 4769   9.968   5.181   3.392 -0.0428 -0.6189 -1.5489
   35MOL0     H 4770   9.848   5.311   3.416 -2.9131 -0.4135  0.7084
   35MOL0     H 4771   9.688   5.108   3.399  0.3661 -1.5093 -0.0377
   35MOL0     H 4772   9.763   5.130   3.558  0.7295 -0.4706  1.0823
   35MOL0     H 4773   9.886   4.932   3.339  0.4360 -0.1358  0.9627
   35MOL0     H 4774   9.932   4.952   3.493  0.2278  0.4242 -0.4337
   35MOL0     H 4775   9.740   4.831   3.568 -2.4688  1.4069  0.0441
   35MOL0     H 4776   9.805   4.753   3.428  0.6464  0.9345  0.3722
   35MOL0     H 4777   9.543   4.927   3.432  0.6658  1.9692 -0.5732
   35MOL0     H 4778   9.627   4.875   3.284  1.6199  0.7583 -0.4220
   35MOL0     H 4779   9.656   4.602   3.240 -1.0564 -0.8672 -1.2314
   35MOL0     H 4780   9.412   4.379   3.202 -0.4386  2.5878 -0.2070
   35MOL0     H 4781   9.398   4.323   3.374  0.7948 -0.6863  0.0142
   35MOL0     H 4782   9.637   4.328   3.200  0.3031 -1.4599  0.2051
   35MOL0     H 4783   9.643   4.293   3.372  2.9105 -2.8811 -0.4048
   35MOL0     H 4784   9.448   4.121   3.328  0.4879  0.5486  1.0221
   35MOL0     H 4785   9.490   4.128   3.154 -0.5232 -1.5075 -0.6689
   35MOL0     H 4786   9.592   3.939   3.239 -1.9821  0.6821  1.0764
   35MOL0     H 4787   9.712   4.055   3.190  1.2295 -4.2484 -0.8248
   35MOL0     H 4788   9.586   3.883   3.598 -1.1408  1.6924 -2.3943
   35MOL0     H 4789   9.632   3.536   3.718 -0.8625  0.3034  0.8436
   35MOL0     H 4790   9.556   3.697   3.733  1.9671  1.4855 -1.3973
   35MOL0     H 4791   9.696   3.646   3.825  1.1873  1.7642  0.1716
   35MOL0     H 4792  10.063   3.296   3.636 -0.1141 -0.6291 -1.7741
   35MOL0     H 4793  10.275   3.178   3.700 -2.4332 -0.4246 -1.5962
   35MOL0     H 4794  10.555   3.305   3.498 -0.6935  1.1562  0.6974
   35MOL0     H 4795  10.661   3.393   3.578  1.1166 -0.7201 -5.1131
   35MOL0     H 4796  10.778   3.215   3.695  0.0021  0.7513  0.0107
   35MOL0     H 4797  10.687   3.089   3.619 -0.9738  0.3929  0.1063
   35MOL0     H 4798  10.824   3.286   3.439 -0.9367  0.7760  1.3714
   35MOL0     H 4799  10.745   3.125   3.393 -0.8454  0.2958 -0.4945
   35MOL0     H 4800  10.916   3.022   3.542  0.1571 -0.1698 -1.0260
   35MOL0     H 4801  10.974   3.176   3.578 -0.3929 -0.6521  0.0517
   35MOL0     H 4802  11.018   3.220   3.335 -0.2688  0.2244 -0.7167
   35MOL0     H 4803  11.124   3.095   3.403 -0.0979 -0.5210 -1.1491
   35MOL0     H 4804  10.877   3.050   3.243  0.4497  1.3338  0.8602
   35MOL0     H 4805  10.982   2.915   3.314  2.7765  0.3563  0.1312
   35MOL0     H 4806  11.158   2.991   3.138  0.4735  0.4306 -1.3758
   35MOL0     H 4807  11.033   3.120   3.106  0.0164  0.9294 -0.1931
   35MOL0     H 4808  10.874   2.958   3.022  1.5214  0.4889 -2.6136
   35MOL0     H 4809  10.976   2.829   3.086 -2.5694  0.0141  1.5663
   35MOL0     H 4810  10.496   3.553   3.627 -0.3354  2.6532  2.6900
   35MOL0     H 4811  10.272   3.640   3.536 -0.4236  1.3295  2.0648
   35MOL0     H 4812  10.000   3.706   3.391  0.2932  0.4008  0.0337
   35MOL0     H 4813   9.892   3.891   3.302 -0.1607 -1.1931 -0.1803
   35MOL0     H 4814   9.782   5.377   2.785  0.2326 -1.8397  2.2348
   35MOL0     H 4815   9.655   5.504   2.606 -1.6600  1.3847 -0.7488
   35MOL0     H 4816   9.490   5.796   2.262 -0.1269 -2.2079  1.0803
   35MOL0     H 4817   9.354   5.942   2.143  1.5155 -3.0509 -0.2546
   35MOL0     H 4818   9.279   6.167   2.130  0.0633  0.0036  1.3609
   35MOL0     H 4819   9.160   6.072   2.045 -2.4977 -1.7777  1.1502
   35MOL0     H 4820   9.093   6.308   2.014 -2.1128 -0.5392 -1.1077
   35MOL0     H 4821   9.081   6.330   2.192 -0.8984  0.6442 -0.2645
   35MOL0     H 4822   8.920   6.132   2.022 -1.0003  0.6235  1.2885
   35MOL0     H 4823   8.912   6.156   2.201  1.7959 -1.3095  0.5652
   35MOL0     H 4824   8.723   6.277   2.064 -0.6945  3.2787 -1.0893
   35MOL0     H 4825   8.848   6.373   1.989 -1.7869  0.4412 -0.2713
   35MOL0     H 4826   8.839   6.528   2.370  1.4992 -0.1745 -0.7533
   35MOL0     H 4827   9.099   5.978   2.489 -0.5224  3.3719 -4.0512
   35MOL0     H 4828   9.204   5.696   2.651  0.9538  0.9193 -1.0067
   35MOL0     H 4829   9.298   5.835   2.730  3.2151 -1.3157 -1.0733
   35MOL0     H 4830   9.126   5.837   2.694  0.9957 -1.2296  1.5116
   36MOL0     O 4831   3.534   2.814   6.422  0.5588 -0.0982 -0.5001
   36MOL0     C 4832   3.458   2.744   6.355 -0.8365  0.8171  0.6306
   36MOL0     O 4833   3.500   2.650   6.267  0.3998  0.5409  0.1542
   36MOL0     C 4834   3.626   2.597   6.248 -0.0782 -0.3968 -0.3866
   36MOL0     C 4835   3.708   2.554   6.352  0.2958 -0.8995 -0.3863
   36MOL0     C 4836   3.834   2.498   6.328 -0.7843 -1.0013 -0.0659
   36MOL0     C 4837   3.868   2.471   6.198  0.1650 -0.2687 -0.5756
   36MOL0     O 4838   3.984   2.405   6.169 -0.0020  0.2223  0.2480
   36MOL0     C 4839   4.082   2.366   6.267 -0.0175 -0.4068 -0.4865
   36MOL0     C 4840   4.173   2.260   6.205  0.1589 -0.1740  0.3170
   36MOL0     C 4841   4.235   2.292   6.076  0.0595 -0.2079 -0.3119
   36MOL0     C 4842   4.378   2.349   6.104 -0.1921 -0.0425 -0.9869
   36MOL0     C 4843   4.453   2.411   5.990 -0.2486  0.2206 -0.3423
   36MOL0     C 4844   4.486   2.289   5.895  0.5094  0.0881 -0.1835
   36MOL0     C 4845   4.573   2.347   5.785  0.1164  0.4173  0.4141
   36MOL0     C 4846   4.639   2.236   5.700 -0.4357 -0.6156  0.8860
   36MOL0     N 4847   4.704   2.306   5.594  0.2807 -0.0434 -0.2099
   36MOL0     C 4848   4.803   2.404   5.599 -0.8794 -0.1751 -0.8986
   36MOL0     C 4849   4.823   2.438   5.471  0.0506  1.0532 -0.2557
   36MOL0     C 4850   4.933   2.533   5.440 -0.0169 -0.4789 -0.2798
   36MOL0     C 4851   4.933   2.606   5.298  0.1063  0.1556 -0.9775
   36MOL0     C 4852   5.027   2.534   5.197  0.0822 -0.3629  0.3227
   36MOL0     C 4853   5.178   2.554   5.219  0.9183 -0.1712 -1.0409
   36MOL0     O 4854   5.209   2.694   5.226 -0.3716  0.1587  0.4882
   36MOL0     C 4855   5.341   2.733   5.248 -0.0932 -0.0043 -0.4023
   36MOL0     C 4856   5.359   2.861   5.291 -0.3749  0.5934  0.9295
   36MOL0     C 4857   5.491   2.915   5.309  1.4044 -0.1658  0.2614
   36MOL0     C 4858   5.503   3.066   5.321  0.1496 -0.0219 -0.8960
   36MOL0     C 4859   5.606   2.829   5.302 -0.8269  0.1835  0.6814
   36MOL0     C 4860   5.747   2.871   5.321 -0.3120 -0.5060  0.2538
   36MOL0     O 4861   5.828   2.769   5.363  0.3117 -0.4421 -0.5084
   36MOL0     C 4862   5.966   2.807   5.361 -0.1475 -0.0978  1.3470
   36MOL0     C 4863   6.050   2.736   5.282  0.7992 -0.4854 -0.1308
   36MOL0     C 4864   6.193   2.751   5.290  0.1563 -0.3251  0.1827
   36MOL0     C 4865   6.244   2.854   5.376 -0.0885 -0.1140 -0.6739
   36MOL0     O 4866   6.371   2.902   5.382 -0.7283  0.1340  0.5180
   36MOL0     C 4867   6.466   2.833   5.291  0.4735  0.3593 -0.5247
   36MOL0     C 4868   6.612   2.864   5.331  0.1607 -0.5057 -0.0316
   36MOL0     C 4869   6.710   2.779   5.259  0.3606  0.1544 -0.3346
   36MOL0     C 4870   6.723   2.638   5.330  0.0840 -0.2415 -0.6004
   36MOL0     C 4871   6.748   2.508   5.249 -0.5753  0.5039 -0.5432
   36MOL0     C 4872   6.691   2.507   5.107  0.1179 -0.0066 -0.2421
   36MOL0     C 4873   6.533   2.509   5.110 -0.5835 -0.3189  0.0437
   36MOL0     C 4874   6.469   2.458   4.981 -0.1563 -1.0849 -0.4953
   36MOL0    Cl 4875   6.464   2.282   4.954 -0.5940  0.5939  0.0696
   36MOL0     C 4876   6.151   2.933   5.457 -0.7979  0.4323  0.3752
   36MOL0     C 4877   6.010   2.903   5.448  0.2192 -0.7524  0.6459
   36MOL0     O 4878   5.775   2.990   5.293 -0.5315  0.3569  0.0138
   36MOL0     C 4879   5.578   2.690   5.270 -0.9444  0.7714 -0.1135
   36MOL0     C 4880   5.448   2.649   5.238 -0.1875 -0.0956  0.0840
   36MOL0     N 4881   4.750   2.352   5.392 -0.7784 -0.6273  0.8400
   36MOL0     N 4882   4.680   2.274   5.466 -0.5265  0.0112 -0.0754
   36MOL0     C 4883   3.783   2.513   6.098 -0.9812 -1.0673  0.0539
   36MOL0     C 4884   3.663   2.581   6.113  0.6638  0.5035 -0.6649
   36MOL0     C 4885   3.313   2.779   6.360  0.6002  0.7579  0.1116
   36MOL0     C 4886   3.278   2.918   6.355 -0.2109  0.1483 -0.3728
   36MOL0     C 4887   3.146   2.963   6.346  0.0823 -0.2359 -0.2367
   36MOL0     C 4888   3.047   2.867   6.323 -0.2743 -0.2782 -0.3972
   36MOL0     O 4889   2.923   2.925   6.301 -0.3141 -0.4916  0.2141
   36MOL0     C 4890   2.811   2.843   6.305 -0.2146 -0.5585 -0.0789
   36MOL0     C 4891   2.684   2.918   6.347  1.0858  0.2288  0.5592
   36MOL0     C 4892   2.657   3.040   6.264 -0.8422 -0.7190 -0.2372
   36MOL0     C 4893   2.635   3.019   6.110  0.3538  0.2486 -0.0648
   36MOL0     C 4894   2.495   2.970   6.098 -0.0369 -0.7968  0.4915
   36MOL0     C 4895   2.381   2.940   6.100  0.6906  0.3857  1.3542
   36MOL0     C 4896   3.074   2.733   6.335  0.0341  0.0630  0.6515
   36MOL0     C 4897   3.207   2.685   6.353  0.2047 -0.1429  0.6545
   36MOL0     C 4898   3.242   2.539   6.337 -0.7365  0.2804 -0.6168
   36MOL0     H 4899   3.674   2.573   6.454 -0.9044  0.1206 -0.9541
   36MOL0     H 4900   3.906   2.472   6.405  0.0891 -0.7213 -0.7765
   36MOL0     H 4901   4.040   2.322   6.358 -2.5448  1.1967 -0.7861
   36MOL0     H 4902   4.140   2.456   6.289 -0.1834 -0.0305 -1.5370
   36MOL0     H 4903   4.248   2.223   6.276  2.3717  1.4669 -1.0409
   36MOL0     H 4904   4.105   2.182   6.170  0.7543  0.5603 -2.7407
   36MOL0     H 4905   4.254   2.198   6.023  0.3703 -2.2160  3.0442
   36MOL0     H 4906   4.169   2.355   6.016 -0.8774 -0.7240  0.1612
   36MOL0     H 4907   4.359   2.427   6.178 -2.3845 -2.3153  1.0628
   36MOL0     H 4908   4.432   2.276   6.166 -1.5804 -0.1786  0.1310
   36MOL0     H 4909   4.550   2.447   6.023 -0.2231 -1.1146  1.1160
   36MOL0     H 4910   4.395   2.486   5.935 -0.1406 -1.6916 -3.3217
   36MOL0     H 4911   4.561   2.217   5.931  0.7278  0.5154  0.2271
   36MOL0     H 4912   4.398   2.237   5.857  0.3961  0.2723 -0.1738
   36MOL0     H 4913   4.641   2.423   5.824  1.4069 -1.0850  1.2280
   36MOL0     H 4914   4.498   2.401   5.727 -1.1994  0.2208  1.8780
   36MOL0     H 4915   4.711   2.180   5.761  1.8319 -1.1199 -2.0710
   36MOL0     H 4916   4.560   2.170   5.664 -2.8430  2.4953 -0.0785
   36MOL0     H 4917   4.835   2.455   5.690 -0.3051 -2.3571  0.2088
   36MOL0     H 4918   5.028   2.480   5.453 -0.3088 -0.2219  4.2713
   36MOL0     H 4919   4.925   2.614   5.513  0.2985 -0.7504  0.0582
   36MOL0     H 4920   4.830   2.611   5.263 -0.3005 -0.8028  0.0167
   36MOL0     H 4921   4.964   2.710   5.310 -1.3775  0.6143 -0.9255
   36MOL0     H 4922   4.987   2.432   5.186 -0.6134 -0.3687  2.4021
   36MOL0     H 4923   5.014   2.577   5.098  0.3880 -2.2688 -0.6068
   36MOL0     H 4924   5.209   2.506   5.312 -1.4316  2.4580  1.3265
   36MOL0     H 4925   5.227   2.512   5.131 -0.2729 -2.3541 -0.7128
   36MOL0     H 4926   5.268   2.919   5.299 -1.0262 -0.2014 -0.5439
   36MOL0     H 4927   5.551   3.117   5.236 -1.1996  4.2248  0.6275
   36MOL0     H 4928   5.569   3.089   5.405 -0.7713  3.6084 -0.9838
   36MOL0     H 4929   5.412   3.118   5.351 -0.4669 -3.1172  3.5213
   36MOL0     H 4930   6.008   2.668   5.207  2.1031 -3.2513  1.5046
   36MOL0     H 4931   6.249   2.690   5.220  0.5409  0.5895 -0.3259
   36MOL0     H 4932   6.460   2.725   5.308  1.9297 -0.0571 -2.3094
   36MOL0     H 4933   6.444   2.855   5.186  2.2892  0.0960 -0.9867
   36MOL0     H 4934   6.625   2.968   5.299 -0.4869 -0.7517 -1.1397
   36MOL0     H 4935   6.617   2.862   5.440 -3.2006  1.8522  0.3395
   36MOL0     H 4936   6.810   2.823   5.255  0.8064 -0.7801  0.2407
   36MOL0     H 4937   6.676   2.768   5.156 -1.0988 -2.0735  0.2993
   36MOL0     H 4938   6.632   2.609   5.384  0.0496  0.6723 -0.1496
   36MOL0     H 4939   6.792   2.653   5.414  3.8648 -2.1172 -3.0624
   36MOL0     H 4940   6.854   2.488   5.234 -1.2693 -5.7851  0.4369
   36MOL0     H 4941   6.711   2.421   5.304 -1.5606  1.2467  0.0005
   36MOL0     H 4942   6.721   2.407   5.073  1.4107 -0.1883  1.2892
   36MOL0     H 4943   6.733   2.587   5.044  0.6180  0.8415  1.1160
   36MOL0     H 4944   6.496   2.610   5.132  0.7915  0.5910 -1.5585
   36MOL0     H 4945   6.485   2.461   5.195 -0.0522  0.2331  0.6622
   36MOL0     H 4946   6.518   2.509   4.897  0.6854  1.9169  1.6621
   36MOL0     H 4947   6.368   2.498   4.986 -0.3176 -1.4464 -0.8340
   36MOL0     H 4948   6.185   3.022   5.508 -2.3083  2.3120 -1.6732
   36MOL0     H 4949   5.941   2.949   5.518  0.1896  0.3767 -0.1085
   36MOL0     H 4950   5.656   2.616   5.257 -0.3942  0.8195  2.3461
   36MOL0     H 4951   5.444   2.547   5.202 -0.4855 -0.4083  0.9622
   36MOL0     H 4952   3.837   2.497   6.005 -0.3431 -2.2815  0.6191
   36MOL0     H 4953   3.613   2.625   6.028  1.1540 -0.3607 -1.4224
   36MOL0     H 4954   3.350   2.999   6.350 -0.0085 -0.0473 -0.5923
   36MOL0     H 4955   3.126   3.070   6.342 -2.1884 -0.5858  0.1533
   36MOL0     H 4956   2.796   2.792   6.210 -0.2783  0.0298 -0.3871
   36MOL0     H 4957   2.829   2.774   6.388  1.4237  0.9050  0.8278
   36MOL0     H 4958   2.680   2.950   6.452  1.9244 -1.2036  1.0582
   36MOL0     H 4959   2.606   2.847   6.319  0.3493  1.2009  0.1140
   36MOL0     H 4960   2.562   3.081   6.299 -0.6940 -0.9258  0.4111
   36MOL0     H 4961   2.735   3.115   6.281 -0.1602 -1.2852 -0.8067
   36MOL0     H 4962   2.711   2.958   6.061 -0.1527 -1.7493  1.5026
   36MOL0     H 4963   2.636   3.117   6.061 -1.2610  0.3769  0.0963
   36MOL0     H 4964   2.278   2.923   6.075  0.6729  3.2458 -1.1505
   36MOL0     H 4965   3.001   2.656   6.315 -0.1480  0.0727  1.2635
   36MOL0     H 4966   3.158   2.471   6.355 -1.3788  1.7464  2.4486
   36MOL0     H 4967   3.292   2.522   6.240 -0.8299 -1.6552 -0.3587
   36MOL0     H 4968   3.311   2.509   6.417 -1.2483  0.6115 -0.0467
   37MOL0     O 4969   1.596   3.496   7.744 -0.6704  0.0284  0.3803
   37MOL0     C 4970   1.543   3.388   7.769  0.3676 -0.1307  0.6007
   37MOL0     O 4971   1.599   3.266   7.751  0.4406  0.7719 -0.0897
   37MOL0     C 4972   1.699   3.258   7.664 -0.0597  0.1410 -0.2514
   37MOL0     C 4973   1.692   3.197   7.538  0.3732  0.5028 -0.0632
   37MOL0     C 4974   1.809   3.169   7.465  0.7948 -0.1950  0.3940
   37MOL0     C 4975   1.934   3.205   7.517 -0.3115  0.6055 -0.1888
   37MOL0     O 4976   2.045   3.171   7.448 -0.3138 -0.0248 -0.6538
   37MOL0     C 4977   2.041   3.064   7.363 -0.3905 -0.1538  0.1200
   37MOL0     C 4978   2.182   3.022   7.338  0.0424  0.3792 -0.8634
   37MOL0     C 4979   2.201   2.905   7.237  1.0212 -0.2773 -1.0683
   37MOL0     C 4980   2.341   2.873   7.225  0.1403  0.3308  0.1005
   37MOL0     C 4981   2.355   2.790   7.099  0.2220 -0.4430 -0.6190
   37MOL0     C 4982   2.493   2.728   7.101 -0.7025  0.1995 -0.0463
   37MOL0     C 4983   2.531   2.654   6.966  0.4923  0.9860  0.5595
   37MOL0     C 4984   2.548   2.745   6.856 -0.4422 -0.0549  0.4620
   37MOL0     N 4985   2.582   2.675   6.726 -0.1936  0.6252 -0.0153
   37MOL0     C 4986   2.501   2.586   6.654 -0.6623 -0.1734  0.5277
   37MOL0     C 4987   2.567   2.566   6.539 -0.3561 -1.7765 -0.4574
   37MOL0     C 4988   2.520   2.479   6.433  0.4849 -0.6223 -0.8747
   37MOL0     C 4989   2.509   2.546   6.299 -0.0108  1.1829 -0.2271
   37MOL0     C 4990   2.516   2.447   6.188 -0.4350  0.3223  0.0128
   37MOL0     C 4991   2.490   2.512   6.049  0.1130  0.5687  0.2888
   37MOL0     O 4992   2.591   2.607   6.036  0.4485  0.9009  0.3229
   37MOL0     C 4993   2.602   2.642   5.904  0.3155  0.5663 -0.5344
   37MOL0     C 4994   2.719   2.620   5.836 -0.3577  0.6540  1.1718
   37MOL0     C 4995   2.732   2.645   5.704  1.0936 -0.0045  0.6765
   37MOL0     C 4996   2.861   2.584   5.644  0.7300 -0.7838  0.1338
   37MOL0     C 4997   2.631   2.711   5.628  0.6932  0.5533 -1.2117
   37MOL0     C 4998   2.624   2.731   5.487 -1.0995 -0.6293  0.8178
   37MOL0     O 4999   2.518   2.796   5.436 -0.3580 -0.3428  0.5402
   37MOL0     C 5000   2.507   2.814   5.298 -0.0484  0.1385  0.1866
   37MOL0     C 5001   2.435   2.719   5.221 -0.1527  0.4734 -0.2582
   37MOL0     C 5002   2.423   2.742   5.089 -0.5204 -0.4121  0.9646
   37MOL0     C 5003   2.492   2.841   5.011  0.3833 -1.4177 -0.0827
   37MOL0     O 5004   2.482   2.854   4.876 -0.3047  0.0240 -0.1857
   37MOL0     C 5005   2.432   2.751   4.785  0.1841 -0.0096  0.7247
   37MOL0     C 5006   2.464   2.764   4.643 -0.1056 -0.9885 -0.4192
   37MOL0     C 5007   2.457   2.907   4.585 -0.1472  0.2273  0.1138
   37MOL0     C 5008   2.523   2.917   4.451 -1.1164  0.3293  0.1628
   37MOL0     C 5009   2.519   3.054   4.389  0.3867  0.7410  0.1675
   37MOL0     C 5010   2.585   3.036   4.252 -0.2883 -0.9856  0.3764
   37MOL0     C 5011   2.612   3.173   4.205 -0.4340  0.7159  0.9506
   37MOL0     C 5012   2.630   3.183   4.055 -0.3488 -0.1332  0.0653
   37MOL0    Cl 5013   2.722   3.038   3.985 -0.3184 -0.1468  0.0211
   37MOL0     C 5014   2.571   2.926   5.086 -0.0020 -0.0834 -0.6313
   37MOL0     C 5015   2.574   2.913   5.227 -0.6858 -0.1881 -1.0398
   37MOL0     O 5016   2.734   2.704   5.427  0.7904  0.1372  0.2857
   37MOL0     C 5017   2.513   2.748   5.704 -0.4711 -0.2807  0.6833
   37MOL0     C 5018   2.490   2.706   5.836 -1.4979  0.1472 -0.3511
   37MOL0     N 5019   2.686   2.639   6.547  0.1351  0.8724  0.7899
   37MOL0     N 5020   2.700   2.691   6.663  0.7554 -0.1541 -0.8101
   37MOL0     C 5021   1.944   3.280   7.633 -0.0881  0.3977  0.0994
   37MOL0     C 5022   1.829   3.299   7.705 -0.1392 -0.2352 -0.4037
   37MOL0     C 5023   1.409   3.382   7.833  0.3724 -0.0844 -0.0980
   37MOL0     C 5024   1.371   3.266   7.900  0.3823  0.0872 -0.9146
   37MOL0     C 5025   1.247   3.260   7.963 -0.3082  0.0165  0.5043
   37MOL0     C 5026   1.153   3.368   7.966 -0.1630 -1.6123 -0.2780
   37MOL0     O 5027   1.028   3.372   8.027  0.0202 -0.5389 -0.0962
   37MOL0     C 5028   0.969   3.250   8.060  0.2672  0.2206  0.0888
   37MOL0     C 5029   0.857   3.312   8.149 -0.3661  0.3007 -0.4415
   37MOL0     C 5030   0.779   3.205   8.229 -0.4282 -0.5997  0.3428
   37MOL0     C 5031   0.675   3.260   8.325  0.6022 -0.3359 -0.0857
   37MOL0     C 5032   0.560   3.327   8.261 -0.1806  0.5791 -1.0640
   37MOL0     C 5033   0.470   3.388   8.208 -0.0739  0.9244 -0.2115
   37MOL0     C 5034   1.194   3.481   7.904 -0.0230 -0.7469 -0.0577
   37MOL0     C 5035   1.326   3.499   7.844  0.6099 -0.0518  0.1798
   37MOL0     C 5036   1.352   3.635   7.790 -0.5783  1.0751 -0.2295
   37MOL0     H 5037   1.590   3.171   7.512  0.6035 -1.5099  0.8221
   37MOL0     H 5038   1.785   3.109   7.379 -1.1425 -0.9088  1.3780
   37MOL0     H 5039   1.986   3.102   7.277 -0.8138 -1.4935 -0.2311
   37MOL0     H 5040   1.993   2.976   7.408  1.6758 -2.3042 -1.5724
   37MOL0     H 5041   2.245   3.105   7.306  1.3325  0.9859  2.7070
   37MOL0     H 5042   2.223   2.977   7.429 -1.2031 -0.5738 -0.7488
   37MOL0     H 5043   2.143   2.816   7.260  1.5481  0.1191  2.3344
   37MOL0     H 5044   2.183   2.943   7.136  1.1018 -0.9971 -1.3601
   37MOL0     H 5045   2.400   2.964   7.213 -1.9629  1.5459 -2.1018
   37MOL0     H 5046   2.371   2.812   7.310  2.0991 -0.1217 -0.8721
   37MOL0     H 5047   2.345   2.852   7.009 -0.9528 -1.2240 -1.0639
   37MOL0     H 5048   2.275   2.715   7.097 -2.6609  2.1936  2.8497
   37MOL0     H 5049   2.568   2.806   7.117 -2.7254  1.7551  2.4883
   37MOL0     H 5050   2.507   2.652   7.179  3.0014 -3.9461 -4.0673
   37MOL0     H 5051   2.449   2.583   6.952 -0.9466  2.6035  0.4125
   37MOL0     H 5052   2.624   2.598   6.980 -0.4427 -0.4078  1.3394
   37MOL0     H 5053   2.462   2.810   6.833  0.3786  0.8353 -0.1454
   37MOL0     H 5054   2.624   2.819   6.881 -1.6653  0.7945  1.8850
   37MOL0     H 5055   2.408   2.540   6.686  0.4163 -2.7691  0.1088
   37MOL0     H 5056   2.421   2.446   6.463  0.2349  0.8640  0.0276
   37MOL0     H 5057   2.578   2.386   6.435 -1.1252 -1.6585 -0.8261
   37MOL0     H 5058   2.405   2.580   6.298 -0.9288 -1.3710  0.4343
   37MOL0     H 5059   2.586   2.623   6.289  0.9708  0.5467  1.8910
   37MOL0     H 5060   2.621   2.418   6.182 -0.5631  0.1362 -2.6879
   37MOL0     H 5061   2.454   2.358   6.202 -0.4883  0.3281 -0.1882
   37MOL0     H 5062   2.475   2.436   5.972 -4.8642 -2.8206  3.9350
   37MOL0     H 5063   2.392   2.560   6.056  0.4956  1.4131 -0.0889
   37MOL0     H 5064   2.804   2.570   5.881  0.1371  0.0255 -0.3946
   37MOL0     H 5065   2.918   2.538   5.725  1.4076  0.6919  0.5233
   37MOL0     H 5066   2.924   2.659   5.596 -1.4277 -0.2264 -2.0390
   37MOL0     H 5067   2.849   2.502   5.573  0.5126  0.7093 -1.6164
   37MOL0     H 5068   2.376   2.640   5.267 -0.8677  0.6859 -0.7796
   37MOL0     H 5069   2.371   2.664   5.034 -2.5053  1.5599 -0.1169
   37MOL0     H 5070   2.479   2.660   4.821 -1.7962 -1.1670  0.5432
   37MOL0     H 5071   2.323   2.740   4.792  0.0416 -1.5556 -2.2930
   37MOL0     H 5072   2.568   2.733   4.626  0.2968  1.2007 -2.6579
   37MOL0     H 5073   2.403   2.704   4.575  0.5289 -2.1907  0.0363
   37MOL0     H 5074   2.502   2.985   4.647  0.1585  0.4865 -0.4246
   37MOL0     H 5075   2.352   2.935   4.570  0.2744  4.4235  3.2888
   37MOL0     H 5076   2.486   2.831   4.394  0.6431 -1.3181  1.3584
   37MOL0     H 5077   2.626   2.884   4.470 -0.9905 -0.6426 -1.9818
   37MOL0     H 5078   2.417   3.095   4.389  0.5355  1.1152 -0.0655
   37MOL0     H 5079   2.570   3.119   4.460 -1.0306  3.9592 -1.5481
   37MOL0     H 5080   2.525   2.980   4.180  1.9168  0.2230 -2.6063
   37MOL0     H 5081   2.683   2.990   4.267 -0.5984 -0.7186  3.9719
   37MOL0     H 5082   2.701   3.212   4.255 -0.1009  1.7617 -0.4040
   37MOL0     H 5083   2.529   3.238   4.232 -0.7069  1.4526 -1.3823
   37MOL0     H 5084   2.670   3.279   4.021  3.7146 -2.1087 -1.3927
   37MOL0     H 5085   2.526   3.187   4.022 -0.3431  2.0002  0.1766
   37MOL0     H 5086   2.629   3.010   5.050 -0.3069  0.7941  0.8502
   37MOL0     H 5087   2.645   2.983   5.271  0.8847 -2.1496 -0.2796
   37MOL0     H 5088   2.426   2.804   5.671  1.3770  1.6573 -1.2880
   37MOL0     H 5089   2.394   2.731   5.881 -1.9900  2.3729 -2.3973
   37MOL0     H 5090   2.040   3.306   7.676 -0.9064  1.6725  1.2231
   37MOL0     H 5091   1.840   3.345   7.803  2.8982 -2.3370  0.4004
   37MOL0     H 5092   1.442   3.185   7.907 -0.8734 -0.9290  0.7819
   37MOL0     H 5093   1.217   3.167   8.010  2.8150  0.2400  3.3523
   37MOL0     H 5094   0.930   3.210   7.966  0.5409  0.2489 -0.0366
   37MOL0     H 5095   1.033   3.188   8.122  0.6748  0.1083 -0.4413
   37MOL0     H 5096   0.787   3.358   8.080  0.0685  1.3234 -0.2175
   37MOL0     H 5097   0.908   3.384   8.214  3.5193 -0.5331 -2.2656
   37MOL0     H 5098   0.736   3.129   8.162 -1.6005  1.8958 -1.9016
   37MOL0     H 5099   0.841   3.141   8.292 -1.6528 -1.5870  0.5970
   37MOL0     H 5100   0.736   3.320   8.393  2.2605  0.0693 -1.8317
   37MOL0     H 5101   0.628   3.185   8.388  0.2449  0.4230  0.5623
   37MOL0     H 5102   0.397   3.449   8.158 -0.9141 -0.7068 -1.0551
   37MOL0     H 5103   1.123   3.563   7.911  1.7471  1.0187 -1.6465
   37MOL0     H 5104   1.454   3.669   7.809 -0.0244  0.1429 -1.3399
   37MOL0     H 5105   1.340   3.631   7.681 -0.3809  0.2064 -0.2299
   37MOL0     H 5106   1.283   3.709   7.831  0.1753  0.5755  2.0682
   38MOL0     O 5107   8.360   8.232   2.206 -0.6043 -0.4846 -0.1786
   38MOL0     C 5108   8.392   8.174   2.310 -0.4907 -0.5416 -0.1005
   38MOL0     O 5109   8.521   8.164   2.361 -0.3310 -0.6508 -0.5833
   38MOL0     C 5110   8.627   8.170   2.284  0.1980  0.4010 -0.2286
   38MOL0     C 5111   8.738   8.241   2.336 -0.1782 -0.3322 -0.7793
   38MOL0     C 5112   8.852   8.248   2.259 -0.0620  0.2713 -0.4971
   38MOL0     C 5113   8.856   8.189   2.135  0.1678 -0.3703  1.1564
   38MOL0     O 5114   8.953   8.201   2.035 -0.1729 -0.3162  0.6037
   38MOL0     C 5115   9.059   8.305   2.056 -0.3748  0.6431  0.8390
   38MOL0     C 5116   9.179   8.254   1.984 -0.0158  0.1024 -0.4322
   38MOL0     C 5117   9.250   8.134   2.050  0.1557  0.3999  0.0185
   38MOL0     C 5118   9.367   8.092   1.966  0.5353 -0.2563 -0.0562
   38MOL0     C 5119   9.440   7.959   2.014  0.5827  0.1194 -0.0804
   38MOL0     C 5120   9.572   7.955   1.946  0.2158  0.3729 -0.2535
   38MOL0     C 5121   9.660   7.841   2.010 -0.2433  0.1538  0.8934
   38MOL0     C 5122   9.617   7.702   2.003  0.3032  0.3273  1.1267
   38MOL0     N 5123   9.728   7.607   1.999  0.6413  0.3253  0.7379
   38MOL0     C 5124   9.784   7.534   2.105 -1.1978  0.1305 -0.5992
   38MOL0     C 5125   9.871   7.451   2.043 -0.6289  0.1180  0.5255
   38MOL0     C 5126   9.979   7.359   2.100 -0.3577 -0.3327 -1.2425
   38MOL0     C 5127   9.962   7.216   2.055  0.2026 -0.5547 -0.5608
   38MOL0     C 5128  10.092   7.144   2.062 -0.9261  0.1093 -0.0846
   38MOL0     C 5129  10.146   7.104   2.199  0.4265  0.1259  0.8256
   38MOL0     O 5130  10.282   7.056   2.181  0.6651  0.2342  0.1445
   38MOL0     C 5131  10.328   6.964   2.271  0.2301  0.7586  0.0281
   38MOL0     C 5132  10.417   6.861   2.232 -0.1743 -0.8399  0.2885
   38MOL0     C 5133  10.459   6.759   2.315  0.6288  0.3130 -0.7161
   38MOL0     C 5134  10.548   6.664   2.248 -0.0167  0.2200  0.2656
   38MOL0     C 5135  10.411   6.752   2.447  0.3408 -0.4348 -0.4415
   38MOL0     C 5136  10.445   6.640   2.552  0.6423 -0.8588 -0.2856
   38MOL0     O 5137  10.442   6.681   2.688 -0.6243 -0.0648  0.5178
   38MOL0     C 5138  10.497   6.605   2.780 -0.1930  0.5357 -0.6938
   38MOL0     C 5139  10.421   6.482   2.802 -0.6231  0.7467 -0.1617
   38MOL0     C 5140  10.459   6.401   2.913  0.0014  0.1036  0.3373
   38MOL0     C 5141  10.565   6.432   2.992 -1.2804 -0.8775  0.0159
   38MOL0     O 5142  10.616   6.343   3.081 -0.0152 -0.3239 -0.0946
   38MOL0     C 5143  10.531   6.254   3.149  0.3366 -0.9127  0.4096
   38MOL0     C 5144  10.614   6.213   3.266  0.1747 -0.2019 -0.4463
   38MOL0     C 5145  10.568   6.083   3.329 -0.3602  0.6493  0.7867
   38MOL0     C 5146  10.431   6.086   3.403 -0.0964  0.3301 -0.1058
   38MOL0     C 5147  10.395   5.941   3.420 -0.0388 -0.2062  0.2038
   38MOL0     C 5148  10.246   5.913   3.440  0.3908 -0.8525  0.9551
   38MOL0     C 5149  10.188   6.004   3.547 -0.4329 -0.1094  0.1214
   38MOL0     C 5150  10.059   5.954   3.589 -0.3607  0.9397 -0.2744
   38MOL0    Cl 5151  10.046   5.793   3.667  0.3252 -0.5679 -0.1972
   38MOL0     C 5152  10.643   6.549   2.969  0.3743  1.1357  0.8986
   38MOL0     C 5153  10.612   6.632   2.854  0.9078 -0.4181  0.0770
   38MOL0     O 5154  10.483   6.529   2.505 -0.7405 -0.4768 -0.0688
   38MOL0     C 5155  10.327   6.863   2.491 -0.9822  0.0844  0.0183
   38MOL0     C 5156  10.279   6.963   2.404 -0.5470  1.2962  0.2318
   38MOL0     N 5157   9.880   7.486   1.909  0.5522  0.0093 -0.6123
   38MOL0     N 5158   9.799   7.575   1.886  0.2732  0.5827  0.5558
   38MOL0     C 5159   8.748   8.115   2.082  0.6105  0.3886 -0.0210
   38MOL0     C 5160   8.637   8.097   2.161  0.3941 -1.0101 -0.4648
   38MOL0     C 5161   8.271   8.133   2.383  0.6556  0.6051 -0.3603
   38MOL0     C 5162   8.161   8.106   2.310 -0.7326 -0.5486  0.8283
   38MOL0     C 5163   8.039   8.058   2.364 -0.3973  0.0441 -0.3421
   38MOL0     C 5164   8.039   8.030   2.508  0.8356  0.5457  0.1779
   38MOL0     O 5165   7.918   7.997   2.562 -0.2346 -0.1127 -0.2316
   38MOL0     C 5166   7.912   7.976   2.696  1.0411 -0.0871 -0.7322
   38MOL0     C 5167   7.769   7.940   2.733  0.8228  0.8437  0.1721
   38MOL0     C 5168   7.738   7.800   2.670  0.2577 -1.2969 -0.2027
   38MOL0     C 5169   7.642   7.709   2.747 -0.1143  0.2502 -0.2748
   38MOL0     C 5170   7.718   7.626   2.849 -0.3245 -0.5419 -0.6003
   38MOL0     C 5171   7.773   7.559   2.927 -0.0783 -0.5170 -1.3880
   38MOL0     C 5172   8.154   8.045   2.581 -0.3529 -0.3478 -0.1103
   38MOL0     C 5173   8.267   8.104   2.521  0.4465 -0.6882 -0.9484
   38MOL0     C 5174   8.388   8.098   2.612 -1.4153 -0.2484  0.2608
   38MOL0     H 5175   8.734   8.309   2.420 -2.4675  3.3832 -3.6009
   38MOL0     H 5176   8.929   8.316   2.295  0.9825  0.4161 -2.8179
   38MOL0     H 5177   9.091   8.312   2.161  0.2643  0.2037  0.6739
   38MOL0     H 5178   9.026   8.399   2.012  1.8145  0.6360 -0.9879
   38MOL0     H 5179   9.154   8.220   1.883 -0.6244  2.1139 -1.0026
   38MOL0     H 5180   9.250   8.334   1.965  1.1802 -1.1223 -1.3266
   38MOL0     H 5181   9.276   8.160   2.153 -2.4875  2.1048  0.3871
   38MOL0     H 5182   9.171   8.058   2.053  0.2461  0.3496  2.0522
   38MOL0     H 5183   9.341   8.078   1.861  0.8023 -0.0705 -0.1499
   38MOL0     H 5184   9.433   8.179   1.971 -0.7191  0.7061 -0.0086
   38MOL0     H 5185   9.387   7.866   1.991  0.6352  0.2993 -0.9921
   38MOL0     H 5186   9.455   7.967   2.122  0.1218  4.4246 -0.1588
   38MOL0     H 5187   9.544   7.939   1.841  0.3196 -3.0467  0.1126
   38MOL0     H 5188   9.627   8.049   1.948 -0.0762  0.5315  0.6255
   38MOL0     H 5189   9.682   7.863   2.115 -1.6828 -0.9209  1.4623
   38MOL0     H 5190   9.762   7.844   1.972  0.8884 -2.6675  3.3107
   38MOL0     H 5191   9.556   7.682   2.092  0.2750 -0.2868  0.9772
   38MOL0     H 5192   9.559   7.683   1.912  1.4579 -0.5076  0.5376
   38MOL0     H 5193   9.778   7.565   2.209  3.8707  3.4528 -0.8888
   38MOL0     H 5194   9.990   7.359   2.209 -3.6200 -2.5439 -0.7648
   38MOL0     H 5195  10.069   7.397   2.052  0.4854 -0.2145  0.3842
   38MOL0     H 5196   9.880   7.160   2.100 -0.5901  0.0103 -1.2579
   38MOL0     H 5197   9.935   7.217   1.949 -0.0521 -3.8078 -0.6307
   38MOL0     H 5198  10.090   7.050   2.005  1.5429  0.5470 -0.9968
   38MOL0     H 5199  10.169   7.196   2.005 -0.7189 -0.4491 -0.3319
   38MOL0     H 5200  10.148   7.188   2.269 -0.3928 -0.6552  1.8075
   38MOL0     H 5201  10.089   7.023   2.244  0.3114  0.4506  1.2683
   38MOL0     H 5202  10.440   6.861   2.125 -1.3938 -2.3097 -0.0147
   38MOL0     H 5203  10.597   6.695   2.156 -1.2717 -3.4085 -1.8378
   38MOL0     H 5204  10.490   6.576   2.218 -0.8168 -0.1544  2.6921
   38MOL0     H 5205  10.632   6.634   2.312 -1.1096  2.4929  2.9236
   38MOL0     H 5206  10.342   6.452   2.735  0.2827  0.1108 -0.9588
   38MOL0     H 5207  10.389   6.319   2.926  1.4606 -1.7506 -2.3391
   38MOL0     H 5208  10.441   6.303   3.186  0.0905 -1.2804  0.3090
   38MOL0     H 5209  10.511   6.162   3.092 -1.3584 -1.8820  2.4622
   38MOL0     H 5210  10.722   6.207   3.251  0.2920  2.3426 -1.0557
   38MOL0     H 5211  10.598   6.284   3.348  0.4969 -1.3242  0.6311
   38MOL0     H 5212  10.646   6.061   3.403  3.5143 -1.4145 -3.3934
   38MOL0     H 5213  10.570   6.011   3.247  1.4394  0.9931  0.4915
   38MOL0     H 5214  10.364   6.135   3.331 -0.4332  1.0080  0.6495
   38MOL0     H 5215  10.433   6.140   3.499 -2.1920  0.6034 -0.1515
   38MOL0     H 5216  10.440   5.886   3.337  3.5675  1.5677  0.7426
   38MOL0     H 5217  10.444   5.895   3.506 -0.6560 -0.2191  0.5480
   38MOL0     H 5218  10.236   5.808   3.466 -2.4911 -1.7042 -2.8226
   38MOL0     H 5219  10.187   5.924   3.349  0.8227  2.0133  0.9070
   38MOL0     H 5220  10.167   6.100   3.499  0.7815 -0.4579 -1.1844
   38MOL0     H 5221  10.265   6.014   3.624 -2.7320 -1.6073  2.8154
   38MOL0     H 5222   9.983   5.959   3.510  0.2198  4.6590 -0.7544
   38MOL0     H 5223  10.026   6.026   3.664  2.0323  1.4046  0.3887
   38MOL0     H 5224  10.733   6.573   3.024 -0.9956  1.1311  3.2508
   38MOL0     H 5225  10.668   6.723   2.833 -0.4647  0.6938  1.0250
   38MOL0     H 5226  10.293   6.873   2.594  0.0267  0.0952  0.3542
   38MOL0     H 5227  10.210   7.042   2.434 -0.1767  1.1663  1.4725
   38MOL0     H 5228   8.750   8.084   1.978 -1.3951  1.6537 -0.4887
   38MOL0     H 5229   8.544   8.051   2.131 -0.0786 -1.0328  0.9598
   38MOL0     H 5230   8.161   8.117   2.202 -0.5829 -1.5818  0.7077
   38MOL0     H 5231   7.947   8.066   2.308  0.5377  3.1352 -1.6900
   38MOL0     H 5232   7.984   7.901   2.726 -0.1130 -0.7732  0.4039
   38MOL0     H 5233   7.936   8.068   2.750 -1.3735 -0.3689  0.9696
   38MOL0     H 5234   7.699   8.014   2.692 -3.1356 -1.8443  1.4663
   38MOL0     H 5235   7.752   7.933   2.841 -3.9974 -2.6993 -0.4669
   38MOL0     H 5236   7.685   7.823   2.577 -0.8273  1.6483  1.0102
   38MOL0     H 5237   7.823   7.739   2.639  1.8260 -0.4861  2.1489
   38MOL0     H 5238   7.597   7.633   2.681 -2.3349  0.5460  0.8235
   38MOL0     H 5239   7.566   7.779   2.784  0.4731 -0.6916  3.0139
   38MOL0     H 5240   7.817   7.491   2.997 -3.8832 -0.5871  1.2099
   38MOL0     H 5241   8.155   8.027   2.688  3.7261  0.4040  0.1066
   38MOL0     H 5242   8.432   7.998   2.614  1.0379  0.7566  0.1602
   38MOL0     H 5243   8.474   8.163   2.591  1.1455 -2.6018  2.6803
   38MOL0     H 5244   8.352   8.116   2.714 -0.0437 -0.5176  0.8064
   39MOL0     O 5245   6.535   1.777   9.613 -0.2712 -0.2512 -0.3044
   39MOL0     C 5246   6.466   1.846   9.691 -0.0092  0.1315 -0.6238
   39MOL0     O 5247   6.499   1.897   9.816  0.0885 -0.0510 -0.1577
   39MOL0     C 5248   6.627   1.887   9.864 -0.2508 -0.1449 -0.3573
   39MOL0     C 5249   6.636   1.927  10.000  0.2555 -0.0546 -0.6754
   39MOL0     C 5250   6.752   1.923  10.070 -0.6218  0.1305 -0.4173
   39MOL0     C 5251   6.870   1.880  10.021 -0.2281 -0.0766 -0.0047
   39MOL0     O 5252   6.985   1.853  10.091 -0.3955 -0.2812 -0.9281
   39MOL0     C 5253   6.979   1.825  10.233  0.3292 -0.4188  0.2440
   39MOL0     C 5254   7.111   1.855  10.304 -0.0189  0.1253  0.7258
   39MOL0     C 5255   7.137   1.733  10.405 -0.2981  0.2208 -0.0307
   39MOL0     C 5256   7.211   1.773  10.537 -0.5795  0.0254  0.3291
   39MOL0     C 5257   7.354   1.798  10.502  0.5711 -0.1208 -0.5529
   39MOL0     C 5258   7.437   1.859  10.621 -0.5201  0.8156  0.0854
   39MOL0     C 5259   7.578   1.888  10.579 -0.0587  0.2951 -0.1641
   39MOL0     C 5260   7.668   1.941  10.703  0.1859  0.4369 -0.1742
   39MOL0     N 5261   7.690   2.085  10.683 -0.2557 -0.0632  0.5673
   39MOL0     C 5262   7.614   2.194  10.731 -0.5103  0.2500  0.3723
   39MOL0     C 5263   7.677   2.300  10.678 -0.0263  0.0604 -0.2059
   39MOL0     C 5264   7.620   2.437  10.682  0.1871  0.0740  0.3377
   39MOL0     C 5265   7.706   2.533  10.593 -0.5598  0.0457  0.2525
   39MOL0     C 5266   7.645   2.671  10.574  0.2269  0.0345  0.0487
   39MOL0     C 5267   7.499   2.684  10.517  0.5049  1.2061 -0.6402
   39MOL0     O 5268   7.492   2.602  10.398 -0.2524 -0.7836 -0.1033
   39MOL0     C 5269   7.376   2.531  10.384  0.1294  0.2172 -0.6664
   39MOL0     C 5270   7.383   2.390  10.392  0.1484 -0.2965  0.6049
   39MOL0     C 5271   7.268   2.309  10.366  0.2695  0.1442 -1.6548
   39MOL0     C 5272   7.286   2.163  10.388 -0.0210  0.2962 -0.1130
   39MOL0     C 5273   7.143   2.369  10.346  0.0631 -0.1123 -0.0970
   39MOL0     C 5274   7.013   2.293  10.327 -0.2766  0.2916  0.1142
   39MOL0     O 5275   6.905   2.374  10.331 -0.3878 -0.7279 -0.6070
   39MOL0     C 5276   6.794   2.345  10.261 -0.0076 -0.8380 -0.1433
   39MOL0     C 5277   6.679   2.377  10.326  0.2624  0.1243 -0.8354
   39MOL0     C 5278   6.558   2.374  10.261  0.3678  0.4986  0.0186
   39MOL0     C 5279   6.551   2.327  10.120 -0.9342 -0.7857  0.5091
   39MOL0     O 5280   6.425   2.342  10.068 -0.3716  0.3592 -0.2115
   39MOL0     C 5281   6.397   2.267   9.948 -0.0819 -0.1635  0.1423
   39MOL0     C 5282   6.248   2.288   9.913  0.3527  0.3295 -0.2123
   39MOL0     C 5283   6.232   2.424   9.857  0.9585 -0.4007  0.0480
   39MOL0     C 5284   6.103   2.428   9.771  0.2059 -0.5509  0.4698
   39MOL0     C 5285   5.977   2.417   9.852 -0.2019  0.3338  0.5734
   39MOL0     C 5286   5.840   2.438   9.784  0.1125 -0.3887  0.2352
   39MOL0     C 5287   5.833   2.345   9.667 -0.7055 -0.1190 -0.0263
   39MOL0     C 5288   5.686   2.322   9.606  0.6526  0.8529 -0.5652
   39MOL0    Cl 5289   5.566   2.258   9.720 -0.1135  0.2433  0.4211
   39MOL0     C 5290   6.669   2.289  10.062 -1.1697 -1.3918  0.4030
   39MOL0     C 5291   6.792   2.300  10.130 -1.2097  0.2497 -1.0951
   39MOL0     O 5292   7.006   2.174  10.301 -0.3276  0.3347  0.1681
   39MOL0     C 5293   7.135   2.515  10.338 -0.4268  0.6294  0.8513
   39MOL0     C 5294   7.253   2.584  10.356  0.0014 -0.2024  0.1824
   39MOL0     N 5295   7.790   2.262  10.618  0.2140  0.6058 -0.6031
   39MOL0     N 5296   7.806   2.133  10.628  0.0282 -0.2735 -0.1626
   39MOL0     C 5297   6.860   1.837   9.885  0.2626  0.8020  0.3427
   39MOL0     C 5298   6.747   1.840   9.810  0.3251 -0.3150 -0.4951
   39MOL0     C 5299   6.332   1.873   9.650  0.4161 -0.6199  0.5243
   39MOL0     C 5300   6.233   1.898   9.747  0.0871  0.4489 -0.3685
   39MOL0     C 5301   6.108   1.944   9.708  0.1838  0.4391 -0.4506
   39MOL0     C 5302   6.064   1.968   9.580 -0.1967 -0.1421  0.1476
   39MOL0     O 5303   5.933   2.011   9.540  0.2157  0.5813  0.0952
   39MOL0     C 5304   5.843   1.907   9.584  0.5115  0.0337 -0.4263
   39MOL0     C 5305   5.737   1.907   9.472 -0.0438  0.6929  0.4977
   39MOL0     C 5306   5.662   1.771   9.456 -0.8505  0.7679 -0.2113
   39MOL0     C 5307   5.665   1.724   9.303 -0.0201 -1.0329 -0.9944
   39MOL0     C 5308   5.545   1.775   9.234 -0.0927  0.3113  0.7620
   39MOL0     C 5309   5.449   1.815   9.165  0.3137  0.2258 -0.2485
   39MOL0     C 5310   6.164   1.956   9.489  0.7096 -1.0766 -0.3002
   39MOL0     C 5311   6.293   1.912   9.517 -0.2877 -0.1097  0.3621
   39MOL0     C 5312   6.383   1.909   9.391 -0.3030 -0.8900 -0.0548
   39MOL0     H 5313   6.540   1.956  10.042 -1.2318 -2.6271 -2.0596
   39MOL0     H 5314   6.755   1.984  10.160 -0.0404 -0.4408 -0.0431
   39MOL0     H 5315   6.944   1.723  10.245 -0.7016 -0.4468 -2.2656
   39MOL0     H 5316   6.911   1.892  10.286  1.5291  0.3403  0.8839
   39MOL0     H 5317   7.189   1.875  10.230 -1.4895  1.3159 -0.5759
   39MOL0     H 5318   7.096   1.951  10.353  0.5591  1.9892 -2.4988
   39MOL0     H 5319   7.048   1.683  10.445  1.4449 -1.6811  1.7156
   39MOL0     H 5320   7.195   1.661  10.347 -1.0311  1.1516 -1.9954
   39MOL0     H 5321   7.168   1.870  10.566  0.4782  0.3818  0.7592
   39MOL0     H 5322   7.199   1.703  10.620 -0.3956  0.9066  1.1199
   39MOL0     H 5323   7.358   1.873  10.422 -0.2479  1.7016  1.0548
   39MOL0     H 5324   7.393   1.701  10.468 -0.4634 -0.3285 -1.1753
   39MOL0     H 5325   7.395   1.956  10.650 -2.0151  0.5576 -1.1021
   39MOL0     H 5326   7.440   1.790  10.705  0.9284  0.1753 -0.4658
   39MOL0     H 5327   7.577   1.962  10.498  0.6263  2.5216  1.7178
   39MOL0     H 5328   7.626   1.795  10.548  1.2060  0.5411  0.9528
   39MOL0     H 5329   7.610   1.925  10.795 -2.3437 -2.6469 -2.0931
   39MOL0     H 5330   7.759   1.881  10.713 -1.2578 -1.9650 -0.5647
   39MOL0     H 5331   7.530   2.190  10.799 -0.7353 -0.9265  0.0489
   39MOL0     H 5332   7.616   2.480  10.782  4.6868  0.5226  0.5279
   39MOL0     H 5333   7.518   2.444  10.643  0.4595  1.9269 -0.1221
   39MOL0     H 5334   7.799   2.551  10.647 -0.3757  0.6260 -0.2446
   39MOL0     H 5335   7.734   2.502  10.492  0.8277  0.5479  0.4629
   39MOL0     H 5336   7.644   2.723  10.671  0.1331  1.2111 -0.5626
   39MOL0     H 5337   7.707   2.736  10.511 -0.5725  2.1864  1.3699
   39MOL0     H 5338   7.436   2.638  10.594  2.7260  1.7884  1.6718
   39MOL0     H 5339   7.476   2.791  10.508 -0.9745  0.7129 -3.9281
   39MOL0     H 5340   7.481   2.346  10.407 -0.0459 -1.1415 -0.5065
   39MOL0     H 5341   7.389   2.133  10.412 -1.0127 -3.8029 -0.1835
   39MOL0     H 5342   7.253   2.104  10.302 -3.1558  2.1382 -0.2997
   39MOL0     H 5343   7.222   2.122  10.467 -1.8236  1.4267 -0.9256
   39MOL0     H 5344   6.688   2.414  10.428 -0.4580  1.4054 -1.2195
   39MOL0     H 5345   6.467   2.412  10.306  0.2247  0.3523 -0.1429
   39MOL0     H 5346   6.454   2.303   9.862 -1.3731 -2.5458 -1.8522
   39MOL0     H 5347   6.418   2.164   9.977  2.1253  0.3444  0.5165
   39MOL0     H 5348   6.216   2.225   9.829 -0.5551 -0.4841  0.7229
   39MOL0     H 5349   6.181   2.260   9.994  1.7323 -1.6954  0.3167
   39MOL0     H 5350   6.319   2.453   9.797 -1.6111  1.6766 -2.9962
   39MOL0     H 5351   6.216   2.499   9.935  0.9376  3.3093 -3.2014
   39MOL0     H 5352   6.121   2.352   9.694  1.2970 -0.6729  0.8315
   39MOL0     H 5353   6.100   2.523   9.716  1.4501 -0.9112 -0.2685
   39MOL0     H 5354   5.972   2.314   9.888 -1.7658  0.7397  1.6056
   39MOL0     H 5355   5.982   2.473   9.945 -0.5756 -1.7823  1.9357
   39MOL0     H 5356   5.834   2.539   9.741 -0.0014 -0.8093 -0.7675
   39MOL0     H 5357   5.764   2.423   9.860  0.2902  0.8288  0.6750
   39MOL0     H 5358   5.850   2.243   9.702 -2.4295  0.3225  2.3540
   39MOL0     H 5359   5.916   2.362   9.598 -2.1914  1.1614 -1.5814
   39MOL0     H 5360   5.707   2.254   9.523 -1.5460 -1.7396  0.8339
   39MOL0     H 5361   5.638   2.411   9.563 -2.2441 -0.4610 -0.2910
   39MOL0     H 5362   6.672   2.258   9.958 -3.4058 -1.1593  0.2129
   39MOL0     H 5363   6.892   2.281  10.092 -0.2519  0.4335  1.1981
   39MOL0     H 5364   7.051   2.579  10.311 -0.8931 -0.6035 -0.8408
   39MOL0     H 5365   7.253   2.690  10.333 -0.5547 -0.0248  0.9673
   39MOL0     H 5366   6.946   1.799   9.831 -1.4031  2.0617 -3.6094
   39MOL0     H 5367   6.765   1.818   9.706  5.6177 -0.1876  0.1121
   39MOL0     H 5368   6.249   1.871   9.851 -2.1552  2.7968  0.6994
   39MOL0     H 5369   6.035   1.957   9.788 -0.7670 -0.6769 -1.0930
   39MOL0     H 5370   5.889   1.808   9.586 -0.5883 -0.4884 -0.6690
   39MOL0     H 5371   5.796   1.942   9.676  0.9045  1.4453 -0.7301
   39MOL0     H 5372   5.773   1.946   9.376 -0.5002  1.0846  0.4838
   39MOL0     H 5373   5.663   1.985   9.491 -0.2867  0.7683 -0.6736
   39MOL0     H 5374   5.700   1.687   9.515 -5.3409 -0.9168  0.6298
   39MOL0     H 5375   5.562   1.768   9.498 -0.0792 -3.3575  1.8380
   39MOL0     H 5376   5.655   1.616   9.292 -1.1106 -0.7156 -4.2327
   39MOL0     H 5377   5.753   1.768   9.255 -0.2329 -1.3590 -1.7020
   39MOL0     H 5378   5.368   1.832   9.098  0.3192 -0.5064 -0.4554
   39MOL0     H 5379   6.131   1.976   9.388  1.4692  1.3989 -0.1419
   39MOL0     H 5380   6.366   1.815   9.337  1.0947 -0.8371 -0.6260
   39MOL0     H 5381   6.367   2.000   9.332  2.3260  0.1621  0.7269
   39MOL0     H 5382   6.489   1.912   9.414 -0.1832 -1.9621 -0.3950
   40MOL0     O 5383   2.707   3.251   4.920  0.2323 -0.2358  0.0263
   40MOL0     C 5384   2.781   3.288   5.004  1.0540  0.0065 -0.3602
   40MOL0     O 5385   2.732   3.326   5.130 -0.6919 -0.2802  0.2772
   40MOL0     C 5386   2.600   3.322   5.170 -0.4756  0.3225 -0.7519
   40MOL0     C 5387   2.575   3.302   5.310  0.2502  0.8414 -0.2517
   40MOL0     C 5388   2.452   3.297   5.366 -0.9771  0.1513 -0.1526
   40MOL0     C 5389   2.341   3.296   5.279 -0.3228 -0.3091 -0.1780
   40MOL0     O 5390   2.222   3.270   5.343  0.6940  0.6548 -0.4255
   40MOL0     C 5391   2.116   3.232   5.257  1.2018 -0.0572  0.1031
   40MOL0     C 5392   1.987   3.195   5.330 -0.0355  0.8240 -0.2292
   40MOL0     C 5393   1.922   3.303   5.413 -0.3529 -0.1480  0.0084
   40MOL0     C 5394   1.823   3.261   5.516 -0.4475 -0.4289 -1.7164
   40MOL0     C 5395   1.734   3.139   5.472  0.0408  0.0720 -0.7026
   40MOL0     C 5396   1.670   3.083   5.607  0.6315 -0.2728 -0.5224
   40MOL0     C 5397   1.572   2.958   5.589  0.7994 -0.2435 -0.0645
   40MOL0     C 5398   1.629   2.820   5.554  0.6448 -0.0600 -0.3701
   40MOL0     N 5399   1.749   2.811   5.644 -0.4865 -0.5906  0.4034
   40MOL0     C 5400   1.866   2.757   5.600 -0.2651 -0.3595 -0.3674
   40MOL0     C 5401   1.929   2.706   5.707 -0.4498  0.1081 -0.0058
   40MOL0     C 5402   2.053   2.625   5.731 -0.1274  0.7115  0.2051
   40MOL0     C 5403   2.154   2.686   5.625  0.1013 -0.3865 -0.4852
   40MOL0     C 5404   2.168   2.628   5.490 -0.1540 -0.7412 -0.4822
   40MOL0     C 5405   2.279   2.524   5.504 -0.2467  0.2721 -0.1159
   40MOL0     O 5406   2.242   2.404   5.574 -0.1155  0.6096  0.5421
   40MOL0     C 5407   2.348   2.343   5.635  0.1664  0.2192  0.2034
   40MOL0     C 5408   2.333   2.262   5.751 -0.4901  0.6579  0.8169
   40MOL0     C 5409   2.434   2.221   5.833  0.7848 -0.4724  0.4958
   40MOL0     C 5410   2.399   2.151   5.961  1.4521  1.0082  1.2036
   40MOL0     C 5411   2.565   2.244   5.790 -0.9665  0.7706  0.3158
   40MOL0     C 5412   2.683   2.199   5.860 -0.2851 -0.0466  0.5420
   40MOL0     O 5413   2.809   2.240   5.808 -0.2859 -0.2272  0.0542
   40MOL0     C 5414   2.923   2.226   5.891 -1.0171 -0.7248 -0.3108
   40MOL0     C 5415   3.007   2.112   5.885  0.0152 -0.0298  0.7495
   40MOL0     C 5416   3.134   2.106   5.949  0.5023 -0.2224  0.5235
   40MOL0     C 5417   3.175   2.216   6.032 -0.1792  0.2054  0.0431
   40MOL0     O 5418   3.299   2.222   6.096  0.1863  0.0322 -0.6439
   40MOL0     C 5419   3.409   2.152   6.039  0.9675 -0.1282  0.2816
   40MOL0     C 5420   3.538   2.221   6.087 -0.6277  0.6643  0.1193
   40MOL0     C 5421   3.670   2.163   6.029 -0.2608 -0.4154 -1.0181
   40MOL0     C 5422   3.686   2.190   5.878  0.1887 -0.4295  0.4644
   40MOL0     C 5423   3.800   2.123   5.809  0.3883  0.1349  0.8487
   40MOL0     C 5424   3.940   2.171   5.862 -0.0888  0.1235 -0.0100
   40MOL0     C 5425   4.048   2.147   5.762 -0.4016 -0.4216  0.4339
   40MOL0     C 5426   4.095   2.003   5.760  0.0354  0.0765 -0.8266
   40MOL0    Cl 5427   4.254   2.007   5.673 -0.0997 -0.2548  0.0316
   40MOL0     C 5428   3.083   2.313   6.058 -0.2759  0.1216  0.5326
   40MOL0     C 5429   2.962   2.324   5.988 -0.6398  0.5107 -0.1366
   40MOL0     O 5430   2.669   2.133   5.959  0.2047 -0.6447  0.1364
   40MOL0     C 5431   2.588   2.309   5.670 -0.1036  0.2237 -0.4736
   40MOL0     C 5432   2.482   2.363   5.599 -0.1389  0.4856 -0.3107
   40MOL0     N 5433   1.852   2.752   5.813 -0.5965  0.7041  0.0304
   40MOL0     N 5434   1.756   2.823   5.776 -0.9546  0.6043  1.0061
   40MOL0     C 5435   2.356   3.330   5.144 -0.2020 -0.1561  0.3752
   40MOL0     C 5436   2.487   3.349   5.095 -0.9010  0.0731  0.1559
   40MOL0     C 5437   2.926   3.306   4.980 -0.6554 -1.0150  0.2687
   40MOL0     C 5438   2.985   3.410   5.048  0.1242  0.4865  0.6014
   40MOL0     C 5439   3.114   3.429   5.055 -0.8811  0.2943 -0.2151
   40MOL0     C 5440   3.208   3.357   4.963  0.5756 -0.0874 -1.1540
   40MOL0     O 5441   3.334   3.387   4.962  0.1692  0.0009 -0.1794
   40MOL0     C 5442   3.363   3.522   4.908 -0.0204 -0.0835 -0.6192
   40MOL0     C 5443   3.520   3.527   4.894 -0.0525 -0.1913 -0.4291
   40MOL0     C 5444   3.570   3.438   4.785  0.6659 -0.3807  1.2412
   40MOL0     C 5445   3.711   3.475   4.741  0.1138 -0.1211 -0.1537
   40MOL0     C 5446   3.766   3.373   4.656 -0.1420  0.4335  0.1000
   40MOL0     C 5447   3.820   3.280   4.601 -0.1568 -0.0121 -0.4309
   40MOL0     C 5448   3.145   3.255   4.886 -0.4877  0.0929 -0.5130
   40MOL0     C 5449   3.007   3.225   4.894  0.9502  0.0829 -0.1591
   40MOL0     C 5450   2.955   3.100   4.823 -0.2302  0.2273  1.1713
   40MOL0     H 5451   2.657   3.298   5.381  2.1222 -0.6970 -2.3479
   40MOL0     H 5452   2.439   3.294   5.473 -3.7754  2.2100 -0.3214
   40MOL0     H 5453   2.140   3.152   5.187 -0.4424  1.7112 -2.6678
   40MOL0     H 5454   2.088   3.316   5.193 -1.6049 -0.5292  0.5712
   40MOL0     H 5455   1.920   3.166   5.249 -0.5170 -0.7734  0.7056
   40MOL0     H 5456   2.013   3.106   5.388 -0.2522  1.9488  1.6867
   40MOL0     H 5457   1.990   3.377   5.457 -0.4936 -0.6175  1.0471
   40MOL0     H 5458   1.867   3.348   5.330  1.0645  0.3357 -0.6930
   40MOL0     H 5459   1.880   3.217   5.598 -0.2090  0.4190 -1.4140
   40MOL0     H 5460   1.765   3.341   5.562  0.1229 -0.1021 -1.5623
   40MOL0     H 5461   1.781   3.051   5.429 -1.0872  0.2792 -2.4442
   40MOL0     H 5462   1.657   3.176   5.404 -1.5293 -0.3919  0.7468
   40MOL0     H 5463   1.755   3.065   5.673  2.8968 -2.2013 -3.6916
   40MOL0     H 5464   1.610   3.165   5.648  2.7863  0.2899  1.7832
   40MOL0     H 5465   1.503   2.994   5.511  4.2765  0.7991 -2.9288
   40MOL0     H 5466   1.517   2.942   5.682  0.3637  0.2199 -0.2386
   40MOL0     H 5467   1.553   2.745   5.578 -1.1050  1.1488 -1.8778
   40MOL0     H 5468   1.655   2.812   5.448 -0.5309  0.8982 -0.7586
   40MOL0     H 5469   1.902   2.741   5.499  0.9983  0.0110  0.0049
   40MOL0     H 5470   2.021   2.524   5.707  0.0915 -0.0091  2.7137
   40MOL0     H 5471   2.096   2.625   5.831  0.3430  0.3516  0.0104
   40MOL0     H 5472   2.162   2.795   5.632 -0.2043 -0.4717  2.8075
   40MOL0     H 5473   2.250   2.678   5.677 -0.0176  4.7799  1.0569
   40MOL0     H 5474   2.077   2.581   5.451  0.6034  0.8031 -4.7167
   40MOL0     H 5475   2.201   2.710   5.424  1.7458  0.3559  1.6837
   40MOL0     H 5476   2.315   2.500   5.404  1.3736 -1.1516  0.7376
   40MOL0     H 5477   2.360   2.586   5.545 -0.1983  0.7480 -0.9134
   40MOL0     H 5478   2.230   2.242   5.778 -0.6598  1.9512  1.2208
   40MOL0     H 5479   2.451   2.198   6.045  0.7014 -2.0624  3.5762
   40MOL0     H 5480   2.436   2.049   5.947  1.1626  1.3363 -3.6315
   40MOL0     H 5481   2.293   2.160   5.987  0.7333 -1.5309 -0.5432
   40MOL0     H 5482   2.969   2.034   5.821 -0.3462  0.1257  0.7734
   40MOL0     H 5483   3.197   2.018   5.937  2.0867  0.5773  2.3260
   40MOL0     H 5484   3.413   2.050   6.078 -0.0925 -0.2418  0.1081
   40MOL0     H 5485   3.403   2.157   5.930 -1.5368  1.0339  0.4153
   40MOL0     H 5486   3.518   2.325   6.061  1.0345  1.1118  0.4966
   40MOL0     H 5487   3.554   2.209   6.194  1.7609 -0.6062 -0.3044
   40MOL0     H 5488   3.677   2.057   6.058 -0.8811  0.0390  0.9658
   40MOL0     H 5489   3.752   2.209   6.085 -0.2861  0.2227 -1.5064
   40MOL0     H 5490   3.683   2.296   5.852 -0.6608 -0.8796 -1.5317
   40MOL0     H 5491   3.601   2.144   5.826 -1.7587  2.8893  0.4189
   40MOL0     H 5492   3.792   2.014   5.822 -3.4470 -0.0462 -1.4270
   40MOL0     H 5493   3.794   2.146   5.702 -0.9875  2.0447  1.2900
   40MOL0     H 5494   3.973   2.127   5.956  1.5014  0.7324 -0.2440
   40MOL0     H 5495   3.921   2.275   5.886 -0.6650  0.5300 -2.0324
   40MOL0     H 5496   4.137   2.209   5.775  1.1299 -1.7782 -2.5301
   40MOL0     H 5497   4.003   2.178   5.666 -1.7080 -1.4056  0.7075
   40MOL0     H 5498   4.029   1.928   5.716 -2.1710 -2.2162  5.3526
   40MOL0     H 5499   4.109   1.966   5.862 -1.8948  0.5920 -0.3445
   40MOL0     H 5500   3.105   2.384   6.137 -2.6146  2.8247 -1.0472
   40MOL0     H 5501   2.886   2.401   5.999  1.4054  2.6039 -0.0705
   40MOL0     H 5502   2.685   2.315   5.621 -0.3834  1.4531 -0.9177
   40MOL0     H 5503   2.510   2.417   5.509  4.8969  2.4688  2.0611
   40MOL0     H 5504   2.273   3.337   5.076  0.8895  0.6857 -0.9160
   40MOL0     H 5505   2.510   3.377   4.992  1.9300  1.2772  1.0151
   40MOL0     H 5506   2.926   3.467   5.120 -0.9244  3.6421 -2.4598
   40MOL0     H 5507   3.157   3.506   5.118  0.5784 -0.6193 -0.0491
   40MOL0     H 5508   3.311   3.528   4.812  1.0451  0.9197 -1.1619
   40MOL0     H 5509   3.334   3.598   4.982 -1.3835 -0.6464 -0.5482
   40MOL0     H 5510   3.562   3.487   4.987 -1.1020  2.0202  1.0692
   40MOL0     H 5511   3.545   3.633   4.883 -1.3928  0.1360 -0.5015
   40MOL0     H 5512   3.574   3.331   4.809  2.1827 -0.7410 -0.3839
   40MOL0     H 5513   3.498   3.450   4.703  2.0065 -0.6971 -0.0412
   40MOL0     H 5514   3.772   3.479   4.832 -0.1153  1.6020 -0.0393
   40MOL0     H 5515   3.714   3.573   4.692 -2.1629 -0.0958 -0.3358
   40MOL0     H 5516   3.876   3.205   4.549 -0.7616 -0.3525 -0.6040
   40MOL0     H 5517   3.207   3.190   4.825 -2.7580 -2.3313 -0.4229
   40MOL0     H 5518   2.926   3.121   4.719 -1.3962  1.0454  1.6496
   40MOL0     H 5519   3.049   3.044   4.818 -0.2506  0.3056 -1.8392
   40MOL0     H 5520   2.877   3.036   4.864  0.0557 -0.8370  0.1324
   41MOL0     O 5521   2.427   5.790   9.568  0.0629 -0.2092 -0.0977
   41MOL0     C 5522   2.460   5.673   9.551  1.0352 -0.0057 -0.4412
   41MOL0     O 5523   2.581   5.623   9.593 -0.1251 -0.3001  0.3086
   41MOL0     C 5524   2.684   5.706   9.621  0.7465  0.4624 -0.5616
   41MOL0     C 5525   2.781   5.734   9.525 -0.3261  0.3326 -0.1148
   41MOL0     C 5526   2.882   5.832   9.543 -0.2977  0.4858 -0.6961
   41MOL0     C 5527   2.890   5.900   9.670 -0.1099  0.9976  0.6283
   41MOL0     O 5528   2.981   5.997   9.700  0.2826  0.6361  0.3287
   41MOL0     C 5529   3.068   6.056   9.608  0.4172 -0.2227  0.1382
   41MOL0     C 5530   3.152   6.163   9.667 -0.0859 -0.3803  0.2841
   41MOL0     C 5531   3.081   6.272   9.747 -0.2680 -0.7957  0.1800
   41MOL0     C 5532   3.190   6.352   9.812 -0.7703  0.1862 -0.2888
   41MOL0     C 5533   3.132   6.487   9.845 -0.0607  0.8649  0.1711
   41MOL0     C 5534   3.234   6.576   9.913 -0.1096  0.4840  0.5211
   41MOL0     C 5535   3.173   6.703   9.975 -0.8596 -0.0948 -0.6969
   41MOL0     C 5536   3.122   6.794   9.869  0.6867 -0.0610 -0.3691
   41MOL0     N 5537   3.047   6.906   9.933  0.0202  0.2788  0.3019
   41MOL0     C 5538   2.914   6.930   9.910  1.0706  0.1615  0.4228
   41MOL0     C 5539   2.892   7.046   9.980  0.4843  0.1110 -0.0655
   41MOL0     C 5540   2.771   7.133   9.955  0.0041 -0.0363  0.5091
   41MOL0     C 5541   2.652   7.078  10.035  0.1632  0.0903 -0.3019
   41MOL0     C 5542   2.560   7.194  10.079  0.2394  0.3749  0.0048
   41MOL0     C 5543   2.441   7.138  10.157 -0.4019  0.0764  0.0913
   41MOL0     O 5544   2.472   7.120  10.295  0.5267 -0.1269  0.0715
   41MOL0     C 5545   2.372   7.093  10.382  0.1679  0.1075 -0.8534
   41MOL0     C 5546   2.399   7.087  10.527 -0.0211 -0.2397 -0.5003
   41MOL0     C 5547   2.298   7.062  10.626  0.0383 -0.3523 -1.2498
   41MOL0     C 5548   2.352   7.049  10.764  0.0350  0.4377 -0.5823
   41MOL0     C 5549   2.167   7.050  10.592  0.5741  0.5857 -0.0250
   41MOL0     C 5550   2.047   7.036  10.679  0.6493 -0.3938 -0.0824
   41MOL0     O 5551   1.929   7.086  10.626  0.5373 -0.2685  0.5127
   41MOL0     C 5552   1.809   7.045  10.681  0.6971  0.2633 -0.3665
   41MOL0     C 5553   1.707   7.013  10.591 -0.1689  0.1819  1.2458
   41MOL0     C 5554   1.584   6.978  10.627  1.1696 -0.9237 -0.5668
   41MOL0     C 5555   1.548   6.963  10.767 -0.5690 -0.5853 -0.5235
   41MOL0     O 5556   1.430   6.933  10.823  0.0054  0.5506  0.5122
   41MOL0     C 5557   1.319   6.964  10.739 -0.0082 -0.1396 -0.0154
   41MOL0     C 5558   1.199   6.979  10.835 -0.2606  0.8437 -0.4597
   41MOL0     C 5559   1.138   6.839  10.870 -0.0635  0.3542 -0.0346
   41MOL0     C 5560   1.005   6.837  10.953 -0.6679 -0.7316 -0.4005
   41MOL0     C 5561   0.950   6.698  11.003 -0.0875 -0.0181 -0.0171
   41MOL0     C 5562   0.907   6.616  10.876  0.2999 -1.3196 -0.7772
   41MOL0     C 5563   0.802   6.514  10.915 -0.9219 -0.0630 -0.0211
   41MOL0     C 5564   0.719   6.475  10.791  0.6764  0.5079  0.6821
   41MOL0    Cl 5565   0.621   6.604  10.717  0.2114  0.0844  0.0088
   41MOL0     C 5566   1.641   7.010  10.858 -0.4070 -0.1307  0.0634
   41MOL0     C 5567   1.773   7.057  10.821  0.7346 -0.1166  0.0115
   41MOL0     O 5568   2.050   6.974  10.789 -0.1320 -0.5900  0.1621
   41MOL0     C 5569   2.136   7.048  10.455  0.0836 -0.1611  0.5227
   41MOL0     C 5570   2.234   7.067  10.355 -0.0348 -0.5097 -0.1480
   41MOL0     N 5571   3.003   7.077  10.054  0.5515  0.2127  0.2186
   41MOL0     N 5572   3.090   6.986  10.028 -0.5206  0.0183 -0.2393
   41MOL0     C 5573   2.808   5.851   9.780  0.1827  1.0563  0.6672
   41MOL0     C 5574   2.711   5.752   9.758 -0.1944  0.2270  0.1808
   41MOL0     C 5575   2.342   5.590   9.518 -1.1497 -0.4621 -0.1592
   41MOL0     C 5576   2.217   5.647   9.491 -0.9507 -0.5143  0.3070
   41MOL0     C 5577   2.098   5.574   9.463 -0.4579 -0.8965 -0.1054
   41MOL0     C 5578   2.113   5.438   9.464  1.5348  0.3394  0.5296
   41MOL0     O 5579   2.001   5.361   9.435 -0.3557  0.6321 -0.1193
   41MOL0     C 5580   1.944   5.293   9.548  0.1472 -0.2443 -0.4652
   41MOL0     C 5581   1.819   5.212   9.501  0.1690 -0.0445  0.2683
   41MOL0     C 5582   1.839   5.068   9.435 -0.4427 -0.1568 -0.0445
   41MOL0     C 5583   1.828   4.955   9.536  0.8752 -0.3590 -0.4438
   41MOL0     C 5584   1.690   4.944   9.590 -0.0745  0.3220  0.0666
   41MOL0     C 5585   1.570   4.950   9.624 -1.5265 -0.4401 -1.5122
   41MOL0     C 5586   2.238   5.381   9.496  0.6830  0.7063 -0.1430
   41MOL0     C 5587   2.349   5.453   9.526  0.4471 -0.3013  0.5976
   41MOL0     C 5588   2.469   5.364   9.561 -0.5375 -0.1214 -0.6158
   41MOL0     H 5589   2.769   5.693   9.425  3.2286  1.5486 -1.2076
   41MOL0     H 5590   2.937   5.841   9.450  0.1922 -2.5194 -0.7992
   41MOL0     H 5591   3.012   6.101   9.525  0.0135  1.1258  1.1130
   41MOL0     H 5592   3.141   5.979   9.582  2.0771  0.1294  3.2991
   41MOL0     H 5593   3.219   6.111   9.736 -0.0632 -0.8667 -0.1024
   41MOL0     H 5594   3.203   6.218   9.587 -2.7877  3.1132  0.6838
   41MOL0     H 5595   3.018   6.328   9.677  0.4902 -1.6951 -1.2857
   41MOL0     H 5596   3.016   6.239   9.828  0.0467  1.5428  1.4746
   41MOL0     H 5597   3.228   6.300   9.900 -2.9859 -1.3768 -0.1996
   41MOL0     H 5598   3.265   6.367   9.733  0.1433  0.6500  0.6435
   41MOL0     H 5599   3.050   6.470   9.916 -0.2541 -1.7929 -0.5609
   41MOL0     H 5600   3.094   6.537   9.756  3.6978  3.2023 -0.3304
   41MOL0     H 5601   3.282   6.514   9.989 -0.4241 -2.2853 -1.3952
   41MOL0     H 5602   3.310   6.600   9.837 -0.8077 -0.2768 -0.4480
   41MOL0     H 5603   3.251   6.766  10.019 -0.0948 -0.4116 -1.5531
   41MOL0     H 5604   3.107   6.662  10.052  1.5118 -0.7675  1.0967
   41MOL0     H 5605   3.209   6.830   9.813  1.3536 -0.1277  0.6004
   41MOL0     H 5606   3.050   6.750   9.799  0.5405 -1.3921  0.5736
   41MOL0     H 5607   2.844   6.894   9.835  0.5598  1.3268  0.3183
   41MOL0     H 5608   2.750   7.122   9.848  0.6278 -0.2825  0.4079
   41MOL0     H 5609   2.795   7.236   9.980  1.1162 -0.1926  0.1513
   41MOL0     H 5610   2.598   7.016   9.963  0.8710  0.6631 -1.3478
   41MOL0     H 5611   2.672   7.020  10.126  0.7215  0.4207 -0.2101
   41MOL0     H 5612   2.613   7.271  10.136  0.8991  1.3867 -1.9074
   41MOL0     H 5613   2.515   7.233   9.987 -3.0578 -0.0438  1.3035
   41MOL0     H 5614   2.355   7.206  10.160 -2.2005 -2.0920  0.8384
   41MOL0     H 5615   2.409   7.042  10.114  0.0117 -0.7831  1.6386
   41MOL0     H 5616   2.502   7.100  10.559 -0.9863  0.9306  2.4960
   41MOL0     H 5617   2.411   6.958  10.779 -0.2197  0.3696  0.0405
   41MOL0     H 5618   2.276   7.051  10.843 -0.5485  2.0092 -1.1422
   41MOL0     H 5619   2.423   7.125  10.799 -0.6269 -0.6298  3.7120
   41MOL0     H 5620   1.739   7.025  10.488  2.0482 -0.6479  1.7887
   41MOL0     H 5621   1.516   6.946  10.549  1.7004 -1.2206 -0.9232
   41MOL0     H 5622   1.333   7.054  10.679  0.3870 -1.2153 -1.6120
   41MOL0     H 5623   1.295   6.881  10.673  0.5017 -1.0191  0.8764
   41MOL0     H 5624   1.228   7.040  10.920  3.6010 -1.7566  0.3560
   41MOL0     H 5625   1.118   7.033  10.784 -2.1615 -0.0248  1.4668
   41MOL0     H 5626   1.212   6.783  10.928  3.1108  3.5187 -0.6623
   41MOL0     H 5627   1.115   6.780  10.781 -0.5877 -0.1834  0.4459
   41MOL0     H 5628   0.919   6.880  10.902 -2.5889 -1.3804  2.1008
   41MOL0     H 5629   1.023   6.903  11.039 -1.4575 -0.8285 -0.1487
   41MOL0     H 5630   1.023   6.631  11.051  2.0549  2.5069  0.4609
   41MOL0     H 5631   0.868   6.722  11.071 -1.5381 -1.1742 -1.2998
   41MOL0     H 5632   0.996   6.568  10.832  1.0544 -2.2702  1.6419
   41MOL0     H 5633   0.862   6.685  10.804 -0.2719 -1.4633 -0.5561
   41MOL0     H 5634   0.745   6.551  11.001 -0.9249 -0.4754  0.1538
   41MOL0     H 5635   0.837   6.417  10.951  0.3460  0.3849 -0.0102
   41MOL0     H 5636   0.650   6.396  10.824  0.6466 -0.1665 -0.8994
   41MOL0     H 5637   0.786   6.439  10.713  1.8630  1.9709  0.9786
   41MOL0     H 5638   1.614   6.999  10.962 -0.3830 -0.2814  0.0542
   41MOL0     H 5639   1.840   7.094  10.897  1.2961  0.8977 -0.9491
   41MOL0     H 5640   2.032   7.048  10.423  0.2629  2.0898 -0.2679
   41MOL0     H 5641   2.209   7.073  10.249  0.9217  2.1233 -0.3063
   41MOL0     H 5642   2.806   5.896   9.878 -1.1344  1.4845  0.4612
   41MOL0     H 5643   2.662   5.717   9.848  1.7522  2.7000  2.3704
   41MOL0     H 5644   2.199   5.753   9.479  0.6127 -0.4830 -3.3714
   41MOL0     H 5645   2.004   5.612   9.426  0.3012 -1.6177 -3.0420
   41MOL0     H 5646   2.022   5.231   9.594  0.6624  0.7483  0.0209
   41MOL0     H 5647   1.914   5.376   9.614  1.3324 -0.8305  0.8752
   41MOL0     H 5648   1.773   5.281   9.430  3.8209  0.7618 -1.5709
   41MOL0     H 5649   1.763   5.213   9.595 -1.4711  4.3300 -0.5133
   41MOL0     H 5650   1.765   5.049   9.356 -2.7160 -1.5020  2.2472
   41MOL0     H 5651   1.945   5.071   9.408  0.1402  2.0608  2.2311
   41MOL0     H 5652   1.903   4.977   9.612  0.0516  0.8415  0.0610
   41MOL0     H 5653   1.849   4.859   9.489 -1.0500 -1.6437  1.1564
   41MOL0     H 5654   1.467   4.963   9.650 -0.2783  1.9351  3.5476
   41MOL0     H 5655   2.236   5.274   9.512 -0.6192  0.4702 -1.6341
   41MOL0     H 5656   2.477   5.362   9.670 -2.3100 -1.9956 -0.4520
   41MOL0     H 5657   2.449   5.260   9.534 -1.9006  0.3817 -1.6978
   41MOL0     H 5658   2.557   5.406   9.512  3.0275 -2.4334  3.1565
   42MOL0     O 5659   6.665   7.492   8.152 -0.7278 -0.1549 -0.2376
   42MOL0     C 5660   6.665   7.436   8.263 -0.1688 -0.3725  0.3372
   42MOL0     O 5661   6.778   7.393   8.332 -0.2166  0.3471  0.0073
   42MOL0     C 5662   6.899   7.417   8.271 -0.3189  0.4258 -0.6171
   42MOL0     C 5663   6.961   7.323   8.189  0.6246  0.6918  0.1507
   42MOL0     C 5664   7.091   7.339   8.142  0.4721  0.2530  0.8379
   42MOL0     C 5665   7.169   7.448   8.176 -0.2792 -0.5970 -0.0291
   42MOL0     O 5666   7.300   7.463   8.138 -0.1701  0.2893  0.5826
   42MOL0     C 5667   7.373   7.351   8.172 -0.6446 -0.6941  0.1089
   42MOL0     C 5668   7.520   7.395   8.193 -0.0883  0.6582 -0.0142
   42MOL0     C 5669   7.582   7.471   8.079  0.5159  0.7311 -1.0459
   42MOL0     C 5670   7.729   7.504   8.118  0.4281  1.1141 -0.3857
   42MOL0     C 5671   7.775   7.620   8.031  1.0836  0.3795 -0.3671
   42MOL0     C 5672   7.926   7.651   8.050 -0.5215  0.4091  0.6075
   42MOL0     C 5673   8.015   7.547   7.994  0.5470 -0.3449 -0.8834
   42MOL0     C 5674   8.165   7.572   8.006 -0.3394 -0.0377 -0.3455
   42MOL0     N 5675   8.253   7.453   7.988 -0.4721  0.5545  0.1408
   42MOL0     C 5676   8.329   7.408   8.093  0.9312  1.2689 -0.2628
   42MOL0     C 5677   8.436   7.344   8.044  0.5211 -0.5832  0.5013
   42MOL0     C 5678   8.539   7.261   8.122  0.0867  0.7634 -0.0062
   42MOL0     C 5679   8.553   7.108   8.095 -0.5691  0.6267  0.3629
   42MOL0     C 5680   8.447   7.017   8.158 -0.1206  0.3859 -0.8334
   42MOL0     C 5681   8.299   7.044   8.118 -0.6666  0.3011  0.2551
   42MOL0     O 5682   8.213   6.971   8.203 -0.4116 -0.7888 -0.2543
   42MOL0     C 5683   8.076   6.999   8.191  0.1416 -0.7466 -0.3198
   42MOL0     C 5684   8.019   7.087   8.096  0.3978 -0.1060  0.5028
   42MOL0     C 5685   7.885   7.091   8.076  0.0810 -0.5546 -0.6869
   42MOL0     C 5686   7.839   7.179   7.964 -0.3883 -0.2877 -0.3540
   42MOL0     C 5687   7.803   7.007   8.155  0.1698 -0.7613  0.4871
   42MOL0     C 5688   7.652   7.004   8.153  0.9526  0.2434 -0.0991
   42MOL0     O 5689   7.581   6.937   8.248 -0.1658 -0.3479 -0.3989
   42MOL0     C 5690   7.446   6.961   8.259  0.6200  0.4363  0.0005
   42MOL0     C 5691   7.400   7.012   8.380 -0.4647 -0.1758 -0.7471
   42MOL0     C 5692   7.261   7.024   8.413  0.6833  0.8414  0.3189
   42MOL0     C 5693   7.166   6.993   8.312  0.4426  0.4268 -0.2938
   42MOL0     O 5694   7.024   7.004   8.320  0.4168 -0.1676  0.7287
   42MOL0     C 5695   6.968   7.056   8.437  0.5642  0.2757 -0.0204
   42MOL0     C 5696   6.968   6.964   8.563  0.4344  0.3493  0.4012
   42MOL0     C 5697   6.898   6.828   8.536  0.3656 -0.0569 -0.0564
   42MOL0     C 5698   6.843   6.787   8.672 -0.0549  0.1297 -0.0078
   42MOL0     C 5699   6.776   6.647   8.666 -0.7281  0.3801  0.9791
   42MOL0     C 5700   6.624   6.653   8.619  0.2562 -0.2154 -0.5228
   42MOL0     C 5701   6.564   6.517   8.580 -0.3341 -0.4431  0.4667
   42MOL0     C 5702   6.418   6.548   8.544  0.3335 -0.4978 -0.1876
   42MOL0    Cl 5703   6.328   6.386   8.522  0.0822  0.3098  0.3325
   42MOL0     C 5704   7.208   6.961   8.186 -0.8034  0.7459  0.1334
   42MOL0     C 5705   7.345   6.935   8.166 -1.1198 -0.6012 -0.8644
   42MOL0     O 5706   7.603   7.087   8.077  0.4521 -0.1610 -0.0738
   42MOL0     C 5707   7.860   6.925   8.250  0.2446  0.2004  0.1199
   42MOL0     C 5708   7.996   6.919   8.270 -0.1879 -0.2396 -0.7843
   42MOL0     N 5709   8.435   7.367   7.902  0.6851 -0.2685 -0.2143
   42MOL0     N 5710   8.331   7.441   7.875  1.0034  0.2061 -0.0757
   42MOL0     C 5711   7.102   7.555   8.248  0.2039  0.0444 -0.6280
   42MOL0     C 5712   6.969   7.535   8.291 -0.2919  0.3097 -1.1927
   42MOL0     C 5713   6.536   7.414   8.335 -0.0399 -1.3453 -0.7296
   42MOL0     C 5714   6.533   7.362   8.466 -0.8213  0.0892  0.1924
   42MOL0     C 5715   6.418   7.346   8.545  0.5338 -0.0684  0.5941
   42MOL0     C 5716   6.294   7.380   8.494 -0.6133 -0.0621  0.3876
   42MOL0     O 5717   6.178   7.386   8.566  0.1501  0.5395 -0.0324
   42MOL0     C 5718   6.172   7.406   8.709 -0.2823  0.1649  0.6542
   42MOL0     C 5719   6.235   7.540   8.759  0.0714  0.4213  0.5889
   42MOL0     C 5720   6.239   7.550   8.898 -0.3649 -0.0801 -0.3749
   42MOL0     C 5721   6.225   7.688   8.958  0.3108 -0.8631 -0.8586
   42MOL0     C 5722   6.334   7.769   8.911  0.4140  0.3758 -0.3065
   42MOL0     C 5723   6.434   7.828   8.879 -0.7712  0.2086 -0.0370
   42MOL0     C 5724   6.295   7.429   8.364 -0.1848 -0.8081  0.4636
   42MOL0     C 5725   6.405   7.433   8.284  0.4940  1.4834 -0.4113
   42MOL0     C 5726   6.383   7.477   8.147  0.4851 -0.1270  0.7164
   42MOL0     H 5727   6.902   7.235   8.161  3.2986 -0.7061 -1.4665
   42MOL0     H 5728   7.132   7.268   8.071  0.6300  1.6141 -0.4924
   42MOL0     H 5729   7.378   7.280   8.089 -0.9608 -1.2027  0.5178
   42MOL0     H 5730   7.340   7.298   8.263  0.8243  1.2263  1.8544
   42MOL0     H 5731   7.512   7.460   8.281 -0.3529  1.2501 -0.4615
   42MOL0     H 5732   7.585   7.314   8.227 -0.8364 -0.5119 -1.2677
   42MOL0     H 5733   7.588   7.403   7.994  1.0238 -1.5620  0.7217
   42MOL0     H 5734   7.510   7.551   8.061 -1.2011 -0.5589 -0.1300
   42MOL0     H 5735   7.733   7.533   8.224 -0.4732 -0.1099  0.0070
   42MOL0     H 5736   7.791   7.413   8.110  0.7572  1.4960 -3.1046
   42MOL0     H 5737   7.719   7.711   8.053 -1.6027 -1.5117  1.3164
   42MOL0     H 5738   7.753   7.587   7.929 -1.5727 -1.2979  0.6293
   42MOL0     H 5739   7.951   7.748   8.006  1.9907 -0.8302 -0.9252
   42MOL0     H 5740   7.943   7.662   8.158  0.7333 -0.3524  0.5016
   42MOL0     H 5741   7.986   7.537   7.889 -1.4818 -1.4020 -0.2757
   42MOL0     H 5742   7.987   7.451   8.039  0.3351 -0.0527 -0.3872
   42MOL0     H 5743   8.194   7.632   7.920 -0.2283  1.8630  0.9434
   42MOL0     H 5744   8.183   7.637   8.093  2.9667 -0.0742 -0.8861
   42MOL0     H 5745   8.303   7.414   8.199 -0.0066 -0.1965 -0.3815
   42MOL0     H 5746   8.511   7.265   8.228 -1.0607  0.1328 -0.2642
   42MOL0     H 5747   8.638   7.306   8.113  0.9695 -1.1486 -0.2508
   42MOL0     H 5748   8.560   7.104   7.986  1.0432  1.5446  0.3997
   42MOL0     H 5749   8.650   7.082   8.136 -0.9637  1.0419  1.5998
   42MOL0     H 5750   8.467   6.912   8.137  0.9500  0.8330 -2.2398
   42MOL0     H 5751   8.447   7.016   8.267 -1.5041 -0.2215 -0.8164
   42MOL0     H 5752   8.270   7.149   8.120  0.7143  0.7081 -0.1200
   42MOL0     H 5753   8.277   7.002   8.020 -2.6585 -0.3653  0.9255
   42MOL0     H 5754   8.063   7.171   8.043 -2.1639  1.5666  0.8747
   42MOL0     H 5755   7.756   7.243   7.993 -0.5889 -1.2832  1.3956
   42MOL0     H 5756   7.812   7.117   7.878 -0.2383  0.9082 -1.2958
   42MOL0     H 5757   7.910   7.256   7.931 -2.3350  0.2915 -3.6298
   42MOL0     H 5758   7.477   7.038   8.453 -1.1687 -0.6263  0.1718
   42MOL0     H 5759   7.229   7.072   8.504  3.4577  1.4153  1.0828
   42MOL0     H 5760   6.995   7.160   8.459 -2.4295  1.2826 -0.6648
   42MOL0     H 5761   6.861   7.070   8.417  0.5576  2.4583  1.2326
   42MOL0     H 5762   7.071   6.943   8.594  0.8306 -1.2184 -1.7288
   42MOL0     H 5763   6.915   7.029   8.633  1.7977  3.9354 -1.6224
   42MOL0     H 5764   6.970   6.760   8.489 -0.3580  0.3539 -1.8412
   42MOL0     H 5765   6.815   6.844   8.467 -0.2019 -0.4327  0.5330
   42MOL0     H 5766   6.778   6.860   8.721  3.7633  2.5207  1.9677
   42MOL0     H 5767   6.927   6.772   8.740 -0.5045 -1.6030  0.2378
   42MOL0     H 5768   6.831   6.580   8.599 -1.7845 -2.2014  2.5469
   42MOL0     H 5769   6.779   6.588   8.758 -3.1476 -0.4598  0.5998
   42MOL0     H 5770   6.620   6.726   8.537  0.8221  2.5222  1.7240
   42MOL0     H 5771   6.564   6.691   8.702  0.9436 -1.0536  0.3887
   42MOL0     H 5772   6.558   6.460   8.673 -2.0920 -1.7111 -0.3682
   42MOL0     H 5773   6.609   6.460   8.498 -1.1433 -2.1046  1.1363
   42MOL0     H 5774   6.416   6.607   8.452  0.5728  1.2066  0.8571
   42MOL0     H 5775   6.369   6.607   8.621  3.0148 -0.0244  1.2694
   42MOL0     H 5776   7.132   6.933   8.113 -0.2701  0.1322 -0.1987
   42MOL0     H 5777   7.370   6.886   8.073 -1.6739 -2.3964 -0.1213
   42MOL0     H 5778   7.804   6.850   8.304  0.4697  0.4375  0.6968
   42MOL0     H 5779   8.049   6.858   8.343  0.4520  0.6601 -0.4782
   42MOL0     H 5780   7.144   7.653   8.265 -1.3316  0.7264 -0.5679
   42MOL0     H 5781   6.909   7.605   8.348 -1.9272 -1.3748 -0.7421
   42MOL0     H 5782   6.626   7.329   8.511  1.0896  0.7471 -2.9818
   42MOL0     H 5783   6.442   7.335   8.650 -0.4000 -0.9944  0.7226
   42MOL0     H 5784   6.071   7.399   8.749 -0.8056 -0.7564 -0.7577
   42MOL0     H 5785   6.224   7.322   8.757  0.3287 -1.5581 -2.7131
   42MOL0     H 5786   6.170   7.619   8.720 -0.0432 -0.4475 -1.0257
   42MOL0     H 5787   6.332   7.559   8.712 -1.6790  1.7384 -2.8106
   42MOL0     H 5788   6.159   7.494   8.947 -0.4160 -0.7194 -1.1618
   42MOL0     H 5789   6.333   7.512   8.940  0.0445  2.5028  1.2908
   42MOL0     H 5790   6.219   7.676   9.066  0.1210 -0.3634 -0.8091
   42MOL0     H 5791   6.131   7.729   8.920  0.2888 -2.2956 -2.4329
   42MOL0     H 5792   6.527   7.867   8.843 -0.9447 -0.2174 -0.9597
   42MOL0     H 5793   6.203   7.468   8.323  1.1354 -1.3982 -3.4856
   42MOL0     H 5794   6.426   7.396   8.088 -0.2703  0.2503 -0.3872
   42MOL0     H 5795   6.279   7.490   8.116  0.4258 -1.2833  0.3623
   42MOL0     H 5796   6.429   7.575   8.133  0.3995 -0.1862 -0.0243
   43MOL0     O 5797   0.527   5.313   6.520  0.1525 -0.4958 -0.6428
   43MOL0     C 5798   0.542   5.405   6.439 -0.1570  0.7515 -0.1067
   43MOL0     O 5799   0.662   5.424   6.373  0.5488  0.9005  0.3814
   43MOL0     C 5800   0.766   5.344   6.406  0.5379 -0.5044  0.0012
   43MOL0     C 5801   0.827   5.282   6.296  0.0525 -0.8697  0.2583
   43MOL0     C 5802   0.934   5.203   6.311 -0.0881 -0.1828 -0.1395
   43MOL0     C 5803   1.001   5.171   6.425  0.1987 -0.1863  0.1808
   43MOL0     O 5804   1.122   5.109   6.449 -0.4539 -0.3368  0.7607
   43MOL0     C 5805   1.228   5.117   6.349 -0.5152  0.5103 -0.1868
   43MOL0     C 5806   1.351   5.052   6.410  0.8562  0.2870 -0.1076
   43MOL0     C 5807   1.479   5.060   6.341  0.4514  1.3528  0.0256
   43MOL0     C 5808   1.582   4.991   6.429 -0.2274  0.3164 -0.2684
   43MOL0     C 5809   1.715   4.972   6.356  0.6305  0.2579 -0.5479
   43MOL0     C 5810   1.822   4.932   6.456  0.0177  0.4934  0.2228
   43MOL0     C 5811   1.962   4.936   6.391  0.1943 -0.0456  0.1269
   43MOL0     C 5812   2.075   4.872   6.466 -0.2122 -0.5288 -0.7589
   43MOL0     N 5813   2.204   4.902   6.407 -0.6026  0.0022 -0.4325
   43MOL0     C 5814   2.300   4.986   6.464  0.5951 -0.4444 -0.1599
   43MOL0     C 5815   2.408   4.958   6.390  0.8658  0.4128 -0.2527
   43MOL0     C 5816   2.537   5.028   6.408  0.0050  0.5166 -0.1299
   43MOL0     C 5817   2.666   4.956   6.433  0.3924  0.1157  0.3631
   43MOL0     C 5818   2.727   4.909   6.307 -1.0687  1.0336  0.2475
   43MOL0     C 5819   2.871   4.837   6.341  1.4157 -0.5937  0.2225
   43MOL0     O 5820   2.851   4.718   6.417  0.0786  0.2094 -0.6719
   43MOL0     C 5821   2.960   4.645   6.425  0.0045  0.0525  0.5471
   43MOL0     C 5822   3.083   4.689   6.470  0.6774 -0.2867 -0.9267
   43MOL0     C 5823   3.200   4.618   6.478 -0.0235 -0.3690 -0.4339
   43MOL0     C 5824   3.324   4.698   6.522 -0.0590  0.8536  1.6936
   43MOL0     C 5825   3.196   4.488   6.433  0.2729  0.0386 -1.0677
   43MOL0     C 5826   3.312   4.397   6.415 -0.3055  0.7207 -0.6163
   43MOL0     O 5827   3.439   4.445   6.433 -0.7674 -0.3835  0.6129
   43MOL0     C 5828   3.541   4.356   6.434 -0.4768 -0.1270 -0.8677
   43MOL0     C 5829   3.610   4.324   6.317  0.3704  0.0224 -0.4732
   43MOL0     C 5830   3.724   4.242   6.319 -0.2583  0.6540 -0.2438
   43MOL0     C 5831   3.766   4.184   6.442  0.6739  0.2332  1.1242
   43MOL0     O 5832   3.870   4.103   6.470 -0.4564 -0.6697 -0.3457
   43MOL0     C 5833   3.942   4.059   6.357 -0.0953  0.0263  0.0616
   43MOL0     C 5834   4.055   4.154   6.324  0.6992 -0.2673  0.1884
   43MOL0     C 5835   4.102   4.160   6.184  0.0304 -0.9376 -0.5095
   43MOL0     C 5836   4.213   4.054   6.156 -0.5223 -0.1294 -0.2737
   43MOL0     C 5837   4.308   4.105   6.048 -0.2241 -0.5077  0.9383
   43MOL0     C 5838   4.399   3.983   6.000  0.7582 -0.6017 -0.4625
   43MOL0     C 5839   4.531   4.034   5.925  0.7601  0.7406 -0.9542
   43MOL0     C 5840   4.493   4.093   5.783 -0.2600  0.1409  0.8377
   43MOL0    Cl 5841   4.427   3.957   5.681  0.4058  0.5717  0.2977
   43MOL0     C 5842   3.693   4.209   6.561  0.0205 -0.2515  0.2890
   43MOL0     C 5843   3.591   4.307   6.558 -0.3014  0.5067  0.0217
   43MOL0     O 5844   3.289   4.280   6.386  0.0746 -0.5738 -0.3438
   43MOL0     C 5845   3.068   4.435   6.398 -0.0170  0.9031  0.8259
   43MOL0     C 5846   2.951   4.506   6.392 -0.0749 -0.8117 -0.6342
   43MOL0     N 5847   2.383   4.856   6.307 -0.6860 -0.2501  0.0113
   43MOL0     N 5848   2.263   4.820   6.319 -0.4938  0.8346  0.0394
   43MOL0     C 5849   0.960   5.246   6.532  0.2584 -0.1020  0.3905
   43MOL0     C 5850   0.841   5.325   6.525 -1.1026  0.3538 -0.2330
   43MOL0     C 5851   0.432   5.494   6.415  0.0546 -0.3099 -0.1414
   43MOL0     C 5852   0.473   5.630   6.421  0.0293 -0.4608  0.8629
   43MOL0     C 5853   0.367   5.726   6.405 -0.4447 -0.9692  0.2980
   43MOL0     C 5854   0.229   5.694   6.408  0.3856  0.5159 -0.3903
   43MOL0     O 5855   0.130   5.792   6.413 -0.1241 -0.4337 -0.1169
   43MOL0     C 5856   0.089   5.820   6.281 -0.1727  0.1981 -0.0314
   43MOL0     C 5857  -0.047   5.892   6.277  0.2953  0.4873 -0.3806
   43MOL0     C 5858  -0.167   5.799   6.320  0.0903 -0.3223 -0.0735
   43MOL0     C 5859  -0.269   5.881   6.394  0.1553  0.2553  0.0554
   43MOL0     C 5860  -0.359   5.787   6.454 -0.1499 -0.2613 -0.8407
   43MOL0     C 5861  -0.443   5.717   6.508 -0.9638 -0.1795 -0.0523
   43MOL0     C 5862   0.193   5.556   6.409 -0.3385  0.0866 -0.0391
   43MOL0     C 5863   0.296   5.461   6.413 -0.6847 -0.0358 -0.1068
   43MOL0     C 5864   0.246   5.315   6.403 -0.4810 -0.4538  0.3013
   43MOL0     H 5865   0.790   5.300   6.196  0.3399 -0.9504  0.1373
   43MOL0     H 5866   0.974   5.153   6.223  1.1839  0.4767  0.0447
   43MOL0     H 5867   1.242   5.225   6.335 -2.1953  1.1744  2.3901
   43MOL0     H 5868   1.199   5.071   6.254 -0.9955  2.2942 -0.9556
   43MOL0     H 5869   1.365   5.091   6.511 -1.0072 -2.9958  1.5473
   43MOL0     H 5870   1.318   4.949   6.424  0.7442  0.2284 -0.7779
   43MOL0     H 5871   1.469   5.007   6.246 -3.5203  0.6945  0.6392
   43MOL0     H 5872   1.512   5.162   6.317  0.5045  0.7255 -3.0018
   43MOL0     H 5873   1.594   5.064   6.510  1.4290 -2.2489  2.0061
   43MOL0     H 5874   1.548   4.899   6.479  0.0880  0.6094  0.5012
   43MOL0     H 5875   1.742   5.065   6.306  0.8581 -1.0028 -2.9218
   43MOL0     H 5876   1.715   4.889   6.284 -1.7313 -0.6417  0.3662
   43MOL0     H 5877   1.825   4.999   6.543 -3.0147 -1.3324  1.9149
   43MOL0     H 5878   1.789   4.832   6.485  1.3734  0.4081  1.6078
   43MOL0     H 5879   1.985   5.041   6.367  0.6988 -0.4727 -1.3205
   43MOL0     H 5880   1.952   4.889   6.293 -0.6216  0.4982 -0.0657
   43MOL0     H 5881   2.062   4.910   6.568 -2.7499  1.5072 -1.7250
   43MOL0     H 5882   2.060   4.764   6.476  1.1353 -0.5770  1.2902
   43MOL0     H 5883   2.282   5.053   6.547 -1.0099 -3.0573  1.7697
   43MOL0     H 5884   2.533   5.096   6.494  0.2292  1.7151 -1.0353
   43MOL0     H 5885   2.551   5.099   6.326  2.5461 -1.7861 -1.8343
   43MOL0     H 5886   2.731   5.033   6.476 -0.6145  2.3878 -1.9159
   43MOL0     H 5887   2.653   4.869   6.499  0.7282 -2.8595 -3.1897
   43MOL0     H 5888   2.662   4.842   6.250 -0.4695 -0.1767  0.9531
   43MOL0     H 5889   2.757   4.994   6.245 -0.9527  1.5161  0.9614
   43MOL0     H 5890   2.912   4.836   6.240 -4.9980  4.9844 -3.1837
   43MOL0     H 5891   2.928   4.911   6.398  2.4892  0.5357 -2.1795
   43MOL0     H 5892   3.094   4.796   6.487 -1.9952 -0.0400 -0.4053
   43MOL0     H 5893   3.401   4.694   6.444  1.6183 -2.2947  3.2956
   43MOL0     H 5894   3.376   4.631   6.590 -0.1656  0.8310  1.7539
   43MOL0     H 5895   3.305   4.794   6.571  2.6401  0.8904  2.8340
   43MOL0     H 5896   3.563   4.356   6.225  0.2787 -1.8062 -1.1095
   43MOL0     H 5897   3.775   4.215   6.227 -0.0236 -1.8087  0.5413
   43MOL0     H 5898   3.993   3.969   6.393 -3.4736 -1.1397  2.5590
   43MOL0     H 5899   3.871   4.029   6.279 -0.1533  0.6766 -0.1418
   43MOL0     H 5900   4.019   4.252   6.356  1.4571  0.1817 -0.3110
   43MOL0     H 5901   4.142   4.135   6.387  1.2777 -1.3020 -0.8816
   43MOL0     H 5902   4.149   4.259   6.187  0.3281 -1.0946  2.0691
   43MOL0     H 5903   4.015   4.167   6.118 -0.0749  0.0499 -0.2782
   43MOL0     H 5904   4.174   3.956   6.128  2.6340 -1.4222 -0.5777
   43MOL0     H 5905   4.275   4.036   6.245  2.5993  0.2929 -2.2249
   43MOL0     H 5906   4.245   4.146   5.969  1.9774 -0.9252 -1.1369
   43MOL0     H 5907   4.379   4.178   6.088 -0.0815 -0.4343  0.5491
   43MOL0     H 5908   4.335   3.920   5.937  1.5132 -2.9414  1.0060
   43MOL0     H 5909   4.428   3.915   6.080 -1.3371 -3.8051 -2.1678
   43MOL0     H 5910   4.601   3.950   5.917  0.0059  0.0979 -0.8859
   43MOL0     H 5911   4.576   4.118   5.979  0.2186  1.8272 -2.1440
   43MOL0     H 5912   4.587   4.119   5.733  0.0485 -0.0416  1.3193
   43MOL0     H 5913   4.429   4.182   5.788  0.6521  1.0686 -2.1298
   43MOL0     H 5914   3.709   4.173   6.662  1.9171  1.8263  0.8185
   43MOL0     H 5915   3.543   4.333   6.652  1.0953  3.0113  0.1411
   43MOL0     H 5916   3.050   4.331   6.371  0.1741  1.7909 -3.5427
   43MOL0     H 5917   2.855   4.465   6.365  0.5523 -1.5277 -1.8576
   43MOL0     H 5918   1.007   5.245   6.630 -0.4433  1.5499  0.7674
   43MOL0     H 5919   0.802   5.369   6.616  1.2256  1.3441  0.3311
   43MOL0     H 5920   0.580   5.646   6.417  0.3304 -2.1459  1.2857
   43MOL0     H 5921   0.395   5.829   6.390 -0.9094 -0.8356  0.3187
   43MOL0     H 5922   0.158   5.897   6.244  0.9582  0.6159  2.7031
   43MOL0     H 5923   0.089   5.733   6.216  0.4267  1.0193 -1.1658
   43MOL0     H 5924  -0.075   5.928   6.177  2.2584 -1.5497 -1.7470
   43MOL0     H 5925  -0.031   5.978   6.343  2.8828 -0.0405 -0.2478
   43MOL0     H 5926  -0.211   5.760   6.228 -1.9534  0.7530  0.3876
   43MOL0     H 5927  -0.134   5.712   6.378 -2.5916 -1.0825  0.4370
   43MOL0     H 5928  -0.316   5.955   6.329  0.2435  2.1049  1.9863
   43MOL0     H 5929  -0.227   5.945   6.471  1.0611  1.0116 -1.0249
   43MOL0     H 5930  -0.511   5.659   6.567 -2.6867  3.0022  1.3392
   43MOL0     H 5931   0.091   5.521   6.423 -0.1034 -0.0430  1.4479
   43MOL0     H 5932   0.142   5.311   6.370 -0.4652  3.2566 -0.6128
   43MOL0     H 5933   0.310   5.256   6.336 -1.1721  0.0168 -0.8030
   43MOL0     H 5934   0.241   5.267   6.501 -4.9198  0.7836  0.9023
   44MOL0     O 5935   6.653   1.272   1.511  0.5725  0.6241  0.8452
   44MOL0     C 5936   6.593   1.376   1.524  0.9332  0.4735 -0.9998
   44MOL0     O 5937   6.641   1.505   1.491  0.5318  0.1171  0.0675
   44MOL0     C 5938   6.747   1.508   1.399  1.2643 -1.4689  0.1157
   44MOL0     C 5939   6.864   1.570   1.435  0.2310 -0.8568  0.2492
   44MOL0     C 5940   6.958   1.587   1.343  0.3635 -0.2392 -0.3865
   44MOL0     C 5941   6.945   1.538   1.212 -1.3010  0.2683  0.5743
   44MOL0     O 5942   7.061   1.530   1.143  0.5885 -0.1227  0.3260
   44MOL0     C 5943   7.052   1.478   1.006  0.1301  0.0756 -0.6421
   44MOL0     C 5944   7.186   1.490   0.930  0.3481  0.2557 -0.9521
   44MOL0     C 5945   7.304   1.427   1.009 -0.2027  0.3466 -0.4426
   44MOL0     C 5946   7.353   1.291   0.961  0.1251  0.7104 -0.5657
   44MOL0     C 5947   7.424   1.288   0.828  0.4758  1.0824  0.0559
   44MOL0     C 5948   7.565   1.366   0.826  0.3781  0.1670 -0.0322
   44MOL0     C 5949   7.633   1.362   0.680  0.7076  0.6916 -0.0462
   44MOL0     C 5950   7.563   1.472   0.599 -0.6515 -0.0974 -0.3984
   44MOL0     N 5951   7.451   1.420   0.510  0.5267 -0.1957 -0.3172
   44MOL0     C 5952   7.395   1.490   0.405  0.2119 -0.5733  0.5705
   44MOL0     C 5953   7.313   1.401   0.337 -0.0850 -0.9430 -0.0360
   44MOL0     C 5954   7.235   1.430   0.217  0.0242 -0.2051 -0.0499
   44MOL0     C 5955   7.326   1.442   0.094 -0.4246  0.4305 -0.6674
   44MOL0     C 5956   7.382   1.584   0.078 -0.3666 -1.2320 -0.3480
   44MOL0     C 5957   7.492   1.605  -0.032 -0.5867 -0.7139 -0.5666
   44MOL0     O 5958   7.608   1.522  -0.032 -0.3779 -0.1079  0.5830
   44MOL0     C 5959   7.688   1.514   0.082  0.5146 -0.3844 -0.2608
   44MOL0     C 5960   7.784   1.412   0.091  0.2977 -0.8681  0.1786
   44MOL0     C 5961   7.882   1.396   0.191  0.3577  1.7032 -0.3641
   44MOL0     C 5962   7.976   1.288   0.190  0.6596  0.0211 -0.1580
   44MOL0     C 5963   7.881   1.491   0.293  0.2555 -0.2087  0.6534
   44MOL0     C 5964   7.980   1.505   0.403 -0.3839  0.4886  1.1133
   44MOL0     O 5965   8.109   1.502   0.359  0.0620  0.0625  0.3275
   44MOL0     C 5966   8.209   1.499   0.461  0.1730  0.6995 -0.2583
   44MOL0     C 5967   8.250   1.375   0.507 -0.2222 -0.4384  0.3702
   44MOL0     C 5968   8.361   1.368   0.585  0.4005 -0.1789 -0.0696
   44MOL0     C 5969   8.428   1.486   0.627 -1.3049 -0.4723 -0.3559
   44MOL0     O 5970   8.544   1.481   0.699 -0.3831 -0.4902  0.4762
   44MOL0     C 5971   8.615   1.360   0.720  0.3458  0.3677 -0.6795
   44MOL0     C 5972   8.748   1.389   0.786  0.1830 -0.1068 -0.3536
   44MOL0     C 5973   8.856   1.287   0.774 -0.4304  0.8662  0.4216
   44MOL0     C 5974   8.835   1.172   0.867 -0.3622 -0.4313  0.8056
   44MOL0     C 5975   8.954   1.085   0.891  0.1299  0.4074 -0.2066
   44MOL0     C 5976   9.049   1.122   1.003 -0.2745  0.1959 -0.2748
   44MOL0     C 5977   9.178   1.035   1.003  0.0661 -0.0779 -0.4431
   44MOL0     C 5978   9.140   0.889   0.988  0.4582  0.4434 -0.3074
   44MOL0    Cl 5979   9.265   0.785   1.030  0.2887 -0.3647 -0.2887
   44MOL0     C 5980   8.378   1.609   0.587 -0.5461 -0.8248  0.3443
   44MOL0     C 5981   8.277   1.613   0.500 -0.0789  1.2072  0.5849
   44MOL0     O 5982   7.944   1.517   0.523 -0.0873 -0.0720 -0.1035
   44MOL0     C 5983   7.792   1.612   0.282 -0.1538  0.2033 -0.2666
   44MOL0     C 5984   7.690   1.612   0.182  0.2829 -0.0070  0.3002
   44MOL0     N 5985   7.317   1.283   0.407  0.6037 -0.1924  0.0028
   44MOL0     N 5986   7.401   1.292   0.508  0.4256 -0.4086  0.8016
   44MOL0     C 5987   6.815   1.497   1.170 -0.0609  0.3458 -0.1448
   44MOL0     C 5988   6.718   1.473   1.267 -0.6341 -0.0449 -0.4777
   44MOL0     C 5989   6.458   1.386   1.595 -0.7036  0.6393 -0.9597
   44MOL0     C 5990   6.391   1.507   1.616 -0.0456  0.6890  0.0188
   44MOL0     C 5991   6.282   1.523   1.695  0.8675  0.0036 -0.0726
   44MOL0     C 5992   6.221   1.415   1.744  0.2221  0.0895 -0.1512
   44MOL0     O 5993   6.099   1.431   1.802 -0.7548 -0.4103  0.4393
   44MOL0     C 5994   6.042   1.332   1.886 -1.0053 -0.6960 -0.6996
   44MOL0     C 5995   5.910   1.383   1.941 -0.1689 -0.0012  1.3351
   44MOL0     C 5996   5.912   1.530   1.990 -0.5382 -0.3364 -0.3177
   44MOL0     C 5997   5.782   1.571   2.066  0.5020  1.3379 -0.2100
   44MOL0     C 5998   5.654   1.536   1.993 -0.5760 -0.9304 -0.6467
   44MOL0     C 5999   5.543   1.519   1.948  0.5178 -0.1900 -1.1635
   44MOL0     C 6000   6.272   1.287   1.715  0.5130 -0.3135  0.4381
   44MOL0     C 6001   6.397   1.267   1.648 -1.0159  0.2754 -0.1363
   44MOL0     C 6002   6.447   1.126   1.626  0.1006  0.0128 -0.6010
   44MOL0     H 6003   6.873   1.613   1.534 -0.7619  0.0510 -0.0342
   44MOL0     H 6004   7.053   1.631   1.374  0.4981 -0.3108 -0.6875
   44MOL0     H 6005   6.984   1.544   0.952  0.5043  1.2151  0.2439
   44MOL0     H 6006   7.021   1.374   1.012  0.5384 -0.1651 -2.2309
   44MOL0     H 6007   7.169   1.445   0.831 -2.2927 -2.1331  0.4507
   44MOL0     H 6008   7.204   1.597   0.917  1.0060 -0.0172 -2.6099
   44MOL0     H 6009   7.391   1.492   1.002  0.8583 -1.1360 -1.6396
   44MOL0     H 6010   7.274   1.415   1.114 -0.4065  0.2355 -0.5133
   44MOL0     H 6011   7.421   1.252   1.037 -0.7619 -0.8911 -0.5515
   44MOL0     H 6012   7.270   1.220   0.960  0.1562  0.6185  1.0748
   44MOL0     H 6013   7.347   1.328   0.761 -2.4446 -0.1649  2.4088
   44MOL0     H 6014   7.437   1.186   0.791 -0.9997  0.4956  1.0693
   44MOL0     H 6015   7.537   1.468   0.856 -2.1581 -0.3777 -0.2720
   44MOL0     H 6016   7.627   1.322   0.904  0.1885 -0.7969 -0.4088
   44MOL0     H 6017   7.626   1.263   0.635 -0.3649  0.8742 -0.3140
   44MOL0     H 6018   7.740   1.383   0.694  0.6730  0.3246  0.8591
   44MOL0     H 6019   7.533   1.560   0.657  1.8471  2.0702 -2.1303
   44MOL0     H 6020   7.638   1.501   0.525  2.1068  3.1478  3.2740
   44MOL0     H 6021   7.405   1.595   0.382 -0.8687 -0.6355 -0.2650
   44MOL0     H 6022   7.185   1.525   0.237 -1.2512 -0.9039  0.1787
   44MOL0     H 6023   7.164   1.348   0.202  0.4325 -0.4573 -0.6788
   44MOL0     H 6024   7.409   1.372   0.108  0.4845  1.3280 -1.4752
   44MOL0     H 6025   7.287   1.412  -0.003  1.4619 -0.8010 -1.1086
   44MOL0     H 6026   7.297   1.646   0.048 -0.7155 -1.0458  0.9541
   44MOL0     H 6027   7.407   1.624   0.177  0.1802 -2.1464 -0.1055
   44MOL0     H 6028   7.455   1.598  -0.135 -0.3783  1.1364 -0.8044
   44MOL0     H 6029   7.527   1.708  -0.020 -2.1710 -0.4025  1.9655
   44MOL0     H 6030   7.779   1.333   0.017 -1.3861 -1.5531  0.9658
   44MOL0     H 6031   8.066   1.297   0.252  2.4589 -1.2444 -2.4278
   44MOL0     H 6032   8.012   1.278   0.087  1.4729  3.9106 -0.3948
   44MOL0     H 6033   7.932   1.196   0.231  1.5403  0.3718  1.6398
   44MOL0     H 6034   8.195   1.292   0.465 -3.4283  1.6936 -0.0699
   44MOL0     H 6035   8.401   1.270   0.612  1.5089  0.4406  0.6042
   44MOL0     H 6036   8.556   1.298   0.789 -1.6307 -1.8173 -4.0741
   44MOL0     H 6037   8.621   1.306   0.625 -2.6608 -0.3665 -0.5590
   44MOL0     H 6038   8.790   1.469   0.725 -1.2723  0.1300 -1.0776
   44MOL0     H 6039   8.734   1.423   0.890 -3.6048  0.6619 -0.9562
   44MOL0     H 6040   8.951   1.331   0.803  0.6582  0.6563 -2.4695
   44MOL0     H 6041   8.864   1.249   0.672  1.9513  0.2555  0.7782
   44MOL0     H 6042   8.760   1.109   0.818  0.8727 -0.4318 -1.2261
   44MOL0     H 6043   8.799   1.206   0.964  0.8159 -3.9698  2.6687
   44MOL0     H 6044   8.913   0.985   0.906 -1.1640  0.3225 -3.4271
   44MOL0     H 6045   9.002   1.069   0.793 -3.8090 -2.0560 -1.9789
   44MOL0     H 6046   8.997   1.107   1.098 -0.6551 -1.3688 -0.7025
   44MOL0     H 6047   9.068   1.229   0.990 -3.9430  0.8781 -1.4893
   44MOL0     H 6048   9.247   1.046   1.087  1.1202 -0.2219 -1.2587
   44MOL0     H 6049   9.235   1.069   0.916  0.9790 -0.0427  0.1575
   44MOL0     H 6050   9.094   0.858   0.894 -1.7551 -2.0643  1.4543
   44MOL0     H 6051   9.065   0.861   1.063  2.1147 -1.6855  0.6860
   44MOL0     H 6052   8.430   1.698   0.621 -2.6218  0.6533 -0.1678
   44MOL0     H 6053   8.277   1.707   0.446  2.0631  0.5347 -0.7242
   44MOL0     H 6054   7.802   1.697   0.349  1.8275 -0.4193  0.2777
   44MOL0     H 6055   7.618   1.692   0.173  0.9599  0.4636 -1.3547
   44MOL0     H 6056   6.808   1.462   1.067  1.8664  2.6122 -1.1566
   44MOL0     H 6057   6.628   1.417   1.245 -1.1099 -0.6529  2.5248
   44MOL0     H 6058   6.437   1.605   1.601  1.0488  0.4416  1.5676
   44MOL0     H 6059   6.253   1.619   1.737 -0.4578 -1.2680  2.1193
   44MOL0     H 6060   6.022   1.242   1.826 -1.5333 -1.2808  0.3333
   44MOL0     H 6061   6.109   1.302   1.967 -1.2018 -0.8127 -0.5811
   44MOL0     H 6062   5.882   1.324   2.028  0.7818  1.6898  2.8584
   44MOL0     H 6063   5.833   1.376   1.863  1.5458  2.5810 -0.8226
   44MOL0     H 6064   5.986   1.534   2.071 -1.0517 -1.6252  0.2520
   44MOL0     H 6065   5.937   1.602   1.912 -1.5198 -0.2218 -0.5361
   44MOL0     H 6066   5.783   1.679   2.083 -0.9745  1.1016  1.6590
   44MOL0     H 6067   5.777   1.512   2.158 -2.7745  3.7417  1.3398
   44MOL0     H 6068   5.442   1.501   1.918 -0.0897  0.0729  0.6315
   44MOL0     H 6069   6.219   1.197   1.741 -1.0349  0.6440  0.6920
   44MOL0     H 6070   6.449   1.099   1.520 -0.7118  1.2005 -0.9412
   44MOL0     H 6071   6.543   1.100   1.671 -1.5394 -4.0973  0.9252
   44MOL0     H 6072   6.366   1.064   1.665  0.4143  0.3217  0.5728
   45MOL0     O 6073   6.096  11.139   3.381 -0.9722  0.3956  0.2448
   45MOL0     C 6074   6.077  11.256   3.369 -0.0117  0.1065  0.1582
   45MOL0     O 6075   5.951  11.311   3.354  0.4173  0.0546  0.1664
   45MOL0     C 6076   5.856  11.245   3.425  0.5116  0.1619  0.4883
   45MOL0     C 6077   5.745  11.189   3.367  0.3171  0.2132 -0.4018
   45MOL0     C 6078   5.654  11.123   3.445 -0.1902  0.6826  1.0854
   45MOL0     C 6079   5.667  11.128   3.586  0.1097 -0.0859 -0.9939
   45MOL0     O 6080   5.576  11.062   3.675  0.0917 -0.0344 -0.2264
   45MOL0     C 6081   5.449  11.028   3.632  0.2867 -0.5343 -0.0615
   45MOL0     C 6082   5.363  10.989   3.746  0.1498  1.5078 -0.9426
   45MOL0     C 6083   5.226  10.946   3.713 -0.7394  0.0645  0.2961
   45MOL0     C 6084   5.150  10.889   3.830 -0.4310  0.3436  0.2065
   45MOL0     C 6085   5.039  10.785   3.768 -0.4345 -0.5033  0.4306
   45MOL0     C 6086   4.947  10.733   3.879 -0.6397  0.3105 -0.4007
   45MOL0     C 6087   4.823  10.826   3.886 -0.6384  0.3824  0.0281
   45MOL0     C 6088   4.730  10.781   3.996  1.1259 -0.3114  0.0701
   45MOL0     N 6089   4.626  10.884   4.039  0.9093  0.3049  0.3004
   45MOL0     C 6090   4.508  10.922   3.960  0.2386 -0.2059 -0.2375
   45MOL0     C 6091   4.448  11.027   4.045  0.1954  0.4064  0.3629
   45MOL0     C 6092   4.325  11.113   4.021 -0.0943 -0.1281  0.7481
   45MOL0     C 6093   4.207  11.034   3.964  0.2031 -0.5978 -0.0866
   45MOL0     C 6094   4.123  11.103   3.859 -0.7024  0.3135 -0.2430
   45MOL0     C 6095   4.074  11.244   3.897  0.1241 -0.3165 -0.3148
   45MOL0     O 6096   3.978  11.244   4.008  0.1911 -0.3068 -0.0236
   45MOL0     C 6097   3.854  11.175   3.992  0.1309 -0.5315 -0.0746
   45MOL0     C 6098   3.808  11.119   3.877  0.2813 -0.0178  0.3552
   45MOL0     C 6099   3.690  11.049   3.867  0.1955 -0.0720 -0.4350
   45MOL0     C 6100   3.645  11.001   3.733  0.4937 -0.1723 -0.4489
   45MOL0     C 6101   3.605  11.041   3.987  0.1058 -0.2946 -0.4380
   45MOL0     C 6102   3.475  10.965   4.000  0.5352 -0.4989  0.5812
   45MOL0     O 6103   3.372  11.013   4.081 -0.2871  0.5458  0.3094
   45MOL0     C 6104   3.248  10.952   4.084  0.5100  1.4838  0.1800
   45MOL0     C 6105   3.190  10.900   3.964 -1.1512  0.5078  0.0276
   45MOL0     C 6106   3.066  10.854   3.961 -0.9189 -0.4175 -0.4539
   45MOL0     C 6107   2.989  10.860   4.073  0.2740  0.1706 -0.8142
   45MOL0     O 6108   2.866  10.803   4.065 -0.0983 -0.3278  0.2853
   45MOL0     C 6109   2.768  10.833   4.170  0.0459  0.0017  0.3316
   45MOL0     C 6110   2.640  10.744   4.148  0.1997 -0.4756 -0.3977
   45MOL0     C 6111   2.658  10.596   4.138 -0.4983 -0.3275  0.5868
   45MOL0     C 6112   2.676  10.534   4.279  0.7189  0.2570  0.1052
   45MOL0     C 6113   2.699  10.385   4.277 -0.5716 -1.1717  0.2395
   45MOL0     C 6114   2.582  10.313   4.223 -0.1525  0.8933 -0.0496
   45MOL0     C 6115   2.595  10.151   4.246 -0.0265 -0.2543 -0.4758
   45MOL0     C 6116   2.514  10.095   4.358  0.3650 -0.2646 -0.4247
   45MOL0    Cl 6117   2.555  10.177   4.521 -0.0864 -0.0048 -0.0681
   45MOL0     C 6118   3.045  10.908   4.193 -1.2177 -0.0767 -0.8432
   45MOL0     C 6119   3.174  10.957   4.196 -0.3167  0.2564 -0.9743
   45MOL0     O 6120   3.471  10.869   3.920 -0.8914  0.1258 -0.0758
   45MOL0     C 6121   3.645  11.122   4.096 -0.2207 -0.6797  0.0066
   45MOL0     C 6122   3.769  11.183   4.099  0.2912  0.2442  1.0352
   45MOL0     N 6123   4.535  11.042   4.150  0.4128 -0.1170  0.1126
   45MOL0     N 6124   4.631  10.949   4.153  0.0114 -0.2344 -0.0358
   45MOL0     C 6125   5.780  11.181   3.651 -0.2369 -0.3133  0.2116
   45MOL0     C 6126   5.873  11.243   3.570 -0.3894 -0.6542 -0.4175
   45MOL0     C 6127   6.199  11.355   3.356  1.3431  0.4563 -1.3680
   45MOL0     C 6128   6.176  11.485   3.298  0.0012 -1.1811  0.2242
   45MOL0     C 6129   6.288  11.565   3.277 -0.5306 -0.8433  0.4694
   45MOL0     C 6130   6.411  11.535   3.325 -0.9145  1.2215 -0.5097
   45MOL0     O 6131   6.536  11.588   3.307 -0.2479 -0.5639  0.8083
   45MOL0     C 6132   6.554  11.693   3.211  0.5262 -0.4593  0.6453
   45MOL0     C 6133   6.567  11.824   3.294 -0.2679  0.0622 -0.6643
   45MOL0     C 6134   6.689  11.816   3.387 -0.7104  0.2410 -0.2123
   45MOL0     C 6135   6.768  11.948   3.385  0.0031  0.1171 -0.9431
   45MOL0     C 6136   6.688  12.063   3.434  0.3828  0.8154 -0.5910
   45MOL0     C 6137   6.623  12.165   3.443  0.4650 -0.5733  0.3932
   45MOL0     C 6138   6.422  11.417   3.393 -1.0101 -0.3736 -0.1004
   45MOL0     C 6139   6.321  11.326   3.412  0.2091 -0.2535 -0.8315
   45MOL0     C 6140   6.351  11.211   3.497  0.2877  0.3700 -0.1252
   45MOL0     H 6141   5.744  11.192   3.258 -4.1542  1.9571 -0.5064
   45MOL0     H 6142   5.575  11.080   3.385  2.7737 -3.3123 -0.3980
   45MOL0     H 6143   5.460  10.946   3.560  0.5228  0.4068 -1.1292
   45MOL0     H 6144   5.404  11.110   3.575 -0.4885 -1.1649 -0.3820
   45MOL0     H 6145   5.410  10.905   3.797  0.6927  2.9743  1.1109
   45MOL0     H 6146   5.354  11.070   3.819  1.5945 -0.8364  2.0313
   45MOL0     H 6147   5.168  11.028   3.669  0.2670  0.3336 -0.5680
   45MOL0     H 6148   5.235  10.872   3.633 -0.0844 -0.5748  0.9593
   45MOL0     H 6149   5.219  10.845   3.903 -0.1369  0.2003 -0.1557
   45MOL0     H 6150   5.090  10.969   3.874 -0.1168  1.7624 -1.8689
   45MOL0     H 6151   5.089  10.701   3.719 -3.4282 -2.4164  0.3554
   45MOL0     H 6152   4.987  10.838   3.687 -0.6694  0.3868  1.1585
   45MOL0     H 6153   4.904  10.634   3.862 -0.8551  0.1177  1.1375
   45MOL0     H 6154   4.995  10.732   3.977 -0.1222 -2.3753 -0.6104
   45MOL0     H 6155   4.771  10.814   3.790 -1.8303  0.3351  0.6585
   45MOL0     H 6156   4.857  10.929   3.901 -0.1242  0.3812 -1.0102
   45MOL0     H 6157   4.685  10.690   3.955  0.0592  0.2682 -0.0856
   45MOL0     H 6158   4.792  10.753   4.082  1.0504  0.4138  0.3703
   45MOL0     H 6159   4.472  10.872   3.871 -1.3431  0.2698  0.1041
   45MOL0     H 6160   4.361  11.185   3.947 -0.8332 -0.7656 -0.2644
   45MOL0     H 6161   4.293  11.160   4.114  0.3729  0.2402  0.7270
   45MOL0     H 6162   4.234  10.937   3.922 -2.4571 -0.6015 -2.0264
   45MOL0     H 6163   4.143  11.018   4.051  2.3477  0.9183  1.8932
   45MOL0     H 6164   4.179  11.103   3.765  3.3074 -0.7266  1.9270
   45MOL0     H 6165   4.036  11.041   3.837 -1.4142  1.8199 -2.0028
   45MOL0     H 6166   4.151  11.320   3.911 -2.3661  2.1823  0.9465
   45MOL0     H 6167   4.022  11.298   3.817 -1.9891  1.1936  1.9087
   45MOL0     H 6168   3.876  11.124   3.792  0.6210 -0.2732  0.6042
   45MOL0     H 6169   3.690  11.064   3.656 -3.1782  2.6684 -0.5769
   45MOL0     H 6170   3.537  11.009   3.719 -0.8838 -4.1860  4.5988
   45MOL0     H 6171   3.669  10.895   3.721 -1.2091 -0.7510  0.8351
   45MOL0     H 6172   3.249  10.905   3.873  0.9012  2.4233  1.3745
   45MOL0     H 6173   3.021  10.822   3.868 -0.4207  1.9100 -1.5663
   45MOL0     H 6174   2.798  10.800   4.270 -0.4746  0.2109  0.5632
   45MOL0     H 6175   2.748  10.940   4.173  0.9219  0.1761  0.1068
   45MOL0     H 6176   2.573  10.764   4.232  0.0077  2.4461 -1.1154
   45MOL0     H 6177   2.584  10.781   4.061 -2.3278 -1.5879  0.6464
   45MOL0     H 6178   2.749  10.585   4.078 -1.6127  0.2419 -1.2996
   45MOL0     H 6179   2.578  10.565   4.070  1.1599  1.0706 -2.1923
   45MOL0     H 6180   2.585  10.563   4.333  0.2535 -1.4232  0.3015
   45MOL0     H 6181   2.758  10.582   4.333  0.9997 -2.7512  2.6291
   45MOL0     H 6182   2.792  10.363   4.223  0.7435  0.1187  1.8674
   45MOL0     H 6183   2.710  10.359   4.383  0.5738 -1.1937  0.1244
   45MOL0     H 6184   2.571  10.325   4.115 -0.4023  1.1955  0.0075
   45MOL0     H 6185   2.495  10.342   4.283  0.6728  2.3192  0.5126
   45MOL0     H 6186   2.697  10.113   4.252 -0.0281 -0.9909 -3.3679
   45MOL0     H 6187   2.561  10.103   4.154 -1.6388  2.2370 -1.2980
   45MOL0     H 6188   2.528   9.987   4.370  1.0202 -0.0546  0.9970
   45MOL0     H 6189   2.409  10.122   4.346 -0.0203 -1.0489  0.9691
   45MOL0     H 6190   3.009  10.916   4.295  1.3291 -0.2442  0.1278
   45MOL0     H 6191   3.223  11.012   4.275  0.4868 -0.9068 -0.6358
   45MOL0     H 6192   3.580  11.118   4.183  1.2612 -0.3417  1.1686
   45MOL0     H 6193   3.804  11.245   4.181  3.8195  0.3930 -0.4025
   45MOL0     H 6194   5.797  11.179   3.758  1.4960  2.3883  0.0775
   45MOL0     H 6195   5.953  11.306   3.608  0.2156 -1.0231 -1.0668
   45MOL0     H 6196   6.082  11.530   3.267  0.6319 -0.4744 -0.7195
   45MOL0     H 6197   6.278  11.658   3.221 -0.2048 -0.2493  1.3646
   45MOL0     H 6198   6.634  11.684   3.137  1.2306  2.7383  0.8574
   45MOL0     H 6199   6.465  11.711   3.149  0.8705  4.2672  1.1060
   45MOL0     H 6200   6.481  11.834   3.361  1.6284  3.2576  1.5964
   45MOL0     H 6201   6.574  11.911   3.228  1.8110 -1.0399 -2.0090
   45MOL0     H 6202   6.655  11.797   3.489  1.1510  2.9742  1.0531
   45MOL0     H 6203   6.753  11.731   3.359 -0.9376  0.6371 -2.0774
   45MOL0     H 6204   6.784  11.978   3.281  4.5319  0.6546 -0.2649
   45MOL0     H 6205   6.866  11.947   3.433 -0.3809  0.2034 -0.1483
   45MOL0     H 6206   6.562  12.253   3.453  2.0451  0.4938  1.0191
   45MOL0     H 6207   6.518  11.393   3.439 -0.8098  0.8843  0.1782
   45MOL0     H 6208   6.287  11.197   3.585  0.6425 -3.7430 -0.3032
   45MOL0     H 6209   6.343  11.122   3.434  2.1829  1.5127 -2.1100
   45MOL0     H 6210   6.458  11.204   3.517  0.7785  1.4330 -2.1246
   46MOL0     O 6211   8.410   7.019   8.893 -0.1316 -0.7973  0.3190
   46MOL0     C 6212   8.457   7.122   8.838  0.2358  0.1659 -0.5984
   46MOL0     O 6213   8.581   7.178   8.870  0.6894  0.3554 -0.0303
   46MOL0     C 6214   8.642   7.159   8.993 -0.6886  0.0653  0.1918
   46MOL0     C 6215   8.569   7.151   9.118 -0.2294  0.5803  0.4047
   46MOL0     C 6216   8.631   7.134   9.243  0.5230  0.3620 -0.0381
   46MOL0     C 6217   8.769   7.135   9.242  0.3812 -0.8264  0.0112
   46MOL0     O 6218   8.821   7.096   9.359 -0.3147  0.8931 -0.1282
   46MOL0     C 6219   8.965   7.106   9.385 -0.3913  0.6493  0.1757
   46MOL0     C 6220   8.998   7.251   9.403 -0.2338 -0.0167 -0.2792
   46MOL0     C 6221   9.144   7.278   9.461 -0.1467  0.4451  0.1577
   46MOL0     C 6222   9.196   7.418   9.416  0.0713  0.2356 -0.9833
   46MOL0     C 6223   9.324   7.454   9.493  0.2165  0.4528  0.6892
   46MOL0     C 6224   9.375   7.587   9.467 -0.6785  0.7749  0.9791
   46MOL0     C 6225   9.272   7.695   9.438 -0.4878 -0.0202  0.0532
   46MOL0     C 6226   9.337   7.827   9.401  0.2696  0.7130 -0.4680
   46MOL0     N 6227   9.419   7.821   9.283 -0.5670 -0.3523 -0.3310
   46MOL0     C 6228   9.541   7.768   9.281 -0.4854  0.1715 -0.7437
   46MOL0     C 6229   9.575   7.775   9.150 -0.9480 -0.1621  0.9533
   46MOL0     C 6230   9.700   7.727   9.079  0.5862 -0.3227  0.2018
   46MOL0     C 6231   9.716   7.582   9.049 -0.0237 -0.1507 -0.3783
   46MOL0     C 6232   9.830   7.559   8.938 -0.5018 -0.9430  0.0421
   46MOL0     C 6233   9.971   7.592   8.984  0.9272 -0.0169 -0.1396
   46MOL0     O 6234   9.997   7.521   9.108  0.5521 -0.1834 -0.7814
   46MOL0     C 6235  10.126   7.489   9.123 -0.0211 -0.6411  0.3582
   46MOL0     C 6236  10.162   7.376   9.201  0.8026 -0.2807 -0.0187
   46MOL0     C 6237  10.289   7.343   9.239 -0.2594 -0.0722  1.1462
   46MOL0     C 6238  10.303   7.217   9.324  0.9364 -0.3241  1.1383
   46MOL0     C 6239  10.393   7.411   9.175 -0.9069 -0.2353 -0.9253
   46MOL0     C 6240  10.540   7.381   9.196  0.7368  0.4499 -0.0681
   46MOL0     O 6241  10.630   7.480   9.156  0.3474 -0.5163  0.7396
   46MOL0     C 6242  10.745   7.450   9.083 -0.7092 -1.1032 -0.0530
   46MOL0     C 6243  10.823   7.552   9.033 -0.3042  0.3543 -0.9361
   46MOL0     C 6244  10.955   7.537   8.987 -0.2548 -0.2137  0.2878
   46MOL0     C 6245  11.000   7.414   8.958  0.5162 -0.1502  0.5112
   46MOL0     O 6246  11.124   7.404   8.905  0.2380  0.1273  0.4911
   46MOL0     C 6247  11.213   7.313   8.963  0.5561 -0.8351  0.2111
   46MOL0     C 6248  11.339   7.348   8.895  0.0106  0.2042  0.1389
   46MOL0     C 6249  11.471   7.305   8.969  1.2025  0.2809 -0.2110
   46MOL0     C 6250  11.495   7.414   9.077  0.3593 -0.1113  0.0801
   46MOL0     C 6251  11.582   7.380   9.191 -0.0227  0.3964 -0.9734
   46MOL0     C 6252  11.544   7.251   9.259 -0.0152  0.5343 -0.9535
   46MOL0     C 6253  11.607   7.246   9.394 -0.1037  0.4631 -0.7716
   46MOL0     C 6254  11.578   7.124   9.477 -0.8938  0.8147 -0.5259
   46MOL0    Cl 6255  11.399   7.103   9.516 -0.0837  0.0474  0.0547
   46MOL0     C 6256  10.920   7.306   8.977 -0.1139  0.6004 -1.2127
   46MOL0     C 6257  10.791   7.319   9.041  0.3631  0.7128  0.5194
   46MOL0     O 6258  10.572   7.264   9.229  0.4772  0.7122 -0.2087
   46MOL0     C 6259  10.357   7.522   9.094 -0.3257 -0.4444  0.3703
   46MOL0     C 6260  10.231   7.563   9.073 -0.1300  0.4903  0.3790
   46MOL0     N 6261   9.471   7.824   9.074 -0.0748 -0.3580 -0.6943
   46MOL0     N 6262   9.374   7.844   9.157 -0.1196 -0.7636  0.5503
   46MOL0     C 6263   8.845   7.158   9.123  0.6021  0.2899 -0.2938
   46MOL0     C 6264   8.776   7.177   9.004 -0.3055  0.0253 -0.3760
   46MOL0     C 6265   8.379   7.197   8.734 -0.8280 -0.2370  0.0418
   46MOL0     C 6266   8.417   7.331   8.699  0.1839  1.2379  0.5480
   46MOL0     C 6267   8.346   7.399   8.591  0.1924  1.0265  0.7242
   46MOL0     C 6268   8.247   7.349   8.516 -0.7614  0.8203  0.0631
   46MOL0     O 6269   8.193   7.424   8.412  0.8767 -0.5773  0.1530
   46MOL0     C 6270   8.080   7.372   8.337 -0.3782  0.1483  1.3075
   46MOL0     C 6271   7.942   7.371   8.409  0.1479 -0.5676  0.1419
   46MOL0     C 6272   7.850   7.264   8.369  0.5036  0.3608  0.4472
   46MOL0     C 6273   7.720   7.254   8.453 -0.3266  0.7685  0.0629
   46MOL0     C 6274   7.739   7.205   8.585  0.3504 -1.1698 -0.5267
   46MOL0     C 6275   7.748   7.186   8.704  0.1322  0.2718 -0.4087
   46MOL0     C 6276   8.215   7.208   8.544  0.0282  0.4639  0.7752
   46MOL0     C 6277   8.273   7.137   8.655 -0.3797 -0.4507 -0.2558
   46MOL0     C 6278   8.205   7.001   8.686  0.0102 -0.0101  0.0648
   46MOL0     H 6279   8.462   7.139   9.105 -0.1932  0.9619 -0.3536
   46MOL0     H 6280   8.583   7.103   9.335  1.3813 -1.6403 -0.2203
   46MOL0     H 6281   9.018   7.058   9.303 -4.1209 -1.9126 -1.0260
   46MOL0     H 6282   8.971   7.043   9.475  0.8633 -0.7510 -0.8496
   46MOL0     H 6283   8.987   7.301   9.306  0.8086  1.4552  0.3395
   46MOL0     H 6284   8.918   7.295   9.464 -0.8756  2.6153 -2.8211
   46MOL0     H 6285   9.142   7.272   9.570  0.4350  0.0112  0.1512
   46MOL0     H 6286   9.203   7.199   9.412  0.7975  0.5067  1.1839
   46MOL0     H 6287   9.209   7.420   9.308 -3.2010 -1.5445 -1.5423
   46MOL0     H 6288   9.116   7.484   9.450 -1.3935 -1.3281 -1.2157
   46MOL0     H 6289   9.402   7.379   9.475  0.0264  0.8015 -1.8873
   46MOL0     H 6290   9.298   7.445   9.599  1.9083  0.8691  1.1668
   46MOL0     H 6291   9.428   7.614   9.559 -1.6779 -2.0431  2.5383
   46MOL0     H 6292   9.456   7.588   9.394  0.4719  0.1106  2.2083
   46MOL0     H 6293   9.199   7.700   9.520  0.0604  0.5031  0.5185
   46MOL0     H 6294   9.224   7.670   9.343  0.7257 -1.4742 -0.2175
   46MOL0     H 6295   9.262   7.905   9.383 -0.8238  0.0194  0.8805
   46MOL0     H 6296   9.393   7.861   9.489 -3.0174  3.5563  0.7685
   46MOL0     H 6297   9.591   7.724   9.366 -0.5303  1.3696 -0.0885
   46MOL0     H 6298   9.792   7.757   9.130  2.0492 -5.4616  1.1198
   46MOL0     H 6299   9.690   7.779   8.983 -3.3208  0.9937  1.1238
   46MOL0     H 6300   9.743   7.535   9.144  0.1751  0.9775  0.1345
   46MOL0     H 6301   9.627   7.528   9.016 -0.1405 -2.2659  2.9087
   46MOL0     H 6302   9.821   7.459   8.894 -0.1916 -1.6895  1.5931
   46MOL0     H 6303   9.807   7.628   8.856 -0.6433 -1.2055 -0.1410
   46MOL0     H 6304  10.027   7.551   8.900 -0.2335  0.7824 -1.3248
   46MOL0     H 6305   9.965   7.701   8.993  1.0989  0.4949 -4.2636
   46MOL0     H 6306  10.080   7.317   9.240  2.1860 -0.5321  2.7195
   46MOL0     H 6307  10.204   7.190   9.360  1.9021 -0.2529  4.0591
   46MOL0     H 6308  10.372   7.236   9.407  0.0537  3.9375  1.1258
   46MOL0     H 6309  10.346   7.129   9.274 -0.5372 -1.2919  1.5234
   46MOL0     H 6310  10.789   7.655   9.036  0.7966  0.7554 -1.6576
   46MOL0     H 6311  11.008   7.628   8.962 -2.5609  0.4751 -2.6224
   46MOL0     H 6312  11.222   7.328   9.071 -2.5591  0.8382  0.3238
   46MOL0     H 6313  11.184   7.208   8.947  0.3190 -0.9294  1.2008
   46MOL0     H 6314  11.350   7.293   8.802 -0.6358 -2.2937  1.4468
   46MOL0     H 6315  11.338   7.456   8.876 -0.4057 -0.0564 -1.4002
   46MOL0     H 6316  11.553   7.298   8.897 -0.2261 -0.6451 -1.8078
   46MOL0     H 6317  11.458   7.210   9.021  0.5281  1.7820  2.5470
   46MOL0     H 6318  11.402   7.445   9.126 -0.1230  2.1198 -2.0171
   46MOL0     H 6319  11.542   7.493   9.018  3.9914 -3.1619 -1.4957
   46MOL0     H 6320  11.686   7.366   9.160 -0.1760 -0.4656 -1.1187
   46MOL0     H 6321  11.586   7.461   9.263 -0.2746 -0.2725 -0.1947
   46MOL0     H 6322  11.589   7.163   9.212  0.0839  0.3044 -0.4310
   46MOL0     H 6323  11.435   7.240   9.264  0.2548 -2.8035  0.0583
   46MOL0     H 6324  11.596   7.337   9.454  1.5442 -0.0390  0.3765
   46MOL0     H 6325  11.714   7.242   9.372  0.3257 -2.2578  1.2011
   46MOL0     H 6326  11.636   7.145   9.567 -3.3450 -0.1420  1.3881
   46MOL0     H 6327  11.620   7.031   9.437  2.9384  2.2513 -0.2475
   46MOL0     H 6328  10.971   7.216   8.943  5.3857  1.5528  3.0800
   46MOL0     H 6329  10.732   7.229   9.059  1.8538 -1.0039 -2.2928
   46MOL0     H 6330  10.430   7.590   9.052 -2.1656  0.0274 -2.3201
   46MOL0     H 6331  10.214   7.660   9.027 -0.9970  0.5132  0.7326
   46MOL0     H 6332   8.952   7.154   9.107  0.1234  0.4003 -5.1202
   46MOL0     H 6333   8.830   7.193   8.911 -1.9128  1.9433 -1.0283
   46MOL0     H 6334   8.496   7.388   8.745  0.8061 -0.5268  1.7507
   46MOL0     H 6335   8.365   7.505   8.580 -1.0068  1.4051  1.9394
   46MOL0     H 6336   8.071   7.420   8.239  3.1933 -2.7026 -0.6680
   46MOL0     H 6337   8.099   7.270   8.304  0.6660  0.4486  0.9628
   46MOL0     H 6338   7.892   7.467   8.397 -1.2513 -1.4102 -1.2572
   46MOL0     H 6339   7.955   7.363   8.517 -1.0796  1.2355  0.4611
   46MOL0     H 6340   7.825   7.269   8.263 -1.4619  2.3309  0.9221
   46MOL0     H 6341   7.898   7.169   8.394 -0.3155 -0.5304 -1.2089
   46MOL0     H 6342   7.656   7.179   8.404 -1.2001  1.7207 -0.2908
   46MOL0     H 6343   7.662   7.347   8.453 -1.4572  0.1252  2.0374
   46MOL0     H 6344   7.740   7.165   8.809 -0.6953  1.6090 -0.1760
   46MOL0     H 6345   8.139   7.159   8.484  0.7325  0.7510 -0.3792
   46MOL0     H 6346   8.137   7.007   8.771 -0.2098 -1.4172  0.0097
   46MOL0     H 6347   8.153   6.964   8.597 -0.8413  2.0060 -0.3253
   46MOL0     H 6348   8.270   6.920   8.721 -0.6821 -0.3811  0.4982
   47MOL0     O 6349   0.336   6.662   4.668 -0.4445  0.1656 -0.7606
   47MOL0     C 6350   0.378   6.553   4.642  0.2192  0.4689 -0.8312
   47MOL0     O 6351   0.321   6.453   4.563  0.8954 -0.1331 -0.6744
   47MOL0     C 6352   0.208   6.492   4.487  0.1102  0.1454 -0.1178
   47MOL0     C 6353   0.117   6.386   4.474  0.7586  0.3920 -0.2082
   47MOL0     C 6354  -0.008   6.402   4.404 -0.2373  0.4428  0.3993
   47MOL0     C 6355  -0.047   6.519   4.357 -0.5296 -0.9852 -0.1031
   47MOL0     O 6356  -0.163   6.533   4.290 -0.7145 -0.4147  0.4746
   47MOL0     C 6357  -0.182   6.445   4.177  0.4347  0.2544  0.1072
   47MOL0     C 6358  -0.325   6.425   4.161 -1.0248 -0.1525 -0.1843
   47MOL0     C 6359  -0.377   6.322   4.261  0.5630  0.3571  0.1145
   47MOL0     C 6360  -0.520   6.262   4.247  0.3377  0.9187 -0.3337
   47MOL0     C 6361  -0.560   6.170   4.367 -0.0123 -0.8032 -0.6181
   47MOL0     C 6362  -0.708   6.136   4.344  0.0693  0.9893 -0.1750
   47MOL0     C 6363  -0.774   6.074   4.465  0.8779  0.4101 -0.4266
   47MOL0     C 6364  -0.815   6.173   4.576 -0.1973  0.8598  0.3067
   47MOL0     N 6365  -0.923   6.266   4.546 -0.9899  0.9648  0.0002
   47MOL0     C 6366  -0.927   6.390   4.601  0.2668 -0.0106 -0.0659
   47MOL0     C 6367  -1.049   6.442   4.546 -1.4192  1.5020 -0.0353
   47MOL0     C 6368  -1.104   6.572   4.572 -0.1833  0.1054 -0.2273
   47MOL0     C 6369  -1.026   6.684   4.497  0.7174 -0.0391  0.0267
   47MOL0     C 6370  -0.885   6.715   4.553 -0.3848  0.1051  0.2263
   47MOL0     C 6371  -0.887   6.786   4.690 -0.7036 -1.0636  0.1796
   47MOL0     O 6372  -0.895   6.691   4.796  0.3963 -0.9888  0.5939
   47MOL0     C 6373  -0.784   6.627   4.844  0.3434 -0.3838 -0.2541
   47MOL0     C 6374  -0.793   6.580   4.978 -0.2746  0.0145  0.2449
   47MOL0     C 6375  -0.689   6.528   5.049  0.2073 -0.0658  0.8283
   47MOL0     C 6376  -0.709   6.472   5.192  0.5770  0.3763  0.2570
   47MOL0     C 6377  -0.559   6.527   4.990 -0.4091  0.2771 -0.8894
   47MOL0     C 6378  -0.433   6.505   5.058 -0.7889 -0.1524 -0.2032
   47MOL0     O 6379  -0.412   6.568   5.179  0.3350 -0.1135  0.7144
   47MOL0     C 6380  -0.284   6.563   5.236 -0.8550 -0.2690  0.3888
   47MOL0     C 6381  -0.168   6.609   5.168  0.5251  0.4219 -0.1120
   47MOL0     C 6382  -0.051   6.587   5.228 -0.5133  0.0612  0.3421
   47MOL0     C 6383  -0.030   6.520   5.357  0.2071 -0.9775  0.1140
   47MOL0     O 6384   0.086   6.501   5.421 -0.3523  0.4941 -0.0354
   47MOL0     C 6385   0.202   6.540   5.352  0.1221  0.0287 -0.6149
   47MOL0     C 6386   0.315   6.572   5.449 -0.9048 -0.2443 -0.6355
   47MOL0     C 6387   0.289   6.689   5.540  0.5367  0.2150 -0.2912
   47MOL0     C 6388   0.182   6.659   5.649  0.4572 -0.6961  0.2529
   47MOL0     C 6389   0.234   6.736   5.771 -0.3514  0.2294  0.3795
   47MOL0     C 6390   0.143   6.710   5.894 -0.2451  0.6436  0.7044
   47MOL0     C 6391   0.195   6.770   6.026 -0.3673  0.1902 -0.2677
   47MOL0     C 6392   0.107   6.712   6.141  0.7263  0.1627 -0.0041
   47MOL0    Cl 6393  -0.055   6.799   6.145  0.0270  0.3350 -0.4687
   47MOL0     C 6394  -0.149   6.482   5.415  0.4105  0.0629 -0.1263
   47MOL0     C 6395  -0.276   6.505   5.362  1.2500 -0.1190  0.0405
   47MOL0     O 6396  -0.352   6.425   5.009  0.5485 -0.1173 -0.4340
   47MOL0     C 6397  -0.552   6.562   4.851  0.6296  0.4469 -0.1933
   47MOL0     C 6398  -0.662   6.614   4.778  0.4553 -0.1040 -0.9332
   47MOL0     N 6399  -1.093   6.348   4.449 -0.3277  0.2791 -0.0571
   47MOL0     N 6400  -1.020   6.251   4.449 -0.2253 -0.0201 -0.3739
   47MOL0     C 6401   0.044   6.627   4.371 -0.1281 -0.0322  0.0130
   47MOL0     C 6402   0.167   6.612   4.435  0.2154 -0.0356 -0.6830
   47MOL0     C 6403   0.506   6.509   4.700 -0.5773  0.0349 -0.5407
   47MOL0     C 6404   0.503   6.393   4.777  0.9876  0.5531 -0.3715
   47MOL0     C 6405   0.618   6.341   4.833  1.1838  0.6706  0.0147
   47MOL0     C 6406   0.730   6.433   4.838 -0.2282 -0.2627 -0.5577
   47MOL0     O 6407   0.822   6.385   4.927  0.0256  0.4562 -0.2596
   47MOL0     C 6408   0.944   6.459   4.949 -0.7369 -0.3992 -0.7666
   47MOL0     C 6409   1.029   6.386   5.048  0.4496 -0.3352 -0.8199
   47MOL0     C 6410   1.166   6.445   5.060  0.1630  0.2393  0.1840
   47MOL0     C 6411   1.267   6.361   5.129 -1.1913 -0.4162  0.0671
   47MOL0     C 6412   1.284   6.234   5.057  0.0718  0.6323 -0.1120
   47MOL0     C 6413   1.287   6.125   5.003 -0.3275 -0.1384 -0.1745
   47MOL0     C 6414   0.725   6.554   4.786  0.5117 -0.6468  0.6782
   47MOL0     C 6415   0.617   6.590   4.708 -0.5516 -0.3331  0.2991
   47MOL0     C 6416   0.628   6.723   4.642 -0.5819 -0.4113  0.5357
   47MOL0     H 6417   0.148   6.284   4.495 -0.2796 -0.3614 -2.1372
   47MOL0     H 6418  -0.076   6.319   4.392 -0.9202  1.2941 -2.4288
   47MOL0     H 6419  -0.134   6.349   4.198 -4.2681 -1.7548  3.1643
   47MOL0     H 6420  -0.128   6.486   4.091  0.9146 -2.1156 -0.8121
   47MOL0     H 6421  -0.379   6.519   4.170  3.7046  2.7149  1.6637
   47MOL0     H 6422  -0.342   6.378   4.064 -4.1808 -4.0077  1.9267
   47MOL0     H 6423  -0.303   6.246   4.289 -0.4596 -0.1894  1.4160
   47MOL0     H 6424  -0.394   6.383   4.349 -2.1070  3.6264 -2.4068
   47MOL0     H 6425  -0.592   6.339   4.218 -0.8436 -0.2002 -0.4786
   47MOL0     H 6426  -0.519   6.195   4.160  2.7365  1.1450 -0.5424
   47MOL0     H 6427  -0.553   6.232   4.456  0.2800  0.3525 -1.4244
   47MOL0     H 6428  -0.491   6.086   4.375  0.9828 -0.2981 -2.9831
   47MOL0     H 6429  -0.761   6.227   4.315 -0.3259  0.0755 -2.5955
   47MOL0     H 6430  -0.707   6.063   4.262  1.6493 -1.4020  1.8322
   47MOL0     H 6431  -0.718   5.988   4.504 -1.0436 -0.7325 -0.0685
   47MOL0     H 6432  -0.873   6.032   4.447  1.1599 -1.3121  1.5482
   47MOL0     H 6433  -0.843   6.103   4.655 -2.4293  0.6371 -0.6183
   47MOL0     H 6434  -0.721   6.224   4.598  1.4688 -1.3134 -1.3317
   47MOL0     H 6435  -0.859   6.438   4.670  0.5463 -0.6347  0.1013
   47MOL0     H 6436  -1.122   6.588   4.679 -1.5655 -0.5118 -0.3406
   47MOL0     H 6437  -1.205   6.567   4.530 -0.0894  1.1109 -0.6200
   47MOL0     H 6438  -1.006   6.663   4.392 -1.3642 -0.5054 -0.3215
   47MOL0     H 6439  -1.078   6.780   4.504  1.3096  0.3333 -0.5709
   47MOL0     H 6440  -0.833   6.619   4.558 -2.2705 -0.9357  1.1278
   47MOL0     H 6441  -0.829   6.782   4.488 -1.0685  2.0062  1.4855
   47MOL0     H 6442  -0.809   6.861   4.706 -0.1480 -1.0970 -2.0819
   47MOL0     H 6443  -0.979   6.846   4.687 -0.0319  0.0728 -3.6081
   47MOL0     H 6444  -0.896   6.569   5.008 -0.5868  0.8845 -0.4458
   47MOL0     H 6445  -0.635   6.516   5.259  0.3877  0.8202  0.1785
   47MOL0     H 6446  -0.708   6.364   5.173  0.0649  0.8737 -3.3497
   47MOL0     H 6447  -0.801   6.515   5.233  0.9567 -0.9737  2.7098
   47MOL0     H 6448  -0.181   6.644   5.066 -1.6399 -3.3274 -1.3068
   47MOL0     H 6449   0.032   6.606   5.160  1.0341 -3.1097  1.1585
   47MOL0     H 6450   0.240   6.468   5.278  3.0446  1.0806 -0.2737
   47MOL0     H 6451   0.192   6.639   5.306  4.6193 -0.2617 -2.7873
   47MOL0     H 6452   0.332   6.481   5.507  1.7882  0.1639 -0.6271
   47MOL0     H 6453   0.403   6.595   5.388 -0.2186 -0.6260  0.1918
   47MOL0     H 6454   0.250   6.768   5.475  2.1214  0.8413 -0.5237
   47MOL0     H 6455   0.375   6.737   5.589  0.5585  1.2369 -1.2990
   47MOL0     H 6456   0.173   6.551   5.661 -0.4830 -0.7274 -0.6661
   47MOL0     H 6457   0.079   6.673   5.618  0.8116 -1.4998 -1.4070
   47MOL0     H 6458   0.336   6.705   5.799 -1.1929 -2.1621  1.0731
   47MOL0     H 6459   0.229   6.844   5.757  2.4376  0.4169  0.2924
   47MOL0     H 6460   0.147   6.600   5.901  1.6933  0.1673 -4.1233
   47MOL0     H 6461   0.040   6.740   5.872 -0.4244  1.7517  2.8541
   47MOL0     H 6462   0.191   6.879   6.020  0.8763  0.2053 -1.3306
   47MOL0     H 6463   0.301   6.747   6.032 -0.2221  1.2587  1.7300
   47MOL0     H 6464   0.162   6.734   6.233  2.9644 -0.2142 -1.1863
   47MOL0     H 6465   0.095   6.605   6.126  0.0377  0.5431 -2.7608
   47MOL0     H 6466  -0.133   6.438   5.513  0.9893  1.0771  0.2559
   47MOL0     H 6467  -0.367   6.467   5.408  0.7803  0.3233 -0.5049
   47MOL0     H 6468  -0.452   6.565   4.808  0.6106  0.9808 -0.2076
   47MOL0     H 6469  -0.649   6.647   4.675 -0.3980  1.6919 -0.5106
   47MOL0     H 6470   0.014   6.729   4.348  1.0960  1.2964  3.5155
   47MOL0     H 6471   0.228   6.702   4.445 -0.4643  0.2095  1.7327
   47MOL0     H 6472   0.410   6.338   4.791  0.5503  1.2777 -0.3381
   47MOL0     H 6473   0.607   6.254   4.897  0.9812  0.3560 -0.4370
   47MOL0     H 6474   0.995   6.470   4.853 -1.2025 -2.5798 -1.3187
   47MOL0     H 6475   0.931   6.561   4.985  0.8832  0.7093 -3.0852
   47MOL0     H 6476   1.022   6.281   5.017  0.3076 -0.1980 -1.2590
   47MOL0     H 6477   0.968   6.400   5.138 -0.3355  0.9393 -1.5243
   47MOL0     H 6478   1.214   6.473   4.966  1.4455 -2.0799  0.0660
   47MOL0     H 6479   1.155   6.536   5.121 -3.0075 -0.3201  0.6100
   47MOL0     H 6480   1.230   6.345   5.231  1.9689  3.2162  2.0302
   47MOL0     H 6481   1.363   6.413   5.131  1.3707 -4.5568 -1.3853
   47MOL0     H 6482   1.262   6.030   4.961  0.8864 -1.5886  2.1771
   47MOL0     H 6483   0.805   6.627   4.798  0.4491 -0.7623  1.9472
   47MOL0     H 6484   0.574   6.788   4.712 -1.1112 -1.9985  1.6795
   47MOL0     H 6485   0.729   6.758   4.620 -1.7490  3.0209 -0.1123
   47MOL0     H 6486   0.578   6.724   4.544  2.8992 -0.4342 -1.3881
   48MOL0     O 6487  11.008  10.518   2.444 -0.0790  0.5532  0.4147
   48MOL0     C 6488  10.935  10.609   2.445 -0.3596 -0.6558  0.4111
   48MOL0     O 6489  10.967  10.727   2.507 -0.2691  0.0057 -0.5999
   48MOL0     C 6490  11.077  10.751   2.594  0.5090 -0.6279 -0.2872
   48MOL0     C 6491  11.208  10.720   2.579 -0.6400 -0.4776  0.2265
   48MOL0     C 6492  11.309  10.766   2.669 -0.0084 -0.1912 -0.2654
   48MOL0     C 6493  11.272  10.835   2.788  0.3634 -0.1635 -0.1018
   48MOL0     O 6494  11.366  10.880   2.881  0.2037 -0.3586  0.0060
   48MOL0     C 6495  11.498  10.903   2.835  0.1476 -0.6411 -0.1231
   48MOL0     C 6496  11.595  10.905   2.955 -0.4812 -0.2440  0.0853
   48MOL0     C 6497  11.643  10.768   2.990 -0.5709  0.5403  1.0068
   48MOL0     C 6498  11.707  10.759   3.128 -0.3461 -0.1426 -0.2738
   48MOL0     C 6499  11.791  10.629   3.144 -0.7091 -0.6152 -0.3150
   48MOL0     C 6500  11.714  10.499   3.145 -0.2822 -0.4319  0.2460
   48MOL0     C 6501  11.810  10.386   3.106 -0.0645 -0.3966 -0.2942
   48MOL0     C 6502  11.750  10.250   3.150  0.4157  0.6051 -0.0059
   48MOL0     N 6503  11.829  10.132   3.117  0.1659 -0.4959 -0.2549
   48MOL0     C 6504  11.863  10.092   2.992 -0.6966 -0.0129 -0.4190
   48MOL0     C 6505  11.927   9.975   3.016 -0.4251  0.0709 -0.7937
   48MOL0     C 6506  11.995   9.886   2.921 -0.5953  0.2522 -0.5330
   48MOL0     C 6507  11.914   9.764   2.866  0.8950 -0.1127  0.2197
   48MOL0     C 6508  11.987   9.690   2.745 -0.0308 -0.5689 -0.7956
   48MOL0     C 6509  12.118   9.631   2.784  0.2898 -0.7322  0.1973
   48MOL0     O 6510  12.195   9.583   2.677  0.7842 -0.3855  0.4468
   48MOL0     C 6511  12.263   9.670   2.597 -0.4193 -0.1814 -0.9673
   48MOL0     C 6512  12.266   9.808   2.615 -0.0755 -0.8046 -0.4044
   48MOL0     C 6513  12.339   9.887   2.518  0.1406 -0.4247 -0.3647
   48MOL0     C 6514  12.353  10.033   2.567  0.0851  0.6626 -0.5068
   48MOL0     C 6515  12.407   9.826   2.406  0.3459 -0.4809  0.7120
   48MOL0     C 6516  12.492   9.904   2.310  0.2117 -0.1129  0.4505
   48MOL0     O 6517  12.604   9.833   2.260  0.6914 -0.1674 -0.6496
   48MOL0     C 6518  12.713   9.890   2.202 -0.6710 -0.1874  0.1395
   48MOL0     C 6519  12.832   9.883   2.273  0.2705 -1.2665 -0.1614
   48MOL0     C 6520  12.949   9.931   2.222 -0.4694 -0.6607 -0.6787
   48MOL0     C 6521  12.952   9.996   2.098 -0.0303 -0.2074 -0.3246
   48MOL0     O 6522  13.070  10.046   2.064  0.6629  0.0454 -0.5592
   48MOL0     C 6523  13.079  10.126   1.945 -0.5086 -0.1947 -0.0085
   48MOL0     C 6524  13.218  10.099   1.880 -0.1685 -0.3367 -0.3353
   48MOL0     C 6525  13.223   9.956   1.811 -0.5361  0.4277  0.5680
   48MOL0     C 6526  13.362   9.943   1.733 -0.2218  0.3382 -0.3900
   48MOL0     C 6527  13.372   9.807   1.682 -0.2545 -0.0480  0.8050
   48MOL0     C 6528  13.518   9.751   1.665  0.2238 -0.2895 -0.3196
   48MOL0     C 6529  13.594   9.825   1.559 -1.2745 -0.3062  0.1007
   48MOL0     C 6530  13.703   9.734   1.510  0.7435  0.1284 -0.0009
   48MOL0    Cl 6531  13.627   9.621   1.404 -0.1419 -0.3080 -0.0723
   48MOL0     C 6532  12.834   9.993   2.020  1.5490 -0.0696  0.3487
   48MOL0     C 6533  12.714   9.948   2.072 -0.3785 -0.7975  0.0579
   48MOL0     O 6534  12.462  10.027   2.280 -0.4999  0.7321  0.0954
   48MOL0     C 6535  12.405   9.685   2.403  1.5222  0.0810  0.1818
   48MOL0     C 6536  12.331   9.608   2.500 -0.5466 -0.0987  0.8176
   48MOL0     N 6537  11.935   9.956   3.149 -0.4605 -0.5230 -0.1255
   48MOL0     N 6538  11.884  10.055   3.210 -0.4838 -0.4903  0.3224
   48MOL0     C 6539  11.135  10.856   2.799  0.1355 -0.2491 -0.2147
   48MOL0     C 6540  11.037  10.803   2.712  0.2559 -0.3448 -0.2144
   48MOL0     C 6541  10.813  10.607   2.358 -0.9881  0.5840 -0.2353
   48MOL0     C 6542  10.809  10.513   2.250  0.3048 -1.3637 -0.2872
   48MOL0     C 6543  10.709  10.497   2.162 -0.9128 -0.6375  0.5107
   48MOL0     C 6544  10.594  10.577   2.187  0.8372 -0.2906 -0.2149
   48MOL0     O 6545  10.483  10.569   2.116  0.2196 -0.3752  0.0144
   48MOL0     C 6546  10.492  10.503   1.989 -0.1808 -0.2481 -0.9002
   48MOL0     C 6547  10.356  10.519   1.916 -0.0104  0.0590 -0.5275
   48MOL0     C 6548  10.351  10.442   1.782  0.0347 -0.0117  1.0159
   48MOL0     C 6549  10.209  10.448   1.721 -0.1679 -0.1381 -0.3386
   48MOL0     C 6550  10.203  10.336   1.624  1.0969 -0.9274 -0.1500
   48MOL0     C 6551  10.173  10.248   1.551  0.6123 -0.4183  0.6334
   48MOL0     C 6552  10.597  10.669   2.290  0.6119  1.3320  0.1923
   48MOL0     C 6553  10.708  10.686   2.382 -0.3102  0.0065 -0.5111
   48MOL0     C 6554  10.682  10.765   2.502  0.0228 -0.1666 -0.5401
   48MOL0     H 6555  11.247  10.672   2.490 -1.5004 -1.2952  0.2828
   48MOL0     H 6556  11.408  10.728   2.646  0.7730  0.7806  1.3882
   48MOL0     H 6557  11.515  10.997   2.783 -0.0546 -0.6215 -0.1555
   48MOL0     H 6558  11.520  10.821   2.766 -0.7549 -0.5936 -0.4730
   48MOL0     H 6559  11.682  10.968   2.933 -0.1295 -0.6874  0.1981
   48MOL0     H 6560  11.532  10.945   3.035 -0.4843  0.5890 -0.3185
   48MOL0     H 6561  11.562  10.695   2.993 -0.6212  0.6020  1.1598
   48MOL0     H 6562  11.720  10.735   2.919  0.4485  0.8420  1.9369
   48MOL0     H 6563  11.767  10.850   3.134  1.2653 -1.2412  1.0215
   48MOL0     H 6564  11.626  10.754   3.201  1.3259  0.1851  1.7162
   48MOL0     H 6565  11.834  10.630   3.244  2.5172  1.2901 -1.5611
   48MOL0     H 6566  11.872  10.627   3.070 -1.1985  0.6212 -0.9140
   48MOL0     H 6567  11.683  10.490   3.250 -0.6627  0.1427  0.1847
   48MOL0     H 6568  11.627  10.500   3.079 -1.7037 -1.0283  2.0296
   48MOL0     H 6569  11.911  10.406   3.143 -0.5060  1.6316 -0.0360
   48MOL0     H 6570  11.833  10.390   2.999  2.6887  1.4050  0.2412
   48MOL0     H 6571  11.723  10.255   3.255 -1.4795  2.2844 -0.5140
   48MOL0     H 6572  11.657  10.242   3.093 -1.5554  2.5856  2.7326
   48MOL0     H 6573  11.847  10.145   2.899  0.8854 -1.9395 -1.9094
   48MOL0     H 6574  12.083   9.845   2.971 -1.1703  0.5215  0.7187
   48MOL0     H 6575  12.026   9.949   2.837 -0.1079  0.3854 -0.2529
   48MOL0     H 6576  11.878   9.689   2.936  0.6332 -1.1058 -0.9313
   48MOL0     H 6577  11.830   9.818   2.821  1.5897  0.8729  0.0658
   48MOL0     H 6578  11.920   9.613   2.704 -0.8895  1.1757 -2.8428
   48MOL0     H 6579  12.003   9.755   2.659 -3.3127  1.8458  0.1867
   48MOL0     H 6580  12.182   9.702   2.837  2.9602 -2.3270 -0.6850
   48MOL0     H 6581  12.096   9.549   2.854 -1.6048 -1.2393 -0.9256
   48MOL0     H 6582  12.211   9.867   2.687 -0.5548 -1.2659 -0.3884
   48MOL0     H 6583  12.379  10.102   2.486 -1.5407 -0.7271 -2.3084
   48MOL0     H 6584  12.433  10.045   2.640  1.0805 -1.8663 -1.0770
   48MOL0     H 6585  12.258  10.066   2.612  0.1014 -2.2907  2.0432
   48MOL0     H 6586  12.824   9.842   2.374 -2.8454 -2.1343 -0.6641
   48MOL0     H 6587  13.037   9.928   2.286 -0.6626 -0.6380 -0.4098
   48MOL0     H 6588  13.008  10.101   1.865  3.4133 -0.1679 -3.9213
   48MOL0     H 6589  13.071  10.234   1.964  3.1628  0.1245  0.3595
   48MOL0     H 6590  13.234  10.178   1.807 -0.3455  1.5388  1.5498
   48MOL0     H 6591  13.298  10.103   1.955  1.2565  0.2713 -1.8315
   48MOL0     H 6592  13.141   9.944   1.740 -1.3453  1.5916  1.2626
   48MOL0     H 6593  13.203   9.878   1.885  4.7770 -1.3252  0.5778
   48MOL0     H 6594  13.449   9.975   1.791 -0.0025  0.5516 -0.8375
   48MOL0     H 6595  13.358  10.011   1.647 -2.4069 -0.4885 -1.0269
   48MOL0     H 6596  13.312   9.731   1.733 -1.4235 -0.3923 -0.9823
   48MOL0     H 6597  13.324   9.801   1.583  1.1775 -6.8443 -0.0131
   48MOL0     H 6598  13.511   9.645   1.638  1.5719 -0.4394 -0.1237
   48MOL0     H 6599  13.576   9.755   1.758  1.1399  1.7820 -0.9174
   48MOL0     H 6600  13.636   9.915   1.606 -0.4268 -2.0469  2.8944
   48MOL0     H 6601  13.532   9.856   1.474  0.4615  0.0575 -1.1058
   48MOL0     H 6602  13.751   9.679   1.591 -1.2413  0.6127  1.5896
   48MOL0     H 6603  13.789   9.786   1.465 -0.3832 -0.2031 -2.6992
   48MOL0     H 6604  12.823  10.042   1.925  2.7750 -0.6324 -0.1112
   48MOL0     H 6605  12.616   9.957   2.028 -1.2409  1.4675  2.1915
   48MOL0     H 6606  12.456   9.636   2.321  0.3877 -1.1515  0.1603
   48MOL0     H 6607  12.328   9.500   2.499  1.8109 -0.2485  2.2966
   48MOL0     H 6608  11.119  10.925   2.881 -1.4269 -0.1770 -0.5515
   48MOL0     H 6609  10.930  10.817   2.727  0.3153  0.6541 -0.6689
   48MOL0     H 6610  10.900  10.461   2.221  1.0223 -0.6944  0.6936
   48MOL0     H 6611  10.709  10.430   2.076 -2.6367 -2.2686  1.7019
   48MOL0     H 6612  10.583  10.535   1.937  0.8142 -0.2288  0.7799
   48MOL0     H 6613  10.502  10.396   2.007 -0.2903 -0.0744  0.2759
   48MOL0     H 6614  10.344  10.624   1.887 -0.1736 -0.3549 -2.0250
   48MOL0     H 6615  10.273  10.484   1.979 -0.6519 -0.0809 -1.4293
   48MOL0     H 6616  10.414  10.498   1.712  0.2553  0.0501  1.2635
   48MOL0     H 6617  10.385  10.339   1.798 -0.7118  0.1218  4.2901
   48MOL0     H 6618  10.188  10.544   1.673 -0.7790  0.4841  1.1140
   48MOL0     H 6619  10.130  10.452   1.797  0.2325  2.4278  0.0235
   48MOL0     H 6620  10.158  10.189   1.462 -2.4245  2.4841 -1.0086
   48MOL0     H 6621  10.509  10.730   2.307 -0.3997 -0.3046  1.0905
   48MOL0     H 6622  10.735  10.732   2.592 -1.8880  1.0987  1.1134
   48MOL0     H 6623  10.694  10.873   2.488  2.1576 -0.3862 -0.7906
   48MOL0     H 6624  10.579  10.755   2.535  0.1714  2.3253  0.9610
   49MOL0     O 6625   7.402   2.811   8.493 -0.1227  0.6804  0.0157
   49MOL0     C 6626   7.350   2.821   8.385 -0.3707 -0.1940  0.1332
   49MOL0     O 6627   7.412   2.850   8.262 -0.1375 -0.0728 -0.6186
   49MOL0     C 6628   7.551   2.863   8.275 -0.9150  0.7741 -0.0543
   49MOL0     C 6629   7.619   2.966   8.208 -0.3345 -0.1585  0.6747
   49MOL0     C 6630   7.758   2.979   8.195 -0.5069 -0.2107  0.8562
   49MOL0     C 6631   7.836   2.878   8.262 -0.4945 -0.3308 -0.4752
   49MOL0     O 6632   7.968   2.888   8.290 -0.0031  0.7897 -0.1169
   49MOL0     C 6633   8.054   2.931   8.179  0.2854 -0.3267 -0.1349
   49MOL0     C 6634   8.052   2.820   8.072 -0.7586  0.2420  0.8737
   49MOL0     C 6635   8.168   2.854   7.969  0.4446 -0.6087 -0.2616
   49MOL0     C 6636   8.195   2.737   7.883 -0.7164  0.2906 -0.1008
   49MOL0     C 6637   8.292   2.752   7.777  0.3924  0.2705  0.1241
   49MOL0     C 6638   8.335   2.629   7.694 -0.4290  0.4911 -0.3722
   49MOL0     C 6639   8.417   2.659   7.570 -0.0001  0.3828  0.3018
   49MOL0     C 6640   8.466   2.522   7.501  0.5187  0.0532  0.9458
   49MOL0     N 6641   8.348   2.444   7.478  0.3497  0.6654  0.1376
   49MOL0     C 6642   8.246   2.455   7.398  0.5322 -0.3547 -0.3371
   49MOL0     C 6643   8.185   2.337   7.399  0.5454 -0.7575 -0.0366
   49MOL0     C 6644   8.063   2.314   7.309 -0.0173  0.2595 -0.3260
   49MOL0     C 6645   8.083   2.227   7.184  0.3806 -0.4606 -0.9532
   49MOL0     C 6646   7.949   2.190   7.116  0.7903  0.9073 -0.0361
   49MOL0     C 6647   7.870   2.315   7.064 -0.8898  0.3991  0.2779
   49MOL0     O 6648   7.808   2.388   7.173 -1.2335 -0.2936 -0.5480
   49MOL0     C 6649   7.697   2.465   7.149 -0.3140 -0.0364 -0.3574
   49MOL0     C 6650   7.634   2.518   7.261  0.4515 -0.4856  0.0642
   49MOL0     C 6651   7.527   2.599   7.241  0.5106 -0.4265 -0.5841
   49MOL0     C 6652   7.452   2.651   7.369  0.3049 -0.4016  0.2107
   49MOL0     C 6653   7.478   2.625   7.104  0.7148 -0.8451 -0.2170
   49MOL0     C 6654   7.361   2.711   7.068 -0.8561  0.1442 -0.1920
   49MOL0     O 6655   7.314   2.715   6.939 -0.6678 -0.5189  0.0055
   49MOL0     C 6656   7.235   2.811   6.889  0.4325  0.4328  0.1728
   49MOL0     C 6657   7.113   2.853   6.951 -0.2045  0.2329  0.0650
   49MOL0     C 6658   7.031   2.938   6.885  0.3754  0.3793  0.0088
   49MOL0     C 6659   7.065   3.003   6.766  0.2956 -0.3062  0.3145
   49MOL0     O 6660   6.987   3.105   6.710 -0.1696  0.0165 -0.8215
   49MOL0     C 6661   6.860   3.070   6.647 -0.0358  0.1170  0.6010
   49MOL0     C 6662   6.801   3.187   6.565 -0.0089  0.4029  0.1714
   49MOL0     C 6663   6.687   3.140   6.472 -0.5293  0.1149  0.5625
   49MOL0     C 6664   6.731   3.057   6.351 -0.0987 -0.3919  0.1400
   49MOL0     C 6665   6.611   3.054   6.249  0.1543 -0.8216  0.5269
   49MOL0     C 6666   6.475   2.988   6.289  0.3368 -0.7296 -0.9990
   49MOL0     C 6667   6.397   2.921   6.177  0.3967 -0.5343  0.5841
   49MOL0     C 6668   6.323   2.792   6.227 -0.0070 -0.2649  0.0578
   49MOL0    Cl 6669   6.227   2.706   6.093 -0.6691 -0.5592  0.2443
   49MOL0     C 6670   7.190   2.965   6.709 -0.0906 -0.1108  0.5630
   49MOL0     C 6671   7.276   2.875   6.773  0.9017  0.3872  0.6340
   49MOL0     O 6672   7.321   2.780   7.162  0.7290 -0.3235 -0.1484
   49MOL0     C 6673   7.541   2.561   6.994 -0.4561  0.0225  0.2436
   49MOL0     C 6674   7.655   2.489   7.018  0.4236 -0.4171 -0.1198
   49MOL0     N 6675   8.255   2.251   7.479 -0.2614  0.4467 -0.8305
   49MOL0     N 6676   8.354   2.317   7.533 -0.4018 -1.1938 -0.2840
   49MOL0     C 6677   7.775   2.777   8.335 -0.7264  0.1933 -0.6003
   49MOL0     C 6678   7.637   2.766   8.336  1.0297 -0.2446 -0.4559
   49MOL0     C 6679   7.205   2.846   8.394  0.1051  0.0859 -0.4791
   49MOL0     C 6680   7.152   2.938   8.305  0.0440 -0.3246 -0.3510
   49MOL0     C 6681   7.015   2.975   8.311 -0.1226  0.5611  0.2712
   49MOL0     C 6682   6.917   2.896   8.381 -0.6114 -0.3425  0.1033
   49MOL0     O 6683   6.779   2.933   8.384  0.2631  0.3097  0.3352
   49MOL0     C 6684   6.728   3.034   8.301  0.1240  0.6786 -0.9033
   49MOL0     C 6685   6.711   2.988   8.152 -0.7127  0.1490  0.3835
   49MOL0     C 6686   6.588   2.906   8.138 -0.2834  0.4329  0.1382
   49MOL0     C 6687   6.574   2.838   8.003  0.1766 -0.1326 -0.2701
   49MOL0     C 6688   6.557   2.939   7.902  0.2143 -0.0682  0.1489
   49MOL0     C 6689   6.546   3.021   7.812 -0.0761 -0.1395 -0.0869
   49MOL0     C 6690   6.972   2.795   8.459 -0.1039 -0.9355 -0.1849
   49MOL0     C 6691   7.111   2.772   8.470 -0.2978  0.5149 -0.7002
   49MOL0     C 6692   7.156   2.655   8.551  1.0429 -0.1351 -1.0933
   49MOL0     H 6693   7.569   3.052   8.163  4.3817  1.7924 -1.4991
   49MOL0     H 6694   7.794   3.068   8.144  0.3755 -1.0484 -0.0254
   49MOL0     H 6695   8.156   2.957   8.209  0.7978 -2.0344 -0.3008
   49MOL0     H 6696   8.010   3.023   8.140  0.8749  0.3894  0.8315
   49MOL0     H 6697   8.062   2.721   8.118  3.4156  1.4111  3.0751
   49MOL0     H 6698   7.956   2.831   8.021 -1.5296 -1.8103  1.7384
   49MOL0     H 6699   8.148   2.953   7.928  0.7196  1.3680  3.8644
   49MOL0     H 6700   8.262   2.863   8.025 -1.1217  1.2091  2.2956
   49MOL0     H 6701   8.244   2.657   7.940  1.9635  1.1156 -1.0863
   49MOL0     H 6702   8.097   2.706   7.845 -0.3876 -0.3566 -0.4300
   49MOL0     H 6703   8.389   2.771   7.824 -0.4450 -0.8714  2.4935
   49MOL0     H 6704   8.254   2.824   7.704 -1.7664  0.7132  1.6016
   49MOL0     H 6705   8.390   2.556   7.755  1.6987  2.4165  0.1623
   49MOL0     H 6706   8.242   2.581   7.662  0.2074 -0.0474 -1.4393
   49MOL0     H 6707   8.511   2.704   7.605  0.2371 -0.3871  0.6956
   49MOL0     H 6708   8.367   2.728   7.502 -0.9278  0.5306  1.1168
   49MOL0     H 6709   8.529   2.528   7.411  0.3874 -1.7201  0.7089
   49MOL0     H 6710   8.531   2.469   7.572  2.9142  1.4434 -0.0534
   49MOL0     H 6711   8.227   2.541   7.334 -0.5185  0.2854  0.7962
   49MOL0     H 6712   8.026   2.412   7.278  0.8275  0.1189 -1.8915
   49MOL0     H 6713   7.976   2.265   7.353  0.8680 -0.3739  0.7973
   49MOL0     H 6714   8.130   2.280   7.101 -3.3166  1.3437 -2.1138
   49MOL0     H 6715   8.152   2.146   7.211  1.3336  0.4072 -0.6774
   49MOL0     H 6716   7.964   2.125   7.030 -1.8388 -1.9768  1.5111
   49MOL0     H 6717   7.883   2.130   7.179  1.1833 -2.4502 -2.5910
   49MOL0     H 6718   7.932   2.377   6.999  1.4400 -2.1257 -0.0857
   49MOL0     H 6719   7.799   2.257   7.004 -0.1708 -0.9910  0.7224
   49MOL0     H 6720   7.673   2.505   7.362 -0.9256 -1.2928  0.5252
   49MOL0     H 6721   7.343   2.655   7.372  0.2353 -1.2872  4.3059
   49MOL0     H 6722   7.497   2.749   7.389  3.4570 -1.4356 -1.2695
   49MOL0     H 6723   7.477   2.591   7.457 -0.7521 -1.6695 -0.3204
   49MOL0     H 6724   7.076   2.805   7.041  2.4554  0.9650  1.6414
   49MOL0     H 6725   6.934   2.951   6.933  0.2657  0.2503 -0.1758
   49MOL0     H 6726   6.882   2.989   6.578 -0.2472 -0.4991  1.2505
   49MOL0     H 6727   6.788   3.025   6.716 -1.5060 -1.9127 -2.0564
   49MOL0     H 6728   6.773   3.263   6.638  1.2162  1.2119 -0.1854
   49MOL0     H 6729   6.884   3.213   6.499  1.5221 -1.4888  1.2479
   49MOL0     H 6730   6.631   3.228   6.438 -2.4225 -1.2408  0.0122
   49MOL0     H 6731   6.611   3.087   6.531 -1.0793 -1.1260 -1.2121
   49MOL0     H 6732   6.748   2.952   6.378  0.7455 -0.5421 -0.9429
   49MOL0     H 6733   6.825   3.097   6.312 -0.6979  0.4312 -0.4867
   49MOL0     H 6734   6.583   3.155   6.219 -3.7316 -1.8206  0.1758
   49MOL0     H 6735   6.659   3.019   6.157 -1.0999 -0.6126 -0.2382
   49MOL0     H 6736   6.405   3.060   6.333  0.3459 -1.7066  0.7056
   49MOL0     H 6737   6.496   2.916   6.369 -0.5595  0.4091  0.3174
   49MOL0     H 6738   6.463   2.898   6.092  1.0198 -1.5453  1.3208
   49MOL0     H 6739   6.317   2.986   6.141 -0.4154 -2.5893 -1.5495
   49MOL0     H 6740   6.246   2.823   6.298  0.6095 -1.3093  1.2337
   49MOL0     H 6741   6.405   2.727   6.260  3.0871  0.7735 -4.5889
   49MOL0     H 6742   7.230   3.019   6.624  0.0486  1.6805  1.7051
   49MOL0     H 6743   7.356   2.829   6.717 -1.1220 -1.1497 -1.1695
   49MOL0     H 6744   7.526   2.573   6.887  1.1600 -2.8725 -0.4236
   49MOL0     H 6745   7.713   2.451   6.935  1.3769 -2.4613  1.3880
   49MOL0     H 6746   7.838   2.713   8.395 -1.1814 -0.3543 -0.6949
   49MOL0     H 6747   7.605   2.681   8.395 -0.7514  2.0423  2.1245
   49MOL0     H 6748   7.214   3.002   8.244 -0.0026  0.2179  0.1718
   49MOL0     H 6749   6.992   3.060   8.247  0.3956 -0.0106 -0.6970
   49MOL0     H 6750   6.624   3.051   8.330  0.6949  0.6522  1.3311
   49MOL0     H 6751   6.791   3.121   8.318  2.8902 -1.4731  0.5447
   49MOL0     H 6752   6.800   2.926   8.139 -0.1834  0.1173  3.4610
   49MOL0     H 6753   6.710   3.073   8.083 -0.4167 -0.3235 -0.2127
   49MOL0     H 6754   6.569   2.834   8.218 -2.1347  0.1439 -0.5072
   49MOL0     H 6755   6.498   2.966   8.155 -2.4571 -2.3388 -0.7282
   49MOL0     H 6756   6.486   2.774   8.006 -0.7263  0.8630 -2.7135
   49MOL0     H 6757   6.655   2.772   7.972 -2.6443 -3.3534 -1.4237
   49MOL0     H 6758   6.537   3.086   7.728  1.6519  0.9789  0.5579
   49MOL0     H 6759   6.912   2.722   8.513  1.8304 -1.6434  1.1001
   49MOL0     H 6760   7.178   2.692   8.651  2.1633 -1.0550 -0.9755
   49MOL0     H 6761   7.067   2.592   8.561  1.2020 -0.3991 -1.3116
   49MOL0     H 6762   7.232   2.588   8.509  1.1958  0.3891 -1.6587
   50MOL0     O 6763   0.441   7.493   9.777 -0.3866 -0.8290 -0.6853
   50MOL0     C 6764   0.426   7.593   9.851  0.0782  0.2037 -0.2690
   50MOL0     O 6765   0.523   7.653   9.933 -0.4409 -0.5075 -0.5324
   50MOL0     C 6766   0.655   7.609   9.937  0.0125 -0.3194 -0.2070
   50MOL0     C 6767   0.687   7.474   9.980 -0.1797  0.0767 -0.4423
   50MOL0     C 6768   0.815   7.425   9.991 -0.2946  0.3432  0.3047
   50MOL0     C 6769   0.924   7.510   9.954  0.4005  0.2799 -0.2973
   50MOL0     O 6770   1.039   7.447   9.970 -0.4471  0.4830  0.0154
   50MOL0     C 6771   1.143   7.482   9.875 -1.1340  0.1706  0.5369
   50MOL0     C 6772   1.281   7.420   9.911  0.1446  0.6799 -0.4931
   50MOL0     C 6773   1.281   7.265   9.866 -0.1924 -0.6210 -0.2779
   50MOL0     C 6774   1.415   7.213   9.819 -0.9780  0.1762 -0.2819
   50MOL0     C 6775   1.423   7.228   9.669 -0.7852 -0.9760  0.2924
   50MOL0     C 6776   1.561   7.193   9.604 -0.6210 -0.7375  0.0127
   50MOL0     C 6777   1.577   7.240   9.452  0.0960  0.6243  0.5169
   50MOL0     C 6778   1.493   7.160   9.356 -0.2276 -0.1507 -0.7982
   50MOL0     N 6779   1.521   7.189   9.218 -0.0554 -0.6650 -0.1304
   50MOL0     C 6780   1.616   7.132   9.140  0.5251 -0.3746 -0.9002
   50MOL0     C 6781   1.600   7.194   9.021 -0.2332  0.0466 -0.4122
   50MOL0     C 6782   1.688   7.176   8.894 -0.1304  0.4286 -0.2531
   50MOL0     C 6783   1.619   7.201   8.756 -0.2648  0.0750 -0.0848
   50MOL0     C 6784   1.711   7.182   8.640 -0.3667  0.0172  0.2372
   50MOL0     C 6785   1.818   7.296   8.623  0.7924 -0.0687  0.2024
   50MOL0     O 6786   1.759   7.403   8.556 -0.2625 -0.4740  0.5886
   50MOL0     C 6787   1.836   7.476   8.469 -0.7753 -0.4530  0.6227
   50MOL0     C 6788   1.978   7.498   8.472 -0.3505 -0.3612 -0.1688
   50MOL0     C 6789   2.047   7.563   8.372  0.6499 -0.6226 -0.4137
   50MOL0     C 6790   2.201   7.578   8.389  0.2046  0.2548  0.1041
   50MOL0     C 6791   1.966   7.632   8.268 -0.3341 -0.1302 -0.7440
   50MOL0     C 6792   2.037   7.729   8.182  0.5930  1.1365 -0.4635
   50MOL0     O 6793   2.121   7.823   8.242  0.0345  0.4463  0.5894
   50MOL0     C 6794   2.212   7.888   8.160  0.6053 -0.2820  0.3555
   50MOL0     C 6795   2.251   8.019   8.191 -0.5616  0.0631 -0.6242
   50MOL0     C 6796   2.347   8.075   8.115  0.4142 -0.4998 -0.2768
   50MOL0     C 6797   2.421   8.005   8.017 -0.1077 -0.2732  1.1824
   50MOL0     O 6798   2.526   8.061   7.954 -0.4491  0.5202  0.3148
   50MOL0     C 6799   2.632   8.079   8.046 -0.7621 -0.1266 -0.4395
   50MOL0     C 6800   2.719   7.967   8.032 -0.5027 -0.3114  0.0929
   50MOL0     C 6801   2.859   7.986   8.092  0.0768 -0.5211 -0.4783
   50MOL0     C 6802   2.963   7.875   8.069  0.7891 -0.1232  0.7662
   50MOL0     C 6803   2.922   7.740   8.132 -0.4960  0.3064 -0.2826
   50MOL0     C 6804   3.054   7.661   8.158  0.1222 -0.1747 -0.8903
   50MOL0     C 6805   3.024   7.524   8.223  0.0025  0.2609  0.1869
   50MOL0     C 6806   3.143   7.436   8.258 -0.1135  0.6494 -0.3387
   50MOL0    Cl 6807   3.250   7.519   8.384 -0.2064 -0.1336 -0.4003
   50MOL0     C 6808   2.375   7.875   7.980  0.7870 -0.0063  0.1015
   50MOL0     C 6809   2.273   7.820   8.056 -0.4113  0.3886  0.4055
   50MOL0     O 6810   2.014   7.714   8.061  0.0870 -0.5732 -0.3894
   50MOL0     C 6811   1.832   7.603   8.262  0.7007 -1.3964  0.2146
   50MOL0     C 6812   1.775   7.529   8.357  0.4542  0.2864 -1.3409
   50MOL0     N 6813   1.501   7.286   9.035 -0.1577 -0.0758 -0.7735
   50MOL0     N 6814   1.443   7.278   9.149 -0.2460  0.3623  0.6274
   50MOL0     C 6815   0.901   7.643   9.911 -0.4165  0.5078  0.1260
   50MOL0     C 6816   0.765   7.687   9.908  0.1449 -0.2472  0.6604
   50MOL0     C 6817   0.292   7.660   9.863  0.1118 -0.5098  0.4699
   50MOL0     C 6818   0.266   7.776   9.940  0.0699 -0.0137  0.2782
   50MOL0     C 6819   0.145   7.837   9.944  0.4202 -0.0553  0.3305
   50MOL0     C 6820   0.037   7.800   9.876 -0.6224  0.5494  0.3053
   50MOL0     O 6821  -0.068   7.883   9.888 -0.2627  0.1515  0.9699
   50MOL0     C 6822  -0.191   7.853   9.820 -0.0024 -0.3576 -0.1773
   50MOL0     C 6823  -0.302   7.952   9.868 -0.1649 -0.7634  0.4823
   50MOL0     C 6824  -0.411   7.957   9.764  0.2816  0.3297  0.5949
   50MOL0     C 6825  -0.535   8.041   9.796  0.3766 -0.3507  0.1891
   50MOL0     C 6826  -0.493   8.180   9.836 -0.3494  0.5659  0.4632
   50MOL0     C 6827  -0.447   8.281   9.862 -0.0356 -0.0752 -0.6045
   50MOL0     C 6828   0.058   7.683   9.794 -0.5161  0.6419 -1.3831
   50MOL0     C 6829   0.183   7.605   9.785 -0.2806  0.6868 -0.3530
   50MOL0     C 6830   0.177   7.492   9.678  0.2444  0.2348  0.3635
   50MOL0     H 6831   0.609   7.406  10.012  0.2447  0.0163  0.4943
   50MOL0     H 6832   0.843   7.323  10.019  2.4241  0.1624 -2.4747
   50MOL0     H 6833   1.163   7.588   9.862 -1.6651 -0.0433 -3.5158
   50MOL0     H 6834   1.110   7.451   9.775 -3.4994  2.5806  0.4646
   50MOL0     H 6835   1.364   7.470   9.861 -0.2738  0.4148 -1.4754
   50MOL0     H 6836   1.310   7.420  10.017  2.6972 -2.1499 -1.0833
   50MOL0     H 6837   1.235   7.204   9.944 -0.5723  0.1709  0.1288
   50MOL0     H 6838   1.207   7.251   9.787  1.0175  1.5328 -1.9253
   50MOL0     H 6839   1.506   7.244   9.871  1.8166 -3.0825 -2.7886
   50MOL0     H 6840   1.410   7.105   9.833  0.4190 -0.0133 -1.1064
   50MOL0     H 6841   1.402   7.333   9.646 -1.2229 -1.0656  0.2784
   50MOL0     H 6842   1.350   7.160   9.624 -0.7950 -0.2496 -0.8504
   50MOL0     H 6843   1.650   7.234   9.654 -0.5614  1.7629 -1.9508
   50MOL0     H 6844   1.562   7.085   9.623 -2.6925 -0.3530  2.9874
   50MOL0     H 6845   1.683   7.223   9.429  0.7371  0.0551  3.4359
   50MOL0     H 6846   1.547   7.341   9.424 -0.4592  0.2403 -0.3034
   50MOL0     H 6847   1.517   7.055   9.372 -0.4792 -0.3925 -1.8971
   50MOL0     H 6848   1.395   7.193   9.389  1.6981  4.0623  1.4950
   50MOL0     H 6849   1.700   7.072   9.174  1.0372  2.0523  2.6790
   50MOL0     H 6850   1.736   7.078   8.896  2.2132  1.5323  1.7173
   50MOL0     H 6851   1.773   7.243   8.906  1.6558 -1.2395 -2.6993
   50MOL0     H 6852   1.531   7.139   8.741 -0.5758  0.7814 -1.3896
   50MOL0     H 6853   1.581   7.302   8.739  0.6796  0.0828 -2.6010
   50MOL0     H 6854   1.769   7.089   8.646  0.8699  0.8591  1.7745
   50MOL0     H 6855   1.640   7.180   8.557 -0.8303  1.6930  0.5679
   50MOL0     H 6856   1.867   7.331   8.714  2.5403  1.0864 -1.1195
   50MOL0     H 6857   1.888   7.248   8.553 -0.2139 -1.6892  0.2487
   50MOL0     H 6858   2.028   7.449   8.556 -1.9354 -0.4537  0.7646
   50MOL0     H 6859   2.242   7.509   8.463  2.7388 -0.2908 -1.6740
   50MOL0     H 6860   2.241   7.672   8.427 -1.1089 -0.1226  2.6756
   50MOL0     H 6861   2.246   7.545   8.295 -1.6765 -0.9630 -0.4448
   50MOL0     H 6862   2.205   8.059   8.280  2.1507 -2.8815  2.3817
   50MOL0     H 6863   2.380   8.177   8.127  1.3567 -0.7686 -0.5298
   50MOL0     H 6864   2.676   8.172   8.010 -2.3089 -0.2056 -2.7978
   50MOL0     H 6865   2.600   8.087   8.150  0.5851 -0.3360 -0.0014
   50MOL0     H 6866   2.674   7.873   8.066 -1.5019 -0.0830 -0.5380
   50MOL0     H 6867   2.743   7.961   7.925  0.3728 -0.9797  0.3185
   50MOL0     H 6868   2.847   7.985   8.200 -0.3911 -0.0507 -0.5211
   50MOL0     H 6869   2.893   8.086   8.064 -1.5073  0.3852  0.6990
   50MOL0     H 6870   3.055   7.922   8.106  1.2246 -0.1786 -0.2167
   50MOL0     H 6871   2.986   7.867   7.963  0.3896  2.5516  0.4170
   50MOL0     H 6872   2.881   7.756   8.232 -0.1310 -0.2941 -0.0311
   50MOL0     H 6873   2.852   7.686   8.068  1.0463  0.9098 -2.6263
   50MOL0     H 6874   3.125   7.719   8.217  1.5418 -0.7098 -2.0120
   50MOL0     H 6875   3.103   7.638   8.063  0.5584  1.7451 -1.1620
   50MOL0     H 6876   2.954   7.466   8.164 -2.1288  1.1004  1.7422
   50MOL0     H 6877   2.965   7.537   8.315  0.2759 -0.5370  0.4789
   50MOL0     H 6878   3.195   7.414   8.165  1.9390 -0.7042  1.0526
   50MOL0     H 6879   3.107   7.339   8.293 -1.9359 -0.3027 -4.3387
   50MOL0     H 6880   2.420   7.812   7.903  2.0969 -0.8338  1.4744
   50MOL0     H 6881   2.247   7.716   8.040 -1.5195  0.3331  2.2429
   50MOL0     H 6882   1.773   7.652   8.185  3.2427  1.4434 -0.1120
   50MOL0     H 6883   1.670   7.507   8.337  1.1862 -3.3873 -1.9375
   50MOL0     H 6884   0.997   7.687   9.886 -1.1118  1.2450 -1.3408
   50MOL0     H 6885   0.748   7.786   9.868  1.6562 -1.2239 -2.7249
   50MOL0     H 6886   0.347   7.826   9.991 -0.2080 -0.3213  1.0471
   50MOL0     H 6887   0.139   7.925  10.007 -1.2016 -1.8909  2.9312
   50MOL0     H 6888  -0.180   7.869   9.712  1.8707 -0.9303 -0.1109
   50MOL0     H 6889  -0.222   7.751   9.844 -1.7593  0.4665  1.2350
   50MOL0     H 6890  -0.256   8.051   9.878 -0.2424 -0.6036 -0.6111
   50MOL0     H 6891  -0.336   7.922   9.967  0.3308 -1.4108  0.4613
   50MOL0     H 6892  -0.361   7.990   9.672 -0.6155 -2.3099 -0.9627
   50MOL0     H 6893  -0.442   7.854   9.748  1.8070 -0.1027  0.2333
   50MOL0     H 6894  -0.591   7.996   9.878 -0.1821 -0.1127 -0.0573
   50MOL0     H 6895  -0.604   8.039   9.711  0.0839 -1.6768  0.4383
   50MOL0     H 6896  -0.385   8.364   9.891  0.5166 -0.2493 -1.2563
   50MOL0     H 6897  -0.027   7.631   9.750 -1.1203 -1.0544  1.5045
   50MOL0     H 6898   0.075   7.469   9.647  0.5006  2.8840 -3.0313
   50MOL0     H 6899   0.248   7.506   9.596 -0.7298  3.7268 -0.0570
   50MOL0     H 6900   0.208   7.397   9.722 -1.4934 -0.6321 -0.2161
   51MOL0     O 6901   1.363   2.006  10.718 -0.2553  0.4471  0.2167
   51MOL0     C 6902   1.285   1.913  10.747 -0.3762 -0.0600  0.0718
   51MOL0     O 6903   1.319   1.811  10.837  0.7365  0.2563  0.3039
   51MOL0     C 6904   1.450   1.796  10.877 -0.1747 -0.3635 -0.0165
   51MOL0     C 6905   1.479   1.830  11.012  0.1563 -0.3265  0.1052
   51MOL0     C 6906   1.612   1.814  11.058  0.4219 -0.2266 -0.4919
   51MOL0     C 6907   1.718   1.772  10.977  1.1881 -0.5258  0.1550
   51MOL0     O 6908   1.850   1.755  11.029  0.4743  0.2096 -0.2638
   51MOL0     C 6909   1.891   1.778  11.167 -0.0165  0.5157  0.2105
   51MOL0     C 6910   1.861   1.649  11.246 -0.5182  0.6921  0.3752
   51MOL0     C 6911   1.885   1.653  11.401 -0.1327 -0.2531 -0.5103
   51MOL0     C 6912   1.743   1.660  11.464  0.3894  0.7117 -0.2014
   51MOL0     C 6913   1.762   1.670  11.620  0.3644 -1.8401  0.4909
   51MOL0     C 6914   1.823   1.801  11.680  0.1609  0.7121  0.7419
   51MOL0     C 6915   1.824   1.794  11.827 -0.3071  0.4157  0.1611
   51MOL0     C 6916   1.875   1.921  11.901 -0.0345  0.0622 -0.1724
   51MOL0     N 6917   2.020   1.947  11.867  0.1202 -0.4067  0.1287
   51MOL0     C 6918   2.072   2.013  11.757  0.3858 -0.0713 -0.6349
   51MOL0     C 6919   2.198   2.038  11.783 -1.0939  0.5873  0.1886
   51MOL0     C 6920   2.283   2.118  11.683 -0.1521  0.7254  0.0673
   51MOL0     C 6921   2.358   2.226  11.743 -1.1176 -0.0546 -0.0219
   51MOL0     C 6922   2.422   2.311  11.633  0.1060  0.6139 -0.0185
   51MOL0     C 6923   2.505   2.439  11.671 -0.0319  0.8317  0.0006
   51MOL0     O 6924   2.601   2.400  11.763  0.0109 -1.1603 -0.7672
   51MOL0     C 6925   2.680   2.498  11.815 -0.0599 -0.5931  0.0698
   51MOL0     C 6926   2.672   2.633  11.790  1.0523 -0.0562 -0.1760
   51MOL0     C 6927   2.762   2.723  11.839 -0.2215  0.7497  0.3965
   51MOL0     C 6928   2.710   2.859  11.816 -0.7604  0.6787  0.2524
   51MOL0     C 6929   2.881   2.677  11.906  0.5811 -0.0471 -0.3037
   51MOL0     C 6930   2.987   2.766  11.968 -0.6889  0.1575 -0.2655
   51MOL0     O 6931   3.090   2.692  12.016 -0.4196  0.5513 -0.1746
   51MOL0     C 6932   3.183   2.746  12.105  0.7796  0.7931 -0.2357
   51MOL0     C 6933   3.303   2.784  12.044  0.6944 -1.1610  0.7390
   51MOL0     C 6934   3.412   2.814  12.124  0.4654  0.2620 -0.1415
   51MOL0     C 6935   3.399   2.811  12.262  0.1272 -0.1702 -0.2500
   51MOL0     O 6936   3.512   2.846  12.332  0.8204  0.1046 -0.0496
   51MOL0     C 6937   3.530   2.812  12.469  0.4968 -0.5094 -0.4139
   51MOL0     C 6938   3.581   2.945  12.528 -0.2474  1.1732  0.2946
   51MOL0     C 6939   3.463   3.042  12.568 -0.5685  0.3124 -0.8839
   51MOL0     C 6940   3.497   3.183  12.605  0.0312 -0.0585 -0.0838
   51MOL0     C 6941   3.400   3.240  12.708  0.2996  0.2097  0.7913
   51MOL0     C 6942   3.449   3.378  12.773  0.6952  1.0014  0.8763
   51MOL0     C 6943   3.348   3.416  12.880  0.5825 -0.2084 -0.0232
   51MOL0     C 6944   3.421   3.530  12.948 -0.3789  0.3264 -0.4229
   51MOL0    Cl 6945   3.331   3.590  13.093  0.4116  0.2796  0.1199
   51MOL0     C 6946   3.268   2.789  12.319 -0.2080  0.1086  0.3922
   51MOL0     C 6947   3.159   2.750  12.238  0.4271 -0.0347  0.2728
   51MOL0     O 6948   2.988   2.885  11.969 -0.8101 -0.6591 -0.7801
   51MOL0     C 6949   2.894   2.536  11.921  0.9760 -0.1777  0.2852
   51MOL0     C 6950   2.788   2.446  11.881  0.9526  0.4038  0.4769
   51MOL0     N 6951   2.226   1.999  11.912  0.9992  0.1238 -0.1394
   51MOL0     N 6952   2.116   1.938  11.956 -0.1465  0.3097 -0.2812
   51MOL0     C 6953   1.681   1.743  10.839  0.2747 -0.4028  0.0980
   51MOL0     C 6954   1.549   1.758  10.787  0.0170 -0.2758 -1.5210
   51MOL0     C 6955   1.154   1.907  10.693  1.2098  0.0064 -0.0988
   51MOL0     C 6956   1.064   1.796  10.723 -0.1321  0.3862  0.6281
   51MOL0     C 6957   0.936   1.788  10.659 -0.3356  0.1085 -0.3716
   51MOL0     C 6958   0.896   1.879  10.572  0.5089 -0.2241 -0.2436
   51MOL0     O 6959   0.769   1.874  10.524 -0.4071  0.6028  0.0139
   51MOL0     C 6960   0.747   1.809  10.402  0.0448 -0.2325  0.3373
   51MOL0     C 6961   0.649   1.690  10.414 -0.2917 -0.0215  0.0676
   51MOL0     C 6962   0.513   1.720  10.492 -0.5074 -0.5950  0.1147
   51MOL0     C 6963   0.391   1.647  10.444 -0.4279  0.9767 -0.6009
   51MOL0     C 6964   0.416   1.500  10.421  0.0569  1.1017 -0.0649
   51MOL0     C 6965   0.419   1.378  10.412  0.8658  0.6634  1.0849
   51MOL0     C 6966   0.976   1.996  10.549 -0.2103  0.0920  0.2718
   51MOL0     C 6967   1.101   2.005  10.601  0.5945 -1.4773 -0.2876
   51MOL0     C 6968   1.176   2.133  10.564 -0.1011  0.1494 -1.1301
   51MOL0     H 6969   1.404   1.875  11.075  0.8573 -1.0338  1.4753
   51MOL0     H 6970   1.628   1.838  11.163 -1.3186 -0.8809 -0.0442
   51MOL0     H 6971   1.847   1.872  11.201 -0.5125  0.3091  0.1561
   51MOL0     H 6972   1.997   1.801  11.177  0.1285 -0.9668  3.5206
   51MOL0     H 6973   1.760   1.621  11.217 -0.7258  1.6610  0.1433
   51MOL0     H 6974   1.912   1.566  11.196  0.6804  1.7594 -0.2462
   51MOL0     H 6975   1.942   1.567  11.438 -1.4976 -0.6926  0.6450
   51MOL0     H 6976   1.943   1.742  11.427 -1.1029  0.2311  0.0297
   51MOL0     H 6977   1.694   1.750  11.427  0.9830  1.5449  0.9927
   51MOL0     H 6978   1.687   1.574  11.428 -0.1331  1.2229 -0.6156
   51MOL0     H 6979   1.819   1.588  11.664 -0.3248 -1.0295  3.0645
   51MOL0     H 6980   1.661   1.676  11.660 -0.1878  0.3480 -1.0578
   51MOL0     H 6981   1.923   1.816  11.638  0.2578  1.5107  1.2601
   51MOL0     H 6982   1.761   1.886  11.651  3.0778  2.6551 -0.2230
   51MOL0     H 6983   1.889   1.708  11.848  0.1918  0.2575 -1.8213
   51MOL0     H 6984   1.720   1.775  11.852 -0.7327  1.2119 -0.9354
   51MOL0     H 6985   1.817   2.010  11.874  0.8040  0.2811 -1.3414
   51MOL0     H 6986   1.863   1.900  12.007 -3.3326 -1.9490 -0.7988
   51MOL0     H 6987   2.022   2.051  11.669 -0.7791 -0.5347 -0.1820
   51MOL0     H 6988   2.215   2.140  11.601  0.7573  0.1295 -0.8754
   51MOL0     H 6989   2.356   2.053  11.634 -0.2410  1.6171 -1.2772
   51MOL0     H 6990   2.294   2.291  11.804  0.9204  2.2659 -0.1831
   51MOL0     H 6991   2.436   2.186  11.809 -0.1764 -2.0770 -2.2435
   51MOL0     H 6992   2.486   2.241  11.580  0.6304 -0.1460  1.5460
   51MOL0     H 6993   2.346   2.339  11.560  0.4992  1.8255  0.0214
   51MOL0     H 6994   2.547   2.482  11.580 -0.4601  2.7213  0.6534
   51MOL0     H 6995   2.433   2.512  11.709 -0.8807 -1.3778  3.0251
   51MOL0     H 6996   2.590   2.678  11.734  0.6643 -0.5541 -0.0181
   51MOL0     H 6997   2.781   2.938  11.842 -2.1313  2.8494 -2.1570
   51MOL0     H 6998   2.626   2.886  11.881  0.6521  2.3719  1.4795
   51MOL0     H 6999   2.697   2.879  11.709  1.3756 -0.1814 -0.2140
   51MOL0     H 7000   3.299   2.791  11.936 -2.3564  1.9787  0.8801
   51MOL0     H 7001   3.503   2.849  12.076 -0.8275  0.2108 -2.7871
   51MOL0     H 7002   3.443   2.779  12.527  0.8664  0.3597  0.6606
   51MOL0     H 7003   3.598   2.726  12.467 -0.2716 -1.1697  0.7417
   51MOL0     H 7004   3.644   2.925  12.615  2.0394  0.9595 -1.3165
   51MOL0     H 7005   3.647   2.996  12.457 -1.0346  2.7038  0.6012
   51MOL0     H 7006   3.404   2.985  12.641  1.4899 -1.8749 -0.7741
   51MOL0     H 7007   3.395   3.048  12.482 -0.9470  0.0768 -0.6056
   51MOL0     H 7008   3.504   3.249  12.518 -0.1377  0.9008  0.6036
   51MOL0     H 7009   3.592   3.182  12.660 -1.2528 -0.8676  2.2868
   51MOL0     H 7010   3.301   3.251  12.663  1.4534 -1.9033 -2.7261
   51MOL0     H 7011   3.389   3.170  12.791 -1.4535  1.8937  2.0529
   51MOL0     H 7012   3.479   3.459  12.706  4.0377 -0.9097 -0.1700
   51MOL0     H 7013   3.543   3.345  12.817  1.3225 -1.5145 -2.0103
   51MOL0     H 7014   3.320   3.334  12.947 -0.2473 -0.5560 -0.7757
   51MOL0     H 7015   3.257   3.466  12.845 -0.3067 -1.3644  0.5528
   51MOL0     H 7016   3.445   3.616  12.884 -4.1628  1.4468 -0.6399
   51MOL0     H 7017   3.518   3.507  12.992  1.0874  2.4201 -2.3105
   51MOL0     H 7018   3.259   2.804  12.426 -2.8538 -1.2984  0.4625
   51MOL0     H 7019   3.066   2.737  12.292  2.5492  1.7042  4.8710
   51MOL0     H 7020   2.979   2.478  11.955  0.3907 -0.6431  0.9907
   51MOL0     H 7021   2.799   2.338  11.886  1.0797  0.3683 -0.5204
   51MOL0     H 7022   1.749   1.704  10.764  0.5698 -0.9230  0.6259
   51MOL0     H 7023   1.528   1.711  10.692  0.2723 -0.9569 -1.2559
   51MOL0     H 7024   1.096   1.717  10.791 -2.1179  0.4127  1.6554
   51MOL0     H 7025   0.875   1.705  10.693 -1.8157  0.3584 -2.2467
   51MOL0     H 7026   0.726   1.882  10.323 -0.0127 -1.6253 -0.9810
   51MOL0     H 7027   0.842   1.766  10.369 -0.5818 -1.5389  0.1756
   51MOL0     H 7028   0.700   1.610  10.467  0.5566 -1.0698 -2.1890
   51MOL0     H 7029   0.626   1.651  10.314  1.8944 -1.7667  0.1857
   51MOL0     H 7030   0.513   1.686  10.596 -0.9569 -2.1613 -0.3670
   51MOL0     H 7031   0.486   1.826  10.495 -0.7909 -0.6756  2.1387
   51MOL0     H 7032   0.332   1.684  10.359 -0.2988 -1.5779 -1.8982
   51MOL0     H 7033   0.330   1.666  10.533  0.4424  3.4107 -0.4602
   51MOL0     H 7034   0.403   1.272  10.418 -0.5240  0.9143  2.5040
   51MOL0     H 7035   0.937   2.070  10.480 -1.2713 -1.4688 -0.8816
   51MOL0     H 7036   1.231   2.176  10.648  0.7295  1.7671 -2.4329
   51MOL0     H 7037   1.249   2.104  10.488 -0.0837 -1.6652 -0.4685
   51MOL0     H 7038   1.120   2.212  10.511  1.7659  0.5816 -2.5653
   52MOL0     O 7039   0.898   2.320   3.984 -0.2285  0.4515  0.1264
   52MOL0     C 7040   0.873   2.271   3.868 -0.8121  0.6779 -0.1958
   52MOL0     O 7041   0.775   2.314   3.784  0.2122 -0.0788 -0.2834
   52MOL0     C 7042   0.677   2.407   3.810 -0.1115 -0.0330 -0.1648
   52MOL0     C 7043   0.567   2.410   3.719 -0.7176 -0.0140  0.2431
   52MOL0     C 7044   0.463   2.498   3.739 -0.7658 -0.6973 -0.0713
   52MOL0     C 7045   0.461   2.582   3.845  0.0117  0.2897  0.7076
   52MOL0     O 7046   0.350   2.658   3.872  0.0277  0.2159  0.2647
   52MOL0     C 7047   0.322   2.694   3.998 -0.4743 -0.0050 -0.8539
   52MOL0     C 7048   0.164   2.700   4.018 -0.0385 -0.0433 -0.5559
   52MOL0     C 7049   0.104   2.833   4.058  0.0997  0.5573  1.3477
   52MOL0     C 7050  -0.029   2.821   4.131  0.2425  0.8337  0.0006
   52MOL0     C 7051  -0.051   2.968   4.163 -0.1399 -0.7870 -0.4434
   52MOL0     C 7052  -0.176   2.999   4.240 -0.8769  0.4084  0.4525
   52MOL0     C 7053  -0.215   3.147   4.253  0.7407 -0.1227 -0.2633
   52MOL0     C 7054  -0.108   3.250   4.286 -1.4049  0.2758  0.1396
   52MOL0     N 7055  -0.030   3.208   4.405  0.8144  0.0432 -0.6539
   52MOL0     C 7056  -0.080   3.183   4.530  1.1881 -0.5208 -0.0865
   52MOL0     C 7057   0.023   3.157   4.605 -0.2138  0.3789  0.1701
   52MOL0     C 7058   0.024   3.133   4.753  1.2387 -0.4119  0.0156
   52MOL0     C 7059   0.160   3.143   4.818  0.8691  1.1305  0.6621
   52MOL0     C 7060   0.240   3.011   4.812  0.0035 -0.6981 -0.8548
   52MOL0     C 7061   0.385   3.035   4.865 -1.0244 -0.3051 -0.1280
   52MOL0     O 7062   0.448   2.908   4.877 -0.3077  0.5487  0.4615
   52MOL0     C 7063   0.573   2.887   4.925  0.1483 -0.7070 -0.0934
   52MOL0     C 7064   0.643   2.985   5.002  0.0273  0.1667 -0.2557
   52MOL0     C 7065   0.772   2.958   5.051 -0.3575  0.3599  0.9004
   52MOL0     C 7066   0.828   3.050   5.150  0.2523 -0.5749  0.0947
   52MOL0     C 7067   0.843   2.844   4.995  0.2841  0.3008  0.5100
   52MOL0     C 7068   0.991   2.822   4.990  0.2120  0.7019  0.5761
   52MOL0     O 7069   1.038   2.692   4.977 -0.3225  0.0828  0.0426
   52MOL0     C 7070   1.168   2.679   4.940  1.2508 -0.3354  0.7932
   52MOL0     C 7071   1.195   2.624   4.812 -0.2741  0.2380  0.1071
   52MOL0     C 7072   1.328   2.597   4.781 -0.0876 -0.2369 -0.0982
   52MOL0     C 7073   1.432   2.620   4.867 -0.4939 -0.5197  0.1424
   52MOL0     O 7074   1.558   2.578   4.832  0.6111  0.9680 -0.3502
   52MOL0     C 7075   1.624   2.668   4.741 -0.5036 -0.3317 -0.1874
   52MOL0     C 7076   1.769   2.627   4.733 -0.1311  0.1014 -0.3196
   52MOL0     C 7077   1.848   2.689   4.619 -0.1596  0.4443 -0.0834
   52MOL0     C 7078   1.992   2.636   4.638  0.2322 -0.0579  0.0521
   52MOL0     C 7079   2.004   2.504   4.560 -0.5333 -0.2985  0.1955
   52MOL0     C 7080   2.123   2.417   4.602  0.2665  0.8757  0.3444
   52MOL0     C 7081   2.256   2.463   4.546 -0.7057  0.4914  0.7212
   52MOL0     C 7082   2.323   2.364   4.455  0.2717  0.9749  0.1232
   52MOL0    Cl 7083   2.283   2.396   4.286  0.6259 -0.6377 -0.1158
   52MOL0     C 7084   1.411   2.693   4.984  0.4279  0.4060 -0.6195
   52MOL0     C 7085   1.274   2.709   5.030  0.1495 -0.1140  0.9518
   52MOL0     O 7086   1.059   2.920   5.015 -0.4385  0.4195  0.0337
   52MOL0     C 7087   0.761   2.742   4.935 -0.3637 -0.5317 -0.0590
   52MOL0     C 7088   0.629   2.761   4.899 -0.3508  0.3049  0.4866
   52MOL0     N 7089   0.141   3.173   4.537  0.4681  0.4132 -0.7202
   52MOL0     N 7090   0.105   3.211   4.421 -0.1538  0.3376  0.1978
   52MOL0     C 7091   0.566   2.588   3.936 -1.2212  0.5873 -0.3943
   52MOL0     C 7092   0.668   2.494   3.927 -0.3707 -0.0074  0.3055
   52MOL0     C 7093   0.920   2.130   3.829 -0.3771 -0.9866  0.4924
   52MOL0     C 7094   0.874   2.066   3.713 -0.3467 -0.1415 -1.3469
   52MOL0     C 7095   0.912   1.938   3.675 -0.5806  0.7789 -0.8101
   52MOL0     C 7096   0.992   1.869   3.763 -0.4963  1.0497  0.7423
   52MOL0     O 7097   1.053   1.748   3.739  0.4143 -0.4997 -0.3643
   52MOL0     C 7098   1.117   1.736   3.612  0.5118 -0.0480  0.1065
   52MOL0     C 7099   1.235   1.830   3.592 -0.0750 -0.4146  0.0854
   52MOL0     C 7100   1.345   1.817   3.708  0.1700  0.4174 -0.3475
   52MOL0     C 7101   1.399   1.677   3.713 -0.2390  0.0577 -0.5006
   52MOL0     C 7102   1.532   1.688   3.770  0.6666 -0.2535 -0.1703
   52MOL0     C 7103   1.647   1.702   3.812 -0.2697  0.1098 -0.4229
   52MOL0     C 7104   1.036   1.925   3.879 -0.1263  0.7761 -1.0261
   52MOL0     C 7105   1.012   2.050   3.914 -0.7678 -0.7066 -0.3682
   52MOL0     C 7106   1.052   2.098   4.049  0.2790  0.4310  0.0975
   52MOL0     H 7107   0.562   2.341   3.635 -1.9991 -2.0840  1.9156
   52MOL0     H 7108   0.378   2.501   3.671 -0.0425  3.8121 -1.0912
   52MOL0     H 7109   0.380   2.785   4.011  0.3586 -0.8232  1.7110
   52MOL0     H 7110   0.369   2.630   4.073 -0.9835  0.0304 -0.4995
   52MOL0     H 7111   0.111   2.664   3.930 -2.6413 -1.1600  1.3557
   52MOL0     H 7112   0.134   2.630   4.096  1.8446  1.4410  1.6333
   52MOL0     H 7113   0.176   2.879   4.127 -1.3684 -0.3501  3.5720
   52MOL0     H 7114   0.091   2.884   3.961 -0.0950 -3.1494 -0.7543
   52MOL0     H 7115  -0.108   2.776   4.070 -0.7575  1.0051  1.1325
   52MOL0     H 7116  -0.036   2.758   4.221 -0.2211 -0.3319 -0.8246
   52MOL0     H 7117  -0.043   3.031   4.074 -1.6259  1.8950  1.1826
   52MOL0     H 7118   0.034   3.005   4.222 -0.2020 -1.6218  0.1865
   52MOL0     H 7119  -0.267   2.945   4.214 -1.0499  0.7989  0.2417
   52MOL0     H 7120  -0.154   2.956   4.338 -1.4858  1.3275  1.0091
   52MOL0     H 7121  -0.297   3.154   4.324  0.5237  1.1577 -0.6103
   52MOL0     H 7122  -0.253   3.191   4.161  0.3592  1.2479  0.5227
   52MOL0     H 7123  -0.036   3.237   4.205  0.0528  0.2547  1.3934
   52MOL0     H 7124  -0.147   3.351   4.294 -2.2856 -0.1630  1.9700
   52MOL0     H 7125  -0.183   3.196   4.563  1.0746 -0.1044 -0.5739
   52MOL0     H 7126  -0.033   3.041   4.769 -0.6651  0.2145 -2.5415
   52MOL0     H 7127  -0.033   3.215   4.799  0.3152 -2.5971  3.1732
   52MOL0     H 7128   0.215   3.228   4.777  2.4261 -0.5586 -0.9507
   52MOL0     H 7129   0.139   3.164   4.923 -0.6023  3.1334  0.0209
   52MOL0     H 7130   0.190   2.927   4.861  2.0442 -1.7340 -0.4724
   52MOL0     H 7131   0.245   2.991   4.705  0.4876  0.1558 -1.0031
   52MOL0     H 7132   0.439   3.096   4.793  0.5770 -2.4909 -0.8807
   52MOL0     H 7133   0.387   3.081   4.964 -0.1535 -0.0040 -0.2792
   52MOL0     H 7134   0.597   3.078   5.031  0.7095  0.1584  0.9501
   52MOL0     H 7135   0.744   3.087   5.209 -1.7456 -1.7021 -1.8825
   52MOL0     H 7136   0.864   3.138   5.095  1.5822  1.5671  3.9746
   52MOL0     H 7137   0.905   3.000   5.209  0.4197 -1.9567 -1.2458
   52MOL0     H 7138   1.113   2.608   4.742  0.5994 -0.2303 -0.8364
   52MOL0     H 7139   1.344   2.559   4.681 -0.5942 -3.1821  0.8479
   52MOL0     H 7140   1.571   2.659   4.646  0.9377  0.8236 -1.1501
   52MOL0     H 7141   1.614   2.773   4.770 -1.7146 -0.6320  0.5384
   52MOL0     H 7142   1.809   2.658   4.829  0.8750 -0.9095 -0.3955
   52MOL0     H 7143   1.775   2.518   4.737  3.1654  0.2110  2.5404
   52MOL0     H 7144   1.838   2.798   4.620  0.3492  0.5217 -1.6006
   52MOL0     H 7145   1.816   2.650   4.522  2.4027  2.2994 -1.7896
   52MOL0     H 7146   2.016   2.615   4.742  3.7296  0.5786 -0.4993
   52MOL0     H 7147   2.067   2.706   4.599 -0.1973  0.6164  0.4091
   52MOL0     H 7148   1.911   2.448   4.566 -3.2709  3.9060  0.9746
   52MOL0     H 7149   2.016   2.530   4.455 -2.2537 -2.0223 -0.4820
   52MOL0     H 7150   2.096   2.318   4.564 -0.5208  2.1399 -2.7219
   52MOL0     H 7151   2.124   2.412   4.711 -1.7768 -0.3695  0.3621
   52MOL0     H 7152   2.327   2.468   4.629  1.3309 -0.0046 -0.9040
   52MOL0     H 7153   2.248   2.562   4.500  1.5316 -0.9096 -3.1945
   52MOL0     H 7154   2.305   2.260   4.482 -2.1831  1.6606  1.4816
   52MOL0     H 7155   2.429   2.385   4.469  0.1909  1.4507  0.0565
   52MOL0     H 7156   1.493   2.724   5.047 -0.5641  0.2028  0.8080
   52MOL0     H 7157   1.261   2.753   5.128 -2.5824 -0.5002  0.8412
   52MOL0     H 7158   0.804   2.653   4.891 -0.7095 -0.6518 -0.1618
   52MOL0     H 7159   0.574   2.687   4.843  1.2063  0.2824 -1.0919
   52MOL0     H 7160   0.569   2.659   4.018  0.0327  2.5267 -2.0144
   52MOL0     H 7161   0.755   2.498   3.991  1.4843 -4.8695 -1.3992
   52MOL0     H 7162   0.807   2.116   3.644  1.3405  0.0845 -2.8764
   52MOL0     H 7163   0.885   1.894   3.580  3.7988 -2.3609 -0.9007
   52MOL0     H 7164   1.144   1.631   3.597 -2.0059 -0.9690  1.3554
   52MOL0     H 7165   1.050   1.751   3.527  0.2252  1.9759  0.6404
   52MOL0     H 7166   1.216   1.936   3.573  2.0672  0.2308  1.2020
   52MOL0     H 7167   1.273   1.796   3.495 -0.9002  2.0287 -1.1891
   52MOL0     H 7168   1.427   1.888   3.691  0.9766 -0.5734 -0.7119
   52MOL0     H 7169   1.302   1.841   3.806  2.6020 -1.3383  1.2804
   52MOL0     H 7170   1.409   1.641   3.611  1.1210 -0.7870 -0.0930
   52MOL0     H 7171   1.332   1.618   3.777  0.2892  1.6778  1.6777
   52MOL0     H 7172   1.742   1.715   3.860 -0.8173  1.7209  0.2925
   52MOL0     H 7173   1.102   1.858   3.933  1.8889  2.9299 -0.6916
   52MOL0     H 7174   1.131   2.036   4.093  0.7906  0.4350 -0.7994
   52MOL0     H 7175   1.101   2.195   4.041 -2.1832  1.6236 -2.1071
   52MOL0     H 7176   0.959   2.098   4.107 -0.2575 -2.9654 -0.5001
   53MOL0     O 7177   7.881   4.512   1.501 -0.4431  0.0284  0.0482
   53MOL0     C 7178   7.966   4.586   1.453 -0.5167  0.7981 -0.1864
   53MOL0     O 7179   7.954   4.653   1.335 -0.2490  0.3286 -0.1085
   53MOL0     C 7180   7.848   4.649   1.248 -0.4658  0.2313 -0.2429
   53MOL0     C 7181   7.885   4.698   1.132 -0.9510 -0.4975  1.4893
   53MOL0     C 7182   7.798   4.703   1.023 -0.0117 -0.4772  0.6740
   53MOL0     C 7183   7.667   4.654   1.033 -0.3654 -0.5572 -0.0377
   53MOL0     O 7184   7.573   4.658   0.937 -0.2436 -0.1041  0.3874
   53MOL0     C 7185   7.610   4.708   0.802 -1.0454  0.5756  0.6498
   53MOL0     C 7186   7.486   4.762   0.740  0.5218 -0.1849  0.8973
   53MOL0     C 7187   7.497   4.771   0.592  0.3799 -0.2822  0.6757
   53MOL0     C 7188   7.365   4.814   0.522 -0.3618  0.3116  0.2852
   53MOL0     C 7189   7.391   4.870   0.375 -1.0059  0.2758  0.7675
   53MOL0     C 7190   7.483   4.985   0.342 -0.5092 -0.3236  0.4049
   53MOL0     C 7191   7.434   5.119   0.379  0.0232  0.2997  0.6244
   53MOL0     C 7192   7.506   5.161   0.505  0.3483  0.3064 -0.7210
   53MOL0     N 7193   7.469   5.301   0.546 -0.4096 -0.4805  0.0495
   53MOL0     C 7194   7.366   5.380   0.506  1.3993  0.2977 -1.4555
   53MOL0     C 7195   7.390   5.498   0.575  0.0575 -0.0403 -0.3149
   53MOL0     C 7196   7.311   5.624   0.555  0.5546  0.2623  0.5204
   53MOL0     C 7197   7.330   5.722   0.668  0.4635 -0.1208  0.6668
   53MOL0     C 7198   7.236   5.846   0.646  0.0482  0.0832  0.2545
   53MOL0     C 7199   7.233   5.938   0.768  1.5350  0.0292  0.3588
   53MOL0     O 7200   7.346   6.027   0.761  0.2932  0.6605 -0.0517
   53MOL0     C 7201   7.353   6.142   0.840  0.6388  0.2309 -0.1290
   53MOL0     C 7202   7.253   6.176   0.931 -0.1177 -0.0742 -0.2238
   53MOL0     C 7203   7.264   6.291   1.009 -0.6097 -0.8404 -0.0291
   53MOL0     C 7204   7.147   6.322   1.101 -1.2491  0.0036  0.2810
   53MOL0     C 7205   7.384   6.370   1.003 -1.1645  0.6508  0.4241
   53MOL0     C 7206   7.423   6.486   1.094  0.8009  0.3579 -0.8029
   53MOL0     O 7207   7.535   6.557   1.077 -0.5587  0.0492  0.1988
   53MOL0     C 7208   7.562   6.678   1.145  0.8200 -0.6035  0.0544
   53MOL0     C 7209   7.499   6.735   1.259 -0.4244 -0.5639  0.3535
   53MOL0     C 7210   7.546   6.854   1.307 -0.8466  0.5227 -1.3277
   53MOL0     C 7211   7.665   6.909   1.253  0.0425 -0.6614  0.3736
   53MOL0     O 7212   7.710   7.036   1.296  0.2887  0.8193 -0.1757
   53MOL0     C 7213   7.844   7.034   1.345 -0.3197 -0.2201  0.2199
   53MOL0     C 7214   7.880   7.184   1.390 -0.1710  0.8931 -0.5522
   53MOL0     C 7215   7.973   7.190   1.509  0.2012 -0.1772  0.4610
   53MOL0     C 7216   8.009   7.333   1.562  0.2280 -0.0267  0.5995
   53MOL0     C 7217   8.134   7.334   1.652  0.0530 -0.6852  0.5251
   53MOL0     C 7218   8.186   7.479   1.671  0.1708  0.2913 -1.4062
   53MOL0     C 7219   8.240   7.549   1.551  0.0106 -0.7501  0.4820
   53MOL0     C 7220   8.345   7.471   1.473 -0.4283  0.1361 -0.5441
   53MOL0    Cl 7221   8.495   7.442   1.568  0.0436 -0.1433 -0.4229
   53MOL0     C 7222   7.733   6.855   1.149 -0.6986  0.5165 -0.3648
   53MOL0     C 7223   7.687   6.732   1.103  0.6066 -0.5644  0.1657
   53MOL0     O 7224   7.355   6.501   1.197  0.3855  0.3339  0.6603
   53MOL0     C 7225   7.490   6.321   0.924 -0.5877  0.9381  0.2500
   53MOL0     C 7226   7.470   6.214   0.833 -1.0552 -0.1889 -0.2596
   53MOL0     N 7227   7.506   5.499   0.652 -0.3400 -0.3240  0.6733
   53MOL0     N 7228   7.547   5.374   0.643  0.3921 -0.0033  0.1910
   53MOL0     C 7229   7.629   4.612   1.160  1.0939  0.7001  0.4252
   53MOL0     C 7230   7.717   4.614   1.263  0.1126 -0.3524  0.5158
   53MOL0     C 7231   8.102   4.600   1.515  0.4456  0.0267 -0.4704
   53MOL0     C 7232   8.196   4.671   1.447  0.2164 -0.2407  0.7471
   53MOL0     C 7233   8.324   4.697   1.506  0.0503 -0.0152 -0.4845
   53MOL0     C 7234   8.352   4.655   1.633 -0.4769 -0.4460 -0.5307
   53MOL0     O 7235   8.468   4.680   1.699 -0.0578 -0.5152 -0.6643
   53MOL0     C 7236   8.572   4.588   1.659 -0.0303  0.9301  0.1103
   53MOL0     C 7237   8.684   4.646   1.576  0.8038 -0.5692  0.7194
   53MOL0     C 7238   8.733   4.778   1.629  1.2857  0.3082 -0.7662
   53MOL0     C 7239   8.839   4.852   1.556  0.2592 -0.5534  0.4199
   53MOL0     C 7240   8.964   4.775   1.551 -0.4036  0.6319  0.5439
   53MOL0     C 7241   9.067   4.718   1.521 -0.5974 -0.1014 -0.9530
   53MOL0     C 7242   8.259   4.583   1.704  0.6354 -0.1304  0.2753
   53MOL0     C 7243   8.140   4.548   1.640 -0.6132  0.0114 -0.4952
   53MOL0     C 7244   8.042   4.467   1.718 -0.5483  0.1078 -0.0411
   53MOL0     H 7245   7.980   4.744   1.107 -1.8089  0.3509 -0.3660
   53MOL0     H 7246   7.832   4.753   0.933  2.0382 -0.2671  1.5026
   53MOL0     H 7247   7.649   4.619   0.750 -0.7708  1.2478 -0.3378
   53MOL0     H 7248   7.680   4.792   0.803  0.7771 -0.8385 -0.5051
   53MOL0     H 7249   7.408   4.690   0.765  0.4261  0.3158  2.1102
   53MOL0     H 7250   7.460   4.863   0.775  2.0761  0.5347  0.0860
   53MOL0     H 7251   7.574   4.844   0.563  0.5316 -0.3433  0.9229
   53MOL0     H 7252   7.526   4.669   0.566  0.5542 -0.7963  2.7211
   53MOL0     H 7253   7.298   4.728   0.528 -0.3440  0.3715  1.9740
   53MOL0     H 7254   7.325   4.904   0.570  0.8719  3.7599 -4.4724
   53MOL0     H 7255   7.292   4.889   0.330 -1.3175  1.6083  1.9404
   53MOL0     H 7256   7.427   4.786   0.315 -0.6940  0.4211  0.7501
   53MOL0     H 7257   7.586   4.966   0.375 -0.3600  1.2641  0.9212
   53MOL0     H 7258   7.487   4.984   0.233 -1.2610 -0.9394  0.3760
   53MOL0     H 7259   7.325   5.122   0.387 -0.0608  4.1787 -0.3605
   53MOL0     H 7260   7.456   5.181   0.292 -0.7133  1.3850  1.1924
   53MOL0     H 7261   7.487   5.101   0.595  0.9927  0.5434 -0.4215
   53MOL0     H 7262   7.614   5.146   0.495  0.5262 -0.3536  1.4813
   53MOL0     H 7263   7.273   5.354   0.456  0.1855  2.5035 -0.4474
   53MOL0     H 7264   7.208   5.595   0.535  0.0794  0.7008  2.1938
   53MOL0     H 7265   7.352   5.681   0.471 -0.7571  1.2059  0.4900
   53MOL0     H 7266   7.305   5.672   0.762 -4.0284 -0.7586 -0.6106
   53MOL0     H 7267   7.433   5.756   0.670  0.3760  0.2125  3.3857
   53MOL0     H 7268   7.270   5.900   0.557  0.6833 -1.3814 -0.4161
   53MOL0     H 7269   7.133   5.813   0.630 -0.8112  3.2455 -1.7795
   53MOL0     H 7270   7.132   5.981   0.770  0.1985 -2.8084  3.2211
   53MOL0     H 7271   7.229   5.870   0.854 -2.4694 -2.4488 -1.4961
   53MOL0     H 7272   7.159   6.121   0.933  2.5540 -5.3930 -0.8152
   53MOL0     H 7273   7.161   6.284   1.203 -1.3673  0.0304  0.3066
   53MOL0     H 7274   7.056   6.278   1.061 -1.4560 -0.7965  1.5507
   53MOL0     H 7275   7.140   6.429   1.119  0.5234  0.0464  0.9341
   53MOL0     H 7276   7.405   6.700   1.302 -1.3502  0.8624 -0.4492
   53MOL0     H 7277   7.493   6.903   1.389  1.5949 -0.5562  1.0762
   53MOL0     H 7278   7.860   6.951   1.415 -1.8493 -0.0194  0.8488
   53MOL0     H 7279   7.914   7.011   1.264 -0.4454  0.6986 -0.1601
   53MOL0     H 7280   7.935   7.225   1.305  2.1627 -2.4445 -0.8273
   53MOL0     H 7281   7.785   7.233   1.414 -1.1686 -1.2921  0.2325
   53MOL0     H 7282   8.064   7.140   1.472 -0.1772 -0.4861 -0.0643
   53MOL0     H 7283   7.926   7.132   1.589  0.1119  0.4048  0.8305
   53MOL0     H 7284   7.928   7.368   1.627 -0.8067 -0.1690 -0.5798
   53MOL0     H 7285   8.017   7.409   1.483 -0.6244  0.8319  1.3176
   53MOL0     H 7286   8.104   7.303   1.752  1.9773 -1.4416  0.9140
   53MOL0     H 7287   8.214   7.268   1.617 -3.0518 -2.6315 -3.8284
   53MOL0     H 7288   8.274   7.474   1.735  0.6520  2.6612 -1.8128
   53MOL0     H 7289   8.108   7.538   1.719 -0.0603 -0.4515 -0.8568
   53MOL0     H 7290   8.281   7.645   1.585 -1.7182 -0.3364  1.5258
   53MOL0     H 7291   8.166   7.574   1.475 -0.8213  0.4428  1.6368
   53MOL0     H 7292   8.369   7.530   1.384  1.7538 -0.6754 -0.5629
   53MOL0     H 7293   8.306   7.374   1.442 -0.5114 -0.0572  0.1439
   53MOL0     H 7294   7.824   6.894   1.105 -0.4898 -1.9472 -2.3973
   53MOL0     H 7295   7.750   6.690   1.026  1.1850 -2.0731  1.4074
   53MOL0     H 7296   7.586   6.371   0.918 -0.8078  1.2238 -1.1498
   53MOL0     H 7297   7.547   6.180   0.765  0.0578 -0.5557  1.1445
   53MOL0     H 7298   7.528   4.580   1.187  1.0687 -0.4539 -0.9160
   53MOL0     H 7299   7.683   4.583   1.361  2.1149  0.7290  1.6122
   53MOL0     H 7300   8.176   4.708   1.347 -2.3515  1.7570  1.8735
   53MOL0     H 7301   8.394   4.746   1.440  1.0333  0.3033  0.7550
   53MOL0     H 7302   8.626   4.547   1.745  4.1156  3.4019 -1.0611
   53MOL0     H 7303   8.534   4.501   1.606  0.8340 -1.4625  3.1327
   53MOL0     H 7304   8.648   4.669   1.475  2.2892  3.9333  0.9950
   53MOL0     H 7305   8.770   4.578   1.569  1.3503  0.2206 -0.5200
   53MOL0     H 7306   8.643   4.840   1.629  1.0153 -0.0791 -0.8028
   53MOL0     H 7307   8.771   4.766   1.732  0.4389  1.6793 -0.2717
   53MOL0     H 7308   8.861   4.950   1.599 -0.0319 -1.2283  2.1947
   53MOL0     H 7309   8.804   4.862   1.453 -1.1574 -3.9811  0.4264
   53MOL0     H 7310   9.154   4.655   1.523  0.4348  1.2634 -0.4392
   53MOL0     H 7311   8.294   4.554   1.803  2.9831 -1.7123 -0.9180
   53MOL0     H 7312   8.027   4.374   1.662  2.1019  1.8852 -4.1631
   53MOL0     H 7313   8.088   4.441   1.814  2.8703 -0.6057 -1.7190
   53MOL0     H 7314   7.951   4.525   1.733 -0.0424  0.8010  0.3608
   54MOL0     O 7315   8.512   3.754   0.204  0.2845  0.0220  0.2262
   54MOL0     C 7316   8.482   3.796   0.321  0.6976  1.6645  0.0036
   54MOL0     O 7317   8.539   3.903   0.374  0.7373  0.5616  0.1353
   54MOL0     C 7318   8.598   3.998   0.292 -0.2666 -0.1634 -0.2481
   54MOL0     C 7319   8.555   4.022   0.159 -0.6904  0.0960 -0.6629
   54MOL0     C 7320   8.596   4.132   0.089 -0.0063 -0.5569 -0.0978
   54MOL0     C 7321   8.686   4.226   0.144 -0.4885  0.2969 -0.8679
   54MOL0     O 7322   8.710   4.341   0.070  0.2336  0.0442 -0.2379
   54MOL0     C 7323   8.846   4.380   0.078 -0.5201  0.0351 -1.0222
   54MOL0     C 7324   8.899   4.461  -0.040 -0.1550 -0.6542 -0.2317
   54MOL0     C 7325   8.977   4.589   0.002  0.2665 -0.5004 -0.2255
   54MOL0     C 7326   9.042   4.641  -0.123  0.2166  0.2629 -1.0049
   54MOL0     C 7327   9.137   4.749  -0.105  0.5868 -1.3455  0.2086
   54MOL0     C 7328   9.279   4.680  -0.093  0.6269 -0.3336  0.0499
   54MOL0     C 7329   9.378   4.773  -0.038 -0.4162 -0.5431  0.0833
   54MOL0     C 7330   9.406   4.919  -0.098  0.0208  1.2215 -0.3543
   54MOL0     N 7331   9.449   4.922  -0.242 -0.1878 -0.0281 -0.3688
   54MOL0     C 7332   9.577   4.885  -0.291  0.3226 -0.1723 -0.5667
   54MOL0     C 7333   9.556   4.905  -0.422  0.4593 -0.2429  0.4091
   54MOL0     C 7334   9.648   4.863  -0.538  0.1609  0.4934  0.6687
   54MOL0     C 7335   9.795   4.893  -0.512 -0.5640 -0.4575 -1.5078
   54MOL0     C 7336   9.880   4.820  -0.625 -0.0143  0.5900  0.9654
   54MOL0     C 7337  10.029   4.834  -0.634 -0.9486  0.1499  0.1567
   54MOL0     O 7338  10.079   4.774  -0.515  0.3409 -0.7051 -0.4033
   54MOL0     C 7339  10.209   4.760  -0.496 -0.2758  0.1712 -0.4154
   54MOL0     C 7340  10.254   4.715  -0.373 -0.1561 -0.0211 -0.2185
   54MOL0     C 7341  10.381   4.701  -0.341 -0.1409 -0.1553 -0.4339
   54MOL0     C 7342  10.410   4.647  -0.205 -0.5082  0.2646 -0.2387
   54MOL0     C 7343  10.480   4.733  -0.430  0.1805  0.0546  0.1074
   54MOL0     C 7344  10.626   4.730  -0.398 -0.4580  0.2340  0.0266
   54MOL0     O 7345  10.701   4.679  -0.494  0.3932  0.5941 -0.3292
   54MOL0     C 7346  10.835   4.689  -0.485  0.1127 -0.1111 -0.0977
   54MOL0     C 7347  10.914   4.577  -0.504 -0.6285  0.3543  0.3765
   54MOL0     C 7348  11.055   4.580  -0.486  0.1950 -0.8937  0.0237
   54MOL0     C 7349  11.118   4.704  -0.457 -0.1032 -0.3183  0.9243
   54MOL0     O 7350  11.253   4.709  -0.437  0.6744 -0.2409  0.2317
   54MOL0     C 7351  11.311   4.621  -0.336  0.1446 -0.0825 -0.2049
   54MOL0     C 7352  11.449   4.647  -0.299  0.3870 -0.6193 -0.0825
   54MOL0     C 7353  11.479   4.538  -0.195 -0.0446  0.1598  0.0617
   54MOL0     C 7354  11.619   4.559  -0.137  0.6261 -0.3297 -0.5347
   54MOL0     C 7355  11.683   4.445  -0.057 -0.4569 -0.3899 -0.2186
   54MOL0     C 7356  11.626   4.434   0.077  0.2016  0.0552  1.0022
   54MOL0     C 7357  11.694   4.331   0.173  0.0295  0.3374 -0.4524
   54MOL0     C 7358  11.692   4.198   0.102 -0.3177  0.3022 -0.3797
   54MOL0    Cl 7359  11.722   4.065   0.215 -0.2108  0.3658  0.4802
   54MOL0     C 7360  11.031   4.818  -0.440 -0.3270 -0.3276  0.2719
   54MOL0     C 7361  10.894   4.814  -0.458 -0.7629 -0.3806  0.2646
   54MOL0     O 7362  10.667   4.783  -0.294 -0.2374 -0.5362 -0.3833
   54MOL0     C 7363  10.441   4.781  -0.560  0.2727 -0.1692 -0.3152
   54MOL0     C 7364  10.304   4.808  -0.587 -0.5591 -0.0479  0.4778
   54MOL0     N 7365   9.438   4.968  -0.446 -0.0739 -0.4859 -0.4932
   54MOL0     N 7366   9.376   4.964  -0.343 -0.1391 -0.9936 -0.5081
   54MOL0     C 7367   8.729   4.206   0.277  0.2747 -0.3674 -0.2905
   54MOL0     C 7368   8.691   4.085   0.346  0.5697 -0.1029 -0.2135
   54MOL0     C 7369   8.394   3.719   0.407  0.7155  0.3809 -0.2884
   54MOL0     C 7370   8.374   3.754   0.545  0.0186 -0.0021 -0.6774
   54MOL0     C 7371   8.271   3.696   0.624 -0.1292 -0.4813 -1.0310
   54MOL0     C 7372   8.191   3.597   0.575  0.6810 -0.3377  0.9307
   54MOL0     O 7373   8.083   3.538   0.647 -0.5270  0.2079  0.1683
   54MOL0     C 7374   8.081   3.389   0.653 -0.6720 -0.2599 -0.3733
   54MOL0     C 7375   7.960   3.334   0.581 -0.3168 -0.4289 -0.2407
   54MOL0     C 7376   7.828   3.394   0.646 -0.1303  0.6220  0.3331
   54MOL0     C 7377   7.707   3.326   0.596  0.3032  0.0293  0.7431
   54MOL0     C 7378   7.692   3.317   0.454  0.3970  0.0924  0.6517
   54MOL0     C 7379   7.683   3.306   0.333  0.0858  0.6333 -0.0754
   54MOL0     C 7380   8.220   3.551   0.447  0.0339 -0.2742  0.3350
   54MOL0     C 7381   8.319   3.606   0.360 -0.4535  0.1405  1.2413
   54MOL0     C 7382   8.331   3.550   0.212  0.3886  0.3043 -0.8780
   54MOL0     H 7383   8.468   3.971   0.120  0.3319 -0.9090 -1.7362
   54MOL0     H 7384   8.550   4.163  -0.004  0.7715 -1.2264 -0.7166
   54MOL0     H 7385   8.913   4.294   0.092 -0.4468  0.0391 -1.3534
   54MOL0     H 7386   8.871   4.443   0.164  0.7977  0.4959 -1.7073
   54MOL0     H 7387   8.974   4.397  -0.087  1.3813 -0.9156  2.3910
   54MOL0     H 7388   8.819   4.489  -0.109  1.1869  3.3604 -0.3605
   54MOL0     H 7389   8.907   4.664   0.039 -0.2869 -0.4478 -1.3419
   54MOL0     H 7390   9.047   4.569   0.083 -0.7137 -1.8961  0.3089
   54MOL0     H 7391   9.090   4.562  -0.181  1.6102  0.1260  0.2713
   54MOL0     H 7392   8.956   4.681  -0.178 -1.7134  0.8269  2.1610
   54MOL0     H 7393   9.112   4.805  -0.014 -0.8420 -1.3853 -0.1465
   54MOL0     H 7394   9.135   4.818  -0.190 -0.9108  0.0263  1.2858
   54MOL0     H 7395   9.280   4.583  -0.044 -4.5761 -1.0578 -0.6341
   54MOL0     H 7396   9.296   4.656  -0.198 -0.3269 -0.1494 -0.1608
   54MOL0     H 7397   9.468   4.710  -0.047 -1.0241 -1.2337 -1.6165
   54MOL0     H 7398   9.359   4.796   0.066  1.1233 -0.9482  0.4900
   54MOL0     H 7399   9.316   4.974  -0.069  0.6514  0.5647  3.2516
   54MOL0     H 7400   9.481   4.959  -0.029  0.6392 -1.3060  0.5281
   54MOL0     H 7401   9.656   4.837  -0.233 -1.2494 -2.6103 -0.3044
   54MOL0     H 7402   9.615   4.903  -0.634 -2.9138  0.9660  1.8214
   54MOL0     H 7403   9.625   4.757  -0.551 -1.3078  0.8255  0.4092
   54MOL0     H 7404   9.811   5.000  -0.498  3.0850 -0.9197 -1.1721
   54MOL0     H 7405   9.830   4.843  -0.421  0.0220 -0.9160 -1.9865
   54MOL0     H 7406   9.877   4.715  -0.596  1.4448 -0.0342 -0.9658
   54MOL0     H 7407   9.850   4.834  -0.730  0.6802 -3.6518  0.0404
   54MOL0     H 7408  10.066   4.781  -0.722 -0.4089  1.6755 -0.5576
   54MOL0     H 7409  10.044   4.941  -0.647 -2.6058  0.1629 -2.3154
   54MOL0     H 7410  10.175   4.694  -0.302  0.7367  0.3024  0.9036
   54MOL0     H 7411  10.476   4.560  -0.209 -1.2021 -0.3580  1.3641
   54MOL0     H 7412  10.322   4.611  -0.151 -0.0792 -0.3160  0.0787
   54MOL0     H 7413  10.457   4.723  -0.143 -0.9188  0.3158  0.0141
   54MOL0     H 7414  10.873   4.478  -0.520  2.8381 -0.9606 -1.3520
   54MOL0     H 7415  11.116   4.491  -0.497  0.1527 -0.6023 -4.1105
   54MOL0     H 7416  11.245   4.638  -0.250  0.6805 -1.6613  0.5560
   54MOL0     H 7417  11.309   4.516  -0.367  1.5148 -0.0646 -0.3836
   54MOL0     H 7418  11.520   4.632  -0.381  0.6570  2.2823 -0.4730
   54MOL0     H 7419  11.465   4.747  -0.258 -0.2617 -0.6143  0.1697
   54MOL0     H 7420  11.492   4.443  -0.249  0.9248 -0.6560  1.6500
   54MOL0     H 7421  11.406   4.542  -0.114  0.1548 -0.2467  0.2631
   54MOL0     H 7422  11.631   4.660  -0.096  0.5346 -0.6085  0.1935
   54MOL0     H 7423  11.684   4.565  -0.226 -0.0831  0.4295 -1.0150
   54MOL0     H 7424  11.672   4.348  -0.105 -1.5819 -1.8262  2.7208
   54MOL0     H 7425  11.789   4.473  -0.051 -0.6426  0.1274  1.3046
   54MOL0     H 7426  11.519   4.411   0.069  0.3332 -0.6310  1.1582
   54MOL0     H 7427  11.640   4.532   0.123 -0.1516  0.9816 -0.7822
   54MOL0     H 7428  11.646   4.320   0.270  0.1120  1.6567 -0.2495
   54MOL0     H 7429  11.799   4.354   0.191  0.9379 -2.9767 -0.8881
   54MOL0     H 7430  11.761   4.203   0.017  0.0874 -1.3022 -0.1816
   54MOL0     H 7431  11.594   4.180   0.057  0.7355 -2.5825 -1.7504
   54MOL0     H 7432  11.080   4.915  -0.434 -1.2967  0.2112 -0.4205
   54MOL0     H 7433  10.831   4.901  -0.469  1.2202  2.0456  5.2591
   54MOL0     H 7434  10.520   4.805  -0.629  0.8339 -0.3540  0.2541
   54MOL0     H 7435  10.271   4.857  -0.678 -1.0862  0.6307  1.0244
   54MOL0     H 7436   8.791   4.274   0.335  1.1006 -2.2560  1.1709
   54MOL0     H 7437   8.725   4.070   0.448  0.8684  1.8456  0.0081
   54MOL0     H 7438   8.421   3.841   0.590 -1.8077 -0.1357  1.6583
   54MOL0     H 7439   8.254   3.735   0.724 -0.1546 -0.5047 -1.0262
   54MOL0     H 7440   8.176   3.344   0.623 -2.1230 -2.6271 -1.7255
   54MOL0     H 7441   8.069   3.358   0.757  0.6429 -0.8130 -0.3669
   54MOL0     H 7442   7.960   3.229   0.610  1.1353 -0.0932  1.1447
   54MOL0     H 7443   7.983   3.357   0.477  0.5048 -2.4445 -0.5334
   54MOL0     H 7444   7.832   3.370   0.753 -1.2655 -1.9408 -0.1278
   54MOL0     H 7445   7.824   3.501   0.624 -1.5966  0.4106 -0.4937
   54MOL0     H 7446   7.620   3.382   0.634 -0.2939 -1.5017  1.7488
   54MOL0     H 7447   7.687   3.224   0.632  1.3638 -1.1428 -1.7691
   54MOL0     H 7448   7.680   3.287   0.228  2.3113  0.2234 -0.1164
   54MOL0     H 7449   8.165   3.465   0.409 -0.4327  0.1905 -0.0468
   54MOL0     H 7450   8.315   3.629   0.138 -0.8326  0.8103 -0.0984
   54MOL0     H 7451   8.420   3.488   0.197 -1.6170 -2.6837 -1.3019
   54MOL0     H 7452   8.250   3.477   0.204  1.5447 -1.6223  2.6642
   55MOL0     O 7453   7.625   1.853   1.831  0.1572 -0.7907 -0.0841
   55MOL0     C 7454   7.594   1.736   1.860 -0.2346  0.6070 -0.3418
   55MOL0     O 7455   7.690   1.647   1.907  0.2817  0.8239 -0.3738
   55MOL0     C 7456   7.821   1.675   1.911  0.7031  0.2622 -0.4987
   55MOL0     C 7457   7.887   1.805   1.944 -0.1313  0.4362  0.4713
   55MOL0     C 7458   8.020   1.819   1.945 -0.6994  0.4237 -0.4261
   55MOL0     C 7459   8.099   1.706   1.927 -0.0005  0.7775  0.1181
   55MOL0     O 7460   8.235   1.732   1.928  0.5714 -0.2865  0.1862
   55MOL0     C 7461   8.324   1.624   1.926 -0.3910 -0.5546  0.3304
   55MOL0     C 7462   8.465   1.694   1.935  0.2835 -0.2850  0.3056
   55MOL0     C 7463   8.588   1.605   1.938  0.1732 -0.0315  0.6341
   55MOL0     C 7464   8.715   1.686   1.944  0.4312  0.6303 -0.0505
   55MOL0     C 7465   8.747   1.728   2.090  1.2071  0.2607 -0.0048
   55MOL0     C 7466   8.896   1.776   2.116  0.7942 -0.0071  0.0738
   55MOL0     C 7467   8.938   1.880   2.016  0.1036 -0.4415  0.8688
   55MOL0     C 7468   9.060   1.947   2.068 -0.6449 -0.8768  0.0672
   55MOL0     N 7469   9.179   1.865   2.075  0.5616  0.6428  1.0560
   55MOL0     C 7470   9.244   1.848   2.191  0.4801  0.3363 -0.6366
   55MOL0     C 7471   9.343   1.769   2.154 -0.1399 -0.6982  0.5094
   55MOL0     C 7472   9.444   1.708   2.257 -0.1232 -1.1344 -0.0696
   55MOL0     C 7473   9.567   1.621   2.219  0.4742  0.5464  1.0118
   55MOL0     C 7474   9.682   1.703   2.162  0.1077 -0.1266  0.2144
   55MOL0     C 7475   9.665   1.737   2.014 -0.5062 -0.4308  0.5794
   55MOL0     O 7476   9.790   1.772   1.941 -0.0755  0.0617  0.1560
   55MOL0     C 7477   9.871   1.883   1.983 -0.4308 -1.4592 -0.3289
   55MOL0     C 7478   9.992   1.913   1.920  0.1573  0.2439 -0.1377
   55MOL0     C 7479  10.096   1.997   1.959  0.4704  0.0586 -0.0010
   55MOL0     C 7480  10.218   1.996   1.879 -0.1846 -0.6869 -0.0097
   55MOL0     C 7481  10.058   2.085   2.072 -0.7875  0.2958 -0.3807
   55MOL0     C 7482  10.137   2.207   2.112  0.4361 -0.1768 -0.3410
   55MOL0     O 7483  10.075   2.283   2.207 -0.1185 -0.4746 -0.2473
   55MOL0     C 7484  10.143   2.386   2.266  0.8932 -0.2145  0.6130
   55MOL0     C 7485  10.122   2.521   2.229 -0.3664  0.4393 -0.4439
   55MOL0     C 7486  10.192   2.617   2.296  1.1244  0.0669  0.3003
   55MOL0     C 7487  10.279   2.585   2.392 -0.5489  0.0245 -1.0013
   55MOL0     O 7488  10.352   2.684   2.451 -0.2138 -0.4620 -0.0896
   55MOL0     C 7489  10.274   2.793   2.512 -0.2794  0.2378  0.0031
   55MOL0     C 7490  10.365   2.842   2.619 -0.7692 -0.9327 -0.6831
   55MOL0     C 7491  10.491   2.922   2.575  0.3514  0.0689  0.7209
   55MOL0     C 7492  10.564   2.982   2.699  0.3093  0.2469  1.0184
   55MOL0     C 7493  10.614   2.886   2.805 -0.5846 -0.3890  0.4931
   55MOL0     C 7494  10.702   2.773   2.756  0.2854 -0.5727 -0.4249
   55MOL0     C 7495  10.739   2.693   2.874 -0.7588  0.6962 -0.5848
   55MOL0     C 7496  10.849   2.600   2.859  0.7736  0.7151  0.6077
   55MOL0    Cl 7497  10.872   2.511   3.012 -0.5207 -0.2434  0.4055
   55MOL0     C 7498  10.307   2.451   2.428 -0.5842  0.4577 -0.8030
   55MOL0     C 7499  10.241   2.357   2.365  0.7602 -0.0182  0.8412
   55MOL0     O 7500  10.248   2.229   2.070  0.1967  0.6908  0.3691
   55MOL0     C 7501   9.941   2.060   2.136  0.4268 -0.5767 -0.0610
   55MOL0     C 7502   9.850   1.961   2.092  0.3014 -0.3244  0.4637
   55MOL0     N 7503   9.340   1.730   2.022  0.0131  0.3530  0.4370
   55MOL0     N 7504   9.230   1.792   1.974 -0.2447  1.1227  0.4327
   55MOL0     C 7505   8.043   1.580   1.902 -0.0341  0.5940 -0.9454
   55MOL0     C 7506   7.904   1.563   1.892  0.6265 -0.4119 -1.4838
   55MOL0     C 7507   7.448   1.683   1.842 -0.4641  0.3143  0.1290
   55MOL0     C 7508   7.433   1.547   1.878  0.4448 -0.5862 -0.0172
   55MOL0     C 7509   7.303   1.490   1.889  0.3450 -0.2103 -0.1739
   55MOL0     C 7510   7.186   1.558   1.865 -0.2762  0.0098 -0.5814
   55MOL0     O 7511   7.067   1.491   1.889 -0.0415  0.4570  0.5538
   55MOL0     C 7512   6.944   1.547   1.839 -0.4354 -0.0987  0.4938
   55MOL0     C 7513   6.863   1.426   1.789 -0.1933 -0.0554  0.3884
   55MOL0     C 7514   6.846   1.322   1.906  0.1509  1.4055  0.0235
   55MOL0     C 7515   6.735   1.220   1.861  0.4590 -0.6903 -0.9355
   55MOL0     C 7516   6.663   1.155   1.981 -0.6128  0.8657  0.0248
   55MOL0     C 7517   6.595   1.106   2.067 -0.1004  0.7695  0.2978
   55MOL0     C 7518   7.200   1.696   1.827 -0.5515  0.0832  0.1184
   55MOL0     C 7519   7.325   1.757   1.812  0.4073  0.1953 -0.1830
   55MOL0     C 7520   7.327   1.910   1.787  0.9194  0.6393  0.0349
   55MOL0     H 7521   7.818   1.883   1.975 -0.0708 -0.6325  3.7300
   55MOL0     H 7522   8.069   1.915   1.951 -0.4271  0.2054  1.1494
   55MOL0     H 7523   8.313   1.562   1.837 -1.0333 -0.6273  0.4580
   55MOL0     H 7524   8.313   1.553   2.009  2.5820  2.7446  3.9743
   55MOL0     H 7525   8.466   1.757   1.846  1.7336  1.2888  1.3698
   55MOL0     H 7526   8.468   1.761   2.022 -0.2472 -0.4284  0.4426
   55MOL0     H 7527   8.583   1.539   2.025  1.9945 -1.2404 -0.1111
   55MOL0     H 7528   8.594   1.542   1.849 -0.5736 -1.2066  1.3803
   55MOL0     H 7529   8.791   1.613   1.913 -1.3131 -0.2562 -2.5736
   55MOL0     H 7530   8.718   1.774   1.880  1.6639 -0.6346 -1.8074
   55MOL0     H 7531   8.728   1.634   2.143  2.8185 -1.2029 -1.9123
   55MOL0     H 7532   8.683   1.815   2.113  1.6728  1.3276 -2.4552
   55MOL0     H 7533   8.911   1.820   2.215  0.0689 -0.3873  0.3607
   55MOL0     H 7534   8.972   1.698   2.119  2.1649  0.7890 -4.9160
   55MOL0     H 7535   8.854   1.949   2.002  0.9267  0.1511 -1.6841
   55MOL0     H 7536   8.959   1.834   1.919  0.9477  0.5276  0.5748
   55MOL0     H 7537   9.088   2.033   2.007 -0.0821 -0.9854  0.1629
   55MOL0     H 7538   9.037   1.998   2.162 -0.4003  2.9493 -1.7643
   55MOL0     H 7539   9.219   1.890   2.289 -0.2665  2.2084 -1.5798
   55MOL0     H 7540   9.388   1.660   2.338 -0.3503 -0.0112  0.4565
   55MOL0     H 7541   9.477   1.802   2.303  0.6776 -1.6336  0.4020
   55MOL0     H 7542   9.595   1.561   2.306 -2.6593  1.2123  2.6484
   55MOL0     H 7543   9.531   1.546   2.148  0.6359  0.8740  0.5785
   55MOL0     H 7544   9.691   1.784   2.236  0.0369 -0.7017  0.8682
   55MOL0     H 7545   9.779   1.653   2.168  1.0386  1.2729 -1.9354
   55MOL0     H 7546   9.623   1.656   1.954 -0.3630 -0.1400  0.0843
   55MOL0     H 7547   9.590   1.817   2.013  1.9979  2.0571  1.1004
   55MOL0     H 7548  10.025   1.841   1.845 -0.1808 -0.1239  0.0660
   55MOL0     H 7549  10.218   2.088   1.820 -2.6264 -0.8038 -0.2911
   55MOL0     H 7550  10.226   1.914   1.808 -0.6067  0.8291 -1.8836
   55MOL0     H 7551  10.304   1.989   1.947  1.7709  1.1675 -2.1038
   55MOL0     H 7552  10.051   2.549   2.152 -2.4983 -3.0924 -0.0009
   55MOL0     H 7553  10.164   2.717   2.266 -2.9600 -1.2683 -1.0430
   55MOL0     H 7554  10.258   2.871   2.436  2.1714  0.2114 -0.6288
   55MOL0     H 7555  10.181   2.745   2.542 -1.3980 -0.0938 -3.5025
   55MOL0     H 7556  10.312   2.914   2.682  1.2409  0.7077 -0.7439
   55MOL0     H 7557  10.396   2.758   2.682  0.6283  0.6782  0.8971
   55MOL0     H 7558  10.466   3.001   2.504 -2.2266 -0.8095  0.5462
   55MOL0     H 7559  10.558   2.857   2.519 -0.0318 -0.4090  0.8071
   55MOL0     H 7560  10.494   3.053   2.745  0.8453 -0.5355  3.1522
   55MOL0     H 7561  10.645   3.042   2.658  0.5584  0.4189  1.7599
   55MOL0     H 7562  10.671   2.946   2.876  1.6627 -1.7906 -0.0123
   55MOL0     H 7563  10.527   2.842   2.854 -0.7231  0.3020  0.8830
   55MOL0     H 7564  10.791   2.820   2.714  1.4695 -1.7321  0.7148
   55MOL0     H 7565  10.639   2.713   2.690  0.8167 -1.8815  0.2415
   55MOL0     H 7566  10.657   2.630   2.911  1.5365 -1.3015  1.4809
   55MOL0     H 7567  10.765   2.767   2.951  0.7438  0.9148 -1.2661
   55MOL0     H 7568  10.939   2.653   2.827 -1.5590  4.5068 -0.2177
   55MOL0     H 7569  10.827   2.524   2.784 -0.0943  1.5686 -0.0278
   55MOL0     H 7570  10.379   2.428   2.506  0.7563  0.6161 -1.9664
   55MOL0     H 7571  10.261   2.255   2.395  0.1722 -0.4231 -0.1177
   55MOL0     H 7572   9.908   2.100   2.231 -1.8186  1.4191 -1.5789
   55MOL0     H 7573   9.756   1.950   2.145 -0.6506  2.4768 -0.4113
   55MOL0     H 7574   8.114   1.498   1.896  0.8692  1.1803  0.9612
   55MOL0     H 7575   7.863   1.463   1.889  1.0037 -0.7575  1.5989
   55MOL0     H 7576   7.519   1.503   1.929  0.7625  2.7429  2.7696
   55MOL0     H 7577   7.287   1.385   1.914 -1.4522 -0.0369 -0.4082
   55MOL0     H 7578   6.890   1.593   1.923 -3.3810 -0.4172 -1.0769
   55MOL0     H 7579   6.962   1.615   1.756  1.4890  3.3618  3.4274
   55MOL0     H 7580   6.912   1.379   1.703 -2.8754  0.0327 -1.3056
   55MOL0     H 7581   6.767   1.461   1.750 -1.2761 -4.3539 -1.3865
   55MOL0     H 7582   6.935   1.261   1.925 -0.5596  0.2077 -0.3456
   55MOL0     H 7583   6.802   1.374   1.991 -1.4219 -2.0895  1.5623
   55MOL0     H 7584   6.771   1.147   1.789  2.8396 -1.2150  0.6762
   55MOL0     H 7585   6.655   1.266   1.802 -1.4384 -2.6391 -0.0168
   55MOL0     H 7586   6.535   1.085   2.153  0.3953  3.2742  1.3670
   55MOL0     H 7587   7.117   1.763   1.805  0.5458  2.2773  2.2132
   55MOL0     H 7588   7.411   1.968   1.829 -0.4930  1.4368  1.9369
   55MOL0     H 7589   7.323   1.925   1.679  0.9015 -2.1045 -0.3953
   55MOL0     H 7590   7.237   1.953   1.832 -0.6314  2.1497 -4.0382
   56MOL0     O 7591   1.984  11.378   0.026  0.2509  1.1571  0.2695
   56MOL0     C 7592   1.868  11.383  -0.015 -0.3213  1.2332 -0.8761
   56MOL0     O 7593   1.832  11.397  -0.143  0.2835  0.2659  0.4629
   56MOL0     C 7594   1.922  11.394  -0.252  0.3336 -0.1312 -0.8182
   56MOL0     C 7595   1.850  11.357  -0.369 -0.7154 -0.6581  0.1141
   56MOL0     C 7596   1.923  11.347  -0.493 -0.1688  0.8350 -0.4050
   56MOL0     C 7597   2.063  11.395  -0.507  0.2707  0.1522  0.4326
   56MOL0     O 7598   2.129  11.414  -0.627  0.1092 -0.0990 -0.3047
   56MOL0     C 7599   2.077  11.340  -0.742 -1.0276  0.4240 -0.0866
   56MOL0     C 7600   2.186  11.347  -0.856  1.2740  0.1966 -0.3091
   56MOL0     C 7601   2.321  11.297  -0.813 -0.1518 -0.2495  0.7227
   56MOL0     C 7602   2.403  11.319  -0.936 -1.0314 -0.8666 -1.4488
   56MOL0     C 7603   2.544  11.247  -0.937 -0.2762 -0.3970  0.3870
   56MOL0     C 7604   2.622  11.263  -1.078  0.1096  0.3427  0.5470
   56MOL0     C 7605   2.768  11.210  -1.063  0.2303 -0.0714 -0.1645
   56MOL0     C 7606   2.850  11.245  -1.199  0.4400  0.2655  0.2238
   56MOL0     N 7607   2.808  11.169  -1.311  0.5273  0.1454 -0.4308
   56MOL0     C 7608   2.751  11.220  -1.424 -0.3196 -0.4137  0.2881
   56MOL0     C 7609   2.716  11.115  -1.502  0.0189  0.8357 -0.5054
   56MOL0     C 7610   2.652  11.115  -1.644 -0.4682 -0.0908 -0.5347
   56MOL0     C 7611   2.545  11.005  -1.648 -0.0876 -0.5574  0.1709
   56MOL0     C 7612   2.477  10.991  -1.779  0.5491 -0.1805  0.8722
   56MOL0     C 7613   2.425  11.120  -1.831 -0.1467  0.5781 -0.2023
   56MOL0     O 7614   2.331  11.095  -1.935  0.1239 -0.0373  0.7181
   56MOL0     C 7615   2.367  11.039  -2.056  0.1924 -0.6213 -0.2826
   56MOL0     C 7616   2.426  11.125  -2.150  0.4654  0.5234 -0.3237
   56MOL0     C 7617   2.467  11.081  -2.276  0.3847 -0.3868  0.3533
   56MOL0     C 7618   2.541  11.181  -2.369 -0.2772 -0.1119  0.9170
   56MOL0     C 7619   2.449  10.938  -2.312  1.0473 -0.3689 -1.0269
   56MOL0     C 7620   2.492  10.873  -2.442 -0.0675 -0.6986 -0.7161
   56MOL0     O 7621   2.513  10.734  -2.440 -0.3484 -0.0338 -0.0850
   56MOL0     C 7622   2.522  10.669  -2.559 -0.2693  0.2200  0.2969
   56MOL0     C 7623   2.421  10.690  -2.658  0.2132  1.5176  0.6892
   56MOL0     C 7624   2.431  10.625  -2.783  0.5150 -0.8553 -0.3296
   56MOL0     C 7625   2.531  10.530  -2.802  0.6333  0.0426 -0.2910
   56MOL0     O 7626   2.540  10.463  -2.918  0.1642 -0.0712  0.2871
   56MOL0     C 7627   2.479  10.327  -2.931  0.7060  0.2371  0.7543
   56MOL0     C 7628   2.376  10.321  -3.043 -0.3352 -0.0848  0.2017
   56MOL0     C 7629   2.301  10.187  -3.047 -0.3976 -0.8840 -1.2956
   56MOL0     C 7630   2.215  10.185  -3.170  0.7955 -0.3471  0.2992
   56MOL0     C 7631   2.145  10.050  -3.187  0.2155  0.1940  0.3813
   56MOL0     C 7632   2.028  10.035  -3.082  0.1998 -0.3328  0.1621
   56MOL0     C 7633   1.935   9.918  -3.092  0.9441 -0.0132 -0.1017
   56MOL0     C 7634   1.811   9.933  -2.999 -0.0769 -0.5041  0.7567
   56MOL0    Cl 7635   1.853   9.883  -2.836 -0.0025 -0.8276  0.3424
   56MOL0     C 7636   2.615  10.496  -2.697 -0.1794  0.2576  0.4984
   56MOL0     C 7637   2.612  10.567  -2.581  0.3111 -0.2869 -0.1061
   56MOL0     O 7638   2.503  10.943  -2.548 -0.0461  0.4584 -0.2482
   56MOL0     C 7639   2.373  10.862  -2.213 -0.2086 -0.2999  0.3188
   56MOL0     C 7640   2.329  10.911  -2.092 -0.2007  0.3312 -0.5252
   56MOL0     N 7641   2.754  10.997  -1.432 -0.1241  0.7718  0.7958
   56MOL0     N 7642   2.812  11.032  -1.322 -0.1773  0.6363  0.1022
   56MOL0     C 7643   2.122  11.431  -0.385 -0.0277  0.6253  0.4464
   56MOL0     C 7644   2.053  11.425  -0.262 -0.0152 -0.3540  0.3080
   56MOL0     C 7645   1.747  11.361   0.071 -0.0770  0.5875 -0.4441
   56MOL0     C 7646   1.622  11.402   0.025  0.5051  0.6493  0.7652
   56MOL0     C 7647   1.504  11.383   0.093 -0.0873  0.5995  1.1209
   56MOL0     C 7648   1.498  11.305   0.200  0.8903  0.8700  0.3668
   56MOL0     O 7649   1.376  11.281   0.246  0.0027 -0.3223 -0.8178
   56MOL0     C 7650   1.356  11.226   0.382 -0.4105  0.0010  0.1376
   56MOL0     C 7651   1.215  11.261   0.428 -0.8999 -0.6714 -0.2719
   56MOL0     C 7652   1.225  11.413   0.459 -0.3228  0.0610 -1.0917
   56MOL0     C 7653   1.088  11.476   0.476 -0.1851  0.2330 -0.3415
   56MOL0     C 7654   1.018  11.430   0.594 -0.7082  0.1608 -0.3424
   56MOL0     C 7655   0.965  11.375   0.689 -0.9254 -0.5619  0.5084
   56MOL0     C 7656   1.619  11.257   0.257 -0.3469 -0.7662  0.0656
   56MOL0     C 7657   1.740  11.284   0.196  0.1668  0.5438 -0.3168
   56MOL0     C 7658   1.866  11.256   0.268 -0.3270  0.4704  0.6466
   56MOL0     H 7659   1.743  11.339  -0.365 -1.1676  1.1477 -1.9194
   56MOL0     H 7660   1.870  11.321  -0.584  2.5264 -0.9088 -1.5963
   56MOL0     H 7661   1.980  11.381  -0.768 -1.1344  0.2587  0.0493
   56MOL0     H 7662   2.067  11.234  -0.718  1.3568  0.0887 -0.2497
   56MOL0     H 7663   2.144  11.298  -0.945  0.2064  0.0435  0.2603
   56MOL0     H 7664   2.194  11.454  -0.881 -1.5573  0.0216 -2.6028
   56MOL0     H 7665   2.355  11.355  -0.726 -0.6507  2.1528 -0.5922
   56MOL0     H 7666   2.320  11.192  -0.782 -0.9352  0.2954  2.7672
   56MOL0     H 7667   2.357  11.288  -1.030 -1.8499  0.7271 -1.6127
   56MOL0     H 7668   2.416  11.427  -0.949 -0.1358 -1.0872 -2.5811
   56MOL0     H 7669   2.540  11.143  -0.902 -0.3579 -0.1975  0.9826
   56MOL0     H 7670   2.613  11.294  -0.867 -0.8454 -2.0209  2.1339
   56MOL0     H 7671   2.575  11.201  -1.155  1.4007  0.0664 -0.0509
   56MOL0     H 7672   2.628  11.364  -1.121 -3.2778  0.8192  0.9435
   56MOL0     H 7673   2.776  11.101  -1.059 -1.4820 -0.2379 -0.5482
   56MOL0     H 7674   2.816  11.264  -0.981  2.0847  0.5236 -1.5660
   56MOL0     H 7675   2.844  11.351  -1.224  0.4059  0.7805  2.3017
   56MOL0     H 7676   2.955  11.225  -1.176 -0.0939 -0.9746  1.7499
   56MOL0     H 7677   2.736  11.326  -1.441  2.0374 -0.1748 -0.6916
   56MOL0     H 7678   2.725  11.088  -1.721 -1.9786 -2.7517 -1.1834
   56MOL0     H 7679   2.610  11.215  -1.655 -1.8432 -0.7128 -1.3788
   56MOL0     H 7680   2.574  10.903  -1.622 -0.3631 -0.7589 -0.3005
   56MOL0     H 7681   2.472  11.046  -1.578 -0.7279 -0.7962 -0.3439
   56MOL0     H 7682   2.532  10.937  -1.857 -1.5426 -0.0685 -0.7751
   56MOL0     H 7683   2.387  10.933  -1.755 -0.3010 -0.0961 -1.7610
   56MOL0     H 7684   2.375  11.184  -1.757 -0.0041  0.3398  0.1033
   56MOL0     H 7685   2.505  11.175  -1.881 -0.4992 -1.7992 -3.7313
   56MOL0     H 7686   2.450  11.229  -2.127 -2.5784  1.5221 -1.1743
   56MOL0     H 7687   2.532  11.274  -2.313 -2.0613  0.6994 -0.6022
   56MOL0     H 7688   2.500  11.185  -2.470 -0.2497  1.9869  0.9606
   56MOL0     H 7689   2.645  11.148  -2.376  0.2177  1.4976  0.3605
   56MOL0     H 7690   2.338  10.758  -2.649 -0.7582  0.2171  2.0181
   56MOL0     H 7691   2.357  10.650  -2.859 -0.1744  1.6663  1.0624
   56MOL0     H 7692   2.547  10.246  -2.958 -1.4651 -0.8078 -2.0698
   56MOL0     H 7693   2.422  10.303  -2.840 -3.2850 -0.6103 -1.7290
   56MOL0     H 7694   2.304  10.400  -3.020 -2.1724 -1.6437  0.1035
   56MOL0     H 7695   2.426  10.351  -3.136  0.7437  0.6680  0.9956
   56MOL0     H 7696   2.254  10.174  -2.949 -0.1554 -1.5222 -1.2579
   56MOL0     H 7697   2.378  10.110  -3.053 -1.3684 -2.2245  1.5342
   56MOL0     H 7698   2.270  10.190  -3.265 -4.7595 -1.5552 -3.4852
   56MOL0     H 7699   2.154  10.275  -3.166  0.5555 -0.4905 -0.0510
   56MOL0     H 7700   2.097  10.042  -3.285 -1.0125 -0.0988  0.9801
   56MOL0     H 7701   2.220   9.971  -3.191 -0.3463 -0.3141 -0.4197
   56MOL0     H 7702   1.967  10.126  -3.085  2.5070  1.2714 -1.3468
   56MOL0     H 7703   2.075  10.023  -2.984  0.6026 -4.4176 -0.3363
   56MOL0     H 7704   1.990   9.831  -3.059  0.5355 -0.8755 -1.5970
   56MOL0     H 7705   1.901   9.906  -3.195  0.1586 -0.9725  0.2611
   56MOL0     H 7706   1.726   9.878  -3.041 -0.7352  1.3051 -0.4159
   56MOL0     H 7707   1.780  10.038  -3.005  1.2444 -0.1604 -1.5770
   56MOL0     H 7708   2.679  10.408  -2.702  0.4620  0.7906 -1.2994
   56MOL0     H 7709   2.681  10.545  -2.500  1.5070  0.2277 -0.9654
   56MOL0     H 7710   2.347  10.764  -2.249  1.3473 -1.6954  2.6927
   56MOL0     H 7711   2.269  10.847  -2.028  1.7262  0.1818  1.2375
   56MOL0     H 7712   2.223  11.469  -0.381 -1.0146  3.4380  1.1101
   56MOL0     H 7713   2.107  11.445  -0.170  2.3101 -1.1904 -0.7951
   56MOL0     H 7714   1.618  11.444  -0.075 -1.1093 -1.7899 -0.2959
   56MOL0     H 7715   1.414  11.431   0.056  1.0758  2.1307  0.1507
   56MOL0     H 7716   1.354  11.118   0.363 -3.0006  0.2695 -1.6539
   56MOL0     H 7717   1.424  11.252   0.463 -0.2488 -3.3350  1.2512
   56MOL0     H 7718   1.188  11.202   0.516  1.2825  1.8832  2.2976
   56MOL0     H 7719   1.137  11.252   0.351 -1.4438  0.5231  0.1173
   56MOL0     H 7720   1.278  11.418   0.554 -3.9914 -1.4331  1.2303
   56MOL0     H 7721   1.289  11.471   0.391  1.9552 -0.5968  0.3707
   56MOL0     H 7722   1.025  11.449   0.390  0.0563 -4.0092  0.6038
   56MOL0     H 7723   1.119  11.580   0.485  2.3345 -0.4488 -0.5009
   56MOL0     H 7724   0.933  11.347   0.787 -0.6945  1.9783  1.3824
   56MOL0     H 7725   1.610  11.206   0.353 -0.3468  0.7945  0.9323
   56MOL0     H 7726   1.909  11.167   0.221 -2.5181 -1.0976  1.4695
   56MOL0     H 7727   1.944  11.333   0.257  0.0798  0.2371  1.7349
   56MOL0     H 7728   1.851  11.252   0.377  1.2460 -0.3750  0.8672
   57MOL0     O 7729   9.149   6.006   8.516  0.3828 -0.5336 -0.3599
   57MOL0     C 7730   9.201   6.093   8.590  0.8294  1.0784 -0.1312
   57MOL0     O 7731   9.316   6.065   8.669 -0.1889  0.0480  0.1769
   57MOL0     C 7732   9.389   5.942   8.649 -0.3920 -0.6897 -0.5396
   57MOL0     C 7733   9.337   5.820   8.623 -0.2383  0.5110  0.8152
   57MOL0     C 7734   9.412   5.700   8.613  0.2300  0.4519  0.1426
   57MOL0     C 7735   9.552   5.708   8.642  0.0133  0.9109  1.1391
   57MOL0     O 7736   9.642   5.608   8.634 -0.5497 -0.4777 -0.2438
   57MOL0     C 7737   9.598   5.477   8.587  0.6254 -0.5564  0.0800
   57MOL0     C 7738   9.722   5.373   8.570  0.3910  0.0650  0.4053
   57MOL0     C 7739   9.678   5.252   8.485  0.1257 -0.1638  0.3013
   57MOL0     C 7740   9.778   5.136   8.495  0.7118 -0.9286 -0.0999
   57MOL0     C 7741   9.734   5.013   8.415  0.7207  0.3890  0.0942
   57MOL0     C 7742   9.843   4.911   8.436  0.0727  0.5861 -0.4665
   57MOL0     C 7743   9.821   4.800   8.333 -0.0542 -0.2176 -0.2856
   57MOL0     C 7744   9.937   4.701   8.311  0.6456  0.3571  0.4182
   57MOL0     N 7745   9.981   4.624   8.436 -0.0159 -0.2719 -0.3308
   57MOL0     C 7746  10.038   4.673   8.548  0.8221 -0.0316 -0.2116
   57MOL0     C 7747  10.024   4.570   8.637 -0.2501  0.7679  0.8491
   57MOL0     C 7748  10.071   4.556   8.780 -1.0596 -0.7153 -0.0104
   57MOL0     C 7749  10.220   4.530   8.793 -0.2272 -0.1561 -0.7921
   57MOL0     C 7750  10.256   4.451   8.915 -0.1064 -0.2435  0.1678
   57MOL0     C 7751  10.406   4.461   8.953  0.0854  0.4284  0.0817
   57MOL0     O 7752  10.502   4.412   8.855  0.5856 -0.4133  0.2299
   57MOL0     C 7753  10.634   4.388   8.891 -0.0351 -0.0399 -0.1492
   57MOL0     C 7754  10.686   4.404   9.020 -0.3762 -0.7108 -0.0899
   57MOL0     C 7755  10.814   4.360   9.073  1.1988  0.6222  0.3140
   57MOL0     C 7756  10.857   4.392   9.215  0.4779  0.1958  0.2548
   57MOL0     C 7757  10.887   4.269   8.987  0.2566  0.0284 -0.7820
   57MOL0     C 7758  11.010   4.187   9.027  0.7977  0.3243 -0.1097
   57MOL0     O 7759  11.047   4.097   8.930 -0.8854 -0.3246  0.8044
   57MOL0     C 7760  11.161   4.025   8.946  0.4136  0.3505  0.4911
   57MOL0     C 7761  11.290   4.085   8.937 -0.3424 -0.3740 -0.5351
   57MOL0     C 7762  11.402   4.000   8.941 -0.2716 -0.8651  0.0281
   57MOL0     C 7763  11.392   3.868   8.974  0.1821  0.0263  0.4319
   57MOL0     O 7764  11.495   3.779   8.969 -0.5322  0.6524 -0.2478
   57MOL0     C 7765  11.634   3.817   8.966 -0.1887 -1.2473 -0.6175
   57MOL0     C 7766  11.716   3.690   8.955  0.2381 -0.0740 -0.1755
   57MOL0     C 7767  11.865   3.729   8.931 -0.4871 -1.0562  0.1710
   57MOL0     C 7768  11.979   3.620   8.920  0.6390  0.8472 -0.6484
   57MOL0     C 7769  12.116   3.666   8.874 -0.0479 -0.3064  0.4971
   57MOL0     C 7770  12.115   3.740   8.731  0.9370  0.3574 -0.7163
   57MOL0     C 7771  12.093   3.635   8.617  0.4834 -0.3430  0.4351
   57MOL0     C 7772  11.947   3.631   8.567 -0.9267 -0.0854  0.2533
   57MOL0    Cl 7773  11.912   3.777   8.471  0.5687  0.1645  0.2617
   57MOL0     C 7774  11.269   3.813   8.971  0.2227 -0.5497 -0.3378
   57MOL0     C 7775  11.153   3.887   8.959 -0.0726 -1.0271 -0.5398
   57MOL0     O 7776  11.074   4.209   9.132 -0.6568  0.6681  0.5311
   57MOL0     C 7777  10.833   4.261   8.857  0.4048  0.6226  0.6007
   57MOL0     C 7778  10.715   4.315   8.804 -0.2179  0.5746  0.3153
   57MOL0     N 7779   9.990   4.463   8.567 -0.6088  0.2270  0.4278
   57MOL0     N 7780   9.945   4.492   8.455  0.0670 -0.4815 -1.0867
   57MOL0     C 7781   9.616   5.829   8.664 -0.3140  0.5832  1.0360
   57MOL0     C 7782   9.533   5.942   8.664 -0.3118  0.0802  0.3364
   57MOL0     C 7783   9.147   6.225   8.607  0.1204 -0.4293 -0.7547
   57MOL0     C 7784   9.191   6.295   8.720 -0.0686  0.2065  0.7585
   57MOL0     C 7785   9.148   6.430   8.749  0.5259  0.2468  0.8788
   57MOL0     C 7786   9.038   6.484   8.675  0.8127  0.0277 -0.7611
   57MOL0     O 7787   9.008   6.615   8.703  0.9033 -0.0745 -0.3058
   57MOL0     C 7788   8.955   6.694   8.598  0.5126  0.1184  0.3925
   57MOL0     C 7789   8.966   6.846   8.642 -0.9321  0.1682 -0.3044
   57MOL0     C 7790   8.869   6.892   8.754  0.7671 -0.7693 -0.0574
   57MOL0     C 7791   8.726   6.896   8.708  0.0334  0.3626 -0.0141
   57MOL0     C 7792   8.694   6.998   8.604 -0.3167 -1.0929 -0.0118
   57MOL0     C 7793   8.666   7.092   8.534  0.1683 -0.4988 -0.3770
   57MOL0     C 7794   8.985   6.404   8.570 -0.2267  0.4128  0.1075
   57MOL0     C 7795   9.033   6.280   8.533  0.5455 -0.4219 -0.1191
   57MOL0     C 7796   8.972   6.223   8.414  0.7601 -0.0338  0.4162
   57MOL0     H 7797   9.233   5.810   8.592  0.8875  0.5999 -3.8238
   57MOL0     H 7798   9.363   5.611   8.576  1.7963 -0.6508  0.6153
   57MOL0     H 7799   9.547   5.482   8.490  0.4488 -1.3251  0.1259
   57MOL0     H 7800   9.527   5.437   8.661  0.4022 -0.9625 -0.3476
   57MOL0     H 7801   9.807   5.418   8.517 -1.0547  2.4546 -0.0264
   57MOL0     H 7802   9.768   5.356   8.667 -0.6732  1.1675  1.1286
   57MOL0     H 7803   9.581   5.220   8.523  1.2557 -2.5907  1.3410
   57MOL0     H 7804   9.668   5.272   8.378  0.6647  0.0687  0.2911
   57MOL0     H 7805   9.869   5.180   8.454 -0.8778  2.1449 -0.6822
   57MOL0     H 7806   9.772   5.115   8.602 -2.1440 -3.6693 -0.6286
   57MOL0     H 7807   9.726   5.054   8.314 -0.3191 -0.9594 -0.3991
   57MOL0     H 7808   9.636   4.975   8.444  1.5394 -1.7390  0.2851
   57MOL0     H 7809   9.942   4.957   8.433 -0.3620  2.0047  2.8281
   57MOL0     H 7810   9.824   4.875   8.538 -3.1363  1.3025 -0.6965
   57MOL0     H 7811   9.784   4.842   8.240 -0.2964 -1.5946 -0.8364
   57MOL0     H 7812   9.733   4.744   8.368  1.9195 -2.8510  0.8936
   57MOL0     H 7813   9.898   4.622   8.247  1.6298  1.0535 -1.0820
   57MOL0     H 7814  10.017   4.750   8.256  0.1263  1.7637  0.8676
   57MOL0     H 7815  10.071   4.774   8.568 -3.8405  1.6942 -0.0989
   57MOL0     H 7816  10.013   4.489   8.845 -2.0209  1.7465  1.8454
   57MOL0     H 7817  10.046   4.645   8.838 -2.4736 -0.6786 -0.6487
   57MOL0     H 7818  10.268   4.479   8.709 -0.1104 -0.6149 -0.4516
   57MOL0     H 7819  10.261   4.630   8.810 -1.2866 -0.2688  3.5404
   57MOL0     H 7820  10.189   4.479   8.997 -2.0164 -1.1067 -1.0317
   57MOL0     H 7821  10.241   4.344   8.895  2.8227 -0.7452  0.1225
   57MOL0     H 7822  10.424   4.567   8.975  0.7058 -0.0342  1.9328
   57MOL0     H 7823  10.408   4.404   9.046  0.4348 -0.9201 -0.7280
   57MOL0     H 7824  10.614   4.447   9.090 -0.6395 -2.0749  0.5120
   57MOL0     H 7825  10.803   4.487   9.223 -0.2902 -0.1378 -0.7766
   57MOL0     H 7826  10.965   4.403   9.223  0.6292  0.9548 -2.0791
   57MOL0     H 7827  10.824   4.336   9.303  2.2043 -0.6422  0.3988
   57MOL0     H 7828  11.309   4.188   8.907  0.2284 -0.2661  0.1779
   57MOL0     H 7829  11.501   4.044   8.929 -1.1509  1.0675 -0.6211
   57MOL0     H 7830  11.654   3.883   8.881  4.1456 -0.7222  0.5645
   57MOL0     H 7831  11.661   3.883   9.050 -0.6677 -0.3070 -1.1864
   57MOL0     H 7832  11.710   3.638   9.051 -4.6690  0.4121 -0.0102
   57MOL0     H 7833  11.680   3.626   8.874  0.1527  2.0777 -1.9292
   57MOL0     H 7834  11.905   3.801   9.003  2.2738 -0.2308 -2.0100
   57MOL0     H 7835  11.855   3.786   8.838 -2.1954  1.1202  1.5884
   57MOL0     H 7836  11.942   3.532   8.866 -3.5072  1.6567  0.5450
   57MOL0     H 7837  11.989   3.595   9.027 -2.7468  0.8631 -0.2238
   57MOL0     H 7838  12.154   3.736   8.949 -1.0864 -0.6500  1.3573
   57MOL0     H 7839  12.197   3.592   8.874  1.2794  1.0716 -0.1654
   57MOL0     H 7840  12.215   3.779   8.713  0.4078  0.6761 -3.3258
   57MOL0     H 7841  12.046   3.825   8.729  0.4381  0.1217  1.9698
   57MOL0     H 7842  12.117   3.536   8.655  1.5735 -0.4736 -0.5636
   57MOL0     H 7843  12.163   3.658   8.537  1.1944 -0.4657  1.0179
   57MOL0     H 7844  11.887   3.609   8.656 -2.0337 -0.5663 -0.5896
   57MOL0     H 7845  11.933   3.548   8.498  1.7630 -1.1279  0.8379
   57MOL0     H 7846  11.275   3.705   8.984 -0.2457 -0.4978  0.3837
   57MOL0     H 7847  11.052   3.850   8.946 -1.1386  1.4610  0.0685
   57MOL0     H 7848  10.881   4.193   8.787 -0.4477  0.2592  0.3543
   57MOL0     H 7849  10.672   4.299   8.706 -4.2394  0.7241  1.8578
   57MOL0     H 7850   9.724   5.826   8.669 -0.1445  0.6581 -1.3763
   57MOL0     H 7851   9.568   6.043   8.678 -2.5745  0.8886  0.6464
   57MOL0     H 7852   9.264   6.252   8.787  0.8435  2.0868  1.0387
   57MOL0     H 7853   9.189   6.504   8.817  1.7709  1.3050 -0.9500
   57MOL0     H 7854   9.005   6.681   8.502  0.5309  0.5344  0.3432
   57MOL0     H 7855   8.851   6.667   8.575  0.8843  2.0163 -5.0642
   57MOL0     H 7856   8.954   6.912   8.556 -0.5824  0.0977 -0.4096
   57MOL0     H 7857   9.067   6.858   8.682 -1.6476 -1.8735  2.3559
   57MOL0     H 7858   8.856   6.827   8.841 -2.5587  1.5630  1.4237
   57MOL0     H 7859   8.891   6.989   8.800 -0.1241 -0.6389  0.1186
   57MOL0     H 7860   8.664   6.910   8.798  2.6678 -0.9437  2.1316
   57MOL0     H 7861   8.699   6.797   8.670  0.1176 -0.0754  1.0345
   57MOL0     H 7862   8.625   7.181   8.492 -1.1708 -1.2462 -0.6913
   57MOL0     H 7863   8.899   6.437   8.512 -0.7187 -0.3920  0.3641
   57MOL0     H 7864   8.890   6.154   8.437  0.7936  0.3197  1.7126
   57MOL0     H 7865   8.935   6.299   8.345 -1.9737 -0.0967  1.6364
   57MOL0     H 7866   9.060   6.177   8.370  0.7657  0.8969 -0.5625
   58MOL0     O 7867  10.517   8.188   1.627 -0.1828  0.4452  0.4495
   58MOL0     C 7868  10.502   8.261   1.532 -0.1529 -0.5080 -0.3776
   58MOL0     O 7869  10.602   8.327   1.458  0.3718  0.0382 -0.5907
   58MOL0     C 7870  10.723   8.289   1.499  0.6103 -0.1273 -0.4592
   58MOL0     C 7871  10.779   8.305   1.622  0.3184 -0.2712 -0.1716
   58MOL0     C 7872  10.914   8.269   1.654  0.1197 -0.7263  0.4383
   58MOL0     C 7873  10.979   8.197   1.552  0.5680 -0.3070  1.0694
   58MOL0     O 7874  11.102   8.149   1.574 -0.4196 -0.0913 -0.2269
   58MOL0     C 7875  11.206   8.181   1.475  0.4323  0.0315  0.3383
   58MOL0     C 7876  11.335   8.238   1.538 -0.5378 -0.1409 -0.6577
   58MOL0     C 7877  11.436   8.304   1.446 -0.4349  1.1199 -0.2273
   58MOL0     C 7878  11.566   8.335   1.511 -0.7388  0.5282  0.3179
   58MOL0     C 7879  11.650   8.412   1.402  0.2225  0.2940  0.4322
   58MOL0     C 7880  11.778   8.471   1.465 -0.2113 -0.4986 -0.6637
   58MOL0     C 7881  11.863   8.526   1.344  0.4585  0.0081 -0.5526
   58MOL0     C 7882  12.003   8.571   1.405  0.5263  0.2083  0.5646
   58MOL0     N 7883  12.107   8.616   1.312 -0.1830 -0.2713 -0.6301
   58MOL0     C 7884  12.195   8.526   1.258  0.4785 -0.0442  0.3318
   58MOL0     C 7885  12.277   8.600   1.183 -0.1433 -0.2829 -0.1108
   58MOL0     C 7886  12.399   8.555   1.102  0.6063 -0.0025 -0.0971
   58MOL0     C 7887  12.373   8.565   0.956  0.4004  0.7754  0.2526
   58MOL0     C 7888  12.329   8.438   0.892  1.1881 -0.0897  0.7459
   58MOL0     C 7889  12.196   8.387   0.944 -0.1699  0.3670  0.5986
   58MOL0     O 7890  12.099   8.490   0.934  0.5501 -0.4785  0.1709
   58MOL0     C 7891  11.961   8.468   0.962 -0.7911  0.1100  0.8682
   58MOL0     C 7892  11.889   8.348   0.987 -0.7831  1.3585  0.0483
   58MOL0     C 7893  11.751   8.341   1.015  0.6945  0.4085 -0.2186
   58MOL0     C 7894  11.694   8.203   1.061 -0.6483  0.4481  0.2982
   58MOL0     C 7895  11.682   8.457   1.012 -1.1905 -0.4463 -0.2242
   58MOL0     C 7896  11.536   8.461   1.027 -0.4377 -0.4632 -0.6018
   58MOL0     O 7897  11.486   8.587   1.058 -0.2083  0.1988 -0.0470
   58MOL0     C 7898  11.356   8.592   1.111 -0.1179 -0.7322  0.2442
   58MOL0     C 7899  11.248   8.549   1.039  0.1595  1.5410 -0.5120
   58MOL0     C 7900  11.121   8.556   1.101  0.4903 -0.2626  0.3324
   58MOL0     C 7901  11.099   8.619   1.230  0.1375 -0.4152 -0.3626
   58MOL0     O 7902  10.975   8.630   1.280  0.5027  0.2500  0.1637
   58MOL0     C 7903  10.955   8.660   1.421  0.5744  0.6049  0.8454
   58MOL0     C 7904  10.808   8.641   1.451 -1.1036  0.0191  0.0796
   58MOL0     C 7905  10.731   8.751   1.394  0.2906 -0.3619  0.3533
   58MOL0     C 7906  10.579   8.722   1.416  0.1214 -0.0067  0.7978
   58MOL0     C 7907  10.491   8.835   1.365  0.7084  0.1167 -0.0143
   58MOL0     C 7908  10.348   8.806   1.351  0.9289  0.4678  1.3703
   58MOL0     C 7909  10.273   8.926   1.282 -0.1832 -0.6590  0.3986
   58MOL0     C 7910  10.127   8.912   1.262 -0.5838 -0.0734  0.8630
   58MOL0    Cl 7911  10.101   8.783   1.155  0.1460 -0.2074 -0.2617
   58MOL0     C 7912  11.211   8.668   1.298 -0.1999  1.3919  0.2154
   58MOL0     C 7913  11.338   8.643   1.242 -0.5743 -0.4789  0.0319
   58MOL0     O 7914  11.465   8.362   1.007  0.1545 -0.3244  0.3875
   58MOL0     C 7915  11.749   8.579   0.991  0.4727 -0.3856  0.6508
   58MOL0     C 7916  11.889   8.589   0.971  0.3495 -0.3535 -0.8084
   58MOL0     N 7917  12.240   8.731   1.185  0.3719 -0.4014 -0.3138
   58MOL0     N 7918  12.145   8.740   1.274  0.8129  0.4906 -0.2885
   58MOL0     C 7919  10.913   8.162   1.433 -0.2572  0.6659  0.2729
   58MOL0     C 7920  10.792   8.219   1.404  0.5500  0.4868  0.3111
   58MOL0     C 7921  10.366   8.289   1.477  0.1953  1.0192 -0.2012
   58MOL0     C 7922  10.352   8.385   1.370  0.0566  0.3607  0.3018
   58MOL0     C 7923  10.230   8.386   1.301 -0.5837  0.2361  0.2073
   58MOL0     C 7924  10.118   8.311   1.334 -0.3896  0.3937 -0.3443
   58MOL0     O 7925   9.996   8.337   1.265 -0.3252  0.8413  0.4720
   58MOL0     C 7926   9.878   8.263   1.304  0.4268 -0.7159  1.0793
   58MOL0     C 7927   9.879   8.118   1.232 -0.9590  0.0596  0.0994
   58MOL0     C 7928   9.873   8.133   1.076 -0.4268 -0.1147  0.0295
   58MOL0     C 7929   9.980   8.054   1.008 -1.0140 -0.3759  0.4189
   58MOL0     C 7930   9.940   7.912   1.010 -0.5483 -0.0981 -0.3636
   58MOL0     C 7931   9.908   7.791   1.013  0.4018  0.2005  0.2485
   58MOL0     C 7932  10.139   8.220   1.438 -0.3607 -0.4773  0.3976
   58MOL0     C 7933  10.258   8.207   1.509  0.0986  0.4824  0.0059
   58MOL0     C 7934  10.243   8.110   1.624  0.3732  0.5337 -0.5442
   58MOL0     H 7935  10.738   8.351   1.712 -0.9067  1.1330 -1.3899
   58MOL0     H 7936  10.952   8.270   1.755 -0.3187 -0.9941  0.6082
   58MOL0     H 7937  11.160   8.250   1.403  1.1881 -0.3626 -0.5322
   58MOL0     H 7938  11.220   8.093   1.412 -2.5590 -0.6391  0.4289
   58MOL0     H 7939  11.307   8.316   1.610  0.4522 -0.4441  0.0888
   58MOL0     H 7940  11.390   8.163   1.597 -0.0197 -0.2133 -1.2220
   58MOL0     H 7941  11.452   8.249   1.353  0.0611  1.3220 -0.2607
   58MOL0     H 7942  11.400   8.399   1.406 -1.8046  0.5683 -0.3582
   58MOL0     H 7943  11.557   8.398   1.600 -2.0158 -0.1172  0.6672
   58MOL0     H 7944  11.615   8.239   1.529 -1.6274 -0.2936 -1.3716
   58MOL0     H 7945  11.598   8.493   1.350  1.0008 -0.0828 -1.0038
   58MOL0     H 7946  11.671   8.339   1.323 -2.1808 -0.4577  0.4041
   58MOL0     H 7947  11.742   8.550   1.532 -0.9919  0.7132 -2.4211
   58MOL0     H 7948  11.835   8.403   1.528 -2.0865 -1.0630  0.5079
   58MOL0     H 7949  11.820   8.610   1.290 -0.9035  1.4638  2.5367
   58MOL0     H 7950  11.889   8.447   1.273  0.6707 -1.1433  0.7592
   58MOL0     H 7951  11.989   8.654   1.475  0.0142  1.0817 -0.5476
   58MOL0     H 7952  12.040   8.482   1.458 -0.2924 -1.1532 -1.0604
   58MOL0     H 7953  12.191   8.419   1.272  0.0981  0.0669  1.1061
   58MOL0     H 7954  12.407   8.448   1.122 -1.1438  0.1828  1.9177
   58MOL0     H 7955  12.498   8.595   1.127  1.7614 -1.9811 -1.1787
   58MOL0     H 7956  12.295   8.640   0.935 -2.0404 -0.6007  3.4335
   58MOL0     H 7957  12.467   8.589   0.907  0.6459  0.2496  0.4607
   58MOL0     H 7958  12.321   8.460   0.786 -0.9189  1.0993  1.0794
   58MOL0     H 7959  12.410   8.365   0.900  0.8013 -0.6227 -0.0552
   58MOL0     H 7960  12.172   8.305   0.876 -1.5257  1.6512 -0.5500
   58MOL0     H 7961  12.212   8.362   1.049  0.9551 -0.1190  0.3289
   58MOL0     H 7962  11.938   8.251   0.986 -3.5711 -0.1644 -1.7129
   58MOL0     H 7963  11.781   8.144   1.093  0.6515  2.1779  0.1351
   58MOL0     H 7964  11.642   8.150   0.981 -2.0585  0.5083  1.1460
   58MOL0     H 7965  11.625   8.205   1.145  1.3728 -0.3129  2.0685
   58MOL0     H 7966  11.249   8.508   0.939 -1.5001  1.3750 -0.4873
   58MOL0     H 7967  11.034   8.510   1.056  0.0986 -0.5879  1.3993
   58MOL0     H 7968  11.016   8.590   1.479  1.7667 -1.1264 -2.2557
   58MOL0     H 7969  10.996   8.757   1.453  0.3760  0.8800  0.2855
   58MOL0     H 7970  10.764   8.548   1.415  1.9161 -0.8587 -1.7448
   58MOL0     H 7971  10.797   8.639   1.560 -1.6909  0.1679  0.0242
   58MOL0     H 7972  10.756   8.760   1.288 -3.8559  4.3900 -0.5941
   58MOL0     H 7973  10.768   8.840   1.445  1.4372 -2.0564  2.6681
   58MOL0     H 7974  10.568   8.722   1.525  2.0553 -1.0595  1.0194
   58MOL0     H 7975  10.550   8.624   1.379  1.6462 -0.2063  0.0929
   58MOL0     H 7976  10.508   8.921   1.429  1.8768  0.2375 -0.4696
   58MOL0     H 7977  10.521   8.850   1.261  2.2153 -0.6263  0.2900
   58MOL0     H 7978  10.299   8.782   1.445 -2.9877 -1.2720 -0.8341
   58MOL0     H 7979  10.346   8.716   1.288 -0.6327  0.0637  1.9405
   58MOL0     H 7980  10.312   8.952   1.183 -3.5109 -1.2070 -1.1905
   58MOL0     H 7981  10.278   9.014   1.346 -0.0078  2.5800 -3.6531
   58MOL0     H 7982  10.077   9.005   1.233  0.4089 -0.0620 -1.0299
   58MOL0     H 7983  10.076   8.883   1.354 -0.0990 -1.1589  0.8138
   58MOL0     H 7984  11.205   8.715   1.395 -0.8751  3.6406 -0.8571
   58MOL0     H 7985  11.424   8.670   1.302 -0.6725 -2.0806  0.9592
   58MOL0     H 7986  11.693   8.672   0.992 -0.2925 -0.8319  0.5407
   58MOL0     H 7987  11.937   8.685   0.952  0.4651 -0.3738 -0.6183
   58MOL0     H 7988  10.955   8.105   1.351  0.3474  2.2958 -0.6098
   58MOL0     H 7989  10.744   8.211   1.307  0.5806  0.1058  0.3252
   58MOL0     H 7990  10.440   8.442   1.340  0.0160 -0.2671 -1.1260
   58MOL0     H 7991  10.211   8.451   1.217 -1.3026 -0.4642 -0.1949
   58MOL0     H 7992   9.859   8.257   1.412  0.5054 -0.4147  1.1119
   58MOL0     H 7993   9.803   8.328   1.259  1.5324 -1.3000 -1.8559
   58MOL0     H 7994   9.794   8.055   1.258 -0.5046  0.7257  3.6927
   58MOL0     H 7995   9.964   8.054   1.257 -1.6681 -1.2170 -0.6203
   58MOL0     H 7996   9.778   8.092   1.041 -1.2080  1.3742  0.2954
   58MOL0     H 7997   9.875   8.237   1.040  0.7282  2.0726  5.4550
   58MOL0     H 7998  10.076   8.073   1.057 -1.3061 -0.5149  1.0531
   58MOL0     H 7999   9.980   8.085   0.903 -1.1414  1.4965  0.9439
   58MOL0     H 8000   9.890   7.685   1.008  2.6825 -0.1953 -3.1863
   58MOL0     H 8001  10.052   8.158   1.459 -0.6112  0.0270  0.8708
   58MOL0     H 8002  10.332   8.060   1.662  0.3992  2.9922  3.1851
   58MOL0     H 8003  10.204   8.161   1.712 -1.0688  2.6747 -2.2998
   58MOL0     H 8004  10.170   8.036   1.590  0.1966  1.8291 -3.2433
   59MOL0     O 8005   1.841   1.212   4.223  0.2936 -0.2603  0.5352
   59MOL0     C 8006   1.772   1.164   4.316  0.9635  0.3688  0.3000
   59MOL0     O 8007   1.806   1.063   4.395  0.3112 -0.0244 -0.7204
   59MOL0     C 8008   1.942   1.044   4.424 -0.1697 -0.1983  0.2306
   59MOL0     C 8009   1.966   0.921   4.487 -0.1426  0.5950 -0.0957
   59MOL0     C 8010   2.094   0.884   4.521  0.3333 -0.0107  0.0772
   59MOL0     C 8011   2.201   0.969   4.498 -0.2502 -0.1873 -0.0143
   59MOL0     O 8012   2.335   0.942   4.520 -0.0504 -0.2224 -0.4049
   59MOL0     C 8013   2.363   0.808   4.567  0.2070  0.8020  0.1093
   59MOL0     C 8014   2.510   0.801   4.590  0.6974  0.3756 -0.3041
   59MOL0     C 8015   2.593   0.820   4.467 -0.6341  0.1059 -0.4001
   59MOL0     C 8016   2.739   0.841   4.494 -1.0185  0.7131  0.8614
   59MOL0     C 8017   2.827   0.856   4.366 -0.8719  1.3004  0.6380
   59MOL0     C 8018   2.955   0.934   4.384 -0.2115  0.0588  0.3160
   59MOL0     C 8019   3.057   0.930   4.264 -1.2004  0.5442 -0.0257
   59MOL0     C 8020   3.139   0.807   4.264  0.2603 -0.2487 -0.5069
   59MOL0     N 8021   3.232   0.806   4.157 -0.5087 -0.7756 -0.0688
   59MOL0     C 8022   3.200   0.800   4.027  0.0914 -0.7872  0.0752
   59MOL0     C 8023   3.321   0.785   3.963  0.5575 -0.8471  0.0589
   59MOL0     C 8024   3.347   0.779   3.812  0.3522  0.3072  0.7321
   59MOL0     C 8025   3.275   0.674   3.726 -1.0605  0.1147  0.2956
   59MOL0     C 8026   3.283   0.700   3.574 -0.1874  1.2849 -0.1648
   59MOL0     C 8027   3.218   0.594   3.491  0.6553  0.1032  0.9177
   59MOL0     O 8028   3.079   0.568   3.530  0.3495 -0.2178  0.4744
   59MOL0     C 8029   3.014   0.468   3.463 -0.3338 -0.1179 -0.8668
   59MOL0     C 8030   3.056   0.397   3.347 -0.2329  0.5553 -0.5607
   59MOL0     C 8031   2.974   0.297   3.284 -0.3083  0.0626  0.0580
   59MOL0     C 8032   3.030   0.221   3.169 -0.0276 -0.0275  0.5401
   59MOL0     C 8033   2.844   0.268   3.341  0.4152 -0.2444  0.3507
   59MOL0     C 8034   2.741   0.170   3.283 -0.4310  0.1998 -0.3539
   59MOL0     O 8035   2.609   0.183   3.324 -0.3615 -0.1264  0.2665
   59MOL0     C 8036   2.530   0.075   3.314 -0.1416 -0.1558  1.1525
   59MOL0     C 8037   2.542  -0.052   3.372 -1.1895  0.2844  0.0580
   59MOL0     C 8038   2.448  -0.153   3.369 -0.4294  0.3213  0.5781
   59MOL0     C 8039   2.328  -0.129   3.299 -0.2349 -0.4484  0.5018
   59MOL0     O 8040   2.246  -0.235   3.279 -0.4391  0.5415  0.5698
   59MOL0     C 8041   2.115  -0.216   3.223 -0.4656  0.2072 -0.4260
   59MOL0     C 8042   2.061  -0.357   3.204  0.1738  0.1065  0.7662
   59MOL0     C 8043   1.974  -0.367   3.075 -0.2892  0.1487 -0.6432
   59MOL0     C 8044   1.919  -0.512   3.052 -0.1447 -0.6383  0.0824
   59MOL0     C 8045   2.001  -0.624   2.999  0.7425 -0.6663  0.7999
   59MOL0     C 8046   1.930  -0.761   3.011  1.3186  0.3307 -1.1282
   59MOL0     C 8047   1.903  -0.829   3.147  0.2051 -0.3207 -0.2162
   59MOL0     C 8048   2.032  -0.851   3.226  0.2752 -0.5085  0.2792
   59MOL0    Cl 8049   2.004  -0.924   3.386  0.5050  0.0976 -0.1925
   59MOL0     C 8050   2.306  -0.002   3.233 -0.5836  0.1889 -0.2283
   59MOL0     C 8051   2.408   0.096   3.248  0.3178 -0.1388  1.0472
   59MOL0     O 8052   2.781   0.078   3.209 -0.3995 -0.0904 -0.2024
   59MOL0     C 8053   2.812   0.332   3.463 -0.8838 -0.1811  0.1510
   59MOL0     C 8054   2.890   0.433   3.512  0.7735  0.2502  0.2791
   59MOL0     N 8055   3.425   0.795   4.055  0.5697  0.2333  0.8647
   59MOL0     N 8056   3.370   0.800   4.167  0.0454  0.2939 -0.1992
   59MOL0     C 8057   2.174   1.096   4.449  0.3946 -0.6569 -0.8064
   59MOL0     C 8058   2.044   1.139   4.419  0.1893 -0.4815  0.5290
   59MOL0     C 8059   1.631   1.197   4.320 -0.1414  0.9822 -0.3621
   59MOL0     C 8060   1.577   1.294   4.401  0.2431  0.4834 -0.0829
   59MOL0     C 8061   1.435   1.312   4.411  0.2899  0.2739  0.2206
   59MOL0     C 8062   1.347   1.227   4.343 -0.2929  0.1365 -0.1318
   59MOL0     O 8063   1.213   1.226   4.333 -0.3118 -0.3164 -0.3333
   59MOL0     C 8064   1.138   1.320   4.414  0.9510  0.2174 -0.3520
   59MOL0     C 8065   0.988   1.280   4.419 -0.7935  0.5752  1.1508
   59MOL0     C 8066   0.966   1.155   4.500 -0.7981 -0.1652  0.0896
   59MOL0     C 8067   0.986   1.168   4.646  0.2688 -0.7351  0.4413
   59MOL0     C 8068   0.896   1.269   4.704 -0.3059  0.2702  0.4233
   59MOL0     C 8069   0.818   1.357   4.752 -0.2345  0.3889 -0.7008
   59MOL0     C 8070   1.398   1.126   4.267  0.7326  0.4027 -0.6742
   59MOL0     C 8071   1.538   1.116   4.253 -0.7756 -0.2550  0.5557
   59MOL0     C 8072   1.589   1.001   4.165  0.2278 -0.0588 -0.0587
   59MOL0     H 8073   1.880   0.857   4.503 -0.3837  0.6294 -1.1972
   59MOL0     H 8074   2.115   0.786   4.562 -2.2238 -0.4549  0.5366
   59MOL0     H 8075   2.344   0.728   4.494  2.2234 -0.0349  0.4446
   59MOL0     H 8076   2.310   0.774   4.656 -2.3393 -1.4189 -2.0523
   59MOL0     H 8077   2.535   0.889   4.650  0.2871  1.8084 -2.1297
   59MOL0     H 8078   2.535   0.708   4.642 -2.5938 -0.6323 -0.2553
   59MOL0     H 8079   2.588   0.728   4.408 -0.8329  0.3965 -0.8448
   59MOL0     H 8080   2.563   0.906   4.407 -0.4742  0.6391  0.2715
   59MOL0     H 8081   2.752   0.931   4.555 -2.0069  1.8446 -0.5169
   59MOL0     H 8082   2.775   0.754   4.549 -1.0023  1.4909  2.1281
   59MOL0     H 8083   2.771   0.910   4.289 -0.0056  1.6284  0.2292
   59MOL0     H 8084   2.852   0.761   4.318  1.0656  0.9220  2.3051
   59MOL0     H 8085   2.915   1.035   4.397 -1.8769 -0.5452  0.1571
   59MOL0     H 8086   2.995   0.894   4.477 -2.5872 -0.6831  1.0903
   59MOL0     H 8087   3.125   1.015   4.261  1.0576 -1.2046 -0.6469
   59MOL0     H 8088   3.009   0.946   4.167 -0.8210  1.3420 -0.0871
   59MOL0     H 8089   3.190   0.796   4.360 -0.3346  1.8600  0.1160
   59MOL0     H 8090   3.063   0.730   4.246  1.1792 -1.1042 -0.8099
   59MOL0     H 8091   3.099   0.801   3.987 -0.8007 -0.8636  2.2409
   59MOL0     H 8092   3.455   0.764   3.801  0.6312  0.9385  2.2429
   59MOL0     H 8093   3.348   0.884   3.781  3.3337  0.3927  0.7588
   59MOL0     H 8094   3.310   0.572   3.742 -2.1614 -0.5823 -1.4943
   59MOL0     H 8095   3.168   0.679   3.748 -0.9735  2.0727  0.4819
   59MOL0     H 8096   3.243   0.798   3.547  0.7016  0.9520 -3.1342
   59MOL0     H 8097   3.388   0.710   3.545 -0.5747  2.5249 -1.2734
   59MOL0     H 8098   3.215   0.636   3.390  1.5610  2.8852  1.9443
   59MOL0     H 8099   3.274   0.501   3.496  1.3862  0.5776  3.7547
   59MOL0     H 8100   3.152   0.426   3.307 -0.3308  0.8071 -0.6182
   59MOL0     H 8101   3.017   0.115   3.194 -0.2436  0.1311  1.1004
   59MOL0     H 8102   3.135   0.250   3.160 -0.6198  2.0183 -0.1618
   59MOL0     H 8103   2.985   0.252   3.074  0.4821  1.3932  0.7449
   59MOL0     H 8104   2.631  -0.066   3.432 -0.9473 -2.4073 -0.7955
   59MOL0     H 8105   2.460  -0.250   3.415 -0.4029 -0.3380 -0.7697
   59MOL0     H 8106   2.039  -0.153   3.269 -2.9776  0.2994 -4.2479
   59MOL0     H 8107   2.138  -0.175   3.125  0.0554  2.3447  0.5363
   59MOL0     H 8108   2.145  -0.426   3.188  1.6422  2.3251 -1.9309
   59MOL0     H 8109   2.004  -0.397   3.289 -1.8140 -0.0292 -0.5604
   59MOL0     H 8110   2.019  -0.322   2.986 -2.6487  2.5649 -0.7638
   59MOL0     H 8111   1.891  -0.298   3.091 -0.1904 -0.0751  1.0109
   59MOL0     H 8112   1.839  -0.491   2.981  0.3993  1.9631  0.1348
   59MOL0     H 8113   1.868  -0.551   3.141  1.0303  1.2878  1.6949
   59MOL0     H 8114   2.020  -0.606   2.893  1.3533 -0.0242  1.0125
   59MOL0     H 8115   2.093  -0.619   3.058  2.0988  1.1077 -1.3247
   59MOL0     H 8116   1.997  -0.824   2.951 -0.6965 -2.7124 -0.4411
   59MOL0     H 8117   1.838  -0.735   2.958  0.0136  0.3436  1.0363
   59MOL0     H 8118   1.852  -0.925   3.140  0.8664 -0.8609  1.8601
   59MOL0     H 8119   1.839  -0.758   3.201 -0.5145  0.6889 -2.2543
   59MOL0     H 8120   2.089  -0.758   3.236  0.7150 -0.5654 -1.3480
   59MOL0     H 8121   2.093  -0.920   3.167 -0.2908  1.2612 -2.6291
   59MOL0     H 8122   2.211   0.021   3.185 -0.0513 -0.9551 -1.9245
   59MOL0     H 8123   2.382   0.192   3.203  1.7080 -1.2255 -2.3538
   59MOL0     H 8124   2.724   0.310   3.523 -0.9350 -1.7327 -0.4404
   59MOL0     H 8125   2.849   0.492   3.594 -0.7114 -0.1295 -0.1592
   59MOL0     H 8126   2.248   1.174   4.444  0.5660 -0.7719 -0.0874
   59MOL0     H 8127   2.022   1.241   4.389  1.4822  0.5418  2.7499
   59MOL0     H 8128   1.639   1.359   4.462 -1.2851  0.2698  1.7947
   59MOL0     H 8129   1.402   1.389   4.480 -2.8636 -1.9851  1.4151
   59MOL0     H 8130   1.170   1.320   4.519 -0.1031  1.5696 -0.0042
   59MOL0     H 8131   1.149   1.424   4.382  3.8456  0.2747  0.5557
   59MOL0     H 8132   0.972   1.269   4.311  0.3060  2.0467  0.8084
   59MOL0     H 8133   0.918   1.354   4.458 -0.4457  2.0108 -0.7701
   59MOL0     H 8134   0.858   1.141   4.490 -0.5128 -3.1635  0.2399
   59MOL0     H 8135   1.012   1.063   4.463 -1.5318  0.0298 -1.3789
   59MOL0     H 8136   1.091   1.195   4.662  0.1047  0.3508 -0.1932
   59MOL0     H 8137   0.956   1.073   4.689 -2.0852  0.4807  1.6972
   59MOL0     H 8138   0.750   1.429   4.792 -0.4663 -0.5113  0.5866
   59MOL0     H 8139   1.339   1.055   4.211  0.4621  0.2068 -0.1532
   59MOL0     H 8140   1.649   0.925   4.218  0.6407  0.8269  0.7761
   59MOL0     H 8141   1.506   0.948   4.117  0.9276 -0.8003 -0.4793
   59MOL0     H 8142   1.656   1.028   4.083  2.3086 -0.4878  1.3996
   60MOL0     O 8143   1.741   8.234   5.639  0.4969 -0.5981 -0.0688
   60MOL0     C 8144   1.719   8.330   5.719 -0.3232  0.6699  0.1381
   60MOL0     O 8145   1.818   8.378   5.798  0.3364  0.0381 -0.3086
   60MOL0     C 8146   1.943   8.345   5.749 -0.5432 -0.9897 -0.5946
   60MOL0     C 8147   2.016   8.261   5.827 -0.7262  0.7021  1.0045
   60MOL0     C 8148   2.152   8.244   5.793 -0.4570  0.5371 -0.2217
   60MOL0     C 8149   2.220   8.303   5.686  0.2891  0.1449  0.6169
   60MOL0     O 8150   2.349   8.283   5.652  0.8224 -0.3061 -0.6314
   60MOL0     C 8151   2.442   8.301   5.762 -0.2894  0.3001 -0.5143
   60MOL0     C 8152   2.433   8.441   5.826 -0.2377  0.0452 -0.6477
   60MOL0     C 8153   2.574   8.473   5.871 -1.0752 -0.9878  0.2231
   60MOL0     C 8154   2.573   8.606   5.942 -0.2729  0.2994 -0.5878
   60MOL0     C 8155   2.704   8.687   5.927  0.6505 -0.4074 -0.5859
   60MOL0     C 8156   2.831   8.599   5.943 -0.0049  0.2992  0.6727
   60MOL0     C 8157   2.947   8.692   5.926 -0.6166  0.4674  0.3318
   60MOL0     C 8158   3.090   8.626   5.918  0.3083 -1.2208 -0.2789
   60MOL0     N 8159   3.180   8.740   5.938 -0.2535 -0.3296  0.5145
   60MOL0     C 8160   3.184   8.858   5.870  0.1759 -0.8037  0.2064
   60MOL0     C 8161   3.249   8.951   5.946 -0.6540 -0.2805  0.8213
   60MOL0     C 8162   3.286   9.087   5.887  0.0132 -0.6687 -0.3698
   60MOL0     C 8163   3.429   9.136   5.937 -0.0634 -0.8688  0.3512
   60MOL0     C 8164   3.472   9.244   5.844 -0.1168  0.0265 -0.1455
   60MOL0     C 8165   3.614   9.303   5.881  1.4843  0.2946 -0.0999
   60MOL0     O 8166   3.733   9.222   5.863 -0.4377  0.4195 -0.5430
   60MOL0     C 8167   3.859   9.269   5.884  0.6934 -0.3619  0.2625
   60MOL0     C 8168   3.879   9.396   5.945 -0.2519  0.8081 -0.0458
   60MOL0     C 8169   4.010   9.432   5.981  1.1054  0.0152  0.3318
   60MOL0     C 8170   4.021   9.567   6.042  0.3775 -0.4220  0.1021
   60MOL0     C 8171   4.123   9.354   5.945 -0.1293 -0.5236  0.3474
   60MOL0     C 8172   4.268   9.394   5.982 -0.6295  0.3041 -0.6240
   60MOL0     O 8173   4.372   9.309   5.940  0.3834 -0.4378  0.1801
   60MOL0     C 8174   4.500   9.336   5.977 -1.1353 -0.4745  0.5413
   60MOL0     C 8175   4.548   9.300   6.103 -0.7883 -0.2458 -0.1134
   60MOL0     C 8176   4.688   9.310   6.122 -0.7769 -0.0277 -0.1204
   60MOL0     C 8177   4.775   9.362   6.027  1.1114  0.5203  1.5930
   60MOL0     O 8178   4.900   9.379   6.062 -1.1232  0.3141  0.4775
   60MOL0     C 8179   4.984   9.447   5.961 -0.1287 -0.7872  0.3601
   60MOL0     C 8180   5.135   9.467   6.017 -0.1419  0.1144  0.2935
   60MOL0     C 8181   5.191   9.329   6.073 -0.2556 -0.3662  1.2479
   60MOL0     C 8182   5.337   9.329   6.107 -0.6835  0.3550 -0.8652
   60MOL0     C 8183   5.371   9.448   6.202  0.2770  0.7155 -0.3779
   60MOL0     C 8184   5.527   9.428   6.239  0.6745  0.8435 -0.3317
   60MOL0     C 8185   5.579   9.534   6.332  0.1668  0.9348  0.1793
   60MOL0     C 8186   5.732   9.503   6.367 -0.1321  0.0560 -0.3257
   60MOL0    Cl 8187   5.823   9.466   6.229 -0.0822 -0.2396 -0.2417
   60MOL0     C 8188   4.715   9.395   5.898 -0.0216  0.5061 -0.1219
   60MOL0     C 8189   4.577   9.383   5.874 -0.2103 -0.5414 -0.7135
   60MOL0     O 8190   4.290   9.493   6.058  0.3752  0.3296 -0.1403
   60MOL0     C 8191   4.095   9.232   5.880 -0.3898 -0.4100 -0.5793
   60MOL0     C 8192   3.969   9.191   5.844  0.7168  0.0326 -0.5618
   60MOL0     N 8193   3.295   8.880   6.056 -0.8862 -0.2881  0.1007
   60MOL0     N 8194   3.244   8.759   6.051 -0.1973  0.2424 -0.2025
   60MOL0     C 8195   2.135   8.379   5.599 -0.4142  0.3860  0.0677
   60MOL0     C 8196   1.999   8.408   5.636  0.0534 -0.2949  0.7940
   60MOL0     C 8197   1.575   8.384   5.721 -0.5286 -0.8685  1.6414
   60MOL0     C 8198   1.535   8.434   5.843 -0.2174  0.2638 -0.0278
   60MOL0     C 8199   1.399   8.481   5.857  0.2140 -0.5581 -0.1388
   60MOL0     C 8200   1.307   8.469   5.759  0.0698 -0.0240  0.5947
   60MOL0     O 8201   1.172   8.487   5.767  0.0047  0.0362  0.1816
   60MOL0     C 8202   1.089   8.511   5.656 -0.1914  0.4287  0.1818
   60MOL0     C 8203   1.125   8.632   5.575 -0.2743  0.0219 -0.0790
   60MOL0     C 8204   1.144   8.763   5.645 -0.3405  0.5395 -0.0537
   60MOL0     C 8205   1.099   8.892   5.578  0.1643  0.0445 -0.1473
   60MOL0     C 8206   1.139   8.894   5.436  0.4916  0.3767  0.5692
   60MOL0     C 8207   1.159   8.900   5.315 -0.4041 -0.6442  0.2149
   60MOL0     C 8208   1.350   8.407   5.647  0.6779  0.4933  0.8841
   60MOL0     C 8209   1.483   8.374   5.612  0.1212  0.1556  0.5021
   60MOL0     C 8210   1.520   8.349   5.471 -0.4833 -0.7752 -0.6766
   60MOL0     H 8211   1.959   8.212   5.906 -0.1895  0.1785  1.0788
   60MOL0     H 8212   2.203   8.168   5.851 -1.0382 -0.8262 -1.4460
   60MOL0     H 8213   2.541   8.279   5.721  0.4987  0.1573  1.3411
   60MOL0     H 8214   2.432   8.229   5.845 -0.4111 -1.1878 -1.7712
   60MOL0     H 8215   2.413   8.507   5.741  1.9030 -0.6235 -1.7493
   60MOL0     H 8216   2.359   8.450   5.905 -0.7414 -3.6598 -0.5387
   60MOL0     H 8217   2.611   8.381   5.918  0.2552 -2.1224 -2.8377
   60MOL0     H 8218   2.623   8.496   5.776  0.2576 -1.3367  0.7948
   60MOL0     H 8219   2.498   8.669   5.894 -0.6514 -0.7824 -1.4670
   60MOL0     H 8220   2.536   8.606   6.044 -2.5019 -1.3706 -1.3144
   60MOL0     H 8221   2.712   8.778   5.988 -0.4953  0.2860 -1.4199
   60MOL0     H 8222   2.699   8.729   5.826  1.1678 -2.6222 -1.5955
   60MOL0     H 8223   2.841   8.568   6.047 -1.5838  2.6741  1.6175
   60MOL0     H 8224   2.826   8.514   5.875  0.7943  0.1780  0.7597
   60MOL0     H 8225   2.931   8.765   6.007  0.1904  0.9796  0.0441
   60MOL0     H 8226   2.929   8.746   5.832 -1.9884 -0.7225 -0.1219
   60MOL0     H 8227   3.103   8.551   5.997 -1.0616 -1.4162 -0.2110
   60MOL0     H 8228   3.113   8.570   5.827  0.1079  0.8544 -1.6551
   60MOL0     H 8229   3.137   8.888   5.777  2.1737 -2.5006 -1.4608
   60MOL0     H 8230   3.215   9.164   5.920  1.1681  0.6692 -0.9185
   60MOL0     H 8231   3.279   9.087   5.778 -0.5649 -0.2200 -0.3394
   60MOL0     H 8232   3.425   9.178   6.038  0.7415  0.8929 -0.3274
   60MOL0     H 8233   3.504   9.056   5.936 -0.0512 -0.9551  2.6223
   60MOL0     H 8234   3.470   9.213   5.740  1.4962  3.6279 -1.4401
   60MOL0     H 8235   3.406   9.332   5.853 -1.4441 -0.7329 -1.8137
   60MOL0     H 8236   3.623   9.400   5.832 -3.3079  0.2148 -1.6261
   60MOL0     H 8237   3.604   9.327   5.988  2.4598 -0.9211  0.2985
   60MOL0     H 8238   3.800   9.468   5.958 -0.4890  0.3163  1.4493
   60MOL0     H 8239   4.094   9.623   5.983 -0.6520  0.4044 -0.4349
   60MOL0     H 8240   4.059   9.556   6.143  0.4154  0.3353  0.1756
   60MOL0     H 8241   3.927   9.620   6.060  0.7599  0.8100 -1.2672
   60MOL0     H 8242   4.487   9.267   6.187 -1.2064 -0.8984 -0.6560
   60MOL0     H 8243   4.728   9.277   6.217  0.1398  1.0479 -0.0977
   60MOL0     H 8244   4.991   9.388   5.869  2.1929  0.6955 -0.5071
   60MOL0     H 8245   4.941   9.545   5.941 -0.6048 -1.1766 -0.5770
   60MOL0     H 8246   5.205   9.496   5.938  1.3818 -0.3050  1.4540
   60MOL0     H 8247   5.139   9.540   6.098  1.3130 -1.3339  1.5865
   60MOL0     H 8248   5.173   9.251   5.999  1.0680  1.0452 -0.6843
   60MOL0     H 8249   5.130   9.296   6.158 -0.0545 -3.1657  0.3862
   60MOL0     H 8250   5.392   9.349   6.014  0.5312  4.5648  0.5177
   60MOL0     H 8251   5.361   9.232   6.151 -2.8117  0.8764  1.7079
   60MOL0     H 8252   5.353   9.548   6.162 -0.4630  0.8541  0.2893
   60MOL0     H 8253   5.307   9.450   6.290  0.2407 -3.7732 -0.0571
   60MOL0     H 8254   5.601   9.434   6.159  1.1141 -0.8654 -0.0961
   60MOL0     H 8255   5.535   9.334   6.294  0.0785  0.6055 -0.6551
   60MOL0     H 8256   5.526   9.526   6.427  2.9213  3.0137  2.0425
   60MOL0     H 8257   5.568   9.639   6.301  0.7604  0.2276 -2.7888
   60MOL0     H 8258   5.752   9.433   6.448 -1.5536  1.0073  0.9156
   60MOL0     H 8259   5.786   9.585   6.415 -0.0655 -0.9704  1.4339
   60MOL0     H 8260   4.774   9.437   5.816  4.2354 -1.7537  1.4706
   60MOL0     H 8261   4.536   9.411   5.777 -3.9615  0.2089  0.9066
   60MOL0     H 8262   4.181   9.169   5.857 -0.6410 -2.2644  2.8417
   60MOL0     H 8263   3.952   9.104   5.781 -2.2042 -0.4451  0.7485
   60MOL0     H 8264   2.163   8.427   5.506 -1.1243 -0.3493 -0.5367
   60MOL0     H 8265   1.940   8.467   5.566 -1.3421  0.0854  2.2193
   60MOL0     H 8266   1.606   8.420   5.924  0.4838 -2.2784 -1.0109
   60MOL0     H 8267   1.364   8.518   5.953  2.6117 -0.5392  0.7893
   60MOL0     H 8268   1.076   8.426   5.588  0.4680  0.1186  0.4349
   60MOL0     H 8269   0.989   8.526   5.699  1.5108  4.1274  3.4390
   60MOL0     H 8270   1.055   8.629   5.491  1.4681 -0.4650 -1.5780
   60MOL0     H 8271   1.224   8.607   5.537 -0.2004  0.3138 -0.0797
   60MOL0     H 8272   1.084   8.745   5.734  1.5756 -1.7995  0.8610
   60MOL0     H 8273   1.249   8.776   5.673  0.5966 -3.6638 -0.9107
   60MOL0     H 8274   1.125   8.988   5.621 -0.8991 -0.3056  1.3653
   60MOL0     H 8275   0.992   8.905   5.597  0.4032  0.6939  0.7793
   60MOL0     H 8276   1.171   8.905   5.209  2.4654  0.1917  0.5032
   60MOL0     H 8277   1.287   8.381   5.563 -0.0565 -0.5624  1.7352
   60MOL0     H 8278   1.531   8.241   5.453  2.8312 -0.7305  0.4130
   60MOL0     H 8279   1.451   8.394   5.400  0.4596 -0.1894 -1.2395
   60MOL0     H 8280   1.621   8.392   5.470 -2.3715  4.4447  1.3295
   61MOL0     O 8281   5.395   0.632  10.032 -0.3956 -0.5722 -1.1205
   61MOL0     C 8282   5.424   0.514  10.058 -0.3676 -0.2429 -0.0450
   61MOL0     O 8283   5.526   0.444  10.012 -0.0458  0.1980 -0.8262
   61MOL0     C 8284   5.628   0.502   9.954 -0.1138  0.3962 -0.5983
   61MOL0     C 8285   5.614   0.570   9.834 -0.5306  0.4030  0.2754
   61MOL0     C 8286   5.728   0.612   9.763  0.7245  0.6041 -0.5916
   61MOL0     C 8287   5.855   0.581   9.808  0.0258 -0.1879  0.7301
   61MOL0     O 8288   5.948   0.630   9.729 -0.7345  0.5589 -0.4161
   61MOL0     C 8289   6.088   0.625   9.773  0.1906 -0.2962  0.6493
   61MOL0     C 8290   6.148   0.489   9.736 -0.1423  0.2345 -0.6015
   61MOL0     C 8291   6.301   0.487   9.786 -0.6843 -0.0149 -0.7652
   61MOL0     C 8292   6.383   0.598   9.716  0.9769  0.4201 -0.0472
   61MOL0     C 8293   6.527   0.598   9.764 -0.2445 -0.3225  0.1671
   61MOL0     C 8294   6.623   0.687   9.673 -0.8470  0.3468  0.2508
   61MOL0     C 8295   6.769   0.669   9.719  0.0356  0.5240  0.7344
   61MOL0     C 8296   6.862   0.763   9.645  0.2051 -0.2775  0.1897
   61MOL0     N 8297   7.004   0.727   9.657  0.2750 -0.2879  0.6998
   61MOL0     C 8298   7.099   0.789   9.724 -0.9253  0.8275 -0.4737
   61MOL0     C 8299   7.213   0.718   9.694  0.3038  0.0309  0.4303
   61MOL0     C 8300   7.359   0.764   9.729  0.7952  0.1912 -0.4023
   61MOL0     C 8301   7.391   0.796   9.886  0.2200 -0.3542  0.5082
   61MOL0     C 8302   7.534   0.868   9.897  0.1649  0.6547  1.1712
   61MOL0     C 8303   7.593   0.837  10.034 -0.3911 -0.1344 -0.3610
   61MOL0     O 8304   7.555   0.713  10.098  0.3618  0.2880  0.1779
   61MOL0     C 8305   7.638   0.610  10.077 -0.6716  0.0156  0.2334
   61MOL0     C 8306   7.627   0.489  10.144 -0.0228  0.3499  0.5739
   61MOL0     C 8307   7.708   0.377  10.128  0.2746 -0.4674 -0.1822
   61MOL0     C 8308   7.677   0.256  10.216  0.5451  0.1601  0.4165
   61MOL0     C 8309   7.826   0.396  10.043 -0.2803 -0.0804 -0.5711
   61MOL0     C 8310   7.936   0.302  10.035  0.4247  0.0618 -0.1572
   61MOL0     O 8311   8.007   0.280   9.914  0.4400 -0.2446  0.3308
   61MOL0     C 8312   8.126   0.207   9.926 -0.0015 -0.7037  0.2572
   61MOL0     C 8313   8.246   0.276   9.929  0.3622 -0.2879  0.8903
   61MOL0     C 8314   8.365   0.198   9.941 -0.6108  0.7070 -0.3611
   61MOL0     C 8315   8.368   0.056   9.935 -0.0696 -0.3063 -0.2887
   61MOL0     O 8316   8.485  -0.003   9.966 -0.7879 -0.6205  0.1664
   61MOL0     C 8317   8.496  -0.145   9.991 -0.7282 -0.5503 -0.0029
   61MOL0     C 8318   8.643  -0.189  10.019 -0.2299  0.6119 -1.1548
   61MOL0     C 8319   8.732  -0.144   9.900  0.8735 -0.0403 -0.5673
   61MOL0     C 8320   8.864  -0.234   9.900 -0.7910 -0.6494  0.6709
   61MOL0     C 8321   8.995  -0.160   9.869 -0.7033 -0.2831 -0.0974
   61MOL0     C 8322   9.107  -0.270   9.847 -0.3672 -0.3826 -0.3605
   61MOL0     C 8323   9.159  -0.346   9.975 -0.4896 -0.8076  0.8713
   61MOL0     C 8324   9.256  -0.455   9.935  1.1648  0.5515 -0.0514
   61MOL0    Cl 8325   9.311  -0.549  10.077  0.3374  0.2688 -0.0058
   61MOL0     C 8326   8.240  -0.009   9.929 -0.7873 -0.2502  0.3585
   61MOL0     C 8327   8.116   0.070   9.936  0.0922  0.5475  0.3123
   61MOL0     O 8328   7.961   0.234  10.139  0.2458 -0.9815 -0.4128
   61MOL0     C 8329   7.840   0.516   9.980 -0.6074 -0.0402 -0.0971
   61MOL0     C 8330   7.741   0.611   9.974  0.2899  0.4740 -0.7339
   61MOL0     N 8331   7.180   0.608   9.618  0.2109 -0.4747  0.7733
   61MOL0     N 8332   7.051   0.614   9.607 -0.5541  0.1200 -0.1816
   61MOL0     C 8333   5.868   0.506   9.924 -0.5270 -0.1889  0.3206
   61MOL0     C 8334   5.757   0.471  10.008 -0.4987 -1.0807  0.5872
   61MOL0     C 8335   5.334   0.440  10.145 -0.8259 -0.9379 -0.4128
   61MOL0     C 8336   5.195   0.445  10.127 -0.3159 -0.2579 -0.2662
   61MOL0     C 8337   5.110   0.377  10.225  0.1794 -0.9802 -0.2319
   61MOL0     C 8338   5.157   0.315  10.331  0.1471  0.9183 -0.9536
   61MOL0     O 8339   5.065   0.269  10.428 -0.1669  0.0884 -0.1747
   61MOL0     C 8340   5.039   0.130  10.423 -0.5956  0.5051 -1.4366
   61MOL0     C 8341   4.944   0.071  10.537 -0.6286  0.0385 -0.0127
   61MOL0     C 8342   5.016   0.095  10.667  0.3813  0.0227  0.4247
   61MOL0     C 8343   5.123  -0.012  10.708  0.0374 -0.6095  0.3534
   61MOL0     C 8344   5.180   0.005  10.840 -0.7227  0.0667  1.7600
   61MOL0     C 8345   5.241   0.016  10.942  0.1088 -0.6473  0.0411
   61MOL0     C 8346   5.293   0.312  10.354 -0.3045 -0.1266 -0.2542
   61MOL0     C 8347   5.384   0.372  10.257  0.3084  0.2359 -0.5680
   61MOL0     C 8348   5.528   0.358  10.297  0.3990  0.5776 -0.8655
   61MOL0     H 8349   5.513   0.586   9.798 -0.8214  0.1447  0.9617
   61MOL0     H 8350   5.711   0.677   9.677  0.2962  0.9260 -0.2662
   61MOL0     H 8351   6.105   0.646   9.879 -1.1967  0.7721  0.6852
   61MOL0     H 8352   6.138   0.705   9.719 -1.8654 -0.6606 -2.0168
   61MOL0     H 8353   6.088   0.405   9.771 -1.1747  1.8586  1.8007
   61MOL0     H 8354   6.156   0.486   9.626  1.1652 -0.4493 -0.5129
   61MOL0     H 8355   6.315   0.483   9.895 -0.8924 -3.1583 -0.7786
   61MOL0     H 8356   6.344   0.391   9.757 -0.2224 -0.1047  0.1855
   61MOL0     H 8357   6.372   0.566   9.612  0.4555  0.0781  0.1107
   61MOL0     H 8358   6.350   0.701   9.734  0.3797 -0.2958  3.5751
   61MOL0     H 8359   6.562   0.495   9.752  0.9366  0.1491 -0.6169
   61MOL0     H 8360   6.527   0.623   9.870  2.2788  0.1662  0.1198
   61MOL0     H 8361   6.609   0.653   9.570  2.4094 -1.0640  0.1620
   61MOL0     H 8362   6.589   0.791   9.670 -1.2032  0.2265  0.0112
   61MOL0     H 8363   6.811   0.570   9.700 -0.2811  0.6198 -0.5946
   61MOL0     H 8364   6.779   0.687   9.826  1.7588  3.2066  0.2345
   61MOL0     H 8365   6.832   0.752   9.541 -2.2260 -0.7038  0.8738
   61MOL0     H 8366   6.855   0.870   9.668 -1.0447 -0.5258  1.0461
   61MOL0     H 8367   7.097   0.892   9.757  1.2998  0.6557  0.3124
   61MOL0     H 8368   7.376   0.859   9.677 -0.3253  1.1232  0.8659
   61MOL0     H 8369   7.429   0.688   9.692 -0.7649 -1.1246 -0.7580
   61MOL0     H 8370   7.312   0.864   9.917 -0.2714 -0.3548 -0.6744
   61MOL0     H 8371   7.388   0.700   9.939  1.7959 -1.5293 -1.3446
   61MOL0     H 8372   7.598   0.839   9.814  0.3910  1.6510  0.9896
   61MOL0     H 8373   7.519   0.974   9.878 -1.1176 -0.1563 -3.7509
   61MOL0     H 8374   7.702   0.845  10.028  0.0994 -4.6897 -2.2348
   61MOL0     H 8375   7.559   0.920  10.096  0.4802 -3.2155  4.8296
   61MOL0     H 8376   7.549   0.485  10.219  2.8040  0.2688  3.7366
   61MOL0     H 8377   7.749   0.258  10.298  1.9536  1.6536 -0.8050
   61MOL0     H 8378   7.689   0.170  10.149  1.4725  0.3148  0.3816
   61MOL0     H 8379   7.575   0.239  10.252  0.5096  0.5414  0.4992
   61MOL0     H 8380   8.253   0.384   9.927  1.0700 -0.2077 -3.5616
   61MOL0     H 8381   8.457   0.254   9.947 -0.3541  0.2823 -0.2808
   61MOL0     H 8382   8.431  -0.181  10.072  0.8984  1.3603  2.3204
   61MOL0     H 8383   8.473  -0.194   9.897  0.0131 -1.2952  0.1997
   61MOL0     H 8384   8.679  -0.153  10.116 -0.3253 -0.4208 -0.7167
   61MOL0     H 8385   8.650  -0.298  10.019 -1.1777  0.4984  1.0415
   61MOL0     H 8386   8.759  -0.041   9.925 -0.5176  0.1524  0.2656
   61MOL0     H 8387   8.678  -0.165   9.808 -0.6642 -1.7095  0.6351
   61MOL0     H 8388   8.854  -0.311   9.822  0.4473 -1.2245  1.0447
   61MOL0     H 8389   8.877  -0.264  10.005  2.5345  1.2562  0.9310
   61MOL0     H 8390   8.989  -0.128   9.765 -3.1207 -3.2300 -1.0102
   61MOL0     H 8391   9.016  -0.071   9.929 -1.5730  0.2014 -0.4905
   61MOL0     H 8392   9.197  -0.227   9.805  0.4301 -0.4861  1.1577
   61MOL0     H 8393   9.061  -0.345   9.781  1.2908 -1.2459 -0.5687
   61MOL0     H 8394   9.075  -0.392  10.028  0.0510 -3.2197 -0.2765
   61MOL0     H 8395   9.222  -0.284  10.040  1.4688 -2.7735  0.9337
   61MOL0     H 8396   9.347  -0.410   9.894  2.7966 -1.6379  0.9720
   61MOL0     H 8397   9.208  -0.521   9.863 -0.9233  0.0236  1.7220
   61MOL0     H 8398   8.245  -0.117   9.924  3.4395 -0.1415 -2.3836
   61MOL0     H 8399   8.023   0.014   9.937 -0.0363  0.7559  0.0473
   61MOL0     H 8400   7.931   0.521   9.921  1.0221 -0.7016  2.2225
   61MOL0     H 8401   7.752   0.689   9.899 -1.5399  1.0004 -0.4991
   61MOL0     H 8402   5.967   0.472   9.953 -0.4462 -0.3696 -0.1560
   61MOL0     H 8403   5.760   0.425  10.106  0.1985  0.1175  1.1393
   61MOL0     H 8404   5.161   0.510  10.047 -0.2927  0.3580  0.2139
   61MOL0     H 8405   5.004   0.398  10.222  0.5024  2.2135  3.0929
   61MOL0     H 8406   4.984   0.113  10.330 -3.0002  3.3811 -0.6747
   61MOL0     H 8407   5.132   0.073  10.417 -1.1014 -0.2456 -2.5581
   61MOL0     H 8408   4.926  -0.037  10.538 -1.5962  0.1899  0.9152
   61MOL0     H 8409   4.844   0.115  10.538  0.1097  1.8474 -0.4371
   61MOL0     H 8410   5.069   0.190  10.657  0.5835 -0.0830  0.5078
   61MOL0     H 8411   4.932   0.107  10.737  0.3771  0.3520  0.3672
   61MOL0     H 8412   5.209  -0.006  10.641  0.1152 -0.3378  0.4779
   61MOL0     H 8413   5.074  -0.109  10.697 -0.0209 -0.5601  0.1688
   61MOL0     H 8414   5.279   0.013  11.042  0.5741 -0.7445 -0.1332
   61MOL0     H 8415   5.324   0.263  10.446 -0.2030  0.7596  0.1982
   61MOL0     H 8416   5.546   0.322  10.398  1.3414  4.2844  0.4546
   61MOL0     H 8417   5.582   0.313  10.213  0.7585 -0.0822 -0.2840
   61MOL0     H 8418   5.569   0.460  10.300  0.1041  0.7571 -2.1864
   62MOL0     O 8419   8.885   4.780   5.563  0.3564 -0.3828  0.0546
   62MOL0     C 8420   8.981   4.856   5.540 -0.2915 -0.9567 -1.2519
   62MOL0     O 8421   9.036   4.925   5.637  0.3186 -0.1182  0.2433
   62MOL0     C 8422   8.984   4.918   5.766  0.5497 -0.0333  0.5972
   62MOL0     C 8423   9.002   4.812   5.849  0.0554 -0.2217 -0.4354
   62MOL0     C 8424   8.939   4.807   5.977 -0.9646  0.0017 -0.1118
   62MOL0     C 8425   8.864   4.914   6.028  0.5274 -0.7538 -0.3624
   62MOL0     O 8426   8.811   4.924   6.154  0.9786  0.0247  0.2165
   62MOL0     C 8427   8.718   4.808   6.178  1.0897 -0.0782 -0.2016
   62MOL0     C 8428   8.737   4.739   6.311  0.6434  0.7384 -0.2448
   62MOL0     C 8429   8.881   4.689   6.320  0.9191 -0.4094  0.3965
   62MOL0     C 8430   8.896   4.595   6.447  0.5633  0.1725 -0.0120
   62MOL0     C 8431   9.022   4.511   6.417  0.7112  0.5593 -0.2041
   62MOL0     C 8432   9.146   4.601   6.414 -1.2375  0.0747  0.5360
   62MOL0     C 8433   9.262   4.523   6.455 -0.6387 -0.5586  0.5046
   62MOL0     C 8434   9.287   4.399   6.367  1.3260 -0.4177  0.0774
   62MOL0     N 8435   9.368   4.302   6.440 -0.4273 -0.2851 -0.6906
   62MOL0     C 8436   9.503   4.293   6.464  0.4801 -0.1098 -0.4789
   62MOL0     C 8437   9.524   4.177   6.514  0.1480 -0.4352 -0.0559
   62MOL0     C 8438   9.644   4.114   6.568 -0.7281  0.0909  0.9705
   62MOL0     C 8439   9.750   4.100   6.462 -0.5205  0.5337 -0.3051
   62MOL0     C 8440   9.866   4.028   6.524  0.3818  0.6179 -0.0824
   62MOL0     C 8441   9.977   4.004   6.431  0.1200 -0.1526  0.7201
   62MOL0     O 8442  10.062   4.121   6.434 -0.3504  0.1109 -0.6178
   62MOL0     C 8443  10.181   4.119   6.365  0.1533 -0.4735  0.1137
   62MOL0     C 8444  10.224   4.029   6.271 -0.3584  0.7056 -0.1708
   62MOL0     C 8445  10.349   4.029   6.199 -0.1310 -0.6124  0.1738
   62MOL0     C 8446  10.368   3.914   6.104  0.1991  1.3100  0.4301
   62MOL0     C 8447  10.445   4.127   6.235  0.1527  0.7713  0.2592
   62MOL0     C 8448  10.586   4.146   6.176 -0.7551  0.0693 -0.4974
   62MOL0     O 8449  10.653   4.254   6.211  0.0991  0.0726  0.0793
   62MOL0     C 8450  10.788   4.249   6.224 -0.2074  0.2024  0.7518
   62MOL0     C 8451  10.879   4.209   6.115  0.8132 -0.4845 -1.4612
   62MOL0     C 8452  11.017   4.201   6.143  0.3789  0.2035 -0.2682
   62MOL0     C 8453  11.066   4.238   6.267 -0.0966  0.3240 -0.2362
   62MOL0     O 8454  11.202   4.245   6.286 -0.1900 -0.4586 -1.1035
   62MOL0     C 8455  11.272   4.117   6.281  1.2403 -0.5511  0.0372
   62MOL0     C 8456  11.371   4.090   6.392 -0.1896  0.0072 -0.3965
   62MOL0     C 8457  11.462   3.984   6.347 -0.6905  0.1567 -0.8986
   62MOL0     C 8458  11.385   3.846   6.362  0.1929  1.1790 -0.3710
   62MOL0     C 8459  11.463   3.724   6.420 -0.0271  0.2503  0.0183
   62MOL0     C 8460  11.360   3.639   6.495  0.1887  1.0684 -1.0763
   62MOL0     C 8461  11.228   3.598   6.429 -0.3187 -0.5192  0.2368
   62MOL0     C 8462  11.231   3.490   6.315 -0.1059 -0.8439 -0.1588
   62MOL0    Cl 8463  11.258   3.565   6.156 -0.1211  0.4617 -0.2350
   62MOL0     C 8464  10.980   4.266   6.369  0.3905 -0.8116 -0.5574
   62MOL0     C 8465  10.840   4.283   6.345  1.6246  0.1333 -0.0650
   62MOL0     O 8466  10.628   4.071   6.095 -0.0644  0.5841  0.0661
   62MOL0     C 8467  10.409   4.214   6.342 -0.6555 -0.3512  0.8634
   62MOL0     C 8468  10.281   4.210   6.407 -1.1192 -0.0561 -0.1405
   62MOL0     N 8469   9.402   4.107   6.520 -0.5183  0.7933 -0.0935
   62MOL0     N 8470   9.310   4.185   6.481 -0.3250 -0.0069  0.6997
   62MOL0     C 8471   8.851   5.029   5.941  0.7705 -0.8089 -0.8451
   62MOL0     C 8472   8.912   5.033   5.811 -0.1759  0.3613  0.6025
   62MOL0     C 8473   9.057   4.852   5.407  0.6644 -0.0104 -0.5195
   62MOL0     C 8474   9.152   4.952   5.384 -0.2437  0.5923 -0.3680
   62MOL0     C 8475   9.216   4.951   5.262 -0.1736  0.7018  0.4817
   62MOL0     C 8476   9.195   4.858   5.168  0.2442  0.1749  0.9906
   62MOL0     O 8477   9.265   4.875   5.050 -0.2091 -0.8450 -0.4240
   62MOL0     C 8478   9.384   4.809   5.031 -0.9442  0.7057 -0.1644
   62MOL0     C 8479   9.345   4.666   4.969  0.5691  1.0957 -0.3493
   62MOL0     C 8480   9.265   4.682   4.845  0.4426  0.0185 -0.2318
   62MOL0     C 8481   9.348   4.740   4.732 -0.2376  0.5491 -0.5178
   62MOL0     C 8482   9.272   4.757   4.607  0.1893  0.1045  1.4061
   62MOL0     C 8483   9.223   4.749   4.493 -0.2150 -0.1019  0.3996
   62MOL0     C 8484   9.099   4.770   5.178 -0.1256 -0.4140 -0.8599
   62MOL0     C 8485   9.031   4.756   5.308 -0.7041 -0.5640  0.3500
   62MOL0     C 8486   8.939   4.632   5.326 -0.0098 -0.1091  0.0288
   62MOL0     H 8487   9.059   4.734   5.800 -0.1735 -1.2075  0.8179
   62MOL0     H 8488   8.955   4.720   6.040  0.5483  0.6450  0.4270
   62MOL0     H 8489   8.733   4.723   6.111  1.7044 -1.1616  1.2673
   62MOL0     H 8490   8.617   4.840   6.149  0.3020 -0.2923  2.0817
   62MOL0     H 8491   8.711   4.815   6.385  2.0494  1.3711 -0.3629
   62MOL0     H 8492   8.659   4.662   6.312  1.7993 -0.7426 -4.3169
   62MOL0     H 8493   8.902   4.639   6.225  0.7580  0.2492  0.0024
   62MOL0     H 8494   8.955   4.769   6.310  0.1525  0.0398 -2.9190
   62MOL0     H 8495   8.916   4.667   6.527 -1.7887  1.6046 -0.6303
   62MOL0     H 8496   8.802   4.539   6.452 -0.2637  1.1308 -2.9245
   62MOL0     H 8497   9.017   4.462   6.319  2.5297 -0.1604  0.0226
   62MOL0     H 8498   9.039   4.440   6.499 -2.0928  1.3828  1.2062
   62MOL0     H 8499   9.169   4.653   6.321  1.8433 -1.9318  0.0217
   62MOL0     H 8500   9.134   4.686   6.482  0.8661  1.8299 -1.1467
   62MOL0     H 8501   9.251   4.486   6.558 -0.2694  2.2033  1.6165
   62MOL0     H 8502   9.353   4.582   6.446 -2.0032  1.9879  1.9458
   62MOL0     H 8503   9.192   4.354   6.335  0.7667  0.1446  0.9069
   62MOL0     H 8504   9.340   4.423   6.274  1.7880  2.8353  1.0514
   62MOL0     H 8505   9.574   4.374   6.448  3.1783 -1.9309  1.3137
   62MOL0     H 8506   9.618   4.013   6.598 -3.7686 -1.5365 -5.4954
   62MOL0     H 8507   9.690   4.173   6.649 -1.2138 -0.3904  1.6045
   62MOL0     H 8508   9.711   4.041   6.379  0.2369 -2.2563  1.1932
   62MOL0     H 8509   9.773   4.201   6.425 -0.7692  0.4511 -0.6892
   62MOL0     H 8510   9.900   4.091   6.607 -5.0097  0.6106  2.5042
   62MOL0     H 8511   9.818   3.938   6.563  0.6356  1.1335  1.5134
   62MOL0     H 8512  10.046   3.922   6.455  1.8938  2.0143  3.6422
   62MOL0     H 8513   9.928   3.991   6.334 -1.8394 -1.0072  1.7673
   62MOL0     H 8514  10.161   3.944   6.247 -1.2173  1.2240  0.2040
   62MOL0     H 8515  10.468   3.876   6.084 -0.3964  0.5696 -1.3571
   62MOL0     H 8516  10.335   3.960   6.010 -0.7028 -0.0337  0.0576
   62MOL0     H 8517  10.315   3.821   6.128  1.0121 -0.4293 -3.6880
   62MOL0     H 8518  10.839   4.183   6.017 -0.2496 -1.3921 -0.8077
   62MOL0     H 8519  11.089   4.168   6.069 -0.2688 -4.2305  0.8195
   62MOL0     H 8520  11.198   4.037   6.289  1.0194 -0.3137  0.4208
   62MOL0     H 8521  11.311   4.112   6.179 -1.1324  0.9387 -1.0096
   62MOL0     H 8522  11.431   4.177   6.421  0.0688 -1.5648  4.8987
   62MOL0     H 8523  11.317   4.060   6.483 -0.4721  0.2714 -0.4739
   62MOL0     H 8524  11.550   3.981   6.412 -1.1639 -0.9991 -0.2751
   62MOL0     H 8525  11.500   3.994   6.245 -2.2818 -0.4341 -1.5852
   62MOL0     H 8526  11.352   3.816   6.261 -4.0809 -0.4876  1.2847
   62MOL0     H 8527  11.301   3.858   6.431 -0.2529  1.7924 -1.0110
   62MOL0     H 8528  11.509   3.673   6.335 -1.0167  0.6590 -0.7830
   62MOL0     H 8529  11.543   3.758   6.486 -1.7109 -1.0553  2.9144
   62MOL0     H 8530  11.337   3.696   6.585 -0.7923  1.7466 -1.7342
   62MOL0     H 8531  11.417   3.558   6.541  0.3114 -0.2661 -3.4203
   62MOL0     H 8532  11.172   3.687   6.401 -1.4278 -2.3613 -4.4684
   62MOL0     H 8533  11.183   3.547   6.514  0.8253  1.6022  2.2411
   62MOL0     H 8534  11.138   3.432   6.320  0.0200 -0.9329  2.1806
   62MOL0     H 8535  11.309   3.414   6.332  1.1942  1.0525  3.1692
   62MOL0     H 8536  11.007   4.274   6.474 -2.2287  1.9336  0.0603
   62MOL0     H 8537  10.769   4.310   6.422  3.0524  3.5206  0.2508
   62MOL0     H 8538  10.471   4.299   6.370 -1.2212  0.2088  0.4635
   62MOL0     H 8539  10.260   4.269   6.496  0.5852  0.2451  0.0913
   62MOL0     H 8540   8.788   5.111   5.974 -2.7645 -4.1100  1.4307
   62MOL0     H 8541   8.891   5.116   5.745  3.7351  0.3864 -0.8716
   62MOL0     H 8542   9.163   5.016   5.471  0.3614 -1.7830  1.4013
   62MOL0     H 8543   9.305   5.013   5.250  0.1137  0.4595  1.2311
   62MOL0     H 8544   9.472   4.852   4.984 -0.5296 -0.1049 -0.1485
   62MOL0     H 8545   9.442   4.800   5.123  3.9671  1.1582 -2.9191
   62MOL0     H 8546   9.287   4.616   5.047  1.8969  1.1969  0.7385
   62MOL0     H 8547   9.433   4.608   4.942 -0.5463  0.1729 -2.2319
   62MOL0     H 8548   9.216   4.590   4.812 -0.6841 -0.4282  2.4074
   62MOL0     H 8549   9.183   4.751   4.864 -3.5792 -2.9036 -4.7285
   62MOL0     H 8550   9.425   4.666   4.710 -0.6107 -0.3846  1.1898
   62MOL0     H 8551   9.394   4.836   4.757  0.7246  0.2871 -1.2178
   62MOL0     H 8552   9.182   4.740   4.394  0.9086 -1.9192  0.0547
   62MOL0     H 8553   9.082   4.697   5.100  0.1927 -1.4530  0.0199
   62MOL0     H 8554   8.948   4.565   5.240 -0.0752 -1.6500  1.1679
   62MOL0     H 8555   8.960   4.577   5.419  2.0778  1.8019  0.7824
   62MOL0     H 8556   8.835   4.665   5.320 -0.0026  0.5154  2.2799
   63MOL0     O 8557  10.796  10.642   3.294 -0.4903  0.8170 -0.0482
   63MOL0     C 8558  10.828  10.717   3.199 -0.0112 -0.3528  0.6307
   63MOL0     O 8559  10.956  10.729   3.150  0.5232 -0.2067 -0.3958
   63MOL0     C 8560  11.059  10.646   3.179 -0.3634 -0.3803 -0.4957
   63MOL0     C 8561  11.040  10.514   3.215 -0.3748  1.4723 -0.0283
   63MOL0     C 8562  11.149  10.431   3.249  0.1066  0.2374 -0.0553
   63MOL0     C 8563  11.278  10.471   3.234  0.2702  0.1827 -0.3479
   63MOL0     O 8564  11.385  10.394   3.260 -0.4252  0.7197 -0.5015
   63MOL0     C 8565  11.390  10.314   3.380  1.0346 -0.3485  0.9111
   63MOL0     C 8566  11.394  10.390   3.511  0.2597  0.2424 -0.2362
   63MOL0     C 8567  11.505  10.499   3.513 -0.6006  0.6820  0.5791
   63MOL0     C 8568  11.644  10.447   3.548 -1.1001 -0.1904 -0.2903
   63MOL0     C 8569  11.742  10.547   3.624 -0.3901  0.9094  0.8317
   63MOL0     C 8570  11.791  10.668   3.542  0.1632  0.8944  0.5858
   63MOL0     C 8571  11.859  10.775   3.629 -0.4574  0.7004 -0.2629
   63MOL0     C 8572  11.946  10.876   3.554  0.5497  0.0444  0.7630
   63MOL0     N 8573  12.026  10.961   3.649 -0.9545 -0.0345  0.0698
   63MOL0     C 8574  11.974  11.030   3.752  0.3122 -0.0084 -0.8994
   63MOL0     C 8575  12.086  11.062   3.825  1.0570 -0.2118  0.5115
   63MOL0     C 8576  12.092  11.141   3.954 -0.9136  0.5826 -0.5674
   63MOL0     C 8577  12.162  11.279   3.943 -0.8693  0.3746  0.0390
   63MOL0     C 8578  12.140  11.386   4.055  0.3401 -0.3940 -0.1994
   63MOL0     C 8579  12.207  11.515   4.025  0.0707 -0.3291  0.5287
   63MOL0     O 8580  12.153  11.587   3.913  0.3711  0.3637  0.2127
   63MOL0     C 8581  12.220  11.687   3.846  0.4154  0.2338  1.3248
   63MOL0     C 8582  12.361  11.706   3.848  0.3608 -0.2468  0.1705
   63MOL0     C 8583  12.424  11.801   3.763 -0.2130 -0.2789  0.2097
   63MOL0     C 8584  12.573  11.805   3.764 -0.5778  0.1955  0.4962
   63MOL0     C 8585  12.344  11.877   3.681  0.2567  0.2114  0.4212
   63MOL0     C 8586  12.397  11.979   3.584  0.6569  0.6888 -0.1280
   63MOL0     O 8587  12.306  12.077   3.558 -0.2616 -0.2573  0.0802
   63MOL0     C 8588  12.330  12.169   3.459  0.4291 -0.3041 -0.1914
   63MOL0     C 8589  12.304  12.143   3.319 -0.4409  0.3185 -0.0910
   63MOL0     C 8590  12.329  12.249   3.221 -0.1098  0.8075 -0.1206
   63MOL0     C 8591  12.384  12.368   3.258 -0.2341 -0.0969  0.0750
   63MOL0     O 8592  12.382  12.463   3.158  0.0189  0.5284 -0.3403
   63MOL0     C 8593  12.388  12.600   3.195 -0.6217  0.6343 -0.0573
   63MOL0     C 8594  12.352  12.690   3.084  0.5650 -0.3278 -0.1072
   63MOL0     C 8595  12.453  12.690   2.974  0.1342 -0.6425 -0.3476
   63MOL0     C 8596  12.428  12.802   2.875 -0.1018 -0.1667 -0.2270
   63MOL0     C 8597  12.566  12.841   2.820 -0.3482 -0.0634  0.5444
   63MOL0     C 8598  12.563  12.947   2.710 -1.3973 -0.4835 -0.5097
   63MOL0     C 8599  12.700  12.975   2.638 -0.5016 -0.5187 -0.1928
   63MOL0     C 8600  12.791  13.047   2.731  0.3470 -0.6011  0.0921
   63MOL0    Cl 8601  12.936  13.118   2.644  0.1014 -0.0987  0.2751
   63MOL0     C 8602  12.409  12.393   3.395 -0.3644 -0.0636  0.5665
   63MOL0     C 8603  12.374  12.293   3.493  0.0932 -0.0566  0.0492
   63MOL0     O 8604  12.517  11.975   3.543 -0.0123 -0.4029  0.6470
   63MOL0     C 8605  12.200  11.853   3.670 -0.4533 -0.3482 -0.2908
   63MOL0     C 8606  12.139  11.765   3.758 -0.4820 -0.0340 -0.8813
   63MOL0     N 8607  12.200  11.023   3.751  0.2808  0.5654  0.2963
   63MOL0     N 8608  12.159  10.962   3.653 -0.3796  0.5720  0.6414
   63MOL0     C 8609  11.306  10.604   3.197  0.3281 -0.0155  0.0866
   63MOL0     C 8610  11.193  10.692   3.179 -0.4328  0.4231  0.1615
   63MOL0     C 8611  10.718  10.791   3.131  1.0485  0.0203 -0.5320
   63MOL0     C 8612  10.728  10.800   2.994  0.8167 -0.0247  0.5780
   63MOL0     C 8613  10.614  10.849   2.923 -0.6965 -0.7649 -0.9730
   63MOL0     C 8614  10.494  10.889   2.983 -0.5057 -1.0727 -1.8024
   63MOL0     O 8615  10.397  10.929   2.903  0.5636  0.0086  0.2852
   63MOL0     C 8616  10.264  10.886   2.932 -0.6676  0.5143 -0.5660
   63MOL0     C 8617  10.163  10.879   2.816 -0.4963 -0.2940 -0.7919
   63MOL0     C 8618  10.133  11.020   2.753 -0.1803  0.5811 -0.3025
   63MOL0     C 8619  10.034  11.007   2.629 -0.1118 -0.2326 -0.5079
   63MOL0     C 8620  10.017  11.124   2.547  0.5355 -0.0802  0.1244
   63MOL0     C 8621  10.016  11.233   2.503  0.1809 -1.2202  0.5673
   63MOL0     C 8622  10.492  10.875   3.122  1.1751 -0.2984  0.1698
   63MOL0     C 8623  10.599  10.831   3.200 -0.1705  0.8877 -1.2798
   63MOL0     C 8624  10.582  10.824   3.352 -0.7140 -0.4255  0.2707
   63MOL0     H 8625  10.951  10.455   3.192  1.3134 -0.8298 -1.1194
   63MOL0     H 8626  11.130  10.325   3.259  0.7130  0.2029  0.8043
   63MOL0     H 8627  11.479  10.256   3.355  0.8069 -0.3053 -0.0405
   63MOL0     H 8628  11.303  10.248   3.377 -0.1534  0.9465 -5.2707
   63MOL0     H 8629  11.294  10.431   3.527 -0.2200 -1.2156  0.7707
   63MOL0     H 8630  11.414  10.325   3.596 -3.8625  0.2802  1.0107
   63MOL0     H 8631  11.508  10.532   3.409  0.3212 -3.5990 -0.9948
   63MOL0     H 8632  11.488  10.585   3.578  1.1451  0.0607  1.9485
   63MOL0     H 8633  11.637  10.367   3.623  0.3944  1.1437  1.3819
   63MOL0     H 8634  11.689  10.408   3.457 -0.3597  1.6841 -0.7723
   63MOL0     H 8635  11.833  10.495   3.657  0.6510  1.7236 -0.6082
   63MOL0     H 8636  11.693  10.593   3.710  0.2263  0.6435  1.3346
   63MOL0     H 8637  11.855  10.629   3.462 -3.2540 -1.9531 -1.0729
   63MOL0     H 8638  11.705  10.711   3.489 -0.8471 -0.6647  0.8680
   63MOL0     H 8639  11.925  10.715   3.693 -2.4172 -0.9833  0.2700
   63MOL0     H 8640  11.786  10.824   3.694  1.3275 -1.7528  3.9872
   63MOL0     H 8641  12.011  10.815   3.491 -0.9968 -1.7657  0.8201
   63MOL0     H 8642  11.877  10.942   3.501  0.9306 -0.2284 -0.0759
   63MOL0     H 8643  11.872  11.038   3.788  0.2695 -2.8594 -0.1390
   63MOL0     H 8644  12.137  11.082   4.034  0.4352  1.8500 -0.3487
   63MOL0     H 8645  11.991  11.150   3.995 -0.9226 -1.2739 -0.1101
   63MOL0     H 8646  12.271  11.269   3.942 -0.4085  4.1133 -0.3741
   63MOL0     H 8647  12.132  11.321   3.846 -0.1430 -0.5285 -0.5980
   63MOL0     H 8648  12.034  11.401   4.077  0.8759 -1.2192  3.5854
   63MOL0     H 8649  12.162  11.346   4.154 -1.5282 -2.0642 -0.4091
   63MOL0     H 8650  12.185  11.572   4.115  1.8477  0.6405  0.3971
   63MOL0     H 8651  12.314  11.493   4.017 -0.1387 -1.1000 -0.2897
   63MOL0     H 8652  12.417  11.642   3.915  0.3129 -2.3977 -1.7111
   63MOL0     H 8653  12.613  11.907   3.766 -1.3543  0.5494 -1.1068
   63MOL0     H 8654  12.599  11.750   3.674  0.6478 -0.5528  1.2824
   63MOL0     H 8655  12.625  11.753   3.845  1.0698 -0.4065 -0.9028
   63MOL0     H 8656  12.261  12.052   3.278 -1.1463  0.7233 -0.2606
   63MOL0     H 8657  12.311  12.241   3.114 -2.6346 -3.7304  0.4117
   63MOL0     H 8658  12.303  12.612   3.263 -1.1856  3.8286 -1.1304
   63MOL0     H 8659  12.486  12.617   3.239  0.4447  1.6461 -2.6030
   63MOL0     H 8660  12.255  12.669   3.039 -1.3952  3.1198  2.0190
   63MOL0     H 8661  12.346  12.789   3.131  1.4990  0.2824 -1.2314
   63MOL0     H 8662  12.446  12.596   2.918  2.5881 -1.0570 -0.0560
   63MOL0     H 8663  12.551  12.701   3.021 -0.4446 -0.9053  0.9816
   63MOL0     H 8664  12.381  12.882   2.933 -1.3060 -0.5616 -0.6356
   63MOL0     H 8665  12.368  12.773   2.789  3.5005  0.4741 -3.1781
   63MOL0     H 8666  12.619  12.883   2.907 -1.4840 -0.9996  1.7382
   63MOL0     H 8667  12.605  12.748   2.779 -0.1545  0.9912 -1.7886
   63MOL0     H 8668  12.530  13.042   2.753 -0.4683  0.8979 -2.6823
   63MOL0     H 8669  12.499  12.919   2.627  0.6225 -1.7289 -1.7301
   63MOL0     H 8670  12.670  13.032   2.550 -1.0333 -1.1679 -0.4360
   63MOL0     H 8671  12.754  12.884   2.609 -2.2128 -0.6883 -3.1538
   63MOL0     H 8672  12.814  12.973   2.808  0.9280 -0.2230  0.2887
   63MOL0     H 8673  12.748  13.130   2.787  3.5017  0.8010  0.6103
   63MOL0     H 8674  12.431  12.492   3.433 -2.0531  0.7150 -0.3736
   63MOL0     H 8675  12.396  12.322   3.595 -0.7946 -1.4771  0.6794
   63MOL0     H 8676  12.127  11.896   3.602 -0.1214  1.7290  0.5662
   63MOL0     H 8677  12.032  11.753   3.764 -0.7849  1.4273 -2.5422
   63MOL0     H 8678  11.406  10.645   3.194  0.7978 -1.1670 -0.9682
   63MOL0     H 8679  11.215  10.792   3.142  1.2769 -0.2206 -0.7004
   63MOL0     H 8680  10.820  10.763   2.950 -0.0694 -2.5105  0.6624
   63MOL0     H 8681  10.612  10.846   2.815  1.7604  1.1403 -1.1526
   63MOL0     H 8682  10.261  10.786   2.977 -0.6238  1.1600  0.9526
   63MOL0     H 8683  10.227  10.957   3.006 -2.1019  1.6844 -2.3388
   63MOL0     H 8684  10.069  10.833   2.845 -0.7197  2.1059  2.8491
   63MOL0     H 8685  10.210  10.810   2.745  0.7817  0.1610 -0.4163
   63MOL0     H 8686  10.094  11.088   2.829  3.7511 -0.5471  3.1310
   63MOL0     H 8687  10.232  11.058   2.727  1.0353 -0.2347  2.7079
   63MOL0     H 8688   9.937  10.979   2.672 -0.1193  0.8891  0.2730
   63MOL0     H 8689  10.074  10.927   2.566  1.8241  0.1090  0.2166
   63MOL0     H 8690  10.024  11.330   2.458  2.6289 -1.9596 -0.8300
   63MOL0     H 8691  10.400  10.908   3.171  1.5147 -1.2780  1.5391
   63MOL0     H 8692  10.479  10.854   3.372 -0.8934 -0.5566 -0.4355
   63MOL0     H 8693  10.609  10.733   3.406 -0.5548 -1.7537 -1.9098
   63MOL0     H 8694  10.642  10.896   3.408 -1.6572  1.1074 -0.6176
   64MOL0     O 8695   7.470   9.612   9.112 -0.5652 -0.0679  0.7954
   64MOL0     C 8696   7.392   9.684   9.167 -0.1556  0.7201 -0.5406
   64MOL0     O 8697   7.423   9.808   9.231  0.0960  0.0170  0.1024
   64MOL0     C 8698   7.549   9.858   9.260 -0.0317  0.9001  0.3100
   64MOL0     C 8699   7.678   9.792   9.245 -0.1726  0.3748 -0.3113
   64MOL0     C 8700   7.789   9.861   9.287 -0.4467 -0.0627  0.2094
   64MOL0     C 8701   7.782   9.995   9.323 -0.3099 -0.5955 -0.3282
   64MOL0     O 8702   7.902  10.052   9.352  0.2481 -0.5409  0.0536
   64MOL0     C 8703   7.923  10.153   9.454 -0.2029 -0.5977 -0.1877
   64MOL0     C 8704   8.064  10.144   9.526 -0.2321  0.2535  0.0245
   64MOL0     C 8705   8.081  10.003   9.583 -0.7438  0.2468 -0.0390
   64MOL0     C 8706   8.218   9.938   9.554  0.1892 -0.2911  0.0299
   64MOL0     C 8707   8.340  10.024   9.591 -0.4940 -1.0820  1.1010
   64MOL0     C 8708   8.474   9.956   9.597 -0.6206  0.0131 -0.0233
   64MOL0     C 8709   8.525   9.881   9.468 -0.3087 -0.2825  0.4687
   64MOL0     C 8710   8.596   9.976   9.380  0.4314  0.3937 -0.3084
   64MOL0     N 8711   8.743   9.964   9.390  0.3330  0.1560 -0.1516
   64MOL0     C 8712   8.816   9.920   9.288 -0.1935  0.6977 -0.1471
   64MOL0     C 8713   8.944   9.930   9.331 -0.3245  0.5093  0.4221
   64MOL0     C 8714   9.067   9.905   9.251 -0.8365 -0.2908 -0.0560
   64MOL0     C 8715   9.155   9.785   9.302  0.5611  0.7092 -0.2797
   64MOL0     C 8716   9.244   9.814   9.427  0.6067 -0.0367 -0.7505
   64MOL0     C 8717   9.338   9.695   9.461  0.3893  0.6935  0.8801
   64MOL0     O 8718   9.372   9.665   9.599 -0.3071 -0.2780  0.4901
   64MOL0     C 8719   9.467   9.565   9.617  0.3108  0.6105  0.5221
   64MOL0     C 8720   9.534   9.569   9.734 -0.2682 -0.1176 -1.4134
   64MOL0     C 8721   9.633   9.484   9.778 -0.0186 -0.3268  0.0933
   64MOL0     C 8722   9.662   9.504   9.924  0.4959 -0.0708 -0.6333
   64MOL0     C 8723   9.664   9.371   9.693  1.3063  0.0100 -0.0048
   64MOL0     C 8724   9.765   9.269   9.732  0.3513 -0.1551  0.1676
   64MOL0     O 8725   9.794   9.162   9.649  0.1448  0.2701  0.3395
   64MOL0     C 8726   9.907   9.082   9.671 -0.5120 -0.7534 -0.1288
   64MOL0     C 8727  10.028   9.141   9.686  0.3690  0.3269 -0.0088
   64MOL0     C 8728  10.147   9.069   9.719  0.3575 -0.1613  0.4815
   64MOL0     C 8729  10.135   8.928   9.721 -0.4550 -0.1297  0.2446
   64MOL0     O 8730  10.243   8.852   9.759 -0.0473  0.3313  0.2545
   64MOL0     C 8731  10.261   8.719   9.711 -0.0622  1.1264 -0.9058
   64MOL0     C 8732  10.307   8.727   9.571 -0.0567  0.4896 -0.2659
   64MOL0     C 8733  10.367   8.605   9.507 -0.6149  1.7338 -0.8093
   64MOL0     C 8734  10.284   8.471   9.538 -0.1686 -0.7266  0.4694
   64MOL0     C 8735  10.304   8.352   9.435  0.2194  0.3348 -0.2192
   64MOL0     C 8736  10.274   8.391   9.288  0.2963  0.4445  0.3271
   64MOL0     C 8737  10.133   8.450   9.282  1.0554 -0.3133  0.1897
   64MOL0     C 8738  10.095   8.442   9.131  0.5042 -0.2419 -0.5220
   64MOL0    Cl 8739  10.068   8.275   9.080  0.3787  0.2446 -0.0607
   64MOL0     C 8740  10.014   8.862   9.689  0.6793 -0.6411  0.2494
   64MOL0     C 8741   9.902   8.942   9.655 -0.9935  0.1542 -0.7863
   64MOL0     O 8742   9.820   9.286   9.838 -0.4450 -0.7534  0.4234
   64MOL0     C 8743   9.595   9.361   9.569  0.1978  0.6893  0.0552
   64MOL0     C 8744   9.497   9.455   9.530 -0.9862 -0.2930 -1.1345
   64MOL0     N 8745   8.941   9.969   9.468  0.1203 -0.2957 -0.3833
   64MOL0     N 8746   8.820   9.986   9.501  0.4325  0.1184  0.2468
   64MOL0     C 8747   7.663  10.060   9.337 -0.4102  0.8673 -0.8090
   64MOL0     C 8748   7.546   9.992   9.308 -0.5338  0.3482  0.4102
   64MOL0     C 8749   7.249   9.639   9.186 -0.1427  0.2340 -0.2837
   64MOL0     C 8750   7.183   9.682   9.305  1.0354 -0.5350 -0.3404
   64MOL0     C 8751   7.050   9.652   9.325  0.1198 -0.7693 -0.4963
   64MOL0     C 8752   6.986   9.574   9.225  0.7779  0.2132 -0.0366
   64MOL0     O 8753   6.865   9.512   9.234  0.2854  0.5836  1.2965
   64MOL0     C 8754   6.812   9.478   9.361  0.7603 -0.0651  0.5215
   64MOL0     C 8755   6.661   9.439   9.369 -0.7475 -1.1980  0.1741
   64MOL0     C 8756   6.640   9.287   9.339 -0.3651  0.4124 -0.0292
   64MOL0     C 8757   6.488   9.232   9.340  0.4385 -0.5132 -0.3036
   64MOL0     C 8758   6.425   9.240   9.471  0.3745  0.1402 -0.5346
   64MOL0     C 8759   6.370   9.263   9.573  0.1074  0.3280  0.4355
   64MOL0     C 8760   7.055   9.532   9.106  0.1700 -0.0795  0.4497
   64MOL0     C 8761   7.188   9.556   9.092 -0.4984 -0.7345 -1.0703
   64MOL0     C 8762   7.251   9.489   8.969  0.1268  0.1979  0.5010
   64MOL0     H 8763   7.695   9.691   9.209  0.2005  1.3778 -3.2600
   64MOL0     H 8764   7.886   9.813   9.276 -0.0359  1.1296 -2.0189
   64MOL0     H 8765   7.845  10.144   9.530 -1.7419  2.0067 -1.3189
   64MOL0     H 8766   7.911  10.252   9.408  0.4231 -0.5896 -0.3446
   64MOL0     H 8767   8.142  10.172   9.455 -0.1262  2.9556  1.1065
   64MOL0     H 8768   8.069  10.218   9.606  0.9644 -0.4955  0.6575
   64MOL0     H 8769   8.079  10.014   9.691 -0.4401 -2.6079  0.3482
   64MOL0     H 8770   8.007   9.930   9.548 -0.1785 -0.0806 -0.5900
   64MOL0     H 8771   8.225   9.844   9.609  0.0905 -1.7424 -2.3297
   64MOL0     H 8772   8.230   9.911   9.449 -2.1017 -2.6094  0.2639
   64MOL0     H 8773   8.321  10.073   9.687  1.3832  0.4693  0.7219
   64MOL0     H 8774   8.341  10.100   9.513 -0.5511 -1.0484  1.1338
   64MOL0     H 8775   8.558  10.023   9.618  1.2907 -2.7094  1.7156
   64MOL0     H 8776   8.468   9.883   9.678  1.9786 -0.7728 -0.4585
   64MOL0     H 8777   8.444   9.838   9.409 -0.5956  0.3872  0.3675
   64MOL0     H 8778   8.592   9.800   9.499 -0.7826 -1.8135 -2.2132
   64MOL0     H 8779   8.577   9.956   9.274  4.2415  1.6107 -1.3894
   64MOL0     H 8780   8.557  10.075   9.402  0.0664 -0.0818  1.2930
   64MOL0     H 8781   8.780   9.895   9.189 -1.5220 -1.2915  0.7635
   64MOL0     H 8782   9.131   9.994   9.261  1.6656 -1.9287 -0.6087
   64MOL0     H 8783   9.037   9.890   9.147  0.7877  2.2586 -1.0023
   64MOL0     H 8784   9.090   9.701   9.328 -1.7479  1.6497 -2.5251
   64MOL0     H 8785   9.205   9.750   9.212  3.6975  1.1225  1.1608
   64MOL0     H 8786   9.309   9.900   9.410 -0.4966  0.5416 -2.3533
   64MOL0     H 8787   9.175   9.835   9.509  0.1457  0.8168 -1.3432
   64MOL0     H 8788   9.284   9.607   9.425  1.2981 -0.2151  1.6717
   64MOL0     H 8789   9.428   9.717   9.403 -0.9114  1.5954 -0.8925
   64MOL0     H 8790   9.492   9.646   9.797  0.6071 -0.3420 -0.5404
   64MOL0     H 8791   9.769   9.499   9.947  0.1904  2.8912  2.2446
   64MOL0     H 8792   9.602   9.421   9.964  0.8587 -0.8610 -1.6695
   64MOL0     H 8793   9.631   9.601   9.964 -0.7329 -0.5928 -0.2552
   64MOL0     H 8794  10.018   9.249   9.688 -1.9692  0.2692 -2.4897
   64MOL0     H 8795  10.235   9.130   9.737  0.1378  1.0837 -2.1118
   64MOL0     H 8796  10.345   8.672   9.763 -2.8756 -2.6890  0.6282
   64MOL0     H 8797  10.179   8.650   9.734  1.4831  0.1185  2.1941
   64MOL0     H 8798  10.228   8.772   9.510  1.5421  1.9837 -1.3459
   64MOL0     H 8799  10.387   8.801   9.567 -0.2871  0.7680  0.2545
   64MOL0     H 8800  10.472   8.594   9.537 -1.0960 -3.6413 -0.1075
   64MOL0     H 8801  10.383   8.619   9.399  0.1698 -2.3345 -1.3708
   64MOL0     H 8802  10.180   8.502   9.549 -0.3153 -0.2015 -2.0131
   64MOL0     H 8803  10.305   8.428   9.637 -1.8232  0.2130  1.2697
   64MOL0     H 8804  10.413   8.348   9.427  0.1407 -1.2605 -0.8846
   64MOL0     H 8805  10.265   8.253   9.461  3.2295 -0.4912  1.6676
   64MOL0     H 8806  10.291   8.305   9.224  1.2228 -0.3992  1.6607
   64MOL0     H 8807  10.345   8.467   9.253 -1.1182  0.9222 -1.7022
   64MOL0     H 8808  10.149   8.554   9.312  1.0011  0.4925 -2.3519
   64MOL0     H 8809  10.059   8.398   9.343  1.4810 -0.4247  0.6161
   64MOL0     H 8810  10.159   8.509   9.072 -1.2426  2.6888  0.6790
   64MOL0     H 8811   9.999   8.495   9.131  0.2338 -0.4836  3.1821
   64MOL0     H 8812  10.006   8.754   9.696  1.0605 -0.6329  0.9204
   64MOL0     H 8813   9.808   8.891   9.633 -0.3333 -0.2942 -2.7128
   64MOL0     H 8814   9.601   9.273   9.506  0.6925  1.9084 -1.6702
   64MOL0     H 8815   9.443   9.442   9.437  0.3494  2.5873 -2.4097
   64MOL0     H 8816   7.671  10.165   9.366  1.9275  0.7500 -0.8160
   64MOL0     H 8817   7.454  10.048   9.321  0.0710  1.6000 -0.5046
   64MOL0     H 8818   7.232   9.748   9.377 -1.7779 -0.8891  2.0725
   64MOL0     H 8819   7.000   9.689   9.414  1.3904 -1.5135  0.5638
   64MOL0     H 8820   6.874   9.397   9.400 -1.5824 -1.9016  0.6831
   64MOL0     H 8821   6.815   9.566   9.426 -1.7636  0.1804  0.4169
   64MOL0     H 8822   6.591   9.492   9.303  0.4278 -0.1706 -0.2754
   64MOL0     H 8823   6.635   9.460   9.473  1.6723 -2.7762  1.1732
   64MOL0     H 8824   6.684   9.274   9.240 -2.5582  1.0097 -1.1656
   64MOL0     H 8825   6.691   9.226   9.415 -1.3758  0.2518  0.5394
   64MOL0     H 8826   6.480   9.129   9.305  0.1198 -0.4166 -0.5302
   64MOL0     H 8827   6.422   9.286   9.270 -0.4303 -1.5153 -0.2804
   64MOL0     H 8828   6.314   9.278   9.663  1.9897 -0.7552  1.8729
   64MOL0     H 8829   7.002   9.459   9.046  0.6352 -1.1906  1.3516
   64MOL0     H 8830   7.247   9.571   8.897 -1.3344 -1.3660 -1.2843
   64MOL0     H 8831   7.344   9.432   8.974 -1.2002 -2.2348 -0.8975
   64MOL0     H 8832   7.191   9.404   8.936  0.6929 -0.2119  0.5157
   65MOL0     O 8833   5.283   2.258   5.097  0.6419  0.0567  0.2203
   65MOL0     C 8834   5.245   2.186   5.006  0.4392  0.5607  0.9719
   65MOL0     O 8835   5.312   2.162   4.890  0.1913  0.4971 -0.5004
   65MOL0     C 8836   5.450   2.169   4.874 -0.2569  0.8319  1.0184
   65MOL0     C 8837   5.500   2.153   4.744  0.3440 -0.1001 -1.0271
   65MOL0     C 8838   5.632   2.175   4.710 -0.3022  0.0186 -0.7315
   65MOL0     C 8839   5.720   2.204   4.811  0.4412 -0.7440 -0.8070
   65MOL0     O 8840   5.846   2.250   4.770  0.6540 -0.1468 -0.4561
   65MOL0     C 8841   5.954   2.251   4.870 -1.2868  0.4828  0.0723
   65MOL0     C 8842   6.071   2.290   4.783  0.0978 -0.2440  0.1266
   65MOL0     C 8843   6.115   2.203   4.666  1.1346 -0.4857  0.3071
   65MOL0     C 8844   6.130   2.056   4.703  0.2389  0.0135  0.6516
   65MOL0     C 8845   6.109   1.964   4.581  0.4369 -0.4889  0.3285
   65MOL0     C 8846   6.122   1.820   4.616 -0.0626 -0.1825 -0.2740
   65MOL0     C 8847   6.165   1.725   4.504 -0.5221 -0.4824  0.2941
   65MOL0     C 8848   6.285   1.634   4.548 -0.4856  0.6313 -0.1236
   65MOL0     N 8849   6.413   1.718   4.553 -0.0772  0.1924 -0.0215
   65MOL0     C 8850   6.526   1.709   4.467 -0.5823  0.6619 -0.4920
   65MOL0     C 8851   6.605   1.808   4.511  0.5424 -1.1573 -0.1190
   65MOL0     C 8852   6.722   1.858   4.436 -0.2928 -0.3275 -0.1804
   65MOL0     C 8853   6.843   1.864   4.528  0.9085  0.2135  0.2729
   65MOL0     C 8854   6.959   1.945   4.467 -0.3244 -0.4815  0.6700
   65MOL0     C 8855   7.034   1.860   4.364 -0.0121  0.0735 -0.1409
   65MOL0     O 8856   7.100   1.944   4.276  0.4588 -0.1108 -0.3664
   65MOL0     C 8857   7.216   2.018   4.309  0.1624  0.7432  0.2147
   65MOL0     C 8858   7.262   2.086   4.193  0.0455 -0.9087 -0.4450
   65MOL0     C 8859   7.372   2.175   4.210 -0.2479  0.1360  0.5019
   65MOL0     C 8860   7.391   2.267   4.095  0.0984 -0.2966  0.2659
   65MOL0     C 8861   7.445   2.180   4.333  0.0934  0.3210  0.3546
   65MOL0     C 8862   7.568   2.253   4.358 -0.0848  0.4063  0.1102
   65MOL0     O 8863   7.614   2.238   4.483 -0.3160  0.1826 -0.1274
   65MOL0     C 8864   7.751   2.241   4.506 -0.1078  0.3240  1.0330
   65MOL0     C 8865   7.831   2.351   4.473 -0.1842  0.3818  0.5253
   65MOL0     C 8866   7.970   2.343   4.502 -0.5918  0.4983 -0.0306
   65MOL0     C 8867   8.017   2.230   4.581  0.1949 -0.2188 -0.8845
   65MOL0     O 8868   8.153   2.211   4.614  0.1617 -0.2785  0.0297
   65MOL0     C 8869   8.216   2.310   4.696 -0.1853 -0.1250 -0.1923
   65MOL0     C 8870   8.338   2.357   4.618  0.2462  0.3839  0.6733
   65MOL0     C 8871   8.446   2.247   4.620 -0.1923  0.7178  0.4041
   65MOL0     C 8872   8.596   2.285   4.584 -0.2255 -0.0570  1.0629
   65MOL0     C 8873   8.692   2.165   4.601 -0.0192 -0.2960 -0.5436
   65MOL0     C 8874   8.734   2.155   4.755  0.2797 -0.7241 -0.0198
   65MOL0     C 8875   8.867   2.078   4.785  0.3527  0.3047 -0.2052
   65MOL0     C 8876   8.840   1.928   4.817 -0.3759  0.0177 -0.0553
   65MOL0    Cl 8877   8.968   1.836   4.913  0.1100  0.4558 -0.1845
   65MOL0     C 8878   7.934   2.135   4.625  0.2095 -0.3727 -0.0697
   65MOL0     C 8879   7.802   2.130   4.579  0.4260  0.0468  0.4304
   65MOL0     O 8880   7.627   2.314   4.270  0.7114  0.7000  0.0959
   65MOL0     C 8881   7.396   2.105   4.445  0.7729  0.2605  0.3540
   65MOL0     C 8882   7.279   2.023   4.430 -0.0709  0.1981  0.2155
   65MOL0     N 8883   6.553   1.852   4.634  0.7397  0.3635  0.0846
   65MOL0     N 8884   6.446   1.786   4.667  0.6562  0.1013  0.0196
   65MOL0     C 8885   5.673   2.217   4.944  0.4535 -0.6352  0.1423
   65MOL0     C 8886   5.547   2.182   4.977  0.7624 -0.0867 -0.6256
   65MOL0     C 8887   5.102   2.140   5.028 -0.4138  0.4429 -0.3542
   65MOL0     C 8888   5.040   2.165   5.151  0.2589 -0.5032  0.1282
   65MOL0     C 8889   4.905   2.125   5.171 -0.8716 -0.6725  0.4785
   65MOL0     C 8890   4.834   2.054   5.080  0.1404  0.1161 -0.2245
   65MOL0     O 8891   4.700   2.009   5.102 -0.0275 -0.1190 -0.5519
   65MOL0     C 8892   4.629   2.024   5.226 -0.1270  0.4320  0.6916
   65MOL0     C 8893   4.491   1.945   5.220  0.3297  0.2543 -0.3728
   65MOL0     C 8894   4.497   1.790   5.240 -0.0498 -0.1152  0.2608
   65MOL0     C 8895   4.370   1.728   5.230  1.2996  0.1805  0.5605
   65MOL0     C 8896   4.293   1.731   5.360 -0.5469  0.0078 -0.5613
   65MOL0     C 8897   4.239   1.724   5.474 -0.1041  0.1538  0.0095
   65MOL0     C 8898   4.895   2.014   4.961 -0.9508 -0.8730 -0.1109
   65MOL0     C 8899   5.025   2.062   4.929  0.0012  0.2025  0.2837
   65MOL0     C 8900   5.067   2.014   4.788 -0.6567 -0.4097 -0.4725
   65MOL0     H 8901   5.427   2.147   4.664  1.8950  0.9475 -2.5871
   65MOL0     H 8902   5.660   2.159   4.607  2.6489 -2.4726  0.2968
   65MOL0     H 8903   5.978   2.160   4.925 -0.5282  0.3199 -0.5077
   65MOL0     H 8904   5.940   2.329   4.945 -0.6616  1.6142 -0.9510
   65MOL0     H 8905   6.048   2.389   4.742 -4.2501 -2.7262 -4.5188
   65MOL0     H 8906   6.162   2.282   4.843  0.1407  0.9472  0.2483
   65MOL0     H 8907   6.051   2.217   4.578  0.8174 -1.5027  0.3543
   65MOL0     H 8908   6.212   2.233   4.626  0.1207  0.1138 -1.8575
   65MOL0     H 8909   6.233   2.057   4.741 -1.0409  1.4306  4.6070
   65MOL0     H 8910   6.056   2.028   4.779 -1.4329  1.3795 -0.4125
   65MOL0     H 8911   6.181   1.990   4.503 -0.8048  0.9404 -0.3820
   65MOL0     H 8912   6.005   1.967   4.547 -0.2619 -1.2144  2.2507
   65MOL0     H 8913   6.187   1.813   4.703 -0.5043  2.4866  0.3598
   65MOL0     H 8914   6.019   1.786   4.633  0.2599 -1.6214 -1.0081
   65MOL0     H 8915   6.199   1.780   4.416 -0.8608 -0.5284  0.1342
   65MOL0     H 8916   6.084   1.655   4.480 -0.6353 -0.6398  1.1093
   65MOL0     H 8917   6.268   1.586   4.645 -0.6460 -0.3254 -0.6061
   65MOL0     H 8918   6.299   1.551   4.477 -0.1904  2.4962 -2.3954
   65MOL0     H 8919   6.529   1.641   4.382 -0.5984 -0.0571  0.0730
   65MOL0     H 8920   6.692   1.959   4.405  0.2595  0.7283  2.4652
   65MOL0     H 8921   6.738   1.791   4.351  0.6623  0.0772 -0.3431
   65MOL0     H 8922   6.815   1.905   4.625 -0.1632 -1.5466  0.7657
   65MOL0     H 8923   6.877   1.762   4.552  1.4179  0.1905 -0.4855
   65MOL0     H 8924   6.928   2.035   4.413  1.5821 -0.5622 -0.6479
   65MOL0     H 8925   7.030   1.974   4.544  0.7368  2.9280 -1.3509
   65MOL0     H 8926   7.113   1.799   4.409  0.3599  0.2043 -0.6119
   65MOL0     H 8927   6.960   1.801   4.311 -3.1950  1.9768  1.8258
   65MOL0     H 8928   7.220   2.066   4.095 -1.2180 -0.5942  0.0142
   65MOL0     H 8929   7.473   2.225   4.036  2.2191  3.6483  0.1285
   65MOL0     H 8930   7.421   2.367   4.126  3.5971 -0.6239 -1.5791
   65MOL0     H 8931   7.302   2.264   4.031 -0.1995 -1.0583  0.7001
   65MOL0     H 8932   7.791   2.446   4.440 -1.6958  0.2827  1.9167
   65MOL0     H 8933   8.040   2.421   4.475  0.2917 -0.7797 -1.6476
   65MOL0     H 8934   8.146   2.388   4.725  1.3365  0.3164  2.6816
   65MOL0     H 8935   8.252   2.264   4.789 -0.5229 -3.6496 -1.6122
   65MOL0     H 8936   8.309   2.370   4.514  0.2443  3.1764  0.9588
   65MOL0     H 8937   8.380   2.446   4.665  3.0501 -1.2257  1.4743
   65MOL0     H 8938   8.411   2.177   4.543 -3.1265  2.0816  0.3537
   65MOL0     H 8939   8.448   2.202   4.720 -0.4903  2.1858  1.1023
   65MOL0     H 8940   8.630   2.376   4.635 -1.8311  2.1017 -1.4703
   65MOL0     H 8941   8.605   2.318   4.481  1.5402 -0.5679  1.0383
   65MOL0     H 8942   8.658   2.070   4.560  1.0721 -0.4307 -1.1641
   65MOL0     H 8943   8.785   2.189   4.549  2.4263 -2.5837  2.3788
   65MOL0     H 8944   8.647   2.113   4.804 -0.6225  0.0905 -0.8755
   65MOL0     H 8945   8.762   2.255   4.789  0.3427 -0.9209  0.5141
   65MOL0     H 8946   8.901   2.118   4.881  1.3671 -1.4333  0.2082
   65MOL0     H 8947   8.946   2.086   4.711 -0.2923  0.1032 -0.9293
   65MOL0     H 8948   8.830   1.876   4.721  0.5712  4.0228 -2.5355
   65MOL0     H 8949   8.750   1.919   4.880 -0.6999  1.9285 -0.2007
   65MOL0     H 8950   7.961   2.049   4.685  1.3310  0.0168  0.0026
   65MOL0     H 8951   7.742   2.043   4.603  1.1128  0.1928  3.0013
   65MOL0     H 8952   7.451   2.100   4.538 -0.0175  1.7372  0.9262
   65MOL0     H 8953   7.262   1.959   4.516  0.7513  0.4971  0.6157
   65MOL0     H 8954   5.747   2.236   5.020  0.2886  0.8740 -0.0546
   65MOL0     H 8955   5.515   2.195   5.080  1.2168  0.6536 -0.5695
   65MOL0     H 8956   5.084   2.225   5.230 -2.8195 -1.2757  2.6824
   65MOL0     H 8957   4.854   2.149   5.264  0.0007 -1.7773  1.2707
   65MOL0     H 8958   4.681   1.981   5.312  0.0722 -0.0416  0.3387
   65MOL0     H 8959   4.619   2.129   5.253  1.9612 -0.0493  3.8393
   65MOL0     H 8960   4.437   1.969   5.128 -0.0671  1.9259  0.2665
   65MOL0     H 8961   4.421   1.980   5.296 -1.0677 -0.5756 -1.2408
   65MOL0     H 8962   4.557   1.757   5.154 -2.2404  2.5492 -2.5545
   65MOL0     H 8963   4.541   1.758   5.334 -1.3435 -1.2298  0.5027
   65MOL0     H 8964   4.383   1.626   5.192 -2.1645 -0.1338 -0.1537
   65MOL0     H 8965   4.309   1.776   5.152  0.2396 -0.1657  1.1487
   65MOL0     H 8966   4.199   1.715   5.573  0.7729 -2.1767  0.2108
   65MOL0     H 8967   4.828   1.958   4.897 -1.2414  0.3906 -0.9516
   65MOL0     H 8968   5.155   1.953   4.812  0.2447  0.4813 -1.4168
   65MOL0     H 8969   4.981   1.963   4.742 -2.3944 -0.2045  2.3528
   65MOL0     H 8970   5.104   2.087   4.716 -0.8388  0.7315  0.5623
   66MOL0     O 8971   8.876  10.247   4.204  0.5867  1.0199 -0.1113
   66MOL0     C 8972   8.833  10.358   4.173 -0.0700  0.3985 -0.8733
   66MOL0     O 8973   8.828  10.463   4.262 -0.0999  0.0619  0.0890
   66MOL0     C 8974   8.881  10.460   4.385 -0.0499 -0.3157  0.7392
   66MOL0     C 8975   9.018  10.425   4.407  0.1730  0.4929 -0.0505
   66MOL0     C 8976   9.081  10.433   4.530  0.1838  0.2149  0.3326
   66MOL0     C 8977   9.008  10.470   4.636  0.2841 -0.1831  0.4967
   66MOL0     O 8978   9.066  10.488   4.762  0.4287  0.4670 -0.2498
   66MOL0     C 8979   9.194  10.428   4.771 -0.1125  0.1392 -0.2524
   66MOL0     C 8980   9.225  10.411   4.924 -0.8554 -0.4897  0.7317
   66MOL0     C 8981   9.369  10.368   4.934 -0.0224  0.2670  0.0366
   66MOL0     C 8982   9.438  10.437   5.052  0.2536 -0.0807  0.4969
   66MOL0     C 8983   9.585  10.400   5.059  0.4116 -0.4593  0.1030
   66MOL0     C 8984   9.639  10.422   5.195  0.0780  0.6207  0.1291
   66MOL0     C 8985   9.790  10.410   5.196  0.1820  0.2428  0.5067
   66MOL0     C 8986   9.849  10.424   5.332  0.5556 -0.7937  0.6588
   66MOL0     N 8987   9.998  10.432   5.353  0.6657  0.2798 -0.1189
   66MOL0     C 8988  10.079  10.497   5.274  0.2440 -0.5277 -0.2972
   66MOL0     C 8989  10.198  10.484   5.334 -0.0398 -0.8366 -0.1699
   66MOL0     C 8990  10.319  10.559   5.280 -0.7978 -0.1709  0.1859
   66MOL0     C 8991  10.419  10.465   5.202  0.8095 -0.4964  0.4307
   66MOL0     C 8992  10.521  10.551   5.131  0.0635 -0.1371 -0.8528
   66MOL0     C 8993  10.607  10.638   5.224  0.5130  0.9013 -0.0107
   66MOL0     O 8994  10.663  10.559   5.325 -0.0744  0.7019 -0.6700
   66MOL0     C 8995  10.770  10.603   5.409  0.3584  0.2417  1.1298
   66MOL0     C 8996  10.813  10.515   5.502 -0.4494  0.8840  0.2519
   66MOL0     C 8997  10.924  10.537   5.589  0.7090  0.7778 -0.4729
   66MOL0     C 8998  10.960  10.419   5.678  0.0152  0.3398 -0.5734
   66MOL0     C 8999  10.997  10.653   5.580  0.3456 -1.0602 -0.3900
   66MOL0     C 9000  11.121  10.686   5.653  0.3313  0.7355 -0.2585
   66MOL0     O 9001  11.162  10.816   5.650 -0.9369 -0.3914 -0.1687
   66MOL0     C 9002  11.273  10.847   5.732  0.1591 -0.6391 -0.5916
   66MOL0     C 9003  11.397  10.786   5.730 -0.4335 -0.3530 -0.5577
   66MOL0     C 9004  11.507  10.827   5.807  0.4605 -0.4261 -0.3348
   66MOL0     C 9005  11.484  10.934   5.905 -0.6010  1.1623  0.1149
   66MOL0     O 9006  11.592  10.978   5.981 -0.5557  0.9397 -0.0187
   66MOL0     C 9007  11.631  10.886   6.082 -0.8314 -0.2139  0.6240
   66MOL0     C 9008  11.609  10.960   6.216 -0.0522  0.2899 -0.4580
   66MOL0     C 9009  11.461  10.984   6.248 -0.9004 -0.3957  0.7018
   66MOL0     C 9010  11.439  11.006   6.401  0.3349 -0.2531 -0.8257
   66MOL0     C 9011  11.290  11.023   6.429  0.5632  0.5716 -0.1716
   66MOL0     C 9012  11.271  11.036   6.583  1.2378  0.7772 -0.3389
   66MOL0     C 9013  11.261  10.904   6.649 -0.4090  0.5630 -0.7664
   66MOL0     C 9014  11.263  10.918   6.796 -1.5460  0.3422 -1.3830
   66MOL0    Cl 9015  11.302  10.763   6.863  0.5248  0.6278 -0.5689
   66MOL0     C 9016  11.356  10.987   5.918  0.4520  0.5033  0.3728
   66MOL0     C 9017  11.257  10.955   5.819 -0.1134  0.4886 -0.8949
   66MOL0     O 9018  11.183  10.596   5.710 -0.1197  0.8423 -0.1585
   66MOL0     C 9019  10.953  10.748   5.492  0.3842  0.0268  0.4267
   66MOL0     C 9020  10.843  10.724   5.402 -0.0262  1.5290 -0.2683
   66MOL0     N 9021  10.188  10.390   5.432 -0.0980 -0.3253  0.5622
   66MOL0     N 9022  10.064  10.360   5.450  0.0603 -0.0769 -0.5295
   66MOL0     C 9023   8.878  10.520   4.621  1.1378  0.7434  1.4095
   66MOL0     C 9024   8.817  10.512   4.490 -0.0968 -0.2359 -0.3442
   66MOL0     C 9025   8.825  10.389   4.033  0.2337  0.5655  0.1317
   66MOL0     C 9026   8.808  10.522   3.995 -0.4407 -0.6332 -0.0972
   66MOL0     C 9027   8.782  10.562   3.862 -1.1065 -0.6431 -0.6220
   66MOL0     C 9028   8.781  10.467   3.763  0.9001  0.8138  0.7182
   66MOL0     O 9029   8.755  10.499   3.625  0.6942 -0.1307 -0.2854
   66MOL0     C 9030   8.734  10.634   3.578  0.0117 -0.2470  0.1895
   66MOL0     C 9031   8.691  10.647   3.432  0.1563  0.2652 -0.6068
   66MOL0     C 9032   8.565  10.571   3.381 -0.3483 -0.3425  0.5085
   66MOL0     C 9033   8.529  10.429   3.430 -0.4272  0.9611 -0.4672
   66MOL0     C 9034   8.415  10.380   3.363  0.4232  0.2701 -1.0913
   66MOL0     C 9035   8.313  10.340   3.304  0.6833  0.7050 -0.1400
   66MOL0     C 9036   8.799  10.332   3.796 -0.3671  0.6184  0.4522
   66MOL0     C 9037   8.818  10.290   3.927 -0.6916  0.2231  0.5376
   66MOL0     C 9038   8.824  10.141   3.953 -0.9914 -0.8041  0.7570
   66MOL0     H 9039   9.084  10.393   4.328  0.8629 -2.3277  1.5558
   66MOL0     H 9040   9.185  10.405   4.533 -0.0115 -0.6438 -0.5457
   66MOL0     H 9041   9.265  10.482   4.708  0.1120 -2.7955 -2.7950
   66MOL0     H 9042   9.191  10.330   4.722  0.0479  0.4482 -0.8915
   66MOL0     H 9043   9.209  10.509   4.968  2.3280  1.2385 -1.5069
   66MOL0     H 9044   9.167  10.333   4.974 -0.8804 -0.5511  0.6077
   66MOL0     H 9045   9.367  10.260   4.954 -0.3871 -0.2557 -2.4005
   66MOL0     H 9046   9.418  10.391   4.839 -0.7344 -2.4337 -1.0986
   66MOL0     H 9047   9.428  10.544   5.034  1.2488 -0.1741 -0.8070
   66MOL0     H 9048   9.385  10.419   5.146 -2.2109  1.1721 -0.5869
   66MOL0     H 9049   9.627  10.462   4.979 -2.2785 -0.1599 -1.1984
   66MOL0     H 9050   9.604  10.297   5.026  1.1726 -0.0405 -0.8274
   66MOL0     H 9051   9.604  10.523   5.221 -0.7996  0.0853  1.0773
   66MOL0     H 9052   9.591  10.359   5.270 -3.2648  0.9251 -1.5533
   66MOL0     H 9053   9.839  10.483   5.131  2.1831  1.1739  2.8786
   66MOL0     H 9054   9.817  10.310   5.163 -0.5963  0.6191 -1.3796
   66MOL0     H 9055   9.823  10.522   5.372 -1.8579 -1.6312  1.3004
   66MOL0     H 9056   9.817  10.347   5.403  2.9297 -1.5809  0.9742
   66MOL0     H 9057  10.063  10.569   5.194  0.0606 -1.1583 -0.8387
   66MOL0     H 9058  10.373  10.608   5.362  1.0124 -1.8106  0.0160
   66MOL0     H 9059  10.299  10.637   5.206  1.7690  2.0050  1.6226
   66MOL0     H 9060  10.451  10.379   5.261  1.9402 -0.3837  0.0072
   66MOL0     H 9061  10.365  10.411   5.124  0.1282 -0.5116  0.9078
   66MOL0     H 9062  10.580  10.479   5.074 -2.3593 -0.9705 -2.4589
   66MOL0     H 9063  10.466  10.610   5.057 -1.3885 -0.6144 -0.2080
   66MOL0     H 9064  10.687  10.684   5.164  0.4716  0.9665 -0.0162
   66MOL0     H 9065  10.544  10.713   5.272  0.7266  0.9350  0.2171
   66MOL0     H 9066  10.752  10.425   5.500 -0.2749  0.7331 -2.2903
   66MOL0     H 9067  10.935  10.453   5.779 -0.3641 -0.4098 -0.4069
   66MOL0     H 9068  11.067  10.397   5.673 -0.2392 -0.7681 -1.5780
   66MOL0     H 9069  10.907  10.326   5.657 -0.1475  0.4905 -0.8310
   66MOL0     H 9070  11.411  10.706   5.658 -0.7662 -1.6106  0.7421
   66MOL0     H 9071  11.607  10.785   5.798  1.4069  1.0416  2.2117
   66MOL0     H 9072  11.579  10.790   6.078  2.9298 -2.4325 -0.8359
   66MOL0     H 9073  11.737  10.865   6.064 -0.8103  0.7212 -0.4302
   66MOL0     H 9074  11.643  10.881   6.283  2.9634 -1.4523 -3.7120
   66MOL0     H 9075  11.664  11.054   6.223 -1.0991  0.8751  0.2156
   66MOL0     H 9076  11.419  10.885   6.228 -1.4956 -0.5385  2.4532
   66MOL0     H 9077  11.415  11.056   6.179 -0.7050  1.1555  2.1273
   66MOL0     H 9078  11.491  11.095   6.440 -0.1157  0.1763 -1.1895
   66MOL0     H 9079  11.472  10.915   6.452 -1.6624  0.5637  2.2308
   66MOL0     H 9080  11.245  11.108   6.377 -2.7505 -1.2871 -0.6184
   66MOL0     H 9081  11.240  10.932   6.394 -1.3222  2.3142 -2.2991
   66MOL0     H 9082  11.173  11.085   6.590  0.4554 -0.6285 -0.9610
   66MOL0     H 9083  11.348  11.091   6.638  1.7189 -1.6969  1.6546
   66MOL0     H 9084  11.344  10.834   6.637  0.7624  1.2542  2.2398
   66MOL0     H 9085  11.172  10.852   6.613  0.7138 -2.7212  0.7940
   66MOL0     H 9086  11.161  10.941   6.831 -1.4313  1.8803 -1.9925
   66MOL0     H 9087  11.337  10.991   6.830 -2.3314  1.7766 -2.6371
   66MOL0     H 9088  11.352  11.064   5.994  0.6887  0.3250  0.5694
   66MOL0     H 9089  11.158  10.997   5.831 -0.4795 -0.5608 -0.0793
   66MOL0     H 9090  11.015  10.834   5.466  1.9685 -0.1159  3.3546
   66MOL0     H 9091  10.826  10.799   5.325  0.4540  0.8147 -1.1009
   66MOL0     H 9092   8.813  10.550   4.703  1.0502  3.0190  0.5665
   66MOL0     H 9093   8.712  10.537   4.476  0.6655  2.7421 -1.5209
   66MOL0     H 9094   8.810  10.606   4.064  4.1298  0.4929 -1.2595
   66MOL0     H 9095   8.779  10.666   3.832  0.2872  0.5037  2.7434
   66MOL0     H 9096   8.656  10.681   3.638 -0.6637  0.6525 -1.3456
   66MOL0     H 9097   8.829  10.689   3.586 -0.2682  0.2315  0.2609
   66MOL0     H 9098   8.782  10.615   3.380  0.6373 -0.5507  0.6800
   66MOL0     H 9099   8.686  10.754   3.413  0.5901  0.5668  0.8204
   66MOL0     H 9100   8.477  10.632   3.406  1.7854  1.8965  3.1588
   66MOL0     H 9101   8.575  10.563   3.272  1.9268 -0.8233  0.7079
   66MOL0     H 9102   8.504  10.422   3.537 -1.8453  2.8800 -0.6317
   66MOL0     H 9103   8.616  10.365   3.411 -2.8728 -2.3796 -1.2285
   66MOL0     H 9104   8.223  10.300   3.262  0.9225  0.7576 -0.7118
   66MOL0     H 9105   8.795  10.259   3.716 -3.1679 -1.6531  2.4620
   66MOL0     H 9106   8.830  10.084   3.860  1.0087 -2.7317  1.9712
   66MOL0     H 9107   8.921  10.126   4.003 -0.2038 -0.8216 -0.7127
   66MOL0     H 9108   8.743  10.112   4.020 -1.5002  1.7953  1.4060
   67MOL0     O 9109   4.490   4.325   4.938 -0.7103 -0.4507  0.8209
   67MOL0     C 9110   4.483   4.209   4.892 -1.4074 -0.0514  0.7265
   67MOL0     O 9111   4.363   4.148   4.872 -0.5599  0.9425 -0.5550
   67MOL0     C 9112   4.241   4.180   4.930 -0.1917  0.3184 -0.0727
   67MOL0     C 9113   4.234   4.265   5.035 -0.6061  0.8867  0.5188
   67MOL0     C 9114   4.113   4.305   5.080  0.2740 -0.3810 -0.1868
   67MOL0     C 9115   3.995   4.250   5.027  0.1352 -0.3191 -1.2159
   67MOL0     O 9116   3.873   4.289   5.089 -0.1608 -0.0474 -0.0169
   67MOL0     C 9117   3.803   4.180   5.158  0.2494 -0.4966  0.5680
   67MOL0     C 9118   3.685   4.241   5.234 -0.5868  0.0882 -0.5612
   67MOL0     C 9119   3.598   4.327   5.144  0.1670  1.1462 -0.6895
   67MOL0     C 9120   3.458   4.353   5.198 -0.6774  0.0814  0.2790
   67MOL0     C 9121   3.387   4.474   5.140  0.6110 -0.0458 -0.0232
   67MOL0     C 9122   3.430   4.618   5.194 -0.4943 -0.1177 -0.1811
   67MOL0     C 9123   3.353   4.733   5.127  0.7131 -0.6777 -0.0361
   67MOL0     C 9124   3.213   4.763   5.183 -0.7755 -0.3472 -1.0344
   67MOL0     N 9125   3.207   4.765   5.331 -0.3275 -0.3797 -0.3631
   67MOL0     C 9126   3.282   4.851   5.404  0.1167 -0.0199 -0.2672
   67MOL0     C 9127   3.272   4.807   5.528 -1.0231 -0.7503 -0.7942
   67MOL0     C 9128   3.348   4.869   5.641 -0.7866  0.2264 -0.8204
   67MOL0     C 9129   3.475   4.788   5.668  0.6109 -0.4895 -0.5858
   67MOL0     C 9130   3.581   4.826   5.776  0.2164 -0.4019 -0.5477
   67MOL0     C 9131   3.632   4.971   5.765 -0.6032  0.1795  0.2116
   67MOL0     O 9132   3.739   5.001   5.860  0.1365  0.2019  0.1686
   67MOL0     C 9133   3.705   5.001   5.995 -0.0885  0.2671  0.3960
   67MOL0     C 9134   3.573   5.010   6.050  0.1633 -0.5912 -0.8422
   67MOL0     C 9135   3.543   5.022   6.191  0.8358  0.0581 -0.6402
   67MOL0     C 9136   3.396   5.048   6.242 -0.0951  0.2078  0.1107
   67MOL0     C 9137   3.654   4.996   6.283  0.4796  0.1262  0.1656
   67MOL0     C 9138   3.647   4.985   6.439  0.9623  0.8493 -0.8043
   67MOL0     O 9139   3.528   4.953   6.494  0.1367 -0.0460 -0.6335
   67MOL0     C 9140   3.497   4.982   6.621  0.2772 -0.2208  0.0063
   67MOL0     C 9141   3.386   5.066   6.654 -1.0877  0.4698  0.0376
   67MOL0     C 9142   3.348   5.072   6.791 -0.3705 -0.3584 -0.5828
   67MOL0     C 9143   3.407   4.999   6.888 -0.8029 -0.4967  0.4896
   67MOL0     O 9144   3.381   5.007   7.016 -0.1332 -0.0588  0.0247
   67MOL0     C 9145   3.259   5.072   7.062 -0.0203  0.6643 -0.7659
   67MOL0     C 9146   3.254   5.100   7.219 -0.0360  0.4014  0.6114
   67MOL0     C 9147   3.378   5.170   7.270  0.3220  0.2644  0.8849
   67MOL0     C 9148   3.399   5.159   7.419 -0.4064 -0.2835  0.8877
   67MOL0     C 9149   3.532   5.232   7.454  0.3673 -0.1724 -1.0337
   67MOL0     C 9150   3.564   5.248   7.606 -0.2209  0.2713 -0.0603
   67MOL0     C 9151   3.624   5.386   7.641  0.0305  0.0632  1.5380
   67MOL0     C 9152   3.767   5.422   7.589 -0.0741  0.0517  0.2516
   67MOL0    Cl 9153   3.894   5.327   7.677  0.4045 -0.3034  0.0456
   67MOL0     C 9154   3.523   4.918   6.852  0.1888  0.5283 -0.0555
   67MOL0     C 9155   3.560   4.904   6.720 -0.1205 -0.4395  0.0970
   67MOL0     O 9156   3.748   5.001   6.503 -0.2206  0.0514  0.3008
   67MOL0     C 9157   3.782   4.980   6.222 -0.0440 -0.2242 -0.7723
   67MOL0     C 9158   3.810   4.982   6.085 -0.4031 -0.2285 -0.4439
   67MOL0     N 9159   3.184   4.695   5.533 -0.2675  0.2081 -0.4623
   67MOL0     N 9160   3.158   4.666   5.411  0.0325 -0.0959 -0.5186
   67MOL0     C 9161   3.996   4.171   4.917 -0.7320 -0.2640  0.6234
   67MOL0     C 9162   4.120   4.131   4.876 -0.3916 -0.2962  0.7221
   67MOL0     C 9163   4.613   4.127   4.874 -0.3472  0.6279 -1.1865
   67MOL0     C 9164   4.732   4.188   4.916  0.2786 -0.8157  0.5146
   67MOL0     C 9165   4.851   4.124   4.892 -1.1654 -0.1985 -0.0342
   67MOL0     C 9166   4.862   4.003   4.823 -0.1759 -0.5359 -0.4512
   67MOL0     O 9167   4.991   3.966   4.800  0.0276  0.5470  0.3556
   67MOL0     C 9168   5.018   3.889   4.683 -0.7130 -0.0054 -0.6380
   67MOL0     C 9169   5.155   3.928   4.626  0.0508 -0.3719  0.3076
   67MOL0     C 9170   5.274   3.877   4.717 -0.1999  0.7931  0.7140
   67MOL0     C 9171   5.403   3.938   4.677  0.0908  0.0272  0.4231
   67MOL0     C 9172   5.506   3.853   4.733  0.2050  0.0949  0.1420
   67MOL0     C 9173   5.576   3.779   4.789 -0.7271 -0.6579 -0.1114
   67MOL0     C 9174   4.744   3.938   4.788  0.6288  0.4162 -0.1233
   67MOL0     C 9175   4.619   3.997   4.816  0.1863 -0.2415 -0.4574
   67MOL0     C 9176   4.500   3.920   4.772 -0.7497  0.1949  0.1776
   67MOL0     H 9177   4.324   4.295   5.088  1.1779 -0.3181 -1.6380
   67MOL0     H 9178   4.099   4.375   5.161 -1.1163 -0.3274 -0.4555
   67MOL0     H 9179   3.867   4.124   5.226 -0.3658 -0.9132  0.8123
   67MOL0     H 9180   3.769   4.107   5.084 -2.4286  1.2996 -0.1083
   67MOL0     H 9181   3.629   4.165   5.290 -0.3985  1.1956  1.2052
   67MOL0     H 9182   3.730   4.296   5.318  0.0233  0.3957 -1.0834
   67MOL0     H 9183   3.644   4.417   5.103 -0.0760  1.2877 -0.6500
   67MOL0     H 9184   3.575   4.256   5.064 -1.9919  0.0241  0.8285
   67MOL0     H 9185   3.384   4.274   5.180  1.2570 -1.2697 -2.3106
   67MOL0     H 9186   3.470   4.366   5.306  1.8796  1.2071 -0.0706
   67MOL0     H 9187   3.283   4.465   5.173  0.4489  1.4387 -0.0563
   67MOL0     H 9188   3.396   4.468   5.031  0.5353 -1.4353  0.0372
   67MOL0     H 9189   3.419   4.609   5.302 -0.8123 -3.0325 -0.3605
   67MOL0     H 9190   3.536   4.638   5.173  0.1041 -3.1651 -0.5954
   67MOL0     H 9191   3.343   4.714   5.020 -2.0594  3.2329 -0.6824
   67MOL0     H 9192   3.406   4.827   5.144 -2.5377  1.2345  0.4261
   67MOL0     H 9193   3.180   4.863   5.152  0.1535  0.1865 -0.3429
   67MOL0     H 9194   3.144   4.683   5.154 -0.8256 -0.8434  0.3786
   67MOL0     H 9195   3.343   4.932   5.368  2.9210 -1.8241  0.1172
   67MOL0     H 9196   3.289   4.888   5.731  1.9933 -1.0075  1.4372
   67MOL0     H 9197   3.388   4.965   5.607  0.5223  0.0468  0.1046
   67MOL0     H 9198   3.441   4.684   5.679  2.4409 -1.0759 -0.0953
   67MOL0     H 9199   3.529   4.782   5.573  3.5589 -1.3618  0.9840
   67MOL0     H 9200   3.530   4.799   5.869 -2.3592 -4.0344 -2.7234
   67MOL0     H 9201   3.663   4.754   5.780  0.0948 -0.5119  2.2214
   67MOL0     H 9202   3.660   4.987   5.660 -3.2223 -0.4124 -0.6519
   67MOL0     H 9203   3.546   5.035   5.786  0.6247  1.2183  2.4321
   67MOL0     H 9204   3.487   5.016   5.984 -0.6369  0.4749  0.2633
   67MOL0     H 9205   3.340   5.094   6.160 -0.3268  0.2931  0.3162
   67MOL0     H 9206   3.409   5.122   6.322  1.5495  0.2571 -0.1519
   67MOL0     H 9207   3.340   4.960   6.274 -1.1137  1.9037  3.3962
   67MOL0     H 9208   3.341   5.129   6.579  1.6929  1.8756 -0.5613
   67MOL0     H 9209   3.268   5.141   6.817  0.1704 -0.6095  1.9922
   67MOL0     H 9210   3.254   5.172   7.018  1.4374  2.2822  2.3720
   67MOL0     H 9211   3.175   5.008   7.035  0.1797  0.4146 -0.7945
   67MOL0     H 9212   3.157   5.147   7.235 -1.8968 -3.2372  1.1537
   67MOL0     H 9213   3.258   5.001   7.264  1.9866 -1.0785 -2.4530
   67MOL0     H 9214   3.366   5.277   7.250  3.8109  0.7097  0.4784
   67MOL0     H 9215   3.466   5.129   7.218  0.9511  0.2204  1.9552
   67MOL0     H 9216   3.406   5.056   7.455  2.1265 -0.2406  0.6811
   67MOL0     H 9217   3.314   5.199   7.475 -1.4113 -0.6946 -0.3197
   67MOL0     H 9218   3.618   5.176   7.417  1.3605  0.7602 -0.1822
   67MOL0     H 9219   3.521   5.330   7.407 -1.8908 -0.5030 -1.3077
   67MOL0     H 9220   3.644   5.176   7.626 -0.0190  0.1665 -1.1829
   67MOL0     H 9221   3.490   5.222   7.683  1.2981 -1.0526  1.0471
   67MOL0     H 9222   3.629   5.402   7.750  2.5495  2.6881  1.1739
   67MOL0     H 9223   3.565   5.464   7.592 -0.1862 -0.4720  0.9364
   67MOL0     H 9224   3.803   5.525   7.597  2.6004 -0.8880  1.0479
   67MOL0     H 9225   3.776   5.385   7.486 -0.6999 -0.3036  0.3225
   67MOL0     H 9226   3.588   4.876   6.927  1.4031 -0.1135 -1.4091
   67MOL0     H 9227   3.646   4.841   6.699  0.0814 -0.1094 -0.0814
   67MOL0     H 9228   3.860   4.962   6.294  0.8871  1.0219 -1.4228
   67MOL0     H 9229   3.912   4.967   6.053 -0.3219 -0.3248 -0.1385
   67MOL0     H 9230   3.912   4.121   4.869  0.9542 -2.1282 -0.5589
   67MOL0     H 9231   4.108   4.056   4.799 -3.3192  0.7712  0.0201
   67MOL0     H 9232   4.728   4.290   4.955 -0.2024 -1.1970  1.4798
   67MOL0     H 9233   4.946   4.175   4.909 -0.7947  0.5710 -3.6269
   67MOL0     H 9234   5.035   3.785   4.714 -0.2360 -0.3279 -1.9220
   67MOL0     H 9235   4.946   3.898   4.601  0.1279  0.4730 -1.3409
   67MOL0     H 9236   5.155   4.037   4.612 -0.6836 -0.5871 -1.6526
   67MOL0     H 9237   5.162   3.876   4.530 -0.6943  1.7803 -0.9810
   67MOL0     H 9238   5.252   3.919   4.816  0.6080  3.8337 -0.2935
   67MOL0     H 9239   5.267   3.768   4.718 -1.9198  0.8763  1.3635
   67MOL0     H 9240   5.411   4.043   4.708 -1.1651  0.1479  0.3696
   67MOL0     H 9241   5.403   3.940   4.568 -0.5119  0.2257  0.4235
   67MOL0     H 9242   5.633   3.698   4.831 -0.9303 -0.2002  1.1055
   67MOL0     H 9243   4.751   3.843   4.738  0.4987  1.2943 -1.8778
   67MOL0     H 9244   4.431   3.924   4.857 -0.6070 -1.6917  0.4169
   67MOL0     H 9245   4.459   3.966   4.681  0.5109 -0.5441 -0.7935
   67MOL0     H 9246   4.528   3.814   4.770  0.4974  0.5177 -0.6825
   68MOL0     O 9247   5.576   3.217   2.678 -0.3101 -0.7077 -0.3943
   68MOL0     C 9248   5.517   3.220   2.783 -0.9279  0.3598 -0.6582
   68MOL0     O 9249   5.574   3.251   2.904 -0.2570 -0.4030 -0.2296
   68MOL0     C 9250   5.670   3.349   2.904  0.8675 -0.2004  0.2383
   68MOL0     C 9251   5.629   3.484   2.926  0.1665  0.2146 -1.0355
   68MOL0     C 9252   5.708   3.588   2.879 -0.2298 -0.4510 -0.5772
   68MOL0     C 9253   5.833   3.561   2.829  0.2794 -0.4885  0.0089
   68MOL0     O 9254   5.909   3.671   2.802  0.7560 -0.0017 -0.8062
   68MOL0     C 9255   5.986   3.709   2.921 -0.3528 -0.6054 -0.6210
   68MOL0     C 9256   6.019   3.859   2.905  0.1860  0.1313 -1.4026
   68MOL0     C 9257   6.126   3.890   2.802 -0.3948 -0.6869  0.1446
   68MOL0     C 9258   6.135   4.041   2.789  0.4616  0.0197 -0.6280
   68MOL0     C 9259   6.235   4.091   2.682  0.5435  0.3909 -0.2053
   68MOL0     C 9260   6.391   4.074   2.723  0.1750  0.5832  0.0980
   68MOL0     C 9261   6.445   3.941   2.655  0.4056  0.6492 -0.1247
   68MOL0     C 9262   6.500   3.976   2.514 -0.5494 -0.7670 -0.8725
   68MOL0     N 9263   6.544   3.863   2.440 -0.1262 -0.1418 -0.9392
   68MOL0     C 9264   6.653   3.785   2.478 -0.2248  0.1876 -0.1855
   68MOL0     C 9265   6.631   3.669   2.407  0.1313 -0.0526  0.0845
   68MOL0     C 9266   6.725   3.549   2.401 -0.3722 -0.2551 -0.4264
   68MOL0     C 9267   6.859   3.609   2.351  0.3085  0.8202  0.4631
   68MOL0     C 9268   6.952   3.482   2.314 -0.2689  0.5302 -0.1379
   68MOL0     C 9269   7.072   3.519   2.235  0.1582  0.0103 -0.4318
   68MOL0     O 9270   7.123   3.408   2.173  0.6468  0.5406  0.0174
   68MOL0     C 9271   7.249   3.433   2.122 -0.1491 -0.0598 -0.9192
   68MOL0     C 9272   7.368   3.410   2.208 -0.2431  0.3022 -0.3752
   68MOL0     C 9273   7.499   3.429   2.167  1.2289  0.2572  0.7923
   68MOL0     C 9274   7.597   3.413   2.272 -0.3725 -0.4773 -0.9530
   68MOL0     C 9275   7.513   3.471   2.031 -0.2779  0.6454 -0.3112
   68MOL0     C 9276   7.647   3.494   1.958 -0.1203  0.5496 -0.4920
   68MOL0     O 9277   7.757   3.456   2.020 -0.0023 -0.3176 -0.0534
   68MOL0     C 9278   7.893   3.477   1.966  0.6860 -0.2453  0.1282
   68MOL0     C 9279   7.970   3.578   2.024 -0.2138 -0.0896 -0.2835
   68MOL0     C 9280   8.096   3.610   1.971 -0.5101  0.0509  0.4286
   68MOL0     C 9281   8.148   3.539   1.864  0.1490  0.1069  0.6518
   68MOL0     O 9282   8.270   3.565   1.809 -0.4821  0.0120 -0.5865
   68MOL0     C 9283   8.363   3.636   1.883  0.4612 -0.1419  0.6322
   68MOL0     C 9284   8.486   3.658   1.795 -0.1230 -0.0241  0.2663
   68MOL0     C 9285   8.620   3.670   1.869  0.7780  0.0428  0.0340
   68MOL0     C 9286   8.702   3.780   1.807  0.6571  0.1336  0.3312
   68MOL0     C 9287   8.840   3.810   1.879 -0.0768  0.4233 -0.2303
   68MOL0     C 9288   8.936   3.688   1.876  0.3449  0.8638  0.6514
   68MOL0     C 9289   8.989   3.667   1.725 -1.0882 -0.5633 -0.4188
   68MOL0     C 9290   9.113   3.577   1.725  0.8599  0.3031  0.0906
   68MOL0    Cl 9291   9.212   3.601   1.589  0.2612  0.0659  0.6499
   68MOL0     C 9292   8.076   3.428   1.811  0.9519  0.4480 -0.0089
   68MOL0     C 9293   7.945   3.401   1.861 -0.9465  0.6389  0.3997
   68MOL0     O 9294   7.649   3.557   1.855 -0.0860 -0.1574 -0.3982
   68MOL0     C 9295   7.402   3.489   1.949 -0.6987 -0.5942  0.2171
   68MOL0     C 9296   7.272   3.475   1.998  0.0061  0.6703  0.6045
   68MOL0     N 9297   6.521   3.686   2.324 -0.0795 -0.7073 -0.0849
   68MOL0     N 9298   6.474   3.805   2.341  0.6457 -0.1032 -0.5141
   68MOL0     C 9299   5.880   3.435   2.829 -0.1038  0.9573 -0.3247
   68MOL0     C 9300   5.797   3.327   2.870 -0.3444 -0.0733  0.7142
   68MOL0     C 9301   5.380   3.203   2.792  0.8150  1.3416 -0.1344
   68MOL0     C 9302   5.322   3.196   2.927  0.3367  0.5019 -0.4258
   68MOL0     C 9303   5.185   3.159   2.946  0.4720  0.2361 -0.0683
   68MOL0     C 9304   5.105   3.144   2.823 -0.2573  0.6379 -0.8199
   68MOL0     O 9305   4.972   3.104   2.837  0.0864 -0.2443  0.7809
   68MOL0     C 9306   4.894   3.193   2.922 -0.2987  0.9207 -0.1650
   68MOL0     C 9307   4.892   3.331   2.859  0.2777 -0.3482 -0.2268
   68MOL0     C 9308   4.842   3.338   2.717 -0.5454 -0.1289 -0.3391
   68MOL0     C 9309   4.702   3.397   2.713 -0.3683  0.7396  0.3489
   68MOL0     C 9310   4.596   3.319   2.786 -0.5760 -0.4302 -0.3324
   68MOL0     C 9311   4.510   3.242   2.815 -0.7987 -0.0817 -0.1918
   68MOL0     C 9312   5.163   3.158   2.699  0.3537  0.0316  0.5507
   68MOL0     C 9313   5.300   3.180   2.680  0.8426 -0.1235  1.0835
   68MOL0     C 9314   5.342   3.186   2.530 -0.9089  0.4658  0.8144
   68MOL0     H 9315   5.527   3.509   2.955  1.0309  3.1549 -0.1239
   68MOL0     H 9316   5.672   3.690   2.892 -2.4534 -1.2600  0.0686
   68MOL0     H 9317   6.074   3.645   2.913  0.6404  0.5638  0.3956
   68MOL0     H 9318   5.939   3.701   3.020  1.4468  0.2627  0.3606
   68MOL0     H 9319   5.925   3.911   2.885 -0.4202  0.4622  1.8478
   68MOL0     H 9320   6.053   3.899   3.000 -0.2790 -0.2382 -1.0739
   68MOL0     H 9321   6.221   3.851   2.840 -1.0071 -1.6532  0.7167
   68MOL0     H 9322   6.097   3.850   2.704 -1.0278  0.6621 -0.2401
   68MOL0     H 9323   6.030   4.070   2.778  0.1891 -0.3884  0.6852
   68MOL0     H 9324   6.151   4.083   2.889 -1.0278 -1.9183  0.5105
   68MOL0     H 9325   6.226   4.200   2.678  3.0491  0.8581  2.9972
   68MOL0     H 9326   6.201   4.053   2.585  0.8857 -2.4569  0.6992
   68MOL0     H 9327   6.441   4.165   2.691 -0.1601  0.3596 -1.1076
   68MOL0     H 9328   6.390   4.065   2.832  0.5570 -0.0707  0.0514
   68MOL0     H 9329   6.361   3.871   2.649  2.4838 -2.1328  1.0517
   68MOL0     H 9330   6.513   3.886   2.720 -1.3163 -3.2012 -1.2692
   68MOL0     H 9331   6.419   4.029   2.463 -2.2447  1.6897  3.7675
   68MOL0     H 9332   6.584   4.045   2.522 -0.5709 -0.6503 -1.6202
   68MOL0     H 9333   6.732   3.814   2.546 -0.4654  1.8715 -0.5644
   68MOL0     H 9334   6.689   3.474   2.330  0.0288  1.8112 -2.9797
   68MOL0     H 9335   6.754   3.500   2.495  1.9161  0.3678 -0.7420
   68MOL0     H 9336   6.843   3.672   2.263 -0.9668 -2.5691 -1.9965
   68MOL0     H 9337   6.907   3.661   2.434 -0.5593 -1.0442  2.2304
   68MOL0     H 9338   6.984   3.426   2.402 -1.1917  1.4866  0.8581
   68MOL0     H 9339   6.887   3.419   2.253  0.1366 -0.5406  0.5168
   68MOL0     H 9340   7.049   3.601   2.167 -2.8690 -2.5515 -2.7926
   68MOL0     H 9341   7.139   3.551   2.316  0.9713 -0.6317 -0.8343
   68MOL0     H 9342   7.360   3.373   2.309 -1.8441 -2.3834 -1.3707
   68MOL0     H 9343   7.684   3.351   2.247 -0.6903 -0.7394 -1.4300
   68MOL0     H 9344   7.557   3.357   2.357 -0.9910  1.3407  0.0247
   68MOL0     H 9345   7.639   3.507   2.308 -2.7565  0.1535  0.4095
   68MOL0     H 9346   7.934   3.620   2.117 -1.4226  1.2287 -1.2988
   68MOL0     H 9347   8.152   3.695   2.009  0.1272  1.4439 -3.2338
   68MOL0     H 9348   8.320   3.731   1.915 -1.8492 -1.0201  0.3033
   68MOL0     H 9349   8.384   3.574   1.971 -0.8290  0.7543  1.6038
   68MOL0     H 9350   8.506   3.571   1.732  0.9154  2.4121 -3.0383
   68MOL0     H 9351   8.464   3.739   1.724  0.0780 -0.6617 -0.5379
   68MOL0     H 9352   8.668   3.571   1.869 -0.1733 -0.4572  1.1652
   68MOL0     H 9353   8.613   3.699   1.974  0.1074  2.1709 -0.5593
   68MOL0     H 9354   8.655   3.872   1.842 -0.7260  0.2299 -1.5943
   68MOL0     H 9355   8.700   3.778   1.697 -0.3534 -3.2223  0.3160
   68MOL0     H 9356   8.885   3.883   1.811 -1.4484 -1.9158 -3.9986
   68MOL0     H 9357   8.823   3.855   1.977  2.6961 -2.6099  1.8212
   68MOL0     H 9358   8.885   3.601   1.918  2.7459 -1.5823 -1.1515
   68MOL0     H 9359   9.017   3.723   1.940  0.1190  3.9211 -0.5847
   68MOL0     H 9360   9.018   3.761   1.675  1.3158  0.1639  2.0940
   68MOL0     H 9361   8.923   3.603   1.666 -0.1911 -0.7686 -1.2354
   68MOL0     H 9362   9.082   3.472   1.717 -0.8230  0.8115 -0.4626
   68MOL0     H 9363   9.177   3.587   1.813  0.5833  0.2390  0.2994
   68MOL0     H 9364   8.105   3.359   1.732  2.5133  1.1979 -0.1362
   68MOL0     H 9365   7.880   3.331   1.810 -1.8067  1.2808  0.5908
   68MOL0     H 9366   7.415   3.530   1.849 -3.0385 -0.3381 -0.0495
   68MOL0     H 9367   7.195   3.499   1.926  1.2208 -0.3200 -1.0897
   68MOL0     H 9368   5.973   3.415   2.778 -0.4449 -0.8104 -0.3076
   68MOL0     H 9369   5.835   3.226   2.857  0.3082 -0.0970  2.5201
   68MOL0     H 9370   5.375   3.201   3.022 -0.8881 -1.4690  0.4311
   68MOL0     H 9371   5.157   3.153   3.050 -1.8724  3.1330 -0.3880
   68MOL0     H 9372   4.794   3.153   2.941  0.0055 -0.1448 -0.7667
   68MOL0     H 9373   4.932   3.205   3.024 -1.6333 -1.9334  0.7639
   68MOL0     H 9374   4.986   3.386   2.869 -0.4273  0.4883  3.2718
   68MOL0     H 9375   4.827   3.400   2.914  1.3134  1.1126 -0.7769
   68MOL0     H 9376   4.913   3.391   2.653 -1.9850 -1.8611 -3.5910
   68MOL0     H 9377   4.825   3.236   2.682 -0.5458 -0.8195  1.5517
   68MOL0     H 9378   4.671   3.418   2.611 -2.5190 -2.6583  0.1255
   68MOL0     H 9379   4.708   3.494   2.763 -0.8743 -0.5363  3.1414
   68MOL0     H 9380   4.435   3.175   2.852 -1.7594  0.1239 -1.6815
   68MOL0     H 9381   5.101   3.155   2.609 -2.4049 -0.1309  2.3296
   68MOL0     H 9382   5.390   3.282   2.512 -0.9198  0.0097 -2.1300
   68MOL0     H 9383   5.405   3.100   2.507 -2.2165  0.0693 -1.6264
   68MOL0     H 9384   5.256   3.176   2.462 -0.6266 -4.0352  0.7809
   69MOL0     O 9385   7.682   4.960   5.166  0.1773  0.0183  0.6422
   69MOL0     C 9386   7.593   4.915   5.238  0.2603  1.2083 -0.2172
   69MOL0     O 9387   7.617   4.876   5.364  0.0680  0.1883 -0.0466
   69MOL0     C 9388   7.721   4.932   5.443 -0.2401 -0.2360  0.1372
   69MOL0     C 9389   7.777   5.059   5.419  0.4765  0.1702  0.6765
   69MOL0     C 9390   7.896   5.098   5.481  0.0937 -0.4045  0.7044
   69MOL0     C 9391   7.951   5.029   5.588 -0.3491  1.0109  0.1012
   69MOL0     O 9392   8.070   5.080   5.641 -0.0791 -0.1346  0.3500
   69MOL0     C 9393   8.112   5.018   5.768  0.2088 -0.3275  0.2742
   69MOL0     C 9394   8.209   5.120   5.823  0.0337  0.7200  0.2135
   69MOL0     C 9395   8.255   5.075   5.952 -0.2555 -0.4196 -0.6019
   69MOL0     C 9396   8.375   5.163   5.995  0.7031  0.7775  0.4377
   69MOL0     C 9397   8.420   5.122   6.138  0.1281 -0.2169  0.4517
   69MOL0     C 9398   8.349   5.213   6.246 -0.7490  0.5732 -0.4011
   69MOL0     C 9399   8.406   5.203   6.394 -0.6548 -0.9245 -0.2264
   69MOL0     C 9400   8.297   5.192   6.505  0.2573  0.6917  0.2674
   69MOL0     N 9401   8.360   5.172   6.633 -0.6702  0.2661 -0.0985
   69MOL0     C 9402   8.458   5.083   6.667 -0.4497 -0.1229 -0.2502
   69MOL0     C 9403   8.456   5.073   6.803 -0.4587 -0.0836 -1.0196
   69MOL0     C 9404   8.554   4.997   6.889  0.4747 -0.1302 -0.0933
   69MOL0     C 9405   8.644   5.083   6.970 -0.1435 -0.2004  0.2542
   69MOL0     C 9406   8.741   5.009   7.061  0.0859 -0.2742 -0.1673
   69MOL0     C 9407   8.862   4.951   6.989 -0.5424 -0.0066 -0.0261
   69MOL0     O 9408   8.959   5.056   6.961  0.2071  0.1966  1.2771
   69MOL0     C 9409   9.061   5.033   6.872  0.1262 -0.4264 -0.7394
   69MOL0     C 9410   9.132   5.148   6.827 -0.3567 -0.0449  0.3649
   69MOL0     C 9411   9.235   5.142   6.725 -0.8456  0.6679  0.2789
   69MOL0     C 9412   9.299   5.272   6.676  0.2309 -0.2611  0.3325
   69MOL0     C 9413   9.276   5.008   6.687 -0.3197 -0.1460 -1.5287
   69MOL0     C 9414   9.371   4.986   6.580  0.1368 -0.3530 -0.5304
   69MOL0     O 9415   9.481   5.069   6.594 -0.1924  0.0342  0.5466
   69MOL0     C 9416   9.584   5.039   6.509 -0.5882 -0.5008 -0.6748
   69MOL0     C 9417   9.597   5.115   6.393 -0.3484 -0.0668  0.4105
   69MOL0     C 9418   9.701   5.073   6.306 -0.1225 -0.0060  0.6063
   69MOL0     C 9419   9.780   4.959   6.332 -0.4971 -0.3171 -0.3409
   69MOL0     O 9420   9.881   4.920   6.241  1.1951 -0.5559  0.3920
   69MOL0     C 9421   9.841   4.942   6.110  0.4155  0.5378 -0.0921
   69MOL0     C 9422   9.922   4.847   6.031  0.1409  0.4626 -0.5859
   69MOL0     C 9423  10.074   4.875   6.045 -0.4440  0.1346 -0.1920
   69MOL0     C 9424  10.157   4.785   5.961  0.0575  0.2592  0.1431
   69MOL0     C 9425  10.301   4.802   5.978  0.2345 -0.0160  0.5550
   69MOL0     C 9426  10.348   4.946   5.955  0.3278 -0.3752 -0.6605
   69MOL0     C 9427  10.496   4.962   5.932  0.9786  0.6257  0.0252
   69MOL0     C 9428  10.532   5.107   5.914  0.4499 -0.2727 -0.0226
   69MOL0    Cl 9429  10.705   5.126   5.928 -0.1831 -0.1869 -0.1574
   69MOL0     C 9430   9.763   4.895   6.452 -0.5506  0.5694  0.0703
   69MOL0     C 9431   9.667   4.932   6.536 -0.7689 -0.1670 -0.4048
   69MOL0     O 9432   9.368   4.888   6.507 -0.5589 -0.3762 -0.8262
   69MOL0     C 9433   9.210   4.889   6.742  0.1822  0.2867  0.1635
   69MOL0     C 9434   9.100   4.906   6.827  0.1201 -0.3219  1.3622
   69MOL0     N 9435   8.361   5.158   6.850  0.6939  0.9869  0.3003
   69MOL0     N 9436   8.307   5.217   6.747 -0.8580  0.2643  0.5328
   69MOL0     C 9437   7.885   4.903   5.618  0.1411  0.1447  0.2711
   69MOL0     C 9438   7.769   4.853   5.549  0.2745 -0.3646  0.4225
   69MOL0     C 9439   7.456   4.883   5.188 -0.2021 -0.4889 -0.3404
   69MOL0     C 9440   7.370   4.813   5.275 -0.1092 -0.1560 -0.3040
   69MOL0     C 9441   7.239   4.783   5.240 -0.0213  0.3031  1.4675
   69MOL0     C 9442   7.187   4.821   5.110 -0.5343 -0.1117 -0.4490
   69MOL0     O 9443   7.059   4.781   5.081 -0.7622 -0.3270 -0.4611
   69MOL0     C 9444   7.026   4.756   4.945  0.6123  0.6656 -0.7541
   69MOL0     C 9445   6.884   4.697   4.939  0.6499 -0.3693 -0.0766
   69MOL0     C 9446   6.779   4.795   4.986 -0.4826  0.6827 -0.5691
   69MOL0     C 9447   6.638   4.741   4.950 -0.3738 -0.4676  0.0433
   69MOL0     C 9448   6.609   4.618   5.028 -0.0498 -0.2899 -0.9636
   69MOL0     C 9449   6.601   4.515   5.092 -0.2238 -0.2598  0.4601
   69MOL0     C 9450   7.276   4.883   5.020 -0.0024 -0.4620  0.3912
   69MOL0     C 9451   7.409   4.925   5.061  0.1611 -0.1120  0.2279
   69MOL0     C 9452   7.495   4.980   4.951 -0.8231  0.6064 -0.0776
   69MOL0     H 9453   7.746   5.114   5.331  1.0064 -3.9888 -2.4221
   69MOL0     H 9454   7.946   5.190   5.450  2.2661 -1.4883  0.8281
   69MOL0     H 9455   8.160   4.920   5.758  2.1125  0.5490  0.4263
   69MOL0     H 9456   8.032   5.004   5.842 -1.2953  4.8143 -0.0059
   69MOL0     H 9457   8.295   5.116   5.755  1.0576 -1.8963  1.5417
   69MOL0     H 9458   8.160   5.216   5.840 -2.3590 -0.5979  1.3133
   69MOL0     H 9459   8.181   5.087   6.032  0.7422 -1.0382  0.4516
   69MOL0     H 9460   8.291   4.972   5.945  1.7304  0.1084  0.9125
   69MOL0     H 9461   8.452   5.143   5.920 -1.2371 -1.0448 -1.1608
   69MOL0     H 9462   8.335   5.264   5.981 -3.7742 -0.9379 -0.7689
   69MOL0     H 9463   8.529   5.124   6.134  0.1538 -1.1837  0.4225
   69MOL0     H 9464   8.393   5.021   6.171  2.7386 -0.8906  0.7205
   69MOL0     H 9465   8.358   5.319   6.220 -2.1997  1.1909  1.4479
   69MOL0     H 9466   8.242   5.190   6.246 -0.7732  0.6356  0.6969
   69MOL0     H 9467   8.461   5.297   6.406 -1.7985 -0.0994 -1.2366
   69MOL0     H 9468   8.475   5.119   6.404 -2.6167 -2.5488  0.1832
   69MOL0     H 9469   8.241   5.286   6.509 -0.8697  0.0804 -0.4806
   69MOL0     H 9470   8.230   5.108   6.480 -0.6258  1.2437  0.7285
   69MOL0     H 9471   8.536   5.043   6.603  0.5225 -1.4058  1.6486
   69MOL0     H 9472   8.614   4.929   6.828  1.5218  0.8763 -0.2432
   69MOL0     H 9473   8.508   4.929   6.961  3.2388 -1.1274  0.8608
   69MOL0     H 9474   8.695   5.152   6.902  0.2440  2.0946  2.7149
   69MOL0     H 9475   8.585   5.153   7.030  0.8141 -1.8308  3.2903
   69MOL0     H 9476   8.781   5.078   7.136  1.5992 -0.9898 -0.2951
   69MOL0     H 9477   8.706   4.923   7.120  2.2466 -0.9607  0.2171
   69MOL0     H 9478   8.917   4.888   7.060 -0.1547  0.0933 -0.2340
   69MOL0     H 9479   8.839   4.892   6.899  3.4543 -0.5131 -0.9227
   69MOL0     H 9480   9.097   5.245   6.862 -2.0111  0.9425 -3.5016
   69MOL0     H 9481   9.227   5.354   6.684  1.5211  1.0354 -0.6417
   69MOL0     H 9482   9.353   5.265   6.581 -0.0133 -0.0897  0.1811
   69MOL0     H 9483   9.379   5.292   6.748 -1.5570 -1.4216  2.7582
   69MOL0     H 9484   9.540   5.206   6.377  2.1136  1.5462  0.2271
   69MOL0     H 9485   9.728   5.132   6.219 -3.2009  1.3707  0.4377
   69MOL0     H 9486   9.733   4.926   6.110  0.7421 -2.5541  2.0898
   69MOL0     H 9487   9.853   5.049   6.087 -0.7274  1.1858  2.0549
   69MOL0     H 9488   9.896   4.746   6.061  0.4739 -0.6119 -3.5967
   69MOL0     H 9489   9.885   4.865   5.930  0.7305 -1.5875 -1.2146
   69MOL0     H 9490  10.101   4.845   6.146 -1.2232  0.1172  0.0147
   69MOL0     H 9491  10.088   4.981   6.025 -1.7859  0.1242 -1.4168
   69MOL0     H 9492  10.131   4.807   5.857 -2.3205  2.0110  1.0098
   69MOL0     H 9493  10.130   4.681   5.978  0.7738 -0.2312 -1.5402
   69MOL0     H 9494  10.320   4.777   6.083  1.1706  1.0465  0.6492
   69MOL0     H 9495  10.342   4.729   5.907  0.2895  1.8306 -1.4227
   69MOL0     H 9496  10.319   4.997   6.047  0.5287  0.4079 -1.0300
   69MOL0     H 9497  10.303   4.998   5.870 -0.1298 -0.8582 -0.7253
   69MOL0     H 9498  10.538   4.904   5.848  1.3589  0.3712  0.3853
   69MOL0     H 9499  10.550   4.925   6.020  0.0956 -0.7897  0.0100
   69MOL0     H 9500  10.482   5.167   5.991  2.7271 -1.0641  2.2213
   69MOL0     H 9501  10.499   5.131   5.813 -2.2637  1.1259  1.0746
   69MOL0     H 9502   9.831   4.811   6.465  0.3290  1.0635 -1.1476
   69MOL0     H 9503   9.642   4.870   6.622 -1.7246  0.5434 -0.1568
   69MOL0     H 9504   9.244   4.791   6.711 -4.4033 -0.4508 -3.8588
   69MOL0     H 9505   9.044   4.823   6.868 -2.1889  1.3099  1.6863
   69MOL0     H 9506   7.920   4.831   5.692 -0.2822  0.4902  0.8179
   69MOL0     H 9507   7.728   4.754   5.564 -2.2601  0.3320 -1.2574
   69MOL0     H 9508   7.416   4.786   5.369 -0.1721  0.1110 -0.1964
   69MOL0     H 9509   7.168   4.743   5.311 -1.7530  2.8609  1.3082
   69MOL0     H 9510   7.022   4.843   4.879 -1.3622  2.0163  0.9996
   69MOL0     H 9511   7.093   4.679   4.905  2.7410  1.2776  1.4096
   69MOL0     H 9512   6.881   4.605   4.997  3.1967 -0.0435  0.7011
   69MOL0     H 9513   6.869   4.680   4.832 -1.5656  0.1281  0.1008
   69MOL0     H 9514   6.775   4.800   5.096 -2.6938 -0.8877 -0.5182
   69MOL0     H 9515   6.794   4.897   4.951  0.5873  0.8258  0.2587
   69MOL0     H 9516   6.643   4.712   4.845  1.3628  0.6043 -0.2128
   69MOL0     H 9517   6.558   4.815   4.963 -0.1723  0.5038 -3.4411
   69MOL0     H 9518   6.587   4.424   5.147  3.3752  0.2773  2.5561
   69MOL0     H 9519   7.250   4.898   4.916 -4.2606  2.5826  1.6080
   69MOL0     H 9520   7.444   4.997   4.856  0.4088 -1.2935 -1.1476
   69MOL0     H 9521   7.551   5.068   4.984 -0.6424  0.9732 -1.3070
   69MOL0     H 9522   7.576   4.907   4.940 -1.3149 -0.1493  1.1134
   70MOL0     O 9523   2.832   6.590   3.464 -0.1690  0.2694  0.8430
   70MOL0     C 9524   2.717   6.629   3.490 -0.3713 -0.7670  0.2256
   70MOL0     O 9525   2.670   6.762   3.480 -1.7851  0.7355 -0.9257
   70MOL0     C 9526   2.746   6.867   3.441  0.7520 -1.1041  0.2870
   70MOL0     C 9527   2.883   6.870   3.419  0.0750 -0.1805 -0.2337
   70MOL0     C 9528   2.944   6.983   3.350  0.1358 -0.1723 -0.1115
   70MOL0     C 9529   2.863   7.089   3.306 -0.2872  0.5339  0.0485
   70MOL0     O 9530   2.935   7.208   3.265 -0.2596  0.1359 -0.6624
   70MOL0     C 9531   3.009   7.264   3.376  0.0480 -0.4020  0.6691
   70MOL0     C 9532   3.136   7.351   3.320 -0.5387  0.7498  0.2116
   70MOL0     C 9533   3.200   7.405   3.447  0.2242  0.3183 -0.1816
   70MOL0     C 9534   3.335   7.464   3.443  0.5115  0.1138  0.1684
   70MOL0     C 9535   3.323   7.601   3.361  0.5300 -0.1106 -1.2201
   70MOL0     C 9536   3.470   7.655   3.350 -0.2871 -0.5183  0.2910
   70MOL0     C 9537   3.480   7.801   3.299  0.2333  0.7265  0.3082
   70MOL0     C 9538   3.413   7.897   3.405  0.1594  0.0615 -0.7331
   70MOL0     N 9539   3.463   8.030   3.408  0.0017 -0.2662 -0.2159
   70MOL0     C 9540   3.593   8.066   3.406  0.4386 -0.2035 -0.6640
   70MOL0     C 9541   3.600   8.200   3.403  0.2991  0.3063  0.0878
   70MOL0     C 9542   3.710   8.296   3.378 -0.2331 -0.2977 -0.2751
   70MOL0     C 9543   3.762   8.279   3.237  0.2150  0.5155 -0.2884
   70MOL0     C 9544   3.882   8.180   3.244  0.7118  0.5687  0.0000
   70MOL0     C 9545   3.926   8.125   3.102  0.4851  0.3726  0.2794
   70MOL0     O 9546   3.987   8.229   3.018  1.3403 -0.6974  0.2918
   70MOL0     C 9547   4.062   8.195   2.909  0.1906 -0.3206 -0.0986
   70MOL0     C 9548   4.065   8.065   2.851 -0.1911 -0.0517 -0.4292
   70MOL0     C 9549   4.132   8.051   2.724  0.2223 -0.0463 -0.0134
   70MOL0     C 9550   4.113   7.916   2.647 -1.8291 -0.3825 -0.7879
   70MOL0     C 9551   4.227   8.150   2.680  0.9369  0.6788  0.3657
   70MOL0     C 9552   4.294   8.139   2.553  0.2959 -0.5649 -0.0419
   70MOL0     O 9553   4.232   8.079   2.435 -0.2154 -0.7084  0.5313
   70MOL0     C 9554   4.276   8.118   2.311 -0.0100 -0.0766  0.6729
   70MOL0     C 9555   4.280   8.023   2.205 -0.8661  0.5978  0.2767
   70MOL0     C 9556   4.343   8.052   2.078 -0.2901 -0.2387  0.7398
   70MOL0     C 9557   4.388   8.188   2.059 -0.7313 -0.2088  0.1627
   70MOL0     O 9558   4.462   8.229   1.946 -0.1412 -0.1050 -0.3202
   70MOL0     C 9559   4.501   8.132   1.852  0.6515 -0.3328  0.3854
   70MOL0     C 9560   4.397   8.113   1.738  0.5737  0.1731 -0.3650
   70MOL0     C 9561   4.455   8.034   1.622  0.1977 -0.5136  0.7951
   70MOL0     C 9562   4.340   8.004   1.521 -0.6397 -0.8276 -0.2460
   70MOL0     C 9563   4.396   7.972   1.386  0.2093 -0.1853  0.4588
   70MOL0     C 9564   4.278   7.925   1.304  0.9330 -0.2945  0.5649
   70MOL0     C 9565   4.323   7.882   1.154  0.7971  0.1528 -0.9100
   70MOL0     C 9566   4.374   8.004   1.084 -0.1940 -0.0595 -1.0242
   70MOL0    Cl 9567   4.401   7.970   0.905 -0.3320 -0.2308  0.0688
   70MOL0     C 9568   4.352   8.286   2.155  0.9828 -0.3005  0.3128
   70MOL0     C 9569   4.298   8.253   2.277  0.9595 -0.1532  0.2302
   70MOL0     O 9570   4.405   8.185   2.556 -0.3213 -0.1270  0.1795
   70MOL0     C 9571   4.218   8.277   2.740  0.5326  0.5213 -0.2880
   70MOL0     C 9572   4.137   8.294   2.854  0.3420  0.2772  1.0885
   70MOL0     N 9573   3.472   8.237   3.423  0.2872 -0.5803  0.2781
   70MOL0     N 9574   3.390   8.137   3.425  0.3110 -0.0893 -0.4067
   70MOL0     C 9575   2.727   7.094   3.348 -0.0893 -0.5991  0.6537
   70MOL0     C 9576   2.672   6.985   3.407 -0.6479 -0.0882 -0.1051
   70MOL0     C 9577   2.613   6.518   3.509  0.3332  0.4409 -0.1175
   70MOL0     C 9578   2.656   6.387   3.542  0.6551  0.2856 -0.4858
   70MOL0     C 9579   2.566   6.278   3.553 -0.2211  0.5113  0.1230
   70MOL0     C 9580   2.434   6.283   3.520  0.5791 -0.4521 -0.2241
   70MOL0     O 9581   2.362   6.172   3.534 -0.3065 -0.0125 -0.2650
   70MOL0     C 9582   2.227   6.160   3.502  0.0210  0.3511  0.3735
   70MOL0     C 9583   2.206   6.138   3.351 -0.6010 -0.7047  0.3675
   70MOL0     C 9584   2.295   6.024   3.298  0.8823 -0.4037 -0.2202
   70MOL0     C 9585   2.272   6.005   3.155 -0.0829  0.3504 -0.3326
   70MOL0     C 9586   2.146   5.932   3.130  0.2034  0.6144  0.1967
   70MOL0     C 9587   2.048   5.868   3.114  0.2045 -0.0186  0.0426
   70MOL0     C 9588   2.395   6.411   3.477  0.1207  0.2080  0.8008
   70MOL0     C 9589   2.477   6.519   3.458 -0.3063 -0.6038 -0.1519
   70MOL0     C 9590   2.418   6.643   3.388  0.0317 -0.4465  0.0440
   70MOL0     H 9591   2.947   6.792   3.459  0.9386  1.7246  2.4179
   70MOL0     H 9592   3.051   6.982   3.335  0.3155 -1.7093  0.9952
   70MOL0     H 9593   3.045   7.175   3.429  1.2260  0.9930  2.2863
   70MOL0     H 9594   2.952   7.319   3.450 -1.4947  0.3345 -0.9858
   70MOL0     H 9595   3.189   7.286   3.249  0.6635 -1.5799  3.0470
   70MOL0     H 9596   3.100   7.438   3.264 -2.3152 -1.8012 -2.9969
   70MOL0     H 9597   3.127   7.482   3.474 -1.8773 -1.0666 -1.5551
   70MOL0     H 9598   3.202   7.323   3.520 -1.9929 -0.9990 -1.4629
   70MOL0     H 9599   3.371   7.459   3.546 -0.7447  0.5184  0.6460
   70MOL0     H 9600   3.415   7.419   3.384 -0.3686  1.3230 -2.0825
   70MOL0     H 9601   3.259   7.668   3.418  0.7557  0.0937 -1.2046
   70MOL0     H 9602   3.272   7.601   3.264 -0.1837 -1.0741 -0.8635
   70MOL0     H 9603   3.517   7.637   3.448 -0.2323 -2.4115 -0.0540
   70MOL0     H 9604   3.518   7.590   3.277  0.8037 -1.2083  1.5607
   70MOL0     H 9605   3.429   7.823   3.205 -0.1085  1.4371  0.6521
   70MOL0     H 9606   3.588   7.822   3.292  0.3492 -0.2268 -1.3522
   70MOL0     H 9607   3.306   7.901   3.380  0.7019  0.8030 -3.1333
   70MOL0     H 9608   3.420   7.851   3.505 -0.0485 -0.7951 -1.1017
   70MOL0     H 9609   3.678   7.999   3.409 -0.9461 -2.0015  2.4229
   70MOL0     H 9610   3.788   8.288   3.455 -0.5618 -1.1787 -0.0165
   70MOL0     H 9611   3.669   8.396   3.389 -0.0853  0.0467 -2.4861
   70MOL0     H 9612   3.687   8.229   3.176 -1.1168 -1.9301  3.0149
   70MOL0     H 9613   3.792   8.377   3.199  2.6739  0.0030  0.1641
   70MOL0     H 9614   3.967   8.236   3.285 -0.3920  2.6660 -0.4495
   70MOL0     H 9615   3.848   8.094   3.302  0.3588 -0.9303 -2.3019
   70MOL0     H 9616   4.009   8.053   3.103  0.9414  0.7281 -2.9712
   70MOL0     H 9617   3.838   8.078   3.059  1.4629 -1.7354  0.4322
   70MOL0     H 9618   4.002   7.986   2.890  0.0676 -0.7743 -1.4407
   70MOL0     H 9619   4.081   7.830   2.708 -1.4946 -0.4495 -0.7033
   70MOL0     H 9620   4.207   7.887   2.600 -1.0891 -0.6415  0.8069
   70MOL0     H 9621   4.030   7.923   2.576 -2.9573 -1.2235  0.3947
   70MOL0     H 9622   4.267   7.924   2.246  1.5733  0.0532 -0.1322
   70MOL0     H 9623   4.368   7.966   2.017  0.0854  0.4625 -0.1187
   70MOL0     H 9624   4.597   8.160   1.808  0.3931  0.7787  0.5068
   70MOL0     H 9625   4.526   8.043   1.910 -1.1805 -2.6524 -2.1074
   70MOL0     H 9626   4.312   8.053   1.774  1.4958 -0.5746  0.6365
   70MOL0     H 9627   4.342   8.203   1.707  0.7142 -0.5833 -3.0571
   70MOL0     H 9628   4.505   7.944   1.659  2.2745  0.0629 -0.4567
   70MOL0     H 9629   4.537   8.083   1.569 -0.2688 -1.2994 -0.7059
   70MOL0     H 9630   4.274   8.089   1.506  1.1110  1.0846  2.0617
   70MOL0     H 9631   4.292   7.911   1.553  0.9868 -3.3934 -4.3593
   70MOL0     H 9632   4.453   8.051   1.338 -2.5794  0.8432 -1.4213
   70MOL0     H 9633   4.461   7.885   1.401 -0.3331 -0.5962  0.4613
   70MOL0     H 9634   4.198   7.997   1.280 -0.2739 -1.2230  1.6511
   70MOL0     H 9635   4.224   7.845   1.356 -2.6352  2.2777  1.2338
   70MOL0     H 9636   4.231   7.852   1.102  0.7430 -2.3410  0.4373
   70MOL0     H 9637   4.397   7.801   1.152 -0.3767 -1.0630  0.9623
   70MOL0     H 9638   4.473   8.023   1.127  0.0366  1.0774 -1.9864
   70MOL0     H 9639   4.316   8.095   1.104 -0.0697 -0.3050  0.5795
   70MOL0     H 9640   4.379   8.389   2.137 -0.2311  0.0558  0.3893
   70MOL0     H 9641   4.272   8.335   2.344 -1.0248  0.2829 -0.9709
   70MOL0     H 9642   4.278   8.351   2.688  1.1267 -0.3998 -0.9475
   70MOL0     H 9643   4.130   8.391   2.902  0.2315  1.3037 -0.8826
   70MOL0     H 9644   2.675   7.186   3.324  0.1501 -1.0090 -1.7291
   70MOL0     H 9645   2.565   6.996   3.423 -1.0574 -0.0882 -2.4524
   70MOL0     H 9646   2.758   6.364   3.570  1.2746  0.4982 -2.4259
   70MOL0     H 9647   2.608   6.188   3.598 -0.1650 -0.5893 -1.9917
   70MOL0     H 9648   2.176   6.076   3.550 -0.7344  1.1211  0.9510
   70MOL0     H 9649   2.173   6.253   3.524 -0.4908 -0.0798  0.9773
   70MOL0     H 9650   2.225   6.236   3.306  1.7837 -0.1621  2.3332
   70MOL0     H 9651   2.101   6.110   3.334 -0.5379 -1.5378  1.2526
   70MOL0     H 9652   2.401   6.052   3.303  0.5780  1.3590 -2.1170
   70MOL0     H 9653   2.268   5.934   3.353 -0.7586  0.8682  1.1598
   70MOL0     H 9654   2.359   5.956   3.111  0.5476  3.0989 -2.4518
   70MOL0     H 9655   2.267   6.105   3.110 -2.3380  1.2846  1.7885
   70MOL0     H 9656   1.966   5.806   3.083  0.8322 -2.1774  2.3995
   70MOL0     H 9657   2.292   6.428   3.445  0.9412  0.2093 -2.0707
   70MOL0     H 9658   2.318   6.639   3.345  0.1567 -0.5776 -0.2340
   70MOL0     H 9659   2.413   6.725   3.460  2.1044  0.5831 -0.8938
   70MOL0     H 9660   2.484   6.676   3.308  1.7546  0.3608  1.7068
   71MOL0     O 9661   1.639   2.628   0.008  1.4320 -0.1142  0.6576
   71MOL0     C 9662   1.581   2.730   0.042  0.4098 -0.2878  0.5137
   71MOL0     O 9663   1.644   2.844   0.064 -0.4263  0.0153  0.0096
   71MOL0     C 9664   1.772   2.867   0.029 -0.0842 -1.0734  0.9356
   71MOL0     C 9665   1.797   2.948  -0.084  0.3480 -0.7275  0.3018
   71MOL0     C 9666   1.934   2.977  -0.118  0.2090  0.5227 -0.6132
   71MOL0     C 9667   2.043   2.923  -0.037  0.2857  0.1130  0.0271
   71MOL0     O 9668   2.182   2.941  -0.069 -0.0590 -0.3211 -0.2394
   71MOL0     C 9669   2.232   3.055  -0.129 -0.0497  0.2290  0.3975
   71MOL0     C 9670   2.286   3.005  -0.262 -0.9402 -0.5624  0.4999
   71MOL0     C 9671   2.197   2.951  -0.368 -0.2349  0.6804 -0.4673
   71MOL0     C 9672   2.115   3.057  -0.442  0.5518 -0.6913  0.0884
   71MOL0     C 9673   2.003   3.007  -0.538 -0.3320 -0.4499  0.6699
   71MOL0     C 9674   2.063   2.942  -0.660 -0.0400 -0.3005 -0.0223
   71MOL0     C 9675   1.955   2.890  -0.753 -0.8377  0.1354  0.0472
   71MOL0     C 9676   1.908   2.745  -0.719  0.4911 -0.4682 -0.3291
   71MOL0     N 9677   2.015   2.650  -0.705  0.1906  0.0943 -0.7235
   71MOL0     C 9678   2.066   2.598  -0.586  1.1646  1.2195 -0.1371
   71MOL0     C 9679   2.127   2.484  -0.631 -0.0665  0.5458 -0.9752
   71MOL0     C 9680   2.221   2.411  -0.547  0.0158 -0.6266 -0.1318
   71MOL0     C 9681   2.243   2.267  -0.572  0.1551  0.5856 -1.0027
   71MOL0     C 9682   2.137   2.177  -0.499  0.8487 -0.4437 -0.1122
   71MOL0     C 9683   2.118   2.044  -0.569  0.4755 -0.0609  0.0118
   71MOL0     O 9684   2.245   1.982  -0.566 -0.0507  0.2598  0.7349
   71MOL0     C 9685   2.249   1.842  -0.583 -0.3361 -0.1128 -0.2088
   71MOL0     C 9686   2.143   1.752  -0.598  1.1618  0.1491 -0.1046
   71MOL0     C 9687   2.162   1.612  -0.617 -0.3890 -0.0953 -0.6949
   71MOL0     C 9688   2.041   1.525  -0.654  0.4997 -0.7154 -0.0795
   71MOL0     C 9689   2.302   1.572  -0.617  0.4945 -0.4868 -0.0017
   71MOL0     C 9690   2.330   1.427  -0.597 -0.1022 -0.5147  0.0620
   71MOL0     O 9691   2.233   1.334  -0.558  1.5864 -0.2408 -0.4639
   71MOL0     C 9692   2.261   1.205  -0.578  1.3332 -0.1837 -0.8593
   71MOL0     C 9693   2.182   1.137  -0.665 -0.3825  0.5313  1.2091
   71MOL0     C 9694   2.207   0.999  -0.684  0.8350  0.5652 -0.5740
   71MOL0     C 9695   2.310   0.934  -0.616  0.1083  0.2775 -0.5164
   71MOL0     O 9696   2.338   0.805  -0.653  0.5782  0.0473  0.3057
   71MOL0     C 9697   2.479   0.767  -0.639  0.7585 -0.5914  0.1592
   71MOL0     C 9698   2.500   0.627  -0.689 -0.2635 -0.7394 -0.2295
   71MOL0     C 9699   2.518   0.618  -0.840 -0.0777 -0.6202  0.2305
   71MOL0     C 9700   2.601   0.496  -0.889 -0.6090 -0.1715  0.3407
   71MOL0     C 9701   2.529   0.366  -0.857  0.0414 -0.0183  0.8003
   71MOL0     C 9702   2.579   0.300  -0.724 -0.4373  0.2300  0.3030
   71MOL0     C 9703   2.497   0.173  -0.696  0.1581 -0.7197  0.7351
   71MOL0     C 9704   2.526   0.113  -0.560  0.8949  0.0838 -0.1503
   71MOL0    Cl 9705   2.505   0.223  -0.411 -0.1482  0.6273 -0.0467
   71MOL0     C 9706   2.394   1.011  -0.535 -0.0620  0.3817 -0.2422
   71MOL0     C 9707   2.358   1.137  -0.505  0.2100 -0.0524 -0.7170
   71MOL0     O 9708   2.441   1.399  -0.626  0.0584  0.2205  0.1787
   71MOL0     C 9709   2.407   1.662  -0.605 -0.2294  0.5620 -0.2925
   71MOL0     C 9710   2.382   1.797  -0.598 -0.6491  0.3834 -0.0615
   71MOL0     N 9711   2.105   2.465  -0.762 -0.0036 -0.2444 -0.0506
   71MOL0     N 9712   2.043   2.568  -0.806  0.1284  0.1430 -0.4501
   71MOL0     C 9713   2.007   2.846   0.078 -0.0208 -0.3883  0.1174
   71MOL0     C 9714   1.873   2.826   0.107 -0.0724 -0.1600  0.0688
   71MOL0     C 9715   1.437   2.733   0.069 -0.6061 -0.0310  0.1342
   71MOL0     C 9716   1.395   2.829   0.165  0.5022  0.1044 -0.2645
   71MOL0     C 9717   1.258   2.830   0.205 -0.5473  0.5384  0.3076
   71MOL0     C 9718   1.163   2.736   0.147  0.4380  0.4628 -0.7546
   71MOL0     O 9719   1.032   2.726   0.173  0.4580  0.5864 -0.0727
   71MOL0     C 9720   0.967   2.817   0.263  0.8903 -0.2326 -0.7887
   71MOL0     C 9721   0.847   2.885   0.187 -0.3993 -0.4773  0.3282
   71MOL0     C 9722   0.894   2.953   0.058  0.3847 -0.1666 -0.0151
   71MOL0     C 9723   0.782   3.044   0.004 -0.0445  0.0124 -0.2052
   71MOL0     C 9724   0.696   2.970  -0.089 -0.4825  0.9153  1.2240
   71MOL0     C 9725   0.639   2.913  -0.179 -0.1201  0.8182 -0.3866
   71MOL0     C 9726   1.210   2.641   0.057  0.3961  1.1631 -1.2516
   71MOL0     C 9727   1.346   2.643   0.014 -0.6116  0.2013  0.1676
   71MOL0     C 9728   1.377   2.529  -0.084  0.4372 -0.0540  0.3375
   71MOL0     H 9729   1.704   2.978  -0.131  1.0903 -2.2959 -2.3443
   71MOL0     H 9730   1.951   3.038  -0.207 -0.1694  1.8811  0.2201
   71MOL0     H 9731   2.317   3.095  -0.073  0.2673 -0.2799  0.2881
   71MOL0     H 9732   2.159   3.135  -0.138  0.1870  0.3770 -0.2263
   71MOL0     H 9733   2.343   3.084  -0.312 -1.0769 -3.0817 -4.1979
   71MOL0     H 9734   2.350   2.920  -0.236 -1.2683 -1.4425 -1.3407
   71MOL0     H 9735   2.243   2.898  -0.451 -0.8745  2.0353 -1.7418
   71MOL0     H 9736   2.129   2.881  -0.319 -0.9421  1.8072  0.2218
   71MOL0     H 9737   2.076   3.128  -0.369  1.4751 -0.5062  0.4097
   71MOL0     H 9738   2.180   3.117  -0.507  0.5343 -1.8233 -1.0125
   71MOL0     H 9739   1.938   3.087  -0.575 -3.2477 -2.8871  0.2136
   71MOL0     H 9740   1.928   2.940  -0.495  0.2409 -1.0567  0.7478
   71MOL0     H 9741   2.118   3.018  -0.716 -1.6105 -0.9650 -2.6439
   71MOL0     H 9742   2.120   2.858  -0.619  0.9989 -0.0921 -0.9859
   71MOL0     H 9743   2.002   2.891  -0.852 -2.3213  0.8962 -0.6915
   71MOL0     H 9744   1.861   2.947  -0.753 -1.8334 -1.0662 -4.4187
   71MOL0     H 9745   1.857   2.742  -0.622  2.6350 -4.2658  0.9095
   71MOL0     H 9746   1.830   2.710  -0.786 -0.6763  2.6745 -0.7890
   71MOL0     H 9747   2.058   2.630  -0.483  0.2450 -2.2637  1.0116
   71MOL0     H 9748   2.191   2.418  -0.442 -0.4660  0.3016 -0.3210
   71MOL0     H 9749   2.313   2.465  -0.571 -1.1356  0.7016 -1.8435
   71MOL0     H 9750   2.248   2.245  -0.679  0.6036  1.1928 -1.1188
   71MOL0     H 9751   2.335   2.236  -0.520 -0.9075 -2.5041 -0.7999
   71MOL0     H 9752   2.164   2.165  -0.393 -0.0013 -2.5704 -0.0768
   71MOL0     H 9753   2.041   2.228  -0.501  1.6305  1.0431 -0.6451
   71MOL0     H 9754   2.052   1.995  -0.497  0.7299  0.7287  0.7984
   71MOL0     H 9755   2.074   2.068  -0.666 -0.0584 -1.1981 -0.0411
   71MOL0     H 9756   2.040   1.783  -0.611  0.8322 -1.4331 -1.6951
   71MOL0     H 9757   2.004   1.476  -0.564 -3.3311  0.9704 -0.5453
   71MOL0     H 9758   2.068   1.451  -0.730  0.5095 -1.9491  1.0760
   71MOL0     H 9759   1.966   1.592  -0.696 -1.7259 -3.3371 -0.5709
   71MOL0     H 9760   2.105   1.186  -0.723  0.4523  0.3259 -0.1167
   71MOL0     H 9761   2.141   0.940  -0.747 -0.1620  1.1101 -0.0659
   71MOL0     H 9762   2.540   0.837  -0.697 -1.9683 -0.3153 -2.6002
   71MOL0     H 9763   2.512   0.769  -0.534  2.9495  0.4536 -0.4919
   71MOL0     H 9764   2.599   0.613  -0.646 -0.7441  3.3498  2.7594
   71MOL0     H 9765   2.421   0.566  -0.644 -0.9679  0.2266 -0.1258
   71MOL0     H 9766   2.567   0.707  -0.881 -1.9034 -0.7027 -2.3154
   71MOL0     H 9767   2.420   0.616  -0.887  0.8217 -0.1702 -1.7493
   71MOL0     H 9768   2.703   0.492  -0.850 -0.6364  1.3410  0.6356
   71MOL0     H 9769   2.613   0.511  -0.997 -0.5754  2.9814  0.6930
   71MOL0     H 9770   2.420   0.376  -0.852 -0.2756 -2.5175  0.3154
   71MOL0     H 9771   2.532   0.291  -0.937 -1.0689 -0.7609  1.4151
   71MOL0     H 9772   2.575   0.378  -0.648  2.9867  2.4245 -1.5416
   71MOL0     H 9773   2.682   0.264  -0.725  0.3831  1.9849  4.2255
   71MOL0     H 9774   2.525   0.106  -0.778 -3.3906 -0.3316 -0.9688
   71MOL0     H 9775   2.389   0.187  -0.704  0.3550  0.4854 -0.0672
   71MOL0     H 9776   2.629   0.077  -0.552  0.9663  0.5860  1.8088
   71MOL0     H 9777   2.455   0.033  -0.538  0.6910  0.1358 -0.6001
   71MOL0     H 9778   2.478   0.965  -0.485  1.7582  2.7430 -0.9328
   71MOL0     H 9779   2.421   1.192  -0.435 -1.6323  3.2597 -1.4697
   71MOL0     H 9780   2.511   1.632  -0.593 -0.3825 -1.4774 -3.2790
   71MOL0     H 9781   2.470   1.860  -0.586 -0.2528 -0.2074  0.1473
   71MOL0     H 9782   2.092   2.796   0.123 -0.1105  0.5876  1.4411
   71MOL0     H 9783   1.864   2.779   0.204  0.9630  1.4096  0.9740
   71MOL0     H 9784   1.461   2.901   0.212 -0.3159  0.9699 -0.4064
   71MOL0     H 9785   1.230   2.900   0.283 -0.0710 -3.1206  4.1402
   71MOL0     H 9786   0.931   2.764   0.351 -1.8823 -0.6509 -2.0621
   71MOL0     H 9787   1.028   2.904   0.291  2.0890 -0.9768 -1.0255
   71MOL0     H 9788   0.795   2.958   0.250 -2.3708 -0.9469 -0.6541
   71MOL0     H 9789   0.775   2.808   0.157 -0.9253  0.9964 -2.4885
   71MOL0     H 9790   0.976   3.018   0.088 -1.0908  0.9330  1.8136
   71MOL0     H 9791   0.934   2.875  -0.008  0.2680 -2.4591  2.4715
   71MOL0     H 9792   0.838   3.124  -0.045 -0.2129  1.5241  1.9260
   71MOL0     H 9793   0.719   3.091   0.080 -1.6851 -0.9791 -0.8961
   71MOL0     H 9794   0.584   2.868  -0.259  2.4722  0.5661 -2.1525
   71MOL0     H 9795   1.138   2.568   0.024  3.2139 -1.5732 -1.8074
   71MOL0     H 9796   1.294   2.503  -0.151 -0.4372  0.3243  1.2350
   71MOL0     H 9797   1.445   2.573  -0.157  1.9369 -0.4883  1.4403
   71MOL0     H 9798   1.421   2.438  -0.042 -1.2445  0.1407  2.7147
   72MOL0     O 9799  11.326   4.772   7.164  0.1863 -0.8294 -0.8932
   72MOL0     C 9800  11.323   4.672   7.238 -0.1371 -0.1017  0.9688
   72MOL0     O 9801  11.420   4.574   7.238  1.0023  0.1239 -0.0054
   72MOL0     C 9802  11.554   4.605   7.212  0.0521 -1.2347  0.8202
   72MOL0     C 9803  11.628   4.487   7.204 -0.0270 -0.5401  0.4492
   72MOL0     C 9804  11.770   4.480   7.190  0.5562  0.0154  0.3936
   72MOL0     C 9805  11.837   4.595   7.175  0.0880  0.0149 -0.6280
   72MOL0     O 9806  11.970   4.575   7.174 -0.5129  0.6599 -0.4836
   72MOL0     C 9807  12.060   4.677   7.171  0.1899  0.6603  0.0716
   72MOL0     C 9808  12.184   4.609   7.111 -0.0425 -0.1851 -0.1646
   72MOL0     C 9809  12.309   4.705   7.111  0.3689  0.5638 -0.4919
   72MOL0     C 9810  12.345   4.768   7.241  0.4361  0.5583 -0.3014
   72MOL0     C 9811  12.484   4.826   7.236 -0.3759  0.2791  0.0299
   72MOL0     C 9812  12.546   4.840   7.366 -1.0024 -0.4600 -0.4979
   72MOL0     C 9813  12.696   4.873   7.355  0.1885  0.8950  0.6030
   72MOL0     C 9814  12.710   5.017   7.337 -0.6219 -0.9379  0.5175
   72MOL0     N 9815  12.849   5.054   7.345 -0.7646 -0.1227 -0.3603
   72MOL0     C 9816  12.894   5.176   7.299 -0.1937 -0.0410  0.4538
   72MOL0     C 9817  13.029   5.180   7.303  0.1950 -0.1568  0.6051
   72MOL0     C 9818  13.108   5.305   7.264  0.3367 -0.2564 -0.4851
   72MOL0     C 9819  13.118   5.333   7.115 -0.1086 -0.2658 -0.5189
   72MOL0     C 9820  13.183   5.216   7.035 -0.4895  0.0562 -0.1993
   72MOL0     C 9821  13.334   5.231   7.041  0.3080  0.0028  0.7838
   72MOL0     O 9822  13.384   5.354   6.981  0.0825  0.0756 -0.3130
   72MOL0     C 9823  13.516   5.374   6.981 -0.5420  0.8915 -0.1878
   72MOL0     C 9824  13.546   5.489   6.913  0.2414  0.3184  0.5152
   72MOL0     C 9825  13.678   5.539   6.895 -0.2492 -0.8688 -0.2662
   72MOL0     C 9826  13.693   5.665   6.810  0.1008  0.8342 -0.6997
   72MOL0     C 9827  13.786   5.470   6.962 -0.0283  0.2759  1.0711
   72MOL0     C 9828  13.930   5.507   6.959 -0.3215  0.0885 -0.0725
   72MOL0     O 9829  14.005   5.427   7.032 -0.1559  1.0735 -0.1031
   72MOL0     C 9830  14.139   5.444   7.048  0.6250 -0.4032 -0.3400
   72MOL0     C 9831  14.211   5.560   7.081  0.5601 -1.3720  0.6738
   72MOL0     C 9832  14.354   5.571   7.097 -0.9496  0.1350  0.4403
   72MOL0     C 9833  14.429   5.449   7.089 -0.1047 -0.1002 -0.4297
   72MOL0     O 9834  14.565   5.436   7.103  0.0692  0.6124 -0.4681
   72MOL0     C 9835  14.630   5.557   7.151  0.1797 -0.2750 -0.5046
   72MOL0     C 9836  14.610   5.588   7.305 -0.3093 -0.3501 -0.1664
   72MOL0     C 9837  14.615   5.457   7.393 -0.1428 -0.2846 -0.1957
   72MOL0     C 9838  14.619   5.492   7.541 -0.0943  0.2466 -0.6136
   72MOL0     C 9839  14.627   5.375   7.638  0.1876  0.1881 -0.1509
   72MOL0     C 9840  14.643   5.403   7.789  0.0081 -0.1181 -0.8384
   72MOL0     C 9841  14.656   5.272   7.867  0.3139  0.7549  0.1808
   72MOL0     C 9842  14.700   5.307   8.015 -0.8012 -0.3969  0.1578
   72MOL0    Cl 9843  14.879   5.348   8.024  0.2298  0.2629  0.2280
   72MOL0     C 9844  14.354   5.331   7.067  0.6107  0.8920  0.3291
   72MOL0     C 9845  14.216   5.322   7.046 -0.0023 -0.2711 -0.7080
   72MOL0     O 9846  13.965   5.601   6.889  0.1238 -1.0823  0.7897
   72MOL0     C 9847  13.744   5.351   7.035 -0.7092  0.1312 -0.8943
   72MOL0     C 9848  13.616   5.304   7.053  0.3876 -0.4539 -0.8333
   72MOL0     N 9849  13.073   5.052   7.331  0.4101  0.1983  0.2073
   72MOL0     N 9850  12.968   4.988   7.365  0.0559  0.5405  0.3405
   72MOL0     C 9851  11.768   4.724   7.178  0.2706 -0.3282 -0.3097
   72MOL0     C 9852  11.624   4.730   7.193  0.3663 -0.3754 -0.7667
   72MOL0     C 9853  11.229   4.646   7.347 -0.0917 -0.2515 -0.2314
   72MOL0     C 9854  11.246   4.544   7.446  0.1430  0.7463 -0.5961
   72MOL0     C 9855  11.160   4.513   7.543  0.7176 -1.2267 -0.4374
   72MOL0     C 9856  11.041   4.593   7.559  0.3876  0.0855  0.3407
   72MOL0     O 9857  10.942   4.559   7.650 -0.5070  0.2026  0.7410
   72MOL0     C 9858  10.995   4.484   7.761 -0.3512 -0.3463  0.4795
   72MOL0     C 9859  10.986   4.337   7.745 -0.5421 -1.0271 -0.1158
   72MOL0     C 9860  10.835   4.292   7.755 -0.1568  1.0043 -0.5746
   72MOL0     C 9861  10.784   4.293   7.902  0.6490 -0.2795  0.5180
   72MOL0     C 9862  10.659   4.209   7.908 -0.1315 -0.0600 -1.4165
   72MOL0     C 9863  10.551   4.146   7.913 -0.1697  0.7588  0.0950
   72MOL0     C 9864  11.017   4.684   7.465  0.9449 -0.8168  0.0488
   72MOL0     C 9865  11.100   4.713   7.360 -1.3779  0.1175 -0.6276
   72MOL0     C 9866  11.056   4.821   7.274  0.1171 -0.4990  0.5489
   72MOL0     H 9867  11.578   4.394   7.225  1.5934 -1.5223  0.1442
   72MOL0     H 9868  11.815   4.382   7.179  0.7323  0.0261  0.9664
   72MOL0     H 9869  12.093   4.709   7.270 -1.8002  0.2868  0.8975
   72MOL0     H 9870  12.024   4.767   7.121  0.0125  0.1192 -0.8042
   72MOL0     H 9871  12.208   4.516   7.163  3.0883  0.0700 -0.9305
   72MOL0     H 9872  12.144   4.582   7.013 -2.1828  0.8614  0.3574
   72MOL0     H 9873  12.393   4.643   7.080  2.1130  1.7043  1.5957
   72MOL0     H 9874  12.303   4.782   7.034 -0.1618  0.4465 -0.5695
   72MOL0     H 9875  12.275   4.844   7.278 -1.5998 -2.8624  3.7705
   72MOL0     H 9876  12.347   4.688   7.315  0.8654 -2.4417 -3.3219
   72MOL0     H 9877  12.480   4.923   7.185  0.9775 -0.0684 -0.7912
   72MOL0     H 9878  12.548   4.771   7.167 -0.2086  0.7300 -0.1811
   72MOL0     H 9879  12.500   4.918   7.427 -1.8501 -2.7021  1.9121
   72MOL0     H 9880  12.542   4.748   7.424  3.5935 -0.8609 -0.4782
   72MOL0     H 9881  12.729   4.813   7.270  0.5964  1.1759  0.5620
   72MOL0     H 9882  12.748   4.848   7.449  2.6521 -1.9640 -1.2995
   72MOL0     H 9883  12.660   5.052   7.246 -1.0627 -0.6898  0.8510
   72MOL0     H 9884  12.663   5.076   7.416 -0.3767  0.5949 -0.4187
   72MOL0     H 9885  12.822   5.253   7.275  0.2169  0.4750  0.8558
   72MOL0     H 9886  13.212   5.286   7.292  0.0728  0.4236  1.0412
   72MOL0     H 9887  13.063   5.392   7.313  2.4089 -0.6870  2.4643
   72MOL0     H 9888  13.016   5.338   7.076 -0.6447 -1.4151  0.6769
   72MOL0     H 9889  13.179   5.422   7.097 -0.0310 -0.4857 -1.3995
   72MOL0     H 9890  13.152   5.117   7.071  0.3407 -0.8894 -2.0004
   72MOL0     H 9891  13.164   5.235   6.929  3.1391 -0.5838 -1.0825
   72MOL0     H 9892  13.375   5.229   7.143  0.4682 -0.3608  0.7146
   72MOL0     H 9893  13.373   5.149   6.980 -1.5405 -0.7785  0.5880
   72MOL0     H 9894  13.461   5.540   6.868  0.1828  0.2419  0.5392
   72MOL0     H 9895  13.779   5.722   6.847 -0.4620  0.5502  1.1785
   72MOL0     H 9896  13.599   5.721   6.811 -0.6480 -0.3736  0.3497
   72MOL0     H 9897  13.707   5.637   6.705 -1.4121  2.4152 -1.3751
   72MOL0     H 9898  14.157   5.653   7.093  2.5549  0.5482 -3.1208
   72MOL0     H 9899  14.401   5.665   7.122  2.7093 -0.7643 -2.1637
   72MOL0     H 9900  14.739   5.544   7.145  0.7231  2.4813  1.1329
   72MOL0     H 9901  14.606   5.645   7.090 -1.7121  0.8850  1.7641
   72MOL0     H 9902  14.687   5.661   7.332  0.4736 -0.7389 -1.2723
   72MOL0     H 9903  14.515   5.635   7.332 -1.6218 -3.6753  1.5652
   72MOL0     H 9904  14.697   5.400   7.349 -2.1127 -1.3067 -2.8230
   72MOL0     H 9905  14.520   5.402   7.389 -1.1569  1.3638 -0.2251
   72MOL0     H 9906  14.531   5.550   7.572  1.7264  2.3117  1.0240
   72MOL0     H 9907  14.705   5.559   7.548 -0.1088  0.5541 -2.6311
   72MOL0     H 9908  14.525   5.339   7.629 -0.4655  2.1751 -1.2971
   72MOL0     H 9909  14.700   5.298   7.611  1.0069  1.3953 -1.5981
   72MOL0     H 9910  14.552   5.449   7.828  1.6213  2.2101  0.4046
   72MOL0     H 9911  14.724   5.477   7.785  1.3120 -1.2406  1.8003
   72MOL0     H 9912  14.727   5.202   7.820 -1.9344 -0.9966 -0.7733
   72MOL0     H 9913  14.556   5.228   7.869  0.5186  0.2975  0.8142
   72MOL0     H 9914  14.696   5.215   8.073  5.3586 -0.6401  0.8654
   72MOL0     H 9915  14.637   5.388   8.053 -0.3681  0.3452 -0.6677
   72MOL0     H 9916  14.403   5.234   7.074 -0.9714 -0.0201 -0.8254
   72MOL0     H 9917  14.170   5.229   7.016 -2.1417  0.2301  0.7727
   72MOL0     H 9918  13.826   5.294   7.079  0.2157  1.6301 -0.6179
   72MOL0     H 9919  13.597   5.210   7.105  0.7419  0.3363  0.7870
   72MOL0     H 9920  11.816   4.821   7.174 -1.2229  0.4851  0.4432
   72MOL0     H 9921  11.575   4.827   7.195 -0.8682 -0.9840 -0.3234
   72MOL0     H 9922  11.340   4.489   7.447  0.9478  1.9532  3.0895
   72MOL0     H 9923  11.190   4.435   7.613  0.8130  1.9128  3.4152
   72MOL0     H 9924  11.103   4.502   7.772  0.0836 -1.6476 -1.2336
   72MOL0     H 9925  10.944   4.505   7.855 -2.2386 -2.7305  0.0808
   72MOL0     H 9926  11.037   4.287   7.827  0.3518  1.8143  1.1927
   72MOL0     H 9927  11.029   4.305   7.649  1.8339  1.7636 -0.1317
   72MOL0     H 9928  10.766   4.356   7.698  1.2595  1.1189 -2.2357
   72MOL0     H 9929  10.833   4.191   7.714  0.5214  0.2477  1.1340
   72MOL0     H 9930  10.758   4.390   7.945  1.1591  0.4372 -0.7376
   72MOL0     H 9931  10.863   4.246   7.961  2.1054  1.2352 -0.1564
   72MOL0     H 9932  10.459   4.091   7.913 -0.6977  1.2831 -4.5753
   72MOL0     H 9933  10.925   4.738   7.487 -0.1124 -3.7066  3.8638
   72MOL0     H 9934  10.978   4.882   7.322 -2.6236 -4.1498  1.1792
   72MOL0     H 9935  11.136   4.884   7.234 -1.8327  1.1395 -0.9605
   72MOL0     H 9936  11.017   4.781   7.181 -1.2565 -0.6285  1.1562
   73MOL0     O 9937  10.196   6.304   0.004 -0.3579  0.0338  0.2890
   73MOL0     C 9938  10.168   6.360   0.107 -0.0833 -0.2580  0.2301
   73MOL0     O 9939  10.248   6.433   0.175  0.2564 -0.1831  0.1140
   73MOL0     C 9940  10.384   6.440   0.135  0.0235 -1.4960 -0.0695
   73MOL0     C 9941  10.475   6.345   0.178  0.3920  0.8206 -0.3888
   73MOL0     C 9942  10.612   6.347   0.143  0.4252 -0.9034 -0.7886
   73MOL0     C 9943  10.641   6.441   0.046  0.5347  0.6206  0.2335
   73MOL0     O 9944  10.763   6.436  -0.017 -0.7195 -0.5557 -0.0451
   73MOL0     C 9945  10.829   6.310  -0.038 -0.9039  0.1406 -0.0786
   73MOL0     C 9946  10.979   6.350  -0.033 -0.3032  0.7197  0.0125
   73MOL0     C 9947  11.029   6.400   0.105  0.3547  1.5899 -0.3080
   73MOL0     C 9948  11.069   6.290   0.205  0.7682 -0.0354  0.8917
   73MOL0     C 9949  11.140   6.343   0.320 -0.4296 -0.2820 -0.4893
   73MOL0     C 9950  11.155   6.244   0.430  0.7476 -0.0810  1.0772
   73MOL0     C 9951  11.272   6.298   0.520  0.9912  0.5794  0.9987
   73MOL0     C 9952  11.313   6.186   0.616  0.3194  0.7627  0.5147
   73MOL0     N 9953  11.225   6.183   0.740 -0.2035 -0.2403  0.5278
   73MOL0     C 9954  11.256   6.243   0.862  0.0402  0.5130  0.1738
   73MOL0     C 9955  11.153   6.222   0.939  0.6797 -0.1029 -0.3900
   73MOL0     C 9956  11.105   6.290   1.067 -0.4337 -0.1343  0.2093
   73MOL0     C 9957  11.069   6.445   1.050 -0.3536 -0.1345  1.2942
   73MOL0     C 9958  11.194   6.524   1.087  0.0442  0.4004  0.1447
   73MOL0     C 9959  11.191   6.572   1.227  0.2225  0.3685 -0.0204
   73MOL0     O 9960  11.162   6.463   1.315 -0.6745  0.6221 -0.2371
   73MOL0     C 9961  11.141   6.504   1.448 -0.0583 -0.6159  0.0529
   73MOL0     C 9962  11.069   6.412   1.523 -0.3710  0.2585 -1.2290
   73MOL0     C 9963  11.031   6.438   1.657  0.2621  0.4107  0.1498
   73MOL0     C 9964  10.941   6.337   1.721  0.2314 -0.3855  0.2459
   73MOL0     C 9965  11.082   6.554   1.719 -0.9568  0.0776 -0.2774
   73MOL0     C 9966  11.053   6.591   1.859  0.5482  0.5729  0.4401
   73MOL0     O 9967  11.038   6.497   1.954  0.5151 -0.1252 -0.2062
   73MOL0     C 9968  11.047   6.540   2.085  0.0758  0.8070  0.9208
   73MOL0     C 9969  10.927   6.550   2.164 -0.3659  0.0834  0.2802
   73MOL0     C 9970  10.941   6.572   2.299  0.7256  0.2173  0.0943
   73MOL0     C 9971  11.062   6.593   2.361  0.2132  0.3892  1.2897
   73MOL0     O 9972  11.054   6.621   2.501 -0.1240  0.2396  0.3181
   73MOL0     C 9973  11.029   6.500   2.568 -0.4747  0.2015 -0.2226
   73MOL0     C 9974  10.996   6.514   2.715 -0.2134 -0.3272 -0.6281
   73MOL0     C 9975  11.004   6.385   2.789 -0.8720  1.2115 -0.1553
   73MOL0     C 9976  10.942   6.375   2.921  0.3992  0.6278 -0.5638
   73MOL0     C 9977  10.951   6.233   2.987 -0.0073 -0.9755 -0.2655
   73MOL0     C 9978  11.091   6.190   3.033 -0.0677 -0.0616  0.1104
   73MOL0     C 9979  11.095   6.053   3.096 -0.2276 -0.0031 -0.2035
   73MOL0     C 9980  11.158   6.057   3.231 -0.3982 -0.4435  1.2031
   73MOL0    Cl 9981  11.067   6.155   3.348 -0.0335  0.2605  0.1765
   73MOL0     C 9982  11.179   6.601   2.281  0.1846  0.3335 -0.6422
   73MOL0     C 9983  11.170   6.562   2.151 -0.1895  0.0742  0.0828
   73MOL0     O 9984  11.054   6.708   1.888 -0.1909 -0.1721  0.4938
   73MOL0     C 9985  11.176   6.636   1.647 -0.5573  0.4659  0.5194
   73MOL0     C 9986  11.199   6.618   1.516  0.1159  0.5033  0.3108
   73MOL0     N 9987  11.069   6.127   0.874 -0.2518  0.2382 -0.1776
   73MOL0     N 9988  11.127   6.101   0.757  0.3874 -0.0479 -0.2697
   73MOL0     C 9989  10.561   6.541   0.008  0.8686 -0.5623  0.4952
   73MOL0     C 9990  10.429   6.546   0.057 -0.2590 -0.7302  0.0477
   73MOL0     C 9991  10.026   6.352   0.137 -0.5445 -0.2399  0.3205
   73MOL0     C 9992   9.961   6.244   0.078  0.1958 -0.1715 -0.5024
   73MOL0     C 9993   9.823   6.229   0.091  0.3430  0.8147  0.3917
   73MOL0     C 9994   9.745   6.311   0.165 -1.1251 -0.2293 -0.7669
   73MOL0     O 9995   9.617   6.267   0.180 -0.2070 -0.1922  0.5377
   73MOL0     C 9996   9.527   6.362   0.219 -0.4799 -0.8876  0.1306
   73MOL0     C 9997   9.508   6.396   0.363  0.4018  0.1870 -0.3744
   73MOL0     C 9998   9.475   6.273   0.441  0.6006 -0.1443  0.4409
   73MOL0     C 9999   9.594   6.203   0.506  0.2144  0.3600 -0.4487
   73MOL0     C10000   9.688   6.297   0.576  0.0807  0.1780 -0.1154
   73MOL0     C10001   9.736   6.390   0.637 -0.0861  0.2415 -0.2849
   73MOL0     C10002   9.808   6.429   0.219 -0.0243  0.3885 -0.7913
   73MOL0     C10003   9.946   6.448   0.207 -0.4463  0.2761 -0.9242
   73MOL0     C10004   9.993   6.581   0.271 -0.0740  0.6969 -0.2143
   73MOL0     H10005  10.449   6.254   0.231 -0.7348 -0.0718 -2.3794
   73MOL0     H10006  10.684   6.276   0.184 -0.3952 -0.7408  1.0303
   73MOL0     H10007  10.797   6.252  -0.125  0.0468 -0.0058 -0.3373
   73MOL0     H10008  10.809   6.240   0.044 -2.4516 -1.5750 -1.8091
   73MOL0     H10009  11.032   6.257  -0.057  1.4312  2.0445 -1.6469
   73MOL0     H10010  11.002   6.432  -0.101 -1.6787  1.4337  0.3689
   73MOL0     H10011  11.124   6.452   0.089  1.0733  0.3290 -0.3233
   73MOL0     H10012  10.963   6.475   0.149  1.2159  3.0363 -1.3696
   73MOL0     H10013  10.978   6.245   0.245  1.1279 -2.5415 -0.8981
   73MOL0     H10014  11.128   6.212   0.156 -0.3527  0.5688 -1.5623
   73MOL0     H10015  11.086   6.432   0.352  2.5009  1.3003  0.3579
   73MOL0     H10016  11.234   6.382   0.280  0.5669 -0.8085  1.2074
   73MOL0     H10017  11.063   6.246   0.489  0.0107 -1.1021  0.0093
   73MOL0     H10018  11.182   6.144   0.396 -0.2526 -1.8388  4.8706
   73MOL0     H10019  11.236   6.386   0.573 -1.2237  0.4809 -0.2122
   73MOL0     H10020  11.351   6.327   0.450 -0.5362  0.4620 -0.8508
   73MOL0     H10021  11.314   6.085   0.573 -1.0625  0.6784  0.6366
   73MOL0     H10022  11.420   6.200   0.636  0.2533  0.6494  0.9499
   73MOL0     H10023  11.346   6.303   0.879 -0.9448  1.9919  0.3330
   73MOL0     H10024  11.185   6.268   1.138 -0.3640 -3.1478 -0.6520
   73MOL0     H10025  11.017   6.235   1.102  0.0003 -0.6652  0.5005
   73MOL0     H10026  11.039   6.455   0.945 -1.0802 -2.2460  1.2396
   73MOL0     H10027  10.981   6.470   1.109 -4.2651 -3.1167 -2.5334
   73MOL0     H10028  11.282   6.463   1.062 -0.9714 -0.7908 -0.6514
   73MOL0     H10029  11.204   6.611   1.022 -0.9150 -0.3798 -1.0925
   73MOL0     H10030  11.284   6.618   1.263  0.1387  0.0135  0.6610
   73MOL0     H10031  11.104   6.638   1.217  0.8941  1.1010 -1.3200
   73MOL0     H10032  11.027   6.334   1.461  1.7705 -0.7476 -1.5107
   73MOL0     H10033  10.848   6.383   1.754 -1.2484 -2.6196 -0.5923
   73MOL0     H10034  11.010   6.287   1.790  4.5832  1.9495 -1.9535
   73MOL0     H10035  10.904   6.260   1.653  2.0705 -1.2059  0.0927
   73MOL0     H10036  10.828   6.539   2.121 -0.4627  0.2345  0.4604
   73MOL0     H10037  10.853   6.593   2.359  1.3013  1.7915  0.4395
   73MOL0     H10038  10.945   6.454   2.514  0.7705  1.8231 -3.8865
   73MOL0     H10039  11.114   6.432   2.555  0.2513  1.0411 -0.0041
   73MOL0     H10040  11.065   6.589   2.753 -2.3641  1.4396 -0.0021
   73MOL0     H10041  10.901   6.565   2.730  0.9769  1.9618 -0.4499
   73MOL0     H10042  11.111   6.369   2.807 -1.0954 -0.7780 -0.4285
   73MOL0     H10043  10.960   6.298   2.741  0.0066  0.3105  0.6131
   73MOL0     H10044  10.834   6.390   2.910  0.8696  3.8411 -2.0756
   73MOL0     H10045  10.968   6.463   2.981 -2.3209  0.3685  1.1775
   73MOL0     H10046  10.891   6.244   3.078  0.6614  3.0883 -0.1117
   73MOL0     H10047  10.909   6.157   2.921 -0.5729 -1.1947  0.3390
   73MOL0     H10048  11.117   6.262   3.111  0.8804 -0.7050  0.4017
   73MOL0     H10049  11.154   6.205   2.946 -1.8508  2.6666 -0.8510
   73MOL0     H10050  11.144   5.978   3.033  4.4453  0.5980  2.3035
   73MOL0     H10051  10.988   6.032   3.113  0.3725 -3.3035  0.2027
   73MOL0     H10052  11.261   6.095   3.228 -0.8672  0.8277  0.2769
   73MOL0     H10053  11.163   5.949   3.251 -1.6027 -0.8674 -0.5407
   73MOL0     H10054  11.276   6.628   2.321  0.7912  0.0910 -1.8875
   73MOL0     H10055  11.259   6.553   2.088  1.6260 -0.5535  2.5946
   73MOL0     H10056  11.233   6.713   1.698  2.5304 -0.9621 -0.5543
   73MOL0     H10057  11.281   6.673   1.470  1.6092 -0.4348  1.7396
   73MOL0     H10058  10.592   6.620  -0.059 -0.5870 -1.2850 -1.1036
   73MOL0     H10059  10.358   6.627   0.041  0.7968  0.3091  0.4361
   73MOL0     H10060  10.010   6.166   0.019 -2.0619  0.7708 -3.9244
   73MOL0     H10061   9.780   6.134   0.062 -1.8525  1.5517  1.0165
   73MOL0     H10062   9.546   6.455   0.163 -0.1538 -0.9650  0.1137
   73MOL0     H10063   9.430   6.337   0.176 -1.9343  2.1118  1.3269
   73MOL0     H10064   9.423   6.462   0.382  0.3519  0.8058 -2.5202
   73MOL0     H10065   9.584   6.455   0.414  0.0377 -0.2294  0.6880
   73MOL0     H10066   9.403   6.290   0.522  1.5255 -0.2430  1.3096
   73MOL0     H10067   9.410   6.214   0.376  0.9797  1.9825 -2.0011
   73MOL0     H10068   9.663   6.155   0.436 -1.3292 -2.0335 -0.4446
   73MOL0     H10069   9.563   6.127   0.578  1.2511 -1.6371 -2.0116
   73MOL0     H10070   9.751   6.478   0.697 -3.2201  1.5553 -1.2044
   73MOL0     H10071   9.747   6.497   0.277 -1.8131 -0.7073 -1.3097
   73MOL0     H10072  10.082   6.555   0.330  0.3111 -1.5325 -1.6553
   73MOL0     H10073  10.016   6.660   0.199  0.2668  3.2603  2.5122
   73MOL0     H10074   9.906   6.619   0.326 -1.7472  1.6274 -3.3083
   74MOL0     O10075   4.481   3.108   6.145 -0.1411  0.4057  0.2401
   74MOL0     C10076   4.400   3.164   6.218  0.0440 -0.0922  1.1524
   74MOL0     O10077   4.434   3.206   6.347  0.2321  0.4070  0.3699
   74MOL0     C10078   4.560   3.183   6.408  0.4911 -0.8122  0.0312
   74MOL0     C10079   4.545   3.163   6.550  0.9532  1.2157 -0.3927
   74MOL0     C10080   4.658   3.137   6.620 -0.5518 -0.2880 -0.1038
   74MOL0     C10081   4.787   3.157   6.561  1.4431  0.1923 -0.8125
   74MOL0     O10082   4.897   3.129   6.639 -0.3450 -0.0631 -0.3956
   74MOL0     C10083   5.009   3.211   6.633 -0.5935 -0.0598 -0.9321
   74MOL0     C10084   5.085   3.203   6.768  0.8806  0.0284 -0.1285
   74MOL0     C10085   5.130   3.057   6.795 -0.4071  0.1845 -0.0343
   74MOL0     C10086   5.213   2.990   6.674 -0.0207  0.1671 -0.1428
   74MOL0     C10087   5.289   2.861   6.719  0.5359 -0.2503  0.0723
   74MOL0     C10088   5.399   2.876   6.828  0.5018 -0.5472 -0.8194
   74MOL0     C10089   5.464   2.742   6.829  0.1028  0.5291  0.1109
   74MOL0     C10090   5.559   2.723   6.938  0.2237  0.3727  0.4205
   74MOL0     N10091   5.650   2.601   6.924 -1.1728 -0.4933 -0.5277
   74MOL0     C10092   5.788   2.616   6.918  0.0460 -0.4858 -0.9288
   74MOL0     C10093   5.838   2.501   6.951  0.2714  0.2749 -0.1186
   74MOL0     C10094   5.985   2.462   6.955  0.0241 -0.4964  0.1092
   74MOL0     C10095   6.045   2.509   7.080 -0.2252  0.9210  0.8310
   74MOL0     C10096   6.172   2.440   7.122 -0.5587  0.5052 -0.2680
   74MOL0     C10097   6.282   2.410   7.020 -0.3619 -0.4746 -0.9646
   74MOL0     O10098   6.257   2.294   6.942 -0.3209  0.1371 -0.2402
   74MOL0     C10099   6.366   2.268   6.863 -0.0693  0.2521  0.7599
   74MOL0     C10100   6.366   2.135   6.817 -0.3940 -1.0895 -0.5522
   74MOL0     C10101   6.460   2.089   6.725 -0.2614 -0.3731  0.8559
   74MOL0     C10102   6.438   1.960   6.655 -0.2608  0.0762 -0.8722
   74MOL0     C10103   6.575   2.166   6.697  0.5565 -0.2627 -0.0304
   74MOL0     C10104   6.699   2.125   6.619  0.4054 -1.3083  1.0973
   74MOL0     O10105   6.775   2.217   6.558  0.6138  0.1477 -0.2122
   74MOL0     C10106   6.912   2.206   6.545  0.6578  0.8932  0.6904
   74MOL0     C10107   6.975   2.251   6.426  0.4250 -0.1155 -1.1692
   74MOL0     C10108   7.109   2.230   6.400  0.6422  0.2378 -0.4698
   74MOL0     C10109   7.186   2.160   6.490 -0.9638 -0.2282 -0.1854
   74MOL0     O10110   7.312   2.136   6.447  0.2406 -0.5129  0.8020
   74MOL0     C10111   7.378   2.021   6.491  0.3849  0.0195  0.0798
   74MOL0     C10112   7.524   2.018   6.445 -0.3355 -0.3782 -0.9652
   74MOL0     C10113   7.605   1.896   6.488 -0.9150  0.0700 -0.5825
   74MOL0     C10114   7.736   1.902   6.416 -1.1488  0.1685 -0.1646
   74MOL0     C10115   7.817   1.782   6.452  0.8173 -0.2203 -0.5603
   74MOL0     C10116   7.957   1.784   6.391 -0.8946  1.1534 -0.4593
   74MOL0     C10117   8.011   1.641   6.359  0.1918 -0.2687  0.3783
   74MOL0     C10118   7.930   1.572   6.248 -0.7254 -0.7726  0.4325
   74MOL0    Cl10119   7.985   1.650   6.095  0.0382  0.3975  0.4349
   74MOL0     C10120   7.129   2.118   6.612 -0.4499  0.0658 -0.3845
   74MOL0     C10121   6.995   2.145   6.643  0.0479  0.3647  0.3145
   74MOL0     O10122   6.724   2.010   6.615  0.2432  0.4043  0.2387
   74MOL0     C10123   6.570   2.304   6.741 -0.2392 -0.7591 -0.5500
   74MOL0     C10124   6.464   2.354   6.815  0.2961 -0.3954  0.1266
   74MOL0     N10125   5.730   2.418   6.975 -0.3285  0.3312  0.5626
   74MOL0     N10126   5.620   2.476   6.963 -0.2364 -1.1189  0.3368
   74MOL0     C10127   4.794   3.204   6.430 -0.0910  0.6617 -0.0296
   74MOL0     C10128   4.683   3.213   6.351  0.7191 -0.1664 -0.0148
   74MOL0     C10129   4.261   3.181   6.164 -0.2113 -0.0816  0.1516
   74MOL0     C10130   4.159   3.246   6.235 -0.8762 -0.4138  0.4366
   74MOL0     C10131   4.029   3.248   6.187  0.9777 -0.1469  0.0795
   74MOL0     C10132   3.987   3.185   6.067  0.1712 -0.8355 -0.5761
   74MOL0     O10133   3.854   3.177   6.037 -0.4077  0.1077  0.7673
   74MOL0     C10134   3.816   3.140   5.908 -0.1586 -0.4082  0.2699
   74MOL0     C10135   3.830   2.985   5.876 -0.4912  0.0955  0.4987
   74MOL0     C10136   3.738   2.904   5.970  0.0828  0.7961  0.0391
   74MOL0     C10137   3.598   2.956   5.983 -0.8572 -0.3091 -0.0119
   74MOL0     C10138   3.521   2.976   5.866  0.4113 -1.0260  0.2951
   74MOL0     C10139   3.445   2.995   5.776 -0.8316 -0.6365  0.4035
   74MOL0     C10140   4.095   3.134   5.998  1.1616  0.3943  0.7247
   74MOL0     C10141   4.227   3.126   6.036  1.0610  0.2700 -0.0869
   74MOL0     C10142   4.317   3.074   5.921 -0.5382 -0.6409 -0.5181
   74MOL0     H10143   4.445   3.153   6.592  0.2141  1.2115 -2.0635
   74MOL0     H10144   4.669   3.095   6.719  0.4253  0.6786  0.2070
   74MOL0     H10145   4.967   3.312   6.623 -1.0145 -0.2607 -1.1897
   74MOL0     H10146   5.074   3.188   6.548  1.0411  3.7039 -0.9043
   74MOL0     H10147   5.170   3.271   6.777  1.9835 -1.4738  1.2724
   74MOL0     H10148   5.026   3.247   6.849  1.7448 -0.0085  0.5311
   74MOL0     H10149   5.200   3.056   6.878  0.5121  1.0842 -0.7678
   74MOL0     H10150   5.045   2.994   6.823  1.2334 -1.1606  2.2313
   74MOL0     H10151   5.139   2.955   6.602 -1.5500 -0.2356  1.5234
   74MOL0     H10152   5.276   3.053   6.610 -1.6080 -0.4620 -2.4498
   74MOL0     H10153   5.336   2.816   6.631  0.4659 -0.6634  0.2444
   74MOL0     H10154   5.218   2.788   6.759  3.6049 -2.2536  2.3138
   74MOL0     H10155   5.467   2.955   6.796  2.3438 -2.6034 -2.2919
   74MOL0     H10156   5.346   2.898   6.922 -0.3963 -1.7209 -1.0240
   74MOL0     H10157   5.516   2.734   6.733 -1.0856 -1.6858 -0.4260
   74MOL0     H10158   5.385   2.667   6.825  0.0712  0.5463  0.4164
   74MOL0     H10159   5.623   2.811   6.947  1.3361 -0.0616 -2.3868
   74MOL0     H10160   5.502   2.711   7.031  0.2669  1.8423  0.6615
   74MOL0     H10161   5.829   2.712   6.889 -0.7052 -0.3203 -1.4555
   74MOL0     H10162   6.040   2.499   6.868 -1.0224  1.9991  0.4175
   74MOL0     H10163   5.978   2.353   6.951  0.5881 -0.5631  0.6408
   74MOL0     H10164   6.070   2.614   7.061  0.5033  0.3845 -1.4947
   74MOL0     H10165   5.966   2.498   7.155 -1.5871  0.1130 -0.6369
   74MOL0     H10166   6.219   2.508   7.194 -3.8533  1.0802  1.5039
   74MOL0     H10167   6.158   2.340   7.165  2.0997  0.5939  0.9968
   74MOL0     H10168   6.286   2.495   6.951 -2.1004  0.5362  0.0903
   74MOL0     H10169   6.372   2.396   7.080 -0.6845  0.7718 -0.1445
   74MOL0     H10170   6.291   2.062   6.849 -3.7448  2.8229  1.5909
   74MOL0     H10171   6.338   1.920   6.676  0.2255 -1.1069 -0.7117
   74MOL0     H10172   6.505   1.882   6.693 -2.4368 -2.1508 -1.2953
   74MOL0     H10173   6.445   1.957   6.546 -0.9842 -0.0340 -0.9239
   74MOL0     H10174   6.916   2.295   6.346 -1.8471 -1.8801 -0.5678
   74MOL0     H10175   7.162   2.273   6.316 -0.4762  2.5565 -0.0648
   74MOL0     H10176   7.371   2.017   6.600  0.6690 -0.7037  0.0804
   74MOL0     H10177   7.328   1.928   6.465  1.3226 -0.7428  0.9405
   74MOL0     H10178   7.527   2.027   6.336  4.5851 -0.1743 -1.0561
   74MOL0     H10179   7.571   2.103   6.495  0.7631 -1.6811  0.3136
   74MOL0     H10180   7.556   1.807   6.450  0.4787 -1.3971  0.8749
   74MOL0     H10181   7.620   1.876   6.595  0.8652 -0.4425 -0.8836
   74MOL0     H10182   7.789   1.997   6.432  0.8553 -1.1648  1.7398
   74MOL0     H10183   7.706   1.894   6.311  2.5913  0.7389 -1.4350
   74MOL0     H10184   7.826   1.793   6.561 -0.9390  2.7281 -0.6297
   74MOL0     H10185   7.770   1.689   6.418  0.4010  0.0749 -0.7931
   74MOL0     H10186   8.023   1.825   6.467  0.4992  0.6776 -1.3755
   74MOL0     H10187   7.958   1.853   6.306 -4.0897  1.3595 -0.4814
   74MOL0     H10188   8.022   1.580   6.449  2.4842 -0.0983  0.2722
   74MOL0     H10189   8.115   1.661   6.330  1.0400 -4.7312 -0.4834
   74MOL0     H10190   7.823   1.576   6.267 -0.6223  2.9664  1.0652
   74MOL0     H10191   7.974   1.472   6.243  1.0516 -0.0412  0.3211
   74MOL0     H10192   7.193   2.068   6.684 -1.5229 -1.6253 -0.5523
   74MOL0     H10193   6.945   2.115   6.734 -1.6719  0.3695 -0.5757
   74MOL0     H10194   6.644   2.374   6.706 -0.8847  1.0628  1.5208
   74MOL0     H10195   6.459   2.460   6.835  1.4499 -0.4332  0.6955
   74MOL0     H10196   4.895   3.225   6.394 -1.3337  3.3942 -2.3612
   74MOL0     H10197   4.694   3.244   6.248  1.3237  2.5341  0.8006
   74MOL0     H10198   4.183   3.306   6.321  2.9519 -0.5721 -0.3508
   74MOL0     H10199   3.951   3.303   6.239 -2.8707 -3.8761 -1.1979
   74MOL0     H10200   3.715   3.183   5.897 -0.5033 -1.2181  0.1986
   74MOL0     H10201   3.875   3.200   5.837  0.9214  0.2878  1.7156
   74MOL0     H10202   3.933   2.955   5.901  0.0970  1.2651 -0.3979
   74MOL0     H10203   3.805   2.965   5.772 -0.7479 -2.6143  0.9906
   74MOL0     H10204   3.725   2.799   5.943  1.6758  0.7200 -0.5576
   74MOL0     H10205   3.790   2.895   6.066 -1.3319 -1.1230  0.6752
   74MOL0     H10206   3.600   3.049   6.040  2.2799 -1.3416  1.7849
   74MOL0     H10207   3.542   2.884   6.043  0.2108 -1.7287 -0.6678
   74MOL0     H10208   3.372   3.028   5.705 -0.7913  1.0759  1.1227
   74MOL0     H10209   4.075   3.095   5.898  1.5426  0.2782  0.6903
   74MOL0     H10210   4.371   2.985   5.955 -0.4302 -0.5666 -0.4961
   74MOL0     H10211   4.260   3.037   5.836  0.9768 -0.1754 -1.7800
   74MOL0     H10212   4.379   3.161   5.900  1.0286 -2.1591 -2.6164
   75MOL0     O10213   6.678   0.264   5.093  0.3109 -0.6244 -0.1664
   75MOL0     C10214   6.739   0.295   4.989  0.5695  0.2073 -0.1712
   75MOL0     O10215   6.845   0.226   4.939 -0.8843  0.7754 -0.1139
   75MOL0     C10216   6.908   0.136   5.025 -0.1128 -0.9996 -0.6346
   75MOL0     C10217   6.947   0.005   4.989 -1.0598  0.6871  0.9409
   75MOL0     C10218   7.016  -0.085   5.077 -0.7872  1.2277 -0.6681
   75MOL0     C10219   7.031  -0.056   5.211 -0.0826  0.1646  0.0253
   75MOL0     O10220   7.095  -0.151   5.281 -0.0176 -0.3947  0.0603
   75MOL0     C10221   7.193  -0.108   5.377  0.7958  0.2897 -0.6965
   75MOL0     C10222   7.158  -0.173   5.515 -0.4754  0.4177  0.2969
   75MOL0     C10223   7.269  -0.179   5.624  0.4601 -0.6197  0.5586
   75MOL0     C10224   7.284  -0.038   5.690  0.2688 -0.7366  0.6525
   75MOL0     C10225   7.424  -0.023   5.760  0.5315 -0.9926 -0.3415
   75MOL0     C10226   7.500   0.097   5.705  0.3135  0.7812  0.0914
   75MOL0     C10227   7.433   0.224   5.740  0.5119  0.2931 -0.3063
   75MOL0     C10228   7.459   0.332   5.630  0.5119 -0.0938 -0.4594
   75MOL0     N10229   7.383   0.308   5.512 -0.2007 -0.5683  0.5212
   75MOL0     C10230   7.430   0.238   5.397 -0.1226 -0.9227  0.4516
   75MOL0     C10231   7.332   0.248   5.304  0.3527 -0.2854 -1.1042
   75MOL0     C10232   7.348   0.190   5.162 -0.2752 -0.7922  0.1506
   75MOL0     C10233   7.450   0.272   5.090  0.1849 -0.4470  0.3681
   75MOL0     C10234   7.447   0.247   4.936 -0.2598 -0.4213  0.8828
   75MOL0     C10235   7.520   0.111   4.914  0.3103 -0.8755  0.0903
   75MOL0     O10236   7.657   0.129   4.963 -0.4406 -0.1698 -0.2490
   75MOL0     C10237   7.742   0.026   4.976  0.1180  1.1268 -0.0142
   75MOL0     C10238   7.707  -0.102   4.926  0.0285  0.2102 -0.3631
   75MOL0     C10239   7.794  -0.209   4.952  0.6360 -0.2621  0.0239
   75MOL0     C10240   7.743  -0.340   4.888 -0.3641 -0.3971 -0.2208
   75MOL0     C10241   7.916  -0.189   5.034  0.2837 -0.2099 -0.2594
   75MOL0     C10242   7.994  -0.307   5.078 -0.2893 -0.7913 -0.3707
   75MOL0     O10243   7.925  -0.417   5.109  0.0116 -0.6076  0.3745
   75MOL0     C10244   8.001  -0.530   5.119 -0.4471  0.0786 -0.8236
   75MOL0     C10245   8.002  -0.633   5.019  0.1713  1.1472  0.9765
   75MOL0     C10246   8.064  -0.750   5.048  0.4140 -0.1588 -1.1621
   75MOL0     C10247   8.114  -0.786   5.173  0.4041  0.3169  0.1010
   75MOL0     O10248   8.153  -0.914   5.202 -0.7614  1.0211 -0.2713
   75MOL0     C10249   8.250  -0.981   5.112  0.6521 -0.3154 -0.3108
   75MOL0     C10250   8.393  -0.921   5.141  0.3679  0.4276  0.4418
   75MOL0     C10251   8.439  -0.945   5.284  0.1613  0.0009  0.1119
   75MOL0     C10252   8.569  -0.881   5.315 -0.2449 -0.3219 -0.4803
   75MOL0     C10253   8.617  -0.932   5.447 -0.1019 -0.5913 -1.0684
   75MOL0     C10254   8.746  -0.851   5.484  0.1275 -0.6572  0.7852
   75MOL0     C10255   8.815  -0.891   5.617  0.0315  0.0081 -0.1295
   75MOL0     C10256   8.912  -0.785   5.664 -0.3847 -0.0553  0.1828
   75MOL0    Cl10257   8.840  -0.621   5.715 -0.1790 -0.1697  0.3647
   75MOL0     C10258   8.111  -0.681   5.267 -0.5815 -0.1428 -0.3199
   75MOL0     C10259   8.058  -0.553   5.245  0.8585  0.1962 -0.0582
   75MOL0     O10260   8.115  -0.299   5.068 -0.2407  0.0696 -0.2852
   75MOL0     C10261   7.950  -0.053   5.071  0.5858  0.2425 -0.7720
   75MOL0     C10262   7.867   0.052   5.038  0.2225 -0.1898  0.0330
   75MOL0     N10263   7.244   0.330   5.360 -0.2789  0.2845 -0.0244
   75MOL0     N10264   7.267   0.363   5.484  0.0329  0.7750 -0.0809
   75MOL0     C10265   6.978   0.067   5.254 -0.2815 -0.6344  0.5756
   75MOL0     C10266   6.935   0.160   5.167 -0.4205  0.6260 -0.4469
   75MOL0     C10267   6.699   0.418   4.918 -0.7148 -0.8992  0.1253
   75MOL0     C10268   6.772   0.442   4.797  0.3269  0.0764 -0.0908
   75MOL0     C10269   6.767   0.561   4.723 -0.0594 -0.2768 -0.0167
   75MOL0     C10270   6.688   0.665   4.769 -0.1079 -0.0095 -0.3703
   75MOL0     O10271   6.681   0.789   4.707 -0.4916 -0.6077 -0.1837
   75MOL0     C10272   6.786   0.824   4.624  0.3312 -0.2863 -0.5681
   75MOL0     C10273   6.760   0.962   4.547  0.7136  0.1143  0.5277
   75MOL0     C10274   6.847   0.999   4.433  0.3124  0.4538  0.1990
   75MOL0     C10275   6.975   1.066   4.499  0.6895 -1.5362 -0.2645
   75MOL0     C10276   7.089   1.035   4.412 -0.0800 -0.6135 -0.1956
   75MOL0     C10277   7.161   1.011   4.321  0.4305 -0.2856 -0.1193
   75MOL0     C10278   6.622   0.650   4.893  0.3420  0.5518  0.4703
   75MOL0     C10279   6.619   0.528   4.965  0.3973 -0.4730 -0.5588
   75MOL0     C10280   6.540   0.526   5.089  0.1928  0.2081  0.5402
   75MOL0     H10281   6.935  -0.026   4.886 -1.3856 -0.2034  1.2423
   75MOL0     H10282   7.050  -0.178   5.031  2.6655  1.3305  1.2607
   75MOL0     H10283   7.192   0.000   5.395 -2.6258  0.0799  1.3184
   75MOL0     H10284   7.294  -0.146   5.362  0.4560 -0.6738 -0.6235
   75MOL0     H10285   7.068  -0.122   5.552 -0.2365  1.5664 -0.6463
   75MOL0     H10286   7.133  -0.279   5.505 -3.0966  1.0059 -0.1025
   75MOL0     H10287   7.239  -0.256   5.696 -2.8399 -2.2019 -2.1717
   75MOL0     H10288   7.364  -0.207   5.578  0.5031  1.0488 -0.4540
   75MOL0     H10289   7.281   0.035   5.609 -2.4039 -3.1999 -1.6928
   75MOL0     H10290   7.195  -0.012   5.749 -1.4327 -1.1227 -1.6201
   75MOL0     H10291   7.493  -0.108   5.755  0.4555 -1.0042 -2.0905
   75MOL0     H10292   7.402  -0.017   5.867 -2.0099 -0.2271 -0.8249
   75MOL0     H10293   7.605   0.094   5.737  0.5682  1.7724 -0.5771
   75MOL0     H10294   7.502   0.087   5.596 -0.5282 -0.6914  0.1932
   75MOL0     H10295   7.488   0.268   5.823  2.0215 -1.5866 -0.2392
   75MOL0     H10296   7.326   0.212   5.764 -0.1072  3.6094 -0.9300
   75MOL0     H10297   7.425   0.429   5.667  3.4053  0.4915  0.9566
   75MOL0     H10298   7.565   0.347   5.609  1.1790 -1.5508  1.5479
   75MOL0     H10299   7.523   0.183   5.390  0.1333 -0.3036 -1.5471
   75MOL0     H10300   7.249   0.210   5.119 -0.4538 -1.1526  0.3908
   75MOL0     H10301   7.370   0.083   5.166 -0.3337 -0.8752 -1.2436
   75MOL0     H10302   7.422   0.376   5.104  4.3303  0.6079  2.5141
   75MOL0     H10303   7.541   0.247   5.145 -0.1484 -0.5076  0.8924
   75MOL0     H10304   7.345   0.259   4.898 -0.1367  3.9409  1.4442
   75MOL0     H10305   7.511   0.320   4.886  2.2277 -3.1529 -0.2312
   75MOL0     H10306   7.454   0.037   4.960 -1.0737 -0.3837 -1.0279
   75MOL0     H10307   7.531   0.091   4.807  1.1481 -2.5747  0.4627
   75MOL0     H10308   7.619  -0.121   4.866 -0.4600 -2.8597  1.1396
   75MOL0     H10309   7.681  -0.307   4.804  0.5596  0.3516 -0.6283
   75MOL0     H10310   7.694  -0.401   4.964  0.2546 -2.0379 -1.0838
   75MOL0     H10311   7.826  -0.402   4.851  0.6687 -0.6367  2.3052
   75MOL0     H10312   7.954  -0.609   4.925  1.2470 -1.7381 -0.4292
   75MOL0     H10313   8.073  -0.828   4.973  1.0957 -2.7036  1.3930
   75MOL0     H10314   8.244  -1.089   5.122  0.3752 -0.1503  1.7213
   75MOL0     H10315   8.224  -0.951   5.010 -0.3431  0.7496  0.2397
   75MOL0     H10316   8.448  -0.975   5.064 -0.3334 -1.2473  1.0661
   75MOL0     H10317   8.402  -0.816   5.111 -2.0242  2.2865  5.1861
   75MOL0     H10318   8.457  -1.051   5.301 -0.6101  0.1338  2.0054
   75MOL0     H10319   8.355  -0.911   5.346 -0.4877 -0.3532 -0.5463
   75MOL0     H10320   8.555  -0.772   5.325  1.8648 -0.1021  0.5996
   75MOL0     H10321   8.642  -0.905   5.238  0.6324 -0.5272  0.3953
   75MOL0     H10322   8.542  -0.910   5.524 -0.3909 -1.0665 -1.2150
   75MOL0     H10323   8.638  -1.039   5.454 -0.7030 -0.6158  1.6294
   75MOL0     H10324   8.713  -0.746   5.481  0.1560 -0.6561  0.4654
   75MOL0     H10325   8.827  -0.870   5.413 -0.6375 -1.6203  0.1542
   75MOL0     H10326   8.880  -0.977   5.597 -2.0001 -1.8011  0.6786
   75MOL0     H10327   8.742  -0.920   5.693 -1.6214 -0.6648 -1.8978
   75MOL0     H10328   8.971  -0.773   5.572 -1.9979 -0.5903 -0.9588
   75MOL0     H10329   8.970  -0.819   5.750 -4.0018  0.8043  3.2224
   75MOL0     H10330   8.149  -0.701   5.367 -1.3719 -1.4049 -0.2450
   75MOL0     H10331   8.057  -0.467   5.312 -0.1620  1.3948 -1.5457
   75MOL0     H10332   8.043  -0.032   5.124  1.3886  0.6977 -2.2758
   75MOL0     H10333   7.891   0.155   5.063  0.4604 -0.6440  1.7551
   75MOL0     H10334   6.976   0.083   5.362 -1.9006 -3.0725  0.9889
   75MOL0     H10335   6.899   0.254   5.206 -1.2883  0.4844 -0.8836
   75MOL0     H10336   6.832   0.371   4.741  0.0571  0.8763 -1.4486
   75MOL0     H10337   6.840   0.569   4.644 -0.2228 -0.6793 -0.2083
   75MOL0     H10338   6.875   0.827   4.687  0.3367  0.7980 -0.6051
   75MOL0     H10339   6.790   0.741   4.553 -3.7955 -1.7715  0.6383
   75MOL0     H10340   6.757   1.046   4.616 -2.1337  2.3953 -2.1029
   75MOL0     H10341   6.661   0.943   4.504  1.7559  0.3839 -2.2067
   75MOL0     H10342   6.865   0.914   4.366  3.6301  2.0327 -1.1212
   75MOL0     H10343   6.798   1.069   4.366  0.0122 -1.6166 -1.8846
   75MOL0     H10344   7.003   1.020   4.594  2.5691 -0.1896 -0.1274
   75MOL0     H10345   6.954   1.171   4.520  4.2932 -0.5208 -1.1475
   75MOL0     H10346   7.229   0.978   4.246  1.9072  3.3638 -0.5793
   75MOL0     H10347   6.573   0.740   4.929 -1.3893  0.0627 -0.5678
   75MOL0     H10348   6.595   0.489   5.176  0.3492  0.2632  0.4655
   75MOL0     H10349   6.519   0.630   5.116 -0.8800  0.4015 -0.9507
   75MOL0     H10350   6.449   0.466   5.083 -1.3149  2.3048  1.4430
   76MOL0     O10351   2.880   5.748   4.959 -0.1775 -0.2421  0.1170
   76MOL0     C10352   2.967   5.785   4.885  0.2119 -0.8991 -0.4628
   76MOL0     O10353   2.976   5.760   4.753 -0.1691  0.2712 -0.9391
   76MOL0     C10354   2.892   5.675   4.695  0.0591 -0.3120  0.6120
   76MOL0     C10355   2.796   5.727   4.610  0.3597 -0.1894  0.5171
   76MOL0     C10356   2.706   5.638   4.562 -0.1069  0.9538  0.0365
   76MOL0     C10357   2.718   5.496   4.583 -0.0613 -0.0325  0.4115
   76MOL0     O10358   2.634   5.405   4.522  0.6322  0.3949 -0.1762
   76MOL0     C10359   2.537   5.443   4.429 -0.5065  0.1242 -0.2029
   76MOL0     C10360   2.479   5.337   4.352 -0.1200  0.6430 -0.2057
   76MOL0     C10361   2.364   5.265   4.426  0.4884  0.0160  0.2798
   76MOL0     C10362   2.303   5.166   4.323 -0.2673 -0.2359 -0.8659
   76MOL0     C10363   2.184   5.109   4.395 -0.7439  0.2635  0.9939
   76MOL0     C10364   2.119   5.005   4.297  0.2205  0.1087  0.3582
   76MOL0     C10365   2.026   4.906   4.373 -0.4105 -0.6326 -0.4690
   76MOL0     C10366   1.983   4.779   4.304 -0.3860  0.7384  0.3080
   76MOL0     N10367   2.092   4.713   4.235 -0.3519 -0.1204  0.6059
   76MOL0     C10368   2.211   4.659   4.286 -0.6913 -0.8069  0.2201
   76MOL0     C10369   2.281   4.622   4.177 -0.0935  1.1250 -0.4038
   76MOL0     C10370   2.421   4.566   4.170 -0.6018  0.3729  0.1699
   76MOL0     C10371   2.527   4.661   4.120  0.3168 -0.1540  0.1001
   76MOL0     C10372   2.512   4.810   4.168 -0.2496  0.8659  0.6837
   76MOL0     C10373   2.557   4.837   4.310 -0.2759  1.0931 -0.8852
   76MOL0     O10374   2.455   4.810   4.408  0.1249  0.0659  0.1859
   76MOL0     C10375   2.459   4.874   4.528 -0.7555 -0.4836 -0.2404
   76MOL0     C10376   2.567   4.942   4.578  0.1131  0.1462  0.3497
   76MOL0     C10377   2.552   5.012   4.693 -0.5484  0.2599 -1.1964
   76MOL0     C10378   2.671   5.088   4.736 -0.4135  0.5117 -0.5182
   76MOL0     C10379   2.436   5.014   4.771 -0.5429  0.1702  0.7483
   76MOL0     C10380   2.429   5.100   4.891 -0.9778 -1.3038 -0.0291
   76MOL0     O10381   2.400   5.235   4.869 -0.0275 -0.0210  0.2527
   76MOL0     C10382   2.420   5.318   4.973 -0.9595 -0.8885  0.0958
   76MOL0     C10383   2.331   5.328   5.081 -0.0664 -0.0089 -0.2482
   76MOL0     C10384   2.326   5.426   5.180 -0.0252 -0.4973  0.0251
   76MOL0     C10385   2.432   5.510   5.190 -0.2390 -0.5921  0.0896
   76MOL0     O10386   2.438   5.591   5.303 -0.0582  0.1110  0.8151
   76MOL0     C10387   2.469   5.728   5.274  0.2530 -0.9779 -0.3979
   76MOL0     C10388   2.453   5.829   5.393  0.5340  0.0371 -0.6933
   76MOL0     C10389   2.309   5.884   5.406 -0.4857 -0.7908  0.1165
   76MOL0     C10390   2.304   5.983   5.518  0.6578 -0.1930 -0.3837
   76MOL0     C10391   2.206   6.103   5.482  0.2277 -0.3734 -0.3714
   76MOL0     C10392   2.181   6.193   5.608 -0.8040  0.9282  1.0555
   76MOL0     C10393   2.162   6.343   5.570  0.2708  0.5926 -0.8668
   76MOL0     C10394   2.034   6.371   5.491 -0.3634  0.5254  0.3961
   76MOL0    Cl10395   1.895   6.410   5.608 -0.0476  0.1345 -0.1204
   76MOL0     C10396   2.539   5.499   5.096  0.3637  0.3598  0.2200
   76MOL0     C10397   2.531   5.408   4.981 -0.5062 -0.2592 -0.2382
   76MOL0     O10398   2.470   5.057   4.996 -0.0997 -0.0795 -0.3363
   76MOL0     C10399   2.339   4.926   4.732  0.5007  0.0295 -0.3851
   76MOL0     C10400   2.346   4.868   4.605 -0.1739  0.3192 -1.0764
   76MOL0     N10401   2.202   4.637   4.064 -0.1188  0.8041  0.1229
   76MOL0     N10402   2.099   4.695   4.101  0.2267 -0.7954 -0.0286
   76MOL0     C10403   2.810   5.450   4.673 -0.2209  0.8149  0.6760
   76MOL0     C10404   2.899   5.542   4.732  1.0095 -0.0626  0.1006
   76MOL0     C10405   3.058   5.883   4.949 -0.9860  0.3309 -1.4764
   76MOL0     C10406   3.030   5.946   5.072 -0.0241  0.1169 -0.7923
   76MOL0     C10407   3.123   6.033   5.137 -0.2520 -0.5665  1.4293
   76MOL0     C10408   3.252   6.050   5.088 -0.0167  0.2658 -0.0624
   76MOL0     O10409   3.325   6.139   5.161 -0.3339 -0.4334 -0.9355
   76MOL0     C10410   3.443   6.198   5.110 -0.8719  0.1497  0.6692
   76MOL0     C10411   3.417   6.297   5.008  0.4386 -1.1213 -0.6776
   76MOL0     C10412   3.359   6.433   5.070 -0.4629 -0.4103  0.0326
   76MOL0     C10413   3.254   6.489   4.979  0.1072 -0.0245  0.7210
   76MOL0     C10414   3.305   6.574   4.872 -0.0376 -0.4339 -1.0184
   76MOL0     C10415   3.353   6.624   4.775  0.6417 -0.0275 -0.1893
   76MOL0     C10416   3.291   5.979   4.973  0.1441  0.3141 -0.5821
   76MOL0     C10417   3.194   5.897   4.908 -0.2891  0.6834 -0.1811
   76MOL0     C10418   3.245   5.817   4.785 -0.0357  1.0945 -0.6032
   76MOL0     H10419   2.773   5.831   4.590 -1.2657 -0.1503  2.2997
   76MOL0     H10420   2.628   5.685   4.505 -0.8212  0.2555  0.4203
   76MOL0     H10421   2.573   5.517   4.357 -1.9711  1.3006  0.2189
   76MOL0     H10422   2.460   5.499   4.482 -0.4403  1.2557 -1.2430
   76MOL0     H10423   2.441   5.380   4.259  2.8184  1.3822 -1.1599
   76MOL0     H10424   2.559   5.271   4.317  1.2559  1.1060  1.8495
   76MOL0     H10425   2.409   5.203   4.504  0.5627  1.1108  1.1305
   76MOL0     H10426   2.283   5.328   4.462 -1.4965 -0.9849 -2.1637
   76MOL0     H10427   2.263   5.234   4.247 -1.9861  1.0784  1.1035
   76MOL0     H10428   2.383   5.097   4.294  0.4180 -1.9648  4.1260
   76MOL0     H10429   2.118   5.192   4.422  0.6607  1.9492 -0.4569
   76MOL0     H10430   2.222   5.061   4.485  0.8895 -0.0312  0.1954
   76MOL0     H10431   2.062   5.057   4.219  3.0843 -0.2294 -2.1581
   76MOL0     H10432   2.200   4.950   4.248 -0.0644  0.8548 -1.0081
   76MOL0     H10433   1.936   4.957   4.407  0.3654  0.2821  0.3088
   76MOL0     H10434   2.072   4.872   4.467 -0.8841  2.4617  1.0158
   76MOL0     H10435   1.949   4.713   4.384 -1.0433  1.0787  0.3144
   76MOL0     H10436   1.901   4.792   4.232 -2.2766 -2.5609  1.6425
   76MOL0     H10437   2.241   4.644   4.389  0.5306 -0.3442 -0.0582
   76MOL0     H10438   2.410   4.480   4.104 -4.2385 -0.5305  1.7148
   76MOL0     H10439   2.448   4.524   4.268 -0.8561 -2.1665 -0.7712
   76MOL0     H10440   2.628   4.625   4.142 -0.1558 -1.1696  0.6467
   76MOL0     H10441   2.507   4.667   4.012 -3.7140  1.8550  0.7755
   76MOL0     H10442   2.562   4.882   4.103 -0.5679  2.3421  1.9990
   76MOL0     H10443   2.411   4.844   4.144  0.8860  3.3560 -1.0070
   76MOL0     H10444   2.648   4.781   4.330 -1.5800 -1.2300 -1.0733
   76MOL0     H10445   2.571   4.944   4.326  0.1510  0.7370  1.4055
   76MOL0     H10446   2.658   4.958   4.521 -1.4386  0.4725 -2.1792
   76MOL0     H10447   2.748   5.060   4.664 -1.6025 -3.0721 -0.5764
   76MOL0     H10448   2.692   5.065   4.841  0.9370 -0.1253 -0.8969
   76MOL0     H10449   2.650   5.195   4.734 -0.9279  0.6727  3.9058
   76MOL0     H10450   2.256   5.250   5.075 -0.1385  0.0145  0.2829
   76MOL0     H10451   2.252   5.423   5.259 -0.8519  0.3674 -0.6892
   76MOL0     H10452   2.561   5.751   5.219 -0.3804  1.0522 -0.7009
   76MOL0     H10453   2.402   5.763   5.195  1.3038  2.1305 -0.0566
   76MOL0     H10454   2.482   5.788   5.491 -0.8626  0.2102 -0.1863
   76MOL0     H10455   2.518   5.914   5.373  0.5607 -0.1489 -1.4344
   76MOL0     H10456   2.241   5.802   5.431  1.4400 -3.6539 -3.1969
   76MOL0     H10457   2.280   5.920   5.307  2.1233  0.5902 -0.2435
   76MOL0     H10458   2.405   6.012   5.549  0.4634  1.9937 -1.6320
   76MOL0     H10459   2.261   5.930   5.604 -1.3245  1.2986 -0.3603
   76MOL0     H10460   2.250   6.158   5.399 -0.1603  1.8247  0.7768
   76MOL0     H10461   2.123   6.069   5.420  1.5616 -1.1504 -1.7846
   76MOL0     H10462   2.270   6.185   5.671 -0.6185 -1.0739  0.6068
   76MOL0     H10463   2.104   6.148   5.672 -0.7092 -1.5016 -0.4278
   76MOL0     H10464   2.249   6.383   5.517  1.4652  1.0146  1.3099
   76MOL0     H10465   2.156   6.391   5.668 -1.7991 -4.2254  1.6900
   76MOL0     H10466   2.005   6.279   5.439  1.4737  0.7833 -1.2141
   76MOL0     H10467   2.037   6.451   5.417 -2.3791  0.9718  0.7238
   76MOL0     H10468   2.615   5.576   5.107  0.0761  1.1652 -2.6994
   76MOL0     H10469   2.610   5.403   4.907 -0.3957 -0.2439 -0.1233
   76MOL0     H10470   2.250   4.911   4.791  0.8080  1.8467  0.5963
   76MOL0     H10471   2.267   4.819   4.549  1.1513  1.3459 -4.0831
   76MOL0     H10472   2.821   5.348   4.708 -1.4024  0.8479  1.1508
   76MOL0     H10473   2.977   5.508   4.800  0.8243 -2.8091 -0.9418
   76MOL0     H10474   2.925   5.947   5.097 -0.1968  2.0208 -1.4311
   76MOL0     H10475   3.086   6.082   5.226 -0.0482  1.4718  0.4414
   76MOL0     H10476   3.505   6.234   5.193  0.7004  1.4714 -1.0240
   76MOL0     H10477   3.507   6.124   5.061 -3.1883 -1.2589 -0.3914
   76MOL0     H10478   3.358   6.255   4.926 -1.4011 -2.8029  1.3901
   76MOL0     H10479   3.512   6.338   4.971 -0.2315  0.3589 -0.7938
   76MOL0     H10480   3.298   6.404   5.156 -0.1613 -3.4776 -0.6734
   76MOL0     H10481   3.436   6.504   5.100 -2.0697  2.0398 -1.3601
   76MOL0     H10482   3.192   6.558   5.037  0.4678  2.5053 -1.6705
   76MOL0     H10483   3.189   6.408   4.945  0.0684  0.6588 -0.9144
   76MOL0     H10484   3.413   6.667   4.697  3.7410 -1.4263  1.2136
   76MOL0     H10485   3.392   5.994   4.937  1.5105  0.9430  3.0037
   76MOL0     H10486   3.352   5.798   4.799 -0.9017 -2.4307  4.1692
   76MOL0     H10487   3.212   5.713   4.797  1.9706  0.5455  0.7170
   76MOL0     H10488   3.225   5.870   4.692  2.0457  0.3945 -1.5121
   77MOL0     O10489   5.839  10.502  10.526 -0.8842  0.4977  0.5370
   77MOL0     C10490   5.779  10.602  10.489  0.6041 -0.2488  0.6504
   77MOL0     O10491   5.833  10.711  10.416  0.0819  0.5269 -0.2136
   77MOL0     C10492   5.966  10.745  10.416  0.8225 -0.5827  0.1600
   77MOL0     C10493   5.993  10.871  10.350 -0.6063  0.5036 -0.4172
   77MOL0     C10494   6.124  10.923  10.350 -0.4704  0.1086  0.2376
   77MOL0     C10495   6.228  10.856  10.414  0.1466 -0.3243 -0.3484
   77MOL0     O10496   6.363  10.896  10.405 -0.8913  0.2074  0.1667
   77MOL0     C10497   6.378  11.036  10.434 -0.7451  0.3269 -0.0726
   77MOL0     C10498   6.524  11.051  10.486 -0.3999 -0.7880 -0.8602
   77MOL0     C10499   6.556  11.200  10.535 -0.8960 -0.3066 -1.1438
   77MOL0     C10500   6.689  11.192  10.625  0.4200 -0.2428 -1.0280
   77MOL0     C10501   6.718  11.327  10.699 -0.2616 -0.4020  0.3013
   77MOL0     C10502   6.852  11.335  10.760 -0.4023  0.4204 -0.0278
   77MOL0     C10503   6.884  11.475  10.836  0.5281  0.0178  0.0634
   77MOL0     C10504   7.033  11.496  10.860 -0.0455 -1.0871  0.4480
   77MOL0     N10505   7.088  11.634  10.874  0.1701  0.1749  0.5181
   77MOL0     C10506   7.064  11.745  10.789 -0.5426  0.5528  0.6232
   77MOL0     C10507   7.138  11.847  10.835 -0.6676 -0.2088  0.1158
   77MOL0     C10508   7.140  11.995  10.789  0.7635 -0.0240 -0.5790
   77MOL0     C10509   7.276  12.017  10.728 -0.8277 -0.5391  0.7741
   77MOL0     C10510   7.307  11.934  10.602  0.8065  0.4117 -0.6589
   77MOL0     C10511   7.453  11.931  10.560  1.2499  0.1184 -0.2541
   77MOL0     O10512   7.502  12.050  10.517 -0.0839 -0.7207 -0.1425
   77MOL0     C10513   7.630  12.063  10.477  0.5029  0.7460  0.4517
   77MOL0     C10514   7.669  12.188  10.425  0.2925  0.5869  0.0138
   77MOL0     C10515   7.792  12.219  10.360  0.5931 -0.1149 -0.4749
   77MOL0     C10516   7.801  12.353  10.299 -0.0392  0.0746  0.0462
   77MOL0     C10517   7.888  12.117  10.366 -0.1700 -0.6952  0.7954
   77MOL0     C10518   8.024  12.121  10.300 -0.4520  0.0513 -0.8386
   77MOL0     O10519   8.108  12.031  10.346 -0.7084  0.4809  0.5159
   77MOL0     C10520   8.239  12.027  10.297  0.6432  0.2984  0.1426
   77MOL0     C10521   8.269  12.017  10.164 -0.4199  0.0645  0.2815
   77MOL0     C10522   8.399  12.017  10.117 -0.0577 -0.6043 -0.1371
   77MOL0     C10523   8.499  12.023  10.213 -0.3350  0.2286 -0.3667
   77MOL0     O10524   8.626  12.023  10.161  0.1635  0.3116  0.2520
   77MOL0     C10525   8.731  11.943  10.227 -0.4958  0.3522  0.4435
   77MOL0     C10526   8.865  12.019  10.191  0.6119  0.3742 -0.0888
   77MOL0     C10527   8.988  11.978  10.284 -0.1727 -0.4344 -0.5831
   77MOL0     C10528   9.116  12.056  10.260  1.0359  0.3892  0.1010
   77MOL0     C10529   9.178  12.018  10.126  1.0379 -0.1513 -0.2856
   77MOL0     C10530   9.322  12.061  10.122 -0.1036 -0.2490 -0.2561
   77MOL0     C10531   9.341  12.216  10.119 -0.0785 -0.1496 -0.1361
   77MOL0     C10532   9.478  12.268  10.082  0.1474  0.2563  0.2343
   77MOL0    Cl10533   9.585  12.242  10.221  0.4600  0.0571 -0.2016
   77MOL0     C10534   8.472  12.009  10.354  0.1803 -0.3948 -0.4143
   77MOL0     C10535   8.340  12.010  10.397  0.4820 -0.3495 -0.4032
   77MOL0     O10536   8.050  12.210  10.218 -0.1627 -0.7204  0.3137
   77MOL0     C10537   7.847  11.995  10.435 -0.3039 -0.3471  0.1725
   77MOL0     C10538   7.723  11.966  10.490 -0.1827 -0.3975  1.1736
   77MOL0     N10539   7.209  11.799  10.949 -0.0883 -0.9185 -0.5064
   77MOL0     N10540   7.178  11.676  10.976  0.6103 -0.4248 -0.3413
   77MOL0     C10541   6.202  10.737  10.481  0.1099 -0.5586 -0.0885
   77MOL0     C10542   6.071  10.683  10.487  0.2210  0.0225 -0.4107
   77MOL0     C10543   5.634  10.602  10.491  0.6498  0.1702 -0.9484
   77MOL0     C10544   5.568  10.475  10.501  0.3395  0.8475 -0.7419
   77MOL0     C10545   5.435  10.459  10.529  0.2689 -0.3752  0.0183
   77MOL0     C10546   5.359  10.573  10.533  0.3215 -0.0034 -1.0084
   77MOL0     O10547   5.231  10.552  10.576 -0.1451 -0.3992 -0.9289
   77MOL0     C10548   5.139  10.656  10.528 -1.5072  0.2908  0.2196
   77MOL0     C10549   4.998  10.639  10.570  0.6889 -0.6421 -0.7559
   77MOL0     C10550   4.907  10.758  10.540 -0.3133  0.2982  0.9560
   77MOL0     C10551   4.766  10.733  10.593 -0.0261  0.4306 -0.0926
   77MOL0     C10552   4.677  10.845  10.564  0.3730 -0.1516  0.1877
   77MOL0     C10553   4.595  10.942  10.541  0.3088 -0.4048  0.2155
   77MOL0     C10554   5.420  10.702  10.524  0.4977  0.5398  0.2532
   77MOL0     C10555   5.557  10.721  10.506 -0.6328  0.2231  0.1733
   77MOL0     C10556   5.612  10.855  10.522 -0.6403 -0.1944 -0.0079
   77MOL0     H10557   5.913  10.922  10.297 -3.1951 -1.6105  1.1697
   77MOL0     H10558   6.147  11.017  10.301 -1.4660  0.2317  0.0009
   77MOL0     H10559   6.306  11.066  10.510  0.9045 -0.1183  1.7335
   77MOL0     H10560   6.362  11.099  10.346  1.3313  0.8621 -0.1239
   77MOL0     H10561   6.542  10.993  10.576  1.4307  0.0795 -0.6268
   77MOL0     H10562   6.597  11.018  10.411 -0.9547 -1.8852 -0.9349
   77MOL0     H10563   6.571  11.280  10.462 -2.0097  2.0630  1.0316
   77MOL0     H10564   6.481  11.232  10.609  1.6553 -0.0595  1.5508
   77MOL0     H10565   6.685  11.109  10.696  1.6402 -2.4176 -3.3619
   77MOL0     H10566   6.765  11.159  10.553  2.1784  1.3266  0.0139
   77MOL0     H10567   6.638  11.356  10.768 -0.2078 -0.6645  0.4747
   77MOL0     H10568   6.736  11.408  10.627  0.7020  1.2816  2.3383
   77MOL0     H10569   6.859  11.249  10.826 -1.0996  0.6236  0.3255
   77MOL0     H10570   6.927  11.322  10.681 -3.2022 -2.8711 -2.4469
   77MOL0     H10571   6.816  11.491  10.920 -1.2131  0.3981 -1.3465
   77MOL0     H10572   6.855  11.550  10.761  0.9856 -1.2186 -1.4189
   77MOL0     H10573   7.059  11.445  10.953  2.1708  1.7070  1.4976
   77MOL0     H10574   7.096  11.448  10.784  0.0292 -0.0308 -0.1737
   77MOL0     H10575   7.006  11.750  10.696 -1.5595  0.4019  1.2307
   77MOL0     H10576   7.108  12.057  10.873 -1.3359 -2.6346  0.7122
   77MOL0     H10577   7.069  12.008  10.707  1.5499 -1.7797 -1.5911
   77MOL0     H10578   7.275  12.118  10.685  1.7041 -1.9515 -3.2177
   77MOL0     H10579   7.337  12.009  10.818  0.7003  0.2497 -0.1474
   77MOL0     H10580   7.287  11.826  10.610  1.8523 -0.0155 -2.9865
   77MOL0     H10581   7.244  11.975  10.522 -0.7445 -2.8918 -1.3130
   77MOL0     H10582   7.505  11.888  10.646 -0.2195  3.7254  2.6930
   77MOL0     H10583   7.468  11.862  10.477  0.9612  2.1464 -2.0910
   77MOL0     H10584   7.595  12.267  10.433 -0.7801 -0.2530 -0.9754
   77MOL0     H10585   7.711  12.415  10.303  1.4654  2.3800  0.2688
   77MOL0     H10586   7.826  12.350  10.193 -2.3444  0.4082 -0.5668
   77MOL0     H10587   7.874  12.414  10.353 -1.3106  3.7318 -2.0433
   77MOL0     H10588   8.185  12.016  10.095  1.1363 -2.0303 -1.7518
   77MOL0     H10589   8.416  12.011  10.010  2.1254  2.3964 -0.0790
   77MOL0     H10590   8.720  11.953  10.335  0.6310  2.6336  0.3937
   77MOL0     H10591   8.732  11.839  10.193 -2.2312  0.2251  0.6588
   77MOL0     H10592   8.894  11.997  10.088  1.8493 -0.4793  0.4246
   77MOL0     H10593   8.849  12.127  10.193 -0.5069  0.2964 -2.1366
   77MOL0     H10594   9.013  11.871  10.283 -1.5412 -0.8070  1.0460
   77MOL0     H10595   8.945  11.996  10.383 -1.9384 -0.1520 -1.3596
   77MOL0     H10596   9.188  12.028  10.337  0.3992 -0.7752  0.3058
   77MOL0     H10597   9.106  12.164  10.271 -1.1984  0.0722  1.9897
   77MOL0     H10598   9.176  11.910  10.107  3.6545 -0.0209 -1.7268
   77MOL0     H10599   9.120  12.059  10.042 -0.4177 -0.3743  0.5805
   77MOL0     H10600   9.365  12.011  10.034 -2.1997 -1.8324 -0.4562
   77MOL0     H10601   9.380  12.010  10.200  2.7893  2.4206 -0.4614
   77MOL0     H10602   9.303  12.261  10.211 -2.0926  0.5935 -1.2818
   77MOL0     H10603   9.272  12.250  10.041 -0.7480  0.4237  0.6839
   77MOL0     H10604   9.474  12.371  10.046 -1.1299  0.9632  2.2474
   77MOL0     H10605   9.513  12.205   9.999  0.8055  0.8207  0.0737
   77MOL0     H10606   8.551  11.995  10.427 -0.0942  1.6025  0.3286
   77MOL0     H10607   8.300  12.002  10.497  0.5259 -0.8778 -0.4270
   77MOL0     H10608   7.913  11.911  10.455  0.0497  0.3229  2.0418
   77MOL0     H10609   7.695  11.871  10.535  1.7825 -0.7857  1.6799
   77MOL0     H10610   6.290  10.695  10.528  0.1840 -0.7562 -0.3958
   77MOL0     H10611   6.059  10.597  10.551 -2.5420  0.9254  0.4516
   77MOL0     H10612   5.627  10.384  10.508  0.5722  0.8286 -2.4590
   77MOL0     H10613   5.386  10.363  10.544 -2.0543  0.8062  0.4956
   77MOL0     H10614   5.176  10.752  10.565  1.4551  0.2619 -2.3027
   77MOL0     H10615   5.137  10.657  10.419 -1.0397 -0.2110  0.2000
   77MOL0     H10616   4.976  10.598  10.669 -3.9098 -0.1513 -1.3197
   77MOL0     H10617   4.977  10.557  10.500  4.7103  0.3018 -3.4002
   77MOL0     H10618   4.935  10.842  10.605 -0.3366 -0.7196  2.3077
   77MOL0     H10619   4.911  10.780  10.433  0.8258  0.1516  0.9490
   77MOL0     H10620   4.763  10.699  10.697 -4.4883 -1.4743 -0.6082
   77MOL0     H10621   4.730  10.646  10.537  0.3170  0.5807 -0.5502
   77MOL0     H10622   4.530  11.026  10.524  1.0256 -0.2722 -2.4231
   77MOL0     H10623   5.365  10.792  10.548 -0.7565 -0.3499  0.8079
   77MOL0     H10624   5.540  10.924  10.566 -0.7281 -0.7878  0.8058
   77MOL0     H10625   5.700  10.855  10.588  0.6869 -0.1312 -1.6991
   77MOL0     H10626   5.642  10.892  10.423 -0.4406 -1.5985 -0.4960
   78MOL0     O10627  11.445   4.622   3.422  0.1341  0.3519 -0.3851
   78MOL0     C10628  11.491   4.624   3.308 -0.3768  0.0520 -0.1600
   78MOL0     O10629  11.482   4.730   3.227 -0.0818 -0.5146 -0.5651
   78MOL0     C10630  11.417   4.840   3.273 -0.8274  1.0398  0.0165
   78MOL0     C10631  11.277   4.831   3.277 -0.2862 -0.1579 -0.1569
   78MOL0     C10632  11.212   4.931   3.336 -0.0873 -0.7051 -0.7608
   78MOL0     C10633  11.279   5.044   3.383  0.2219 -0.3400  0.2013
   78MOL0     O10634  11.207   5.153   3.428 -0.5114  0.6946  0.0091
   78MOL0     C10635  11.115   5.127   3.533  0.6696 -0.8889 -0.4526
   78MOL0     C10636  11.149   5.233   3.645 -0.5080 -0.1685  0.6282
   78MOL0     C10637  11.205   5.169   3.776  0.9815  0.0404 -0.0158
   78MOL0     C10638  11.358   5.150   3.774  0.4160 -0.2344  0.4243
   78MOL0     C10639  11.430   5.295   3.769 -0.8830 -0.4516 -0.2279
   78MOL0     C10640  11.580   5.292   3.715  0.3583  0.6720  0.5643
   78MOL0     C10641  11.655   5.422   3.700  0.0803 -0.8728 -0.5116
   78MOL0     C10642  11.615   5.520   3.816  0.4817  0.4983  0.0475
   78MOL0     N10643  11.706   5.638   3.833 -0.2075 -0.0982  0.1315
   78MOL0     C10644  11.745   5.694   3.954  0.0664  0.4501  0.5716
   78MOL0     C10645  11.838   5.789   3.916  0.4435 -0.5620  0.6177
   78MOL0     C10646  11.913   5.877   4.009  0.2699 -0.2159  0.1220
   78MOL0     C10647  11.851   6.017   4.012 -0.8361 -0.2469 -0.0103
   78MOL0     C10648  11.913   6.109   4.119 -0.4386  0.1178  0.6156
   78MOL0     C10649  11.865   6.067   4.256 -0.0909 -0.2028  0.0873
   78MOL0     O10650  11.907   6.183   4.341 -0.1328  0.1405 -0.3192
   78MOL0     C10651  12.046   6.185   4.380  0.5613  1.0525  1.0746
   78MOL0     C10652  12.137   6.085   4.356  0.9963 -0.2417 -0.2997
   78MOL0     C10653  12.269   6.087   4.403  0.7575  0.0425 -0.1411
   78MOL0     C10654  12.352   5.975   4.354 -0.2277  0.8622  0.8872
   78MOL0     C10655  12.322   6.197   4.478  1.0372 -0.0253  0.1206
   78MOL0     C10656  12.462   6.205   4.527  0.5961 -0.2273  0.0982
   78MOL0     O10657  12.498   6.315   4.599  0.2205 -0.0813  0.6848
   78MOL0     C10658  12.630   6.346   4.627  0.0504 -0.2781  0.4001
   78MOL0     C10659  12.715   6.258   4.689 -0.8094  0.7591 -0.2851
   78MOL0     C10660  12.851   6.291   4.713 -0.3488 -0.2329  0.2992
   78MOL0     C10661  12.897   6.418   4.697 -0.0747  0.9321 -0.2060
   78MOL0     O10662  13.026   6.442   4.720 -0.1322  0.4582  0.0357
   78MOL0     C10663  13.049   6.483   4.854 -0.0821  0.6958 -0.0939
   78MOL0     C10664  13.115   6.628   4.856  0.1290  0.3810 -0.4209
   78MOL0     C10665  13.264   6.628   4.808 -0.5400 -0.5497 -0.1663
   78MOL0     C10666  13.334   6.772   4.821 -0.1448  1.0053 -0.0503
   78MOL0     C10667  13.390   6.803   4.960 -0.1609  0.0785  0.7339
   78MOL0     C10668  13.472   6.938   4.966  0.0221 -0.1715 -0.2946
   78MOL0     C10669  13.531   6.936   5.108  0.0352 -0.3717 -0.4680
   78MOL0     C10670  13.606   7.058   5.119  0.1564 -0.5853  0.1553
   78MOL0    Cl10671  13.754   7.047   5.028  0.2623 -0.1173  0.6132
   78MOL0     C10672  12.809   6.516   4.652  0.4909  0.0008 -0.6222
   78MOL0     C10673  12.675   6.480   4.613  1.0354  0.8697 -0.4774
   78MOL0     O10674  12.547   6.119   4.493  0.1330 -0.6025 -0.4477
   78MOL0     C10675  12.225   6.295   4.502 -0.1526 -0.4104 -0.3752
   78MOL0     C10676  12.094   6.293   4.454  0.0256  0.4855 -0.3837
   78MOL0     N10677  11.856   5.781   3.779 -0.3305  0.4513  0.4488
   78MOL0     N10678  11.770   5.694   3.733  0.4716 -0.3260  0.6952
   78MOL0     C10679  11.419   5.054   3.378  0.6267  0.8910  0.0642
   78MOL0     C10680  11.490   4.943   3.325 -0.3086 -0.0740 -0.1139
   78MOL0     C10681  11.588   4.514   3.268  0.0004  0.1373 -0.1681
   78MOL0     C10682  11.675   4.526   3.156  0.5668 -0.4723  0.6012
   78MOL0     C10683  11.766   4.425   3.122 -0.5753  0.5563 -0.0903
   78MOL0     C10684  11.759   4.302   3.188 -1.0217 -0.5066 -0.0251
   78MOL0     O10685  11.832   4.191   3.147  0.6473 -0.2501 -0.5119
   78MOL0     C10686  11.942   4.144   3.229  0.6761  0.1471 -0.0629
   78MOL0     C10687  11.887   4.012   3.293 -0.2349  0.5955 -0.4536
   78MOL0     C10688  11.996   3.908   3.321  0.0912  0.4162 -0.5199
   78MOL0     C10689  12.076   3.939   3.447  0.3310  0.7299 -0.1035
   78MOL0     C10690  12.160   4.059   3.434 -0.0356 -0.5346 -0.0460
   78MOL0     C10691  12.233   4.154   3.424  0.2425  0.0420  0.4627
   78MOL0     C10692  11.679   4.291   3.303 -0.8321 -0.6133 -0.0779
   78MOL0     C10693  11.589   4.392   3.340 -0.2259  1.1831 -0.0758
   78MOL0     C10694  11.498   4.356   3.459 -0.2424 -0.0839  0.2498
   78MOL0     H10695  11.218   4.751   3.233 -1.7214 -1.0433  3.0631
   78MOL0     H10696  11.105   4.938   3.347  0.2349  3.4228  2.1973
   78MOL0     H10697  11.115   5.023   3.566 -2.3524 -0.1939  2.2295
   78MOL0     H10698  11.015   5.156   3.498  0.7486 -1.6105 -1.3046
   78MOL0     H10699  11.212   5.313   3.605 -1.7101  0.1074 -0.8097
   78MOL0     H10700  11.056   5.276   3.683 -1.5200 -2.6369  1.0886
   78MOL0     H10701  11.187   5.228   3.865  0.3622 -0.7833  0.4175
   78MOL0     H10702  11.153   5.073   3.782 -1.8047  1.3331 -1.6288
   78MOL0     H10703  11.399   5.089   3.855  2.9112 -2.6265 -2.4280
   78MOL0     H10704  11.383   5.092   3.685  1.5058  1.7062 -0.6252
   78MOL0     H10705  11.450   5.336   3.869 -0.5165 -1.1411 -0.0111
   78MOL0     H10706  11.374   5.366   3.708  0.9041  1.2405  0.0147
   78MOL0     H10707  11.641   5.227   3.778  0.6930  0.2430 -0.1952
   78MOL0     H10708  11.593   5.242   3.619 -0.4794 -2.1552  1.8101
   78MOL0     H10709  11.621   5.470   3.608  1.1054 -1.4081 -1.1903
   78MOL0     H10710  11.763   5.406   3.690  0.5827  2.3874 -1.6162
   78MOL0     H10711  11.519   5.571   3.803 -2.0807 -3.3354  1.9344
   78MOL0     H10712  11.615   5.460   3.908  3.7601 -0.6646 -0.5918
   78MOL0     H10713  11.694   5.671   4.047 -0.9074 -1.5381 -0.3827
   78MOL0     H10714  12.018   5.884   3.979 -0.5512  2.2339 -2.6359
   78MOL0     H10715  11.895   5.831   4.107 -0.7874  0.1345  0.1093
   78MOL0     H10716  11.870   6.058   3.912 -0.4921 -0.0407  0.1388
   78MOL0     H10717  11.742   6.013   4.020 -0.9504  2.2139  0.4867
   78MOL0     H10718  12.022   6.107   4.108 -0.4839  0.1476  0.1085
   78MOL0     H10719  11.881   6.213   4.104 -1.2714 -0.5171 -2.8933
   78MOL0     H10720  11.756   6.057   4.257  0.0723 -2.3077 -0.1560
   78MOL0     H10721  11.909   5.971   4.283 -2.9148 -2.7166 -3.3543
   78MOL0     H10722  12.109   5.994   4.305 -2.6796  1.3439 -1.4369
   78MOL0     H10723  12.413   5.924   4.429  2.3409 -0.3835 -1.8372
   78MOL0     H10724  12.426   6.010   4.282  0.4075 -1.8308  0.1061
   78MOL0     H10725  12.298   5.889   4.314  0.4580  1.7226 -2.1495
   78MOL0     H10726  12.696   6.152   4.699  4.1492 -0.4294 -1.2765
   78MOL0     H10727  12.925   6.218   4.742  1.2049  1.6533  1.3807
   78MOL0     H10728  12.959   6.473   4.915  1.6260 -1.2429  2.2758
   78MOL0     H10729  13.113   6.403   4.891 -1.7162  0.4663  2.5320
   78MOL0     H10730  13.056   6.701   4.799 -0.3758  1.0320  0.9029
   78MOL0     H10731  13.121   6.663   4.959  0.4291  0.6435 -0.5258
   78MOL0     H10732  13.265   6.614   4.700  2.2427  3.4849 -0.9344
   78MOL0     H10733  13.325   6.550   4.855 -1.5199 -0.6052  1.0633
   78MOL0     H10734  13.256   6.847   4.805 -1.1936 -0.1541 -0.5816
   78MOL0     H10735  13.417   6.780   4.750 -0.2107  1.0089 -0.1264
   78MOL0     H10736  13.308   6.815   5.031  0.3132 -0.4907  1.3896
   78MOL0     H10737  13.457   6.723   4.993 -1.0810 -0.9357  0.2115
   78MOL0     H10738  13.416   7.027   4.936  0.0010 -0.3349 -0.7579
   78MOL0     H10739  13.547   6.918   4.889  0.5325 -4.0943  0.9713
   78MOL0     H10740  13.599   6.850   5.110  1.0565  0.1662 -4.5542
   78MOL0     H10741  13.450   6.932   5.182  0.9825 -0.6049  0.5750
   78MOL0     H10742  13.644   7.083   5.219 -1.7291  2.7201  0.1902
   78MOL0     H10743  13.559   7.151   5.084  0.4203 -0.1004  1.0480
   78MOL0     H10744  12.824   6.623   4.663 -0.6510  0.0188  1.2246
   78MOL0     H10745  12.615   6.557   4.566 -0.6776  0.5375  1.0537
   78MOL0     H10746  12.261   6.385   4.551  0.8696 -0.7316 -0.5142
   78MOL0     H10747  12.038   6.382   4.481  1.3992  0.7154  1.9866
   78MOL0     H10748  11.466   5.138   3.428 -1.7124  1.3574  1.6575
   78MOL0     H10749  11.598   4.937   3.315 -0.5859 -2.1792 -2.9539
   78MOL0     H10750  11.693   4.625   3.116 -2.5496  0.2939  0.7876
   78MOL0     H10751  11.837   4.431   3.041 -0.3112  0.1013  0.1035
   78MOL0     H10752  12.025   4.123   3.162  0.7476 -0.0334  0.0802
   78MOL0     H10753  11.976   4.204   3.314  1.9550 -3.0603  1.8573
   78MOL0     H10754  11.825   3.966   3.215 -1.5206  2.4258 -0.5946
   78MOL0     H10755  11.821   4.040   3.375  1.5796  2.2589  0.5455
   78MOL0     H10756  11.955   3.811   3.349 -0.5607  0.4199 -1.4221
   78MOL0     H10757  12.053   3.891   3.230 -0.1494  4.1118 -1.5476
   78MOL0     H10758  12.133   3.847   3.464 -1.4517 -0.4822 -0.4246
   78MOL0     H10759  12.015   3.955   3.537  1.6421  1.4368  0.7016
   78MOL0     H10760  12.306   4.233   3.430  1.5987 -1.2303  1.3890
   78MOL0     H10761  11.694   4.206   3.369 -0.7539 -1.6810 -1.4308
   78MOL0     H10762  11.523   4.256   3.494 -0.7140  0.2104  1.4813
   78MOL0     H10763  11.511   4.417   3.549 -2.4295 -0.6674  1.0160
   78MOL0     H10764  11.394   4.362   3.426 -0.5951  0.9988  1.4982
   79MOL0     O10765   6.265   8.034   0.209  0.2253 -0.1564 -0.1014
   79MOL0     C10766   6.258   8.139   0.266 -0.0437 -0.6768 -0.7328
   79MOL0     O10767   6.365   8.209   0.305  0.0585  0.3420  0.8478
   79MOL0     C10768   6.478   8.181   0.238 -0.7237 -0.2442  0.2036
   79MOL0     C10769   6.477   8.198   0.094  0.7293  0.3974 -0.1060
   79MOL0     C10770   6.590   8.187   0.019 -0.7284  0.0974 -0.1049
   79MOL0     C10771   6.716   8.170   0.093  0.1024  0.7265  1.1206
   79MOL0     O10772   6.833   8.143   0.030  0.5301 -0.1344  0.5561
   79MOL0     C10773   6.826   8.021  -0.045 -0.0609  0.4129 -0.0734
   79MOL0     C10774   6.966   7.967  -0.073  0.0072  0.6454  1.1309
   79MOL0     C10775   7.048   8.074  -0.147 -0.4180 -0.2446 -0.0867
   79MOL0     C10776   7.189   8.012  -0.186  0.7306 -0.0133 -0.1364
   79MOL0     C10777   7.263   8.106  -0.291  0.3217 -0.0926 -0.6233
   79MOL0     C10778   7.301   8.242  -0.217  0.0384 -0.3844 -0.2036
   79MOL0     C10779   7.439   8.286  -0.263 -0.2823 -0.3132  0.2246
   79MOL0     C10780   7.518   8.374  -0.168  0.2705 -0.2581 -0.0498
   79MOL0     N10781   7.464   8.514  -0.155  0.9432 -0.1143 -1.1057
   79MOL0     C10782   7.350   8.544  -0.075 -0.0177 -0.1667  1.1603
   79MOL0     C10783   7.312   8.671  -0.104 -0.7246  0.5162 -0.3872
   79MOL0     C10784   7.214   8.750  -0.021  0.7977 -0.4301  0.0005
   79MOL0     C10785   7.269   8.765   0.128  0.3894  0.1511 -0.2872
   79MOL0     C10786   7.193   8.880   0.190 -0.5492  0.1002  0.1036
   79MOL0     C10787   7.222   8.878   0.341  1.3551 -0.5542  0.3506
   79MOL0     O10788   7.170   8.745   0.390  0.6417  1.0255  0.1919
   79MOL0     C10789   7.044   8.729   0.440  0.6579 -0.5499  0.9527
   79MOL0     C10790   7.000   8.604   0.478  0.0348 -0.9072 -0.3712
   79MOL0     C10791   6.865   8.578   0.498  0.5050  0.4377  0.3292
   79MOL0     C10792   6.840   8.434   0.525 -0.1112 -0.1619 -0.8723
   79MOL0     C10793   6.769   8.672   0.484  0.1639 -0.2563 -0.9893
   79MOL0     C10794   6.617   8.650   0.510 -0.2075 -1.4040  0.2415
   79MOL0     O10795   6.543   8.768   0.526 -0.0832 -0.1976  0.1826
   79MOL0     C10796   6.416   8.748   0.578  0.3924  1.3367  0.7312
   79MOL0     C10797   6.378   8.744   0.715 -0.0294  0.3582  0.2821
   79MOL0     C10798   6.244   8.723   0.757  0.3771 -0.5583  0.0953
   79MOL0     C10799   6.140   8.733   0.667  0.9492  0.2780  0.1176
   79MOL0     O10800   6.007   8.718   0.699 -0.1698  0.2740  0.1070
   79MOL0     C10801   5.966   8.618   0.795  0.0688 -0.1266  0.7853
   79MOL0     C10802   5.816   8.647   0.832 -0.5459  0.1017  1.1578
   79MOL0     C10803   5.812   8.727   0.958  0.6762  0.7395  0.2327
   79MOL0     C10804   5.794   8.631   1.074  0.9391  0.4203 -0.0646
   79MOL0     C10805   5.741   8.687   1.209 -0.5791  0.1153 -0.9105
   79MOL0     C10806   5.843   8.782   1.285 -0.0950 -0.1926 -0.1724
   79MOL0     C10807   5.772   8.875   1.383 -0.8306 -0.6741 -1.4385
   79MOL0     C10808   5.874   8.937   1.483  0.2419 -0.3281  0.1697
   79MOL0    Cl10809   5.985   9.046   1.405  0.1354 -0.0447 -0.0240
   79MOL0     C10810   6.173   8.728   0.529  0.6582  0.5814 -0.5672
   79MOL0     C10811   6.308   8.726   0.486 -0.1217  0.8654 -0.0335
   79MOL0     O10812   6.558   8.541   0.501 -1.0054 -0.1943  0.6507
   79MOL0     C10813   6.808   8.800   0.454  0.5107  0.8020  0.7301
   79MOL0     C10814   6.941   8.827   0.433  0.1606  0.1046 -0.2413
   79MOL0     N10815   7.399   8.712  -0.208  0.1970  0.6070  0.0974
   79MOL0     N10816   7.482   8.618  -0.239 -0.1452  0.3334  0.1522
   79MOL0     C10817   6.714   8.155   0.224  0.6082  0.8803 -0.1991
   79MOL0     C10818   6.593   8.160   0.302  0.2558  0.1735  0.6248
   79MOL0     C10819   6.120   8.185   0.313  1.0400 -0.0081  0.2197
   79MOL0     C10820   6.018   8.086   0.320 -0.5720 -0.1141  0.2678
   79MOL0     C10821   5.897   8.105   0.366  0.1742  0.0086 -0.7367
   79MOL0     C10822   5.867   8.232   0.423  0.8023  0.9765  0.8477
   79MOL0     O10823   5.738   8.251   0.462 -1.0976  0.1640  0.2548
   79MOL0     C10824   5.689   8.378   0.516  1.2533 -0.2711  0.0900
   79MOL0     C10825   5.534   8.384   0.536  1.1458 -0.2433  0.6446
   79MOL0     C10826   5.477   8.343   0.666  0.4083  0.5791  0.7742
   79MOL0     C10827   5.520   8.414   0.794  0.1751  1.1746  0.5495
   79MOL0     C10828   5.492   8.553   0.775  0.4557 -0.0035  0.2912
   79MOL0     C10829   5.476   8.669   0.746 -0.0443 -0.2570 -1.5151
   79MOL0     C10830   5.967   8.331   0.433  0.6916  0.0955 -0.7962
   79MOL0     C10831   6.089   8.311   0.375 -1.1046  0.1474 -0.2967
   79MOL0     C10832   6.185   8.422   0.393 -0.2656 -0.1583 -0.1714
   79MOL0     H10833   6.384   8.231   0.050  0.0435  1.6686  2.1553
   79MOL0     H10834   6.594   8.195  -0.089  2.5817  0.3582 -0.0608
   79MOL0     H10835   6.791   8.050  -0.144  0.3675  2.4177  0.3182
   79MOL0     H10836   6.768   7.943   0.006  0.0676 -0.1020 -0.7055
   79MOL0     H10837   7.010   7.924   0.018  0.6592  1.2300  1.0973
   79MOL0     H10838   6.950   7.892  -0.151  3.6345  2.4218 -1.6369
   79MOL0     H10839   7.007   8.106  -0.243  2.5869  2.4719 -0.6243
   79MOL0     H10840   7.056   8.163  -0.083  1.2041 -2.8611  3.7526
   79MOL0     H10841   7.249   7.996  -0.096 -1.5544 -0.5458  1.3574
   79MOL0     H10842   7.175   7.912  -0.229  1.3676 -0.8832  1.6039
   79MOL0     H10843   7.192   8.130  -0.371 -2.1117 -1.3339  1.0512
   79MOL0     H10844   7.354   8.062  -0.333  0.7467  0.4094 -0.2572
   79MOL0     H10845   7.222   8.316  -0.233  0.0644  0.5039  3.0484
   79MOL0     H10846   7.300   8.227  -0.108 -1.0869  0.8387 -0.0251
   79MOL0     H10847   7.433   8.344  -0.356 -1.8503 -0.2549  0.3386
   79MOL0     H10848   7.501   8.197  -0.274  2.3273  1.0106  2.6872
   79MOL0     H10849   7.522   8.335  -0.066 -2.9020  0.7762  0.5870
   79MOL0     H10850   7.618   8.376  -0.211 -0.8790 -1.8377 -3.0928
   79MOL0     H10851   7.294   8.479  -0.008 -0.1567 -1.0640  0.2115
   79MOL0     H10852   7.123   8.690  -0.031  1.2743 -1.0663 -0.5735
   79MOL0     H10853   7.201   8.850  -0.066  0.8792 -0.6440 -0.5066
   79MOL0     H10854   7.255   8.671   0.183  1.3086 -0.9412 -1.8410
   79MOL0     H10855   7.374   8.795   0.123  0.8093 -1.2561 -0.3198
   79MOL0     H10856   7.224   8.979   0.154 -2.2422  0.6599  0.0995
   79MOL0     H10857   7.086   8.868   0.171 -0.3158  1.5031 -2.4846
   79MOL0     H10858   7.330   8.897   0.350  1.0191  3.6346 -1.8412
   79MOL0     H10859   7.166   8.964   0.378  1.7460  0.6924 -1.7878
   79MOL0     H10860   7.077   8.530   0.493  1.2313  0.0342 -1.6770
   79MOL0     H10861   6.772   8.425   0.611  0.1940  0.6149 -0.5340
   79MOL0     H10862   6.925   8.380   0.567 -0.6762 -0.4940 -0.1262
   79MOL0     H10863   6.796   8.391   0.435  1.3504 -1.0338 -1.1968
   79MOL0     H10864   6.441   8.771   0.799 -0.4396 -0.5274  0.8925
   79MOL0     H10865   6.227   8.723   0.864 -0.5174  0.4584 -0.0271
   79MOL0     H10866   5.967   8.515   0.758 -4.5068 -0.6894  1.5913
   79MOL0     H10867   6.023   8.617   0.889 -0.2486 -0.1101  0.9810
   79MOL0     H10868   5.758   8.689   0.749  0.5395  3.7676  2.0715
   79MOL0     H10869   5.781   8.544   0.846  0.6096 -0.3943  0.4898
   79MOL0     H10870   5.719   8.784   0.951 -0.8081 -1.4063  1.5436
   79MOL0     H10871   5.898   8.794   0.970  0.2203  1.2668  0.6428
   79MOL0     H10872   5.888   8.577   1.084  1.0284  0.8028  1.4125
   79MOL0     H10873   5.710   8.568   1.044  1.9956  0.6043 -3.7999
   79MOL0     H10874   5.646   8.736   1.188 -1.0886 -1.8242 -3.6792
   79MOL0     H10875   5.733   8.603   1.279  1.8948  0.3161 -0.2827
   79MOL0     H10876   5.898   8.841   1.211  1.2532 -0.2686  0.7409
   79MOL0     H10877   5.910   8.712   1.335 -3.8016 -2.6178  1.8848
   79MOL0     H10878   5.689   8.834   1.442  0.1609 -0.9658 -0.1966
   79MOL0     H10879   5.731   8.960   1.327 -0.5398  0.3754 -0.1117
   79MOL0     H10880   5.931   8.855   1.527  0.6687 -0.0544  0.1353
   79MOL0     H10881   5.822   8.995   1.560 -0.5851  2.2582 -2.1563
   79MOL0     H10882   6.096   8.717   0.454  0.8507 -1.5903 -0.5207
   79MOL0     H10883   6.336   8.705   0.383  0.4351  0.5870  0.1654
   79MOL0     H10884   6.728   8.872   0.440  0.1284  0.7033  2.1783
   79MOL0     H10885   6.969   8.930   0.413  0.8851  0.2310  1.3141
   79MOL0     H10886   6.808   8.132   0.274 -0.3126  3.4051  3.0734
   79MOL0     H10887   6.604   8.164   0.410 -1.3202  0.9497  0.7805
   79MOL0     H10888   6.035   7.986   0.281 -0.1476  0.3426 -0.7730
   79MOL0     H10889   5.818   8.032   0.352  0.5917 -0.8858  1.1516
   79MOL0     H10890   5.728   8.388   0.618 -3.3149 -1.3291  2.1754
   79MOL0     H10891   5.715   8.468   0.459 -1.8844  0.7531  0.0877
   79MOL0     H10892   5.482   8.319   0.464  0.6919  0.1162  0.6459
   79MOL0     H10893   5.504   8.488   0.522  1.9810 -0.3741 -3.5745
   79MOL0     H10894   5.369   8.339   0.652  0.6397 -3.0589 -1.0092
   79MOL0     H10895   5.517   8.241   0.672  2.7528  1.2544 -1.5997
   79MOL0     H10896   5.624   8.394   0.821 -1.0389 -3.7368  2.6806
   79MOL0     H10897   5.469   8.370   0.881  1.6081 -3.0044 -0.4648
   79MOL0     H10898   5.462   8.771   0.718  2.2422  0.8769  1.0633
   79MOL0     H10899   5.934   8.427   0.471 -2.9890 -1.3294  0.0283
   79MOL0     H10900   6.249   8.423   0.304 -0.0818  1.0261 -0.0422
   79MOL0     H10901   6.124   8.513   0.387 -1.2666 -0.9031 -2.3461
   79MOL0     H10902   6.246   8.422   0.484 -2.1431 -0.5978  1.1538
   80MOL0     O10903   9.105   3.935   5.999 -0.0649  0.5497 -0.3038
   80MOL0     C10904   9.092   3.963   6.120  0.6203  0.6571 -0.8305
   80MOL0     O10905   9.179   3.935   6.218  0.4910  0.4921  0.2738
   80MOL0     C10906   9.291   3.869   6.183  1.0826 -0.1666  1.2028
   80MOL0     C10907   9.298   3.749   6.109  0.4841  1.0209 -0.1045
   80MOL0     C10908   9.408   3.686   6.072  0.3570  0.0739 -0.8653
   80MOL0     C10909   9.522   3.741   6.121  0.0664  0.8427 -0.1938
   80MOL0     O10910   9.641   3.691   6.087  0.0236 -0.7301 -0.0327
   80MOL0     C10911   9.668   3.722   5.944 -0.1460  0.5109 -0.3728
   80MOL0     C10912   9.759   3.612   5.885 -0.1932  0.2630  0.6316
   80MOL0     C10913   9.686   3.481   5.868 -0.6380 -0.1380  0.1012
   80MOL0     C10914   9.634   3.458   5.724  0.5408 -0.1626 -0.1276
   80MOL0     C10915   9.520   3.362   5.727  0.1525  0.0844 -1.1399
   80MOL0     C10916   9.446   3.362   5.579 -0.0963  0.5021 -0.3534
   80MOL0     C10917   9.530   3.274   5.488 -0.0900  0.3746 -0.3520
   80MOL0     C10918   9.461   3.218   5.367 -0.3496  0.9215  0.1905
   80MOL0     N10919   9.427   3.313   5.260  0.4918  0.1198 -0.2439
   80MOL0     C10920   9.310   3.387   5.254  0.6782  0.2341 -0.1388
   80MOL0     C10921   9.321   3.460   5.144 -0.7741  0.1148  0.7580
   80MOL0     C10922   9.218   3.553   5.092 -0.3430 -0.0119 -0.5134
   80MOL0     C10923   9.103   3.477   5.026  0.5123 -0.7415  0.9990
   80MOL0     C10924   9.162   3.401   4.908  0.0398 -0.0869  0.2760
   80MOL0     C10925   9.054   3.317   4.836  0.1672 -0.4022 -0.0660
   80MOL0     O10926   8.981   3.400   4.748 -0.8062  0.1749  0.2924
   80MOL0     C10927   8.914   3.335   4.648  0.3266 -0.1531 -0.5432
   80MOL0     C10928   8.793   3.258   4.669 -0.3308 -0.4246  0.3663
   80MOL0     C10929   8.719   3.215   4.554  0.3011  0.8572 -0.7552
   80MOL0     C10930   8.593   3.130   4.591  0.7169 -0.1327  0.3239
   80MOL0     C10931   8.771   3.248   4.428  0.1620  0.0331  0.0982
   80MOL0     C10932   8.697   3.199   4.298 -0.6163  0.4208  0.6548
   80MOL0     O10933   8.765   3.162   4.186 -0.1961 -0.4789  0.0935
   80MOL0     C10934   8.706   3.107   4.075 -0.4738 -0.0739  0.6225
   80MOL0     C10935   8.755   2.984   4.017 -0.4889 -0.2454 -0.4323
   80MOL0     C10936   8.714   2.939   3.891 -0.0529 -0.4521  0.0355
   80MOL0     C10937   8.607   2.997   3.824 -0.3465 -0.3904  0.7092
   80MOL0     O10938   8.551   2.949   3.708  1.1356 -0.9045  0.3399
   80MOL0     C10939   8.476   3.045   3.624  0.8500 -0.4067 -0.3263
   80MOL0     C10940   8.457   2.964   3.497  0.1587  0.3278 -0.7998
   80MOL0     C10941   8.351   3.013   3.403  0.3130 -0.7875 -0.1759
   80MOL0     C10942   8.325   2.914   3.290  0.0229  0.4261  0.2044
   80MOL0     C10943   8.208   2.969   3.212  0.9107  1.1749 -0.0920
   80MOL0     C10944   8.164   2.860   3.118  0.5416  0.9716 -0.3515
   80MOL0     C10945   8.055   2.918   3.019 -0.4489 -0.4787  0.2576
   80MOL0     C10946   8.031   2.825   2.902 -0.3821  0.4699 -0.4844
   80MOL0    Cl10947   7.923   2.679   2.942  0.2972 -0.0223 -0.4088
   80MOL0     C10948   8.539   3.108   3.893  0.6605 -0.6782 -0.3993
   80MOL0     C10949   8.599   3.168   4.009 -0.3968 -0.2067  0.7812
   80MOL0     O10950   8.573   3.207   4.306  0.4864  0.2366  0.5941
   80MOL0     C10951   8.892   3.321   4.405  0.2313  0.3673 -0.2864
   80MOL0     C10952   8.963   3.363   4.520  0.4015  0.3145  1.1538
   80MOL0     N10953   9.445   3.435   5.086  0.3444  0.2639  0.0126
   80MOL0     N10954   9.506   3.347   5.158 -0.8416 -0.6101  0.8569
   80MOL0     C10955   9.526   3.854   6.204 -0.3384 -0.0441 -1.3243
   80MOL0     C10956   9.407   3.928   6.226  0.2975 -1.0411 -0.6313
   80MOL0     C10957   8.961   4.023   6.156 -0.1102 -0.5129  0.0840
   80MOL0     C10958   8.950   4.063   6.290 -0.3704 -0.3638 -0.3550
   80MOL0     C10959   8.831   4.118   6.335  0.8742 -0.2974  0.8427
   80MOL0     C10960   8.716   4.125   6.252  1.2433  0.2291  0.2676
   80MOL0     O10961   8.601   4.160   6.317  0.3470  0.0150  0.0992
   80MOL0     C10962   8.474   4.185   6.255 -0.0179  0.5876 -0.0718
   80MOL0     C10963   8.379   4.262   6.350  0.3533  0.3421  0.6521
   80MOL0     C10964   8.413   4.413   6.363  0.1590 -0.1639 -0.0107
   80MOL0     C10965   8.319   4.488   6.269  0.0218 -0.1136 -0.0129
   80MOL0     C10966   8.321   4.632   6.291  0.1316 -0.6390 -0.1665
   80MOL0     C10967   8.331   4.752   6.313  0.6810 -0.5633  0.2347
   80MOL0     C10968   8.724   4.068   6.125  0.5870 -0.9068 -0.6424
   80MOL0     C10969   8.851   4.037   6.075 -0.1265 -0.0370  0.2990
   80MOL0     C10970   8.850   3.989   5.938 -0.0993 -0.6655  0.9255
   80MOL0     H10971   9.200   3.705   6.090 -1.1745  3.2183  2.5936
   80MOL0     H10972   9.403   3.610   5.994 -0.9018  1.3294 -2.0637
   80MOL0     H10973   9.737   3.807   5.944  1.8629 -1.0134  1.2033
   80MOL0     H10974   9.580   3.754   5.887 -1.4375 -0.4063  1.0371
   80MOL0     H10975   9.803   3.647   5.790  1.3825 -0.1573  1.1649
   80MOL0     H10976   9.846   3.590   5.948  0.2967  0.1818 -0.0541
   80MOL0     H10977   9.737   3.395   5.911 -0.7371  0.0107  0.5177
   80MOL0     H10978   9.593   3.505   5.921 -1.6055  0.3101 -1.6978
   80MOL0     H10979   9.583   3.545   5.681 -1.4042 -0.7095  0.9546
   80MOL0     H10980   9.711   3.420   5.656  1.0983 -1.8955  1.3834
   80MOL0     H10981   9.448   3.388   5.804  0.3513 -2.4033  0.0067
   80MOL0     H10982   9.562   3.265   5.759 -1.2598  0.2903  1.6095
   80MOL0     H10983   9.349   3.311   5.578  0.9031 -1.5016 -1.2749
   80MOL0     H10984   9.443   3.466   5.545  0.4264  0.6566  0.0584
   80MOL0     H10985   9.583   3.197   5.546  1.9944  1.1323 -1.1353
   80MOL0     H10986   9.608   3.342   5.453  0.3354  0.8497  1.3897
   80MOL0     H10987   9.521   3.134   5.330  0.8070  2.0294 -0.5186
   80MOL0     H10988   9.371   3.164   5.396  0.3431 -0.9486 -0.9652
   80MOL0     H10989   9.223   3.382   5.319  0.4135  0.2818 -0.4893
   80MOL0     H10990   9.270   3.622   5.025 -0.4078 -1.0062 -1.6219
   80MOL0     H10991   9.176   3.610   5.176 -0.9481  1.9327 -2.0521
   80MOL0     H10992   9.063   3.397   5.089 -0.3433 -1.4400 -0.3947
   80MOL0     H10993   9.020   3.544   5.003  1.2180 -0.2610 -0.2177
   80MOL0     H10994   9.204   3.463   4.829 -1.0048 -2.8416 -2.7032
   80MOL0     H10995   9.234   3.329   4.948  2.5187  0.6386 -2.5043
   80MOL0     H10996   9.111   3.245   4.777  2.2434 -1.2482  2.7624
   80MOL0     H10997   8.988   3.262   4.904 -1.2066  0.5211 -0.5966
   80MOL0     H10998   8.764   3.251   4.773 -2.4203  0.2752 -0.1311
   80MOL0     H10999   8.597   3.037   4.533  0.2566 -0.0814  0.2067
   80MOL0     H11000   8.501   3.181   4.562 -0.0345 -3.1860 -3.5525
   80MOL0     H11001   8.608   3.100   4.695  1.6679  0.3609  0.3378
   80MOL0     H11002   8.836   2.938   4.072 -0.4856  1.3709  1.0205
   80MOL0     H11003   8.770   2.857   3.846  0.1118 -0.4090  0.1603
   80MOL0     H11004   8.382   3.066   3.676  0.1899  0.0050 -1.6645
   80MOL0     H11005   8.529   3.134   3.591 -1.1618  0.1921 -2.1436
   80MOL0     H11006   8.554   2.942   3.451 -1.0163 -1.9021 -2.4514
   80MOL0     H11007   8.423   2.865   3.529  0.2895  0.7754  0.8092
   80MOL0     H11008   8.377   3.115   3.371  1.2860 -1.3464 -1.2351
   80MOL0     H11009   8.258   3.026   3.460 -0.6130 -3.3490 -0.9947
   80MOL0     H11010   8.314   2.814   3.332 -0.5388  1.0164  1.5671
   80MOL0     H11011   8.412   2.907   3.225  0.3050 -4.8687  0.7161
   80MOL0     H11012   8.126   2.988   3.281 -0.0989  0.7697 -1.1472
   80MOL0     H11013   8.235   3.062   3.160  1.1931  2.0491  1.5515
   80MOL0     H11014   8.124   2.769   3.164  1.1458  1.8254  2.0460
   80MOL0     H11015   8.250   2.821   3.063  1.4617  0.6735  1.2059
   80MOL0     H11016   8.105   3.010   2.988  2.4669 -3.2532 -4.3637
   80MOL0     H11017   7.958   2.940   3.065 -1.3674  1.2877 -2.3102
   80MOL0     H11018   8.130   2.792   2.870 -0.4759 -1.3891  0.9529
   80MOL0     H11019   7.979   2.893   2.834 -2.5159 -1.8419 -1.3109
   80MOL0     H11020   8.452   3.165   3.862  1.4388  1.9371  1.9165
   80MOL0     H11021   8.554   3.261   4.039 -2.2970 -1.1484  1.0116
   80MOL0     H11022   8.927   3.347   4.305 -1.6232 -3.0418 -1.9882
   80MOL0     H11023   9.045   3.431   4.501  0.4594 -0.0764 -0.1434
   80MOL0     H11024   9.622   3.891   6.239 -0.4828 -2.0216  1.4920
   80MOL0     H11025   9.392   4.019   6.283 -3.0850 -0.1797 -2.6019
   80MOL0     H11026   9.034   4.056   6.358 -0.3237 -2.0268 -0.5619
   80MOL0     H11027   8.806   4.136   6.439  1.8351 -3.6242  1.7755
   80MOL0     H11028   8.493   4.242   6.163 -1.2685  0.1902 -0.6109
   80MOL0     H11029   8.428   4.088   6.235  0.4276  0.3051  0.2744
   80MOL0     H11030   8.393   4.206   6.443  1.0759 -2.8583 -1.2549
   80MOL0     H11031   8.277   4.247   6.315  0.5297 -2.0150  0.9896
   80MOL0     H11032   8.383   4.442   6.464 -1.6219 -0.6686 -0.3531
   80MOL0     H11033   8.521   4.424   6.349  0.3302  6.6713  2.8506
   80MOL0     H11034   8.220   4.454   6.300 -0.6734  0.4820 -1.4939
   80MOL0     H11035   8.332   4.454   6.166 -2.1121 -1.5675  0.1323
   80MOL0     H11036   8.338   4.859   6.318 -2.8933 -0.1720 -0.6373
   80MOL0     H11037   8.639   4.067   6.057  3.5658 -0.8473 -4.6829
   80MOL0     H11038   8.925   4.050   5.887 -1.6102 -0.8054 -1.6255
   80MOL0     H11039   8.863   3.881   5.927  3.1734 -0.2407 -0.6467
   80MOL0     H11040   8.758   4.026   5.893  1.2706  0.3787 -1.1936
   81MOL0     O11041  10.334   8.662   4.143  0.2203  0.5074  0.1169
   81MOL0     C11042  10.234   8.598   4.118 -0.3561  0.5805 -0.5619
   81MOL0     O11043  10.201   8.472   4.173  0.2989 -1.2951 -0.1608
   81MOL0     C11044  10.305   8.395   4.206 -0.9649 -0.0868  0.4670
   81MOL0     C11045  10.355   8.390   4.340  0.7133  0.1418  0.2611
   81MOL0     C11046  10.457   8.308   4.385 -0.8313 -1.1036  0.6016
   81MOL0     C11047  10.515   8.226   4.293 -0.0615  0.0110 -0.3001
   81MOL0     O11048  10.604   8.132   4.340 -0.0108  0.3994 -0.5774
   81MOL0     C11049  10.694   8.047   4.262  0.6513  0.0065  0.0245
   81MOL0     C11050  10.818   8.132   4.231 -0.2353  0.1755 -0.2271
   81MOL0     C11051  10.916   8.051   4.152 -0.3955 -0.1351  0.2667
   81MOL0     C11052  11.055   8.079   4.216 -0.4256 -0.3910 -0.0626
   81MOL0     C11053  11.187   8.011   4.153  0.6159 -0.3485  0.7949
   81MOL0     C11054  11.183   7.857   4.157  0.7252  0.3274 -0.3218
   81MOL0     C11055  11.314   7.811   4.098 -1.1231 -0.1724  0.7576
   81MOL0     C11056  11.329   7.666   4.095  0.3193  0.0296  0.4337
   81MOL0     N11057  11.452   7.622   4.013 -0.3006 -1.2874  0.0610
   81MOL0     C11058  11.585   7.661   4.046  0.1728 -0.1140 -0.6295
   81MOL0     C11059  11.664   7.577   3.976  0.4836  0.2267  0.5223
   81MOL0     C11060  11.809   7.586   3.993 -0.2856  0.7883  0.0036
   81MOL0     C11061  11.870   7.453   4.037 -0.4698  0.9941  0.6745
   81MOL0     C11062  12.015   7.456   4.038  0.0066 -0.0180  0.4934
   81MOL0     C11063  12.068   7.336   4.127  0.0464  0.2804  0.4208
   81MOL0     O11064  12.199   7.306   4.091 -0.4549 -0.2410 -0.1328
   81MOL0     C11065  12.279   7.259   4.198  0.2263 -0.4195 -0.5703
   81MOL0     C11066  12.233   7.151   4.273 -0.0140  0.3488 -0.1992
   81MOL0     C11067  12.314   7.091   4.366 -1.3517 -0.2075 -0.2426
   81MOL0     C11068  12.251   6.970   4.434 -0.0750 -0.4603  0.1329
   81MOL0     C11069  12.443   7.147   4.381 -0.0618  0.0672 -0.1058
   81MOL0     C11070  12.534   7.093   4.483  0.1101 -0.4697 -0.2111
   81MOL0     O11071  12.499   6.984   4.552 -0.5104  0.4238 -0.1348
   81MOL0     C11072  12.543   6.969   4.683  0.2546  0.2277 -0.7095
   81MOL0     C11073  12.626   6.868   4.723  0.1704  0.7593  0.2004
   81MOL0     C11074  12.650   6.835   4.855  0.5220  0.0455 -0.9794
   81MOL0     C11075  12.593   6.921   4.954 -0.7040 -0.9529 -0.0349
   81MOL0     O11076  12.614   6.866   5.083  0.4893  0.0037  0.0111
   81MOL0     C11077  12.569   6.925   5.206 -0.1557 -0.3490 -0.4294
   81MOL0     C11078  12.624   6.855   5.331 -0.8554  1.6151  0.2019
   81MOL0     C11079  12.772   6.841   5.323 -0.1469  0.9014  0.2201
   81MOL0     C11080  12.834   6.817   5.462 -0.6220 -0.3320 -0.4084
   81MOL0     C11081  12.986   6.832   5.453 -0.0900  0.3542 -0.5039
   81MOL0     C11082  13.058   6.740   5.348 -0.2949  0.0590 -0.2294
   81MOL0     C11083  13.070   6.595   5.382  0.8536  0.3002  0.7248
   81MOL0     C11084  13.093   6.498   5.262  0.1588  0.6846  0.3184
   81MOL0    Cl11085  13.258   6.508   5.221  0.1150 -0.0580 -0.0062
   81MOL0     C11086  12.520   7.028   4.910  0.5932  0.3917 -0.5413
   81MOL0     C11087  12.486   7.048   4.777  0.2398 -0.3190 -0.3532
   81MOL0     O11088  12.635   7.162   4.510 -0.0914 -0.9362  0.7745
   81MOL0     C11089  12.477   7.263   4.306 -0.2550  0.3159 -0.8128
   81MOL0     C11090  12.403   7.314   4.214  0.4231  0.0077  0.0396
   81MOL0     N11091  11.586   7.499   3.899 -0.0673  0.8923  1.4316
   81MOL0     N11092  11.459   7.519   3.920 -0.1678  0.4251  0.0450
   81MOL0     C11093  10.470   8.222   4.165  0.5611 -0.2908 -0.0226
   81MOL0     C11094  10.370   8.306   4.116  0.5069 -0.1667  0.1856
   81MOL0     C11095  10.134   8.655   4.020  0.4228  0.2672  0.2684
   81MOL0     C11096  10.002   8.605   4.022  0.5702 -0.3878  0.3007
   81MOL0     C11097   9.895   8.678   3.951  0.6228  1.0341 -0.4755
   81MOL0     C11098   9.923   8.787   3.883 -0.7449 -0.5595  0.6688
   81MOL0     O11099   9.834   8.863   3.818  1.5352  0.4212 -0.3689
   81MOL0     C11100   9.690   8.852   3.837  0.8106 -0.1103 -0.4571
   81MOL0     C11101   9.662   8.914   3.971  0.2376  0.3692 -0.4945
   81MOL0     C11102   9.509   8.908   4.013 -0.0224  0.0179  0.3030
   81MOL0     C11103   9.464   8.972   4.138  1.2092  0.3255 -0.4913
   81MOL0     C11104   9.312   8.997   4.138 -0.0700  0.6441  0.5039
   81MOL0     C11105   9.190   9.021   4.142 -0.0113 -1.2419  0.5553
   81MOL0     C11106  10.059   8.822   3.865 -0.9210 -0.4505  0.5896
   81MOL0     C11107  10.165   8.760   3.933  0.2213  0.3748 -0.0325
   81MOL0     C11108  10.298   8.836   3.913 -0.2218  0.5886  0.5005
   81MOL0     H11109  10.315   8.455   4.417  1.6779  2.8863 -1.3936
   81MOL0     H11110  10.497   8.305   4.486  0.1355  0.5540  0.3007
   81MOL0     H11111  10.640   8.004   4.178  1.2299  1.3187 -1.0471
   81MOL0     H11112  10.724   7.963   4.325  2.1032  1.4144  1.3110
   81MOL0     H11113  10.780   8.211   4.166  0.2065 -0.4148 -1.2132
   81MOL0     H11114  10.858   8.162   4.329 -2.6226 -3.4818  2.1325
   81MOL0     H11115  10.888   7.945   4.148  0.2648 -0.2906 -0.4824
   81MOL0     H11116  10.915   8.087   4.049  0.0124  0.5316  0.4899
   81MOL0     H11117  11.070   8.187   4.206 -2.2353 -0.2040 -1.2821
   81MOL0     H11118  11.064   8.058   4.322 -1.1643 -0.8219 -0.0813
   81MOL0     H11119  11.279   8.056   4.191 -0.2064  2.2549 -0.0509
   81MOL0     H11120  11.199   8.045   4.049  0.6917  1.0237  1.2239
   81MOL0     H11121  11.185   7.838   4.265  1.5244  1.1440 -0.1816
   81MOL0     H11122  11.092   7.811   4.116 -0.1934  2.5800 -0.9614
   81MOL0     H11123  11.391   7.845   4.168 -0.7781  2.5159 -0.8081
   81MOL0     H11124  11.331   7.846   3.995 -1.0250 -0.4175  0.6894
   81MOL0     H11125  11.347   7.631   4.197 -0.4045  0.2991  0.6608
   81MOL0     H11126  11.230   7.632   4.063 -0.1552  2.0139 -0.3708
   81MOL0     H11127  11.622   7.730   4.121 -2.1500  1.6974 -1.0572
   81MOL0     H11128  11.821   7.654   4.078 -1.1966 -0.1006  0.8577
   81MOL0     H11129  11.851   7.634   3.904 -1.4288  4.2719  1.1399
   81MOL0     H11130  11.832   7.422   4.134  1.3288 -0.2952  1.0316
   81MOL0     H11131  11.838   7.380   3.962 -1.9706  0.9568  1.3201
   81MOL0     H11132  12.051   7.438   3.936  1.5742 -1.7486  1.2858
   81MOL0     H11133  12.059   7.550   4.071 -1.2149  0.6115  0.3627
   81MOL0     H11134  12.059   7.372   4.230  2.0199  3.1289 -0.2735
   81MOL0     H11135  12.005   7.251   4.100 -0.8791  0.9690  0.3874
   81MOL0     H11136  12.134   7.113   4.252  0.3960  0.1903 -2.1013
   81MOL0     H11137  12.304   6.884   4.392 -0.2945 -0.4446 -0.1823
   81MOL0     H11138  12.147   6.948   4.409 -0.4445  1.3607 -0.0523
   81MOL0     H11139  12.271   6.976   4.542 -1.5511 -0.7855  0.4422
   81MOL0     H11140  12.672   6.807   4.646  2.0907 -1.6943  3.0759
   81MOL0     H11141  12.687   6.743   4.900 -0.5963  0.4800  0.9169
   81MOL0     H11142  12.597   7.030   5.218 -0.5345 -0.3948  0.9719
   81MOL0     H11143  12.459   6.929   5.206 -0.1460  0.9247  1.1753
   81MOL0     H11144  12.602   6.919   5.417  1.4551  3.1100 -0.2265
   81MOL0     H11145  12.590   6.752   5.344  0.5988  1.0890  0.1225
   81MOL0     H11146  12.821   6.933   5.290  3.5887 -1.4159 -1.4279
   81MOL0     H11147  12.819   6.766   5.258  1.6860  1.8254  0.3910
   81MOL0     H11148  12.814   6.718   5.503  4.0379 -0.5372  2.0041
   81MOL0     H11149  12.800   6.886   5.540 -1.6167 -3.2780  1.9733
   81MOL0     H11150  13.015   6.937   5.440 -0.7107  0.3983 -1.6870
   81MOL0     H11151  13.030   6.805   5.550 -1.4820  0.8471  0.3089
   81MOL0     H11152  13.163   6.772   5.351  0.1489 -1.2546  3.0956
   81MOL0     H11153  13.027   6.762   5.246 -1.0438  2.1208  0.3952
   81MOL0     H11154  12.979   6.565   5.434  1.0360  0.8342  1.3800
   81MOL0     H11155  13.154   6.579   5.451  1.9776  0.0702 -0.6385
   81MOL0     H11156  13.038   6.537   5.176 -1.4838  0.9059  1.4209
   81MOL0     H11157  13.062   6.395   5.285  1.4522 -0.0769 -1.1274
   81MOL0     H11158  12.472   7.087   4.988 -0.0104 -2.2865  1.2373
   81MOL0     H11159  12.413   7.122   4.745 -0.4498 -0.3469  1.0828
   81MOL0     H11160  12.560   7.325   4.338  0.8491 -2.5279  2.5066
   81MOL0     H11161  12.435   7.405   4.162  0.8517 -0.9626 -1.4601
   81MOL0     H11162  10.501   8.150   4.090 -2.8482 -0.2357 -1.6908
   81MOL0     H11163  10.332   8.314   4.014  2.7054  1.6229 -0.5573
   81MOL0     H11164   9.978   8.517   4.081  0.0831 -0.8459 -0.5673
   81MOL0     H11165   9.794   8.637   3.952  1.0740 -0.2106  2.0490
   81MOL0     H11166   9.640   8.906   3.756 -0.3872 -0.4510  0.0261
   81MOL0     H11167   9.653   8.749   3.833 -3.8118  1.2597  1.0780
   81MOL0     H11168   9.704   9.014   3.959  0.1847  0.5512  0.6819
   81MOL0     H11169   9.717   8.870   4.055 -0.0244  2.2510  0.7211
   81MOL0     H11170   9.450   8.953   3.933 -1.1868  0.0067  1.1402
   81MOL0     H11171   9.481   8.803   4.017  1.0392 -0.2457  1.2959
   81MOL0     H11172   9.507   9.072   4.151  1.4804 -0.0256  1.6713
   81MOL0     H11173   9.492   8.906   4.220 -2.8231  0.1334  0.9391
   81MOL0     H11174   9.085   9.037   4.151  0.0887  0.1543 -0.3337
   81MOL0     H11175  10.089   8.905   3.801 -0.0117 -1.1294  0.1302
   81MOL0     H11176  10.287   8.919   3.842 -0.0197 -0.3898 -0.7124
   81MOL0     H11177  10.332   8.874   4.010  0.1767 -0.2906  0.7096
   81MOL0     H11178  10.370   8.764   3.875 -0.3072 -0.1552  1.7005
   82MOL0     O11179   4.403  10.704   3.655 -0.0387 -0.1196  0.3380
   82MOL0     C11180   4.435  10.658   3.544 -1.4954 -0.2663  0.6451
   82MOL0     O11181   4.407  10.717   3.423  0.0895  0.1637  0.4047
   82MOL0     C11182   4.294  10.787   3.401 -0.5489  0.4272  0.2596
   82MOL0     C11183   4.226  10.767   3.283  0.5814 -0.8189  0.9728
   82MOL0     C11184   4.118  10.854   3.247 -0.5053 -0.1832 -0.4079
   82MOL0     C11185   4.074  10.964   3.336 -1.3946 -0.8221  0.8934
   82MOL0     O11186   3.966  11.049   3.313 -1.1596  0.0706 -0.2310
   82MOL0     C11187   3.892  11.034   3.196  0.0710 -0.2497  0.5519
   82MOL0     C11188   3.774  11.128   3.169  0.0117  0.2528 -0.2993
   82MOL0     C11189   3.671  11.125   3.281 -0.3771 -0.0457  0.1133
   82MOL0     C11190   3.596  10.989   3.281 -0.9562 -0.8062  0.7429
   82MOL0     C11191   3.471  10.984   3.370 -0.7311  0.0558 -0.5125
   82MOL0     C11192   3.453  10.843   3.430  0.8780  0.7591  0.1032
   82MOL0     C11193   3.317  10.819   3.510 -1.2517 -0.3899  0.0104
   82MOL0     C11194   3.326  10.684   3.589 -0.3690  0.0802 -0.5152
   82MOL0     N11195   3.359  10.577   3.505 -0.0374  0.4064 -0.3861
   82MOL0     C11196   3.491  10.518   3.495  0.0708 -0.0746  0.6773
   82MOL0     C11197   3.461  10.402   3.422 -0.3211 -0.0772  0.0909
   82MOL0     C11198   3.569  10.319   3.366 -0.3445 -0.3858  0.0163
   82MOL0     C11199   3.574  10.189   3.444  0.1392 -1.3598 -0.2491
   82MOL0     C11200   3.632  10.080   3.350 -0.1623  1.1377  0.3348
   82MOL0     C11201   3.763  10.105   3.283 -0.7632  0.1276 -0.2367
   82MOL0     O11202   3.866  10.092   3.377 -0.2387 -0.1536 -0.4888
   82MOL0     C11203   3.999  10.080   3.330 -0.2969  0.4890 -0.3591
   82MOL0     C11204   4.092  10.051   3.433 -1.2378 -0.1085 -0.6810
   82MOL0     C11205   4.232  10.023   3.398  1.1763 -0.0006 -0.2878
   82MOL0     C11206   4.311   9.954   3.504 -0.0959  0.0969 -0.1986
   82MOL0     C11207   4.271  10.048   3.264 -0.8867  0.1886  0.1570
   82MOL0     C11208   4.418  10.040   3.208 -0.5373  0.1476 -0.2662
   82MOL0     O11209   4.430  10.066   3.074  0.0236  0.5904 -0.3285
   82MOL0     C11210   4.558  10.057   3.017 -0.4270  1.3921  0.2227
   82MOL0     C11211   4.554  10.000   2.883 -0.6436 -0.1263 -0.4967
   82MOL0     C11212   4.679   9.981   2.818  1.3115 -0.3437 -0.2216
   82MOL0     C11213   4.799  10.026   2.869  0.2157  0.3873 -1.1489
   82MOL0     O11214   4.913  10.028   2.783  0.4883 -0.6772 -1.3903
   82MOL0     C11215   5.039  10.023   2.845 -0.2758  0.1411  0.5741
   82MOL0     C11216   5.085   9.879   2.887 -0.2085 -0.7148  0.3906
   82MOL0     C11217   5.089   9.856   3.031 -0.1956  0.2962 -0.0938
   82MOL0     C11218   5.176   9.951   3.110  0.8596 -0.5283  0.2376
   82MOL0     C11219   5.228   9.878   3.237 -0.2209  0.4027 -0.5853
   82MOL0     C11220   5.329   9.963   3.314 -0.1153  0.8569 -0.4670
   82MOL0     C11221   5.270  10.089   3.383 -0.2975 -1.2551  0.1640
   82MOL0     C11222   5.364  10.142   3.497  0.2433 -0.1235 -0.2016
   82MOL0    Cl11223   5.511  10.201   3.413 -0.2961 -0.0004 -0.5158
   82MOL0     C11224   4.801  10.065   3.004 -0.5876  1.0761 -1.0377
   82MOL0     C11225   4.683  10.077   3.073 -0.3188 -0.2018  0.4625
   82MOL0     O11226   4.507  10.003   3.286  0.5228  0.8838  0.8411
   82MOL0     C11227   4.177  10.084   3.167  0.4991 -0.2288  0.2131
   82MOL0     C11228   4.038  10.086   3.206 -0.0472  0.5365 -0.3899
   82MOL0     N11229   3.327  10.389   3.399  0.0708  0.6848 -0.0028
   82MOL0     N11230   3.266  10.502   3.432 -0.0354  0.7095  0.4437
   82MOL0     C11231   4.145  10.981   3.452 -0.6542  0.3082 -0.5958
   82MOL0     C11232   4.244  10.895   3.489 -0.6874  1.3226 -0.5607
   82MOL0     C11233   4.503  10.530   3.570  0.0456 -0.2001  0.3356
   82MOL0     C11234   4.623  10.530   3.646 -0.3654  0.6802  0.2290
   82MOL0     C11235   4.703  10.411   3.652 -0.5113 -0.6174 -0.2961
   82MOL0     C11236   4.656  10.294   3.591 -0.3251  0.3061  0.8859
   82MOL0     O11237   4.744  10.192   3.625 -0.1961  0.6106 -0.1006
   82MOL0     C11238   4.726  10.067   3.547 -0.1181  0.0548  0.1195
   82MOL0     C11239   4.841   9.966   3.600  0.1327  0.0407  0.1591
   82MOL0     C11240   4.832   9.826   3.538  1.0166 -0.2571 -0.9378
   82MOL0     C11241   4.860   9.826   3.386 -0.4816  0.0291  1.0007
   82MOL0     C11242   4.888   9.691   3.337 -0.0154 -0.1491  0.0076
   82MOL0     C11243   4.889   9.588   3.279  0.0199 -0.2920  0.0365
   82MOL0     C11244   4.536  10.299   3.514 -0.3548  0.2625 -0.3886
   82MOL0     C11245   4.457  10.413   3.512  0.1261  0.8460  0.2989
   82MOL0     C11246   4.328  10.409   3.442  0.2807 -0.1951  0.6409
   82MOL0     H11247   4.255  10.690   3.212 -0.1248 -0.6747  0.5266
   82MOL0     H11248   4.060  10.819   3.162 -1.4006 -0.0787  0.1447
   82MOL0     H11249   3.864  10.929   3.188 -0.5743 -0.1109  0.9134
   82MOL0     H11250   3.954  11.059   3.109 -5.1814  0.3875 -3.5075
   82MOL0     H11251   3.817  11.227   3.183  0.0200  0.2765 -0.4950
   82MOL0     H11252   3.728  11.115   3.070 -1.3003  1.1721  0.1671
   82MOL0     H11253   3.724  11.150   3.373  1.8839  2.0816 -1.6339
   82MOL0     H11254   3.607  11.208   3.251  0.0901 -0.1998 -1.3935
   82MOL0     H11255   3.563  10.976   3.177  0.5007  2.2527 -0.2345
   82MOL0     H11256   3.669  10.911   3.300  1.3883  0.7153 -1.3338
   82MOL0     H11257   3.387  11.022   3.312 -1.6539 -0.7808  0.2291
   82MOL0     H11258   3.474  11.052   3.456  1.9033 -0.3015 -0.2374
   82MOL0     H11259   3.461  10.775   3.345  5.4863  2.5099 -1.1545
   82MOL0     H11260   3.542  10.822   3.491  0.8797  1.6972  0.4356
   82MOL0     H11261   3.229  10.813   3.445 -0.5374 -1.4157 -0.8841
   82MOL0     H11262   3.320  10.901   3.582  2.9434 -0.0968 -0.2875
   82MOL0     H11263   3.402  10.696   3.666  0.5581  0.9168 -1.5316
   82MOL0     H11264   3.233  10.668   3.644 -0.1889  0.4624 -0.0965
   82MOL0     H11265   3.584  10.557   3.536 -0.3682  0.6920  0.9633
   82MOL0     H11266   3.671  10.357   3.370  0.8573 -3.0067 -2.2752
   82MOL0     H11267   3.545  10.304   3.260  0.2682  1.9356 -0.4982
   82MOL0     H11268   3.631  10.188   3.537 -1.3086  3.4094  0.9436
   82MOL0     H11269   3.474  10.150   3.464 -0.6205  0.8223  0.4452
   82MOL0     H11270   3.643   9.985   3.403 -1.8891  0.1487 -0.9227
   82MOL0     H11271   3.550  10.062   3.279  0.7635 -1.7095 -0.1515
   82MOL0     H11272   3.779  10.029   3.206  3.3233  0.6377 -0.1148
   82MOL0     H11273   3.755  10.205   3.240 -1.7485  2.0590  3.9259
   82MOL0     H11274   4.072  10.040   3.539  1.4988 -1.3077 -0.1931
   82MOL0     H11275   4.395   9.894   3.467  0.8726  1.9533 -1.1504
   82MOL0     H11276   4.245   9.886   3.558  1.1466  0.0072  1.2815
   82MOL0     H11277   4.348  10.029   3.575  4.0654 -1.9909  0.1633
   82MOL0     H11278   4.462   9.962   2.838  0.4616 -3.4305 -0.2172
   82MOL0     H11279   4.670   9.942   2.717 -1.0733 -1.9079  0.5354
   82MOL0     H11280   5.109  10.066   2.774 -2.2022 -0.5039 -1.8809
   82MOL0     H11281   5.056  10.087   2.931  0.3359 -2.0759  2.1998
   82MOL0     H11282   5.029   9.797   2.840 -0.7244 -1.1171  1.6584
   82MOL0     H11283   5.189   9.874   2.853 -0.0244  2.7179  0.0542
   82MOL0     H11284   5.126   9.756   3.053 -1.3036 -0.1067 -0.0090
   82MOL0     H11285   4.984   9.865   3.062 -0.5236 -1.0940 -0.7325
   82MOL0     H11286   5.112  10.033   3.144  1.4106  0.4688 -1.0386
   82MOL0     H11287   5.262   9.988   3.052 -0.6574  1.0753 -1.0956
   82MOL0     H11288   5.142   9.848   3.297  1.5075 -0.7420  1.4385
   82MOL0     H11289   5.280   9.786   3.210 -0.3894 -0.3759  1.6079
   82MOL0     H11290   5.413   9.989   3.249  0.7150 -1.3027 -0.3162
   82MOL0     H11291   5.372   9.898   3.391  0.1246 -0.7753 -1.9286
   82MOL0     H11292   5.183  10.060   3.443 -0.8461  1.4176  0.7795
   82MOL0     H11293   5.246  10.175   3.319  0.8781 -1.4454 -0.5647
   82MOL0     H11294   5.401  10.054   3.551  1.1492  1.6315  2.2122
   82MOL0     H11295   5.315  10.217   3.559  0.3704  0.6941 -1.0757
   82MOL0     H11296   4.891  10.077   3.063 -1.1651  1.8733 -0.2910
   82MOL0     H11297   4.682  10.105   3.178  0.3963 -0.5308  0.5597
   82MOL0     H11298   4.190  10.105   3.061 -0.4198  1.7382  0.4384
   82MOL0     H11299   3.968  10.116   3.129 -2.1512  1.0231  1.6128
   82MOL0     H11300   4.135  11.075   3.505  0.6323 -0.4899  1.1509
   82MOL0     H11301   4.309  10.913   3.574  3.3666  0.8656 -3.2581
   82MOL0     H11302   4.651  10.626   3.688  1.2957  1.3051 -2.1162
   82MOL0     H11303   4.799  10.405   3.701  0.1058  2.3574 -0.9362
   82MOL0     H11304   4.627  10.023   3.559 -0.4037  0.9948  1.4893
   82MOL0     H11305   4.750  10.083   3.442  1.3427 -3.1016 -0.1533
   82MOL0     H11306   4.848   9.962   3.709 -1.6422 -0.7760  0.2862
   82MOL0     H11307   4.933  10.010   3.561  0.6340 -1.0545  0.0414
   82MOL0     H11308   4.894   9.759   3.599 -1.2690 -1.2951  0.3888
   82MOL0     H11309   4.726   9.800   3.549  1.6428 -2.1970  1.2086
   82MOL0     H11310   4.940   9.896   3.366 -2.7038  2.2220 -0.8668
   82MOL0     H11311   4.776   9.857   3.324  1.0943  0.0086 -1.2237
   82MOL0     H11312   4.875   9.493   3.230  2.6735 -0.8417  0.1751
   82MOL0     H11313   4.510  10.220   3.444  0.6930 -0.3776 -0.0764
   82MOL0     H11314   4.257  10.350   3.501 -1.2268 -1.3167 -2.1233
   82MOL0     H11315   4.276  10.502   3.416 -0.6713 -0.2960  2.0476
   82MOL0     H11316   4.338  10.355   3.348  1.5270 -0.3220  0.8383
   83MOL0     O11317  10.126   2.293   6.181  0.1964  0.2344 -0.5588
   83MOL0     C11318  10.140   2.192   6.255  0.2431 -0.6311 -0.3118
   83MOL0     O11319  10.244   2.184   6.353  0.4602 -1.0438  0.6433
   83MOL0     C11320  10.341   2.286   6.372  0.4865  0.0510 -0.0624
   83MOL0     C11321  10.400   2.273   6.499  0.6438 -0.9269  0.1952
   83MOL0     C11322  10.501   2.361   6.541  0.3996  0.0526 -0.4444
   83MOL0     C11323  10.536   2.470   6.464  0.7636 -0.1020  0.2834
   83MOL0     O11324  10.624   2.566   6.514 -0.5156 -0.1166 -0.2141
   83MOL0     C11325  10.650   2.686   6.440  0.5292  0.2184  0.5328
   83MOL0     C11326  10.775   2.749   6.508  0.2733 -0.0749  0.5371
   83MOL0     C11327  10.737   2.781   6.655 -0.6553  0.1293  0.1614
   83MOL0     C11328  10.859   2.840   6.726 -0.0024  0.5361  0.4732
   83MOL0     C11329  10.817   2.881   6.867  0.0394 -0.1835  0.4950
   83MOL0     C11330  10.924   2.962   6.947  0.3172  0.4205  0.9313
   83MOL0     C11331  10.933   3.095   6.910  0.7713 -1.6922 -0.6316
   83MOL0     C11332  10.996   3.188   7.012 -0.4382  0.5155 -0.3563
   83MOL0     N11333  11.142   3.155   7.036 -0.1843  0.1972  0.3672
   83MOL0     C11334  11.203   3.200   7.154 -0.2323 -0.2688  0.8878
   83MOL0     C11335  11.319   3.134   7.158 -0.3582  0.3705 -0.7458
   83MOL0     C11336  11.419   3.183   7.257  0.4294  0.0154 -0.3497
   83MOL0     C11337  11.510   3.073   7.305 -0.1919 -0.5843  0.5992
   83MOL0     C11338  11.584   3.139   7.425 -0.1588  0.0009 -0.2819
   83MOL0     C11339  11.689   3.035   7.480 -0.0721 -0.3752  0.6711
   83MOL0     O11340  11.764   3.091   7.582  0.1957 -0.0884 -0.6038
   83MOL0     C11341  11.852   3.019   7.661 -0.3693 -0.7548  0.2372
   83MOL0     C11342  11.893   3.083   7.781 -0.2739  0.2414 -0.1982
   83MOL0     C11343  11.989   3.028   7.864  0.2491  0.4575 -0.5213
   83MOL0     C11344  12.051   3.123   7.965  1.1509  0.0571 -1.1266
   83MOL0     C11345  12.022   2.894   7.850 -0.6233  0.1097  0.0534
   83MOL0     C11346  12.122   2.825   7.940  0.0840 -1.1327 -0.1493
   83MOL0     O11347  12.110   2.691   7.942 -0.3734 -0.9140 -0.3145
   83MOL0     C11348  12.201   2.621   8.021  0.7387 -1.0403  0.1653
   83MOL0     C11349  12.342   2.624   8.002  0.8280 -0.0249 -0.3229
   83MOL0     C11350  12.425   2.556   8.096  0.5638 -1.1150 -0.3344
   83MOL0     C11351  12.369   2.486   8.208 -0.4229 -0.5547 -0.0387
   83MOL0     O11352  12.444   2.413   8.298 -0.5535 -0.8714 -0.5183
   83MOL0     C11353  12.561   2.478   8.343 -0.4237  0.1839  0.1742
   83MOL0     C11354  12.552   2.528   8.484 -0.3813  0.0945  0.0722
   83MOL0     C11355  12.452   2.633   8.517 -0.0357 -0.0146 -0.1367
   83MOL0     C11356  12.427   2.652   8.668  0.0275  0.4363 -0.2541
   83MOL0     C11357  12.325   2.749   8.712  0.0572  0.0676  0.1207
   83MOL0     C11358  12.332   2.769   8.860 -0.0619  0.1878 -0.6863
   83MOL0     C11359  12.452   2.854   8.906 -0.2620  0.8947  0.4357
   83MOL0     C11360  12.444   2.912   9.043 -0.3474  0.8295 -0.8076
   83MOL0    Cl11361  12.354   2.794   9.162  0.0749 -0.5043  0.0106
   83MOL0     C11362  12.235   2.488   8.227  0.9621  0.4553 -0.2762
   83MOL0     C11363  12.147   2.551   8.133  0.5793  1.1584 -0.2330
   83MOL0     O11364  12.199   2.887   8.009  0.0221 -0.3474  0.1729
   83MOL0     C11365  11.969   2.826   7.739  0.1169 -0.1449  0.5035
   83MOL0     C11366  11.893   2.893   7.644 -0.1206  0.2608 -0.2630
   83MOL0     N11367  11.334   3.046   7.052 -0.1986 -0.7092  0.7013
   83MOL0     N11368  11.221   3.053   6.983  0.1359 -0.5964  0.0107
   83MOL0     C11369  10.479   2.479   6.333  0.8767  0.1650  0.0062
   83MOL0     C11370  10.386   2.385   6.290 -0.7696  0.8331 -0.3756
   83MOL0     C11371  10.041   2.076   6.244 -0.7246  0.0209  0.7289
   83MOL0     C11372  10.078   1.948   6.279 -0.4757  0.2370  0.1294
   83MOL0     C11373   9.993   1.834   6.245  0.1727 -0.3646 -0.0863
   83MOL0     C11374   9.883   1.843   6.165 -0.6267  0.3823 -1.1626
   83MOL0     O11375   9.826   1.725   6.117  0.3884  0.2675 -0.2434
   83MOL0     C11376   9.706   1.737   6.040  0.9644 -0.8320 -0.5874
   83MOL0     C11377   9.654   1.605   5.990 -0.4309  0.7149 -1.3019
   83MOL0     C11378   9.567   1.599   5.874 -0.2680 -1.1247  0.4543
   83MOL0     C11379   9.418   1.649   5.908  0.0960 -0.3327 -0.0448
   83MOL0     C11380   9.330   1.582   6.001  0.3964  0.6922 -0.1997
   83MOL0     C11381   9.267   1.522   6.087  1.1134 -0.5916 -0.5877
   83MOL0     C11382   9.845   1.969   6.128 -0.1349 -0.0539 -0.7994
   83MOL0     C11383   9.921   2.080   6.170 -0.5527 -1.2186  0.3020
   83MOL0     C11384   9.858   2.217   6.135  0.0799 -0.5740  0.1962
   83MOL0     H11385  10.358   2.195   6.561 -0.9663 -1.5508 -1.5877
   83MOL0     H11386  10.550   2.349   6.637 -1.8680  0.0788  0.7825
   83MOL0     H11387  10.561   2.750   6.441  1.1693  1.2255 -1.4826
   83MOL0     H11388  10.675   2.661   6.336  0.5548 -3.4902  1.2884
   83MOL0     H11389  10.845   2.666   6.499 -0.6977 -0.9613  1.0082
   83MOL0     H11390  10.812   2.834   6.450 -2.0512  1.6313  1.3732
   83MOL0     H11391  10.670   2.865   6.634 -0.2540  0.3038 -0.4537
   83MOL0     H11392  10.692   2.700   6.713 -1.1539 -1.5353 -2.4249
   83MOL0     H11393  10.948   2.776   6.726 -1.0601 -1.0010 -0.7180
   83MOL0     H11394  10.887   2.929   6.668  0.6711  0.1658  0.2255
   83MOL0     H11395  10.785   2.789   6.917 -2.2824 -0.5051 -1.3654
   83MOL0     H11396  10.723   2.935   6.858  0.2891  0.2758  0.6006
   83MOL0     H11397  10.902   2.958   7.055  0.3231  0.7396  0.9429
   83MOL0     H11398  11.022   2.914   6.933 -0.1795 -1.1972  2.5131
   83MOL0     H11399  10.837   3.129   6.868  1.4753 -0.3553 -1.2250
   83MOL0     H11400  10.999   3.108   6.824  0.8046  1.7560 -0.2086
   83MOL0     H11401  10.998   3.293   6.981 -3.1203  0.4644 -0.8940
   83MOL0     H11402  10.946   3.177   7.108  0.0741  0.8207 -0.0496
   83MOL0     H11403  11.161   3.269   7.226 -0.5811  0.4476  0.0177
   83MOL0     H11404  11.369   3.234   7.340  0.3032 -2.6720  1.3653
   83MOL0     H11405  11.479   3.250   7.196  0.3130  1.1882  0.7749
   83MOL0     H11406  11.450   2.987   7.338 -0.9918 -0.8071 -1.2724
   83MOL0     H11407  11.578   3.034   7.228 -0.6573 -0.0872 -0.0812
   83MOL0     H11408  11.633   3.231   7.390 -2.1003  0.6459 -1.4716
   83MOL0     H11409  11.512   3.165   7.503 -0.1810 -2.2111  0.4989
   83MOL0     H11410  11.644   2.938   7.503  1.7540 -1.8758 -1.6759
   83MOL0     H11411  11.748   3.011   7.391 -0.7385  0.5000 -0.0204
   83MOL0     H11412  11.849   3.174   7.820 -0.7798 -0.3806  0.7421
   83MOL0     H11413  12.160   3.118   7.959  1.2351 -0.3722  0.3386
   83MOL0     H11414  12.017   3.074   8.057 -3.6971  0.9293 -2.1734
   83MOL0     H11415  12.007   3.222   7.952 -2.4114 -1.0151  1.2827
   83MOL0     H11416  12.392   2.673   7.918  0.7789  1.4141  0.4451
   83MOL0     H11417  12.532   2.554   8.074  0.3922  0.0473 -1.4027
   83MOL0     H11418  12.640   2.403   8.347 -1.8776 -1.3647  1.8274
   83MOL0     H11419  12.588   2.562   8.279  0.3995 -1.4016 -1.6320
   83MOL0     H11420  12.531   2.439   8.544  2.3988 -1.8022 -1.5149
   83MOL0     H11421  12.646   2.576   8.512  0.7688 -1.2178 -1.3303
   83MOL0     H11422  12.352   2.607   8.479  0.0592  0.6281 -0.8450
   83MOL0     H11423  12.473   2.731   8.475 -0.1127  0.1622  0.2366
   83MOL0     H11424  12.525   2.682   8.706 -0.5681  0.5128  1.2837
   83MOL0     H11425  12.406   2.554   8.713  1.7663  0.4999  0.7723
   83MOL0     H11426  12.330   2.848   8.666  0.0266  0.9472  1.9049
   83MOL0     H11427  12.227   2.707   8.686  1.8637 -3.3751 -1.7104
   83MOL0     H11428  12.323   2.672   8.910 -0.9082 -0.5594 -2.2038
   83MOL0     H11429  12.245   2.828   8.890  0.4628  0.7038 -0.1643
   83MOL0     H11430  12.474   2.926   8.828 -1.8969  0.0414 -0.8769
   83MOL0     H11431  12.536   2.784   8.918 -1.1886 -0.3720 -0.1759
   83MOL0     H11432  12.384   3.003   9.035 -0.4020  0.8863  0.1721
   83MOL0     H11433  12.546   2.929   9.078 -0.0206 -0.2020 -1.2202
   83MOL0     H11434  12.177   2.437   8.304 -0.9969  2.3240 -0.4276
   83MOL0     H11435  12.040   2.537   8.142  0.9646 -2.1329  0.5424
   83MOL0     H11436  11.983   2.720   7.719 -0.6319  0.0783 -1.3925
   83MOL0     H11437  11.851   2.836   7.562  2.1037 -1.7126 -0.1409
   83MOL0     H11438  10.506   2.539   6.247  2.6776 -1.6569 -0.7744
   83MOL0     H11439  10.358   2.388   6.185  2.4273  1.7136 -1.3077
   83MOL0     H11440  10.168   1.938   6.338  0.2395  0.5274 -0.8913
   83MOL0     H11441  10.033   1.735   6.265 -1.1906 -1.5295 -2.7191
   83MOL0     H11442   9.636   1.794   6.101  1.3317  0.2679 -1.1573
   83MOL0     H11443   9.720   1.798   5.950 -1.3156 -1.1500 -1.2293
   83MOL0     H11444   9.608   1.562   6.080  1.3480  2.7296  0.7074
   83MOL0     H11445   9.740   1.540   5.970  1.8973  3.6442 -1.4764
   83MOL0     H11446   9.604   1.673   5.803  5.1894 -3.3247  0.5545
   83MOL0     H11447   9.561   1.503   5.822 -2.0246  0.4228 -2.4810
   83MOL0     H11448   9.362   1.658   5.815 -1.7320 -0.0344  1.0297
   83MOL0     H11449   9.422   1.752   5.942 -4.0929  0.1211 -0.3049
   83MOL0     H11450   9.203   1.471   6.156  3.7867 -1.9055  1.1251
   83MOL0     H11451   9.755   1.991   6.072 -0.7653 -0.2716  0.0939
   83MOL0     H11452   9.756   2.219   6.098  0.1118  1.7583  0.1248
   83MOL0     H11453   9.853   2.288   6.218 -0.4132  2.9021 -2.5603
   83MOL0     H11454   9.911   2.262   6.051  0.1681  2.9725  1.9448
   84MOL0     O11455   6.318   2.920   7.307  0.2326 -0.1356 -1.1549
   84MOL0     C11456   6.252   2.849   7.233  0.4458  0.2849  0.0510
   84MOL0     O11457   6.315   2.758   7.143  0.0783 -0.6172 -0.1113
   84MOL0     C11458   6.436   2.712   7.179 -0.1922  0.2211 -0.0577
   84MOL0     C11459   6.453   2.603   7.260 -0.0196 -0.1892 -0.3117
   84MOL0     C11460   6.581   2.551   7.273  0.4672 -0.0805 -0.1317
   84MOL0     C11461   6.689   2.614   7.198 -0.1991 -0.2225 -0.1223
   84MOL0     O11462   6.821   2.579   7.206 -0.0075  0.4006  0.4620
   84MOL0     C11463   6.867   2.565   7.339 -0.1279 -0.1186 -0.0831
   84MOL0     C11464   7.020   2.589   7.348 -0.1775  0.0479 -0.5022
   84MOL0     C11465   7.116   2.470   7.318  0.3716  0.0061  0.3770
   84MOL0     C11466   7.096   2.396   7.189  0.1715  0.1426  0.6138
   84MOL0     C11467   7.169   2.257   7.182 -0.6321 -0.4726  0.8527
   84MOL0     C11468   7.330   2.261   7.181 -0.3812  1.0528 -0.8666
   84MOL0     C11469   7.396   2.132   7.145 -0.0511  0.7269  0.1835
   84MOL0     C11470   7.549   2.131   7.154  0.7235 -0.0035  0.5155
   84MOL0     N11471   7.585   1.994   7.123 -0.1251 -0.1555  0.5907
   84MOL0     C11472   7.616   1.891   7.213 -0.1024 -0.3254 -0.1273
   84MOL0     C11473   7.656   1.783   7.135 -0.0966  0.3880  0.8656
   84MOL0     C11474   7.684   1.640   7.177 -0.1905 -0.1226  0.0681
   84MOL0     C11475   7.816   1.585   7.124  0.5262  0.2935 -0.4546
   84MOL0     C11476   7.924   1.677   7.176 -0.8598  0.2906 -0.5799
   84MOL0     C11477   8.059   1.622   7.145 -0.7739 -0.1963  0.1885
   84MOL0     O11478   8.155   1.695   7.227 -0.1572  0.7561  0.3553
   84MOL0     C11479   8.228   1.802   7.180  0.0223 -0.1773  0.0152
   84MOL0     C11480   8.339   1.847   7.251 -0.4858  0.4891 -0.6653
   84MOL0     C11481   8.415   1.961   7.209  0.6500  0.0689 -0.4174
   84MOL0     C11482   8.524   2.015   7.301 -0.2380 -0.2768  0.3432
   84MOL0     C11483   8.378   2.024   7.082 -0.0750 -0.5608 -0.0512
   84MOL0     C11484   8.452   2.149   7.021 -0.2139 -0.1188  0.0616
   84MOL0     O11485   8.425   2.184   6.893 -0.3173  0.3063  0.5582
   84MOL0     C11486   8.445   2.315   6.846  0.0872 -0.1593  0.3693
   84MOL0     C11487   8.343   2.395   6.788  0.0462 -0.0224 -0.3577
   84MOL0     C11488   8.369   2.516   6.718 -0.1291  0.6686 -0.1278
   84MOL0     C11489   8.499   2.553   6.680 -0.1796  0.6581  0.0554
   84MOL0     O11490   8.529   2.652   6.586 -0.4864  0.2522 -0.7049
   84MOL0     C11491   8.455   2.774   6.611 -0.2476 -0.5561  0.1914
   84MOL0     C11492   8.492   2.878   6.517 -0.3921 -0.6893  0.3234
   84MOL0     C11493   8.641   2.915   6.527  0.0860 -0.4605  0.0559
   84MOL0     C11494   8.657   3.075   6.515 -1.4307  0.3181  0.0438
   84MOL0     C11495   8.802   3.122   6.538  0.2326  0.1108 -0.9920
   84MOL0     C11496   8.831   3.272   6.514 -0.6386  0.1670  0.0413
   84MOL0     C11497   8.969   3.340   6.494  0.3927  0.6514 -0.1282
   84MOL0     C11498   9.072   3.262   6.416  0.1836 -0.0194  0.5336
   84MOL0    Cl11499   9.211   3.368   6.397  0.3469 -0.1746 -0.1573
   84MOL0     C11500   8.604   2.470   6.717 -0.5475 -0.4537 -0.3255
   84MOL0     C11501   8.575   2.361   6.803  0.2056  0.3820 -0.2082
   84MOL0     O11502   8.530   2.210   7.093 -0.6344  0.1978 -0.4660
   84MOL0     C11503   8.272   1.966   7.011 -0.3273  0.6701  0.6113
   84MOL0     C11504   8.196   1.866   7.064  0.7394  0.2444  0.1996
   84MOL0     N11505   7.664   1.832   7.003  0.6013  0.2258 -0.5989
   84MOL0     N11506   7.617   1.954   7.000  0.6602  0.2747  0.3112
   84MOL0     C11507   6.669   2.724   7.118  0.2251  0.3651 -0.2338
   84MOL0     C11508   6.539   2.771   7.106 -0.7331 -0.4942  0.8944
   84MOL0     C11509   6.106   2.877   7.226  0.1656 -0.1279  0.6088
   84MOL0     C11510   6.053   2.875   7.096  0.2835 -0.0062 -0.1031
   84MOL0     C11511   5.922   2.904   7.074 -0.4350 -0.3154  0.1095
   84MOL0     C11512   5.836   2.936   7.181 -0.2708  0.6725 -0.1859
   84MOL0     O11513   5.708   2.972   7.144  0.5059  0.5486 -0.4135
   84MOL0     C11514   5.613   3.029   7.235  0.0413 -0.3949  0.1295
   84MOL0     C11515   5.483   3.032   7.153 -0.1566  0.5454  0.1198
   84MOL0     C11516   5.455   3.156   7.066  0.9350  0.0496  0.5179
   84MOL0     C11517   5.390   3.260   7.156  0.4806  0.3080 -0.4989
   84MOL0     C11518   5.262   3.212   7.211 -0.1517  0.2164  0.4078
   84MOL0     C11519   5.142   3.197   7.231  0.4978  0.0023  0.0948
   84MOL0     C11520   5.885   2.945   7.307 -0.6218  0.3684 -0.3600
   84MOL0     C11521   6.025   2.914   7.335  0.6015 -0.3760  0.2484
   84MOL0     C11522   6.067   2.941   7.476 -0.1757 -0.0853 -0.7009
   84MOL0     H11523   6.371   2.550   7.308  2.3713 -2.8447  1.1524
   84MOL0     H11524   6.586   2.453   7.322  0.8612 -0.7757 -1.5191
   84MOL0     H11525   6.844   2.459   7.356 -2.6418  0.4296  0.3166
   84MOL0     H11526   6.810   2.618   7.415  0.2886  0.6890 -0.3269
   84MOL0     H11527   7.056   2.677   7.294  1.0304 -0.4263 -0.5036
   84MOL0     H11528   7.038   2.611   7.454  1.0013  2.4896 -1.1316
   84MOL0     H11529   7.217   2.512   7.323  2.4441 -4.4773  0.9897
   84MOL0     H11530   7.114   2.401   7.403 -0.8304  0.6293  0.8735
   84MOL0     H11531   6.991   2.366   7.179 -0.4310  1.8577  1.4541
   84MOL0     H11532   7.121   2.460   7.105 -1.3638  2.0304  1.5185
   84MOL0     H11533   7.141   2.219   7.083 -2.8122  3.4520 -0.2491
   84MOL0     H11534   7.142   2.191   7.265 -1.7980 -0.9105  0.1546
   84MOL0     H11535   7.362   2.338   7.110  0.9081  1.0535 -0.3104
   84MOL0     H11536   7.369   2.285   7.281  2.2410 -1.8793 -1.0219
   84MOL0     H11537   7.385   2.112   7.038 -1.6390 -1.1281  0.6241
   84MOL0     H11538   7.357   2.049   7.205  2.1391 -0.2540  0.3583
   84MOL0     H11539   7.596   2.200   7.084  0.3052  0.2937  0.5265
   84MOL0     H11540   7.584   2.165   7.252  0.5358  2.6438 -0.2728
   84MOL0     H11541   7.604   1.901   7.321 -0.0036 -0.0821 -0.1383
   84MOL0     H11542   7.602   1.572   7.152 -0.5191  0.2275  0.1843
   84MOL0     H11543   7.687   1.639   7.286 -0.8490 -0.6362  0.0836
   84MOL0     H11544   7.829   1.487   7.169  1.0670  0.8704  0.6873
   84MOL0     H11545   7.813   1.578   7.015 -1.3287  1.1908 -0.5140
   84MOL0     H11546   7.921   1.779   7.136  1.3961  0.8086  0.4111
   84MOL0     H11547   7.912   1.688   7.285 -0.1435 -0.7517 -0.3856
   84MOL0     H11548   8.065   1.514   7.160  2.3981 -0.1424  0.0471
   84MOL0     H11549   8.086   1.642   7.041  1.2775  1.2329  0.9258
   84MOL0     H11550   8.366   1.801   7.345  2.0157  0.2308 -1.4246
   84MOL0     H11551   8.620   2.025   7.250  0.2598 -3.0756  0.5656
   84MOL0     H11552   8.533   1.947   7.386 -2.5580 -1.0679  0.0353
   84MOL0     H11553   8.493   2.115   7.333  1.7170  0.0369  1.3932
   84MOL0     H11554   8.238   2.367   6.794 -0.4289  1.4458 -1.1570
   84MOL0     H11555   8.288   2.577   6.679 -0.7903  1.4341  2.2817
   84MOL0     H11556   8.350   2.755   6.589 -0.4669  0.9746 -0.2137
   84MOL0     H11557   8.473   2.800   6.716  2.0188 -0.6747 -0.1243
   84MOL0     H11558   8.470   2.821   6.427 -2.4036 -0.0729  0.3735
   84MOL0     H11559   8.426   2.964   6.538  0.1904 -0.8554  3.3624
   84MOL0     H11560   8.695   2.858   6.451  0.4851  0.3656 -0.2890
   84MOL0     H11561   8.674   2.885   6.627 -1.0752 -1.0967  0.2671
   84MOL0     H11562   8.598   3.127   6.592  0.2536 -1.4065  2.6692
   84MOL0     H11563   8.621   3.108   6.417 -3.7486  2.9743  1.6542
   84MOL0     H11564   8.833   3.102   6.642 -1.1534  0.1644 -0.5491
   84MOL0     H11565   8.865   3.051   6.483  1.1424 -2.4567  2.9254
   84MOL0     H11566   8.790   3.330   6.598  1.1110  0.8425  0.4647
   84MOL0     H11567   8.774   3.297   6.424  1.6852 -0.4896 -1.6923
   84MOL0     H11568   9.011   3.353   6.594  0.8369 -0.2631 -0.1845
   84MOL0     H11569   8.956   3.440   6.453  0.1845 -0.1715 -2.2053
   84MOL0     H11570   9.009   3.234   6.332  1.8751 -1.4355 -0.3282
   84MOL0     H11571   9.099   3.164   6.457  0.9947 -1.6158 -3.3612
   84MOL0     H11572   8.702   2.498   6.678 -0.9256 -1.6570 -2.3140
   84MOL0     H11573   8.662   2.296   6.806  0.3027  0.4461 -1.3827
   84MOL0     H11574   8.259   2.008   6.912 -0.2974 -0.4013  0.1433
   84MOL0     H11575   8.105   1.851   7.006  0.3254  1.8843  0.3914
   84MOL0     H11576   6.745   2.765   7.052 -0.6144 -1.0681 -2.1792
   84MOL0     H11577   6.507   2.857   7.047 -0.4813 -0.4857  0.7701
   84MOL0     H11578   6.125   2.848   7.020  2.1745  0.0368  1.5798
   84MOL0     H11579   5.889   2.897   6.971  1.5548 -0.1941 -0.5734
   84MOL0     H11580   5.599   2.975   7.329  0.5821  3.1057  2.3602
   84MOL0     H11581   5.637   3.132   7.262  0.0779  0.8738 -3.9777
   84MOL0     H11582   5.409   3.022   7.232  1.5322  0.0419  1.7045
   84MOL0     H11583   5.490   2.942   7.091  3.5493  0.0003  1.0884
   84MOL0     H11584   5.539   3.203   7.014 -2.3243  4.0592 -1.8345
   84MOL0     H11585   5.383   3.142   6.985  1.3905  2.1751 -0.3369
   84MOL0     H11586   5.367   3.346   7.092 -1.7875 -0.4368 -0.8072
   84MOL0     H11587   5.456   3.292   7.237 -0.0466  1.8561 -0.6422
   84MOL0     H11588   5.039   3.172   7.247  0.3717  0.2495 -0.3185
   84MOL0     H11589   5.825   2.972   7.394  1.1945  2.1932  0.4276
   84MOL0     H11590   6.175   2.927   7.492  0.1610  1.7976 -1.0930
   84MOL0     H11591   6.063   3.048   7.497 -0.4568  0.1409 -1.8459
   84MOL0     H11592   6.002   2.892   7.548 -1.3698  1.6097 -0.5721
   85MOL0     O11593   7.866  10.166   3.928 -0.2081  1.0967 -0.1351
   85MOL0     C11594   7.854  10.057   3.876 -0.9637  0.2514 -0.5063
   85MOL0     O11595   7.862  10.037   3.743  0.0638 -0.1082 -0.5779
   85MOL0     C11596   7.913  10.139   3.673 -0.2290  0.5915 -0.2594
   85MOL0     C11597   8.049  10.176   3.667  0.5224  0.6745 -0.1182
   85MOL0     C11598   8.095  10.286   3.596  0.8768  0.4441  0.1041
   85MOL0     C11599   8.010  10.351   3.514 -0.0952 -0.3778 -0.5934
   85MOL0     O11600   8.058  10.453   3.440 -0.0548  0.9340  0.4309
   85MOL0     C11601   8.015  10.587   3.459  0.5725  0.1768  0.2273
   85MOL0     C11602   8.136  10.664   3.515  0.1941  0.0744  0.8426
   85MOL0     C11603   8.083  10.785   3.607 -0.2368  0.0342  0.1552
   85MOL0     C11604   8.180  10.898   3.633  0.0900 -0.1468  0.0335
   85MOL0     C11605   8.143  11.021   3.710  0.7943 -0.7592 -0.3351
   85MOL0     C11606   8.181  11.019   3.865 -0.5962 -0.1472  0.1639
   85MOL0     C11607   8.137  11.147   3.933 -0.5591  0.1358  0.1635
   85MOL0     C11608   8.071  11.116   4.065 -0.0684  0.5030 -0.5456
   85MOL0     N11609   8.142  11.021   4.150 -0.3568 -0.3519  0.5027
   85MOL0     C11610   8.275  11.024   4.174  0.6622 -0.0541 -0.0155
   85MOL0     C11611   8.290  10.934   4.274  0.4459 -0.2576  0.1720
   85MOL0     C11612   8.415  10.895   4.345  0.2262 -0.2459  0.0242
   85MOL0     C11613   8.414  10.963   4.488  0.3136 -0.4305  0.1856
   85MOL0     C11614   8.315  10.892   4.587  0.7172  0.1399  0.1623
   85MOL0     C11615   8.364  10.749   4.632  0.5590  0.2260  0.5330
   85MOL0     O11616   8.487  10.757   4.703  0.6807 -0.4310 -0.5217
   85MOL0     C11617   8.484  10.812   4.833 -0.1106 -0.8912 -0.1161
   85MOL0     C11618   8.607  10.817   4.889 -0.0662  0.1725 -0.3405
   85MOL0     C11619   8.628  10.878   5.012  0.2726  0.8012 -0.2936
   85MOL0     C11620   8.770  10.881   5.071  0.0046  0.0134 -0.2539
   85MOL0     C11621   8.524  10.955   5.074  0.2356  0.7078 -0.0254
   85MOL0     C11622   8.552  11.019   5.206 -0.2772 -0.1018  0.1985
   85MOL0     O11623   8.479  10.979   5.312 -0.4539  0.3682 -0.0521
   85MOL0     C11624   8.464  11.060   5.416  0.5357 -0.4732  0.5608
   85MOL0     C11625   8.378  11.177   5.417 -0.2049  0.3292 -1.1867
   85MOL0     C11626   8.342  11.233   5.542  0.6193  0.8207  0.3217
   85MOL0     C11627   8.394  11.184   5.660  0.1149 -0.0701  0.5794
   85MOL0     O11628   8.354  11.244   5.775 -0.0439  0.0988  0.7979
   85MOL0     C11629   8.375  11.186   5.901  0.1163  0.1895 -0.1315
   85MOL0     C11630   8.513  11.222   5.949 -1.0079 -0.1355  0.0775
   85MOL0     C11631   8.520  11.305   6.075 -0.2864 -0.4835 -0.5740
   85MOL0     C11632   8.596  11.245   6.194  0.4509  0.3388 -0.1022
   85MOL0     C11633   8.582  11.314   6.325  1.0508 -0.6454 -0.6133
   85MOL0     C11634   8.613  11.216   6.443 -1.5513 -0.3685 -0.9878
   85MOL0     C11635   8.602  11.281   6.581 -0.1693  0.5218  0.4441
   85MOL0     C11636   8.698  11.399   6.602 -0.1337 -0.2167 -0.3968
   85MOL0    Cl11637   8.863  11.346   6.654  0.1654 -0.3433  0.0540
   85MOL0     C11638   8.481  11.074   5.652 -0.1829  0.4697  0.1844
   85MOL0     C11639   8.516  11.009   5.532 -0.2096  0.0316 -0.4771
   85MOL0     O11640   8.619  11.124   5.203  0.1029  0.8093  0.2692
   85MOL0     C11641   8.392  10.950   5.016 -0.3660 -0.0574  0.3500
   85MOL0     C11642   8.371  10.869   4.898 -0.7918  0.3288  0.1967
   85MOL0     N11643   8.164  10.871   4.301 -0.7559  0.5117  0.3930
   85MOL0     N11644   8.081  10.917   4.211 -0.0420  0.9287 -1.0719
   85MOL0     C11645   7.872  10.312   3.514  1.0662 -0.4010 -0.3996
   85MOL0     C11646   7.826  10.209   3.592 -0.5580 -0.5247  0.6503
   85MOL0     C11647   7.858   9.941   3.967 -0.1236  0.3166  0.1761
   85MOL0     C11648   7.913   9.959   4.093 -0.1368  0.6639 -0.0127
   85MOL0     C11649   7.907   9.854   4.195  0.5471 -0.6342  0.2986
   85MOL0     C11650   7.833   9.737   4.167  0.1695 -0.2530 -0.4370
   85MOL0     O11651   7.826   9.622   4.242 -0.3744 -0.2740 -0.0402
   85MOL0     C11652   7.855   9.614   4.377  0.3701 -0.3749  0.0720
   85MOL0     C11653   7.981   9.531   4.397  1.4896 -0.0590 -0.4368
   85MOL0     C11654   7.943   9.384   4.398  0.0888 -0.4012 -0.2208
   85MOL0     C11655   7.860   9.325   4.521 -0.1143 -0.0326 -0.5378
   85MOL0     C11656   7.942   9.328   4.644  0.4361  0.6602 -0.0504
   85MOL0     C11657   8.021   9.324   4.736  1.2583 -0.7032 -0.1185
   85MOL0     C11658   7.799   9.719   4.032 -0.4816 -0.1846  0.4518
   85MOL0     C11659   7.821   9.808   3.931  0.6082 -0.7150 -0.1709
   85MOL0     C11660   7.783   9.764   3.787 -0.6225 -0.3528 -0.0461
   85MOL0     H11661   8.125  10.131   3.730  1.1861  0.3507 -1.1185
   85MOL0     H11662   8.198  10.319   3.591  0.9167  0.2644 -0.3865
   85MOL0     H11663   7.936  10.581   3.535 -0.0112 -0.6635 -0.4184
   85MOL0     H11664   7.974  10.630   3.367 -0.8326  2.5823  1.8877
   85MOL0     H11665   8.211  10.606   3.570 -0.6019  0.2676  2.1915
   85MOL0     H11666   8.192  10.710   3.433 -0.6777  0.8366  0.6565
   85MOL0     H11667   8.000  10.831   3.553 -1.4391 -3.3446 -1.1235
   85MOL0     H11668   8.026  10.739   3.688  1.4442  2.0163  2.6385
   85MOL0     H11669   8.257  10.855   3.698 -0.8725 -0.5147  0.9519
   85MOL0     H11670   8.221  10.934   3.539  0.0434 -1.0927 -0.3645
   85MOL0     H11671   8.034  11.027   3.711  0.5934 -0.4723  4.9371
   85MOL0     H11672   8.186  11.117   3.679 -0.1497  0.0322  0.7101
   85MOL0     H11673   8.127  10.931   3.898  0.6230 -1.6957 -1.7487
   85MOL0     H11674   8.288  11.000   3.880 -0.7979  0.1385  2.2087
   85MOL0     H11675   8.062  11.193   3.868  1.3851 -0.0771 -2.3821
   85MOL0     H11676   8.225  11.207   3.956  0.0212 -0.2678 -0.9600
   85MOL0     H11677   8.055  11.210   4.119 -1.8313  1.0948 -1.9975
   85MOL0     H11678   7.973  11.075   4.040 -0.1972 -0.7028  1.7138
   85MOL0     H11679   8.363  11.069   4.131  2.1914 -2.1285  0.7943
   85MOL0     H11680   8.502  10.924   4.285 -0.4068 -0.8742 -1.2507
   85MOL0     H11681   8.434  10.788   4.350  2.5774  0.0986 -0.6456
   85MOL0     H11682   8.513  10.960   4.535 -0.0433 -2.0358  0.9086
   85MOL0     H11683   8.378  11.065   4.475 -1.8028 -0.7581  2.7443
   85MOL0     H11684   8.312  10.952   4.678 -1.7058 -1.2529  1.0836
   85MOL0     H11685   8.214  10.884   4.545  0.1727  1.4371  1.1708
   85MOL0     H11686   8.291  10.705   4.700  0.9088 -0.7293  0.2986
   85MOL0     H11687   8.376  10.676   4.552 -0.6961  1.6282 -1.0238
   85MOL0     H11688   8.695  10.784   4.836  0.8537  0.2623  1.0749
   85MOL0     H11689   8.778  10.900   5.178 -1.2115 -2.3304  0.3253
   85MOL0     H11690   8.823  10.961   5.019 -0.9042  0.9554  0.2458
   85MOL0     H11691   8.820  10.786   5.050 -1.6904 -1.1664  0.8022
   85MOL0     H11692   8.339  11.212   5.321  1.9403 -0.3924 -2.3828
   85MOL0     H11693   8.263  11.306   5.550 -2.0930 -1.9858  1.0064
   85MOL0     H11694   8.300  11.219   5.974  1.0114 -0.0436  0.9155
   85MOL0     H11695   8.364  11.077   5.899  0.9062  0.1179 -1.3868
   85MOL0     H11696   8.565  11.129   5.976  1.0628  1.6429  2.7411
   85MOL0     H11697   8.568  11.268   5.867 -1.8282 -1.6527 -1.3746
   85MOL0     H11698   8.421  11.326   6.117  0.4922  1.1210  0.5511
   85MOL0     H11699   8.564  11.403   6.054  0.4623 -1.1130 -2.1263
   85MOL0     H11700   8.703  11.254   6.177  0.0287  0.8205 -3.2763
   85MOL0     H11701   8.567  11.139   6.195 -0.4155  0.5539  1.8204
   85MOL0     H11702   8.647  11.401   6.331 -1.2515  1.1963 -0.8696
   85MOL0     H11703   8.481  11.349   6.348  0.9895 -1.0031 -0.3268
   85MOL0     H11704   8.712  11.169   6.442 -0.0870  2.4505 -0.2721
   85MOL0     H11705   8.530  11.146   6.448 -0.4145 -1.8116 -1.5748
   85MOL0     H11706   8.610  11.199   6.653 -0.7825 -0.6520 -0.7888
   85MOL0     H11707   8.501  11.324   6.590  0.4067  2.7271 -2.3491
   85MOL0     H11708   8.679  11.481   6.672  4.3487  3.3771 -2.8247
   85MOL0     H11709   8.711  11.455   6.509 -0.7994  1.0915  0.2731
   85MOL0     H11710   8.517  11.032   5.745  2.6014  2.3873  0.0837
   85MOL0     H11711   8.583  10.923   5.530 -2.2581 -1.6518 -0.6691
   85MOL0     H11712   8.307  11.002   5.059  0.9577  2.3190  0.3003
   85MOL0     H11713   8.274  10.851   4.853 -1.0071  0.8642  0.4328
   85MOL0     H11714   7.796  10.372   3.465 -1.0814  0.4571  3.5311
   85MOL0     H11715   7.719  10.190   3.600 -0.8661  1.2421  1.2046
   85MOL0     H11716   7.959  10.051   4.128 -1.2861  0.7606  1.3369
   85MOL0     H11717   7.945   9.867   4.296 -1.8907  0.6327  1.1600
   85MOL0     H11718   7.875   9.713   4.419 -2.5307  0.3488 -0.0036
   85MOL0     H11719   7.758   9.585   4.420  0.3553 -2.0436 -0.9839
   85MOL0     H11720   8.023   9.547   4.496 -0.5263  0.0329  0.4551
   85MOL0     H11721   8.066   9.556   4.333  1.3996 -0.5526 -0.7575
   85MOL0     H11722   7.897   9.363   4.301  1.0103 -0.3411 -0.6778
   85MOL0     H11723   8.036   9.326   4.396  1.9722  2.3981  0.9850
   85MOL0     H11724   7.841   9.218   4.512 -3.6124  0.4960 -1.1588
   85MOL0     H11725   7.761   9.373   4.526 -1.2565 -2.2825 -0.0969
   85MOL0     H11726   8.097   9.332   4.811  0.4497  1.0366  0.5718
   85MOL0     H11727   7.757   9.625   3.999 -0.3731  0.2625 -1.0103
   85MOL0     H11728   7.717   9.841   3.745 -4.4157 -1.8309  2.6805
   85MOL0     H11729   7.871   9.742   3.726 -0.0439  3.3433 -0.8127
   85MOL0     H11730   7.727   9.671   3.784 -0.2664 -0.8415 -6.2969
   86MOL0     O11731   2.643  10.271   7.108 -0.2432  0.0878 -0.5328
   86MOL0     C11732   2.583  10.187   7.035 -0.6921 -0.2792  0.1466
   86MOL0     O11733   2.590  10.048   7.055  0.6451 -0.1737 -0.5039
   86MOL0     C11734   2.691   9.991   7.127 -1.3379 -0.1984  1.0191
   86MOL0     C11735   2.666   9.890   7.218 -0.2819  0.5584 -0.6803
   86MOL0     C11736   2.765   9.842   7.307  0.5042  0.0764  0.8522
   86MOL0     C11737   2.897   9.894   7.294  0.4329  0.2307  0.9391
   86MOL0     O11738   3.005   9.879   7.371 -0.0763 -0.8834 -0.9366
   86MOL0     C11739   3.032  10.006   7.442 -0.4404  0.0282 -0.1381
   86MOL0     C11740   3.131   9.955   7.547 -1.0298 -0.2917 -0.3718
   86MOL0     C11741   3.172  10.060   7.646  0.1683 -0.2263 -0.8961
   86MOL0     C11742   3.243  10.175   7.561  0.2868  0.3731 -0.2689
   86MOL0     C11743   3.350  10.252   7.645 -0.1302  0.1121 -0.4062
   86MOL0     C11744   3.477  10.168   7.677 -0.1546  0.4401  0.1879
   86MOL0     C11745   3.564  10.235   7.781 -1.0215  0.4858 -0.8258
   86MOL0     C11746   3.709  10.178   7.766  0.4457  1.3077 -1.1044
   86MOL0     N11747   3.786  10.228   7.880  0.6829  0.2420  0.1340
   86MOL0     C11748   3.797  10.153   7.994 -0.8486 -0.1159 -0.4838
   86MOL0     C11749   3.911  10.191   8.048 -0.1754 -1.1236 -0.1086
   86MOL0     C11750   3.984  10.132   8.164 -0.4717 -0.1853  0.1586
   86MOL0     C11751   4.106  10.038   8.131 -0.2990 -0.0431 -0.1422
   86MOL0     C11752   4.134   9.948   8.253 -0.5210  0.4348  0.0167
   86MOL0     C11753   4.267   9.892   8.251  0.5300  0.2975  0.1194
   86MOL0     O11754   4.280   9.799   8.366  0.2677 -0.7330 -0.7366
   86MOL0     C11755   4.397   9.744   8.389 -0.1856 -0.0286  0.4299
   86MOL0     C11756   4.506   9.732   8.304 -0.5466  0.0763  0.1726
   86MOL0     C11757   4.629   9.678   8.343 -0.5825  0.0936  0.0082
   86MOL0     C11758   4.741   9.668   8.237  0.2513  0.2632 -0.3817
   86MOL0     C11759   4.635   9.618   8.472 -0.4138  0.5183  0.5813
   86MOL0     C11760   4.766   9.554   8.514 -0.9418  0.1170 -0.0596
   86MOL0     O11761   4.877   9.616   8.478 -0.4187 -0.4704 -0.0068
   86MOL0     C11762   5.006   9.574   8.505 -0.2654 -0.6622  0.6207
   86MOL0     C11763   5.102   9.672   8.543 -0.6303  0.4375  0.2390
   86MOL0     C11764   5.233   9.638   8.579  0.2374  0.3746 -0.3970
   86MOL0     C11765   5.282   9.502   8.572  0.2604  0.7288 -0.0388
   86MOL0     O11766   5.417   9.460   8.589 -0.2646  0.4711 -0.5304
   86MOL0     C11767   5.504   9.569   8.632  0.4741 -0.3377  0.5682
   86MOL0     C11768   5.539   9.660   8.516 -0.1219  0.0887 -0.0543
   86MOL0     C11769   5.646   9.591   8.430  0.9524  0.0374  0.0954
   86MOL0     C11770   5.719   9.682   8.325  0.3113 -0.4690  0.1493
   86MOL0     C11771   5.790   9.587   8.232  0.2734 -0.7451  0.1233
   86MOL0     C11772   5.915   9.523   8.303 -0.1735  1.4798 -0.4539
   86MOL0     C11773   5.988   9.459   8.187  0.2439  0.2415 -0.1859
   86MOL0     C11774   6.123   9.396   8.240 -0.4102 -0.1930 -0.2631
   86MOL0    Cl11775   6.120   9.273   8.373  0.1271  0.8666 -0.1020
   86MOL0     C11776   5.190   9.409   8.522  0.7467  0.2220  0.2129
   86MOL0     C11777   5.054   9.444   8.498  0.3744  0.4824  0.8610
   86MOL0     O11778   4.765   9.471   8.606  0.9637 -0.0853  0.1162
   86MOL0     C11779   4.524   9.629   8.559 -0.5280  0.1603 -0.1445
   86MOL0     C11780   4.405   9.691   8.516 -0.3223  1.0797  0.3195
   86MOL0     N11781   3.958  10.305   7.974  0.2854  1.1276  0.0969
   86MOL0     N11782   3.876  10.331   7.878  0.7636  0.0671  0.7529
   86MOL0     C11783   2.926   9.975   7.185 -0.0484  0.5086 -0.2546
   86MOL0     C11784   2.828  10.028   7.107 -0.5431  0.5217 -0.5338
   86MOL0     C11785   2.503  10.242   6.927  0.3838  0.0339 -0.7839
   86MOL0     C11786   2.562  10.326   6.829 -0.1483  0.6880 -0.0212
   86MOL0     C11787   2.483  10.389   6.735  0.2259 -0.8901 -0.6713
   86MOL0     C11788   2.346  10.372   6.742 -0.1208 -0.0812  0.8406
   86MOL0     O11789   2.263  10.433   6.643 -0.6856  0.4440  0.0444
   86MOL0     C11790   2.311  10.542   6.568  0.5024  0.8644  0.1477
   86MOL0     C11791   2.207  10.578   6.464  0.5928 -0.1210 -0.2629
   86MOL0     C11792   2.161  10.462   6.377  0.0011 -0.5165  0.8829
   86MOL0     C11793   2.273  10.408   6.286  0.1488 -0.1218 -0.8476
   86MOL0     C11794   2.309  10.500   6.179 -0.4606  0.5382 -0.2863
   86MOL0     C11795   2.355  10.570   6.093 -0.3367  0.5366  0.4512
   86MOL0     C11796   2.292  10.286   6.833  0.3107  0.6343  0.0604
   86MOL0     C11797   2.366  10.228   6.936  0.2536  0.6220  0.5378
   86MOL0     C11798   2.290  10.145   7.039  0.1728 -0.6102 -0.1682
   86MOL0     H11799   2.564   9.868   7.246  0.0365  0.9402  0.8752
   86MOL0     H11800   2.746   9.785   7.397  1.8214 -0.1923  0.9806
   86MOL0     H11801   2.942  10.054   7.482 -0.6670  1.1141 -1.8316
   86MOL0     H11802   3.082  10.077   7.375 -1.9889  1.3466  0.0416
   86MOL0     H11803   3.086   9.874   7.605  1.2836 -0.2231  1.6831
   86MOL0     H11804   3.217   9.912   7.493 -1.6977 -2.8047  0.4368
   86MOL0     H11805   3.083  10.099   7.696  0.8075  0.4567 -0.2611
   86MOL0     H11806   3.231  10.017   7.727  0.4889  1.7486 -0.0358
   86MOL0     H11807   3.300  10.124   7.484 -1.1563 -0.9182 -0.5229
   86MOL0     H11808   3.159  10.219   7.507 -0.3164 -0.8216 -0.3387
   86MOL0     H11809   3.296  10.284   7.735  1.9814  0.8405  0.6619
   86MOL0     H11810   3.374  10.340   7.585  0.0198  0.1201 -0.3356
   86MOL0     H11811   3.458  10.071   7.723 -2.2222  0.6708 -0.0644
   86MOL0     H11812   3.531  10.172   7.582 -1.0992  3.2119 -0.3260
   86MOL0     H11813   3.529  10.218   7.883  1.2655 -2.2413 -0.3545
   86MOL0     H11814   3.570  10.342   7.758 -1.9043  0.7199 -0.0026
   86MOL0     H11815   3.706  10.071   7.788 -1.3092  1.6287  0.5112
   86MOL0     H11816   3.760  10.206   7.673  1.8350  1.5750 -0.2972
   86MOL0     H11817   3.741  10.065   8.020  0.2872 -0.9830 -0.8638
   86MOL0     H11818   3.918  10.077   8.231 -1.0049 -0.9943 -1.0062
   86MOL0     H11819   4.003  10.222   8.223 -0.9833 -0.4791  0.7738
   86MOL0     H11820   4.096   9.981   8.038  2.4961 -1.5185  0.3430
   86MOL0     H11821   4.189  10.106   8.108 -0.2922 -0.2797 -0.8782
   86MOL0     H11822   4.121  10.009   8.343  1.4479  0.3033  0.4310
   86MOL0     H11823   4.062   9.867   8.244 -3.7337  3.0409  0.2717
   86MOL0     H11824   4.290   9.839   8.158  4.5090 -1.7551  1.9999
   86MOL0     H11825   4.339   9.973   8.260  1.0979  0.0653 -1.8463
   86MOL0     H11826   4.505   9.785   8.209  0.2776  2.2237  1.3065
   86MOL0     H11827   4.692   9.706   8.146  2.3514  2.8179 -0.5574
   86MOL0     H11828   4.791   9.572   8.217  0.7147  0.5357 -0.5514
   86MOL0     H11829   4.820   9.741   8.256  1.4002 -0.8769 -0.6092
   86MOL0     H11830   5.076   9.778   8.549 -0.5909  0.4556  0.0908
   86MOL0     H11831   5.292   9.721   8.617  2.7429 -1.5744  0.2166
   86MOL0     H11832   5.475   9.632   8.716  1.5699  4.8457 -2.5352
   86MOL0     H11833   5.596   9.523   8.669  1.7453  1.3808 -0.3147
   86MOL0     H11834   5.457   9.696   8.453  0.4251  2.2377  0.3646
   86MOL0     H11835   5.585   9.748   8.562  1.8322 -1.2728  0.7650
   86MOL0     H11836   5.590   9.504   8.397  0.3641  0.5328 -0.2223
   86MOL0     H11837   5.728   9.557   8.494  3.3498  2.0497 -1.6873
   86MOL0     H11838   5.792   9.751   8.368  1.1703 -0.1281 -1.7625
   86MOL0     H11839   5.648   9.733   8.259  3.4053  0.5338 -2.6827
   86MOL0     H11840   5.730   9.506   8.190  1.4951 -0.8168 -1.6047
   86MOL0     H11841   5.818   9.644   8.143 -0.2132 -0.3675  0.2087
   86MOL0     H11842   5.874   9.447   8.370  0.0849  0.8538 -0.9985
   86MOL0     H11843   5.982   9.594   8.353  0.4124  0.7500 -0.1751
   86MOL0     H11844   6.018   9.534   8.113  0.8282 -0.9599 -1.2054
   86MOL0     H11845   5.926   9.380   8.143 -0.8196 -0.0464  1.7190
   86MOL0     H11846   6.187   9.479   8.270 -0.5711 -0.6871  1.5593
   86MOL0     H11847   6.162   9.335   8.157 -3.4592 -2.4309 -0.2549
   86MOL0     H11848   5.222   9.306   8.509 -1.2488 -0.5700  1.1476
   86MOL0     H11849   4.996   9.368   8.447  1.2176 -0.2439  0.9487
   86MOL0     H11850   4.528   9.583   8.657  0.9030  0.8727  0.1601
   86MOL0     H11851   4.314   9.689   8.573  0.5788 -0.2039  1.7975
   86MOL0     H11852   3.032   9.997   7.175 -0.0590  1.1034  0.7957
   86MOL0     H11853   2.860  10.104   7.037  3.1200 -1.8856 -1.8144
   86MOL0     H11854   2.669  10.327   6.812  0.2436 -2.4500  1.3616
   86MOL0     H11855   2.523  10.453   6.657 -0.8549  0.3610 -0.2270
   86MOL0     H11856   2.321  10.621   6.643  1.6422  3.2331 -2.3236
   86MOL0     H11857   2.410  10.527   6.524  1.0909  2.8718  0.6609
   86MOL0     H11858   2.248  10.659   6.404  0.8347 -2.4897 -3.5697
   86MOL0     H11859   2.113  10.615   6.506 -0.2865 -0.2118 -2.0405
   86MOL0     H11860   2.115  10.385   6.440 -0.2104 -0.9902  0.1538
   86MOL0     H11861   2.079  10.492   6.312 -0.5478  0.9575  2.2025
   86MOL0     H11862   2.229  10.319   6.241 -0.4197 -1.4859  2.1590
   86MOL0     H11863   2.362  10.378   6.342  0.8133  0.9901 -1.2693
   86MOL0     H11864   2.392  10.638   6.019 -1.6781  0.0648 -0.7015
   86MOL0     H11865   2.184  10.277   6.832  0.3838 -0.2142 -0.7667
   86MOL0     H11866   2.311  10.185   7.139  3.6109  1.9927 -1.7147
   86MOL0     H11867   2.184  10.161   7.020 -0.6964 -0.8202  3.6900
   86MOL0     H11868   2.325  10.041   7.038 -0.3681 -0.8046 -2.1250
   87MOL0     O11869   8.347   5.569   9.033 -0.0927 -0.0845  0.6208
   87MOL0     C11870   8.453   5.537   8.976  0.5251 -0.2143  0.6375
   87MOL0     O11871   8.568   5.496   9.044 -0.4284  0.5962  0.2030
   87MOL0     C11872   8.558   5.456   9.174 -0.1150 -0.7211 -0.0528
   87MOL0     C11873   8.652   5.495   9.264 -0.1795 -0.1386  0.2862
   87MOL0     C11874   8.655   5.457   9.395  0.0993  0.5898 -0.4075
   87MOL0     C11875   8.563   5.365   9.446  0.6317 -0.6214 -0.1486
   87MOL0     O11876   8.563   5.313   9.573  0.1516 -0.4640 -0.1760
   87MOL0     C11877   8.657   5.378   9.661  0.3713  0.0729  0.7668
   87MOL0     C11878   8.666   5.284   9.790  0.1495  0.4813  0.1567
   87MOL0     C11879   8.765   5.331   9.895 -0.1524 -0.0503  0.5537
   87MOL0     C11880   8.825   5.219   9.978  0.5866  0.1343 -1.0401
   87MOL0     C11881   8.894   5.253  10.112 -0.0294 -0.0958 -0.6603
   87MOL0     C11882   8.977   5.132  10.147  0.3278 -0.2229  0.4719
   87MOL0     C11883   9.052   5.148  10.277  0.1044 -0.4516  0.1378
   87MOL0     C11884   9.155   5.034  10.301  0.8400  0.3502 -0.2190
   87MOL0     N11885   9.279   5.074  10.244 -0.1225 -0.0986 -0.0554
   87MOL0     C11886   9.358   5.185  10.277  0.2346  0.5502 -0.1594
   87MOL0     C11887   9.454   5.183  10.180  0.3166 -0.4361  0.8862
   87MOL0     C11888   9.582   5.260  10.178  0.5280 -0.3059 -0.1306
   87MOL0     C11889   9.554   5.381  10.093 -0.1423 -0.8998 -0.4399
   87MOL0     C11890   9.652   5.503  10.101  0.8135 -0.3152 -0.3078
   87MOL0     C11891   9.766   5.491   9.992 -0.1321  0.8141 -0.8354
   87MOL0     O11892   9.867   5.588  10.016  0.2102  0.8086  0.4136
   87MOL0     C11893   9.983   5.536  10.070  1.3087 -0.4727  1.0354
   87MOL0     C11894   9.994   5.452  10.179  1.0490  0.1020 -0.0206
   87MOL0     C11895  10.115   5.393  10.232 -0.0929 -0.3193 -0.4534
   87MOL0     C11896  10.096   5.305  10.357  0.7773 -0.1673  0.8430
   87MOL0     C11897  10.235   5.422  10.166  0.6069 -0.9140  0.5423
   87MOL0     C11898  10.365   5.356  10.194  0.2175  0.4756  1.1291
   87MOL0     O11899  10.466   5.379  10.102  0.2025  0.2244 -0.2315
   87MOL0     C11900  10.592   5.338  10.137 -0.1176  0.2368 -0.4381
   87MOL0     C11901  10.644   5.221  10.084  0.4586 -0.0395 -0.2458
   87MOL0     C11902  10.771   5.172  10.104  0.0358  0.3529  0.6945
   87MOL0     C11903  10.864   5.242  10.183 -0.6694  0.4841 -0.7606
   87MOL0     O11904  10.989   5.194  10.213  0.3227  0.0571 -0.2045
   87MOL0     C11905  11.076   5.157  10.105 -0.0894 -0.3512  0.2936
   87MOL0     C11906  11.110   5.252   9.988  0.5358  0.7571 -0.2443
   87MOL0     C11907  11.160   5.174   9.869  0.3564  0.1384 -0.2657
   87MOL0     C11908  11.053   5.098   9.786  0.8562  0.5903  0.7438
   87MOL0     C11909  11.074   4.948   9.798 -0.8183  0.4090  0.3453
   87MOL0     C11910  10.986   4.853   9.721  0.2788  0.2165 -0.2365
   87MOL0     C11911  10.973   4.874   9.570  0.3460  0.6683  0.0403
   87MOL0     C11912  11.101   4.823   9.502  0.2989 -0.6482  0.5149
   87MOL0    Cl11913  11.098   4.848   9.328  0.1034  0.5434  0.4093
   87MOL0     C11914  10.820   5.367  10.233  0.1986 -0.9504 -0.2580
   87MOL0     C11915  10.694   5.416  10.206  0.2917 -0.0960 -1.0440
   87MOL0     O11916  10.370   5.270  10.283 -0.4880 -0.9597 -0.0708
   87MOL0     C11917  10.225   5.494  10.048 -0.7584 -0.1482  0.2355
   87MOL0     C11918  10.103   5.553  10.008 -1.1254 -0.0697  0.6867
   87MOL0     N11919   9.438   5.070  10.099 -0.8477 -1.3792 -0.8362
   87MOL0     N11920   9.332   5.004  10.136 -0.4996 -0.3442 -0.3038
   87MOL0     C11921   8.466   5.321   9.354 -0.7765  0.4344 -0.8302
   87MOL0     C11922   8.457   5.372   9.223  0.0259  0.2175  0.1874
   87MOL0     C11923   8.466   5.576   8.833 -0.0406 -0.3630  0.3087
   87MOL0     C11924   8.574   5.519   8.765  0.1456  0.2961  0.3897
   87MOL0     C11925   8.598   5.541   8.628 -0.0164 -0.8146 -0.2823
   87MOL0     C11926   8.509   5.625   8.560  0.1416 -0.1277 -0.3067
   87MOL0     O11927   8.500   5.652   8.426 -0.3458 -0.5521  1.0376
   87MOL0     C11928   8.598   5.590   8.337  0.0603  0.3855  0.1478
   87MOL0     C11929   8.597   5.654   8.197  0.6108 -0.3783 -0.1212
   87MOL0     C11930   8.690   5.587   8.090  0.8772 -0.0170  0.5810
   87MOL0     C11931   8.717   5.687   7.977  1.2590 -0.8538 -0.1712
   87MOL0     C11932   8.764   5.623   7.855  0.5430  0.0417  0.5868
   87MOL0     C11933   8.797   5.563   7.755 -0.6453 -0.2848 -0.3700
   87MOL0     C11934   8.404   5.691   8.627  0.8568 -0.4312  0.0103
   87MOL0     C11935   8.373   5.670   8.753 -0.0749 -0.3305  0.6206
   87MOL0     C11936   8.258   5.752   8.804  0.2526 -0.1248  0.2428
   87MOL0     H11937   8.745   5.541   9.232 -0.2353  1.0608  1.6978
   87MOL0     H11938   8.740   5.488   9.454  1.7687 -0.2187 -2.2732
   87MOL0     H11939   8.639   5.482   9.691  0.2193  0.0956  0.6047
   87MOL0     H11940   8.756   5.370   9.617 -0.9739 -2.5580 -2.1563
   87MOL0     H11941   8.576   5.283   9.853  0.7283 -0.5337  0.9977
   87MOL0     H11942   8.683   5.181   9.759  0.7551  1.1989 -2.0682
   87MOL0     H11943   8.837   5.396   9.844 -1.9613  1.2591 -0.4567
   87MOL0     H11944   8.702   5.391   9.961 -2.8196 -0.5354 -1.3863
   87MOL0     H11945   8.749   5.146  10.009  0.1206  0.2272 -1.9201
   87MOL0     H11946   8.897   5.173   9.910 -0.6949  0.4623 -2.6859
   87MOL0     H11947   8.827   5.287  10.192  0.9405 -0.0547  0.1493
   87MOL0     H11948   8.969   5.331  10.093  0.5737 -0.4578  0.2102
   87MOL0     H11949   8.903   5.051  10.149  0.1050 -0.2301 -2.6023
   87MOL0     H11950   9.045   5.119  10.062 -0.0821  0.2659  0.0564
   87MOL0     H11951   8.982   5.154  10.361 -0.2360 -1.8078 -0.0261
   87MOL0     H11952   9.093   5.249  10.274 -4.1253  1.4674  0.0024
   87MOL0     H11953   9.163   5.007  10.407  2.3529 -0.4969 -0.5285
   87MOL0     H11954   9.111   4.953  10.242 -1.4087  0.7644  0.7523
   87MOL0     H11955   9.343   5.248  10.365 -3.5442  2.2011 -1.7452
   87MOL0     H11956   9.672   5.217  10.132  0.4238  0.1986 -0.8257
   87MOL0     H11957   9.611   5.292  10.278 -0.8482 -2.0911  0.8745
   87MOL0     H11958   9.536   5.358   9.987 -1.8672 -0.3005 -0.3075
   87MOL0     H11959   9.455   5.417  10.123  0.5384 -1.1796  2.4054
   87MOL0     H11960   9.592   5.591  10.080  1.7533  0.6531  0.8727
   87MOL0     H11961   9.700   5.508  10.200 -1.2935  1.2304  0.7118
   87MOL0     H11962   9.796   5.386   9.993 -1.0499  0.4973  1.6495
   87MOL0     H11963   9.723   5.512   9.894 -0.6509  1.1253 -0.5514
   87MOL0     H11964   9.901   5.430  10.229  0.7539  2.5096  0.6247
   87MOL0     H11965  10.173   5.331  10.431  0.3388 -0.6456  1.4871
   87MOL0     H11966  10.100   5.201  10.323 -1.5810 -1.2182  3.3506
   87MOL0     H11967   9.995   5.304  10.400  0.4680 -2.3947  0.1845
   87MOL0     H11968  10.568   5.169  10.027  0.6982  0.4441 -1.0340
   87MOL0     H11969  10.793   5.072  10.070 -1.8128 -0.3246  1.3519
   87MOL0     H11970  11.172   5.143  10.155  0.4358 -2.2529 -1.1237
   87MOL0     H11971  11.041   5.059  10.072 -0.2641 -0.4125  0.6580
   87MOL0     H11972  11.022   5.309   9.960  1.6676  1.1867 -3.2824
   87MOL0     H11973  11.188   5.324  10.016  0.2755  0.4724  1.3517
   87MOL0     H11974  11.249   5.112   9.882  1.3034  1.7056  1.2169
   87MOL0     H11975  11.207   5.252   9.807 -0.4015  0.7602 -0.0696
   87MOL0     H11976  11.069   5.121   9.681 -0.2282 -0.4859  0.3223
   87MOL0     H11977  10.946   5.112   9.803  0.9964  2.0953  0.5543
   87MOL0     H11978  11.172   4.926   9.755 -1.3827 -0.6655 -0.4284
   87MOL0     H11979  11.066   4.915   9.902  0.4016  1.2747  0.7327
   87MOL0     H11980  10.893   4.863   9.778  2.7154 -3.5013  5.2651
   87MOL0     H11981  11.028   4.754   9.743  0.5807 -0.0300 -1.8169
   87MOL0     H11982  10.947   4.979   9.556  0.0681  1.3153  4.1967
   87MOL0     H11983  10.897   4.815   9.518  2.1737  0.0633 -2.0894
   87MOL0     H11984  11.119   4.716   9.507  1.6258 -0.4553  0.2157
   87MOL0     H11985  11.187   4.871   9.550  2.0103 -2.1761 -0.8733
   87MOL0     H11986  10.900   5.425  10.278 -0.4888  0.9647 -1.3984
   87MOL0     H11987  10.669   5.519  10.230 -0.8163 -0.6897  0.4979
   87MOL0     H11988  10.322   5.505  10.000  0.3675 -0.0541  2.4011
   87MOL0     H11989  10.098   5.599   9.910 -0.2235 -1.3207  0.0148
   87MOL0     H11990   8.400   5.259   9.414  0.2754  0.3932  0.3319
   87MOL0     H11991   8.367   5.343   9.170  1.6783 -2.5300 -1.3362
   87MOL0     H11992   8.638   5.444   8.810 -0.8282  1.2381  3.6167
   87MOL0     H11993   8.677   5.491   8.572 -0.3844 -1.6491 -0.0745
   87MOL0     H11994   8.696   5.608   8.380  0.2201  2.2092 -0.8832
   87MOL0     H11995   8.574   5.483   8.328 -1.6766  0.7971 -0.6490
   87MOL0     H11996   8.629   5.757   8.211 -0.4393 -0.1547  0.7643
   87MOL0     H11997   8.495   5.665   8.159  0.0395 -2.5243  0.6225
   87MOL0     H11998   8.789   5.559   8.126  1.0107 -3.3471 -1.8203
   87MOL0     H11999   8.629   5.502   8.056 -0.5441  1.4858 -0.8188
   87MOL0     H12000   8.777   5.768   8.019 -0.4418 -0.0081  0.7100
   87MOL0     H12001   8.622   5.735   7.953  1.3307  1.3296  3.2135
   87MOL0     H12002   8.835   5.512   7.669  0.4869  0.5558 -0.3820
   87MOL0     H12003   8.349   5.751   8.555  2.4344  0.4421 -0.5423
   87MOL0     H12004   8.253   5.758   8.913  1.1318 -0.2276  0.2914
   87MOL0     H12005   8.252   5.857   8.773 -0.7555 -0.7554 -1.9432
   87MOL0     H12006   8.163   5.711   8.769  0.0192  0.8215 -0.2736
   88MOL0     O12007   9.023   2.913   7.661 -0.2056 -0.3709  0.1713
   88MOL0     C12008   8.911   2.879   7.668 -0.2628  0.5112  1.0782
   88MOL0     O12009   8.866   2.761   7.730  0.6598  0.0518  0.0524
   88MOL0     C12010   8.943   2.700   7.831  0.5907  0.1500  0.9184
   88MOL0     C12011   8.985   2.569   7.811 -0.3790  0.3528  0.0355
   88MOL0     C12012   9.075   2.513   7.909 -0.6586 -0.8646 -0.0157
   88MOL0     C12013   9.113   2.589   8.020  0.3802 -0.6138 -0.2424
   88MOL0     O12014   9.207   2.544   8.109 -0.1819 -0.5880 -0.0042
   88MOL0     C12015   9.258   2.411   8.114 -0.5629 -0.1943  0.1677
   88MOL0     C12016   9.375   2.405   8.217 -0.0082 -0.8449 -0.7291
   88MOL0     C12017   9.487   2.501   8.162  0.0337  0.2114 -0.6993
   88MOL0     C12018   9.621   2.476   8.234  0.1662  0.0484  1.4114
   88MOL0     C12019   9.714   2.588   8.200 -0.4013  0.2025  0.3662
   88MOL0     C12020   9.865   2.557   8.226  0.1387 -0.0580  0.0934
   88MOL0     C12021   9.944   2.684   8.247  0.3048  0.4815  0.9230
   88MOL0     C12022  10.095   2.653   8.255 -0.4189 -0.0047  0.3939
   88MOL0     N12023  10.170   2.791   8.255  0.3067 -0.1374  0.5187
   88MOL0     C12024  10.198   2.855   8.364  0.4037  0.0382 -1.2532
   88MOL0     C12025  10.233   2.984   8.322 -0.4844 -0.4341 -0.0502
   88MOL0     C12026  10.288   3.087   8.405 -0.8681  0.7187  0.1711
   88MOL0     C12027  10.415   3.135   8.327  0.3131  0.4705 -0.2707
   88MOL0     C12028  10.381   3.272   8.254  0.2904  0.4352 -0.2603
   88MOL0     C12029  10.497   3.328   8.164  0.7195 -0.6108  0.1047
   88MOL0     O12030  10.619   3.306   8.234  0.2244  0.3853 -0.0189
   88MOL0     C12031  10.745   3.329   8.182 -0.2491 -0.6427 -0.2490
   88MOL0     C12032  10.850   3.266   8.243 -1.0557 -0.2731  0.2734
   88MOL0     C12033  10.986   3.298   8.223 -0.0416 -0.0182  0.4746
   88MOL0     C12034  11.093   3.218   8.282 -0.3186  0.0531 -0.6205
   88MOL0     C12035  11.013   3.408   8.141  0.2174 -0.4752  0.1287
   88MOL0     C12036  11.153   3.466   8.112  0.2797 -0.0826 -0.8203
   88MOL0     O12037  11.151   3.578   8.035  0.6917  0.3213  0.7596
   88MOL0     C12038  11.275   3.638   8.023 -0.4326 -0.2633 -0.1475
   88MOL0     C12039  11.329   3.705   8.139  0.3397  0.4689  0.4662
   88MOL0     C12040  11.458   3.760   8.137  0.7939 -0.7434 -0.1803
   88MOL0     C12041  11.540   3.735   8.031  0.1418 -0.3682  0.7132
   88MOL0     O12042  11.661   3.797   8.018 -0.7175 -0.2820  0.3135
   88MOL0     C12043  11.718   3.846   8.141  0.7089  0.0774 -1.3411
   88MOL0     C12044  11.866   3.889   8.118 -0.0183  0.7962  0.1059
   88MOL0     C12045  11.952   3.759   8.118  0.0535  0.6382  0.9153
   88MOL0     C12046  12.105   3.791   8.112 -0.2832  0.6312 -0.1752
   88MOL0     C12047  12.183   3.662   8.113  0.3721 -0.4175  0.3743
   88MOL0     C12048  12.331   3.681   8.098  0.7692  0.3575  1.0692
   88MOL0     C12049  12.399   3.787   8.193 -0.8299  0.0917 -0.2905
   88MOL0     C12050  12.545   3.752   8.227 -0.6697 -0.3418 -0.3022
   88MOL0    Cl12051  12.551   3.638   8.360 -0.0807 -0.0935  0.6095
   88MOL0     C12052  11.490   3.669   7.924 -0.6142 -0.4430  0.1939
   88MOL0     C12053  11.365   3.619   7.924  1.1445  0.0009 -0.5153
   88MOL0     O12054  11.259   3.418   8.156 -0.9112  0.3657  0.2394
   88MOL0     C12055  10.906   3.473   8.073  0.9023  0.3519 -0.8297
   88MOL0     C12056  10.770   3.428   8.090  0.0698 -0.0489 -0.3145
   88MOL0     N12057  10.199   3.000   8.190  0.3553 -0.2978 -0.2790
   88MOL0     N12058  10.158   2.880   8.154 -0.9151 -0.8686  1.2902
   88MOL0     C12059   9.066   2.715   8.039  0.8232 -0.6539 -0.0446
   88MOL0     C12060   8.974   2.770   7.947  0.4513 -0.1171 -0.4703
   88MOL0     C12061   8.818   2.967   7.595  0.4329 -1.0515  0.3509
   88MOL0     C12062   8.848   3.039   7.478  0.6877  0.1330  0.0213
   88MOL0     C12063   8.756   3.105   7.403 -0.4208  0.6484 -0.1289
   88MOL0     C12064   8.621   3.121   7.454 -0.3671 -0.0879 -0.5050
   88MOL0     O12065   8.522   3.190   7.394  0.3831 -0.4864 -0.0655
   88MOL0     C12066   8.535   3.256   7.266  0.2466  0.0434  0.5322
   88MOL0     C12067   8.508   3.151   7.166  0.5731  0.8620  0.5581
   88MOL0     C12068   8.500   3.197   7.026 -0.3002 -0.3427 -0.9459
   88MOL0     C12069   8.443   3.088   6.942 -0.8361  0.5193  0.3978
   88MOL0     C12070   8.552   2.991   6.910 -0.3127  0.0006 -0.0869
   88MOL0     C12071   8.654   2.927   6.903 -0.1714  0.6936 -0.4333
   88MOL0     C12072   8.594   3.058   7.570  1.6601  0.0062  0.2800
   88MOL0     C12073   8.688   2.987   7.639 -0.3442  1.4310 -0.0744
   88MOL0     C12074   8.638   2.937   7.778  0.0952 -1.7489 -0.2262
   88MOL0     H12075   8.946   2.513   7.728 -1.0720  1.3116 -0.3045
   88MOL0     H12076   9.105   2.409   7.897 -0.3783 -0.9756  1.4075
   88MOL0     H12077   9.283   2.381   8.012  1.9023  1.7451  0.1145
   88MOL0     H12078   9.178   2.344   8.146  0.5637 -1.5554  0.2201
   88MOL0     H12079   9.332   2.442   8.310  1.4973 -0.3339 -0.2077
   88MOL0     H12080   9.422   2.311   8.248  1.5916  0.8309  2.3658
   88MOL0     H12081   9.508   2.477   8.057 -0.9276  2.2189 -1.4148
   88MOL0     H12082   9.457   2.607   8.158 -1.2687 -0.0766  0.6371
   88MOL0     H12083   9.614   2.468   8.343 -0.9940 -1.0728  1.2761
   88MOL0     H12084   9.672   2.387   8.196 -1.0907 -0.9611  2.0397
   88MOL0     H12085   9.687   2.670   8.266 -1.3218 -1.0060  1.5378
   88MOL0     H12086   9.693   2.619   8.097 -1.9786 -1.7195  0.0487
   88MOL0     H12087   9.873   2.506   8.322 -0.7115  1.6717  1.1272
   88MOL0     H12088   9.899   2.490   8.146 -1.8788 -0.3083 -0.6288
   88MOL0     H12089   9.923   2.734   8.342 -1.1939  0.7411  0.4849
   88MOL0     H12090   9.922   2.758   8.169 -0.8424  2.0596  2.6542
   88MOL0     H12091  10.120   2.601   8.348 -1.2607  1.2396  1.3470
   88MOL0     H12092  10.122   2.593   8.168  2.7239 -1.8429  2.4532
   88MOL0     H12093  10.217   2.798   8.454 -0.4369 -1.9086 -2.2592
   88MOL0     H12094  10.313   3.042   8.501 -2.0036 -2.2783 -0.8196
   88MOL0     H12095  10.224   3.174   8.423 -3.4786 -0.9174 -0.6822
   88MOL0     H12096  10.505   3.148   8.389  1.1572 -1.5494 -1.0135
   88MOL0     H12097  10.441   3.061   8.252 -3.4923 -1.6636  0.2849
   88MOL0     H12098  10.301   3.252   8.183  1.3524  1.2593 -1.7564
   88MOL0     H12099  10.348   3.345   8.329 -0.6245  1.0569 -1.2354
   88MOL0     H12100  10.503   3.277   8.067 -0.5563 -1.0731  0.2435
   88MOL0     H12101  10.487   3.436   8.150  2.4865 -0.3053  0.9466
   88MOL0     H12102  10.833   3.190   8.319 -1.2894 -0.7419 -0.2389
   88MOL0     H12103  11.056   3.126   8.329 -0.8026  0.1554 -0.8042
   88MOL0     H12104  11.150   3.273   8.358 -0.9123 -0.9103  0.5634
   88MOL0     H12105  11.172   3.194   8.210  0.1474  1.9743 -0.8078
   88MOL0     H12106  11.256   3.707   8.219  0.2015 -0.7128  0.3952
   88MOL0     H12107  11.477   3.817   8.228 -3.2988  0.7594 -0.0334
   88MOL0     H12108  11.657   3.933   8.168  1.4636 -0.3496  2.2279
   88MOL0     H12109  11.712   3.768   8.218  2.4387 -2.2357 -3.3709
   88MOL0     H12110  11.887   3.943   8.025  0.2674 -0.9822 -0.8989
   88MOL0     H12111  11.893   3.949   8.205 -1.2534  3.8059 -1.4249
   88MOL0     H12112  11.933   3.695   8.031  1.5840 -0.5555  1.4077
   88MOL0     H12113  11.930   3.691   8.200  0.4459 -0.0603  0.4570
   88MOL0     H12114  12.130   3.867   8.186 -0.9803 -0.0712  0.8054
   88MOL0     H12115  12.116   3.836   8.013  1.1838 -0.4907 -0.5586
   88MOL0     H12116  12.159   3.608   8.205 -0.4002 -0.2156  0.3033
   88MOL0     H12117  12.143   3.594   8.038 -1.8739  1.0677  0.1025
   88MOL0     H12118  12.346   3.704   7.992 -0.4696 -0.3094  0.7257
   88MOL0     H12119  12.379   3.583   8.109  1.1690  0.0696 -2.2093
   88MOL0     H12120  12.343   3.784   8.287  0.4836 -2.5684  0.5048
   88MOL0     H12121  12.403   3.884   8.144 -0.2911  0.4225  0.4007
   88MOL0     H12122  12.599   3.847   8.233 -2.5715  1.0170 -2.4611
   88MOL0     H12123  12.585   3.700   8.139 -0.5994  0.8806 -1.0198
   88MOL0     H12124  11.555   3.670   7.836  0.6360  1.0445  1.0630
   88MOL0     H12125  11.330   3.556   7.843 -3.2649 -1.7807  2.3906
   88MOL0     H12126  10.920   3.562   8.013 -1.2598  0.9622 -0.5106
   88MOL0     H12127  10.693   3.473   8.028 -0.8308 -1.1684 -0.0507
   88MOL0     H12128   9.087   2.772   8.128  1.0837 -0.5945 -0.1427
   88MOL0     H12129   8.935   2.872   7.947  1.8960  0.4507  0.2216
   88MOL0     H12130   8.955   3.042   7.457  0.8321 -2.7692 -0.0709
   88MOL0     H12131   8.779   3.155   7.309 -1.2924  0.2300 -0.5765
   88MOL0     H12132   8.456   3.331   7.262 -0.8348 -1.0551  0.5063
   88MOL0     H12133   8.628   3.306   7.238 -0.1420  0.3633 -0.1995
   88MOL0     H12134   8.411   3.102   7.177  1.2950 -1.5169 -2.1778
   88MOL0     H12135   8.582   3.070   7.173  0.8973  1.0966 -0.0104
   88MOL0     H12136   8.446   3.291   7.037 -0.4743 -0.1513 -2.9798
   88MOL0     H12137   8.597   3.227   6.986  0.0687 -1.0578 -0.5934
   88MOL0     H12138   8.405   3.133   6.849  3.7757 -1.2637 -2.6956
   88MOL0     H12139   8.361   3.035   6.991 -1.4898  1.4921  0.3753
   88MOL0     H12140   8.742   2.866   6.897  1.7333  3.3441 -1.8125
   88MOL0     H12141   8.492   3.059   7.608  1.6941  0.4873  0.3717
   88MOL0     H12142   8.711   2.904   7.853 -0.8951  0.2631  1.7161
   88MOL0     H12143   8.577   3.013   7.826  1.2805 -0.5772 -0.5102
   88MOL0     H12144   8.570   2.852   7.760  0.0623 -1.5136 -1.3148
   89MOL0     O12145   8.637  10.411   8.834 -0.3230  0.5598  0.4923
   89MOL0     C12146   8.630  10.298   8.884 -0.1231  0.3400  0.1781
   89MOL0     O12147   8.534  10.262   8.971 -0.5606 -0.1555  0.3464
   89MOL0     C12148   8.452  10.358   9.022  0.1312 -0.3377  0.1094
   89MOL0     C12149   8.318  10.356   8.992  0.3327 -0.6293 -0.3585
   89MOL0     C12150   8.235  10.452   9.037  0.0171 -0.1049  0.3266
   89MOL0     C12151   8.279  10.562   9.096  0.0770 -0.0686 -0.4253
   89MOL0     O12152   8.183  10.661   9.109 -0.0306 -0.0825 -0.4889
   89MOL0     C12153   8.221  10.800   9.145  0.2152  0.4297  0.0702
   89MOL0     C12154   8.114  10.896   9.081  0.5725 -0.6689  0.5444
   89MOL0     C12155   8.166  11.039   9.072 -0.5422 -0.8058  0.2387
   89MOL0     C12156   8.053  11.131   9.022  0.7287  0.1465 -0.1586
   89MOL0     C12157   8.108  11.234   8.916  0.9835 -0.0200 -0.5579
   89MOL0     C12158   8.154  11.358   8.983 -0.4719  0.6286 -0.1280
   89MOL0     C12159   8.200  11.462   8.880 -0.2241  0.6185 -0.3751
   89MOL0     C12160   8.086  11.516   8.787  0.0849  0.1006 -0.2501
   89MOL0     N12161   7.970  11.568   8.863 -0.2639 -0.3362  0.4779
   89MOL0     C12162   7.847  11.510   8.863  0.6518 -0.0851  0.4813
   89MOL0     C12163   7.769  11.596   8.934 -1.2648 -0.6193 -0.3753
   89MOL0     C12164   7.626  11.590   8.969  0.1428  0.3542  0.1811
   89MOL0     C12165   7.601  11.570   9.119 -0.1943 -0.3204 -0.2860
   89MOL0     C12166   7.680  11.454   9.184 -0.8747 -0.2563 -0.8643
   89MOL0     C12167   7.608  11.409   9.309 -0.3785  0.4904 -0.4547
   89MOL0     O12168   7.472  11.390   9.294  0.3646 -0.4015 -0.8695
   89MOL0     C12169   7.423  11.272   9.241 -0.0203  0.9312  0.3115
   89MOL0     C12170   7.381  11.270   9.110  0.4924 -0.1602 -0.2509
   89MOL0     C12171   7.322  11.154   9.051  0.0616 -0.4769 -0.9745
   89MOL0     C12172   7.271  11.168   8.915 -0.1739 -0.5624  1.1645
   89MOL0     C12173   7.318  11.036   9.124 -0.0115  0.0727 -0.8687
   89MOL0     C12174   7.265  10.905   9.074  0.0438 -0.6236 -0.0320
   89MOL0     O12175   7.323  10.781   9.108 -0.2841 -0.5092 -0.5532
   89MOL0     C12176   7.258  10.669   9.072  0.0530 -0.0074 -0.5598
   89MOL0     C12177   7.136  10.634   9.128  0.1556  0.0942 -0.1991
   89MOL0     C12178   7.076  10.512   9.100 -0.8950 -0.0361 -0.3014
   89MOL0     C12179   7.144  10.418   9.019  0.1705 -0.4742  0.6233
   89MOL0     O12180   7.072  10.300   9.008 -0.4397 -1.2844 -0.6481
   89MOL0     C12181   7.096  10.204   8.906 -0.4101  0.5859  0.2204
   89MOL0     C12182   6.966  10.178   8.828  0.6524 -0.4461 -0.2251
   89MOL0     C12183   6.948  10.293   8.728  0.3104  0.1632 -0.1782
   89MOL0     C12184   6.800  10.314   8.686 -0.0853  0.0261 -0.0285
   89MOL0     C12185   6.775  10.400   8.568 -0.7621  0.8977 -0.5787
   89MOL0     C12186   6.624  10.424   8.554  0.6629 -0.0640 -0.5996
   89MOL0     C12187   6.595  10.483   8.417 -0.2032 -0.4820  0.2289
   89MOL0     C12188   6.605  10.385   8.306 -0.3399 -0.7635  0.3449
   89MOL0    Cl12189   6.574  10.453   8.153 -0.2650 -0.3763 -0.3523
   89MOL0     C12190   7.267  10.455   8.962 -0.6449  0.2803 -0.4735
   89MOL0     C12191   7.325  10.581   8.991 -0.4229 -0.5237 -0.2621
   89MOL0     O12192   7.155  10.921   9.019 -0.2549  0.0562 -0.1053
   89MOL0     C12193   7.364  11.032   9.256  0.3248 -0.0885 -0.5056
   89MOL0     C12194   7.397  11.158   9.320 -0.3295  0.0668 -0.0561
   89MOL0     N12195   7.859  11.695   8.981 -0.2343  0.1720  0.3602
   89MOL0     N12196   7.975  11.683   8.932  0.2596 -0.2556  0.2113
   89MOL0     C12197   8.414  10.574   9.119 -0.3460 -0.0224 -0.7000
   89MOL0     C12198   8.500  10.466   9.089  0.1842 -0.1991  0.3092
   89MOL0     C12199   8.743  10.215   8.846  0.3213  0.7585 -0.2917
   89MOL0     C12200   8.868  10.270   8.801 -0.1753  0.8465 -0.1970
   89MOL0     C12201   8.980  10.190   8.773  0.9126 -0.1040  0.2664
   89MOL0     C12202   8.971  10.046   8.802 -0.0504 -0.1080 -0.8163
   89MOL0     O12203   9.071   9.957   8.794 -0.3305  0.2337 -0.6101
   89MOL0     C12204   9.198   9.996   8.739  0.3089 -0.6110 -0.5057
   89MOL0     C12205   9.300   9.894   8.697 -0.6431  0.5781 -1.1397
   89MOL0     C12206   9.379   9.826   8.810 -0.1337  0.5786 -0.3107
   89MOL0     C12207   9.494   9.737   8.757 -0.2472  0.1696 -0.0975
   89MOL0     C12208   9.440   9.604   8.720  0.6001 -0.0398 -0.2007
   89MOL0     C12209   9.387   9.490   8.695 -0.1664 -0.1315 -0.6029
   89MOL0     C12210   8.852   9.999   8.850  0.6468  0.7817  0.8797
   89MOL0     C12211   8.734  10.075   8.867 -0.4353 -0.1134  0.8821
   89MOL0     C12212   8.607  10.003   8.912 -0.6291  0.6736  0.1444
   89MOL0     H12213   8.268  10.276   8.939  0.2555 -1.6053  1.1401
   89MOL0     H12214   8.128  10.441   9.029  0.1068 -0.1046 -1.0292
   89MOL0     H12215   8.312  10.825   9.090 -0.7482 -0.3386 -1.9499
   89MOL0     H12216   8.232  10.825   9.251  1.5323  2.7996 -0.5528
   89MOL0     H12217   8.089  10.864   8.980 -0.8432 -1.7176  1.1937
   89MOL0     H12218   8.025  10.889   9.145  2.2087 -1.4637  2.8586
   89MOL0     H12219   8.196  11.076   9.171  2.4734  2.2379 -1.6000
   89MOL0     H12220   8.254  11.044   9.007 -1.6535 -0.5344 -1.2802
   89MOL0     H12221   7.973  11.075   8.972  0.2798 -0.0263  0.7347
   89MOL0     H12222   8.007  11.190   9.102 -2.6764 -1.3455 -0.8126
   89MOL0     H12223   8.027  11.258   8.846  0.9056 -0.6026 -0.6689
   89MOL0     H12224   8.192  11.182   8.867  2.2335  0.7596  0.6807
   89MOL0     H12225   8.070  11.402   9.037 -3.2660  0.2596 -3.7500
   89MOL0     H12226   8.239  11.326   9.043 -1.0773 -2.6904 -0.8672
   89MOL0     H12227   8.276  11.414   8.818  0.5883  0.6534  0.5796
   89MOL0     H12228   8.242  11.552   8.926  1.7635 -0.9995  1.1730
   89MOL0     H12229   8.137  11.597   8.735  0.4413 -0.2546 -0.4623
   89MOL0     H12230   8.063  11.432   8.721 -0.1782 -0.5717  0.6711
   89MOL0     H12231   7.819  11.419   8.811  1.4439  0.1039 -0.3055
   89MOL0     H12232   7.585  11.506   8.914 -0.4069 -0.5596  1.9040
   89MOL0     H12233   7.581  11.685   8.936 -0.1795  0.1493  0.0240
   89MOL0     H12234   7.619  11.662   9.175 -1.8719 -0.2286  0.1646
   89MOL0     H12235   7.493  11.559   9.135  0.0061 -0.1573  1.3192
   89MOL0     H12236   7.691  11.370   9.115 -0.0480 -1.3320  0.5344
   89MOL0     H12237   7.777  11.496   9.212 -2.2502  0.9308  2.6114
   89MOL0     H12238   7.649  11.310   9.332  0.7228  1.0192 -0.0847
   89MOL0     H12239   7.631  11.483   9.386 -1.2108 -0.3429  0.6318
   89MOL0     H12240   7.369  11.362   9.054 -0.3683 -0.5035 -0.6499
   89MOL0     H12241   7.328  11.113   8.839 -0.9604 -4.1911  2.9839
   89MOL0     H12242   7.273  11.274   8.891  1.4815 -0.7715  0.1711
   89MOL0     H12243   7.167  11.134   8.914 -0.8356  1.3643 -0.2349
   89MOL0     H12244   7.089  10.700   9.201 -0.2080  0.5379 -0.8260
   89MOL0     H12245   6.993  10.471   9.155 -1.7379  0.9256 -0.8256
   89MOL0     H12246   7.179  10.241   8.844  0.1009  3.3285  2.3455
   89MOL0     H12247   7.118  10.114   8.963 -0.1648 -0.0225 -0.8146
   89MOL0     H12248   6.966  10.093   8.759 -2.3249 -0.4866 -0.3230
   89MOL0     H12249   6.885  10.172   8.902 -0.2764  0.1140 -1.1703
   89MOL0     H12250   7.006  10.258   8.642  2.1439 -1.8388  1.7389
   89MOL0     H12251   6.992  10.387   8.764 -0.9166  2.0042 -3.1638
   89MOL0     H12252   6.753  10.364   8.771 -0.5150  2.0148 -1.3689
   89MOL0     H12253   6.747  10.219   8.680 -2.5341  1.3310 -0.3128
   89MOL0     H12254   6.832  10.489   8.595  0.8276 -0.6545  1.6132
   89MOL0     H12255   6.821  10.360   8.477 -1.1082 -1.7320  0.3065
   89MOL0     H12256   6.607  10.487   8.642  1.1424 -0.6075 -0.1141
   89MOL0     H12257   6.565  10.332   8.567 -0.5184  0.7099 -0.3318
   89MOL0     H12258   6.672  10.561   8.407 -0.5457 -0.2533 -0.7890
   89MOL0     H12259   6.495  10.527   8.416  0.3069  0.7480  0.9033
   89MOL0     H12260   6.531  10.304   8.314  2.0803 -3.2493 -0.7463
   89MOL0     H12261   6.703  10.337   8.312  0.9503  1.6744  0.1098
   89MOL0     H12262   7.326  10.381   8.909 -1.5934 -0.7337 -0.1209
   89MOL0     H12263   7.430  10.593   8.968 -0.8144 -0.2822 -2.0792
   89MOL0     H12264   7.364  10.943   9.318 -1.3413  0.7216  0.7209
   89MOL0     H12265   7.420  11.163   9.426 -2.1155 -1.7382  0.4969
   89MOL0     H12266   8.450  10.664   9.167 -1.0758  0.3405 -0.8175
   89MOL0     H12267   8.604  10.487   9.109 -0.2533  4.9258 -1.3986
   89MOL0     H12268   8.883  10.378   8.798 -0.3808  0.9532  1.3243
   89MOL0     H12269   9.075  10.240   8.757  0.9964  0.6968  2.7743
   89MOL0     H12270   9.161  10.044   8.648  2.5480  0.5655 -0.8772
   89MOL0     H12271   9.244  10.070   8.805 -0.9276 -1.7523  1.7610
   89MOL0     H12272   9.374   9.954   8.643  1.1160 -0.1195  0.4377
   89MOL0     H12273   9.250   9.819   8.634 -0.7605  0.1758 -0.5694
   89MOL0     H12274   9.422   9.913   8.862  4.0039 -0.8392 -1.0072
   89MOL0     H12275   9.325   9.766   8.884  4.0835  0.0382  2.7221
   89MOL0     H12276   9.563   9.721   8.841 -0.5992 -0.5300  0.0653
   89MOL0     H12277   9.541   9.782   8.669 -2.3289  1.8833 -0.3912
   89MOL0     H12278   9.336   9.397   8.683 -1.2331  0.4678 -0.7887
   89MOL0     H12279   8.842   9.896   8.880 -1.1468  0.2129 -1.4386
   89MOL0     H12280   8.602  10.015   9.021  0.8518  1.2768  0.1578
   89MOL0     H12281   8.520  10.047   8.861 -2.1468 -1.6700  0.5357
   89MOL0     H12282   8.622   9.897   8.888  1.7528  1.0767 -0.3562
   90MOL0     O12283   5.675  11.041   4.098 -0.2580  0.0107 -0.2180
   90MOL0     C12284   5.788  11.086   4.084  0.0883 -0.3362 -0.4524
   90MOL0     O12285   5.808  11.218   4.072  0.3797 -0.2909  0.3051
   90MOL0     C12286   5.689  11.287   4.076 -0.2838 -0.0818  0.5233
   90MOL0     C12287   5.646  11.362   3.969 -0.8470 -0.4911 -0.0938
   90MOL0     C12288   5.525  11.440   3.983  0.2461  0.7437  1.4586
   90MOL0     C12289   5.450  11.450   4.101  0.1498  1.1060  0.1676
   90MOL0     O12290   5.331  11.518   4.120 -0.0167  0.5478  0.1834
   90MOL0     C12291   5.276  11.597   4.018  0.8890 -0.6748  0.8352
   90MOL0     C12292   5.166  11.694   4.075 -0.3160  0.6785  0.1564
   90MOL0     C12293   5.205  11.759   4.209  0.0404 -0.7990  1.2583
   90MOL0     C12294   5.176  11.908   4.204 -0.3184  0.3627 -0.2506
   90MOL0     C12295   5.207  11.979   4.339  0.6164 -0.4701  0.2640
   90MOL0     C12296   5.169  12.126   4.336 -0.2544  0.0126 -0.1057
   90MOL0     C12297   5.019  12.148   4.348  0.9699 -0.5692  0.3623
   90MOL0     C12298   4.989  12.300   4.377 -0.0764  0.6233  0.0208
   90MOL0     N12299   5.023  12.377   4.259  0.5524  0.9403 -0.3365
   90MOL0     C12300   5.138  12.438   4.216 -0.2339 -0.4404  0.6242
   90MOL0     C12301   5.103  12.515   4.112  0.1733 -0.0797 -0.3596
   90MOL0     C12302   5.198  12.579   4.015  0.9130 -0.1713 -0.5182
   90MOL0     C12303   5.158  12.726   4.001 -0.3161 -0.2493  0.1741
   90MOL0     C12304   5.271  12.807   3.926 -0.6117 -0.3475  0.0703
   90MOL0     C12305   5.278  12.796   3.763 -0.3213  0.2883 -0.2004
   90MOL0     O12306   5.297  12.669   3.701 -0.8319 -0.2555  0.4017
   90MOL0     C12307   5.429  12.628   3.684  0.8657 -0.3411  0.2573
   90MOL0     C12308   5.443  12.516   3.611  0.1719 -0.0161  0.6289
   90MOL0     C12309   5.570  12.458   3.589  0.8081 -1.0232 -0.6856
   90MOL0     C12310   5.568  12.348   3.489 -0.4098 -0.2534 -0.4467
   90MOL0     C12311   5.684  12.526   3.641 -0.4537  0.6781  0.2916
   90MOL0     C12312   5.822  12.496   3.616 -0.1170  0.5849 -0.4709
   90MOL0     O12313   5.906  12.599   3.639 -0.5725 -0.4780 -0.2123
   90MOL0     C12314   6.050  12.602   3.617  0.1673 -0.3839  0.3356
   90MOL0     C12315   6.136  12.495   3.585 -0.2033 -0.2731  0.7561
   90MOL0     C12316   6.271  12.512   3.585 -0.0667  0.3890  0.0237
   90MOL0     C12317   6.325  12.640   3.598  0.1128 -0.8654 -0.3979
   90MOL0     O12318   6.456  12.667   3.592 -0.0169  0.4350 -0.2517
   90MOL0     C12319   6.556  12.557   3.573 -0.0092  0.5263  0.7699
   90MOL0     C12320   6.706  12.597   3.568 -0.5595 -0.5995 -0.1688
   90MOL0     C12321   6.751  12.650   3.705 -0.6051  0.5942 -0.3696
   90MOL0     C12322   6.901  12.679   3.698 -0.8984  0.5975 -0.0176
   90MOL0     C12323   6.951  12.757   3.824  0.1423 -0.6249 -0.0413
   90MOL0     C12324   7.107  12.757   3.829  0.6673 -0.2844 -0.0898
   90MOL0     C12325   7.173  12.844   3.719  0.5546  0.1742  0.0801
   90MOL0     C12326   7.317  12.880   3.762 -0.2845 -0.8276  0.4855
   90MOL0    Cl12327   7.409  12.980   3.636  0.4306 -0.0607  0.1707
   90MOL0     C12328   6.239  12.743   3.603  0.3508 -0.5515 -0.7916
   90MOL0     C12329   6.105  12.730   3.625 -0.0031 -0.0756 -0.3174
   90MOL0     O12330   5.859  12.383   3.602  0.3678  0.1163  0.8517
   90MOL0     C12331   5.659  12.651   3.716 -0.7078 -0.0055 -0.1368
   90MOL0     C12332   5.534  12.700   3.740  0.1002 -0.1612 -0.4025
   90MOL0     N12333   4.971  12.501   4.088 -0.5902  0.2869 -0.4248
   90MOL0     N12334   4.924  12.428   4.179  0.9595  0.6195  0.1657
   90MOL0     C12335   5.504  11.377   4.203  0.7730  0.4548  0.3079
   90MOL0     C12336   5.615  11.300   4.198  0.1653  0.1655  0.3044
   90MOL0     C12337   5.897  10.990   4.081  0.6703 -0.1181  0.1311
   90MOL0     C12338   6.027  11.036   4.051  0.9828  0.4562  0.2967
   90MOL0     C12339   6.142  10.962   4.065  0.3281 -0.1791  0.3299
   90MOL0     C12340   6.127  10.829   4.098  0.2575  0.1407  0.2534
   90MOL0     O12341   6.234  10.751   4.127 -0.4161  0.1422 -0.2467
   90MOL0     C12342   6.334  10.722   4.023  0.4729 -0.8001 -0.8530
   90MOL0     C12343   6.463  10.794   4.064  0.3928  0.0058 -0.7809
   90MOL0     C12344   6.587  10.761   3.982 -0.0613 -0.6217  0.4569
   90MOL0     C12345   6.642  10.619   4.031 -1.3638  0.5876 -0.5638
   90MOL0     C12346   6.784  10.598   3.992  0.2364  0.3486  0.3007
   90MOL0     C12347   6.903  10.598   3.965 -0.3779  0.5490  0.0352
   90MOL0     C12348   6.001  10.769   4.102  0.5069  0.0482 -0.2789
   90MOL0     C12349   5.888  10.849   4.105  0.3269  0.1216 -0.2746
   90MOL0     C12350   5.757  10.780   4.137 -0.4265 -0.2699  0.1223
   90MOL0     H12351   5.699  11.356   3.874 -2.0841  0.9456 -0.9219
   90MOL0     H12352   5.500  11.496   3.894 -0.8192  0.1553  1.3678
   90MOL0     H12353   5.220  11.534   3.949 -0.5895  1.6159 -0.1934
   90MOL0     H12354   5.358  11.652   3.972  0.2564 -0.0676  0.4085
   90MOL0     H12355   5.146  11.774   4.002  1.1398  1.9858  1.1118
   90MOL0     H12356   5.069  11.646   4.085  0.4386 -1.7371 -2.7310
   90MOL0     H12357   5.159  11.717   4.299 -3.0695  2.4447  1.4031
   90MOL0     H12358   5.313  11.750   4.215  0.3143 -0.7198 -1.8028
   90MOL0     H12359   5.236  11.961   4.129  1.3597  3.0491  2.7366
   90MOL0     H12360   5.074  11.913   4.164  0.2132 -0.7579 -1.8460
   90MOL0     H12361   5.314  11.968   4.358  0.5640 -2.9251 -0.5143
   90MOL0     H12362   5.150  11.928   4.417  0.7128  1.9056  2.0102
   90MOL0     H12363   5.217  12.168   4.425  1.6810 -0.3364 -0.9283
   90MOL0     H12364   5.205  12.166   4.241  0.1613 -2.1253 -0.9104
   90MOL0     H12365   4.976  12.088   4.429  1.7858  1.0406  2.0750
   90MOL0     H12366   4.979  12.124   4.249  2.5958 -1.6524 -0.0555
   90MOL0     H12367   4.886  12.314   4.412 -0.5141  0.9259 -1.3231
   90MOL0     H12368   5.051  12.335   4.459  0.1698 -1.0966  0.6242
   90MOL0     H12369   5.239  12.442   4.255 -0.3948 -0.6925  1.0726
   90MOL0     H12370   5.191  12.527   3.919  1.0541 -1.9898  0.4074
   90MOL0     H12371   5.302  12.576   4.051  1.0374 -1.8953 -0.9552
   90MOL0     H12372   5.068  12.733   3.939  1.6620  0.8539 -2.7679
   90MOL0     H12373   5.143  12.773   4.099 -1.3501  0.3282 -0.2482
   90MOL0     H12374   5.257  12.911   3.956 -2.6064 -0.7598  0.6940
   90MOL0     H12375   5.366  12.775   3.970 -0.5830 -0.3347  0.0182
   90MOL0     H12376   5.175  12.825   3.739 -0.2091  0.2757 -0.6914
   90MOL0     H12377   5.341  12.872   3.717  1.8682 -2.8790 -2.8135
   90MOL0     H12378   5.351  12.490   3.560  0.2025  0.9230  0.0831
   90MOL0     H12379   5.501  12.270   3.528  0.5344  0.0637  1.9880
   90MOL0     H12380   5.671  12.322   3.466  1.4215  4.5587  1.1254
   90MOL0     H12381   5.531  12.395   3.398  0.2100 -0.9810 -1.0886
   90MOL0     H12382   6.105  12.395   3.556  2.0120 -0.8038  0.0621
   90MOL0     H12383   6.336  12.426   3.594  0.5765  1.0768  2.5465
   90MOL0     H12384   6.547  12.460   3.622  3.3020  0.0076  0.5597
   90MOL0     H12385   6.540  12.525   3.470  1.5003 -0.5438  0.8356
   90MOL0     H12386   6.779  12.523   3.532  0.1217  0.6886 -1.5291
   90MOL0     H12387   6.718  12.666   3.484 -1.4866 -1.6539 -1.1875
   90MOL0     H12388   6.734  12.574   3.783 -1.6612 -1.1983 -2.2409
   90MOL0     H12389   6.703  12.743   3.734 -1.2289  0.2455 -0.2783
   90MOL0     H12390   6.934  12.741   3.615  0.0420  1.5452  1.0197
   90MOL0     H12391   6.961  12.589   3.682  1.3710  2.1442 -0.7220
   90MOL0     H12392   6.916  12.861   3.819  1.2509  0.0785  3.7484
   90MOL0     H12393   6.916  12.710   3.916  1.3459 -0.8221  0.3336
   90MOL0     H12394   7.152  12.659   3.813  0.2623 -0.3028 -1.2227
   90MOL0     H12395   7.140  12.779   3.931  0.0038  0.5123 -0.0375
   90MOL0     H12396   7.104  12.927   3.696 -3.8372 -2.3890  2.5803
   90MOL0     H12397   7.161  12.790   3.625 -3.7843 -2.4790  1.8644
   90MOL0     H12398   7.379  12.791   3.778 -0.8277 -1.0998  1.0931
   90MOL0     H12399   7.323  12.943   3.851  0.8876 -0.6459  0.3014
   90MOL0     H12400   6.295  12.835   3.594 -0.9756  0.1328 -2.5034
   90MOL0     H12401   6.049  12.821   3.644 -0.2951  0.3773 -2.9975
   90MOL0     H12402   5.732  12.717   3.763 -0.1088 -1.1107  0.5382
   90MOL0     H12403   5.533  12.784   3.808  1.8815 -0.9154  0.6381
   90MOL0     H12404   5.439  11.384   4.290  2.9896 -1.9879  2.3253
   90MOL0     H12405   5.651  11.246   4.285 -2.0848  1.1200  1.9413
   90MOL0     H12406   6.037  11.141   4.024  0.8056  0.9674  2.1144
   90MOL0     H12407   6.246  10.994   4.057  0.6926 -1.5650 -1.0080
   90MOL0     H12408   6.347  10.613   4.025  3.7049 -0.6232  3.8998
   90MOL0     H12409   6.296  10.756   3.926  0.7884 -0.4766 -0.8634
   90MOL0     H12410   6.480  10.775   4.170 -1.3641 -2.5674 -0.8780
   90MOL0     H12411   6.440  10.900   4.052  0.7798  0.4294  1.6170
   90MOL0     H12412   6.582  10.764   3.873  1.8821 -0.4481  0.3328
   90MOL0     H12413   6.658  10.838   4.013 -1.4404  0.1977  1.6867
   90MOL0     H12414   6.581  10.539   3.988  1.8310 -1.2307 -2.0026
   90MOL0     H12415   6.642  10.609   4.140  0.8648  3.3798 -0.1810
   90MOL0     H12416   7.009  10.589   3.952 -0.7490 -4.8932 -2.0511
   90MOL0     H12417   6.007  10.662   4.123  0.2911  0.2452  0.8279
   90MOL0     H12418   5.677  10.791   4.063 -0.5737 -1.8860  0.0024
   90MOL0     H12419   5.780  10.674   4.145  0.4259 -0.2184 -1.3406
   90MOL0     H12420   5.724  10.815   4.236  2.1675  0.2053  0.8972
   91MOL0     O12421   8.161   6.799   0.953 -0.7664 -0.4477  0.1453
   91MOL0     C12422   8.194   6.725   0.867 -0.5644 -0.8910 -0.0290
   91MOL0     O12423   8.310   6.730   0.788  0.5118  0.6000  0.2460
   91MOL0     C12424   8.426   6.790   0.837  1.3014  0.0354 -0.2165
   91MOL0     C12425   8.494   6.746   0.955 -1.3958 -0.0501  0.5707
   91MOL0     C12426   8.620   6.792   0.974 -0.3466 -0.0773 -0.1480
   91MOL0     C12427   8.684   6.887   0.887 -0.2971  0.1952 -0.5762
   91MOL0     O12428   8.810   6.940   0.913 -0.3417 -0.2053  0.5220
   91MOL0     C12429   8.841   6.949   1.052 -0.7192 -0.0737  0.8276
   91MOL0     C12430   8.982   7.013   1.051 -0.3273  0.5877 -0.7708
   91MOL0     C12431   8.976   7.159   1.110 -0.7361  0.0658 -0.4264
   91MOL0     C12432   9.116   7.219   1.099 -0.5989  0.0617  0.3831
   91MOL0     C12433   9.125   7.365   1.142 -0.1314 -0.0884  0.5865
   91MOL0     C12434   9.270   7.411   1.174 -0.4466 -0.0215 -0.9028
   91MOL0     C12435   9.368   7.421   1.068  0.4859 -0.0847  0.2424
   91MOL0     C12436   9.501   7.486   1.118 -0.9115  0.1427  0.4742
   91MOL0     N12437   9.601   7.505   1.012 -0.8320  0.0296 -0.5828
   91MOL0     C12438   9.671   7.396   0.965  0.2948 -0.7066  0.0623
   91MOL0     C12439   9.715   7.435   0.842  0.3409  0.1192 -0.1907
   91MOL0     C12440   9.805   7.368   0.751 -0.0929  0.6119  0.1570
   91MOL0     C12441   9.765   7.224   0.695  0.1657  0.4586 -0.9712
   91MOL0     C12442   9.680   7.237   0.568 -0.4124 -0.1402 -0.3400
   91MOL0     C12443   9.735   7.151   0.455 -0.9114  0.0883  0.2776
   91MOL0     O12444   9.725   7.007   0.484 -0.3977 -0.5056  0.5462
   91MOL0     C12445   9.601   6.957   0.509  0.0336 -0.0827 -0.0462
   91MOL0     C12446   9.594   6.834   0.579 -0.2534 -0.3709 -0.4690
   91MOL0     C12447   9.468   6.765   0.603 -0.2657  0.4377  0.3717
   91MOL0     C12448   9.477   6.640   0.690 -0.0883  0.4631 -0.6802
   91MOL0     C12449   9.357   6.811   0.529 -0.0627  0.0323 -0.2438
   91MOL0     C12450   9.219   6.742   0.529 -0.6854  0.5097  0.4382
   91MOL0     O12451   9.116   6.801   0.462  0.5015  1.1372 -0.4784
   91MOL0     C12452   9.002   6.725   0.452 -0.0941  0.0493  0.7241
   91MOL0     C12453   8.892   6.786   0.515 -0.0109  0.1779 -0.0024
   91MOL0     C12454   8.767   6.711   0.529 -0.2164 -0.3393 -0.4663
   91MOL0     C12455   8.762   6.587   0.465 -0.1485  0.2929  0.7103
   91MOL0     O12456   8.658   6.499   0.452 -0.5313  0.5643 -0.0374
   91MOL0     C12457   8.540   6.565   0.445  1.1303 -0.4314 -0.6227
   91MOL0     C12458   8.433   6.488   0.366 -0.1043  0.4357 -0.8559
   91MOL0     C12459   8.388   6.355   0.448 -0.5747 -0.3207 -0.2739
   91MOL0     C12460   8.298   6.270   0.356  0.1498  0.0680 -0.1401
   91MOL0     C12461   8.187   6.358   0.285  0.2075 -0.0626 -0.3998
   91MOL0     C12462   8.064   6.279   0.246  0.0559  0.3266  0.0507
   91MOL0     C12463   8.094   6.144   0.167  0.4932 -1.1510 -0.5203
   91MOL0     C12464   7.978   6.044   0.174  0.2225  0.2358  0.1399
   91MOL0    Cl12465   7.819   6.103   0.113  0.1515  0.4512  0.0631
   91MOL0     C12466   8.875   6.533   0.396  0.6435  0.2683 -0.7035
   91MOL0     C12467   8.994   6.597   0.393 -0.5036 -0.2373 -0.2166
   91MOL0     O12468   9.217   6.631   0.578  0.2460  0.6061  0.5392
   91MOL0     C12469   9.359   6.931   0.458 -0.6575 -0.9189  0.1417
   91MOL0     C12470   9.482   7.004   0.450 -0.7506  0.1434 -0.0955
   91MOL0     N12471   9.666   7.558   0.817 -0.2812 -0.6373  0.0204
   91MOL0     N12472   9.607   7.611   0.921  0.2971 -0.1447 -0.1706
   91MOL0     C12473   8.635   6.914   0.763  0.3113  0.6105  0.0261
   91MOL0     C12474   8.498   6.867   0.744 -0.4362  0.6906 -0.7014
   91MOL0     C12475   8.088   6.652   0.806  0.7202  0.4910 -0.1899
   91MOL0     C12476   7.994   6.592   0.898 -0.1223  0.0346  0.6708
   91MOL0     C12477   7.895   6.511   0.844 -0.6815 -0.2606 -0.4402
   91MOL0     C12478   7.879   6.480   0.707  0.1128  0.0518 -1.1194
   91MOL0     O12479   7.790   6.382   0.665 -0.2976  0.3434 -0.8570
   91MOL0     C12480   7.749   6.367   0.526  0.4019 -0.0684  0.1424
   91MOL0     C12481   7.643   6.469   0.478 -0.5423 -0.3144  0.5912
   91MOL0     C12482   7.530   6.462   0.581  0.3054  0.5230  0.1879
   91MOL0     C12483   7.411   6.546   0.533 -0.5291  0.1419 -0.0907
   91MOL0     C12484   7.313   6.560   0.643 -0.1118 -0.6101  0.2159
   91MOL0     C12485   7.279   6.571   0.761 -1.2363  0.9488 -0.2409
   91MOL0     C12486   7.963   6.541   0.621 -0.4904 -0.2609  0.2025
   91MOL0     C12487   8.069   6.627   0.663 -0.5059  0.5064 -0.0479
   91MOL0     C12488   8.152   6.700   0.560 -0.5869 -0.4922 -0.8295
   91MOL0     H12489   8.451   6.669   1.018 -0.9268 -0.9021 -0.1323
   91MOL0     H12490   8.663   6.752   1.065  0.7569 -1.2292 -1.1441
   91MOL0     H12491   8.848   6.850   1.099 -0.2059  0.1772  1.3004
   91MOL0     H12492   8.764   7.013   1.095 -0.9014 -0.6860  1.4138
   91MOL0     H12493   9.044   6.954   1.119 -1.7095  1.0486  0.9666
   91MOL0     H12494   9.033   7.018   0.954  3.0784 -2.1921  0.6387
   91MOL0     H12495   8.899   7.218   1.060  0.6543  1.9393 -0.4723
   91MOL0     H12496   8.952   7.139   1.214 -1.3545 -0.6174 -0.6949
   91MOL0     H12497   9.179   7.160   1.166 -0.5918 -1.8204 -1.2158
   91MOL0     H12498   9.154   7.214   0.997 -0.4587  2.0063  0.2986
   91MOL0     H12499   9.064   7.363   1.233 -0.9675 -1.2159  0.0313
   91MOL0     H12500   9.070   7.428   1.072  0.4791 -0.2532 -0.0555
   91MOL0     H12501   9.271   7.504   1.231  0.9425 -1.4325  1.5515
   91MOL0     H12502   9.313   7.332   1.236 -1.4657  2.6432  3.6033
   91MOL0     H12503   9.327   7.475   0.982  1.3513 -1.6361 -1.2132
   91MOL0     H12504   9.392   7.319   1.037 -1.5321 -1.0117  1.4948
   91MOL0     H12505   9.482   7.582   1.167 -3.1107  0.7223 -1.3761
   91MOL0     H12506   9.550   7.421   1.192 -0.2915  0.8659  0.7082
   91MOL0     H12507   9.696   7.309   1.024  3.1633  0.2689  0.4575
   91MOL0     H12508   9.897   7.356   0.808 -1.0762  3.6663  2.6642
   91MOL0     H12509   9.826   7.440   0.671 -0.8688  0.0789 -0.5603
   91MOL0     H12510   9.858   7.167   0.681 -0.7848 -1.8128  1.1945
   91MOL0     H12511   9.716   7.163   0.772 -1.8149  0.6247 -2.0468
   91MOL0     H12512   9.579   7.212   0.603  0.2692  2.9494  4.8349
   91MOL0     H12513   9.680   7.342   0.537  0.9211 -0.5563 -1.9021
   91MOL0     H12514   9.684   7.171   0.361 -1.5874 -2.2592  0.0607
   91MOL0     H12515   9.841   7.177   0.446  0.1352 -3.5256  0.4874
   91MOL0     H12516   9.683   6.785   0.618 -0.7045 -1.4630 -0.7712
   91MOL0     H12517   9.571   6.636   0.745 -1.5227  0.1232  1.9195
   91MOL0     H12518   9.458   6.546   0.636  0.9903 -0.5126  0.5716
   91MOL0     H12519   9.403   6.643   0.771  3.2892 -2.4358  2.8958
   91MOL0     H12520   8.904   6.884   0.561 -0.1187  0.8374 -1.3258
   91MOL0     H12521   8.676   6.746   0.577 -0.5318  0.2748 -1.4984
   91MOL0     H12522   8.503   6.565   0.548  1.4436  0.3827 -0.5006
   91MOL0     H12523   8.547   6.671   0.419  3.1349 -0.7807 -1.7435
   91MOL0     H12524   8.350   6.556   0.346 -0.6437  0.1187  0.2094
   91MOL0     H12525   8.475   6.449   0.273  0.9859  1.1067 -0.6605
   91MOL0     H12526   8.336   6.384   0.540  1.5939  1.3020  0.5323
   91MOL0     H12527   8.486   6.312   0.471  1.3504  2.6136 -2.2259
   91MOL0     H12528   8.259   6.192   0.422  3.1959 -1.8892 -0.4637
   91MOL0     H12529   8.357   6.234   0.272  1.7689  3.2758 -0.5606
   91MOL0     H12530   8.160   6.440   0.352  0.8075  1.3443 -1.7887
   91MOL0     H12531   8.227   6.408   0.196  2.0064 -2.0788 -0.8172
   91MOL0     H12532   7.996   6.337   0.183 -2.3050 -0.1637  1.9749
   91MOL0     H12533   8.007   6.252   0.336 -1.1968 -1.7767 -1.2781
   91MOL0     H12534   8.179   6.091   0.209  1.7015 -0.2281 -1.7086
   91MOL0     H12535   8.111   6.159   0.060  1.1940 -1.0067 -0.3944
   91MOL0     H12536   7.963   6.014   0.279  2.8091 -1.8510  0.0125
   91MOL0     H12537   8.007   5.953   0.122  0.9246  0.1772  0.6113
   91MOL0     H12538   8.864   6.437   0.347  1.2460 -0.4400  0.5049
   91MOL0     H12539   9.077   6.555   0.337  0.1468  2.7663 -1.7110
   91MOL0     H12540   9.280   6.955   0.388 -0.1880  2.2885  0.5339
   91MOL0     H12541   9.477   7.094   0.389 -0.1391  0.2006 -0.0632
   91MOL0     H12542   8.694   6.971   0.692  1.1522  0.6422  0.7279
   91MOL0     H12543   8.440   6.900   0.659 -2.9712 -1.2590  0.1434
   91MOL0     H12544   8.007   6.611   1.004  4.1132  2.8764 -0.0665
   91MOL0     H12545   7.826   6.473   0.919 -1.4986  0.4508 -0.8055
   91MOL0     H12546   7.831   6.376   0.455 -1.4074  0.7603 -1.9573
   91MOL0     H12547   7.714   6.263   0.520 -1.2867  0.5283 -1.2765
   91MOL0     H12548   7.615   6.446   0.374  3.2048  3.8968 -1.6860
   91MOL0     H12549   7.698   6.562   0.492  2.2909 -2.1562  2.7756
   91MOL0     H12550   7.499   6.359   0.604 -0.9418  1.0792  1.1440
   91MOL0     H12551   7.557   6.500   0.680  1.0312  1.3155 -0.3106
   91MOL0     H12552   7.354   6.495   0.455  0.6118 -0.1356 -0.7536
   91MOL0     H12553   7.443   6.648   0.509 -0.9925  0.0244 -1.2695
   91MOL0     H12554   7.242   6.575   0.862  0.1253  0.6030  0.2958
   91MOL0     H12555   7.961   6.535   0.513  0.6048  1.6640  0.0282
   91MOL0     H12556   8.255   6.664   0.555 -0.8055 -1.0088 -1.9962
   91MOL0     H12557   8.098   6.703   0.465 -3.7589 -1.2520  0.8121
   91MOL0     H12558   8.160   6.804   0.590 -0.7557 -0.2757 -1.5105
   92MOL0     O12559   9.653   9.655   6.383 -0.2184  0.4299 -0.0839
   92MOL0     C12560   9.739   9.740   6.393  0.1704  0.4480 -0.0115
   92MOL0     O12561   9.865   9.713   6.370  0.1732  0.5051 -0.3533
   92MOL0     C12562   9.913   9.586   6.344  0.5144 -0.4563 -0.2107
   92MOL0     C12563  10.002   9.577   6.235 -0.2296  0.0245  0.2034
   92MOL0     C12564  10.057   9.452   6.185  0.8327  0.3133 -0.2029
   92MOL0     C12565  10.030   9.333   6.256 -0.3396  1.9777  0.2837
   92MOL0     O12566  10.049   9.209   6.217 -0.5879  0.1362  0.0354
   92MOL0     C12567  10.180   9.160   6.193 -0.2713  0.2999  0.6290
   92MOL0     C12568  10.154   9.020   6.140  0.3766 -0.1114  0.0754
   92MOL0     C12569  10.077   9.015   5.998  0.9129 -0.6849 -1.6200
   92MOL0     C12570  10.065   8.865   5.956 -1.1867  0.0521  0.5699
   92MOL0     C12571  10.007   8.851   5.815 -0.5927 -0.5096  0.6407
   92MOL0     C12572  10.030   8.717   5.738 -0.1726 -0.0802 -0.8588
   92MOL0     C12573   9.947   8.604   5.807  0.4587 -0.4649 -0.3632
   92MOL0     C12574   9.971   8.460   5.752  0.5318 -0.7125  0.4096
   92MOL0     N12575   9.907   8.443   5.622  0.0442 -0.1640  0.0247
   92MOL0     C12576   9.957   8.475   5.503 -0.0548 -0.4479 -0.1837
   92MOL0     C12577   9.867   8.435   5.405 -0.7531 -0.1626 -0.1986
   92MOL0     C12578   9.885   8.454   5.265 -0.4732 -0.5114  0.2212
   92MOL0     C12579   9.942   8.322   5.204  0.5915 -0.3822 -0.7203
   92MOL0     C12580   9.857   8.193   5.200 -0.0958  0.5069 -0.1533
   92MOL0     C12581   9.734   8.210   5.108 -0.8792 -0.4454 -0.7484
   92MOL0     O12582   9.764   8.267   4.979  0.1065  0.5305  0.1553
   92MOL0     C12583   9.660   8.280   4.892 -0.0666  0.3730 -0.4861
   92MOL0     C12584   9.533   8.217   4.905  0.3085 -0.5653  0.3710
   92MOL0     C12585   9.434   8.236   4.807 -0.5886  0.0577 -0.0476
   92MOL0     C12586   9.310   8.153   4.824 -0.1156 -0.2928  1.6835
   92MOL0     C12587   9.459   8.321   4.691 -0.5847  0.2090 -0.1030
   92MOL0     C12588   9.361   8.363   4.582 -0.0447  0.2011 -0.6509
   92MOL0     O12589   9.418   8.388   4.454  0.1763  0.1698 -0.6181
   92MOL0     C12590   9.347   8.443   4.352 -0.3878  0.3493  0.3891
   92MOL0     C12591   9.378   8.574   4.317  0.2151 -1.1423 -1.1933
   92MOL0     C12592   9.311   8.629   4.208 -0.0811 -0.4799 -0.2054
   92MOL0     C12593   9.214   8.559   4.130 -0.6537 -0.0817 -0.6828
   92MOL0     O12594   9.138   8.607   4.024 -0.6670 -0.2670 -0.6354
   92MOL0     C12595   9.201   8.688   3.923 -0.0168  0.0142 -0.5021
   92MOL0     C12596   9.145   8.665   3.779 -0.4728  0.6848  0.0147
   92MOL0     C12597   9.178   8.777   3.687 -0.0658 -0.2888 -0.8060
   92MOL0     C12598   9.261   8.737   3.563 -0.5232 -0.3023 -0.4208
   92MOL0     C12599   9.321   8.872   3.494  0.0665 -0.0771 -0.7123
   92MOL0     C12600   9.420   8.828   3.389 -0.1401 -0.1152  0.5572
   92MOL0     C12601   9.467   8.956   3.313 -0.0047  0.0433 -0.0688
   92MOL0     C12602   9.563   8.921   3.196  0.5847  1.1325  0.0982
   92MOL0    Cl12603   9.714   8.856   3.263  0.3283  0.1752  0.5976
   92MOL0     C12604   9.175   8.434   4.176 -0.0212  0.2621 -0.2747
   92MOL0     C12605   9.247   8.369   4.283 -0.1664 -0.5541  0.2799
   92MOL0     O12606   9.242   8.365   4.612  0.5063 -0.2778  0.3520
   92MOL0     C12607   9.586   8.380   4.683 -0.5010 -0.2010  0.1035
   92MOL0     C12608   9.687   8.364   4.780  0.2424 -0.4735 -0.0064
   92MOL0     N12609   9.769   8.369   5.469  1.1313  0.0150  0.5290
   92MOL0     N12610   9.786   8.382   5.600 -0.5773 -0.1221  1.2569
   92MOL0     C12611   9.940   9.347   6.358 -1.2587 -0.9148 -0.6436
   92MOL0     C12612   9.886   9.470   6.406 -0.1939  0.7939  0.7163
   92MOL0     C12613   9.704   9.878   6.424 -0.1473 -0.1678  0.0533
   92MOL0     C12614   9.793   9.942   6.518  0.0391 -0.0239 -0.1634
   92MOL0     C12615   9.775  10.074   6.565  0.9531  0.1842 -0.5132
   92MOL0     C12616   9.660  10.141   6.507  0.2636 -0.7286  0.1895
   92MOL0     O12617   9.634  10.269   6.555 -0.6102  0.1976 -0.0584
   92MOL0     C12618   9.733  10.370   6.516  0.5496 -0.8215  0.5505
   92MOL0     C12619   9.660  10.472   6.426  0.7377 -0.4015  0.6168
   92MOL0     C12620   9.723  10.596   6.365 -0.8603 -0.6377  0.1909
   92MOL0     C12621   9.821  10.564   6.257  0.0241  0.1356 -0.3475
   92MOL0     C12622   9.949  10.516   6.312  0.8379 -0.7700  0.1388
   92MOL0     C12623  10.043  10.484   6.375 -1.4511 -0.0345  0.2275
   92MOL0     C12624   9.564  10.076   6.430  0.0629  0.1090  0.3358
   92MOL0     C12625   9.585   9.946   6.380 -0.0574 -0.1091  0.7822
   92MOL0     C12626   9.478   9.879   6.292 -0.3053  0.0662  0.4501
   92MOL0     H12627  10.031   9.668   6.184 -2.6411  1.0411  0.5101
   92MOL0     H12628  10.123   9.453   6.098 -0.3977  0.3016 -1.1672
   92MOL0     H12629  10.247   9.156   6.279  1.4423  1.6291 -0.5600
   92MOL0     H12630  10.240   9.221   6.124  0.8428  2.9658  3.7033
   92MOL0     H12631  10.247   8.967   6.118  1.8607  0.8521  3.4206
   92MOL0     H12632  10.103   8.961   6.216 -0.9644 -1.5429 -1.8439
   92MOL0     H12633   9.980   9.065   6.003  0.8586 -0.8331 -1.1200
   92MOL0     H12634  10.123   9.074   5.919  0.5248  0.6423 -0.8924
   92MOL0     H12635  10.165   8.820   5.957  0.2096  2.8598  0.4171
   92MOL0     H12636  10.005   8.807   6.027  2.2036 -2.7020  1.4846
   92MOL0     H12637  10.055   8.933   5.760 -0.1017 -0.2122  1.4846
   92MOL0     H12638   9.900   8.872   5.822 -0.9051 -1.3265 -1.1813
   92MOL0     H12639  10.007   8.720   5.631 -2.4573 -1.7480 -0.4993
   92MOL0     H12640  10.138   8.704   5.747  0.0475  1.0111 -1.7606
   92MOL0     H12641   9.842   8.628   5.789  0.2296 -0.5928  0.7624
   92MOL0     H12642   9.970   8.609   5.914  0.5508  2.3940 -0.4510
   92MOL0     H12643  10.078   8.447   5.731  0.6724 -1.9193  1.6630
   92MOL0     H12644   9.944   8.388   5.830  0.0075  0.6057  1.4997
   92MOL0     H12645  10.059   8.502   5.477 -0.7518  2.2180 -0.5084
   92MOL0     H12646   9.956   8.537   5.251 -0.6068  0.4856  4.2542
   92MOL0     H12647   9.786   8.478   5.223 -1.3491 -2.7129  0.9122
   92MOL0     H12648   9.969   8.342   5.100 -1.2810  1.3279 -0.9434
   92MOL0     H12649  10.037   8.285   5.244 -0.8018 -3.3630  0.1124
   92MOL0     H12650   9.916   8.109   5.163 -2.6783 -0.7757 -1.6329
   92MOL0     H12651   9.814   8.178   5.300 -2.3657  2.8451 -0.6767
   92MOL0     H12652   9.690   8.110   5.097  3.0437 -2.9946  3.5228
   92MOL0     H12653   9.664   8.276   5.160 -1.2043 -0.9119 -0.5775
   92MOL0     H12654   9.530   8.145   4.986  4.8129 -1.8259 -0.2710
   92MOL0     H12655   9.293   8.088   4.739 -2.7635  1.3453  0.8259
   92MOL0     H12656   9.222   8.219   4.832  0.6229  0.7731  1.3111
   92MOL0     H12657   9.312   8.093   4.915 -2.0622  2.3171  3.6394
   92MOL0     H12658   9.437   8.634   4.386 -3.3605 -0.2172  1.3691
   92MOL0     H12659   9.307   8.736   4.192 -0.5234 -0.1584  1.7759
   92MOL0     H12660   9.189   8.792   3.956 -1.7044 -0.3532  0.1580
   92MOL0     H12661   9.308   8.666   3.931 -0.1530 -0.4294  0.1605
   92MOL0     H12662   9.172   8.571   3.731 -0.6075  0.5643  0.1740
   92MOL0     H12663   9.036   8.660   3.780 -0.8848  1.3491 -5.9155
   92MOL0     H12664   9.222   8.854   3.751  1.0594 -2.5913  1.3845
   92MOL0     H12665   9.081   8.812   3.651  0.1973  1.3825  0.0229
   92MOL0     H12666   9.193   8.688   3.494 -0.0283  2.3068 -2.9270
   92MOL0     H12667   9.341   8.666   3.586  0.7791  1.1761 -0.2477
   92MOL0     H12668   9.242   8.923   3.436  0.4037 -0.2028 -1.2925
   92MOL0     H12669   9.360   8.947   3.563 -2.8891  0.3687  0.6631
   92MOL0     H12670   9.362   8.767   3.319  0.3701 -0.9458  0.8369
   92MOL0     H12671   9.509   8.778   3.428  1.5331  3.7147  2.1700
   92MOL0     H12672   9.517   9.023   3.384  0.4877 -0.5093  0.1206
   92MOL0     H12673   9.384   9.006   3.264  0.4005  0.1723 -0.6394
   92MOL0     H12674   9.585   9.007   3.133 -2.8391  0.3001 -2.5314
   92MOL0     H12675   9.512   8.852   3.128  2.7813 -1.2156  0.6744
   92MOL0     H12676   9.102   8.377   4.120  1.7335 -2.9196  0.4587
   92MOL0     H12677   9.224   8.268   4.318  0.3402 -0.6356  0.3882
   92MOL0     H12678   9.611   8.442   4.598  1.7686 -2.2079 -0.8165
   92MOL0     H12679   9.777   8.424   4.787 -0.2888  0.1388  3.8421
   92MOL0     H12680   9.901   9.255   6.401 -0.2840 -1.4398 -0.8515
   92MOL0     H12681   9.812   9.469   6.486  0.5027 -1.0578  1.3872
   92MOL0     H12682   9.876   9.885   6.558 -0.9463 -1.7864 -0.4975
   92MOL0     H12683   9.834  10.104   6.651 -0.8589 -2.1140  1.6653
   92MOL0     H12684   9.772  10.418   6.606 -0.8594  0.6717  0.4239
   92MOL0     H12685   9.815  10.321   6.462  1.9447  1.4631  0.4042
   92MOL0     H12686   9.587  10.525   6.488  0.8759  3.0130 -1.8716
   92MOL0     H12687   9.601  10.416   6.353  0.8355 -1.4351  1.3024
   92MOL0     H12688   9.642  10.648   6.312 -1.1312 -1.5076 -0.2557
   92MOL0     H12689   9.764  10.661   6.443 -2.5901  1.3042 -0.4341
   92MOL0     H12690   9.834  10.656   6.200 -3.7441 -0.3500 -2.3145
   92MOL0     H12691   9.785  10.482   6.195  3.2506 -1.1989 -0.6629
   92MOL0     H12692  10.134  10.449   6.420 -1.7422 -1.5674 -0.2896
   92MOL0     H12693   9.469  10.123   6.409  0.0182  0.7317  1.8542
   92MOL0     H12694   9.420   9.807   6.350 -0.9869 -0.0020 -0.2948
   92MOL0     H12695   9.397   9.947   6.265  1.3527  2.5044  1.2572
   92MOL0     H12696   9.524   9.839   6.201  2.7385 -0.2524  2.0054
   93MOL0     O12697   1.133   1.540   7.695  0.6544 -1.5601  0.4341
   93MOL0     C12698   1.252   1.536   7.735  0.8452 -0.3213 -0.5306
   93MOL0     O12699   1.350   1.633   7.719  0.1582 -0.0396  0.2158
   93MOL0     C12700   1.313   1.745   7.655  1.0564 -0.8062  0.3079
   93MOL0     C12701   1.281   1.752   7.512  0.9064  0.5550 -0.5125
   93MOL0     C12702   1.243   1.874   7.445  0.1147  0.1801 -0.4306
   93MOL0     C12703   1.268   1.990   7.508  1.1532  0.0333 -0.0256
   93MOL0     O12704   1.263   2.108   7.441 -0.2388 -0.5474 -0.3909
   93MOL0     C12705   1.368   2.160   7.360  1.0693  1.0211 -0.1369
   93MOL0     C12706   1.310   2.164   7.222  0.4703  0.0134 -0.5615
   93MOL0     C12707   1.256   2.294   7.184 -0.7823  0.4497  0.7402
   93MOL0     C12708   1.109   2.301   7.207  0.9410 -0.4825  0.4682
   93MOL0     C12709   1.049   2.444   7.194  0.8518  0.1564 -0.5871
   93MOL0     C12710   0.902   2.455   7.243  0.2927  0.0762  0.0025
   93MOL0     C12711   0.800   2.384   7.150  0.0167  0.3572 -0.1476
   93MOL0     C12712   0.760   2.454   7.015  0.3310 -1.2145  0.1885
   93MOL0     N12713   0.638   2.387   6.961  0.1626  0.8240  0.3762
   93MOL0     C12714   0.515   2.439   6.952  0.4200  0.2814 -0.0024
   93MOL0     C12715   0.442   2.355   6.870  0.2903 -0.7796 -0.5987
   93MOL0     C12716   0.299   2.382   6.825  0.0292  0.3814 -0.1920
   93MOL0     C12717   0.208   2.262   6.805 -2.0073 -0.5386 -0.0768
   93MOL0     C12718   0.061   2.294   6.765  0.0040  0.4218  1.1298
   93MOL0     C12719  -0.010   2.158   6.758  0.4100 -0.3542 -0.2881
   93MOL0     O12720  -0.145   2.187   6.781 -0.2524  0.0505 -0.4691
   93MOL0     C12721  -0.242   2.094   6.778 -0.2351  0.3381 -0.1060
   93MOL0     C12722  -0.355   2.114   6.851 -0.0565  0.6248  0.5816
   93MOL0     C12723  -0.459   2.015   6.857 -0.1149 -0.1894  0.2226
   93MOL0     C12724  -0.584   2.047   6.948 -0.7574  0.6288  0.1990
   93MOL0     C12725  -0.439   1.891   6.782  0.0594 -0.7322 -0.6682
   93MOL0     C12726  -0.537   1.784   6.780  0.5144  0.4714  0.6088
   93MOL0     O12727  -0.595   1.753   6.905 -0.3931  0.1612  0.3884
   93MOL0     C12728  -0.690   1.655   6.902  0.8681  0.1319 -0.0035
   93MOL0     C12729  -0.675   1.518   6.856 -0.3033  0.0330 -1.0918
   93MOL0     C12730  -0.788   1.436   6.872  0.5738 -0.1093 -0.4610
   93MOL0     C12731  -0.913   1.480   6.921  0.0794  0.0900  0.0133
   93MOL0     O12732  -1.011   1.387   6.927  0.6424  0.3008  0.2081
   93MOL0     C12733  -1.142   1.424   6.976  0.3115 -0.6706  0.2254
   93MOL0     C12734  -1.239   1.312   7.013 -0.1248  0.0283 -0.0104
   93MOL0     C12735  -1.296   1.230   6.902  0.5138  0.2993 -0.0537
   93MOL0     C12736  -1.366   1.321   6.795 -0.5717  0.8596  0.4478
   93MOL0     C12737  -1.379   1.233   6.669  0.3482 -0.3029 -0.1715
   93MOL0     C12738  -1.473   1.295   6.576 -0.0783 -0.1072  0.6421
   93MOL0     C12739  -1.495   1.202   6.456 -0.7897  0.1169  0.0075
   93MOL0     C12740  -1.587   1.264   6.352  0.0972 -0.8476  0.0788
   93MOL0    Cl12741  -1.533   1.424   6.290  0.0549  0.1234 -0.5982
   93MOL0     C12742  -0.923   1.614   6.953 -0.1350 -0.9476 -0.2002
   93MOL0     C12743  -0.815   1.700   6.948 -0.5269 -0.5885 -0.5564
   93MOL0     O12744  -0.556   1.720   6.673 -0.3649 -0.3159  0.0193
   93MOL0     C12745  -0.328   1.885   6.703 -0.0462 -0.3610  0.0589
   93MOL0     C12746  -0.227   1.973   6.698  0.6409 -0.2306 -1.0098
   93MOL0     N12747   0.512   2.248   6.849  0.3528  0.0166 -0.0717
   93MOL0     N12748   0.629   2.261   6.911  0.8376  0.5268 -0.3046
   93MOL0     C12749   1.311   1.994   7.639 -0.2793 -0.4919  0.9029
   93MOL0     C12750   1.328   1.877   7.714  0.8140 -0.2357 -0.5917
   93MOL0     C12751   1.297   1.421   7.818  0.2410 -0.2921  1.0178
   93MOL0     C12752   1.435   1.406   7.853  0.3705  0.0587 -0.3879
   93MOL0     C12753   1.477   1.294   7.919  0.0248  0.7271 -0.1527
   93MOL0     C12754   1.395   1.187   7.965  0.2960  0.1594 -0.2666
   93MOL0     O12755   1.438   1.072   8.028  0.1453 -0.0311 -0.1809
   93MOL0     C12756   1.571   1.060   8.081 -0.3020 -0.7719 -0.4192
   93MOL0     C12757   1.601   0.909   8.073  0.2963 -0.4845  0.3214
   93MOL0     C12758   1.739   0.872   8.140 -0.2468  0.5513  0.2370
   93MOL0     C12759   1.866   0.925   8.075  0.3979  0.4612  0.1030
   93MOL0     C12760   1.869   0.891   7.933 -0.2931  0.4563 -1.0495
   93MOL0     C12761   1.882   0.853   7.823  0.0815 -0.5427  0.3259
   93MOL0     C12762   1.262   1.206   7.942  0.0453  0.4283  0.0773
   93MOL0     C12763   1.209   1.321   7.871 -0.2832  0.1673  0.3018
   93MOL0     C12764   1.067   1.326   7.844 -0.1528 -0.2474 -0.7048
   93MOL0     H12765   1.271   1.661   7.454  0.3382  0.1876  0.1460
   93MOL0     H12766   1.211   1.879   7.342  0.1016  0.9172 -0.4016
   93MOL0     H12767   1.457   2.099   7.342 -0.5521 -1.0507 -1.5786
   93MOL0     H12768   1.406   2.251   7.409  3.1859 -0.8663  2.0159
   93MOL0     H12769   1.383   2.131   7.148 -0.5250  0.9778 -2.0062
   93MOL0     H12770   1.229   2.091   7.216 -1.4534  1.4022  3.9890
   93MOL0     H12771   1.305   2.379   7.233 -1.1806 -0.0518  2.0558
   93MOL0     H12772   1.275   2.307   7.077 -1.3145  2.8300  0.8562
   93MOL0     H12773   1.058   2.230   7.141 -0.5134 -0.1973  1.2333
   93MOL0     H12774   1.076   2.263   7.304 -2.5487 -2.8485 -1.4367
   93MOL0     H12775   1.052   2.490   7.095 -0.2073  1.6996  0.0584
   93MOL0     H12776   1.111   2.509   7.257  2.8726 -1.8265 -0.3655
   93MOL0     H12777   0.892   2.405   7.341 -1.3970  1.2269  0.4603
   93MOL0     H12778   0.870   2.557   7.268  1.4129  0.2399  0.8449
   93MOL0     H12779   0.702   2.375   7.198  0.5844  1.9714  1.4401
   93MOL0     H12780   0.828   2.278   7.143 -0.7676  0.2447 -2.5802
   93MOL0     H12781   0.755   2.563   7.030  1.5716 -1.0392 -0.5824
   93MOL0     H12782   0.847   2.434   6.952  1.3346  2.3215  0.2175
   93MOL0     H12783   0.485   2.539   6.985 -0.7512  0.2030 -0.7685
   93MOL0     H12784   0.303   2.444   6.735 -0.9095  1.3670  0.4355
   93MOL0     H12785   0.249   2.449   6.896 -0.7940 -0.2063 -0.1977
   93MOL0     H12786   0.249   2.194   6.731  2.9512  0.5896  1.2630
   93MOL0     H12787   0.212   2.198   6.894 -1.0064  0.5581  0.7014
   93MOL0     H12788   0.018   2.347   6.850  2.0170 -1.3984  3.4261
   93MOL0     H12789   0.049   2.353   6.674 -1.6535  1.4070  1.9451
   93MOL0     H12790   0.005   2.118   6.657  1.1122  1.4648 -0.9493
   93MOL0     H12791   0.022   2.089   6.836  1.4522 -0.9717 -1.2364
   93MOL0     H12792  -0.354   2.207   6.908  1.2309  0.3731  0.9988
   93MOL0     H12793  -0.572   2.151   6.980  1.0229  0.1377  1.2041
   93MOL0     H12794  -0.559   1.983   7.033  0.8281  0.0558 -0.6623
   93MOL0     H12795  -0.679   2.010   6.906  0.6822 -2.3157 -0.7442
   93MOL0     H12796  -0.581   1.474   6.827 -0.3255 -0.8588  0.1252
   93MOL0     H12797  -0.774   1.329   6.861  0.8846 -0.3906  1.9624
   93MOL0     H12798  -1.140   1.483   7.068 -2.2911 -1.0165  0.5608
   93MOL0     H12799  -1.192   1.484   6.899 -3.7762 -0.9670  2.3839
   93MOL0     H12800  -1.185   1.237   7.073  0.0779  0.4031  0.2833
   93MOL0     H12801  -1.316   1.353   7.079 -0.0728 -3.5187  2.5370
   93MOL0     H12802  -1.365   1.159   6.948  2.3439 -1.8238 -0.4724
   93MOL0     H12803  -1.222   1.164   6.857 -1.0652 -1.4139 -0.2371
   93MOL0     H12804  -1.305   1.403   6.754 -1.8593  1.6339  0.0249
   93MOL0     H12805  -1.464   1.356   6.826 -0.6229 -0.7925  2.3545
   93MOL0     H12806  -1.277   1.234   6.629  0.8646  3.0065  0.9542
   93MOL0     H12807  -1.414   1.136   6.705 -0.7088 -0.0398 -0.4579
   93MOL0     H12808  -1.431   1.391   6.546  2.8147 -0.9429  1.6624
   93MOL0     H12809  -1.572   1.307   6.620  0.2540 -0.6830  1.5666
   93MOL0     H12810  -1.522   1.102   6.491  1.0540  0.1588  1.7004
   93MOL0     H12811  -1.393   1.191   6.419 -0.0458  2.0933  1.3287
   93MOL0     H12812  -1.682   1.288   6.400  0.4379  0.0625  0.3342
   93MOL0     H12813  -1.608   1.191   6.273  1.8481  0.2023 -1.4476
   93MOL0     H12814  -1.021   1.643   6.990 -1.1004 -2.5104 -1.4053
   93MOL0     H12815  -0.824   1.801   6.985 -1.3695  0.6185 -3.7975
   93MOL0     H12816  -0.316   1.796   6.641  1.3426 -0.8745  0.9903
   93MOL0     H12817  -0.138   1.964   6.636  4.0077 -0.1348  3.2752
   93MOL0     H12818   1.340   2.092   7.676 -2.6811  1.1066 -1.0886
   93MOL0     H12819   1.353   1.901   7.817 -1.3248  1.1316 -0.3444
   93MOL0     H12820   1.507   1.476   7.813  1.6349 -1.9644 -1.8369
   93MOL0     H12821   1.585   1.281   7.928 -0.3060 -0.7123  2.4535
   93MOL0     H12822   1.653   1.111   8.029 -0.6104 -0.0494 -0.2146
   93MOL0     H12823   1.566   1.105   8.180  0.9337 -1.1224 -0.1793
   93MOL0     H12824   1.605   0.871   7.971  1.4835 -1.0049  0.5457
   93MOL0     H12825   1.534   0.839   8.126 -0.1787 -0.7243 -0.5809
   93MOL0     H12826   1.731   0.887   8.248 -1.3284 -1.6363  0.5085
   93MOL0     H12827   1.739   0.764   8.125  2.9390  0.1078  2.4422
   93MOL0     H12828   1.949   0.875   8.125  0.5509 -2.7599 -2.9357
   93MOL0     H12829   1.870   1.033   8.093  1.1079  0.2455  1.3299
   93MOL0     H12830   1.909   0.837   7.721 -0.4640  0.2227  0.0525
   93MOL0     H12831   1.195   1.134   7.987 -0.5689  2.1826  2.0858
   93MOL0     H12832   1.020   1.248   7.905 -0.4868 -0.3388 -1.0764
   93MOL0     H12833   1.025   1.425   7.865  0.5657 -0.0166 -0.2967
   93MOL0     H12834   1.060   1.293   7.740  0.5675 -2.5719 -0.0873
   94MOL0     O12835   7.928   0.032   6.526  0.2671  0.0398 -0.3888
   94MOL0     C12836   7.831   0.098   6.562 -0.0517 -0.0449 -0.3024
   94MOL0     O12837   7.826   0.166   6.676 -0.0021  0.0292  0.1212
   94MOL0     C12838   7.909   0.135   6.782 -0.0576  0.3252  0.0816
   94MOL0     C12839   8.020   0.213   6.805  0.1130 -0.4142  0.5411
   94MOL0     C12840   8.084   0.195   6.932  0.0120 -0.1113  0.0578
   94MOL0     C12841   8.043   0.098   7.030  0.2434  0.1722 -0.7720
   94MOL0     O12842   8.108   0.069   7.154  0.0395 -0.0501  0.5101
   94MOL0     C12843   8.240   0.123   7.173  0.8793 -0.5976  0.0918
   94MOL0     C12844   8.286   0.104   7.314 -0.8631 -0.3948  0.9383
   94MOL0     C12845   8.438   0.123   7.319 -0.7925 -0.0740  0.4873
   94MOL0     C12846   8.479   0.183   7.461  0.0349  0.7534  0.7652
   94MOL0     C12847   8.617   0.228   7.456  0.1870  1.0770 -0.1593
   94MOL0     C12848   8.673   0.275   7.592 -0.4431  0.1437 -0.4321
   94MOL0     C12849   8.814   0.308   7.577 -0.7568 -0.2690 -0.3525
   94MOL0     C12850   8.857   0.409   7.683  0.4302  0.2021 -0.1621
   94MOL0     N12851   8.997   0.433   7.668  0.4872 -0.4386  0.5101
   94MOL0     C12852   9.067   0.479   7.560  0.4996  0.5515  0.1494
   94MOL0     C12853   9.200   0.479   7.600 -0.0567 -0.4140  0.9323
   94MOL0     C12854   9.330   0.529   7.534  0.1048 -0.4700  0.5337
   94MOL0     C12855   9.410   0.434   7.450  0.3642 -0.9594  0.4686
   94MOL0     C12856   9.447   0.305   7.531  0.5928 -0.2410 -0.3303
   94MOL0     C12857   9.511   0.201   7.428  0.7469  0.0698 -0.1496
   94MOL0     O12858   9.539   0.075   7.493  0.1206 -0.4799  0.8713
   94MOL0     C12859   9.634   0.083   7.590 -0.1146  0.3838 -0.1758
   94MOL0     C12860   9.756   0.156   7.591 -0.0017 -0.6253 -0.6067
   94MOL0     C12861   9.828   0.164   7.706  0.1698 -0.7316 -0.4908
   94MOL0     C12862   9.944   0.266   7.712  0.1388  0.2881 -0.1290
   94MOL0     C12863   9.789   0.075   7.815  0.2888  0.3434 -0.8773
   94MOL0     C12864   9.868   0.062   7.941  0.7229 -0.1364  0.5921
   94MOL0     O12865   9.989   0.128   7.951  0.4602  0.5665 -0.1917
   94MOL0     C12866  10.070   0.109   8.054  0.2407 -0.4812 -0.0181
   94MOL0     C12867  10.096  -0.016   8.111 -0.8492  1.1619 -0.1165
   94MOL0     C12868  10.186  -0.029   8.221 -0.0202 -0.0570  0.3260
   94MOL0     C12869  10.248   0.085   8.268  0.7292 -0.3069  0.2742
   94MOL0     O12870  10.341   0.084   8.362 -0.1545  0.2753 -0.1789
   94MOL0     C12871  10.440  -0.018   8.365  1.0240  0.4079  0.2946
   94MOL0     C12872  10.575   0.029   8.412 -0.4148  0.0382  0.1291
   94MOL0     C12873  10.647  -0.105   8.454  0.4504  0.2527 -0.2713
   94MOL0     C12874  10.790  -0.088   8.518 -0.0175  0.5041  0.2202
   94MOL0     C12875  10.866  -0.218   8.546  0.0126 -0.7686  0.2398
   94MOL0     C12876  10.911  -0.290   8.425  0.1753  0.2110 -0.2590
   94MOL0     C12877  10.959  -0.437   8.458 -0.7422 -0.1640  0.8111
   94MOL0     C12878  11.083  -0.437   8.544 -1.4298 -1.1147  0.5584
   94MOL0    Cl12879  11.206  -0.359   8.456 -0.5688 -0.3280 -0.4199
   94MOL0     C12880  10.214   0.216   8.219  0.0485  0.0735  0.6781
   94MOL0     C12881  10.124   0.230   8.108 -0.4073  0.5147 -1.2835
   94MOL0     O12882   9.821  -0.010   8.029 -0.2230 -0.2278  0.2838
   94MOL0     C12883   9.672   0.001   7.808  1.3765 -0.0500 -0.2743
   94MOL0     C12884   9.595   0.014   7.696  0.3626 -0.0588 -0.4833
   94MOL0     N12885   9.203   0.435   7.729 -0.4323 -0.9254  0.1268
   94MOL0     N12886   9.084   0.407   7.768 -0.5038 -0.5690  0.0793
   94MOL0     C12887   7.936   0.017   6.992 -0.5606  0.1416  0.3844
   94MOL0     C12888   7.866   0.037   6.871  0.1140 -0.3502  0.0494
   94MOL0     C12889   7.713   0.103   6.468 -0.0404 -0.2936  0.3540
   94MOL0     C12890   7.619   0.204   6.489  0.3048  0.1605  0.0476
   94MOL0     C12891   7.508   0.227   6.401 -0.4294 -0.0186  0.2484
   94MOL0     C12892   7.489   0.133   6.304 -0.8254  0.6490  0.1787
   94MOL0     O12893   7.371   0.149   6.236  0.2725 -0.1476  1.0724
   94MOL0     C12894   7.322   0.061   6.133  0.1989 -0.5666 -0.3523
   94MOL0     C12895   7.186   0.111   6.093 -0.2153 -0.0247  0.6555
   94MOL0     C12896   7.073   0.028   6.030  0.2150  0.2367 -0.6570
   94MOL0     C12897   6.955   0.116   6.007  0.9093 -0.0608 -0.1436
   94MOL0     C12898   6.836   0.041   5.970  0.7296  0.0924  0.1027
   94MOL0     C12899   6.738  -0.020   5.945 -0.1426  0.3162  0.3120
   94MOL0     C12900   7.579   0.029   6.279  0.1627 -0.8349 -0.3225
   94MOL0     C12901   7.687   0.008   6.364 -0.0824 -0.0765  0.3170
   94MOL0     C12902   7.759  -0.124   6.351  0.2598 -0.6727  1.0085
   94MOL0     H12903   8.055   0.281   6.728 -0.7191 -2.8570 -2.2085
   94MOL0     H12904   8.173   0.256   6.939 -1.7966  2.5233  1.2921
   94MOL0     H12905   8.231   0.229   7.149 -2.1026 -0.5294  1.1451
   94MOL0     H12906   8.305   0.077   7.097  1.6723  1.6336 -0.6399
   94MOL0     H12907   8.239   0.175   7.383  0.2266  1.2504  0.0213
   94MOL0     H12908   8.263   0.000   7.342 -0.4935 -0.0960  2.4418
   94MOL0     H12909   8.488   0.026   7.309 -3.0124 -1.3872  1.1924
   94MOL0     H12910   8.462   0.194   7.240 -0.9502  1.5324  1.8296
   94MOL0     H12911   8.417   0.272   7.476 -1.0198  0.8488 -3.0879
   94MOL0     H12912   8.481   0.105   7.538 -1.7146  0.2361  0.3323
   94MOL0     H12913   8.633   0.300   7.376 -0.2080 -1.8086 -3.0533
   94MOL0     H12914   8.676   0.145   7.415 -2.1989 -0.9640  0.2297
   94MOL0     H12915   8.610   0.358   7.625 -0.5745 -0.2038  0.1886
   94MOL0     H12916   8.662   0.200   7.670 -3.2519 -0.2645 -1.0944
   94MOL0     H12917   8.827   0.347   7.476 -1.3173  0.4865 -0.1430
   94MOL0     H12918   8.869   0.215   7.592 -1.6613 -0.5627  1.4533
   94MOL0     H12919   8.794   0.498   7.680 -0.1226  0.0668  3.1918
   94MOL0     H12920   8.828   0.372   7.782 -3.7475  0.9997 -0.8921
   94MOL0     H12921   9.018   0.506   7.468  1.5047 -2.0134 -1.2392
   94MOL0     H12922   9.399   0.556   7.615 -1.1830  1.0614  1.1735
   94MOL0     H12923   9.305   0.617   7.475 -0.0869 -0.6896  0.2851
   94MOL0     H12924   9.344   0.414   7.365 -2.2686  2.5255  1.4650
   94MOL0     H12925   9.500   0.481   7.411 -0.5469  0.2071 -0.3252
   94MOL0     H12926   9.518   0.337   7.608 -0.3782  1.6946 -0.1955
   94MOL0     H12927   9.359   0.260   7.579 -0.4329  1.5437 -0.4353
   94MOL0     H12928   9.446   0.176   7.343  1.6164  0.5776 -0.9884
   94MOL0     H12929   9.607   0.243   7.395  0.7499 -1.8269 -2.8997
   94MOL0     H12930   9.796   0.205   7.503  2.7897  2.6346  2.1963
   94MOL0     H12931   9.936   0.349   7.641  0.0719  0.5704  0.2080
   94MOL0     H12932  10.041   0.215   7.705  0.2608  0.6439 -1.1657
   94MOL0     H12933   9.942   0.313   7.810 -1.1363 -0.1467  0.0733
   94MOL0     H12934  10.044  -0.104   8.074  0.8688 -0.5524  1.3156
   94MOL0     H12935  10.212  -0.126   8.262  0.8045  0.1847  0.3998
   94MOL0     H12936  10.405  -0.100   8.428  1.0697  0.6332  0.6173
   94MOL0     H12937  10.464  -0.057   8.265  1.6203  0.4303  0.4226
   94MOL0     H12938  10.631   0.078   8.331  0.3343 -0.7649  0.1553
   94MOL0     H12939  10.559   0.099   8.494 -0.3573  2.4023 -1.7394
   94MOL0     H12940  10.651  -0.170   8.366  0.1591 -0.4468  0.2246
   94MOL0     H12941  10.585  -0.146   8.534  1.6609  0.6866  0.9136
   94MOL0     H12942  10.787  -0.020   8.604  0.4043 -0.5222  1.0663
   94MOL0     H12943  10.858  -0.033   8.452  1.7614  0.4451  1.9135
   94MOL0     H12944  10.950  -0.182   8.606 -0.2371  2.7423 -1.2901
   94MOL0     H12945  10.796  -0.277   8.607 -0.1850 -0.2053  0.5597
   94MOL0     H12946  10.995  -0.239   8.376 -0.8564  2.0193 -0.2043
   94MOL0     H12947  10.829  -0.293   8.352 -0.7521  0.5107  0.7571
   94MOL0     H12948  10.988  -0.484   8.364  0.0040  1.1972  0.3275
   94MOL0     H12949  10.877  -0.488   8.508  0.8577 -0.7788  2.9493
   94MOL0     H12950  11.109  -0.538   8.576  0.1883 -1.3868 -1.4094
   94MOL0     H12951  11.065  -0.377   8.633 -2.3427  0.0769 -0.3897
   94MOL0     H12952  10.260   0.304   8.262  3.2275  0.2767 -2.7044
   94MOL0     H12953  10.103   0.324   8.058 -1.7102 -0.0582 -1.8735
   94MOL0     H12954   9.640  -0.059   7.893  3.4362  0.7423  1.1626
   94MOL0     H12955   9.493  -0.024   7.687 -0.0960  1.0117  0.0301
   94MOL0     H12956   7.908  -0.068   7.053  1.7765 -0.9374  0.0732
   94MOL0     H12957   7.794  -0.043   6.854 -0.2813 -0.2705  1.2397
   94MOL0     H12958   7.625   0.266   6.577 -0.5356 -2.8292  2.3955
   94MOL0     H12959   7.443   0.314   6.403  2.3814  2.2669 -0.5266
   94MOL0     H12960   7.398   0.060   6.055 -0.5290 -0.1848 -1.0864
   94MOL0     H12961   7.308  -0.037   6.180 -0.7703 -1.1834 -1.8390
   94MOL0     H12962   7.209   0.201   6.035 -0.2243 -2.2508 -3.1883
   94MOL0     H12963   7.145   0.150   6.186 -1.6824 -2.4625  1.1062
   94MOL0     H12964   7.120  -0.000   5.935  2.1642 -0.3109  0.4184
   94MOL0     H12965   7.055  -0.059   6.093 -0.0298 -0.6848 -1.9765
   94MOL0     H12966   6.980   0.179   5.921 -1.6991  4.1775  1.8819
   94MOL0     H12967   6.933   0.180   6.093 -0.5202 -1.4436  0.5850
   94MOL0     H12968   6.660  -0.092   5.928  0.2950 -0.9170  2.9794
   94MOL0     H12969   7.549  -0.045   6.206 -0.0881 -2.3219  1.2512
   94MOL0     H12970   7.682  -0.200   6.339 -1.4471  0.3116  4.4895
   94MOL0     H12971   7.822  -0.121   6.261  0.6561 -1.3927  1.2590
   94MOL0     H12972   7.812  -0.156   6.441 -0.8057 -1.2697  1.4336
   95MOL0     O12973   6.588   0.969   4.130  0.0783  0.0562 -0.5923
   95MOL0     C12974   6.552   0.880   4.057 -0.4908 -1.1162  0.6203
   95MOL0     O12975   6.614   0.841   3.937 -0.0125  0.3490  0.2788
   95MOL0     C12976   6.748   0.866   3.913 -0.7560 -0.4949 -0.4064
   95MOL0     C12977   6.841   0.935   3.995  0.2507  0.0844 -0.2831
   95MOL0     C12978   6.974   0.949   3.964  0.1423 -0.7802 -0.9242
   95MOL0     C12979   7.032   0.899   3.842  0.5765 -0.6738 -1.1419
   95MOL0     O12980   7.169   0.918   3.828  0.4025 -0.1015 -0.1773
   95MOL0     C12981   7.235   0.900   3.701 -0.3383 -0.2433 -1.0357
   95MOL0     C12982   7.388   0.897   3.735  1.3096 -0.4117 -0.2132
   95MOL0     C12983   7.478   0.936   3.615 -0.4550 -0.3981 -0.6067
   95MOL0     C12984   7.619   0.909   3.655 -0.6253  0.6420 -0.2178
   95MOL0     C12985   7.719   0.907   3.537 -0.3537 -0.6629  0.7706
   95MOL0     C12986   7.809   0.783   3.516  0.2977  0.1260  0.1457
   95MOL0     C12987   7.741   0.659   3.466 -0.0114  0.5041  0.3587
   95MOL0     C12988   7.838   0.542   3.447  0.4921  0.5269  1.1725
   95MOL0     N12989   7.788   0.479   3.329 -0.5143 -0.7948 -0.3828
   95MOL0     C12990   7.849   0.465   3.204 -0.1706 -0.7085  0.6186
   95MOL0     C12991   7.770   0.374   3.142  0.2308 -0.5018 -0.3466
   95MOL0     C12992   7.792   0.314   3.007  0.2843  0.8115  0.2242
   95MOL0     C12993   7.894   0.204   3.025  0.2019 -0.0243 -0.5205
   95MOL0     C12994   8.024   0.251   2.949 -0.0208 -0.0261  0.3090
   95MOL0     C12995   8.155   0.169   2.966 -0.4645 -0.7941  0.2260
   95MOL0     O12996   8.206   0.189   3.104  0.1883  0.3768 -0.7189
   95MOL0     C12997   8.338   0.145   3.141  0.4218  0.3621 -0.2390
   95MOL0     C12998   8.451   0.124   3.062 -0.7460 -0.4558  0.8012
   95MOL0     C12999   8.574   0.091   3.125  0.4761  1.0469  0.5187
   95MOL0     C13000   8.685   0.053   3.035 -0.7896  0.0114 -0.4600
   95MOL0     C13001   8.579   0.075   3.269 -0.5053 -0.7591  0.5431
   95MOL0     C13002   8.703   0.027   3.347  0.3941  0.3580  0.3205
   95MOL0     O13003   8.701   0.067   3.481 -0.3171  0.1812 -0.3978
   95MOL0     C13004   8.809   0.036   3.554 -0.3570  0.7275  0.5380
   95MOL0     C13005   8.788  -0.049   3.662 -0.2962 -0.1764 -0.8774
   95MOL0     C13006   8.894  -0.102   3.736  0.0550  0.4912  0.5470
   95MOL0     C13007   9.026  -0.075   3.698 -0.1901 -0.0355  0.5199
   95MOL0     O13008   9.142  -0.118   3.770  0.3309 -0.3562 -0.4464
   95MOL0     C13009   9.144  -0.253   3.808 -0.7013  0.2890 -0.3654
   95MOL0     C13010   9.291  -0.268   3.856  0.3256  0.6632 -0.4861
   95MOL0     C13011   9.342  -0.408   3.874  0.4128  0.7166 -0.1779
   95MOL0     C13012   9.482  -0.407   3.937  0.6239  0.3910 -0.3396
   95MOL0     C13013   9.527  -0.551   3.964  0.3348 -0.1395 -0.4629
   95MOL0     C13014   9.534  -0.642   3.842  0.3314 -0.0871  0.0896
   95MOL0     C13015   9.601  -0.787   3.857  1.0902 -0.4442  0.3136
   95MOL0     C13016   9.505  -0.879   3.930  0.9925 -0.5956 -1.0472
   95MOL0    Cl13017   9.476  -0.853   4.107  0.0210  0.4305  0.1404
   95MOL0     C13018   9.046   0.018   3.597 -0.0258 -0.5379  0.0031
   95MOL0     C13019   8.946   0.069   3.516 -0.0206 -1.1449 -0.4526
   95MOL0     O13020   8.793  -0.027   3.292  0.0153 -0.1311 -0.7090
   95MOL0     C13021   8.459   0.105   3.336  0.4499  0.4015  0.1766
   95MOL0     C13022   8.343   0.134   3.277  1.3143  0.2512 -0.6024
   95MOL0     N13023   7.665   0.347   3.225 -0.2027 -0.4642 -0.2125
   95MOL0     N13024   7.674   0.411   3.338 -0.1619  0.5271  0.8522
   95MOL0     C13025   6.939   0.833   3.752 -0.7868  0.0550 -0.7320
   95MOL0     C13026   6.806   0.818   3.790 -0.2281  0.1176 -0.3331
   95MOL0     C13027   6.408   0.868   4.071  0.5350 -0.5956  0.5447
   95MOL0     C13028   6.325   0.903   3.956  0.2099 -0.5077 -0.7208
   95MOL0     C13029   6.184   0.875   3.964 -0.2181 -0.3257 -0.4629
   95MOL0     C13030   6.133   0.810   4.066  0.0213 -0.7990 -0.0321
   95MOL0     O13031   5.998   0.798   4.078 -0.9941  0.1451 -0.1103
   95MOL0     C13032   5.902   0.803   3.975  0.2540 -0.3883  0.7231
   95MOL0     C13033   5.761   0.774   4.030  0.3266 -0.3228 -0.6908
   95MOL0     C13034   5.678   0.899   4.039  0.3598 -0.3696  0.1811
   95MOL0     C13035   5.526   0.873   4.062  0.0204  0.5387 -1.0830
   95MOL0     C13036   5.510   0.797   4.193 -0.4796  0.3802  0.3833
   95MOL0     C13037   5.499   0.744   4.297  0.1854 -0.1262 -0.5231
   95MOL0     C13038   6.207   0.777   4.180  0.0491  0.1852 -0.2753
   95MOL0     C13039   6.342   0.819   4.186 -0.3526  0.2852  0.5821
   95MOL0     C13040   6.416   0.780   4.311 -1.0734  0.1280 -0.7411
   95MOL0     H13041   6.804   0.970   4.091  0.0624  0.2144 -0.4032
   95MOL0     H13042   7.016   1.006   4.047 -1.0739 -1.5848  0.2965
   95MOL0     H13043   7.211   0.985   3.636  0.3247  0.6645 -0.1388
   95MOL0     H13044   7.215   0.803   3.656  1.7580 -0.7621 -0.9806
   95MOL0     H13045   7.403   0.969   3.816 -3.5958  0.6998  0.0591
   95MOL0     H13046   7.411   0.796   3.769 -3.6008 -1.5149  0.5424
   95MOL0     H13047   7.455   0.880   3.524 -0.7654  1.4849 -1.7400
   95MOL0     H13048   7.472   1.043   3.592  3.0087 -0.1726 -0.9712
   95MOL0     H13049   7.648   0.990   3.722  0.4472  0.7546 -0.7900
   95MOL0     H13050   7.621   0.814   3.709  0.0077  0.4690 -0.5380
   95MOL0     H13051   7.795   0.982   3.559  1.4601 -3.0062  3.1588
   95MOL0     H13052   7.669   0.933   3.443 -1.1596 -1.3999  0.9714
   95MOL0     H13053   7.887   0.818   3.447  0.8564  1.3040  1.3150
   95MOL0     H13054   7.866   0.760   3.607  0.9030  3.8976  0.8866
   95MOL0     H13055   7.684   0.676   3.374 -2.1223 -1.5130  1.1934
   95MOL0     H13056   7.673   0.617   3.541 -2.2489 -0.5326 -2.0755
   95MOL0     H13057   7.941   0.577   3.435  0.9542 -0.5132  1.9349
   95MOL0     H13058   7.825   0.481   3.537 -1.8952  0.1578  0.6259
   95MOL0     H13059   7.940   0.509   3.166 -0.9299 -1.2266 -1.9870
   95MOL0     H13060   7.825   0.394   2.940 -2.7257  2.4106  0.4993
   95MOL0     H13061   7.698   0.277   2.964  0.5173 -1.5832  1.5829
   95MOL0     H13062   7.925   0.199   3.130  0.3355  0.3395 -0.5391
   95MOL0     H13063   7.853   0.109   2.992 -1.1686  1.3053 -2.9281
   95MOL0     H13064   8.000   0.259   2.843 -0.5019  0.0948  0.4279
   95MOL0     H13065   8.046   0.356   2.975 -1.1960 -0.0440  1.4668
   95MOL0     H13066   8.148   0.061   2.953  1.1548 -0.8955  0.0390
   95MOL0     H13067   8.231   0.204   2.896  0.8420  1.3990  2.5491
   95MOL0     H13068   8.433   0.122   2.955 -0.8486 -0.3731  0.8169
   95MOL0     H13069   8.644   0.042   2.934 -1.6795 -3.5154  0.1560
   95MOL0     H13070   8.722  -0.043   3.070 -0.7325  1.3034  3.5015
   95MOL0     H13071   8.750   0.140   3.050 -3.9954  1.9561  4.4885
   95MOL0     H13072   8.685  -0.076   3.687 -1.0622  1.8918 -1.5569
   95MOL0     H13073   8.872  -0.176   3.813  0.5999 -0.3508 -0.0743
   95MOL0     H13074   9.069  -0.270   3.886  1.5302 -0.9703  1.6492
   95MOL0     H13075   9.123  -0.319   3.723 -1.6378  2.2045 -1.6892
   95MOL0     H13076   9.358  -0.234   3.777  0.7133  0.0248 -0.4397
   95MOL0     H13077   9.292  -0.208   3.948 -3.3330  0.7909 -0.3795
   95MOL0     H13078   9.340  -0.472   3.785  1.8761  0.6572 -0.1817
   95MOL0     H13079   9.271  -0.456   3.942  0.9364 -0.5133 -0.4746
   95MOL0     H13080   9.487  -0.339   4.022 -0.3259  1.0117 -0.7589
   95MOL0     H13081   9.528  -0.358   3.851 -3.1374  1.3441 -2.0438
   95MOL0     H13082   9.627  -0.562   4.006  2.5241 -0.4960 -5.1517
   95MOL0     H13083   9.462  -0.589   4.043  0.5826 -1.9365 -1.0637
   95MOL0     H13084   9.577  -0.586   3.759 -1.0919  1.9218  0.6102
   95MOL0     H13085   9.432  -0.668   3.814  1.3286 -2.6207 -1.5165
   95MOL0     H13086   9.689  -0.776   3.921  1.2016  1.4705 -0.1170
   95MOL0     H13087   9.629  -0.818   3.756  0.8650  3.9913 -1.3280
   95MOL0     H13088   9.557  -0.975   3.928  4.5719  1.2029 -1.0719
   95MOL0     H13089   9.409  -0.892   3.878  0.5670 -1.6016 -0.0755
   95MOL0     H13090   9.149   0.038   3.568  0.3338 -0.6622  1.1654
   95MOL0     H13091   8.961   0.128   3.427 -1.2088  0.1441  0.1504
   95MOL0     H13092   8.462   0.105   3.445 -1.0194 -0.9885  0.2399
   95MOL0     H13093   8.263   0.162   3.343  0.1945  0.6443 -2.0651
   95MOL0     H13094   6.976   0.776   3.667 -0.2580 -1.0272  0.2013
   95MOL0     H13095   6.734   0.770   3.724 -1.3718 -0.2300  1.1077
   95MOL0     H13096   6.369   0.940   3.864 -1.5002 -0.5139 -1.5730
   95MOL0     H13097   6.128   0.924   3.885  1.0786  3.6555  0.8311
   95MOL0     H13098   5.907   0.899   3.924 -0.3472 -0.4455  0.5496
   95MOL0     H13099   5.928   0.732   3.896 -0.4807  1.2498 -1.0583
   95MOL0     H13100   5.772   0.721   4.125 -1.9875 -2.2039 -1.3584
   95MOL0     H13101   5.717   0.699   3.963 -0.0145 -1.1359  0.4145
   95MOL0     H13102   5.714   0.954   4.127  1.0304 -0.9702  0.2925
   95MOL0     H13103   5.679   0.957   3.946 -0.3050  0.1323  0.4821
   95MOL0     H13104   5.483   0.811   3.982  2.7642 -0.7164 -1.7105
   95MOL0     H13105   5.470   0.967   4.065 -0.1836  0.4152 -1.0559
   95MOL0     H13106   5.502   0.686   4.387 -0.4328  0.9100  0.1823
   95MOL0     H13107   6.158   0.733   4.266 -0.5112  1.4457  0.0601
   95MOL0     H13108   6.346   0.760   4.392  0.1596 -1.0568  0.0785
   95MOL0     H13109   6.476   0.689   4.297 -0.6696 -0.0929  2.0383
   95MOL0     H13110   6.475   0.868   4.337 -0.2379 -0.4822 -0.5224
   96MOL0     O13111  11.072   0.501  10.375 -1.0969  0.2641 -0.2794
   96MOL0     C13112  11.058   0.628  10.370  0.6254  0.1899  0.1335
   96MOL0     O13113  10.935   0.692  10.393 -0.5723  0.1578  0.7243
   96MOL0     C13114  10.820   0.630  10.413  0.3046  1.1116  0.1231
   96MOL0     C13115  10.705   0.684  10.356  0.5877  0.7488  0.8739
   96MOL0     C13116  10.583   0.621  10.370 -0.3306  0.0771 -0.2257
   96MOL0     C13117  10.574   0.497  10.422 -0.0693 -0.2995  0.2901
   96MOL0     O13118  10.456   0.425  10.439 -0.2774 -0.4747  0.5866
   96MOL0     C13119  10.329   0.490  10.404  0.1517 -0.0434 -0.1526
   96MOL0     C13120  10.210   0.410  10.454  1.9113  0.0294  0.4189
   96MOL0     C13121  10.177   0.286  10.368 -0.6918  0.9236  0.3558
   96MOL0     C13122  10.042   0.229  10.409 -0.3770 -0.0020  0.5534
   96MOL0     C13123  10.010   0.094  10.335 -0.2496 -0.2693 -0.2795
   96MOL0     C13124  10.010   0.089  10.184 -0.3763 -0.3164  0.2658
   96MOL0     C13125  10.039  -0.046  10.124  0.1622 -0.0975  1.0137
   96MOL0     C13126  10.029  -0.044   9.980 -0.2101  0.2415  0.6436
   96MOL0     N13127  10.065  -0.177   9.916 -0.3585 -0.2301 -0.6763
   96MOL0     C13128  10.177  -0.186   9.831  0.8473  0.1659  0.4941
   96MOL0     C13129  10.196  -0.317   9.815 -0.0024  0.6889 -0.0029
   96MOL0     C13130  10.305  -0.381   9.746 -1.4322 -0.7674  0.3332
   96MOL0     C13131  10.441  -0.357   9.815 -0.1038 -0.2589 -0.3712
   96MOL0     C13132  10.447  -0.438   9.938  0.0793 -0.2335  0.0979
   96MOL0     C13133  10.583  -0.413  10.008  0.5606 -0.4352  0.2599
   96MOL0     O13134  10.695  -0.473   9.941  0.9229 -0.0761  1.3300
   96MOL0     C13135  10.810  -0.500  10.014  0.5986  0.0192 -0.2670
   96MOL0     C13136  10.904  -0.574   9.945  0.3334  0.2950 -0.3994
   96MOL0     C13137  11.034  -0.596   9.994  0.0112 -0.1351 -0.2364
   96MOL0     C13138  11.135  -0.673   9.904  0.2158 -0.2022  0.0104
   96MOL0     C13139  11.057  -0.545  10.127  0.3060 -0.3377 -0.2802
   96MOL0     C13140  11.186  -0.575  10.193 -0.0783  0.1903 -1.3741
   96MOL0     O13141  11.222  -0.705  10.224  0.2271  0.4766 -0.1252
   96MOL0     C13142  11.342  -0.724  10.288 -0.1433 -0.5249 -0.8007
   96MOL0     C13143  11.354  -0.670  10.413  0.3511  0.0637  0.1276
   96MOL0     C13144  11.470  -0.694  10.489  0.0325 -0.1493 -0.6479
   96MOL0     C13145  11.576  -0.780  10.433  0.4317 -0.0450 -1.0916
   96MOL0     O13146  11.697  -0.792  10.502  0.4612  0.1291  0.2777
   96MOL0     C13147  11.808  -0.838  10.424 -0.2893  0.4699 -0.5010
   96MOL0     C13148  11.938  -0.819  10.500 -0.0782 -0.5061 -0.7897
   96MOL0     C13149  12.051  -0.894  10.436  0.2531  0.8877 -0.4513
   96MOL0     C13150  12.173  -0.881  10.521 -1.2475  1.4357  0.6167
   96MOL0     C13151  12.306  -0.908  10.441 -0.2526 -1.1882 -0.4037
   96MOL0     C13152  12.429  -0.931  10.535  0.9838  0.5957 -0.4607
   96MOL0     C13153  12.560  -0.932  10.477 -0.1542 -0.3983  0.4494
   96MOL0     C13154  12.680  -0.947  10.553 -0.3768 -0.1243  0.2303
   96MOL0    Cl13155  12.671  -1.082  10.666  0.0948  0.0927  0.0202
   96MOL0     C13156  11.555  -0.831  10.305  0.2511  0.4913  0.5348
   96MOL0     C13157  11.442  -0.805  10.238 -0.5115 -0.6950  0.2197
   96MOL0     O13158  11.258  -0.473  10.203 -0.2812 -0.4071  0.0619
   96MOL0     C13159  10.960  -0.474  10.203  0.1597 -0.6611  0.0314
   96MOL0     C13160  10.835  -0.458  10.149 -0.5115  0.7460  0.3209
   96MOL0     N13161  10.107  -0.380   9.893  0.8411  0.0561 -0.6480
   96MOL0     N13162  10.032  -0.301   9.955 -0.2150  0.8567 -0.8955
   96MOL0     C13163  10.685   0.439  10.474 -0.0489 -0.5975 -0.3455
   96MOL0     C13164  10.810   0.505  10.471  0.4541  0.2327  1.0086
   96MOL0     C13165  11.173   0.711  10.322  0.6585  0.2191 -0.7679
   96MOL0     C13166  11.145   0.834  10.273  0.3705 -1.2593  0.7752
   96MOL0     C13167  11.244   0.932  10.245  0.1349 -0.9165  0.1246
   96MOL0     C13168  11.378   0.893  10.254  0.1679 -0.1686 -0.3999
   96MOL0     O13169  11.483   0.973  10.224 -0.7531 -0.1028 -0.8690
   96MOL0     C13170  11.471   1.101  10.153 -0.1485  0.5918 -0.7746
   96MOL0     C13171  11.607   1.142  10.094  0.2596 -0.2594 -0.0352
   96MOL0     C13172  11.611   1.282  10.058 -0.2383 -0.2819  0.6896
   96MOL0     C13173  11.754   1.321  10.019  0.2879 -0.0720  0.4161
   96MOL0     C13174  11.785   1.454  10.049 -0.2161  0.3170 -0.0890
   96MOL0     C13175  11.811   1.571  10.059  0.5048  0.3732 -0.0026
   96MOL0     C13176  11.407   0.764  10.285 -0.3396 -0.6760 -0.3915
   96MOL0     C13177  11.308   0.671  10.335 -0.5743  0.5345  0.4613
   96MOL0     C13178  11.354   0.533  10.375 -0.0937  0.0649  0.0121
   96MOL0     H13179  10.718   0.783  10.314  1.1779  0.3789  0.1739
   96MOL0     H13180  10.505   0.670  10.312  0.7192  1.5965 -0.3915
   96MOL0     H13181  10.328   0.503  10.296 -0.9394  1.5650  0.0264
   96MOL0     H13182  10.325   0.587  10.453  0.1812 -0.3669  0.5052
   96MOL0     H13183  10.220   0.360  10.552  0.8884  0.5642  0.8096
   96MOL0     H13184  10.120   0.471  10.467  0.6499 -1.4879 -0.6418
   96MOL0     H13185  10.170   0.313  10.263 -2.4886 -3.5738 -0.9312
   96MOL0     H13186  10.258   0.214  10.382 -1.1096  0.6018  1.2203
   96MOL0     H13187  10.038   0.201  10.515 -3.7769 -2.7374 -0.0950
   96MOL0     H13188   9.970   0.309  10.391  0.8232  0.9261 -0.2154
   96MOL0     H13189   9.915   0.049  10.365  0.1776 -0.0021  1.6424
   96MOL0     H13190  10.093   0.029  10.365 -0.1154  0.9348  2.2116
   96MOL0     H13191   9.921   0.141  10.146 -0.6672  1.8268  3.4793
   96MOL0     H13192  10.097   0.147  10.151 -0.6939  0.2207  0.3634
   96MOL0     H13193   9.962  -0.114  10.161 -1.7076  1.6783  0.5327
   96MOL0     H13194  10.141  -0.080  10.146  0.5612 -1.0804 -1.9236
   96MOL0     H13195   9.924  -0.022   9.956  0.1156 -0.6952 -2.0957
   96MOL0     H13196  10.100   0.030   9.943  0.7964 -1.2877 -0.6516
   96MOL0     H13197  10.233  -0.102   9.790 -0.1159 -0.2994 -1.9461
   96MOL0     H13198  10.311  -0.326   9.652  4.0742  0.4122  0.9958
   96MOL0     H13199  10.291  -0.487   9.724  3.7938 -1.9793  1.5121
   96MOL0     H13200  10.530  -0.377   9.754  0.3937 -3.1709  1.1231
   96MOL0     H13201  10.434  -0.252   9.844  0.5855  0.1687 -1.6752
   96MOL0     H13202  10.365  -0.413  10.006 -0.4690 -2.2680  0.2721
   96MOL0     H13203  10.434  -0.545   9.916  0.1700 -0.5050  1.2673
   96MOL0     H13204  10.601  -0.305  10.002  1.2255 -0.6270 -2.8755
   96MOL0     H13205  10.564  -0.434  10.114  2.0337  0.3134  0.7094
   96MOL0     H13206  10.887  -0.609   9.844 -0.0584 -0.8341  0.0393
   96MOL0     H13207  11.108  -0.650   9.800 -4.1095 -0.3944  0.9079
   96MOL0     H13208  11.123  -0.780   9.921  1.8859 -0.5851 -0.9261
   96MOL0     H13209  11.239  -0.647   9.930  0.5478 -0.8160 -0.6663
   96MOL0     H13210  11.269  -0.623  10.462  0.4535  0.4030 -0.0199
   96MOL0     H13211  11.483  -0.662  10.592 -3.1847 -2.1535  0.5246
   96MOL0     H13212  11.800  -0.944  10.398  1.2807  0.7618 -2.3740
   96MOL0     H13213  11.814  -0.784  10.329 -0.5408  1.5720  0.0892
   96MOL0     H13214  11.969  -0.714  10.488  0.0177 -0.7252 -2.7812
   96MOL0     H13215  11.912  -0.836  10.604 -2.0305  2.5762 -0.6327
   96MOL0     H13216  12.079  -0.871  10.333 -2.6355 -2.1308 -2.0849
   96MOL0     H13217  12.017  -0.998  10.431 -3.3891  1.9409 -0.6615
   96MOL0     H13218  12.164  -0.945  10.609 -3.6438  1.0944  0.1740
   96MOL0     H13219  12.191  -0.775  10.541  1.0504  2.1093 -3.6509
   96MOL0     H13220  12.295  -0.980  10.359  3.2306 -1.0885 -1.1229
   96MOL0     H13221  12.332  -0.813  10.394 -1.8936 -0.8277 -0.6292
   96MOL0     H13222  12.411  -1.027  10.583 -2.2432  2.4082  2.4592
   96MOL0     H13223  12.421  -0.855  10.613  1.0120 -0.2560  0.3877
   96MOL0     H13224  12.565  -0.835  10.426  1.0402  0.1273  1.5124
   96MOL0     H13225  12.574  -1.007  10.399 -1.4341 -1.1955  0.9657
   96MOL0     H13226  12.691  -0.853  10.607 -1.7944 -0.6236  1.4504
   96MOL0     H13227  12.761  -0.962  10.481 -2.3584 -0.0104 -2.1570
   96MOL0     H13228  11.630  -0.897  10.264  0.9566  0.0364  2.4676
   96MOL0     H13229  11.437  -0.838  10.135  0.2331  1.6495 -0.6384
   96MOL0     H13230  10.994  -0.431  10.297  1.7432 -1.5996 -0.0804
   96MOL0     H13231  10.753  -0.410  10.200 -1.6590  0.6296 -1.3599
   96MOL0     H13232  10.676   0.341  10.521 -0.4383 -0.5498 -0.3135
   96MOL0     H13233  10.898   0.442  10.482  0.2428 -0.9841 -2.6000
   96MOL0     H13234  11.041   0.850  10.245  1.5867  0.3471 -3.6377
   96MOL0     H13235  11.216   1.030  10.209 -0.7958 -1.7100 -1.3993
   96MOL0     H13236  11.394   1.091  10.076 -1.7879 -0.1274  0.8674
   96MOL0     H13237  11.425   1.170  10.225 -0.1785 -1.7967  1.6318
   96MOL0     H13238  11.616   1.082  10.004  0.6612  1.1401 -0.9603
   96MOL0     H13239  11.688   1.105  10.157  1.7260  3.1545  0.2704
   96MOL0     H13240  11.555   1.304   9.966  2.1703  0.0276 -0.7893
   96MOL0     H13241  11.571   1.353  10.131 -0.4637  2.4876 -1.9333
   96MOL0     H13242  11.764   1.312   9.910 -0.7479  3.9366 -0.1678
   96MOL0     H13243  11.823   1.251  10.067 -2.6806 -3.2639  0.4597
   96MOL0     H13244  11.827   1.677  10.067 -0.6061  0.9245 -3.5229
   96MOL0     H13245  11.514   0.750  10.295 -0.3412  0.1882  1.1552
   96MOL0     H13246  11.306   0.455  10.316  1.6297 -2.9540  2.3145
   96MOL0     H13247  11.463   0.525  10.370  0.3771  1.4054  4.0076
   96MOL0     H13248  11.346   0.512  10.482  1.5893  1.5713  0.4762
   97MOL0     O13249  10.410  10.882   5.099 -0.1160 -0.8994  0.0650
   97MOL0     C13250  10.449  10.996   5.065  0.0850  0.2231 -0.3546
   97MOL0     O13251  10.510  11.032   4.953  1.0002  0.6236  0.1989
   97MOL0     C13252  10.562  10.943   4.857  1.0200 -0.1517  0.0297
   97MOL0     C13253  10.614  10.821   4.886 -0.4377 -0.2758 -0.9028
   97MOL0     C13254  10.671  10.740   4.793  0.7446  0.8513 -0.1038
   97MOL0     C13255  10.673  10.780   4.661  0.2942  0.6155  0.4040
   97MOL0     O13256  10.714  10.692   4.561 -0.6734  0.0676  0.3515
   97MOL0     C13257  10.723  10.726   4.421  0.4470  0.0442 -0.5330
   97MOL0     C13258  10.801  10.633   4.337 -0.0330  0.5597  0.4629
   97MOL0     C13259  10.841  10.704   4.200 -0.5667  0.5031  0.2047
   97MOL0     C13260  10.942  10.616   4.132 -0.7523 -0.5201 -0.2039
   97MOL0     C13261  10.977  10.679   3.997  0.1879 -0.3817 -0.5732
   97MOL0     C13262  11.108  10.615   3.943  0.0385  0.5482  0.6276
   97MOL0     C13263  11.090  10.471   3.879 -0.3266  0.6436  0.3664
   97MOL0     C13264  11.225  10.434   3.804  1.0321  0.5970 -0.2160
   97MOL0     N13265  11.342  10.445   3.890 -1.1988  0.6071 -0.2526
   97MOL0     C13266  11.363  10.372   4.011 -0.3532 -1.5941  0.3195
   97MOL0     C13267  11.481  10.423   4.063 -0.9088 -0.2043 -0.4260
   97MOL0     C13268  11.542  10.375   4.197 -0.0475  0.0724  0.7598
   97MOL0     C13269  11.500  10.478   4.300  0.2594 -0.0476 -0.0322
   97MOL0     C13270  11.576  10.468   4.432  0.6051  0.1137  0.5053
   97MOL0     C13271  11.549  10.604   4.503 -0.0157 -0.9199 -0.0581
   97MOL0     O13272  11.594  10.727   4.436 -0.0069 -0.1696 -0.2813
   97MOL0     C13273  11.617  10.838   4.523 -0.8423 -0.8813 -0.1794
   97MOL0     C13274  11.547  10.857   4.643 -0.4618  0.2483 -0.7435
   97MOL0     C13275  11.547  10.987   4.708 -0.2944 -0.8249  0.5819
   97MOL0     C13276  11.455  11.014   4.820  0.3354  0.6718 -0.3482
   97MOL0     C13277  11.624  11.091   4.654  0.1564 -0.2981 -0.3587
   97MOL0     C13278  11.622  11.226   4.707  0.2737  0.4662  0.2539
   97MOL0     O13279  11.631  11.325   4.619 -0.4103  0.7166 -0.2811
   97MOL0     C13280  11.611  11.451   4.653 -0.0885 -0.9994 -0.4258
   97MOL0     C13281  11.722  11.541   4.654  0.1072  1.0283  0.8426
   97MOL0     C13282  11.704  11.679   4.671 -0.2239  1.1431  0.7563
   97MOL0     C13283  11.581  11.728   4.711 -0.5807  0.1774  0.2759
   97MOL0     O13284  11.559  11.856   4.748  0.0627  0.0123 -0.4074
   97MOL0     C13285  11.665  11.947   4.772 -0.0322  0.1025  0.6602
   97MOL0     C13286  11.621  12.050   4.876 -0.6839  0.4115  0.3633
   97MOL0     C13287  11.477  12.099   4.865  0.0029  0.1197 -0.6371
   97MOL0     C13288  11.448  12.218   4.940  0.8311 -0.2255 -0.8712
   97MOL0     C13289  11.299  12.232   4.979  0.4141  0.0764 -0.3283
   97MOL0     C13290  11.195  12.209   4.865  0.0033  0.2603 -0.0489
   97MOL0     C13291  11.056  12.201   4.911  0.4115 -0.2086  0.3490
   97MOL0     C13292  10.986  12.328   4.948 -0.8953 -0.0266 -0.6952
   97MOL0    Cl13293  10.970  12.440   4.805  0.1629  0.2090  0.6491
   97MOL0     C13294  11.474  11.646   4.702 -0.2625 -0.0455 -0.5883
   97MOL0     C13295  11.490  11.513   4.669 -0.4753 -0.2143 -0.0616
   97MOL0     O13296  11.615  11.248   4.828  0.6247  0.9064 -0.6278
   97MOL0     C13297  11.709  11.062   4.548 -0.5409  0.2866  0.3985
   97MOL0     C13298  11.695  10.943   4.475 -1.1810  0.1252  0.2815
   97MOL0     N13299  11.538  10.500   3.965  0.1676  0.2783  0.1105
   97MOL0     N13300  11.459  10.516   3.862  0.2401 -0.2830  0.2342
   97MOL0     C13301  10.612  10.899   4.628 -0.0533 -0.2327  0.1935
   97MOL0     C13302  10.549  10.978   4.724 -0.6136  0.2603  0.6470
   97MOL0     C13303  10.412  11.110   5.156  0.0025  1.3423  0.4361
   97MOL0     C13304  10.417  11.081   5.300 -0.2659 -0.0574  0.0233
   97MOL0     C13305  10.357  11.174   5.391 -0.1289  0.2460 -0.1329
   97MOL0     C13306  10.320  11.299   5.345  0.5522 -0.2411  0.0632
   97MOL0     O13307  10.274  11.386   5.438  0.6583  0.2268  0.2278
   97MOL0     C13308  10.222  11.514   5.393 -0.3488 -0.8833 -0.3080
   97MOL0     C13309  10.169  11.611   5.502 -0.0991  0.8729  0.2065
   97MOL0     C13310  10.257  11.709   5.585  0.0524  0.8279  0.9319
   97MOL0     C13311  10.352  11.633   5.671 -0.2930  0.0821 -0.0947
   97MOL0     C13312  10.475  11.719   5.698 -0.7022  0.5694 -0.0956
   97MOL0     C13313  10.569  11.788   5.721  0.2324 -0.1905  0.8519
   97MOL0     C13314  10.324  11.327   5.198 -0.5192  0.4720 -0.9164
   97MOL0     C13315  10.371  11.234   5.110  0.2805 -0.3335 -0.3988
   97MOL0     C13316  10.373  11.264   4.963 -0.1333 -0.1259 -0.2011
   97MOL0     H13317  10.617  10.785   4.988 -0.3103 -1.0809 -1.1816
   97MOL0     H13318  10.711  10.643   4.822 -0.3438  0.3592 -0.1875
   97MOL0     H13319  10.764  10.827   4.404 -2.7237  1.2074 -2.0104
   97MOL0     H13320  10.619  10.740   4.389  0.7536  3.6059 -0.3587
   97MOL0     H13321  10.889  10.611   4.398  2.6603  1.4621 -2.7970
   97MOL0     H13322  10.729  10.554   4.317 -1.7865  1.4094  2.9071
   97MOL0     H13323  10.752  10.729   4.142 -1.5658 -1.0092  1.0133
   97MOL0     H13324  10.886  10.800   4.226  0.0626  0.4951 -0.7750
   97MOL0     H13325  11.032  10.616   4.195 -2.4758 -1.7734  2.4440
   97MOL0     H13326  10.905  10.513   4.141  1.1723 -1.3617 -1.2826
   97MOL0     H13327  10.998  10.783   4.023  2.4978 -0.6742 -1.0927
   97MOL0     H13328  10.886  10.680   3.936 -0.8725  0.7870  0.9473
   97MOL0     H13329  11.138  10.694   3.874 -3.0630 -1.9221 -4.0474
   97MOL0     H13330  11.174  10.602   4.030  0.2964  2.3216  0.7345
   97MOL0     H13331  10.994  10.464   3.826 -1.7882 -1.6474  3.0328
   97MOL0     H13332  11.075  10.391   3.952  0.2599  0.8806  0.7502
   97MOL0     H13333  11.210  10.339   3.752 -2.0400  2.1151 -2.4311
   97MOL0     H13334  11.235  10.501   3.718  0.7409  2.5003  1.1582
   97MOL0     H13335  11.284  10.311   4.053 -3.3263  0.5247 -1.7936
   97MOL0     H13336  11.651  10.369   4.183 -0.3743 -4.6461 -1.8916
   97MOL0     H13337  11.516  10.271   4.221  3.9498 -1.9413 -2.4488
   97MOL0     H13338  11.507  10.582   4.264 -0.0094  1.3876  3.6645
   97MOL0     H13339  11.397  10.463   4.332  0.5320 -1.0953  0.3809
   97MOL0     H13340  11.537  10.389   4.497 -4.5386  1.3587 -0.6502
   97MOL0     H13341  11.681  10.458   4.402  0.7051  3.3217 -0.6442
   97MOL0     H13342  11.441  10.612   4.516  0.0349 -2.0031  1.1937
   97MOL0     H13343  11.598  10.596   4.601 -4.0502  0.8308  2.3699
   97MOL0     H13344  11.488  10.777   4.685 -0.0721  0.6714  0.6615
   97MOL0     H13345  11.396  11.103   4.794  1.5248  1.5616 -0.1388
   97MOL0     H13346  11.501  11.028   4.919 -2.3545  0.2889  1.0518
   97MOL0     H13347  11.373  10.944   4.833  0.0016  1.5394  3.3295
   97MOL0     H13348  11.827  11.512   4.656  0.4793  2.3360  0.9321
   97MOL0     H13349  11.795  11.737   4.662  2.2625 -1.9137  3.3897
   97MOL0     H13350  11.756  11.903   4.814  0.2476  0.4297  0.3991
   97MOL0     H13351  11.699  11.994   4.680 -0.7884 -0.2209  0.2088
   97MOL0     H13352  11.631  11.997   4.971 -1.2207  1.9276  1.2996
   97MOL0     H13353  11.695  12.130   4.868 -0.6115  0.1234 -3.3888
   97MOL0     H13354  11.408  12.018   4.891  0.2103 -0.3422 -1.4995
   97MOL0     H13355  11.469  12.133   4.762  0.6641  1.0785 -0.3809
   97MOL0     H13356  11.486  12.301   4.879  2.0831 -2.3246 -3.1096
   97MOL0     H13357  11.498  12.216   5.037 -1.3363  0.3350  0.3294
   97MOL0     H13358  11.283  12.156   5.056 -0.1356  0.4191 -0.0943
   97MOL0     H13359  11.271  12.325   5.029 -0.1782 -0.2258 -0.0739
   97MOL0     H13360  11.217  12.117   4.811 -3.6636 -0.2278 -1.0091
   97MOL0     H13361  11.206  12.293   4.796 -1.1722 -0.2009 -0.8334
   97MOL0     H13362  11.050  12.139   5.001  2.0076 -0.6080  0.2058
   97MOL0     H13363  10.997  12.157   4.830 -0.7935  0.5469  0.7965
   97MOL0     H13364  11.042  12.380   5.027  0.1616 -1.2247 -0.6211
   97MOL0     H13365  10.892  12.289   4.987 -0.0502 -1.8897 -0.3980
   97MOL0     H13366  11.376  11.676   4.737 -0.5322 -0.4844 -0.9469
   97MOL0     H13367  11.397  11.457   4.672 -0.1117 -0.8171  0.0622
   97MOL0     H13368  11.768  11.138   4.499  1.7705 -0.1593  2.3455
   97MOL0     H13369  11.741  10.928   4.378  0.4314 -1.6618  1.2553
   97MOL0     H13370  10.607  10.950   4.532 -0.8931  0.4810  0.6003
   97MOL0     H13371  10.504  11.076   4.710 -1.2207 -0.3389 -2.1470
   97MOL0     H13372  10.465  10.988   5.328  2.0047 -0.7604 -5.0786
   97MOL0     H13373  10.341  11.152   5.496  0.0079  2.0926  0.3129
   97MOL0     H13374  10.301  11.564   5.335 -1.8900  1.2661 -0.6406
   97MOL0     H13375  10.133  11.494   5.333 -0.4571 -1.2389 -0.0298
   97MOL0     H13376  10.101  11.548   5.561 -0.3042 -0.8163 -1.7017
   97MOL0     H13377  10.115  11.682   5.438  1.2254 -1.4952 -3.9490
   97MOL0     H13378  10.311  11.768   5.510 -0.0643 -1.8639 -1.4388
   97MOL0     H13379  10.202  11.777   5.651  2.1920  0.5769  3.1066
   97MOL0     H13380  10.395  11.548   5.618 -0.0428  0.3881 -0.3829
   97MOL0     H13381  10.298  11.602   5.761 -1.8177 -1.3389 -1.4393
   97MOL0     H13382  10.641  11.867   5.730  0.8559 -0.8326  1.5863
   97MOL0     H13383  10.309  11.428   5.161 -1.4137  0.3235 -0.9936
   97MOL0     H13384  10.474  11.278   4.923 -0.1231  2.0283  0.4484
   97MOL0     H13385  10.322  11.185   4.907 -1.6213  1.1054 -0.6398
   97MOL0     H13386  10.315  11.355   4.945 -1.8281 -1.0786  0.1896
   98MOL0     O13387   0.867  10.595   6.572  0.7383 -0.4424 -0.3964
   98MOL0     C13388   0.990  10.572   6.595  0.0873 -0.1924 -0.1193
   98MOL0     O13389   1.044  10.556   6.716 -0.3280  0.1580 -0.1114
   98MOL0     C13390   0.981  10.593   6.827  0.1086 -0.8202  0.3934
   98MOL0     C13391   1.003  10.731   6.863  0.8054  0.2923 -0.0297
   98MOL0     C13392   0.957  10.778   6.987  0.2674 -0.7629 -0.1952
   98MOL0     C13393   0.863  10.704   7.062  0.0584 -0.7588 -0.3221
   98MOL0     O13394   0.834  10.765   7.182  0.2435 -0.0898  0.3537
   98MOL0     C13395   0.724  10.713   7.257 -0.0009 -0.3624 -0.2704
   98MOL0     C13396   0.653  10.820   7.327 -0.3005  0.0338 -0.0774
   98MOL0     C13397   0.545  10.756   7.403  0.1049  0.8980 -0.3065
   98MOL0     C13398   0.469  10.858   7.476  0.5392  0.1710 -0.2516
   98MOL0     C13399   0.342  10.809   7.545 -0.8864 -0.8240  0.2049
   98MOL0     C13400   0.269  10.921   7.627  0.4389  0.4277 -0.2448
   98MOL0     C13401   0.146  10.860   7.694  0.4285 -0.1256 -0.3116
   98MOL0     C13402   0.026  10.845   7.594  0.3006  0.3998 -0.1804
   98MOL0     N13403  -0.046  10.974   7.584 -0.0437 -0.5539 -0.1321
   98MOL0     C13404  -0.150  11.017   7.674 -0.3682 -0.2355  0.3794
   98MOL0     C13405  -0.189  11.137   7.620 -1.0550 -0.3054 -0.0490
   98MOL0     C13406  -0.297  11.219   7.674  0.4344  0.6217  0.6477
   98MOL0     C13407  -0.426  11.195   7.599  0.6233  0.0426  0.0674
   98MOL0     C13408  -0.526  11.312   7.623  0.6706  0.2225 -0.0192
   98MOL0     C13409  -0.645  11.284   7.535  0.3445  0.2185  0.3318
   98MOL0     O13410  -0.732  11.177   7.594  0.5207 -0.2044  0.2236
   98MOL0     C13411  -0.847  11.137   7.529 -0.5357 -0.1828 -0.2966
   98MOL0     C13412  -0.913  11.030   7.590 -0.3628 -0.4449 -0.3387
   98MOL0     C13413  -1.039  10.992   7.539 -0.1346 -0.0118  0.0747
   98MOL0     C13414  -1.102  10.870   7.611  0.2122 -0.4532 -0.3048
   98MOL0     C13415  -1.093  11.053   7.426 -0.5415  0.1501 -0.0543
   98MOL0     C13416  -1.219  11.003   7.371 -0.3087  0.4113  0.3027
   98MOL0     O13417  -1.329  10.964   7.447 -0.0787 -0.6283  0.8849
   98MOL0     C13418  -1.425  10.892   7.387 -0.2053 -0.3020  0.4950
   98MOL0     C13419  -1.548  10.949   7.355 -0.1712 -0.6244  0.1191
   98MOL0     C13420  -1.642  10.885   7.273  0.4042  0.1669 -0.6980
   98MOL0     C13421  -1.618  10.751   7.233 -0.4021  0.6682  0.2765
   98MOL0     O13422  -1.696  10.663   7.159 -0.2362  0.8243 -0.4817
   98MOL0     C13423  -1.820  10.717   7.103 -1.4317  0.0274 -0.0644
   98MOL0     C13424  -1.848  10.638   6.973  0.1566  0.7702 -0.3415
   98MOL0     C13425  -1.986  10.657   6.913  0.1346 -0.3616 -0.2801
   98MOL0     C13426  -2.023  10.546   6.822  0.7820  0.5965  1.1520
   98MOL0     C13427  -2.178  10.545   6.795 -0.1456 -0.2374 -0.4937
   98MOL0     C13428  -2.228  10.457   6.680 -0.0375  0.4449 -0.2901
   98MOL0     C13429  -2.382  10.457   6.659  0.1874 -0.1731 -0.0188
   98MOL0     C13430  -2.443  10.317   6.661 -0.4387  0.6936  0.3868
   98MOL0    Cl13431  -2.476  10.268   6.490  0.3683  0.7683 -0.1896
   98MOL0     C13432  -1.502  10.686   7.284 -0.1890  0.0749 -0.1188
   98MOL0     C13433  -1.397  10.762   7.343  0.2712  0.1497  0.2085
   98MOL0     O13434  -1.208  11.002   7.247  0.1635 -0.9278 -0.5622
   98MOL0     C13435  -1.020  11.145   7.357 -0.6140  0.2365  0.3428
   98MOL0     C13436  -0.901  11.190   7.410 -0.9398  0.3729  0.8720
   98MOL0     N13437  -0.128  11.164   7.500 -0.1331 -0.4083  0.9161
   98MOL0     N13438  -0.042  11.069   7.482 -0.2428 -0.1399  0.3130
   98MOL0     C13439   0.835  10.579   7.018 -0.3259  0.4994 -0.1384
   98MOL0     C13440   0.906  10.520   6.911 -0.2875  0.4872 -0.7636
   98MOL0     C13441   1.088  10.576   6.488  0.4004  0.2396 -0.1066
   98MOL0     C13442   1.228  10.569   6.526  0.3268  0.2668  0.7189
   98MOL0     C13443   1.331  10.594   6.426  0.3121  0.2823 -0.9492
   98MOL0     C13444   1.298  10.627   6.300  0.5960  0.3212  0.1924
   98MOL0     O13445   1.401  10.639   6.208 -0.3428 -0.3000  0.3551
   98MOL0     C13446   1.440  10.526   6.131  0.1436 -0.0708  0.0490
   98MOL0     C13447   1.370  10.518   5.993 -0.2124  0.2640 -0.5395
   98MOL0     C13448   1.440  10.402   5.916 -0.0267 -0.4501  0.3558
   98MOL0     C13449   1.409  10.402   5.768  0.1071 -0.4987  0.0031
   98MOL0     C13450   1.280  10.341   5.732 -0.0766 -0.3054 -0.1206
   98MOL0     C13451   1.170  10.299   5.694 -0.2334  0.1626  0.2651
   98MOL0     C13452   1.160  10.614   6.255 -0.8863 -0.0429 -0.5977
   98MOL0     C13453   1.050  10.598   6.351 -0.5346  1.1164  0.2002
   98MOL0     C13454   0.916  10.598   6.283 -0.3628 -0.3527  0.2989
   98MOL0     H13455   1.074  10.796   6.813  2.2532 -0.7558  0.5748
   98MOL0     H13456   0.983  10.879   7.017 -0.7479  0.0348 -1.8636
   98MOL0     H13457   0.752  10.642   7.336  0.4417 -1.1099 -1.0813
   98MOL0     H13458   0.650  10.663   7.195  0.8133 -2.6866  0.5229
   98MOL0     H13459   0.725  10.878   7.386 -0.5662  2.2607 -1.8067
   98MOL0     H13460   0.612  10.893   7.257 -1.4676 -0.7550 -0.2350
   98MOL0     H13461   0.473  10.693   7.350 -1.8767  2.3842  0.4894
   98MOL0     H13462   0.594  10.690   7.476 -1.6722  0.4164  0.4996
   98MOL0     H13463   0.530  10.911   7.550  0.8198  1.6036 -1.4617
   98MOL0     H13464   0.438  10.935   7.405  0.6646  1.4519  1.0355
   98MOL0     H13465   0.370  10.735   7.621 -0.3585 -1.7446 -0.8647
   98MOL0     H13466   0.278  10.768   7.467 -1.9490 -0.6058  0.9435
   98MOL0     H13467   0.333  10.952   7.710 -0.9046  0.7546  0.7127
   98MOL0     H13468   0.245  11.009   7.567  0.8576 -0.2885 -1.4826
   98MOL0     H13469   0.115  10.917   7.782 -3.2040 -2.5348  0.1914
   98MOL0     H13470   0.174  10.766   7.743  3.0460 -0.0816 -1.5322
   98MOL0     H13471   0.058  10.811   7.495  2.1907  0.4163  0.3848
   98MOL0     H13472  -0.038  10.769   7.640  0.5354  0.5279  0.3572
   98MOL0     H13473  -0.187  10.970   7.764  1.2952  1.5480  2.0801
   98MOL0     H13474  -0.271  11.325   7.676 -0.1284  0.9210 -2.7637
   98MOL0     H13475  -0.315  11.188   7.777 -1.7977 -0.2007  0.0776
   98MOL0     H13476  -0.409  11.187   7.491 -2.5768  2.4357 -0.7682
   98MOL0     H13477  -0.470  11.104   7.641 -0.4080  0.1264 -0.7741
   98MOL0     H13478  -0.560  11.306   7.726  0.9600 -1.0515  0.0252
   98MOL0     H13479  -0.478  11.408   7.605 -0.1461  0.6032 -0.1913
   98MOL0     H13480  -0.688  11.384   7.526  3.4387  1.4223 -3.0979
   98MOL0     H13481  -0.613  11.264   7.433 -0.8959 -0.6942  0.0902
   98MOL0     H13482  -0.872  10.978   7.676 -0.3633  0.6606  0.3521
   98MOL0     H13483  -1.118  10.791   7.537 -2.4769 -0.8934  0.6755
   98MOL0     H13484  -1.205  10.888   7.641 -0.6840 -2.1716 -2.1420
   98MOL0     H13485  -1.043  10.829   7.694  2.8377  1.9534 -0.7829
   98MOL0     H13486  -1.564  11.052   7.385  1.6056 -0.2466 -0.1026
   98MOL0     H13487  -1.733  10.942   7.258  0.1982  0.4104  1.2501
   98MOL0     H13488  -1.906  10.704   7.169 -0.5617  1.1245  1.3393
   98MOL0     H13489  -1.806  10.825   7.090  1.4018 -0.1374  1.0009
   98MOL0     H13490  -1.775  10.663   6.895 -1.0835 -0.8539 -2.1360
   98MOL0     H13491  -1.837  10.534   7.006  1.4014  0.7512 -0.7498
   98MOL0     H13492  -1.978  10.752   6.860  0.4278 -0.3644 -0.2433
   98MOL0     H13493  -2.070  10.667   6.982 -1.0838  2.8950 -2.0400
   98MOL0     H13494  -1.995  10.446   6.859 -0.7237 -0.0189  0.6868
   98MOL0     H13495  -1.970  10.558   6.727 -0.0540  1.2787  0.7623
   98MOL0     H13496  -2.233  10.511   6.883 -0.8252  3.3015  0.5822
   98MOL0     H13497  -2.198  10.649   6.768 -2.2858 -1.3532 -3.7396
   98MOL0     H13498  -2.187  10.356   6.691  2.4770  1.5549  1.3477
   98MOL0     H13499  -2.183  10.490   6.585  0.9487 -0.7627 -0.2766
   98MOL0     H13500  -2.417  10.512   6.571  1.0745  1.0627  0.3798
   98MOL0     H13501  -2.434  10.505   6.743 -1.5170 -0.6587 -0.7471
   98MOL0     H13502  -2.542  10.321   6.707 -0.3577  1.1765  0.5264
   98MOL0     H13503  -2.390  10.234   6.708 -0.3538 -0.5905 -1.7997
   98MOL0     H13504  -1.505  10.580   7.259 -2.5313  0.5176 -2.0873
   98MOL0     H13505  -1.306  10.711   7.369 -0.1895 -1.9103 -1.8764
   98MOL0     H13506  -1.056  11.202   7.271 -0.3282  1.5843  1.0858
   98MOL0     H13507  -0.868  11.277   7.354 -0.7067 -0.1300  0.2161
   98MOL0     H13508   0.764  10.519   7.074 -0.9321 -0.6885 -2.0662
   98MOL0     H13509   0.889  10.414   6.897  4.0233 -0.3055 -1.4678
   98MOL0     H13510   1.268  10.569   6.627 -0.4853  0.2582  1.0493
   98MOL0     H13511   1.436  10.588   6.452  0.1019  0.1646 -0.1084
   98MOL0     H13512   1.547  10.530   6.108 -0.1352  0.7905 -1.2011
   98MOL0     H13513   1.413  10.441   6.194 -2.8614 -0.0886 -1.1125
   98MOL0     H13514   1.391  10.614   5.946  1.4370  0.8918  1.3501
   98MOL0     H13515   1.262  10.501   5.990 -0.4710  0.9971  2.0685
   98MOL0     H13516   1.546  10.428   5.923 -0.8086  4.6074 -2.1780
   98MOL0     H13517   1.427  10.302   5.960  1.3515 -0.3374  1.0830
   98MOL0     H13518   1.485  10.337   5.724  1.6523  1.2657 -0.0557
   98MOL0     H13519   1.407  10.502   5.723 -2.5535 -0.0332  0.9648
   98MOL0     H13520   1.069  10.271   5.673 -1.0558  1.3760  2.2816
   98MOL0     H13521   1.147  10.629   6.148  0.0385  0.6819 -0.6211
   98MOL0     H13522   0.842  10.647   6.348  3.0326  1.5261  3.1518
   98MOL0     H13523   0.911  10.658   6.192  2.2896 -0.9774 -0.3331
   98MOL0     H13524   0.907  10.492   6.259  1.7667 -1.3175  3.1960
   99MOL0     O13525   8.970   2.200   8.364 -0.0276 -0.6033 -0.0522
   99MOL0     C13526   8.947   2.133   8.467  0.4200 -0.2367 -0.0383
   99MOL0     O13527   8.914   2.001   8.455 -0.8898  0.1664 -0.2663
   99MOL0     C13528   8.895   1.936   8.334  0.0004 -0.0416 -0.7450
   99MOL0     C13529   8.995   1.882   8.258 -0.2462  0.1806  0.5914
   99MOL0     C13530   8.970   1.810   8.130  0.2856 -1.3630 -0.8126
   99MOL0     C13531   8.834   1.796   8.090  0.0220  0.2666 -0.3837
   99MOL0     O13532   8.797   1.716   7.983  0.0668 -0.1444 -0.8991
   99MOL0     C13533   8.772   1.579   8.025  0.5188  0.6145 -0.2652
   99MOL0     C13534   8.895   1.507   7.996 -0.1163  0.0570  0.5684
   99MOL0     C13535   8.888   1.356   7.960  0.9599 -0.2594 -0.0451
   99MOL0     C13536   8.836   1.355   7.812 -0.1555 -0.0088  0.5519
   99MOL0     C13537   8.887   1.233   7.744  0.5153 -0.1098  0.2696
   99MOL0     C13538   8.868   1.239   7.586  0.6599 -0.7765  0.8050
   99MOL0     C13539   8.742   1.180   7.538 -0.0384  0.4112 -0.3973
   99MOL0     C13540   8.739   1.173   7.377  1.1299 -0.2367 -0.0016
   99MOL0     N13541   8.635   1.075   7.332 -1.0506  0.1062 -0.3810
   99MOL0     C13542   8.503   1.094   7.331 -0.6245 -0.5769 -1.7701
   99MOL0     C13543   8.454   0.997   7.254 -0.1762 -0.1527  0.3951
   99MOL0     C13544   8.312   0.976   7.214  0.3293  0.5863  0.1314
   99MOL0     C13545   8.281   1.071   7.095 -0.1607  0.1989 -0.1022
   99MOL0     C13546   8.138   1.035   7.055 -1.0241 -0.0859 -1.0575
   99MOL0     C13547   8.103   1.083   6.917 -0.1047  0.0936  0.1669
   99MOL0     O13548   8.004   1.016   6.843 -0.3479  1.0778 -1.0707
   99MOL0     C13549   7.868   1.059   6.851  0.2043  1.0119  0.6227
   99MOL0     C13550   7.823   1.173   6.921  0.7735  0.3557 -0.7833
   99MOL0     C13551   7.682   1.204   6.927  0.0755 -0.8241  0.1014
   99MOL0     C13552   7.628   1.316   7.012  0.2740 -0.0269 -0.5693
   99MOL0     C13553   7.595   1.129   6.842  0.4820 -0.2258 -0.5842
   99MOL0     C13554   7.447   1.155   6.842  0.7762 -0.4233  0.7233
   99MOL0     O13555   7.407   1.286   6.817 -0.4074 -0.3584  0.3867
   99MOL0     C13556   7.276   1.309   6.846  0.0986 -1.2843 -0.6046
   99MOL0     C13557   7.231   1.300   6.977  0.4057 -0.9978 -0.1961
   99MOL0     C13558   7.107   1.356   7.019  0.7955 -0.3329 -0.2499
   99MOL0     C13559   7.020   1.411   6.924  0.2929 -0.8044 -0.5304
   99MOL0     O13560   6.895   1.458   6.959 -0.5716 -0.3279  0.4712
   99MOL0     C13561   6.795   1.461   6.860  0.2680 -0.7833  0.0478
   99MOL0     C13562   6.666   1.500   6.932  0.9411 -0.1358  0.3458
   99MOL0     C13563   6.635   1.647   6.987  0.0321  0.0858  0.1403
   99MOL0     C13564   6.502   1.655   7.054  0.2780 -0.1656  0.1251
   99MOL0     C13565   6.457   1.790   7.094  0.1878  0.0371  0.4155
   99MOL0     C13566   6.320   1.780   7.170  0.2637 -0.0266 -0.6060
   99MOL0     C13567   6.255   1.915   7.206  0.3682 -1.0370  0.5752
   99MOL0     C13568   6.104   1.898   7.234 -0.6344  0.6814  0.0446
   99MOL0    Cl13569   6.081   1.793   7.380  0.2404 -0.0817 -0.1110
   99MOL0     C13570   7.065   1.419   6.792 -0.1120 -0.1936  0.6472
   99MOL0     C13571   7.195   1.374   6.749  1.1473 -0.1765  0.0183
   99MOL0     O13572   7.369   1.057   6.848  0.1854 -0.1895 -0.2820
   99MOL0     C13573   7.642   1.022   6.764  0.1208 -0.8586 -1.1625
   99MOL0     C13574   7.777   0.993   6.768 -0.3478 -1.3713  0.4571
   99MOL0     N13575   8.559   0.924   7.215  0.8824 -0.0652  0.1703
   99MOL0     N13576   8.664   0.964   7.265  0.1162  0.1754  0.4440
   99MOL0     C13577   8.738   1.869   8.160 -0.5640  0.0762  0.6809
   99MOL0     C13578   8.770   1.934   8.285  0.3732 -0.6065  0.6725
   99MOL0     C13579   8.961   2.206   8.605  0.7117  0.4576  0.8418
   99MOL0     C13580   8.892   2.143   8.708 -0.2118 -0.3285 -0.1400
   99MOL0     C13581   8.882   2.210   8.832 -0.0471  0.3613  0.3751
   99MOL0     C13582   8.953   2.325   8.860  1.0745 -0.7831 -0.3359
   99MOL0     O13583   8.919   2.386   8.980  0.1140 -0.7826  0.8100
   99MOL0     C13584   8.965   2.524   8.995 -0.2171  0.7574 -1.0934
   99MOL0     C13585   8.877   2.594   9.108 -0.6057 -0.1571 -0.4599
   99MOL0     C13586   8.871   2.504   9.237  0.3791 -0.4853  1.0337
   99MOL0     C13587   8.835   2.589   9.359  0.1297 -0.4067  0.4822
   99MOL0     C13588   8.689   2.620   9.362 -0.5441 -0.2062 -0.0890
   99MOL0     C13589   8.569   2.643   9.365  0.3861 -0.9676  0.0931
   99MOL0     C13590   9.034   2.382   8.764  0.2285 -0.0966  0.5941
   99MOL0     C13591   9.030   2.327   8.636  0.1271  0.2557  0.0779
   99MOL0     C13592   9.093   2.406   8.536 -0.0216  1.0611  0.4461
   99MOL0     H13593   9.091   1.903   8.303 -0.1666  0.3044  0.3676
   99MOL0     H13594   9.054   1.768   8.076 -0.2316  0.6248 -3.4037
   99MOL0     H13595   8.708   1.526   7.953 -0.8979  3.1554 -1.0239
   99MOL0     H13596   8.738   1.570   8.128 -0.5990  0.8595 -0.5968
   99MOL0     H13597   8.957   1.548   7.916  1.3771 -2.0766  0.5507
   99MOL0     H13598   8.956   1.509   8.087 -1.6046  1.4736  1.5994
   99MOL0     H13599   8.983   1.304   7.967  1.5814  0.9913  1.1218
   99MOL0     H13600   8.819   1.298   8.021 -0.9691  0.7939 -1.1022
   99MOL0     H13601   8.729   1.345   7.793  0.0145 -1.4747  0.2098
   99MOL0     H13602   8.870   1.444   7.758  1.5590  0.6992  2.6570
   99MOL0     H13603   8.853   1.144   7.798  0.3704 -0.7268 -0.8115
   99MOL0     H13604   8.996   1.236   7.760  0.1397  1.5593  3.1793
   99MOL0     H13605   8.849   1.342   7.553 -2.3259 -1.4071  0.3094
   99MOL0     H13606   8.957   1.196   7.540  1.8537 -0.3815  2.6345
   99MOL0     H13607   8.655   1.221   7.589  1.6664  2.5329  0.9947
   99MOL0     H13608   8.751   1.078   7.576  1.3999 -0.3845 -2.6276
   99MOL0     H13609   8.724   1.269   7.327 -2.0754 -0.6716 -0.1127
   99MOL0     H13610   8.837   1.131   7.354  0.6518 -1.6424  0.4059
   99MOL0     H13611   8.453   1.178   7.377  0.6951 -2.2104  3.2458
   99MOL0     H13612   8.250   0.993   7.302  0.9350  2.7073  0.2014
   99MOL0     H13613   8.302   0.878   7.167 -2.4949 -0.8810  3.3810
   99MOL0     H13614   8.278   1.171   7.139 -0.2209  0.1201  0.0710
   99MOL0     H13615   8.348   1.066   7.008 -1.5102 -0.0076 -1.1721
   99MOL0     H13616   8.126   0.927   7.043 -2.6335 -0.3997  2.1892
   99MOL0     H13617   8.063   1.064   7.129 -0.5578 -4.7068  1.5838
   99MOL0     H13618   8.086   1.191   6.919 -0.6925  0.0099  2.3829
   99MOL0     H13619   8.194   1.067   6.859  0.0378 -2.5221  0.9925
   99MOL0     H13620   7.883   1.241   6.980  1.8253 -2.4868  1.6592
   99MOL0     H13621   7.672   1.328   7.111 -1.1653 -4.2308  0.7986
   99MOL0     H13622   7.522   1.295   7.030 -0.6344  3.6995 -0.7914
   99MOL0     H13623   7.631   1.409   6.955 -0.6967  0.0105 -0.5744
   99MOL0     H13624   7.300   1.248   7.042  0.9011  2.2503  2.1522
   99MOL0     H13625   7.084   1.331   7.122 -1.6610 -1.1951 -0.9319
   99MOL0     H13626   6.798   1.544   6.788 -3.2008 -0.6486 -0.1282
   99MOL0     H13627   6.785   1.365   6.808  1.6346 -1.0231  0.1964
   99MOL0     H13628   6.586   1.492   6.857  1.8161 -1.8382 -0.4438
   99MOL0     H13629   6.643   1.432   7.014  1.2559 -1.8779 -0.9629
   99MOL0     H13630   6.614   1.720   6.908 -1.5265  2.0818  2.2817
   99MOL0     H13631   6.711   1.693   7.050  2.0912 -1.8608 -0.7830
   99MOL0     H13632   6.501   1.592   7.144 -3.4464 -0.2685  0.1857
   99MOL0     H13633   6.423   1.617   6.988  2.2443  0.9330 -3.1082
   99MOL0     H13634   6.531   1.839   7.159  0.6143  0.2811 -0.2412
   99MOL0     H13635   6.458   1.859   7.009 -0.2462  0.2002  0.5397
   99MOL0     H13636   6.323   1.717   7.259  0.9426 -0.4398 -0.9128
   99MOL0     H13637   6.252   1.727   7.103 -1.2130 -0.7207  1.3625
   99MOL0     H13638   6.263   1.984   7.121  2.0115 -2.0863 -0.1573
   99MOL0     H13639   6.305   1.963   7.291  1.7623 -0.4411 -0.5430
   99MOL0     H13640   6.055   1.853   7.147  2.0246 -0.5868 -0.9021
   99MOL0     H13641   6.061   1.996   7.257 -3.3671 -0.3255 -0.4513
   99MOL0     H13642   6.996   1.453   6.716  0.9523 -0.3190 -0.3962
   99MOL0     H13643   7.216   1.362   6.644 -0.8370  0.2266 -0.4662
   99MOL0     H13644   7.567   0.974   6.702 -0.9320 -1.6454  0.6463
   99MOL0     H13645   7.816   0.919   6.699  1.7934  1.2121 -1.2940
   99MOL0     H13646   8.640   1.866   8.114 -0.0367 -4.0455 -0.6409
   99MOL0     H13647   8.686   1.975   8.339 -1.8401 -1.5440 -1.8556
   99MOL0     H13648   8.842   2.047   8.699 -3.6047  0.9210  2.8869
   99MOL0     H13649   8.827   2.166   8.915  0.8120 -2.2639 -0.3575
   99MOL0     H13650   9.072   2.531   9.018 -0.2677  1.6644 -1.0784
   99MOL0     H13651   8.936   2.577   8.904 -2.9097  0.0144 -0.7464
   99MOL0     H13652   8.777   2.608   9.067 -1.2123  2.4222  1.6694
   99MOL0     H13653   8.904   2.694   9.144 -0.6830 -1.3864  3.4856
   99MOL0     H13654   8.792   2.430   9.221  1.8932 -1.5134 -2.8612
   99MOL0     H13655   8.968   2.456   9.252 -0.0090 -2.6473 -2.2331
   99MOL0     H13656   8.897   2.679   9.365 -0.1753 -0.2021  0.5858
   99MOL0     H13657   8.848   2.543   9.457  0.5384 -1.6167 -0.1129
   99MOL0     H13658   8.464   2.662   9.368  0.7392  1.0514  1.2763
   99MOL0     H13659   9.090   2.472   8.789 -2.9657  1.9104  1.0482
   99MOL0     H13660   9.027   2.443   8.457  0.2401  1.5465  0.4475
   99MOL0     H13661   9.145   2.496   8.572  1.3061  0.5703 -0.1743
   99MOL0     H13662   9.159   2.341   8.478 -1.8025 -1.7522  1.3990
  100MOL0     O13663  10.198   5.565   5.093  0.1285  0.7533 -0.4733
  100MOL0     C13664  10.098   5.536   5.041  1.2230 -0.3376  0.6910
  100MOL0     O13665  10.047   5.412   5.028  0.3480  0.1156  0.2359
  100MOL0     C13666  10.099   5.312   5.114  0.5510 -0.0703  0.6098
  100MOL0     C13667  10.203   5.227   5.074 -0.4345  0.1888 -0.9678
  100MOL0     C13668  10.242   5.128   5.168 -0.1534 -0.0632 -0.1417
  100MOL0     C13669  10.182   5.113   5.288 -0.5803 -0.1367  0.0921
  100MOL0     O13670  10.242   5.019   5.361 -0.3941  0.7656 -0.4327
  100MOL0     C13671  10.156   4.952   5.464 -0.1099  0.2534 -0.1109
  100MOL0     C13672  10.212   4.819   5.523 -0.4010 -0.2551 -0.5801
  100MOL0     C13673  10.232   4.716   5.410  0.7409  0.0304  0.5489
  100MOL0     C13674  10.315   4.594   5.458  0.1690 -0.6561 -0.0120
  100MOL0     C13675  10.216   4.479   5.496 -0.6692  0.1983 -0.3765
  100MOL0     C13676  10.287   4.351   5.559  0.1421  0.8695 -0.9386
  100MOL0     C13677  10.376   4.274   5.469  0.1936 -0.0086 -0.2986
  100MOL0     C13678  10.486   4.184   5.542  0.5826  0.0123 -0.0306
  100MOL0     N13679  10.438   4.056   5.604 -0.5517 -0.1953  0.7400
  100MOL0     C13680  10.368   3.967   5.523  0.2674 -1.2004 -0.1505
  100MOL0     C13681  10.349   3.863   5.604  0.4609 -0.0373 -1.4831
  100MOL0     C13682  10.298   3.725   5.565 -0.2929 -0.1273  0.3184
  100MOL0     C13683  10.159   3.745   5.502  0.1286  0.5894 -0.3594
  100MOL0     C13684  10.066   3.629   5.516  0.6219  1.4472 -0.2580
  100MOL0     C13685   9.918   3.650   5.478  0.5303 -0.6191  0.5876
  100MOL0     O13686   9.844   3.742   5.569 -0.0406 -0.2757 -0.1724
  100MOL0     C13687   9.713   3.777   5.545 -0.0499  0.1125  0.3676
  100MOL0     C13688   9.662   3.888   5.606 -0.6003 -0.0106 -0.7043
  100MOL0     C13689   9.534   3.936   5.578  0.7595 -0.7965 -0.0879
  100MOL0     C13690   9.481   4.060   5.658 -1.0511  0.5289  0.6208
  100MOL0     C13691   9.442   3.866   5.490  0.0580 -0.4836 -0.1507
  100MOL0     C13692   9.302   3.912   5.452 -0.0555  0.2119 -0.0763
  100MOL0     O13693   9.247   4.017   5.517 -0.2351 -0.0664 -0.4560
  100MOL0     C13694   9.126   4.065   5.486 -0.9361 -0.1972  0.0057
  100MOL0     C13695   9.099   4.102   5.355 -0.4230 -0.2267  0.4756
  100MOL0     C13696   8.980   4.159   5.317 -0.7711 -0.4065 -0.1447
  100MOL0     C13697   8.883   4.179   5.409 -0.0643  0.4481 -0.1311
  100MOL0     O13698   8.775   4.256   5.386  0.3648  0.4418 -0.7215
  100MOL0     C13699   8.720   4.291   5.257  0.2513 -0.3114  0.2429
  100MOL0     C13700   8.581   4.366   5.272  0.0698 -0.0483 -0.7003
  100MOL0     C13701   8.583   4.486   5.371 -1.2968 -0.4306 -0.1621
  100MOL0     C13702   8.446   4.542   5.401  0.5463  0.3092  0.6208
  100MOL0     C13703   8.374   4.591   5.283  0.7181 -0.6164 -0.3474
  100MOL0     C13704   8.239   4.642   5.323  0.1677 -0.7321 -0.1964
  100MOL0     C13705   8.153   4.697   5.203 -0.5432  0.3575 -0.6156
  100MOL0     C13706   8.020   4.753   5.241 -0.1981  0.4927 -0.2002
  100MOL0    Cl13707   7.916   4.627   5.315 -0.2140  0.4181  0.2353
  100MOL0     C13708   8.915   4.152   5.546  0.3928  0.7101  0.5072
  100MOL0     C13709   9.033   4.094   5.590 -1.0018 -0.4443  0.8674
  100MOL0     O13710   9.246   3.848   5.363 -0.7408 -0.2921  0.0991
  100MOL0     C13711   9.501   3.745   5.426  0.3666 -0.4616 -0.6999
  100MOL0     C13712   9.628   3.699   5.458  0.2522  0.0291  0.1452
  100MOL0     N13713  10.396   3.894   5.736 -0.5097  0.5176  0.8238
  100MOL0     N13714  10.450   4.010   5.730 -0.8364 -0.2052  0.2821
  100MOL0     C13715  10.085   5.202   5.332 -0.1410 -0.2791  0.4482
  100MOL0     C13716  10.048   5.300   5.239  0.5498 -0.9102 -0.3423
  100MOL0     C13717  10.028   5.633   4.954  1.2448  0.5168 -0.1535
  100MOL0     C13718   9.951   5.580   4.841 -0.1219  0.0338 -0.8958
  100MOL0     C13719   9.897   5.663   4.753 -0.4729  0.2942  0.6429
  100MOL0     C13720   9.906   5.804   4.764  0.7660  0.3600  1.0513
  100MOL0     O13721   9.861   5.891   4.669 -0.7093 -0.3647 -0.3990
  100MOL0     C13722   9.768   5.854   4.571 -0.2544  0.6081  0.2988
  100MOL0     C13723   9.844   5.796   4.453 -0.0574 -0.4832 -0.8020
  100MOL0     C13724   9.754   5.726   4.347  0.1860  0.0436 -0.0342
  100MOL0     C13725   9.824   5.640   4.236 -1.4520 -0.5141 -0.2284
  100MOL0     C13726   9.920   5.722   4.162  1.1683 -0.2547  0.3189
  100MOL0     C13727   9.995   5.803   4.108 -0.2467  0.2091 -0.2234
  100MOL0     C13728   9.979   5.855   4.872  0.0886  0.0598 -0.4274
  100MOL0     C13729  10.033   5.772   4.972 -0.0985 -0.8064 -1.1375
  100MOL0     C13730  10.113   5.834   5.082 -0.1942 -0.0604  0.0063
  100MOL0     H13731  10.246   5.223   4.974  1.4550  0.5971 -0.2277
  100MOL0     H13732  10.329   5.067   5.143 -0.1084  0.3949 -1.1567
  100MOL0     H13733  10.064   4.926   5.410 -0.7066  1.2961  0.3910
  100MOL0     H13734  10.138   5.015   5.551  0.7122  1.6661 -0.9240
  100MOL0     H13735  10.306   4.843   5.574 -1.1051  1.6859 -0.1132
  100MOL0     H13736  10.152   4.781   5.606 -0.3310  2.2562  0.7305
  100MOL0     H13737  10.131   4.681   5.388  0.5369 -2.1263  4.0774
  100MOL0     H13738  10.286   4.766   5.329 -1.6609  0.5236 -0.8210
  100MOL0     H13739  10.364   4.568   5.364  1.3907 -0.8454  0.6564
  100MOL0     H13740  10.389   4.617   5.535 -0.5127 -2.5901  1.3133
  100MOL0     H13741  10.166   4.458   5.401  0.4505  2.7752 -1.6327
  100MOL0     H13742  10.136   4.502   5.567  1.5859 -0.3730  2.5148
  100MOL0     H13743  10.344   4.386   5.646  1.5589 -0.2656 -1.3865
  100MOL0     H13744  10.207   4.291   5.605  2.3386  0.5503  2.9082
  100MOL0     H13745  10.438   4.353   5.426 -0.2469  1.6964  2.0365
  100MOL0     H13746  10.317   4.223   5.392 -1.7431  0.3905  0.8643
  100MOL0     H13747  10.552   4.160   5.458  1.0585  0.1287  0.3084
  100MOL0     H13748  10.538   4.244   5.617 -0.9492 -1.7423  2.6228
  100MOL0     H13749  10.337   3.998   5.424 -0.6735  0.7113  0.6871
  100MOL0     H13750  10.311   3.656   5.649  0.4060  0.5179  0.7625
  100MOL0     H13751  10.353   3.675   5.485 -0.7598  1.6856 -1.1921
  100MOL0     H13752  10.121   3.834   5.554 -1.8770 -1.2068  1.4110
  100MOL0     H13753  10.155   3.769   5.395 -1.8295 -0.1893 -0.5061
  100MOL0     H13754  10.111   3.543   5.465  0.1182  1.8838 -1.4865
  100MOL0     H13755  10.056   3.604   5.622 -3.5631 -1.1048 -1.0354
  100MOL0     H13756   9.914   3.681   5.372 -1.3020 -0.1761  0.7385
  100MOL0     H13757   9.861   3.557   5.492 -2.9324  0.8077 -2.2164
  100MOL0     H13758   9.729   3.929   5.681  0.0877 -4.4890  1.4564
  100MOL0     H13759   9.465   4.151   5.599 -2.2816 -0.2414 -0.2796
  100MOL0     H13760   9.552   4.070   5.741 -1.2497 -0.4000  0.9169
  100MOL0     H13761   9.389   4.034   5.710 -0.3754 -1.5300  0.8963
  100MOL0     H13762   9.183   4.090   5.287 -0.5669 -4.7032  0.7887
  100MOL0     H13763   8.960   4.212   5.224 -2.4891 -0.2206  0.2917
  100MOL0     H13764   8.797   4.354   5.210  0.1935 -1.9112 -2.1759
  100MOL0     H13765   8.704   4.202   5.195  2.2645 -1.6427  1.5029
  100MOL0     H13766   8.547   4.390   5.171 -3.8459 -1.6883  0.0565
  100MOL0     H13767   8.518   4.287   5.315  1.2495 -0.4880  0.3113
  100MOL0     H13768   8.649   4.568   5.339 -2.9223  0.8641 -0.3077
  100MOL0     H13769   8.621   4.450   5.467 -1.8808 -2.4575 -0.6395
  100MOL0     H13770   8.451   4.632   5.463  0.4096  1.2478 -0.6881
  100MOL0     H13771   8.378   4.469   5.444 -1.0808 -0.9224 -3.5364
  100MOL0     H13772   8.427   4.671   5.229  1.4176 -1.3687 -0.7965
  100MOL0     H13773   8.363   4.515   5.205  0.0816  1.4168 -2.3452
  100MOL0     H13774   8.243   4.713   5.406 -0.5939  1.7187 -2.1416
  100MOL0     H13775   8.192   4.552   5.364  1.3647 -0.0920  2.8675
  100MOL0     H13776   8.137   4.618   5.128 -1.4837  0.1007 -0.1490
  100MOL0     H13777   8.207   4.784   5.163  0.7299  0.9502  2.1426
  100MOL0     H13778   7.970   4.784   5.150  2.7523 -1.5933 -2.7715
  100MOL0     H13779   8.030   4.840   5.306  2.2656 -0.8557  1.4090
  100MOL0     H13780   8.845   4.188   5.621 -1.3423 -4.8885  2.0821
  100MOL0     H13781   9.051   4.082   5.696  0.1779 -3.6352  0.4164
  100MOL0     H13782   9.436   3.700   5.352 -1.3568 -0.9308  1.0304
  100MOL0     H13783   9.659   3.612   5.401 -0.1097  0.7891 -1.2352
  100MOL0     H13784  10.031   5.183   5.424 -0.4401 -1.0855  0.1161
  100MOL0     H13785   9.973   5.365   5.284 -1.0765 -3.3414  0.6405
  100MOL0     H13786   9.953   5.476   4.809  1.9350  0.4465 -2.3048
  100MOL0     H13787   9.850   5.613   4.669  2.3334  1.0651 -1.5221
  100MOL0     H13788   9.708   5.779   4.624  1.1858 -0.1674  0.8841
  100MOL0     H13789   9.708   5.942   4.545  1.5980  2.6330  2.4394
  100MOL0     H13790   9.926   5.734   4.491 -0.6797 -0.9254 -0.1642
  100MOL0     H13791   9.891   5.878   4.397  0.8764 -0.7510 -0.4222
  100MOL0     H13792   9.680   5.664   4.398 -3.4589  0.6227 -4.0555
  100MOL0     H13793   9.696   5.801   4.292  4.3926  3.3009 -0.5207
  100MOL0     H13794   9.743   5.599   4.176  0.6839 -1.8169 -2.3768
  100MOL0     H13795   9.877   5.554   4.279 -3.7229 -2.3944 -1.0249
  100MOL0     H13796  10.054   5.879   4.059  1.9004 -0.6803  0.8656
  100MOL0     H13797   9.980   5.963   4.877 -2.0380  0.1872 -1.7170
  100MOL0     H13798  10.222   5.826   5.070  0.0768  1.6137  0.9826
  100MOL0     H13799  10.081   5.939   5.087 -2.0883 -0.5625 -0.7978
  100MOL0     H13800  10.079   5.783   5.172 -1.8695  1.6763  0.4299
  101MOL0     O13801   1.051   8.249  10.975 -0.0025  0.9031 -0.1076
  101MOL0     C13802   1.104   8.340  11.032 -0.4240 -1.3229 -0.2508
  101MOL0     O13803   1.234   8.363  11.034 -0.1644  0.5006 -0.3625
  101MOL0     C13804   1.329   8.281  10.974 -0.2560  0.1852 -0.2136
  101MOL0     C13805   1.352   8.152  10.995 -0.4744  0.0113  0.2253
  101MOL0     C13806   1.453   8.089  10.914 -0.6195  0.2110  0.0914
  101MOL0     C13807   1.526   8.162  10.815  0.5089  0.3153 -0.4516
  101MOL0     O13808   1.627   8.103  10.748  0.3072 -0.1368 -0.4148
  101MOL0     C13809   1.751   8.115  10.811  0.2321 -1.0893  0.0989
  101MOL0     C13810   1.867   8.120  10.714 -0.2152  0.5398  0.6734
  101MOL0     C13811   1.877   7.987  10.640  0.5308  0.6446  0.7235
  101MOL0     C13812   1.970   7.985  10.521 -0.5832 -0.4577  1.0262
  101MOL0     C13813   2.009   7.840  10.484 -0.5121  0.6356  0.0414
  101MOL0     C13814   2.120   7.831  10.376 -0.0129 -0.6091  0.2617
  101MOL0     C13815   2.054   7.883  10.240 -0.2192  0.2054 -0.3643
  101MOL0     C13816   2.131   7.849  10.108  0.0090 -0.0399 -0.1947
  101MOL0     N13817   2.205   7.963  10.053 -0.0693 -0.3727 -0.4330
  101MOL0     C13818   2.148   8.083  10.017  0.0873 -0.7057  0.4771
  101MOL0     C13819   2.248   8.139   9.943 -0.3815 -0.6440 -0.6524
  101MOL0     C13820   2.254   8.246   9.841 -0.6386 -0.6440  0.5597
  101MOL0     C13821   2.358   8.356   9.877 -0.6003 -0.6707 -0.9171
  101MOL0     C13822   2.345   8.488   9.802  0.5393  0.4727  0.5312
  101MOL0     C13823   2.303   8.478   9.657 -0.9181  0.6936  0.4683
  101MOL0     O13824   2.412   8.418   9.577  0.4841  0.5448  0.5121
  101MOL0     C13825   2.530   8.486   9.553  0.7435 -0.4423 -0.1868
  101MOL0     C13826   2.557   8.619   9.577  0.7790  0.6980 -0.6138
  101MOL0     C13827   2.673   8.680   9.541  0.1315 -0.0609 -0.3936
  101MOL0     C13828   2.664   8.826   9.544 -0.6750 -0.6100  0.1075
  101MOL0     C13829   2.778   8.597   9.490  1.0020  0.2165 -0.6817
  101MOL0     C13830   2.912   8.643   9.462  0.3746 -0.5913 -0.6719
  101MOL0     O13831   2.969   8.746   9.534 -0.2682 -0.4113 -0.3014
  101MOL0     C13832   3.097   8.791   9.523  0.0427  0.9991  0.0254
  101MOL0     C13833   3.137   8.869   9.628  0.3312  0.2500 -0.8051
  101MOL0     C13834   3.264   8.913   9.644 -0.6634 -1.1568  0.4669
  101MOL0     C13835   3.368   8.893   9.544  1.2451 -0.4636  0.4815
  101MOL0     O13836   3.485   8.958   9.542  0.0037  0.0881 -0.4055
  101MOL0     C13837   3.528   9.020   9.658  0.1417  0.5642 -0.1475
  101MOL0     C13838   3.674   9.036   9.652  0.4046 -0.3175 -0.0219
  101MOL0     C13839   3.742   8.896   9.680 -0.6304  0.8499 -0.0440
  101MOL0     C13840   3.895   8.912   9.679  0.2281 -0.7671 -0.0800
  101MOL0     C13841   3.966   8.783   9.740  1.3946  0.4605 -0.0025
  101MOL0     C13842   4.116   8.785   9.698  0.2354  0.3091  1.5070
  101MOL0     C13843   4.180   8.681   9.786 -0.7434 -0.2666  0.0229
  101MOL0     C13844   4.208   8.749   9.919 -0.2264 -0.4076 -0.0735
  101MOL0    Cl13845   4.157   8.629  10.041 -0.2422  0.6413  0.1186
  101MOL0     C13846   3.325   8.830   9.428  0.5386  0.3994  1.1952
  101MOL0     C13847   3.188   8.777   9.417 -0.2157 -0.5912 -0.2224
  101MOL0     O13848   2.958   8.598   9.359 -0.3355  0.4574  0.2057
  101MOL0     C13849   2.758   8.463   9.474  0.6676  0.5357  0.6981
  101MOL0     C13850   2.633   8.406   9.504 -0.0715  0.1411 -0.3276
  101MOL0     N13851   2.366   8.067   9.958 -0.6094 -0.1309  0.4978
  101MOL0     N13852   2.338   7.959  10.025 -0.2433  0.7517 -0.3402
  101MOL0     C13853   1.510   8.300  10.814  0.3577 -0.2206 -0.2100
  101MOL0     C13854   1.403   8.353  10.880 -0.3664 -1.1745  0.7102
  101MOL0     C13855   1.011   8.437  11.104  0.0620  0.9234 -0.3282
  101MOL0     C13856   0.870   8.419  11.084  0.7089  0.4753  0.2247
  101MOL0     C13857   0.774   8.507  11.141 -0.7320  0.0124 -0.3353
  101MOL0     C13858   0.814   8.609  11.234 -0.2621  0.4020 -0.1626
  101MOL0     O13859   0.732   8.701  11.300 -0.2925 -0.5385 -0.3911
  101MOL0     C13860   0.600   8.725  11.254  0.1367  0.2842 -0.4021
  101MOL0     C13861   0.506   8.626  11.328  0.3069 -0.6116 -0.4035
  101MOL0     C13862   0.360   8.679  11.337 -0.2311  0.4460  0.2618
  101MOL0     C13863   0.285   8.675  11.200  0.1430  0.3081  0.5003
  101MOL0     C13864   0.145   8.719  11.212  0.4800 -0.7706  0.0893
  101MOL0     C13865   0.032   8.750  11.215  0.4728  0.4679  0.3393
  101MOL0     C13866   0.950   8.617  11.256 -0.3861  0.5001 -0.0838
  101MOL0     C13867   1.050   8.543  11.191 -0.1303 -0.1167  0.9745
  101MOL0     C13868   1.194   8.561  11.220 -0.4659  0.1046  0.0956
  101MOL0     H13869   1.294   8.104  11.074 -2.7501  3.4152  0.8629
  101MOL0     H13870   1.478   7.985  10.930  0.9577  0.6161  0.4192
  101MOL0     H13871   1.771   8.034  10.883 -0.9503 -0.3800  1.2647
  101MOL0     H13872   1.750   8.212  10.860  0.1675 -1.7680  1.4970
  101MOL0     H13873   1.840   8.191  10.635 -3.9919 -2.1422 -0.7885
  101MOL0     H13874   1.955   8.142  10.774  0.0859  0.7877  0.1421
  101MOL0     H13875   1.896   7.906  10.711  1.2508  0.9485  0.8811
  101MOL0     H13876   1.785   7.953  10.590  1.2283  1.2064 -1.0499
  101MOL0     H13877   1.924   8.042  10.440  0.4405  1.2494  1.5650
  101MOL0     H13878   2.065   8.037  10.542 -0.1574  0.0902 -1.8368
  101MOL0     H13879   1.931   7.775  10.444  2.1157 -1.1709 -2.6224
  101MOL0     H13880   2.044   7.788  10.573  0.7075 -0.7573 -1.1905
  101MOL0     H13881   2.201   7.899  10.400  1.0759 -0.6966 -2.7909
  101MOL0     H13882   2.152   7.727  10.358 -0.1257 -0.4200 -1.1787
  101MOL0     H13883   2.044   7.991  10.255  0.0731 -0.0185  1.6776
  101MOL0     H13884   1.956   7.835  10.234  1.2614 -2.9013 -3.0903
  101MOL0     H13885   2.205   7.770  10.103  1.3996  1.2085 -5.1547
  101MOL0     H13886   2.047   7.825  10.041 -0.8393  0.9087  0.4792
  101MOL0     H13887   2.049   8.127  10.009  1.7500  3.1102 -1.6787
  101MOL0     H13888   2.153   8.287   9.843 -1.8396 -3.1961 -1.3582
  101MOL0     H13889   2.274   8.201   9.743 -2.0387 -1.2649  0.5404
  101MOL0     H13890   2.358   8.371   9.985  1.7681 -3.1214 -0.4520
  101MOL0     H13891   2.457   8.312   9.861  0.4466  0.7305  1.2072
  101MOL0     H13892   2.270   8.550   9.851  0.7806  1.6504 -0.5458
  101MOL0     H13893   2.441   8.538   9.816  0.6066  0.0435  1.7761
  101MOL0     H13894   2.219   8.409   9.651 -1.8972  1.9596 -2.2990
  101MOL0     H13895   2.268   8.573   9.615 -1.7727  0.8776  1.5706
  101MOL0     H13896   2.475   8.677   9.617 -0.9372 -1.9250 -0.0636
  101MOL0     H13897   2.560   8.856   9.529 -0.5488  0.7497  1.6677
  101MOL0     H13898   2.729   8.857   9.463 -0.4257 -1.0073  0.1523
  101MOL0     H13899   2.710   8.861   9.637  0.6742  3.4116 -1.8471
  101MOL0     H13900   3.056   8.888   9.698  1.2512  0.6248  0.1876
  101MOL0     H13901   3.280   8.986   9.722  1.2055  1.8627 -2.4642
  101MOL0     H13902   3.490   9.121   9.676  1.8641  1.1552  0.3713
  101MOL0     H13903   3.505   8.957   9.744 -1.1153  1.5939  0.2916
  101MOL0     H13904   3.706   9.092   9.563 -0.9742  3.0240  1.3939
  101MOL0     H13905   3.704   9.105   9.732  2.2326  0.0942 -1.0005
  101MOL0     H13906   3.719   8.814   9.611  1.3908  0.6532 -0.5368
  101MOL0     H13907   3.712   8.853   9.776 -2.2996  0.9964 -0.4664
  101MOL0     H13908   3.925   9.006   9.726 -3.7817  0.5719  0.1456
  101MOL0     H13909   3.933   8.921   9.577  2.1542 -1.6195  0.5164
  101MOL0     H13910   3.952   8.781   9.848  3.8870  2.3557  0.4192
  101MOL0     H13911   3.917   8.694   9.699 -1.2256  2.0594 -0.6220
  101MOL0     H13912   4.176   8.877   9.700  2.9312 -1.1965 -1.2733
  101MOL0     H13913   4.122   8.761   9.592 -0.3041 -0.6379  1.6813
  101MOL0     H13914   4.273   8.642   9.744 -1.5355 -0.3194 -1.7669
  101MOL0     H13915   4.125   8.591   9.814  3.3684 -2.0279  3.5195
  101MOL0     H13916   4.150   8.841   9.928 -0.0029 -0.3937  1.5459
  101MOL0     H13917   4.316   8.766   9.919 -0.1126 -1.1002 -0.1003
  101MOL0     H13918   3.402   8.819   9.352  0.5756  2.6080  0.8393
  101MOL0     H13919   3.168   8.737   9.318  3.3205  0.7659 -1.6535
  101MOL0     H13920   2.844   8.399   9.458 -0.0859 -0.3229 -0.0676
  101MOL0     H13921   2.618   8.298   9.501  2.3215 -0.3096  1.1325
  101MOL0     H13922   1.578   8.359  10.753  1.1782 -0.5925  0.3298
  101MOL0     H13923   1.379   8.458  10.877  1.3240 -0.7880 -0.1965
  101MOL0     H13924   0.823   8.352  11.012  4.1120 -0.7445 -1.0736
  101MOL0     H13925   0.668   8.492  11.124 -0.9289 -1.1837  1.6823
  101MOL0     H13926   0.565   8.828  11.267 -2.9919 -0.4495 -1.9604
  101MOL0     H13927   0.589   8.705  11.147 -1.0145  1.4234 -0.5198
  101MOL0     H13928   0.533   8.618  11.433 -2.0261 -0.9726  0.2388
  101MOL0     H13929   0.509   8.528  11.279 -1.2401  0.3238 -2.5817
  101MOL0     H13930   0.309   8.627  11.418 -0.0718 -1.7370 -0.9566
  101MOL0     H13931   0.377   8.782  11.370  0.9466  1.2814 -2.6363
  101MOL0     H13932   0.293   8.580  11.147  1.2148  1.8329 -2.2873
  101MOL0     H13933   0.331   8.749  11.133  0.4380  2.0916  2.5454
  101MOL0     H13934  -0.073   8.771  11.213  0.0082 -1.5688 -2.1860
  101MOL0     H13935   0.992   8.691  11.324  1.0135  1.6621 -2.0946
  101MOL0     H13936   1.244   8.487  11.282  0.0862  1.0016  0.7589
  101MOL0     H13937   1.243   8.585  11.125 -2.0593 -0.0041 -0.7889
  101MOL0     H13938   1.196   8.650  11.284 -2.6072  0.4669 -0.2407
  102MOL0     O13939   2.635   1.073   5.282  0.5225  0.0431 -0.4245
  102MOL0     C13940   2.615   1.180   5.342 -0.1017  0.9050  0.6639
  102MOL0     O13941   2.714   1.261   5.398  0.2513 -0.0275  0.1949
  102MOL0     C13942   2.833   1.200   5.433 -0.1058  0.1749  0.6640
  102MOL0     C13943   2.948   1.265   5.402 -0.0940 -0.2373  0.4479
  102MOL0     C13944   3.070   1.217   5.445 -0.1800 -1.1160 -0.0164
  102MOL0     C13945   3.075   1.096   5.520 -0.4707  0.7051 -0.0431
  102MOL0     O13946   3.189   1.036   5.580 -0.4782 -1.1444 -0.2405
  102MOL0     C13947   3.318   1.108   5.563  0.3166  0.1196  0.1728
  102MOL0     C13948   3.435   1.023   5.624 -0.5848  0.0831  0.1686
  102MOL0     C13949   3.568   1.109   5.620 -0.5181 -0.0012 -0.1979
  102MOL0     C13950   3.703   1.047   5.656  0.6707  0.6513 -0.3065
  102MOL0     C13951   3.817   1.152   5.650  0.5111  0.4126  0.6779
  102MOL0     C13952   3.933   1.082   5.726 -0.4212  0.3329  0.1631
  102MOL0     C13953   4.059   1.158   5.702 -1.5046 -0.3224  0.3557
  102MOL0     C13954   4.182   1.097   5.765  0.0307  0.3406 -0.4678
  102MOL0     N13955   4.182   1.119   5.915  0.1018 -0.4121  0.2793
  102MOL0     C13956   4.138   1.030   6.014 -0.2252  0.1584  0.3308
  102MOL0     C13957   4.144   1.105   6.124  0.4870 -0.4504  0.3972
  102MOL0     C13958   4.122   1.033   6.266 -0.4709  0.7227  0.3078
  102MOL0     C13959   3.983   1.060   6.316  0.7196 -0.5580 -0.4506
  102MOL0     C13960   3.863   1.010   6.226 -0.4465 -0.2631 -0.6093
  102MOL0     C13961   3.860   0.861   6.218 -0.4532  0.2520 -0.5664
  102MOL0     O13962   3.839   0.801   6.346  0.3370 -0.1256  0.2445
  102MOL0     C13963   3.717   0.743   6.378 -1.0355  0.1262  0.3802
  102MOL0     C13964   3.650   0.757   6.503 -0.4518  0.7968  0.4490
  102MOL0     C13965   3.525   0.688   6.541 -0.5366  0.3521 -0.5048
  102MOL0     C13966   3.469   0.717   6.679  0.3025  0.2341 -0.1504
  102MOL0     C13967   3.471   0.606   6.444  0.0890  0.3358  0.5346
  102MOL0     C13968   3.362   0.508   6.477  0.2215  0.0925 -0.2749
  102MOL0     O13969   3.339   0.397   6.393  0.9395 -0.4605  0.7394
  102MOL0     C13970   3.226   0.326   6.401 -0.1469 -0.4977 -0.8226
  102MOL0     C13971   3.230   0.189   6.457 -1.3212 -0.1323  0.6978
  102MOL0     C13972   3.114   0.116   6.469 -0.0091 -0.8122 -0.7060
  102MOL0     C13973   2.991   0.181   6.443 -0.0475 -0.0957 -0.9358
  102MOL0     O13974   2.879   0.106   6.467  0.0149  0.5758  0.4195
  102MOL0     C13975   2.754   0.155   6.423  0.3411 -0.6940 -0.4538
  102MOL0     C13976   2.643   0.057   6.456 -0.4484  0.9019  0.1285
  102MOL0     C13977   2.503   0.089   6.392 -0.7057  0.0585 -0.0685
  102MOL0     C13978   2.438   0.190   6.488 -0.3307 -0.6254  0.9948
  102MOL0     C13979   2.289   0.211   6.472 -0.2109  0.0782 -0.2345
  102MOL0     C13980   2.197   0.100   6.526 -0.2855 -0.3767  0.9806
  102MOL0     C13981   2.058   0.144   6.554  0.5440 -0.0599 -0.5075
  102MOL0     C13982   1.990   0.183   6.423 -0.2013  0.4395  0.2636
  102MOL0    Cl13983   1.816   0.226   6.456  0.4352  0.1387 -0.3739
  102MOL0     C13984   2.988   0.309   6.391  0.1428  0.1428  0.1569
  102MOL0     C13985   3.099   0.381   6.368 -0.5665 -0.0795  0.7298
  102MOL0     O13986   3.301   0.523   6.587 -0.0356 -0.1526 -0.3444
  102MOL0     C13987   3.539   0.585   6.323  0.4163  0.0076 -0.1257
  102MOL0     C13988   3.661   0.650   6.292  0.5057 -0.3150 -0.4232
  102MOL0     N13989   4.188   1.233   6.091 -0.6007 -0.8379  0.0238
  102MOL0     N13990   4.218   1.234   5.962 -0.0982  0.2467 -0.1021
  102MOL0     C13991   2.960   1.033   5.547  1.1633 -0.2338 -0.0341
  102MOL0     C13992   2.839   1.080   5.505  0.5511 -0.5884  0.2854
  102MOL0     C13993   2.473   1.213   5.373  0.7773  0.5890 -0.0336
  102MOL0     C13994   2.453   1.306   5.477 -0.3666 -0.2764  0.6176
  102MOL0     C13995   2.322   1.361   5.508 -0.3310  0.0292  0.5722
  102MOL0     C13996   2.212   1.301   5.449 -0.2523  0.4247 -0.2874
  102MOL0     O13997   2.083   1.333   5.478 -0.6695 -0.5635  0.0411
  102MOL0     C13998   2.035   1.254   5.585 -0.0652 -0.3928 -0.9431
  102MOL0     C13999   1.919   1.179   5.521 -0.0564 -0.2707  0.5145
  102MOL0     C14000   1.815   1.270   5.459 -0.7738 -0.1278  0.1888
  102MOL0     C14001   1.825   1.277   5.301 -0.5963 -0.1622  0.0010
  102MOL0     C14002   1.714   1.341   5.250 -0.2416  0.1291 -0.5922
  102MOL0     C14003   1.617   1.392   5.200 -0.6702  0.2594 -0.6905
  102MOL0     C14004   2.232   1.189   5.363 -0.7329 -0.1003  0.7518
  102MOL0     C14005   2.360   1.151   5.318  0.5669 -0.2992 -0.6314
  102MOL0     C14006   2.361   1.056   5.199 -0.0112 -0.2433 -0.7086
  102MOL0     H14007   2.944   1.359   5.348  2.7000 -0.6224 -0.5814
  102MOL0     H14008   3.161   1.272   5.421 -0.5800  0.3324  1.6152
  102MOL0     H14009   3.316   1.208   5.609  2.1301  0.8758 -1.2659
  102MOL0     H14010   3.335   1.127   5.456 -2.2406  0.9234 -0.1651
  102MOL0     H14011   3.417   0.987   5.726  0.6404 -1.3938 -0.1073
  102MOL0     H14012   3.454   0.941   5.554  2.6065 -0.8251  1.8841
  102MOL0     H14013   3.572   1.129   5.513 -1.5662 -0.7917 -0.4049
  102MOL0     H14014   3.568   1.205   5.672  0.1171  0.1826 -0.5219
  102MOL0     H14015   3.692   1.010   5.758 -1.8075 -4.1824 -2.0336
  102MOL0     H14016   3.717   0.954   5.601 -1.7284 -0.3735  0.6837
  102MOL0     H14017   3.790   1.240   5.709 -0.2440  0.8361 -0.2803
  102MOL0     H14018   3.838   1.172   5.545 -0.5217 -0.5565  0.2761
  102MOL0     H14019   3.903   1.079   5.832  2.0438  2.4254  1.0174
  102MOL0     H14020   3.956   0.989   5.673  1.8930  1.3690 -0.7475
  102MOL0     H14021   4.043   1.261   5.735 -2.8748 -0.7276  1.0157
  102MOL0     H14022   4.068   1.154   5.593 -1.9386 -0.3110  0.3176
  102MOL0     H14023   4.182   0.988   5.756  2.1556  0.3312 -0.8510
  102MOL0     H14024   4.277   1.125   5.717  0.0217 -0.4261 -0.9446
  102MOL0     H14025   4.100   0.928   6.014 -2.5734  0.8912  3.2873
  102MOL0     H14026   4.198   1.068   6.337 -1.6138 -0.2107  2.0511
  102MOL0     H14027   4.141   0.926   6.265  0.8900  0.9449 -0.1605
  102MOL0     H14028   3.975   1.014   6.415 -2.0579  1.9887  0.6534
  102MOL0     H14029   3.978   1.168   6.335  0.4854 -0.0098 -3.1420
  102MOL0     H14030   3.771   1.044   6.275 -0.0434  1.5519 -1.0318
  102MOL0     H14031   3.868   1.039   6.121  0.9567 -1.6850 -0.9655
  102MOL0     H14032   3.780   0.835   6.148 -1.9320 -2.9956  2.0919
  102MOL0     H14033   3.945   0.819   6.165 -0.7197  0.3931 -1.1149
  102MOL0     H14034   3.704   0.812   6.579  3.7809 -2.1145 -0.0976
  102MOL0     H14035   3.491   0.633   6.745  0.6346  1.0237  0.7656
  102MOL0     H14036   3.361   0.733   6.673 -0.1845 -2.9468 -4.3913
  102MOL0     H14037   3.524   0.802   6.721 -0.7274  1.2040 -0.7088
  102MOL0     H14038   3.328   0.153   6.485 -1.4327 -1.0419 -0.0527
  102MOL0     H14039   3.120   0.010   6.491  0.0407 -0.0667  3.8157
  102MOL0     H14040   2.736   0.249   6.475 -0.5649 -0.8978 -0.3940
  102MOL0     H14041   2.752   0.166   6.314 -2.5169  0.2673 -0.3873
  102MOL0     H14042   2.684  -0.038   6.421  1.1020  2.2646 -1.9931
  102MOL0     H14043   2.634   0.051   6.565 -0.1145 -0.3586  0.1054
  102MOL0     H14044   2.436   0.002   6.392 -1.1057  0.2981  2.5528
  102MOL0     H14045   2.505   0.136   6.293 -1.1814 -0.3324 -0.2684
  102MOL0     H14046   2.478   0.289   6.465 -1.5339 -0.3000  0.1897
  102MOL0     H14047   2.462   0.168   6.592 -2.6085 -2.0455  1.2743
  102MOL0     H14048   2.260   0.304   6.522 -0.7171 -0.2575  0.1118
  102MOL0     H14049   2.272   0.221   6.364 -2.3654  3.7135  0.2997
  102MOL0     H14050   2.235   0.068   6.623 -0.5807 -2.0034  0.5890
  102MOL0     H14051   2.202   0.023   6.449 -0.7427  3.0299 -2.7907
  102MOL0     H14052   2.045   0.219   6.632  1.8680 -1.5451  1.2116
  102MOL0     H14053   1.990   0.069   6.595 -1.9208  2.1047 -0.3244
  102MOL0     H14054   1.996   0.092   6.363  2.0183  0.1959  0.7416
  102MOL0     H14055   2.039   0.272   6.382  0.0462  0.9216  1.5544
  102MOL0     H14056   2.895   0.360   6.366 -0.2227 -0.3443  0.4906
  102MOL0     H14057   3.095   0.481   6.326  0.7395 -1.2805 -2.5617
  102MOL0     H14058   3.519   0.501   6.257  0.0129  0.1108 -0.1364
  102MOL0     H14059   3.702   0.608   6.201  1.6594 -0.8993  0.3413
  102MOL0     H14060   2.966   0.941   5.605 -1.9921  0.6288  1.8983
  102MOL0     H14061   2.748   1.035   5.543 -0.4951 -1.2360 -2.7348
  102MOL0     H14062   2.539   1.355   5.522  0.1952 -1.1614  0.5317
  102MOL0     H14063   2.297   1.434   5.585  0.6096 -0.1217  1.0436
  102MOL0     H14064   2.107   1.192   5.640 -1.0333 -1.8948 -1.3140
  102MOL0     H14065   1.996   1.313   5.668 -0.2455 -1.1620 -0.4696
  102MOL0     H14066   1.872   1.112   5.593 -0.6738  2.1419  2.5302
  102MOL0     H14067   1.965   1.109   5.451 -0.7546 -1.9816  1.7030
  102MOL0     H14068   1.720   1.230   5.495 -0.8806  0.3013  0.3907
  102MOL0     H14069   1.826   1.368   5.507  1.3286 -0.7334  1.0680
  102MOL0     H14070   1.826   1.176   5.261 -0.4780  0.0191 -0.4535
  102MOL0     H14071   1.917   1.327   5.271  1.5459 -1.3299  3.9021
  102MOL0     H14072   1.535   1.436   5.147 -2.6270 -3.5627 -1.1795
  102MOL0     H14073   2.150   1.137   5.314 -0.5040  0.8245 -0.6600
  102MOL0     H14074   2.462   1.023   5.175  0.5426 -1.6930  2.9360
  102MOL0     H14075   2.316   0.959   5.225  2.5996 -0.7023  2.8355
  102MOL0     H14076   2.310   1.107   5.117 -1.4076 -1.1213 -0.4184
  103MOL0     O14077   1.887   7.058   6.994 -0.5837  0.7497  0.0351
  103MOL0     C14078   1.936   7.089   7.096 -0.2909  0.7602 -0.6426
  103MOL0     O14079   1.870   7.145   7.198  0.5933 -0.4822  0.1510
  103MOL0     C14080   1.746   7.198   7.191 -0.1588 -0.3204  0.7064
  103MOL0     C14081   1.694   7.271   7.085  0.2830  0.7100  0.4408
  103MOL0     C14082   1.573   7.338   7.089  0.1068  0.5814 -0.4541
  103MOL0     C14083   1.487   7.309   7.203 -0.1213  0.0123  0.5910
  103MOL0     O14084   1.359   7.347   7.210  0.0616  0.1071  0.0482
  103MOL0     C14085   1.333   7.479   7.165 -0.9133  0.9962 -0.0735
  103MOL0     C14086   1.200   7.533   7.213  0.0463  0.1221  0.5329
  103MOL0     C14087   1.179   7.685   7.211 -0.2482 -0.0600  0.8418
  103MOL0     C14088   1.044   7.726   7.269 -0.2480 -0.1831  0.3611
  103MOL0     C14089   1.039   7.875   7.266 -0.8332  0.4067  0.1614
  103MOL0     C14090   0.894   7.919   7.290 -0.2187 -0.7439  0.8917
  103MOL0     C14091   0.890   8.065   7.263  0.2424  0.3133 -0.9395
  103MOL0     C14092   0.745   8.101   7.236  0.0895 -0.5165 -0.9553
  103MOL0     N14093   0.746   8.247   7.228  0.0392  0.8302  0.2643
  103MOL0     C14094   0.757   8.343   7.323 -0.6591  0.3060 -0.0641
  103MOL0     C14095   0.771   8.466   7.258 -0.0020  0.8488  0.1804
  103MOL0     C14096   0.795   8.608   7.305 -0.1719 -1.2614 -0.2596
  103MOL0     C14097   0.665   8.688   7.274  0.2157 -0.4977  0.1680
  103MOL0     C14098   0.673   8.830   7.327 -0.1563  0.3223  0.1962
  103MOL0     C14099   0.582   8.932   7.256  0.7721  0.8637  0.1776
  103MOL0     O14100   0.447   8.876   7.256  0.0070  0.7454  1.0204
  103MOL0     C14101   0.356   8.919   7.159  0.1449  0.6589 -1.1039
  103MOL0     C14102   0.265   8.825   7.115  0.2281  0.0039 -0.0691
  103MOL0     C14103   0.167   8.866   7.025  0.9893 -0.7262 -0.3352
  103MOL0     C14104   0.033   8.786   7.020 -0.5322  0.5854  0.0651
  103MOL0     C14105   0.172   8.989   6.956  0.0051  0.7489 -0.2214
  103MOL0     C14106   0.078   9.037   6.849 -0.0150  0.9299  0.0701
  103MOL0     O14107   0.136   9.132   6.774  0.1535 -0.0142 -0.0721
  103MOL0     C14108   0.055   9.201   6.683 -0.7041 -0.0960 -0.6922
  103MOL0     C14109   0.063   9.339   6.672  0.8448  0.4833 -0.3695
  103MOL0     C14110  -0.007   9.410   6.577 -0.0507  0.8339  0.0438
  103MOL0     C14111  -0.104   9.342   6.496 -0.5178  0.7865 -0.3078
  103MOL0     O14112  -0.181   9.418   6.407 -0.2665 -0.2049  0.0479
  103MOL0     C14113  -0.302   9.360   6.355 -0.4413 -0.1573  0.2545
  103MOL0     C14114  -0.399   9.463   6.305 -0.0745  0.1052  0.5225
  103MOL0     C14115  -0.524   9.399   6.251  0.2002 -0.4565  0.2649
  103MOL0     C14116  -0.607   9.485   6.155 -0.8673 -0.2687  0.6333
  103MOL0     C14117  -0.720   9.421   6.081 -0.1633 -0.3083 -1.0651
  103MOL0     C14118  -0.835   9.387   6.177  0.0449 -0.2148 -0.1420
  103MOL0     C14119  -0.891   9.511   6.260  0.3626 -0.1045 -0.5665
  103MOL0     C14120  -0.942   9.617   6.162  0.3442  0.0082  0.5498
  103MOL0    Cl14121  -0.995   9.775   6.239  0.1853 -0.1669 -0.0939
  103MOL0     C14122  -0.111   9.199   6.504 -0.6548 -0.0981 -0.3389
  103MOL0     C14123  -0.031   9.134   6.596  0.0736  0.0453  0.2234
  103MOL0     O14124  -0.041   9.017   6.853  0.8883 -0.3927 -0.5134
  103MOL0     C14125   0.271   9.074   7.000 -0.0369  0.0395 -0.6168
  103MOL0     C14126   0.364   9.043   7.098 -0.6015 -0.1719  0.4751
  103MOL0     N14127   0.772   8.431   7.120  0.4183  0.6821  1.0417
  103MOL0     N14128   0.748   8.302   7.106 -0.0669 -0.1314  0.0644
  103MOL0     C14129   1.540   7.235   7.311 -0.4473  0.1983 -0.2646
  103MOL0     C14130   1.671   7.189   7.306 -0.3104  0.2737  0.9635
  103MOL0     C14131   2.081   7.081   7.125 -0.3184  0.2314  0.6731
  103MOL0     C14132   2.132   7.104   7.255  0.0453 -0.5245 -0.1013
  103MOL0     C14133   2.270   7.092   7.290 -0.7324  0.3798 -0.2352
  103MOL0     C14134   2.359   7.051   7.194 -0.8274  0.0471  0.1925
  103MOL0     O14135   2.485   7.072   7.224 -0.3390  0.1129 -0.3311
  103MOL0     C14136   2.575   7.131   7.130  0.0230  0.3298  0.1164
  103MOL0     C14137   2.698   7.188   7.197  1.1591 -0.1117  0.5255
  103MOL0     C14138   2.781   7.076   7.267 -0.1901  0.0291  0.4687
  103MOL0     C14139   2.873   7.133   7.370  0.2272  0.1139 -0.0402
  103MOL0     C14140   2.969   7.228   7.319 -0.5079 -0.4376  0.0502
  103MOL0     C14141   3.052   7.312   7.292 -0.3077  0.4177 -0.4353
  103MOL0     C14142   2.310   7.026   7.065 -0.8428  0.3547 -0.3889
  103MOL0     C14143   2.179   7.032   7.028  0.5630  1.0872 -0.2460
  103MOL0     C14144   2.142   6.995   6.883  0.8222 -0.4322  1.0639
  103MOL0     H14145   1.758   7.287   6.999  1.1689  1.5968  1.2536
  103MOL0     H14146   1.545   7.393   6.999 -2.0067  0.2758 -0.0484
  103MOL0     H14147   1.342   7.479   7.056  1.0179  0.7006  0.0436
  103MOL0     H14148   1.409   7.546   7.205 -1.8273  1.7523  0.4235
  103MOL0     H14149   1.116   7.497   7.152 -0.3021  1.0321  0.4631
  103MOL0     H14150   1.186   7.490   7.313  0.0282 -2.7693 -0.6028
  103MOL0     H14151   1.255   7.730   7.276  1.0886 -0.1068 -0.6407
  103MOL0     H14152   1.195   7.725   7.111 -0.9605 -0.5316  0.5284
  103MOL0     H14153   0.965   7.691   7.202 -0.2182  0.9006 -0.2746
  103MOL0     H14154   1.018   7.696   7.371 -1.9419 -0.4048 -0.1050
  103MOL0     H14155   1.072   7.901   7.165 -0.6639 -0.6659 -0.0810
  103MOL0     H14156   1.110   7.920   7.335 -0.4148 -0.2568  0.1788
  103MOL0     H14157   0.824   7.859   7.232  1.3406 -1.9139  0.1481
  103MOL0     H14158   0.868   7.901   7.395 -1.0580  1.7305  1.1770
  103MOL0     H14159   0.947   8.094   7.174  2.4171  2.6612  1.0447
  103MOL0     H14160   0.931   8.112   7.352  0.7715 -4.0311  1.3643
  103MOL0     H14161   0.723   8.061   7.136 -3.3841  0.4349 -0.6963
  103MOL0     H14162   0.693   8.068   7.326  1.6035 -1.3321 -0.3555
  103MOL0     H14163   0.745   8.323   7.429 -1.3978 -0.0107 -0.2045
  103MOL0     H14164   0.883   8.649   7.254 -0.7734  0.9887  0.3904
  103MOL0     H14165   0.820   8.609   7.412  2.6219 -2.1745 -0.8201
  103MOL0     H14166   0.649   8.687   7.166  2.0709 -0.9193 -0.1224
  103MOL0     H14167   0.586   8.634   7.326  2.0897 -0.5763  3.1447
  103MOL0     H14168   0.657   8.831   7.436  0.7187 -0.2843  0.3425
  103MOL0     H14169   0.775   8.869   7.327  0.6706 -1.6839  0.8398
  103MOL0     H14170   0.589   9.024   7.315  1.6843  1.8150 -1.3555
  103MOL0     H14171   0.607   8.973   7.158 -0.5775  1.5941  0.1235
  103MOL0     H14172   0.266   8.722   7.148  0.8936  0.4169  1.2571
  103MOL0     H14173  -0.046   8.843   7.069  0.4450  0.6390  1.6352
  103MOL0     H14174   0.051   8.689   7.068  3.0736  0.8438 -0.4802
  103MOL0     H14175   0.002   8.759   6.918 -1.0581  2.3409 -0.2704
  103MOL0     H14176   0.115   9.401   6.744  1.5863 -1.6396  1.0290
  103MOL0     H14177  -0.002   9.517   6.559  3.0983  0.6152 -0.9979
  103MOL0     H14178  -0.277   9.294   6.271 -0.2090  0.5143 -0.2170
  103MOL0     H14179  -0.360   9.302   6.427 -0.3732  0.1781  0.5813
  103MOL0     H14180  -0.418   9.524   6.394 -1.3069 -1.7944  1.6205
  103MOL0     H14181  -0.345   9.520   6.228  0.4057 -1.2906 -0.2063
  103MOL0     H14182  -0.575   9.371   6.343  0.3721 -0.7640  0.2679
  103MOL0     H14183  -0.492   9.307   6.201  0.9421  0.6321 -1.3586
  103MOL0     H14184  -0.547   9.513   6.067 -0.7203 -3.5870 -0.4725
  103MOL0     H14185  -0.640   9.575   6.207 -3.6511 -2.2814  2.6435
  103MOL0     H14186  -0.750   9.491   6.003 -0.5308  1.0190  0.2088
  103MOL0     H14187  -0.693   9.326   6.035  3.2500  0.6947 -1.4129
  103MOL0     H14188  -0.800   9.306   6.243  1.2557 -0.4727 -1.0647
  103MOL0     H14189  -0.924   9.345   6.130 -0.4878  3.7965 -3.2583
  103MOL0     H14190  -0.819   9.552   6.331  0.5723 -1.1163 -0.1823
  103MOL0     H14191  -0.978   9.477   6.318 -1.0720  1.7609 -1.5025
  103MOL0     H14192  -1.032   9.591   6.107 -0.6109  1.3956  1.3863
  103MOL0     H14193  -0.860   9.635   6.092  1.0118 -0.5270  1.1767
  103MOL0     H14194  -0.179   9.157   6.430 -3.1186 -0.4589  1.9695
  103MOL0     H14195  -0.025   9.026   6.599 -2.8622 -0.1762  1.8180
  103MOL0     H14196   0.271   9.173   6.956  0.0123 -0.1940 -1.1434
  103MOL0     H14197   0.439   9.120   7.114 -1.3689  1.1668 -1.8508
  103MOL0     H14198   1.486   7.210   7.402  1.4221 -1.0239  0.5879
  103MOL0     H14199   1.729   7.145   7.387 -1.7402  2.5480  3.3504
  103MOL0     H14200   2.066   7.139   7.334 -1.8750  0.0965 -1.8984
  103MOL0     H14201   2.309   7.110   7.390 -2.3294 -0.1151  0.5072
  103MOL0     H14202   2.604   7.057   7.055 -0.3509  1.1233 -0.8334
  103MOL0     H14203   2.522   7.210   7.076  1.6617  2.4462  1.4569
  103MOL0     H14204   2.671   7.265   7.270  0.7670 -0.2326  0.5148
  103MOL0     H14205   2.759   7.232   7.118 -0.8226  2.0652  0.1112
  103MOL0     H14206   2.717   7.007   7.322  0.4307  1.2544  2.8335
  103MOL0     H14207   2.843   7.021   7.195  0.0822 -1.4022  1.7532
  103MOL0     H14208   2.920   7.046   7.416  0.9923  0.4071 -0.2535
  103MOL0     H14209   2.823   7.190   7.449 -2.4049 -1.9243 -0.1106
  103MOL0     H14210   3.127   7.383   7.265 -0.5627  0.0234 -2.3204
  103MOL0     H14211   2.379   6.988   6.991  1.0227  2.4455  0.1908
  103MOL0     H14212   2.080   7.071   6.834 -0.2788 -3.5376 -2.9114
  103MOL0     H14213   2.237   6.981   6.830  0.3942 -1.4025  0.5396
  103MOL0     H14214   2.088   6.901   6.871  0.5477 -0.1243 -0.2446
  104MOL0     O14215   0.919   0.584   8.853 -0.0615  0.4463  0.1173
  104MOL0     C14216   0.899   0.479   8.919 -0.7889 -0.2423  0.1019
  104MOL0     O14217   0.997   0.390   8.959 -0.0472  0.1296  0.8076
  104MOL0     C14218   1.116   0.419   8.898  0.0119 -0.3989 -0.6225
  104MOL0     C14219   1.151   0.367   8.776  0.1842  0.6261 -0.1427
  104MOL0     C14220   1.260   0.409   8.705  0.2024  0.8174  0.0306
  104MOL0     C14221   1.352   0.497   8.758  0.1291 -0.1410  0.3607
  104MOL0     O14222   1.468   0.549   8.698  0.2773 -0.2221 -0.3620
  104MOL0     C14223   1.541   0.473   8.593  0.3848 -0.3873  0.0524
  104MOL0     C14224   1.486   0.477   8.451 -0.6784  0.0315  0.2140
  104MOL0     C14225   1.522   0.351   8.373 -0.6570 -0.4511 -0.0664
  104MOL0     C14226   1.666   0.332   8.355  0.1699 -0.8850 -0.2358
  104MOL0     C14227   1.725   0.395   8.220 -0.3108  0.6616  0.4067
  104MOL0     C14228   1.880   0.356   8.205 -0.1408 -0.1822  0.0319
  104MOL0     C14229   1.938   0.393   8.078 -1.3314  1.1008 -0.4411
  104MOL0     C14230   1.849   0.351   7.957  0.1838  0.1361  0.0781
  104MOL0     N14231   1.917   0.358   7.831  0.2037  0.7225 -0.5572
  104MOL0     C14232   1.986   0.256   7.776 -0.7989 -0.4698 -0.6910
  104MOL0     C14233   2.031   0.302   7.656  0.4977  0.3877  1.3012
  104MOL0     C14234   2.081   0.223   7.530 -0.8353 -0.4778 -0.4576
  104MOL0     C14235   1.980   0.211   7.410 -0.3494 -0.2495  0.0660
  104MOL0     C14236   2.052   0.227   7.275  0.6722  0.4912 -0.4517
  104MOL0     C14237   2.149   0.115   7.226 -0.3217  0.1863 -0.0595
  104MOL0     O14238   2.201   0.155   7.100 -0.5476  0.0248 -0.3760
  104MOL0     C14239   2.280   0.057   7.039  0.4037  0.2222  0.7449
  104MOL0     C14240   2.319  -0.077   7.085  0.9235  0.2317  0.2768
  104MOL0     C14241   2.404  -0.154   7.012 -0.7203 -0.6483  0.4163
  104MOL0     C14242   2.473  -0.276   7.082  0.0496  0.7428 -0.1607
  104MOL0     C14243   2.436  -0.116   6.883 -0.2826 -0.1786  0.8589
  104MOL0     C14244   2.490  -0.218   6.786  0.5497 -0.9789 -0.0590
  104MOL0     O14245   2.440  -0.341   6.790  0.2132 -0.5252 -0.6446
  104MOL0     C14246   2.503  -0.448   6.740 -0.2208  0.2975 -0.4535
  104MOL0     C14247   2.580  -0.448   6.619  0.0086 -0.0704  0.0991
  104MOL0     C14248   2.618  -0.564   6.561  0.7363 -0.5708 -0.2727
  104MOL0     C14249   2.608  -0.686   6.625  0.3179 -0.7643  0.1088
  104MOL0     O14250   2.641  -0.809   6.561 -0.1168 -0.2479 -0.1124
  104MOL0     C14251   2.782  -0.813   6.523  0.3025 -0.1426 -0.3934
  104MOL0     C14252   2.823  -0.960   6.511  0.3045 -0.6312  0.1615
  104MOL0     C14253   2.763  -1.048   6.397 -0.1870 -0.8871  0.0268
  104MOL0     C14254   2.815  -1.189   6.417 -0.3406 -0.1442  0.1959
  104MOL0     C14255   2.792  -1.284   6.288 -0.9158  0.4328 -0.0389
  104MOL0     C14256   2.815  -1.435   6.314 -0.9813 -0.1521  0.2298
  104MOL0     C14257   2.792  -1.496   6.175 -0.7291 -0.1399 -0.3379
  104MOL0     C14258   2.789  -1.650   6.185 -0.6945  0.4863 -0.0844
  104MOL0    Cl14259   2.631  -1.696   6.254  0.1450  0.3533 -0.0877
  104MOL0     C14260   2.544  -0.684   6.752  0.0471 -0.0930  0.1079
  104MOL0     C14261   2.486  -0.573   6.806  0.1011  0.2072 -0.7267
  104MOL0     O14262   2.574  -0.176   6.705 -0.1231 -0.2734 -0.3401
  104MOL0     C14263   2.400   0.007   6.826  0.8362 -0.1107 -0.2082
  104MOL0     C14264   2.326   0.098   6.901  0.9763 -0.0805 -0.0734
  104MOL0     N14265   2.003   0.435   7.646  0.0781 -0.4895 -0.7376
  104MOL0     N14266   1.934   0.466   7.751 -0.2937 -0.1200 -0.0409
  104MOL0     C14267   1.324   0.537   8.891 -0.2493 -0.4613 -0.3307
  104MOL0     C14268   1.214   0.495   8.959  0.3538 -0.1145  0.0084
  104MOL0     C14269   0.764   0.429   8.942  0.0694 -0.7589  0.0233
  104MOL0     C14270   0.741   0.339   9.047  0.3775 -0.0633  0.0921
  104MOL0     C14271   0.611   0.280   9.057  0.3294 -0.7079 -0.1614
  104MOL0     C14272   0.500   0.313   8.985  0.5959 -0.2485  0.3718
  104MOL0     O14273   0.383   0.252   9.023 -0.0194  0.3905 -0.3141
  104MOL0     C14274   0.279   0.260   8.930 -0.2218  0.2869  0.4270
  104MOL0     C14275   0.175   0.371   8.956  0.6456 -0.6668  0.5935
  104MOL0     C14276   0.109   0.360   9.104 -0.2108  0.7645  0.6207
  104MOL0     C14277  -0.014   0.262   9.101  1.4222  0.4532  0.3159
  104MOL0     C14278  -0.128   0.337   9.048  0.1167  0.3102 -0.5833
  104MOL0     C14279  -0.228   0.385   9.001  0.2792 -0.0394 -0.2640
  104MOL0     C14280   0.526   0.418   8.889 -0.4184 -0.0415 -0.2447
  104MOL0     C14281   0.646   0.476   8.868 -0.5088 -0.0167 -0.7477
  104MOL0     C14282   0.650   0.568   8.748 -0.0372  0.1341  0.9604
  104MOL0     H14283   1.069   0.311   8.733 -1.0262  0.1365  2.5802
  104MOL0     H14284   1.258   0.368   8.604 -0.6494  0.3937  0.2080
  104MOL0     H14285   1.560   0.372   8.628  0.6709  0.5918  3.0003
  104MOL0     H14286   1.636   0.527   8.588 -1.1675  2.4057 -2.8640
  104MOL0     H14287   1.377   0.470   8.455 -0.6211 -0.2084  2.5098
  104MOL0     H14288   1.511   0.565   8.392  2.0403 -0.1719  0.9259
  104MOL0     H14289   1.496   0.261   8.430  3.8189  0.4385  4.0253
  104MOL0     H14290   1.475   0.347   8.274  0.2987  1.6559 -0.6596
  104MOL0     H14291   1.734   0.368   8.433 -0.4126 -0.4374  0.0729
  104MOL0     H14292   1.682   0.224   8.350  0.5301 -1.1738  3.5565
  104MOL0     H14293   1.704   0.501   8.202  0.2848  0.4713 -1.6078
  104MOL0     H14294   1.672   0.343   8.139  0.7650  0.0260  0.0998
  104MOL0     H14295   1.938   0.395   8.289  1.2329 -4.6335  1.4203
  104MOL0     H14296   1.894   0.249   8.217  0.3262 -0.0392  0.8444
  104MOL0     H14297   2.040   0.354   8.072 -1.0719  1.3077  1.7343
  104MOL0     H14298   1.945   0.502   8.073 -4.1442  1.2974 -2.1604
  104MOL0     H14299   1.804   0.253   7.977 -0.8451  0.2448 -1.5097
  104MOL0     H14300   1.771   0.427   7.956  1.3128  1.3184  0.1262
  104MOL0     H14301   1.991   0.161   7.829  0.4504  1.1082  2.2706
  104MOL0     H14302   2.112   0.120   7.552  1.0564  0.0515 -0.5000
  104MOL0     H14303   2.170   0.277   7.499  0.7654 -2.8510 -0.2429
  104MOL0     H14304   1.923   0.118   7.416  0.8456 -1.0409 -0.5189
  104MOL0     H14305   1.919   0.302   7.419 -0.3102 -0.2076 -0.0902
  104MOL0     H14306   1.977   0.241   7.197  0.4217  3.2014  0.1662
  104MOL0     H14307   2.107   0.321   7.279  0.9226  0.4843 -2.5884
  104MOL0     H14308   2.233   0.100   7.293  0.7749  1.4049 -1.1180
  104MOL0     H14309   2.097   0.019   7.214 -1.4094  0.7549 -0.0004
  104MOL0     H14310   2.283  -0.096   7.185  1.9321  0.2305  0.6504
  104MOL0     H14311   2.419  -0.356   7.030  0.7086 -0.4103  0.8656
  104MOL0     H14312   2.461  -0.272   7.190  1.4211  0.8437  0.0088
  104MOL0     H14313   2.580  -0.283   7.061  0.4742 -0.0068  2.0184
  104MOL0     H14314   2.595  -0.361   6.556  2.9750 -0.5758 -0.0659
  104MOL0     H14315   2.655  -0.565   6.459 -0.8543  0.5677 -0.9103
  104MOL0     H14316   2.799  -0.758   6.430  2.4251  1.8560  1.0781
  104MOL0     H14317   2.842  -0.758   6.596  1.3486  0.4073 -1.6272
  104MOL0     H14318   2.932  -0.965   6.499  0.7927  0.4893  3.1543
  104MOL0     H14319   2.800  -0.999   6.611 -0.8175 -1.1948 -0.3126
  104MOL0     H14320   2.796  -1.001   6.304 -0.6866 -2.4755 -0.9859
  104MOL0     H14321   2.654  -1.052   6.404 -0.5032  0.8657 -2.6800
  104MOL0     H14322   2.761  -1.227   6.504 -0.3124  1.0603  0.7712
  104MOL0     H14323   2.921  -1.203   6.441 -0.8143 -3.1751  0.9536
  104MOL0     H14324   2.691  -1.254   6.260 -2.3246 -2.0372  1.9267
  104MOL0     H14325   2.861  -1.262   6.206 -0.6195 -1.4498 -0.3454
  104MOL0     H14326   2.734  -1.467   6.381  0.9899 -0.7697  2.4773
  104MOL0     H14327   2.912  -1.460   6.358 -0.3047 -0.6241 -1.4702
  104MOL0     H14328   2.873  -1.464   6.108  0.6891  0.2754  1.4992
  104MOL0     H14329   2.693  -1.467   6.140 -2.2246 -3.9928  0.1717
  104MOL0     H14330   2.872  -1.686   6.246  0.9861  1.2744 -1.8143
  104MOL0     H14331   2.794  -1.695   6.086  2.3772 -2.6957  1.2784
  104MOL0     H14332   2.526  -0.784   6.791  2.0172 -0.7248 -0.4404
  104MOL0     H14333   2.423  -0.575   6.894  0.5913 -0.6857 -0.3851
  104MOL0     H14334   2.433   0.027   6.724  1.8315 -1.5370 -0.1960
  104MOL0     H14335   2.303   0.197   6.862  0.3448  0.4915  1.6222
  104MOL0     H14336   1.398   0.612   8.915 -0.1788 -0.4317 -0.6361
  104MOL0     H14337   1.199   0.539   9.057  1.9833 -2.6458  1.5085
  104MOL0     H14338   0.821   0.308   9.114 -1.2797 -1.3703  1.5348
  104MOL0     H14339   0.606   0.205   9.136  0.3812 -0.4350  0.1035
  104MOL0     H14340   0.318   0.274   8.829 -0.4198 -0.1904  0.2820
  104MOL0     H14341   0.225   0.166   8.940  0.0319  0.3700  3.7156
  104MOL0     H14342   0.100   0.357   8.878  0.4544  0.5498  0.5428
  104MOL0     H14343   0.222   0.467   8.936 -2.0340  0.2016 -2.3880
  104MOL0     H14344   0.183   0.307   9.166  1.6098  2.3493 -0.1000
  104MOL0     H14345   0.094   0.451   9.163  1.2220 -0.5085  3.1477
  104MOL0     H14346  -0.041   0.230   9.202 -0.6177 -0.8868 -0.5720
  104MOL0     H14347  -0.007   0.157   9.071  1.8056 -0.1233  2.2904
  104MOL0     H14348  -0.303   0.450   8.960  1.0764  0.6254 -0.6989
  104MOL0     H14349   0.440   0.439   8.826 -1.2223 -2.1473  0.0468
  104MOL0     H14350   0.706   0.659   8.772  1.3255 -0.5986  0.7098
  104MOL0     H14351   0.709   0.520   8.669 -0.0521 -0.0178  1.0403
  104MOL0     H14352   0.551   0.590   8.708  0.3013 -0.2293 -0.1176
  105MOL0     O14353   1.322   5.519   2.445 -0.0168 -0.1910  0.3963
  105MOL0     C14354   1.244   5.426   2.425  1.0906  0.1431 -0.2248
  105MOL0     O14355   1.267   5.328   2.349  0.0568  0.1762 -1.0465
  105MOL0     C14356   1.394   5.310   2.301  0.6455 -0.1593  0.3482
  105MOL0     C14357   1.514   5.324   2.366 -0.1389  0.0050  0.4473
  105MOL0     C14358   1.633   5.300   2.310 -0.2959  0.5011 -0.6219
  105MOL0     C14359   1.642   5.259   2.171  0.4350 -0.3464  0.4958
  105MOL0     O14360   1.766   5.222   2.134  0.6094  0.5679  0.4475
  105MOL0     C14361   1.780   5.167   2.004 -0.0799  0.3727 -0.1027
  105MOL0     C14362   1.790   5.264   1.889  0.2700 -0.4959  0.3603
  105MOL0     C14363   1.829   5.191   1.761  0.2304  0.6720  0.4332
  105MOL0     C14364   1.884   5.304   1.664  0.4549  0.4305 -0.2704
  105MOL0     C14365   1.937   5.249   1.532 -0.3137 -0.8672  0.3527
  105MOL0     C14366   2.034   5.343   1.448  0.4616  0.1431  0.1112
  105MOL0     C14367   2.178   5.348   1.502 -0.2746 -0.0175  0.2641
  105MOL0     C14368   2.267   5.432   1.410 -0.6135  0.7244  0.4784
  105MOL0     N14369   2.410   5.426   1.449 -0.8325 -1.2113  0.6252
  105MOL0     C14370   2.504   5.519   1.388  0.9255  0.9777  0.3332
  105MOL0     C14371   2.617   5.491   1.458  0.2170  0.5494 -1.0867
  105MOL0     C14372   2.757   5.549   1.457  1.2416  0.1040  0.5350
  105MOL0     C14373   2.759   5.697   1.495  0.3850 -0.4579  0.9513
  105MOL0     C14374   2.869   5.743   1.581 -0.5623  0.1087 -0.0391
  105MOL0     C14375   3.002   5.704   1.505  0.2932 -0.4307 -0.0238
  105MOL0     O14376   3.001   5.743   1.363 -0.0952 -0.7009 -0.9856
  105MOL0     C14377   3.123   5.740   1.303 -0.2731 -0.1146  0.1741
  105MOL0     C14378   3.131   5.797   1.175  0.1636  0.0525  0.2020
  105MOL0     C14379   3.250   5.818   1.109 -0.1808 -0.1997  0.1367
  105MOL0     C14380   3.247   5.895   0.978  0.3725  0.7424 -0.2386
  105MOL0     C14381   3.374   5.782   1.171  0.3259 -0.4685 -0.3863
  105MOL0     C14382   3.513   5.799   1.113 -0.5588  0.2890 -0.5435
  105MOL0     O14383   3.621   5.806   1.205  0.3916 -0.1567  0.0671
  105MOL0     C14384   3.742   5.821   1.143 -0.4513 -0.6270 -0.0221
  105MOL0     C14385   3.807   5.950   1.139  0.0336  0.1294  0.0541
  105MOL0     C14386   3.931   5.963   1.075 -0.5648 -0.4309  0.4738
  105MOL0     C14387   4.003   5.851   1.047  0.5603  0.0261 -0.2612
  105MOL0     O14388   4.138   5.866   1.020  0.0387  0.0734  0.3196
  105MOL0     C14389   4.229   5.765   0.973 -0.2046 -0.2120 -0.3968
  105MOL0     C14390   4.367   5.830   0.984 -0.0659  0.1338  0.2016
  105MOL0     C14391   4.379   5.966   0.893  0.0600  0.2951  0.2105
  105MOL0     C14392   4.528   6.023   0.900 -0.1793  0.5481  0.2615
  105MOL0     C14393   4.561   6.067   1.048 -0.3200 -0.0356 -1.0833
  105MOL0     C14394   4.462   6.177   1.100  0.0503  0.3947 -0.8100
  105MOL0     C14395   4.520   6.264   1.206 -0.7907  1.4540  0.0213
  105MOL0     C14396   4.563   6.188   1.327  0.5444 -0.1112 -0.8860
  105MOL0    Cl14397   4.613   6.299   1.451  0.2261 -0.3806  0.1228
  105MOL0     C14398   3.941   5.718   1.047 -0.4717 -0.6810 -0.4463
  105MOL0     C14399   3.814   5.705   1.105  0.4513 -0.1815 -0.3084
  105MOL0     O14400   3.526   5.783   0.987  0.6302 -0.2001 -0.1751
  105MOL0     C14401   3.373   5.736   1.299  0.0015 -0.4588 -0.5201
  105MOL0     C14402   3.246   5.708   1.363  0.7531 -0.5077  0.0453
  105MOL0     N14403   2.582   5.396   1.565  0.5285 -0.1497  0.2968
  105MOL0     N14404   2.459   5.378   1.562  0.1457 -0.7377 -0.0914
  105MOL0     C14405   1.520   5.258   2.100 -0.6266 -0.4282  0.5926
  105MOL0     C14406   1.392   5.284   2.166 -0.5524 -0.3701 -0.5048
  105MOL0     C14407   1.097   5.437   2.472 -1.2615 -1.0267 -0.2821
  105MOL0     C14408   1.073   5.555   2.547  0.7719  0.7640 -0.3767
  105MOL0     C14409   0.944   5.610   2.560 -0.2834  1.2306  0.0921
  105MOL0     C14410   0.839   5.540   2.494 -0.7128  0.3952  0.0883
  105MOL0     O14411   0.706   5.580   2.505 -0.4065  0.6333 -0.7930
  105MOL0     C14412   0.671   5.621   2.635  0.4790  0.1032  0.4711
  105MOL0     C14413   0.516   5.628   2.655  1.0576 -0.5892  0.1717
  105MOL0     C14414   0.444   5.501   2.623 -0.5551  0.3842  0.1020
  105MOL0     C14415   0.328   5.544   2.533 -0.4007  0.1463 -0.4651
  105MOL0     C14416   0.244   5.430   2.527 -0.8325 -0.3275 -0.2191
  105MOL0     C14417   0.190   5.324   2.513  0.4502 -0.5748  0.0889
  105MOL0     C14418   0.864   5.420   2.432 -1.0470 -0.0335  0.1778
  105MOL0     C14419   0.984   5.358   2.429 -1.0890 -0.0786  0.3900
  105MOL0     C14420   0.999   5.217   2.377 -0.4498  0.5123  0.0475
  105MOL0     H14421   1.522   5.337   2.473  0.2061  4.6703  0.0892
  105MOL0     H14422   1.712   5.296   2.385 -2.2704 -0.2890  1.5245
  105MOL0     H14423   1.706   5.091   1.977  0.1479  0.4314 -0.9010
  105MOL0     H14424   1.867   5.103   2.017 -0.6662 -0.4924 -0.3374
  105MOL0     H14425   1.689   5.307   1.888  0.5024  0.2339  2.4922
  105MOL0     H14426   1.859   5.344   1.916 -2.6329  2.7800 -1.2059
  105MOL0     H14427   1.900   5.115   1.795  1.4542  0.8279 -1.5803
  105MOL0     H14428   1.742   5.137   1.722 -1.1108  2.4226  0.8702
  105MOL0     H14429   1.799   5.373   1.655  1.1867  1.3168 -0.5533
  105MOL0     H14430   1.960   5.365   1.714 -0.6635  0.6899  1.1885
  105MOL0     H14431   1.853   5.214   1.472 -2.1455 -1.3851  3.0523
  105MOL0     H14432   2.001   5.162   1.551 -3.3140 -2.9528  1.5894
  105MOL0     H14433   2.049   5.291   1.352 -1.5733  1.3370 -0.9196
  105MOL0     H14434   1.993   5.442   1.425  0.3417 -0.2955 -1.7475
  105MOL0     H14435   2.211   5.244   1.509 -3.0258 -1.2618 -2.4955
  105MOL0     H14436   2.177   5.412   1.590  2.4309 -0.4325  0.6828
  105MOL0     H14437   2.257   5.395   1.308  2.3235 -0.4449  0.5115
  105MOL0     H14438   2.237   5.537   1.407 -0.9535  0.6198 -1.6892
  105MOL0     H14439   2.488   5.584   1.303 -2.0762  1.1858  0.9620
  105MOL0     H14440   2.805   5.537   1.360  5.1721  0.9396  2.1751
  105MOL0     H14441   2.812   5.497   1.536 -1.3137 -1.3486  1.4920
  105MOL0     H14442   2.746   5.757   1.404  1.6167  1.0986  1.7678
  105MOL0     H14443   2.664   5.715   1.547  0.9474  0.9387  1.5477
  105MOL0     H14444   2.866   5.851   1.566  2.8890  0.0300 -2.2086
  105MOL0     H14445   2.868   5.711   1.686  0.2095  1.2307  0.3265
  105MOL0     H14446   3.092   5.749   1.549  1.7080 -2.4390 -0.6721
  105MOL0     H14447   3.026   5.597   1.512  1.7673 -0.2006 -0.9946
  105MOL0     H14448   3.044   5.831   1.119  0.5121 -0.5720 -0.7298
  105MOL0     H14449   3.203   5.835   0.897  0.8554 -0.1004  0.1068
  105MOL0     H14450   3.345   5.938   0.958  0.2967  0.3910 -1.4093
  105MOL0     H14451   3.177   5.978   0.985 -1.1489 -0.3411 -1.7143
  105MOL0     H14452   3.757   6.043   1.163 -0.4685 -0.6292  2.1559
  105MOL0     H14453   3.975   6.061   1.088  0.8424 -1.3399  3.3466
  105MOL0     H14454   4.235   5.677   1.037  0.9270 -0.8646 -1.3553
  105MOL0     H14455   4.206   5.727   0.873 -1.0859 -0.2139 -0.2029
  105MOL0     H14456   4.379   5.850   1.091 -1.4833  0.8095  0.2571
  105MOL0     H14457   4.456   5.771   0.958 -1.5756 -2.5290  0.7555
  105MOL0     H14458   4.321   6.046   0.940  1.3563  1.0114  0.6632
  105MOL0     H14459   4.348   5.950   0.789 -1.2576  1.8431  0.3313
  105MOL0     H14460   4.525   6.115   0.841  0.6145  0.5103  0.1492
  105MOL0     H14461   4.607   5.957   0.861 -2.7911 -2.5689 -0.2204
  105MOL0     H14462   4.562   5.980   1.115 -2.4794  2.9848  3.3410
  105MOL0     H14463   4.656   6.121   1.044 -1.3113  2.2503  2.3393
  105MOL0     H14464   4.368   6.142   1.144  0.4686  1.9321  1.4767
  105MOL0     H14465   4.430   6.248   1.023 -1.6522  3.0756  2.1128
  105MOL0     H14466   4.434   6.327   1.232 -3.5972 -0.9472 -2.6075
  105MOL0     H14467   4.600   6.330   1.170  0.0499  0.6369  0.3627
  105MOL0     H14468   4.649   6.123   1.306  2.4371  1.1172  2.3110
  105MOL0     H14469   4.487   6.125   1.374  1.3496  0.2612  1.0104
  105MOL0     H14470   3.990   5.626   1.017 -0.7852 -1.5166  1.4093
  105MOL0     H14471   3.758   5.614   1.120  2.3250 -1.1197  1.4862
  105MOL0     H14472   3.461   5.701   1.351  1.0280  3.9473  1.1718
  105MOL0     H14473   3.237   5.655   1.457  0.1733  1.6797  1.3069
  105MOL0     H14474   1.523   5.251   1.992 -0.5584  0.4978  0.5276
  105MOL0     H14475   1.298   5.288   2.112 -1.2705 -0.4615  0.7051
  105MOL0     H14476   1.155   5.617   2.580  0.4755  0.9670 -0.0179
  105MOL0     H14477   0.919   5.706   2.603 -2.2374  0.5360  0.6164
  105MOL0     H14478   0.700   5.550   2.713  0.8480 -0.8487 -0.4988
  105MOL0     H14479   0.719   5.715   2.662  1.2604 -0.1933  0.1385
  105MOL0     H14480   0.492   5.705   2.582 -0.0443  0.2872  1.4217
  105MOL0     H14481   0.500   5.672   2.753  1.7215  0.3516 -0.1276
  105MOL0     H14482   0.516   5.431   2.580 -0.2686  2.1212 -2.4336
  105MOL0     H14483   0.421   5.471   2.726  1.3714 -1.7913 -0.0231
  105MOL0     H14484   0.372   5.567   2.436  2.3552  0.1410  0.6931
  105MOL0     H14485   0.270   5.627   2.574  0.1829  0.3783 -0.1001
  105MOL0     H14486   0.151   5.224   2.506  1.2010 -0.7425 -3.2425
  105MOL0     H14487   0.778   5.369   2.388 -2.3697  1.5423  0.8352
  105MOL0     H14488   1.006   5.217   2.268  0.5189  2.3710  0.0666
  105MOL0     H14489   1.090   5.172   2.419 -1.9628 -0.1524  2.9276
  105MOL0     H14490   0.911   5.163   2.414 -0.6940  0.7735 -0.1518
  106MOL0     O14491  11.233  10.164  10.187  0.0504 -0.4711 -0.2413
  106MOL0     C14492  11.254  10.230  10.287 -0.6527 -0.7837 -0.3616
  106MOL0     O14493  11.156  10.306  10.352 -0.7149 -0.0415  0.6429
  106MOL0     C14494  11.044  10.334  10.272 -0.8386  0.0929  0.0672
  106MOL0     C14495  10.924  10.262  10.282 -0.8359 -0.3065  0.3209
  106MOL0     C14496  10.813  10.312  10.209  0.3434  0.2342  0.4982
  106MOL0     C14497  10.821  10.420  10.128  0.1993  1.1388 -0.5787
  106MOL0     O14498  10.704  10.462  10.072  0.0832  0.6888  0.1399
  106MOL0     C14499  10.699  10.596  10.019 -0.3882 -0.2843  0.0880
  106MOL0     C14500  10.565  10.624   9.958  0.1151  0.4653  1.1224
  106MOL0     C14501  10.496  10.504   9.873 -0.5275 -1.2590 -0.1909
  106MOL0     C14502  10.374  10.545   9.792  0.0874  0.1089  0.3676
  106MOL0     C14503  10.339  10.443   9.675 -1.2533  0.3492 -0.0537
  106MOL0     C14504  10.447  10.449   9.564 -0.0174 -0.6108  0.7163
  106MOL0     C14505  10.526  10.318   9.538  0.2903 -0.5592  0.0542
  106MOL0     C14506  10.642  10.356   9.446 -0.4472  1.1314 -0.0310
  106MOL0     N14507  10.743  10.412   9.539  0.5643  0.3990 -0.1122
  106MOL0     C14508  10.826  10.346   9.633 -0.0532  0.6025  0.4424
  106MOL0     C14509  10.904  10.447   9.686  0.0595  0.0832  0.1911
  106MOL0     C14510  11.004  10.430   9.795  0.0069 -2.0046 -0.2564
  106MOL0     C14511  11.146  10.438   9.743 -0.3543  0.6969  1.1538
  106MOL0     C14512  11.247  10.387   9.849  0.4401  0.4919 -0.1004
  106MOL0     C14513  11.388  10.444   9.826  0.0500 -0.8523  0.6838
  106MOL0     O14514  11.478  10.398   9.939 -0.5571 -0.5259  0.2599
  106MOL0     C14515  11.605  10.449   9.952  0.2557  0.2115  0.1036
  106MOL0     C14516  11.669  10.552   9.879 -0.2044 -0.7467  0.2653
  106MOL0     C14517  11.796  10.594   9.907 -0.4330  1.1873 -0.4249
  106MOL0     C14518  11.848  10.711   9.825 -0.3738 -0.7620 -0.7619
  106MOL0     C14519  11.867  10.532  10.016 -0.2271  0.0647  0.0681
  106MOL0     C14520  12.012  10.547  10.039 -0.1484  0.3561  0.2916
  106MOL0     O14521  12.077  10.637   9.963 -0.0046  0.6886  0.1776
  106MOL0     C14522  12.206  10.656   9.986 -0.0465  0.0901 -0.5009
  106MOL0     C14523  12.244  10.702  10.112  0.3768 -1.0071  0.5329
  106MOL0     C14524  12.380  10.728  10.122 -0.1248 -0.1813  0.7405
  106MOL0     C14525  12.476  10.720  10.019  1.0477  0.2394  0.8055
  106MOL0     O14526  12.608  10.744  10.043 -0.5852  0.4847  0.5956
  106MOL0     C14527  12.652  10.884  10.023 -0.0204  0.0822  0.0093
  106MOL0     C14528  12.682  10.964  10.139  0.2295 -0.7147 -0.6744
  106MOL0     C14529  12.785  10.898  10.222 -0.6270 -0.8041  0.3041
  106MOL0     C14530  12.831  11.001  10.326  0.0623 -0.1465  0.1920
  106MOL0     C14531  12.929  10.944  10.423 -0.2092 -0.2880 -0.0260
  106MOL0     C14532  12.957  11.030  10.552 -0.0108 -0.4040 -0.4105
  106MOL0     C14533  13.002  10.942  10.671 -0.0866  0.8349 -0.5976
  106MOL0     C14534  13.035  11.036  10.790 -0.9273  0.0908 -1.2920
  106MOL0    Cl14535  13.190  11.110  10.749 -0.2091  0.0040  0.1356
  106MOL0     C14536  12.431  10.685   9.890 -0.5327 -0.8936 -0.1255
  106MOL0     C14537  12.291  10.653   9.881  0.4989  0.1839  0.9371
  106MOL0     O14538  12.063  10.479  10.134 -0.0278  0.5037  0.7548
  106MOL0     C14539  11.790  10.443  10.101 -0.3230 -0.3666 -0.8834
  106MOL0     C14540  11.670  10.399  10.064 -0.9522  0.6429 -1.0206
  106MOL0     N14541  10.856  10.569   9.631 -0.1277  0.0604 -0.0330
  106MOL0     N14542  10.763  10.548   9.553 -0.1537 -0.0884  0.8038
  106MOL0     C14543  10.940  10.495  10.128  0.6137  0.4636 -0.0360
  106MOL0     C14544  11.050  10.445  10.199 -0.0089  0.3523 -0.6457
  106MOL0     C14545  11.394  10.230  10.348 -0.2896  0.7027 -0.2323
  106MOL0     C14546  11.490  10.137  10.297 -0.5599  0.0494 -0.4422
  106MOL0     C14547  11.630  10.128  10.342  0.3063 -0.5235  0.3093
  106MOL0     C14548  11.674  10.232  10.429 -0.1387  0.0763  0.5633
  106MOL0     O14549  11.802  10.246  10.467 -0.1473 -0.1111 -0.0767
  106MOL0     C14550  11.901  10.148  10.422  0.0601  0.5112 -0.8963
  106MOL0     C14551  12.042  10.181  10.457  0.2008 -1.4812  0.3143
  106MOL0     C14552  12.126  10.055  10.443 -0.4171 -0.5261  0.1144
  106MOL0     C14553  12.274  10.096  10.459  0.6285  0.2125  0.8662
  106MOL0     C14554  12.320  10.089  10.600 -0.4665  0.1362 -0.6373
  106MOL0     C14555  12.379  10.076  10.710  0.1951 -0.4700 -0.2842
  106MOL0     C14556  11.581  10.325  10.474  0.5915 -0.3098 -0.2204
  106MOL0     C14557  11.443  10.321  10.448 -0.0422  0.3262 -0.2702
  106MOL0     C14558  11.362  10.432  10.503  0.1762 -0.0856  0.2065
  106MOL0     H14559  10.922  10.177  10.350  0.9692 -1.0189 -0.4534
  106MOL0     H14560  10.711  10.280  10.224  0.7323 -1.7470 -0.8133
  106MOL0     H14561  10.771  10.604   9.937 -1.5595  0.7845 -0.8745
  106MOL0     H14562  10.723  10.673  10.092  1.7069  1.6540 -2.4623
  106MOL0     H14563  10.506  10.654  10.045  1.0752  0.4315  1.7923
  106MOL0     H14564  10.561  10.706   9.885 -1.2970 -1.0627 -0.6180
  106MOL0     H14565  10.568  10.464   9.800 -0.7939  1.4658 -2.1084
  106MOL0     H14566  10.463  10.431   9.947 -1.5943  1.4884  2.2375
  106MOL0     H14567  10.288  10.548   9.860  1.6537 -2.2918  2.6441
  106MOL0     H14568  10.387  10.644   9.746  1.4256 -0.3268 -0.2537
  106MOL0     H14569  10.241  10.445   9.627 -1.3187 -3.2244 -0.3891
  106MOL0     H14570  10.344  10.340   9.713 -1.3552  0.5025  0.3723
  106MOL0     H14571  10.406  10.473   9.465  1.7016 -0.2909  0.0421
  106MOL0     H14572  10.515  10.533   9.583  2.1442 -2.1634  0.3198
  106MOL0     H14573  10.461  10.243   9.492 -0.4275  0.3047 -0.3781
  106MOL0     H14574  10.559  10.270   9.630 -0.3023 -0.8405  0.1241
  106MOL0     H14575  10.680  10.265   9.399  0.7127  0.9604  1.1761
  106MOL0     H14576  10.619  10.425   9.365  2.5741  1.8589 -0.3744
  106MOL0     H14577  10.834  10.240   9.656  0.4847  0.9985  2.1792
  106MOL0     H14578  10.993  10.339   9.855  0.5615 -0.3876  2.5017
  106MOL0     H14579  11.000  10.513   9.867  0.5274 -3.0503  1.0273
  106MOL0     H14580  11.149  10.388   9.646 -2.4697 -0.2140  1.5021
  106MOL0     H14581  11.158  10.544   9.718 -0.4223  0.0814 -1.8434
  106MOL0     H14582  11.208  10.403   9.950 -0.3837 -2.6226  0.1659
  106MOL0     H14583  11.248  10.279   9.831 -1.2373  0.7442 -2.1895
  106MOL0     H14584  11.421  10.413   9.726  0.3210  1.5435 -0.0158
  106MOL0     H14585  11.380  10.553   9.825  1.2189 -0.7515 -0.1253
  106MOL0     H14586  11.616  10.593   9.794  0.4199 -0.0286  0.2097
  106MOL0     H14587  11.900  10.777   9.896 -2.9226  1.6919 -1.0351
  106MOL0     H14588  11.768  10.772   9.783 -0.0183 -0.9498 -1.7262
  106MOL0     H14589  11.914  10.669   9.748  0.6374  1.5820 -1.2507
  106MOL0     H14590  12.177  10.691  10.196 -3.2365 -0.9767 -2.1022
  106MOL0     H14591  12.399  10.767  10.222 -1.2425  1.4159  0.3617
  106MOL0     H14592  12.745  10.879   9.966  0.4538  0.1669  0.7528
  106MOL0     H14593  12.573  10.931   9.964 -1.1748  0.8059  2.0181
  106MOL0     H14594  12.720  11.058  10.098 -1.0586  0.3853  0.5257
  106MOL0     H14595  12.586  10.983  10.189 -1.3461 -3.6206 -2.3280
  106MOL0     H14596  12.871  10.873  10.159 -0.6356  0.4360 -0.2315
  106MOL0     H14597  12.749  10.806  10.267  3.7741 -0.9724  4.1378
  106MOL0     H14598  12.744  11.037  10.381 -0.2638 -0.3592 -0.1733
  106MOL0     H14599  12.880  11.084  10.275  0.1730  0.9799  2.0603
  106MOL0     H14600  12.895  10.847  10.459  1.0931 -0.7655 -0.0266
  106MOL0     H14601  13.023  10.913  10.376  0.0985  0.6336 -0.0366
  106MOL0     H14602  12.872  11.093  10.581  0.4107 -0.1634  0.3448
  106MOL0     H14603  13.029  11.111  10.537 -0.8720  0.2449 -1.1798
  106MOL0     H14604  13.088  10.880  10.646 -0.8654 -0.1426 -0.9524
  106MOL0     H14605  12.923  10.869  10.694  1.9636 -1.3222 -0.0650
  106MOL0     H14606  13.049  10.978  10.881  1.9313  0.0859 -1.6316
  106MOL0     H14607  12.956  11.110  10.805  1.3436  2.3650  0.5684
  106MOL0     H14608  12.504  10.675   9.809 -1.8696 -1.9570 -1.2446
  106MOL0     H14609  12.242  10.615   9.792 -1.0042  1.2504  1.2639
  106MOL0     H14610  11.828  10.423  10.201  1.0387  4.8860 -0.0411
  106MOL0     H14611  11.624  10.319  10.121  0.9453 -0.6653 -1.2449
  106MOL0     H14612  10.945  10.587  10.072 -0.1174  0.7353  0.3383
  106MOL0     H14613  11.144  10.499  10.207  0.0160  0.1228  1.0078
  106MOL0     H14614  11.459  10.060  10.227  1.7961 -0.1859 -1.2929
  106MOL0     H14615  11.680  10.055  10.279 -1.4475 -1.3669 -0.1724
  106MOL0     H14616  11.887  10.060  10.486  1.5391  2.5194  2.4725
  106MOL0     H14617  11.891  10.118  10.317 -2.5551  0.2808 -0.6639
  106MOL0     H14618  12.054  10.224  10.557 -0.3112  2.7159 -1.2374
  106MOL0     H14619  12.076  10.257  10.386 -0.7492 -1.4462 -0.1139
  106MOL0     H14620  12.093   9.978  10.514 -2.3056  0.1302  0.0187
  106MOL0     H14621  12.113  10.017  10.341  0.5689  2.1297 -1.0928
  106MOL0     H14622  12.301  10.191  10.411 -2.0118  0.1422 -0.9740
  106MOL0     H14623  12.325  10.026  10.392 -1.7348  0.0172 -0.8438
  106MOL0     H14624  12.426  10.062  10.806 -3.4916 -0.9130  1.6667
  106MOL0     H14625  11.622  10.408  10.531 -0.9305  0.2488  0.1045
  106MOL0     H14626  11.304  10.491  10.432  1.3208  3.7938  2.2215
  106MOL0     H14627  11.288  10.398  10.576 -0.6847  0.2309 -0.5025
  106MOL0     H14628  11.424  10.509  10.549 -0.4762  1.5360 -1.4920
  107MOL0     O14629   4.687   0.454   3.108  0.0650 -0.4263 -0.2582
  107MOL0     C14630   4.620   0.398   3.193  0.0248  1.1248 -0.6389
  107MOL0     O14631   4.484   0.370   3.184  0.1048  0.1957 -0.2272
  107MOL0     C14632   4.403   0.437   3.089 -0.3046 -0.2767 -0.3630
  107MOL0     C14633   4.450   0.450   2.954  0.0315 -0.1067  0.8449
  107MOL0     C14634   4.372   0.527   2.865 -0.5627 -0.0959  0.8101
  107MOL0     C14635   4.244   0.578   2.906  0.5743  0.0690 -0.0569
  107MOL0     O14636   4.149   0.641   2.819  0.3025 -0.0674  0.0530
  107MOL0     C14637   4.157   0.624   2.678  0.0296  0.6666  0.2351
  107MOL0     C14638   4.020   0.637   2.609 -1.3265 -0.6316  0.0401
  107MOL0     C14639   3.970   0.781   2.608  0.6028  0.5690  0.5175
  107MOL0     C14640   3.833   0.794   2.542  0.4981 -0.3968 -0.8916
  107MOL0     C14641   3.823   0.770   2.391  0.2278  0.7113  0.1942
  107MOL0     C14642   3.686   0.823   2.343  0.2384 -0.1412  0.6647
  107MOL0     C14643   3.665   0.814   2.194 -1.0719  0.6130  0.1445
  107MOL0     C14644   3.540   0.881   2.132 -0.3617 -0.3397  0.6603
  107MOL0     N14645   3.418   0.840   2.194 -0.3006  0.2193 -0.0895
  107MOL0     C14646   3.324   0.918   2.253 -0.4942 -0.0572 -0.1894
  107MOL0     C14647   3.234   0.832   2.304  0.1688 -0.4377  0.0269
  107MOL0     C14648   3.108   0.888   2.365 -0.2039  0.6751 -0.2874
  107MOL0     C14649   3.091   0.840   2.508  0.3650  0.4347 -0.0460
  107MOL0     C14650   2.958   0.867   2.573  0.2068  0.5204 -0.0251
  107MOL0     C14651   2.844   0.771   2.521  0.1756 -0.4110  0.1692
  107MOL0     O14652   2.888   0.630   2.543  0.1801  0.0650  0.6434
  107MOL0     C14653   2.802   0.533   2.509 -0.2326  1.1393 -0.6955
  107MOL0     C14654   2.675   0.545   2.470  0.6638  0.3839  0.2353
  107MOL0     C14655   2.585   0.437   2.439 -0.0058 -0.0556  0.4034
  107MOL0     C14656   2.449   0.478   2.389 -0.0323  0.0151  0.3733
  107MOL0     C14657   2.645   0.311   2.434 -0.7650  0.5021 -0.8067
  107MOL0     C14658   2.570   0.185   2.403 -0.3108 -0.6901  0.0943
  107MOL0     O14659   2.435   0.197   2.364 -0.4132 -0.3884  0.7283
  107MOL0     C14660   2.344   0.096   2.357  0.9742  0.8957 -0.1367
  107MOL0     C14661   2.377  -0.036   2.319 -0.8576 -0.1002  0.3628
  107MOL0     C14662   2.273  -0.130   2.305 -0.6929 -0.1243  0.4522
  107MOL0     C14663   2.144  -0.099   2.325  0.2316  0.4248 -0.1497
  107MOL0     O14664   2.040  -0.182   2.295  0.1577 -0.7145  0.7554
  107MOL0     C14665   2.051  -0.318   2.249  0.5926 -0.7539  0.3565
  107MOL0     C14666   1.929  -0.324   2.153 -0.4988 -0.2883 -0.2458
  107MOL0     C14667   1.942  -0.456   2.077 -0.0919  0.6848 -0.6382
  107MOL0     C14668   1.857  -0.563   2.147 -0.5319  0.3830  0.6506
  107MOL0     C14669   1.816  -0.692   2.061  0.1114 -0.9929 -0.2889
  107MOL0     C14670   1.935  -0.789   2.040  0.4864 -0.4255 -0.0989
  107MOL0     C14671   1.913  -0.899   1.939  0.3105  0.7606 -0.2471
  107MOL0     C14672   1.993  -1.032   1.959 -0.4618 -0.2401  0.7579
  107MOL0    Cl14673   1.934  -1.112   2.115  0.5131 -0.3399 -0.2481
  107MOL0     C14674   2.106   0.030   2.366 -0.8040  0.6826  0.9229
  107MOL0     C14675   2.207   0.122   2.382  0.1023 -0.7128 -0.5073
  107MOL0     O14676   2.635   0.080   2.406 -1.3436 -0.2127 -0.0097
  107MOL0     C14677   2.778   0.289   2.479 -0.4075 -0.5923 -0.7809
  107MOL0     C14678   2.850   0.405   2.510  0.3517  0.3243 -0.8112
  107MOL0     N14679   3.275   0.703   2.282 -0.3264  0.4850 -0.1433
  107MOL0     N14680   3.389   0.715   2.224 -0.3013  0.4909  0.0748
  107MOL0     C14681   4.210   0.573   3.037 -0.4863  0.5539 -1.1041
  107MOL0     C14682   4.281   0.494   3.131 -0.0559 -0.1744  0.3772
  107MOL0     C14683   4.688   0.374   3.320  0.6136  0.3514  0.6996
  107MOL0     C14684   4.824   0.332   3.318 -1.0332  0.0125 -0.2368
  107MOL0     C14685   4.894   0.322   3.440 -0.1349  0.4407  1.2312
  107MOL0     C14686   4.834   0.341   3.569 -0.6518 -0.0693  0.5608
  107MOL0     O14687   4.888   0.329   3.690 -0.5160 -0.0584  0.1050
  107MOL0     C14688   5.031   0.317   3.693  0.4022 -0.4360 -0.4631
  107MOL0     C14689   5.095   0.179   3.719 -0.3138 -0.7942 -0.3693
  107MOL0     C14690   5.049   0.075   3.615 -0.4476 -0.5602 -0.2767
  107MOL0     C14691   5.103  -0.063   3.656  0.2478 -0.2188  0.0508
  107MOL0     C14692   5.244  -0.067   3.635 -1.3701 -0.5220  0.1943
  107MOL0     C14693   5.373  -0.064   3.644  0.2305 -0.1150  0.5662
  107MOL0     C14694   4.707   0.385   3.571 -0.2518 -0.0452  0.8093
  107MOL0     C14695   4.631   0.400   3.446 -0.0023 -0.4147 -0.4019
  107MOL0     C14696   4.493   0.461   3.461  0.4135 -0.4943  1.1876
  107MOL0     H14697   4.544   0.405   2.923  0.2248  0.3493  0.7707
  107MOL0     H14698   4.415   0.539   2.766 -1.1462 -0.3800  0.5166
  107MOL0     H14699   4.206   0.533   2.642  2.7952  1.7932  0.8135
  107MOL0     H14700   4.215   0.707   2.635 -1.5594  2.2164  0.9523
  107MOL0     H14701   4.044   0.612   2.506  3.6784  0.3126  0.7096
  107MOL0     H14702   3.940   0.574   2.650  0.7674 -2.4958  1.5158
  107MOL0     H14703   3.955   0.803   2.714 -1.0137  1.9646  0.0422
  107MOL0     H14704   4.041   0.852   2.565 -2.0992  1.9258 -2.1095
  107MOL0     H14705   3.764   0.732   2.600  1.4933  1.5817  2.7174
  107MOL0     H14706   3.809   0.898   2.565 -2.0505 -1.2430  0.6749
  107MOL0     H14707   3.829   0.670   2.348 -1.5893  1.2063 -1.3413
  107MOL0     H14708   3.906   0.825   2.345  1.6928 -3.0003 -2.0427
  107MOL0     H14709   3.602   0.783   2.400  1.7522  1.5239  4.4642
  107MOL0     H14710   3.700   0.930   2.359  4.4451 -0.6447  1.5307
  107MOL0     H14711   3.649   0.709   2.168  0.6852  0.4275 -0.3543
  107MOL0     H14712   3.755   0.856   2.147 -0.6576 -0.6289 -0.2166
  107MOL0     H14713   3.544   0.990   2.138 -0.2129 -0.0200 -2.9120
  107MOL0     H14714   3.531   0.859   2.025 -1.4465  2.2740  0.1346
  107MOL0     H14715   3.321   1.026   2.253 -3.1231 -0.0591  0.0820
  107MOL0     H14716   3.032   0.839   2.304  1.1308 -1.3514 -0.4526
  107MOL0     H14717   3.109   0.996   2.349  0.2252  0.5902 -0.8797
  107MOL0     H14718   3.125   0.736   2.516  1.6164  0.6444 -1.9410
  107MOL0     H14719   3.174   0.889   2.561  3.4124 -0.3363 -3.6242
  107MOL0     H14720   2.953   0.853   2.681 -2.9510  0.4730 -0.1077
  107MOL0     H14721   2.934   0.973   2.563 -0.4184  0.2440 -1.9172
  107MOL0     H14722   2.755   0.778   2.584  1.2526  0.1323  1.7185
  107MOL0     H14723   2.820   0.806   2.421 -0.8904 -1.2912  0.0972
  107MOL0     H14724   2.635   0.645   2.457  0.9341  0.3808 -0.7171
  107MOL0     H14725   2.436   0.451   2.284 -0.0637  0.3699  0.2822
  107MOL0     H14726   2.441   0.587   2.391 -0.9164  0.0272 -1.6071
  107MOL0     H14727   2.376   0.432   2.456  1.1190  1.1935  2.5908
  107MOL0     H14728   2.478  -0.050   2.283 -0.0764  2.5317  1.3174
  107MOL0     H14729   2.287  -0.232   2.272 -3.2507 -0.8232  1.2509
  107MOL0     H14730   2.140  -0.350   2.195 -0.0151 -0.9526 -0.5424
  107MOL0     H14731   2.026  -0.382   2.335  0.2172 -1.8659 -0.5588
  107MOL0     H14732   1.842  -0.299   2.215  0.7178 -2.9322  2.7757
  107MOL0     H14733   1.948  -0.249   2.075  1.4985  0.5101  0.9222
  107MOL0     H14734   2.047  -0.485   2.068 -1.1399 -3.1571 -2.5377
  107MOL0     H14735   1.903  -0.451   1.975 -1.5651 -0.9392 -0.2092
  107MOL0     H14736   1.763  -0.521   2.185  0.8311  1.5222  3.0364
  107MOL0     H14737   1.912  -0.610   2.229  1.5519 -2.0526 -1.9156
  107MOL0     H14738   1.731  -0.748   2.102 -2.2330  2.4607  0.0953
  107MOL0     H14739   1.786  -0.649   1.964  1.1680 -0.7273 -0.5058
  107MOL0     H14740   1.951  -0.843   2.134 -0.6531 -2.9587 -1.2564
  107MOL0     H14741   2.025  -0.728   2.023 -0.3099  1.2018  1.2404
  107MOL0     H14742   1.926  -0.849   1.843 -1.8490  0.7540 -0.6044
  107MOL0     H14743   1.810  -0.936   1.950  1.6067 -2.6613  1.9644
  107MOL0     H14744   2.100  -1.009   1.955 -0.9550  2.2673 -2.6630
  107MOL0     H14745   1.964  -1.091   1.872 -0.2862  2.3809 -1.2257
  107MOL0     H14746   2.002   0.056   2.382 -1.3836 -0.7281 -0.3091
  107MOL0     H14747   2.172   0.221   2.408 -1.3195 -0.9144 -1.5861
  107MOL0     H14748   2.823   0.191   2.475  2.2617  0.4062  1.7048
  107MOL0     H14749   2.947   0.381   2.554  1.1015  0.8364 -2.1258
  107MOL0     H14750   4.130   0.642   3.060 -1.6464 -0.1924 -2.7621
  107MOL0     H14751   4.251   0.496   3.235 -0.9118  1.0068  0.1279
  107MOL0     H14752   4.873   0.315   3.222  0.3472 -0.5381  0.5345
  107MOL0     H14753   4.993   0.283   3.421 -0.5719  1.1327 -3.9743
  107MOL0     H14754   5.085   0.362   3.609  3.8829 -1.2225  1.1435
  107MOL0     H14755   5.056   0.372   3.784  2.2607 -1.4004 -0.3269
  107MOL0     H14756   5.063   0.146   3.818 -3.0203 -0.3227 -1.0242
  107MOL0     H14757   5.204   0.194   3.714 -0.2992 -1.2047 -3.0035
  107MOL0     H14758   4.940   0.072   3.614 -0.5054  0.8272 -0.1013
  107MOL0     H14759   5.072   0.113   3.515  0.0056  1.3294  0.5038
  107MOL0     H14760   5.049  -0.130   3.588  0.2692  1.5068 -1.7909
  107MOL0     H14761   5.070  -0.083   3.758 -1.4686  3.4648  0.3783
  107MOL0     H14762   5.477  -0.080   3.663  0.2329  0.2502  0.8834
  107MOL0     H14763   4.652   0.415   3.659 -1.5862  2.1416 -0.6656
  107MOL0     H14764   4.469   0.523   3.375  1.1352  2.5641  3.0327
  107MOL0     H14765   4.418   0.382   3.472  0.4836 -0.8639 -0.7201
  107MOL0     H14766   4.490   0.528   3.548  0.5838 -0.9597  1.5628
  108MOL0     O14767   5.701   9.978   8.480 -0.3497  0.4907  0.1829
  108MOL0     C14768   5.709  10.036   8.585 -0.0331  0.1087 -0.9707
  108MOL0     O14769   5.796  10.019   8.683 -0.4775  0.2614 -0.0500
  108MOL0     C14770   5.900   9.935   8.648 -0.1013 -0.5460  0.5033
  108MOL0     C14771   6.015   9.989   8.571  0.5394  0.3618 -0.4219
  108MOL0     C14772   6.117   9.902   8.536  0.1469 -0.4890  0.1673
  108MOL0     C14773   6.119   9.771   8.582  0.4462 -0.0309 -0.4412
  108MOL0     O14774   6.228   9.698   8.536  0.1586 -0.2835  0.2630
  108MOL0     C14775   6.241   9.558   8.577  0.2098 -0.1452  0.3267
  108MOL0     C14776   6.379   9.514   8.525  0.2820  1.0426 -0.0480
  108MOL0     C14777   6.413   9.362   8.552  0.0439 -0.5268  0.3576
  108MOL0     C14778   6.548   9.316   8.490  0.4380  0.0838  0.1203
  108MOL0     C14779   6.573   9.170   8.502 -0.0696 -0.1516  0.5652
  108MOL0     C14780   6.631   9.104   8.373 -0.2189 -0.4899 -0.1317
  108MOL0     C14781   6.732   8.990   8.398 -0.2602 -0.2894 -0.6747
  108MOL0     C14782   6.793   8.918   8.276  1.1151  0.2207 -0.1127
  108MOL0     N14783   6.914   8.832   8.310 -0.4260  0.4051  0.1157
  108MOL0     C14784   7.046   8.876   8.302  0.5849  0.3447 -1.0623
  108MOL0     C14785   7.114   8.758   8.311  1.4424  0.8693  0.4265
  108MOL0     C14786   7.253   8.724   8.276  0.0341  0.3950 -1.0237
  108MOL0     C14787   7.346   8.838   8.286 -1.4104 -0.3552  0.3132
  108MOL0     C14788   7.501   8.801   8.269  0.7671  0.7177  0.2775
  108MOL0     C14789   7.601   8.896   8.188 -0.2668 -0.2049 -0.4203
  108MOL0     O14790   7.541   8.926   8.058  0.4922  0.1054  0.7361
  108MOL0     C14791   7.604   8.875   7.946  0.1370 -0.1663 -0.4959
  108MOL0     C14792   7.656   8.738   7.953  0.1652 -1.2642  0.5787
  108MOL0     C14793   7.738   8.682   7.846 -0.4846  0.2505  0.1355
  108MOL0     C14794   7.806   8.545   7.874 -0.4555 -0.2486 -0.0947
  108MOL0     C14795   7.764   8.759   7.732 -0.0029  0.6021  0.0609
  108MOL0     C14796   7.853   8.718   7.622 -0.6918  0.0006  0.4349
  108MOL0     O14797   7.916   8.821   7.552  0.1079  0.1272 -0.5128
  108MOL0     C14798   7.994   8.786   7.446 -0.4749  0.2251  0.3459
  108MOL0     C14799   7.941   8.806   7.319  0.7742  0.3374  0.7185
  108MOL0     C14800   8.000   8.757   7.205  0.3410 -0.6720 -0.3425
  108MOL0     C14801   8.135   8.720   7.208 -0.1143 -0.6706 -0.4295
  108MOL0     O14802   8.218   8.694   7.106 -0.0203 -0.5644  0.0204
  108MOL0     C14803   8.160   8.627   6.988  0.1280 -0.0660 -0.0332
  108MOL0     C14804   8.184   8.471   7.016  0.2332 -0.5905 -0.1624
  108MOL0     C14805   8.330   8.434   7.038  0.4461 -0.3426 -0.5343
  108MOL0     C14806   8.426   8.469   6.925 -0.1238 -0.8862  0.0940
  108MOL0     C14807   8.562   8.500   6.977  0.3653  0.2004 -0.2033
  108MOL0     C14808   8.602   8.393   7.080 -0.7754  0.6881 -0.0899
  108MOL0     C14809   8.741   8.426   7.124  0.3471  0.1225  0.8957
  108MOL0     C14810   8.788   8.317   7.206  0.0029 -0.1296  0.0745
  108MOL0    Cl14811   8.718   8.299   7.367 -0.1577  0.4330 -0.0770
  108MOL0     C14812   8.197   8.725   7.337 -0.2887  0.6989 -0.3244
  108MOL0     C14813   8.132   8.759   7.455  0.2372  0.3852 -0.3392
  108MOL0     O14814   7.870   8.595   7.597 -0.0274  0.0555 -0.3111
  108MOL0     C14815   7.694   8.882   7.719 -0.4126  0.7527  0.5940
  108MOL0     C14816   7.611   8.935   7.821 -0.3300  0.6312  0.4773
  108MOL0     N14817   7.026   8.657   8.356 -0.1640 -0.0855  0.7489
  108MOL0     N14818   6.904   8.703   8.353  0.0236  0.8309  0.1223
  108MOL0     C14819   6.003   9.722   8.643  0.3856  0.2235  0.4320
  108MOL0     C14820   5.890   9.803   8.672 -0.6870 -0.7427 -0.1528
  108MOL0     C14821   5.608  10.139   8.615 -0.6076 -0.6532 -1.0870
  108MOL0     C14822   5.634  10.217   8.735  0.0165  0.6292  0.1312
  108MOL0     C14823   5.551  10.323   8.773  0.1701  0.2187  1.3116
  108MOL0     C14824   5.430  10.339   8.708  0.3644  0.1832 -0.1110
  108MOL0     O14825   5.342  10.445   8.732  0.0151  0.1297 -0.2428
  108MOL0     C14826   5.319  10.492   8.873 -0.3946  0.0955 -0.2207
  108MOL0     C14827   5.222  10.605   8.892  0.7552  0.0992 -0.5699
  108MOL0     C14828   5.172  10.633   9.031 -0.1960 -1.1066  0.1809
  108MOL0     C14829   5.020  10.665   9.028 -0.2173 -0.0385  0.1696
  108MOL0     C14830   4.985  10.723   9.160 -0.4071 -0.0895  0.8531
  108MOL0     C14831   4.942  10.762   9.268  0.2539  0.4536  0.1207
  108MOL0     C14832   5.405  10.267   8.589 -0.8575  0.0399 -0.6309
  108MOL0     C14833   5.486  10.163   8.542 -0.0821  0.7737  0.5362
  108MOL0     C14834   5.441  10.083   8.423 -0.1102 -0.2172 -0.3213
  108MOL0     H14835   6.022  10.094   8.545 -1.7019  1.5780  3.0641
  108MOL0     H14836   6.209   9.943   8.495  1.8921 -1.9548  2.3188
  108MOL0     H14837   6.165   9.493   8.532 -0.8250  2.2179 -1.5846
  108MOL0     H14838   6.254   9.549   8.685  0.4173  0.4727  0.3593
  108MOL0     H14839   6.381   9.543   8.419 -1.1293  1.5852  0.0521
  108MOL0     H14840   6.458   9.571   8.576  2.0605 -2.0266  0.8398
  108MOL0     H14841   6.431   9.363   8.660  0.0158 -1.4206  0.3753
  108MOL0     H14842   6.336   9.294   8.516 -1.8369  1.8146 -0.2595
  108MOL0     H14843   6.540   9.341   8.384  1.7776 -0.4761 -0.1337
  108MOL0     H14844   6.640   9.370   8.516  2.0183 -1.5631 -1.6488
  108MOL0     H14845   6.476   9.124   8.524 -1.5568  2.1455 -0.7780
  108MOL0     H14846   6.632   9.143   8.590  0.6068 -0.2303  0.0970
  108MOL0     H14847   6.549   9.058   8.317 -1.7295 -0.3009  1.8344
  108MOL0     H14848   6.684   9.176   8.310  0.7749  0.7047  1.9776
  108MOL0     H14849   6.678   8.919   8.463 -1.0737  0.3330 -0.6516
  108MOL0     H14850   6.816   9.038   8.449  3.1346 -3.3722 -2.8782
  108MOL0     H14851   6.714   8.855   8.235  1.4305 -1.0291  1.1139
  108MOL0     H14852   6.821   8.988   8.197  0.6029 -0.9974 -1.4187
  108MOL0     H14853   7.074   8.975   8.268  0.0066  0.0446 -2.4711
  108MOL0     H14854   7.253   8.683   8.175  1.9467  0.7559 -1.1947
  108MOL0     H14855   7.291   8.653   8.350  0.8975  1.2399 -0.6321
  108MOL0     H14856   7.319   8.910   8.208  1.1909  2.3158  1.6577
  108MOL0     H14857   7.334   8.890   8.382 -2.2922  1.1213 -0.5568
  108MOL0     H14858   7.535   8.781   8.371 -4.3999  0.6891  2.3010
  108MOL0     H14859   7.503   8.709   8.210  1.0220  1.9009 -1.6609
  108MOL0     H14860   7.617   8.990   8.242 -0.9395 -0.1862 -0.2463
  108MOL0     H14861   7.702   8.854   8.188  1.4979  3.4910 -2.0764
  108MOL0     H14862   7.635   8.690   8.048 -1.2430  1.7542  1.9258
  108MOL0     H14863   7.908   8.536   7.836 -1.5104  0.2598 -3.3152
  108MOL0     H14864   7.747   8.465   7.828 -0.3351 -1.6634  2.0793
  108MOL0     H14865   7.820   8.519   7.979  1.2982  1.2922  0.1048
  108MOL0     H14866   7.834   8.826   7.312  0.7411 -0.3748 -1.5412
  108MOL0     H14867   7.950   8.766   7.109 -0.8245 -0.9431  0.2217
  108MOL0     H14868   8.052   8.646   6.991  0.5026  3.1331  5.0134
  108MOL0     H14869   8.208   8.653   6.893 -1.8976 -1.5207 -1.5475
  108MOL0     H14870   8.131   8.453   7.110  0.1295  2.0230  0.3537
  108MOL0     H14871   8.121   8.411   6.951 -1.4188 -1.8043  2.3759
  108MOL0     H14872   8.335   8.327   7.062 -2.3336 -0.1040  1.4872
  108MOL0     H14873   8.355   8.498   7.123  1.5952  0.5273 -1.4916
  108MOL0     H14874   8.406   8.561   6.870  0.3505 -0.1426  1.1239
  108MOL0     H14875   8.432   8.390   6.850  1.0286 -1.0027  0.2901
  108MOL0     H14876   8.638   8.512   6.900  0.6468  2.2659  0.3316
  108MOL0     H14877   8.557   8.598   7.027  0.6407 -0.6420  1.5637
  108MOL0     H14878   8.598   8.296   7.031  0.2945  0.2985  0.5481
  108MOL0     H14879   8.531   8.385   7.163 -0.0060 -1.3349  0.4407
  108MOL0     H14880   8.745   8.513   7.190 -3.1693  0.8964  0.3278
  108MOL0     H14881   8.804   8.431   7.035  0.4696  1.2387  1.0308
  108MOL0     H14882   8.895   8.321   7.227 -0.2972 -0.5844  1.8714
  108MOL0     H14883   8.774   8.218   7.162 -3.2006 -0.9723  2.5813
  108MOL0     H14884   8.305   8.712   7.332 -0.5132 -0.9224 -2.0637
  108MOL0     H14885   8.186   8.757   7.550  1.3982 -1.0126 -0.9878
  108MOL0     H14886   7.711   8.932   7.625 -0.3499  0.2083  0.3135
  108MOL0     H14887   7.550   9.020   7.793 -0.6803  0.6873  1.3849
  108MOL0     H14888   5.993   9.618   8.673  1.0964 -0.2258 -0.8257
  108MOL0     H14889   5.803   9.760   8.722  1.9896 -1.1712  4.7153
  108MOL0     H14890   5.714  10.195   8.805 -0.3406  1.6083  0.8757
  108MOL0     H14891   5.586  10.391   8.850  1.6626  1.2227 -0.2069
  108MOL0     H14892   5.264  10.417   8.932 -1.8769  0.8149 -0.6515
  108MOL0     H14893   5.410  10.521   8.927 -2.1054  3.3873  1.1700
  108MOL0     H14894   5.128  10.577   8.843 -1.7593  4.0972  1.3241
  108MOL0     H14895   5.268  10.695   8.851  0.0650  1.1987  0.9564
  108MOL0     H14896   5.195  10.553   9.101 -0.8798  1.7645  4.0693
  108MOL0     H14897   5.236  10.719   9.055  0.5316 -1.3392 -0.8390
  108MOL0     H14898   4.975  10.566   9.014  0.0276  0.1670 -2.6479
  108MOL0     H14899   4.996  10.726   8.941  0.5303 -0.4726 -0.3508
  108MOL0     H14900   4.899  10.808   9.355 -1.5492  0.7087 -0.8562
  108MOL0     H14901   5.313  10.291   8.537 -1.5716 -1.5137 -0.1309
  108MOL0     H14902   5.518  10.098   8.346  0.4269  2.9973  0.6838
  108MOL0     H14903   5.438   9.978   8.452  1.2720 -0.4572 -0.9376
  108MOL0     H14904   5.346  10.120   8.383  0.5409  1.5552 -0.3345
  109MOL0     O14905   1.975   1.480   1.140  0.5431 -0.2561  0.7067
  109MOL0     C14906   1.888   1.551   1.195 -0.3919 -0.5199  0.5795
  109MOL0     O14907   1.914   1.664   1.268  0.0782 -0.3538 -0.4709
  109MOL0     C14908   2.035   1.659   1.334 -0.1219  0.7497 -0.3239
  109MOL0     C14909   2.160   1.686   1.272 -0.5054 -0.6952 -0.2346
  109MOL0     C14910   2.282   1.706   1.337  0.1519 -0.3574  0.1043
  109MOL0     C14911   2.273   1.707   1.476 -0.1955 -0.9728  0.3453
  109MOL0     O14912   2.397   1.723   1.542 -0.1527  0.5479 -0.0654
  109MOL0     C14913   2.408   1.698   1.680 -0.1678 -0.3617 -0.3944
  109MOL0     C14914   2.545   1.728   1.734  0.8211  0.0027 -0.4763
  109MOL0     C14915   2.651   1.674   1.639 -0.7081 -0.6881 -1.2257
  109MOL0     C14916   2.785   1.680   1.714 -0.8296 -0.6220  0.4501
  109MOL0     C14917   2.899   1.598   1.645 -0.1278 -0.8440 -0.0195
  109MOL0     C14918   2.889   1.446   1.678  0.2341 -0.3558  0.5506
  109MOL0     C14919   2.962   1.367   1.582 -0.2447  0.8508  0.7093
  109MOL0     C14920   2.886   1.356   1.448 -0.0718  0.3052  0.3306
  109MOL0     N14921   2.957   1.259   1.355  0.4151 -0.5753  0.3163
  109MOL0     C14922   3.058   1.294   1.278 -0.3793  0.1533 -0.0413
  109MOL0     C14923   3.082   1.196   1.189  0.8070 -0.1138 -0.2573
  109MOL0     C14924   3.199   1.185   1.093 -1.1528 -0.8082  0.0033
  109MOL0     C14925   3.291   1.078   1.149 -0.8833 -0.0415  0.1846
  109MOL0     C14926   3.415   1.046   1.060 -0.7920  0.3664  0.6844
  109MOL0     C14927   3.527   0.988   1.151 -0.9706 -0.0941  0.0419
  109MOL0     O14928   3.629   0.933   1.069  0.4471 -0.1514  0.5552
  109MOL0     C14929   3.745   0.891   1.130  0.1433 -0.1279 -0.4744
  109MOL0     C14930   3.780   0.919   1.265  0.0603  0.2418 -0.6615
  109MOL0     C14931   3.896   0.877   1.320 -0.1193  0.4567  0.3644
  109MOL0     C14932   3.913   0.908   1.470 -0.4851  0.2529 -0.2338
  109MOL0     C14933   3.988   0.809   1.238 -0.0183 -0.0727 -1.0091
  109MOL0     C14934   4.124   0.771   1.284 -0.0643 -0.6418  1.3580
  109MOL0     O14935   4.204   0.866   1.335 -0.5462  0.2409  0.4407
  109MOL0     C14936   4.317   0.819   1.398 -0.6607  0.1037  0.1589
  109MOL0     C14937   4.323   0.789   1.537  0.3000  0.7031  0.6113
  109MOL0     C14938   4.443   0.743   1.598  0.7034 -0.3572 -0.1644
  109MOL0     C14939   4.545   0.704   1.508 -0.2088 -0.8136 -0.4529
  109MOL0     O14940   4.664   0.656   1.574  0.2272 -0.5717  0.1852
  109MOL0     C14941   4.707   0.522   1.533  0.3990 -0.7612 -0.1054
  109MOL0     C14942   4.622   0.421   1.600  0.5494 -0.1882  0.0263
  109MOL0     C14943   4.661   0.399   1.745 -1.3391  0.2752  0.3833
  109MOL0     C14944   4.774   0.300   1.754  0.0092  0.3111 -0.2882
  109MOL0     C14945   4.826   0.305   1.899  0.5921  0.0543 -0.8195
  109MOL0     C14946   4.905   0.182   1.952 -0.2323 -0.1468 -0.4541
  109MOL0     C14947   4.929   0.191   2.106  0.2458 -0.1008  0.6591
  109MOL0     C14948   5.021   0.081   2.159 -0.4482  0.1165  0.0800
  109MOL0    Cl14949   5.181   0.085   2.082  0.2772 -0.0486  0.0980
  109MOL0     C14950   4.540   0.730   1.374 -0.9015  0.1066 -0.7504
  109MOL0     C14951   4.432   0.786   1.317  0.1429 -0.3449 -0.3512
  109MOL0     O14952   4.150   0.651   1.286  0.0125 -0.3067  0.0375
  109MOL0     C14953   3.951   0.779   1.108 -0.8407 -0.0295  0.6901
  109MOL0     C14954   3.832   0.819   1.054 -0.3012 -0.2698 -0.3360
  109MOL0     N14955   2.990   1.099   1.216  0.0177 -0.6795 -0.6826
  109MOL0     N14956   2.906   1.144   1.309 -0.1644  0.1695  0.2693
  109MOL0     C14957   2.144   1.700   1.538  0.6250 -0.0357 -0.2794
  109MOL0     C14958   2.026   1.672   1.468 -0.2360  0.8495  1.2534
  109MOL0     C14959   1.748   1.521   1.153 -1.0282  0.6643 -0.1131
  109MOL0     C14960   1.658   1.614   1.201  1.3710 -0.6913  0.4119
  109MOL0     C14961   1.524   1.610   1.163  0.7959  0.3256  0.7940
  109MOL0     C14962   1.473   1.493   1.107  0.6448 -0.1910 -0.3430
  109MOL0     O14963   1.342   1.469   1.077 -0.2683 -0.3076  0.8376
  109MOL0     C14964   1.245   1.572   1.081  0.4360 -0.2967 -0.1844
  109MOL0     C14965   1.129   1.500   1.008 -0.6817  0.3467 -0.5697
  109MOL0     C14966   1.090   1.363   1.080  0.7194  0.1043 -0.3231
  109MOL0     C14967   0.932   1.336   1.063 -0.4768 -0.5905 -0.2745
  109MOL0     C14968   0.885   1.317   0.926 -0.4794 -0.5511  0.9088
  109MOL0     C14969   0.844   1.291   0.809 -0.1359  0.4311  0.0216
  109MOL0     C14970   1.563   1.397   1.061  0.1614  0.3250  0.4458
  109MOL0     C14971   1.698   1.407   1.080  0.3396  0.3911  0.6877
  109MOL0     C14972   1.773   1.289   1.041  0.2615 -1.2444  0.9048
  109MOL0     H14973   2.161   1.706   1.165  0.0981  4.6141  0.5008
  109MOL0     H14974   2.381   1.709   1.293 -0.2650 -0.4976 -0.8815
  109MOL0     H14975   2.379   1.594   1.697  3.7284 -1.5489 -0.2003
  109MOL0     H14976   2.335   1.754   1.740  0.3741 -0.2523  0.1800
  109MOL0     H14977   2.562   1.835   1.748 -4.0154  0.6424  3.1772
  109MOL0     H14978   2.554   1.680   1.832  1.3547  1.3518  0.1529
  109MOL0     H14979   2.623   1.570   1.623 -0.9890 -0.5809 -1.4491
  109MOL0     H14980   2.652   1.738   1.550 -1.6439 -0.6651 -1.2244
  109MOL0     H14981   2.823   1.781   1.732 -0.9102 -0.9666  2.8936
  109MOL0     H14982   2.775   1.629   1.810  1.9435  0.5985  1.5005
  109MOL0     H14983   3.001   1.623   1.676 -0.0119  1.1215 -1.8114
  109MOL0     H14984   2.888   1.617   1.538 -0.4082 -1.9759 -0.2039
  109MOL0     H14985   2.935   1.425   1.775  2.7466  2.4380  0.1055
  109MOL0     H14986   2.783   1.421   1.672  0.7272 -2.3041 -2.1454
  109MOL0     H14987   2.970   1.271   1.633 -0.3797  1.2015  1.3998
  109MOL0     H14988   3.059   1.415   1.566 -1.4145  2.9516 -0.5395
  109MOL0     H14989   2.781   1.331   1.469  0.3507  0.4752  2.9900
  109MOL0     H14990   2.879   1.453   1.398  0.2116 -0.5992 -1.5405
  109MOL0     H14991   3.117   1.384   1.291  0.4453 -0.4812  0.7567
  109MOL0     H14992   3.258   1.278   1.092 -1.4751 -0.5255  2.0396
  109MOL0     H14993   3.159   1.152   0.997 -0.4146  0.6716 -0.8514
  109MOL0     H14994   3.326   1.119   1.244  0.1174 -0.3556 -0.0378
  109MOL0     H14995   3.232   0.988   1.167 -1.6618  0.3458 -0.3944
  109MOL0     H14996   3.390   0.975   0.980 -0.4622  1.3211 -0.2751
  109MOL0     H14997   3.452   1.131   1.002  2.9089 -1.0716  0.7161
  109MOL0     H14998   3.567   1.068   1.214  0.5327 -1.3019  0.6954
  109MOL0     H14999   3.490   0.901   1.206  0.5591 -0.6044  0.3197
  109MOL0     H15000   3.706   0.963   1.332  0.7402 -2.2495  1.9257
  109MOL0     H15001   3.812   0.908   1.514  0.0355 -1.8588  1.1236
  109MOL0     H15002   3.957   1.007   1.482 -0.3726  0.2739 -0.8230
  109MOL0     H15003   3.965   0.828   1.523 -0.7755 -1.1832 -2.0370
  109MOL0     H15004   4.237   0.816   1.598 -0.7264 -0.2348 -0.3967
  109MOL0     H15005   4.446   0.717   1.704  0.5872  2.3282  0.5654
  109MOL0     H15006   4.696   0.524   1.424 -2.6332  2.4162  0.0662
  109MOL0     H15007   4.812   0.504   1.555  1.3300 -0.5572 -3.7672
  109MOL0     H15008   4.518   0.443   1.576  0.5817 -1.6084 -1.6825
  109MOL0     H15009   4.642   0.333   1.537 -0.0182  1.6748 -2.9929
  109MOL0     H15010   4.573   0.358   1.795 -2.6069  2.6954  0.2808
  109MOL0     H15011   4.679   0.493   1.798  0.7567  0.0589  0.1258
  109MOL0     H15012   4.848   0.324   1.677  0.6259 -0.3254  0.0960
  109MOL0     H15013   4.729   0.201   1.738  0.4801 -0.6889  3.5423
  109MOL0     H15014   4.895   0.384   1.929  1.2842 -0.8977  0.1327
  109MOL0     H15015   4.739   0.313   1.965  1.0988  1.7698 -0.3070
  109MOL0     H15016   5.001   0.180   1.901  0.5799 -3.1738  0.9251
  109MOL0     H15017   4.850   0.095   1.914 -0.0884  0.6847 -2.7144
  109MOL0     H15018   4.828   0.178   2.146 -0.0688  0.5727  0.1039
  109MOL0     H15019   4.963   0.288   2.142 -0.6134  0.5701 -0.3073
  109MOL0     H15020   4.981  -0.016   2.130  0.0060  0.3324 -1.3801
  109MOL0     H15021   5.037   0.091   2.267 -2.2752  1.3615  0.2814
  109MOL0     H15022   4.633   0.707   1.323 -0.0855  1.9675 -0.2116
  109MOL0     H15023   4.427   0.802   1.209  0.1455 -1.9368 -0.6079
  109MOL0     H15024   4.012   0.711   1.049 -2.5325 -3.2613  2.3794
  109MOL0     H15025   3.801   0.784   0.956 -5.6079 -1.0831  1.2787
  109MOL0     H15026   2.144   1.716   1.645  2.6981 -3.1116  0.2832
  109MOL0     H15027   1.929   1.675   1.517 -0.5313 -0.9189  0.8204
  109MOL0     H15028   1.677   1.704   1.259  2.0408  0.2092 -1.1547
  109MOL0     H15029   1.465   1.694   1.199  1.4601  0.3482  1.8883
  109MOL0     H15030   1.219   1.592   1.186  2.3743  0.0536  0.2700
  109MOL0     H15031   1.282   1.661   1.029  4.3663 -1.0369  0.9666
  109MOL0     H15032   1.158   1.472   0.906  0.8119 -1.5797  0.3271
  109MOL0     H15033   1.043   1.568   1.009 -1.1668 -0.2580  0.4505
  109MOL0     H15034   1.134   1.270   1.040  0.3666 -0.0933 -0.2573
  109MOL0     H15035   1.110   1.377   1.187  0.2714  0.6418 -0.3088
  109MOL0     H15036   0.870   1.408   1.118 -2.5932 -1.7440 -1.0215
  109MOL0     H15037   0.914   1.239   1.110  0.7117 -0.5124  0.3618
  109MOL0     H15038   0.814   1.263   0.710 -0.8871  0.0556  0.3426
  109MOL0     H15039   1.523   1.316   1.003 -2.1709 -0.6112  3.1258
  109MOL0     H15040   1.728   1.234   0.958 -0.0225  1.3105 -0.7449
  109MOL0     H15041   1.874   1.318   1.011 -1.2089  1.5528 -1.9009
  109MOL0     H15042   1.781   1.216   1.122  3.5850 -1.3068  0.6451
  110MOL0     O15043   3.973   5.397   0.094  0.2957  0.7334  0.3494
  110MOL0     C15044   3.882   5.352   0.165  0.5713 -0.7472  0.2982
  110MOL0     O15045   3.908   5.286   0.278  0.1360  0.1303 -0.2656
  110MOL0     C15046   4.027   5.303   0.352  0.0875  0.1453  0.6238
  110MOL0     C15047   4.129   5.399   0.328  0.5906  0.6489  0.6596
  110MOL0     C15048   4.234   5.424   0.417 -0.0690  0.6009 -0.4088
  110MOL0     C15049   4.259   5.335   0.524  0.5926  0.2898 -0.2310
  110MOL0     O15050   4.365   5.339   0.611 -0.6358 -0.0446 -0.2206
  110MOL0     C15051   4.415   5.459   0.659 -0.3247  0.0124  0.5011
  110MOL0     C15052   4.501   5.419   0.779 -0.0220  0.0427  0.2796
  110MOL0     C15053   4.587   5.542   0.825 -0.7010 -0.1610 -0.7407
  110MOL0     C15054   4.631   5.527   0.970  0.0717 -0.6002  0.5623
  110MOL0     C15055   4.727   5.637   1.019  0.8620 -0.1579  0.2848
  110MOL0     C15056   4.752   5.637   1.167  0.0327  0.0112 -0.2679
  110MOL0     C15057   4.825   5.510   1.225 -0.2451  1.4010  0.5757
  110MOL0     C15058   4.880   5.521   1.364 -0.2573  0.3760 -0.6335
  110MOL0     N15059   5.015   5.576   1.366 -0.1055  0.4055  0.7003
  110MOL0     C15060   5.133   5.510   1.352  0.4051  0.1645  0.4500
  110MOL0     C15061   5.235   5.605   1.353 -0.1530  0.5359 -0.4282
  110MOL0     C15062   5.376   5.569   1.303 -0.0058 -0.1611 -0.0376
  110MOL0     C15063   5.482   5.595   1.417 -0.5593  1.0404  0.3608
  110MOL0     C15064   5.629   5.574   1.378 -0.3706 -0.1672  0.8763
  110MOL0     C15065   5.734   5.585   1.493  0.1204  0.2221  0.6117
  110MOL0     O15066   5.866   5.566   1.438 -0.0456 -0.0450 -0.4045
  110MOL0     C15067   5.967   5.596   1.522 -0.4295  0.1656 -0.7562
  110MOL0     C15068   6.087   5.638   1.459 -0.0325 -0.0047  0.2490
  110MOL0     C15069   6.195   5.683   1.533  0.0739 -0.8938 -0.7396
  110MOL0     C15070   6.302   5.732   1.448  0.0515  0.6705 -0.1907
  110MOL0     C15071   6.187   5.677   1.674  0.0095  0.6871 -1.0244
  110MOL0     C15072   6.308   5.714   1.760 -0.4776  1.7414 -0.6937
  110MOL0     O15073   6.298   5.704   1.896  0.4671 -0.0477  0.5030
  110MOL0     C15074   6.406   5.749   1.971  0.5524  0.0757  0.4176
  110MOL0     C15075   6.527   5.690   1.982  0.5045  0.6236  0.8043
  110MOL0     C15076   6.635   5.753   2.050 -0.1992 -0.2290 -0.2331
  110MOL0     C15077   6.618   5.877   2.115  0.4543 -0.7265  0.4755
  110MOL0     O15078   6.722   5.949   2.175  0.3801  0.7904  0.0622
  110MOL0     C15079   6.853   5.940   2.121  0.2871  0.4828  0.0313
  110MOL0     C15080   6.956   6.021   2.203  0.2652  0.1747 -0.4354
  110MOL0     C15081   6.899   6.159   2.244  0.1198  0.0850  0.4246
  110MOL0     C15082   7.021   6.252   2.281 -0.1532 -0.3867 -0.7796
  110MOL0     C15083   7.107   6.195   2.391  0.7158  0.3308 -0.2315
  110MOL0     C15084   7.221   6.291   2.436 -0.3583  0.5247 -0.3173
  110MOL0     C15085   7.319   6.323   2.330 -0.2236  0.7130  0.0991
  110MOL0     C15086   7.443   6.355   2.407  0.1193  0.2197  0.6722
  110MOL0    Cl15087   7.561   6.445   2.299  0.1461 -0.2997  0.0184
  110MOL0     C15088   6.491   5.936   2.112  0.4176  0.2720  0.0157
  110MOL0     C15089   6.383   5.875   2.043 -0.2199  0.9555  0.3583
  110MOL0     O15090   6.403   5.763   1.701  0.9935 -0.0303 -0.4725
  110MOL0     C15091   6.064   5.645   1.740 -0.1360 -0.3598  0.7687
  110MOL0     C15092   5.959   5.610   1.655 -0.3437  0.5651 -0.2445
  110MOL0     N15093   5.175   5.733   1.371 -0.2067  0.0225  0.0229
  110MOL0     N15094   5.048   5.704   1.378 -0.1846 -0.6935  0.2227
  110MOL0     C15095   4.158   5.236   0.552  0.1668 -0.0029 -0.1403
  110MOL0     C15096   4.044   5.222   0.466 -0.3791 -0.0735  1.0666
  110MOL0     C15097   3.737   5.392   0.158 -0.7087  0.0298  0.3713
  110MOL0     C15098   3.659   5.364   0.270  0.6009 -0.2347  0.1510
  110MOL0     C15099   3.517   5.372   0.255 -0.5763  0.7021 -0.3420
  110MOL0     C15100   3.456   5.405   0.136 -0.6561  0.0248 -0.9017
  110MOL0     O15101   3.324   5.436   0.125  0.1355 -0.1411 -0.9733
  110MOL0     C15102   3.240   5.474   0.241 -0.1283  0.2540  0.0681
  110MOL0     C15103   3.139   5.367   0.263  0.4884 -0.5390 -0.1323
  110MOL0     C15104   3.056   5.394   0.400 -0.0214  0.8450  0.9478
  110MOL0     C15105   2.954   5.282   0.408  0.7841 -0.4447  0.3346
  110MOL0     C15106   2.853   5.314   0.512  1.1289  0.8207  0.4993
  110MOL0     C15107   2.770   5.360   0.586 -0.4324  0.4636  0.5488
  110MOL0     C15108   3.536   5.427   0.026  0.3552 -1.0840  0.5317
  110MOL0     C15109   3.679   5.428   0.040  1.3073 -0.0406 -1.1431
  110MOL0     C15110   3.760   5.494  -0.072  0.2653 -0.5303 -0.2634
  110MOL0     H15111   4.124   5.474   0.250 -1.0183  0.1195  0.2050
  110MOL0     H15112   4.294   5.514   0.405  0.3523  0.5906  1.3622
  110MOL0     H15113   4.346   5.542   0.680 -2.5542 -1.1484 -1.6696
  110MOL0     H15114   4.487   5.497   0.587 -1.7300  2.1750  0.1470
  110MOL0     H15115   4.429   5.386   0.854  0.8333 -1.5644  0.4417
  110MOL0     H15116   4.574   5.339   0.763  1.9970  2.1314 -1.6732
  110MOL0     H15117   4.673   5.552   0.759  1.5870  0.7523  2.1831
  110MOL0     H15118   4.530   5.636   0.820  0.7859  0.7066 -2.7834
  110MOL0     H15119   4.543   5.517   1.035 -1.9827 -2.8217 -2.2963
  110MOL0     H15120   4.668   5.425   0.982 -2.4002 -1.3374  3.1846
  110MOL0     H15121   4.677   5.733   0.998 -0.4471 -1.0330 -0.7879
  110MOL0     H15122   4.821   5.628   0.964 -1.1785 -1.9116 -3.2824
  110MOL0     H15123   4.812   5.722   1.201 -0.4204 -0.2908  1.3612
  110MOL0     H15124   4.659   5.654   1.222  1.2256  1.7034  1.3346
  110MOL0     H15125   4.904   5.493   1.152 -0.4558  1.4317  0.3360
  110MOL0     H15126   4.755   5.426   1.212  0.8083  0.4623  0.8694
  110MOL0     H15127   4.799   5.580   1.409 -1.3950  1.1432 -3.4780
  110MOL0     H15128   4.899   5.423   1.409  0.5141  0.1939 -1.3411
  110MOL0     H15129   5.148   5.404   1.333 -0.3026  0.2838 -0.8770
  110MOL0     H15130   5.391   5.629   1.213 -1.2382  3.8890  2.1946
  110MOL0     H15131   5.374   5.461   1.284 -5.3640 -0.0572 -1.6736
  110MOL0     H15132   5.468   5.698   1.451 -1.7520  1.3242 -0.8756
  110MOL0     H15133   5.453   5.534   1.503  1.6718 -1.0237 -0.2492
  110MOL0     H15134   5.640   5.475   1.333 -0.0361 -0.7210  2.1322
  110MOL0     H15135   5.652   5.647   1.301 -0.7228 -1.2090 -0.2506
  110MOL0     H15136   5.731   5.687   1.532  0.6678 -0.7005  3.2916
  110MOL0     H15137   5.714   5.517   1.576 -2.3578 -1.0349 -0.9166
  110MOL0     H15138   6.095   5.637   1.350  3.1342 -0.0274  0.3923
  110MOL0     H15139   6.387   5.664   1.444  0.8736  1.6058  0.5878
  110MOL0     H15140   6.343   5.827   1.485  1.5609 -0.9190  2.5324
  110MOL0     H15141   6.282   5.738   1.341 -1.2264 -1.7234 -0.1667
  110MOL0     H15142   6.542   5.593   1.937 -1.9787  0.0237  1.1556
  110MOL0     H15143   6.737   5.718   2.040 -0.0914  0.4040 -1.4822
  110MOL0     H15144   6.893   5.839   2.123  1.1574  0.8256  1.5235
  110MOL0     H15145   6.867   5.989   2.024  0.3901 -1.2402 -0.8440
  110MOL0     H15146   6.982   5.969   2.296  1.2693  1.5264  0.0601
  110MOL0     H15147   7.042   6.044   2.139 -0.9207 -0.0257 -2.1784
  110MOL0     H15148   6.830   6.158   2.329 -2.2612 -1.6611 -1.3803
  110MOL0     H15149   6.855   6.200   2.153  1.5223  2.1774  0.6258
  110MOL0     H15150   6.989   6.352   2.313  4.3432  1.1555 -0.4145
  110MOL0     H15151   7.081   6.267   2.191  0.6029 -1.6030 -0.5126
  110MOL0     H15152   7.043   6.167   2.475 -0.8470  1.4792 -0.9940
  110MOL0     H15153   7.149   6.097   2.366  2.6594  0.5436  1.8452
  110MOL0     H15154   7.274   6.246   2.521  0.0703  1.8195  0.1256
  110MOL0     H15155   7.185   6.389   2.469 -0.2075  1.8687 -3.7513
  110MOL0     H15156   7.281   6.409   2.274  1.4709  1.1699 -0.4018
  110MOL0     H15157   7.331   6.232   2.270 -2.5699  0.4855 -0.1004
  110MOL0     H15158   7.491   6.263   2.439  3.0299  0.6346 -1.9683
  110MOL0     H15159   7.424   6.416   2.496  1.4528  2.0088 -0.1934
  110MOL0     H15160   6.490   6.035   2.157 -1.2658 -0.5453  1.9624
  110MOL0     H15161   6.282   5.914   2.041 -0.3750  0.5288 -0.8128
  110MOL0     H15162   6.045   5.640   1.846 -0.9068  4.2616  1.0936
  110MOL0     H15163   5.869   5.576   1.705  0.6083 -2.1735 -0.2265
  110MOL0     H15164   4.158   5.182   0.646 -1.5662  1.5997  0.8585
  110MOL0     H15165   3.965   5.152   0.492  0.0272 -0.8684  0.2245
  110MOL0     H15166   3.702   5.331   0.365  2.0970 -0.1865 -0.4848
  110MOL0     H15167   3.462   5.366   0.348  2.4446  2.2683  1.7121
  110MOL0     H15168   3.309   5.487   0.324 -1.5885 -0.0417  1.3667
  110MOL0     H15169   3.189   5.570   0.227 -1.8005 -0.7484 -1.0826
  110MOL0     H15170   3.185   5.268   0.258  1.5927 -0.0096 -0.8558
  110MOL0     H15171   3.071   5.366   0.177 -2.1702  1.0524  1.8001
  110MOL0     H15172   3.124   5.411   0.484 -2.0389  4.1070  2.1119
  110MOL0     H15173   3.002   5.490   0.392 -2.5763 -0.6324 -3.2093
  110MOL0     H15174   3.008   5.192   0.437  0.4930 -0.6521  0.2446
  110MOL0     H15175   2.895   5.270   0.317 -1.5023 -2.4828  1.9344
  110MOL0     H15176   2.681   5.376   0.644 -1.0146  0.3877 -0.2972
  110MOL0     H15177   3.486   5.456  -0.066 -0.1093  0.3826  1.2240
  110MOL0     H15178   3.812   5.423  -0.137  1.6532  2.0045 -2.1224
  110MOL0     H15179   3.703   5.556  -0.142 -0.3478 -1.6182 -0.7573
  110MOL0     H15180   3.843   5.553  -0.033 -0.5027  0.2199  0.2575
  111MOL0     O15181   5.194   7.789   7.845  0.3962  0.2758  0.1357
  111MOL0     C15182   5.159   7.667   7.836 -0.3361 -0.9686 -0.0676
  111MOL0     O15183   5.247   7.566   7.839  0.3472  0.5952  0.4114
  111MOL0     C15184   5.310   7.559   7.963 -0.4497  0.8498 -0.0930
  111MOL0     C15185   5.417   7.643   8.002 -0.4694  0.0203  0.1857
  111MOL0     C15186   5.499   7.615   8.104  0.2775 -0.5715 -0.8535
  111MOL0     C15187   5.474   7.497   8.178 -0.1346 -0.4018  0.4058
  111MOL0     O15188   5.555   7.465   8.287 -0.0463  0.2068  0.3188
  111MOL0     C15189   5.696   7.445   8.262  0.1860  0.5953  0.7303
  111MOL0     C15190   5.775   7.494   8.381  0.6687 -0.5416  0.0296
  111MOL0     C15191   5.736   7.642   8.414 -0.1967 -0.7531 -0.1400
  111MOL0     C15192   5.857   7.709   8.491 -0.1369 -0.1559  0.0329
  111MOL0     C15193   5.832   7.860   8.515 -0.1375 -0.8575 -0.1857
  111MOL0     C15194   5.951   7.911   8.605  0.3734 -0.8554  0.3776
  111MOL0     C15195   6.087   7.906   8.541 -0.0189 -0.7517 -0.4567
  111MOL0     C15196   6.197   7.964   8.625 -0.2855 -0.4454 -0.2343
  111MOL0     N15197   6.335   7.947   8.581 -0.1793 -0.0239 -0.1847
  111MOL0     C15198   6.394   7.828   8.528 -0.6632  0.0798 -0.8018
  111MOL0     C15199   6.530   7.858   8.526  0.4865  0.0552  0.3498
  111MOL0     C15200   6.640   7.772   8.470  0.0427 -0.1783 -0.4104
  111MOL0     C15201   6.771   7.785   8.545 -0.8244 -0.4507 -0.5421
  111MOL0     C15202   6.863   7.899   8.499 -0.7103  0.7817 -0.6467
  111MOL0     C15203   7.010   7.899   8.561 -0.0726  0.5893 -0.3126
  111MOL0     O15204   7.088   7.789   8.521 -0.5951  0.4895  0.8996
  111MOL0     C15205   7.214   7.788   8.584 -0.3359  0.0271  0.0727
  111MOL0     C15206   7.273   7.893   8.656 -0.2998 -0.6795 -0.4225
  111MOL0     C15207   7.398   7.883   8.719  0.0987  0.0633 -0.1153
  111MOL0     C15208   7.453   8.007   8.779 -0.0776 -0.7382  0.0029
  111MOL0     C15209   7.470   7.763   8.716  0.4147 -0.0848  0.5176
  111MOL0     C15210   7.595   7.728   8.795 -0.0980  0.4038 -0.3522
  111MOL0     O15211   7.684   7.626   8.745  0.2541  0.0421  0.0484
  111MOL0     C15212   7.812   7.607   8.802  0.0745  0.1206 -0.0055
  111MOL0     C15213   7.846   7.598   8.939 -0.3980 -0.6531  0.2115
  111MOL0     C15214   7.978   7.568   8.974  0.5548 -0.0889  0.1232
  111MOL0     C15215   8.080   7.561   8.870  0.6799 -0.1913 -0.2100
  111MOL0     O15216   8.214   7.551   8.888  0.0764  0.1194 -0.1525
  111MOL0     C15217   8.260   7.529   9.025 -0.1518  0.3649 -0.8001
  111MOL0     C15218   8.414   7.563   9.026  0.1395 -0.5351 -0.4843
  111MOL0     C15219   8.469   7.561   9.175  0.3675 -0.1145 -1.1879
  111MOL0     C15220   8.621   7.570   9.167 -0.4819  0.2290 -0.4508
  111MOL0     C15221   8.707   7.545   9.303 -0.0749  0.0384 -0.4562
  111MOL0     C15222   8.725   7.674   9.380  0.3396  0.3926  0.6886
  111MOL0     C15223   8.807   7.642   9.503  0.0465 -0.5181 -0.1574
  111MOL0     C15224   8.851   7.762   9.574  0.7003  0.2819  0.2409
  111MOL0    Cl15225   8.722   7.852   9.658  0.0939  0.1417  0.0674
  111MOL0     C15226   8.045   7.576   8.735 -0.4722 -0.8608  0.2398
  111MOL0     C15227   7.912   7.596   8.702  0.3047  0.2648  0.2425
  111MOL0     O15228   7.601   7.786   8.905 -0.3264  0.2530 -0.1711
  111MOL0     C15229   7.417   7.654   8.645  0.1684  0.3394  0.1612
  111MOL0     C15230   7.294   7.667   8.585  0.7833 -1.0696  0.0405
  111MOL0     N15231   6.548   7.994   8.560  0.0806  0.2244  0.6218
  111MOL0     N15232   6.432   8.040   8.588  0.6245  0.0921  0.1556
  111MOL0     C15233   5.378   7.406   8.134 -0.6731 -0.2539 -0.1802
  111MOL0     C15234   5.296   7.437   8.026 -0.1628  0.5708  0.9948
  111MOL0     C15235   5.025   7.623   7.789 -0.0441 -0.2361  0.9855
  111MOL0     C15236   5.000   7.484   7.782  0.7424 -0.1621  0.0982
  111MOL0     C15237   4.872   7.429   7.772  0.6876  0.0858 -0.5845
  111MOL0     C15238   4.767   7.522   7.755  0.3752 -0.9314  0.6005
  111MOL0     O15239   4.630   7.504   7.745  0.2139 -0.1002  0.0051
  111MOL0     C15240   4.581   7.379   7.791  0.7800 -0.6311  0.0926
  111MOL0     C15241   4.437   7.370   7.749  0.8750  1.0081 -0.2494
  111MOL0     C15242   4.347   7.386   7.871  0.3337  0.2184 -0.1493
  111MOL0     C15243   4.366   7.513   7.959  0.2625 -0.5929  0.6936
  111MOL0     C15244   4.326   7.629   7.884  0.8370  0.0995 -0.1150
  111MOL0     C15245   4.291   7.715   7.802  0.1335 -0.4039  0.5688
  111MOL0     C15246   4.785   7.659   7.753 -0.2960  0.3948 -0.6214
  111MOL0     C15247   4.913   7.710   7.771  0.3324  0.1182 -0.5065
  111MOL0     C15248   4.927   7.864   7.765  0.2880  0.4219  0.4012
  111MOL0     H15249   5.434   7.734   7.945 -2.6115  0.8070  0.7312
  111MOL0     H15250   5.583   7.674   8.141 -0.5147  0.0967 -0.0535
  111MOL0     H15251   5.721   7.500   8.172 -2.1049  0.5594 -0.0087
  111MOL0     H15252   5.717   7.340   8.239 -0.9731  0.0791  1.9022
  111MOL0     H15253   5.753   7.445   8.476  2.6141  1.2287  1.4939
  111MOL0     H15254   5.883   7.489   8.363  0.9117  2.3865  0.1638
  111MOL0     H15255   5.722   7.695   8.320  0.6558 -3.6518 -2.0459
  111MOL0     H15256   5.642   7.637   8.470  1.2419 -2.3945  2.3219
  111MOL0     H15257   5.864   7.667   8.592  0.1339 -1.4401 -0.5001
  111MOL0     H15258   5.954   7.694   8.444 -0.4167 -0.9108 -0.3221
  111MOL0     H15259   5.734   7.878   8.560 -0.5570 -3.0316 -0.1364
  111MOL0     H15260   5.832   7.909   8.418 -0.7908 -2.4123 -0.9951
  111MOL0     H15261   5.932   8.017   8.622  2.7682 -0.5771  1.7975
  111MOL0     H15262   5.956   7.872   8.707 -0.8294  1.5820  1.4487
  111MOL0     H15263   6.077   7.957   8.445 -0.8091 -3.8001 -2.1448
  111MOL0     H15264   6.126   7.805   8.524 -0.3217 -1.0753  0.6642
  111MOL0     H15265   6.189   8.072   8.643  1.7500 -0.3555  0.4154
  111MOL0     H15266   6.180   7.927   8.727 -0.4437  2.2586  0.8168
  111MOL0     H15267   6.341   7.735   8.509  1.3693 -2.1501  3.0803
  111MOL0     H15268   6.665   7.811   8.371  3.5520  2.8322  1.4131
  111MOL0     H15269   6.605   7.669   8.465  0.8962 -0.5014  0.1008
  111MOL0     H15270   6.748   7.807   8.650 -1.8104  2.8923 -1.3384
  111MOL0     H15271   6.821   7.688   8.541  0.7050  0.2130  0.9122
  111MOL0     H15272   6.860   7.907   8.390 -0.4409  0.2553 -0.6971
  111MOL0     H15273   6.821   7.998   8.519 -1.1880  0.2600  1.1313
  111MOL0     H15274   7.071   7.987   8.538  2.4835 -0.2195  2.7430
  111MOL0     H15275   7.003   7.907   8.670  1.6562  5.1847 -0.3244
  111MOL0     H15276   7.225   7.990   8.664  0.7366 -0.0656 -1.3290
  111MOL0     H15277   7.426   8.018   8.885 -0.5173 -0.4593 -0.1319
  111MOL0     H15278   7.424   8.100   8.729  0.0953 -0.8127 -0.2371
  111MOL0     H15279   7.561   8.012   8.769 -0.2576  2.5291 -1.7475
  111MOL0     H15280   7.765   7.606   9.011 -1.5181  4.6409 -1.2039
  111MOL0     H15281   7.993   7.544   9.079 -2.2076  0.5307  0.7422
  111MOL0     H15282   8.205   7.589   9.097 -1.9878 -1.0981 -0.9220
  111MOL0     H15283   8.250   7.427   9.064  2.0497 -0.7434 -2.8390
  111MOL0     H15284   8.469   7.495   8.960  0.8003  1.7591 -2.4627
  111MOL0     H15285   8.428   7.666   8.990 -1.6521  0.1539  0.7065
  111MOL0     H15286   8.431   7.480   9.238 -1.5670  1.9720  0.4663
  111MOL0     H15287   8.437   7.658   9.213  0.0066  1.0525 -4.2560
  111MOL0     H15288   8.647   7.669   9.129  0.8578  0.7018  1.5753
  111MOL0     H15289   8.651   7.485   9.104 -1.1280 -1.2874  1.2167
  111MOL0     H15290   8.661   7.467   9.365 -0.0573  1.1864  1.0651
  111MOL0     H15291   8.802   7.507   9.265  0.3396  0.0333  0.5463
  111MOL0     H15292   8.628   7.713   9.412 -0.0343 -1.0025  1.3466
  111MOL0     H15293   8.779   7.743   9.315  3.6126 -1.7932  0.8741
  111MOL0     H15294   8.896   7.583   9.480  0.4697 -0.7374  1.8571
  111MOL0     H15295   8.747   7.579   9.569  3.1577 -1.1062  2.3437
  111MOL0     H15296   8.904   7.828   9.503 -1.3344  0.4677 -1.1831
  111MOL0     H15297   8.925   7.728   9.646  3.0577 -0.2301 -2.2452
  111MOL0     H15298   8.110   7.582   8.648  0.0918  0.6647  0.7392
  111MOL0     H15299   7.883   7.608   8.598  0.8803  4.7061  0.4358
  111MOL0     H15300   7.461   7.555   8.633  0.2950  0.3985  0.1349
  111MOL0     H15301   7.258   7.575   8.540  2.2082 -0.7267 -1.9348
  111MOL0     H15302   5.373   7.306   8.175 -0.7139  0.2605  1.1018
  111MOL0     H15303   5.237   7.357   7.983  1.7526  1.0115 -2.8246
  111MOL0     H15304   5.086   7.417   7.780 -0.3473 -1.6093  0.1474
  111MOL0     H15305   4.841   7.325   7.773 -0.5107  0.4389  0.3778
  111MOL0     H15306   4.641   7.300   7.745  2.6012 -0.1812  1.5722
  111MOL0     H15307   4.597   7.375   7.899 -0.5310  4.3805  0.7437
  111MOL0     H15308   4.417   7.270   7.709  1.3397 -0.6565  3.2943
  111MOL0     H15309   4.398   7.446   7.681 -3.6720 -0.6912  0.1101
  111MOL0     H15310   4.243   7.388   7.837  0.1299 -2.2883  0.1450
  111MOL0     H15311   4.359   7.297   7.934 -0.7969 -1.7937 -2.6053
  111MOL0     H15312   4.471   7.520   7.989  0.4277 -0.1189  0.0095
  111MOL0     H15313   4.303   7.512   8.049  0.0529 -1.2800  0.5443
  111MOL0     H15314   4.267   7.795   7.735 -0.6154  0.1299  1.4479
  111MOL0     H15315   4.694   7.719   7.754 -1.7589 -1.5880  3.1333
  111MOL0     H15316   5.023   7.884   7.715  1.1466 -2.2726  0.8050
  111MOL0     H15317   4.839   7.897   7.710  0.5083 -2.3400 -1.8358
  111MOL0     H15318   4.922   7.902   7.867 -0.3504 -1.6028  1.1756
  112MOL0     O15319   2.875   8.080  10.166 -0.4348  0.0961  0.4749
  112MOL0     C15320   2.866   7.964  10.212  1.1584 -0.3536  0.1163
  112MOL0     O15321   2.931   7.856  10.178 -0.0538 -0.1284 -0.5066
  112MOL0     C15322   3.044   7.856  10.106 -0.2692  0.2228  0.1271
  112MOL0     C15323   3.119   7.968  10.077 -0.1108  0.2173 -0.4680
  112MOL0     C15324   3.229   7.967   9.982 -0.2428 -0.7597 -0.6085
  112MOL0     C15325   3.244   7.851   9.899  0.8363  0.7437  0.1673
  112MOL0     O15326   3.345   7.856   9.803 -0.7152 -1.0098  0.9875
  112MOL0     C15327   3.391   7.741   9.734  0.0340  0.3429 -0.0223
  112MOL0     C15328   3.498   7.785   9.636 -0.6581 -1.0649  0.0100
  112MOL0     C15329   3.559   7.658   9.565  1.4482  0.0165 -0.7926
  112MOL0     C15330   3.663   7.582   9.653  0.5496 -0.2999 -0.2636
  112MOL0     C15331   3.706   7.442   9.603 -0.1801 -0.8181  0.2973
  112MOL0     C15332   3.836   7.388   9.670  0.1820 -0.2750 -0.1234
  112MOL0     C15333   3.881   7.245   9.622 -0.4042 -0.3399  0.4346
  112MOL0     C15334   4.026   7.228   9.601 -0.1855  0.0425  0.2677
  112MOL0     N15335   4.087   7.246   9.733 -0.3662 -0.5383 -0.3101
  112MOL0     C15336   4.062   7.162   9.840 -0.4415 -0.1568  0.0845
  112MOL0     C15337   4.140   7.198   9.944 -0.6000  0.4902  0.8462
  112MOL0     C15338   4.131   7.144  10.077 -0.1582 -0.3495  0.4332
  112MOL0     C15339   3.996   7.182  10.141  0.1160  0.5455  1.0204
  112MOL0     C15340   4.002   7.162  10.286  0.1247 -0.0516 -1.1332
  112MOL0     C15341   3.876   7.219  10.342  0.9379  0.5606 -0.4187
  112MOL0     O15342   3.759   7.143  10.314 -0.0052  0.5641 -0.2077
  112MOL0     C15343   3.640   7.210  10.332  0.3903  0.5181  0.2315
  112MOL0     C15344   3.522   7.135  10.327  0.2032  0.1619  0.2016
  112MOL0     C15345   3.399   7.178  10.355  0.2862 -0.2655 -0.0153
  112MOL0     C15346   3.285   7.078  10.339 -0.0126  0.1856 -0.4041
  112MOL0     C15347   3.376   7.319  10.371 -0.2443 -1.0300 -0.2828
  112MOL0     C15348   3.249   7.376  10.391  0.8618 -0.3068  0.6021
  112MOL0     O15349   3.152   7.324  10.322 -0.1726  0.6227 -0.0678
  112MOL0     C15350   3.027   7.346  10.380 -0.1826  0.0585  0.0994
  112MOL0     C15351   2.953   7.234  10.414 -0.5735  0.6097  0.0624
  112MOL0     C15352   2.817   7.247  10.448 -0.1476  0.0116  0.2776
  112MOL0     C15353   2.759   7.371  10.449 -0.0336  0.7637 -0.7787
  112MOL0     O15354   2.628   7.376  10.480 -0.0256 -0.2764  0.4838
  112MOL0     C15355   2.535   7.489  10.486 -0.0251 -0.5096  0.5669
  112MOL0     C15356   2.391   7.456  10.528  0.5132  0.2045  0.1299
  112MOL0     C15357   2.373   7.416  10.672 -0.0947 -0.4495 -0.4348
  112MOL0     C15358   2.226   7.435  10.702  0.0094  0.2368  0.5953
  112MOL0     C15359   2.200   7.411  10.844 -0.4982  0.1161 -0.4926
  112MOL0     C15360   2.053   7.380  10.864  0.3580 -0.3355  0.0310
  112MOL0     C15361   2.003   7.340  11.002  0.0310 -0.0185 -0.1295
  112MOL0     C15362   2.041   7.439  11.113  0.1525 -0.1040 -0.6824
  112MOL0    Cl15363   1.984   7.594  11.070 -0.0281 -0.0427  0.5324
  112MOL0     C15364   2.842   7.485  10.436  1.8550 -0.4325  0.6634
  112MOL0     C15365   2.971   7.473  10.398 -0.7117  0.4231 -0.4463
  112MOL0     O15366   3.237   7.470  10.471 -0.4060 -0.7494 -0.2152
  112MOL0     C15367   3.491   7.399  10.375 -0.2251 -0.0360 -0.7534
  112MOL0     C15368   3.617   7.351  10.360  0.4593  0.1477  0.3059
  112MOL0     N15369   4.227   7.291   9.900 -0.1485 -0.6787  0.1723
  112MOL0     N15370   4.191   7.321   9.777 -1.0596  0.0452 -0.9875
  112MOL0     C15371   3.165   7.739   9.933  0.4368 -0.6502 -0.2444
  112MOL0     C15372   3.066   7.742  10.021  0.0842 -0.2633 -0.7978
  112MOL0     C15373   2.762   7.951  10.315 -0.4528 -0.6204  0.6242
  112MOL0     C15374   2.631   7.954  10.266  1.3887 -0.7057 -0.1790
  112MOL0     C15375   2.524   7.919  10.354  0.1022  0.1005  0.0167
  112MOL0     C15376   2.551   7.890  10.491 -0.2415  0.7327  0.0555
  112MOL0     O15377   2.451   7.853  10.569 -0.7209  0.6998  0.1113
  112MOL0     C15378   2.475   7.815  10.708 -0.1264 -0.6804  0.0859
  112MOL0     C15379   2.354   7.806  10.810 -0.2814 -0.2646 -0.3758
  112MOL0     C15380   2.303   7.945  10.842  0.8472  0.3953 -0.2103
  112MOL0     C15381   2.173   7.938  10.930 -0.0868  0.4808  0.9480
  112MOL0     C15382   2.138   8.075  10.979  0.1003 -0.8892 -0.4874
  112MOL0     C15383   2.094   8.183  11.014  0.2437  0.7701  1.3020
  112MOL0     C15384   2.684   7.899  10.533 -0.0810 -0.5267  0.1884
  112MOL0     C15385   2.788   7.925  10.447 -0.0489 -0.8249 -0.6281
  112MOL0     C15386   2.932   7.895  10.489  0.3183 -0.5703 -1.2713
  112MOL0     H15387   3.118   8.053  10.144  0.6182  0.3627 -0.6367
  112MOL0     H15388   3.293   8.048   9.946  0.8904 -2.7838 -3.4670
  112MOL0     H15389   3.315   7.702   9.665 -2.4750  2.0534  1.6237
  112MOL0     H15390   3.432   7.660   9.795  5.4166  1.6259 -1.4133
  112MOL0     H15391   3.450   7.850   9.563  1.5304 -2.0374 -2.4326
  112MOL0     H15392   3.576   7.847   9.680 -1.8741  1.7946 -1.6176
  112MOL0     H15393   3.472   7.601   9.534  0.4972  0.5789  0.7321
  112MOL0     H15394   3.608   7.675   9.469  0.9486  0.6767 -0.9352
  112MOL0     H15395   3.759   7.634   9.654  0.6317 -0.4527  0.0236
  112MOL0     H15396   3.639   7.566   9.759 -0.0608  0.9269 -0.1999
  112MOL0     H15397   3.721   7.453   9.496  1.7610  0.0653  0.6283
  112MOL0     H15398   3.622   7.373   9.620  1.1206 -2.1389  1.6648
  112MOL0     H15399   3.912   7.466   9.652 -2.3730  2.0683 -1.5550
  112MOL0     H15400   3.834   7.389   9.779  2.7948  1.0913  0.0095
  112MOL0     H15401   3.838   7.240   9.521 -2.0653  1.9534  0.9405
  112MOL0     H15402   3.841   7.165   9.686 -1.2331 -0.6917 -0.4845
  112MOL0     H15403   4.048   7.122   9.585 -1.7771 -0.4980  1.3871
  112MOL0     H15404   4.065   7.297   9.525 -0.7204 -0.7427 -0.7584
  112MOL0     H15405   3.981   7.092   9.853  0.4627 -1.5239 -1.2289
  112MOL0     H15406   4.221   7.176  10.131  1.1325  0.5919 -2.1233
  112MOL0     H15407   4.136   7.035  10.084  3.0450 -0.2122  2.7881
  112MOL0     H15408   3.978   7.286  10.112  0.8826 -0.1831 -2.5636
  112MOL0     H15409   3.918   7.123  10.092  3.8059 -2.2853 -2.1223
  112MOL0     H15410   4.007   7.055  10.310  0.8482  0.4977  1.5983
  112MOL0     H15411   4.085   7.216  10.332  3.1253 -4.7443 -0.4050
  112MOL0     H15412   3.895   7.221  10.450 -2.2454  1.1535  0.2226
  112MOL0     H15413   3.867   7.324  10.313 -0.4706  0.4520 -0.4585
  112MOL0     H15414   3.535   7.029  10.308 -0.2438 -0.0993  1.2628
  112MOL0     H15415   3.208   7.090  10.416 -1.2040 -0.1817 -1.5209
  112MOL0     H15416   3.307   6.972  10.351 -2.8057 -0.4892 -0.4970
  112MOL0     H15417   3.242   7.088  10.239 -1.9178  0.9721  0.4427
  112MOL0     H15418   3.006   7.140  10.405  0.5786  1.3809 -2.1510
  112MOL0     H15419   2.748   7.166  10.471 -2.0336  0.4641 -3.1694
  112MOL0     H15420   2.567   7.547  10.573  0.9381 -0.2683  0.0643
  112MOL0     H15421   2.536   7.531  10.385  1.1446 -0.0922  0.7341
  112MOL0     H15422   2.328   7.543  10.509  0.8242  1.0869  2.7430
  112MOL0     H15423   2.364   7.369  10.467  4.5597 -1.5765  0.4948
  112MOL0     H15424   2.424   7.482  10.742 -2.5081  1.0492  0.0584
  112MOL0     H15425   2.405   7.315  10.700  0.9100 -0.4050 -1.3989
  112MOL0     H15426   2.170   7.357  10.649  0.0362 -0.3437  1.4078
  112MOL0     H15427   2.176   7.524  10.664 -1.7284 -0.7269  0.5003
  112MOL0     H15428   2.255   7.323  10.880 -0.7087 -0.6901 -2.0761
  112MOL0     H15429   2.240   7.493  10.904  1.9656  0.5925 -2.6250
  112MOL0     H15430   2.027   7.292  10.804 -0.4206  0.0047 -0.1370
  112MOL0     H15431   1.987   7.459  10.828  0.2694 -0.7032 -0.6334
  112MOL0     H15432   2.044   7.243  11.031  0.2902  0.4116  0.9920
  112MOL0     H15433   1.895   7.323  10.998 -0.3842  2.0493  0.9335
  112MOL0     H15434   2.147   7.461  11.125 -0.2060  1.0182  0.7296
  112MOL0     H15435   1.996   7.410  11.208 -1.2268  0.8605 -1.0098
  112MOL0     H15436   2.796   7.581  10.454  3.7748  0.6803 -0.0716
  112MOL0     H15437   3.031   7.560  10.374  3.5101 -2.4130 -1.2887
  112MOL0     H15438   3.488   7.500  10.415  0.2085  0.1476 -1.1741
  112MOL0     H15439   3.704   7.404  10.395 -1.3161  3.0560  0.6026
  112MOL0     H15440   3.186   7.647   9.880 -2.9934 -2.3682  1.0748
  112MOL0     H15441   3.013   7.650  10.046  0.5889  0.4167  3.3466
  112MOL0     H15442   2.611   7.967  10.161 -0.5077  2.4124  0.4397
  112MOL0     H15443   2.433   7.915  10.295  1.5881  2.1542 -2.6920
  112MOL0     H15444   2.531   7.722  10.720  2.8699  0.9969  0.1406
  112MOL0     H15445   2.549   7.882  10.755  0.5067 -2.3785  1.6130
  112MOL0     H15446   2.373   7.752  10.903 -4.8371 -1.6795 -0.0105
  112MOL0     H15447   2.277   7.746  10.761  1.8525 -1.4683 -2.4540
  112MOL0     H15448   2.371   8.011  10.896 -2.3531  2.6288  1.4261
  112MOL0     H15449   2.273   7.988  10.746 -2.6765  0.1022  0.6032
  112MOL0     H15450   2.178   7.864  11.010  0.2398 -3.0226 -2.0843
  112MOL0     H15451   2.100   7.904  10.856  0.9911  1.2677 -0.5341
  112MOL0     H15452   2.060   8.277  11.054 -3.3420 -0.5786  1.7771
  112MOL0     H15453   2.713   7.885  10.637 -0.2765  0.0780  0.3291
  112MOL0     H15454   3.005   7.976  10.487  0.0295 -0.1531  1.4291
  112MOL0     H15455   2.927   7.874  10.597  1.4570  2.8182 -0.4365
  112MOL0     H15456   2.975   7.807  10.440 -0.1169 -1.6415  0.2056
  113MOL0     O15457   9.012  10.858  11.006  0.6346 -0.3770 -0.1651
  113MOL0     C15458   8.981  10.957  11.080 -0.6298  0.9509 -0.6192
  113MOL0     O15459   8.851  10.985  11.116  0.3562  0.0122 -1.0092
  113MOL0     C15460   8.749  10.896  11.084 -0.3873 -0.8439  1.1708
  113MOL0     C15461   8.693  10.822  11.183 -0.0187 -0.5996 -0.0894
  113MOL0     C15462   8.568  10.755  11.159 -0.5707 -0.5484 -0.4709
  113MOL0     C15463   8.509  10.772  11.028 -0.1281 -0.3947  0.1810
  113MOL0     O15464   8.376  10.748  10.992 -0.5360  0.2086 -0.0156
  113MOL0     C15465   8.291  10.675  11.074  0.2604  0.2890  0.3733
  113MOL0     C15466   8.218  10.782  11.142 -0.0281 -0.8336 -0.1258
  113MOL0     C15467   8.155  10.731  11.270  0.5815 -1.3313 -0.8278
  113MOL0     C15468   8.016  10.791  11.287 -0.3096  0.0022 -0.1095
  113MOL0     C15469   7.965  10.756  11.414 -0.5409  0.8481 -0.0439
  113MOL0     C15470   7.816  10.763  11.441  0.5428 -0.6181 -0.3895
  113MOL0     C15471   7.743  10.644  11.379 -0.0533  0.1713  0.4803
  113MOL0     C15472   7.589  10.630  11.412 -0.1959 -0.0835 -0.0588
  113MOL0     N15473   7.558  10.606  11.555  0.5751 -0.0200  0.3597
  113MOL0     C15474   7.424  10.593  11.605 -0.0356 -0.2227  0.0202
  113MOL0     C15475   7.443  10.568  11.734 -0.4682 -0.2803  0.2215
  113MOL0     C15476   7.347  10.550  11.849 -0.4175  0.3775  0.3807
  113MOL0     C15477   7.319  10.686  11.900  0.9075 -0.5562 -0.4580
  113MOL0     C15478   7.207  10.677  12.006  0.3638 -0.3472  0.3842
  113MOL0     C15479   7.254  10.593  12.125  0.6405  0.7441 -0.5811
  113MOL0     O15480   7.370  10.651  12.176 -0.2637  0.3131  0.1180
  113MOL0     C15481   7.461  10.573  12.245  0.1658  0.1468  0.2482
  113MOL0     C15482   7.427  10.455  12.304  0.2164 -0.5306  0.2436
  113MOL0     C15483   7.520  10.387  12.394 -0.5658 -0.1886  0.3183
  113MOL0     C15484   7.474  10.256  12.467  1.1386  0.1814 -0.5454
  113MOL0     C15485   7.650  10.447  12.409  0.0073 -0.3125 -0.0879
  113MOL0     C15486   7.761  10.395  12.500 -0.1374  0.4113  0.1838
  113MOL0     O15487   7.880  10.462  12.493 -0.4962 -0.7235  0.7359
  113MOL0     C15488   7.968  10.458  12.593  0.3561 -0.7071  0.0859
  113MOL0     C15489   8.088  10.394  12.588 -0.6975 -0.1396  0.3311
  113MOL0     C15490   8.186  10.398  12.685  0.4527  0.5732 -0.0570
  113MOL0     C15491   8.166  10.475  12.803  0.7736 -1.3105 -0.5283
  113MOL0     O15492   8.245  10.480  12.911 -0.1779  0.4991 -0.4382
  113MOL0     C15493   8.379  10.452  12.882  1.0771 -0.8860 -0.5979
  113MOL0     C15494   8.465  10.464  13.009  0.1353  0.4280  0.8564
  113MOL0     C15495   8.613  10.426  12.989  0.3776  0.0177  0.3565
  113MOL0     C15496   8.681  10.469  12.858  0.2721  0.8208  0.1821
  113MOL0     C15497   8.828  10.453  12.865  0.1589  0.3311  0.1654
  113MOL0     C15498   8.887  10.435  12.728 -0.5273 -0.3774  0.5015
  113MOL0     C15499   9.035  10.476  12.719 -0.6667  0.3663  0.5319
  113MOL0     C15500   9.084  10.429  12.583  0.4782 -0.1268 -0.1576
  113MOL0    Cl15501   9.105  10.256  12.576  0.0798  0.1558  0.5620
  113MOL0     C15502   8.046  10.545  12.813 -0.0431  0.4218 -0.1805
  113MOL0     C15503   7.951  10.538  12.713  0.7163  0.4146  0.4727
  113MOL0     O15504   7.743  10.286  12.545  0.7091 -0.1573 -0.0402
  113MOL0     C15505   7.682  10.568  12.340  0.3958  0.0084 -0.1879
  113MOL0     C15506   7.584  10.628  12.264  0.2789 -0.1642 -0.0975
  113MOL0     N15507   7.574  10.571  11.765 -0.5939 -0.1040  0.9692
  113MOL0     N15508   7.648  10.584  11.655 -0.1525 -0.3341  0.3358
  113MOL0     C15509   8.581  10.831  10.925  0.3453 -0.2003 -0.2259
  113MOL0     C15510   8.698  10.898  10.955 -0.5285 -0.6844 -0.7239
  113MOL0     C15511   9.097  11.043  11.124  0.7212 -0.6662 -0.1297
  113MOL0     C15512   9.221  10.994  11.088  0.6281  0.9103 -1.7597
  113MOL0     C15513   9.339  11.060  11.119  0.0122  0.0843  0.2258
  113MOL0     C15514   9.324  11.191  11.177 -0.6758 -0.2247  0.0853
  113MOL0     O15515   9.426  11.282  11.196  0.0780 -0.6864  0.2190
  113MOL0     C15516   9.540  11.265  11.108 -0.5941  0.4303 -0.5226
  113MOL0     C15517   9.515  11.305  10.961  0.5670  0.5347 -0.6842
  113MOL0     C15518   9.638  11.308  10.876 -1.2900 -0.3013  0.0320
  113MOL0     C15519   9.745  11.411  10.905 -0.7798  0.6408  0.6475
  113MOL0     C15520   9.862  11.381  10.818 -1.4667 -0.6430  0.6298
  113MOL0     C15521   9.967  11.377  10.756 -0.4598 -0.1118  0.3056
  113MOL0     C15522   9.199  11.237  11.218 -0.2248 -0.1297 -0.0359
  113MOL0     C15523   9.082  11.162  11.199 -0.2724  0.0046  0.4045
  113MOL0     C15524   8.955  11.217  11.250 -0.4488  0.4245  0.3482
  113MOL0     H15525   8.733  10.833  11.284  2.1010  3.3049 -1.1401
  113MOL0     H15526   8.517  10.702  11.238  1.6836 -2.4956 -0.1996
  113MOL0     H15527   8.344  10.606  11.141  1.1063  2.0254  1.5994
  113MOL0     H15528   8.221  10.617  11.014  1.7015 -1.3244  0.1707
  113MOL0     H15529   8.293  10.852  11.178 -0.8397 -0.7895  1.5655
  113MOL0     H15530   8.144  10.821  11.071 -3.7205 -2.4039  2.5417
  113MOL0     H15531   8.152  10.621  11.272  2.2028 -1.4189  1.7647
  113MOL0     H15532   8.218  10.772  11.349  0.1094 -2.0574 -0.0574
  113MOL0     H15533   8.018  10.900  11.284  1.1102  0.0013  0.2464
  113MOL0     H15534   7.941  10.760  11.214 -1.6190 -0.8430  1.5271
  113MOL0     H15535   8.015  10.816  11.491 -0.4523  0.6387  0.0657
  113MOL0     H15536   8.003  10.658  11.444 -0.5187  1.5460  2.4497
  113MOL0     H15537   7.783  10.761  11.545 -1.5242  0.4540 -0.9569
  113MOL0     H15538   7.790  10.859  11.396  1.9525 -1.0148 -2.1915
  113MOL0     H15539   7.797  10.557  11.417  0.2749  0.3360  0.3938
  113MOL0     H15540   7.746  10.644  11.269 -0.3957 -1.2879  0.4481
  113MOL0     H15541   7.535  10.723  11.393 -0.5105 -0.4079 -0.8269
  113MOL0     H15542   7.544  10.557  11.343  1.9985  0.4892 -2.2563
  113MOL0     H15543   7.330  10.598  11.551 -1.4495  1.1429  2.4316
  113MOL0     H15544   7.397  10.485  11.921  0.0764 -1.7667 -1.7504
  113MOL0     H15545   7.255  10.501  11.816 -1.2457  3.9602 -3.5598
  113MOL0     H15546   7.411  10.729  11.940  1.7205 -1.0607 -1.7145
  113MOL0     H15547   7.280  10.754  11.824 -3.5055 -2.2040  0.0097
  113MOL0     H15548   7.176  10.779  12.030 -2.5635  0.1713 -4.4072
  113MOL0     H15549   7.112  10.631  11.977  0.7342  0.0369 -1.5574
  113MOL0     H15550   7.168  10.603  12.192 -1.5128  0.7651 -3.1820
  113MOL0     H15551   7.269  10.489  12.095  0.9432  0.7854 -0.5811
  113MOL0     H15552   7.327  10.414  12.297  0.4615 -1.4098  1.4481
  113MOL0     H15553   7.366  10.249  12.454  0.8813 -0.5018  1.6689
  113MOL0     H15554   7.497  10.258  12.574 -1.6410 -0.7964  0.1398
  113MOL0     H15555   7.506  10.159  12.427  0.4450 -0.5084  0.5401
  113MOL0     H15556   8.094  10.337  12.495  0.9754 -2.3147  1.6847
  113MOL0     H15557   8.273  10.334  12.682 -0.0482 -0.6586  4.4437
  113MOL0     H15558   8.399  10.352  12.842  0.7345 -1.0756 -0.2980
  113MOL0     H15559   8.411  10.526  12.808  2.2825 -1.3442 -0.5575
  113MOL0     H15560   8.474  10.569  13.038 -1.1260  1.1548 -1.2008
  113MOL0     H15561   8.412  10.412  13.090 -1.6245 -0.1575 -0.6108
  113MOL0     H15562   8.629  10.318  12.987 -2.0563 -0.3727 -0.8478
  113MOL0     H15563   8.669  10.465  13.075  3.6538  1.5121 -2.2093
  113MOL0     H15564   8.657  10.571  12.826 -0.3970 -0.5744 -4.4869
  113MOL0     H15565   8.639  10.413  12.774  0.5919  2.3460 -1.0613
  113MOL0     H15566   8.862  10.548  12.908  0.4082  0.8863 -1.2078
  113MOL0     H15567   8.856  10.370  12.930 -0.5820 -0.9801 -1.1475
  113MOL0     H15568   8.833  10.495  12.654  0.3028 -1.4955 -1.0570
  113MOL0     H15569   8.877  10.330  12.698  0.2571 -0.1102 -0.7881
  113MOL0     H15570   9.087  10.431  12.804 -1.3860 -0.4406  0.5662
  113MOL0     H15571   9.037  10.585  12.725  2.0975  0.5320 -1.5517
  113MOL0     H15572   9.174  10.481  12.549  0.4895  0.4335  0.6744
  113MOL0     H15573   9.004  10.458  12.515 -0.8648 -2.1824  0.4631
  113MOL0     H15574   8.030  10.607  12.900 -1.5722 -3.1195  2.3401
  113MOL0     H15575   7.862  10.598  12.728  0.1798 -0.3140  0.2358
  113MOL0     H15576   7.778  10.617  12.327  0.7457 -0.6135  0.0310
  113MOL0     H15577   7.598  10.727  12.224 -0.3472 -0.6446 -1.5571
  113MOL0     H15578   8.527  10.844  10.831  1.5319 -0.3510 -0.9569
  113MOL0     H15579   8.754  10.961  10.886 -0.5593  0.4420  0.2541
  113MOL0     H15580   9.234  10.905  11.027  0.7940  0.6163 -1.2957
  113MOL0     H15581   9.433  11.024  11.079  0.5551 -0.4168  1.8763
  113MOL0     H15582   9.628  11.318  11.145  1.2175 -1.0960 -2.3693
  113MOL0     H15583   9.567  11.158  11.113 -1.5615  0.1302 -1.3851
  113MOL0     H15584   9.481  11.409  10.961 -1.6413 -0.1441 -0.2991
  113MOL0     H15585   9.452  11.235  10.907 -0.0361  1.8162 -1.7006
  113MOL0     H15586   9.681  11.208  10.871 -1.7607 -0.4583 -1.4493
  113MOL0     H15587   9.611  11.321  10.770  1.4772  5.1109 -0.3822
  113MOL0     H15588   9.774  11.397  11.009 -1.7969  0.2831  0.8898
  113MOL0     H15589   9.714  11.511  10.874  0.0736  0.4244 -1.0261
  113MOL0     H15590  10.058  11.387  10.700 -1.4215 -0.1258 -1.3445
  113MOL0     H15591   9.199  11.332  11.270 -1.7018 -0.3349  0.3871
  113MOL0     H15592   8.886  11.240  11.169 -1.3775 -1.5299  0.5230
  113MOL0     H15593   8.903  11.154  11.323  0.8573 -0.4477  0.5468
  113MOL0     H15594   8.979  11.315  11.292  1.1566 -0.7526  2.3658
  114MOL0     O15595  10.414   9.389   4.890 -0.3462 -0.5007 -0.0169
  114MOL0     C15596  10.412   9.312   4.792  0.0469 -0.3340 -1.1217
  114MOL0     O15597  10.517   9.251   4.733 -0.2681 -0.3096 -0.0994
  114MOL0     C15598  10.643   9.289   4.779  0.1539  0.2762 -0.0583
  114MOL0     C15599  10.712   9.402   4.734 -0.5400 -0.4200  0.6322
  114MOL0     C15600  10.842   9.436   4.771 -0.6250  0.4165 -0.2806
  114MOL0     C15601  10.906   9.348   4.853  0.6254 -1.1120  0.5317
  114MOL0     O15602  11.041   9.351   4.884 -0.4332  0.2006  0.3107
  114MOL0     C15603  11.116   9.453   4.824  0.3229  0.5517 -0.1367
  114MOL0     C15604  11.260   9.457   4.877 -0.3653  0.5654  0.7889
  114MOL0     C15605  11.351   9.333   4.857  0.2589  0.0431  0.0306
  114MOL0     C15606  11.295   9.195   4.906 -0.6771 -0.0535 -0.3678
  114MOL0     C15607  11.407   9.092   4.895 -0.8347  0.6139  0.3135
  114MOL0     C15608  11.410   9.015   4.760 -0.3951 -0.1058 -0.1175
  114MOL0     C15609  11.454   9.105   4.640 -0.1959  1.2134 -0.9036
  114MOL0     C15610  11.515   9.024   4.522 -0.0671  1.2601  0.2237
  114MOL0     N15611  11.624   8.932   4.557 -0.0663  1.4668 -0.3433
  114MOL0     C15612  11.744   8.972   4.606 -1.4985  0.5042 -0.6457
  114MOL0     C15613  11.823   8.858   4.602 -0.1506  0.0415  0.3172
  114MOL0     C15614  11.966   8.838   4.636 -0.4595  0.6020  1.2361
  114MOL0     C15615  12.077   8.905   4.539  0.0737 -0.5732  0.7088
  114MOL0     C15616  12.222   8.914   4.600  0.4146  0.7617 -0.0634
  114MOL0     C15617  12.324   8.967   4.495 -0.1792  0.6949  0.3335
  114MOL0     O15618  12.321   8.885   4.374 -0.0272  0.4547 -0.3052
  114MOL0     C15619  12.418   8.910   4.279 -0.4060 -0.1142  0.7863
  114MOL0     C15620  12.508   9.014   4.287  0.2662  0.7951 -0.5966
  114MOL0     C15621  12.588   9.049   4.178 -0.3215  0.3647  0.5243
  114MOL0     C15622  12.702   9.147   4.194 -0.3979 -0.5222 -0.2556
  114MOL0     C15623  12.581   8.980   4.060 -0.3742  0.2458 -1.3157
  114MOL0     C15624  12.678   8.990   3.947  0.8782 -1.4014  0.2293
  114MOL0     O15625  12.614   8.939   3.842  0.7806  0.0140  0.7107
  114MOL0     C15626  12.701   8.897   3.745  0.2416  0.1183 -0.0772
  114MOL0     C15627  12.782   8.784   3.768  0.4194  0.5243 -0.3650
  114MOL0     C15628  12.871   8.747   3.662  0.5962  1.2411 -0.3986
  114MOL0     C15629  12.888   8.823   3.541  0.0466  0.5372 -0.8169
  114MOL0     O15630  12.982   8.795   3.446  0.0331  0.7678  0.4960
  114MOL0     C15631  13.049   8.668   3.436  0.2525  0.2938  0.3794
  114MOL0     C15632  13.168   8.665   3.530 -0.7466  0.0306  0.7382
  114MOL0     C15633  13.303   8.687   3.474 -0.2133  0.7635  0.6651
  114MOL0     C15634  13.325   8.836   3.428  0.7022  0.6052 -0.2211
  114MOL0     C15635  13.479   8.868   3.426  0.3311  0.2447 -0.1494
  114MOL0     C15636  13.509   9.006   3.373  0.2898  0.9583 -0.3675
  114MOL0     C15637  13.659   9.033   3.401  0.1502  0.6044  0.0290
  114MOL0     C15638  13.710   9.142   3.309  0.4841 -0.9346 -0.1022
  114MOL0    Cl15639  13.891   9.159   3.330  0.1239  0.0028 -0.1264
  114MOL0     C15640  12.818   8.940   3.533 -0.1006 -0.2142 -0.1519
  114MOL0     C15641  12.719   8.973   3.625  0.6002  0.5396 -0.3171
  114MOL0     O15642  12.794   9.028   3.957 -0.2766  0.1125 -0.2607
  114MOL0     C15643  12.495   8.875   4.062  0.1761 -0.5896  0.4471
  114MOL0     C15644  12.416   8.844   4.168  0.2385 -0.5306  0.4211
  114MOL0     N15645  11.743   8.749   4.561 -0.2075 -0.7167  0.2786
  114MOL0     N15646  11.626   8.798   4.528 -0.1341 -0.7079  1.0435
  114MOL0     C15647  10.852   9.225   4.881  0.0366  0.4182  0.1394
  114MOL0     C15648  10.715   9.198   4.853  0.2388 -0.5093 -0.1844
  114MOL0     C15649  10.281   9.305   4.718 -0.1298  0.3210 -0.2623
  114MOL0     C15650  10.289   9.270   4.586 -0.0197  0.6186  0.2305
  114MOL0     C15651  10.175   9.263   4.511  0.4352  0.4280 -0.3528
  114MOL0     C15652  10.045   9.272   4.571 -0.1941  0.3511 -0.4330
  114MOL0     O15653   9.936   9.272   4.491 -0.3041 -0.5277 -0.4573
  114MOL0     C15654   9.800   9.293   4.547 -0.3143 -0.5334 -0.0612
  114MOL0     C15655   9.697   9.295   4.440  1.1584 -0.4668 -0.7959
  114MOL0     C15656   9.725   9.386   4.320 -0.0412 -0.9060 -0.3244
  114MOL0     C15657   9.598   9.398   4.228 -0.8454  0.3683 -0.4512
  114MOL0     C15658   9.637   9.381   4.091  0.1016 -0.3692 -0.3778
  114MOL0     C15659   9.662   9.366   3.974  0.1814  0.5953  0.3981
  114MOL0     C15660  10.040   9.291   4.710 -0.6051 -0.7025 -0.0737
  114MOL0     C15661  10.154   9.306   4.790 -0.5391 -0.4981 -0.2336
  114MOL0     C15662  10.140   9.345   4.936  0.7979 -0.0168  0.9088
  114MOL0     H15663  10.651   9.466   4.672  0.1809 -0.2516  0.0929
  114MOL0     H15664  10.880   9.531   4.737 -1.3529  0.5546 -0.7307
  114MOL0     H15665  11.071   9.551   4.843 -1.8171 -0.2409 -0.8204
  114MOL0     H15666  11.107   9.445   4.715 -1.3898  2.5716 -0.2059
  114MOL0     H15667  11.306   9.533   4.813 -1.3820 -1.0973 -2.1437
  114MOL0     H15668  11.259   9.470   4.985 -0.5064  2.3889  0.5926
  114MOL0     H15669  11.361   9.328   4.749  1.6171  0.4750  0.1201
  114MOL0     H15670  11.446   9.353   4.908  0.9264  0.4009 -1.3025
  114MOL0     H15671  11.292   9.214   5.013  1.1268 -0.9411 -0.1214
  114MOL0     H15672  11.202   9.167   4.854 -0.3923 -1.2052 -0.3016
  114MOL0     H15673  11.387   9.020   4.975 -1.6199  0.6714  0.1698
  114MOL0     H15674  11.507   9.137   4.903 -0.1065 -0.5663 -1.3600
  114MOL0     H15675  11.480   8.931   4.763  2.9012  2.3519 -1.7276
  114MOL0     H15676  11.311   8.977   4.735 -0.3622  0.0842 -0.5375
  114MOL0     H15677  11.534   9.176   4.658  2.3341 -0.9740 -2.7639
  114MOL0     H15678  11.361   9.159   4.617  1.0775  6.0287  3.3918
  114MOL0     H15679  11.445   8.955   4.475  0.5123  0.0254  1.1032
  114MOL0     H15680  11.542   9.090   4.440  0.7113 -1.1012 -1.5142
  114MOL0     H15681  11.768   9.074   4.632 -1.0815  0.0116  0.9876
  114MOL0     H15682  11.990   8.731   4.634  0.4230  0.7079 -2.4114
  114MOL0     H15683  11.975   8.884   4.734 -2.1304  1.8657  0.8551
  114MOL0     H15684  12.079   8.839   4.452 -0.5139  0.0459  0.2153
  114MOL0     H15685  12.044   9.005   4.507  1.6478  0.5583  2.4104
  114MOL0     H15686  12.224   8.973   4.692  0.4728  1.3024 -0.4091
  114MOL0     H15687  12.258   8.812   4.618  0.7643  0.4796 -2.1496
  114MOL0     H15688  12.295   9.070   4.471 -0.6139  0.5183  0.0866
  114MOL0     H15689  12.427   8.970   4.530  0.3083  2.3399 -1.1205
  114MOL0     H15690  12.515   9.080   4.373  1.5455  1.3622 -1.1046
  114MOL0     H15691  12.695   9.187   4.296 -0.1044  1.6432 -1.0337
  114MOL0     H15692  12.692   9.233   4.127 -0.4812  0.1187  0.5527
  114MOL0     H15693  12.802   9.103   4.192  0.0664  0.4923  0.0755
  114MOL0     H15694  12.770   8.710   3.847  1.3292  2.7082  1.9557
  114MOL0     H15695  12.920   8.651   3.676 -2.3889 -0.0401  2.8503
  114MOL0     H15696  12.974   8.589   3.450 -0.5054  0.4986 -2.0071
  114MOL0     H15697  13.083   8.647   3.334  0.7633  0.7092  0.4590
  114MOL0     H15698  13.162   8.741   3.609  2.5247  1.8404 -0.5306
  114MOL0     H15699  13.170   8.567   3.578 -1.9766 -0.1641  0.4175
  114MOL0     H15700  13.329   8.612   3.398 -1.3247  0.3314  0.6894
  114MOL0     H15701  13.366   8.653   3.556 -2.4803 -3.3765  0.9650
  114MOL0     H15702  13.261   8.900   3.488  2.9925  2.5751  0.3041
  114MOL0     H15703  13.300   8.848   3.322  2.4340 -0.7560 -0.8435
  114MOL0     H15704  13.520   8.866   3.528  2.8786  0.9278 -1.0693
  114MOL0     H15705  13.531   8.783   3.381  0.5320  0.4555 -0.3181
  114MOL0     H15706  13.471   9.087   3.436  0.0770  0.7404 -0.2175
  114MOL0     H15707  13.483   9.015   3.267 -0.5579 -4.0337 -0.8290
  114MOL0     H15708  13.726   8.953   3.369  2.2067  2.6066 -0.8750
  114MOL0     H15709  13.667   9.046   3.509 -0.4122  0.6659  0.0668
  114MOL0     H15710  13.667   9.242   3.316 -0.1169 -0.9065 -3.1888
  114MOL0     H15711  13.693   9.121   3.203  2.3803 -0.2859 -0.5782
  114MOL0     H15712  12.832   8.985   3.436  1.9411  2.4912  1.2628
  114MOL0     H15713  12.661   9.063   3.607 -1.1166 -0.5301 -0.4767
  114MOL0     H15714  12.477   8.814   3.974 -0.3137 -0.0078  0.1305
  114MOL0     H15715  12.349   8.760   4.151 -1.3177  0.7846 -0.2849
  114MOL0     H15716  10.901   9.147   4.938  1.6273 -1.0536 -3.0146
  114MOL0     H15717  10.655   9.116   4.891 -0.5831 -0.9933 -2.3843
  114MOL0     H15718  10.383   9.244   4.538 -1.1458 -1.2906 -1.0844
  114MOL0     H15719  10.189   9.253   4.403  3.4610  1.5454 -0.1814
  114MOL0     H15720   9.779   9.206   4.610 -4.7766  0.3517 -0.0005
  114MOL0     H15721   9.797   9.389   4.599 -0.2621 -0.7406  0.3337
  114MOL0     H15722   9.600   9.324   4.483 -1.2243 -1.7708 -4.7014
  114MOL0     H15723   9.684   9.190   4.412  0.7584 -1.2303  1.9930
  114MOL0     H15724   9.732   9.486   4.363  1.7414  0.1380 -2.7771
  114MOL0     H15725   9.815   9.358   4.264 -0.0047  2.4421 -2.1786
  114MOL0     H15726   9.553   9.497   4.239 -0.0123  0.5678  1.7456
  114MOL0     H15727   9.531   9.320   4.265  0.9859  0.5329  3.7918
  114MOL0     H15728   9.671   9.360   3.868 -3.3171 -0.2793  0.0335
  114MOL0     H15729   9.946   9.309   4.761  0.4701  1.9246  1.2081
  114MOL0     H15730  10.216   9.303   5.002  3.8007 -0.1332 -2.3177
  114MOL0     H15731  10.161   9.453   4.940  0.6961  0.1203 -1.1743
  114MOL0     H15732  10.035   9.327   4.961  0.6100  0.0725  0.2068
  115MOL0     O15733   1.503  10.106   3.224 -0.3207 -0.4627 -0.6781
  115MOL0     C15734   1.450  10.121   3.114 -0.3142  0.1701 -0.0056
  115MOL0     O15735   1.329  10.076   3.080  0.0264 -0.3448 -0.2104
  115MOL0     C15736   1.256  10.019   3.184  0.8923  0.9142  0.1646
  115MOL0     C15737   1.255   9.883   3.191  0.0133  0.5860 -0.0850
  115MOL0     C15738   1.181   9.820   3.298 -0.6659  0.3247  0.2056
  115MOL0     C15739   1.112   9.888   3.394  0.0782  0.5836  0.1541
  115MOL0     O15740   1.045   9.826   3.492  0.4641 -0.0363  0.2391
  115MOL0     C15741   1.111   9.751   3.593  0.4048 -0.1877 -0.0268
  115MOL0     C15742   1.136   9.829   3.726 -0.3923 -0.3937 -0.5395
  115MOL0     C15743   1.005   9.883   3.796  0.2875  1.0474  1.0524
  115MOL0     C15744   0.974  10.026   3.762  0.3348 -0.1509 -0.1980
  115MOL0     C15745   0.905  10.105   3.876 -0.3627  1.3265  0.5325
  115MOL0     C15746   0.767  10.051   3.907 -0.3093  0.1331  0.4028
  115MOL0     C15747   0.691  10.122   4.021 -0.1727 -0.0780  0.5725
  115MOL0     C15748   0.632  10.259   3.980  0.0137  0.0321 -0.1124
  115MOL0     N15749   0.593  10.346   4.090 -0.8629  0.0965  0.5489
  115MOL0     C15750   0.629  10.479   4.107 -0.0639  0.0315 -0.6793
  115MOL0     C15751   0.547  10.525   4.207  0.0901  0.1069 -0.5232
  115MOL0     C15752   0.543  10.660   4.258 -0.3009  0.4172 -0.7677
  115MOL0     C15753   0.496  10.762   4.154 -0.4737 -0.4849  0.5936
  115MOL0     C15754   0.352  10.737   4.111 -0.2974  0.3600 -0.1555
  115MOL0     C15755   0.300  10.810   3.993  0.2437  0.0082  0.8025
  115MOL0     O15756   0.306  10.954   4.008 -0.5634 -0.5918 -0.0895
  115MOL0     C15757   0.192  11.017   4.044  0.0111  0.7583  0.1503
  115MOL0     C15758   0.073  10.947   4.095 -0.0787  0.1426 -0.5008
  115MOL0     C15759  -0.033  11.021   4.137  0.9217  0.1754  0.3318
  115MOL0     C15760  -0.159  10.947   4.183  0.0757  0.3183 -0.1896
  115MOL0     C15761  -0.033  11.160   4.130  0.1722 -0.2809  0.0821
  115MOL0     C15762  -0.148  11.256   4.151  0.2578  0.9166 -0.6599
  115MOL0     O15763  -0.147  11.347   4.252 -0.2933  0.5630  0.0146
  115MOL0     C15764  -0.258  11.415   4.284 -0.6904  0.4974  0.1606
  115MOL0     C15765  -0.316  11.504   4.193 -0.6420  0.6980  0.3909
  115MOL0     C15766  -0.433  11.572   4.235 -0.3440 -0.2560  0.2626
  115MOL0     C15767  -0.487  11.551   4.359 -0.0108 -0.3672 -0.5705
  115MOL0     O15768  -0.581  11.638   4.403  0.7371  0.7689  0.2052
  115MOL0     C15769  -0.707  11.614   4.331  0.6243 -0.8839  0.6644
  115MOL0     C15770  -0.789  11.742   4.348  0.0430 -1.2255 -0.0741
  115MOL0     C15771  -0.839  11.770   4.489 -0.2565  0.3057 -1.1308
  115MOL0     C15772  -0.859  11.915   4.513  0.4655 -0.2405 -0.8234
  115MOL0     C15773  -0.853  11.954   4.657 -0.4606  0.0842 -0.6869
  115MOL0     C15774  -0.865  12.104   4.674  0.7252 -0.5223  0.6196
  115MOL0     C15775  -0.923  12.144   4.819  0.0920 -0.3705 -1.0195
  115MOL0     C15776  -0.947  12.295   4.847 -0.3096 -0.6872  0.4965
  115MOL0    Cl15777  -1.073  12.343   4.723 -0.7850 -0.7148 -0.1433
  115MOL0     C15778  -0.415  11.474   4.454 -0.8544 -0.6399  0.3632
  115MOL0     C15779  -0.309  11.400   4.415 -0.6900 -0.2453  0.0786
  115MOL0     O15780  -0.239  11.228   4.074  0.3902  0.5491 -0.7875
  115MOL0     C15781   0.078  11.232   4.086  1.2404 -0.3315  0.6093
  115MOL0     C15782   0.193  11.159   4.041 -0.6155  0.0828  0.4717
  115MOL0     N15783   0.474  10.418   4.259 -0.3488 -0.2309 -0.2901
  115MOL0     N15784   0.503  10.314   4.187 -0.6993 -0.1232  0.2717
  115MOL0     C15785   1.107  10.028   3.383 -0.2864 -0.2191 -0.1569
  115MOL0     C15786   1.184  10.087   3.274  0.8526 -0.3887  0.4297
  115MOL0     C15787   1.521  10.201   3.020  0.6086 -0.1892 -1.1454
  115MOL0     C15788   1.584  10.135   2.916  0.1338  0.3066  0.1286
  115MOL0     C15789   1.664  10.195   2.822 -0.1982  0.5635  0.9303
  115MOL0     C15790   1.698  10.336   2.841 -0.2632  1.2792  0.8128
  115MOL0     O15791   1.788  10.416   2.773  0.0192 -0.0099 -0.5063
  115MOL0     C15792   1.871  10.376   2.665  0.2714  0.2256 -0.4856
  115MOL0     C15793   1.783  10.379   2.534  0.4621 -0.7346  1.2289
  115MOL0     C15794   1.704  10.512   2.517 -1.5531 -0.2331 -0.0024
  115MOL0     C15795   1.669  10.528   2.364 -0.1735  0.5143 -0.0461
  115MOL0     C15796   1.591  10.418   2.296  0.0739 -0.2316  0.0502
  115MOL0     C15797   1.539  10.315   2.246  0.8517  0.1873  0.4192
  115MOL0     C15798   1.630  10.402   2.941  0.6173 -0.3913 -0.6090
  115MOL0     C15799   1.552  10.336   3.040 -0.5375 -0.1366 -0.1362
  115MOL0     C15800   1.510  10.413   3.157 -0.7176 -0.5368 -0.7331
  115MOL0     H15801   1.310   9.819   3.123 -0.1422  3.2860 -2.9627
  115MOL0     H15802   1.181   9.712   3.310  1.5882  0.2119 -0.2858
  115MOL0     H15803   1.204   9.711   3.553  1.3468  2.7440 -1.0248
  115MOL0     H15804   1.050   9.668   3.630  0.7366 -0.5910 -0.3758
  115MOL0     H15805   1.191   9.764   3.793 -0.7152  0.6151  0.7503
  115MOL0     H15806   1.207   9.909   3.705  0.7699 -0.8674  1.3983
  115MOL0     H15807   0.916   9.823   3.776  0.0635  1.5223  0.6200
  115MOL0     H15808   1.017   9.859   3.902 -0.5306 -0.8102  0.7537
  115MOL0     H15809   1.066  10.074   3.728  1.4971 -2.5372 -0.6190
  115MOL0     H15810   0.907  10.030   3.675 -2.0544  0.0809  1.5648
  115MOL0     H15811   0.893  10.210   3.847 -0.1663  0.6460 -2.1928
  115MOL0     H15812   0.976  10.090   3.958  1.6552 -0.4415 -1.4123
  115MOL0     H15813   0.717  10.063   3.810 -0.2566  1.4340  0.5236
  115MOL0     H15814   0.782   9.945   3.929  2.0185  0.6742  1.7006
  115MOL0     H15815   0.759  10.130   4.107  0.2106  0.4172  0.2309
  115MOL0     H15816   0.606  10.060   4.051 -1.3924  0.9800 -0.5901
  115MOL0     H15817   0.706  10.314   3.922 -1.4068  2.1761 -0.0265
  115MOL0     H15818   0.546  10.242   3.915  2.2992 -2.3425 -2.8001
  115MOL0     H15819   0.703  10.530   4.046  0.2286 -0.6532 -0.9082
  115MOL0     H15820   0.643  10.690   4.290 -0.3943  1.0312 -1.0181
  115MOL0     H15821   0.479  10.672   4.346  0.2291  3.2351 -0.6613
  115MOL0     H15822   0.521  10.866   4.174 -1.5077 -0.0017 -0.5313
  115MOL0     H15823   0.554  10.747   4.063 -0.4233  1.6608  0.2402
  115MOL0     H15824   0.335  10.633   4.084 -1.2855  0.2259  0.9199
  115MOL0     H15825   0.288  10.760   4.197 -0.4034  0.3029 -0.2200
  115MOL0     H15826   0.369  10.792   3.910 -0.6297  0.3429 -0.0055
  115MOL0     H15827   0.208  10.773   3.947  1.8076 -1.7350 -1.1145
  115MOL0     H15828   0.072  10.839   4.097  0.5670  0.1430  0.3251
  115MOL0     H15829  -0.232  10.921   4.105 -1.3315 -0.5824  1.3541
  115MOL0     H15830  -0.211  11.009   4.256 -1.5083 -0.1048 -0.9123
  115MOL0     H15831  -0.124  10.858   4.237  1.1252  2.5405  3.0911
  115MOL0     H15832  -0.273  11.527   4.096 -1.2224 -0.6293 -0.2028
  115MOL0     H15833  -0.486  11.633   4.163  0.4837 -0.0693 -0.2140
  115MOL0     H15834  -0.693  11.612   4.223  2.1746  0.0479  0.8140
  115MOL0     H15835  -0.760  11.527   4.373  0.2499 -1.1689 -0.3775
  115MOL0     H15836  -0.724  11.827   4.322 -1.6753  0.0261 -0.4890
  115MOL0     H15837  -0.875  11.749   4.281  1.4956 -0.4692 -1.9515
  115MOL0     H15838  -0.776  11.725   4.567 -1.0421 -0.2983 -0.8260
  115MOL0     H15839  -0.935  11.719   4.501  0.4412 -0.4570  2.9899
  115MOL0     H15840  -0.955  11.936   4.464 -0.0934  0.3580  0.4748
  115MOL0     H15841  -0.776  11.974   4.473  1.8123  0.9347  3.2012
  115MOL0     H15842  -0.926  11.896   4.714  2.1879  0.1588  3.1832
  115MOL0     H15843  -0.755  11.925   4.699  1.6745 -0.2044 -5.2908
  115MOL0     H15844  -0.922  12.146   4.591  0.0197  0.1928  1.4440
  115MOL0     H15845  -0.764  12.145   4.674  1.1660 -1.5339 -0.4182
  115MOL0     H15846  -0.853  12.104   4.893  0.3748  0.5023 -0.8066
  115MOL0     H15847  -1.013  12.085   4.838 -0.9298  0.7891 -2.1081
  115MOL0     H15848  -0.860  12.358   4.826  0.2008 -0.7455  2.2136
  115MOL0     H15849  -0.986  12.327   4.944  2.5717  1.0089  1.2330
  115MOL0     H15850  -0.474  11.482   4.545 -5.7611  0.1754 -2.5121
  115MOL0     H15851  -0.250  11.337   4.481 -4.3372 -1.8188  2.1772
  115MOL0     H15852   0.074  11.340   4.083  0.3407 -0.3371  1.1703
  115MOL0     H15853   0.285  11.204   4.006 -0.2076 -1.1630 -0.1340
  115MOL0     H15854   1.039  10.077   3.451  0.1633 -0.8320  0.7601
  115MOL0     H15855   1.190  10.194   3.256  1.8625  0.0838  3.1405
  115MOL0     H15856   1.572  10.027   2.911  1.1525  0.1485  0.7476
  115MOL0     H15857   1.717  10.133   2.750 -1.3031 -1.9915  2.1723
  115MOL0     H15858   1.950  10.449   2.646  0.7175 -0.0985  0.0920
  115MOL0     H15859   1.918  10.279   2.681 -1.0338 -0.5530 -1.1808
  115MOL0     H15860   1.711  10.299   2.556 -0.9307 -0.1809 -0.9759
  115MOL0     H15861   1.838  10.345   2.446 -2.0268 -1.9472  0.0308
  115MOL0     H15862   1.611  10.507   2.574 -0.4308 -3.8594  1.7964
  115MOL0     H15863   1.766  10.598   2.545  0.1766 -0.7597 -1.9912
  115MOL0     H15864   1.761  10.532   2.304  1.0378 -5.5065  0.7418
  115MOL0     H15865   1.610  10.619   2.357 -1.0592 -0.0399  0.0102
  115MOL0     H15866   1.488  10.233   2.200  2.2339 -0.7889  0.5812
  115MOL0     H15867   1.655  10.506   2.953 -0.3759 -0.1719 -0.3411
  115MOL0     H15868   1.590  10.451   3.220  0.1386 -2.7600 -0.3713
  115MOL0     H15869   1.449  10.494   3.116  1.5243  0.5333 -2.1373
  115MOL0     H15870   1.439  10.356   3.219 -1.7628  1.3915 -0.0899
  116MOL0     O15871   5.949   9.964   4.034 -0.3996  0.2831 -0.0212
  116MOL0     C15872   5.973   9.853   3.999  0.1635 -0.3129 -0.7646
  116MOL0     O15873   6.023   9.816   3.876  0.5911  0.3094 -0.1970
  116MOL0     C15874   6.031   9.894   3.762 -0.5009 -0.0110  0.5341
  116MOL0     C15875   5.930   9.990   3.730 -0.0035 -0.7074  0.1581
  116MOL0     C15876   5.948  10.066   3.613  0.3009 -0.9152  0.0760
  116MOL0     C15877   6.051  10.035   3.516  0.5565 -1.2387 -0.0676
  116MOL0     O15878   6.043  10.110   3.400  0.1551 -0.1025 -0.3131
  116MOL0     C15879   6.055  10.037   3.275 -0.2616  0.7949  0.3920
  116MOL0     C15880   6.196  10.022   3.211  1.0268  0.0919  0.2365
  116MOL0     C15881   6.251  10.161   3.186  0.1065  0.1379  0.7920
  116MOL0     C15882   6.392  10.150   3.128 -0.3367 -0.9936  0.4527
  116MOL0     C15883   6.447  10.292   3.109  1.0213 -0.0242 -0.7538
  116MOL0     C15884   6.580  10.291   3.027  1.1838  0.4357  0.1706
  116MOL0     C15885   6.622  10.432   3.006 -0.0796 -0.4062  0.8333
  116MOL0     C15886   6.744  10.447   2.916 -0.3336 -0.4527 -0.2248
  116MOL0     N15887   6.863  10.424   2.994 -1.0354  0.3609 -0.0037
  116MOL0     C15888   6.934  10.494   3.090 -1.0077 -0.4394  0.6326
  116MOL0     C15889   7.030  10.415   3.134 -0.2076  0.4271  0.7451
  116MOL0     C15890   7.110  10.440   3.257  0.9283 -0.4761 -0.0558
  116MOL0     C15891   7.216  10.547   3.242 -0.2324  0.0743 -0.4059
  116MOL0     C15892   7.332  10.523   3.341  0.0696 -0.3253 -0.0448
  116MOL0     C15893   7.423  10.411   3.286 -0.0449 -0.7016  0.1706
  116MOL0     O15894   7.480  10.443   3.155  0.5719 -0.6141 -0.5063
  116MOL0     C15895   7.583  10.361   3.107  0.5998 -0.1896 -1.3906
  116MOL0     C15896   7.715  10.375   3.151  1.3104 -0.2786 -0.8523
  116MOL0     C15897   7.814  10.289   3.090  0.8827 -0.5129 -0.6482
  116MOL0     C15898   7.941  10.269   3.170 -1.2469 -0.7535  0.3668
  116MOL0     C15899   7.778  10.201   2.991  0.0824 -0.4656  1.4682
  116MOL0     C15900   7.874  10.092   2.935  0.0325 -0.6432 -1.2966
  116MOL0     O15901   7.984  10.144   2.875  0.0662  1.0289 -0.5444
  116MOL0     C15902   8.081  10.060   2.825  0.0367  0.4190  0.1990
  116MOL0     C15903   8.200  10.037   2.898 -0.0468  0.1776 -0.1827
  116MOL0     C15904   8.299   9.944   2.851  0.2795  0.4159 -0.3005
  116MOL0     C15905   8.286   9.894   2.718 -0.6229  0.0948  0.1315
  116MOL0     O15906   8.393   9.845   2.648 -0.3374  0.4157 -0.1526
  116MOL0     C15907   8.472   9.742   2.713 -0.5230  0.1402  0.0956
  116MOL0     C15908   8.594   9.714   2.630  0.4014 -1.0713  0.5893
  116MOL0     C15909   8.686   9.841   2.617 -0.3938 -0.5904 -0.7074
  116MOL0     C15910   8.809   9.804   2.543 -0.6185  0.2924  0.2466
  116MOL0     C15911   8.919   9.735   2.616 -0.2497  0.6314 -0.2726
  116MOL0     C15912   8.993   9.821   2.715  0.4872 -0.0839  0.0449
  116MOL0     C15913   9.077   9.751   2.813 -0.1949  0.7918 -0.3504
  116MOL0     C15914   9.190   9.834   2.878  0.2370  0.2436 -0.6292
  116MOL0    Cl15915   9.296   9.923   2.758 -0.3099 -0.1728 -0.6145
  116MOL0     C15916   8.173   9.926   2.644 -0.9036  0.3019  0.0547
  116MOL0     C15917   8.071  10.007   2.699  0.2074 -0.0168 -0.0242
  116MOL0     O15918   7.832   9.978   2.924 -0.0425  0.1819 -0.0585
  116MOL0     C15919   7.643  10.181   2.951  0.2171 -0.6605  0.8410
  116MOL0     C15920   7.548  10.269   3.006  0.0417 -0.2034  0.3397
  116MOL0     N15921   7.022  10.296   3.068 -0.1211  0.4798  0.4667
  116MOL0     N15922   6.920  10.297   2.996  0.0998  0.8605 -0.1926
  116MOL0     C15923   6.146   9.934   3.547 -0.7699 -0.0288 -0.1341
  116MOL0     C15924   6.142   9.873   3.670 -0.2300  0.5220 -0.0522
  116MOL0     C15925   5.930   9.746   4.097 -0.0631  1.1407  0.0394
  116MOL0     C15926   5.964   9.616   4.060 -0.1330  0.1822 -1.4962
  116MOL0     C15927   5.941   9.522   4.157 -0.2919  0.6904 -0.6046
  116MOL0     C15928   5.875   9.535   4.278  0.3184 -0.9079 -0.6701
  116MOL0     O15929   5.846   9.437   4.371  0.0637 -0.1620  0.0792
  116MOL0     C15930   5.877   9.299   4.341 -0.1897  0.4830 -1.2843
  116MOL0     C15931   5.783   9.217   4.262  0.1041  0.9275  0.2448
  116MOL0     C15932   5.819   9.067   4.255 -0.2301 -0.4764 -0.0682
  116MOL0     C15933   5.801   8.996   4.389 -0.3385 -0.2778 -0.5566
  116MOL0     C15934   5.672   9.008   4.450  0.6846 -0.5014  0.9870
  116MOL0     C15935   5.552   9.010   4.486 -0.1983  0.2280 -0.3383
  116MOL0     C15936   5.832   9.662   4.304  0.1002 -0.1233 -0.6450
  116MOL0     C15937   5.864   9.768   4.217 -0.2421 -0.1689 -0.1208
  116MOL0     C15938   5.796   9.902   4.257  0.5994 -0.3323  0.5240
  116MOL0     H15939   5.845  10.005   3.797 -1.2802 -1.4879 -1.2313
  116MOL0     H15940   5.866  10.134   3.596  0.9970  0.4935  1.9946
  116MOL0     H15941   5.989  10.086   3.204 -3.5519 -2.9231  0.5262
  116MOL0     H15942   6.002   9.941   3.275  0.9694  0.0801  1.1724
  116MOL0     H15943   6.265   9.970   3.277 -0.6101 -4.6403 -1.3926
  116MOL0     H15944   6.189   9.957   3.123 -2.8169 -0.7451  0.9797
  116MOL0     H15945   6.185  10.233   3.137 -0.1345  0.8294  2.0868
  116MOL0     H15946   6.258  10.203   3.287 -0.6288 -1.2008  1.4248
  116MOL0     H15947   6.451  10.087   3.195  0.6434  0.3229  0.8783
  116MOL0     H15948   6.389  10.098   3.032  2.6672  0.2274 -0.4234
  116MOL0     H15949   6.454  10.345   3.205  1.1612 -0.1700 -0.6831
  116MOL0     H15950   6.370  10.350   3.057 -0.2548 -1.1096 -0.1443
  116MOL0     H15951   6.641  10.245   3.105 -1.0893 -1.7119  0.7945
  116MOL0     H15952   6.583  10.231   2.936  0.9044  0.7583 -0.0534
  116MOL0     H15953   6.656  10.477   3.100  1.5991  0.3611 -0.1041
  116MOL0     H15954   6.544  10.494   2.962  1.1017  1.1471  0.8418
  116MOL0     H15955   6.735  10.376   2.834  0.9219  0.4923 -1.2081
  116MOL0     H15956   6.739  10.548   2.874 -1.3630 -0.1329  0.6142
  116MOL0     H15957   6.899  10.585   3.139 -1.3209 -0.8402  1.1578
  116MOL0     H15958   7.150  10.341   3.283 -2.0339 -2.2663 -1.7028
  116MOL0     H15959   7.045  10.470   3.339 -0.6700  1.3109 -1.8627
  116MOL0     H15960   7.244  10.546   3.137  1.3570  1.8751 -0.0498
  116MOL0     H15961   7.164  10.642   3.259  0.8455  0.4845  0.7533
  116MOL0     H15962   7.397  10.610   3.353 -0.7108  0.3454 -0.5385
  116MOL0     H15963   7.310  10.489   3.443  1.9799  3.0316  1.6291
  116MOL0     H15964   7.501  10.382   3.357  0.5663 -1.9627 -0.9661
  116MOL0     H15965   7.363  10.321   3.277 -0.4836 -0.3112 -1.1630
  116MOL0     H15966   7.749  10.447   3.225  0.9854  0.3723 -1.3266
  116MOL0     H15967   7.925  10.208   3.259 -1.7120 -0.8109  0.2448
  116MOL0     H15968   7.976  10.369   3.199 -1.1398 -0.0290 -2.0583
  116MOL0     H15969   8.020  10.231   3.104 -2.6898 -1.8868 -0.7671
  116MOL0     H15970   8.211  10.088   2.993 -2.7297  0.1362  0.2274
  116MOL0     H15971   8.393   9.927   2.902 -0.2078 -2.0961 -0.1338
  116MOL0     H15972   8.504   9.760   2.816  0.3274  1.3768 -0.3611
  116MOL0     H15973   8.399   9.661   2.724 -3.2552  2.5953  1.4792
  116MOL0     H15974   8.641   9.629   2.680 -0.4002 -0.8279  1.8098
  116MOL0     H15975   8.555   9.692   2.531  0.1429 -1.4588  0.7735
  116MOL0     H15976   8.714   9.872   2.718  6.2715 -0.3606 -2.1382
  116MOL0     H15977   8.633   9.921   2.564 -1.4769  0.0237  1.1969
  116MOL0     H15978   8.858   9.895   2.506  1.7856 -0.6172  0.9911
  116MOL0     H15979   8.771   9.767   2.447 -3.1749  1.7558  0.6231
  116MOL0     H15980   8.877   9.645   2.662  0.4575  1.2894  1.7612
  116MOL0     H15981   8.982   9.693   2.538 -1.8641  1.6497 -2.2335
  116MOL0     H15982   8.922   9.891   2.759 -1.6369 -1.4411 -1.0812
  116MOL0     H15983   9.059   9.883   2.652  1.5717 -1.2820 -0.0413
  116MOL0     H15984   9.127   9.672   2.757 -3.3963  0.3119 -2.8442
  116MOL0     H15985   9.013   9.710   2.892  1.8740  0.6037  1.3282
  116MOL0     H15986   9.253   9.773   2.943  0.3631  0.5273 -0.4830
  116MOL0     H15987   9.142   9.915   2.933 -0.9467 -1.3098  0.6984
  116MOL0     H15988   8.160   9.906   2.538 -1.2778 -0.9627  0.3276
  116MOL0     H15989   7.979  10.023   2.643  0.8497  0.6395 -0.9164
  116MOL0     H15990   7.609  10.113   2.874 -2.2331  2.4291 -1.0564
  116MOL0     H15991   7.441  10.267   2.992  0.0432 -0.6559  0.3564
  116MOL0     H15992   6.226   9.892   3.487 -0.6876 -0.8533  0.5328
  116MOL0     H15993   6.217   9.798   3.690  3.5041  3.0370 -3.1271
  116MOL0     H15994   6.003   9.596   3.961  0.8335  0.3141 -1.1525
  116MOL0     H15995   5.992   9.430   4.131 -1.6579  0.3815 -2.3791
  116MOL0     H15996   5.982   9.279   4.316  0.7012  0.0855  2.2445
  116MOL0     H15997   5.870   9.262   4.444  2.3433  1.7053 -0.5925
  116MOL0     H15998   5.792   9.254   4.160  0.1990 -0.7326 -0.3855
  116MOL0     H15999   5.687   9.234   4.311  1.1808  1.9994  2.0951
  116MOL0     H16000   5.767   9.010   4.178  0.6127 -1.2267 -0.0937
  116MOL0     H16001   5.925   9.060   4.227 -0.9651 -4.1357 -2.6206
  116MOL0     H16002   5.870   9.026   4.467 -1.5683  1.0385  0.0783
  116MOL0     H16003   5.818   8.891   4.366 -0.1604 -0.0444 -1.5295
  116MOL0     H16004   5.460   8.998   4.540  1.0277 -1.4869  1.5446
  116MOL0     H16005   5.789   9.681   4.401 -2.5885 -1.1864 -1.5402
  116MOL0     H16006   5.742   9.942   4.170  0.4288 -0.1946  0.6924
  116MOL0     H16007   5.726   9.881   4.338 -3.1609  1.8795 -1.8183
  116MOL0     H16008   5.873   9.976   4.283  0.8414  0.4832 -2.1912
  117MOL0     O16009   6.142  11.463   8.187 -0.1792  0.2256  0.0099
  117MOL0     C16010   6.041  11.448   8.254 -0.0578 -0.8863 -0.8737
  117MOL0     O16011   5.968  11.545   8.310 -0.1622  0.5432 -0.5965
  117MOL0     C16012   6.012  11.672   8.300 -0.2205  0.3107  0.3902
  117MOL0     C16013   5.986  11.753   8.414 -0.4324  1.1668  0.1439
  117MOL0     C16014   6.014  11.893   8.413  1.2666  0.7259 -0.3801
  117MOL0     C16015   6.059  11.956   8.298 -0.5959  0.6908 -0.7838
  117MOL0     O16016   6.093  12.087   8.297 -0.5208  0.1060  0.2378
  117MOL0     C16017   6.144  12.171   8.186 -0.3528 -0.0619 -0.1498
  117MOL0     C16018   6.299  12.154   8.191 -0.1490 -0.1446 -0.3659
  117MOL0     C16019   6.372  12.239   8.070 -0.1680  0.2238 -0.8217
  117MOL0     C16020   6.478  12.170   7.996 -0.6254  0.0033  0.6353
  117MOL0     C16021   6.571  12.090   8.085  0.2614  0.6039  0.6874
  117MOL0     C16022   6.703  12.074   8.023 -0.3013 -0.1206 -0.3302
  117MOL0     C16023   6.793  12.004   8.132  0.2469  1.9427  0.4085
  117MOL0     C16024   6.793  12.053   8.287  0.2161  1.4634  1.2159
  117MOL0     N16025   6.880  11.973   8.374  0.1903  0.5451  0.4406
  117MOL0     C16026   7.000  11.925   8.337 -1.2958  0.6000  0.9087
  117MOL0     C16027   7.042  11.824   8.418  0.1730  0.7141 -0.6925
  117MOL0     C16028   7.176  11.749   8.407 -0.2154 -0.1589  0.1411
  117MOL0     C16029   7.145  11.617   8.342  0.0975  0.0270  0.5459
  117MOL0     C16030   7.274  11.561   8.277  0.4268 -0.3224  0.4541
  117MOL0     C16031   7.264  11.415   8.217  0.5713  0.3422  0.1843
  117MOL0     O16032   7.372  11.381   8.127 -0.1371 -0.4568  0.2667
  117MOL0     C16033   7.499  11.366   8.176 -0.2469 -1.2503 -0.4345
  117MOL0     C16034   7.606  11.435   8.109 -0.3988  0.8504  1.0104
  117MOL0     C16035   7.739  11.404   8.119  0.2929 -0.5280  0.2755
  117MOL0     C16036   7.837  11.467   8.025 -0.9630  0.2359 -0.2025
  117MOL0     C16037   7.771  11.297   8.213 -0.5118 -0.2665 -0.6083
  117MOL0     C16038   7.904  11.233   8.243 -0.3619  0.7943 -0.5378
  117MOL0     O16039   8.013  11.303   8.216 -0.0616  0.0283  0.2423
  117MOL0     C16040   8.140  11.275   8.264 -0.2936  0.4767  0.1588
  117MOL0     C16041   8.249  11.277   8.176  0.9559 -0.1229 -0.0750
  117MOL0     C16042   8.382  11.236   8.211 -0.2750 -0.4734  0.3042
  117MOL0     C16043   8.412  11.199   8.344  0.3392 -0.1615 -0.0988
  117MOL0     O16044   8.536  11.158   8.377 -0.2154  0.0866  0.5386
  117MOL0     C16045   8.651  11.164   8.295 -0.3534  0.0452 -0.2872
  117MOL0     C16046   8.773  11.103   8.358 -0.1778 -0.3502  0.3451
  117MOL0     C16047   8.810  11.159   8.495 -0.5613  0.5220 -0.1713
  117MOL0     C16048   8.931  11.091   8.560 -0.2514  0.2857  0.5093
  117MOL0     C16049   8.955  11.145   8.699 -1.2086 -0.2783 -0.5985
  117MOL0     C16050   9.063  11.070   8.767 -0.3206 -1.0836  0.7222
  117MOL0     C16051   9.077  11.101   8.910 -0.1444 -0.2216  0.3108
  117MOL0     C16052   9.195  11.034   8.962 -0.2613 -0.0689 -0.1270
  117MOL0    Cl16053   9.214  11.042   9.131  0.0049  0.0174 -0.1205
  117MOL0     C16054   8.306  11.207   8.440  0.5158  0.3869  0.2913
  117MOL0     C16055   8.172  11.237   8.394  0.1379  0.2018 -0.0815
  117MOL0     O16056   7.907  11.111   8.272 -0.1953 -0.4848 -0.3125
  117MOL0     C16057   7.665  11.237   8.290  0.4225  0.6035 -0.0587
  117MOL0     C16058   7.524  11.281   8.276 -1.1611 -0.3991  0.0549
  117MOL0     N16059   6.940  11.809   8.507 -0.5061 -0.2290 -0.0587
  117MOL0     N16060   6.844  11.889   8.473 -0.0148  0.4720 -0.2023
  117MOL0     C16061   6.077  11.880   8.181 -0.7528 -0.4947  0.2988
  117MOL0     C16062   6.056  11.740   8.178 -0.0240  0.9772  0.7166
  117MOL0     C16063   5.977  11.314   8.265 -0.9969  0.8237 -0.3242
  117MOL0     C16064   5.835  11.305   8.261 -0.2277 -0.2162  0.0970
  117MOL0     C16065   5.763  11.195   8.272  0.0586  0.4541  0.1804
  117MOL0     C16066   5.832  11.084   8.305 -0.1627 -0.8502 -0.1833
  117MOL0     O16067   5.753  10.978   8.327 -0.3909  0.6098  0.0472
  117MOL0     C16068   5.786  10.877   8.421 -0.0061  0.1468  0.3429
  117MOL0     C16069   5.758  10.918   8.563 -0.3909 -0.7496 -0.6134
  117MOL0     C16070   5.786  10.819   8.671  0.2246 -0.4839  0.4479
  117MOL0     C16071   5.776  10.889   8.801  0.2328 -0.0847 -0.2719
  117MOL0     C16072   5.640  10.892   8.855  0.3964  0.1479 -0.0777
  117MOL0     C16073   5.526  10.892   8.900 -1.5031  0.3526 -0.7232
  117MOL0     C16074   5.977  11.080   8.308  0.6569 -0.0628  0.2056
  117MOL0     C16075   6.052  11.194   8.275 -0.1319 -0.9418 -0.0840
  117MOL0     C16076   6.199  11.177   8.264 -0.4988  1.1658  0.1903
  117MOL0     H16077   5.950  11.717   8.509  1.2382  0.4220  0.5339
  117MOL0     H16078   5.993  11.944   8.506  1.8728 -0.1129  0.2312
  117MOL0     H16079   6.128  12.275   8.214  4.8121  0.6389  1.2275
  117MOL0     H16080   6.100  12.141   8.090 -0.0477 -0.8161 -0.0578
  117MOL0     H16081   6.333  12.172   8.294  0.3042 -3.7688  0.2776
  117MOL0     H16082   6.313  12.047   8.171 -2.4273 -0.2733 -1.5234
  117MOL0     H16083   6.300  12.280   7.998 -0.3857 -0.4748 -1.0122
  117MOL0     H16084   6.420  12.330   8.108  1.0440 -0.1146 -1.4773
  117MOL0     H16085   6.436  12.110   7.915 -0.7189  1.1233 -0.1704
  117MOL0     H16086   6.535  12.238   7.933 -1.0558 -2.6700 -2.9292
  117MOL0     H16087   6.526  11.992   8.102  1.1085  0.4797  2.4026
  117MOL0     H16088   6.584  12.152   8.174  2.2193  0.2203  0.7087
  117MOL0     H16089   6.697  12.022   7.927 -3.4092  0.1736 -0.3727
  117MOL0     H16090   6.731  12.179   8.007 -4.3107  1.0557 -0.5347
  117MOL0     H16091   6.895  12.016   8.095  0.0107 -0.1559 -1.1590
  117MOL0     H16092   6.776  11.896   8.126  1.4635  1.7598 -0.1517
  117MOL0     H16093   6.836  12.153   8.283 -0.0104  1.5705 -2.6329
  117MOL0     H16094   6.696  12.070   8.335 -0.4730  1.1440 -0.0008
  117MOL0     H16095   7.067  11.963   8.261  0.4115  0.0923  2.1094
  117MOL0     H16096   7.216  11.734   8.508 -2.3657 -1.2247  0.9005
  117MOL0     H16097   7.234  11.814   8.340  0.4291 -0.3838  0.4728
  117MOL0     H16098   7.096  11.540   8.403 -2.0271 -0.0120 -1.0776
  117MOL0     H16099   7.070  11.632   8.263  0.3782  1.5397  0.5311
  117MOL0     H16100   7.305  11.628   8.196  0.1668 -0.4798  0.2183
  117MOL0     H16101   7.353  11.549   8.351 -1.3739 -1.6249  2.2866
  117MOL0     H16102   7.257  11.344   8.299  1.6342 -0.3385 -0.2987
  117MOL0     H16103   7.168  11.405   8.166 -1.6263 -1.1116  4.1982
  117MOL0     H16104   7.567  11.504   8.034  2.3935  0.3172 -1.0737
  117MOL0     H16105   7.879  11.541   8.094 -0.8430  0.0269 -0.0525
  117MOL0     H16106   7.791  11.512   7.936 -0.6656  1.7614  0.3695
  117MOL0     H16107   7.920  11.399   8.003  0.1331  0.2524  3.3049
  117MOL0     H16108   8.227  11.289   8.071  0.0647 -3.6149 -0.4004
  117MOL0     H16109   8.462  11.259   8.141 -0.7891  2.5437  0.5852
  117MOL0     H16110   8.643  11.110   8.200  1.8443 -4.9877  2.0078
  117MOL0     H16111   8.670  11.269   8.268  2.1500  0.0434  1.1573
  117MOL0     H16112   8.751  10.999   8.379 -1.0305 -0.1844  0.2976
  117MOL0     H16113   8.853  11.106   8.283  0.7232  2.0225  1.2827
  117MOL0     H16114   8.720  11.163   8.556 -0.9547 -0.0672 -0.6996
  117MOL0     H16115   8.844  11.263   8.488 -0.8404  0.5843 -0.6696
  117MOL0     H16116   9.020  11.123   8.506  0.6482  0.3932  2.0166
  117MOL0     H16117   8.923  10.982   8.554 -0.8008  0.2839  1.1492
  117MOL0     H16118   8.977  11.253   8.697 -0.4955 -0.4135 -0.4619
  117MOL0     H16119   8.866  11.128   8.761 -2.2525  3.9927 -0.6154
  117MOL0     H16120   9.158  11.097   8.720 -0.4772  1.1048  1.5474
  117MOL0     H16121   9.038  10.964   8.756  0.6733 -1.4441  1.7432
  117MOL0     H16122   8.993  11.057   8.965  1.3331 -3.6402  0.1199
  117MOL0     H16123   9.085  11.210   8.915 -0.2495 -0.1484 -0.8554
  117MOL0     H16124   9.287  11.073   8.919 -0.0578  2.8841  2.6301
  117MOL0     H16125   9.188  10.928   8.936  0.5271  0.1454 -1.2710
  117MOL0     H16126   8.321  11.180   8.544 -1.8011  0.0997  0.6011
  117MOL0     H16127   8.093  11.243   8.468  2.5158 -0.6929  2.7567
  117MOL0     H16128   7.675  11.166   8.371  1.7606  2.6543  1.7191
  117MOL0     H16129   7.443  11.230   8.326 -0.2288 -0.7405  1.2655
  117MOL0     H16130   6.109  11.921   8.086  1.4981  2.0214  2.0307
  117MOL0     H16131   6.067  11.695   8.080  1.8327 -0.1229  1.3694
  117MOL0     H16132   5.790  11.401   8.236 -0.0760 -0.4149 -1.0003
  117MOL0     H16133   5.656  11.203   8.254  0.0017 -0.0996  0.2579
  117MOL0     H16134   5.724  10.789   8.401  0.6752 -0.4682  0.9052
  117MOL0     H16135   5.893  10.857   8.413 -0.2456 -0.3750 -3.9918
  117MOL0     H16136   5.651  10.940   8.556 -1.1383 -3.0307  1.9393
  117MOL0     H16137   5.815  11.010   8.575 -1.0498 -0.4001 -0.0935
  117MOL0     H16138   5.721  10.731   8.664 -1.2602  0.6593 -0.9027
  117MOL0     H16139   5.890  10.788   8.658  2.2496  4.6232  1.9975
  117MOL0     H16140   5.815  10.989   8.780  2.4069 -0.9153 -0.4685
  117MOL0     H16141   5.844  10.839   8.871  3.6080  1.2182 -2.3511
  117MOL0     H16142   5.431  10.885   8.949 -1.1620  0.3918 -0.0477
  117MOL0     H16143   6.029  10.986   8.325 -1.5935 -1.6840 -1.3674
  117MOL0     H16144   6.209  11.074   8.230  0.2929  2.0665 -2.5640
  117MOL0     H16145   6.254  11.245   8.198  1.4464  1.3691  1.8927
  117MOL0     H16146   6.248  11.185   8.362  0.2240 -2.5072  0.2546
  118MOL0     O16147   0.491   2.861   7.284  0.0241 -0.2104 -0.4337
  118MOL0     C16148   0.445   2.746   7.282 -0.5756  0.2524  0.0700
  118MOL0     O16149   0.491   2.639   7.351 -0.5057 -0.3909  0.3985
  118MOL0     C16150   0.609   2.637   7.414 -0.4007  0.2213  0.0111
  118MOL0     C16151   0.716   2.732   7.412  0.2747 -0.9145  0.0013
  118MOL0     C16152   0.824   2.720   7.502 -0.1275 -0.7855  0.9085
  118MOL0     C16153   0.839   2.613   7.585  0.3641  1.2282 -0.2175
  118MOL0     O16154   0.946   2.617   7.671 -0.1814 -0.2045 -0.0437
  118MOL0     C16155   1.015   2.495   7.692 -0.1953  0.1965  0.8467
  118MOL0     C16156   1.161   2.528   7.677 -0.8443 -0.1512 -0.0684
  118MOL0     C16157   1.250   2.416   7.708 -0.0591  0.4294  0.1245
  118MOL0     C16158   1.400   2.465   7.691 -0.7740  0.6543  0.0798
  118MOL0     C16159   1.508   2.368   7.756 -0.0664 -0.1876 -0.2491
  118MOL0     C16160   1.651   2.403   7.741 -0.3095 -0.6874  0.3404
  118MOL0     C16161   1.756   2.298   7.748  0.1575 -0.2298  0.1176
  118MOL0     C16162   1.795   2.274   7.895  0.0128 -0.8522 -0.3379
  118MOL0     N16163   1.936   2.225   7.914  0.1058 -0.5139  0.2446
  118MOL0     C16164   2.058   2.302   7.919  0.7908 -0.9379 -0.0475
  118MOL0     C16165   2.147   2.216   7.978 -0.2763 -0.2136 -0.2712
  118MOL0     C16166   2.298   2.245   7.985  0.3518 -0.4642  0.1506
  118MOL0     C16167   2.375   2.173   8.098 -0.0401  0.4952 -0.4405
  118MOL0     C16168   2.314   2.173   8.241 -0.5192  0.3191  0.4980
  118MOL0     C16169   2.412   2.092   8.336  0.3516 -0.1630  0.0568
  118MOL0     O16170   2.536   2.162   8.350 -0.2859 -0.0371  0.1423
  118MOL0     C16171   2.534   2.270   8.428 -0.5373  0.3256  0.1440
  118MOL0     C16172   2.572   2.394   8.374 -0.7665 -0.3703  0.0193
  118MOL0     C16173   2.597   2.507   8.455  0.0787  1.2070  0.7286
  118MOL0     C16174   2.628   2.636   8.386 -0.6542  0.0795 -0.4700
  118MOL0     C16175   2.565   2.496   8.593 -0.2012 -0.2410  0.0688
  118MOL0     C16176   2.559   2.621   8.688 -0.0777 -0.3674  0.5685
  118MOL0     O16177   2.511   2.605   8.819  0.5003  0.3976 -0.0843
  118MOL0     C16178   2.439   2.694   8.887 -1.4559 -0.2047 -0.3422
  118MOL0     C16179   2.383   2.812   8.840 -0.5030 -0.1506 -0.1972
  118MOL0     C16180   2.308   2.890   8.928 -0.7384  0.8454  0.3135
  118MOL0     C16181   2.281   2.850   9.059  0.2756  0.4002  0.5488
  118MOL0     O16182   2.194   2.928   9.132  0.5970 -0.0008 -0.6883
  118MOL0     C16183   2.122   2.876   9.251 -0.9258 -0.4753  0.4664
  118MOL0     C16184   2.037   2.987   9.309 -0.6646  1.2008 -0.0479
  118MOL0     C16185   1.924   3.041   9.213  0.5632 -0.3386 -0.2150
  118MOL0     C16186   1.838   3.150   9.295 -0.7539  0.7483 -0.9986
  118MOL0     C16187   1.710   3.192   9.238  0.3578 -1.0647  0.2769
  118MOL0     C16188   1.596   3.078   9.249 -0.3947 -0.7692 -0.4674
  118MOL0     C16189   1.468   3.136   9.192 -0.4140  0.1674  0.8673
  118MOL0     C16190   1.358   3.039   9.201 -0.0500  0.6268 -0.8207
  118MOL0    Cl16191   1.320   3.003   9.371  0.2489  0.5015  0.4257
  118MOL0     C16192   2.339   2.729   9.099  0.1055  0.1824 -0.3613
  118MOL0     C16193   2.423   2.658   9.017  0.2606  0.1612  0.2204
  118MOL0     O16194   2.591   2.728   8.641 -0.2033 -0.8457 -0.7038
  118MOL0     C16195   2.531   2.374   8.645  0.0943  0.6112 -0.3418
  118MOL0     C16196   2.512   2.264   8.559 -0.7961  0.0513 -0.8609
  118MOL0     N16197   2.083   2.096   8.004 -0.4716  0.1662  0.6850
  118MOL0     N16198   1.968   2.100   7.961 -0.0223 -0.5167  0.4400
  118MOL0     C16199   0.734   2.521   7.595  0.7672  0.0552 -0.0737
  118MOL0     C16200   0.620   2.544   7.518  0.0179  0.3998  0.2127
  118MOL0     C16201   0.326   2.713   7.197 -0.2655 -0.0200 -0.0946
  118MOL0     C16202   0.259   2.591   7.206  0.6773 -0.0415  0.2983
  118MOL0     C16203   0.139   2.558   7.128  0.2629  0.3771 -0.5264
  118MOL0     C16204   0.075   2.657   7.060 -0.9994 -0.7347 -0.6738
  118MOL0     O16205  -0.041   2.633   7.002  0.6362  0.4855  0.6756
  118MOL0     C16206  -0.069   2.700   6.883  0.2152  0.2407  0.4508
  118MOL0     C16207  -0.181   2.615   6.824  0.7894 -0.2707  0.9074
  118MOL0     C16208  -0.239   2.652   6.688 -1.0489 -0.3123  0.2037
  118MOL0     C16209  -0.274   2.526   6.606 -0.4120  0.7580 -0.5652
  118MOL0     C16210  -0.394   2.456   6.663 -0.2871 -0.8717 -0.0598
  118MOL0     C16211  -0.483   2.421   6.736  0.6673  0.3022 -0.4364
  118MOL0     C16212   0.144   2.784   7.046  0.5882 -0.0967  0.5235
  118MOL0     C16213   0.267   2.811   7.112  0.9030 -0.0039  1.3205
  118MOL0     C16214   0.325   2.942   7.084 -1.3772 -0.3294 -0.4958
  118MOL0     H16215   0.706   2.816   7.344 -1.3392  0.5390  1.9160
  118MOL0     H16216   0.902   2.794   7.493 -1.5098  0.7283  0.9253
  118MOL0     H16217   0.979   2.420   7.620 -0.0745  0.7281  0.2217
  118MOL0     H16218   1.003   2.452   7.792 -1.3437 -1.8846 -0.1042
  118MOL0     H16219   1.180   2.554   7.573 -0.3962  0.2059  0.0991
  118MOL0     H16220   1.185   2.615   7.739 -0.8564 -0.7895  0.8543
  118MOL0     H16221   1.233   2.384   7.811 -2.0654  1.9781  0.3416
  118MOL0     H16222   1.223   2.342   7.632  0.9502 -0.9807  1.1067
  118MOL0     H16223   1.425   2.467   7.585  2.1956 -4.0615  0.4055
  118MOL0     H16224   1.414   2.567   7.729  0.3024  0.3762  0.4587
  118MOL0     H16225   1.497   2.266   7.717  1.6167 -0.6425  0.3511
  118MOL0     H16226   1.489   2.374   7.864 -1.9131  0.9164 -0.5990
  118MOL0     H16227   1.659   2.439   7.638 -4.0846 -0.6901 -0.0757
  118MOL0     H16228   1.684   2.485   7.805  0.7850 -1.2286  0.4901
  118MOL0     H16229   1.838   2.323   7.680 -0.0353 -0.3491 -0.1645
  118MOL0     H16230   1.715   2.204   7.710  0.2070 -0.3382  0.3363
  118MOL0     H16231   1.791   2.372   7.944 -0.8517 -2.3726  2.8751
  118MOL0     H16232   1.723   2.209   7.946 -2.4605  2.7952  1.3137
  118MOL0     H16233   2.071   2.408   7.897 -2.6967  0.2742  2.7556
  118MOL0     H16234   2.314   2.352   7.998 -3.0807  0.0783  0.8136
  118MOL0     H16235   2.338   2.226   7.885 -1.7459 -1.8033 -0.4923
  118MOL0     H16236   2.389   2.069   8.065  1.8482  1.2357 -2.2242
  118MOL0     H16237   2.476   2.216   8.097 -0.3077  1.4197 -4.0567
  118MOL0     H16238   2.312   2.275   8.280 -0.6507  0.3702  0.3536
  118MOL0     H16239   2.212   2.134   8.240 -1.2744  2.0865  2.1323
  118MOL0     H16240   2.367   2.073   8.433  0.4019  0.4613  0.2063
  118MOL0     H16241   2.436   1.993   8.295  2.2158  0.5365 -0.6716
  118MOL0     H16242   2.586   2.417   8.269  4.2852 -0.5787  0.4204
  118MOL0     H16243   2.698   2.671   8.462  0.1349 -1.1373 -0.6162
  118MOL0     H16244   2.540   2.701   8.382 -0.0125  0.9556 -0.6691
  118MOL0     H16245   2.673   2.631   8.287 -2.0753 -1.7715 -1.0918
  118MOL0     H16246   2.394   2.840   8.736  1.6040 -2.1177 -0.5960
  118MOL0     H16247   2.270   2.985   8.893  2.0752  2.1212  0.4050
  118MOL0     H16248   2.058   2.795   9.215  0.6562 -1.7542  0.4481
  118MOL0     H16249   2.195   2.838   9.323  0.0318  0.6017  0.0888
  118MOL0     H16250   1.993   2.929   9.390 -2.7102 -1.7640 -3.0037
  118MOL0     H16251   2.108   3.057   9.353  0.1000  2.2447 -2.7628
  118MOL0     H16252   1.863   2.959   9.175  2.8918 -2.6705  0.8098
  118MOL0     H16253   1.968   3.080   9.120 -1.2769 -0.5084 -1.2220
  118MOL0     H16254   1.892   3.242   9.318 -3.5409  2.2772 -0.1139
  118MOL0     H16255   1.818   3.107   9.394 -0.4739  1.4991 -0.6126
  118MOL0     H16256   1.684   3.282   9.293  1.1585 -1.4787  1.3672
  118MOL0     H16257   1.740   3.221   9.136  2.5199 -0.1904  1.0912
  118MOL0     H16258   1.581   3.055   9.355 -0.2848 -0.3293 -0.3535
  118MOL0     H16259   1.630   2.981   9.210  0.9577  0.6913 -3.2355
  118MOL0     H16260   1.479   3.162   9.087 -1.9025 -0.2454  0.5791
  118MOL0     H16261   1.442   3.223   9.254  1.1870  0.2239  1.5173
  118MOL0     H16262   1.376   2.950   9.141  0.5263  1.2497 -1.5984
  118MOL0     H16263   1.277   3.094   9.151  0.9022  2.0346 -0.8930
  118MOL0     H16264   2.315   2.688   9.196 -1.6453  0.8466 -0.4737
  118MOL0     H16265   2.462   2.559   9.039 -1.8681 -0.6734  0.4636
  118MOL0     H16266   2.500   2.375   8.749 -0.5623 -0.6571 -0.5079
  118MOL0     H16267   2.488   2.167   8.603  2.9495  0.3177  2.3399
  118MOL0     H16268   0.725   2.451   7.678 -3.2492  2.4094  1.7940
  118MOL0     H16269   0.532   2.481   7.528  0.2254 -0.1191 -1.0237
  118MOL0     H16270   0.307   2.514   7.266  1.3589  1.5257  1.8347
  118MOL0     H16271   0.084   2.465   7.115  0.0907  0.7465 -2.9026
  118MOL0     H16272  -0.111   2.798   6.909 -2.2438 -1.3922  3.2344
  118MOL0     H16273   0.014   2.699   6.812 -0.0895 -0.6610  0.0933
  118MOL0     H16274  -0.270   2.603   6.887  1.2289  3.4901  2.5240
  118MOL0     H16275  -0.135   2.518   6.804  0.4809 -0.2473  0.0365
  118MOL0     H16276  -0.335   2.705   6.694 -0.7168  0.1535  1.9965
  118MOL0     H16277  -0.178   2.726   6.637 -1.0204 -0.4426  0.0484
  118MOL0     H16278  -0.193   2.453   6.596  1.2625  2.7643 -2.8455
  118MOL0     H16279  -0.294   2.546   6.501  0.6820  2.3517 -0.5100
  118MOL0     H16280  -0.561   2.390   6.803 -0.3775 -1.2538 -2.2593
  118MOL0     H16281   0.101   2.848   6.970 -1.7019 -3.8788 -1.6889
  118MOL0     H16282   0.424   2.942   7.039  0.6903 -0.7327  3.5872
  118MOL0     H16283   0.257   2.999   7.020 -0.1652  0.8822 -0.7444
  118MOL0     H16284   0.345   2.995   7.178  3.2378 -0.8207 -0.9687
  119MOL0     O16285  10.329   4.661   2.587  0.2152  0.2317  0.3677
  119MOL0     C16286  10.223   4.686   2.647 -0.2778 -0.9377  0.1526
  119MOL0     O16287  10.192   4.665   2.776  0.8454  0.3051 -0.7756
  119MOL0     C16288  10.279   4.574   2.846 -0.0365  0.4781 -0.0463
  119MOL0     C16289  10.349   4.610   2.962  0.0514 -0.1440 -0.2503
  119MOL0     C16290  10.404   4.517   3.037 -0.9315  0.2543 -0.1258
  119MOL0     C16291  10.415   4.386   2.997  0.2455 -0.1751  0.4610
  119MOL0     O16292  10.478   4.292   3.077  0.3682 -0.2830 -0.0892
  119MOL0     C16293  10.453   4.149   3.054  0.2830  0.6029  1.0717
  119MOL0     C16294  10.479   4.080   3.184  0.3932 -0.2907 -0.4577
  119MOL0     C16295  10.406   3.949   3.175  0.0468 -0.1469 -0.3090
  119MOL0     C16296  10.473   3.859   3.271 -0.4159  0.6309 -0.2964
  119MOL0     C16297  10.402   3.729   3.296 -0.2417  0.6679 -0.6821
  119MOL0     C16298  10.398   3.645   3.171 -0.2269 -0.6397 -0.2612
  119MOL0     C16299  10.294   3.530   3.183 -0.6315  0.1735 -0.5634
  119MOL0     C16300  10.141   3.559   3.180 -1.6416 -0.3760 -0.0704
  119MOL0     N16301  10.110   3.676   3.095 -0.4125  0.4829 -0.0311
  119MOL0     C16302  10.137   3.678   2.961 -0.4557 -0.4686 -0.4056
  119MOL0     C16303  10.105   3.812   2.932 -0.7224 -0.6443  0.4531
  119MOL0     C16304  10.098   3.875   2.802 -0.7248  0.8096 -0.3353
  119MOL0     C16305  10.219   3.851   2.711 -0.0412 -0.2536  0.4901
  119MOL0     C16306  10.238   3.964   2.606 -1.3276  0.4800 -0.6574
  119MOL0     C16307  10.339   3.914   2.499 -0.2358 -0.6063  0.0783
  119MOL0     O16308  10.444   3.837   2.558 -0.2814 -0.2012  1.2843
  119MOL0     C16309  10.537   3.886   2.640 -0.3356 -0.6175 -0.5631
  119MOL0     C16310  10.583   4.021   2.632 -0.7244  0.0012 -0.0233
  119MOL0     C16311  10.666   4.075   2.736 -0.6030 -0.2799  0.4115
  119MOL0     C16312  10.721   4.211   2.716  0.2723  0.0796  0.3215
  119MOL0     C16313  10.701   3.995   2.845 -0.4179  0.4931 -0.2653
  119MOL0     C16314  10.794   4.030   2.960 -0.3062 -0.0602 -0.8790
  119MOL0     O16315  10.843   4.156   2.982 -0.5602 -0.2415  0.6133
  119MOL0     C16316  10.923   4.162   3.094  0.5313 -1.0763 -0.4888
  119MOL0     C16317  11.062   4.155   3.086 -0.1523  0.0812 -0.1632
  119MOL0     C16318  11.138   4.175   3.198 -0.6638 -0.2364 -0.5544
  119MOL0     C16319  11.074   4.211   3.321 -0.2231 -1.2604  0.2210
  119MOL0     O16320  11.165   4.243   3.425 -0.3906 -0.7081  0.0376
  119MOL0     C16321  11.128   4.334   3.534  0.0240  0.6696 -0.4037
  119MOL0     C16322  11.108   4.480   3.475  0.7281 -0.2487 -0.2580
  119MOL0     C16323  10.960   4.536   3.483  0.2033  0.1209 -0.7239
  119MOL0     C16324  10.950   4.675   3.416 -0.7410  0.0183  0.3452
  119MOL0     C16325  10.806   4.714   3.365 -0.0012 -0.5426 -0.9100
  119MOL0     C16326  10.798   4.843   3.290  0.2622 -0.5064  0.0636
  119MOL0     C16327  10.678   4.868   3.195  0.0717 -0.0194  0.9913
  119MOL0     C16328  10.664   5.023   3.191  0.3227 -0.3113 -0.4683
  119MOL0    Cl16329  10.530   5.081   3.082 -0.1690 -0.2030 -0.3744
  119MOL0     C16330  10.930   4.217   3.328 -0.6691  0.4286 -0.4055
  119MOL0     C16331  10.856   4.198   3.215 -0.0747 -0.4692  0.4547
  119MOL0     O16332  10.824   3.935   3.029 -0.3485 -0.1647 -0.1381
  119MOL0     C16333  10.642   3.861   2.850  0.4423 -0.6021  0.1347
  119MOL0     C16334  10.567   3.806   2.747 -0.0890 -0.1144 -0.0425
  119MOL0     N16335  10.063   3.881   3.049 -0.9605 -0.1960 -0.3361
  119MOL0     N16336  10.076   3.797   3.145 -0.5276 -0.5271  0.6311
  119MOL0     C16337  10.368   4.351   2.867 -0.0266 -0.4548 -0.2794
  119MOL0     C16338  10.287   4.443   2.795  0.0006  0.7259 -0.7738
  119MOL0     C16339  10.112   4.742   2.562  1.2554 -0.1012  0.4075
  119MOL0     C16340   9.984   4.754   2.624 -0.6592  0.2979 -0.0389
  119MOL0     C16341   9.865   4.799   2.566  0.2439 -0.4140  0.3416
  119MOL0     C16342   9.862   4.838   2.432 -0.1014 -0.1357  0.0518
  119MOL0     O16343   9.750   4.897   2.372 -0.4109  0.5297  0.9299
  119MOL0     C16344   9.620   4.907   2.423 -0.3660 -0.0434 -0.0592
  119MOL0     C16345   9.539   4.774   2.413 -1.4359  0.4672 -0.5852
  119MOL0     C16346   9.401   4.769   2.475 -0.4694  0.4410  0.4357
  119MOL0     C16347   9.392   4.831   2.620 -0.4682  0.2805  0.3698
  119MOL0     C16348   9.269   4.802   2.690 -0.8311 -0.5533 -0.5974
  119MOL0     C16349   9.181   4.793   2.768 -0.6622  0.4085 -0.0217
  119MOL0     C16350   9.980   4.818   2.353  0.3100 -0.0098 -0.4236
  119MOL0     C16351  10.104   4.767   2.418  0.1892  0.4114  0.2961
  119MOL0     C16352  10.231   4.769   2.337  0.0165 -0.5058 -0.1763
  119MOL0     H16353  10.349   4.710   3.003 -0.2487  0.5168 -1.7654
  119MOL0     H16354  10.453   4.548   3.128 -4.6511  1.4531  1.6732
  119MOL0     H16355  10.509   4.108   2.969 -1.0733 -0.9391  0.8680
  119MOL0     H16356  10.351   4.136   3.016  0.5699 -0.1089  0.5064
  119MOL0     H16357  10.588   4.078   3.199  0.6831  2.4894 -1.5393
  119MOL0     H16358  10.431   4.139   3.263 -2.3834  0.0286 -2.2836
  119MOL0     H16359  10.298   3.964   3.187 -0.0750 -0.7497 -0.6137
  119MOL0     H16360  10.432   3.911   3.076 -1.5135 -0.1664 -0.7413
  119MOL0     H16361  10.575   3.841   3.235 -0.2869  1.4291 -0.3518
  119MOL0     H16362  10.480   3.910   3.368 -2.2291 -0.5358  0.4973
  119MOL0     H16363  10.306   3.738   3.348 -1.0444 -2.8329 -1.3348
  119MOL0     H16364  10.461   3.682   3.375 -2.4895 -0.6959  0.3043
  119MOL0     H16365  10.381   3.711   3.086  1.4332  0.4269  0.1976
  119MOL0     H16366  10.497   3.605   3.150 -1.2594 -3.2286 -0.6017
  119MOL0     H16367  10.316   3.475   3.275  2.5855  0.5073 -1.0483
  119MOL0     H16368  10.324   3.460   3.104 -1.3331 -4.5890  2.9039
  119MOL0     H16369  10.096   3.473   3.130  0.4245 -0.1290 -2.5680
  119MOL0     H16370  10.109   3.566   3.284 -2.2033  3.1540 -0.3475
  119MOL0     H16371  10.163   3.596   2.895  2.1640  1.4264 -1.9429
  119MOL0     H16372  10.080   3.982   2.818 -1.1720  0.5861  0.7928
  119MOL0     H16373  10.008   3.831   2.760  0.0048 -0.4087 -0.6688
  119MOL0     H16374  10.299   3.848   2.785 -0.7575 -3.4726  1.3007
  119MOL0     H16375  10.224   3.759   2.652  0.4770  0.8631 -1.2876
  119MOL0     H16376  10.143   3.980   2.554 -0.5767  1.4809 -1.7646
  119MOL0     H16377  10.271   4.058   2.651  1.9837 -0.3281 -1.1458
  119MOL0     H16378  10.275   3.854   2.434 -2.6875  0.2509  1.5479
  119MOL0     H16379  10.379   3.992   2.435  3.5757 -2.2831  0.1375
  119MOL0     H16380  10.560   4.075   2.541 -0.7806 -1.6485 -1.0190
  119MOL0     H16381  10.697   4.242   2.614  2.8172 -0.9912 -0.6815
  119MOL0     H16382  10.830   4.215   2.726  0.5719  2.1679 -2.5395
  119MOL0     H16383  10.676   4.283   2.785  2.2994  0.4309  1.3401
  119MOL0     H16384  11.109   4.133   2.990  1.8863 -3.1928  1.3831
  119MOL0     H16385  11.245   4.165   3.181 -0.9333  0.8308 -3.6148
  119MOL0     H16386  11.038   4.292   3.579 -0.1724  2.0421  0.5234
  119MOL0     H16387  11.205   4.332   3.611  1.6618 -2.4138 -1.9174
  119MOL0     H16388  11.172   4.541   3.539  1.4566 -3.7929  2.7314
  119MOL0     H16389  11.135   4.470   3.369  2.6363 -4.8475  0.4053
  119MOL0     H16390  10.929   4.555   3.586 -0.5775 -2.2105 -0.4744
  119MOL0     H16391  10.887   4.465   3.442 -1.0735 -1.0950  3.2128
  119MOL0     H16392  11.026   4.672   3.337  1.7823 -1.6845  2.6033
  119MOL0     H16393  10.980   4.760   3.477 -0.9765 -0.3082  0.9296
  119MOL0     H16394  10.772   4.629   3.305  0.1724  0.6461 -2.7717
  119MOL0     H16395  10.744   4.726   3.455  2.0515  1.5252  0.3282
  119MOL0     H16396  10.887   4.850   3.227 -0.3848  2.6528 -0.7190
  119MOL0     H16397  10.797   4.921   3.367 -0.0808  1.0198 -1.4028
  119MOL0     H16398  10.589   4.812   3.224 -0.6519 -0.9608 -2.4825
  119MOL0     H16399  10.704   4.823   3.098 -4.0777  1.0058 -0.8213
  119MOL0     H16400  10.756   5.072   3.157  1.4233  0.5672  3.3222
  119MOL0     H16401  10.634   5.069   3.286 -0.4408  1.2313 -1.3946
  119MOL0     H16402  10.886   4.244   3.424  0.2863 -0.6133  0.3435
  119MOL0     H16403  10.749   4.206   3.206  0.1353 -0.0458 -2.8272
  119MOL0     H16404  10.652   3.801   2.939 -1.3658 -3.0320 -1.1826
  119MOL0     H16405  10.537   3.704   2.769  0.8311 -0.6231 -1.0867
  119MOL0     H16406  10.380   4.250   2.829 -1.9236 -1.0379  0.5484
  119MOL0     H16407  10.258   4.403   2.698 -2.0345 -3.4963  1.3223
  119MOL0     H16408   9.975   4.727   2.729  1.1974  0.3960  0.1734
  119MOL0     H16409   9.782   4.817   2.635 -1.7008 -3.6219 -0.9617
  119MOL0     H16410   9.614   4.949   2.524  0.8329 -1.0606  0.4611
  119MOL0     H16411   9.574   4.983   2.359 -0.0419 -0.9738 -1.4288
  119MOL0     H16412   9.608   4.702   2.458  1.7098  2.7217 -1.4585
  119MOL0     H16413   9.539   4.735   2.311  2.6718 -1.6850  0.0266
  119MOL0     H16414   9.324   4.809   2.407 -0.0262  2.8993  1.2879
  119MOL0     H16415   9.376   4.663   2.471  0.2952  0.2340  1.0606
  119MOL0     H16416   9.395   4.940   2.615 -0.6277  0.2249 -1.7308
  119MOL0     H16417   9.480   4.797   2.675  2.0106  1.5128 -2.5225
  119MOL0     H16418   9.099   4.776   2.836 -0.3057 -2.1313 -0.1401
  119MOL0     H16419   9.974   4.843   2.248 -0.7494 -0.0058 -0.3763
  119MOL0     H16420  10.300   4.827   2.399  1.2617  0.6324 -2.4796
  119MOL0     H16421  10.254   4.665   2.311 -0.9191 -0.9877  0.8276
  119MOL0     H16422  10.216   4.822   2.242  1.4961 -1.0609 -0.7520
  120MOL0     O16423   0.841  10.199   8.778 -0.1833  0.1158 -0.0956
  120MOL0     C16424   0.808  10.298   8.705 -0.0923 -0.8837 -0.3919
  120MOL0     O16425   0.881  10.406   8.690 -0.8059 -0.4487  0.0610
  120MOL0     C16426   1.000  10.407   8.759 -0.5566  0.3180 -0.1387
  120MOL0     C16427   1.110  10.383   8.682 -0.3658  0.6461 -0.4906
  120MOL0     C16428   1.242  10.389   8.732  0.8310 -0.0709 -0.7285
  120MOL0     C16429   1.256  10.419   8.869  0.0775 -0.3931  0.3303
  120MOL0     O16430   1.386  10.412   8.908 -0.2948 -0.3577  0.0122
  120MOL0     C16431   1.430  10.471   9.036 -0.6767  0.2053 -0.8100
  120MOL0     C16432   1.568  10.416   9.079 -0.6587  0.4473 -0.3870
  120MOL0     C16433   1.671  10.439   8.971 -0.5418  0.6877  0.7116
  120MOL0     C16434   1.681  10.309   8.890 -1.3201 -0.5622 -0.2657
  120MOL0     C16435   1.784  10.316   8.772 -2.0235  0.0496  0.3441
  120MOL0     C16436   1.931  10.299   8.825  0.1390  0.3395  0.1979
  120MOL0     C16437   2.036  10.334   8.714  0.6270  0.4272  0.1590
  120MOL0     C16438   2.153  10.421   8.769 -0.1925  0.4109 -1.0762
  120MOL0     N16439   2.103  10.557   8.812  0.0064  0.7700 -0.3615
  120MOL0     C16440   2.129  10.627   8.931  0.4439 -0.0388 -0.5186
  120MOL0     C16441   2.069  10.744   8.912 -0.9088  0.3957  0.1760
  120MOL0     C16442   2.091  10.862   9.005 -0.0998  0.3979  0.0994
  120MOL0     C16443   1.980  10.899   9.109 -0.0505 -0.6507 -0.2889
  120MOL0     C16444   1.964  10.776   9.205  0.6057  0.0513 -0.2811
  120MOL0     C16445   1.834  10.812   9.266  0.7595  0.0688 -0.0133
  120MOL0     O16446   1.799  10.716   9.363 -0.2884  0.3257  0.2695
  120MOL0     C16447   1.673  10.722   9.405 -0.4333  1.3289  0.1447
  120MOL0     C16448   1.578  10.822   9.389  0.4511  0.1775  0.2501
  120MOL0     C16449   1.447  10.810   9.421  0.3432  0.3693  0.4714
  120MOL0     C16450   1.348  10.913   9.368  0.6354  0.9133  0.2208
  120MOL0     C16451   1.407  10.692   9.494  0.6700 -0.3534  0.6494
  120MOL0     C16452   1.268  10.654   9.526  0.1815 -0.2851  0.3620
  120MOL0     O16453   1.239  10.526   9.538 -1.4286 -0.2973 -0.1403
  120MOL0     C16454   1.105  10.484   9.539 -0.6828 -1.6564  0.7639
  120MOL0     C16455   1.065  10.404   9.641  0.3353 -0.0672 -0.0071
  120MOL0     C16456   0.931  10.362   9.645 -0.3204 -1.0367 -0.0259
  120MOL0     C16457   0.833  10.397   9.554  0.5195 -0.4839  0.3011
  120MOL0     O16458   0.699  10.375   9.555 -0.3264 -0.0738 -0.6446
  120MOL0     C16459   0.627  10.367   9.681 -1.2517  0.1397 -0.7485
  120MOL0     C16460   0.496  10.287   9.677 -0.3910 -0.6087  0.7491
  120MOL0     C16461   0.421  10.326   9.543  1.2000  0.4684  0.0579
  120MOL0     C16462   0.301  10.416   9.572  0.3204  1.0607 -0.1309
  120MOL0     C16463   0.237  10.458   9.446 -0.2822  0.7139  0.3069
  120MOL0     C16464   0.123  10.367   9.403 -0.4326  0.0143  0.6271
  120MOL0     C16465   0.040  10.446   9.300 -0.2796  0.0390 -0.0363
  120MOL0     C16466  -0.065  10.363   9.231  0.2222  0.3697  0.5003
  120MOL0    Cl16467  -0.127  10.453   9.087 -0.1484  0.1172  0.5349
  120MOL0     C16468   0.876  10.491   9.457 -0.0194 -0.7750  0.8180
  120MOL0     C16469   1.008  10.537   9.446 -1.1080  0.8840 -0.0611
  120MOL0     O16470   1.187  10.747   9.536 -0.4915 -0.2626 -0.1274
  120MOL0     C16471   1.503  10.601   9.529  0.1249 -0.1867 -0.3399
  120MOL0     C16472   1.627  10.611   9.480 -0.2079  0.3940  0.5295
  120MOL0     N16473   2.009  10.749   8.786  0.2621  0.1981 -0.0996
  120MOL0     N16474   2.027  10.634   8.727 -0.0424 -0.5418  0.0421
  120MOL0     C16475   1.143  10.432   8.952  0.0636 -0.5314  0.2462
  120MOL0     C16476   1.009  10.421   8.899 -0.7345 -0.6012 -0.5104
  120MOL0     C16477   0.682  10.284   8.620 -0.3789  0.0819  0.4620
  120MOL0     C16478   0.553  10.262   8.675  0.7261 -0.4512  0.0482
  120MOL0     C16479   0.437  10.271   8.594 -0.2226 -1.0484 -0.4295
  120MOL0     C16480   0.455  10.301   8.460  0.1499  0.3283 -0.0424
  120MOL0     O16481   0.335  10.334   8.395 -0.4666  0.1709  0.4127
  120MOL0     C16482   0.323  10.346   8.246  0.1738 -0.2881 -0.5589
  120MOL0     C16483   0.189  10.294   8.197  0.0928 -0.5670 -0.0974
  120MOL0     C16484   0.141  10.364   8.071  0.4057  0.3054 -0.8743
  120MOL0     C16485   0.025  10.284   8.001 -1.1113 -0.3951 -0.6018
  120MOL0     C16486   0.064  10.176   7.912 -0.8374 -0.8525 -0.2987
  120MOL0     C16487   0.106  10.080   7.854 -0.4178 -0.8461 -0.7138
  120MOL0     C16488   0.576  10.310   8.402 -0.3958  0.0978  0.5803
  120MOL0     C16489   0.692  10.299   8.478 -0.3724 -0.6995 -0.2249
  120MOL0     C16490   0.827  10.323   8.420 -0.1373  0.9718 -0.1113
  120MOL0     H16491   1.103  10.345   8.581 -0.3360 -2.0821  0.4594
  120MOL0     H16492   1.321  10.366   8.661 -0.0609  0.0957 -1.7979
  120MOL0     H16493   1.358  10.447   9.115 -2.0794  3.5145 -0.9037
  120MOL0     H16494   1.417  10.579   9.029 -0.1475  0.6919  3.0772
  120MOL0     H16495   1.606  10.463   9.170  0.2168 -0.6947 -0.1308
  120MOL0     H16496   1.577  10.308   9.097  1.3940  0.2922 -2.0404
  120MOL0     H16497   1.640  10.519   8.903 -1.2164 -1.5095 -1.7742
  120MOL0     H16498   1.771  10.466   9.005 -1.1176  3.3798  0.5000
  120MOL0     H16499   1.710  10.222   8.950  0.2845 -0.3095 -0.6229
  120MOL0     H16500   1.580  10.292   8.854 -2.3705 -2.6987  3.2044
  120MOL0     H16501   1.782  10.417   8.730  0.6474  0.3261  0.7233
  120MOL0     H16502   1.760  10.254   8.686 -2.7402  1.4855 -0.5296
  120MOL0     H16503   1.941  10.373   8.905 -0.2148 -0.6520  1.1961
  120MOL0     H16504   1.943  10.202   8.874  2.4276  0.9833  1.0380
  120MOL0     H16505   1.986  10.371   8.623 -0.1526 -1.5956 -0.2839
  120MOL0     H16506   2.081  10.249   8.663  0.3153  0.5922 -0.4119
  120MOL0     H16507   2.202  10.368   8.851  1.6608  0.6276 -1.9822
  120MOL0     H16508   2.236  10.427   8.698  2.6753 -1.0508  1.8775
  120MOL0     H16509   2.195  10.584   9.006  0.1976 -2.0550 -1.3770
  120MOL0     H16510   2.117  10.948   8.943  3.2956 -0.0109  0.7819
  120MOL0     H16511   2.184  10.836   9.055 -1.6012 -0.2196  2.7900
  120MOL0     H16512   2.010  10.992   9.159 -0.2085 -0.4641 -0.5413
  120MOL0     H16513   1.887  10.911   9.053  0.4758 -0.1937 -1.0920
  120MOL0     H16514   1.975  10.685   9.145  1.0841  0.4816 -0.8655
  120MOL0     H16515   2.050  10.773   9.272  1.1288 -0.6006 -0.9543
  120MOL0     H16516   1.842  10.909   9.316  3.5463  0.1316 -0.4517
  120MOL0     H16517   1.758  10.828   9.188 -1.4657 -0.3414  1.9626
  120MOL0     H16518   1.606  10.913   9.338  1.8875  0.1555  0.9609
  120MOL0     H16519   1.401  11.003   9.334  1.5946  0.3099  0.0869
  120MOL0     H16520   1.273  10.946   9.440 -0.2660 -1.2019  0.3192
  120MOL0     H16521   1.291  10.860   9.292  0.4221 -1.7761  2.0943
  120MOL0     H16522   1.140  10.377   9.716 -0.8925 -0.6787  1.0403
  120MOL0     H16523   0.905  10.288   9.720  1.1602 -0.9565  0.6041
  120MOL0     H16524   0.690  10.342   9.767 -3.6395  4.6694  2.7542
  120MOL0     H16525   0.602  10.468   9.716 -0.5776 -1.3669  5.1354
  120MOL0     H16526   0.525  10.182   9.688 -1.7838 -1.1675 -0.6834
  120MOL0     H16527   0.437  10.322   9.762 -2.0532  0.7329 -0.8810
  120MOL0     H16528   0.387  10.230   9.502  0.3018  0.3545  1.0255
  120MOL0     H16529   0.484  10.373   9.467  2.2016  0.1548  0.6924
  120MOL0     H16530   0.340  10.510   9.612  0.0008  1.8088 -1.4863
  120MOL0     H16531   0.231  10.363   9.637  0.7464  0.3284 -0.2631
  120MOL0     H16532   0.186  10.550   9.477 -0.1114  0.5383  1.1312
  120MOL0     H16533   0.307  10.478   9.365  0.1680  2.0025  0.9889
  120MOL0     H16534   0.067  10.335   9.492  2.1416  1.2492  2.8232
  120MOL0     H16535   0.170  10.288   9.344 -0.2458  0.6526 -0.0835
  120MOL0     H16536   0.116  10.485   9.233 -0.1755 -0.6237 -0.3147
  120MOL0     H16537  -0.007  10.531   9.351  1.5697  0.8356  0.4033
  120MOL0     H16538  -0.149  10.353   9.301 -1.3488  1.4359 -1.1414
  120MOL0     H16539  -0.029  10.266   9.197 -0.5954  0.0340  0.5617
  120MOL0     H16540   0.796  10.529   9.395  0.0617  1.0078  1.7249
  120MOL0     H16541   1.046  10.594   9.362 -1.6590  0.4631 -0.6082
  120MOL0     H16542   1.471  10.510   9.580 -1.2319  0.1750 -0.4901
  120MOL0     H16543   1.696  10.531   9.505 -0.3484  0.3648  0.8257
  120MOL0     H16544   1.156  10.435   9.059 -0.8859 -1.3654  0.4000
  120MOL0     H16545   0.926  10.409   8.967  0.5701 -0.7056  1.1215
  120MOL0     H16546   0.541  10.237   8.779  0.5522  0.4710  0.2562
  120MOL0     H16547   0.341  10.260   8.644 -0.0089  0.8754  0.4982
  120MOL0     H16548   0.327  10.452   8.219 -0.5644 -0.5209 -1.6436
  120MOL0     H16549   0.403  10.291   8.196  0.8839 -0.5385  0.8034
  120MOL0     H16550   0.109  10.315   8.269  2.1672 -0.0733  2.1901
  120MOL0     H16551   0.201  10.185   8.194 -1.0514 -0.7251  0.2561
  120MOL0     H16552   0.102  10.464   8.090 -1.3857 -0.5035 -0.0616
  120MOL0     H16553   0.228  10.376   8.006  1.1142 -0.3092 -0.0695
  120MOL0     H16554  -0.033  10.358   7.945  2.0450  1.9240 -1.0981
  120MOL0     H16555  -0.039  10.238   8.076 -0.8622  0.0228 -0.1259
  120MOL0     H16556   0.160   9.999   7.809  1.8035  0.8281 -1.2625
  120MOL0     H16557   0.586  10.344   8.299  0.7442 -0.5089  0.4754
  120MOL0     H16558   0.822  10.307   8.311  0.3429  0.9399 -0.1293
  120MOL0     H16559   0.859  10.422   8.452  0.7261  0.4065  0.8033
  120MOL0     H16560   0.898  10.254   8.466 -1.4022  0.5580  1.2750
  121MOL0     O16561   1.270   2.588   3.636  0.8260  0.2163 -0.3953
  121MOL0     C16562   1.225   2.472   3.634  0.0135 -0.6544  0.1644
  121MOL0     O16563   1.117   2.434   3.564  0.0246 -0.4263 -0.6896
  121MOL0     C16564   1.030   2.528   3.522 -0.9094 -0.5403  0.1459
  121MOL0     C16565   1.045   2.576   3.395  0.7621  0.5813 -0.3840
  121MOL0     C16566   0.954   2.670   3.348 -0.5625 -0.8185  0.9279
  121MOL0     C16567   0.845   2.719   3.412 -0.7465  0.3198 -0.4040
  121MOL0     O16568   0.765   2.812   3.355 -0.1396 -0.0328 -0.2784
  121MOL0     C16569   0.682   2.899   3.440  0.0262 -0.1160  0.1167
  121MOL0     C16570   0.537   2.854   3.488 -0.7266  0.7237 -0.2025
  121MOL0     C16571   0.511   2.863   3.639 -0.3318 -0.4688 -0.2677
  121MOL0     C16572   0.496   3.014   3.682 -0.0727 -0.1266 -0.4736
  121MOL0     C16573   0.418   3.032   3.824  0.3390 -0.1211  0.1229
  121MOL0     C16574   0.376   3.178   3.850 -0.6344  0.4346  0.4431
  121MOL0     C16575   0.286   3.179   3.976  0.3132  0.6343  0.6148
  121MOL0     C16576   0.282   3.308   4.046  0.0841  0.3950 -0.9151
  121MOL0     N16577   0.394   3.327   4.132  0.4939 -0.8082  0.0958
  121MOL0     C16578   0.406   3.275   4.262  0.4574 -0.2665 -0.4013
  121MOL0     C16579   0.523   3.333   4.303  0.2866 -0.2887 -1.0026
  121MOL0     C16580   0.578   3.307   4.434 -0.0431 -0.0602  0.3984
  121MOL0     C16581   0.670   3.177   4.430 -0.2162 -0.3780 -0.8346
  121MOL0     C16582   0.721   3.158   4.573  0.2226 -0.3382 -0.8797
  121MOL0     C16583   0.725   3.013   4.618  0.7350 -0.3676  0.0212
  121MOL0     O16584   0.804   2.931   4.525  1.2837 -0.5543  0.9897
  121MOL0     C16585   0.934   2.907   4.540 -0.4361  0.3364  0.0170
  121MOL0     C16586   1.020   2.964   4.636  0.1300 -0.0226  0.8478
  121MOL0     C16587   1.157   2.922   4.642  0.2941 -0.4789  0.1449
  121MOL0     C16588   1.241   2.970   4.751  0.5542 -0.1979  0.0745
  121MOL0     C16589   1.210   2.846   4.534 -0.0007 -0.9809  0.3206
  121MOL0     C16590   1.359   2.805   4.522  0.6246  0.0515  0.9305
  121MOL0     O16591   1.377   2.686   4.470  0.3189 -0.1609  0.1647
  121MOL0     C16592   1.494   2.657   4.405 -0.7615 -0.0404 -0.0476
  121MOL0     C16593   1.595   2.752   4.360 -0.5944  0.8287  0.3134
  121MOL0     C16594   1.707   2.709   4.294 -0.6253  0.0770  0.5741
  121MOL0     C16595   1.720   2.576   4.255 -0.7240  1.3325  0.5089
  121MOL0     O16596   1.837   2.538   4.189  0.5258 -0.4357  0.2068
  121MOL0     C16597   1.827   2.588   4.054 -0.2496 -0.4577 -0.1527
  121MOL0     C16598   1.806   2.473   3.958  0.4465  0.7737 -0.0513
  121MOL0     C16599   1.899   2.351   3.985  0.1369  0.7179 -0.3231
  121MOL0     C16600   2.045   2.386   3.976 -0.5882 -0.4385  0.0596
  121MOL0     C16601   2.126   2.305   3.872  0.5549  0.3959  0.6810
  121MOL0     C16602   2.100   2.334   3.730  0.2014 -0.9346 -0.1273
  121MOL0     C16603   2.121   2.479   3.684 -0.6493  0.4139  0.9170
  121MOL0     C16604   2.088   2.501   3.532  0.3640 -0.3824 -0.3238
  121MOL0    Cl16605   2.210   2.427   3.423 -0.2722  0.0918 -0.0084
  121MOL0     C16606   1.640   2.485   4.307  0.0481  0.0493  0.2730
  121MOL0     C16607   1.526   2.520   4.379  0.8577 -0.5852  0.4348
  121MOL0     O16608   1.440   2.879   4.566  0.5407  0.1091  1.1295
  121MOL0     C16609   1.124   2.793   4.434 -0.3315  0.0079 -0.4413
  121MOL0     C16610   0.983   2.823   4.439 -0.7216 -0.0398  0.6452
  121MOL0     N16611   0.575   3.417   4.212 -0.1279  0.1192  0.2896
  121MOL0     N16612   0.494   3.416   4.118  0.0910 -0.0314  0.7904
  121MOL0     C16613   0.832   2.665   3.543 -0.4890 -0.4249 -0.7131
  121MOL0     C16614   0.931   2.583   3.602 -1.0715  0.4693  0.4227
  121MOL0     C16615   1.311   2.361   3.689  0.7025 -0.1724  0.2013
  121MOL0     C16616   1.245   2.251   3.738 -0.2494 -0.3481  1.0090
  121MOL0     C16617   1.319   2.144   3.785 -0.4608 -0.9471 -1.2527
  121MOL0     C16618   1.455   2.149   3.799  0.3898 -0.2399 -1.4661
  121MOL0     O16619   1.504   2.047   3.870 -0.7953  0.1339 -0.2765
  121MOL0     C16620   1.611   2.085   3.959 -0.3802  0.1065  0.0749
  121MOL0     C16621   1.568   2.178   4.082  0.4908  0.5511  0.2465
  121MOL0     C16622   1.433   2.124   4.133  0.7495 -0.1862 -0.4307
  121MOL0     C16623   1.400   2.192   4.262 -0.0460 -0.7561  0.8469
  121MOL0     C16624   1.301   2.120   4.338  0.6420  0.3226  1.4778
  121MOL0     C16625   1.218   2.069   4.409  1.0139  0.7228 -0.6273
  121MOL0     C16626   1.523   2.241   3.719 -0.1088  0.4152  0.2129
  121MOL0     C16627   1.450   2.358   3.673 -0.5672  0.1554  0.8627
  121MOL0     C16628   1.533   2.465   3.616 -0.2732 -0.1355  0.8532
  121MOL0     H16629   1.117   2.539   3.323  1.0971  0.3049  0.0940
  121MOL0     H16630   0.971   2.708   3.247 -0.8465  0.9407  1.5202
  121MOL0     H16631   0.681   2.996   3.390 -0.7037 -1.2366 -2.2209
  121MOL0     H16632   0.744   2.915   3.529 -0.2701  2.8786 -0.1167
  121MOL0     H16633   0.465   2.917   3.434 -0.7372  0.4533 -0.5118
  121MOL0     H16634   0.512   2.752   3.458  0.2255  0.3864  0.1162
  121MOL0     H16635   0.411   2.820   3.651 -0.8717  0.2438 -2.0042
  121MOL0     H16636   0.582   2.808   3.702 -1.8894  1.5066  3.5544
  121MOL0     H16637   0.596   3.057   3.677 -0.8460  1.7044 -1.1085
  121MOL0     H16638   0.438   3.069   3.607 -0.4606 -1.1125 -0.9092
  121MOL0     H16639   0.476   3.002   3.911  1.3909  3.2644  0.7636
  121MOL0     H16640   0.325   2.975   3.819  0.2659 -0.0151  0.2957
  121MOL0     H16641   0.465   3.235   3.876  0.0111 -0.2116 -0.2907
  121MOL0     H16642   0.324   3.217   3.761  2.3518  1.6283 -0.9259
  121MOL0     H16643   0.318   3.103   4.048  3.4640 -1.8016 -2.9684
  121MOL0     H16644   0.187   3.145   3.943  1.5131 -2.2094 -0.3356
  121MOL0     H16645   0.273   3.394   3.978  0.4979  3.1436  2.2702
  121MOL0     H16646   0.195   3.299   4.112  0.8841  1.1129  0.2620
  121MOL0     H16647   0.348   3.210   4.326  2.9596  0.5992  3.0828
  121MOL0     H16648   0.492   3.285   4.498  0.0294 -1.3921  0.0541
  121MOL0     H16649   0.630   3.395   4.474 -0.3225 -0.3096  1.3304
  121MOL0     H16650   0.607   3.092   4.402 -2.2373  1.2519 -1.5560
  121MOL0     H16651   0.748   3.190   4.355  0.7948  1.0714  0.3997
  121MOL0     H16652   0.821   3.198   4.590  1.5619 -3.6417 -0.1120
  121MOL0     H16653   0.658   3.211   4.645  0.9754  1.0034 -1.1626
  121MOL0     H16654   0.770   3.005   4.717 -0.1081  0.6957  0.5119
  121MOL0     H16655   0.621   2.982   4.635  0.0434  2.0201  0.5106
  121MOL0     H16656   0.975   3.031   4.709  0.2237  1.1938 -0.1701
  121MOL0     H16657   1.169   2.999   4.827  0.5869  0.6185 -0.1979
  121MOL0     H16658   1.289   3.062   4.714  1.6939 -1.8848 -3.0875
  121MOL0     H16659   1.317   2.903   4.792  0.6765 -0.8548 -1.1599
  121MOL0     H16660   1.596   2.859   4.378 -0.7813  0.8247  0.3444
  121MOL0     H16661   1.777   2.786   4.262 -1.3810  0.1041 -1.1454
  121MOL0     H16662   1.737   2.644   4.027  2.1960  1.8002 -4.8368
  121MOL0     H16663   1.917   2.647   4.031  1.2999 -3.2035 -1.7229
  121MOL0     H16664   1.704   2.436   3.972  1.3964 -2.2130 -0.1393
  121MOL0     H16665   1.803   2.509   3.855 -1.9865  4.5321  1.1428
  121MOL0     H16666   1.876   2.287   3.899 -1.3582  1.0571 -0.2157
  121MOL0     H16667   1.864   2.304   4.077  1.3358  0.6381  0.1006
  121MOL0     H16668   2.100   2.378   4.070  1.1365 -0.1277 -0.8833
  121MOL0     H16669   2.052   2.490   3.944 -0.0645 -0.0918  1.2724
  121MOL0     H16670   2.233   2.316   3.894 -0.1702  2.2611  3.9620
  121MOL0     H16671   2.091   2.203   3.888 -0.8350  0.7966  0.3179
  121MOL0     H16672   1.995   2.309   3.713 -0.9186  3.3885 -0.9809
  121MOL0     H16673   2.165   2.263   3.679 -0.4520 -2.2989  0.8777
  121MOL0     H16674   2.226   2.501   3.705 -0.7487 -0.4255  2.4598
  121MOL0     H16675   2.072   2.555   3.746  0.8338 -0.3541  3.1497
  121MOL0     H16676   2.087   2.609   3.515  2.4952 -0.2697  0.0015
  121MOL0     H16677   1.990   2.455   3.516  2.0147 -4.3078 -0.3625
  121MOL0     H16678   1.651   2.379   4.286 -2.6145 -0.7691  2.4412
  121MOL0     H16679   1.456   2.442   4.408  1.2568 -0.8665  0.6571
  121MOL0     H16680   1.153   2.721   4.358  0.1640 -3.0082  2.3369
  121MOL0     H16681   0.929   2.777   4.357 -0.2683  1.4437 -0.5193
  121MOL0     H16682   0.747   2.698   3.601 -0.8579  0.7634 -1.8639
  121MOL0     H16683   0.928   2.548   3.704 -0.4110 -0.8562  0.0159
  121MOL0     H16684   1.137   2.245   3.740 -0.2460 -2.0389 -0.7119
  121MOL0     H16685   1.269   2.067   3.844  0.5364  0.5470  1.7791
  121MOL0     H16686   1.662   1.998   4.002 -0.4475 -0.1379 -0.3329
  121MOL0     H16687   1.687   2.130   3.894  0.0532 -1.8761 -0.8587
  121MOL0     H16688   1.559   2.285   4.063 -0.0937  1.1663  3.4499
  121MOL0     H16689   1.649   2.171   4.156 -0.3408  2.3570  1.4041
  121MOL0     H16690   1.356   2.151   4.059  1.5704  0.8001 -0.9552
  121MOL0     H16691   1.444   2.017   4.148 -1.6144 -0.3316  0.7034
  121MOL0     H16692   1.348   2.287   4.251  2.1613  0.5131  0.6659
  121MOL0     H16693   1.496   2.204   4.313  1.5205 -0.6448 -1.9437
  121MOL0     H16694   1.126   2.039   4.456  2.1035 -0.0244  1.1119
  121MOL0     H16695   1.629   2.243   3.695  0.4314  2.0629  2.3939
  121MOL0     H16696   1.634   2.428   3.596 -0.8836 -1.2075 -0.3443
  121MOL0     H16697   1.494   2.496   3.518 -0.8758 -1.5036  0.6427
  121MOL0     H16698   1.537   2.551   3.685 -1.1133  0.8403 -0.2738
  122MOL0     O16699   3.209   2.167   1.351 -0.5057  0.2519 -0.5729
  122MOL0     C16700   3.151   2.194   1.246 -0.2753  0.4606  0.5135
  122MOL0     O16701   3.209   2.183   1.124 -0.8174 -0.2459 -0.0582
  122MOL0     C16702   3.316   2.092   1.111  0.7096 -0.2584 -0.3602
  122MOL0     C16703   3.415   2.131   1.013 -0.1331 -0.1549 -0.4450
  122MOL0     C16704   3.520   2.047   0.988  0.4453  0.2662  0.7407
  122MOL0     C16705   3.545   1.934   1.063 -0.1365  0.4301  0.2416
  122MOL0     O16706   3.664   1.861   1.038 -0.1645 -0.5032  0.1975
  122MOL0     C16707   3.784   1.940   1.077  0.8990 -0.3345 -0.3212
  122MOL0     C16708   3.850   1.862   1.190 -0.8106  0.2393  0.0211
  122MOL0     C16709   3.946   1.764   1.142 -0.4065 -0.4589  0.0023
  122MOL0     C16710   4.036   1.715   1.255  0.2426 -0.3570 -0.2774
  122MOL0     C16711   4.164   1.655   1.193  0.2564 -0.5136  0.6336
  122MOL0     C16712   4.283   1.649   1.289  0.2949  0.1999 -0.2342
  122MOL0     C16713   4.416   1.593   1.232  0.1608 -0.1269 -0.6813
  122MOL0     C16714   4.512   1.570   1.350  0.5562  0.4212  0.1437
  122MOL0     N16715   4.649   1.560   1.291  0.2016  0.3541  0.0579
  122MOL0     C16716   4.687   1.453   1.209 -0.2244 -0.2103  0.0484
  122MOL0     C16717   4.821   1.437   1.235 -0.6952  0.0260  0.0248
  122MOL0     C16718   4.926   1.331   1.187 -0.3944 -0.0243 -0.1687
  122MOL0     C16719   5.031   1.397   1.094  0.0277 -0.0322 -0.3869
  122MOL0     C16720   4.973   1.407   0.954  0.8921  0.4405 -0.7603
  122MOL0     C16721   5.072   1.487   0.859 -1.2305 -0.4274 -0.3695
  122MOL0     O16722   5.178   1.401   0.823 -0.8727 -0.0126 -0.4976
  122MOL0     C16723   5.154   1.309   0.729  0.8024  0.1464 -0.0957
  122MOL0     C16724   5.131   1.179   0.757  0.5384 -0.4376 -0.6727
  122MOL0     C16725   5.089   1.086   0.664  0.7053 -0.9400  0.2281
  122MOL0     C16726   5.054   0.948   0.699  0.2942  1.3374 -0.3076
  122MOL0     C16727   5.075   1.124   0.522  1.0615  0.6003  0.6266
  122MOL0     C16728   5.005   1.047   0.416  0.3242  0.3339 -0.2989
  122MOL0     O16729   5.015   1.096   0.292  0.6768  0.1415 -0.2636
  122MOL0     C16730   4.988   1.014   0.182  0.2889 -0.7776  0.3346
  122MOL0     C16731   4.860   1.017   0.131 -1.1976 -0.1613  0.9425
  122MOL0     C16732   4.843   0.965   0.003 -0.7485 -0.4369  0.1707
  122MOL0     C16733   4.939   0.899  -0.073  0.1730 -0.8895 -0.8352
  122MOL0     O16734   4.899   0.849  -0.191  0.0662  0.4559  1.0621
  122MOL0     C16735   4.997   0.845  -0.295  0.0215 -0.1148  0.6884
  122MOL0     C16736   5.074   0.972  -0.331  0.3941  0.2032 -0.0355
  122MOL0     C16737   5.144   0.966  -0.462 -0.4153 -0.4376  0.6336
  122MOL0     C16738   5.279   0.880  -0.458  0.7715  0.6185 -0.6275
  122MOL0     C16739   5.370   0.875  -0.584  0.1003  0.2255  0.2250
  122MOL0     C16740   5.499   0.798  -0.569  0.2051 -0.6417  0.1511
  122MOL0     C16741   5.617   0.904  -0.587 -0.3544  0.3532 -0.0080
  122MOL0     C16742   5.757   0.844  -0.565 -0.7423  0.3288 -1.0230
  122MOL0    Cl16743   5.789   0.783  -0.393 -0.1665 -0.3279  0.0628
  122MOL0     C16744   5.062   0.891  -0.017 -0.0124 -0.0080 -0.9948
  122MOL0     C16745   5.088   0.944   0.113 -0.4762 -0.7546  0.0826
  122MOL0     O16746   4.958   0.935   0.440  0.6086 -0.2140 -0.6225
  122MOL0     C16747   5.116   1.259   0.489  0.1109 -0.5032  0.6256
  122MOL0     C16748   5.153   1.350   0.593  0.6720  0.1517 -0.5265
  122MOL0     N16749   4.859   1.531   1.332 -0.0555  0.0339  0.3027
  122MOL0     N16750   4.751   1.595   1.374  0.0122  0.8740 -0.1791
  122MOL0     C16751   3.445   1.892   1.150  0.7198 -0.7217 -0.4660
  122MOL0     C16752   3.329   1.971   1.173 -0.8654  0.0562 -0.1000
  122MOL0     C16753   3.007   2.257   1.247 -0.1897  0.4283  0.4524
  122MOL0     C16754   2.961   2.291   1.123  0.4285 -0.1299  1.0760
  122MOL0     C16755   2.838   2.344   1.099  0.2890 -0.1389 -0.0583
  122MOL0     C16756   2.752   2.364   1.207 -0.1536 -0.3309  0.4994
  122MOL0     O16757   2.633   2.425   1.180  0.2000  0.2470 -1.0172
  122MOL0     C16758   2.521   2.403   1.273 -0.9295  0.2662  1.2811
  122MOL0     C16759   2.390   2.397   1.193 -0.0796  0.1038  0.1887
  122MOL0     C16760   2.270   2.346   1.277  0.2280 -0.4076 -0.2966
  122MOL0     C16761   2.137   2.402   1.242 -0.1079  0.5521  0.2990
  122MOL0     C16762   2.108   2.406   1.094  0.2739 -0.4084  0.8019
  122MOL0     C16763   2.073   2.413   0.978  0.1960  0.4357  0.0842
  122MOL0     C16764   2.789   2.337   1.334  0.5010  0.5057  0.2461
  122MOL0     C16765   2.913   2.277   1.365 -0.7742  0.5997  0.2844
  122MOL0     C16766   2.952   2.216   1.502  0.0313 -0.5399  0.8007
  122MOL0     H16767   3.388   2.218   0.954 -1.0595 -0.5932 -0.6715
  122MOL0     H16768   3.580   2.060   0.899 -1.4740  2.0812 -0.4038
  122MOL0     H16769   3.746   2.035   1.115 -2.7366 -2.2362  1.3700
  122MOL0     H16770   3.856   1.965   0.999  0.5740  1.2453 -0.1412
  122MOL0     H16771   3.899   1.923   1.266  0.8161  0.8154 -1.4085
  122MOL0     H16772   3.786   1.805   1.257 -0.8701 -0.2076 -0.4066
  122MOL0     H16773   3.894   1.680   1.095 -0.8437  0.4141 -1.1378
  122MOL0     H16774   4.003   1.813   1.062 -3.0167  0.6701 -1.2964
  122MOL0     H16775   4.051   1.788   1.335 -0.7037 -3.5188  3.1165
  122MOL0     H16776   3.983   1.636   1.310 -0.0376 -0.6205 -0.9145
  122MOL0     H16777   4.188   1.706   1.100  0.8793 -0.3116  0.9027
  122MOL0     H16778   4.136   1.559   1.148  3.6081 -1.2529 -0.1487
  122MOL0     H16779   4.294   1.755   1.312 -0.8817  0.2737  0.0303
  122MOL0     H16780   4.266   1.585   1.376  1.4148 -0.6008 -0.5701
  122MOL0     H16781   4.445   1.657   1.149 -1.0859  1.4756  0.0481
  122MOL0     H16782   4.390   1.496   1.189 -1.2717  0.5406 -1.3975
  122MOL0     H16783   4.513   1.654   1.421  0.3862  0.9695 -0.5001
  122MOL0     H16784   4.486   1.476   1.399  4.7862 -1.9401 -1.5401
  122MOL0     H16785   4.622   1.393   1.145  0.4691  0.2334 -1.0996
  122MOL0     H16786   4.886   1.235   1.151 -0.8193  0.8849 -2.3104
  122MOL0     H16787   4.976   1.309   1.281  0.1497 -1.5553 -0.7912
  122MOL0     H16788   5.068   1.492   1.134 -3.2515  0.5392  1.5796
  122MOL0     H16789   5.120   1.333   1.087  2.2651  2.8087  0.0814
  122MOL0     H16790   4.942   1.309   0.918 -0.7171 -0.1436  1.9347
  122MOL0     H16791   4.883   1.470   0.959 -0.7306 -1.8343  2.6566
  122MOL0     H16792   5.014   1.504   0.767  2.9055 -0.2514 -3.1948
  122MOL0     H16793   5.110   1.576   0.910 -2.0799 -0.5469  0.5061
  122MOL0     H16794   5.130   1.161   0.864  1.8260 -0.9160 -0.7194
  122MOL0     H16795   4.948   0.920   0.700  0.7516 -0.8154  2.2632
  122MOL0     H16796   5.078   0.919   0.802  0.6384 -0.7253 -0.9209
  122MOL0     H16797   5.113   0.886   0.631  3.1650  1.7825  1.6104
  122MOL0     H16798   4.781   1.056   0.194 -1.5292 -0.2631  0.5945
  122MOL0     H16799   4.750   0.979  -0.051 -1.0434 -1.7370  0.2955
  122MOL0     H16800   5.057   0.759  -0.264 -1.8349 -1.5484  0.5398
  122MOL0     H16801   4.929   0.822  -0.377 -0.8562  3.2548  0.3176
  122MOL0     H16802   5.002   1.055  -0.331 -0.4372 -0.1997  4.9563
  122MOL0     H16803   5.142   0.996  -0.248 -0.0092 -1.0117  0.6594
  122MOL0     H16804   5.170   1.066  -0.497 -2.4007 -0.2487 -0.4490
  122MOL0     H16805   5.070   0.928  -0.533 -2.2911  1.5339  1.4200
  122MOL0     H16806   5.245   0.778  -0.437 -0.7880  1.0837 -0.7859
  122MOL0     H16807   5.340   0.908  -0.371  2.1749 -1.2551 -0.9449
  122MOL0     H16808   5.318   0.822  -0.665  0.5886  0.4473 -0.2457
  122MOL0     H16809   5.394   0.979  -0.610 -0.1016  0.5317  1.2256
  122MOL0     H16810   5.507   0.723  -0.648 -2.7240 -0.7099 -0.1809
  122MOL0     H16811   5.505   0.758  -0.467 -0.8245  0.3609  0.6294
  122MOL0     H16812   5.601   0.986  -0.517  0.7958  0.6500 -0.0765
  122MOL0     H16813   5.618   0.948  -0.687  0.9778  1.3144  0.3999
  122MOL0     H16814   5.824   0.930  -0.571 -1.2837  0.7782 -0.8209
  122MOL0     H16815   5.787   0.760  -0.627 -0.8378 -1.0766  0.7410
  122MOL0     H16816   5.146   0.847  -0.069  0.9606 -0.2951  0.7151
  122MOL0     H16817   5.190   0.948   0.152 -1.4180  3.1636  2.7474
  122MOL0     H16818   5.126   1.290   0.385  4.6121  0.4357  1.1541
  122MOL0     H16819   5.176   1.452   0.563 -0.7180  1.0850  1.3137
  122MOL0     H16820   3.471   1.807   1.212 -3.6532 -0.7421  1.6710
  122MOL0     H16821   3.252   1.950   1.247 -1.9977 -1.2322 -1.5711
  122MOL0     H16822   3.022   2.279   1.034 -2.5748 -0.2555 -1.0881
  122MOL0     H16823   2.809   2.361   0.996  1.1803 -0.9056 -0.4475
  122MOL0     H16824   2.533   2.310   1.329 -0.8414 -0.2520  0.4078
  122MOL0     H16825   2.524   2.476   1.355 -2.8072  1.2298  0.5707
  122MOL0     H16826   2.413   2.329   1.110 -2.6498 -1.4815  0.6580
  122MOL0     H16827   2.362   2.488   1.139 -0.5577  0.1034  0.4351
  122MOL0     H16828   2.268   2.238   1.263  1.1663 -0.3383 -1.0635
  122MOL0     H16829   2.294   2.358   1.383  1.1713 -0.8219 -0.4565
  122MOL0     H16830   2.128   2.505   1.280 -0.2316 -0.5744  3.6424
  122MOL0     H16831   2.058   2.340   1.287  0.4255 -0.0608  0.3941
  122MOL0     H16832   2.058   2.422   0.872 -3.8171 -1.0712  0.3612
  122MOL0     H16833   2.718   2.356   1.414  1.5131  1.8416  0.8684
  122MOL0     H16834   2.961   2.107   1.501  1.1902 -0.4616  1.3267
  122MOL0     H16835   3.045   2.261   1.538 -0.3322  1.4649 -0.6140
  122MOL0     H16836   2.876   2.243   1.576  1.0718  0.8190  1.4052
  123MOL0     O16837   3.796   1.103   3.029  0.2441 -0.0817 -0.1215
  123MOL0     C16838   3.900   1.075   2.970  0.2240 -1.1032  0.5734
  123MOL0     O16839   3.944   0.952   2.940  0.0033 -1.2081  0.3933
  123MOL0     C16840   3.905   0.849   3.020 -0.3885  0.2191  0.0732
  123MOL0     C16841   3.954   0.851   3.148  0.3180 -0.3859 -0.6341
  123MOL0     C16842   3.913   0.754   3.242 -1.0292 -0.2000  0.0845
  123MOL0     C16843   3.820   0.653   3.201 -0.1404  0.2335 -0.3169
  123MOL0     O16844   3.776   0.563   3.294  0.5660  0.7563  0.0478
  123MOL0     C16845   3.639   0.523   3.291  0.3040 -0.1960 -0.3030
  123MOL0     C16846   3.620   0.455   3.428  1.0746  0.3062 -1.3873
  123MOL0     C16847   3.640   0.559   3.543 -0.1052  0.5477  0.4926
  123MOL0     C16848   3.618   0.488   3.671  1.0485 -0.4375 -0.2867
  123MOL0     C16849   3.688   0.567   3.782  0.4570  0.2323  0.7973
  123MOL0     C16850   3.623   0.513   3.911  0.1200 -0.0519  0.4961
  123MOL0     C16851   3.678   0.582   4.037 -0.7305  0.1042 -0.1757
  123MOL0     C16852   3.610   0.540   4.169 -0.1524 -0.6895 -0.4982
  123MOL0     N16853   3.676   0.417   4.211 -0.9809  0.9540  0.1173
  123MOL0     C16854   3.610   0.291   4.207  0.1188 -0.6778  0.2896
  123MOL0     C16855   3.705   0.202   4.191 -0.1981 -0.0337 -0.3766
  123MOL0     C16856   3.710   0.053   4.201  0.7210  0.6190  0.1976
  123MOL0     C16857   3.571  -0.003   4.246  0.7660 -0.0211 -0.4853
  123MOL0     C16858   3.579   0.000   4.404  0.4822 -0.7867 -0.5235
  123MOL0     C16859   3.437  -0.036   4.464 -0.6783 -0.1457 -0.0432
  123MOL0     O16860   3.398  -0.163   4.417  0.0279 -0.3936  0.5625
  123MOL0     C16861   3.263  -0.176   4.383  0.5827  0.3428  0.4008
  123MOL0     C16862   3.191  -0.114   4.278 -0.4635 -0.2754  0.4981
  123MOL0     C16863   3.052  -0.107   4.269 -0.1556  0.0311 -0.3889
  123MOL0     C16864   2.992  -0.017   4.156  0.4432 -0.2377 -0.6451
  123MOL0     C16865   2.979  -0.190   4.355  0.8965  0.1110  0.6531
  123MOL0     C16866   2.834  -0.225   4.343  0.4823 -0.2899 -0.2574
  123MOL0     O16867   2.757  -0.144   4.250 -0.4055  0.3583  0.2828
  123MOL0     C16868   2.636  -0.095   4.275  0.7128 -0.3067 -0.2448
  123MOL0     C16869   2.590  -0.006   4.177 -0.6830  0.0795 -0.1014
  123MOL0     C16870   2.466   0.052   4.180  0.3572 -0.3090 -0.2771
  123MOL0     C16871   2.378   0.009   4.280 -0.2199 -1.0155  0.3371
  123MOL0     O16872   2.258   0.073   4.273  0.2394  0.6542  0.1339
  123MOL0     C16873   2.162   0.067   4.380 -0.5103  0.1652  0.6839
  123MOL0     C16874   2.034   0.137   4.319  0.1327  0.3224  0.1681
  123MOL0     C16875   1.974   0.077   4.193  0.3421  0.4329 -0.2207
  123MOL0     C16876   1.848   0.152   4.143  0.5665  0.3882  0.2563
  123MOL0     C16877   1.806   0.098   4.013  0.0800  0.5908  0.4636
  123MOL0     C16878   1.690   0.177   3.951 -0.2678 -0.5016 -0.1582
  123MOL0     C16879   1.648   0.110   3.818 -0.3779  0.3471 -0.1548
  123MOL0     C16880   1.540   0.198   3.761  0.0654  0.6137  0.8594
  123MOL0    Cl16881   1.464   0.125   3.612  0.3239 -0.4526 -0.9481
  123MOL0     C16882   2.428  -0.067   4.392  0.7807  0.2441 -0.6006
  123MOL0     C16883   2.554  -0.117   4.384 -1.0248  0.5633 -0.3799
  123MOL0     O16884   2.787  -0.319   4.406 -0.3730  0.5710  0.2264
  123MOL0     C16885   3.049  -0.271   4.442 -0.5148 -0.7077 -0.4012
  123MOL0     C16886   3.187  -0.260   4.465  0.8809  0.9417  0.0999
  123MOL0     N16887   3.826   0.267   4.187 -0.3492  0.3702  0.4355
  123MOL0     N16888   3.811   0.394   4.201  0.0043  0.4641 -0.7078
  123MOL0     C16889   3.781   0.646   3.074 -0.4720  0.1558 -0.6255
  123MOL0     C16890   3.824   0.744   2.982 -0.4249  0.7900 -0.0605
  123MOL0     C16891   3.993   1.186   2.917 -0.2945 -0.0091 -0.6948
  123MOL0     C16892   4.082   1.156   2.812  0.1010  0.0761  0.6232
  123MOL0     C16893   4.164   1.254   2.757  0.7637  0.3440  0.0874
  123MOL0     C16894   4.158   1.384   2.791 -0.0066 -0.3775 -0.7392
  123MOL0     O16895   4.231   1.468   2.710  0.1878  0.5351 -0.2131
  123MOL0     C16896   4.242   1.605   2.758 -0.2859 -0.0920  0.4516
  123MOL0     C16897   4.341   1.673   2.664 -0.7495 -0.3307  0.1042
  123MOL0     C16898   4.281   1.691   2.523 -1.1411 -0.3195  0.1842
  123MOL0     C16899   4.399   1.699   2.423 -0.3163  0.5101 -0.1032
  123MOL0     C16900   4.444   1.834   2.423 -0.3130 -0.3688 -0.1407
  123MOL0     C16901   4.492   1.943   2.439 -0.0757  0.1640  0.6380
  123MOL0     C16902   4.076   1.417   2.900  0.1302  0.2077 -0.9377
  123MOL0     C16903   3.996   1.320   2.966  0.8075 -0.0058 -0.4167
  123MOL0     C16904   3.917   1.367   3.083  0.3642  0.1576 -0.8222
  123MOL0     H16905   4.014   0.935   3.181 -1.7372  1.0698 -0.3616
  123MOL0     H16906   3.955   0.755   3.342 -1.4063 -0.9713  0.2577
  123MOL0     H16907   3.610   0.449   3.216 -2.4436 -0.0208  0.4935
  123MOL0     H16908   3.573   0.609   3.279  0.8713  0.0938 -1.5815
  123MOL0     H16909   3.522   0.406   3.428  2.7467 -3.4375 -0.9164
  123MOL0     H16910   3.695   0.376   3.441 -0.1795 -0.5980  0.8303
  123MOL0     H16911   3.743   0.595   3.536 -0.2238  1.1652  1.7341
  123MOL0     H16912   3.568   0.641   3.530 -0.1168  0.8462  2.1875
  123MOL0     H16913   3.511   0.474   3.691  0.1268  1.9485 -2.9290
  123MOL0     H16914   3.673   0.394   3.673 -0.5019 -1.4766  3.3416
  123MOL0     H16915   3.662   0.673   3.777 -2.8995 -0.4853  0.7654
  123MOL0     H16916   3.796   0.552   3.793  0.6295  2.2351  2.7530
  123MOL0     H16917   3.515   0.532   3.907  0.2164  0.5600  0.6425
  123MOL0     H16918   3.641   0.405   3.915  1.4134  0.1120 -0.1780
  123MOL0     H16919   3.671   0.689   4.019  1.5854  0.0306 -2.0481
  123MOL0     H16920   3.786   0.569   4.048 -0.1469  1.1586 -3.5854
  123MOL0     H16921   3.626   0.608   4.253  2.8621 -1.5089 -0.2750
  123MOL0     H16922   3.503   0.524   4.151 -0.2027  0.1314 -0.9947
  123MOL0     H16923   3.508   0.272   4.239 -0.4002 -0.8094 -1.3953
  123MOL0     H16924   3.791   0.023   4.268  0.5460  1.5026  0.8125
  123MOL0     H16925   3.732   0.014   4.101  0.4740 -0.6872  0.6283
  123MOL0     H16926   3.492   0.057   4.201  0.9116  0.5279 -0.0217
  123MOL0     H16927   3.561  -0.108   4.215 -4.6222  0.8515 -2.7565
  123MOL0     H16928   3.658  -0.069   4.434  1.0499 -0.2718 -0.8177
  123MOL0     H16929   3.605   0.099   4.444 -2.7886 -0.8081  2.1255
  123MOL0     H16930   3.451  -0.030   4.572  0.7328 -0.8008 -0.1791
  123MOL0     H16931   3.367   0.043   4.433 -0.3448  0.8951  1.7102
  123MOL0     H16932   3.241  -0.035   4.223  0.6022 -0.4973  1.1020
  123MOL0     H16933   2.921  -0.083   4.106 -0.7237 -2.6135  3.6279
  123MOL0     H16934   3.062   0.023   4.082  0.1728 -1.8575 -1.8396
  123MOL0     H16935   2.935   0.064   4.201  2.3373  1.5588 -1.3244
  123MOL0     H16936   2.657   0.009   4.093 -0.8875 -1.0748 -0.4996
  123MOL0     H16937   2.426   0.120   4.106  0.7954  0.1999 -0.0505
  123MOL0     H16938   2.126  -0.031   4.413 -1.7481  0.2223 -0.4003
  123MOL0     H16939   2.204   0.123   4.465 -1.5092  1.5347  0.3163
  123MOL0     H16940   1.944   0.113   4.377  0.5998  2.5461  1.9446
  123MOL0     H16941   2.045   0.245   4.306  0.9480 -0.1594 -5.1047
  123MOL0     H16942   1.952  -0.027   4.217  0.7464  0.9879  2.9649
  123MOL0     H16943   2.055   0.077   4.119  0.0097 -3.0527 -0.7314
  123MOL0     H16944   1.865   0.259   4.129  0.4869  0.3797  0.0913
  123MOL0     H16945   1.761   0.133   4.206  0.3007 -1.4870 -0.6095
  123MOL0     H16946   1.887   0.085   3.940 -0.5528  0.5912 -0.2571
  123MOL0     H16947   1.767  -0.004   4.024 -1.1069  1.1488  1.5838
  123MOL0     H16948   1.722   0.278   3.923 -3.4125  0.7076  0.2265
  123MOL0     H16949   1.606   0.183   4.020  0.1380  0.6918  0.2609
  123MOL0     H16950   1.620   0.006   3.838 -1.7181  0.8210  0.5178
  123MOL0     H16951   1.735   0.109   3.751 -0.7028  1.0494 -0.5960
  123MOL0     H16952   1.600   0.286   3.734  3.7777 -2.3539 -1.4200
  123MOL0     H16953   1.460   0.222   3.832 -0.3483  1.1175  0.2360
  123MOL0     H16954   2.376  -0.073   4.487  0.4050  1.4827 -0.7059
  123MOL0     H16955   2.604  -0.169   4.465  1.3073 -1.3841 -2.8539
  123MOL0     H16956   2.995  -0.335   4.511 -0.4272 -1.2888 -0.8593
  123MOL0     H16957   3.234  -0.311   4.549 -0.2032 -0.6941 -0.2548
  123MOL0     H16958   3.728   0.558   3.040 -1.1291 -0.5391  2.0075
  123MOL0     H16959   3.793   0.743   2.878 -0.4362  2.5466 -0.1024
  123MOL0     H16960   4.081   1.058   2.766  0.6944  0.1965  0.3406
  123MOL0     H16961   4.242   1.240   2.682  0.3289 -2.2393  0.0272
  123MOL0     H16962   4.153   1.668   2.765 -0.8171 -0.7851  0.0177
  123MOL0     H16963   4.280   1.602   2.860 -0.8036 -0.4071  0.6383
  123MOL0     H16964   4.440   1.628   2.678 -1.2571 -1.0298  1.7207
  123MOL0     H16965   4.354   1.775   2.702  1.8201 -1.2450  2.0228
  123MOL0     H16966   4.207   1.616   2.496 -2.7805  0.8929  1.1047
  123MOL0     H16967   4.229   1.787   2.516 -1.4445 -0.5001 -0.0877
  123MOL0     H16968   4.371   1.670   2.322 -1.9912  0.9857  0.1928
  123MOL0     H16969   4.473   1.630   2.463 -2.1793 -1.3385  0.3438
  123MOL0     H16970   4.542   2.034   2.465 -0.8275  0.0991  2.4312
  123MOL0     H16971   4.073   1.522   2.928  1.9800 -0.3806  1.9923
  123MOL0     H16972   3.930   1.306   3.172  1.3760  1.5140 -0.0033
  123MOL0     H16973   3.961   1.464   3.107 -0.1307  0.1352  0.2443
  123MOL0     H16974   3.812   1.378   3.056 -0.6069  1.4097  2.8630
  124MOL0     O16975   6.074   0.398   5.938  0.3763 -0.0102  0.2362
  124MOL0     C16976   6.073   0.335   5.833 -0.2384  0.6859 -0.0543
  124MOL0     O16977   5.986   0.343   5.740 -0.5001  0.0523  0.0035
  124MOL0     C16978   5.934   0.467   5.716  0.4328  0.7247  0.2859
  124MOL0     C16979   5.992   0.548   5.614 -0.4421  1.0162  0.4699
  124MOL0     C16980   5.942   0.679   5.596 -0.1731 -0.3619 -0.0191
  124MOL0     C16981   5.844   0.738   5.677  0.2877  0.0132 -0.7913
  124MOL0     O16982   5.780   0.860   5.651  0.1858 -0.0993  0.5812
  124MOL0     C16983   5.865   0.973   5.662  0.4884 -0.1133  0.9215
  124MOL0     C16984   5.805   1.087   5.739 -0.5949  0.0149  1.1460
  124MOL0     C16985   5.671   1.148   5.684  0.2810 -0.2750  0.4574
  124MOL0     C16986   5.630   1.274   5.772 -0.0805 -0.2266 -0.0314
  124MOL0     C16987   5.693   1.403   5.718  0.5988  0.3059 -0.7685
  124MOL0     C16988   5.663   1.518   5.808 -0.5698  0.6545  0.6617
  124MOL0     C16989   5.714   1.653   5.748 -0.9721  0.6127 -0.1201
  124MOL0     C16990   5.860   1.662   5.735 -0.3276 -1.3383 -0.4172
  124MOL0     N16991   5.919   1.799   5.710  0.5278  0.3926  0.9434
  124MOL0     C16992   5.883   1.915   5.770  0.4112 -0.0447 -0.5465
  124MOL0     C16993   5.979   2.001   5.724  0.2586 -0.7582  1.5538
  124MOL0     C16994   6.001   2.138   5.782 -0.5541  0.7882 -0.6274
  124MOL0     C16995   6.149   2.149   5.829  0.6494 -0.4411  0.3641
  124MOL0     C16996   6.193   2.293   5.865  0.4257 -0.4390  0.1104
  124MOL0     C16997   6.343   2.292   5.881 -0.8116  0.4666  0.2914
  124MOL0     O16998   6.393   2.418   5.933 -0.3847  0.8891 -0.2599
  124MOL0     C16999   6.538   2.422   5.957  0.1933  0.6174  0.9204
  124MOL0     C17000   6.582   2.546   6.012  0.2884 -0.3852  0.1409
  124MOL0     C17001   6.713   2.569   6.044 -0.5408 -0.4886 -0.7017
  124MOL0     C17002   6.760   2.698   6.106  0.3404  1.1790 -0.0849
  124MOL0     C17003   6.810   2.467   6.019  0.2698 -0.5008 -0.0141
  124MOL0     C17004   6.944   2.481   6.074  0.4846  1.1729  0.2899
  124MOL0     O17005   7.025   2.502   5.974  0.6311  0.7747  0.7957
  124MOL0     C17006   7.154   2.541   6.015  0.3116  0.1329  0.6939
  124MOL0     C17007   7.189   2.672   5.997  0.2961 -1.1493  0.2210
  124MOL0     C17008   7.315   2.718   6.032 -1.0345  0.1152 -0.0651
  124MOL0     C17009   7.406   2.629   6.081  0.8512 -1.2106  0.1852
  124MOL0     O17010   7.535   2.675   6.095 -0.0126 -0.2186 -0.0880
  124MOL0     C17011   7.636   2.583   6.065 -0.1007 -0.0761 -0.3184
  124MOL0     C17012   7.773   2.652   6.079  0.0490 -0.0914  0.9009
  124MOL0     C17013   7.899   2.566   6.085  0.4421  0.3459  0.0477
  124MOL0     C17014   8.022   2.659   6.102  0.1920 -0.7705  0.2216
  124MOL0     C17015   8.151   2.610   6.150 -0.9417  0.4017 -0.4748
  124MOL0     C17016   8.150   2.596   6.308 -0.5266 -0.6865  0.8139
  124MOL0     C17017   8.307   2.573   6.351  0.7036 -0.1475 -0.7872
  124MOL0     C17018   8.362   2.452   6.276 -0.0236 -0.2518 -0.1517
  124MOL0    Cl17019   8.272   2.303   6.314 -0.0753 -0.5386  0.2036
  124MOL0     C17020   7.371   2.496   6.095 -0.7282 -1.2495  0.8185
  124MOL0     C17021   7.249   2.446   6.060 -0.8260  0.2462  0.6163
  124MOL0     O17022   6.968   2.483   6.194 -0.0188  0.2910  0.4796
  124MOL0     C17023   6.763   2.343   5.977  0.4197  0.5124  0.1311
  124MOL0     C17024   6.629   2.315   5.946 -0.8531 -0.3085 -0.2694
  124MOL0     N17025   6.060   1.934   5.639 -0.7067 -0.1187 -0.1684
  124MOL0     N17026   6.020   1.818   5.626 -0.3020 -0.1837 -0.5035
  124MOL0     C17027   5.790   0.652   5.775  0.0131 -0.4648 -0.4050
  124MOL0     C17028   5.840   0.522   5.796 -0.2809 -0.6918 -0.5277
  124MOL0     C17029   6.182   0.242   5.818  0.1593  0.0872  0.3583
  124MOL0     C17030   6.182   0.168   5.698 -0.0945  0.8917  1.0136
  124MOL0     C17031   6.275   0.069   5.685 -0.9398 -0.3281 -0.1689
  124MOL0     C17032   6.373   0.038   5.776  0.5462 -0.2041  0.1085
  124MOL0     O17033   6.470  -0.052   5.756  0.0952  0.2098 -0.1111
  124MOL0     C17034   6.502  -0.119   5.635  0.3625 -0.2631 -0.6515
  124MOL0     C17035   6.554  -0.012   5.536  0.5535 -0.0098  0.1332
  124MOL0     C17036   6.689   0.056   5.564  0.0428  0.4510 -1.5135
  124MOL0     C17037   6.700   0.177   5.471 -0.1549  0.4306  0.7426
  124MOL0     C17038   6.815   0.258   5.521 -0.0448 -0.5477 -0.2120
  124MOL0     C17039   6.912   0.325   5.562  0.5423 -0.0570 -0.8154
  124MOL0     C17040   6.362   0.095   5.898 -0.7639  0.4932  0.4167
  124MOL0     C17041   6.268   0.190   5.924 -0.4279 -0.3585  0.2217
  124MOL0     C17042   6.258   0.230   6.064  0.1089  0.2015  0.1948
  124MOL0     H17043   6.058   0.501   5.541  0.0201 -0.5306  1.8349
  124MOL0     H17044   5.976   0.728   5.505  0.2558  0.5784  0.6425
  124MOL0     H17045   5.904   0.997   5.563 -2.7524 -0.7781 -0.6332
  124MOL0     H17046   5.961   0.945   5.707  0.7811 -1.1160 -0.2787
  124MOL0     H17047   5.780   1.054   5.840 -1.0124 -4.9030 -0.2782
  124MOL0     H17048   5.883   1.163   5.747 -1.5670  1.0228  1.3801
  124MOL0     H17049   5.681   1.166   5.577  2.4201 -1.7100  0.3567
  124MOL0     H17050   5.588   1.076   5.690 -1.3602  1.4608 -0.2636
  124MOL0     H17051   5.521   1.287   5.772  0.0038  0.5617  0.3550
  124MOL0     H17052   5.668   1.255   5.873  2.7731 -0.2705 -1.0267
  124MOL0     H17053   5.658   1.420   5.615  2.6505 -0.0859 -1.5856
  124MOL0     H17054   5.801   1.386   5.711  0.5952 -1.0113  1.5771
  124MOL0     H17055   5.554   1.531   5.816 -0.6235 -0.6708  2.5404
  124MOL0     H17056   5.706   1.501   5.906 -1.0670  0.8710  0.9208
  124MOL0     H17057   5.677   1.726   5.821 -1.3969 -2.2299  2.7121
  124MOL0     H17058   5.675   1.673   5.648  2.1557 -1.3228 -1.8845
  124MOL0     H17059   5.896   1.626   5.831 -0.9823 -0.8381  0.0246
  124MOL0     H17060   5.899   1.585   5.668 -1.7319 -2.4699  0.0045
  124MOL0     H17061   5.821   1.942   5.855  1.1971  1.8561 -0.5112
  124MOL0     H17062   5.933   2.157   5.866  0.8498  0.4165  0.6233
  124MOL0     H17063   5.990   2.209   5.700  0.4720 -0.7721 -2.1809
  124MOL0     H17064   6.168   2.085   5.916  0.7749 -1.2749 -0.2705
  124MOL0     H17065   6.214   2.130   5.744  1.6116  1.4701  0.6237
  124MOL0     H17066   6.176   2.365   5.785  0.9653 -0.3900  0.0335
  124MOL0     H17067   6.137   2.331   5.952  3.7904 -0.5483  2.5279
  124MOL0     H17068   6.378   2.210   5.944 -1.3296  0.6767  0.8591
  124MOL0     H17069   6.390   2.274   5.783 -2.9691 -0.3251 -0.6671
  124MOL0     H17070   6.511   2.624   6.038  0.2922 -0.4071  0.2182
  124MOL0     H17071   6.844   2.732   6.045 -0.7052 -0.5035 -2.6225
  124MOL0     H17072   6.801   2.679   6.205 -0.6418 -1.1269 -0.0604
  124MOL0     H17073   6.689   2.780   6.116 -0.3735  0.6441 -0.6445
  124MOL0     H17074   7.117   2.741   5.955 -0.3467 -1.6766  0.4539
  124MOL0     H17075   7.331   2.825   6.038  0.7927 -0.2133  3.8629
  124MOL0     H17076   7.632   2.507   6.144  1.8196  2.0968  2.0457
  124MOL0     H17077   7.627   2.529   5.971 -1.0545 -1.1403  0.3615
  124MOL0     H17078   7.784   2.733   6.007 -2.9410 -0.6509 -0.3529
  124MOL0     H17079   7.773   2.698   6.178 -1.3413  0.0465  0.8611
  124MOL0     H17080   7.914   2.512   5.991  1.0406 -0.9820  0.8679
  124MOL0     H17081   7.887   2.505   6.175 -0.6802  0.2475 -0.1541
  124MOL0     H17082   7.988   2.733   6.175  0.5913 -0.0219 -0.3370
  124MOL0     H17083   8.042   2.705   6.005 -0.8828  0.9035  0.7499
  124MOL0     H17084   8.171   2.517   6.097  3.0342  0.6832  0.2637
  124MOL0     H17085   8.233   2.679   6.129  1.5122 -2.4402 -0.8201
  124MOL0     H17086   8.094   2.503   6.321 -1.1373 -0.1618  2.0404
  124MOL0     H17087   8.107   2.682   6.359 -1.6752 -1.4060  1.0946
  124MOL0     H17088   8.304   2.566   6.460  0.2106  4.9000 -0.2489
  124MOL0     H17089   8.368   2.659   6.323 -0.3989  1.0551  0.3604
  124MOL0     H17090   8.466   2.441   6.306 -0.2283 -0.5182  0.4809
  124MOL0     H17091   8.378   2.479   6.171 -0.7158  3.4070  0.5598
  124MOL0     H17092   7.443   2.426   6.136 -1.2393 -3.2433 -1.4608
  124MOL0     H17093   7.217   2.343   6.070 -1.4027  0.1402 -1.5985
  124MOL0     H17094   6.834   2.261   5.967  0.8904  1.0016 -0.6172
  124MOL0     H17095   6.586   2.222   5.911  0.4395 -2.1598  2.7161
  124MOL0     H17096   5.707   0.687   5.835 -1.4281 -2.5788 -1.0462
  124MOL0     H17097   5.804   0.449   5.868 -1.2459  1.9589  1.8764
  124MOL0     H17098   6.105   0.162   5.621  3.5225 -0.3813 -2.8662
  124MOL0     H17099   6.276  -0.003   5.603  1.4888 -1.9858  1.1653
  124MOL0     H17100   6.585  -0.189   5.652  0.9244  0.4098 -0.5713
  124MOL0     H17101   6.409  -0.163   5.598  0.8212 -0.2118 -1.8844
  124MOL0     H17102   6.472   0.056   5.513 -0.6985 -0.6054  2.5652
  124MOL0     H17103   6.573  -0.072   5.446  0.0858 -1.3885  0.9254
  124MOL0     H17104   6.673   0.096   5.665  0.8517 -2.8490  0.0568
  124MOL0     H17105   6.770  -0.017   5.556 -1.8205 -2.1752  1.1181
  124MOL0     H17106   6.608   0.236   5.465 -0.6395 -0.3727  0.0988
  124MOL0     H17107   6.719   0.129   5.375  0.0236  2.0636 -0.0688
  124MOL0     H17108   6.992   0.392   5.584  0.6691  0.1455 -1.8411
  124MOL0     H17109   6.437   0.064   5.970 -0.1099 -0.4372 -0.6388
  124MOL0     H17110   6.299   0.154   6.131  0.4885  2.2649  2.4696
  124MOL0     H17111   6.307   0.325   6.087  1.1769 -0.3373  0.2330
  124MOL0     H17112   6.153   0.241   6.094 -0.3551 -2.2280 -0.3630
  125MOL0     O17113   2.181   8.965  11.333  0.0152  0.3994 -0.5705
  125MOL0     C17114   2.272   9.042  11.303 -0.7108  0.0892 -0.5981
  125MOL0     O17115   2.387   9.002  11.238  0.2515 -0.6016 -0.0073
  125MOL0     C17116   2.403   8.876  11.181  0.0133  0.5018  0.3219
  125MOL0     C17117   2.344   8.841  11.064  0.0332 -0.3684  0.0268
  125MOL0     C17118   2.345   8.718  11.009 -0.0829 -0.2842 -0.9454
  125MOL0     C17119   2.431   8.620  11.073  1.3878 -0.0344  0.0054
  125MOL0     O17120   2.455   8.498  11.017  0.3735 -0.3301  0.2537
  125MOL0     C17121   2.359   8.444  10.931 -0.2748  0.6916  0.6803
  125MOL0     C17122   2.407   8.307  10.876  0.1788 -0.2832  0.0231
  125MOL0     C17123   2.540   8.326  10.809  0.7572 -0.2401 -0.1588
  125MOL0     C17124   2.576   8.210  10.718 -0.4705  0.0275  0.5892
  125MOL0     C17125   2.721   8.239  10.658  0.5811 -0.1402 -0.3878
  125MOL0     C17126   2.722   8.354  10.555  0.9116 -0.1110 -0.9048
  125MOL0     C17127   2.862   8.382  10.495  0.7401 -0.3926  0.0354
  125MOL0     C17128   2.856   8.481  10.372  0.4508 -0.1350  0.3164
  125MOL0     N17129   2.994   8.481  10.306  0.3591 -0.1761  0.0780
  125MOL0     C17130   3.061   8.385  10.223 -0.1334 -0.6292 -0.8027
  125MOL0     C17131   3.177   8.434  10.187  0.8263 -0.2596 -0.2216
  125MOL0     C17132   3.277   8.358  10.109 -0.3585 -0.1636  0.0880
  125MOL0     C17133   3.374   8.270  10.195  0.5202  0.1386  0.0641
  125MOL0     C17134   3.489   8.341  10.267  0.1853 -0.8895  0.0802
  125MOL0     C17135   3.589   8.252  10.349  0.4362  0.9398 -0.7494
  125MOL0     O17136   3.697   8.336  10.391  0.1610  0.2141 -0.4342
  125MOL0     C17137   3.808   8.273  10.442 -0.0539  0.9624 -0.2597
  125MOL0     C17138   3.843   8.138  10.420  0.6483  0.3265 -0.2090
  125MOL0     C17139   3.972   8.081  10.446  0.2393 -0.6783  0.7538
  125MOL0     C17140   4.000   7.931  10.412 -0.0316 -0.0320  1.6961
  125MOL0     C17141   4.075   8.167  10.495  0.0824  0.1103 -0.6228
  125MOL0     C17142   4.216   8.136  10.527  0.0184  0.8500 -0.5897
  125MOL0     O17143   4.302   8.243  10.544 -0.0360 -0.5138 -0.4343
  125MOL0     C17144   4.436   8.220  10.540  0.0889  0.0702  0.1252
  125MOL0     C17145   4.493   8.132  10.634  0.2901 -0.0510  0.4749
  125MOL0     C17146   4.634   8.097  10.627  0.8554 -0.0389  0.2391
  125MOL0     C17147   4.712   8.135  10.526 -0.0023 -0.1302 -0.4262
  125MOL0     O17148   4.843   8.103  10.504  0.5448  0.0156  0.4925
  125MOL0     C17149   4.869   7.959  10.498 -0.7073 -0.3286 -0.4537
  125MOL0     C17150   4.996   7.926  10.426  0.3280  0.1448  0.6465
  125MOL0     C17151   5.031   7.779  10.423 -0.3435  0.2797 -0.0251
  125MOL0     C17152   5.158   7.750  10.337 -0.5691 -0.4846 -0.6138
  125MOL0     C17153   5.170   7.601  10.306  0.1317 -0.2333  0.4664
  125MOL0     C17154   5.306   7.570  10.254  0.4411 -0.2199  0.4031
  125MOL0     C17155   5.353   7.657  10.131  0.4732  0.4692 -0.6053
  125MOL0     C17156   5.464   7.590  10.050  0.5197  0.0216 -1.4138
  125MOL0    Cl17157   5.414   7.438   9.968  0.1169 -0.2553  0.1205
  125MOL0     C17158   4.658   8.229  10.438 -0.4292 -0.1331 -0.2347
  125MOL0     C17159   4.522   8.273  10.442 -0.1058 -0.3655 -0.3210
  125MOL0     O17160   4.250   8.018  10.548  0.3313 -0.7114  0.6527
  125MOL0     C17161   4.034   8.296  10.544 -0.3667  0.1667 -0.5259
  125MOL0     C17162   3.909   8.343  10.513 -0.9468 -0.6806  0.2759
  125MOL0     N17163   3.186   8.566  10.235 -0.4455  0.1664  0.6443
  125MOL0     N17164   3.080   8.592  10.302  0.3428  0.3715 -0.8808
  125MOL0     C17165   2.490   8.653  11.201  0.3919  0.5131  0.1547
  125MOL0     C17166   2.482   8.781  11.247 -0.1273 -0.0942  0.0410
  125MOL0     C17167   2.254   9.189  11.336  0.0326 -0.1378  0.1635
  125MOL0     C17168   2.130   9.232  11.394 -0.9137  0.1472  0.1025
  125MOL0     C17169   2.113   9.366  11.422 -0.4816 -0.0119  0.0796
  125MOL0     C17170   2.200   9.458  11.377 -0.2207 -0.2239 -0.5403
  125MOL0     O17171   2.180   9.592  11.390  0.5174 -0.4507  0.5262
  125MOL0     C17172   2.062   9.661  11.434  0.7436  0.8436 -0.0665
  125MOL0     C17173   2.075   9.807  11.419 -0.4970  0.4279  0.3770
  125MOL0     C17174   2.077   9.844  11.273 -0.1073  0.3781  0.7744
  125MOL0     C17175   2.077   9.999  11.251 -1.7611  0.1315 -0.3627
  125MOL0     C17176   1.956  10.062  11.296  0.7494 -0.2203  0.2063
  125MOL0     C17177   1.845  10.116  11.317  0.6331 -0.4293 -0.4618
  125MOL0     C17178   2.319   9.425  11.322 -0.8818 -0.1983  0.1939
  125MOL0     C17179   2.355   9.288  11.302  0.6943  0.0065 -1.0102
  125MOL0     C17180   2.488   9.274  11.243  0.4640 -0.2474  0.6338
  125MOL0     H17181   2.285   8.914  11.008  0.2748 -0.9715 -1.0413
  125MOL0     H17182   2.303   8.713  10.909 -1.4670 -3.0932 -0.3214
  125MOL0     H17183   2.335   8.514  10.850 -1.0911  0.6066  0.8411
  125MOL0     H17184   2.263   8.427  10.980 -1.6617  0.5632 -1.9420
  125MOL0     H17185   2.414   8.240  10.963  2.9285 -1.9030 -1.3211
  125MOL0     H17186   2.332   8.275  10.804 -1.6334  2.9095  0.3023
  125MOL0     H17187   2.545   8.418  10.750 -0.2112 -0.6114 -0.8502
  125MOL0     H17188   2.614   8.336  10.889  0.8785 -0.4478 -0.2402
  125MOL0     H17189   2.572   8.116  10.774  4.2851  0.1054  1.5170
  125MOL0     H17190   2.498   8.203  10.642 -1.9256  0.8647  1.9379
  125MOL0     H17191   2.754   8.156  10.595  3.0967  1.7272 -1.7236
  125MOL0     H17192   2.786   8.259  10.745  0.6529 -2.7772  0.2465
  125MOL0     H17193   2.646   8.339  10.478 -0.0795 -0.3849  0.0996
  125MOL0     H17194   2.704   8.448  10.609  0.9846 -0.2754 -0.5895
  125MOL0     H17195   2.899   8.287  10.455  1.3793 -0.2829  0.3613
  125MOL0     H17196   2.930   8.422  10.570 -2.1138  3.0528  1.0848
  125MOL0     H17197   2.784   8.443  10.299  1.7203  0.9137 -1.5678
  125MOL0     H17198   2.824   8.578  10.413 -0.5659 -0.6326  0.7284
  125MOL0     H17199   3.016   8.290  10.198 -1.0692  0.3283 -2.9933
  125MOL0     H17200   3.342   8.433  10.063  1.9684 -0.9329  1.9267
  125MOL0     H17201   3.227   8.296  10.034 -1.1521 -1.3021  1.5045
  125MOL0     H17202   3.307   8.230  10.272 -0.3913  1.9412  0.2509
  125MOL0     H17203   3.413   8.191  10.130 -0.3139 -2.4208  2.4584
  125MOL0     H17204   3.556   8.389  10.196  1.1313 -1.2151  0.7351
  125MOL0     H17205   3.439   8.421  10.323  1.1771 -0.9911  1.1543
  125MOL0     H17206   3.534   8.232  10.441  3.5301  3.5078  1.9038
  125MOL0     H17207   3.604   8.156  10.299 -1.4676 -0.2980  0.9228
  125MOL0     H17208   3.778   8.060  10.380  2.0125 -0.0542 -1.7699
  125MOL0     H17209   3.918   7.902  10.347 -1.8209  4.4530  1.5660
  125MOL0     H17210   3.991   7.870  10.502 -2.7231 -2.8609 -0.3142
  125MOL0     H17211   4.102   7.917  10.373  0.7527 -0.1314  3.6563
  125MOL0     H17212   4.436   8.082  10.712  1.4537  0.6993  1.8608
  125MOL0     H17213   4.678   8.019  10.688 -0.0392 -0.2462  0.6245
  125MOL0     H17214   4.886   7.922  10.599  2.0751  1.3960 -0.1817
  125MOL0     H17215   4.795   7.900  10.442  0.8853 -1.5849 -1.3164
  125MOL0     H17216   4.985   7.973  10.328  0.2262  1.5225  1.2927
  125MOL0     H17217   5.072   7.988  10.476  0.0448  2.2676 -1.3831
  125MOL0     H17218   4.946   7.720  10.388  0.2882 -0.8250  0.2537
  125MOL0     H17219   5.048   7.734  10.521 -1.5123  0.1816  0.1442
  125MOL0     H17220   5.244   7.782  10.397 -2.1869 -0.8968  2.1006
  125MOL0     H17221   5.173   7.807  10.245  0.2851  2.9093  1.4245
  125MOL0     H17222   5.153   7.536  10.393 -0.0110  1.4560  1.7581
  125MOL0     H17223   5.094   7.566  10.235  3.5167  1.1371 -4.2989
  125MOL0     H17224   5.318   7.463  10.236  0.9039  0.1303 -1.6010
  125MOL0     H17225   5.384   7.591  10.327  0.1638  1.1938  0.3202
  125MOL0     H17226   5.388   7.751  10.174 -0.5132  0.7668 -0.4298
  125MOL0     H17227   5.270   7.680  10.064 -0.7772 -0.4523  0.5831
  125MOL0     H17228   5.550   7.570  10.114  0.8508  0.3550 -1.7560
  125MOL0     H17229   5.485   7.662   9.971 -2.4263  1.4376 -1.0366
  125MOL0     H17230   4.726   8.267  10.362 -0.0290  0.0674  0.2179
  125MOL0     H17231   4.480   8.354  10.385 -0.4692  0.6145  1.2825
  125MOL0     H17232   4.095   8.366  10.599 -1.5338  2.0966 -1.5566
  125MOL0     H17233   3.883   8.448  10.527 -0.6167  0.2908 -4.5467
  125MOL0     H17234   2.547   8.595  11.272 -1.4550 -1.1396  0.3912
  125MOL0     H17235   2.506   8.814  11.348 -3.6186  1.2067  0.6054
  125MOL0     H17236   2.062   9.153  11.423 -0.0649 -1.2482 -1.4614
  125MOL0     H17237   2.028   9.382  11.487 -1.2811 -0.8477 -0.7273
  125MOL0     H17238   1.968   9.618  11.400  0.4000  0.8440  0.8513
  125MOL0     H17239   2.059   9.641  11.541 -1.1262 -2.7873 -0.6416
  125MOL0     H17240   2.167   9.831  11.472 -0.7271  0.7853  0.6256
  125MOL0     H17241   1.999   9.862  11.475 -2.3943 -2.9109  1.3596
  125MOL0     H17242   2.169   9.806  11.229 -0.3384 -0.8896  1.3528
  125MOL0     H17243   1.990   9.799  11.224  0.8763 -0.7510  0.0367
  125MOL0     H17244   2.099  10.025  11.147 -1.1328  0.9350 -0.0343
  125MOL0     H17245   2.162  10.026  11.314 -2.9331 -0.0332  1.3419
  125MOL0     H17246   1.754  10.165  11.346  1.7607  0.0708  2.5959
  125MOL0     H17247   2.385   9.507  11.298 -1.3863 -0.0523 -0.7364
  125MOL0     H17248   2.550   9.199  11.293  1.6229  1.3848  1.7373
  125MOL0     H17249   2.464   9.237  11.142  0.0372 -0.6245  0.8699
  125MOL0     H17250   2.540   9.370  11.234 -0.0728 -0.1206 -2.9239
  126MOL0     O17251   5.724   6.923   9.317 -0.0321  0.0891  0.0252
  126MOL0     C17252   5.656   6.867   9.230 -0.0891 -0.3781  0.3365
  126MOL0     O17253   5.548   6.916   9.169 -0.4718 -0.4490  0.1000
  126MOL0     C17254   5.505   7.033   9.228  0.2669  0.5063 -0.4946
  126MOL0     C17255   5.464   7.039   9.366  0.2310  0.4158 -0.0398
  126MOL0     C17256   5.406   7.156   9.426 -0.8545 -0.0274  0.1767
  126MOL0     C17257   5.396   7.271   9.348 -0.2253 -0.0474  0.1624
  126MOL0     O17258   5.346   7.387   9.390 -0.1532  0.0260 -0.1681
  126MOL0     C17259   5.255   7.401   9.502  0.8466  0.1173 -0.3709
  126MOL0     C17260   5.233   7.554   9.498  0.7831  0.2175  0.5442
  126MOL0     C17261   5.179   7.601   9.642  0.5767 -0.4750  0.4128
  126MOL0     C17262   5.163   7.751   9.639 -0.8179  0.9897 -0.2075
  126MOL0     C17263   5.117   7.821   9.769  0.6181  0.2217  0.0954
  126MOL0     C17264   4.971   7.785   9.797 -0.1557  0.3767  0.3164
  126MOL0     C17265   4.918   7.886   9.907  0.9577 -0.4387 -0.4739
  126MOL0     C17266   4.776   7.857   9.952  0.9056  0.5143 -0.6040
  126MOL0     N17267   4.726   7.722   9.989  1.0098 -0.0454  0.0083
  126MOL0     C17268   4.661   7.653   9.886 -0.6774  0.0388 -0.7661
  126MOL0     C17269   4.654   7.530   9.936  0.0975 -0.6347  0.2117
  126MOL0     C17270   4.600   7.405   9.877  0.1841  0.0895 -1.3515
  126MOL0     C17271   4.694   7.287   9.846  0.0438 -0.6303 -0.2224
  126MOL0     C17272   4.792   7.341   9.748 -0.0390  0.3029 -0.5486
  126MOL0     C17273   4.881   7.235   9.688 -0.4326 -0.3312  0.0708
  126MOL0     O17274   5.001   7.226   9.769  0.0399 -0.5275 -0.2771
  126MOL0     C17275   5.092   7.131   9.735  0.3074 -1.0086  0.1466
  126MOL0     C17276   5.099   7.051   9.627 -0.5048  0.2505 -0.5669
  126MOL0     C17277   5.199   6.945   9.613 -0.5003  0.4234 -0.2060
  126MOL0     C17278   5.177   6.856   9.493 -0.1862 -0.2451  0.1491
  126MOL0     C17279   5.288   6.923   9.726  0.7770 -0.0861  1.0470
  126MOL0     C17280   5.393   6.813   9.722  0.1076  0.1618 -0.8664
  126MOL0     O17281   5.427   6.760   9.597  0.2726 -0.4445 -0.4091
  126MOL0     C17282   5.527   6.678   9.563 -0.5427  0.7049 -0.7269
  126MOL0     C17283   5.522   6.592   9.452  0.3752  0.2738 -0.3711
  126MOL0     C17284   5.618   6.494   9.427 -0.3364  0.2293  0.6314
  126MOL0     C17285   5.728   6.471   9.512  0.2548 -0.9123 -0.8110
  126MOL0     O17286   5.814   6.371   9.484 -0.6069  0.0263 -0.6867
  126MOL0     C17287   5.928   6.349   9.572 -1.1089 -0.7477 -0.5958
  126MOL0     C17288   6.026   6.231   9.519  0.7214 -0.9652 -0.4407
  126MOL0     C17289   6.141   6.228   9.623  0.2443  0.2663 -0.5521
  126MOL0     C17290   6.210   6.097   9.611 -0.2792  0.6787 -0.5916
  126MOL0     C17291   6.345   6.091   9.689  0.5403 -1.2489 -0.6077
  126MOL0     C17292   6.441   6.214   9.656 -0.1843 -0.1512 -0.0660
  126MOL0     C17293   6.564   6.198   9.744  0.2209  0.5166  0.5290
  126MOL0     C17294   6.625   6.061   9.729 -0.5897  0.1785  0.8431
  126MOL0    Cl17295   6.787   6.056   9.809 -0.1186 -0.0234 -0.5120
  126MOL0     C17296   5.735   6.564   9.620 -0.7900 -0.9480 -0.0606
  126MOL0     C17297   5.637   6.662   9.644 -0.2604 -0.6456 -0.5036
  126MOL0     O17298   5.429   6.763   9.827  0.5798 -0.5115 -0.1844
  126MOL0     C17299   5.285   7.013   9.832  0.6780  0.5767  0.1931
  126MOL0     C17300   5.188   7.115   9.837 -0.4737 -0.0984 -0.6575
  126MOL0     N17301   4.700   7.529  10.069 -0.6629  1.0415 -0.8363
  126MOL0     N17302   4.740   7.648  10.099 -1.5893  0.3823  0.5627
  126MOL0     C17303   5.431   7.265   9.218 -0.3725 -0.0226 -0.0775
  126MOL0     C17304   5.483   7.153   9.159  0.6205  0.4152  0.6680
  126MOL0     C17305   5.711   6.733   9.195  0.7529  0.1185  1.1949
  126MOL0     C17306   5.830   6.694   9.255 -0.3112  1.1953  0.1816
  126MOL0     C17307   5.898   6.584   9.212 -0.3273 -0.4202 -0.1624
  126MOL0     C17308   5.846   6.491   9.127 -1.0230 -0.4159 -0.9289
  126MOL0     O17309   5.914   6.378   9.116  1.3622 -0.2183  0.3343
  126MOL0     C17310   5.857   6.280   9.026 -0.6478 -0.0169  0.3396
  126MOL0     C17311   5.972   6.173   9.003 -0.4251 -0.7437  0.4243
  126MOL0     C17312   6.109   6.221   8.946  0.7973 -0.7281  0.3041
  126MOL0     C17313   6.201   6.101   8.917 -0.0725  0.3667 -0.0039
  126MOL0     C17314   6.324   6.123   8.835 -0.1855  1.5825 -0.6367
  126MOL0     C17315   6.423   6.124   8.761 -0.3163 -0.0749  0.5043
  126MOL0     C17316   5.719   6.524   9.072  0.9211 -0.2809  0.3111
  126MOL0     C17317   5.651   6.641   9.103 -0.1682 -0.4891  0.4269
  126MOL0     C17318   5.513   6.662   9.040  0.8391  0.3516 -0.1939
  126MOL0     H17319   5.474   6.952   9.430 -0.0391  1.2832  1.2137
  126MOL0     H17320   5.387   7.161   9.532  0.1051  1.6497  0.3152
  126MOL0     H17321   5.310   7.360   9.587  0.2831 -0.1731 -0.1382
  126MOL0     H17322   5.159   7.349   9.489 -0.4267  2.4596 -0.8494
  126MOL0     H17323   5.314   7.618   9.463 -0.7491  2.4501  0.8858
  126MOL0     H17324   5.149   7.577   9.431  2.1528  4.5493  0.0000
  126MOL0     H17325   5.079   7.557   9.647  0.5431 -0.5892 -0.9247
  126MOL0     H17326   5.250   7.567   9.717 -0.0159 -5.1341 -0.8614
  126MOL0     H17327   5.266   7.785   9.625 -0.2671 -0.1156  0.9893
  126MOL0     H17328   5.110   7.782   9.548  0.1775  0.7388 -0.8866
  126MOL0     H17329   5.133   7.928   9.755  0.2912  0.3975  1.0091
  126MOL0     H17330   5.180   7.808   9.858 -1.0205  2.5594  1.7252
  126MOL0     H17331   4.904   7.793   9.711  2.4056  2.5538 -1.6211
  126MOL0     H17332   4.971   7.682   9.836 -1.5685  0.6981  1.2381
  126MOL0     H17333   4.924   7.990   9.876 -2.5228  0.6825  1.9615
  126MOL0     H17334   4.984   7.883   9.995 -1.1641  1.6211  1.3056
  126MOL0     H17335   4.766   7.925  10.038  0.8310  0.6395 -0.7106
  126MOL0     H17336   4.706   7.893   9.876 -0.4841 -2.4910 -0.8916
  126MOL0     H17337   4.627   7.692   9.790  0.7639  2.4012 -0.3905
  126MOL0     H17338   4.551   7.434   9.783 -0.2857  2.6872 -0.3871
  126MOL0     H17339   4.519   7.365   9.939  0.2399 -0.1117 -1.4073
  126MOL0     H17340   4.741   7.250   9.938 -1.7089  0.3741  1.1272
  126MOL0     H17341   4.627   7.219   9.793 -1.4750  1.3922 -1.0246
  126MOL0     H17342   4.744   7.386   9.661  0.7485  0.6554 -0.8185
  126MOL0     H17343   4.858   7.414   9.797  0.4186 -0.4333 -0.0537
  126MOL0     H17344   4.838   7.136   9.705 -1.4851  0.3422  1.5704
  126MOL0     H17345   4.915   7.267   9.589  3.0666  2.1101  1.8426
  126MOL0     H17346   5.036   7.080   9.543 -0.5950  1.3892 -0.1185
  126MOL0     H17347   5.168   6.753   9.530 -1.7601  0.2901  1.3198
  126MOL0     H17348   5.267   6.866   9.431  0.4548 -2.6704  0.5687
  126MOL0     H17349   5.090   6.893   9.439  1.2027  1.9526 -0.7344
  126MOL0     H17350   5.441   6.609   9.382 -2.5447 -0.7789  2.4999
  126MOL0     H17351   5.604   6.440   9.334  0.3576  1.8238 -0.4531
  126MOL0     H17352   5.992   6.437   9.578 -0.2839 -1.3494 -0.3944
  126MOL0     H17353   5.893   6.316   9.671  2.8217 -0.6261  1.0355
  126MOL0     H17354   5.969   6.138   9.519 -3.6625  1.4042  1.0317
  126MOL0     H17355   6.074   6.254   9.423  0.1736 -3.4119 -1.3519
  126MOL0     H17356   6.119   6.232   9.730  0.6664 -1.0233 -0.3977
  126MOL0     H17357   6.210   6.312   9.606 -0.3817  1.5508  2.5695
  126MOL0     H17358   6.243   6.080   9.507  3.3513 -0.6423  0.5959
  126MOL0     H17359   6.142   6.017   9.640  1.3705  0.1832  2.3262
  126MOL0     H17360   6.338   6.093   9.798  1.7053  1.0101 -0.5338
  126MOL0     H17361   6.388   5.998   9.651  1.0906 -1.1353 -0.2654
  126MOL0     H17362   6.399   6.314   9.668  0.2600 -0.2220  2.7817
  126MOL0     H17363   6.460   6.205   9.548 -2.9009 -0.7622 -0.5555
  126MOL0     H17364   6.541   6.215   9.849 -0.5905 -1.0030  0.6330
  126MOL0     H17365   6.637   6.275   9.719 -1.0608  1.5487 -0.1797
  126MOL0     H17366   6.645   6.043   9.623 -0.1423 -3.1417  1.3934
  126MOL0     H17367   6.558   5.984   9.769 -2.0856  0.4294 -1.0203
  126MOL0     H17368   5.821   6.563   9.687 -0.3878 -1.2849 -0.5802
  126MOL0     H17369   5.654   6.724   9.732 -1.6096 -0.6534 -0.2209
  126MOL0     H17370   5.368   7.004   9.901 -1.5803 -1.0929  2.8920
  126MOL0     H17371   5.202   7.181   9.922  1.2545 -0.2693 -0.7647
  126MOL0     H17372   5.426   7.357   9.161  2.7802  1.6386  1.9977
  126MOL0     H17373   5.501   7.139   9.053 -1.8210  0.0737  0.2488
  126MOL0     H17374   5.879   6.753   9.332  4.0821  0.9502 -2.1006
  126MOL0     H17375   5.994   6.573   9.262  0.2423  2.0228 -0.6098
  126MOL0     H17376   5.769   6.223   9.057 -1.0148  0.9126  1.0530
  126MOL0     H17377   5.828   6.321   8.929 -1.6629 -3.0714 -0.7627
  126MOL0     H17378   5.923   6.111   8.928 -3.0693  0.8242  0.7516
  126MOL0     H17379   5.977   6.125   9.101 -2.1194 -2.4409 -0.2722
  126MOL0     H17380   6.096   6.263   8.846 -1.0734 -3.2315 -0.6239
  126MOL0     H17381   6.162   6.287   9.015  1.1583  0.3408 -0.9471
  126MOL0     H17382   6.150   6.019   8.867 -0.4303  0.0225  0.8981
  126MOL0     H17383   6.236   6.064   9.014  2.8857 -0.2616 -1.2017
  126MOL0     H17384   6.512   6.147   8.706  0.2864 -0.2202  1.3976
  126MOL0     H17385   5.665   6.449   9.015 -0.8446  0.1156  1.3937
  126MOL0     H17386   5.490   6.581   8.969 -0.2541  0.1381  0.3857
  126MOL0     H17387   5.440   6.661   9.120  1.0621  0.6090  0.0138
  126MOL0     H17388   5.498   6.759   8.992 -0.0530  2.1682  3.4092
  127MOL0     O17389   5.593   9.015   2.293 -0.6705 -0.1191 -0.0452
  127MOL0     C17390   5.536   9.054   2.395 -0.8033  1.1520  0.9801
  127MOL0     O17391   5.418   9.119   2.395 -0.2154  0.0991  0.6311
  127MOL0     C17392   5.331   9.110   2.293 -0.1350  0.0801  0.0922
  127MOL0     C17393   5.261   9.228   2.250 -0.6426  0.1375  0.4724
  127MOL0     C17394   5.170   9.215   2.151 -0.0477 -0.6374  1.0857
  127MOL0     C17395   5.133   9.091   2.085 -0.5938 -0.4278  0.1253
  127MOL0     O17396   5.035   9.104   1.990 -0.0909 -0.6428 -0.1632
  127MOL0     C17397   4.975   8.992   1.933  0.0642  0.0751 -0.3930
  127MOL0     C17398   5.053   8.935   1.815 -0.4046 -0.2086  0.1623
  127MOL0     C17399   5.076   9.015   1.695 -0.1730 -0.0780 -0.3060
  127MOL0     C17400   4.955   9.065   1.611  0.8256  1.0480 -0.0061
  127MOL0     C17401   5.005   9.164   1.502 -1.0011 -0.3433 -0.3622
  127MOL0     C17402   5.064   9.102   1.377  0.1530 -0.7917  0.2952
  127MOL0     C17403   5.117   9.209   1.280 -0.7355  0.5541  0.2927
  127MOL0     C17404   5.059   9.171   1.141 -1.2418 -0.0581 -1.1132
  127MOL0     N17405   5.126   9.268   1.055  0.9980  0.1973 -0.7429
  127MOL0     C17406   5.239   9.253   0.987  0.4551 -0.4331 -0.3240
  127MOL0     C17407   5.263   9.374   0.939 -0.3298 -1.4686 -0.3096
  127MOL0     C17408   5.377   9.431   0.859 -0.1975 -0.1927  0.6194
  127MOL0     C17409   5.337   9.474   0.715 -1.1107 -0.4689 -0.1453
  127MOL0     C17410   5.247   9.369   0.642  0.1446 -0.1291  0.2375
  127MOL0     C17411   5.286   9.221   0.650 -0.7228 -0.4482  0.1812
  127MOL0     O17412   5.387   9.220   0.547  0.0708 -0.7373  0.4084
  127MOL0     C17413   5.453   9.104   0.533  0.2401  0.2444 -0.8096
  127MOL0     C17414   5.581   9.089   0.584 -0.2370  0.0725 -0.4309
  127MOL0     C17415   5.663   8.979   0.552  0.9215  1.1966  0.6205
  127MOL0     C17416   5.803   8.969   0.615 -0.4541 -0.5317  0.0921
  127MOL0     C17417   5.615   8.885   0.452  0.7992 -1.0092 -0.5489
  127MOL0     C17418   5.688   8.758   0.405  0.0083 -0.2106  0.0658
  127MOL0     O17419   5.671   8.730   0.273 -0.1494 -0.0477 -0.0331
  127MOL0     C17420   5.749   8.639   0.215 -1.1179 -0.0542  0.4905
  127MOL0     C17421   5.892   8.647   0.220 -0.4905  0.6728 -0.5101
  127MOL0     C17422   5.976   8.550   0.160 -0.6977 -0.4533  0.3006
  127MOL0     C17423   5.922   8.435   0.100  0.3157  0.0798 -0.0745
  127MOL0     O17424   6.016   8.341   0.050  0.2277 -0.2850  0.0205
  127MOL0     C17425   5.964   8.238  -0.026 -0.3049  0.8878 -0.4772
  127MOL0     C17426   6.065   8.163  -0.104 -0.1079 -0.3961 -0.3228
  127MOL0     C17427   6.139   8.256  -0.195 -0.7329 -0.3381 -0.0665
  127MOL0     C17428   6.258   8.177  -0.249  0.3917  0.1268 -0.0578
  127MOL0     C17429   6.345   8.261  -0.354  0.1210 -0.1092  0.9577
  127MOL0     C17430   6.469   8.189  -0.408 -0.7200 -0.6670 -0.1755
  127MOL0     C17431   6.566   8.291  -0.464 -0.1619 -0.4175 -0.3290
  127MOL0     C17432   6.677   8.224  -0.536 -0.4000  0.7810  0.5027
  127MOL0    Cl17433   6.783   8.341  -0.618 -0.5764 -0.5177  0.2642
  127MOL0     C17434   5.782   8.428   0.093  0.8786 -0.9486 -0.2660
  127MOL0     C17435   5.692   8.526   0.150 -0.3644 -0.1764  0.1557
  127MOL0     O17436   5.759   8.692   0.482  0.0122  0.7651 -1.0186
  127MOL0     C17437   5.484   8.904   0.402 -1.2588 -0.3870  0.6788
  127MOL0     C17438   5.407   9.008   0.447  1.0018 -0.1704  0.1520
  127MOL0     N17439   5.158   9.461   0.974 -1.0441 -0.4249  0.0325
  127MOL0     N17440   5.070   9.394   1.046 -0.0742 -0.0817 -0.0886
  127MOL0     C17441   5.209   8.982   2.128 -0.5041  0.0881 -0.4953
  127MOL0     C17442   5.303   8.988   2.230  0.5512  0.8137  0.4922
  127MOL0     C17443   5.603   9.031   2.517 -0.1006 -0.1840  0.2131
  127MOL0     C17444   5.536   8.955   2.613  0.5618 -0.2779 -0.0701
  127MOL0     C17445   5.602   8.903   2.730 -0.7881 -0.1189  0.1691
  127MOL0     C17446   5.738   8.933   2.743  0.1372 -0.9584  0.8070
  127MOL0     O17447   5.805   8.903   2.858 -0.1818  0.3529 -0.1884
  127MOL0     C17448   5.791   8.774   2.920  0.8581  0.0610 -0.2726
  127MOL0     C17449   5.774   8.791   3.077 -1.0089  0.7189 -0.1284
  127MOL0     C17450   5.739   8.662   3.155 -0.0114 -0.5263 -0.2080
  127MOL0     C17451   5.598   8.610   3.141  0.6228  1.1394  0.0524
  127MOL0     C17452   5.496   8.706   3.170 -0.3169  0.2365 -0.0263
  127MOL0     C17453   5.412   8.794   3.180  0.5326  0.7785 -0.9382
  127MOL0     C17454   5.796   9.023   2.656 -0.4583 -0.3766 -0.2216
  127MOL0     C17455   5.733   9.070   2.542  0.2418 -0.1400 -0.1969
  127MOL0     C17456   5.810   9.171   2.456 -0.4839 -0.1322 -0.6914
  127MOL0     H17457   5.277   9.316   2.313 -2.2133 -0.2523  1.4951
  127MOL0     H17458   5.117   9.305   2.122 -2.8900 -2.1167  1.3251
  127MOL0     H17459   4.871   9.009   1.905 -0.4324  0.6695  1.6418
  127MOL0     H17460   4.963   8.913   2.009 -2.0158  2.0923  1.5550
  127MOL0     H17461   5.152   8.895   1.838  0.9831  1.9167 -1.6744
  127MOL0     H17462   4.996   8.849   1.779 -1.5342  0.1791  0.9641
  127MOL0     H17463   5.147   9.095   1.715 -1.5878  1.8373 -2.4494
  127MOL0     H17464   5.126   8.949   1.623  0.3562  0.0692 -0.0798
  127MOL0     H17465   4.893   8.991   1.560  0.3294  0.0973  1.8823
  127MOL0     H17466   4.887   9.107   1.686 -0.5856 -0.6091 -0.3068
  127MOL0     H17467   5.078   9.236   1.540 -1.4396 -0.3554  0.5386
  127MOL0     H17468   4.920   9.225   1.470  0.9562  2.3520 -0.7696
  127MOL0     H17469   5.142   9.031   1.409  0.1975  0.0442  2.1631
  127MOL0     H17470   4.976   9.047   1.342 -0.4121  1.3246 -1.8595
  127MOL0     H17471   5.226   9.209   1.285 -0.7751 -0.4684  1.3790
  127MOL0     H17472   5.085   9.309   1.311  3.2871  1.3709  2.3585
  127MOL0     H17473   5.088   9.071   1.110  0.9342  0.8220 -2.0867
  127MOL0     H17474   4.950   9.183   1.142 -0.9901  3.5796  1.1122
  127MOL0     H17475   5.311   9.173   0.975  1.9051  0.6972  0.3986
  127MOL0     H17476   5.456   9.356   0.854 -0.1256 -0.3500  2.9049
  127MOL0     H17477   5.413   9.521   0.908 -2.0628  1.2592 -0.5268
  127MOL0     H17478   5.274   9.562   0.724  0.7620  0.9936 -0.7707
  127MOL0     H17479   5.429   9.503   0.664 -1.4254  0.7282 -0.0421
  127MOL0     H17480   5.146   9.379   0.682 -0.1602 -1.6748 -0.0839
  127MOL0     H17481   5.243   9.385   0.534 -1.3370 -2.3968 -0.1147
  127MOL0     H17482   5.331   9.193   0.746 -1.6058  0.9577  1.0310
  127MOL0     H17483   5.200   9.160   0.621 -1.7124  2.6749 -4.7089
  127MOL0     H17484   5.628   9.175   0.631  1.6807 -0.5302 -1.1484
  127MOL0     H17485   5.858   9.063   0.611 -0.4191 -0.4450  1.8441
  127MOL0     H17486   5.858   8.892   0.558 -2.2306 -1.1445 -0.8880
  127MOL0     H17487   5.799   8.935   0.719  2.9672 -1.3461  0.0812
  127MOL0     H17488   5.940   8.729   0.272  2.7811 -2.1816  1.3994
  127MOL0     H17489   6.083   8.568   0.162 -0.6787 -0.1307  3.8031
  127MOL0     H17490   5.925   8.151   0.027  1.7557  0.6972  0.8545
  127MOL0     H17491   5.892   8.279  -0.097 -0.2040  0.3457 -0.9031
  127MOL0     H17492   6.131   8.113  -0.032  0.6663 -0.6649 -1.1947
  127MOL0     H17493   6.009   8.085  -0.157  0.5007  1.2868 -3.6968
  127MOL0     H17494   6.181   8.348  -0.153 -3.1016  0.7068  0.1181
  127MOL0     H17495   6.072   8.286  -0.276 -0.3568  0.6632 -0.0302
  127MOL0     H17496   6.216   8.086  -0.294 -0.3259  1.4985 -2.3186
  127MOL0     H17497   6.320   8.151  -0.163 -0.5133 -1.5954  0.1409
  127MOL0     H17498   6.278   8.271  -0.440  0.9206 -1.0590  0.1988
  127MOL0     H17499   6.376   8.363  -0.330  0.3912  0.6004 -1.9582
  127MOL0     H17500   6.431   8.124  -0.487  0.1360  1.7041 -2.7141
  127MOL0     H17501   6.511   8.123  -0.333 -1.1681  0.5028  1.1468
  127MOL0     H17502   6.614   8.346  -0.382 -2.7675  0.9480  0.3744
  127MOL0     H17503   6.507   8.365  -0.519 -1.3172  0.2342  1.6974
  127MOL0     H17504   6.643   8.148  -0.607  1.3373 -1.0384  1.4985
  127MOL0     H17505   6.738   8.166  -0.466 -0.2720  0.9452  0.5266
  127MOL0     H17506   5.739   8.348   0.034 -0.0464 -0.2835 -0.5064
  127MOL0     H17507   5.584   8.522   0.139 -0.2028  0.1813 -1.9183
  127MOL0     H17508   5.439   8.833   0.332 -1.2002  1.4900 -1.3549
  127MOL0     H17509   5.305   9.027   0.416  1.5633  1.9479 -0.5375
  127MOL0     H17510   5.180   8.894   2.072 -1.5318  0.1982 -0.1605
  127MOL0     H17511   5.367   8.904   2.257  0.9478  1.6943  2.4677
  127MOL0     H17512   5.433   8.923   2.602  0.8106 -2.3397  2.5926
  127MOL0     H17513   5.557   8.840   2.806 -3.1394 -2.2232 -2.7327
  127MOL0     H17514   5.711   8.718   2.869  2.1380  0.3711 -2.7808
  127MOL0     H17515   5.887   8.722   2.914  1.7738  1.8384 -1.8463
  127MOL0     H17516   5.692   8.859   3.102 -2.9780 -0.9004 -1.7820
  127MOL0     H17517   5.871   8.825   3.114  0.9280 -2.7458 -1.5616
  127MOL0     H17518   5.824   8.597   3.131  1.4193  1.3872 -0.5240
  127MOL0     H17519   5.738   8.688   3.261 -1.8548  0.0175 -0.3334
  127MOL0     H17520   5.580   8.524   3.206  0.3270 -0.9170 -2.5537
  127MOL0     H17521   5.570   8.559   3.048  1.3694 -1.0212  0.9553
  127MOL0     H17522   5.357   8.883   3.202  1.4329  0.8568  1.4045
  127MOL0     H17523   5.882   9.081   2.687 -1.3961  0.3137  1.1860
  127MOL0     H17524   5.868   9.116   2.381 -1.0699 -4.5149  1.7615
  127MOL0     H17525   5.749   9.249   2.410 -0.5600  0.4747  0.3936
  127MOL0     H17526   5.871   9.231   2.525 -2.2488  1.6110 -0.5668
  128MOL0     O17527   9.032   0.348   0.510 -0.1772 -0.0304 -0.4447
  128MOL0     C17528   8.949   0.335   0.414 -0.2702 -0.2380 -0.0776
  128MOL0     O17529   8.973   0.359   0.285 -0.6627  0.1854 -0.2191
  128MOL0     C17530   9.111   0.388   0.255  0.2582  0.4115 -0.4798
  128MOL0     C17531   9.164   0.519   0.253 -0.0304  0.4447  0.5178
  128MOL0     C17532   9.297   0.536   0.221  0.4749 -0.3170 -0.0914
  128MOL0     C17533   9.386   0.437   0.192  0.1969  1.3006  0.2015
  128MOL0     O17534   9.518   0.466   0.183 -0.1338 -0.1739  0.1595
  128MOL0     C17535   9.620   0.378   0.210 -0.4217  0.3631  1.1066
  128MOL0     C17536   9.743   0.456   0.192 -0.3528 -0.4734  0.5284
  128MOL0     C17537   9.870   0.372   0.178 -0.1528 -0.4286  0.5754
  128MOL0     C17538   9.990   0.460   0.169  0.8006  0.3529 -0.1977
  128MOL0     C17539  10.123   0.392   0.159  0.0810  0.1012 -0.4089
  128MOL0     C17540  10.159   0.328   0.027  1.5056 -0.1014 -0.0919
  128MOL0     C17541  10.310   0.286   0.022  0.1382  0.9903  0.5698
  128MOL0     C17542  10.359   0.275  -0.120  0.2671 -0.0282  0.6621
  128MOL0     N17543  10.505   0.260  -0.118  0.0566 -0.0513 -0.2962
  128MOL0     C17544  10.597   0.323  -0.197  1.0482  0.4775  0.6480
  128MOL0     C17545  10.715   0.298  -0.139 -1.5555  0.4365  0.1521
  128MOL0     C17546  10.837   0.351  -0.207  0.2846 -0.2452  0.4870
  128MOL0     C17547  10.912   0.244  -0.284 -0.4251  0.6391 -0.2579
  128MOL0     C17548  10.996   0.316  -0.393  0.7942 -0.2387  0.7021
  128MOL0     C17549  11.097   0.418  -0.360  0.3591  0.2624 -0.2775
  128MOL0     O17550  11.186   0.352  -0.265 -0.6928  0.0291  0.1072
  128MOL0     C17551  11.257   0.439  -0.190  0.6841  0.3454  0.7334
  128MOL0     C17552  11.211   0.512  -0.084  0.4075 -0.4099 -0.2560
  128MOL0     C17553  11.286   0.612  -0.023 -0.5080  0.7001 -0.2172
  128MOL0     C17554  11.226   0.677   0.096  0.0207  0.0695 -0.2652
  128MOL0     C17555  11.422   0.627  -0.062 -0.3052  0.7714 -0.1260
  128MOL0     C17556  11.528   0.707   0.005 -0.0090  0.4795  0.4432
  128MOL0     O17557  11.652   0.694  -0.047 -0.3454  0.5506 -0.1178
  128MOL0     C17558  11.755   0.763   0.020  0.3977 -0.1311  0.0312
  128MOL0     C17559  11.788   0.720   0.150 -1.2974  0.1428 -1.2655
  128MOL0     C17560  11.906   0.769   0.209 -0.1463 -0.0440 -0.8335
  128MOL0     C17561  11.972   0.883   0.160  0.2078  0.0492 -0.3469
  128MOL0     O17562  12.086   0.924   0.227  0.6818 -0.6583  0.3827
  128MOL0     C17563  12.133   1.059   0.222 -0.5551 -0.4196  0.9387
  128MOL0     C17564  12.282   1.048   0.259 -0.6678 -0.6897 -0.0810
  128MOL0     C17565  12.294   1.031   0.414  0.3419 -0.2557  0.0550
  128MOL0     C17566  12.435   1.007   0.456 -0.2400  0.1789 -0.4384
  128MOL0     C17567  12.450   1.000   0.607 -0.5292  0.6504  0.4078
  128MOL0     C17568  12.603   0.986   0.643 -0.3681  0.0092  0.6158
  128MOL0     C17569  12.706   1.083   0.590  0.6717 -0.2334  0.0921
  128MOL0     C17570  12.836   1.089   0.674 -0.8822  0.1900 -0.0225
  128MOL0    Cl17571  12.975   1.138   0.564  0.2742  0.4860 -0.1418
  128MOL0     C17572  11.919   0.935   0.040 -0.7944  0.4641 -0.2327
  128MOL0     C17573  11.812   0.875  -0.031 -0.3956 -0.3669  0.3147
  128MOL0     O17574  11.495   0.773   0.109 -0.3770  0.4680  0.2475
  128MOL0     C17575  11.465   0.559  -0.180 -0.5473 -0.7329  0.4953
  128MOL0     C17576  11.382   0.473  -0.245 -0.4540  0.8957 -0.2202
  128MOL0     N17577  10.698   0.223  -0.020 -0.0163 -0.5838 -0.1161
  128MOL0     N17578  10.570   0.203  -0.010 -0.0779  0.3622 -0.9224
  128MOL0     C17579   9.334   0.311   0.205 -0.2276 -0.4761  0.3308
  128MOL0     C17580   9.201   0.285   0.243 -0.0248 -0.0768  0.9841
  128MOL0     C17581   8.817   0.279   0.457  0.5029 -0.8257 -0.3287
  128MOL0     C17582   8.707   0.300   0.364 -1.0188 -0.2248 -0.3292
  128MOL0     C17583   8.582   0.258   0.388  0.3798  0.6934  0.0577
  128MOL0     C17584   8.555   0.189   0.502  0.4435  0.3939 -0.3854
  128MOL0     O17585   8.430   0.140   0.535 -0.1071 -0.6250 -0.0449
  128MOL0     C17586   8.338   0.098   0.437 -0.9182 -0.6916  0.4736
  128MOL0     C17587   8.295  -0.040   0.466  0.4823  0.2246 -0.8014
  128MOL0     C17588   8.225  -0.115   0.350 -1.0677 -1.4384  0.9741
  128MOL0     C17589   8.205  -0.262   0.387  0.0961  0.0542 -0.6232
  128MOL0     C17590   8.331  -0.326   0.354 -0.2550  0.4779 -0.9351
  128MOL0     C17591   8.430  -0.392   0.341 -0.1854  0.4123  0.3427
  128MOL0     C17592   8.659   0.164   0.597 -0.9243  0.0616 -0.0787
  128MOL0     C17593   8.792   0.206   0.573  0.3712 -0.0891 -0.2179
  128MOL0     C17594   8.903   0.165   0.677 -0.4673  0.2493 -0.5515
  128MOL0     H17595   9.101   0.605   0.274  0.6027  1.1465 -0.3604
  128MOL0     H17596   9.340   0.634   0.202  3.4436 -1.5191 -0.1568
  128MOL0     H17597   9.624   0.292   0.143 -0.5603 -4.0949  6.1037
  128MOL0     H17598   9.624   0.335   0.310  0.3842 -1.3816  0.3627
  128MOL0     H17599   9.736   0.522   0.105 -0.9121 -2.3249 -0.9137
  128MOL0     H17600   9.756   0.515   0.283 -0.2859  1.1703 -0.5063
  128MOL0     H17601   9.876   0.306   0.265  3.3885 -1.0987 -0.0519
  128MOL0     H17602   9.871   0.311   0.087  0.4157  0.1849  0.1662
  128MOL0     H17603   9.973   0.531   0.087 -0.7916  0.3084  0.0652
  128MOL0     H17604   9.996   0.526   0.256  0.7767  2.4581 -1.7059
  128MOL0     H17605  10.122   0.318   0.239  0.1385 -1.6731 -1.9908
  128MOL0     H17606  10.205   0.459   0.188  0.8646 -0.5126 -1.1400
  128MOL0     H17607  10.085   0.248   0.013 -2.2859  1.8626  5.2568
  128MOL0     H17608  10.135   0.394  -0.057  0.6732 -0.5627 -0.2250
  128MOL0     H17609  10.331   0.189   0.066  0.3226  0.0491 -1.4571
  128MOL0     H17610  10.371   0.367   0.063  1.5124 -0.5766  1.7275
  128MOL0     H17611  10.315   0.187  -0.169 -2.8835  1.9054 -0.2941
  128MOL0     H17612  10.327   0.369  -0.166 -1.5558  0.1983  2.2388
  128MOL0     H17613  10.580   0.366  -0.296  0.6834  3.0948  1.7748
  128MOL0     H17614  10.913   0.396  -0.142  1.3507 -1.3846  0.0661
  128MOL0     H17615  10.796   0.433  -0.267  0.0575  1.0503  2.3258
  128MOL0     H17616  10.977   0.191  -0.214 -0.3940  0.5227 -0.3758
  128MOL0     H17617  10.849   0.167  -0.330  0.3137 -0.6390  0.8018
  128MOL0     H17618  11.041   0.242  -0.460  0.0225  1.7220 -2.1621
  128MOL0     H17619  10.933   0.381  -0.454  3.2302  2.6984  1.0781
  128MOL0     H17620  11.143   0.437  -0.457 -1.4509  0.2129 -1.1811
  128MOL0     H17621  11.048   0.505  -0.316 -0.0163 -0.3087  0.4536
  128MOL0     H17622  11.112   0.487  -0.045  1.0432 -2.1104  0.3320
  128MOL0     H17623  11.233   0.786   0.092 -3.8074  0.4750  0.5013
  128MOL0     H17624  11.293   0.641   0.175  0.5196 -1.3986 -1.3050
  128MOL0     H17625  11.121   0.655   0.118 -0.1220  0.8189 -0.1688
  128MOL0     H17626  11.732   0.650   0.211  0.0259 -0.8170 -1.0928
  128MOL0     H17627  11.943   0.744   0.308 -1.1072 -2.7366 -1.0849
  128MOL0     H17628  12.128   1.094   0.118 -0.6112 -0.4807  0.9205
  128MOL0     H17629  12.070   1.127   0.280 -0.2438 -0.6547  1.5562
  128MOL0     H17630  12.352   0.982   0.206  1.4300  1.3977 -0.0434
  128MOL0     H17631  12.327   1.146   0.241  0.2374 -1.1093 -0.1631
  128MOL0     H17632  12.252   0.937   0.450 -1.5384  0.5836  0.1976
  128MOL0     H17633  12.245   1.113   0.467  2.4730  2.1094 -1.4170
  128MOL0     H17634  12.499   1.090   0.423  0.5069  1.0157  2.8108
  128MOL0     H17635  12.471   0.912   0.414 -0.7287 -1.0877  1.8356
  128MOL0     H17636  12.409   1.093   0.647 -0.7133  0.0566  1.6577
  128MOL0     H17637  12.404   0.917   0.661 -0.6630 -0.1794 -0.9326
  128MOL0     H17638  12.635   0.884   0.618  1.1505  1.0637 -2.2237
  128MOL0     H17639  12.603   0.986   0.753 -1.4684  1.1937  0.6388
  128MOL0     H17640  12.667   1.185   0.585  2.6395  0.4830 -3.3165
  128MOL0     H17641  12.726   1.056   0.486  0.5300 -0.8816  0.2237
  128MOL0     H17642  12.859   0.993   0.721 -0.6179 -0.8137 -2.0764
  128MOL0     H17643  12.829   1.158   0.758  1.3399 -1.5755  1.7216
  128MOL0     H17644  11.951   1.028  -0.006 -0.9434 -0.5513 -2.5323
  128MOL0     H17645  11.790   0.920  -0.128  1.3047 -0.4224 -0.1182
  128MOL0     H17646  11.564   0.565  -0.224 -1.6652 -3.9068 -2.9802
  128MOL0     H17647  11.414   0.424  -0.337  0.0165  2.9983 -1.2441
  128MOL0     H17648   9.391   0.220   0.190 -0.2653 -0.1961 -1.9627
  128MOL0     H17649   9.167   0.185   0.271 -0.8681 -0.2057 -0.3799
  128MOL0     H17650   8.726   0.363   0.278  1.1273 -0.5111 -0.1206
  128MOL0     H17651   8.500   0.293   0.327 -2.6076 -1.6654  2.4279
  128MOL0     H17652   8.253   0.166   0.442 -1.1537 -1.0112  1.0276
  128MOL0     H17653   8.378   0.099   0.335 -3.0468 -0.6635 -0.4105
  128MOL0     H17654   8.237  -0.036   0.558  1.2464 -0.3403 -0.2783
  128MOL0     H17655   8.383  -0.101   0.490 -0.1274 -0.9925 -1.5615
  128MOL0     H17656   8.128  -0.066   0.333  0.0252 -0.0381 -2.1337
  128MOL0     H17657   8.285  -0.107   0.259  0.4810  2.2031  2.1223
  128MOL0     H17658   8.127  -0.311   0.330 -2.1620  2.6902 -0.0092
  128MOL0     H17659   8.191  -0.276   0.495 -1.4367 -0.5087 -0.8725
  128MOL0     H17660   8.523  -0.440   0.321  0.1727  1.4379 -0.5741
  128MOL0     H17661   8.635   0.120   0.693  3.7463 -0.7908  0.9309
  128MOL0     H17662   8.988   0.120   0.626 -1.8627  0.2436 -3.0201
  128MOL0     H17663   8.939   0.254   0.730  0.9270  0.3210 -1.5841
  128MOL0     H17664   8.857   0.094   0.747  0.4711 -1.4634 -1.6100
  129MOL0     O17665   8.385  10.539   9.884 -0.4341 -0.5377  0.3673
  129MOL0     C17666   8.412  10.559   9.768  0.2532 -1.0083  0.5032
  129MOL0     O17667   8.519  10.517   9.697  0.4606 -0.4183 -0.4910
  129MOL0     C17668   8.618  10.447   9.762  0.3566  0.3385  0.5574
  129MOL0     C17669   8.672  10.341   9.687 -0.3819  0.2257 -0.0200
  129MOL0     C17670   8.768  10.255   9.744  0.1407 -0.4566  0.6353
  129MOL0     C17671   8.823  10.287   9.870 -0.0298  0.1214 -0.9874
  129MOL0     O17672   8.912  10.203   9.940  0.0655  0.2709 -0.0211
  129MOL0     C17673   8.997  10.117   9.869 -1.1438 -0.4207  0.4868
  129MOL0     C17674   9.131  10.090   9.942 -0.6790  0.2477  0.1205
  129MOL0     C17675   9.120   9.978  10.048  0.9771 -0.4336  0.0059
  129MOL0     C17676   9.258   9.936  10.113  0.9450  0.5058  0.1220
  129MOL0     C17677   9.259   9.793  10.177  0.5610  0.2726  0.6701
  129MOL0     C17678   9.300   9.685  10.073  0.2515  0.2607 -0.1805
  129MOL0     C17679   9.256   9.541  10.125  0.0738 -0.5764  0.4029
  129MOL0     C17680   9.295   9.486  10.266 -0.2259  0.0077  0.0813
  129MOL0     N17681   9.432   9.441  10.270  0.1951  0.8702 -0.3878
  129MOL0     C17682   9.553   9.497  10.244 -0.5400 -0.5077  0.3947
  129MOL0     C17683   9.650   9.409  10.286 -0.1667 -0.1793  0.9074
  129MOL0     C17684   9.803   9.414  10.286  0.8533  0.3210  0.1313
  129MOL0     C17685   9.872   9.306  10.196 -0.3548  1.2873 -0.2090
  129MOL0     C17686  10.013   9.347  10.154 -0.1507  1.1410  0.2919
  129MOL0     C17687  10.118   9.335  10.270  0.4273  0.9229  1.0584
  129MOL0     O17688  10.111   9.448  10.362 -0.6976  0.3568  0.5558
  129MOL0     C17689  10.236   9.487  10.410  0.5835  0.3186  0.9336
  129MOL0     C17690  10.249   9.628  10.403 -0.4910  0.2637 -0.8040
  129MOL0     C17691  10.376   9.687  10.441 -0.1734  0.4191  0.6572
  129MOL0     C17692  10.397   9.839  10.428  0.2770 -0.4657  1.3323
  129MOL0     C17693  10.479   9.604  10.493 -0.0012  0.5133  0.7024
  129MOL0     C17694  10.614   9.653  10.550 -0.1341  0.1536  0.1888
  129MOL0     O17695  10.704   9.556  10.589  0.2097 -0.6596 -0.3288
  129MOL0     C17696  10.818   9.594  10.666  0.5446  0.9856 -0.7150
  129MOL0     C17697  10.934   9.528  10.647 -0.0021  0.1732 -1.0707
  129MOL0     C17698  11.051   9.562  10.730  1.0728  1.1508 -0.1381
  129MOL0     C17699  11.037   9.642  10.839  0.2293 -0.0180 -0.3239
  129MOL0     O17700  11.145   9.671  10.928  0.2369 -0.6781 -0.7698
  129MOL0     C17701  11.241   9.575  10.951  0.3119 -0.0038 -0.7823
  129MOL0     C17702  11.367   9.611  10.875  0.8323 -0.6723  0.1168
  129MOL0     C17703  11.489   9.557  10.946  0.8873 -0.3914  0.3014
  129MOL0     C17704  11.614   9.584  10.869 -0.1997 -0.3532  0.6233
  129MOL0     C17705  11.735   9.506  10.917  0.4160 -0.2061  0.0609
  129MOL0     C17706  11.845   9.525  10.807  0.1941 -0.0758  0.6847
  129MOL0     C17707  11.954   9.422  10.830  0.7318  0.0857  0.2571
  129MOL0     C17708  12.048   9.418  10.709 -0.2678 -0.6184  0.6312
  129MOL0    Cl17709  12.157   9.279  10.724 -0.4381  0.0316  0.1064
  129MOL0     C17710  10.918   9.711  10.855  1.2747  0.5070  0.2212
  129MOL0     C17711  10.805   9.686  10.773 -0.4407 -0.3458  0.2898
  129MOL0     O17712  10.634   9.777  10.554 -0.3048  0.4112 -0.7643
  129MOL0     C17713  10.462   9.467  10.493 -0.0723  0.0129 -0.2233
  129MOL0     C17714  10.341   9.402  10.451  1.3380 -0.2203 -0.4180
  129MOL0     N17715   9.579   9.311  10.356 -0.2632 -0.9843  0.3647
  129MOL0     N17716   9.449   9.329  10.348  0.6326  0.4481 -0.3344
  129MOL0     C17717   8.773  10.398   9.941  0.8181 -0.2249  0.0933
  129MOL0     C17718   8.676  10.477   9.883  0.5940 -0.2679 -0.2608
  129MOL0     C17719   8.305  10.614   9.690  0.2232 -0.2926  0.7167
  129MOL0     C17720   8.238  10.725   9.739 -0.0487 -0.0538 -0.5663
  129MOL0     C17721   8.148  10.795   9.654 -0.3754 -0.1363  0.2018
  129MOL0     C17722   8.113  10.747   9.529 -0.2423  0.6513 -0.4023
  129MOL0     O17723   8.012  10.799   9.451  0.4684 -0.1269 -0.2024
  129MOL0     C17724   7.898  10.866   9.519 -0.1646 -0.6986 -0.6893
  129MOL0     C17725   7.803  10.765   9.581 -0.1160 -0.1923 -1.0282
  129MOL0     C17726   7.837  10.697   9.716  0.5503 -0.5822  0.3687
  129MOL0     C17727   7.728  10.602   9.770 -0.8012  0.5471 -0.2646
  129MOL0     C17728   7.731  10.466   9.704  0.5195 -0.2147 -0.5478
  129MOL0     C17729   7.716  10.345   9.689  0.3652 -1.0037 -0.5795
  129MOL0     C17730   8.168  10.623   9.491 -0.4643  0.0579 -1.0077
  129MOL0     C17731   8.267  10.555   9.567  0.1119  0.4705 -0.5923
  129MOL0     C17732   8.332  10.429   9.507  0.6139 -0.0491  0.1410
  129MOL0     H17733   8.632  10.348   9.586 -3.9052 -0.2771  1.1769
  129MOL0     H17734   8.806  10.165   9.698 -0.9450 -0.3649 -0.5299
  129MOL0     H17735   9.029  10.168   9.778  2.6246  1.2232  2.4667
  129MOL0     H17736   8.945  10.027   9.837 -0.3266 -0.1027 -1.9034
  129MOL0     H17737   9.203  10.043   9.875  0.3492  1.6842  0.1716
  129MOL0     H17738   9.181  10.177   9.985 -1.2835  0.0502  1.2989
  129MOL0     H17739   9.062  10.020  10.132 -0.2437  3.0536 -2.3406
  129MOL0     H17740   9.072   9.895   9.996  1.1135 -0.5320  0.0372
  129MOL0     H17741   9.334   9.948  10.035  0.1787  1.2498 -0.5306
  129MOL0     H17742   9.278  10.011  10.190  2.4479  0.4731 -0.2150
  129MOL0     H17743   9.159   9.789  10.222  0.2139  1.5867  0.0775
  129MOL0     H17744   9.339   9.795  10.251  1.2693 -0.5884 -0.0515
  129MOL0     H17745   9.265   9.717   9.974  0.2312 -0.2724 -0.3505
  129MOL0     H17746   9.408   9.689  10.062  0.6330 -1.5230  2.1317
  129MOL0     H17747   9.303   9.472  10.053  0.8566  1.0915 -0.7502
  129MOL0     H17748   9.151   9.524  10.100  0.1955  0.5891 -1.0932
  129MOL0     H17749   9.280   9.567  10.339  0.4252 -0.6064  0.9052
  129MOL0     H17750   9.225   9.406  10.291 -1.1234  0.8862  0.4411
  129MOL0     H17751   9.570   9.592  10.195  2.1534 -1.3901 -0.5834
  129MOL0     H17752   9.827   9.394  10.391  1.4118 -0.6791 -0.1700
  129MOL0     H17753   9.837   9.516  10.268  0.6691  0.4681  0.6167
  129MOL0     H17754   9.880   9.213  10.253 -0.0718  1.0666 -0.6017
  129MOL0     H17755   9.820   9.274  10.105 -1.0058 -3.3719  1.5199
  129MOL0     H17756  10.043   9.279  10.074 -3.1170 -3.6214  2.7260
  129MOL0     H17757   9.998   9.453  10.131 -0.7976  0.7649 -1.0885
  129MOL0     H17758  10.099   9.248  10.334  0.3681  0.3034  0.2077
  129MOL0     H17759  10.213   9.326  10.217 -0.2672  0.3350 -0.1221
  129MOL0     H17760  10.171   9.695  10.370 -1.1732  0.2611  0.7645
  129MOL0     H17761  10.416   9.887  10.524 -1.3624  1.6269  0.7064
  129MOL0     H17762  10.310   9.896  10.395  1.1044 -0.4410 -1.0111
  129MOL0     H17763  10.486   9.859  10.368 -0.3845  0.6877  0.6959
  129MOL0     H17764  10.936   9.447  10.575  0.1221  1.2213 -2.2808
  129MOL0     H17765  11.148   9.524  10.699  0.8020 -1.1236  1.5364
  129MOL0     H17766  11.267   9.587  11.057 -1.3186  2.7689 -0.6159
  129MOL0     H17767  11.209   9.473  10.927  0.0774 -0.0441 -0.3090
  129MOL0     H17768  11.356   9.573  10.773  2.0579 -1.4401  0.2463
  129MOL0     H17769  11.366   9.720  10.881  0.9444 -0.4421 -2.5999
  129MOL0     H17770  11.470   9.452  10.969 -2.7528  0.0398 -0.2677
  129MOL0     H17771  11.495   9.603  11.045 -0.3265 -0.8391  0.6007
  129MOL0     H17772  11.640   9.690  10.873 -1.5956  0.0686 -0.5597
  129MOL0     H17773  11.579   9.560  10.767 -0.0394  0.0689  0.4669
  129MOL0     H17774  11.777   9.552  11.007  0.1591  1.2755 -0.5492
  129MOL0     H17775  11.716   9.400  10.935  3.0939 -0.8020 -0.0963
  129MOL0     H17776  11.891   9.625  10.810  0.9447 -0.3718 -0.3112
  129MOL0     H17777  11.797   9.519  10.709 -1.4375  1.6711  1.3073
  129MOL0     H17778  11.898   9.328  10.830  0.1924  0.3364 -2.0237
  129MOL0     H17779  12.017   9.450  10.915  3.9228  0.6522 -2.0937
  129MOL0     H17780  12.098   9.515  10.706 -2.7135  0.8207  2.5267
  129MOL0     H17781  11.992   9.412  10.615  0.6166  2.9410 -0.2985
  129MOL0     H17782  10.917   9.790  10.930 -1.2275 -0.9003  1.8416
  129MOL0     H17783  10.708   9.731  10.790 -0.0451  0.0261  1.7382
  129MOL0     H17784  10.538   9.398  10.530  1.6809  1.4575 -0.9778
  129MOL0     H17785  10.340   9.294  10.442 -0.5460 -0.1893 -0.9590
  129MOL0     H17786   8.818  10.417  10.038  2.2328 -0.8831 -0.3959
  129MOL0     H17787   8.633  10.560   9.938  0.8543 -1.0098  1.0853
  129MOL0     H17788   8.250  10.756   9.842 -2.4170 -1.4676  0.1981
  129MOL0     H17789   8.104  10.878   9.709  1.2802  2.3570 -1.9742
  129MOL0     H17790   7.932  10.945   9.586 -0.5991  0.0326 -1.3160
  129MOL0     H17791   7.850  10.921   9.437  2.1844  1.2058 -0.9252
  129MOL0     H17792   7.797  10.691   9.500 -0.9758 -1.0540 -0.1993
  129MOL0     H17793   7.708  10.819   9.591 -0.6710 -0.6943 -3.1108
  129MOL0     H17794   7.937  10.653   9.711  1.1142  0.7184 -0.5064
  129MOL0     H17795   7.840  10.783   9.784  1.9983 -0.2910 -0.0298
  129MOL0     H17796   7.634  10.658   9.769  0.2742  2.4103 -1.0070
  129MOL0     H17797   7.766  10.579   9.870  0.0926 -2.4527 -1.1861
  129MOL0     H17798   7.694  10.240   9.696 -0.3442 -0.8484 -0.3759
  129MOL0     H17799   8.131  10.587   9.396  1.5819  2.1045 -2.7153
  129MOL0     H17800   8.435  10.444   9.474  1.0930  1.5575  2.1707
  129MOL0     H17801   8.324  10.339   9.570 -0.1418 -0.1043 -0.0254
  129MOL0     H17802   8.277  10.407   9.415 -1.1936 -0.7902  1.3293
  130MOL0     O17803   4.604   1.087  10.182  0.5906  0.1297  0.2911
  130MOL0     C17804   4.559   1.100  10.074 -0.7061  0.4002  0.2975
  130MOL0     O17805   4.641   1.130   9.964  0.0681 -0.1360  0.0857
  130MOL0     C17806   4.776   1.130  10.002 -0.2037  0.2430 -0.1174
  130MOL0     C17807   4.851   1.014   9.984 -0.3025  0.3623  0.2691
  130MOL0     C17808   4.983   1.001  10.021 -0.1060 -0.1732 -0.1493
  130MOL0     C17809   5.049   1.113  10.078 -0.6146  0.2919  0.7978
  130MOL0     O17810   5.183   1.091  10.103 -0.0607  0.5156 -0.0177
  130MOL0     C17811   5.266   1.195  10.160 -0.5167  0.1904 -0.4308
  130MOL0     C17812   5.427   1.173  10.160  1.3174  0.0561  0.0137
  130MOL0     C17813   5.476   1.131  10.023 -0.6658 -0.2776  0.5216
  130MOL0     C17814   5.627   1.132  10.047  0.0208 -0.6857  0.2151
  130MOL0     C17815   5.702   1.064   9.932 -0.7907  0.0982 -0.3664
  130MOL0     C17816   5.843   1.013   9.985 -0.2229  0.1468  0.0472
  130MOL0     C17817   5.911   0.956   9.862  0.5673  0.4480 -0.1985
  130MOL0     C17818   5.988   1.059   9.781 -0.5313  1.0959 -0.1407
  130MOL0     N17819   6.105   1.098   9.860 -0.0498  0.2573 -0.4079
  130MOL0     C17820   6.090   1.203   9.940 -0.4370  0.1418 -0.0449
  130MOL0     C17821   6.215   1.205  10.000  0.1633 -0.4755  0.0505
  130MOL0     C17822   6.257   1.289  10.116  0.9316  0.3006 -0.2797
  130MOL0     C17823   6.400   1.355  10.105 -0.0617  0.5916  0.8505
  130MOL0     C17824   6.386   1.479  10.027  0.3680  0.0032  0.1145
  130MOL0     C17825   6.531   1.530  10.004 -0.0722 -0.4264 -0.2162
  130MOL0     O17826   6.599   1.546  10.126  0.5071  0.3866 -0.5972
  130MOL0     C17827   6.727   1.504  10.145 -0.2115  0.0958 -0.0247
  130MOL0     C17828   6.755   1.465  10.270 -0.1355  0.6223 -0.1503
  130MOL0     C17829   6.885   1.430  10.306 -0.3407  0.3795  0.5421
  130MOL0     C17830   6.903   1.400  10.451  0.2652  0.1394  0.9103
  130MOL0     C17831   6.988   1.445  10.209  0.0775 -0.3872 -0.0601
  130MOL0     C17832   7.131   1.418  10.246  0.7280  1.0464 -1.1137
  130MOL0     O17833   7.162   1.362  10.369 -0.1554 -0.2482 -0.0786
  130MOL0     C17834   7.293   1.320  10.391 -0.3076 -0.0280 -0.0723
  130MOL0     C17835   7.388   1.407  10.439 -0.0156 -0.1585 -0.2633
  130MOL0     C17836   7.512   1.356  10.476  0.0860 -0.1040 -0.3208
  130MOL0     C17837   7.556   1.228  10.456  0.4869  0.0120  0.3908
  130MOL0     O17838   7.677   1.173  10.488  0.1269  0.4924 -0.0140
  130MOL0     C17839   7.766   1.249  10.562 -0.3329  0.3703 -0.0569
  130MOL0     C17840   7.894   1.175  10.579 -0.3344  0.1580  0.0775
  130MOL0     C17841   7.891   1.076  10.689 -0.5818  0.2106 -1.5250
  130MOL0     C17842   8.022   0.990  10.703 -0.4054  0.5739  0.5656
  130MOL0     C17843   8.023   0.901  10.829 -0.5470 -0.5806  0.0702
  130MOL0     C17844   8.118   0.779  10.827 -0.2929 -0.9122  0.1825
  130MOL0     C17845   8.057   0.656  10.762 -0.7423  0.6245  0.0620
  130MOL0     C17846   8.124   0.522  10.814 -0.2155 -0.3000  0.1280
  130MOL0    Cl17847   8.272   0.473  10.728  0.1244  0.3246 -0.1105
  130MOL0     C17848   7.460   1.151  10.402 -0.2483 -0.6782  0.8745
  130MOL0     C17849   7.334   1.190  10.364  1.0982  0.1086 -0.1670
  130MOL0     O17850   7.210   1.450  10.164  0.7326 -0.3286  0.0863
  130MOL0     C17851   6.957   1.492  10.076 -1.0034  0.0273 -0.9714
  130MOL0     C17852   6.827   1.521  10.042  0.5288 -0.0214  0.7401
  130MOL0     N17853   6.284   1.094   9.960  1.1022 -0.1310 -0.9809
  130MOL0     N17854   6.216   1.023   9.881 -0.6461 -0.4318 -0.3070
  130MOL0     C17855   4.979   1.233  10.100 -0.2638 -0.2120  0.4517
  130MOL0     C17856   4.839   1.242  10.071 -0.3233 -0.1024 -0.1040
  130MOL0     C17857   4.411   1.099  10.052 -0.2449  0.2836 -0.6167
  130MOL0     C17858   4.365   1.168   9.945 -0.4761  1.5050  0.8305
  130MOL0     C17859   4.227   1.183   9.921  0.0809  0.2054 -0.9380
  130MOL0     C17860   4.138   1.128  10.009  1.0056  0.6840  0.5630
  130MOL0     O17861   4.008   1.158   9.975 -0.4133 -0.1906  0.1664
  130MOL0     C17862   3.909   1.101  10.054 -0.7202  0.4064  0.2577
  130MOL0     C17863   3.882   1.201  10.168  0.5358  0.4816  0.8167
  130MOL0     C17864   3.758   1.184  10.254 -0.8559 -0.2284 -0.4146
  130MOL0     C17865   3.749   1.045  10.324 -0.1266 -0.6639 -0.4825
  130MOL0     C17866   3.873   1.008  10.389  0.1394 -0.2088  0.8288
  130MOL0     C17867   3.975   0.995  10.448  0.1591  0.5637  0.2401
  130MOL0     C17868   4.180   1.053  10.118 -0.2421 -0.4837  0.4012
  130MOL0     C17869   4.321   1.041  10.144 -0.3032  0.7167  0.2582
  130MOL0     C17870   4.364   0.965  10.271  0.5865  0.8374  0.7871
  130MOL0     H17871   4.799   0.928   9.945 -1.9839  0.8841  1.2138
  130MOL0     H17872   5.034   0.905  10.018 -0.7856 -0.5456 -0.2274
  130MOL0     H17873   5.242   1.219  10.263 -0.8443 -1.8280  0.0080
  130MOL0     H17874   5.254   1.289  10.105 -0.4176  0.1413 -0.5386
  130MOL0     H17875   5.476   1.265  10.193  0.3615  1.1666 -1.5499
  130MOL0     H17876   5.440   1.089  10.229  1.5363 -2.0500 -2.4672
  130MOL0     H17877   5.433   1.035   9.995 -0.4399  0.0544 -1.0789
  130MOL0     H17878   5.442   1.205   9.950  1.6168 -1.8618 -2.3384
  130MOL0     H17879   5.653   1.237  10.061 -0.2560 -0.7112  0.9532
  130MOL0     H17880   5.650   1.071  10.135  2.6257  0.3381  0.3341
  130MOL0     H17881   5.720   1.137   9.853 -0.6230  0.5483  0.0822
  130MOL0     H17882   5.650   0.972   9.904  1.3347 -1.6790  1.2125
  130MOL0     H17883   5.893   1.091  10.043 -0.7823  0.2381  0.4130
  130MOL0     H17884   5.829   0.931  10.057 -0.9830 -0.4233 -0.7310
  130MOL0     H17885   5.839   0.919   9.789 -0.8141 -0.1400  1.3757
  130MOL0     H17886   5.984   0.879   9.889  1.5215  1.3595 -0.0982
  130MOL0     H17887   6.029   1.007   9.694  2.6093  0.8847  1.3350
  130MOL0     H17888   5.921   1.143   9.755 -0.4876  0.5652 -2.1844
  130MOL0     H17889   6.010   1.271   9.969 -0.6722 -0.2101  0.1357
  130MOL0     H17890   6.259   1.226  10.206  0.5537  0.4704 -0.1491
  130MOL0     H17891   6.182   1.367  10.136 -0.7393 -1.5570  1.0906
  130MOL0     H17892   6.437   1.386  10.203  1.3334  0.7522  0.2922
  130MOL0     H17893   6.469   1.278  10.070 -3.3901 -2.8107  1.1331
  130MOL0     H17894   6.350   1.467   9.924  2.7075 -1.3960 -0.6158
  130MOL0     H17895   6.331   1.551  10.087  0.9356  1.0120 -0.5460
  130MOL0     H17896   6.576   1.452   9.942 -0.5842 -0.0362 -1.1078
  130MOL0     H17897   6.521   1.623   9.947 -1.8387 -1.6731 -2.0737
  130MOL0     H17898   6.674   1.464  10.343 -1.1380  1.1975 -1.2250
  130MOL0     H17899   6.808   1.421  10.501  0.2948  0.6426  0.7634
  130MOL0     H17900   6.982   1.463  10.494  0.0872 -1.4455  3.7813
  130MOL0     H17901   6.940   1.300  10.472 -0.5327 -0.5354 -0.7277
  130MOL0     H17902   7.351   1.507  10.455 -0.9681 -0.2975 -1.4942
  130MOL0     H17903   7.576   1.432  10.520 -0.8522  1.2710 -1.2387
  130MOL0     H17904   7.785   1.344  10.511 -1.5704  1.3158  1.1760
  130MOL0     H17905   7.727   1.269  10.663 -0.0621 -2.0068  0.5807
  130MOL0     H17906   7.915   1.129  10.482  1.6058  0.7300  0.1883
  130MOL0     H17907   7.972   1.246  10.609 -0.6487  0.5474 -0.0127
  130MOL0     H17908   7.808   1.005  10.691  1.0134 -1.7678 -2.7314
  130MOL0     H17909   7.891   1.137  10.780  0.5545 -0.2861 -1.1825
  130MOL0     H17910   8.108   1.056  10.692  1.3035 -1.0323  3.1512
  130MOL0     H17911   8.024   0.921  10.618 -0.6877 -1.5003  2.1535
  130MOL0     H17912   8.047   0.966  10.914 -4.2905 -0.0367  0.9073
  130MOL0     H17913   7.922   0.860  10.839  0.1983 -2.7408 -0.7849
  130MOL0     H17914   8.156   0.758  10.928  0.5925  0.5958  0.1950
  130MOL0     H17915   8.200   0.822  10.769 -3.6579  1.3308 -3.4612
  130MOL0     H17916   8.073   0.657  10.654 -0.2552  0.2560  0.1288
  130MOL0     H17917   7.949   0.647  10.775 -0.5611  0.9115  2.0729
  130MOL0     H17918   8.060   0.437  10.788 -1.6122  1.0844 -1.0679
  130MOL0     H17919   8.153   0.525  10.920  1.5676  0.2729 -0.3329
  130MOL0     H17920   7.480   1.045  10.384  3.9587  0.0547  0.0473
  130MOL0     H17921   7.263   1.120  10.319  1.6757 -1.8057  1.6938
  130MOL0     H17922   7.037   1.514  10.006  0.1590 -2.8733 -0.7215
  130MOL0     H17923   6.801   1.551   9.941  2.0289  0.2713  0.4192
  130MOL0     H17924   5.012   1.327  10.142  0.2662 -0.9496  1.7363
  130MOL0     H17925   4.787   1.335  10.090 -2.5120 -1.5233  1.2740
  130MOL0     H17926   4.431   1.218   9.875  1.5530 -0.6051  1.1104
  130MOL0     H17927   4.200   1.231   9.828 -0.1043  2.5093  0.2293
  130MOL0     H17928   3.821   1.090   9.989 -1.2570  1.2661  0.8258
  130MOL0     H17929   3.930   0.999  10.087  0.1343 -0.6037 -3.0324
  130MOL0     H17930   3.881   1.299  10.119 -0.4548 -0.8641 -2.0716
  130MOL0     H17931   3.964   1.204  10.240  0.0479  1.1643  1.3609
  130MOL0     H17932   3.754   1.260  10.332 -1.3697 -2.1521  1.5484
  130MOL0     H17933   3.670   1.206  10.193  0.1023  2.6892 -0.8827
  130MOL0     H17934   3.731   0.972  10.244 -1.3985 -0.9218  0.0167
  130MOL0     H17935   3.676   1.031  10.404  2.0099 -2.0949  1.3356
  130MOL0     H17936   4.072   0.994  10.493  1.1455 -2.3352 -1.6322
  130MOL0     H17937   4.109   1.006  10.185  1.3612  0.4970  2.9006
  130MOL0     H17938   4.413   1.028  10.347  1.4233  0.2509  0.7532
  130MOL0     H17939   4.273   0.919  10.311  1.2104 -3.0703 -1.7077
  130MOL0     H17940   4.436   0.884  10.254  1.5030  1.4939  1.4099
  131MOL0     O17941  10.329   3.922   8.566  0.1927 -0.0925 -0.1453
  131MOL0     C17942  10.228   3.891   8.503 -0.7986  0.3103 -0.6259
  131MOL0     O17943  10.232   3.815   8.381  0.3849  0.1398  0.0477
  131MOL0     C17944  10.354   3.802   8.330 -0.7357  0.8221 -0.5917
  131MOL0     C17945  10.420   3.921   8.284  0.5836 -0.3675  0.3264
  131MOL0     C17946  10.556   3.916   8.249  0.4949  0.9280 -0.5610
  131MOL0     C17947  10.631   3.797   8.246  0.6516 -0.7540 -0.3077
  131MOL0     O17948  10.768   3.791   8.209 -0.1815 -0.2900 -0.1533
  131MOL0     C17949  10.831   3.912   8.160  0.0431 -0.9450 -0.7187
  131MOL0     C17950  10.976   3.885   8.161  0.1024  0.9020 -0.1612
  131MOL0     C17951  11.061   3.996   8.109 -0.2330  0.3377 -0.2084
  131MOL0     C17952  11.043   4.022   7.960 -0.0446  0.2035  0.5121
  131MOL0     C17953  11.093   3.908   7.871 -0.4315  0.4615 -0.4306
  131MOL0     C17954  11.054   3.924   7.725 -0.0788  0.4078 -0.2538
  131MOL0     C17955  11.092   3.811   7.649  1.2965 -0.1402  0.4586
  131MOL0     C17956  11.243   3.793   7.620  0.2236 -0.0892 -0.1819
  131MOL0     N17957  11.265   3.682   7.530  0.0272  0.0269  0.4061
  131MOL0     C17958  11.336   3.700   7.412 -0.8530 -0.0206 -0.0790
  131MOL0     C17959  11.316   3.581   7.344  0.4757 -0.5158 -0.5503
  131MOL0     C17960  11.373   3.552   7.210  0.3760  0.6924  0.8055
  131MOL0     C17961  11.344   3.669   7.103  0.4331  0.1156  0.3327
  131MOL0     C17962  11.399   3.623   6.961  0.3957 -0.0929 -0.9090
  131MOL0     C17963  11.334   3.488   6.910  0.8351 -0.9173  0.2276
  131MOL0     O17964  11.209   3.534   6.854  0.0203  0.3205  0.1181
  131MOL0     C17965  11.140   3.456   6.769 -0.2927  0.3729 -0.7035
  131MOL0     C17966  11.193   3.324   6.731 -0.5380 -0.5579 -0.9474
  131MOL0     C17967  11.117   3.250   6.636 -1.5653  1.5515  0.0748
  131MOL0     C17968  11.176   3.108   6.602  0.1298 -0.4234  0.1624
  131MOL0     C17969  11.004   3.309   6.580  0.2616 -0.1127  1.0401
  131MOL0     C17970  10.923   3.241   6.475 -0.3838  0.1797 -0.4784
  131MOL0     O17971  10.800   3.288   6.454  0.3218  0.3183  0.6169
  131MOL0     C17972  10.720   3.206   6.376  0.3977 -0.3681 -0.6587
  131MOL0     C17973  10.612   3.147   6.439 -1.1081  0.0146  0.1225
  131MOL0     C17974  10.513   3.078   6.371 -0.6518 -0.2262 -0.9837
  131MOL0     C17975  10.530   3.039   6.236  0.1708 -0.2785  0.2569
  131MOL0     O17976  10.446   2.959   6.167 -0.7845  0.3296  0.3659
  131MOL0     C17977  10.314   2.939   6.214  0.5002 -1.2432  0.6866
  131MOL0     C17978  10.230   2.827   6.146  0.3487  0.5531 -0.4431
  131MOL0     C17979  10.085   2.813   6.188 -0.1613  0.1685  0.4108
  131MOL0     C17980  10.022   2.738   6.079  0.3830  0.5664  0.3213
  131MOL0     C17981   9.875   2.711   6.124 -0.4702 -0.4438 -0.1148
  131MOL0     C17982   9.789   2.639   6.022 -0.6434 -0.2120  0.1969
  131MOL0     C17983   9.645   2.626   6.078  0.3003  0.4441  0.1029
  131MOL0     C17984   9.561   2.532   5.993  2.3161 -0.4197  0.2497
  131MOL0    Cl17985   9.385   2.547   6.025  0.2397 -0.0812 -0.3306
  131MOL0     C17986  10.647   3.080   6.175 -0.8843 -0.3956 -0.3701
  131MOL0     C17987  10.737   3.169   6.240  0.3402  0.4608 -0.9135
  131MOL0     O17988  10.983   3.162   6.400  0.4910  0.4468 -0.6054
  131MOL0     C17989  10.946   3.430   6.629 -0.5026  0.4152  0.4385
  131MOL0     C17990  11.018   3.503   6.714 -0.4371  0.2573  0.4833
  131MOL0     N17991  11.240   3.491   7.419 -0.0752 -0.6623 -0.2032
  131MOL0     N17992  11.203   3.560   7.529 -0.3927  0.1949 -0.1364
  131MOL0     C17993  10.556   3.678   8.287  0.6675 -0.4656  0.3432
  131MOL0     C17994  10.419   3.674   8.319 -0.7917 -0.0042 -0.8475
  131MOL0     C17995  10.100   3.934   8.555 -0.2463  0.1492  0.0547
  131MOL0     C17996   9.990   3.855   8.527  1.0856  0.3845 -0.2560
  131MOL0     C17997   9.868   3.880   8.585 -0.1017 -0.6725 -0.2149
  131MOL0     C17998   9.850   3.987   8.669 -0.8310  0.1851 -0.2316
  131MOL0     O17999   9.728   4.010   8.715 -0.7055  0.9157  0.7286
  131MOL0     C18000   9.688   4.136   8.765 -0.0635 -0.3537 -1.1866
  131MOL0     C18001   9.537   4.153   8.757  0.0323  0.1460 -0.9628
  131MOL0     C18002   9.477   4.063   8.863 -0.3887  0.7598  0.5579
  131MOL0     C18003   9.319   4.049   8.848 -0.0032  0.1531  0.2037
  131MOL0     C18004   9.237   4.138   8.934  1.2469  0.1907  0.0327
  131MOL0     C18005   9.190   4.201   9.025 -0.6049  0.0577  0.5601
  131MOL0     C18006   9.950   4.080   8.683  0.8528  0.2014  0.1013
  131MOL0     C18007  10.075   4.055   8.631  0.2907  1.0132 -0.4942
  131MOL0     C18008  10.162   4.169   8.644  0.2013  0.1826 -0.2452
  131MOL0     H18009  10.365   4.013   8.305 -1.7443 -1.4662 -0.6967
  131MOL0     H18010  10.581   4.015   8.214 -2.3300  1.7500 -0.4353
  131MOL0     H18011  10.801   3.992   8.229  0.8695 -1.2109 -0.0335
  131MOL0     H18012  10.803   3.932   8.056  3.7546 -1.1433 -1.9101
  131MOL0     H18013  10.996   3.858   8.265  1.3557 -0.0134 -0.6180
  131MOL0     H18014  10.999   3.793   8.107  0.8314  1.2607 -0.4758
  131MOL0     H18015  11.031   4.093   8.149 -5.0454 -0.4087 -1.3855
  131MOL0     H18016  11.165   3.964   8.122 -0.4907 -0.5670 -0.2662
  131MOL0     H18017  10.940   4.031   7.923  0.3978  0.3962 -0.7377
  131MOL0     H18018  11.096   4.114   7.931  1.0331 -1.3242 -2.8732
  131MOL0     H18019  11.058   3.812   7.909 -0.1974  0.8633  0.8679
  131MOL0     H18020  11.200   3.910   7.892 -1.1414  0.8712  4.5684
  131MOL0     H18021  10.947   3.944   7.715 -0.7603 -3.0449 -1.1703
  131MOL0     H18022  11.108   4.007   7.679 -0.8397 -0.9327 -3.9550
  131MOL0     H18023  11.044   3.802   7.552  0.0779 -0.2537  1.0622
  131MOL0     H18024  11.047   3.727   7.702  0.1541  0.3888  0.3582
  131MOL0     H18025  11.289   3.887   7.586  1.9131 -0.6215  0.4942
  131MOL0     H18026  11.298   3.779   7.714  0.5290  0.2015 -0.3121
  131MOL0     H18027  11.393   3.788   7.386  2.2396 -2.7900 -3.8793
  131MOL0     H18028  11.328   3.459   7.176  0.5371  0.7911  0.3200
  131MOL0     H18029  11.482   3.557   7.208  0.4419 -0.4778 -1.8201
  131MOL0     H18030  11.235   3.676   7.099  0.1682 -2.1569  1.6099
  131MOL0     H18031  11.377   3.769   7.131 -1.4674  1.6052 -2.3894
  131MOL0     H18032  11.384   3.702   6.887 -3.7950  0.6893  0.5067
  131MOL0     H18033  11.506   3.611   6.977 -0.0280 -0.8611  1.8031
  131MOL0     H18034  11.394   3.433   6.836 -1.6536 -1.9869 -1.1046
  131MOL0     H18035  11.310   3.405   6.977  0.6563 -4.6489 -3.9622
  131MOL0     H18036  11.277   3.278   6.781  1.0896  3.7897  0.7911
  131MOL0     H18037  11.222   3.064   6.691  0.1087  0.1770  0.4711
  131MOL0     H18038  11.251   3.111   6.522  0.7936 -2.8379  0.5883
  131MOL0     H18039  11.101   3.037   6.567  1.5228 -1.9771  0.1921
  131MOL0     H18040  10.594   3.161   6.545 -2.0311  1.4628 -0.1994
  131MOL0     H18041  10.431   3.039   6.430  1.1136  2.5472  3.8993
  131MOL0     H18042  10.318   2.923   6.322 -2.5416  0.5812  1.1821
  131MOL0     H18043  10.265   3.034   6.191  2.1062 -0.7909 -1.1402
  131MOL0     H18044  10.244   2.844   6.039  0.8110  0.3817 -0.4123
  131MOL0     H18045  10.273   2.731   6.176 -0.1361 -0.5747 -3.0601
  131MOL0     H18046  10.032   2.907   6.207 -2.1061 -1.2842  2.9921
  131MOL0     H18047  10.082   2.755   6.281 -1.2149 -0.6537 -0.1072
  131MOL0     H18048  10.081   2.649   6.056  0.9673  1.5840 -2.5993
  131MOL0     H18049  10.015   2.792   5.984 -3.1427 -3.2003 -1.9335
  131MOL0     H18050   9.888   2.643   6.209 -1.5919 -1.2519 -0.5744
  131MOL0     H18051   9.817   2.796   6.162 -3.2390 -2.1149 -0.3078
  131MOL0     H18052   9.828   2.543   5.986 -1.9072 -0.5448 -0.3601
  131MOL0     H18053   9.790   2.695   5.928  1.4136 -1.9233 -0.8791
  131MOL0     H18054   9.601   2.726   6.073  0.9078  0.7305  0.3603
  131MOL0     H18055   9.652   2.587   6.180  1.1753 -1.4025 -0.6215
  131MOL0     H18056   9.601   2.431   6.006  1.1913 -0.8318  0.6933
  131MOL0     H18057   9.585   2.565   5.891  0.9664 -0.3944 -0.0748
  131MOL0     H18058  10.652   3.050   6.070 -0.3574 -3.2685  0.3876
  131MOL0     H18059  10.826   3.204   6.188  1.1751 -0.4839 -0.1482
  131MOL0     H18060  10.857   3.476   6.587  0.5215  0.6745 -1.6021
  131MOL0     H18061  10.985   3.601   6.747 -0.7116 -0.2488  1.7965
  131MOL0     H18062  10.604   3.581   8.281  1.7354  0.0990 -0.5539
  131MOL0     H18063  10.379   3.581   8.357  2.7787 -1.5051 -0.3454
  131MOL0     H18064   9.995   3.761   8.472 -0.3349 -0.0698  0.3495
  131MOL0     H18065   9.779   3.822   8.563  0.6725 -1.3146 -1.7961
  131MOL0     H18066   9.722   4.139   8.869  2.2444 -3.2723 -1.7194
  131MOL0     H18067   9.740   4.214   8.708  1.6483 -0.3355  0.2818
  131MOL0     H18068   9.513   4.124   8.654  3.6109  0.8975 -2.1236
  131MOL0     H18069   9.507   4.257   8.776 -2.0775 -0.2335 -1.8216
  131MOL0     H18070   9.524   3.964   8.857  0.8065  1.2254  1.8013
  131MOL0     H18071   9.511   4.105   8.958  5.3389 -1.8187  0.0267
  131MOL0     H18072   9.297   3.944   8.866 -1.7113  0.7483  2.0476
  131MOL0     H18073   9.304   4.078   8.744 -1.6500 -0.5908  0.2029
  131MOL0     H18074   9.159   4.271   9.100  0.2682  3.5703 -2.0947
  131MOL0     H18075   9.933   4.179   8.724  0.3185  0.3261 -0.4030
  131MOL0     H18076  10.135   4.238   8.564  2.5087 -1.9817 -3.1329
  131MOL0     H18077  10.151   4.226   8.736 -1.1415  1.7412 -1.3222
  131MOL0     H18078  10.267   4.148   8.621  0.8023  1.2650  1.4134
  132MOL0     O18079   7.070   2.024   0.937  0.4674 -0.3320 -0.0527
  132MOL0     C18080   6.993   2.109   0.892  0.3412  0.2900 -1.5181
  132MOL0     O18081   7.007   2.171   0.781 -0.2665 -0.1802 -0.2433
  132MOL0     C18082   7.101   2.119   0.695 -0.1255 -0.1677 -0.2454
  132MOL0     C18083   7.228   2.169   0.678  0.5564 -0.3544  0.1226
  132MOL0     C18084   7.333   2.111   0.599  0.3869  0.4102 -1.1391
  132MOL0     C18085   7.308   1.987   0.547  0.5202 -0.2072 -0.4363
  132MOL0     O18086   7.401   1.904   0.486  0.6308 -1.0081  0.0086
  132MOL0     C18087   7.540   1.930   0.510  0.0886 -0.3795 -0.0412
  132MOL0     C18088   7.598   1.887   0.642  0.3049  1.0893  0.1403
  132MOL0     C18089   7.740   1.922   0.664  0.4500  0.5505 -0.2404
  132MOL0     C18090   7.838   1.857   0.580 -0.1123 -0.3232  0.5897
  132MOL0     C18091   7.971   1.837   0.656  1.0262 -1.4919  0.7302
  132MOL0     C18092   8.027   1.965   0.707 -0.3771 -0.0523 -0.0468
  132MOL0     C18093   8.169   1.947   0.757 -0.2018  0.4078 -0.6946
  132MOL0     C18094   8.208   2.038   0.877 -0.3905 -0.6657  0.3486
  132MOL0     N18095   8.343   1.998   0.938 -0.2489 -0.1056  0.1667
  132MOL0     C18096   8.352   1.921   1.051  0.3015  0.1427  0.3438
  132MOL0     C18097   8.482   1.886   1.048  0.9702 -0.8965 -0.6038
  132MOL0     C18098   8.538   1.783   1.141 -0.3650 -0.4837  0.5680
  132MOL0     C18099   8.536   1.654   1.074 -0.9248  0.6507  0.2404
  132MOL0     C18100   8.474   1.537   1.163 -0.6516 -0.7679  0.1086
  132MOL0     C18101   8.477   1.408   1.091 -0.5668  0.2702 -0.9770
  132MOL0     O18102   8.469   1.292   1.185  0.0834  0.0634  0.7178
  132MOL0     C18103   8.344   1.265   1.239  0.4298 -0.5626  0.4769
  132MOL0     C18104   8.345   1.151   1.322 -0.2810 -0.1404 -0.2982
  132MOL0     C18105   8.234   1.096   1.389 -0.4859 -0.3275  0.1597
  132MOL0     C18106   8.245   0.959   1.448  0.0304 -0.4226 -0.4802
  132MOL0     C18107   8.109   1.162   1.380 -0.3562 -1.1017  0.2349
  132MOL0     C18108   7.985   1.121   1.450 -0.3521  0.3557  0.3334
  132MOL0     O18109   7.895   1.213   1.466 -0.3026  0.2214 -0.5300
  132MOL0     C18110   7.819   1.204   1.587 -0.8805  0.1788  0.4451
  132MOL0     C18111   7.679   1.236   1.578  0.4500 -0.1701 -1.0642
  132MOL0     C18112   7.606   1.224   1.696  0.4467 -0.5183 -0.0732
  132MOL0     C18113   7.652   1.198   1.819 -0.8571  0.0340 -1.1427
  132MOL0     O18114   7.559   1.200   1.927 -0.3887  0.9083  0.6686
  132MOL0     C18115   7.526   1.068   1.976  0.1525 -0.6304  0.0934
  132MOL0     C18116   7.369   1.059   2.006 -0.5098  0.2076  0.7131
  132MOL0     C18117   7.281   1.110   1.900  0.6028 -0.0437  0.6708
  132MOL0     C18118   7.268   0.989   1.797  0.2569  0.2048 -0.0332
  132MOL0     C18119   7.159   1.003   1.686  0.0750 -0.6566  1.1413
  132MOL0     C18120   7.191   1.127   1.605  0.5424  0.5999 -0.0459
  132MOL0     C18121   7.110   1.159   1.480 -0.1022  0.2250 -0.3449
  132MOL0     C18122   7.132   1.304   1.436  0.0513 -0.1996  0.2058
  132MOL0    Cl18123   7.292   1.320   1.342 -0.4421  0.0538  0.4934
  132MOL0     C18124   7.790   1.184   1.827  0.5931  0.0265 -0.4292
  132MOL0     C18125   7.876   1.184   1.719  0.0476  0.6351 -0.2430
  132MOL0     O18126   7.968   1.004   1.468 -0.7238  0.5660 -0.5107
  132MOL0     C18127   8.112   1.286   1.295 -0.2082  0.0860  0.7617
  132MOL0     C18128   8.224   1.338   1.231  1.1513 -0.1565  0.0878
  132MOL0     N18129   8.553   1.949   0.949  0.3259  0.5771 -0.7111
  132MOL0     N18130   8.462   2.012   0.873 -0.9086 -0.3201 -0.7525
  132MOL0     C18131   7.177   1.935   0.563 -0.0655 -0.1388  0.3934
  132MOL0     C18132   7.072   2.000   0.627  0.1565 -0.0099 -0.9620
  132MOL0     C18133   6.870   2.142   0.965 -0.2603  1.0239  0.3804
  132MOL0     C18134   6.757   2.162   0.887 -0.2634 -0.5049  0.0717
  132MOL0     C18135   6.638   2.197   0.954  0.3163  0.9207 -0.3444
  132MOL0     C18136   6.636   2.218   1.092 -0.2830  0.0166 -0.2990
  132MOL0     O18137   6.519   2.249   1.147  0.2930  0.0998  0.4117
  132MOL0     C18138   6.507   2.387   1.200  0.7748  0.4547 -0.0851
  132MOL0     C18139   6.461   2.491   1.100 -0.0336  0.1154 -0.1643
  132MOL0     C18140   6.319   2.445   1.043  0.2662 -0.7751 -0.0748
  132MOL0     C18141   6.273   2.541   0.934 -0.6256  0.9298  0.9629
  132MOL0     C18142   6.124   2.530   0.925 -0.1688 -0.2013  0.1573
  132MOL0     C18143   6.008   2.517   0.929 -0.3974 -0.3736  0.7629
  132MOL0     C18144   6.755   2.195   1.170  0.9433 -0.7697 -0.2506
  132MOL0     C18145   6.876   2.158   1.107  0.6758  0.0705  0.9464
  132MOL0     C18146   6.996   2.133   1.195 -0.1495  0.2579 -0.4629
  132MOL0     H18147   7.245   2.270   0.714 -1.3994 -0.0879  0.4525
  132MOL0     H18148   7.426   2.165   0.587  0.6058  0.2952 -0.0899
  132MOL0     H18149   7.564   2.035   0.494 -0.2249 -0.6174 -2.4700
  132MOL0     H18150   7.589   1.887   0.423 -2.0900 -0.6033 -1.2397
  132MOL0     H18151   7.538   1.935   0.720  1.5307  2.2414  0.3983
  132MOL0     H18152   7.580   1.779   0.652  1.3936  0.6369 -2.2029
  132MOL0     H18153   7.744   2.032   0.662  0.3977  0.5482 -0.4584
  132MOL0     H18154   7.768   1.894   0.766 -2.4597 -0.4504  0.3773
  132MOL0     H18155   7.794   1.763   0.546  1.2300 -0.5049 -0.7973
  132MOL0     H18156   7.853   1.920   0.492 -1.5759  2.5460  2.2495
  132MOL0     H18157   8.038   1.787   0.586 -0.5852 -1.7215 -0.7292
  132MOL0     H18158   7.944   1.766   0.734 -2.1842 -0.4998  0.6709
  132MOL0     H18159   8.017   2.053   0.642 -0.0793 -0.8423 -1.1788
  132MOL0     H18160   7.969   1.989   0.797 -1.2216  0.3527 -0.6820
  132MOL0     H18161   8.240   1.942   0.674  0.4668 -0.9324 -0.0716
  132MOL0     H18162   8.169   1.844   0.797 -3.5316  0.3029 -0.7188
  132MOL0     H18163   8.221   2.142   0.846 -0.4412 -0.5441  0.7372
  132MOL0     H18164   8.126   2.027   0.948  0.3531 -0.9231  1.1885
  132MOL0     H18165   8.271   1.898   1.119  0.7479 -1.1933  0.4604
  132MOL0     H18166   8.474   1.788   1.230  0.1407  0.1513  0.9055
  132MOL0     H18167   8.641   1.811   1.165 -1.0143  2.7838 -0.0067
  132MOL0     H18168   8.476   1.662   0.984  0.3891 -1.1430 -0.8680
  132MOL0     H18169   8.637   1.630   1.038 -1.7345 -0.9896 -1.0563
  132MOL0     H18170   8.538   1.528   1.251  2.4160  2.0178 -1.6233
  132MOL0     H18171   8.375   1.567   1.199  0.1973 -0.1066  2.0418
  132MOL0     H18172   8.406   1.398   1.009 -0.4220 -0.2738 -1.0410
  132MOL0     H18173   8.576   1.398   1.046 -0.5863  0.7717 -1.1285
  132MOL0     H18174   8.438   1.101   1.347 -0.6920 -0.4049  0.7743
  132MOL0     H18175   8.223   0.971   1.555 -2.0255  0.6809 -0.9779
  132MOL0     H18176   8.348   0.927   1.431  0.5255  1.2972 -0.9193
  132MOL0     H18177   8.183   0.881   1.405 -0.7669 -0.7728  1.2276
  132MOL0     H18178   7.627   1.263   1.487 -1.8016  0.6018  0.3561
  132MOL0     H18179   7.500   1.245   1.693  0.6095  0.4001  0.3291
  132MOL0     H18180   7.548   0.998   1.894  3.0709  1.1345 -0.7927
  132MOL0     H18181   7.571   1.050   2.075 -2.9944  1.2177  2.0087
  132MOL0     H18182   7.336   0.959   2.040 -3.4904  1.4295  1.8222
  132MOL0     H18183   7.375   1.129   2.090  1.7495  2.5743 -1.2749
  132MOL0     H18184   7.318   1.195   1.842 -0.6935  0.7310  0.9331
  132MOL0     H18185   7.187   1.139   1.948  0.2044  2.0671 -1.2434
  132MOL0     H18186   7.249   0.893   1.846  1.1483 -0.1622 -0.3775
  132MOL0     H18187   7.365   0.976   1.748  0.6829  1.7787  0.3404
  132MOL0     H18188   7.168   0.912   1.627  0.6447  0.5825 -0.7610
  132MOL0     H18189   7.057   1.016   1.724 -0.4505 -0.3353 -0.3152
  132MOL0     H18190   7.293   1.118   1.568 -0.6663  0.4776 -3.7961
  132MOL0     H18191   7.187   1.210   1.676 -0.8416 -0.7333  1.5397
  132MOL0     H18192   7.004   1.134   1.491 -0.5606  1.7164 -1.0328
  132MOL0     H18193   7.134   1.092   1.397 -2.1411  1.4075 -2.0166
  132MOL0     H18194   7.125   1.361   1.529 -2.4391 -0.8657  0.5034
  132MOL0     H18195   7.047   1.332   1.373 -1.6375  0.1429  2.4911
  132MOL0     H18196   7.830   1.177   1.927  0.8518  1.1334 -0.4499
  132MOL0     H18197   7.981   1.183   1.743 -0.3406 -0.9211  1.6244
  132MOL0     H18198   8.025   1.349   1.278 -1.2555 -1.8942 -2.0353
  132MOL0     H18199   8.208   1.438   1.191  0.8976  0.0001  0.5702
  132MOL0     H18200   7.160   1.832   0.534  1.5661  0.2816 -2.4149
  132MOL0     H18201   6.973   1.955   0.622 -0.9387  2.1160 -0.1522
  132MOL0     H18202   6.757   2.132   0.783 -0.0679 -1.1635  0.2592
  132MOL0     H18203   6.540   2.209   0.909 -0.6608  1.6624  1.8330
  132MOL0     H18204   6.431   2.378   1.279  0.6131  1.8476 -0.0735
  132MOL0     H18205   6.590   2.423   1.262  1.2762 -0.1359 -0.4037
  132MOL0     H18206   6.536   2.508   1.023  0.7804  1.7441  0.9150
  132MOL0     H18207   6.455   2.582   1.161  4.2340 -0.5765  1.6691
  132MOL0     H18208   6.331   2.347   0.996  1.0962 -0.4489 -0.5560
  132MOL0     H18209   6.253   2.449   1.130 -0.9492 -1.6217 -0.9219
  132MOL0     H18210   6.324   2.517   0.840 -3.6341 -1.4759 -0.2267
  132MOL0     H18211   6.285   2.644   0.967  1.7229  0.2990  2.2595
  132MOL0     H18212   5.905   2.490   0.917  0.3464 -2.3331 -2.2582
  132MOL0     H18213   6.743   2.216   1.275 -1.5033  0.8174 -0.7627
  132MOL0     H18214   6.991   2.203   1.278 -1.1211  0.4469 -0.6768
  132MOL0     H18215   7.014   2.032   1.234  3.7446  1.4763  1.4003
  132MOL0     H18216   7.090   2.171   1.152  0.8884  0.6586  1.9999
  133MOL0     O18217   3.195   5.801   0.318  0.1702 -0.6247  0.1470
  133MOL0     C18218   3.103   5.885   0.340  0.4152 -0.1925  0.0245
  133MOL0     O18219   3.088   6.018   0.293  1.3916  0.6506  0.1508
  133MOL0     C18220   3.179   6.057   0.206 -0.6774  0.5045  0.2748
  133MOL0     C18221   3.282   6.142   0.245 -0.5551  1.2839 -1.1862
  133MOL0     C18222   3.372   6.197   0.155 -0.0278  0.9407 -0.0252
  133MOL0     C18223   3.364   6.163   0.020 -0.0793  0.0396  0.0078
  133MOL0     O18224   3.447   6.216  -0.078  0.3790 -0.3467 -0.6652
  133MOL0     C18225   3.586   6.251  -0.050  0.1609 -0.1147  1.0667
  133MOL0     C18226   3.657   6.262  -0.188  0.4661 -0.1919 -0.1027
  133MOL0     C18227   3.581   6.349  -0.282  1.1924 -0.8390 -0.6718
  133MOL0     C18228   3.628   6.337  -0.421 -0.7741 -0.1133  0.0126
  133MOL0     C18229   3.709   6.456  -0.487 -0.5059 -1.5267 -0.1668
  133MOL0     C18230   3.838   6.492  -0.409 -0.8188  0.4055  0.3782
  133MOL0     C18231   3.908   6.622  -0.456  0.0059  0.1736 -0.2895
  133MOL0     C18232   4.042   6.663  -0.379 -0.2305 -0.4321  0.8754
  133MOL0     N18233   4.029   6.691  -0.238  1.1505 -0.3773 -0.4081
  133MOL0     C18234   4.011   6.822  -0.181 -0.7502  0.1767 -0.7139
  133MOL0     C18235   3.978   6.798  -0.058  0.1122 -0.9570 -0.1980
  133MOL0     C18236   3.945   6.909   0.040  0.4658  0.1203 -0.1518
  133MOL0     C18237   4.058   6.927   0.148 -0.2612 -0.7122 -0.2075
  133MOL0     C18238   4.120   6.798   0.222 -1.2803  0.9108  1.5069
  133MOL0     C18239   4.228   6.833   0.326  0.8643  0.0803  0.2996
  133MOL0     O18240   4.317   6.920   0.252  0.0547  0.4244 -0.0534
  133MOL0     C18241   4.408   6.991   0.324 -0.3228 -0.5788  0.0555
  133MOL0     C18242   4.426   6.997   0.465  0.1799  0.2088 -0.2802
  133MOL0     C18243   4.523   7.082   0.529 -0.4702 -0.4812 -0.0015
  133MOL0     C18244   4.537   7.065   0.679  1.5609  0.0826  0.2426
  133MOL0     C18245   4.606   7.158   0.445 -1.0150  1.0475 -0.7168
  133MOL0     C18246   4.717   7.233   0.495  0.1351  0.0087  1.3350
  133MOL0     O18247   4.792   7.298   0.404  0.0626 -0.0371  0.2416
  133MOL0     C18248   4.901   7.383   0.432  0.3357  0.8275 -0.4210
  133MOL0     C18249   4.927   7.474   0.335 -0.6989 -0.6830  0.9252
  133MOL0     C18250   5.042   7.557   0.346  0.3388  0.1750  0.1186
  133MOL0     C18251   5.138   7.543   0.454  0.1511  0.1561 -0.0191
  133MOL0     O18252   5.254   7.623   0.471 -0.4208  0.0969  0.3536
  133MOL0     C18253   5.319   7.652   0.602 -0.0445 -0.0343 -0.4097
  133MOL0     C18254   5.231   7.729   0.699 -0.5006  0.9604  0.3588
  133MOL0     C18255   5.285   7.727   0.838 -0.7561  0.1188  0.2986
  133MOL0     C18256   5.228   7.611   0.937 -0.0317 -0.3574 -1.0062
  133MOL0     C18257   5.283   7.620   1.083  0.3398  0.1446 -0.4980
  133MOL0     C18258   5.419   7.559   1.118  0.1501 -0.4053  0.1608
  133MOL0     C18259   5.447   7.579   1.264 -0.2109  0.7445  0.0517
  133MOL0     C18260   5.591   7.530   1.311  0.8041 -0.2963  0.1978
  133MOL0    Cl18261   5.608   7.367   1.242  0.7055 -0.2613 -0.2883
  133MOL0     C18262   5.110   7.436   0.542  0.1711 -0.3457  0.5838
  133MOL0     C18263   4.995   7.357   0.533 -0.1124 -0.5248  0.0557
  133MOL0     O18264   4.745   7.238   0.614  0.3703 -0.3007 -0.5499
  133MOL0     C18265   4.585   7.147   0.306 -0.0595  0.2236  0.2865
  133MOL0     C18266   4.489   7.075   0.250  0.2406  0.0475  0.0486
  133MOL0     N18267   3.969   6.660  -0.039 -0.2333 -0.0145 -0.0732
  133MOL0     N18268   4.000   6.598  -0.148 -0.1235 -0.2767 -0.1723
  133MOL0     C18269   3.255   6.074  -0.029 -0.1571  0.4812  0.3472
  133MOL0     C18270   3.162   6.031   0.068 -0.0864  0.5308  0.4063
  133MOL0     C18271   2.988   5.843   0.425 -0.2640 -0.4288  0.4266
  133MOL0     C18272   2.857   5.866   0.389  0.7577 -0.0762  0.8876
  133MOL0     C18273   2.741   5.837   0.473 -0.3110 -0.1619  0.4406
  133MOL0     C18274   2.762   5.775   0.594  0.3114  0.1810  0.9631
  133MOL0     O18275   2.660   5.734   0.675  0.2708  0.6171  1.3478
  133MOL0     C18276   2.546   5.659   0.624  0.9022 -0.0147 -0.6422
  133MOL0     C18277   2.477   5.585   0.739  0.3441 -1.1178 -0.0794
  133MOL0     C18278   2.355   5.513   0.694  0.2024  0.2791  0.6401
  133MOL0     C18279   2.262   5.456   0.806 -0.3468 -0.9271  0.5573
  133MOL0     C18280   2.313   5.354   0.898 -0.0755 -0.9399 -0.5241
  133MOL0     C18281   2.326   5.252   0.965  0.1036  0.1199  0.5877
  133MOL0     C18282   2.894   5.735   0.621 -0.0873 -0.2335  0.0811
  133MOL0     C18283   3.004   5.755   0.534  0.4030 -1.4451 -0.1736
  133MOL0     C18284   3.143   5.710   0.584  0.3995  0.3393  0.6523
  133MOL0     H18285   3.286   6.163   0.351  0.3349  1.2917 -1.2162
  133MOL0     H18286   3.443   6.273   0.185  1.9834 -0.1531 -1.7189
  133MOL0     H18287   3.638   6.164  -0.008  0.6277 -1.1783 -1.5526
  133MOL0     H18288   3.584   6.351  -0.005 -1.7095  1.1667 -1.6339
  133MOL0     H18289   3.757   6.303  -0.170  0.7700 -1.4530  1.4192
  133MOL0     H18290   3.662   6.159  -0.224 -3.8626 -1.1088  1.2708
  133MOL0     H18291   3.475   6.323  -0.286  0.7545  0.6366  0.2450
  133MOL0     H18292   3.582   6.454  -0.248  1.1355 -1.3798  1.1130
  133MOL0     H18293   3.686   6.247  -0.441 -0.9147  0.3231 -2.7765
  133MOL0     H18294   3.539   6.333  -0.484 -1.2300  0.8288  0.5595
  133MOL0     H18295   3.644   6.544  -0.484  1.3394 -0.0677  3.4711
  133MOL0     H18296   3.728   6.431  -0.592 -0.7276  0.4304 -0.7041
  133MOL0     H18297   3.818   6.497  -0.302  0.4754  1.4103  0.5920
  133MOL0     H18298   3.915   6.415  -0.415 -1.1287  0.1115  0.0606
  133MOL0     H18299   3.836   6.697  -0.420  0.5021  0.7528 -0.4910
  133MOL0     H18300   3.927   6.620  -0.564  2.0772  1.3952  0.0090
  133MOL0     H18301   4.117   6.584  -0.378 -0.3584 -0.5555  0.8249
  133MOL0     H18302   4.084   6.746  -0.437  0.6151 -1.1009  0.5036
  133MOL0     H18303   4.021   6.919  -0.229  1.1281  0.2012 -0.3815
  133MOL0     H18304   3.854   6.880   0.093 -0.0978 -0.9159 -1.6294
  133MOL0     H18305   3.919   7.005  -0.005 -1.0617  2.2453  4.5673
  133MOL0     H18306   4.145   6.973   0.102  0.6997 -0.4553  1.7640
  133MOL0     H18307   4.028   7.008   0.216  2.0648 -0.3548  0.4926
  133MOL0     H18308   4.049   6.734   0.274 -1.5065  0.6589  0.8984
  133MOL0     H18309   4.165   6.741   0.140 -0.1573  3.8968 -0.1326
  133MOL0     H18310   4.190   6.876   0.419 -0.3771 -2.4418  1.0573
  133MOL0     H18311   4.281   6.749   0.371  1.5828  0.0712 -0.5388
  133MOL0     H18312   4.366   6.928   0.523  1.7184  0.1880  1.3952
  133MOL0     H18313   4.611   6.991   0.709  0.9192 -0.4724  0.4902
  133MOL0     H18314   4.439   7.037   0.718  0.9548  3.2766  1.3343
  133MOL0     H18315   4.562   7.161   0.726  1.0446  0.3364  0.0116
  133MOL0     H18316   4.855   7.473   0.253 -2.4790  2.6935  2.2278
  133MOL0     H18317   5.072   7.637   0.279  0.4691  0.4460  0.4989
  133MOL0     H18318   5.354   7.559   0.648  1.7454  0.4537 -0.7132
  133MOL0     H18319   5.405   7.715   0.580  1.1539 -2.2638 -2.6609
  133MOL0     H18320   5.209   7.830   0.664  0.2077  1.0864  0.2595
  133MOL0     H18321   5.133   7.681   0.694 -0.2422  0.5447 -3.6798
  133MOL0     H18322   5.274   7.825   0.885  0.3971  0.9937 -1.1574
  133MOL0     H18323   5.394   7.713   0.835 -0.4947  1.7756  1.0631
  133MOL0     H18324   5.253   7.514   0.893  2.1003  0.4689 -1.7566
  133MOL0     H18325   5.121   7.629   0.943 -0.1014 -0.4947 -1.7429
  133MOL0     H18326   5.281   7.727   1.107  1.5931  0.6452 -2.3716
  133MOL0     H18327   5.210   7.571   1.148  0.2533  0.5539 -0.2824
  133MOL0     H18328   5.502   7.599   1.059  1.1348 -1.8331  0.5353
  133MOL0     H18329   5.407   7.451   1.103 -1.1627 -0.3825  0.8939
  133MOL0     H18330   5.378   7.515   1.319 -1.0742  3.2610  2.0747
  133MOL0     H18331   5.442   7.682   1.300 -0.6439  1.5712 -2.1887
  133MOL0     H18332   5.599   7.514   1.419  0.1803 -1.9081  0.0426
  133MOL0     H18333   5.670   7.599   1.280  0.1116 -0.1794 -1.4082
  133MOL0     H18334   5.179   7.411   0.622  0.0461  0.0590  0.8272
  133MOL0     H18335   4.975   7.275   0.601  0.5817 -0.4271  0.3784
  133MOL0     H18336   4.650   7.195   0.233 -1.4620 -0.5319 -1.5566
  133MOL0     H18337   4.492   7.067   0.141 -1.7244  0.4252 -0.0570
  133MOL0     H18338   3.249   6.033  -0.129  0.4574  0.6295  0.2442
  133MOL0     H18339   3.078   5.969   0.037  2.1215 -2.9176  0.8284
  133MOL0     H18340   2.836   5.912   0.293 -0.2148 -1.0061  0.6309
  133MOL0     H18341   2.640   5.856   0.439  1.0822  3.1791 -2.4270
  133MOL0     H18342   2.479   5.729   0.575 -0.0785  0.0457  0.7196
  133MOL0     H18343   2.572   5.586   0.547 -0.0356  1.3002 -2.2814
  133MOL0     H18344   2.462   5.653   0.823 -1.3039 -1.6179  0.0724
  133MOL0     H18345   2.550   5.510   0.771  0.8218 -0.2876  0.8377
  133MOL0     H18346   2.294   5.563   0.619 -0.1949 -3.4880 -1.8275
  133MOL0     H18347   2.394   5.433   0.630 -1.7926 -1.7237  1.8057
  133MOL0     H18348   2.169   5.422   0.759 -0.3717 -0.3975  0.2100
  133MOL0     H18349   2.229   5.547   0.858 -0.1927  1.1828 -2.7052
  133MOL0     H18350   2.327   5.160   1.020  1.0715  0.5133  1.2583
  133MOL0     H18351   2.919   5.680   0.711  1.6819 -1.7414 -1.2399
  133MOL0     H18352   3.217   5.788   0.563 -0.8875  1.5919  0.6387
  133MOL0     H18353   3.139   5.694   0.692  0.6210 -1.6497  0.4061
  133MOL0     H18354   3.171   5.614   0.540  0.2054  0.1214  1.0023
  134MOL0     O18355   5.450   2.542   3.016 -0.0183 -0.3975 -0.1080
  134MOL0     C18356   5.453   2.443   3.094  0.3650 -0.4904  0.6476
  134MOL0     O18357   5.344   2.372   3.128  0.5441  0.1569 -0.2414
  134MOL0     C18358   5.222   2.403   3.079  0.4307 -0.8698 -0.0937
  134MOL0     C18359   5.113   2.393   3.169 -0.0745  0.4902  0.6198
  134MOL0     C18360   4.981   2.415   3.120  0.2111 -0.1498  0.1721
  134MOL0     C18361   4.947   2.456   2.992 -0.8666  0.0957 -0.7430
  134MOL0     O18362   4.809   2.465   2.970  0.2518 -0.7254  0.3836
  134MOL0     C18363   4.762   2.470   2.834  0.5711  0.1863 -0.3740
  134MOL0     C18364   4.756   2.333   2.772  0.7973  0.4162  0.3517
  134MOL0     C18365   4.649   2.249   2.847 -0.3019 -1.0415  0.2836
  134MOL0     C18366   4.600   2.137   2.761  0.7150  0.7719 -0.8757
  134MOL0     C18367   4.548   2.013   2.844  0.7865 -0.8336  0.5011
  134MOL0     C18368   4.405   2.030   2.904 -0.6327  0.0777  0.2408
  134MOL0     C18369   4.383   1.912   2.998 -0.7100 -0.2423  0.7644
  134MOL0     C18370   4.242   1.886   3.036 -0.3315 -0.4396 -0.8242
  134MOL0     N18371   4.219   1.776   3.129 -0.0669  0.6538  0.5313
  134MOL0     C18372   4.304   1.723   3.217  0.7901 -0.0726 -0.0565
  134MOL0     C18373   4.261   1.615   3.264 -0.4351 -0.7343 -0.3526
  134MOL0     C18374   4.325   1.528   3.371  0.4465  0.4602  0.2954
  134MOL0     C18375   4.301   1.381   3.331 -0.3278  0.4743 -0.4262
  134MOL0     C18376   4.364   1.280   3.430 -1.0239  0.8286 -0.0983
  134MOL0     C18377   4.519   1.272   3.424  0.0975 -0.3257  0.4285
  134MOL0     O18378   4.575   1.220   3.299 -0.0962  0.4292  0.2535
  134MOL0     C18379   4.704   1.185   3.310  0.5024  0.9377 -1.2142
  134MOL0     C18380   4.794   1.209   3.420 -0.0426  0.4598 -0.2138
  134MOL0     C18381   4.927   1.152   3.424  0.7437  0.0805  0.0541
  134MOL0     C18382   5.008   1.173   3.555 -0.2371 -0.0055  0.7156
  134MOL0     C18383   4.980   1.091   3.305  0.1274  0.0081 -0.3642
  134MOL0     C18384   5.125   1.056   3.291  0.0396  0.3826 -0.7838
  134MOL0     O18385   5.149   0.959   3.187  0.4188  0.3767 -0.6605
  134MOL0     C18386   5.273   0.923   3.144 -0.2186 -1.2475 -0.1019
  134MOL0     C18387   5.307   0.791   3.160 -0.5450 -0.2810  0.0018
  134MOL0     C18388   5.428   0.748   3.111 -0.0647  0.8450 -0.4810
  134MOL0     C18389   5.530   0.827   3.069  0.0544  0.0866  0.5550
  134MOL0     O18390   5.646   0.767   3.038 -0.5730 -0.6616  0.6787
  134MOL0     C18391   5.765   0.845   3.032 -0.6440 -0.4894  0.2507
  134MOL0     C18392   5.801   0.891   3.176 -0.0807  0.5449  0.9244
  134MOL0     C18393   5.912   0.995   3.183 -0.7869  0.9533 -0.1065
  134MOL0     C18394   6.054   0.935   3.156 -0.3380  0.6274 -0.0113
  134MOL0     C18395   6.160   1.045   3.192  0.3776 -0.0167 -0.2897
  134MOL0     C18396   6.296   1.005   3.125 -0.6678 -0.1526  0.1972
  134MOL0     C18397   6.361   0.880   3.176 -0.0866 -0.0344 -0.4947
  134MOL0     C18398   6.493   0.853   3.105  0.5747 -0.1222 -0.2107
  134MOL0    Cl18399   6.648   0.889   3.195  0.5741  0.3181  0.4507
  134MOL0     C18400   5.495   0.965   3.060 -0.3136 -0.3417  0.3352
  134MOL0     C18401   5.367   1.014   3.105 -0.4593  1.4839  0.8255
  134MOL0     O18402   5.213   1.119   3.346 -0.2756 -0.1667 -0.5275
  134MOL0     C18403   4.894   1.096   3.191  0.2065 -0.7641 -0.0687
  134MOL0     C18404   4.760   1.130   3.197  1.2761 -0.3538 -0.0569
  134MOL0     N18405   4.133   1.594   3.209  0.0051  0.0635  0.6345
  134MOL0     N18406   4.100   1.699   3.140 -0.0672  0.1598 -0.7760
  134MOL0     C18407   5.061   2.454   2.905 -0.5588 -0.3455 -1.1781
  134MOL0     C18408   5.198   2.428   2.947  0.2366 -0.6679  0.6474
  134MOL0     C18409   5.588   2.405   3.151  1.2989  0.5564  0.3070
  134MOL0     C18410   5.589   2.276   3.200  0.0606  0.9790 -0.3680
  134MOL0     C18411   5.706   2.219   3.255  0.1627  0.1843 -0.2874
  134MOL0     C18412   5.817   2.297   3.267 -0.5230  0.4442 -0.0162
  134MOL0     O18413   5.939   2.248   3.319 -0.0332  0.1425  0.0773
  134MOL0     C18414   5.989   2.115   3.286  0.5220 -0.0938 -0.2623
  134MOL0     C18415   5.999   2.085   3.140  0.4822  0.1883  0.0212
  134MOL0     C18416   6.064   1.952   3.112  0.0544 -0.1617  0.0025
  134MOL0     C18417   6.099   1.938   2.968 -0.2501 -1.1865  0.4559
  134MOL0     C18418   6.001   1.959   2.870 -0.1852  0.2579 -0.4417
  134MOL0     C18419   5.922   1.966   2.783  0.2333 -0.3259 -0.2387
  134MOL0     C18420   5.816   2.421   3.224 -0.1663  0.1161  1.6585
  134MOL0     C18421   5.704   2.485   3.166 -0.7425  0.6579 -0.4910
  134MOL0     C18422   5.705   2.630   3.131  0.2166 -0.3314  0.2340
  134MOL0     H18423   5.140   2.372   3.273 -1.9838  2.7048  1.6511
  134MOL0     H18424   4.901   2.399   3.192 -1.6211  1.7692 -1.3059
  134MOL0     H18425   4.827   2.538   2.778  3.5155 -0.1347  2.3411
  134MOL0     H18426   4.658   2.504   2.831 -0.1713 -1.6116  1.9323
  134MOL0     H18427   4.718   2.351   2.671  0.3970 -1.2435  0.1656
  134MOL0     H18428   4.852   2.281   2.765  1.4232  1.7144 -3.4940
  134MOL0     H18429   4.703   2.222   2.938 -1.1036 -0.5037  0.9366
  134MOL0     H18430   4.563   2.312   2.872  0.1950 -1.8366  4.8291
  134MOL0     H18431   4.531   2.176   2.685  0.0220  0.2712 -0.5191
  134MOL0     H18432   4.685   2.100   2.703  0.7111  1.3556 -1.2685
  134MOL0     H18433   4.617   1.977   2.921  0.9789 -0.5193  0.4810
  134MOL0     H18434   4.543   1.928   2.776 -0.3293 -1.1009  0.9098
  134MOL0     H18435   4.392   2.118   2.969 -0.2690 -0.0054  0.4247
  134MOL0     H18436   4.342   2.038   2.815  1.1431 -0.0362 -1.0825
  134MOL0     H18437   4.445   1.939   3.085  1.9745 -0.7477 -0.8847
  134MOL0     H18438   4.432   1.824   2.955  0.0266  0.4323  0.2087
  134MOL0     H18439   4.184   1.971   3.073  1.2140 -0.7048  2.5760
  134MOL0     H18440   4.193   1.863   2.941 -1.4950  1.2979 -0.6901
  134MOL0     H18441   4.398   1.771   3.242  1.3207  0.0588 -2.1263
  134MOL0     H18442   4.271   1.551   3.463  0.0279 -1.2793  0.5266
  134MOL0     H18443   4.430   1.558   3.374  0.0853  1.9070 -0.6292
  134MOL0     H18444   4.196   1.363   3.306  0.0480 -0.6275 -1.3210
  134MOL0     H18445   4.350   1.358   3.236 -2.5064  0.7500 -1.6847
  134MOL0     H18446   4.335   1.313   3.530 -3.0334 -1.1878  0.0668
  134MOL0     H18447   4.334   1.176   3.412  4.1033 -0.9371  0.1736
  134MOL0     H18448   4.550   1.376   3.432  1.3277 -0.7146  0.9279
  134MOL0     H18449   4.560   1.214   3.507  1.1061 -1.5237 -0.8441
  134MOL0     H18450   4.768   1.275   3.503  2.8077 -0.4399  1.5264
  134MOL0     H18451   5.087   1.246   3.532 -0.2041  0.1108  1.1886
  134MOL0     H18452   5.062   1.083   3.586  2.4413  0.8238 -1.1660
  134MOL0     H18453   4.940   1.208   3.633 -2.9887  4.3509 -3.1694
  134MOL0     H18454   5.229   0.721   3.189 -2.1568  1.7650  0.7740
  134MOL0     H18455   5.439   0.641   3.096 -0.2627  0.3529  2.3381
  134MOL0     H18456   5.854   0.791   2.998 -1.1972 -1.0150 -0.3688
  134MOL0     H18457   5.757   0.921   2.953 -2.0193  1.2046  1.8960
  134MOL0     H18458   5.719   0.948   3.221  0.7169  3.9113 -1.5051
  134MOL0     H18459   5.826   0.798   3.227 -0.4113 -1.4942 -2.3501
  134MOL0     H18460   5.904   1.056   3.274 -1.8768  1.9160 -0.8250
  134MOL0     H18461   5.902   1.072   3.107  0.8416  1.9902  0.6731
  134MOL0     H18462   6.056   0.904   3.051  1.8652  1.1561 -0.1606
  134MOL0     H18463   6.078   0.847   3.216 -2.2826  0.5535  0.7390
  134MOL0     H18464   6.120   1.136   3.146 -2.5926 -1.6842 -1.2879
  134MOL0     H18465   6.165   1.065   3.299  0.6577  1.1047 -0.4883
  134MOL0     H18466   6.369   1.085   3.140 -0.7788  0.6720 -2.9064
  134MOL0     H18467   6.282   0.988   3.018 -0.6569 -1.3104  0.3741
  134MOL0     H18468   6.291   0.796   3.172 -0.1262 -0.5319  4.3142
  134MOL0     H18469   6.376   0.893   3.284 -1.7300 -2.0021  0.0446
  134MOL0     H18470   6.488   0.900   3.007 -2.6258 -0.2451 -0.2350
  134MOL0     H18471   6.476   0.745   3.094 -1.9538 -0.0374  1.8390
  134MOL0     H18472   5.569   1.036   3.023 -1.2066 -0.1362 -1.1484
  134MOL0     H18473   5.347   1.120   3.096  1.7861  1.8003 -3.9599
  134MOL0     H18474   4.943   1.074   3.097 -0.8829 -2.6139 -0.2533
  134MOL0     H18475   4.705   1.119   3.104  3.5285  0.6446 -1.6077
  134MOL0     H18476   5.057   2.465   2.797  0.8223 -0.8391 -1.3044
  134MOL0     H18477   5.273   2.440   2.869  0.3158 -1.5987  0.5675
  134MOL0     H18478   5.510   2.203   3.209  1.9723 -0.9869  1.9961
  134MOL0     H18479   5.713   2.123   3.306  2.1704  0.7199  0.5442
  134MOL0     H18480   6.088   2.111   3.332 -0.5555 -1.6791  2.0596
  134MOL0     H18481   5.930   2.036   3.332  3.2181 -2.1046  0.0058
  134MOL0     H18482   6.072   2.159   3.105 -0.6007  0.9653 -0.6824
  134MOL0     H18483   5.914   2.114   3.078  1.4236  3.7046  0.1721
  134MOL0     H18484   6.154   1.943   3.175 -0.9893  2.2138  2.0185
  134MOL0     H18485   6.010   1.865   3.148  2.9495 -1.7263  0.8874
  134MOL0     H18486   6.144   1.841   2.943  0.8023 -0.2940 -1.2391
  134MOL0     H18487   6.177   2.011   2.945 -0.1405 -1.8615 -1.5450
  134MOL0     H18488   5.858   1.967   2.697 -2.2784  2.2710  1.4429
  134MOL0     H18489   5.911   2.474   3.222  0.3982 -0.8926 -0.1326
  134MOL0     H18490   5.784   2.681   3.186 -1.3273  0.5348  1.7697
  134MOL0     H18491   5.713   2.641   3.023  1.1251 -1.8064  0.1330
  134MOL0     H18492   5.610   2.673   3.165  0.4085  3.4017 -3.2529
  135MOL0     O18493   5.627   9.908   8.957  0.8253  0.4904 -0.1273
  135MOL0     C18494   5.558   9.797   8.943  0.0494 -0.5685 -0.7953
  135MOL0     O18495   5.614   9.674   8.945 -0.0370  0.0562 -0.4032
  135MOL0     C18496   5.741   9.638   8.972 -0.0545 -0.2809  0.4380
  135MOL0     C18497   5.849   9.724   8.978 -0.3537  0.2552 -0.3317
  135MOL0     C18498   5.980   9.683   9.002 -0.5103  0.2103  0.0366
  135MOL0     C18499   6.003   9.540   9.018  0.1561  0.3159  0.8711
  135MOL0     O18500   6.125   9.477   9.046  0.2750  0.2589  0.8621
  135MOL0     C18501   6.242   9.551   9.004  0.2224  0.6865 -0.2589
  135MOL0     C18502   6.376   9.502   9.060 -0.1809  0.4172 -0.8326
  135MOL0     C18503   6.495   9.581   9.011  0.3903 -1.0217  0.1342
  135MOL0     C18504   6.515   9.586   8.860 -0.3257 -0.6126  0.1423
  135MOL0     C18505   6.626   9.676   8.798 -0.0681  0.3398  0.1600
  135MOL0     C18506   6.762   9.625   8.852  0.1301 -0.0980  0.2523
  135MOL0     C18507   6.893   9.669   8.786  0.7143 -0.3937 -1.0079
  135MOL0     C18508   6.932   9.816   8.803 -0.8262 -0.1440  0.3155
  135MOL0     N18509   7.073   9.851   8.769 -0.8899 -0.8086  0.9753
  135MOL0     C18510   7.168   9.876   8.865  0.1815  0.3251  0.0776
  135MOL0     C18511   7.285   9.891   8.800 -0.3874  0.6420 -0.0143
  135MOL0     C18512   7.422   9.929   8.845 -0.0165 -0.2068 -0.0646
  135MOL0     C18513   7.453  10.065   8.807  0.1032  0.5500 -0.1547
  135MOL0     C18514   7.580  10.119   8.870 -0.2534 -0.1195 -0.0514
  135MOL0     C18515   7.709  10.062   8.817  0.2698  0.5368  0.6440
  135MOL0     O18516   7.817  10.074   8.902 -0.3167  0.3808 -0.6632
  135MOL0     C18517   7.930   9.999   8.878 -0.0000  0.4841  0.1134
  135MOL0     C18518   8.024   9.995   8.979 -0.2647 -0.3852  0.3737
  135MOL0     C18519   8.154   9.930   8.963  0.1872 -0.2295  0.1780
  135MOL0     C18520   8.249   9.928   9.081 -1.1291 -0.7061 -0.3492
  135MOL0     C18521   8.174   9.857   8.844  0.4158  0.1471 -0.5516
  135MOL0     C18522   8.307   9.791   8.805  0.1737  0.2379  0.3006
  135MOL0     O18523   8.334   9.771   8.677  0.0253  0.2292  0.0287
  135MOL0     C18524   8.456   9.715   8.648 -1.0852  0.6201  0.0886
  135MOL0     C18525   8.482   9.583   8.620 -0.0538  0.4155  0.6764
  135MOL0     C18526   8.611   9.539   8.590  0.0262  0.3359 -0.1959
  135MOL0     C18527   8.720   9.628   8.592 -0.3409  0.1793  0.6324
  135MOL0     O18528   8.851   9.597   8.567  0.0915  0.1729  0.0868
  135MOL0     C18529   8.868   9.470   8.499 -0.0494 -0.3039 -0.3231
  135MOL0     C18530   9.014   9.428   8.490  0.5831  0.2230  0.6090
  135MOL0     C18531   9.072   9.489   8.360 -0.1299  0.1444  0.0182
  135MOL0     C18532   9.223   9.461   8.336 -0.1238  0.4537 -0.1845
  135MOL0     C18533   9.264   9.504   8.189  0.3152 -0.3652 -0.5064
  135MOL0     C18534   9.193   9.441   8.069  0.5122  0.8237 -0.3080
  135MOL0     C18535   9.161   9.300   8.084  1.1016  0.0593  0.1800
  135MOL0     C18536   9.051   9.254   7.987 -0.1408 -0.3161  0.4389
  135MOL0    Cl18537   8.904   9.334   8.044  0.5008 -0.5687 -0.2373
  135MOL0     C18538   8.694   9.759   8.616 -0.2023 -0.5062  0.9056
  135MOL0     C18539   8.563   9.806   8.640  0.2416 -0.3438  0.7454
  135MOL0     O18540   8.369   9.743   8.901 -0.2675  0.8042 -0.4393
  135MOL0     C18541   8.066   9.852   8.753 -1.0052 -0.6453  0.1566
  135MOL0     C18542   7.950   9.919   8.762 -0.9025 -0.0100  0.9175
  135MOL0     N18543   7.259   9.852   8.667 -0.1075 -0.2640 -0.1531
  135MOL0     N18544   7.132   9.829   8.649  0.0675 -0.7820 -0.3379
  135MOL0     C18545   5.892   9.453   9.001 -0.1353  0.1771  0.7693
  135MOL0     C18546   5.767   9.495   8.983  0.4441 -0.0332 -0.1690
  135MOL0     C18547   5.407   9.797   8.931 -0.3242  0.7738  0.3621
  135MOL0     C18548   5.349   9.918   8.895  0.1110  0.0996  0.5464
  135MOL0     C18549   5.210   9.929   8.873 -0.9576  0.3577 -0.1544
  135MOL0     C18550   5.129   9.815   8.885 -0.6903 -0.1011  0.0241
  135MOL0     O18551   4.996   9.797   8.861 -0.3468 -0.5976 -0.6837
  135MOL0     C18552   4.919   9.909   8.838 -0.0717  0.3161  0.7097
  135MOL0     C18553   4.773   9.860   8.828  0.4459 -0.0643  0.2628
  135MOL0     C18554   4.686   9.973   8.802  0.6378 -0.0451 -0.3340
  135MOL0     C18555   4.553   9.923   8.751  0.3142 -0.1295 -0.6980
  135MOL0     C18556   4.448  10.023   8.786  0.6640 -0.8407 -0.4121
  135MOL0     C18557   4.371  10.117   8.808 -0.4422 -0.6986  0.3966
  135MOL0     C18558   5.191   9.695   8.918  0.0569 -0.5572 -0.4966
  135MOL0     C18559   5.332   9.689   8.941  0.0685  0.8519 -0.8743
  135MOL0     C18560   5.373   9.555   9.000  0.6731 -0.3509  0.2979
  135MOL0     H18561   5.835   9.832   8.986 -2.5257  0.1343 -1.5730
  135MOL0     H18562   6.062   9.753   9.013  2.0597 -2.3750 -1.2548
  135MOL0     H18563   6.231   9.657   9.025 -2.9586  0.0435  2.2489
  135MOL0     H18564   6.243   9.546   8.895  0.8191 -0.3722 -0.2192
  135MOL0     H18565   6.373   9.498   9.169  0.1429  1.9285 -0.7506
  135MOL0     H18566   6.399   9.396   9.040 -1.4734  0.2141 -1.3466
  135MOL0     H18567   6.498   9.681   9.053  3.7773  0.9640 -4.0783
  135MOL0     H18568   6.584   9.533   9.052 -1.0496 -1.4291  3.0480
  135MOL0     H18569   6.542   9.484   8.832  1.3842 -0.2339  0.2999
  135MOL0     H18570   6.417   9.613   8.821  0.1243 -1.6128 -1.8292
  135MOL0     H18571   6.621   9.785   8.809  1.1622  0.3646  0.5712
  135MOL0     H18572   6.620   9.680   8.688  0.2362 -1.2127  0.0575
  135MOL0     H18573   6.770   9.664   8.954  2.7157  3.6864 -1.1590
  135MOL0     H18574   6.775   9.517   8.847  0.1328 -0.2236  2.3330
  135MOL0     H18575   6.879   9.640   8.682  0.6716 -0.0088 -1.1114
  135MOL0     H18576   6.971   9.605   8.828 -0.1986 -1.0185 -0.2210
  135MOL0     H18577   6.868   9.883   8.746 -0.8691 -1.1542 -0.8568
  135MOL0     H18578   6.916   9.835   8.910  0.6227  0.4670  0.4582
  135MOL0     H18579   7.137   9.873   8.969 -1.1329  1.1653 -0.2740
  135MOL0     H18580   7.491   9.862   8.794  2.2620 -0.1675  2.7532
  135MOL0     H18581   7.424   9.914   8.953 -2.5573  2.7117  0.5282
  135MOL0     H18582   7.474  10.068   8.700 -2.1457  2.8466 -0.6159
  135MOL0     H18583   7.367  10.129   8.829  0.4363  0.7606  0.5458
  135MOL0     H18584   7.580  10.228   8.858  1.5817 -0.2285 -1.6398
  135MOL0     H18585   7.580  10.100   8.978  2.1496 -2.5462 -0.3569
  135MOL0     H18586   7.684   9.957   8.798  2.9992 -0.5134  2.1487
  135MOL0     H18587   7.733  10.110   8.722  0.9039  1.2361  1.1377
  135MOL0     H18588   7.993  10.039   9.074 -2.7194 -0.9055 -0.1179
  135MOL0     H18589   8.233   9.847   9.152 -1.3946 -0.9693 -0.7035
  135MOL0     H18590   8.224  10.022   9.131 -1.9063 -1.2125  0.2475
  135MOL0     H18591   8.353   9.925   9.047  0.1181  0.1096  3.0127
  135MOL0     H18592   8.396   9.518   8.605  0.7813 -0.2799 -1.5673
  135MOL0     H18593   8.627   9.436   8.560 -1.1064 -0.2656  1.1792
  135MOL0     H18594   8.827   9.393   8.565 -0.0499  0.1298  0.1909
  135MOL0     H18595   8.820   9.476   8.401  0.2530  2.4798 -0.3913
  135MOL0     H18596   9.066   9.471   8.576  1.6383  2.0997 -0.8909
  135MOL0     H18597   9.016   9.319   8.497  1.0471  0.1500 -0.5747
  135MOL0     H18598   9.048   9.596   8.366 -3.2063 -0.2934 -2.2187
  135MOL0     H18599   9.017   9.446   8.276  2.2548 -0.0512 -1.5521
  135MOL0     H18600   9.238   9.354   8.351 -0.2793  0.0654 -2.4601
  135MOL0     H18601   9.279   9.525   8.405 -1.9750  1.9684  0.0008
  135MOL0     H18602   9.237   9.610   8.190  3.1387  0.4301  0.7685
  135MOL0     H18603   9.371   9.483   8.181  1.2255  3.3951  0.2247
  135MOL0     H18604   9.270   9.445   7.991  2.0459  0.8762  1.1585
  135MOL0     H18605   9.119   9.506   8.021  2.3052  1.8588 -1.8028
  135MOL0     H18606   9.121   9.279   8.184  1.7107  3.1003  1.1648
  135MOL0     H18607   9.254   9.252   8.051 -0.3013 -0.1768 -3.9967
  135MOL0     H18608   9.039   9.146   7.985 -0.9616 -0.2216 -0.8005
  135MOL0     H18609   9.090   9.276   7.887 -1.2823 -1.1911 -0.2120
  135MOL0     H18610   8.771   9.835   8.617 -0.2847 -0.4209  1.5144
  135MOL0     H18611   8.544   9.912   8.632  2.9167  0.1903  0.5376
  135MOL0     H18612   8.067   9.787   8.667 -3.1785 -1.8729  0.9740
  135MOL0     H18613   7.872   9.916   8.687  1.3717 -0.0219 -1.5929
  135MOL0     H18614   5.918   9.348   9.009  3.5408  1.0316  2.0757
  135MOL0     H18615   5.690   9.421   8.964  0.0718  0.7843 -2.1232
  135MOL0     H18616   5.407  10.010   8.891 -0.4331  0.6163  2.9256
  135MOL0     H18617   5.160  10.021   8.844  0.9296  1.0017 -1.6094
  135MOL0     H18618   4.932   9.978   8.922 -1.0189  0.7867  0.4726
  135MOL0     H18619   4.946   9.958   8.744 -0.1600  0.6415  0.8501
  135MOL0     H18620   4.731   9.808   8.915 -0.0074 -0.4117 -0.1573
  135MOL0     H18621   4.760   9.786   8.748 -0.8145 -0.1342  0.5031
  135MOL0     H18622   4.677  10.024   8.898  2.8202 -1.0944  0.4880
  135MOL0     H18623   4.728  10.040   8.726 -0.9755 -1.0933 -2.2801
  135MOL0     H18624   4.531   9.831   8.806  0.5012  1.1105  1.5445
  135MOL0     H18625   4.555   9.898   8.644  1.9988 -3.5220  0.0079
  135MOL0     H18626   4.302  10.199   8.813 -1.9734 -1.7804 -1.5602
  135MOL0     H18627   5.130   9.607   8.935  2.6301 -2.5013 -0.8278
  135MOL0     H18628   5.281   9.496   9.012  0.4871 -0.2856 -0.7665
  135MOL0     H18629   5.439   9.497   8.935  0.5923  1.5075 -1.5434
  135MOL0     H18630   5.433   9.567   9.091  2.3439  0.3099 -0.8562
  136MOL0     O18631   5.450  11.320   9.233 -0.0960 -0.0501  0.7401
  136MOL0     C18632   5.369  11.405   9.265 -0.5402  0.7411 -0.0884
  136MOL0     O18633   5.371  11.531   9.212 -0.2932 -0.0655  0.1591
  136MOL0     C18634   5.490  11.579   9.178 -0.0452 -0.3636  0.0574
  136MOL0     C18635   5.528  11.566   9.045 -0.1032 -0.1080  0.4768
  136MOL0     C18636   5.652  11.617   8.998  0.3570  0.3443 -0.1470
  136MOL0     C18637   5.743  11.660   9.093 -0.0165  0.1438  0.4804
  136MOL0     O18638   5.866  11.703   9.038  0.5067  0.1654 -0.5811
  136MOL0     C18639   5.939  11.802   9.099 -0.6556 -0.1177  0.5785
  136MOL0     C18640   6.071  11.802   9.018  0.0664  0.0444  0.2048
  136MOL0     C18641   6.072  11.858   8.873 -0.0120  0.8379  0.4141
  136MOL0     C18642   6.208  11.902   8.832  0.2229 -0.2021  0.2073
  136MOL0     C18643   6.217  11.952   8.679  0.6644  0.5650 -0.4203
  136MOL0     C18644   6.345  12.029   8.637 -0.0388 -0.0742 -0.0213
  136MOL0     C18645   6.479  11.985   8.698  0.1636 -0.2227  0.1254
  136MOL0     C18646   6.594  12.012   8.615 -0.7285  0.1023  0.2188
  136MOL0     N18647   6.643  12.147   8.616  0.2897  0.5333 -0.6350
  136MOL0     C18648   6.772  12.186   8.646 -0.2654 -0.1349 -0.5984
  136MOL0     C18649   6.793  12.301   8.584  0.2205  0.1509 -0.3664
  136MOL0     C18650   6.925  12.387   8.572 -0.3236  0.8315 -0.0335
  136MOL0     C18651   6.991  12.394   8.710  0.3237  0.6296 -0.3960
  136MOL0     C18652   7.126  12.462   8.707 -0.6989 -0.3791  0.3366
  136MOL0     C18653   7.178  12.491   8.842  0.3467  0.3368  0.7021
  136MOL0     O18654   7.322  12.492   8.833  0.2599  0.2062  0.1955
  136MOL0     C18655   7.397  12.568   8.915 -0.0498 -0.1246 -0.8272
  136MOL0     C18656   7.374  12.696   8.967 -0.2557  0.9429  0.3417
  136MOL0     C18657   7.477  12.774   9.029  0.2850 -0.5020  0.1934
  136MOL0     C18658   7.459  12.921   9.047 -0.6591 -0.2438 -0.9535
  136MOL0     C18659   7.599  12.702   9.065 -0.0273 -0.2827  0.0891
  136MOL0     C18660   7.716  12.756   9.140 -1.1304  0.6872 -0.3874
  136MOL0     O18661   7.833  12.687   9.135  0.3717 -0.2695  0.0494
  136MOL0     C18662   7.951  12.754   9.168  0.3328 -0.4879  0.1376
  136MOL0     C18663   8.016  12.721   9.286 -0.8141  0.3248  0.3656
  136MOL0     C18664   8.122  12.797   9.329 -1.0474 -0.0627  0.2063
  136MOL0     C18665   8.178  12.900   9.256  0.6477 -0.1554 -0.6287
  136MOL0     O18666   8.284  12.970   9.316 -0.1117  0.0770 -0.0519
  136MOL0     C18667   8.391  13.012   9.228  1.0540  0.0290  0.6297
  136MOL0     C18668   8.477  12.897   9.188 -0.4741  0.2873  0.2433
  136MOL0     C18669   8.618  12.938   9.169 -0.7040 -0.6398  0.9444
  136MOL0     C18670   8.714  12.825   9.171 -0.4823  0.4185 -0.1459
  136MOL0     C18671   8.857  12.856   9.128  0.1328 -0.3362  0.4080
  136MOL0     C18672   8.927  12.935   9.227 -0.2933 -0.6891  0.5303
  136MOL0     C18673   9.071  12.964   9.180  0.0128  0.4732  0.2938
  136MOL0     C18674   9.150  13.020   9.301 -0.0743 -0.3069  0.2226
  136MOL0    Cl18675   9.074  13.168   9.362 -0.2813 -0.4892 -0.0932
  136MOL0     C18676   8.116  12.932   9.131  0.8261 -0.8401 -0.4966
  136MOL0     C18677   7.993  12.861   9.098  0.3268 -0.1604  0.3141
  136MOL0     O18678   7.698  12.862   9.212  0.0422  0.7281  0.5022
  136MOL0     C18679   7.615  12.576   9.011 -0.5191  0.3979  0.4898
  136MOL0     C18680   7.525  12.513   8.936  1.1349 -0.6625 -0.1145
  136MOL0     N18681   6.678  12.330   8.521 -0.9836 -0.4884  0.3545
  136MOL0     N18682   6.589  12.244   8.537 -0.3930 -0.4373 -0.5782
  136MOL0     C18683   5.699  11.673   9.225 -0.1631  0.2774 -0.0529
  136MOL0     C18684   5.574  11.637   9.269 -0.0083 -0.1451 -0.1522
  136MOL0     C18685   5.239  11.372   9.318 -0.0969  0.4794  0.4663
  136MOL0     C18686   5.124  11.460   9.308 -0.0358  0.0698 -0.2763
  136MOL0     C18687   5.005  11.413   9.351  0.6677 -0.5312  0.4732
  136MOL0     C18688   4.982  11.294   9.406 -0.9813  0.6416 -0.2799
  136MOL0     O18689   4.855  11.256   9.441 -0.5524  0.0034 -0.0597
  136MOL0     C18690   4.827  11.119   9.483  0.2751 -0.5176  0.5070
  136MOL0     C18691   4.671  11.104   9.509 -0.4039  1.0653  0.2345
  136MOL0     C18692   4.629  10.962   9.548  0.3601  0.2764 -0.2323
  136MOL0     C18693   4.643  10.930   9.695  0.6777  0.2591  0.2816
  136MOL0     C18694   4.783  10.885   9.736 -0.1749 -0.0139  0.5403
  136MOL0     C18695   4.899  10.857   9.749 -0.9680 -0.2826  0.5215
  136MOL0     C18696   5.101  11.214   9.435  0.5895 -0.1405 -0.1243
  136MOL0     C18697   5.221  11.247   9.388  0.1746 -0.9321 -0.7039
  136MOL0     C18698   5.333  11.158   9.430 -0.6353  0.9185 -0.0741
  136MOL0     H18699   5.459  11.527   8.971 -1.5551  2.1384  0.5549
  136MOL0     H18700   5.672  11.626   8.892  2.0371  2.5173  0.2816
  136MOL0     H18701   5.956  11.796   9.207 -3.1835  4.5229  1.4683
  136MOL0     H18702   5.880  11.892   9.080 -0.1654  0.0234 -0.3139
  136MOL0     H18703   6.137  11.850   9.090  1.4045 -1.3690 -0.0342
  136MOL0     H18704   6.107  11.699   9.015  4.5080  1.4209 -2.4667
  136MOL0     H18705   6.039  11.782   8.802 -1.6859  0.2635  1.7476
  136MOL0     H18706   6.007  11.946   8.870  0.5937  1.2876  0.3207
  136MOL0     H18707   6.238  11.980   8.902  3.7125 -2.3800  1.4238
  136MOL0     H18708   6.278  11.820   8.851  2.3474  1.5720  0.4182
  136MOL0     H18709   6.132  12.020   8.668  2.4815  3.4869  1.9919
  136MOL0     H18710   6.215  11.861   8.617 -2.1705  0.7220 -0.6979
  136MOL0     H18711   6.352  12.014   8.529  0.4446 -1.3963  0.1832
  136MOL0     H18712   6.320  12.133   8.662 -0.5285 -0.2438  0.2107
  136MOL0     H18713   6.478  11.876   8.707  1.6442 -0.3330 -0.6884
  136MOL0     H18714   6.492  12.028   8.798 -1.1280 -1.0104  0.6568
  136MOL0     H18715   6.672  11.951   8.661 -0.2441 -0.3917 -1.2115
  136MOL0     H18716   6.576  11.977   8.513 -0.8065 -1.1253  0.6313
  136MOL0     H18717   6.844  12.131   8.706 -0.1430  2.4315  1.8694
  136MOL0     H18718   6.905  12.483   8.525  1.6216  1.3805  0.1850
  136MOL0     H18719   6.987  12.336   8.498  1.4998  2.3900  0.3498
  136MOL0     H18720   6.920  12.446   8.774 -3.1922 -1.0277 -2.6644
  136MOL0     H18721   7.010  12.292   8.747 -2.7429  0.7178  1.7488
  136MOL0     H18722   7.192  12.387   8.663  0.6655  0.9120  0.1179
  136MOL0     H18723   7.130  12.555   8.649  2.6874  0.2740  1.4493
  136MOL0     H18724   7.147  12.596   8.852 -0.6339  0.5778 -3.2927
  136MOL0     H18725   7.152  12.416   8.917  2.4938  0.8035  1.9813
  136MOL0     H18726   7.278  12.739   8.939 -0.9754  0.7260  2.2877
  136MOL0     H18727   7.387  12.959   8.974  0.2374 -0.7959 -2.1651
  136MOL0     H18728   7.559  12.961   9.029  1.3526 -3.7175  1.3211
  136MOL0     H18729   7.425  12.948   9.147  1.1308  0.5855 -0.5186
  136MOL0     H18730   7.979  12.642   9.352 -0.2045  1.4612  2.1363
  136MOL0     H18731   8.162  12.772   9.426  0.5746  1.3293 -0.0441
  136MOL0     H18732   8.364  13.075   9.143  4.2952  1.8089  0.7879
  136MOL0     H18733   8.456  13.083   9.280  0.1960  2.5097 -1.4610
  136MOL0     H18734   8.478  12.832   9.276  0.4483 -0.8519 -0.5713
  136MOL0     H18735   8.445  12.832   9.105 -0.2107  0.0097  0.3553
  136MOL0     H18736   8.643  13.008   9.248  1.6707  0.4744 -0.6660
  136MOL0     H18737   8.633  12.985   9.071  1.7424 -3.7634 -0.3478
  136MOL0     H18738   8.674  12.745   9.108 -0.1086 -0.9869  1.3234
  136MOL0     H18739   8.718  12.796   9.276  0.6712  0.2285 -0.2353
  136MOL0     H18740   8.911  12.763   9.110  1.9007  1.0108 -1.7461
  136MOL0     H18741   8.850  12.901   9.028 -1.1789 -0.6262  0.3495
  136MOL0     H18742   8.929  12.873   9.316  0.5785  0.7562  1.5571
  136MOL0     H18743   8.876  13.029   9.249  0.1702 -0.3756  0.2808
  136MOL0     H18744   9.078  13.034   9.096  1.6970 -0.7051 -0.6158
  136MOL0     H18745   9.113  12.865   9.158 -1.6024 -0.4275  1.1202
  136MOL0     H18746   9.250  13.055   9.272 -1.6728  2.3274 -2.7477
  136MOL0     H18747   9.152  12.944   9.379 -2.2332  0.0410  0.6685
  136MOL0     H18748   8.140  13.017   9.068 -1.0700  0.9838  1.0794
  136MOL0     H18749   7.936  12.908   9.017 -3.3256  2.4885  4.0048
  136MOL0     H18750   7.709  12.523   9.022  0.1972  0.9090 -2.4705
  136MOL0     H18751   7.542  12.414   8.895  0.7477 -1.3275  1.3056
  136MOL0     H18752   5.762  11.710   9.305 -1.9112  3.1455  0.1691
  136MOL0     H18753   5.543  11.640   9.373 -0.5726 -1.5352 -0.2486
  136MOL0     H18754   5.130  11.560   9.267 -1.1974 -0.0549 -0.7887
  136MOL0     H18755   4.909  11.459   9.330  0.2368 -1.2253  0.8928
  136MOL0     H18756   4.869  11.057   9.404  3.5160  1.8755  0.1751
  136MOL0     H18757   4.886  11.101   9.574  0.6997  0.7367  0.4944
  136MOL0     H18758   4.625  11.114   9.410  0.7170  1.6191 -0.2552
  136MOL0     H18759   4.638  11.180   9.580 -2.6484 -0.8816  1.4106
  136MOL0     H18760   4.527  10.948   9.513  0.5689  0.0501 -0.7585
  136MOL0     H18761   4.674  10.893   9.476 -1.9776  0.4919 -2.0138
  136MOL0     H18762   4.562  10.864   9.726  0.1247  0.6097 -0.3926
  136MOL0     H18763   4.623  11.018   9.757  3.0813  0.0536  1.4517
  136MOL0     H18764   4.995  10.810   9.753 -2.0149 -2.4793  1.3458
  136MOL0     H18765   5.090  11.128   9.500 -2.0500  0.3554  0.1957
  136MOL0     H18766   5.305  11.082   9.502 -1.1325  1.4825  0.3394
  136MOL0     H18767   5.383  11.106   9.348  0.4533  0.5411  0.8021
  136MOL0     H18768   5.404  11.219   9.488 -0.6881 -0.3193  1.3303
  137MOL0     O18769   8.095   3.118  10.996 -0.0704  0.6783 -0.3268
  137MOL0     C18770   8.013   3.204  10.959  0.6795 -0.5633  0.1951
  137MOL0     O18771   8.012   3.341  10.992  0.1319  0.9523  0.3376
  137MOL0     C18772   8.114   3.402  11.059  0.2692  0.0597  0.0034
  137MOL0     C18773   8.149   3.533  11.013 -0.0285 -0.5166  0.0938
  137MOL0     C18774   8.251   3.610  11.077  0.9833 -0.3109 -0.4494
  137MOL0     C18775   8.316   3.557  11.188  0.3096  0.8668 -0.5225
  137MOL0     O18776   8.406   3.616  11.256  0.4385 -0.1460  0.3634
  137MOL0     C18777   8.496   3.708  11.187 -0.2545  0.4764 -0.1062
  137MOL0     C18778   8.611   3.734  11.281 -0.2909  0.2431 -0.5271
  137MOL0     C18779   8.716   3.836  11.232 -0.9108  0.0307 -0.5643
  137MOL0     C18780   8.668   3.982  11.209 -0.0280 -0.1940  0.3295
  137MOL0     C18781   8.780   4.073  11.168  0.1450  0.1344 -0.5157
  137MOL0     C18782   8.854   4.060  11.035  0.7824 -0.8372 -0.0335
  137MOL0     C18783   8.953   4.177  11.000  0.1971  0.0585  0.1817
  137MOL0     C18784   9.076   4.165  11.092 -0.2421 -0.6234 -0.6630
  137MOL0     N18785   9.175   4.276  11.061 -0.0011 -0.0189 -0.2903
  137MOL0     C18786   9.289   4.256  10.994 -0.6194 -0.0607  0.4848
  137MOL0     C18787   9.348   4.370  10.973 -0.3122 -0.0246 -0.4192
  137MOL0     C18788   9.483   4.393  10.894  0.1705  0.4768 -1.0106
  137MOL0     C18789   9.467   4.509  10.793 -0.4493 -0.1353 -0.0000
  137MOL0     C18790   9.581   4.518  10.692  0.5426 -0.0705  0.1005
  137MOL0     C18791   9.599   4.385  10.619 -0.3340  0.7344  0.3249
  137MOL0     O18792   9.671   4.403  10.502 -0.8259  0.1476 -0.2171
  137MOL0     C18793   9.789   4.460  10.503 -0.8281  0.2577 -0.4725
  137MOL0     C18794   9.826   4.507  10.376 -0.2200 -0.5464 -0.5371
  137MOL0     C18795   9.945   4.585  10.348  1.0243 -0.6302 -0.7906
  137MOL0     C18796   9.947   4.654  10.210 -0.8317  0.0312  0.6451
  137MOL0     C18797  10.028   4.613  10.463  0.1541 -0.2481 -0.4140
  137MOL0     C18798  10.161   4.687  10.453 -0.8202 -0.1375  0.2862
  137MOL0     O18799  10.226   4.688  10.325  0.3167 -0.5671  0.0032
  137MOL0     C18800  10.348   4.748  10.322 -0.4075  0.4417  0.1602
  137MOL0     C18801  10.461   4.664  10.315 -0.0280  0.5088 -0.1985
  137MOL0     C18802  10.591   4.712  10.294  0.3298  0.4461 -1.0043
  137MOL0     C18803  10.608   4.852  10.292 -0.2080 -0.1074 -1.2466
  137MOL0     O18804  10.729   4.912  10.281 -0.2151 -0.6200 -0.0049
  137MOL0     C18805  10.844   4.834  10.241  0.3145  0.3026  0.3790
  137MOL0     C18806  10.923   4.768  10.362 -0.1750 -0.1514 -0.3166
  137MOL0     C18807  10.951   4.864  10.476 -0.0880 -0.3869 -0.6533
  137MOL0     C18808  10.998   4.794  10.602  0.6340 -0.3605 -0.0806
  137MOL0     C18809  11.123   4.713  10.591  0.5273 -0.2216 -0.3531
  137MOL0     C18810  11.257   4.796  10.560  0.1273 -0.6650  0.7435
  137MOL0     C18811  11.383   4.752  10.632  0.1911  0.1733  0.2862
  137MOL0     C18812  11.508   4.822  10.593 -0.3748  0.1578 -0.6233
  137MOL0    Cl18813  11.525   4.813  10.415  0.0159 -0.2676  0.4769
  137MOL0     C18814  10.499   4.933  10.314 -0.1682 -0.2698 -0.2117
  137MOL0     C18815  10.365   4.882  10.321 -1.0860 -0.3258  0.8718
  137MOL0     O18816  10.205   4.739  10.558  0.2300  0.5402  0.2198
  137MOL0     C18817   9.997   4.554  10.588 -0.1161  0.1016 -0.4709
  137MOL0     C18818   9.882   4.482  10.611  0.8831  0.2616  0.5517
  137MOL0     N18819   9.285   4.465  11.047  0.3087 -0.2870 -0.2351
  137MOL0     N18820   9.179   4.407  11.108  0.2936  0.6255  0.0262
  137MOL0     C18821   8.276   3.426  11.234  0.4400 -0.6906 -0.0785
  137MOL0     C18822   8.187   3.348  11.166  0.6027 -0.2775  0.1755
  137MOL0     C18823   7.904   3.167  10.860 -0.3106 -0.3625 -1.0105
  137MOL0     C18824   7.820   3.267  10.805 -0.7433 -0.1082 -0.0058
  137MOL0     C18825   7.731   3.239  10.701  0.1832  0.5525  0.7605
  137MOL0     C18826   7.723   3.111  10.644  0.3717 -0.7618 -0.3071
  137MOL0     O18827   7.660   3.081  10.525  0.4790  0.1426 -0.2233
  137MOL0     C18828   7.582   3.183  10.455 -0.0890  0.3727  0.3055
  137MOL0     C18829   7.450   3.227  10.530 -0.1394  0.2275  0.5695
  137MOL0     C18830   7.389   3.105  10.607  0.4376  0.0454  0.8482
  137MOL0     C18831   7.256   3.157  10.664 -0.7667  0.6117  0.3956
  137MOL0     C18832   7.273   3.261  10.767  0.0381 -0.5130 -0.2041
  137MOL0     C18833   7.289   3.347  10.848  0.0724 -0.0593  0.3841
  137MOL0     C18834   7.793   3.008  10.713  0.4730 -0.6715 -0.0124
  137MOL0     C18835   7.886   3.035  10.815  0.4889 -0.3105  0.4093
  137MOL0     C18836   7.981   2.914  10.851 -0.0822  1.0682 -0.0214
  137MOL0     H18837   8.078   3.578  10.943 -2.9189 -0.3085  2.9330
  137MOL0     H18838   8.264   3.715  11.055  2.4237 -0.1945  0.7879
  137MOL0     H18839   8.450   3.806  11.176  0.4925  0.6747 -1.7481
  137MOL0     H18840   8.532   3.671  11.090 -1.6516  1.3495 -0.9739
  137MOL0     H18841   8.573   3.781  11.372  2.2191 -1.1944  1.3908
  137MOL0     H18842   8.653   3.636  11.307  2.2900  0.8238 -2.0866
  137MOL0     H18843   8.793   3.836  11.309 -0.0762  1.8875 -1.3410
  137MOL0     H18844   8.761   3.790  11.143  1.9184  0.6283  0.4684
  137MOL0     H18845   8.579   3.976  11.145 -0.6249 -2.4373  1.2982
  137MOL0     H18846   8.630   4.018  11.305 -0.3938  0.0904  0.0838
  137MOL0     H18847   8.854   4.083  11.248  0.8963  1.4095 -1.3302
  137MOL0     H18848   8.737   4.174  11.161  0.4604  0.6326  2.9224
  137MOL0     H18849   8.897   3.959  11.031 -0.9305 -1.5664 -1.3350
  137MOL0     H18850   8.771   4.063  10.963  0.8329  0.1248 -0.0685
  137MOL0     H18851   8.902   4.273  11.016 -0.8634 -0.4228 -0.1998
  137MOL0     H18852   8.981   4.177  10.895  1.1478  1.5824  0.4039
  137MOL0     H18853   9.035   4.192  11.190  2.1341  1.2670 -0.0815
  137MOL0     H18854   9.120   4.065  11.088 -0.3879 -0.6539 -1.5562
  137MOL0     H18855   9.326   4.163  10.952  2.7214  1.6048 -0.5911
  137MOL0     H18856   9.509   4.296  10.850  0.7143 -0.1516  0.6184
  137MOL0     H18857   9.563   4.417  10.965  1.4144  0.6797 -2.4184
  137MOL0     H18858   9.370   4.509  10.741 -1.1340  3.2448  1.0000
  137MOL0     H18859   9.464   4.602  10.851 -0.6342  0.2450 -0.6003
  137MOL0     H18860   9.560   4.602  10.624 -1.4935  0.2200  0.9886
  137MOL0     H18861   9.663   4.542  10.761 -0.8389  2.2995  1.0364
  137MOL0     H18862   9.660   4.330  10.692 -1.1388  0.6001  0.9116
  137MOL0     H18863   9.504   4.332  10.610 -1.1763  2.0453  1.1357
  137MOL0     H18864   9.754   4.502  10.295 -0.2055  0.2130 -0.6050
  137MOL0     H18865   9.852   4.662  10.155 -0.9099  4.9383  1.0320
  137MOL0     H18866  10.020   4.618  10.138  2.2748  3.8807  1.5489
  137MOL0     H18867   9.968   4.760  10.230  3.3147 -0.4829 -0.2635
  137MOL0     H18868  10.450   4.556  10.324  0.5642  0.4786  0.2464
  137MOL0     H18869  10.680   4.651  10.280  0.1693  0.3669 -1.7086
  137MOL0     H18870  10.802   4.761  10.171  0.5535 -1.5472  2.0571
  137MOL0     H18871  10.912   4.900  10.187 -0.5732  1.1536  0.2701
  137MOL0     H18872  10.863   4.681  10.391 -0.0959 -0.5462 -1.2782
  137MOL0     H18873  11.020   4.731  10.328  1.6456  0.3463  3.7682
  137MOL0     H18874  10.856   4.908  10.509 -0.6796 -1.0711 -1.3976
  137MOL0     H18875  11.029   4.936  10.450  2.2392 -1.8012  1.8594
  137MOL0     H18876  10.921   4.721  10.630  2.6475 -1.9010  1.7273
  137MOL0     H18877  10.999   4.858  10.691 -3.7477  0.2724 -0.2329
  137MOL0     H18878  11.127   4.660  10.686  0.4438 -0.6222 -0.5736
  137MOL0     H18879  11.131   4.638  10.512 -0.3704 -0.6879 -0.0105
  137MOL0     H18880  11.244   4.901  10.591  0.8338  0.2766 -1.9183
  137MOL0     H18881  11.281   4.785  10.454  1.4184 -1.3920  1.0919
  137MOL0     H18882  11.397   4.646  10.611 -1.8413 -0.1690  0.4830
  137MOL0     H18883  11.366   4.751  10.740  0.0672 -2.8844  0.3354
  137MOL0     H18884  11.602   4.794  10.639 -1.7291  0.3366  2.4744
  137MOL0     H18885  11.491   4.925  10.625  0.0375  0.3434 -0.9880
  137MOL0     H18886  10.506   5.041  10.304 -1.2070 -0.2722 -1.0791
  137MOL0     H18887  10.280   4.949  10.326 -0.0295  1.4017 -2.0272
  137MOL0     H18888  10.065   4.563  10.672 -2.6742  2.4550  1.5457
  137MOL0     H18889   9.870   4.433  10.707 -2.9641 -1.4880 -0.6476
  137MOL0     H18890   8.317   3.381  11.324  1.6606  1.0661  0.2909
  137MOL0     H18891   8.176   3.242  11.188  2.7261 -0.4602  0.5455
  137MOL0     H18892   7.828   3.369  10.842  3.4076 -0.4065  0.3217
  137MOL0     H18893   7.664   3.311  10.655 -1.2037 -1.9620 -1.4893
  137MOL0     H18894   7.637   3.277  10.457 -0.8620  0.8230  2.1501
  137MOL0     H18895   7.559   3.155  10.352  0.3827  2.4169 -0.3975
  137MOL0     H18896   7.372   3.260  10.461 -0.6759 -4.5437 -1.4381
  137MOL0     H18897   7.477   3.308  10.600 -0.3589  0.4132  0.4410
  137MOL0     H18898   7.366   3.019  10.544  1.4478 -1.3431  2.3019
  137MOL0     H18899   7.461   3.079  10.684  0.0043  3.4173  2.5654
  137MOL0     H18900   7.218   3.070  10.718  1.9930 -0.7725  0.3059
  137MOL0     H18901   7.186   3.203  10.594  1.1465  2.1522 -0.6265
  137MOL0     H18902   7.287   3.427  10.920 -1.3952  0.1647  0.1319
  137MOL0     H18903   7.786   2.913  10.660 -1.4283  0.0627 -1.2232
  137MOL0     H18904   8.087   2.938  10.843  0.0982  0.3530  0.1640
  137MOL0     H18905   7.960   2.872  10.950 -0.7157  1.0212 -0.1657
  137MOL0     H18906   7.972   2.832  10.780  0.1474  1.0787 -0.0625
  138MOL0     O18907   9.081   9.476   4.655 -0.1984 -0.0878  0.2721
  138MOL0     C18908   9.172   9.548   4.625 -0.3192 -0.8870 -0.1382
  138MOL0     O18909   9.271   9.597   4.704  0.3018  1.0202 -0.2814
  138MOL0     C18910   9.252   9.570   4.837  0.1239 -0.2009  0.0469
  138MOL0     C18911   9.242   9.439   4.894  0.2008 -0.1883 -0.3506
  138MOL0     C18912   9.245   9.424   5.028 -0.1403 -0.5461  0.2604
  138MOL0     C18913   9.255   9.532   5.116  0.2003  0.0471  0.0133
  138MOL0     O18914   9.265   9.512   5.257  1.4523  0.2121 -0.3091
  138MOL0     C18915   9.334   9.385   5.299 -0.2062  0.0283 -0.0535
  138MOL0     C18916   9.372   9.415   5.445 -0.6878 -0.3037 -0.5437
  138MOL0     C18917   9.494   9.339   5.486  0.7888  0.2949 -0.1583
  138MOL0     C18918   9.619   9.418   5.514  0.7367  0.3436 -0.0290
  138MOL0     C18919   9.610   9.514   5.630  0.5234 -0.2318 -0.0901
  138MOL0     C18920   9.719   9.615   5.620 -0.8727 -0.0657 -0.5218
  138MOL0     C18921   9.752   9.676   5.767 -0.5036 -1.0851 -0.7336
  138MOL0     C18922   9.852   9.798   5.777 -0.3368 -0.7701 -0.7300
  138MOL0     N18923   9.857   9.863   5.913  0.0873 -0.8761  0.0386
  138MOL0     C18924   9.906   9.992   5.928 -1.0292  0.5939 -0.3831
  138MOL0     C18925   9.859  10.036   6.050 -1.0035 -0.2795 -0.2056
  138MOL0     C18926   9.903  10.180   6.092  0.0653 -0.1928 -0.7176
  138MOL0     C18927  10.039  10.177   6.172 -0.2316  0.1558 -0.0911
  138MOL0     C18928  10.026  10.082   6.291 -0.4972 -0.0471  0.2810
  138MOL0     C18929  10.157  10.079   6.369  0.6700 -0.3370 -0.9246
  138MOL0     O18930  10.180  10.192   6.457  1.2228 -0.2102 -0.7130
  138MOL0     C18931  10.300  10.218   6.511 -0.6743  1.4900  0.5035
  138MOL0     C18932  10.331  10.325   6.592  0.4713  0.3939  0.2110
  138MOL0     C18933  10.460  10.359   6.640 -0.0789 -0.6982 -0.0805
  138MOL0     C18934  10.478  10.506   6.678  0.7293  0.5779  0.3537
  138MOL0     C18935  10.571  10.276   6.604  0.0565 -0.3596 -0.7745
  138MOL0     C18936  10.718  10.295   6.656  0.5172 -0.2698 -0.7050
  138MOL0     O18937  10.817  10.207   6.624  0.1632  0.0468  0.3108
  138MOL0     C18938  10.947  10.253   6.632  0.4140 -0.7836 -0.5999
  138MOL0     C18939  11.044  10.160   6.655 -0.2785  0.8589  0.3501
  138MOL0     C18940  11.176  10.199   6.685 -0.4572 -0.3505  0.4819
  138MOL0     C18941  11.215  10.329   6.653 -0.5004  0.0834  0.2114
  138MOL0     O18942  11.353  10.351   6.659  0.7475  0.1908  0.8836
  138MOL0     C18943  11.405  10.482   6.654 -0.8793 -0.0623 -0.1244
  138MOL0     C18944  11.555  10.470   6.635 -0.6549  0.4692  1.1628
  138MOL0     C18945  11.621  10.602   6.667 -0.7477 -0.5020  0.9242
  138MOL0     C18946  11.772  10.596   6.627  0.1184 -1.1121  0.2898
  138MOL0     C18947  11.864  10.718   6.650  0.4259  0.0818 -0.2442
  138MOL0     C18948  11.897  10.742   6.804 -0.1374  0.5746  0.0959
  138MOL0     C18949  12.014  10.832   6.807 -0.5112 -0.0990 -0.3705
  138MOL0     C18950  12.046  10.889   6.947  0.3469  0.1463  0.0164
  138MOL0    Cl18951  12.181  11.007   6.927  0.1005 -0.1510  0.0534
  138MOL0     C18952  11.117  10.417   6.598  0.9031  0.4047 -0.0728
  138MOL0     C18953  10.983  10.386   6.596  0.3244  0.0106 -0.8207
  138MOL0     O18954  10.737  10.399   6.717  0.1559  0.2280 -0.2391
  138MOL0     C18955  10.545  10.166   6.525  0.0722  0.3439 -0.5905
  138MOL0     C18956  10.419  10.134   6.483  0.5462 -0.2730 -0.0935
  138MOL0     N18957   9.793   9.942   6.120 -0.2477 -0.0399 -0.1596
  138MOL0     N18958   9.788   9.835   6.033 -0.9488 -1.0724  0.0087
  138MOL0     C18959   9.259   9.663   5.060 -0.3443 -0.4698 -0.2233
  138MOL0     C18960   9.247   9.677   4.923  0.0033 -0.0592 -0.4273
  138MOL0     C18961   9.215   9.555   4.486  0.6171  0.6243  0.0759
  138MOL0     C18962   9.228   9.671   4.420 -1.0908  0.5280 -0.1472
  138MOL0     C18963   9.251   9.680   4.288  0.7128 -0.1678  0.3941
  138MOL0     C18964   9.280   9.565   4.213  0.1925  0.7430 -0.2290
  138MOL0     O18965   9.313   9.586   4.085 -0.1833 -0.2535  0.0899
  138MOL0     C18966   9.287   9.477   3.996  0.2342  0.5297  0.4166
  138MOL0     C18967   9.138   9.430   3.994 -0.9540 -0.5417  0.0606
  138MOL0     C18968   9.043   9.544   3.966  0.3854  0.3865  0.2068
  138MOL0     C18969   8.896   9.485   3.965  0.1449 -0.6931  0.5372
  138MOL0     C18970   8.808   9.602   3.963  0.1832  0.3643  0.4698
  138MOL0     C18971   8.742   9.699   3.961  0.1996 -0.8738 -0.1576
  138MOL0     C18972   9.278   9.446   4.278  0.2095  0.7581  0.1641
  138MOL0     C18973   9.257   9.438   4.413 -0.0014  0.7256 -0.6529
  138MOL0     C18974   9.254   9.300   4.479  0.1071  0.9942 -0.9057
  138MOL0     H18975   9.240   9.356   4.823  2.8781  0.5220 -1.3749
  138MOL0     H18976   9.242   9.324   5.069 -0.2754 -1.0213 -0.8757
  138MOL0     H18977   9.421   9.371   5.235 -1.6530 -3.3420 -1.5343
  138MOL0     H18978   9.276   9.294   5.282  1.5030 -1.3170  1.0908
  138MOL0     H18979   9.400   9.521   5.454  4.0323 -1.3158 -0.7516
  138MOL0     H18980   9.292   9.385   5.513  0.0180 -1.3680 -0.1676
  138MOL0     H18981   9.476   9.292   5.584  0.1751  1.6925  0.4285
  138MOL0     H18982   9.529   9.262   5.417  3.1924  1.8307 -0.7844
  138MOL0     H18983   9.700   9.345   5.522  0.2741 -0.0254  1.6608
  138MOL0     H18984   9.642   9.481   5.428 -1.1672 -1.6723 -2.1978
  138MOL0     H18985   9.626   9.456   5.721 -1.7386 -1.8747 -0.6508
  138MOL0     H18986   9.515   9.568   5.640 -0.0826 -1.0090 -1.4206
  138MOL0     H18987   9.797   9.566   5.561 -0.6737 -0.1967 -0.1501
  138MOL0     H18988   9.687   9.700   5.559  0.5170  2.0302  1.4879
  138MOL0     H18989   9.791   9.605   5.841 -0.9236  2.0617  2.7569
  138MOL0     H18990   9.658   9.710   5.810  0.8607 -1.9537  3.3505
  138MOL0     H18991   9.957   9.773   5.759  1.2877  2.5787  2.5646
  138MOL0     H18992   9.823   9.868   5.698  0.0548 -1.3757 -1.4240
  138MOL0     H18993   9.967  10.042   5.853 -2.3832  2.4995 -0.2955
  138MOL0     H18994   9.832  10.216   6.167 -0.2905 -3.8607  0.9355
  138MOL0     H18995   9.911  10.249   6.008 -2.2460 -0.4881 -1.2459
  138MOL0     H18996  10.121  10.138   6.112  0.9038 -1.2462  2.2315
  138MOL0     H18997  10.058  10.282   6.197 -0.6776 -0.0436  1.1982
  138MOL0     H18998   9.946  10.109   6.360  0.9190 -1.8410  2.8246
  138MOL0     H18999  10.007   9.981   6.251 -3.1629  0.6561 -0.4182
  138MOL0     H19000  10.153   9.987   6.427 -1.8351 -1.1583 -2.2216
  138MOL0     H19001  10.244  10.065   6.305  0.6859 -1.4003 -0.6768
  138MOL0     H19002  10.259  10.402   6.615 -0.0469 -0.0916  0.2186
  138MOL0     H19003  10.541  10.546   6.598  1.9624 -0.2341  0.8831
  138MOL0     H19004  10.533  10.521   6.771 -1.4426 -0.3971  1.8819
  138MOL0     H19005  10.381  10.555   6.686 -0.4796 -1.9271  3.1353
  138MOL0     H19006  11.016  10.057   6.673  0.6479 -0.0573 -2.9206
  138MOL0     H19007  11.257  10.136   6.720  0.7585  0.6902 -0.3571
  138MOL0     H19008  11.362  10.542   6.573 -0.8919  3.0860  2.0418
  138MOL0     H19009  11.380  10.518   6.754 -1.1905 -0.5221 -0.0334
  138MOL0     H19010  11.605  10.386   6.686  0.4398 -0.8032 -1.7980
  138MOL0     H19011  11.587  10.432   6.538  0.4774 -2.1378  2.4522
  138MOL0     H19012  11.621  10.620   6.774  0.2943  2.5581  0.5075
  138MOL0     H19013  11.560  10.681   6.620 -0.5500 -1.0028 -0.2158
  138MOL0     H19014  11.792  10.579   6.521  1.6915  0.6264  0.2668
  138MOL0     H19015  11.825  10.517   6.681  1.4939  0.1388  0.8329
  138MOL0     H19016  11.954  10.699   6.591  1.8927  0.6982  1.6578
  138MOL0     H19017  11.823  10.816   6.625 -0.4244  0.5396  2.5503
  138MOL0     H19018  11.912  10.646   6.855 -0.3068  1.9387  2.8586
  138MOL0     H19019  11.820  10.790   6.864  2.0526  4.0995  0.3678
  138MOL0     H19020  12.005  10.912   6.733 -1.7464 -2.0105 -2.4121
  138MOL0     H19021  12.102  10.770   6.783  1.3019  1.0225  2.7683
  138MOL0     H19022  12.075  10.802   7.007  0.3595  2.2272  3.2478
  138MOL0     H19023  11.958  10.944   6.981  0.0362 -1.3664  1.8374
  138MOL0     H19024  11.149  10.515   6.564  0.9618 -0.1647 -1.7582
  138MOL0     H19025  10.912  10.459   6.560  2.2079  2.6603  0.4875
  138MOL0     H19026  10.614  10.084   6.506  1.4368  0.8881  1.6078
  138MOL0     H19027  10.404  10.051   6.414  0.4847 -1.3425  1.1642
  138MOL0     H19028   9.263   9.753   5.121  4.7332 -1.4274  1.3572
  138MOL0     H19029   9.237   9.779   4.888 -1.8223 -0.6694 -1.8027
  138MOL0     H19030   9.222   9.751   4.492 -0.0550 -0.3642  0.9791
  138MOL0     H19031   9.247   9.782   4.252 -2.3039 -0.2429  0.2681
  138MOL0     H19032   9.316   9.498   3.892 -4.0670  1.0665 -0.8855
  138MOL0     H19033   9.345   9.390   4.026 -2.8491 -1.0395  2.3060
  138MOL0     H19034   9.124   9.385   4.092  2.5458  0.7258  1.2973
  138MOL0     H19035   9.127   9.352   3.917  1.0940  0.3784 -1.2555
  138MOL0     H19036   9.051   9.617   4.046  1.6789 -1.3579  1.7526
  138MOL0     H19037   9.060   9.579   3.864 -0.0810  1.5649  0.5247
  138MOL0     H19038   8.893   9.437   4.063  2.9323  2.1420  2.2072
  138MOL0     H19039   8.876   9.424   3.877  0.2626 -0.9252  0.6734
  138MOL0     H19040   8.662   9.769   3.951  0.2392 -0.9419 -0.9839
  138MOL0     H19041   9.295   9.349   4.231 -0.3573 -0.2861  1.9965
  138MOL0     H19042   9.359   9.268   4.488 -0.5080 -0.5780  2.2899
  138MOL0     H19043   9.215   9.282   4.580  1.1129 -0.2356 -0.7045
  138MOL0     H19044   9.220   9.233   4.400  3.7145 -4.0906  1.2419
  139MOL0     O19045   9.657   8.477  10.547 -0.3443  0.2446  0.2090
  139MOL0     C19046   9.625   8.511  10.663 -0.7035 -0.1613 -0.2022
  139MOL0     O19047   9.706   8.567  10.751  0.2821 -0.2151 -0.3530
  139MOL0     C19048   9.843   8.557  10.726  0.9549  0.5020 -0.6945
  139MOL0     C19049   9.931   8.454  10.769  0.4476  0.1730  0.7677
  139MOL0     C19050  10.066   8.450  10.745 -0.2300 -0.1532  0.4476
  139MOL0     C19051  10.123   8.551  10.659 -0.3562  0.9686 -0.6862
  139MOL0     O19052  10.254   8.532  10.623  0.7304 -0.6033 -0.3708
  139MOL0     C19053  10.338   8.634  10.573  0.6614 -1.2550  0.5698
  139MOL0     C19054  10.448   8.572  10.486  0.0840  0.4474 -0.9998
  139MOL0     C19055  10.566   8.664  10.449  1.0592  0.0765  0.1526
  139MOL0     C19056  10.654   8.596  10.349  1.3316 -0.1425  0.2739
  139MOL0     C19057  10.767   8.688  10.299  0.5051  0.2739 -0.7199
  139MOL0     C19058  10.817   8.636  10.159 -0.0268  0.0189 -0.1848
  139MOL0     C19059  10.945   8.719  10.120  0.8193  0.2192  0.4035
  139MOL0     C19060  10.928   8.866  10.128  0.4256 -0.3859  0.2731
  139MOL0     N19061  11.031   8.934  10.052 -0.3691 -0.8318 -0.5045
  139MOL0     C19062  11.018   9.022   9.940  0.2178  0.4905  0.0674
  139MOL0     C19063  11.143   9.046   9.900 -0.0413 -1.0170 -0.7576
  139MOL0     C19064  11.186   9.125   9.779 -0.9512  0.0254  0.2495
  139MOL0     C19065  11.330   9.085   9.741 -0.0065 -0.1059  0.6255
  139MOL0     C19066  11.382   9.148   9.606 -0.1206  0.6065  0.0320
  139MOL0     C19067  11.501   9.085   9.556 -0.4766 -0.0869  0.6111
  139MOL0     O19068  11.531   9.136   9.428 -0.0779  0.1244  0.0823
  139MOL0     C19069  11.645   9.211   9.418  0.3893 -0.6666 -0.2607
  139MOL0     C19070  11.660   9.274   9.294  0.3401 -0.3847 -0.4056
  139MOL0     C19071  11.775   9.350   9.260  0.8901 -0.4243 -0.1799
  139MOL0     C19072  11.789   9.401   9.112  0.3307 -0.0923 -0.1648
  139MOL0     C19073  11.874   9.372   9.361 -0.3306 -0.2914 -0.3485
  139MOL0     C19074  11.991   9.474   9.345 -0.0741  0.5037 -0.5269
  139MOL0     O19075  12.098   9.450   9.429 -0.3391 -0.6495  0.5005
  139MOL0     C19076  12.224   9.501   9.399  0.8785 -0.8562  0.1379
  139MOL0     C19077  12.304   9.491   9.510 -0.4836  0.1218  0.2155
  139MOL0     C19078  12.435   9.548   9.499  0.4022 -0.7976 -0.3229
  139MOL0     C19079  12.491   9.603   9.383  0.8774 -0.2784 -0.5494
  139MOL0     O19080  12.604   9.683   9.380 -0.8376 -0.2767 -0.5546
  139MOL0     C19081  12.701   9.681   9.494 -0.9451 -0.4112  1.1320
  139MOL0     C19082  12.788   9.559   9.495 -1.2264  0.1050  0.1107
  139MOL0     C19083  12.906   9.569   9.592 -0.4106  0.4898  0.2476
  139MOL0     C19084  13.034   9.551   9.508  0.4022  0.7124 -0.2061
  139MOL0     C19085  13.157   9.589   9.583 -0.8061  0.4820 -0.0487
  139MOL0     C19086  13.271   9.582   9.487  0.4044  1.0571 -0.2759
  139MOL0     C19087  13.400   9.641   9.539  1.0051  1.2743  0.8109
  139MOL0     C19088  13.502   9.641   9.430  0.3672  0.4781  0.2771
  139MOL0    Cl19089  13.560   9.465   9.386 -0.1580 -0.4421  0.5558
  139MOL0     C19090  12.411   9.597   9.271  0.2463  0.3922 -0.7450
  139MOL0     C19091  12.277   9.544   9.273 -0.1105  0.5609 -0.2386
  139MOL0     O19092  11.958   9.581   9.293  0.1217  0.7988  0.4847
  139MOL0     C19093  11.862   9.307   9.476  0.6487  0.2712 -0.1878
  139MOL0     C19094  11.747   9.236   9.512 -0.3590  0.3758  0.4568
  139MOL0     N19095  11.222   9.009  10.008 -0.3148  1.0635 -0.0688
  139MOL0     N19096  11.162   8.941  10.100 -0.1640  0.3242 -1.2165
  139MOL0     C19097  10.036   8.656  10.620 -0.2997  0.2356  0.1671
  139MOL0     C19098   9.905   8.664  10.664 -0.0783  0.5260 -0.4990
  139MOL0     C19099   9.495   8.461  10.715  0.2049 -1.3691  0.6178
  139MOL0     C19100   9.459   8.326  10.692 -0.1470 -0.2174 -0.2530
  139MOL0     C19101   9.349   8.264  10.744 -0.5011  0.8781 -0.5851
  139MOL0     C19102   9.264   8.341  10.828  0.7629  0.2888  1.1612
  139MOL0     O19103   9.141   8.284  10.862  0.1366 -0.1692  0.5464
  139MOL0     C19104   9.137   8.151  10.899 -0.0103  0.4230 -0.5356
  139MOL0     C19105   9.056   8.134  11.030 -0.0182  0.2735  0.3248
  139MOL0     C19106   9.136   8.176  11.154 -0.7115 -0.0565  0.7393
  139MOL0     C19107   9.061   8.186  11.289  0.2199 -0.0867 -0.2184
  139MOL0     C19108   8.969   8.068  11.324  0.0628  0.2792  0.4617
  139MOL0     C19109   8.915   7.967  11.349 -0.6309 -0.3424 -0.2075
  139MOL0     C19110   9.294   8.475  10.848  0.0091  0.9781  0.2807
  139MOL0     C19111   9.402   8.539  10.789 -0.0258 -0.5731 -0.1673
  139MOL0     C19112   9.431   8.682  10.823 -0.8824 -1.2087 -0.0138
  139MOL0     H19113   9.871   8.373  10.811 -1.3582  2.2128  2.3796
  139MOL0     H19114  10.126   8.366  10.778 -1.8258 -0.7185  2.0565
  139MOL0     H19115  10.383   8.686  10.658  2.4815  2.2979 -2.2682
  139MOL0     H19116  10.291   8.705  10.505  0.2058 -0.5609  1.5952
  139MOL0     H19117  10.479   8.487  10.547 -0.0592 -0.5427 -2.2458
  139MOL0     H19118  10.400   8.528  10.398 -0.4892 -0.9615 -0.0273
  139MOL0     H19119  10.538   8.762  10.407  0.9402 -0.1712 -0.3476
  139MOL0     H19120  10.627   8.694  10.534 -0.2206 -1.2334  1.5891
  139MOL0     H19121  10.698   8.506  10.392 -1.6347 -1.8772 -0.0513
  139MOL0     H19122  10.590   8.581  10.262 -0.7477 -0.6846  1.8207
  139MOL0     H19123  10.848   8.688  10.371 -0.6988 -0.5476  0.6945
  139MOL0     H19124  10.719   8.785  10.280 -0.0039 -0.1768 -1.8445
  139MOL0     H19125  10.857   8.535  10.165  2.5761  1.0378  1.7747
  139MOL0     H19126  10.737   8.645  10.085  0.9051  0.6478 -1.1533
  139MOL0     H19127  10.967   8.700  10.014 -0.7547  2.1010 -0.3375
  139MOL0     H19128  11.027   8.694  10.188  0.8193  0.3902  0.4669
  139MOL0     H19129  10.826   8.890  10.095  0.5147  0.5542  0.6305
  139MOL0     H19130  10.942   8.902  10.230  0.1783  3.6050 -0.9049
  139MOL0     H19131  10.923   9.047   9.893 -0.4973  1.8939  2.1039
  139MOL0     H19132  11.182   9.231   9.805 -2.4590  0.6164 -2.0917
  139MOL0     H19133  11.119   9.108   9.694  0.2735 -1.3381 -0.4787
  139MOL0     H19134  11.406   9.099   9.818  0.9867 -2.0995  0.0640
  139MOL0     H19135  11.329   8.977   9.727 -3.3547 -0.4200  2.3923
  139MOL0     H19136  11.306   9.131   9.528 -0.2433  0.2879  0.2204
  139MOL0     H19137  11.392   9.256   9.620 -1.0155  0.5333  1.4308
  139MOL0     H19138  11.579   9.106   9.629  0.3262  0.5440 -0.3907
  139MOL0     H19139  11.493   8.976   9.560 -2.5259  0.0351  0.9172
  139MOL0     H19140  11.594   9.251   9.212  0.9812  0.7217 -1.2618
  139MOL0     H19141  11.890   9.437   9.089  0.2597 -0.1936 -0.6439
  139MOL0     H19142  11.717   9.483   9.104 -0.4989 -0.9240 -1.6323
  139MOL0     H19143  11.753   9.330   9.037 -1.8019 -0.9339  1.5714
  139MOL0     H19144  12.263   9.458   9.606  0.9526  0.7560  1.0815
  139MOL0     H19145  12.500   9.530   9.583 -0.6445 -1.8746  0.2866
  139MOL0     H19146  12.761   9.770   9.479 -0.2356 -0.9366  0.7963
  139MOL0     H19147  12.656   9.699   9.592 -0.8107  1.0801  0.9289
  139MOL0     H19148  12.739   9.468   9.528 -0.5847  0.4550  2.1657
  139MOL0     H19149  12.813   9.535   9.391  2.5236  0.8692  0.6686
  139MOL0     H19150  12.899   9.494   9.671 -2.2435  0.7023  0.3150
  139MOL0     H19151  12.924   9.669   9.634 -0.0733  2.4019 -3.9252
  139MOL0     H19152  13.026   9.622   9.425 -2.5949 -3.4433 -3.9151
  139MOL0     H19153  13.049   9.450   9.469  0.9859  0.6163  0.2453
  139MOL0     H19154  13.144   9.694   9.611 -0.0603  0.4748  0.3376
  139MOL0     H19155  13.184   9.533   9.672 -0.0246  0.6095 -0.2042
  139MOL0     H19156  13.243   9.623   9.389  0.8407  0.4121 -0.6718
  139MOL0     H19157  13.281   9.474   9.478 -1.5484  0.8107 -0.0064
  139MOL0     H19158  13.426   9.574   9.622 -0.1656  0.4572  0.5504
  139MOL0     H19159  13.388   9.743   9.577 -1.4313  1.1426  0.5993
  139MOL0     H19160  13.587   9.703   9.461  1.2051 -1.1706  1.4873
  139MOL0     H19161  13.462   9.684   9.338  1.7391 -3.0570 -2.1905
  139MOL0     H19162  12.453   9.644   9.182 -2.7849  1.8482 -1.5198
  139MOL0     H19163  12.219   9.550   9.181 -0.9554  1.3806  0.3260
  139MOL0     H19164  11.943   9.314   9.547 -2.1864  0.6737  3.2473
  139MOL0     H19165  11.757   9.180   9.605  1.6150  1.5907  1.0446
  139MOL0     H19166  10.077   8.740  10.566 -0.4985  0.3781  0.2412
  139MOL0     H19167   9.845   8.753  10.651  0.8470  1.4725  1.3072
  139MOL0     H19168   9.529   8.263  10.637  1.4425  0.9902  0.2909
  139MOL0     H19169   9.335   8.160  10.716  0.4243  0.1421  1.5103
  139MOL0     H19170   9.104   8.092  10.813 -1.3605 -2.9534  2.0600
  139MOL0     H19171   9.233   8.112  10.933  1.2755  2.1924 -1.9556
  139MOL0     H19172   9.032   8.029  11.046  0.5232  0.0156 -0.4864
  139MOL0     H19173   8.958   8.182  11.024  1.1702  3.1568  1.8853
  139MOL0     H19174   9.214   8.100  11.163  1.7901  2.2581 -0.1064
  139MOL0     H19175   9.181   8.273  11.135  1.6534 -1.1769  0.2490
  139MOL0     H19176   9.010   8.281  11.272  0.3296 -0.5303 -3.9367
  139MOL0     H19177   9.137   8.192  11.367  0.4114 -0.1247 -0.4016
  139MOL0     H19178   8.868   7.878  11.382 -4.0295  0.6768 -1.8706
  139MOL0     H19179   9.235   8.531  10.920 -0.0186  1.0755  0.1802
  139MOL0     H19180   9.353   8.752  10.852 -0.6636 -1.2339  0.6683
  139MOL0     H19181   9.491   8.673  10.915 -5.1839  3.1309  3.7861
  139MOL0     H19182   9.498   8.726  10.749 -1.4987 -0.4114 -0.1092
  140MOL0     O19183   4.772   0.182  10.243 -0.4494 -0.5083  0.4134
  140MOL0     C19184   4.679   0.166  10.170  0.6281 -0.3086  0.6264
  140MOL0     O19185   4.646   0.247  10.064 -0.0068 -0.6501  0.7233
  140MOL0     C19186   4.741   0.345  10.032 -0.1698 -0.8900  0.2789
  140MOL0     C19187   4.722   0.482  10.080  0.2194  0.1323  0.2707
  140MOL0     C19188   4.802   0.585  10.031 -0.5619 -0.2075 -0.0644
  140MOL0     C19189   4.896   0.555   9.937 -0.6700  0.2581  0.5541
  140MOL0     O19190   4.978   0.649   9.891  0.1226 -0.1155  0.2409
  140MOL0     C19191   4.983   0.682   9.749 -0.2508  0.5527  0.6121
  140MOL0     C19192   5.076   0.797   9.722 -0.6275 -0.3197  0.1240
  140MOL0     C19193   5.215   0.791   9.783 -0.2375 -0.8596  0.2969
  140MOL0     C19194   5.302   0.913   9.753 -0.8993  0.0111 -0.3498
  140MOL0     C19195   5.305   0.961   9.613  0.0162 -0.1395  0.6294
  140MOL0     C19196   5.393   1.088   9.609  0.2436 -0.3083 -0.6899
  140MOL0     C19197   5.409   1.128   9.462 -0.5361 -0.5614  0.5990
  140MOL0     C19198   5.492   1.265   9.456  0.3251  0.0250  0.7019
  140MOL0     N19199   5.637   1.249   9.426 -0.5285 -1.1032  0.5051
  140MOL0     C19200   5.700   1.208   9.314  0.1228 -0.0956 -0.1416
  140MOL0     C19201   5.829   1.220   9.336 -1.0851 -0.1044  0.9479
  140MOL0     C19202   5.932   1.177   9.230 -0.1122 -0.5592 -0.3401
  140MOL0     C19203   5.990   1.292   9.150 -0.1859  0.1829  0.5677
  140MOL0     C19204   6.052   1.259   9.008 -1.0450 -0.4889 -0.2801
  140MOL0     C19205   6.161   1.157   9.013  0.1325 -0.5944 -0.5015
  140MOL0     O19206   6.258   1.187   9.114  0.0048 -0.7597  0.1710
  140MOL0     C19207   6.334   1.297   9.086 -0.0672  0.4578  0.6834
  140MOL0     C19208   6.369   1.364   8.964 -0.4163  0.4247  0.3560
  140MOL0     C19209   6.446   1.481   8.956  0.4369  0.3381  0.4663
  140MOL0     C19210   6.471   1.534   8.826  0.7816 -0.5560  0.6668
  140MOL0     C19211   6.501   1.538   9.076 -0.4966  0.3831  0.4476
  140MOL0     C19212   6.591   1.653   9.072  0.1950 -0.3588  0.3075
  140MOL0     O19213   6.582   1.732   9.177 -0.3584 -0.0345 -0.6995
  140MOL0     C19214   6.671   1.828   9.201 -0.2486 -0.1989  0.1867
  140MOL0     C19215   6.680   1.945   9.120 -0.0045 -0.4997  0.2680
  140MOL0     C19216   6.774   2.044   9.159 -0.4805  0.5326 -0.7048
  140MOL0     C19217   6.847   2.034   9.280 -0.5605 -0.5266 -0.0188
  140MOL0     O19218   6.938   2.130   9.322  0.2982 -0.4947  0.4896
  140MOL0     C19219   6.975   2.237   9.235 -0.3306 -0.0248  0.3529
  140MOL0     C19220   7.057   2.344   9.303  0.2379  0.7839 -0.3267
  140MOL0     C19221   7.195   2.290   9.337  0.3755  0.2638  0.0618
  140MOL0     C19222   7.285   2.412   9.347  0.5004  0.0627  0.7267
  140MOL0     C19223   7.435   2.380   9.378  0.5938  0.2404  0.5607
  140MOL0     C19224   7.538   2.369   9.267  0.3268 -0.0406  0.7785
  140MOL0     C19225   7.506   2.261   9.157  0.2695  0.5757 -0.3931
  140MOL0     C19226   7.613   2.244   9.056 -0.0306  0.0638  0.8760
  140MOL0    Cl19227   7.574   2.177   8.896 -0.1147 -1.0857  0.2459
  140MOL0     C19228   6.823   1.922   9.354  0.8691  0.2213 -0.0316
  140MOL0     C19229   6.743   1.820   9.312  0.2358  0.3431  0.0170
  140MOL0     O19230   6.676   1.662   8.984 -0.2649 -0.4300  0.0057
  140MOL0     C19231   6.472   1.472   9.199 -0.5773  0.2030  0.8956
  140MOL0     C19232   6.390   1.356   9.203  0.3077  0.6799  0.1892
  140MOL0     N19233   5.851   1.292   9.453 -0.4109  0.7765 -0.0460
  140MOL0     N19234   5.734   1.295   9.512  0.2640  0.2598  0.3021
  140MOL0     C19235   4.909   0.427   9.881 -0.2365 -0.4257 -0.6705
  140MOL0     C19236   4.839   0.321   9.933 -0.2574 -0.2799 -0.4730
  140MOL0     C19237   4.589   0.048  10.184 -0.6562  0.6034 -0.8685
  140MOL0     C19238   4.649  -0.060  10.254 -0.7086 -0.0207  0.4014
  140MOL0     C19239   4.586  -0.181  10.261  1.0854  0.1007  0.6873
  140MOL0     C19240   4.474  -0.204  10.183  0.3968 -0.4623  0.5284
  140MOL0     O19241   4.425  -0.332  10.195 -0.7765 -0.0798 -0.2344
  140MOL0     C19242   4.446  -0.411  10.073  0.3183 -0.4767 -0.5303
  140MOL0     C19243   4.426  -0.563  10.099  1.0088  0.2903 -0.1441
  140MOL0     C19244   4.522  -0.619  10.199  0.1702 -0.4362  0.2160
  140MOL0     C19245   4.541  -0.772  10.179 -0.9870 -0.4443 -0.3525
  140MOL0     C19246   4.636  -0.792  10.072  0.1962  0.7099 -0.8371
  140MOL0     C19247   4.701  -0.796   9.972  0.0384 -1.3820  0.0649
  140MOL0     C19248   4.414  -0.097  10.117  1.0191  0.5327  0.2113
  140MOL0     C19249   4.460   0.035  10.125  0.2348 -0.3414  0.2867
  140MOL0     C19250   4.383   0.151  10.063 -0.2333 -0.0574  0.2169
  140MOL0     H19251   4.641   0.518  10.142 -0.6509  1.6515 -1.6792
  140MOL0     H19252   4.797   0.692  10.046  1.5315  0.2516 -2.0379
  140MOL0     H19253   4.886   0.698   9.700  0.9274 -1.0257 -2.4894
  140MOL0     H19254   5.029   0.599   9.694 -0.0439  0.7100  0.5486
  140MOL0     H19255   5.071   0.821   9.616 -2.0131  0.7964  0.4158
  140MOL0     H19256   5.023   0.884   9.763  2.5193  2.2547 -0.8069
  140MOL0     H19257   5.200   0.785   9.891  0.3716  0.7167  0.4866
  140MOL0     H19258   5.263   0.698   9.750 -0.6212 -1.0299  0.2105
  140MOL0     H19259   5.251   0.994   9.806 -1.1839 -0.7036  0.5043
  140MOL0     H19260   5.402   0.886   9.788 -0.8228  0.5998 -0.1006
  140MOL0     H19261   5.201   0.976   9.582 -0.6830 -1.0313  2.3925
  140MOL0     H19262   5.353   0.884   9.554 -0.2665  0.3805 -0.3023
  140MOL0     H19263   5.345   1.169   9.665  0.4902 -0.3234 -0.4532
  140MOL0     H19264   5.488   1.060   9.657  1.1453  1.6197 -1.2358
  140MOL0     H19265   5.316   1.152   9.409  1.1785  0.6415 -2.0736
  140MOL0     H19266   5.468   1.056   9.405  1.7014  0.5669  1.3524
  140MOL0     H19267   5.466   1.318   9.364  0.8350 -2.4672 -0.9650
  140MOL0     H19268   5.467   1.322   9.546  0.5074 -0.8513  1.3248
  140MOL0     H19269   5.657   1.169   9.222  1.4977  1.1877 -1.3665
  140MOL0     H19270   5.882   1.109   9.160 -2.8792 -0.9697  1.8562
  140MOL0     H19271   6.010   1.123   9.285 -2.1088  0.6214  4.0886
  140MOL0     H19272   5.901   1.353   9.132 -0.1645 -0.5296 -2.5761
  140MOL0     H19273   6.062   1.352   9.207  0.5735 -0.7327  0.6089
  140MOL0     H19274   5.978   1.225   8.936 -2.2164  0.3642  0.4725
  140MOL0     H19275   6.088   1.357   8.976  0.4001 -0.0163  2.4660
  140MOL0     H19276   6.116   1.060   9.035  0.5617 -0.5107  0.8117
  140MOL0     H19277   6.207   1.156   8.913  0.4779  2.4852 -0.4880
  140MOL0     H19278   6.327   1.318   8.875  1.5799 -0.7817 -0.0209
  140MOL0     H19279   6.473   1.643   8.831 -0.4606 -0.3532 -1.8633
  140MOL0     H19280   6.394   1.508   8.753  0.4565 -2.2152  1.5466
  140MOL0     H19281   6.572   1.504   8.795  1.1335  1.9626 -0.8343
  140MOL0     H19282   6.629   1.951   9.024 -0.1820  0.7513  0.4236
  140MOL0     H19283   6.787   2.120   9.083 -2.0556  0.3360 -1.2034
  140MOL0     H19284   7.031   2.209   9.146 -0.3482  0.5525  0.1561
  140MOL0     H19285   6.886   2.291   9.199 -0.1490  1.7475  2.3186
  140MOL0     H19286   7.057   2.437   9.246  0.4759  2.4123  2.1810
  140MOL0     H19287   7.007   2.382   9.392 -1.6334 -0.0048 -0.9907
  140MOL0     H19288   7.231   2.223   9.259 -0.5607 -0.1258 -0.0516
  140MOL0     H19289   7.194   2.226   9.426 -1.3802 -0.3981 -0.3998
  140MOL0     H19290   7.248   2.470   9.432 -4.9934 -0.4267 -0.9413
  140MOL0     H19291   7.272   2.472   9.256 -2.7455 -3.3389 -1.3843
  140MOL0     H19292   7.471   2.456   9.448  0.0931  0.2263  0.8338
  140MOL0     H19293   7.423   2.286   9.432  3.0831 -1.7308 -2.0514
  140MOL0     H19294   7.636   2.343   9.308 -0.6865 -0.5863  3.0058
  140MOL0     H19295   7.551   2.466   9.218  3.7971  0.2236  1.9062
  140MOL0     H19296   7.406   2.282   9.116  0.2598 -0.8679 -1.1716
  140MOL0     H19297   7.497   2.166   9.211  0.1837  0.0065 -1.3755
  140MOL0     H19298   7.700   2.190   9.096  1.1599 -1.2609 -3.0503
  140MOL0     H19299   7.649   2.343   9.026 -0.9107  0.0033 -0.4771
  140MOL0     H19300   6.881   1.910   9.445  0.9235 -0.3103 -0.1299
  140MOL0     H19301   6.733   1.732   9.375 -2.2305 -1.9234 -3.1983
  140MOL0     H19302   6.518   1.512   9.289 -0.3692  2.0169  0.0235
  140MOL0     H19303   6.369   1.309   9.299  1.8465 -2.8426 -1.0121
  140MOL0     H19304   4.986   0.407   9.807  3.6661  1.8057  2.3900
  140MOL0     H19305   4.855   0.221   9.895  1.0372 -0.4751  0.4968
  140MOL0     H19306   4.744  -0.052  10.305  0.2402 -0.0523 -1.2774
  140MOL0     H19307   4.623  -0.274  10.305 -0.7478 -0.5600  0.9014
  140MOL0     H19308   4.377  -0.371   9.998 -1.5066  0.3925  1.4783
  140MOL0     H19309   4.546  -0.396  10.030  2.1646 -0.4362  3.2741
  140MOL0     H19310   4.446  -0.612  10.004  0.2355 -0.3029 -0.0084
  140MOL0     H19311   4.322  -0.582  10.127  1.3614 -1.1336  0.2680
  140MOL0     H19312   4.618  -0.569  10.182 -1.4376  2.9508  0.3146
  140MOL0     H19313   4.490  -0.585  10.298 -0.7284  0.3431 -0.3237
  140MOL0     H19314   4.445  -0.819  10.158 -0.8670  0.2633 -2.8170
  140MOL0     H19315   4.580  -0.806  10.276  2.5745  0.1977 -1.4292
  140MOL0     H19316   4.749  -0.798   9.877  1.1432  0.2044  0.5518
  140MOL0     H19317   4.324  -0.116  10.060  3.7673 -2.1907 -3.7326
  140MOL0     H19318   4.277   0.130  10.049 -0.0416 -0.1436 -1.2278
  140MOL0     H19319   4.398   0.238  10.128  0.1474 -2.7769  4.0796
  140MOL0     H19320   4.417   0.173   9.961 -0.0943 -0.2590  0.2180
  141MOL0     O19321   3.038  10.420   4.405  1.0643  0.1718 -0.2990
  141MOL0     C19322   3.035  10.302   4.369 -0.3463  0.0248 -0.1022
  141MOL0     O19323   3.013  10.197   4.453 -0.2550  0.8978  1.0686
  141MOL0     C19324   2.966  10.215   4.581  0.3040  0.0465  1.3559
  141MOL0     C19325   2.871  10.117   4.622 -0.8941 -0.6224 -0.2030
  141MOL0     C19326   2.797  10.132   4.746 -0.0271  0.1005  0.7089
  141MOL0     C19327   2.833  10.230   4.841 -0.3070 -0.3399 -0.8189
  141MOL0     O19328   2.771  10.261   4.962 -0.2367 -0.4786  0.2308
  141MOL0     C19329   2.669  10.178   5.007  0.1413 -0.4163  0.0992
  141MOL0     C19330   2.719  10.040   5.057  0.2991 -0.5788 -0.2119
  141MOL0     C19331   2.830  10.061   5.159  0.3506 -0.3611 -0.0337
  141MOL0     C19332   2.848   9.929   5.245 -0.4269 -1.4366 -0.7216
  141MOL0     C19333   2.995   9.924   5.293 -0.2828 -0.0529 -0.7741
  141MOL0     C19334   3.102   9.917   5.197  0.9946 -0.0800 -0.1514
  141MOL0     C19335   3.242   9.881   5.255  0.3846 -0.7286 -0.3743
  141MOL0     C19336   3.297  10.002   5.332  0.8515  0.1136  0.2176
  141MOL0     N19337   3.441  10.020   5.312  0.5119 -0.4952 -0.1897
  141MOL0     C19338   3.501  10.126   5.244  0.2773 -0.7085 -0.3668
  141MOL0     C19339   3.628  10.127   5.299  0.4253 -0.7631 -0.8190
  141MOL0     C19340   3.740  10.216   5.263 -1.1290 -0.4158 -0.0931
  141MOL0     C19341   3.719  10.345   5.181  0.1122 -0.0453  0.5736
  141MOL0     C19342   3.604  10.441   5.231  0.3965  1.0364  0.4245
  141MOL0     C19343   3.601  10.475   5.389 -0.3160  0.3389  0.1618
  141MOL0     O19344   3.492  10.562   5.420  0.2509  0.5980 -0.8288
  141MOL0     C19345   3.368  10.523   5.451 -0.3226 -0.1459 -0.4727
  141MOL0     C19346   3.259  10.605   5.427 -0.0236  0.2539 -0.2490
  141MOL0     C19347   3.127  10.549   5.436  0.8026  0.5092 -0.3938
  141MOL0     C19348   3.016  10.647   5.392 -0.5967 -0.8924  0.4110
  141MOL0     C19349   3.107  10.416   5.470  0.3009 -0.5876  0.1158
  141MOL0     C19350   2.972  10.348   5.477  0.5982  0.3983  0.2941
  141MOL0     O19351   2.970  10.209   5.483  0.3445 -0.1532 -0.0953
  141MOL0     C19352   2.849  10.158   5.528  0.0254  0.3388 -0.3009
  141MOL0     C19353   2.718  10.171   5.480  0.4027 -0.5005 -0.5661
  141MOL0     C19354   2.608  10.117   5.556 -0.8866  0.0241  0.0494
  141MOL0     C19355   2.637  10.044   5.679 -0.0309  0.3080  0.1123
  141MOL0     O19356   2.531   9.987   5.736  0.5511 -0.1035 -0.1137
  141MOL0     C19357   2.541   9.882   5.837 -0.1163 -0.2737  0.3926
  141MOL0     C19358   2.402   9.877   5.911 -0.1233  0.4401  0.2149
  141MOL0     C19359   2.296   9.789   5.841  1.2563  0.5090  0.2324
  141MOL0     C19360   2.188   9.727   5.938  0.2495  0.1278  0.5240
  141MOL0     C19361   2.219   9.586   5.987 -0.2984 -0.1020 -0.9755
  141MOL0     C19362   2.176   9.476   5.899 -0.4047  0.0200  0.1606
  141MOL0     C19363   2.211   9.334   5.954  0.3882  0.5423  0.2788
  141MOL0     C19364   2.111   9.230   5.898  1.3511 -0.2533 -0.5380
  141MOL0    Cl19365   2.166   9.159   5.741  0.2369  0.0091 -0.3465
  141MOL0     C19366   2.766  10.018   5.717 -1.0687 -1.0587  0.1045
  141MOL0     C19367   2.865  10.078   5.645  0.5045 -0.0649 -0.4457
  141MOL0     O19368   2.870  10.421   5.466 -0.6194 -0.1326  0.3799
  141MOL0     C19369   3.224  10.338   5.485 -1.6785 -0.7267  0.0400
  141MOL0     C19370   3.347  10.392   5.484  0.1492  0.0580 -0.0857
  141MOL0     N19371   3.645  10.009   5.370  0.2396 -1.0130  0.7913
  141MOL0     N19372   3.527   9.954   5.383 -0.5193  0.9616 -0.3991
  141MOL0     C19373   2.937  10.312   4.810 -0.5741  0.1661  0.2858
  141MOL0     C19374   2.997  10.316   4.680  0.0235  0.1906  0.4150
  141MOL0     C19375   3.060  10.268   4.226  0.6483  0.0956 -0.0305
  141MOL0     C19376   3.045  10.135   4.184 -0.1659  0.3297 -0.6437
  141MOL0     C19377   3.053  10.099   4.047  0.7723 -0.4400  0.2411
  141MOL0     C19378   3.102  10.184   3.947 -0.0681  0.2490  0.2592
  141MOL0     O19379   3.133  10.131   3.824  0.6511  0.0423  0.3109
  141MOL0     C19380   3.145  10.222   3.706 -0.9587 -0.3188  0.5720
  141MOL0     C19381   3.060  10.150   3.591 -0.0164  0.8104  0.4492
  141MOL0     C19382   3.136  10.032   3.533 -0.1277 -0.1528 -0.1354
  141MOL0     C19383   3.046   9.917   3.506 -0.7435  0.3988  0.0586
  141MOL0     C19384   2.963   9.953   3.399  0.3117 -0.5139  0.7064
  141MOL0     C19385   2.880   9.990   3.316 -0.3048 -0.7785 -0.6956
  141MOL0     C19386   3.116  10.321   3.980 -0.0440 -0.5080 -0.0810
  141MOL0     C19387   3.099  10.361   4.116 -0.2014  0.0053 -0.2263
  141MOL0     C19388   3.090  10.508   4.132 -0.2277 -0.1673  0.4378
  141MOL0     H19389   2.848  10.032   4.558  3.0620 -1.4974 -0.7490
  141MOL0     H19390   2.715  10.062   4.758  1.0102 -1.2249  0.2658
  141MOL0     H19391   2.588  10.188   4.935 -0.4595  2.0103  0.9793
  141MOL0     H19392   2.614  10.213   5.095 -2.5132  1.5136 -2.1573
  141MOL0     H19393   2.636   9.991   5.109  0.3417 -1.4174 -0.9063
  141MOL0     H19394   2.736   9.972   4.973 -1.0740  1.2631 -2.0676
  141MOL0     H19395   2.927  10.081   5.113  3.0316 -2.2039  4.1550
  141MOL0     H19396   2.803  10.145   5.225  1.1043 -2.3204  2.9833
  141MOL0     H19397   2.799   9.960   5.337 -1.3710 -1.7761 -1.0985
  141MOL0     H19398   2.808   9.834   5.209 -0.3641 -0.9139 -2.2649
  141MOL0     H19399   2.996   9.831   5.350  1.1555  0.0028 -0.6709
  141MOL0     H19400   3.018  10.005   5.363  0.1830 -0.8836  0.0586
  141MOL0     H19401   3.069   9.849   5.118 -1.9087  0.1697  0.7316
  141MOL0     H19402   3.117  10.012   5.144  0.4691 -1.0268 -2.0741
  141MOL0     H19403   3.302   9.847   5.170 -0.2856 -2.7547 -0.0911
  141MOL0     H19404   3.237   9.798   5.326 -0.3320  1.0141  1.7315
  141MOL0     H19405   3.247  10.091   5.293 -1.3588  0.3714  3.2499
  141MOL0     H19406   3.266   9.999   5.436 -2.6025  2.5215 -0.5853
  141MOL0     H19407   3.455  10.200   5.179  1.6208  1.7774  1.3198
  141MOL0     H19408   3.810  10.147   5.214 -0.8860 -0.1882 -0.0692
  141MOL0     H19409   3.783  10.253   5.356 -1.7924 -0.1134  0.0998
  141MOL0     H19410   3.814  10.401   5.188  0.6994 -0.3546 -3.2185
  141MOL0     H19411   3.708  10.309   5.079 -1.3785 -0.6500  0.9330
  141MOL0     H19412   3.609  10.530   5.168 -1.2382  0.7806 -0.1029
  141MOL0     H19413   3.510  10.393   5.203  1.4222  0.0789 -1.5945
  141MOL0     H19414   3.601  10.389   5.456 -0.1267  1.2299  1.3480
  141MOL0     H19415   3.694  10.525   5.420 -0.2971  0.5453 -0.2244
  141MOL0     H19416   3.276  10.706   5.392  2.8084  0.2680  0.9227
  141MOL0     H19417   3.048  10.751   5.385 -0.5343 -0.8269  1.5023
  141MOL0     H19418   2.939  10.650   5.470 -0.0445  2.3253  0.9690
  141MOL0     H19419   2.978  10.616   5.294  0.5719 -2.1283  0.3295
  141MOL0     H19420   2.702  10.241   5.399 -0.1139  2.2642  1.7779
  141MOL0     H19421   2.508  10.112   5.515 -0.5955  0.8320 -0.7725
  141MOL0     H19422   2.577   9.789   5.792  1.3644  0.4905 -0.0939
  141MOL0     H19423   2.609   9.914   5.917  0.2440 -0.8911  0.3357
  141MOL0     H19424   2.423   9.846   6.014  0.6610 -2.4385 -0.7177
  141MOL0     H19425   2.352   9.972   5.929 -2.2319 -1.1636  4.1414
  141MOL0     H19426   2.342   9.704   5.791  3.0271  1.5221  0.0592
  141MOL0     H19427   2.239   9.848   5.768 -0.2769 -2.9105 -1.5232
  141MOL0     H19428   2.090   9.728   5.888 -0.5501 -2.3731  1.8683
  141MOL0     H19429   2.173   9.797   6.020  0.9378  0.5081  0.3266
  141MOL0     H19430   2.327   9.591   6.001 -0.3432  0.9732 -0.8637
  141MOL0     H19431   2.182   9.560   6.087  0.3541  0.4403 -0.5775
  141MOL0     H19432   2.219   9.484   5.799 -0.0737  0.7719  0.3577
  141MOL0     H19433   2.068   9.486   5.884 -0.4575 -0.4131  0.2509
  141MOL0     H19434   2.193   9.337   6.062 -0.5913  0.0740  0.1448
  141MOL0     H19435   2.315   9.315   5.927  1.7327  2.3964  3.5360
  141MOL0     H19436   2.014   9.279   5.886 -0.0188 -2.0548  2.0661
  141MOL0     H19437   2.096   9.147   5.968  0.8402 -0.1972 -0.5768
  141MOL0     H19438   2.795   9.972   5.811  1.0714 -0.3075 -0.1182
  141MOL0     H19439   2.961  10.066   5.695  0.1321 -0.0947  0.2661
  141MOL0     H19440   3.208  10.234   5.513 -0.5833 -1.7277 -2.6284
  141MOL0     H19441   3.429  10.324   5.504  0.8453  0.8905 -0.0502
  141MOL0     H19442   2.978  10.382   4.882  0.3514  1.2987 -1.2908
  141MOL0     H19443   3.064  10.398   4.654 -1.5145  1.2095 -0.5407
  141MOL0     H19444   3.038  10.056   4.258  1.8081 -1.0440 -1.8153
  141MOL0     H19445   3.033   9.993   4.032 -3.2761 -0.0537  1.9024
  141MOL0     H19446   3.095  10.317   3.723 -1.7111 -1.0989  3.1205
  141MOL0     H19447   3.248  10.243   3.678 -0.9617  0.4396  1.1107
  141MOL0     H19448   3.052  10.221   3.508 -0.6154  1.2969  0.9179
  141MOL0     H19449   2.961  10.130   3.632 -0.8460  0.8196 -1.4668
  141MOL0     H19450   3.189  10.057   3.441 -3.8218 -2.9381 -3.3727
  141MOL0     H19451   3.206  10.003   3.612 -1.5304 -2.9174  0.2327
  141MOL0     H19452   2.969   9.902   3.583 -3.9205 -1.0557 -3.1323
  141MOL0     H19453   3.097   9.822   3.487 -1.4967  0.4195 -2.2856
  141MOL0     H19454   2.818  10.014   3.232 -1.5742 -2.9485 -0.4416
  141MOL0     H19455   3.149  10.396   3.910  0.5816  0.8501  1.5849
  141MOL0     H19456   3.153  10.544   4.214 -0.7616  1.9036 -0.0238
  141MOL0     H19457   3.126  10.567   4.047 -0.1545 -0.6008  0.1601
  141MOL0     H19458   2.985  10.532   4.146 -0.7547  0.7201 -3.6747
  142MOL0     O19459   5.952  10.464   1.446  0.5762  0.2235 -0.4254
  142MOL0     C19460   5.873  10.386   1.497  0.4403 -0.3611  0.3286
  142MOL0     O19461   5.871  10.260   1.458 -1.1943 -0.1018 -0.1572
  142MOL0     C19462   5.970  10.228   1.363  1.0319  0.4310 -0.3633
  142MOL0     C19463   6.085  10.167   1.413  0.7153  0.7928 -0.7011
  142MOL0     C19464   6.196  10.150   1.328  1.0326  0.0497 -0.5079
  142MOL0     C19465   6.189  10.191   1.196 -0.0283 -0.8931 -0.5666
  142MOL0     O19466   6.293  10.193   1.112  0.3173 -0.5971 -0.1502
  142MOL0     C19467   6.337  10.057   1.082 -0.0602  0.1363 -0.0803
  142MOL0     C19468   6.486  10.025   1.130 -0.3216 -0.7845  0.5451
  142MOL0     C19469   6.596  10.074   1.030  0.9567  0.5437  0.2785
  142MOL0     C19470   6.736  10.046   1.084 -0.0724  1.0923 -0.1479
  142MOL0     C19471   6.838  10.046   0.979 -0.8532 -0.3299 -0.4685
  142MOL0     C19472   6.898  10.176   0.934  0.1061 -0.3585 -0.5070
  142MOL0     C19473   7.021  10.159   0.850 -0.1103 -0.9945  0.4197
  142MOL0     C19474   7.050  10.288   0.778 -0.1815  1.7189  0.2117
  142MOL0     N19475   7.146  10.261   0.669  0.7653 -0.1091 -0.3543
  142MOL0     C19476   7.270  10.216   0.670 -0.3203 -0.4135 -0.5808
  142MOL0     C19477   7.307  10.213   0.543 -0.5015  0.0004  0.3974
  142MOL0     C19478   7.449  10.165   0.502  0.3848  0.2037 -0.1951
  142MOL0     C19479   7.548  10.275   0.524  0.2006  0.6316  0.5661
  142MOL0     C19480   7.689  10.223   0.519 -0.8204  0.5624  0.1337
  142MOL0     C19481   7.787  10.341   0.539 -1.1876  0.3561  0.1827
  142MOL0     O19482   7.920  10.296   0.521 -0.3027 -0.4286 -0.2446
  142MOL0     C19483   8.000  10.235   0.618  1.0756  0.8988  0.9304
  142MOL0     C19484   8.125  10.195   0.581 -0.8841 -0.7064 -0.3716
  142MOL0     C19485   8.217  10.140   0.669 -0.3905 -0.1502 -0.0704
  142MOL0     C19486   8.363  10.134   0.616 -0.4716 -0.0785  0.7026
  142MOL0     C19487   8.180  10.120   0.802  0.4488  0.1289 -0.2592
  142MOL0     C19488   8.262  10.032   0.896 -0.7778 -0.7706 -0.2106
  142MOL0     O19489   8.356   9.949   0.846 -0.0464 -0.5080 -0.4918
  142MOL0     C19490   8.389   9.841   0.925  0.3579  0.0629 -0.1737
  142MOL0     C19491   8.513   9.838   0.987  0.1656 -0.0375 -0.5149
  142MOL0     C19492   8.552   9.737   1.070 -0.3972 -0.0350 -0.2487
  142MOL0     C19493   8.468   9.626   1.089 -0.0346 -0.3531  0.1121
  142MOL0     O19494   8.517   9.529   1.173  0.3955 -0.2618 -0.0288
  142MOL0     C19495   8.421   9.430   1.228  0.2250  0.0491 -0.4398
  142MOL0     C19496   8.418   9.306   1.128 -0.1348  0.1960 -0.8555
  142MOL0     C19497   8.292   9.221   1.153  0.0362 -0.3395 -0.1687
  142MOL0     C19498   8.155   9.283   1.116 -0.9169 -0.1046  0.6176
  142MOL0     C19499   8.137   9.315   0.965  0.5982  0.7348  0.2463
  142MOL0     C19500   7.999   9.390   0.950  0.3169  0.1429  0.2742
  142MOL0     C19501   7.949   9.400   0.798  0.0470  0.9298  0.1330
  142MOL0     C19502   7.809   9.439   0.799  0.9790 -0.6906 -0.4158
  142MOL0    Cl19503   7.704   9.327   0.890  0.1319  0.1843 -0.4697
  142MOL0     C19504   8.342   9.617   1.012 -0.0133 -0.5378 -0.7932
  142MOL0     C19505   8.304   9.733   0.945 -0.4841 -1.2575  0.1400
  142MOL0     O19506   8.252  10.057   1.016  0.3322 -0.3344  0.0199
  142MOL0     C19507   8.049  10.151   0.839 -0.2019  0.9268  0.0638
  142MOL0     C19508   7.964  10.214   0.744  0.0205 -1.2065  0.2091
  142MOL0     N19509   7.218  10.273   0.462 -0.0435 -0.3094 -0.3850
  142MOL0     N19510   7.118  10.309   0.535  0.4900  0.2727 -0.4828
  142MOL0     C19511   6.069  10.238   1.147  0.8227 -0.4945 -0.5449
  142MOL0     C19512   5.959  10.255   1.230 -0.3323  0.8523 -0.6044
  142MOL0     C19513   5.775  10.436   1.594 -0.1689 -0.0300 -0.2501
  142MOL0     C19514   5.689  10.336   1.645 -0.2736  0.0000  0.4667
  142MOL0     C19515   5.589  10.365   1.731  0.6951  0.2851 -0.2080
  142MOL0     C19516   5.569  10.484   1.790  0.1662 -0.0762 -0.2081
  142MOL0     O19517   5.478  10.506   1.889 -0.2223  0.0156  0.8500
  142MOL0     C19518   5.343  10.513   1.838 -0.0714 -0.7022 -0.6875
  142MOL0     C19519   5.305  10.667   1.828 -0.6034  0.0438 -0.6037
  142MOL0     C19520   5.169  10.682   1.763 -0.9244 -0.3342  0.1719
  142MOL0     C19521   5.131  10.827   1.740  0.0440  0.2136  0.1772
  142MOL0     C19522   5.050  10.832   1.623 -0.1000  0.2375 -0.5501
  142MOL0     C19523   4.981  10.815   1.529  0.3980  0.5177  0.0491
  142MOL0     C19524   5.652  10.587   1.742 -0.6152 -0.6973 -0.5635
  142MOL0     C19525   5.763  10.562   1.648  0.5369 -0.6242  0.3626
  142MOL0     C19526   5.863  10.684   1.630 -0.5806  1.0913  0.3619
  142MOL0     H19527   6.090  10.143   1.519 -1.3513 -1.6119 -1.0612
  142MOL0     H19528   6.285  10.103   1.368 -0.9984 -4.0936 -0.3428
  142MOL0     H19529   6.324  10.053   0.974  1.4256 -0.1669 -0.2710
  142MOL0     H19530   6.280   9.976   1.127 -1.3756  0.3392 -1.3446
  142MOL0     H19531   6.509  10.072   1.226  1.1898 -2.7745  1.2199
  142MOL0     H19532   6.488   9.918   1.153 -3.9057 -0.5374  2.9278
  142MOL0     H19533   6.580  10.022   0.935 -0.0749 -0.8790  1.2002
  142MOL0     H19534   6.593  10.183   1.018  1.2298  0.7250  1.7089
  142MOL0     H19535   6.767  10.105   1.171  2.0529 -1.6114  1.1000
  142MOL0     H19536   6.730   9.942   1.117  0.3508  1.2396  0.4228
  142MOL0     H19537   6.808   9.992   0.888  3.8237 -1.6134 -1.5032
  142MOL0     H19538   6.923   9.983   1.006 -0.9016  0.4060  1.5634
  142MOL0     H19539   6.824  10.237   0.879 -1.8123 -0.2839  1.9894
  142MOL0     H19540   6.938  10.228   1.021  4.5450 -0.8338 -2.0248
  142MOL0     H19541   6.995  10.083   0.776  2.2564 -0.0691 -1.5231
  142MOL0     H19542   7.113  10.134   0.904  1.9380  0.3764 -2.1568
  142MOL0     H19543   6.959  10.340   0.746 -2.1790 -1.1477  0.8077
  142MOL0     H19544   7.099  10.358   0.846  4.3989 -0.9320  0.0112
  142MOL0     H19545   7.320  10.160   0.748  1.8277 -0.3163 -1.8067
  142MOL0     H19546   7.440  10.133   0.398  0.1950 -1.9689  0.4415
  142MOL0     H19547   7.475  10.069   0.548  1.7905  0.6342 -0.0380
  142MOL0     H19548   7.528  10.346   0.443 -2.3479  1.0029  1.4230
  142MOL0     H19549   7.537  10.331   0.617  0.5298  1.8981 -0.1408
  142MOL0     H19550   7.704  10.159   0.606  3.1924  0.5401 -0.4166
  142MOL0     H19551   7.703  10.166   0.426 -3.0416 -2.4313  1.4656
  142MOL0     H19552   7.769  10.423   0.468 -1.4202  0.7677  0.7068
  142MOL0     H19553   7.763  10.390   0.634 -2.1122 -0.3592  0.3237
  142MOL0     H19554   8.154  10.219   0.479 -1.0041  0.1772 -0.2065
  142MOL0     H19555   8.361  10.106   0.510 -1.7218 -1.3218  1.0167
  142MOL0     H19556   8.434  10.067   0.665 -2.9998 -3.3829  0.2660
  142MOL0     H19557   8.409  10.232   0.626 -1.5046  0.6493 -1.1713
  142MOL0     H19558   8.586   9.915   0.963  1.1972 -1.0480 -0.6413
  142MOL0     H19559   8.648   9.742   1.119 -1.6276  2.0077  2.2097
  142MOL0     H19560   8.439   9.396   1.330 -0.3561  3.8958  1.1109
  142MOL0     H19561   8.324   9.480   1.233  0.2539  0.1085 -0.4727
  142MOL0     H19562   8.437   9.335   1.024  0.4141  2.1622 -0.2678
  142MOL0     H19563   8.503   9.243   1.154  1.0060  2.3466  1.0726
  142MOL0     H19564   8.287   9.172   1.251  2.5371 -0.2948  0.0358
  142MOL0     H19565   8.308   9.130   1.094 -0.2153  0.6577 -1.8327
  142MOL0     H19566   8.138   9.376   1.171 -0.5955  0.5928 -0.4300
  142MOL0     H19567   8.067   9.222   1.140 -1.4408  1.2192  2.2719
  142MOL0     H19568   8.225   9.363   0.921  2.9287 -0.4503  3.2304
  142MOL0     H19569   8.128   9.225   0.904 -0.5771  0.8846  0.1892
  142MOL0     H19570   7.996   9.491   0.991 -2.7917  0.6877 -1.0271
  142MOL0     H19571   7.933   9.330   1.013  0.8349 -2.4497 -1.4694
  142MOL0     H19572   7.956   9.302   0.750 -1.6851  0.7048  0.2654
  142MOL0     H19573   8.001   9.482   0.747 -1.6970  1.2952 -1.1261
  142MOL0     H19574   7.770   9.451   0.697 -0.5264  0.4968  0.2524
  142MOL0     H19575   7.803   9.532   0.856 -3.0162 -2.2081  2.0443
  142MOL0     H19576   8.263   9.543   1.018 -1.0980  0.6946  3.0310
  142MOL0     H19577   8.212   9.733   0.888  1.6571 -2.4358 -3.5925
  142MOL0     H19578   8.016  10.105   0.932  1.3919 -1.0802 -0.2893
  142MOL0     H19579   7.867  10.253   0.774 -0.4215  0.0736 -2.5584
  142MOL0     H19580   6.063  10.256   1.040  2.2146 -0.3987 -0.6228
  142MOL0     H19581   5.864  10.274   1.182 -1.9332 -2.2936  1.0359
  142MOL0     H19582   5.698  10.235   1.606  0.2871 -0.2549  1.2271
  142MOL0     H19583   5.520  10.294   1.776 -2.2097  3.0662  0.0752
  142MOL0     H19584   5.332  10.454   1.746  1.2895 -2.5765  0.2890
  142MOL0     H19585   5.276  10.465   1.910  0.2403 -0.1906 -0.0457
  142MOL0     H19586   5.382  10.706   1.762 -1.2269 -0.8161 -1.8812
  142MOL0     H19587   5.292  10.715   1.926  0.1216  0.8567 -0.8947
  142MOL0     H19588   5.173  10.629   1.667 -0.9984 -1.4997  0.7951
  142MOL0     H19589   5.095  10.634   1.828  0.5404 -0.1166  2.0890
  142MOL0     H19590   5.217  10.894   1.729 -1.1310  1.9172  0.9221
  142MOL0     H19591   5.074  10.860   1.828 -0.4559  1.6789 -0.6640
  142MOL0     H19592   4.916  10.799   1.446 -3.1732  0.2753  2.6608
  142MOL0     H19593   5.643  10.684   1.790 -1.0494 -2.2583  2.7197
  142MOL0     H19594   5.917  10.678   1.535 -0.6899  1.4942  0.2703
  142MOL0     H19595   5.802  10.774   1.638 -2.4738 -0.2627  2.1310
  142MOL0     H19596   5.927  10.693   1.718 -1.7860  1.1692  1.2635
  143MOL0     O19597   8.658   2.299   8.085 -0.5504 -0.2784  0.7894
  143MOL0     C19598   8.683   2.354   7.979 -0.5523  0.2631 -0.1704
  143MOL0     O19599   8.672   2.485   7.967  0.4594  0.3860 -0.4340
  143MOL0     C19600   8.595   2.556   8.059 -0.0660 -0.6353 -0.0451
  143MOL0     C19601   8.652   2.650   8.144  0.2634  0.5446 -0.0715
  143MOL0     C19602   8.574   2.729   8.230 -0.4625 -0.2660 -0.8909
  143MOL0     C19603   8.435   2.701   8.241  0.7068  0.4666 -0.6656
  143MOL0     O19604   8.358   2.776   8.325  0.4294 -0.9984  0.4454
  143MOL0     C19605   8.329   2.706   8.443  0.2505 -0.0304 -0.5368
  143MOL0     C19606   8.224   2.786   8.517 -0.1184 -0.1614  0.8206
  143MOL0     C19607   8.175   2.724   8.649 -0.6512 -0.5457  0.1371
  143MOL0     C19608   8.282   2.764   8.755  0.9544 -0.0703  0.8476
  143MOL0     C19609   8.249   2.685   8.883 -0.1033  0.7026 -0.1468
  143MOL0     C19610   8.336   2.746   9.001  0.4086  0.2863  0.2339
  143MOL0     C19611   8.279   2.718   9.140  0.6197 -0.5144  0.0853
  143MOL0     C19612   8.256   2.575   9.153  0.0978 -1.1477 -0.2119
  143MOL0     N19613   8.242   2.530   9.293  0.6883 -0.2118  0.4031
  143MOL0     C19614   8.293   2.413   9.344 -0.2605  0.3331 -0.0894
  143MOL0     C19615   8.266   2.430   9.480  0.4833  0.2576 -0.0992
  143MOL0     C19616   8.306   2.335   9.596  0.8895 -0.1173  0.6841
  143MOL0     C19617   8.455   2.319   9.601 -0.4209 -0.9445  0.1842
  143MOL0     C19618   8.487   2.224   9.719  0.4405  0.5900  0.0269
  143MOL0     C19619   8.635   2.224   9.738 -0.4119 -0.5200  0.1046
  143MOL0     O19620   8.686   2.142   9.840  0.8829  0.0823 -0.3104
  143MOL0     C19621   8.795   2.053   9.820  0.3448  1.0163  0.3296
  143MOL0     C19622   8.892   2.067   9.921 -0.2120  0.3105  0.7926
  143MOL0     C19623   9.017   2.005   9.920  1.4560 -0.1719  1.0953
  143MOL0     C19624   9.106   2.029  10.029  0.5556  0.9810 -0.3094
  143MOL0     C19625   9.050   1.929   9.810 -0.9560  1.0219  0.0167
  143MOL0     C19626   9.185   1.859   9.805 -0.0207  0.7576  0.5501
  143MOL0     O19627   9.235   1.835   9.674 -0.2129  0.4325 -0.1876
  143MOL0     C19628   9.359   1.784   9.641 -0.3524  1.0622  0.2451
  143MOL0     C19629   9.462   1.739   9.723  0.0369 -0.3829 -0.1452
  143MOL0     C19630   9.589   1.697   9.669  0.3677 -0.0278 -0.5118
  143MOL0     C19631   9.620   1.709   9.536  0.0425  0.2718 -0.0089
  143MOL0     O19632   9.745   1.678   9.485  0.7212  0.2788  0.1298
  143MOL0     C19633   9.841   1.609   9.563  0.4867 -0.5798  0.9616
  143MOL0     C19634   9.965   1.557   9.482  1.6018  0.9472 -0.0031
  143MOL0     C19635  10.066   1.676   9.456  0.6364 -0.0260  0.1017
  143MOL0     C19636  10.209   1.615   9.450 -0.3318 -0.6439 -0.2947
  143MOL0     C19637  10.308   1.727   9.430  0.4984 -0.2006  0.7446
  143MOL0     C19638  10.439   1.674   9.379  0.3069  0.9741 -0.0776
  143MOL0     C19639  10.558   1.766   9.370 -0.6501 -0.0746 -0.2998
  143MOL0     C19640  10.551   1.860   9.248 -0.5442  0.3990 -0.0331
  143MOL0    Cl19641  10.576   1.760   9.098  0.1086  0.0333 -0.0488
  143MOL0     C19642   9.516   1.758   9.453 -0.2588  0.6640  0.4094
  143MOL0     C19643   9.392   1.793   9.502 -0.4231 -0.2298 -0.4047
  143MOL0     O19644   9.222   1.800   9.904 -0.7148 -0.6114 -0.1755
  143MOL0     C19645   8.957   1.913   9.708 -0.6085 -1.2479  0.1549
  143MOL0     C19646   8.832   1.970   9.713 -0.0333  0.7018  0.5927
  143MOL0     N19647   8.191   2.549   9.494  0.6720  0.0267 -0.9027
  143MOL0     N19648   8.174   2.604   9.378  0.1550 -0.0683  0.0903
  143MOL0     C19649   8.378   2.598   8.168  0.0852  0.7894 -0.2275
  143MOL0     C19650   8.456   2.534   8.067  0.3867 -0.1353  0.1704
  143MOL0     C19651   8.756   2.273   7.874 -0.0620 -0.6638  0.1119
  143MOL0     C19652   8.698   2.279   7.750 -0.0976  0.3907 -0.9082
  143MOL0     C19653   8.752   2.204   7.645  0.5099 -0.0869 -1.3470
  143MOL0     C19654   8.867   2.130   7.669 -0.6120 -0.5055 -1.2022
  143MOL0     O19655   8.928   2.057   7.564 -0.0794  0.7752 -1.0059
  143MOL0     C19656   8.901   2.092   7.425 -0.1294 -0.5200 -0.1480
  143MOL0     C19657   8.942   2.245   7.400  0.5719 -0.0771 -0.2256
  143MOL0     C19658   8.990   2.279   7.261 -0.3840  0.6782  1.1015
  143MOL0     C19659   8.880   2.261   7.146 -0.8169 -0.2649 -0.4304
  143MOL0     C19660   8.934   2.311   7.022  0.3988 -0.2874 -0.5858
  143MOL0     C19661   8.949   2.357   6.911 -0.5852  0.6456 -0.2955
  143MOL0     C19662   8.924   2.118   7.795 -0.4194 -0.0429  0.9696
  143MOL0     C19663   8.873   2.197   7.898  0.3501 -0.7345 -0.2423
  143MOL0     C19664   8.933   2.183   8.033  0.2515  0.0134  1.2950
  143MOL0     H19665   8.760   2.666   8.145  0.1598  1.9177 -2.5686
  143MOL0     H19666   8.614   2.809   8.292 -2.7012  0.9672 -0.9335
  143MOL0     H19667   8.410   2.695   8.516 -1.9647 -2.3160  1.7966
  143MOL0     H19668   8.298   2.603   8.424  0.1401  0.0941 -1.0627
  143MOL0     H19669   8.259   2.889   8.529  2.7735 -1.2061  2.2135
  143MOL0     H19670   8.134   2.800   8.456  0.3347  1.9803  0.5649
  143MOL0     H19671   8.077   2.762   8.680 -0.8482  1.0103 -2.1407
  143MOL0     H19672   8.163   2.616   8.637  2.7584 -1.1545  1.0767
  143MOL0     H19673   8.381   2.738   8.718  1.6707  1.8034  1.3488
  143MOL0     H19674   8.280   2.870   8.781  3.0535  0.0979  0.4325
  143MOL0     H19675   8.259   2.579   8.856 -2.9994  0.0652  0.9251
  143MOL0     H19676   8.143   2.699   8.903 -0.6737  0.6530 -2.8337
  143MOL0     H19677   8.439   2.708   8.998  0.0342 -0.7069 -0.4363
  143MOL0     H19678   8.353   2.853   8.988  2.1182 -0.0884 -1.0162
  143MOL0     H19679   8.189   2.774   9.164  1.5946  0.7126  0.9845
  143MOL0     H19680   8.354   2.749   9.213  0.4486 -3.4602  1.6987
  143MOL0     H19681   8.174   2.533   9.094  0.0573 -2.2131  0.5518
  143MOL0     H19682   8.350   2.537   9.113 -0.0944  0.1036 -1.9357
  143MOL0     H19683   8.345   2.329   9.299 -1.0174 -0.3954  0.3821
  143MOL0     H19684   8.247   2.243   9.592 -4.2899  2.8119  1.4494
  143MOL0     H19685   8.267   2.385   9.686 -1.2153 -2.0883  0.9532
  143MOL0     H19686   8.489   2.268   9.511  0.6917 -2.7281  1.5586
  143MOL0     H19687   8.506   2.412   9.627  0.9777 -1.0573 -1.9758
  143MOL0     H19688   8.435   2.259   9.808  0.3504  1.1174 -0.2235
  143MOL0     H19689   8.442   2.127   9.697  0.7811  0.8023 -1.8227
  143MOL0     H19690   8.676   2.201   9.639  1.5984  4.4523 -0.5260
  143MOL0     H19691   8.668   2.326   9.760  0.9162 -0.7434 -0.7033
  143MOL0     H19692   8.875   2.142   9.998 -2.8116 -0.2822  0.8874
  143MOL0     H19693   9.104   1.953  10.107  0.9817  0.4422 -0.8210
  143MOL0     H19694   9.071   2.121  10.078  1.6156  1.7813 -0.9996
  143MOL0     H19695   9.212   2.037  10.001  1.6167 -2.7235  2.0350
  143MOL0     H19696   9.456   1.745   9.831 -0.4375  1.9182 -0.2437
  143MOL0     H19697   9.665   1.673   9.743 -0.0627  3.1436  1.1320
  143MOL0     H19698   9.883   1.670   9.643 -1.4915 -0.3230  1.8476
  143MOL0     H19699   9.806   1.519   9.614  1.1490 -1.6657 -0.4330
  143MOL0     H19700  10.012   1.483   9.548 -1.0750 -0.7610  0.1337
  143MOL0     H19701   9.926   1.506   9.394  2.5257  0.5610 -0.2039
  143MOL0     H19702  10.058   1.749   9.538 -1.2015 -1.4404  1.2439
  143MOL0     H19703  10.034   1.721   9.362 -1.5231 -1.3104  0.1646
  143MOL0     H19704  10.215   1.537   9.373  1.2580 -1.0542  0.1989
  143MOL0     H19705  10.242   1.564   9.541 -1.4020 -0.0744  0.4317
  143MOL0     H19706  10.270   1.794   9.352 -1.1755 -1.3630  0.4990
  143MOL0     H19707  10.324   1.787   9.520  1.3299  0.0674  0.4244
  143MOL0     H19708  10.418   1.621   9.286 -1.4545 -0.8558  1.2903
  143MOL0     H19709  10.469   1.598   9.451  2.9120  2.5875  0.6706
  143MOL0     H19710  10.647   1.703   9.366 -0.5303 -0.0117  0.9637
  143MOL0     H19711  10.567   1.824   9.463  1.3206 -0.4386 -0.2119
  143MOL0     H19712  10.636   1.929   9.244  2.5200 -3.0865 -0.1265
  143MOL0     H19713  10.455   1.913   9.253 -0.5972  0.2974  0.0375
  143MOL0     H19714   9.546   1.754   9.349  3.2021 -2.6692  1.3006
  143MOL0     H19715   9.309   1.825   9.439 -0.7701 -1.1679 -0.4293
  143MOL0     H19716   8.991   1.848   9.628 -1.5245 -0.1063 -1.2196
  143MOL0     H19717   8.775   1.957   9.622 -2.5741  1.8341  1.9363
  143MOL0     H19718   8.273   2.573   8.177 -0.0988  1.8003  0.6541
  143MOL0     H19719   8.397   2.474   7.998 -2.7545  0.6745  1.9517
  143MOL0     H19720   8.604   2.321   7.715 -0.4871 -1.0453 -1.6672
  143MOL0     H19721   8.687   2.200   7.558 -2.1385  1.3093  0.4065
  143MOL0     H19722   8.962   2.034   7.355  1.9547 -0.4591  1.4922
  143MOL0     H19723   8.794   2.075   7.414  0.1671 -2.9475  0.0330
  143MOL0     H19724   9.023   2.265   7.470 -1.3450 -0.0415  2.1427
  143MOL0     H19725   8.855   2.302   7.434 -0.9632 -3.4976  2.3293
  143MOL0     H19726   9.020   2.384   7.263 -2.0762  1.2160  0.5428
  143MOL0     H19727   9.078   2.216   7.241 -1.0790 -0.1200  0.4464
  143MOL0     H19728   8.800   2.331   7.175 -0.2780 -0.0314  0.5463
  143MOL0     H19729   8.849   2.156   7.142 -2.9597  0.2687  0.4836
  143MOL0     H19730   8.946   2.391   6.809 -2.3338  1.8312  0.1096
  143MOL0     H19731   9.006   2.047   7.800  0.8728  1.1266 -1.8835
  143MOL0     H19732   9.025   2.124   8.027 -1.4698 -2.8815 -4.6813
  143MOL0     H19733   8.952   2.285   8.066 -0.3008 -0.3654  2.8955
  143MOL0     H19734   8.865   2.128   8.099 -1.3929 -0.7079 -0.8888
  144MOL0     O19735  11.306   2.867   0.720  0.3166  0.5177  0.0752
  144MOL0     C19736  11.198   2.899   0.772  0.8262 -0.4723  0.2619
  144MOL0     O19737  11.177   3.007   0.864 -0.2408  0.3437  0.2002
  144MOL0     C19738  11.282   3.084   0.895 -0.2203 -0.1385 -0.1758
  144MOL0     C19739  11.350   3.052   1.010  0.3845 -0.7558 -0.3906
  144MOL0     C19740  11.446   3.147   1.061  0.4629 -0.0597 -0.5433
  144MOL0     C19741  11.474   3.266   0.987  0.1966 -0.1064 -0.8667
  144MOL0     O19742  11.576   3.351   1.032  0.3613  0.0116  0.3927
  144MOL0     C19743  11.704   3.293   1.050  0.2506 -0.2940 -0.7661
  144MOL0     C19744  11.783   3.313   0.925  0.0860  0.5470  0.1280
  144MOL0     C19745  11.931   3.356   0.953 -0.1364 -0.2457 -0.3277
  144MOL0     C19746  11.998   3.423   0.831 -0.4219  0.0895  0.1210
  144MOL0     C19747  12.139   3.480   0.853 -0.3446  0.1792  0.3554
  144MOL0     C19748  12.153   3.608   0.931  0.0655  0.0539  0.7133
  144MOL0     C19749  12.307   3.639   0.965  0.0953 -0.2804  0.1332
  144MOL0     C19750  12.316   3.768   1.056 -0.1028 -0.9909 -0.4178
  144MOL0     N19751  12.279   3.896   0.994 -0.1917  0.1798 -0.2744
  144MOL0     C19752  12.331   3.957   0.884  0.1129  0.3070  0.9945
  144MOL0     C19753  12.236   4.049   0.848 -0.3225 -0.1030 -0.2700
  144MOL0     C19754  12.249   4.109   0.707 -0.9235  0.3591 -0.3719
  144MOL0     C19755  12.193   4.009   0.600  1.1554  0.3892  0.0161
  144MOL0     C19756  12.038   3.986   0.596 -0.2350 -0.5303  0.3510
  144MOL0     C19757  11.957   4.100   0.533 -0.1083  0.0772 -0.0135
  144MOL0     O19758  11.942   4.202   0.633 -0.2772 -0.6680  0.0126
  144MOL0     C19759  11.891   4.321   0.594 -0.4258  0.5922  0.6454
  144MOL0     C19760  11.933   4.424   0.669  0.9001  0.2120 -0.3470
  144MOL0     C19761  11.889   4.552   0.659 -0.3729 -0.0534  0.5666
  144MOL0     C19762  11.957   4.664   0.741 -0.4137 -0.1799  0.7299
  144MOL0     C19763  11.806   4.583   0.549  0.7267  0.4606 -0.1564
  144MOL0     C19764  11.761   4.717   0.505  0.0384 -0.5794  0.5766
  144MOL0     O19765  11.717   4.724   0.371 -0.0710 -0.1732 -0.3499
  144MOL0     C19766  11.671   4.847   0.318  0.0869 -0.0162  0.0705
  144MOL0     C19767  11.684   4.979   0.371  0.2638  0.4420  0.0534
  144MOL0     C19768  11.619   5.089   0.315 -0.1629  0.6479 -0.0994
  144MOL0     C19769  11.551   5.069   0.194 -0.0866  0.2675  0.2063
  144MOL0     O19770  11.507   5.183   0.132 -0.2119  0.3514  0.3012
  144MOL0     C19771  11.453   5.175   0.001 -0.5652  0.8567  0.1865
  144MOL0     C19772  11.475   5.310  -0.074  1.1287  0.4137 -0.7586
  144MOL0     C19773  11.625   5.337  -0.093  0.4290  0.5609 -0.1029
  144MOL0     C19774  11.661   5.441  -0.209 -0.1139  0.5362  0.5471
  144MOL0     C19775  11.803   5.491  -0.211 -0.1084  0.9027  0.2752
  144MOL0     C19776  11.894   5.383  -0.273 -0.7614 -0.4935  0.2530
  144MOL0     C19777  12.024   5.445  -0.336  0.3999  0.5713 -0.2209
  144MOL0     C19778  12.137   5.338  -0.338  0.6178 -0.0387 -0.8480
  144MOL0    Cl19779  12.201   5.279  -0.183 -0.6408  0.2321 -0.0112
  144MOL0     C19780  11.532   4.934   0.149  0.2017 -0.2510 -0.1078
  144MOL0     C19781  11.598   4.831   0.207  0.0713  0.3495 -0.8055
  144MOL0     O19782  11.742   4.803   0.589  0.8775 -0.9502  0.7942
  144MOL0     C19783  11.753   4.470   0.483 -0.3572  0.0878  0.3337
  144MOL0     C19784  11.788   4.343   0.503  0.0217 -1.0567 -0.2386
  144MOL0     N19785  12.134   4.049   0.943  0.0656 -0.4711 -0.3170
  144MOL0     N19786  12.156   3.951   1.024 -0.5630 -0.4349  0.2709
  144MOL0     C19787  11.404   3.299   0.864 -0.3023 -0.1586 -0.7508
  144MOL0     C19788  11.297   3.208   0.826  0.1795  0.5332 -0.7197
  144MOL0     C19789  11.074   2.829   0.726  0.6687  0.0874 -0.0623
  144MOL0     C19790  10.956   2.830   0.809  0.2875 -1.1530  0.6952
  144MOL0     C19791  10.837   2.777   0.770 -0.3375 -0.0184  0.3154
  144MOL0     C19792  10.832   2.693   0.654  0.2745  0.2045  0.1457
  144MOL0     O19793  10.720   2.625   0.602  0.1297  0.0836  0.2456
  144MOL0     C19794  10.596   2.624   0.683 -0.6261  0.0569  0.8270
  144MOL0     C19795  10.506   2.737   0.634  0.8316  0.0761 -0.3506
  144MOL0     C19796  10.363   2.743   0.694 -0.1553 -0.6895  0.2036
  144MOL0     C19797  10.279   2.860   0.641  0.0326 -0.8562 -0.3040
  144MOL0     C19798  10.350   2.987   0.665 -0.2074  0.3903  0.6421
  144MOL0     C19799  10.425   3.088   0.673 -1.2256  0.0641  1.3262
  144MOL0     C19800  10.949   2.689   0.580  0.1420 -0.8303  0.8282
  144MOL0     C19801  11.070   2.758   0.613  0.1258 -0.4444  0.2338
  144MOL0     C19802  11.183   2.747   0.510 -0.9766 -0.6857  1.2768
  144MOL0     H19803  11.329   2.970   1.078  1.3574  0.3495  1.3056
  144MOL0     H19804  11.495   3.130   1.156  1.1574  0.8197 -0.7252
  144MOL0     H19805  11.696   3.186   1.070 -0.8030  0.2551  2.3631
  144MOL0     H19806  11.763   3.342   1.129 -1.5335  1.7486 -0.6038
  144MOL0     H19807  11.786   3.222   0.863  1.3504  1.1303 -0.7164
  144MOL0     H19808  11.726   3.386   0.866 -3.5212 -1.9366  0.2344
  144MOL0     H19809  11.932   3.427   1.036  0.5636  2.3187 -2.3825
  144MOL0     H19810  11.997   3.277   0.990  0.2239  0.3318  0.2828
  144MOL0     H19811  12.016   3.351   0.751  2.3536  0.2762  0.4755
  144MOL0     H19812  11.934   3.511   0.817  2.1313  2.5516  2.5314
  144MOL0     H19813  12.183   3.489   0.754  0.8410 -1.5762  0.6725
  144MOL0     H19814  12.190   3.399   0.906 -1.7568 -0.6480  0.5173
  144MOL0     H19815  12.130   3.694   0.867  1.9020  1.2957  1.6227
  144MOL0     H19816  12.086   3.613   1.017 -3.4665  0.3122 -1.8283
  144MOL0     H19817  12.367   3.651   0.875  2.4799  1.6392  1.8521
  144MOL0     H19818  12.365   3.562   1.016 -0.1133  1.3875  3.1660
  144MOL0     H19819  12.246   3.757   1.140  0.1598  1.4612  0.1869
  144MOL0     H19820  12.412   3.763   1.109 -0.0241 -0.2979 -0.4937
  144MOL0     H19821  12.411   3.919   0.821 -1.8422 -0.8873 -0.9019
  144MOL0     H19822  12.353   4.139   0.690 -0.8892  1.3415  1.3438
  144MOL0     H19823  12.186   4.198   0.696 -1.3935  0.5935  3.0332
  144MOL0     H19824  12.219   4.051   0.502  1.0828  0.9565  0.2373
  144MOL0     H19825  12.245   3.913   0.612 -1.7305 -1.4756 -1.3895
  144MOL0     H19826  12.030   3.898   0.531  1.8294 -0.6050  0.1377
  144MOL0     H19827  11.992   3.952   0.690  0.1238 -1.9495  0.0461
  144MOL0     H19828  12.004   4.136   0.441 -1.0441 -1.8212 -1.2875
  144MOL0     H19829  11.861   4.057   0.506  1.3925 -2.7003 -1.2748
  144MOL0     H19830  12.010   4.412   0.744 -0.7110 -2.6370  0.9973
  144MOL0     H19831  12.023   4.722   0.676  1.0280  0.0489  2.3318
  144MOL0     H19832  12.020   4.620   0.817  1.0657  0.1312 -0.2750
  144MOL0     H19833  11.882   4.731   0.786  1.9756  3.4229 -0.2145
  144MOL0     H19834  11.738   4.996   0.463 -1.0197 -1.9583  1.3658
  144MOL0     H19835  11.622   5.187   0.361 -2.2492  0.6172  0.2386
  144MOL0     H19836  11.498   5.093  -0.056 -0.0588  0.8898  0.5318
  144MOL0     H19837  11.345   5.157   0.003 -1.2722  4.4432 -0.0097
  144MOL0     H19838  11.417   5.292  -0.165 -1.6206 -1.4887  1.2192
  144MOL0     H19839  11.431   5.394  -0.021 -0.3141 -0.5761 -0.3437
  144MOL0     H19840  11.664   5.242  -0.130 -1.3213  0.0359 -0.7137
  144MOL0     H19841  11.657   5.371   0.006 -0.7641 -0.6172  0.7326
  144MOL0     H19842  11.603   5.528  -0.178 -2.3981 -0.7137  0.0402
  144MOL0     H19843  11.622   5.408  -0.306  0.3331  0.0738  0.5232
  144MOL0     H19844  11.806   5.589  -0.260  1.9330  2.3151  2.9680
  144MOL0     H19845  11.824   5.514  -0.106 -1.6806 -1.3249  1.1485
  144MOL0     H19846  11.838   5.325  -0.346 -0.0820  1.5486 -2.0409
  144MOL0     H19847  11.925   5.325  -0.185  0.1511  0.8904  0.8962
  144MOL0     H19848  12.053   5.535  -0.281 -1.7949  1.5032 -0.5084
  144MOL0     H19849  11.998   5.482  -0.436 -2.8030  0.4164  0.4709
  144MOL0     H19850  12.212   5.375  -0.409  1.0524  1.7757  0.4842
  144MOL0     H19851  12.102   5.245  -0.384  0.7281 -0.8949  0.7319
  144MOL0     H19852  11.461   4.915   0.069  1.9149 -1.8267 -1.3652
  144MOL0     H19853  11.592   4.733   0.161 -2.0300  0.6488 -1.2626
  144MOL0     H19854  11.681   4.477   0.403 -1.9733 -0.3341  1.6930
  144MOL0     H19855  11.734   4.266   0.449  0.3243 -0.2050 -1.7962
  144MOL0     H19856  11.425   3.397   0.821  1.3655  1.4016  3.1405
  144MOL0     H19857  11.237   3.220   0.737  0.8406  1.9395 -1.0033
  144MOL0     H19858  10.953   2.895   0.895 -1.8408 -0.5738  0.2444
  144MOL0     H19859  10.746   2.790   0.828  0.1296  1.7199  0.7023
  144MOL0     H19860  10.561   2.523   0.656  3.4593 -1.6180  1.0710
  144MOL0     H19861  10.608   2.615   0.791 -1.8469 -0.9219  0.9127
  144MOL0     H19862  10.485   2.725   0.527  1.7493  0.6937 -0.6083
  144MOL0     H19863  10.558   2.833   0.646  2.1781 -0.7372  0.5242
  144MOL0     H19864  10.304   2.655   0.668 -2.6827  0.9951 -0.0555
  144MOL0     H19865  10.366   2.751   0.803 -0.2799 -0.7007  0.2076
  144MOL0     H19866  10.178   2.869   0.682 -0.0036  2.6494 -0.8801
  144MOL0     H19867  10.270   2.837   0.534  0.2287 -0.4930 -0.3973
  144MOL0     H19868  10.479   3.178   0.690 -1.4929  0.4214  0.3081
  144MOL0     H19869  10.949   2.620   0.496  2.4977  0.7326 -0.5813
  144MOL0     H19870  11.217   2.848   0.483 -0.6052 -0.8314  1.2046
  144MOL0     H19871  11.269   2.692   0.548  2.0669  1.3941 -1.9947
  144MOL0     H19872  11.148   2.711   0.413 -0.7592 -0.1926  1.0121
  145MOL0     O19873   6.686   6.843   7.437  0.6509  0.5028  0.4295
  145MOL0     C19874   6.596   6.921   7.478  0.3968  0.3853 -0.4520
  145MOL0     O19875   6.613   7.007   7.585  0.6931 -0.5650  0.2397
  145MOL0     C19876   6.733   7.009   7.641  0.2288  0.4911 -0.4899
  145MOL0     C19877   6.754   6.933   7.754 -0.6479  0.0066  0.9459
  145MOL0     C19878   6.882   6.931   7.812 -0.2491  0.0870 -0.4956
  145MOL0     C19879   6.991   7.008   7.765 -0.3581  1.0143  0.0087
  145MOL0     O19880   7.116   7.005   7.832 -0.1214  0.5552  0.1315
  145MOL0     C19881   7.220   6.940   7.754 -0.2377  0.2898 -0.3947
  145MOL0     C19882   7.344   7.027   7.780 -1.2788  0.0071  0.3861
  145MOL0     C19883   7.345   7.165   7.708  0.0121 -0.3778 -0.1834
  145MOL0     C19884   7.488   7.223   7.735 -0.5902 -0.4647  0.4009
  145MOL0     C19885   7.508   7.358   7.674 -0.1843 -0.0943  0.3586
  145MOL0     C19886   7.408   7.458   7.730  0.2527 -0.2026 -0.3763
  145MOL0     C19887   7.457   7.602   7.694  0.2474  0.9845  0.6392
  145MOL0     C19888   7.346   7.703   7.679  0.7159 -0.2258 -0.0974
  145MOL0     N19889   7.390   7.818   7.608 -0.0192  0.2403  0.2940
  145MOL0     C19890   7.509   7.883   7.653 -0.3237 -0.1836 -1.2105
  145MOL0     C19891   7.546   7.967   7.551  0.5025 -0.1808 -0.0572
  145MOL0     C19892   7.670   8.048   7.540 -0.4293  0.1992 -0.1338
  145MOL0     C19893   7.777   7.971   7.461  0.0127 -0.1223 -0.3080
  145MOL0     C19894   7.866   7.877   7.541 -0.0379  0.0226 -0.9447
  145MOL0     C19895   7.998   7.839   7.468  0.2931  0.0030 -0.3605
  145MOL0     O19896   7.968   7.777   7.339 -0.5550  0.2117  0.3654
  145MOL0     C19897   7.997   7.843   7.226  0.5648 -0.0704  0.6711
  145MOL0     C19898   8.127   7.904   7.212 -0.2640  0.3489 -0.2877
  145MOL0     C19899   8.168   7.959   7.091 -0.3533 -0.0103  1.0412
  145MOL0     C19900   8.311   7.994   7.088 -0.3477  0.0146  0.2606
  145MOL0     C19901   8.077   7.963   6.981 -0.3241  0.7386 -0.7977
  145MOL0     C19902   8.135   8.005   6.854  0.3558  0.4565 -0.8080
  145MOL0     O19903   8.114   7.916   6.742 -0.8159  0.1457 -1.0195
  145MOL0     C19904   8.138   7.948   6.614  0.2723  0.9961  0.3566
  145MOL0     C19905   8.260   7.907   6.554  0.2170  0.0041  0.3924
  145MOL0     C19906   8.282   7.933   6.419  0.2277 -0.4582 -0.6006
  145MOL0     C19907   8.195   8.003   6.341  0.7435  0.9900 -0.5256
  145MOL0     O19908   8.227   8.029   6.215 -0.8671 -0.0742  0.5881
  145MOL0     C19909   8.329   7.951   6.134  0.8825 -0.1628 -1.0237
  145MOL0     C19910   8.357   8.016   5.997  0.8696 -0.0155 -0.7873
  145MOL0     C19911   8.491   8.101   5.984 -0.6227  0.2117 -0.1543
  145MOL0     C19912   8.614   8.003   5.980  1.1235  0.1407 -0.2756
  145MOL0     C19913   8.734   8.070   5.921 -0.7809  0.3497  0.3044
  145MOL0     C19914   8.792   8.190   6.008  0.6340  1.0628  0.5803
  145MOL0     C19915   8.803   8.153   6.158 -0.1675 -0.3386  0.5641
  145MOL0     C19916   8.877   8.263   6.239  0.7176 -0.4712 -0.6333
  145MOL0    Cl19917   9.033   8.306   6.166 -0.3847  0.4950 -0.3173
  145MOL0     C19918   8.077   8.048   6.400  0.1459  0.4395 -0.2249
  145MOL0     C19919   8.046   8.030   6.536 -0.3100  1.3803 -0.7129
  145MOL0     O19920   8.171   8.124   6.848  0.7507 -0.3907  1.1184
  145MOL0     C19921   7.952   7.911   6.998 -0.0941 -0.1407  0.2113
  145MOL0     C19922   7.913   7.845   7.120  0.8287 -1.1944  0.7200
  145MOL0     N19923   7.444   7.960   7.460  0.0202  0.0643  0.7703
  145MOL0     N19924   7.354   7.873   7.491  1.2588 -0.2578  0.0090
  145MOL0     C19925   6.959   7.094   7.656  0.6482  0.8922 -0.3174
  145MOL0     C19926   6.832   7.090   7.602 -0.0393  0.0774 -0.1003
  145MOL0     C19927   6.470   6.920   7.402  0.2181  0.5767  0.7491
  145MOL0     C19928   6.420   7.049   7.378  0.4998  0.1433 -0.8047
  145MOL0     C19929   6.291   7.067   7.317 -0.4557  0.5270 -0.6394
  145MOL0     C19930   6.224   6.960   7.264 -0.1988 -0.4946 -0.0958
  145MOL0     O19931   6.096   6.989   7.217 -0.3268 -0.0396 -0.0358
  145MOL0     C19932   6.023   6.887   7.163  0.3986 -0.8904  0.1863
  145MOL0     C19933   5.886   6.939   7.119  0.5914  0.1887 -0.4578
  145MOL0     C19934   5.810   7.038   7.202 -1.0061  0.2687  0.4973
  145MOL0     C19935   5.702   7.112   7.132  0.2038 -0.1001  0.6593
  145MOL0     C19936   5.641   7.206   7.223  0.6038  0.8330 -0.2639
  145MOL0     C19937   5.593   7.267   7.319 -0.3201 -0.3405 -0.2252
  145MOL0     C19938   6.283   6.834   7.264  0.5407 -0.8453 -0.4912
  145MOL0     C19939   6.402   6.809   7.337 -0.0437 -0.3010  0.5325
  145MOL0     C19940   6.450   6.665   7.344 -0.7381 -0.3344 -0.4326
  145MOL0     H19941   6.668   6.890   7.805 -2.5204  0.0936 -1.8671
  145MOL0     H19942   6.894   6.879   7.906 -0.5205  2.3330  0.8388
  145MOL0     H19943   7.187   6.933   7.650 -0.4781 -0.9759 -0.2503
  145MOL0     H19944   7.245   6.841   7.793  1.0928 -0.1348 -2.2216
  145MOL0     H19945   7.348   7.053   7.886  4.7197 -0.5704  0.6733
  145MOL0     H19946   7.436   6.969   7.765 -2.2526 -1.0620 -1.9282
  145MOL0     H19947   7.333   7.150   7.600 -1.0117 -1.1154  0.0174
  145MOL0     H19948   7.264   7.217   7.759  0.1085  1.2117 -1.5606
  145MOL0     H19949   7.507   7.239   7.842 -2.0711 -1.2156  0.8022
  145MOL0     H19950   7.572   7.161   7.702  1.9725  4.3950 -3.6384
  145MOL0     H19951   7.487   7.359   7.567 -2.4163 -1.2039  0.7258
  145MOL0     H19952   7.610   7.394   7.687 -0.5832  0.7993  1.1723
  145MOL0     H19953   7.317   7.439   7.673  0.6576  2.2810 -2.0365
  145MOL0     H19954   7.391   7.436   7.835  2.3852 -0.1333  0.0288
  145MOL0     H19955   7.512   7.598   7.600  1.8074  2.9945  1.3921
  145MOL0     H19956   7.518   7.643   7.775 -1.6979 -1.0866  3.3760
  145MOL0     H19957   7.256   7.661   7.632  1.5209  1.2860 -3.2192
  145MOL0     H19958   7.329   7.728   7.784 -1.5717 -1.6124 -0.0590
  145MOL0     H19959   7.569   7.850   7.738  0.0815 -1.3567 -1.9300
  145MOL0     H19960   7.699   8.056   7.646 -0.3924  0.6269 -0.1748
  145MOL0     H19961   7.646   8.145   7.496 -0.1936 -0.0628 -0.8377
  145MOL0     H19962   7.724   7.934   7.372  2.9066 -1.0049 -1.7894
  145MOL0     H19963   7.841   8.042   7.408  1.3998 -2.0948 -1.4190
  145MOL0     H19964   7.890   7.922   7.638  1.1334  0.3504 -1.3669
  145MOL0     H19965   7.801   7.790   7.553 -0.3310  0.5682  2.3606
  145MOL0     H19966   8.069   7.922   7.466  1.8740 -1.2716  0.3560
  145MOL0     H19967   8.049   7.768   7.532  1.1418  2.1574  1.4776
  145MOL0     H19968   8.197   7.888   7.293  0.0208 -1.5353 -0.8368
  145MOL0     H19969   8.330   8.083   7.027  1.0167 -0.6166 -0.2594
  145MOL0     H19970   8.361   7.914   7.034  1.7326 -0.2231  2.3844
  145MOL0     H19971   8.363   8.003   7.184  1.9507  2.0774 -1.0796
  145MOL0     H19972   8.333   7.854   6.614  0.6137 -1.0651 -0.9821
  145MOL0     H19973   8.379   7.902   6.383  0.0839 -1.1557 -0.4055
  145MOL0     H19974   8.425   7.942   6.185  0.4238  0.1766 -0.0658
  145MOL0     H19975   8.273   7.857   6.130 -0.9137  0.5449  2.7781
  145MOL0     H19976   8.361   7.939   5.920  2.2527  0.6623 -1.4343
  145MOL0     H19977   8.281   8.091   5.972  0.0393 -0.6309 -0.1564
  145MOL0     H19978   8.492   8.168   6.070 -2.1254 -0.6681  0.6072
  145MOL0     H19979   8.491   8.162   5.893  0.5274  0.7400  0.1873
  145MOL0     H19980   8.578   7.925   5.913 -1.3562  0.5915  0.4000
  145MOL0     H19981   8.617   7.963   6.082 -0.1780 -0.8051 -0.5910
  145MOL0     H19982   8.814   7.996   5.910 -0.5376 -0.0579  3.8262
  145MOL0     H19983   8.712   8.121   5.827 -2.2909 -0.8596 -0.0382
  145MOL0     H19984   8.723   8.275   6.013 -1.6821 -0.7687  1.6374
  145MOL0     H19985   8.884   8.231   5.964  0.6208  0.8583  0.3629
  145MOL0     H19986   8.843   8.051   6.166 -4.3684 -2.2729 -0.3845
  145MOL0     H19987   8.704   8.136   6.201 -1.7262 -0.9155 -2.9014
  145MOL0     H19988   8.903   8.209   6.331  2.0618 -1.1334 -1.3572
  145MOL0     H19989   8.822   8.355   6.259  0.7692 -0.0750 -2.1951
  145MOL0     H19990   8.002   8.091   6.334 -0.2438 -0.5414 -0.4422
  145MOL0     H19991   7.956   8.066   6.583  0.7456  3.9738 -0.4878
  145MOL0     H19992   7.886   7.907   6.912  0.6134 -1.3319 -0.3018
  145MOL0     H19993   7.812   7.806   7.122  1.0966 -2.2559 -1.8881
  145MOL0     H19994   7.038   7.152   7.611  2.2908  0.6475  2.0656
  145MOL0     H19995   6.806   7.149   7.514 -0.2219  0.4094  0.1727
  145MOL0     H19996   6.479   7.129   7.422  1.4808 -1.8985  1.9105
  145MOL0     H19997   6.251   7.168   7.314 -0.5021  0.5430  0.3120
  145MOL0     H19998   6.071   6.854   7.071 -0.9267 -0.5159 -0.6710
  145MOL0     H19999   6.013   6.799   7.227 -2.6014 -1.0517 -0.3417
  145MOL0     H20000   5.819   6.855   7.099 -1.1060  1.0589  1.2397
  145MOL0     H20001   5.906   6.988   7.023  1.4802 -0.0005 -0.3748
  145MOL0     H20002   5.767   6.996   7.294 -0.4318 -1.1291  0.1507
  145MOL0     H20003   5.889   7.109   7.228 -0.9255  0.0781  0.7865
  145MOL0     H20004   5.636   7.032   7.098 -1.6231  1.7067 -0.3375
  145MOL0     H20005   5.739   7.153   7.037 -3.2855 -3.1601 -2.3376
  145MOL0     H20006   5.530   7.323   7.385 -2.5230 -2.4291 -0.4193
  145MOL0     H20007   6.236   6.746   7.220  0.3820  0.2856 -2.7203
  145MOL0     H20008   6.558   6.656   7.329 -0.2456 -1.7719  3.0827
  145MOL0     H20009   6.431   6.633   7.447  0.3564 -1.8636 -0.6688
  145MOL0     H20010   6.383   6.603   7.283 -0.6938 -0.7522 -0.0591
  146MOL0     O20011   0.852   6.098   9.302  0.2114 -0.4386  0.3080
  146MOL0     C20012   0.960   6.074   9.255 -0.6664  0.7735  0.6288
  146MOL0     O20013   1.042   6.160   9.192 -0.5952 -0.1328  0.6378
  146MOL0     C20014   0.986   6.271   9.141 -1.4896 -0.4960  0.2200
  146MOL0     C20015   0.954   6.278   9.009  0.3223  0.0398  1.2356
  146MOL0     C20016   0.902   6.393   8.956  0.3387  0.6030  0.0081
  146MOL0     C20017   0.881   6.505   9.042 -0.1558  0.2446 -0.6915
  146MOL0     O20018   0.831   6.634   9.006 -0.7138 -0.3717 -0.3892
  146MOL0     C20019   0.794   6.655   8.868 -0.2090 -0.4623  0.5682
  146MOL0     C20020   0.709   6.785   8.854  0.3673  0.0124  0.0116
  146MOL0     C20021   0.818   6.896   8.867  0.2439 -0.2469  0.0592
  146MOL0     C20022   0.735   7.023   8.872 -0.0021  0.2817 -0.7179
  146MOL0     C20023   0.820   7.141   8.846  0.2851 -0.0223 -0.2226
  146MOL0     C20024   0.911   7.163   8.968 -0.7884  0.0003  0.3056
  146MOL0     C20025   0.989   7.291   8.945  0.9061  0.0410  0.5042
  146MOL0     C20026   1.140   7.271   8.942 -0.0618  0.0754 -0.1565
  146MOL0     N20027   1.181   7.224   8.806 -0.1166  0.0709 -0.7231
  146MOL0     C20028   1.228   7.298   8.702  0.0689 -0.1554 -0.3924
  146MOL0     C20029   1.267   7.217   8.603 -0.9924 -0.5286  0.3872
  146MOL0     C20030   1.351   7.259   8.478 -0.0884  0.1595  0.4168
  146MOL0     C20031   1.266   7.321   8.367 -0.7770  0.3052 -0.4434
  146MOL0     C20032   1.352   7.352   8.241  0.0148  0.6073  0.3461
  146MOL0     C20033   1.259   7.409   8.137 -0.1044  0.4202  0.5378
  146MOL0     O20034   1.321   7.424   8.006  0.0116  0.4550  0.6383
  146MOL0     C20035   1.396   7.535   7.973 -0.0635 -0.6627  0.3112
  146MOL0     C20036   1.533   7.531   7.938 -0.1810  0.1108  0.0904
  146MOL0     C20037   1.606   7.639   7.894  0.3407 -0.0506 -0.1103
  146MOL0     C20038   1.754   7.617   7.869 -0.6707 -0.6429 -0.0456
  146MOL0     C20039   1.540   7.762   7.885 -0.3944  0.2659  0.2330
  146MOL0     C20040   1.620   7.877   7.847  0.7922  0.4359 -0.1777
  146MOL0     O20041   1.631   7.975   7.936  0.3435  0.0719  0.6070
  146MOL0     C20042   1.735   8.059   7.922 -1.0236  0.5686  0.0901
  146MOL0     C20043   1.865   8.013   7.898  0.8122 -0.4776 -0.4793
  146MOL0     C20044   1.968   8.097   7.885 -0.2936 -0.8178  0.2907
  146MOL0     C20045   1.945   8.239   7.896 -0.4633 -0.8873 -0.3201
  146MOL0     O20046   2.045   8.334   7.892  0.0214  0.1919 -0.0093
  146MOL0     C20047   2.158   8.301   7.812 -0.0892  0.1284 -0.3054
  146MOL0     C20048   2.258   8.417   7.818  0.2688  0.8213  0.3017
  146MOL0     C20049   2.215   8.541   7.745  0.4129  0.0412  0.7825
  146MOL0     C20050   2.152   8.519   7.602 -0.3513  0.3015  0.4469
  146MOL0     C20051   2.104   8.655   7.548  0.1882  0.3791 -0.7719
  146MOL0     C20052   2.014   8.625   7.434  0.6935  0.6520  0.2712
  146MOL0     C20053   1.938   8.747   7.389  0.2339  0.6670  0.6434
  146MOL0     C20054   1.849   8.718   7.265 -0.0928 -0.0687 -0.1157
  146MOL0    Cl20055   1.948   8.704   7.123 -0.1254  0.0193  0.7559
  146MOL0     C20056   1.821   8.284   7.918 -0.1344  0.1984 -0.7188
  146MOL0     C20057   1.714   8.196   7.937 -1.0317  0.5507  0.0484
  146MOL0     O20058   1.654   7.882   7.727 -0.6492 -0.0077 -0.0518
  146MOL0     C20059   1.413   7.772   7.927 -0.9677 -1.2908  0.1808
  146MOL0     C20060   1.342   7.663   7.964  0.7835  0.8309 -0.0379
  146MOL0     N20061   1.249   7.095   8.651 -0.9515  1.3513  1.1777
  146MOL0     N20062   1.188   7.095   8.757 -0.0182 -0.0856 -0.0746
  146MOL0     C20063   0.912   6.489   9.175  0.2024  0.4043  0.1289
  146MOL0     C20064   0.964   6.373   9.227  0.2618  0.2818 -0.4520
  146MOL0     C20065   1.008   5.930   9.268 -0.5182  0.2055 -0.3346
  146MOL0     C20066   0.923   5.824   9.240  0.6543 -0.3058 -0.8246
  146MOL0     C20067   0.971   5.693   9.245  0.2147  1.0803  1.1562
  146MOL0     C20068   1.095   5.662   9.290  0.6087 -0.4737 -0.4996
  146MOL0     O20069   1.151   5.537   9.295 -0.1317 -0.1000 -0.5582
  146MOL0     C20070   1.067   5.418   9.323 -0.2036 -0.1627 -0.6980
  146MOL0     C20071   1.047   5.401   9.472  0.6734 -0.3207  0.2545
  146MOL0     C20072   0.925   5.485   9.528 -0.2699 -0.0888  0.5371
  146MOL0     C20073   0.786   5.453   9.479  0.7041 -0.1922  0.3126
  146MOL0     C20074   0.750   5.309   9.467  0.0582 -0.3931 -0.0328
  146MOL0     C20075   0.725   5.192   9.450 -0.6154  0.0008  0.4310
  146MOL0     C20076   1.185   5.761   9.317 -0.3207  0.0014  0.4855
  146MOL0     C20077   1.140   5.897   9.317 -0.1879  0.2702 -0.0215
  146MOL0     C20078   1.239   6.000   9.356  0.2531 -0.6321 -0.8907
  146MOL0     H20079   0.991   6.197   8.948 -0.4968  1.3226 -1.1074
  146MOL0     H20080   0.898   6.393   8.848  0.3834 -1.7996 -0.0521
  146MOL0     H20081   0.746   6.563   8.833 -0.0576  0.8730 -3.7191
  146MOL0     H20082   0.886   6.669   8.811 -1.5828  1.8984 -1.2272
  146MOL0     H20083   0.647   6.782   8.765  0.3638 -0.7241  0.0331
  146MOL0     H20084   0.642   6.791   8.941 -0.0287  0.1567 -0.3019
  146MOL0     H20085   0.869   6.877   8.962  1.3239 -3.0344 -0.9667
  146MOL0     H20086   0.893   6.891   8.787  0.3537  2.4595 -0.0753
  146MOL0     H20087   0.655   7.019   8.797 -0.1807  3.5796 -0.8587
  146MOL0     H20088   0.680   7.035   8.966 -0.5949  1.3432 -1.1907
  146MOL0     H20089   0.750   7.225   8.837 -2.5800 -2.4546 -3.4888
  146MOL0     H20090   0.873   7.129   8.752 -3.0281 -1.6179 -2.0701
  146MOL0     H20091   0.851   7.167   9.060 -0.8689 -3.4747  0.5319
  146MOL0     H20092   0.977   7.077   8.981  1.1711  0.7395 -3.4629
  146MOL0     H20093   0.956   7.365   9.019  1.4290  2.6776 -1.7351
  146MOL0     H20094   0.957   7.345   8.855  0.9978  2.1075  1.6329
  146MOL0     H20095   1.192   7.363   8.969 -1.4545  0.8047  0.1239
  146MOL0     H20096   1.171   7.206   9.025  2.1045  2.5750  1.1244
  146MOL0     H20097   1.237   7.406   8.699  2.2265  0.0021  3.7004
  146MOL0     H20098   1.410   7.178   8.433  0.0162 -0.7731  2.1691
  146MOL0     H20099   1.432   7.328   8.505 -1.6611  2.2442  0.0728
  146MOL0     H20100   1.191   7.245   8.343 -1.3926  0.6460  0.3663
  146MOL0     H20101   1.210   7.408   8.400  1.3343  1.2905  0.7337
  146MOL0     H20102   1.428   7.428   8.263 -0.3571  1.5576 -1.4908
  146MOL0     H20103   1.408   7.266   8.202 -0.5577 -0.9843  2.7603
  146MOL0     H20104   1.167   7.351   8.122  0.1630  0.7542 -3.2082
  146MOL0     H20105   1.232   7.513   8.160 -1.5561  0.2601 -0.2649
  146MOL0     H20106   1.594   7.442   7.939 -1.8259 -1.0684  0.2154
  146MOL0     H20107   1.759   7.569   7.771 -0.3003 -2.4410  0.8148
  146MOL0     H20108   1.788   7.550   7.948 -0.7687 -0.2796  0.3088
  146MOL0     H20109   1.818   7.706   7.866  0.8308 -1.5802  1.8722
  146MOL0     H20110   1.893   7.908   7.899  0.8924 -0.4597  0.4805
  146MOL0     H20111   2.063   8.048   7.868  0.7560 -0.0334  3.2065
  146MOL0     H20112   2.202   8.213   7.859 -0.0363  0.2908 -0.0503
  146MOL0     H20113   2.126   8.283   7.709 -4.3700  1.6998  0.5368
  146MOL0     H20114   2.278   8.453   7.919 -3.5851  1.2834  1.0490
  146MOL0     H20115   2.349   8.376   7.774 -1.1672 -2.5437  0.2079
  146MOL0     H20116   2.302   8.601   7.717 -0.7541  0.4514 -2.2956
  146MOL0     H20117   2.155   8.597   7.817  1.8155 -0.9728  2.8731
  146MOL0     H20118   2.061   8.458   7.607 -0.6150  0.5800 -0.7534
  146MOL0     H20119   2.226   8.470   7.538 -2.7341 -1.8918 -0.8276
  146MOL0     H20120   2.053   8.697   7.634  2.5062 -3.0705  2.6029
  146MOL0     H20121   2.189   8.719   7.524  0.6976  0.1338  0.3271
  146MOL0     H20122   1.932   8.562   7.468 -1.2915  3.8659  1.9721
  146MOL0     H20123   2.071   8.576   7.354 -2.9575  0.3893 -2.4399
  146MOL0     H20124   2.011   8.824   7.363 -1.0776  1.2682 -1.5262
  146MOL0     H20125   1.873   8.777   7.471 -2.5375 -3.3110  0.1999
  146MOL0     H20126   1.777   8.797   7.244 -1.8337 -2.2520 -3.0955
  146MOL0     H20127   1.795   8.624   7.273  2.8372 -1.9290 -0.8127
  146MOL0     H20128   1.804   8.391   7.927 -1.4277 -0.0096 -0.4689
  146MOL0     H20129   1.621   8.248   7.957 -0.2533  1.5559  1.2329
  146MOL0     H20130   1.369   7.870   7.910 -1.3345 -1.8118 -2.3398
  146MOL0     H20131   1.241   7.682   7.997 -0.2753  0.4651 -2.7677
  146MOL0     H20132   0.899   6.574   9.241  0.1327 -0.6554  1.5187
  146MOL0     H20133   1.006   6.354   9.325  0.6004  1.8475 -0.2656
  146MOL0     H20134   0.827   5.842   9.194 -0.1037 -4.0096 -0.9732
  146MOL0     H20135   0.901   5.618   9.212 -0.0125  0.7722  2.2924
  146MOL0     H20136   0.972   5.435   9.270  0.2401 -1.1699 -1.8696
  146MOL0     H20137   1.118   5.333   9.276 -0.4129 -0.1080 -1.0321
  146MOL0     H20138   1.145   5.419   9.517  1.3537  0.0890 -1.3144
  146MOL0     H20139   1.024   5.295   9.490  0.6427  0.1169  3.2701
  146MOL0     H20140   0.928   5.451   9.632  0.2785  0.3071  0.6511
  146MOL0     H20141   0.950   5.590   9.512  2.1132 -0.7170 -0.3536
  146MOL0     H20142   0.768   5.494   9.379  1.9460 -1.4342 -0.4574
  146MOL0     H20143   0.710   5.497   9.544  2.0780  0.8663  1.2698
  146MOL0     H20144   0.707   5.090   9.420  2.0258 -0.0206 -1.4245
  146MOL0     H20145   1.289   5.736   9.336  0.1321 -1.4885 -3.0327
  146MOL0     H20146   1.206   6.055   9.444 -0.7907 -0.1376 -1.5722
  146MOL0     H20147   1.340   5.958   9.364  1.1922  1.8345  2.9818
  146MOL0     H20148   1.244   6.082   9.283 -0.6369  2.1911  2.0031
  147MOL0     O20149   4.422   8.580  10.446 -0.6429 -0.6946 -0.3828
  147MOL0     C20150   4.373   8.620  10.555 -0.3828  1.1756  0.1070
  147MOL0     O20151   4.445   8.627  10.671 -0.5335 -0.1887  0.0427
  147MOL0     C20152   4.570   8.573  10.664 -0.2506 -0.2687 -0.7247
  147MOL0     C20153   4.596   8.468  10.753 -0.0437 -0.2566  0.2158
  147MOL0     C20154   4.718   8.406  10.753  0.2278 -0.6489 -0.6004
  147MOL0     C20155   4.824   8.449  10.660 -0.0959 -0.0924  0.0265
  147MOL0     O20156   4.941   8.379  10.673 -0.3189  0.3496 -0.0676
  147MOL0     C20157   5.017   8.366  10.558  0.0130  0.0148  1.1370
  147MOL0     C20158   5.140   8.287  10.596 -0.9304 -0.1167 -0.2288
  147MOL0     C20159   5.207   8.259  10.457 -0.1798 -0.4840  0.6251
  147MOL0     C20160   5.327   8.175  10.498  0.8594  0.7264  0.1005
  147MOL0     C20161   5.406   8.123  10.376  0.3987 -0.4534  0.5573
  147MOL0     C20162   5.539   8.050  10.411  0.2114 -0.0670 -0.4132
  147MOL0     C20163   5.589   7.970  10.286 -0.2023 -0.7704 -0.0162
  147MOL0     C20164   5.721   7.902  10.280  0.4424  0.6020  0.3172
  147MOL0     N20165   5.825   7.990  10.237 -0.4338  0.0196  1.0932
  147MOL0     C20166   5.898   7.990  10.120  0.7008  0.2013 -0.1675
  147MOL0     C20167   6.004   8.067  10.136  1.1730  0.2119 -0.0846
  147MOL0     C20168   6.114   8.092  10.037 -0.1598 -0.6461  0.3232
  147MOL0     C20169   6.240   7.995  10.047 -0.6171 -1.0424 -0.6194
  147MOL0     C20170   6.340   8.035  10.148  0.5542  0.3599 -0.6863
  147MOL0     C20171   6.412   8.167  10.128  0.1857 -1.5233  0.1222
  147MOL0     O20172   6.399   8.209   9.991 -0.4071 -0.3682 -0.6219
  147MOL0     C20173   6.491   8.167   9.898 -0.3092 -0.8600 -0.0107
  147MOL0     C20174   6.465   8.206   9.766 -0.1767 -0.0305  0.9535
  147MOL0     C20175   6.540   8.172   9.650  1.0938 -0.1066  0.2096
  147MOL0     C20176   6.488   8.210   9.509  0.3727 -0.1152  0.0571
  147MOL0     C20177   6.650   8.088   9.673 -0.7060 -0.5679 -0.0530
  147MOL0     C20178   6.734   8.015   9.575 -0.2962  0.6163 -0.0927
  147MOL0     O20179   6.798   7.898   9.615  0.5113 -0.1084 -0.0829
  147MOL0     C20180   6.924   7.869   9.569 -0.8137 -0.3559 -0.1908
  147MOL0     C20181   6.974   7.742   9.570  0.0278  0.6373  0.6997
  147MOL0     C20182   7.097   7.708   9.514 -0.0410 -1.3260  0.3404
  147MOL0     C20183   7.191   7.805   9.481 -0.4346 -0.3043  0.7972
  147MOL0     O20184   7.326   7.787   9.447 -0.1113 -0.0017 -0.6170
  147MOL0     C20185   7.376   7.653   9.424  0.4647  1.0821 -0.5336
  147MOL0     C20186   7.476   7.669   9.322 -0.9343 -0.0314  0.7411
  147MOL0     C20187   7.524   7.543   9.235  1.1978 -0.8166 -1.1101
  147MOL0     C20188   7.412   7.513   9.122 -0.1355  0.1240 -0.3052
  147MOL0     C20189   7.467   7.392   9.043 -0.3326  0.4567 -0.8872
  147MOL0     C20190   7.360   7.352   8.938 -0.2368 -0.1426 -0.1546
  147MOL0     C20191   7.388   7.212   8.876 -0.7299  0.0481 -0.7275
  147MOL0     C20192   7.320   7.185   8.744 -0.4472  0.3036  1.0018
  147MOL0    Cl20193   7.351   7.301   8.616  0.0817  0.3347 -0.5515
  147MOL0     C20194   7.144   7.937   9.493 -0.6542  0.2727  0.1964
  147MOL0     C20195   7.012   7.970   9.527 -0.5657  0.9836  0.3862
  147MOL0     O20196   6.729   8.059   9.460 -0.0131 -0.3589 -0.4503
  147MOL0     C20197   6.684   8.050   9.812 -0.2849  0.4595 -0.4462
  147MOL0     C20198   6.606   8.089   9.922 -0.0768  0.1209 -0.5937
  147MOL0     N20199   6.002   8.114  10.269 -0.1003  0.4202  0.5639
  147MOL0     N20200   5.888   8.073  10.322 -0.5231  0.6347 -0.2789
  147MOL0     C20201   4.803   8.567  10.578  0.4440  0.8745 -0.1776
  147MOL0     C20202   4.675   8.628  10.583 -0.1365  0.0487 -0.2991
  147MOL0     C20203   4.228   8.645  10.555  0.6468  0.0471 -0.8336
  147MOL0     C20204   4.155   8.615  10.430  0.6151 -0.9335 -0.1642
  147MOL0     C20205   4.021   8.651  10.413  0.2797  0.1646 -1.5028
  147MOL0     C20206   3.946   8.696  10.524 -0.1817  0.2518 -0.5074
  147MOL0     O20207   3.812   8.740  10.504 -0.1566 -0.7700 -0.3234
  147MOL0     C20208   3.732   8.695  10.397  0.3398 -0.2653  0.6904
  147MOL0     C20209   3.583   8.726  10.426 -0.0683 -0.2759 -0.1150
  147MOL0     C20210   3.531   8.659  10.556  0.0228  1.3249  0.2477
  147MOL0     C20211   3.384   8.653  10.546 -0.3402  0.0821 -0.3408
  147MOL0     C20212   3.313   8.588  10.658 -0.4388 -0.3316  1.0741
  147MOL0     C20213   3.257   8.528  10.738  0.3761  0.1109  0.1034
  147MOL0     C20214   4.009   8.720  10.651  0.7434  0.0937 -0.4181
  147MOL0     C20215   4.149   8.684  10.666  0.2483 -0.4674  0.0182
  147MOL0     C20216   4.208   8.704  10.800 -0.1336  0.3218  0.1295
  147MOL0     H20217   4.518   8.419  10.810 -1.1883  1.1963 -0.0247
  147MOL0     H20218   4.734   8.315  10.811 -1.7355  0.3980  1.7498
  147MOL0     H20219   5.058   8.465  10.536  0.2117  0.1542  2.1205
  147MOL0     H20220   4.968   8.322  10.471 -1.2294  3.6567 -0.2232
  147MOL0     H20221   5.203   8.344  10.665 -0.7432  0.8463 -1.1550
  147MOL0     H20222   5.118   8.194  10.649  0.1718 -0.6993 -0.7606
  147MOL0     H20223   5.144   8.207  10.383 -3.0296  1.0233  1.8220
  147MOL0     H20224   5.246   8.346  10.404  2.8565 -3.3558 -2.4045
  147MOL0     H20225   5.396   8.236  10.558  0.6389  1.7631 -0.6872
  147MOL0     H20226   5.300   8.087  10.558  0.6028  0.1890 -0.7810
  147MOL0     H20227   5.430   8.202  10.305 -1.4160  2.4521  2.9550
  147MOL0     H20228   5.343   8.052  10.321  0.2441  0.8653 -1.0374
  147MOL0     H20229   5.610   8.124  10.449  1.4055 -0.0816 -2.4333
  147MOL0     H20230   5.532   7.987  10.500  0.0313 -2.8970 -2.2774
  147MOL0     H20231   5.585   8.041  10.202  1.3891  1.2314  1.4866
  147MOL0     H20232   5.509   7.895  10.288  0.1742 -1.1585  1.0600
  147MOL0     H20233   5.742   7.854  10.376 -1.2688 -3.4368 -1.1219
  147MOL0     H20234   5.703   7.829  10.200 -2.3488  2.4364 -0.9101
  147MOL0     H20235   5.874   7.937  10.028  0.7233  0.9652 -0.6183
  147MOL0     H20236   6.147   8.195  10.054 -0.9293  0.1049 -2.2559
  147MOL0     H20237   6.074   8.096   9.936  0.5972  0.3128  0.0468
  147MOL0     H20238   6.192   7.897  10.054 -0.1186 -1.1818  1.6753
  147MOL0     H20239   6.295   7.990   9.953  1.1349  0.1758  0.2761
  147MOL0     H20240   6.285   8.025  10.242  4.7313 -1.0279  1.8653
  147MOL0     H20241   6.421   7.963  10.161 -1.3206 -1.5025  1.5952
  147MOL0     H20242   6.362   8.243  10.190 -0.5508 -2.0113  0.1342
  147MOL0     H20243   6.515   8.160  10.163  0.6668  2.3691 -0.0221
  147MOL0     H20244   6.378   8.269   9.750 -1.2660 -0.6318  3.8460
  147MOL0     H20245   6.577   8.239   9.452  0.0611  0.2758 -0.2421
  147MOL0     H20246   6.426   8.300   9.513  0.6951  0.0901  0.7076
  147MOL0     H20247   6.444   8.123   9.460 -0.6258  0.1140  0.5239
  147MOL0     H20248   6.909   7.664   9.609  0.4657  0.3716  0.9049
  147MOL0     H20249   7.133   7.607   9.498 -0.0079 -0.9331 -2.7048
  147MOL0     H20250   7.414   7.612   9.518  3.8516  1.8000 -1.4509
  147MOL0     H20251   7.304   7.580   9.388 -0.1205  0.7328  1.2645
  147MOL0     H20252   7.445   7.753   9.259 -3.0809 -1.0538  0.3490
  147MOL0     H20253   7.565   7.705   9.375 -0.5459  1.5785 -0.8899
  147MOL0     H20254   7.532   7.453   9.295  0.2389 -1.6160 -2.1272
  147MOL0     H20255   7.622   7.567   9.194  1.1004  2.0579  0.1167
  147MOL0     H20256   7.407   7.596   9.052  0.9251  0.2650 -0.2177
  147MOL0     H20257   7.309   7.499   9.159 -1.5323  1.4521 -3.3626
  147MOL0     H20258   7.557   7.421   8.989  0.2773  2.3189  0.9801
  147MOL0     H20259   7.489   7.305   9.107 -0.0534 -0.1797 -1.8317
  147MOL0     H20260   7.357   7.430   8.861  1.0209  0.1829  0.1013
  147MOL0     H20261   7.261   7.349   8.983 -0.4726  1.0145 -0.5625
  147MOL0     H20262   7.382   7.127   8.944 -1.3843  0.0055 -0.8355
  147MOL0     H20263   7.495   7.206   8.851  0.0003  1.0019  1.8640
  147MOL0     H20264   7.214   7.175   8.769 -0.0944 -0.9919  2.1495
  147MOL0     H20265   7.350   7.087   8.707 -0.2883  0.9160 -0.5341
  147MOL0     H20266   7.214   8.013   9.457  1.8408 -2.5933 -1.4365
  147MOL0     H20267   6.971   8.070   9.525  0.1215  1.2882 -2.1320
  147MOL0     H20268   6.764   7.983   9.845 -0.9839  0.5304  1.5666
  147MOL0     H20269   6.624   8.062  10.026  1.5313 -0.8126 -1.0743
  147MOL0     H20270   4.874   8.605  10.504  2.9110  0.1621  1.6731
  147MOL0     H20271   4.645   8.723  10.539 -1.8286  0.9311  2.5228
  147MOL0     H20272   4.207   8.577  10.342  0.5643  0.4506 -0.8309
  147MOL0     H20273   3.985   8.649  10.310  0.5757 -1.4849 -1.6108
  147MOL0     H20274   3.765   8.730  10.299 -2.0474  0.6421  0.1497
  147MOL0     H20275   3.740   8.587  10.383 -3.8149 -0.9115  1.9703
  147MOL0     H20276   3.527   8.687  10.340  3.2435  0.2817 -2.7741
  147MOL0     H20277   3.569   8.835  10.427 -0.7350 -0.3609  0.1955
  147MOL0     H20278   3.578   8.565  10.588 -1.5689  1.1937  2.4656
  147MOL0     H20279   3.561   8.723  10.639  1.3637 -0.9288  1.6186
  147MOL0     H20280   3.356   8.596  10.457 -2.9985  0.4632  0.1596
  147MOL0     H20281   3.339   8.751  10.524  0.2370 -0.1044 -2.4982
  147MOL0     H20282   3.214   8.464  10.812 -2.9492 -1.1836 -2.6462
  147MOL0     H20283   3.958   8.769  10.733  1.8086  1.6057 -0.6059
  147MOL0     H20284   4.298   8.767  10.795 -0.1702  0.3224 -0.8154
  147MOL0     H20285   4.136   8.747  10.870 -1.0202  0.4372 -0.8294
  147MOL0     H20286   4.236   8.606  10.840  0.1977 -0.0811 -1.0430
  148MOL0     O20287   1.234   7.589   4.119  0.2191 -0.7786  0.3217
  148MOL0     C20288   1.275   7.697   4.163 -0.3991  0.3269  0.7650
  148MOL0     O20289   1.241   7.735   4.285  0.2067 -1.1253 -0.2640
  148MOL0     C20290   1.139   7.672   4.343  0.2262 -0.3759 -0.6510
  148MOL0     C20291   1.004   7.690   4.299 -0.7035  0.1309 -0.0665
  148MOL0     C20292   0.902   7.635   4.371  0.0002  0.4325  1.1622
  148MOL0     C20293   0.927   7.572   4.493 -0.3549  0.4514 -0.3699
  148MOL0     O20294   0.829   7.530   4.580  0.6337  0.2986  0.1594
  148MOL0     C20295   0.702   7.475   4.534 -0.6007  0.4063 -0.0444
  148MOL0     C20296   0.636   7.409   4.652 -0.7547  0.8984 -0.0366
  148MOL0     C20297   0.729   7.284   4.694  0.2266  0.3435  0.6572
  148MOL0     C20298   0.670   7.198   4.809 -0.4395  0.3474  0.8265
  148MOL0     C20299   0.581   7.082   4.767 -0.7649 -0.6485  0.6038
  148MOL0     C20300   0.442   7.125   4.788 -0.7493 -0.2657  0.2325
  148MOL0     C20301   0.342   7.016   4.764 -0.1497  1.0009  0.5017
  148MOL0     C20302   0.312   6.977   4.616 -0.1551  0.1126 -0.3220
  148MOL0     N20303   0.297   7.094   4.524 -0.8438 -0.0363 -0.4113
  148MOL0     C20304   0.188   7.180   4.501  0.7386 -0.3408  0.1303
  148MOL0     C20305   0.222   7.264   4.402 -0.2175 -0.4205  0.1657
  148MOL0     C20306   0.129   7.371   4.347 -0.4595 -0.1197 -0.7756
  148MOL0     C20307   0.138   7.504   4.420 -0.2574  0.3746  1.7703
  148MOL0     C20308   0.085   7.498   4.563 -0.5674 -0.1407 -0.3920
  148MOL0     C20309   0.119   7.610   4.662  0.5591  0.6808  0.5792
  148MOL0     O20310   0.257   7.615   4.694  0.0977 -0.4960  0.4133
  148MOL0     C20311   0.303   7.562   4.814 -0.5772 -0.9026 -0.4889
  148MOL0     C20312   0.229   7.459   4.889 -0.3769 -1.3479  0.5583
  148MOL0     C20313   0.290   7.386   4.992 -0.3168  1.2995 -0.2721
  148MOL0     C20314   0.203   7.288   5.078 -0.1080  0.3841 -0.1432
  148MOL0     C20315   0.426   7.416   5.017  0.4994 -0.0004 -0.1115
  148MOL0     C20316   0.507   7.348   5.125  0.7993 -0.3910  0.4013
  148MOL0     O20317   0.638   7.358   5.104 -0.4439 -0.4539 -0.2055
  148MOL0     C20318   0.729   7.339   5.208 -1.9314  0.5030 -0.1250
  148MOL0     C20319   0.859   7.315   5.170 -1.0800 -0.4722  0.0704
  148MOL0     C20320   0.960   7.293   5.262  0.3427  0.2737  0.3227
  148MOL0     C20321   0.934   7.299   5.401 -0.5387  0.8299  0.7764
  148MOL0     O20322   1.032   7.270   5.496  0.9623  0.0831 -1.4234
  148MOL0     C20323   1.015   7.312   5.637 -0.1043  0.3471  0.5570
  148MOL0     C20324   1.139   7.261   5.701  0.1179  0.1575 -0.4066
  148MOL0     C20325   1.267   7.320   5.634  0.3580 -0.2383 -0.0710
  148MOL0     C20326   1.392   7.269   5.702 -0.2532 -0.1962  0.4093
  148MOL0     C20327   1.524   7.344   5.647  0.1539  0.0043 -0.0795
  148MOL0     C20328   1.575   7.283   5.525  0.0195  0.6482 -0.1982
  148MOL0     C20329   1.698   7.336   5.467 -0.7245  0.7347 -0.3471
  148MOL0     C20330   1.779   7.218   5.396  0.7354 -0.0944 -0.9033
  148MOL0    Cl20331   1.692   7.162   5.254 -0.1721  0.0543  0.0620
  148MOL0     C20332   0.807   7.325   5.445  0.5238 -0.0437  0.0024
  148MOL0     C20333   0.702   7.340   5.350  0.2055  0.2923  0.3035
  148MOL0     O20334   0.457   7.291   5.222  0.0925 -0.4038 -0.6528
  148MOL0     C20335   0.492   7.522   4.956 -0.0366  0.1162  1.2671
  148MOL0     C20336   0.430   7.586   4.847 -0.1620 -0.6521  0.2277
  148MOL0     N20337   0.352   7.234   4.364  0.7551 -0.1695  0.6102
  148MOL0     N20338   0.401   7.142   4.445 -0.3223  0.4977  0.5070
  148MOL0     C20339   1.056   7.564   4.541  0.7637 -0.2952  0.6551
  148MOL0     C20340   1.158   7.622   4.473 -0.3600 -0.0356  0.4934
  148MOL0     C20341   1.378   7.771   4.086 -0.8723 -1.4048  0.3842
  148MOL0     C20342   1.451   7.702   3.990  0.8470  1.0545 -0.7029
  148MOL0     C20343   1.534   7.764   3.896  0.7415 -0.6363  0.4943
  148MOL0     C20344   1.553   7.903   3.894  1.2407  0.9806  1.3785
  148MOL0     O20345   1.644   7.961   3.802 -0.4286  0.1906 -0.2379
  148MOL0     C20346   1.744   8.040   3.870  0.0202 -0.3949 -0.6985
  148MOL0     C20347   1.883   8.027   3.814 -0.7367  0.2817  0.6993
  148MOL0     C20348   1.912   7.879   3.810  0.1937 -1.1664  0.7198
  148MOL0     C20349   2.061   7.850   3.776 -0.5450  0.8211  0.2494
  148MOL0     C20350   2.094   7.921   3.654 -0.9551  0.5261  1.2348
  148MOL0     C20351   2.123   7.974   3.549 -0.3246  0.4212 -0.1817
  148MOL0     C20352   1.489   7.977   3.994  0.1007  0.6877  0.6112
  148MOL0     C20353   1.417   7.911   4.097  0.1933 -0.1190 -0.1053
  148MOL0     C20354   1.364   8.002   4.211  0.7673  0.2578  0.4093
  148MOL0     H20355   0.992   7.739   4.203  0.0768  1.0436  0.2900
  148MOL0     H20356   0.797   7.628   4.344 -0.5177  3.3120  2.0697
  148MOL0     H20357   0.717   7.388   4.469 -0.5400 -2.5457  3.5858
  148MOL0     H20358   0.638   7.547   4.483  0.5501  1.8547  0.4900
  148MOL0     H20359   0.652   7.481   4.733  5.0994 -0.2766  0.2521
  148MOL0     H20360   0.529   7.389   4.641 -1.4243  1.4719  3.9730
  148MOL0     H20361   0.745   7.219   4.607  0.6780  2.6081 -1.0399
  148MOL0     H20362   0.826   7.323   4.723 -0.3800  2.9160 -0.5010
  148MOL0     H20363   0.757   7.154   4.860 -1.6216 -2.7040  0.4285
  148MOL0     H20364   0.620   7.258   4.885  0.8012  1.5292  0.7587
  148MOL0     H20365   0.614   7.001   4.833  0.6579  0.9667  1.9421
  148MOL0     H20366   0.608   7.051   4.666 -0.7532 -0.8328  0.6625
  148MOL0     H20367   0.434   7.149   4.895  2.5641 -0.3410  0.6073
  148MOL0     H20368   0.421   7.211   4.724  2.5751  0.0974 -0.5153
  148MOL0     H20369   0.249   7.037   4.818 -0.8934  0.4375 -0.5194
  148MOL0     H20370   0.380   6.930   4.820 -0.2064  1.8818  1.9281
  148MOL0     H20371   0.394   6.912   4.585  0.7239  0.7076  0.6710
  148MOL0     H20372   0.219   6.919   4.607 -1.2260  2.0738 -3.2733
  148MOL0     H20373   0.097   7.172   4.559 -2.2915  1.1950 -3.9204
  148MOL0     H20374   0.027   7.344   4.374 -0.1058  0.5630  1.4319
  148MOL0     H20375   0.136   7.368   4.238 -0.8066 -1.0217 -0.7799
  148MOL0     H20376   0.246   7.517   4.409 -0.1261 -2.2533 -2.9164
  148MOL0     H20377   0.086   7.588   4.370 -0.1229 -0.5454 -0.0056
  148MOL0     H20378  -0.022   7.482   4.548 -0.5556 -1.0221  0.4001
  148MOL0     H20379   0.118   7.410   4.618 -0.2368  0.4395  0.3633
  148MOL0     H20380   0.088   7.698   4.605  0.6758  2.3423  2.9214
  148MOL0     H20381   0.055   7.594   4.749 -0.4521  2.5167  0.2375
  148MOL0     H20382   0.125   7.444   4.859 -0.7131 -0.8010  1.4035
  148MOL0     H20383   0.177   7.319   5.180 -1.4646 -0.9912 -0.0260
  148MOL0     H20384   0.260   7.196   5.091 -0.8443 -0.1965 -0.9219
  148MOL0     H20385   0.110   7.261   5.027 -0.5999  1.8272 -0.0367
  148MOL0     H20386   0.888   7.320   5.066 -1.5107  2.3537  0.0245
  148MOL0     H20387   1.059   7.278   5.221  0.2797  0.8618 -0.0600
  148MOL0     H20388   0.996   7.417   5.663 -1.8499 -0.2695  2.0106
  148MOL0     H20389   0.933   7.246   5.668  0.6964 -2.2775 -2.4530
  148MOL0     H20390   1.149   7.296   5.804 -0.1460  1.2553 -0.7369
  148MOL0     H20391   1.127   7.152   5.700  1.4233 -0.1015  2.3531
  148MOL0     H20392   1.273   7.429   5.640  1.3879 -0.3191  0.4946
  148MOL0     H20393   1.275   7.291   5.529  1.1113 -4.7603  1.0203
  148MOL0     H20394   1.390   7.161   5.688 -1.4252 -0.3302  1.4010
  148MOL0     H20395   1.384   7.283   5.810  5.1529 -1.4426  1.2478
  148MOL0     H20396   1.488   7.445   5.625 -0.1951 -0.5026 -2.0282
  148MOL0     H20397   1.604   7.332   5.720 -1.4665 -5.0208  1.2913
  148MOL0     H20398   1.503   7.297   5.443  0.4277  0.6316 -0.5636
  148MOL0     H20399   1.585   7.174   5.536  0.5148  0.4407 -2.2956
  148MOL0     H20400   1.759   7.382   5.545  1.4609 -0.5286 -1.2132
  148MOL0     H20401   1.668   7.407   5.390 -2.8639  2.1249  1.6412
  148MOL0     H20402   1.794   7.137   5.469 -0.3397 -1.2757 -1.9582
  148MOL0     H20403   1.875   7.263   5.368  1.2594  1.3028  2.5322
  148MOL0     H20404   0.773   7.326   5.548 -2.9971  1.0835 -1.0581
  148MOL0     H20405   0.610   7.367   5.402 -0.1602  1.0992 -0.7264
  148MOL0     H20406   0.597   7.540   4.975  0.3052  0.2571 -0.5353
  148MOL0     H20407   0.487   7.658   4.789 -3.1608 -0.0664 -2.2478
  148MOL0     H20408   1.083   7.537   4.643  0.2797  0.3807  0.9723
  148MOL0     H20409   1.252   7.626   4.526 -0.5798 -0.4094  0.9177
  148MOL0     H20410   1.449   7.593   3.989  0.8204  0.9907  1.6225
  148MOL0     H20411   1.588   7.704   3.823  3.3265  1.8984  0.1530
  148MOL0     H20412   1.700   8.140   3.870  0.1956 -0.2797  1.1945
  148MOL0     H20413   1.747   8.014   3.976  1.9076 -2.7797 -1.2495
  148MOL0     H20414   1.949   8.094   3.869 -1.6483  0.9594  0.9863
  148MOL0     H20415   1.874   8.060   3.709  4.5510  0.3347 -0.0089
  148MOL0     H20416   1.876   7.849   3.909 -2.6596 -1.9267 -0.4540
  148MOL0     H20417   1.842   7.840   3.736 -1.3143  2.8713 -0.2726
  148MOL0     H20418   2.072   7.743   3.754  0.1881  0.9765 -0.1783
  148MOL0     H20419   2.130   7.876   3.857 -2.9643  0.3841  2.5780
  148MOL0     H20420   2.141   8.016   3.452 -3.6436  0.3096 -0.9616
  148MOL0     H20421   1.516   8.082   3.993  2.3080  0.1813  1.4898
  148MOL0     H20422   1.391   7.963   4.309  1.0546  1.5347  0.8554
  148MOL0     H20423   1.398   8.105   4.206  1.8443 -0.1233 -0.4454
  148MOL0     H20424   1.254   8.002   4.206  0.7296 -0.3521  1.0400
  149MOL0     O20425   5.317   3.057   0.844 -0.2893  0.4425 -0.0066
  149MOL0     C20426   5.394   2.956   0.830  0.3758  0.0281  0.6245
  149MOL0     O20427   5.349   2.832   0.815  0.8871  0.2592 -0.5795
  149MOL0     C20428   5.219   2.790   0.842  0.8263  0.8164 -0.6481
  149MOL0     C20429   5.142   2.808   0.962 -0.2933 -0.4300  0.5059
  149MOL0     C20430   5.014   2.761   0.967  0.4101 -0.3162 -0.4443
  149MOL0     C20431   4.954   2.686   0.863 -0.1723 -0.5583 -0.6744
  149MOL0     O20432   4.830   2.639   0.891  0.0578 -0.4267  0.2217
  149MOL0     C20433   4.753   2.598   0.778  0.1296  0.2176  0.2919
  149MOL0     C20434   4.606   2.584   0.820 -0.4312  0.7703  0.8879
  149MOL0     C20435   4.508   2.539   0.711  0.1828 -0.6240 -0.2477
  149MOL0     C20436   4.530   2.394   0.686 -0.2657  0.8000 -0.4681
  149MOL0     C20437   4.413   2.316   0.625  0.0494  0.1256 -0.2875
  149MOL0     C20438   4.440   2.157   0.617  0.2907  0.4427 -0.2660
  149MOL0     C20439   4.319   2.069   0.585  0.1188  0.0125  0.4299
  149MOL0     C20440   4.186   2.105   0.664  1.3340  1.2652  0.3363
  149MOL0     N20441   4.195   2.082   0.813 -0.2035  0.4297  0.1929
  149MOL0     C20442   4.259   2.168   0.899 -0.0436 -0.5472  0.0451
  149MOL0     C20443   4.283   2.087   1.000 -0.3110  0.2021 -0.7024
  149MOL0     C20444   4.355   2.137   1.122 -0.2205 -0.3514  0.8007
  149MOL0     C20445   4.354   2.038   1.233 -0.5967  0.0777 -0.0896
  149MOL0     C20446   4.400   2.091   1.360 -0.4165  0.2421 -1.0866
  149MOL0     C20447   4.402   1.978   1.469 -0.1718 -0.2160 -0.3659
  149MOL0     O20448   4.520   1.900   1.465  0.0633  0.7098 -0.4827
  149MOL0     C20449   4.629   1.947   1.529  0.3589 -0.6807  0.7950
  149MOL0     C20450   4.723   2.019   1.450 -0.4224  0.6751 -0.0921
  149MOL0     C20451   4.831   2.079   1.504 -0.3222  0.1667 -0.3654
  149MOL0     C20452   4.919   2.147   1.405 -0.3207 -0.8296  0.1730
  149MOL0     C20453   4.850   2.071   1.645 -0.6192  0.3500 -0.1824
  149MOL0     C20454   4.958   2.145   1.725  1.5282 -0.1980  1.2684
  149MOL0     O20455   5.017   2.091   1.833  0.1289  0.6827 -0.7297
  149MOL0     C20456   5.126   2.149   1.903  0.6957 -0.3194 -0.4198
  149MOL0     C20457   5.145   2.113   2.035  0.6430  0.0288 -0.8389
  149MOL0     C20458   5.241   2.177   2.115  0.5899  0.5392  0.7954
  149MOL0     C20459   5.327   2.280   2.060  0.1580  0.3168 -0.5820
  149MOL0     O20460   5.425   2.354   2.117 -0.4659  0.1781  0.1479
  149MOL0     C20461   5.452   2.335   2.259 -0.3311 -0.3431 -0.0897
  149MOL0     C20462   5.559   2.412   2.334 -0.8493 -0.5045 -0.3541
  149MOL0     C20463   5.588   2.552   2.276 -0.3176 -0.6113  0.4082
  149MOL0     C20464   5.462   2.643   2.261 -0.1548 -0.2371  0.7125
  149MOL0     C20465   5.490   2.796   2.250 -0.2260 -0.0764 -0.2700
  149MOL0     C20466   5.356   2.862   2.219 -0.2628 -1.1671  0.3597
  149MOL0     C20467   5.377   3.001   2.176 -0.7721 -0.2441 -0.7400
  149MOL0     C20468   5.248   3.059   2.114  0.2357 -0.5675  0.1203
  149MOL0    Cl20469   5.114   3.032   2.235 -0.4418  0.0063 -0.1542
  149MOL0     C20470   5.314   2.296   1.923 -0.1880 -0.0362  0.2681
  149MOL0     C20471   5.223   2.226   1.847  0.6105 -0.3978  0.2247
  149MOL0     O20472   4.979   2.253   1.684 -0.6551  0.4455 -0.0517
  149MOL0     C20473   4.779   1.981   1.710  0.0790  0.5544  0.5359
  149MOL0     C20474   4.655   1.930   1.661 -0.0862  0.5226  0.3025
  149MOL0     N20475   4.221   1.966   0.992  0.9707 -0.0483  0.0595
  149MOL0     N20476   4.158   1.966   0.879 -0.7118 -0.1861 -0.7899
  149MOL0     C20477   5.033   2.651   0.752 -0.2583  0.1856  0.2427
  149MOL0     C20478   5.158   2.710   0.743 -1.2104 -0.6126 -0.0682
  149MOL0     C20479   5.544   2.985   0.841  0.8066 -1.3351 -0.1037
  149MOL0     C20480   5.587   3.120   0.857  0.5291  0.0011  0.0073
  149MOL0     C20481   5.719   3.160   0.855  0.6674  1.0378  0.7556
  149MOL0     C20482   5.823   3.062   0.840  0.7469  0.3408 -0.4740
  149MOL0     O20483   5.941   3.111   0.806  0.0220  0.0549 -0.8012
  149MOL0     C20484   5.993   3.065   0.678 -0.2929 -0.6563  0.6483
  149MOL0     C20485   6.136   3.029   0.680 -0.9539  0.4088 -0.2186
  149MOL0     C20486   6.233   3.133   0.730  0.0836  0.3457  0.5668
  149MOL0     C20487   6.275   3.112   0.873  0.5206  0.7019 -0.1676
  149MOL0     C20488   6.366   2.995   0.893  0.5260 -0.7549  0.2092
  149MOL0     C20489   6.443   2.905   0.900 -0.0679 -0.7692 -0.1965
  149MOL0     C20490   5.783   2.931   0.836  0.8806  0.7491 -0.4000
  149MOL0     C20491   5.647   2.886   0.841 -1.1285 -0.2519  0.0063
  149MOL0     C20492   5.628   2.739   0.840 -0.3927 -0.3672  0.0599
  149MOL0     H20493   5.192   2.868   1.037 -0.8081  1.4721 -0.6278
  149MOL0     H20494   4.962   2.783   1.061 -1.0316  2.0018 -1.6637
  149MOL0     H20495   4.791   2.502   0.743  0.1734  0.5329 -0.5392
  149MOL0     H20496   4.773   2.660   0.690  1.6077  0.9609  1.0951
  149MOL0     H20497   4.606   2.522   0.910  0.1843  1.1618  1.1694
  149MOL0     H20498   4.577   2.683   0.858  2.4257  2.8441 -1.8278
  149MOL0     H20499   4.404   2.557   0.736  0.2645  1.4152 -1.1849
  149MOL0     H20500   4.520   2.597   0.619 -0.5302  1.0351  0.6705
  149MOL0     H20501   4.628   2.381   0.638 -0.5819  0.9888 -1.1771
  149MOL0     H20502   4.537   2.336   0.778 -0.4281 -0.5845 -1.2936
  149MOL0     H20503   4.398   2.348   0.522 -1.0695  1.6281  0.3213
  149MOL0     H20504   4.326   2.331   0.689  0.1433 -0.8728  0.0969
  149MOL0     H20505   4.516   2.123   0.545 -0.9800 -0.9964 -0.9995
  149MOL0     H20506   4.471   2.126   0.717  0.3717  0.5185 -0.2679
  149MOL0     H20507   4.347   1.965   0.604 -2.3970 -0.8044 -0.0054
  149MOL0     H20508   4.303   2.079   0.477 -1.6734 -2.5385  0.3651
  149MOL0     H20509   4.148   2.199   0.623  3.6986  1.1171 -2.5144
  149MOL0     H20510   4.110   2.030   0.638  4.3478 -2.0804  0.4535
  149MOL0     H20511   4.300   2.268   0.893 -3.0839  0.9363  1.7051
  149MOL0     H20512   4.320   2.236   1.151  0.2991  0.4386 -1.1577
  149MOL0     H20513   4.461   2.146   1.097 -0.3076  1.8887  1.0227
  149MOL0     H20514   4.245   2.022   1.231 -1.1055  3.0343 -2.1712
  149MOL0     H20515   4.408   1.946   1.210  0.4305 -0.3023  3.3352
  149MOL0     H20516   4.494   2.144   1.343 -1.2592  1.9475 -0.6901
  149MOL0     H20517   4.331   2.161   1.409 -1.4727 -1.5560  0.1116
  149MOL0     H20518   4.388   2.015   1.571 -0.2071 -0.0410 -0.4351
  149MOL0     H20519   4.323   1.905   1.451 -1.1289  0.0471  2.2712
  149MOL0     H20520   4.710   2.027   1.343 -1.3859  0.4548 -0.0077
  149MOL0     H20521   4.970   2.233   1.451 -0.6684 -1.7897  2.4960
  149MOL0     H20522   4.851   2.184   1.328  1.5201  0.8584 -0.7391
  149MOL0     H20523   4.992   2.076   1.366  1.7668  0.8360  0.8187
  149MOL0     H20524   5.077   2.043   2.084  2.4873  0.0279  1.9209
  149MOL0     H20525   5.230   2.159   2.221 -2.2090  1.3721  0.7212
  149MOL0     H20526   5.361   2.362   2.313  0.9905 -1.0495  2.6408
  149MOL0     H20527   5.480   2.231   2.278  0.3451 -0.2938 -0.7694
  149MOL0     H20528   5.542   2.419   2.442  1.7462 -1.1720  0.1522
  149MOL0     H20529   5.655   2.360   2.327  1.1020  1.9621  4.0158
  149MOL0     H20530   5.634   2.546   2.177 -1.2799  1.0560 -0.2026
  149MOL0     H20531   5.674   2.595   2.327  0.0839  0.5505 -1.1640
  149MOL0     H20532   5.390   2.632   2.343 -2.8299 -0.6336 -1.5594
  149MOL0     H20533   5.414   2.608   2.169 -0.1669  1.7671 -0.0838
  149MOL0     H20534   5.520   2.831   2.349 -1.2465  1.4864 -0.4658
  149MOL0     H20535   5.564   2.823   2.174 -1.7802  0.9229 -1.4996
  149MOL0     H20536   5.287   2.871   2.304 -1.3487  0.0983 -0.6137
  149MOL0     H20537   5.303   2.809   2.139 -1.9770 -0.9167  1.2791
  149MOL0     H20538   5.450   3.021   2.098 -2.0307  4.1861 -1.0290
  149MOL0     H20539   5.404   3.060   2.264 -0.0694  0.1692 -1.2255
  149MOL0     H20540   5.226   3.001   2.024 -1.3845  0.3552 -0.1192
  149MOL0     H20541   5.261   3.165   2.087  3.9097  1.0760  6.3070
  149MOL0     H20542   5.379   2.369   1.876  2.3373 -1.1632  1.7831
  149MOL0     H20543   5.222   2.255   1.742 -1.0684  0.1278  0.3598
  149MOL0     H20544   4.805   1.961   1.814  2.6516 -0.7312 -0.2695
  149MOL0     H20545   4.583   1.868   1.713 -0.8787  1.4784  0.3702
  149MOL0     H20546   5.003   2.575   0.681  3.4474  0.1888 -1.5723
  149MOL0     H20547   5.214   2.691   0.652  1.7304  2.0716  0.9711
  149MOL0     H20548   5.516   3.201   0.873  1.5907  0.4407  3.5773
  149MOL0     H20549   5.745   3.264   0.870 -0.5759  1.0558  3.2196
  149MOL0     H20550   5.926   2.991   0.633 -0.0483 -0.8746  0.6459
  149MOL0     H20551   5.983   3.151   0.611  2.0614  0.0024  1.0525
  149MOL0     H20552   6.165   2.994   0.580 -1.3323 -2.7145  0.6500
  149MOL0     H20553   6.151   2.938   0.740 -1.3695  1.8978  2.2837
  149MOL0     H20554   6.313   3.141   0.656 -1.9908  0.4472 -1.8111
  149MOL0     H20555   6.168   3.221   0.725 -0.2426  0.0327 -2.0157
  149MOL0     H20556   6.187   3.093   0.935 -0.1228 -2.6443 -1.8540
  149MOL0     H20557   6.333   3.198   0.906  0.7001  0.4124  0.2832
  149MOL0     H20558   6.513   2.826   0.921  0.3623 -0.0216  1.3029
  149MOL0     H20559   5.866   2.861   0.839  2.2087  2.2688  2.6077
  149MOL0     H20560   5.720   2.680   0.841 -0.8965 -1.3164  3.1447
  149MOL0     H20561   5.565   2.703   0.923 -1.9181  0.3743 -0.7363
  149MOL0     H20562   5.573   2.707   0.751 -0.4878 -1.2286  0.4160
  150MOL0     O20563   7.272   8.704   9.856  0.3225  0.1926  0.0800
  150MOL0     C20564   7.260   8.596   9.797 -0.3255 -1.0467 -0.2713
  150MOL0     O20565   7.140   8.538   9.768  0.0121  0.6510  0.2328
  150MOL0     C20566   7.026   8.610   9.769 -0.3127  0.2661 -0.1763
  150MOL0     C20567   6.978   8.702   9.864 -0.0196 -0.2335 -1.0335
  150MOL0     C20568   6.853   8.763   9.851  0.2785 -1.5958  0.0117
  150MOL0     C20569   6.782   8.756   9.730 -1.1021  0.8022  0.8355
  150MOL0     O20570   6.670   8.832   9.699  0.0779 -0.4649  0.2635
  150MOL0     C20571   6.638   8.945   9.791  0.0450  0.2826  0.4577
  150MOL0     C20572   6.520   9.013   9.747 -0.4430  0.3734  0.3603
  150MOL0     C20573   6.391   8.934   9.780 -0.5783 -0.3516 -0.1458
  150MOL0     C20574   6.267   9.008   9.739  0.6627  0.8654  0.4097
  150MOL0     C20575   6.148   8.947   9.801  0.2369 -0.5448 -0.3615
  150MOL0     C20576   6.014   8.987   9.733  0.7831 -0.2518  0.6618
  150MOL0     C20577   5.949   9.126   9.754 -0.6792 -0.0632  0.5662
  150MOL0     C20578   5.929   9.189   9.614 -0.5409  0.0281  0.0434
  150MOL0     N20579   5.863   9.318   9.620  0.2930  1.2676  0.0953
  150MOL0     C20580   5.728   9.332   9.584  0.2053  0.1594 -0.5642
  150MOL0     C20581   5.709   9.465   9.593  0.5570  0.7687  0.2270
  150MOL0     C20582   5.579   9.537   9.565  0.0824  0.8157  0.8191
  150MOL0     C20583   5.512   9.489   9.440  0.5265  0.0460  0.2883
  150MOL0     C20584   5.404   9.586   9.398 -0.0661 -0.1987  0.3708
  150MOL0     C20585   5.297   9.602   9.499  0.8489  0.1289  0.2948
  150MOL0     O20586   5.254   9.462   9.534 -0.2508 -0.2922  0.0974
  150MOL0     C20587   5.143   9.410   9.472 -0.6791  0.0464  0.1141
  150MOL0     C20588   5.067   9.320   9.545 -0.3257  0.0297  0.0677
  150MOL0     C20589   4.938   9.270   9.503 -0.7927  0.6384  1.0487
  150MOL0     C20590   4.865   9.174   9.600  0.1397  0.0473  0.2997
  150MOL0     C20591   4.892   9.311   9.382  0.6623  0.2978  0.9687
  150MOL0     C20592   4.770   9.249   9.310 -0.0925 -0.2932 -0.9963
  150MOL0     O20593   4.744   9.290   9.184  0.1576  0.6277 -0.2655
  150MOL0     C20594   4.663   9.241   9.092  0.0602 -0.2362 -0.0238
  150MOL0     C20595   4.556   9.158   9.103  0.7315  0.0704  0.3836
  150MOL0     C20596   4.488   9.111   8.988 -0.6802 -0.7528  0.0565
  150MOL0     C20597   4.541   9.144   8.862 -0.8883 -0.4722  0.1752
  150MOL0     O20598   4.500   9.097   8.740 -1.2839 -0.3439 -0.0953
  150MOL0     C20599   4.362   9.108   8.698  0.7698 -0.4807 -0.0663
  150MOL0     C20600   4.306   9.241   8.657  0.1951  0.0383  0.3731
  150MOL0     C20601   4.309   9.276   8.515 -0.2034  0.2550  0.4386
  150MOL0     C20602   4.207   9.387   8.471  0.0648 -0.2378  0.0932
  150MOL0     C20603   4.222   9.410   8.311  1.0473 -0.6023  0.2038
  150MOL0     C20604   4.109   9.497   8.257  0.2943  0.2749 -0.5805
  150MOL0     C20605   4.108   9.535   8.115 -0.3684 -0.5418  0.5804
  150MOL0     C20606   4.129   9.424   8.015 -0.6428  0.0633 -0.0776
  150MOL0    Cl20607   4.000   9.308   8.016 -0.2478 -0.5154  0.4798
  150MOL0     C20608   4.647   9.226   8.846  0.3319 -0.5294 -1.1034
  150MOL0     C20609   4.712   9.270   8.960  0.4239  0.7143 -0.2279
  150MOL0     O20610   4.698   9.178   9.376 -0.4195  0.8161 -0.1904
  150MOL0     C20611   4.970   9.400   9.298 -0.7508 -0.5512  0.0653
  150MOL0     C20612   5.089   9.459   9.352  0.0059 -0.2899  0.4310
  150MOL0     N20613   5.829   9.519   9.654 -0.0604  0.3117  0.2052
  150MOL0     N20614   5.921   9.431   9.661  1.0954  0.1134 -0.5546
  150MOL0     C20615   6.828   8.667   9.632 -0.2043 -1.0287  0.4141
  150MOL0     C20616   6.942   8.583   9.657 -0.5943 -0.3119 -0.0153
  150MOL0     C20617   7.384   8.529   9.758 -0.4921 -0.0295  0.4683
  150MOL0     C20618   7.495   8.554   9.836  0.5002 -0.3487  0.3307
  150MOL0     C20619   7.613   8.489   9.808 -1.2349  0.2883 -0.0023
  150MOL0     C20620   7.631   8.408   9.696  0.6993 -0.6856 -0.4461
  150MOL0     O20621   7.744   8.340   9.664 -0.5573  0.1895 -0.7727
  150MOL0     C20622   7.865   8.335   9.752  0.6931  1.2229  0.6174
  150MOL0     C20623   7.984   8.402   9.703  0.0473  0.2072 -0.8449
  150MOL0     C20624   7.999   8.374   9.551  0.5557 -0.0581  0.2223
  150MOL0     C20625   8.131   8.435   9.502 -0.4958  0.6032 -0.6399
  150MOL0     C20626   8.252   8.385   9.577  0.3565  0.4618  1.2186
  150MOL0     C20627   8.354   8.339   9.619 -0.2334  0.6983  0.3256
  150MOL0     C20628   7.524   8.392   9.605 -0.2658 -0.1298 -0.2510
  150MOL0     C20629   7.399   8.456   9.639  0.5848 -0.1710  0.0451
  150MOL0     C20630   7.296   8.435   9.527  0.2983 -0.2363 -0.9773
  150MOL0     H20631   7.022   8.733   9.958 -1.6725  0.2911 -0.3871
  150MOL0     H20632   6.827   8.834   9.929  0.8362  0.0567 -1.2646
  150MOL0     H20633   6.711   9.025   9.798 -1.4610  2.1416 -2.6136
  150MOL0     H20634   6.615   8.909   9.891  1.2748 -0.8854  0.3483
  150MOL0     H20635   6.509   9.111   9.795 -1.5605  0.2163  0.4682
  150MOL0     H20636   6.519   9.024   9.639  1.7096 -2.5515 -0.0566
  150MOL0     H20637   6.397   8.828   9.753  1.6378 -0.8323  1.8732
  150MOL0     H20638   6.383   8.922   9.888  0.6235  1.0271  0.1207
  150MOL0     H20639   6.268   9.112   9.774 -1.7694  2.1746 -2.8479
  150MOL0     H20640   6.250   9.015   9.631  2.4995 -2.3406 -0.1996
  150MOL0     H20641   6.140   8.980   9.905  0.8510 -0.2736 -0.3982
  150MOL0     H20642   6.163   8.839   9.790 -0.3095 -0.7159  0.4536
  150MOL0     H20643   6.024   8.958   9.628 -1.6727 -1.2654  0.6186
  150MOL0     H20644   5.938   8.917   9.772 -3.2307  2.0077 -2.3070
  150MOL0     H20645   6.029   9.186   9.800  2.6879 -0.5778 -3.8921
  150MOL0     H20646   5.859   9.111   9.813 -0.8104 -1.2781  0.0716
  150MOL0     H20647   6.025   9.195   9.561  0.2535  2.4519  1.5755
  150MOL0     H20648   5.869   9.118   9.558 -1.5621 -0.3929  1.5844
  150MOL0     H20649   5.668   9.247   9.555  0.4030  0.3749 -1.6577
  150MOL0     H20650   5.602   9.643   9.549  1.7852  0.2443 -0.7798
  150MOL0     H20651   5.514   9.530   9.653 -1.8739  3.0122 -0.3367
  150MOL0     H20652   5.598   9.489   9.373  0.8890  1.5151  0.7260
  150MOL0     H20653   5.466   9.390   9.454  1.1140 -0.6071 -1.9859
  150MOL0     H20654   5.451   9.681   9.372  1.8696 -1.5396 -1.4305
  150MOL0     H20655   5.355   9.558   9.304  2.9518  1.5885 -1.8974
  150MOL0     H20656   5.331   9.653   9.590 -0.2557  1.3648  0.0491
  150MOL0     H20657   5.211   9.655   9.459  0.1216 -0.4945  1.0058
  150MOL0     H20658   5.101   9.283   9.641 -1.0041 -1.6040 -0.2896
  150MOL0     H20659   4.916   9.176   9.696 -0.4756  2.0696  0.6296
  150MOL0     H20660   4.864   9.068   9.572  2.0055  0.0087  0.2616
  150MOL0     H20661   4.763   9.204   9.624 -0.5270 -2.5082  0.8837
  150MOL0     H20662   4.512   9.157   9.202 -0.8096  0.8741 -0.2575
  150MOL0     H20663   4.396   9.061   9.016 -1.6281  1.3411  0.8270
  150MOL0     H20664   4.350   9.037   8.616  1.7177 -2.1587  1.1808
  150MOL0     H20665   4.296   9.087   8.783 -0.5930  5.5728  0.8184
  150MOL0     H20666   4.201   9.248   8.688 -1.0846 -0.0778 -3.3531
  150MOL0     H20667   4.358   9.322   8.709 -0.3399  2.5589 -2.6772
  150MOL0     H20668   4.285   9.193   8.447 -3.3566  1.4305 -0.0509
  150MOL0     H20669   4.407   9.312   8.485 -0.7773  0.1903 -1.7053
  150MOL0     H20670   4.217   9.477   8.533  1.5331  0.5692 -1.2580
  150MOL0     H20671   4.101   9.361   8.482 -0.4829  0.3610 -3.0543
  150MOL0     H20672   4.314   9.467   8.293  1.2582 -0.7871  0.6852
  150MOL0     H20673   4.221   9.308   8.273  0.4860 -1.4945  2.4475
  150MOL0     H20674   4.125   9.592   8.309  1.6642  0.2397 -0.9061
  150MOL0     H20675   4.014   9.444   8.271  0.2928  0.8909  2.3049
  150MOL0     H20676   4.192   9.605   8.104 -2.2570  1.9247  0.7740
  150MOL0     H20677   4.016   9.585   8.082  0.3320 -0.2713 -1.0941
  150MOL0     H20678   4.226   9.381   8.039 -1.3570 -2.2353 -1.0400
  150MOL0     H20679   4.136   9.472   7.917 -4.6739 -0.8048 -0.9931
  150MOL0     H20680   4.691   9.243   8.749  0.9994 -0.3790 -0.7810
  150MOL0     H20681   4.798   9.335   8.945 -0.5034  2.4148  1.3764
  150MOL0     H20682   4.933   9.448   9.209 -0.5037 -0.7990 -0.1718
  150MOL0     H20683   5.140   9.530   9.287 -1.0387 -1.1480 -1.4044
  150MOL0     H20684   6.785   8.667   9.533 -1.0375 -0.2308  0.7613
  150MOL0     H20685   6.985   8.524   9.577 -0.8571 -1.8540  0.9262
  150MOL0     H20686   7.485   8.618   9.923 -0.0747 -0.6407  0.4799
  150MOL0     H20687   7.706   8.498   9.863  1.0417  0.3319 -3.5714
  150MOL0     H20688   7.840   8.357   9.856  0.0641  1.0814  0.5000
  150MOL0     H20689   7.899   8.232   9.746  0.9201  1.3122  0.3626
  150MOL0     H20690   8.066   8.380   9.772  1.5883  0.7305 -2.4306
  150MOL0     H20691   7.966   8.508   9.722  2.4878  0.2793  1.5918
  150MOL0     H20692   8.008   8.267   9.529 -3.1524 -0.2717 -0.8818
  150MOL0     H20693   7.924   8.422   9.488  1.8863  2.2058  0.2827
  150MOL0     H20694   8.121   8.543   9.515  2.7449  0.8903  0.3108
  150MOL0     H20695   8.140   8.408   9.396 -1.8241  0.0766 -0.6370
  150MOL0     H20696   8.447   8.291   9.645 -0.0499  1.4517  1.1279
  150MOL0     H20697   7.540   8.329   9.518  1.2247 -0.2664  0.0926
  150MOL0     H20698   7.330   8.401   9.429 -2.6141 -3.0824 -1.1649
  150MOL0     H20699   7.225   8.362   9.568  1.3847 -1.1208 -0.6256
  150MOL0     H20700   7.239   8.528   9.519  1.7726  0.9149  0.8762
  151MOL0     O20701  10.263   8.720   0.811 -0.1196  0.2683 -0.9153
  151MOL0     C20702  10.155   8.758   0.762 -0.2767 -0.0343 -0.4049
  151MOL0     O20703  10.153   8.852   0.663  0.1441 -0.0432 -0.5717
  151MOL0     C20704  10.264   8.910   0.609  0.5819 -1.0505  0.1984
  151MOL0     C20705  10.272   8.928   0.470  0.3319  1.0486 -0.2335
  151MOL0     C20706  10.378   8.984   0.404 -0.5296  0.3765  0.2618
  151MOL0     C20707  10.478   9.039   0.484  0.8077 -0.2463 -0.5975
  151MOL0     O20708  10.579   9.112   0.425  0.1754 -0.7753  0.0254
  151MOL0     C20709  10.648   9.047   0.326 -0.0443 -0.3876  0.7474
  151MOL0     C20710  10.787   9.113   0.313  0.1207 -0.5420 -0.0543
  151MOL0     C20711  10.886   9.082   0.423  0.3212 -0.2629 -0.2353
  151MOL0     C20712  10.978   9.191   0.463  0.0391  0.1730  0.5301
  151MOL0     C20713  11.095   9.143   0.565 -0.9505 -0.5351 -0.0148
  151MOL0     C20714  11.218   9.244   0.561 -0.8361 -0.2722  0.6766
  151MOL0     C20715  11.312   9.189   0.665 -0.1724 -0.4378 -0.3670
  151MOL0     C20716  11.427   9.277   0.688 -0.4682 -0.4066  0.0506
  151MOL0     N20717  11.533   9.267   0.583 -0.0923  0.0104 -0.8714
  151MOL0     C20718  11.640   9.352   0.565 -0.5169 -0.3251  0.3207
  151MOL0     C20719  11.706   9.304   0.463 -0.4598 -0.9138 -0.0049
  151MOL0     C20720  11.833   9.367   0.414 -0.1116 -0.5262 -0.0824
  151MOL0     C20721  11.962   9.296   0.463 -0.2722  0.1195 -0.5207
  151MOL0     C20722  12.093   9.350   0.410 -0.2643  0.4541  0.3423
  151MOL0     C20723  12.104   9.379   0.260 -0.6928 -0.8065 -0.2609
  151MOL0     O20724  12.037   9.507   0.242  0.0227 -0.0487 -0.0169
  151MOL0     C20725  12.010   9.556   0.120  0.5987  0.2088  0.4341
  151MOL0     C20726  12.090   9.535   0.011 -0.0826  0.7281  0.3385
  151MOL0     C20727  12.067   9.610  -0.107 -0.6660 -0.3427  0.0069
  151MOL0     C20728  12.156   9.583  -0.230  0.2898 -0.7182 -0.8850
  151MOL0     C20729  11.959   9.702  -0.116 -0.2748  0.1495  0.4652
  151MOL0     C20730  11.915   9.781  -0.235  0.4261 -0.7918  0.4174
  151MOL0     O20731  11.780   9.822  -0.236 -0.0380  0.1244 -0.1552
  151MOL0     C20732  11.711   9.886  -0.343  0.5481  0.2697 -0.6597
  151MOL0     C20733  11.749   9.905  -0.479  0.7325  0.5255 -0.2239
  151MOL0     C20734  11.659   9.981  -0.557  0.3405 -0.4665 -0.1864
  151MOL0     C20735  11.531  10.030  -0.513 -0.0202 -1.1188  0.6881
  151MOL0     O20736  11.434  10.096  -0.599  0.5621  0.0091 -0.2605
  151MOL0     C20737  11.419  10.033  -0.726  0.7345  0.1676  0.5888
  151MOL0     C20738  11.302  10.093  -0.804 -0.0754  0.3853 -0.6865
  151MOL0     C20739  11.171  10.059  -0.732  0.4884 -0.6444 -0.2077
  151MOL0     C20740  11.056  10.137  -0.800 -0.3386 -0.3843  0.1583
  151MOL0     C20741  10.918  10.089  -0.751 -0.4698 -1.3565  0.1168
  151MOL0     C20742  10.805  10.146  -0.838  0.0701 -0.0160 -0.1023
  151MOL0     C20743  10.659  10.136  -0.779  0.0082  0.1313  0.3743
  151MOL0     C20744  10.554  10.220  -0.861 -1.0254  0.1717 -0.3769
  151MOL0    Cl20745  10.543  10.150  -1.020  0.4319 -0.2146 -0.1628
  151MOL0     C20746  11.504  10.019  -0.377  0.8896  0.3269 -0.3075
  151MOL0     C20747  11.583   9.930  -0.297  0.2837  0.2636  0.0009
  151MOL0     O20748  12.000   9.811  -0.322  0.1860 -0.3036 -0.0307
  151MOL0     C20749  11.879   9.716  -0.005  0.1169 -0.0097 -0.9230
  151MOL0     C20750  11.907   9.647   0.110 -0.2845  0.3740 -0.5756
  151MOL0     N20751  11.639   9.197   0.412 -0.2119 -0.3604 -0.6463
  151MOL0     N20752  11.541   9.170   0.489 -0.1140  0.3279  0.1640
  151MOL0     C20753  10.472   9.030   0.623  0.2773  0.1006 -0.0243
  151MOL0     C20754  10.366   8.965   0.686  0.5977  0.2893  0.2080
  151MOL0     C20755  10.021   8.692   0.807  0.2610  0.0872 -0.3200
  151MOL0     C20756  10.035   8.577   0.889  0.3889  0.2902  0.1891
  151MOL0     C20757   9.925   8.502   0.921  0.2128 -0.3436 -0.2011
  151MOL0     C20758   9.793   8.536   0.890 -0.0187  0.5370 -0.1023
  151MOL0     O20759   9.691   8.453   0.940 -0.1096  0.0989 -0.0171
  151MOL0     C20760   9.557   8.501   0.907 -1.2268  0.3921  0.3987
  151MOL0     C20761   9.470   8.395   0.977 -0.3159 -0.0305  0.2903
  151MOL0     C20762   9.520   8.244   0.963 -0.1585 -0.6345 -0.2957
  151MOL0     C20763   9.553   8.209   0.810 -0.1887 -0.1038 -1.2361
  151MOL0     C20764   9.605   8.070   0.804  0.0783  0.5061  0.1208
  151MOL0     C20765   9.655   7.962   0.793  0.2256 -0.2729 -0.9868
  151MOL0     C20766   9.776   8.654   0.814 -0.6238  0.2687  0.1543
  151MOL0     C20767   9.887   8.731   0.768 -0.2114  0.3840 -0.0527
  151MOL0     C20768   9.861   8.855   0.682  0.3067  0.8249  0.1065
  151MOL0     H20769  10.194   8.876   0.417  1.6789 -0.2892 -0.9749
  151MOL0     H20770  10.396   8.979   0.297  2.4649  3.0444  0.4844
  151MOL0     H20771  10.595   9.052   0.230  2.3611 -0.2144 -0.6347
  151MOL0     H20772  10.658   8.947   0.368  1.5558 -0.4595  0.2367
  151MOL0     H20773  10.825   9.089   0.213 -2.6026 -0.2720 -1.2717
  151MOL0     H20774  10.771   9.222   0.307 -1.2143 -0.7538 -0.8368
  151MOL0     H20775  10.832   9.041   0.509 -1.5036 -0.5790 -1.4551
  151MOL0     H20776  10.942   9.002   0.374  0.8970 -0.2154  0.3331
  151MOL0     H20777  11.029   9.233   0.376 -1.9250  1.8334  0.1154
  151MOL0     H20778  10.915   9.266   0.512  0.5964  1.0024 -0.0081
  151MOL0     H20779  11.126   9.046   0.527  1.6302  0.4985 -0.7460
  151MOL0     H20780  11.055   9.138   0.667 -2.9474 -1.3382 -0.7779
  151MOL0     H20781  11.248   9.245   0.456 -3.6703 -0.0267 -0.2314
  151MOL0     H20782  11.189   9.347   0.585  2.1108  1.3949 -2.1296
  151MOL0     H20783  11.342   9.085   0.645  1.8109 -0.2849  1.5443
  151MOL0     H20784  11.269   9.192   0.765  1.7887 -0.6291  0.5112
  151MOL0     H20785  11.402   9.383   0.691 -0.4024 -0.3135 -1.6918
  151MOL0     H20786  11.465   9.249   0.787 -0.9549  0.2207  0.4227
  151MOL0     H20787  11.660   9.438   0.629  1.3328 -0.9761  0.6946
  151MOL0     H20788  11.838   9.467   0.457  1.9282 -0.9370  0.7788
  151MOL0     H20789  11.822   9.386   0.307 -1.2275  0.4892  0.1933
  151MOL0     H20790  11.972   9.303   0.572  3.0087 -1.1227 -0.6218
  151MOL0     H20791  11.951   9.187   0.462 -2.9843  0.3192  0.3768
  151MOL0     H20792  12.110   9.435   0.476 -3.6516  0.2176  1.6878
  151MOL0     H20793  12.170   9.274   0.430  1.2688  2.0624  0.8083
  151MOL0     H20794  12.209   9.388   0.231 -0.4940 -1.0831  0.3646
  151MOL0     H20795  12.059   9.303   0.196 -2.5688  0.1177 -0.1225
  151MOL0     H20796  12.176   9.470   0.022 -2.8996 -2.9294  3.2131
  151MOL0     H20797  12.090   9.546  -0.308 -1.3833  2.3349 -1.0470
  151MOL0     H20798  12.237   9.512  -0.208 -0.8203 -1.5379  0.7446
  151MOL0     H20799  12.193   9.682  -0.258 -0.9099 -0.2095 -0.7148
  151MOL0     H20800  11.846   9.872  -0.514  1.5053  2.6773 -0.3125
  151MOL0     H20801  11.686   9.999  -0.661  2.4917  2.8481  0.7842
  151MOL0     H20802  11.508  10.063  -0.782 -0.5466  3.1245 -0.0591
  151MOL0     H20803  11.410   9.924  -0.724 -0.7373  0.2031 -1.2081
  151MOL0     H20804  11.306  10.203  -0.807 -1.1972  0.5191  1.1148
  151MOL0     H20805  11.314  10.046  -0.902  0.2669 -0.8405 -0.0791
  151MOL0     H20806  11.174  10.088  -0.626 -0.1032 -0.5471 -0.2171
  151MOL0     H20807  11.140   9.954  -0.741 -5.0886  0.5211  1.4526
  151MOL0     H20808  11.064  10.130  -0.909 -0.4824  0.8442  0.0584
  151MOL0     H20809  11.074  10.240  -0.767  0.4550 -0.8769  1.3471
  151MOL0     H20810  10.901   9.982  -0.765  2.6240 -2.0648  1.1216
  151MOL0     H20811  10.913  10.126  -0.649  1.3883  1.0695 -0.5793
  151MOL0     H20812  10.810  10.088  -0.931 -1.7617 -0.6532  0.1497
  151MOL0     H20813  10.830  10.251  -0.855  1.4820 -0.3297 -0.0879
  151MOL0     H20814  10.658  10.188  -0.683 -1.7188  2.0697 -0.6009
  151MOL0     H20815  10.625  10.033  -0.769 -0.4130 -0.1210 -2.6612
  151MOL0     H20816  10.583  10.324  -0.878 -0.2699 -0.0837 -0.6711
  151MOL0     H20817  10.456  10.217  -0.813 -0.2729  3.7975  1.7133
  151MOL0     H20818  11.409  10.048  -0.332  0.8105 -0.1923 -0.1400
  151MOL0     H20819  11.558   9.897  -0.197 -3.0602  2.3053  0.0051
  151MOL0     H20820  11.808   9.799  -0.005 -0.7544 -0.6934  0.8886
  151MOL0     H20821  11.851   9.669   0.201  0.8101 -0.3395  0.2938
  151MOL0     H20822  10.559   9.069   0.675  0.0524 -2.0793  2.1521
  151MOL0     H20823  10.382   8.959   0.793  2.5179  0.2442 -0.0435
  151MOL0     H20824  10.133   8.544   0.922  1.7642 -0.1730 -3.8087
  151MOL0     H20825   9.923   8.412   0.982  0.6385 -1.1570 -1.3650
  151MOL0     H20826   9.532   8.601   0.944 -1.3719  0.1897  0.8575
  151MOL0     H20827   9.537   8.499   0.799 -1.8419 -1.1433  0.5121
  151MOL0     H20828   9.376   8.393   0.921 -0.9012 -0.3820  1.2620
  151MOL0     H20829   9.453   8.430   1.079 -2.9577 -3.1463  1.1090
  151MOL0     H20830   9.597   8.216   1.036  0.9931  0.4509 -1.0327
  151MOL0     H20831   9.437   8.183   0.998 -0.9529 -1.3000 -3.0884
  151MOL0     H20832   9.635   8.271   0.773  0.3675  1.1662  1.7658
  151MOL0     H20833   9.459   8.227   0.758 -2.1775  0.7038  2.2889
  151MOL0     H20834   9.714   7.873   0.794 -0.0100 -0.5902  2.9161
  151MOL0     H20835   9.678   8.692   0.786 -1.0008 -0.6744  0.1816
  151MOL0     H20836   9.911   8.945   0.718 -1.7074  2.2809 -0.5377
  151MOL0     H20837   9.899   8.826   0.583  0.0259  0.6487  0.0497
  151MOL0     H20838   9.755   8.882   0.678  0.1065 -0.0482 -1.8710
  152MOL0     O20839   1.283   0.570   1.890  0.0150  0.3898 -0.1286
  152MOL0     C20840   1.276   0.650   1.982  0.1735 -0.1976  0.0540
  152MOL0     O20841   1.186   0.759   2.001  0.8028  0.1682  0.4537
  152MOL0     C20842   1.084   0.789   1.917  0.7326  0.5562 -0.3888
  152MOL0     C20843   1.046   0.927   1.926 -0.4685  1.1404 -0.5206
  152MOL0     C20844   0.942   0.971   1.844  0.2601 -0.1074 -0.5669
  152MOL0     C20845   0.873   0.874   1.755 -0.2208 -0.1873 -0.5100
  152MOL0     O20846   0.778   0.931   1.673 -0.3031 -0.2079 -0.1937
  152MOL0     C20847   0.647   0.868   1.677 -0.2685 -0.0863  0.0793
  152MOL0     C20848   0.542   0.961   1.619  0.7469  0.1913  0.3803
  152MOL0     C20849   0.537   1.099   1.678  1.1691  0.6686  0.4494
  152MOL0     C20850   0.398   1.151   1.655 -1.2946  0.2189 -0.5788
  152MOL0     C20851   0.387   1.301   1.682 -0.0927 -0.1655 -0.4400
  152MOL0     C20852   0.240   1.322   1.674  0.3424 -0.0825 -0.1686
  152MOL0     C20853   0.214   1.469   1.699  0.3002 -0.1925  0.2475
  152MOL0     C20854   0.064   1.499   1.728  0.7359 -0.4282  0.0953
  152MOL0     N20855  -0.015   1.431   1.623  0.7678 -0.5250  0.5667
  152MOL0     C20856  -0.089   1.319   1.647 -0.0151  0.3711  0.0236
  152MOL0     C20857  -0.164   1.308   1.535  0.3425  0.0999 -0.0646
  152MOL0     C20858  -0.274   1.210   1.516 -0.3958 -0.4894  0.1340
  152MOL0     C20859  -0.233   1.068   1.542 -0.1069 -0.2511  0.0001
  152MOL0     C20860  -0.356   0.979   1.557 -0.1227  0.0033  0.5247
  152MOL0     C20861  -0.443   0.961   1.429  0.6548 -0.0322 -0.0881
  152MOL0     O20862  -0.359   0.903   1.324 -0.6258  0.0625  0.5313
  152MOL0     C20863  -0.344   0.973   1.208 -1.6612  0.4634  0.1001
  152MOL0     C20864  -0.442   1.026   1.140  0.1979  0.7885  0.3734
  152MOL0     C20865  -0.424   1.089   1.015  0.4561  0.2643 -0.7218
  152MOL0     C20866  -0.546   1.143   0.945 -0.1224  0.7030  1.3234
  152MOL0     C20867  -0.298   1.083   0.955 -0.1872 -0.5346 -0.3314
  152MOL0     C20868  -0.278   1.136   0.808  0.1353 -0.1353 -0.5797
  152MOL0     O20869  -0.362   1.235   0.761  0.0292  0.2973 -0.2648
  152MOL0     C20870  -0.357   1.294   0.633  0.1144  0.8554  0.8018
  152MOL0     C20871  -0.256   1.289   0.536  0.2744  0.0858  0.1186
  152MOL0     C20872  -0.275   1.345   0.413  0.1874  0.2723 -0.5782
  152MOL0     C20873  -0.395   1.411   0.381 -0.1095  0.1911  0.4519
  152MOL0     O20874  -0.396   1.477   0.262  0.2184 -0.3578  0.4345
  152MOL0     C20875  -0.530   1.499   0.202 -0.5487 -0.8439 -0.5435
  152MOL0     C20876  -0.514   1.559   0.060 -0.5931  0.7913 -0.5193
  152MOL0     C20877  -0.459   1.452  -0.035  0.2389 -0.4464  0.0179
  152MOL0     C20878  -0.509   1.474  -0.184  0.3667 -0.1788 -0.4590
  152MOL0     C20879  -0.469   1.606  -0.256 -0.3874  0.0581  0.6124
  152MOL0     C20880  -0.555   1.646  -0.371 -0.0865  0.2129 -1.2307
  152MOL0     C20881  -0.683   1.715  -0.318  0.2659  0.2108 -1.1801
  152MOL0     C20882  -0.793   1.715  -0.424  0.7564 -0.4359 -0.1697
  152MOL0    Cl20883  -0.826   1.552  -0.473  0.1942  0.1120 -0.7793
  152MOL0     C20884  -0.486   1.431   0.481  0.5702  0.4980  0.3386
  152MOL0     C20885  -0.477   1.364   0.608  0.5360  0.1066  0.2850
  152MOL0     O20886  -0.172   1.098   0.754  0.3364  0.7551  0.4515
  152MOL0     C20887  -0.192   1.041   1.031  0.3395  0.1920  0.4540
  152MOL0     C20888  -0.214   1.000   1.162  0.5948 -0.0065  0.0169
  152MOL0     N20889  -0.125   1.401   1.447  0.3890  0.2828  0.2671
  152MOL0     N20890  -0.031   1.471   1.495 -0.2508 -0.0301  0.2267
  152MOL0     C20891   0.906   0.743   1.763  0.0933 -0.6285  1.3066
  152MOL0     C20892   1.012   0.706   1.841 -0.0122  0.7840 -0.2232
  152MOL0     C20893   1.372   0.640   2.093  0.1654 -0.4149 -0.2267
  152MOL0     C20894   1.327   0.666   2.225 -0.0369 -0.0477  0.1198
  152MOL0     C20895   1.415   0.669   2.335  0.1929 -0.2321  0.0505
  152MOL0     C20896   1.551   0.658   2.314 -0.9345  0.2200  0.3807
  152MOL0     O20897   1.640   0.660   2.421  0.0921  0.5315 -0.1339
  152MOL0     C20898   1.605   0.710   2.547 -1.0312  0.7955 -0.4180
  152MOL0     C20899   1.729   0.711   2.637  0.2252  0.0742 -0.2660
  152MOL0     C20900   1.848   0.794   2.593  0.5818 -0.5500  0.4285
  152MOL0     C20901   1.847   0.951   2.615 -1.1707  0.0108  0.2937
  152MOL0     C20902   1.861   0.965   2.761  0.6006  0.1145  0.2685
  152MOL0     C20903   1.842   0.981   2.876 -0.3225  0.5822 -0.2523
  152MOL0     C20904   1.600   0.633   2.185  0.4379  0.7380 -0.1748
  152MOL0     C20905   1.515   0.613   2.075  0.4295 -0.1571 -0.8495
  152MOL0     C20906   1.569   0.570   1.938 -1.0115  1.0773 -0.5990
  152MOL0     H20907   1.109   0.994   1.983  0.7534 -2.4351  2.7647
  152MOL0     H20908   0.911   1.075   1.843  2.3938  0.5645 -0.4198
  152MOL0     H20909   0.622   0.837   1.779 -0.4634  2.2612  0.7824
  152MOL0     H20910   0.640   0.773   1.621 -0.2698 -0.7736  1.2169
  152MOL0     H20911   0.553   0.969   1.510 -0.1445 -0.1999  0.2508
  152MOL0     H20912   0.445   0.911   1.634  0.7540 -1.6811 -4.2470
  152MOL0     H20913   0.549   1.100   1.787  1.6335  1.9587  0.4088
  152MOL0     H20914   0.609   1.168   1.633 -0.4211 -0.5360 -4.5010
  152MOL0     H20915   0.381   1.130   1.549 -0.3932 -0.9041 -0.5073
  152MOL0     H20916   0.338   1.095   1.727  0.9957 -1.4418  0.1366
  152MOL0     H20917   0.438   1.350   1.598  1.9686 -3.7971 -1.5811
  152MOL0     H20918   0.420   1.337   1.779 -1.8663  1.5766 -0.4212
  152MOL0     H20919   0.210   1.294   1.572 -1.4108  1.2326 -0.0593
  152MOL0     H20920   0.200   1.256   1.752  3.6123 -1.6499  0.3520
  152MOL0     H20921   0.245   1.512   1.604  1.8382 -1.4941  0.1303
  152MOL0     H20922   0.269   1.511   1.784 -1.9413  2.2420  0.6570
  152MOL0     H20923   0.036   1.469   1.829 -1.7442  0.7750 -0.1682
  152MOL0     H20924   0.035   1.604   1.727 -0.6731 -0.7893 -0.5084
  152MOL0     H20925  -0.092   1.260   1.738 -1.3304  2.3817  1.3689
  152MOL0     H20926  -0.313   1.214   1.414 -1.1062  0.9035  0.4403
  152MOL0     H20927  -0.363   1.227   1.577 -0.5061 -0.9694  0.1179
  152MOL0     H20928  -0.159   1.024   1.474  0.1773 -2.0394  1.3781
  152MOL0     H20929  -0.182   1.064   1.639 -0.9330 -0.9480  0.4186
  152MOL0     H20930  -0.320   0.878   1.580 -0.6821 -0.2749  0.2173
  152MOL0     H20931  -0.410   1.021   1.642 -0.0009  0.2916  0.4594
  152MOL0     H20932  -0.516   0.883   1.453  2.7325 -2.6786 -1.7404
  152MOL0     H20933  -0.485   1.056   1.395 -0.6498 -1.0471 -1.4202
  152MOL0     H20934  -0.547   1.020   1.166 -0.8055  1.9818 -2.8639
  152MOL0     H20935  -0.640   1.110   0.989  0.3069  0.6494  2.2218
  152MOL0     H20936  -0.539   1.102   0.844  0.4610  0.3869  1.4838
  152MOL0     H20937  -0.544   1.252   0.937 -1.0463  0.6052 -1.0883
  152MOL0     H20938  -0.152   1.258   0.541  1.0084  1.8190 -2.4824
  152MOL0     H20939  -0.193   1.358   0.343 -1.9370  2.3476 -2.8988
  152MOL0     H20940  -0.578   1.402   0.195  0.9825 -1.5083 -2.5551
  152MOL0     H20941  -0.583   1.576   0.260 -0.5602  1.1905 -3.0790
  152MOL0     H20942  -0.603   1.614   0.027 -1.4015  0.4668  1.0094
  152MOL0     H20943  -0.432   1.629   0.076  3.1613 -3.6371  2.3190
  152MOL0     H20944  -0.495   1.354  -0.003 -2.5814 -0.2967 -2.2746
  152MOL0     H20945  -0.350   1.459  -0.032  0.2810 -0.9849 -0.1819
  152MOL0     H20946  -0.618   1.479  -0.182  0.2420 -1.8895 -1.3116
  152MOL0     H20947  -0.486   1.390  -0.250  1.5914 -0.8888  0.8136
  152MOL0     H20948  -0.473   1.686  -0.181  0.7865 -0.7431  1.5840
  152MOL0     H20949  -0.365   1.605  -0.289 -0.4193 -1.0211  0.5109
  152MOL0     H20950  -0.578   1.552  -0.421 -2.3743  1.0809 -1.9442
  152MOL0     H20951  -0.503   1.711  -0.441  1.6708  1.3536  0.9954
  152MOL0     H20952  -0.667   1.816  -0.278  0.1966 -0.2074 -0.0727
  152MOL0     H20953  -0.745   1.662  -0.245  0.3855  2.0807  0.3606
  152MOL0     H20954  -0.751   1.770  -0.508 -2.0060  3.9585  0.9827
  152MOL0     H20955  -0.878   1.756  -0.369  0.4138 -2.1629  0.6622
  152MOL0     H20956  -0.580   1.484   0.468  1.3464  1.4482 -1.9400
  152MOL0     H20957  -0.551   1.359   0.688  0.1601 -0.5603 -0.0980
  152MOL0     H20958  -0.092   1.052   0.990  0.3154 -2.0148 -0.2782
  152MOL0     H20959  -0.134   0.965   1.226  0.7586  1.0758  0.4251
  152MOL0     H20960   0.863   0.668   1.698  1.9875  0.3407 -1.2457
  152MOL0     H20961   1.034   0.601   1.854 -2.1189  0.4144  0.8487
  152MOL0     H20962   1.219   0.681   2.228 -0.4773 -2.6405  0.0323
  152MOL0     H20963   1.375   0.689   2.434 -0.0270  0.1793 -0.1172
  152MOL0     H20964   1.568   0.813   2.545  1.2492  1.8068  2.5444
  152MOL0     H20965   1.533   0.640   2.590 -1.1068  2.2171  1.9263
  152MOL0     H20966   1.769   0.611   2.653 -0.5804 -0.2987 -0.5044
  152MOL0     H20967   1.695   0.736   2.738 -1.2716 -1.0969 -0.4414
  152MOL0     H20968   1.932   0.757   2.653  0.0973  0.9026  2.0622
  152MOL0     H20969   1.860   0.783   2.485  1.0300  1.1021  0.2866
  152MOL0     H20970   1.756   1.004   2.583  0.2836  2.3311 -0.2254
  152MOL0     H20971   1.933   0.999   2.567 -1.5485  1.5781  1.1144
  152MOL0     H20972   1.820   0.989   2.981  1.7077  3.0928  0.0877
  152MOL0     H20973   1.705   0.605   2.176  0.3496  0.4662 -0.3683
  152MOL0     H20974   1.510   0.486   1.901  1.7422 -0.1295 -2.6125
  152MOL0     H20975   1.561   0.656   1.871 -2.0869  1.3025 -0.1950
  152MOL0     H20976   1.674   0.539   1.936 -1.1730 -0.0384  2.3417
  153MOL0     O20977  10.513   0.570   0.869 -0.3026  0.1065 -0.6267
  153MOL0     C20978  10.610   0.498   0.899 -0.4969 -0.5809 -0.5871
  153MOL0     O20979  10.592   0.370   0.939  0.6161 -0.4785 -0.3205
  153MOL0     C20980  10.471   0.331   0.986  1.0107 -0.5190 -0.6148
  153MOL0     C20981  10.405   0.389   1.100  0.8430 -0.2357  0.8276
  153MOL0     C20982  10.282   0.349   1.145 -0.0676  1.2262  0.6903
  153MOL0     C20983  10.223   0.235   1.077 -0.0452 -0.0142 -0.0714
  153MOL0     O20984  10.101   0.186   1.125 -0.5876  0.7977  0.1744
  153MOL0     C20985   9.983   0.231   1.054 -0.8693  0.8086  0.3724
  153MOL0     C20986   9.916   0.351   1.124 -0.5258 -0.3096  0.4966
  153MOL0     C20987   9.796   0.402   1.033 -0.6248  0.8657  0.6288
  153MOL0     C20988   9.770   0.545   1.072 -0.1681  0.2156 -1.3606
  153MOL0     C20989   9.676   0.625   0.973 -0.3150 -0.0951 -1.0840
  153MOL0     C20990   9.658   0.772   1.020  1.3256 -0.6116  0.2340
  153MOL0     C20991   9.599   0.858   0.908  0.8040 -0.1867  0.2633
  153MOL0     C20992   9.576   0.997   0.955  0.2129 -0.1423  0.4412
  153MOL0     N20993   9.692   1.070   0.992  0.2567  0.5433  0.7279
  153MOL0     C20994   9.785   1.130   0.912  0.5366  0.5060  0.5201
  153MOL0     C20995   9.875   1.177   0.999  0.1497  0.0993 -0.2042
  153MOL0     C20996   9.997   1.262   0.980  0.0502  0.2214  0.0302
  153MOL0     C20997   9.967   1.403   0.984  0.1906  0.5806 -0.2085
  153MOL0     C20998   9.920   1.441   0.846 -0.1018 -0.3174 -0.7627
  153MOL0     C20999   9.924   1.597   0.841 -0.0442 -0.8501 -0.2657
  153MOL0     O21000  10.063   1.633   0.862  0.0911 -1.0734 -0.8359
  153MOL0     C21001  10.103   1.760   0.825  0.7641 -0.4502 -0.8073
  153MOL0     C21002  10.227   1.766   0.769 -0.1783  0.0127  0.6394
  153MOL0     C21003  10.275   1.891   0.722  0.4024  0.0692  0.7499
  153MOL0     C21004  10.416   1.884   0.647 -0.3019 -0.0712  0.2053
  153MOL0     C21005  10.202   2.010   0.745 -0.5621  0.2146 -0.2679
  153MOL0     C21006  10.255   2.136   0.691  0.8583 -0.4290 -0.1899
  153MOL0     O21007  10.338   2.148   0.590  0.1203  0.1964  0.2838
  153MOL0     C21008  10.362   2.269   0.539  0.2693  0.2948  0.2018
  153MOL0     C21009  10.495   2.285   0.499 -0.5890 -1.0831  0.0471
  153MOL0     C21010  10.525   2.385   0.401  0.4538 -0.8709 -0.1269
  153MOL0     C21011  10.418   2.464   0.356 -0.0563  0.7682 -0.2370
  153MOL0     O21012  10.425   2.547   0.250  0.0414 -0.3737 -0.3736
  153MOL0     C21013  10.545   2.557   0.172  0.7386  0.4622  0.8190
  153MOL0     C21014  10.628   2.653   0.240 -0.1139 -0.5349 -0.0575
  153MOL0     C21015  10.574   2.796   0.238 -0.4696 -0.1773 -0.3152
  153MOL0     C21016  10.668   2.887   0.320 -0.5114 -0.0369  0.3737
  153MOL0     C21017  10.588   3.011   0.367  0.6332  0.1615 -0.4518
  153MOL0     C21018  10.526   3.104   0.252  0.1088 -0.5900 -0.2917
  153MOL0     C21019  10.432   3.220   0.298 -0.1215  0.0092 -0.2948
  153MOL0     C21020  10.503   3.348   0.359 -0.6345  0.0114  0.1720
  153MOL0    Cl21021  10.596   3.440   0.234 -0.1808  0.3509 -0.6225
  153MOL0     C21022  10.290   2.456   0.406  0.7174  0.2441  0.1651
  153MOL0     C21023  10.259   2.355   0.495 -0.0704 -0.7459  0.5665
  153MOL0     O21024  10.199   2.231   0.741  0.1332  0.6116 -0.7682
  153MOL0     C21025  10.079   2.001   0.813 -0.5130 -0.3648  0.1239
  153MOL0     C21026  10.025   1.874   0.848 -0.4001 -0.8200  0.5332
  153MOL0     N21027   9.841   1.147   1.131  0.2724  0.3499 -0.7450
  153MOL0     N21028   9.730   1.094   1.120  0.3297 -0.0968  0.3942
  153MOL0     C21029  10.288   0.178   0.972 -0.1183 -0.2938  0.3730
  153MOL0     C21030  10.413   0.226   0.925 -0.3537  0.7444 -0.4365
  153MOL0     C21031  10.755   0.545   0.880 -0.0869  0.1522  0.4505
  153MOL0     C21032  10.845   0.460   0.817  0.4525  0.5083  0.1135
  153MOL0     C21033  10.979   0.493   0.787  0.4312 -1.0464  1.0112
  153MOL0     C21034  11.028   0.613   0.821 -0.0257 -0.1324 -0.1170
  153MOL0     O21035  11.160   0.637   0.818 -0.3809  0.3845 -0.2655
  153MOL0     C21036  11.218   0.640   0.950 -1.0917  0.0679  1.2461
  153MOL0     C21037  11.258   0.492   0.987  0.9534 -0.1948  0.4302
  153MOL0     C21038  11.333   0.475   1.121 -0.1103  0.9112 -0.0100
  153MOL0     C21039  11.484   0.511   1.109 -0.1877 -0.1186  0.3802
  153MOL0     C21040  11.569   0.467   1.223 -0.4112  0.3926 -0.6045
  153MOL0     C21041  11.634   0.436   1.324 -0.4845 -0.7037 -0.2341
  153MOL0     C21042  10.939   0.706   0.879 -0.3473  0.1789  0.2553
  153MOL0     C21043  10.805   0.674   0.904  0.1659 -0.8861 -0.0075
  153MOL0     C21044  10.701   0.778   0.953  0.2150 -1.0025  0.1770
  153MOL0     H21045  10.453   0.464   1.162  1.9370 -1.0449  1.0017
  153MOL0     H21046  10.223   0.397   1.223 -2.4643  0.2052 -0.3705
  153MOL0     H21047   9.916   0.144   1.048 -0.5239  0.6144 -1.2960
  153MOL0     H21048  10.004   0.252   0.949  1.0589 -3.0991 -0.1819
  153MOL0     H21049   9.875   0.314   1.219  1.3343 -2.7391  0.4508
  153MOL0     H21050   9.988   0.432   1.136 -1.2091  0.2060  1.2609
  153MOL0     H21051   9.826   0.400   0.928 -1.2916  2.2289  0.3942
  153MOL0     H21052   9.709   0.336   1.032  0.5583 -0.7599 -0.1015
  153MOL0     H21053   9.724   0.540   1.171  1.5701 -0.3020 -0.5318
  153MOL0     H21054   9.862   0.603   1.086  0.7520 -1.7407  2.0170
  153MOL0     H21055   9.582   0.569   0.964 -0.2120 -0.6084  0.7666
  153MOL0     H21056   9.727   0.611   0.877  1.5118 -0.9167 -0.0156
  153MOL0     H21057   9.589   0.778   1.104  0.3424  2.3493 -0.6727
  153MOL0     H21058   9.755   0.815   1.047  0.2871  2.4763 -0.5293
  153MOL0     H21059   9.510   0.806   0.871  1.8170 -2.2258  0.5584
  153MOL0     H21060   9.676   0.861   0.829  0.4690  0.6364 -0.0343
  153MOL0     H21061   9.529   1.064   0.883 -1.3286 -1.7101 -0.0730
  153MOL0     H21062   9.516   0.991   1.046  0.8550 -2.6546  0.7874
  153MOL0     H21063   9.805   1.137   0.806  1.0463  1.2408  0.6562
  153MOL0     H21064  10.040   1.230   0.885 -2.0682 -0.1406 -0.8524
  153MOL0     H21065  10.069   1.235   1.059  1.7905  2.0099 -0.8553
  153MOL0     H21066   9.886   1.421   1.055  1.2651  1.9626  0.7298
  153MOL0     H21067  10.060   1.454   1.011 -0.7567  1.3721  1.7710
  153MOL0     H21068   9.972   1.395   0.761 -0.8770 -1.6099 -0.5538
  153MOL0     H21069   9.817   1.406   0.839 -0.5556  0.4213  1.5161
  153MOL0     H21070   9.896   1.620   0.738 -1.8798 -0.1223  0.3551
  153MOL0     H21071   9.859   1.657   0.905  0.6379 -1.3101  0.8981
  153MOL0     H21072  10.278   1.672   0.751  1.0209  1.1066 -2.2029
  153MOL0     H21073  10.473   1.971   0.680 -3.2891  1.9733  0.4664
  153MOL0     H21074  10.401   1.870   0.539  0.1837 -1.3856  0.2926
  153MOL0     H21075  10.469   1.799   0.688 -0.2327  1.4036  3.4463
  153MOL0     H21076  10.569   2.212   0.529 -0.4302 -1.0843 -0.3484
  153MOL0     H21077  10.627   2.390   0.365 -0.2627 -3.1112 -2.8119
  153MOL0     H21078  10.593   2.461   0.153  0.6864  0.7344 -0.8106
  153MOL0     H21079  10.523   2.593   0.071  1.8757 -2.5964 -0.6749
  153MOL0     H21080  10.642   2.624   0.344  0.7186 -0.4780 -0.1410
  153MOL0     H21081  10.729   2.652   0.197 -0.3429 -2.3596 -0.6303
  153MOL0     H21082  10.472   2.789   0.277 -0.4473  0.4340 -0.1355
  153MOL0     H21083  10.583   2.840   0.139  2.4283 -1.3458 -0.6865
  153MOL0     H21084  10.760   2.917   0.269 -0.3537  0.8212  1.1479
  153MOL0     H21085  10.706   2.825   0.402  1.9235 -0.1167 -0.7521
  153MOL0     H21086  10.499   2.975   0.419 -0.4742  3.9568  0.5432
  153MOL0     H21087  10.651   3.070   0.434 -2.4172 -0.5669  3.4242
  153MOL0     H21088  10.456   3.047   0.191 -0.0036 -1.1040  0.3110
  153MOL0     H21089  10.601   3.145   0.184  0.0345 -2.1339 -1.3260
  153MOL0     H21090  10.358   3.184   0.370  0.0931  0.8154  0.3440
  153MOL0     H21091  10.371   3.249   0.211  2.5779 -0.5701 -2.5149
  153MOL0     H21092  10.555   3.330   0.453  0.5678  0.3567 -0.4053
  153MOL0     H21093  10.420   3.415   0.383 -0.3022  0.4501  0.1130
  153MOL0     H21094  10.207   2.515   0.368  0.9579 -0.3816 -1.4489
  153MOL0     H21095  10.154   2.346   0.520 -0.1192 -0.8766  0.3230
  153MOL0     H21096  10.017   2.087   0.835  0.5068  0.0604  1.4903
  153MOL0     H21097   9.936   1.879   0.909  0.3732  0.3473  1.6150
  153MOL0     H21098  10.241   0.088   0.933  1.4678 -0.4069 -1.4132
  153MOL0     H21099  10.464   0.176   0.843  0.2090 -0.2773  0.5104
  153MOL0     H21100  10.812   0.359   0.792 -1.4314  1.5139 -1.7399
  153MOL0     H21101  11.042   0.419   0.739 -0.3936 -3.9362  4.0032
  153MOL0     H21102  11.308   0.701   0.938 -2.8378  2.6089  0.0993
  153MOL0     H21103  11.155   0.691   1.024  1.3758  3.8689  1.0182
  153MOL0     H21104  11.326   0.467   0.905  2.2009  1.8956  0.7494
  153MOL0     H21105  11.172   0.425   0.984  0.4802  0.4102  0.2860
  153MOL0     H21106  11.291   0.533   1.203  0.2695 -1.1529  1.7420
  153MOL0     H21107  11.332   0.367   1.139  2.2823  0.7028 -0.6531
  153MOL0     H21108  11.491   0.619   1.093 -2.4551 -0.2166 -2.0373
  153MOL0     H21109  11.538   0.468   1.025 -1.9661 -1.0721 -0.3287
  153MOL0     H21110  11.705   0.413   1.401  0.4819  0.6535 -0.6591
  153MOL0     H21111  10.981   0.800   0.910  0.2457 -0.3668  1.1455
  153MOL0     H21112  10.626   0.781   0.874 -1.6803 -4.5882  1.5824
  153MOL0     H21113  10.654   0.745   1.047 -2.3589  0.0761 -0.6596
  153MOL0     H21114  10.752   0.873   0.968  0.9115 -1.5144  1.2452
  154MOL0     O21115   5.280   6.151   9.737  0.3284 -0.6053 -0.1901
  154MOL0     C21116   5.171   6.207   9.707  0.5140  0.0243  0.1205
  154MOL0     O21117   5.069   6.163   9.627  0.2389  0.0878  0.8160
  154MOL0     C21118   5.082   6.049   9.554 -0.2829  0.0880  1.7316
  154MOL0     C21119   4.957   5.984   9.515 -0.0031 -0.2313 -0.7087
  154MOL0     C21120   4.964   5.869   9.438  0.3741 -0.0565 -0.4054
  154MOL0     C21121   5.089   5.816   9.389 -0.3570 -0.3066 -0.5554
  154MOL0     O21122   5.094   5.713   9.304  0.5639  0.0903 -0.2533
  154MOL0     C21123   5.192   5.609   9.345 -0.0856  1.1165  0.4448
  154MOL0     C21124   5.251   5.556   9.219  0.3420 -0.3769 -0.4341
  154MOL0     C21125   5.385   5.629   9.186  0.8292 -0.8456  0.0509
  154MOL0     C21126   5.452   5.567   9.066 -0.6104 -0.0366 -0.1391
  154MOL0     C21127   5.595   5.608   9.031  0.5251 -0.2205 -0.1822
  154MOL0     C21128   5.608   5.698   8.912 -0.3546  0.0376  0.2093
  154MOL0     C21129   5.758   5.712   8.887  0.3420  0.2429  0.1799
  154MOL0     C21130   5.821   5.583   8.833  0.5767  0.1625 -0.3225
  154MOL0     N21131   5.958   5.601   8.800  0.1953 -0.6858 -0.2949
  154MOL0     C21132   6.056   5.655   8.878  0.0503 -0.8953 -0.5292
  154MOL0     C21133   6.161   5.669   8.791  0.1829 -0.3172  0.1480
  154MOL0     C21134   6.299   5.739   8.816 -0.5899  0.2913  0.1549
  154MOL0     C21135   6.409   5.633   8.818  0.3428 -0.0682  0.1594
  154MOL0     C21136   6.540   5.696   8.867  0.2500  1.8241 -1.1613
  154MOL0     C21137   6.594   5.806   8.775  0.6474  0.3327  0.7860
  154MOL0     O21138   6.724   5.855   8.812 -0.0825  0.1182  0.1930
  154MOL0     C21139   6.735   5.924   8.936  0.2468 -0.1532  0.1426
  154MOL0     C21140   6.636   5.973   9.024  0.8224 -0.1433  0.2931
  154MOL0     C21141   6.662   6.035   9.145  0.0284 -0.3098 -0.4039
  154MOL0     C21142   6.544   6.089   9.220 -0.1282 -0.4720 -0.1580
  154MOL0     C21143   6.789   6.043   9.195 -0.1861  0.0528 -0.8293
  154MOL0     C21144   6.827   6.096   9.327 -0.3458 -0.3241 -0.3609
  154MOL0     O21145   6.900   6.213   9.323  1.1655  1.1236 -0.0514
  154MOL0     C21146   6.915   6.272   9.445  0.5602  1.0242  0.3009
  154MOL0     C21147   6.823   6.365   9.493 -0.0023  0.0888 -0.3425
  154MOL0     C21148   6.846   6.428   9.617 -0.5044 -0.0602  0.2803
  154MOL0     C21149   6.950   6.397   9.694 -0.3616  0.2289  0.1465
  154MOL0     O21150   6.970   6.482   9.808 -0.0139  0.0626 -0.0325
  154MOL0     C21151   7.062   6.431   9.903 -0.3522 -0.9063 -0.5712
  154MOL0     C21152   7.084   6.550  10.001  0.3613  0.4836  0.4184
  154MOL0     C21153   6.947   6.611  10.043  0.4697 -0.7978  0.1415
  154MOL0     C21154   6.861   6.531  10.139 -0.0455 -0.6107  0.0708
  154MOL0     C21155   6.731   6.596  10.176  0.6301  0.0013  0.0617
  154MOL0     C21156   6.748   6.742  10.216  0.1644  0.3660 -0.9420
  154MOL0     C21157   6.613   6.810  10.251 -0.5626 -0.8591 -0.5990
  154MOL0     C21158   6.631   6.946  10.305  0.4693  0.4345  0.3126
  154MOL0    Cl21159   6.456   6.993  10.359  0.3025  0.4073  0.4389
  154MOL0     C21160   7.041   6.296   9.655  0.2457  0.1104 -0.7968
  154MOL0     C21161   7.025   6.242   9.519  0.0503  0.1533 -0.0578
  154MOL0     O21162   6.791   6.034   9.428 -1.4206 -0.4988 -0.0120
  154MOL0     C21163   6.895   5.991   9.111 -0.3959 -0.3568  0.4414
  154MOL0     C21164   6.867   5.930   8.987 -0.5196  1.1190 -0.4538
  154MOL0     N21165   6.124   5.612   8.670 -0.1557  0.2153  0.0482
  154MOL0     N21166   6.005   5.567   8.672 -0.2626  0.0616  0.0912
  154MOL0     C21167   5.208   5.896   9.406  0.2998 -0.1171  0.2156
  154MOL0     C21168   5.202   6.012   9.490 -0.7076  0.2707 -0.7081
  154MOL0     C21169   5.141   6.340   9.767  0.5964  0.2034  0.0563
  154MOL0     C21170   5.004   6.373   9.764 -0.6936 -0.8416 -0.5068
  154MOL0     C21171   4.965   6.502   9.807 -1.7087  0.1350 -0.0346
  154MOL0     C21172   5.058   6.583   9.872  0.0813 -1.1940  0.2284
  154MOL0     O21173   5.009   6.706   9.918  0.2841  0.2458  0.3255
  154MOL0     C21174   5.066   6.764  10.034  0.4501  1.4217  0.0877
  154MOL0     C21175   4.957   6.854  10.086  0.0342  0.4744  1.4812
  154MOL0     C21176   4.973   6.899  10.233 -0.4447 -0.8214  0.4622
  154MOL0     C21177   5.085   7.001  10.270  0.1427  0.3363  0.4559
  154MOL0     C21178   5.051   7.127  10.204  0.6536 -1.1329  0.0575
  154MOL0     C21179   5.006   7.234  10.157  0.5229 -0.3646  0.0992
  154MOL0     C21180   5.191   6.546   9.887 -0.0465 -0.2633 -1.2995
  154MOL0     C21181   5.236   6.427   9.832  0.5159  0.2261  0.0379
  154MOL0     C21182   5.381   6.414   9.834  0.0762  0.3962  0.0632
  154MOL0     H21183   4.863   6.025   9.550 -0.1431 -0.3888 -0.8986
  154MOL0     H21184   4.875   5.814   9.410  0.8011 -1.9763  1.8097
  154MOL0     H21185   5.134   5.537   9.403  1.3586  1.1985  2.0763
  154MOL0     H21186   5.266   5.638   9.420  0.5954  1.2934 -0.2820
  154MOL0     H21187   5.289   5.455   9.233  2.9429  0.5997  0.2013
  154MOL0     H21188   5.182   5.547   9.135 -0.3776 -0.1367  0.1230
  154MOL0     H21189   5.367   5.737   9.180 -1.0242 -0.9023  2.5778
  154MOL0     H21190   5.457   5.625   9.268  0.4180 -1.4721  0.3895
  154MOL0     H21191   5.455   5.459   9.082 -2.1304 -0.1096 -0.2152
  154MOL0     H21192   5.392   5.577   8.975  0.1150  0.0754 -0.6123
  154MOL0     H21193   5.645   5.513   9.008  1.9682  0.6112 -0.5896
  154MOL0     H21194   5.632   5.645   9.127  0.8784 -1.7375  0.3069
  154MOL0     H21195   5.561   5.664   8.819  0.7949  0.9469 -0.7468
  154MOL0     H21196   5.558   5.788   8.949 -0.6371 -0.4605  1.0575
  154MOL0     H21197   5.808   5.729   8.983 -2.4377  0.7320  1.6265
  154MOL0     H21198   5.780   5.791   8.814 -0.3565 -0.1973 -0.5284
  154MOL0     H21199   5.828   5.503   8.908 -0.2042  0.6589  0.3014
  154MOL0     H21200   5.768   5.543   8.747 -1.0117 -1.3356  1.2611
  154MOL0     H21201   6.046   5.700   8.975  0.5380 -0.4134 -0.6998
  154MOL0     H21202   6.300   5.801   8.906 -1.1766  2.3726 -1.2111
  154MOL0     H21203   6.321   5.807   8.733  0.2456 -1.9612 -1.5910
  154MOL0     H21204   6.375   5.555   8.887  2.8066  1.1799  3.0197
  154MOL0     H21205   6.418   5.593   8.717  0.7755  0.0414  0.1528
  154MOL0     H21206   6.521   5.735   8.967 -2.4801  1.7318 -1.5620
  154MOL0     H21207   6.622   5.627   8.889 -1.8986  0.2707  3.1086
  154MOL0     H21208   6.599   5.770   8.671  2.1178 -0.7738  1.2078
  154MOL0     H21209   6.521   5.887   8.776  0.1342 -0.0752 -0.7885
  154MOL0     H21210   6.531   5.961   8.999  0.8461  0.1144  0.0663
  154MOL0     H21211   6.576   6.182   9.269  1.5367  1.4013 -4.2742
  154MOL0     H21212   6.520   6.027   9.306  1.8580  0.5404  1.2099
  154MOL0     H21213   6.457   6.104   9.156 -0.6682 -1.0730  0.4244
  154MOL0     H21214   6.744   6.403   9.430  0.4696  0.0829 -0.9422
  154MOL0     H21215   6.772   6.505   9.636 -0.7919 -0.2154 -0.1997
  154MOL0     H21216   7.024   6.340   9.950  2.1737  0.6635  5.4486
  154MOL0     H21217   7.164   6.414   9.866  0.5026  3.6038 -0.8733
  154MOL0     H21218   7.141   6.527  10.091 -0.3378 -0.4860  0.6346
  154MOL0     H21219   7.127   6.628   9.937  0.9280 -2.3297 -2.9951
  154MOL0     H21220   6.883   6.647   9.963 -2.1921  2.3747  3.3615
  154MOL0     H21221   6.991   6.698  10.095  0.0982 -0.5590  0.0557
  154MOL0     H21222   6.910   6.513  10.235 -0.2905  1.1680  0.5679
  154MOL0     H21223   6.830   6.435  10.098 -1.4275 -0.2899  0.2848
  154MOL0     H21224   6.654   6.589  10.099 -0.0793 -2.7557  0.9222
  154MOL0     H21225   6.694   6.538  10.261 -1.3459  1.7498  0.4903
  154MOL0     H21226   6.805   6.800  10.143  3.2127 -0.9928  0.1882
  154MOL0     H21227   6.796   6.738  10.314  0.0957 -3.7457 -0.8943
  154MOL0     H21228   6.572   6.756  10.337  2.1850  1.0595  2.1510
  154MOL0     H21229   6.545   6.819  10.166 -1.9404  1.8965  0.6593
  154MOL0     H21230   6.680   7.000  10.223 -0.6857 -2.5723 -2.6127
  154MOL0     H21231   6.694   6.950  10.394  1.7362  3.9237 -0.5454
  154MOL0     H21232   7.130   6.275   9.714  0.3146  1.6954 -0.3008
  154MOL0     H21233   7.092   6.166   9.480 -2.0525 -2.4933  1.0908
  154MOL0     H21234   6.996   6.014   9.142 -1.2426  0.8888  2.4719
  154MOL0     H21235   6.951   5.895   8.928 -2.7388 -0.4974 -2.9149
  154MOL0     H21236   5.302   5.865   9.363  0.8928  0.2495  1.2123
  154MOL0     H21237   5.295   6.066   9.500 -1.3816  1.4600 -0.6928
  154MOL0     H21238   4.923   6.320   9.715 -1.6698  1.5366 -1.6083
  154MOL0     H21239   4.860   6.527   9.795 -1.6383  1.4551  1.6515
  154MOL0     H21240   5.087   6.689  10.111 -0.9390  0.1008 -0.7712
  154MOL0     H21241   5.154   6.818   9.998 -0.8219  2.4806 -1.5725
  154MOL0     H21242   4.864   6.796  10.083  0.3033  0.0494  1.1324
  154MOL0     H21243   4.947   6.939  10.017 -1.9186 -1.2059 -0.4323
  154MOL0     H21244   4.873   6.941  10.253 -1.6482 -2.5362 -1.5498
  154MOL0     H21245   4.979   6.816  10.303 -2.0901 -0.8649  0.6072
  154MOL0     H21246   5.181   6.957  10.243 -0.5968 -0.7788 -0.4434
  154MOL0     H21247   5.084   7.018  10.378  1.1851 -0.4336  0.5944
  154MOL0     H21248   4.992   7.326  10.103 -0.6051 -0.5962 -0.0226
  154MOL0     H21249   5.263   6.614   9.932  0.0356 -1.3733  0.3459
  154MOL0     H21250   5.415   6.342   9.760  1.4540  0.1591  0.8945
  154MOL0     H21251   5.427   6.510   9.808  0.8255 -0.5897 -2.5031
  154MOL0     H21252   5.419   6.368   9.926  2.4427  2.2301  0.1045
  155MOL0     O21253   8.575   7.046   6.900 -0.4274  0.0650  1.3393
  155MOL0     C21254   8.551   7.112   6.801  0.3954  0.9059 -0.8754
  155MOL0     O21255   8.638   7.148   6.708  0.6003 -0.1420 -0.0490
  155MOL0     C21256   8.759   7.094   6.690 -0.1921 -0.8299 -0.6485
  155MOL0     C21257   8.853   7.182   6.631 -0.6432  1.0694  0.0576
  155MOL0     C21258   8.975   7.143   6.593 -0.7739 -0.2330 -0.0366
  155MOL0     C21259   9.028   7.011   6.612  1.6572 -0.2217  0.5422
  155MOL0     O21260   9.150   6.964   6.576  0.1353  0.2147 -0.5144
  155MOL0     C21261   9.244   7.067   6.549 -0.5022 -0.6146  0.9341
  155MOL0     C21262   9.385   7.002   6.540 -0.0757 -0.6431  0.3168
  155MOL0     C21263   9.485   7.112   6.527  0.0810 -0.1128 -0.1869
  155MOL0     C21264   9.611   7.065   6.451  0.9528 -0.4094 -0.6172
  155MOL0     C21265   9.742   7.147   6.456 -0.5112 -0.6309  0.1549
  155MOL0     C21266   9.719   7.295   6.456  0.8270 -0.5493  0.6175
  155MOL0     C21267   9.842   7.378   6.450 -0.3525 -0.1621  0.0708
  155MOL0     C21268   9.858   7.463   6.581  0.0278 -0.4889 -0.3072
  155MOL0     N21269   9.892   7.378   6.701  0.3987 -0.9025 -1.2943
  155MOL0     C21270   9.983   7.279   6.693 -0.5521  0.2306 -0.2145
  155MOL0     C21271   9.968   7.214   6.810 -0.0694 -0.1559  0.0484
  155MOL0     C21272  10.046   7.098   6.845 -0.8170 -0.1813  0.5565
  155MOL0     C21273  10.183   7.127   6.891 -0.6032  0.3207  0.2502
  155MOL0     C21274  10.161   7.176   7.030 -0.6190  0.2156  0.3331
  155MOL0     C21275  10.277   7.162   7.120  0.5700  0.0792  0.4019
  155MOL0     O21276  10.321   7.025   7.133 -0.3089 -0.5406 -0.0323
  155MOL0     C21277  10.450   7.016   7.159 -0.4961 -0.5458 -1.2987
  155MOL0     C21278  10.523   7.099   7.255  0.3613 -1.0540 -0.2346
  155MOL0     C21279  10.668   7.096   7.273  0.3853  0.1791 -0.5029
  155MOL0     C21280  10.720   7.200   7.378  0.3100  0.5543  0.0953
  155MOL0     C21281  10.741   6.996   7.203 -0.1073  0.1999  0.7356
  155MOL0     C21282  10.884   6.978   7.215 -0.1701  0.9576  0.0304
  155MOL0     O21283  10.937   6.855   7.172  0.1661  0.1383  0.1063
  155MOL0     C21284  11.077   6.844   7.167  1.3667  0.4374  0.5522
  155MOL0     C21285  11.135   6.793   7.276  0.0344  0.0285 -0.3980
  155MOL0     C21286  11.270   6.757   7.286 -0.2452  0.7687  0.5307
  155MOL0     C21287  11.348   6.756   7.171 -0.0690 -0.1317  0.7767
  155MOL0     O21288  11.487   6.731   7.171 -0.1172  0.1192  0.0661
  155MOL0     C21289  11.547   6.696   7.043  1.2867  0.2421 -0.9166
  155MOL0     C21290  11.680   6.621   7.060 -0.0072  0.5463 -0.3533
  155MOL0     C21291  11.658   6.486   7.141  0.9624  0.7218  0.9097
  155MOL0     C21292  11.589   6.378   7.056 -0.7785  0.2039  0.3816
  155MOL0     C21293  11.542   6.263   7.149  0.1540  0.4890  0.1439
  155MOL0     C21294  11.460   6.165   7.067 -0.5936  0.8465  0.0628
  155MOL0     C21295  11.469   6.024   7.133  0.1164 -0.3420  0.4913
  155MOL0     C21296  11.427   5.904   7.039 -0.2139 -0.7963  0.0591
  155MOL0    Cl21297  11.246   5.930   6.992  0.0888  0.0866  0.3741
  155MOL0     C21298  11.285   6.806   7.054  0.2245  1.0087 -0.3186
  155MOL0     C21299  11.153   6.854   7.053 -0.6985  0.0735  0.2683
  155MOL0     O21300  10.948   7.080   7.240  0.4061 -0.6105  0.7128
  155MOL0     C21301  10.670   6.909   7.123 -0.1437 -0.1912 -0.2425
  155MOL0     C21302  10.528   6.918   7.098 -0.1554  0.1911 -0.2370
  155MOL0     N21303   9.875   7.276   6.893  0.0741 -0.0889  0.0519
  155MOL0     N21304   9.825   7.369   6.819  0.0368 -0.0643 -0.1268
  155MOL0     C21305   8.931   6.930   6.661 -0.6548  0.4243 -0.4692
  155MOL0     C21306   8.807   6.969   6.714 -0.0288 -0.6682 -0.5107
  155MOL0     C21307   8.416   7.173   6.793  0.5803  0.6876  0.6388
  155MOL0     C21308   8.379   7.247   6.680  0.1249 -0.0637 -0.0661
  155MOL0     C21309   8.250   7.311   6.674 -0.7182  0.7160  0.4429
  155MOL0     C21310   8.151   7.293   6.771 -0.1517  0.6969 -0.5000
  155MOL0     O21311   8.028   7.355   6.771 -0.2707  0.1088  0.5247
  155MOL0     C21312   8.002   7.456   6.675  0.5989  0.3187  1.1574
  155MOL0     C21313   7.907   7.571   6.715 -0.2527 -0.3079 -0.6388
  155MOL0     C21314   7.784   7.514   6.785 -0.1102 -0.5033 -0.8096
  155MOL0     C21315   7.707   7.403   6.710 -0.5125 -0.0895  0.0496
  155MOL0     C21316   7.566   7.390   6.728  0.1755  0.4536 -0.0284
  155MOL0     C21317   7.443   7.385   6.739  0.7144 -0.2754  1.4683
  155MOL0     C21318   8.192   7.211   6.887 -0.0202  0.4705 -0.8530
  155MOL0     C21319   8.320   7.156   6.896  0.4376  0.3540 -0.3267
  155MOL0     C21320   8.334   7.056   7.009  0.1808 -1.1210  0.7266
  155MOL0     H21321   8.846   7.289   6.613 -1.5071  1.2990  1.5569
  155MOL0     H21322   9.034   7.218   6.543  0.0747 -2.3740 -2.4389
  155MOL0     H21323   9.241   7.142   6.628 -1.3812 -0.1673  0.4918
  155MOL0     H21324   9.227   7.113   6.451 -0.2954 -0.8485  0.7845
  155MOL0     H21325   9.403   6.953   6.635  1.5512 -1.5361 -0.4089
  155MOL0     H21326   9.391   6.934   6.454 -0.6996  0.1043 -0.3429
  155MOL0     H21327   9.453   7.195   6.464  3.8304  1.8055  0.1961
  155MOL0     H21328   9.519   7.150   6.624 -1.3947  0.5180  0.1020
  155MOL0     H21329   9.635   6.964   6.488 -0.3138 -0.1385  1.0742
  155MOL0     H21330   9.584   7.063   6.345 -1.2858 -1.7094 -0.0846
  155MOL0     H21331   9.800   7.105   6.373 -1.3747  1.4268 -1.5942
  155MOL0     H21332   9.793   7.116   6.547 -0.4146  1.2402  0.7739
  155MOL0     H21333   9.644   7.316   6.379 -0.0376 -3.4028  0.5695
  155MOL0     H21334   9.666   7.317   6.549 -3.2852  0.8024 -1.7680
  155MOL0     H21335   9.826   7.442   6.362  0.7349  2.8309  1.8929
  155MOL0     H21336   9.930   7.314   6.437  2.8239  2.6673  4.5416
  155MOL0     H21337   9.946   7.527   6.574 -0.3411  0.4443  2.4181
  155MOL0     H21338   9.769   7.526   6.589 -0.8066 -1.5009 -1.2505
  155MOL0     H21339  10.056   7.251   6.617 -0.1146 -3.3278  1.3053
  155MOL0     H21340  10.059   7.039   6.754  0.9775  0.9113  0.0570
  155MOL0     H21341   9.988   7.030   6.908 -0.3411 -1.5338 -0.4258
  155MOL0     H21342  10.249   7.039   6.891 -0.8035  0.1656  0.4737
  155MOL0     H21343  10.222   7.201   6.821  2.3306 -0.3000  1.0644
  155MOL0     H21344  10.145   7.283   7.016  2.3835  0.6618 -0.5232
  155MOL0     H21345  10.076   7.131   7.081 -0.6735 -0.2324 -0.1357
  155MOL0     H21346  10.357   7.232   7.091  2.3782 -2.2878 -0.6699
  155MOL0     H21347  10.252   7.187   7.223 -0.3284 -3.0969  1.0399
  155MOL0     H21348  10.455   7.169   7.302 -2.1611 -2.3474 -1.7182
  155MOL0     H21349  10.819   7.169   7.412  0.2183 -1.8459 -1.5288
  155MOL0     H21350  10.654   7.214   7.464  1.5651 -1.2548  1.4219
  155MOL0     H21351  10.738   7.298   7.332  2.8994  0.0788 -0.0456
  155MOL0     H21352  11.078   6.773   7.366 -0.6012  1.1037 -0.5496
  155MOL0     H21353  11.301   6.725   7.385 -0.8351  2.3551  1.2633
  155MOL0     H21354  11.471   6.638   6.990 -0.1919  1.6257 -0.3863
  155MOL0     H21355  11.559   6.789   6.988  2.4535  0.7395  0.1357
  155MOL0     H21356  11.712   6.600   6.958  2.5638 -0.2667  0.5417
  155MOL0     H21357  11.759   6.680   7.107  0.0697  1.0180 -1.0662
  155MOL0     H21358  11.610   6.501   7.238  0.0811 -0.5619  0.7037
  155MOL0     H21359  11.757   6.443   7.157  0.7432 -0.8956 -1.5529
  155MOL0     H21360  11.667   6.352   6.983 -1.5109 -0.5618 -0.1452
  155MOL0     H21361  11.501   6.405   6.997 -0.4646 -0.6257 -0.4922
  155MOL0     H21362  11.631   6.209   7.181  0.6788  1.7507  0.8792
  155MOL0     H21363  11.475   6.288   7.232 -0.3975  0.9692 -0.4337
  155MOL0     H21364  11.495   6.156   6.964 -0.6682  0.2879  0.0808
  155MOL0     H21365  11.359   6.207   7.070 -0.9757 -0.0592  0.2160
  155MOL0     H21366  11.403   6.021   7.219  0.5297  0.5898  0.8484
  155MOL0     H21367  11.563   5.988   7.178 -0.6004 -2.5295  0.3946
  155MOL0     H21368  11.442   5.806   7.085  0.0768 -1.0166 -0.5018
  155MOL0     H21369  11.485   5.916   6.948 -1.3323 -2.2256 -0.8893
  155MOL0     H21370  11.341   6.812   6.961  0.2244  0.7236 -0.3383
  155MOL0     H21371  11.116   6.900   6.962 -1.7388 -1.3536 -0.0677
  155MOL0     H21372  10.719   6.820   7.086 -2.4537 -1.0547 -1.4200
  155MOL0     H21373  10.479   6.849   7.031 -2.0092 -0.5168  1.7096
  155MOL0     H21374   8.955   6.826   6.681 -1.7075 -0.2239 -2.3191
  155MOL0     H21375   8.736   6.898   6.755  1.1076 -0.7366  1.4841
  155MOL0     H21376   8.439   7.266   6.592 -1.0136  2.2616 -0.4042
  155MOL0     H21377   8.208   7.350   6.582 -1.4883  0.5994  0.7330
  155MOL0     H21378   8.092   7.511   6.645 -1.7123  3.3741 -0.7477
  155MOL0     H21379   7.964   7.399   6.590  0.5937 -1.7216  2.4357
  155MOL0     H21380   7.885   7.624   6.622  0.1729 -0.4196 -0.8068
  155MOL0     H21381   7.951   7.642   6.785  3.2166 -1.3342 -1.5466
  155MOL0     H21382   7.806   7.488   6.888 -1.4062  0.5789 -0.2260
  155MOL0     H21383   7.726   7.606   6.794  1.3879  0.7366 -2.9229
  155MOL0     H21384   7.762   7.312   6.733  1.3205  0.6061 -1.3709
  155MOL0     H21385   7.727   7.418   6.604  0.7807 -1.1268  0.1311
  155MOL0     H21386   7.337   7.385   6.747  0.3633  1.2278 -1.6379
  155MOL0     H21387   8.119   7.202   6.967 -0.4817  4.0196 -0.6998
  155MOL0     H21388   8.339   6.948   6.991 -0.8208 -1.0729  0.0892
  155MOL0     H21389   8.414   7.089   7.076  0.7754  1.5765 -1.1599
  155MOL0     H21390   8.240   7.061   7.066 -1.0196  0.6487 -1.2582
  156MOL0     O21391   4.482   9.419   8.100 -0.4118  0.2009 -0.2958
  156MOL0     C21392   4.585   9.363   8.095  0.0307 -0.7564 -0.3723
  156MOL0     O21393   4.629   9.285   8.193 -0.1120 -0.2004 -0.3192
  156MOL0     C21394   4.551   9.181   8.239 -0.0129  0.0447  0.2862
  156MOL0     C21395   4.437   9.123   8.178  0.7066 -1.3270  0.2119
  156MOL0     C21396   4.380   9.001   8.222 -1.1953  0.3439  0.1044
  156MOL0     C21397   4.423   8.942   8.347  0.4616  0.2207  0.6031
  156MOL0     O21398   4.372   8.834   8.415 -0.0761  0.3758 -0.3475
  156MOL0     C21399   4.250   8.777   8.364 -0.6091  0.1835 -0.7881
  156MOL0     C21400   4.229   8.634   8.415 -0.2625 -0.0104 -0.0065
  156MOL0     C21401   4.197   8.622   8.567 -0.5437  0.6145  0.1114
  156MOL0     C21402   4.300   8.693   8.665 -0.4896  1.1680 -0.4198
  156MOL0     C21403   4.300   8.618   8.800  0.6175 -0.5764  0.2495
  156MOL0     C21404   4.372   8.707   8.914  0.6554  0.1334  0.4394
  156MOL0     C21405   4.500   8.769   8.887 -0.5554  0.0448  0.0013
  156MOL0     C21406   4.620   8.662   8.873  0.7973 -0.0114  0.0683
  156MOL0     N21407   4.748   8.720   8.834  0.9213 -0.0714  0.4047
  156MOL0     C21408   4.764   8.847   8.781  0.2677 -0.1237  0.5349
  156MOL0     C21409   4.897   8.844   8.768  0.3641 -0.3460  0.3736
  156MOL0     C21410   4.983   8.956   8.706 -0.0350  0.9395  0.5013
  156MOL0     C21411   5.012   9.066   8.806  0.7264 -0.3126  0.2150
  156MOL0     C21412   5.085   9.187   8.740 -1.1162  1.0122 -0.6373
  156MOL0     C21413   5.105   9.301   8.837 -0.8241 -0.6133 -0.2922
  156MOL0     O21414   5.122   9.263   8.973 -0.2140 -0.4439  0.4125
  156MOL0     C21415   5.249   9.240   9.023 -0.5799 -0.6963 -0.4242
  156MOL0     C21416   5.264   9.195   9.161  0.9146 -0.5639 -0.7781
  156MOL0     C21417   5.385   9.155   9.216  0.4423  0.5169  1.3526
  156MOL0     C21418   5.373   9.086   9.344  0.1349 -0.4013  0.3319
  156MOL0     C21419   5.507   9.151   9.136 -0.2222  0.3864 -0.6586
  156MOL0     C21420   5.639   9.126   9.188 -0.5727  0.6437 -0.1166
  156MOL0     O21421   5.728   9.075   9.100  0.6119  0.0022 -0.2082
  156MOL0     C21422   5.852   9.042   9.155 -0.1361  0.1161  0.4332
  156MOL0     C21423   5.937   9.139   9.211 -0.2765  0.0762 -0.2798
  156MOL0     C21424   6.068   9.106   9.247 -0.4050 -0.2286 -0.5298
  156MOL0     C21425   6.112   8.974   9.223 -0.8016 -0.1134  0.6413
  156MOL0     O21426   6.242   8.936   9.250 -0.6525  0.5841  0.4150
  156MOL0     C21427   6.288   8.899   9.380 -0.0775  0.5695  0.0392
  156MOL0     C21428   6.425   8.837   9.390 -0.6892  0.4370 -0.3843
  156MOL0     C21429   6.445   8.725   9.289 -0.3292 -0.3953  1.2174
  156MOL0     C21430   6.569   8.638   9.317  0.2126  0.3049  0.2677
  156MOL0     C21431   6.556   8.495   9.252  0.5190 -0.5354  0.2003
  156MOL0     C21432   6.669   8.421   9.194 -0.3760 -0.5795  0.3697
  156MOL0     C21433   6.782   8.412   9.293  1.0184  0.2674 -0.2106
  156MOL0     C21434   6.881   8.312   9.244 -0.3555 -0.5656 -0.9020
  156MOL0    Cl21435   7.024   8.352   9.336  0.0756  0.4708 -0.5052
  156MOL0     C21436   6.027   8.880   9.174 -0.9629 -1.2087  0.9667
  156MOL0     C21437   5.902   8.913   9.128  0.2559  0.8191  0.3526
  156MOL0     O21438   5.663   9.149   9.304  0.2985 -0.5967 -0.2552
  156MOL0     C21439   5.495   9.201   9.004  0.4452 -0.7880  0.0267
  156MOL0     C21440   5.377   9.237   8.949  0.3257  0.2717  0.6298
  156MOL0     N21441   4.957   8.720   8.806  0.2341  0.5553 -0.2291
  156MOL0     N21442   4.862   8.643   8.842  0.5259  0.0553 -0.5979
  156MOL0     C21443   4.534   9.009   8.406 -0.2768 -0.5481  0.4583
  156MOL0     C21444   4.594   9.117   8.346 -0.3992 -0.5351 -0.6091
  156MOL0     C21445   4.686   9.394   7.994 -0.1385  0.7043  0.2607
  156MOL0     C21446   4.815   9.339   8.011  0.0369  0.5769  0.6207
  156MOL0     C21447   4.920   9.343   7.915  0.2608 -1.0975  0.0779
  156MOL0     C21448   4.893   9.408   7.801  0.0320  0.2231  0.5505
  156MOL0     O21449   4.974   9.421   7.687  0.4505  0.0769 -0.9395
  156MOL0     C21450   5.092   9.343   7.677 -0.3362 -0.7358  0.1120
  156MOL0     C21451   5.060   9.197   7.635  0.4696  0.6044  0.3302
  156MOL0     C21452   5.170   9.110   7.594  0.4085 -0.1566  0.0982
  156MOL0     C21453   5.283   9.096   7.700  0.0526 -0.4262 -0.0244
  156MOL0     C21454   5.404   9.168   7.655  0.2893  0.0189  0.0481
  156MOL0     C21455   5.506   9.223   7.628 -0.3292  0.3052 -0.4318
  156MOL0     C21456   4.773   9.472   7.785 -0.5830 -0.4526  0.7156
  156MOL0     C21457   4.671   9.477   7.885  0.2658 -0.0051  0.3517
  156MOL0     C21458   4.563   9.581   7.866  0.0669  0.5165 -0.4564
  156MOL0     H21459   4.376   9.169   8.101 -0.0194  0.2645  1.6601
  156MOL0     H21460   4.299   8.960   8.163  0.1310 -0.7020 -1.0865
  156MOL0     H21461   4.251   8.766   8.255 -1.0618 -1.3785 -0.6610
  156MOL0     H21462   4.167   8.839   8.399 -0.9525  0.1556 -1.5255
  156MOL0     H21463   4.147   8.589   8.359  0.2027  0.5165 -1.1524
  156MOL0     H21464   4.320   8.573   8.409 -2.3215 -3.3315  0.2607
  156MOL0     H21465   4.094   8.658   8.577 -1.0567 -1.2217  2.5951
  156MOL0     H21466   4.201   8.516   8.593 -0.9496  0.8454  1.1993
  156MOL0     H21467   4.398   8.698   8.616  0.4599  2.5859  1.4746
  156MOL0     H21468   4.270   8.797   8.679 -0.3142  1.1913 -0.2017
  156MOL0     H21469   4.366   8.531   8.793  3.8056  1.7039 -0.1877
  156MOL0     H21470   4.196   8.606   8.831  0.8621 -0.5057  1.1385
  156MOL0     H21471   4.300   8.789   8.921  1.0272  0.5935 -0.8460
  156MOL0     H21472   4.383   8.656   9.010  2.6026  1.1099  0.7889
  156MOL0     H21473   4.539   8.835   8.965  1.2390  0.0021 -0.7943
  156MOL0     H21474   4.493   8.828   8.795 -2.2716 -2.6687 -1.7392
  156MOL0     H21475   4.630   8.613   8.970  1.5868 -2.5105 -1.2088
  156MOL0     H21476   4.587   8.584   8.804 -0.0227 -0.5943  1.0838
  156MOL0     H21477   4.688   8.920   8.756 -1.8654 -2.6882 -1.0687
  156MOL0     H21478   4.931   9.001   8.621  0.0443 -0.1494 -0.1511
  156MOL0     H21479   5.071   8.906   8.666 -0.2882  0.5586  0.4116
  156MOL0     H21480   4.920   9.114   8.840  1.2645  1.9791 -1.3451
  156MOL0     H21481   5.067   9.032   8.895  0.0172 -0.8530  0.4577
  156MOL0     H21482   5.174   9.140   8.698 -1.4749 -0.6062  0.3023
  156MOL0     H21483   5.036   9.223   8.650 -0.1127  1.0123 -1.1970
  156MOL0     H21484   5.186   9.368   8.808 -1.2102 -0.2814 -0.6259
  156MOL0     H21485   5.020   9.370   8.836  1.6963  2.7503 -2.1129
  156MOL0     H21486   5.168   9.184   9.211  0.4931 -3.3558 -2.0080
  156MOL0     H21487   5.375   9.170   9.413 -0.9562 -0.0107 -0.0871
  156MOL0     H21488   5.455   9.018   9.369  0.5825  0.6747  1.8587
  156MOL0     H21489   5.285   9.025   9.367  0.0226 -1.0642 -1.6423
  156MOL0     H21490   5.890   9.236   9.225  0.5622  0.1283  3.1138
  156MOL0     H21491   6.135   9.185   9.278  1.8734 -2.0605 -0.5309
  156MOL0     H21492   6.270   8.986   9.444 -3.5490 -0.5259  0.7623
  156MOL0     H21493   6.217   8.825   9.419  0.9345 -0.5248 -0.1441
  156MOL0     H21494   6.496   8.919   9.378 -0.7082  0.5833  0.4235
  156MOL0     H21495   6.442   8.800   9.492 -2.3265  0.6665  0.0002
  156MOL0     H21496   6.459   8.762   9.187  3.3025 -1.4062  1.2245
  156MOL0     H21497   6.353   8.666   9.288 -2.0216  1.9431 -2.1177
  156MOL0     H21498   6.577   8.623   9.425 -1.3536  2.6395  0.7730
  156MOL0     H21499   6.664   8.683   9.284  0.3404 -0.3834 -0.3445
  156MOL0     H21500   6.503   8.429   9.321 -2.2501 -0.4991 -1.7202
  156MOL0     H21501   6.475   8.507   9.180 -0.3982  0.8242  1.4039
  156MOL0     H21502   6.707   8.464   9.101  1.8716  0.8421  1.8576
  156MOL0     H21503   6.631   8.320   9.173  2.6112 -1.5874 -0.6591
  156MOL0     H21504   6.746   8.391   9.394 -1.1015  3.7031 -0.0951
  156MOL0     H21505   6.839   8.506   9.293  1.1113  0.2190 -1.3518
  156MOL0     H21506   6.906   8.334   9.140 -1.7255  0.7117 -0.9973
  156MOL0     H21507   6.847   8.209   9.255  2.3205 -1.4409 -0.1791
  156MOL0     H21508   6.075   8.785   9.151 -0.3693 -0.2561 -2.2802
  156MOL0     H21509   5.838   8.850   9.067 -1.1493  2.0664  0.4787
  156MOL0     H21510   5.582   9.197   8.939 -1.6625 -1.2023 -2.9529
  156MOL0     H21511   5.382   9.255   8.842 -0.4593 -5.2729 -0.6475
  156MOL0     H21512   4.572   8.969   8.499 -2.0241 -0.6659  1.1673
  156MOL0     H21513   4.679   9.158   8.399 -0.0402 -1.5046 -0.4229
  156MOL0     H21514   4.850   9.292   8.103 -0.2161 -0.6588  0.1137
  156MOL0     H21515   5.016   9.304   7.945  1.3291  3.0452  2.8640
  156MOL0     H21516   5.146   9.382   7.590 -1.1631  1.1261  0.3880
  156MOL0     H21517   5.163   9.352   7.759  0.5864 -2.4750 -0.4415
  156MOL0     H21518   4.992   9.201   7.549  0.6764  0.7573  0.1718
  156MOL0     H21519   5.006   9.150   7.718 -1.5936  3.2319  0.5981
  156MOL0     H21520   5.134   9.018   7.546 -0.5630  0.5500 -0.5659
  156MOL0     H21521   5.211   9.157   7.504 -0.4027 -1.5550 -1.0560
  156MOL0     H21522   5.306   8.993   7.732  1.1644  0.4303  2.1360
  156MOL0     H21523   5.250   9.145   7.791 -1.4302  0.0220 -0.7813
  156MOL0     H21524   5.610   9.244   7.614  0.3636 -3.0728 -1.1396
  156MOL0     H21525   4.745   9.524   7.695  1.4253 -1.5944 -0.6642
  156MOL0     H21526   4.586   9.633   7.773  0.8503  0.6121 -0.2230
  156MOL0     H21527   4.466   9.532   7.852  0.8841 -1.1027 -0.6663
  156MOL0     H21528   4.569   9.662   7.939  1.1374  0.3070 -0.2938
  157MOL0     O21529   5.242   3.326   5.798 -0.3770 -0.2742  0.6916
  157MOL0     C21530   5.191   3.219   5.799 -0.5781  1.6292 -0.0377
  157MOL0     O21531   5.184   3.138   5.909 -0.0366  0.4165 -0.0593
  157MOL0     C21532   5.232   3.174   6.034 -0.3754 -0.5802 -0.3889
  157MOL0     C21533   5.343   3.266   6.065  0.0855 -0.6696 -0.6349
  157MOL0     C21534   5.394   3.276   6.199  0.1475  0.3127 -0.1244
  157MOL0     C21535   5.322   3.207   6.301 -1.4074  0.0303 -0.5620
  157MOL0     O21536   5.344   3.206   6.434 -1.4188  0.4188 -0.6979
  157MOL0     C21537   5.437   3.292   6.503 -0.3369  0.8523  1.1148
  157MOL0     C21538   5.574   3.244   6.499 -0.8798 -1.0718  0.1640
  157MOL0     C21539   5.651   3.306   6.618  0.5654 -0.1004 -0.1648
  157MOL0     C21540   5.675   3.205   6.731 -0.9408 -0.4324  0.2498
  157MOL0     C21541   5.819   3.177   6.753  0.0341 -0.3750  0.2135
  157MOL0     C21542   5.880   3.101   6.641  0.9838  0.6641 -0.0135
  157MOL0     C21543   6.021   3.045   6.680  0.5556 -0.2526 -0.6408
  157MOL0     C21544   6.131   3.141   6.645  0.7851 -0.0741 -0.0538
  157MOL0     N21545   6.248   3.109   6.733  0.8199 -0.1963 -0.1939
  157MOL0     C21546   6.264   3.144   6.863  0.3038  1.1598  0.2290
  157MOL0     C21547   6.400   3.121   6.879  0.3418  0.4914  0.2077
  157MOL0     C21548   6.471   3.136   7.007  0.1362 -0.1285 -0.1305
  157MOL0     C21549   6.522   3.285   7.018 -0.3886  0.3542  0.0421
  157MOL0     C21550   6.418   3.402   7.011 -0.4509 -0.3176  0.0558
  157MOL0     C21551   6.489   3.538   7.019  0.4720 -0.4172 -0.2201
  157MOL0     O21552   6.402   3.648   7.005 -0.4158 -0.6072  0.9746
  157MOL0     C21553   6.448   3.777   7.025  0.7068  0.2572  0.3799
  157MOL0     C21554   6.366   3.880   6.988  0.6863  0.5736  0.5740
  157MOL0     C21555   6.403   4.016   6.975  0.2587 -0.0920  0.3621
  157MOL0     C21556   6.290   4.091   6.907  0.1157 -0.2956 -0.4410
  157MOL0     C21557   6.536   4.051   7.021 -0.3829  0.0194  0.6505
  157MOL0     C21558   6.602   4.190   6.994 -0.7403  0.1131  0.3812
  157MOL0     O21559   6.737   4.216   7.028  0.4306 -0.0180 -0.1497
  157MOL0     C21560   6.804   4.335   6.993 -0.3495  0.3343 -0.0110
  157MOL0     C21561   6.812   4.429   7.092  0.3959 -0.4272  0.1956
  157MOL0     C21562   6.875   4.545   7.075 -0.4680 -0.5897  0.4406
  157MOL0     C21563   6.952   4.565   6.957 -0.3356  0.8144  0.7390
  157MOL0     O21564   7.033   4.665   6.919 -0.3542  0.2211 -0.2155
  157MOL0     C21565   6.986   4.799   6.948  0.3818  0.2619  0.1372
  157MOL0     C21566   7.085   4.908   6.897  0.3372 -0.5918  0.7538
  157MOL0     C21567   7.087   4.914   6.741 -1.2546  0.4964  0.4420
  157MOL0     C21568   7.178   5.023   6.676  0.5134 -0.3181 -0.5742
  157MOL0     C21569   7.223   4.993   6.531  0.0264  0.5461  0.5822
  157MOL0     C21570   7.103   4.972   6.437 -0.9686 -0.6711 -0.2667
  157MOL0     C21571   7.160   4.934   6.296  0.0219 -0.7076 -0.1676
  157MOL0     C21572   7.047   4.928   6.203  0.6453  0.5382  1.1609
  157MOL0    Cl21573   7.098   4.836   6.063 -0.5119 -0.0816  0.3359
  157MOL0     C21574   6.949   4.458   6.860  0.2798 -0.4127 -0.0860
  157MOL0     C21575   6.872   4.338   6.875 -0.2002 -0.1150  0.1648
  157MOL0     O21576   6.539   4.278   6.941 -0.2126 -0.9859  0.0907
  157MOL0     C21577   6.620   3.944   7.066 -0.0919  0.3926 -0.1431
  157MOL0     C21578   6.582   3.813   7.059  0.0811 -0.3734 -0.8919
  157MOL0     N21579   6.460   3.075   6.767 -0.9646  0.5940 -0.3003
  157MOL0     N21580   6.370   3.066   6.679  0.1937  0.0598  0.1591
  157MOL0     C21581   5.219   3.117   6.267 -0.7920  0.8329  0.0615
  157MOL0     C21582   5.172   3.104   6.138  0.5313 -0.1661  0.5893
  157MOL0     C21583   5.146   3.159   5.678 -0.0801  0.1424  0.4425
  157MOL0     C21584   5.049   3.054   5.687  0.6081  0.2554 -0.4518
  157MOL0     C21585   5.010   2.993   5.568 -0.7399 -0.1388 -0.2341
  157MOL0     C21586   5.033   3.045   5.441  0.8269 -0.2591  0.2448
  157MOL0     O21587   4.997   2.969   5.332 -0.1078  0.4546  0.8210
  157MOL0     C21588   4.991   3.021   5.199  0.2160 -0.1854  0.2684
  157MOL0     C21589   4.923   2.922   5.105 -0.1198 -0.4257 -0.4441
  157MOL0     C21590   4.776   2.894   5.154  0.4712  0.2229 -0.3483
  157MOL0     C21591   4.696   2.808   5.052 -0.0946  0.0571 -1.5224
  157MOL0     C21592   4.550   2.833   5.067  0.2003  0.0132  1.1659
  157MOL0     C21593   4.431   2.830   5.083  0.3273 -0.2892  0.9045
  157MOL0     C21594   5.114   3.157   5.431 -1.3877  0.8567 -0.0672
  157MOL0     C21595   5.179   3.214   5.543  0.2641  0.1165 -0.3731
  157MOL0     C21596   5.282   3.326   5.520  0.3565 -0.1194  0.0887
  157MOL0     H21597   5.395   3.335   6.000 -0.6119  0.2046 -0.2834
  157MOL0     H21598   5.468   3.354   6.210  0.6837 -0.2308  0.2082
  157MOL0     H21599   5.405   3.295   6.607  0.4793  2.6714  1.3568
  157MOL0     H21600   5.420   3.398   6.479  1.2597  0.2949 -3.4945
  157MOL0     H21601   5.566   3.134   6.498  0.4188 -1.2486 -2.8650
  157MOL0     H21602   5.633   3.277   6.413  0.1364  1.3972  1.7224
  157MOL0     H21603   5.745   3.356   6.595  0.4128  0.9762  1.3882
  157MOL0     H21604   5.598   3.389   6.666  0.9632 -0.8688  1.6803
  157MOL0     H21605   5.643   3.250   6.826  1.2971 -2.6769  2.2124
  157MOL0     H21606   5.612   3.117   6.714  1.8419 -2.3332 -0.8445
  157MOL0     H21607   5.820   3.121   6.847 -1.5259 -1.4298 -0.3553
  157MOL0     H21608   5.876   3.271   6.755 -1.6571  0.7433 -1.0219
  157MOL0     H21609   5.815   3.016   6.618 -1.0963  2.5352 -1.5199
  157MOL0     H21610   5.893   3.162   6.551  2.8355 -1.9722 -1.6838
  157MOL0     H21611   6.044   2.946   6.639  4.3915  1.4080 -3.0807
  157MOL0     H21612   6.012   3.020   6.787 -0.2643 -0.2621 -0.7065
  157MOL0     H21613   6.156   3.122   6.540 -2.1322 -2.0641 -0.5242
  157MOL0     H21614   6.107   3.247   6.657  0.8661 -0.0911  0.2514
  157MOL0     H21615   6.192   3.181   6.935  0.6076  2.7637 -0.2661
  157MOL0     H21616   6.559   3.072   7.015  0.4491  0.4214  1.0228
  157MOL0     H21617   6.402   3.098   7.083 -0.5275 -0.5056 -0.9049
  157MOL0     H21618   6.561   3.286   7.120 -0.2635 -0.6351  0.0064
  157MOL0     H21619   6.607   3.296   6.950  1.5341  2.6659  2.5805
  157MOL0     H21620   6.360   3.395   6.918  0.4952 -2.2596 -0.4320
  157MOL0     H21621   6.342   3.379   7.087  0.6422 -0.2548  1.1918
  157MOL0     H21622   6.529   3.540   7.121  0.0147  0.4929 -0.0461
  157MOL0     H21623   6.569   3.537   6.945 -0.2648 -0.0897 -1.0316
  157MOL0     H21624   6.270   3.844   6.953  1.6927 -2.4737  0.6686
  157MOL0     H21625   6.231   4.036   6.833  0.5168  0.7817 -1.5932
  157MOL0     H21626   6.340   4.175   6.857 -0.4811  0.7480  0.6563
  157MOL0     H21627   6.216   4.129   6.978  1.9833  2.0092  0.4070
  157MOL0     H21628   6.756   4.407   7.183 -0.0485 -1.3584 -0.2889
  157MOL0     H21629   6.856   4.624   7.146  2.8555  2.7491 -2.0360
  157MOL0     H21630   6.887   4.802   6.900  0.7263 -0.3459 -0.6326
  157MOL0     H21631   6.987   4.809   7.057  3.1450  1.0838  0.1106
  157MOL0     H21632   7.060   5.006   6.937  0.2748 -1.7858  3.9212
  157MOL0     H21633   7.189   4.891   6.927  0.4414  0.7726  1.2124
  157MOL0     H21634   6.992   4.904   6.688 -1.5682  2.2834  0.6224
  157MOL0     H21635   7.136   4.823   6.705  1.2616  1.1074  2.0148
  157MOL0     H21636   7.268   5.033   6.738 -1.6313 -0.8352  2.9410
  157MOL0     H21637   7.135   5.123   6.684  1.4474 -0.0402  4.9854
  157MOL0     H21638   7.288   5.070   6.487  1.8210 -0.3229  1.6022
  157MOL0     H21639   7.276   4.898   6.530 -0.5875  0.1907  1.1731
  157MOL0     H21640   7.045   5.063   6.427  2.1035  1.8855  2.6064
  157MOL0     H21641   7.040   4.890   6.473 -0.6796 -0.9639 -0.4165
  157MOL0     H21642   7.206   4.836   6.310 -0.2506 -0.7556  0.4239
  157MOL0     H21643   7.233   5.013   6.273 -1.9055  1.0858 -0.5171
  157MOL0     H21644   7.035   5.031   6.169  2.5102  0.0336 -1.3423
  157MOL0     H21645   6.950   4.894   6.238 -1.9205  3.5486 -2.1984
  157MOL0     H21646   7.030   4.456   6.788  0.6203 -0.0112  0.2793
  157MOL0     H21647   6.861   4.256   6.806 -0.9289 -0.1060  0.2610
  157MOL0     H21648   6.726   3.955   7.091 -1.1882  1.3306  5.7117
  157MOL0     H21649   6.662   3.745   7.086  0.9499  1.6631  2.1577
  157MOL0     H21650   5.175   3.057   6.346  0.7545  0.4725  0.6832
  157MOL0     H21651   5.094   3.034   6.109 -0.3141  1.6651 -1.8922
  157MOL0     H21652   5.018   3.009   5.781 -0.9513 -0.4675 -1.2753
  157MOL0     H21653   4.932   2.917   5.562 -2.3604  1.5102 -0.7970
  157MOL0     H21654   4.951   3.123   5.192  1.0918  0.1743  0.2423
  157MOL0     H21655   5.093   3.025   5.160 -0.5160 -2.2342 -2.0596
  157MOL0     H21656   4.980   2.829   5.106 -1.9960 -1.6445  1.7755
  157MOL0     H21657   4.927   2.963   5.003  2.1506 -1.1537 -0.7029
  157MOL0     H21658   4.777   2.845   5.252  0.0545 -0.1200 -0.5149
  157MOL0     H21659   4.727   2.991   5.161  0.6403  0.2004  3.1860
  157MOL0     H21660   4.725   2.705   5.074  0.7867  0.4648 -0.6764
  157MOL0     H21661   4.726   2.834   4.950 -0.8501 -2.0981 -2.3595
  157MOL0     H21662   4.325   2.815   5.091  0.1360 -0.4405 -1.2996
  157MOL0     H21663   5.142   3.203   5.337 -1.6885 -0.5088 -0.8417
  157MOL0     H21664   5.317   3.326   5.416  1.7211 -0.3226  0.5229
  157MOL0     H21665   5.241   3.426   5.537  0.9366  0.4145 -1.4401
  157MOL0     H21666   5.373   3.318   5.581  0.4629  2.3484  0.3563
  158MOL0     O21667   2.256   8.390   6.853  0.4202 -0.1455  0.5812
  158MOL0     C21668   2.202   8.505   6.846 -0.7423  0.0125  0.2086
  158MOL0     O21669   2.250   8.615   6.899 -0.0730  0.5351 -0.0330
  158MOL0     C21670   2.353   8.595   6.982 -0.7913  0.6149  0.6418
  158MOL0     C21671   2.325   8.603   7.112  0.2778 -0.2770 -0.1259
  158MOL0     C21672   2.427   8.589   7.204  0.0895  0.5138 -0.9677
  158MOL0     C21673   2.560   8.570   7.165  0.4430 -0.6142  0.4155
  158MOL0     O21674   2.657   8.552   7.257 -0.4955 -0.6426  0.7884
  158MOL0     C21675   2.723   8.422   7.261  0.0122  0.8913 -0.9100
  158MOL0     C21676   2.844   8.420   7.166 -0.6672  0.0088  0.1096
  158MOL0     C21677   2.834   8.296   7.083 -0.0441  0.1622 -0.0375
  158MOL0     C21678   2.959   8.273   6.986  0.0048 -0.1206  0.1485
  158MOL0     C21679   2.946   8.138   6.922 -0.0836  0.2165 -0.6467
  158MOL0     C21680   2.826   8.120   6.823  0.2520  0.4679  0.5615
  158MOL0     C21681   2.814   8.234   6.719  0.2743  0.0907  0.0319
  158MOL0     C21682   2.940   8.228   6.624  0.8175  0.2905 -0.1726
  158MOL0     N21683   2.932   8.343   6.525  0.4706  0.4291 -0.4401
  158MOL0     C21684   3.025   8.434   6.501 -0.1048 -0.9078 -0.6996
  158MOL0     C21685   2.960   8.522   6.421  0.1592  0.9711 -0.3119
  158MOL0     C21686   3.010   8.642   6.358 -0.6275 -0.4196 -0.9487
  158MOL0     C21687   2.912   8.759   6.362 -0.1809 -0.0231  0.1623
  158MOL0     C21688   2.976   8.887   6.311 -0.7016  0.7294 -0.4353
  158MOL0     C21689   3.083   8.949   6.398 -0.1735  0.3411  0.3085
  158MOL0     O21690   3.028   8.982   6.521  0.3949 -0.9996  0.1735
  158MOL0     C21691   3.044   9.106   6.563  0.6697 -0.6391 -0.7107
  158MOL0     C21692   2.951   9.196   6.520  0.3320  0.8665  0.3675
  158MOL0     C21693   2.965   9.332   6.549 -0.2221 -0.4814 -0.2748
  158MOL0     C21694   2.876   9.426   6.472  0.9484  0.2205 -0.5527
  158MOL0     C21695   3.073   9.379   6.631 -0.1866 -0.9316  0.4935
  158MOL0     C21696   3.111   9.522   6.657 -0.2937  0.2546  0.2909
  158MOL0     O21697   3.019   9.622   6.634  0.0982  0.3309 -0.4332
  158MOL0     C21698   3.033   9.749   6.676  0.4121 -1.0828 -0.8156
  158MOL0     C21699   3.044   9.771   6.812 -0.4432  0.3193 -0.6710
  158MOL0     C21700   3.087   9.897   6.865  0.4767  0.1491  0.4372
  158MOL0     C21701   3.080  10.009   6.777  0.6828 -0.5714  0.4686
  158MOL0     O21702   3.108  10.133   6.830  0.2141  0.4681 -0.3731
  158MOL0     C21703   3.064  10.257   6.767  0.5188  0.4754 -0.1722
  158MOL0     C21704   2.997  10.347   6.867  0.5975 -0.3299  0.0923
  158MOL0     C21705   3.095  10.412   6.960  0.0368  0.3632  0.5184
  158MOL0     C21706   3.092  10.345   7.099 -1.0030 -0.1213 -0.0460
  158MOL0     C21707   3.025  10.449   7.203 -0.1484  0.5567 -0.0479
  158MOL0     C21708   3.120  10.557   7.269 -0.5569 -0.5715 -0.2144
  158MOL0     C21709   3.260  10.525   7.314 -0.3371  0.6213 -0.0587
  158MOL0     C21710   3.335  10.661   7.353  0.9442  0.1312 -0.1354
  158MOL0    Cl21711   3.432  10.724   7.215  0.1791  0.1585  0.3106
  158MOL0     C21712   3.063   9.983   6.640  0.6066 -0.3094  0.7398
  158MOL0     C21713   3.041   9.852   6.590 -0.6471 -1.0442  0.2740
  158MOL0     O21714   3.224   9.539   6.710  0.0664  0.3809  0.1828
  158MOL0     C21715   3.153   9.280   6.686 -0.3195  0.0225 -0.7446
  158MOL0     C21716   3.143   9.141   6.652  0.0509 -0.0581 -0.5414
  158MOL0     N21717   2.838   8.463   6.387  0.5468 -0.9845  1.0290
  158MOL0     N21718   2.820   8.355   6.450 -0.1392  0.5996  0.8005
  158MOL0     C21719   2.601   8.562   7.030  1.0217  0.2500  0.5308
  158MOL0     C21720   2.490   8.572   6.943  0.3026 -0.4582 -0.0859
  158MOL0     C21721   2.065   8.516   6.780 -1.1441  0.4418 -0.5341
  158MOL0     C21722   2.029   8.638   6.725 -0.2492  0.3512 -0.0548
  158MOL0     C21723   1.906   8.657   6.665  0.6661  0.4366  0.1019
  158MOL0     C21724   1.808   8.554   6.665  0.0862  0.5135 -0.1434
  158MOL0     O21725   1.686   8.576   6.618  0.1270  0.2540 -0.0762
  158MOL0     C21726   1.671   8.582   6.473 -0.6452 -0.1711  0.4243
  158MOL0     C21727   1.529   8.531   6.453  0.4132  0.3891 -0.1151
  158MOL0     C21728   1.504   8.406   6.543 -0.0248  0.2665 -0.0069
  158MOL0     C21729   1.387   8.321   6.501 -0.6567  0.1097 -0.7914
  158MOL0     C21730   1.384   8.188   6.564 -0.6041 -0.1621  0.4831
  158MOL0     C21731   1.370   8.077   6.614  0.6625  0.7576  0.4603
  158MOL0     C21732   1.842   8.440   6.717  0.1502 -0.0703 -0.8578
  158MOL0     C21733   1.969   8.406   6.773  0.6999 -0.7439 -0.3472
  158MOL0     C21734   1.997   8.276   6.835  0.4131  0.1171  0.1588
  158MOL0     H21735   2.226   8.624   7.150  1.0511  3.4179  0.1580
  158MOL0     H21736   2.403   8.595   7.310  1.1123  3.6306 -0.8011
  158MOL0     H21737   2.645   8.346   7.245 -2.4563  3.0887 -0.1481
  158MOL0     H21738   2.742   8.407   7.367 -0.1456 -1.7360 -1.1750
  158MOL0     H21739   2.852   8.511   7.105  2.2280 -0.4915 -0.4220
  158MOL0     H21740   2.933   8.414   7.228 -1.0266  1.3682  0.7990
  158MOL0     H21741   2.830   8.212   7.152 -2.4383 -0.6620 -1.1013
  158MOL0     H21742   2.741   8.297   7.026  0.3707  1.2483 -0.7338
  158MOL0     H21743   2.968   8.354   6.913 -2.1126  2.4869  2.5860
  158MOL0     H21744   3.050   8.272   7.047 -1.0403  0.2055  1.7638
  158MOL0     H21745   2.938   8.063   7.002  0.7518 -0.9186 -1.5862
  158MOL0     H21746   3.035   8.108   6.867  1.1907  1.6705  0.5506
  158MOL0     H21747   2.829   8.023   6.774 -1.3450 -0.1501  1.5860
  158MOL0     H21748   2.730   8.116   6.876 -1.9345  2.5446 -2.8658
  158MOL0     H21749   2.805   8.336   6.758 -0.1151  1.1249 -2.5654
  158MOL0     H21750   2.725   8.206   6.661 -0.3347  0.4141  0.7925
  158MOL0     H21751   3.036   8.236   6.677  0.5696 -0.3495  0.3880
  158MOL0     H21752   2.953   8.130   6.578  0.2347 -0.0597  0.4001
  158MOL0     H21753   3.126   8.432   6.542 -0.3631 -0.8576 -0.0527
  158MOL0     H21754   3.036   8.620   6.254 -1.3283  1.7302 -1.6280
  158MOL0     H21755   3.099   8.657   6.420 -0.5195 -2.6031 -0.4801
  158MOL0     H21756   2.821   8.750   6.302 -0.4282  2.3275  0.1197
  158MOL0     H21757   2.869   8.772   6.462  1.6944  0.0131  1.0013
  158MOL0     H21758   3.019   8.875   6.211  3.6271 -1.1670  1.3845
  158MOL0     H21759   2.888   8.951   6.307  0.7153  2.7037 -3.0373
  158MOL0     H21760   3.167   8.882   6.414  0.6618  1.4920  0.9198
  158MOL0     H21761   3.128   9.027   6.336  2.2086 -0.6822  0.6406
  158MOL0     H21762   2.870   9.173   6.452  0.6644  3.3263 -0.9712
  158MOL0     H21763   2.805   9.376   6.404  0.4440  2.2013 -1.5402
  158MOL0     H21764   2.932   9.491   6.405  1.3931 -1.3125 -1.7422
  158MOL0     H21765   2.824   9.484   6.549 -0.2269  0.6897 -1.6620
  158MOL0     H21766   3.038   9.685   6.879 -1.0550  0.2934 -0.7529
  158MOL0     H21767   3.115   9.902   6.970  0.3545 -3.1931  0.7514
  158MOL0     H21768   3.153  10.293   6.715 -0.6865  1.6947 -1.4755
  158MOL0     H21769   2.993  10.236   6.687 -0.3533 -0.5473  0.8408
  158MOL0     H21770   2.934  10.419   6.815 -0.3343  0.2062  1.8580
  158MOL0     H21771   2.917  10.293   6.918  0.6290 -0.7105 -0.2549
  158MOL0     H21772   3.078  10.520   6.969 -0.5488  0.4571 -1.3881
  158MOL0     H21773   3.194  10.417   6.914  0.2689  0.0684  0.9804
  158MOL0     H21774   3.194  10.315   7.125 -0.5074  1.9874  0.7261
  158MOL0     H21775   3.035  10.253   7.094  1.8232 -2.0067  0.0052
  158MOL0     H21776   2.936  10.499   7.164 -0.9359 -0.5575  0.2629
  158MOL0     H21777   2.998  10.390   7.291 -0.9745 -1.6460 -1.6792
  158MOL0     H21778   3.079  10.617   7.351  1.5768  0.5514  0.0889
  158MOL0     H21779   3.134  10.624   7.184 -2.6383  1.2043  0.7391
  158MOL0     H21780   3.321  10.466   7.245 -0.3922  0.8326 -0.2895
  158MOL0     H21781   3.245  10.463   7.403  2.6751  0.6854  0.5876
  158MOL0     H21782   3.405  10.643   7.436  1.3357  1.0638 -0.2558
  158MOL0     H21783   3.260  10.733   7.388  0.9913  0.7124 -1.2031
  158MOL0     H21784   3.068  10.063   6.568 -2.7458  0.1909  0.8794
  158MOL0     H21785   3.011   9.838   6.487 -4.0406 -1.2452  1.1778
  158MOL0     H21786   3.228   9.281   6.764 -2.1661 -0.4121  1.1185
  158MOL0     H21787   3.199   9.057   6.692 -1.9662 -0.4975  1.5344
  158MOL0     H21788   2.694   8.533   6.981  0.2991 -0.0184 -0.7329
  158MOL0     H21789   2.505   8.555   6.836 -5.3390 -0.4485 -1.1923
  158MOL0     H21790   2.101   8.718   6.735  1.7722 -1.2463 -1.0040
  158MOL0     H21791   1.886   8.753   6.618  0.3561  1.8894  3.0258
  158MOL0     H21792   1.688   8.681   6.430  1.1956 -0.8719 -0.5508
  158MOL0     H21793   1.748   8.522   6.424 -0.5302 -0.8824  1.4562
  158MOL0     H21794   1.532   8.514   6.345  0.7057  3.2484 -0.6446
  158MOL0     H21795   1.453   8.609   6.464  0.6417  0.5097  0.7057
  158MOL0     H21796   1.589   8.337   6.532 -0.3085  0.0348 -0.8077
  158MOL0     H21797   1.494   8.433   6.648 -1.0068  0.3697 -0.1249
  158MOL0     H21798   1.397   8.310   6.393  1.3049 -0.7188 -0.5533
  158MOL0     H21799   1.303   8.381   6.540  0.7574  0.2713  2.2459
  158MOL0     H21800   1.338   7.986   6.660  2.0589 -0.5527 -1.0332
  158MOL0     H21801   1.766   8.362   6.715 -0.4315  0.4172  0.6082
  158MOL0     H21802   1.904   8.218   6.841  0.4429  0.1914  2.2206
  158MOL0     H21803   2.064   8.228   6.763  1.6166  1.9829 -0.0444
  158MOL0     H21804   2.043   8.284   6.934  1.9833  1.2294 -0.6198
  159MOL0     O21805   8.716   1.113   8.411 -0.0406  0.9515  0.1117
  159MOL0     C21806   8.645   1.024   8.454  0.8189  0.4422  0.3126
  159MOL0     O21807   8.641   0.976   8.578  0.5214 -0.6357  0.0077
  159MOL0     C21808   8.731   1.022   8.663 -0.9835 -0.5082  1.0047
  159MOL0     C21809   8.851   0.954   8.662  0.2818  0.2561 -0.7004
  159MOL0     C21810   8.959   1.010   8.732  1.0703  0.0944  0.5757
  159MOL0     C21811   8.950   1.140   8.790  0.2026  0.1678 -0.2540
  159MOL0     O21812   9.050   1.201   8.858 -0.2690  0.7249 -0.0018
  159MOL0     C21813   9.193   1.163   8.850 -0.1502 -1.2455 -0.7289
  159MOL0     C21814   9.272   1.280   8.921  0.1000  1.3201 -0.0355
  159MOL0     C21815   9.246   1.416   8.859 -0.6426 -0.7582 -0.2246
  159MOL0     C21816   9.355   1.524   8.904 -0.5399 -0.0329 -0.2103
  159MOL0     C21817   9.346   1.648   8.813  0.1800 -0.1442  0.0075
  159MOL0     C21818   9.259   1.755   8.870  0.1972 -0.3373  0.1851
  159MOL0     C21819   9.259   1.869   8.767 -0.3103  0.8698  0.9543
  159MOL0     C21820   9.177   1.985   8.826 -1.0677  0.2921  1.0067
  159MOL0     N21821   9.248   2.044   8.941  0.3351  0.3153 -0.1480
  159MOL0     C21822   9.357   2.130   8.940  0.2935 -0.6106 -0.6361
  159MOL0     C21823   9.383   2.162   9.064 -0.0047 -0.8040 -0.4508
  159MOL0     C21824   9.496   2.260   9.100 -0.1982  0.0483  0.7887
  159MOL0     C21825   9.604   2.214   9.208  0.4488 -0.2099  1.0086
  159MOL0     C21826   9.558   2.217   9.351  0.5992  0.6185 -0.0027
  159MOL0     C21827   9.664   2.128   9.426  0.2437 -0.2624 -0.2371
  159MOL0     O21828   9.796   2.180   9.411  0.2811  0.6368 -0.0540
  159MOL0     C21829   9.898   2.139   9.497 -0.1287 -0.8920 -0.3274
  159MOL0     C21830   9.880   2.070   9.609 -0.4190 -0.8294 -1.0856
  159MOL0     C21831   9.978   2.042   9.697 -0.6286  0.0134  0.0857
  159MOL0     C21832   9.922   1.956   9.809 -1.3045  0.5796  0.7215
  159MOL0     C21833  10.112   2.088   9.682  0.2651  0.1072  0.0492
  159MOL0     C21834  10.225   2.058   9.771  0.0976 -0.7186  0.5313
  159MOL0     O21835  10.219   1.938   9.833  0.3536 -0.2015  0.2013
  159MOL0     C21836  10.345   1.895   9.887 -0.4819 -0.3769  0.2782
  159MOL0     C21837  10.463   1.894   9.816  0.2910 -0.9072 -0.6530
  159MOL0     C21838  10.584   1.861   9.881  0.7400  0.5556  0.1803
  159MOL0     C21839  10.574   1.814  10.013 -0.7215 -0.0075  0.2985
  159MOL0     O21840  10.698   1.780  10.058 -0.1124  0.0828  1.0848
  159MOL0     C21841  10.727   1.802  10.196  0.2193 -0.1491  0.6695
  159MOL0     C21842  10.878   1.788  10.222  0.1330 -0.7053  0.2687
  159MOL0     C21843  10.917   1.641  10.199 -0.2566 -0.4214 -0.0825
  159MOL0     C21844  11.070   1.633  10.226  0.3407  0.0941 -0.3859
  159MOL0     C21845  11.114   1.483  10.244 -0.9215  0.3938 -0.1025
  159MOL0     C21846  11.238   1.466  10.340 -0.3393  0.3587 -0.6390
  159MOL0     C21847  11.343   1.561  10.294 -0.7054 -0.1715  0.9860
  159MOL0     C21848  11.476   1.547  10.361 -0.0048 -1.3380 -0.4840
  159MOL0    Cl21849  11.465   1.603  10.531  0.1609 -0.0764 -0.3000
  159MOL0     C21850  10.450   1.816  10.087 -0.6171  0.5816 -0.0990
  159MOL0     C21851  10.342   1.858  10.022 -0.0660  0.2920  0.2638
  159MOL0     O21852  10.316   2.141   9.773 -0.0259 -0.2406 -0.7373
  159MOL0     C21853  10.130   2.162   9.568  0.0353  0.9377  0.4109
  159MOL0     C21854  10.027   2.188   9.479 -0.0803 -0.1611  0.0511
  159MOL0     N21855   9.294   2.100   9.147 -0.0792 -0.2051 -0.0851
  159MOL0     N21856   9.225   2.016   9.072 -0.1508  0.2861 -0.6352
  159MOL0     C21857   8.826   1.209   8.783  0.4126 -0.0275 -0.0686
  159MOL0     C21858   8.718   1.152   8.711 -0.1548 -0.3583 -0.1183
  159MOL0     C21859   8.569   0.939   8.356 -0.4478  0.0947 -0.1591
  159MOL0     C21860   8.567   0.795   8.373  0.5781 -0.0363 -0.2053
  159MOL0     C21861   8.484   0.712   8.301  0.2446  0.3130  1.3441
  159MOL0     C21862   8.404   0.765   8.201 -0.4465 -0.4885  0.2477
  159MOL0     O21863   8.328   0.685   8.114 -0.5146  0.8538  0.4928
  159MOL0     C21864   8.276   0.743   8.001  0.3987  0.0893  1.2357
  159MOL0     C21865   8.205   0.631   7.912 -0.4634  0.0896 -0.1295
  159MOL0     C21866   8.158   0.688   7.779 -0.3236  1.3925 -0.1275
  159MOL0     C21867   8.009   0.731   7.792 -0.1277 -0.8167 -0.2217
  159MOL0     C21868   7.948   0.765   7.665  0.1838  0.9663 -0.7314
  159MOL0     C21869   7.919   0.785   7.547  0.3319  0.0569 -0.0788
  159MOL0     C21870   8.402   0.909   8.179  1.3005  0.0935  0.2927
  159MOL0     C21871   8.484   0.990   8.253 -0.9038 -0.8549 -0.8783
  159MOL0     C21872   8.497   1.134   8.213  0.4910  0.2320  0.1079
  159MOL0     H21873   8.857   0.854   8.620 -0.6256 -1.0620  2.0681
  159MOL0     H21874   9.049   0.950   8.743  1.4217  0.7567  1.4270
  159MOL0     H21875   9.221   1.158   8.745  1.6989 -0.7377 -0.3025
  159MOL0     H21876   9.216   1.071   8.905 -2.1891 -1.9229 -0.9375
  159MOL0     H21877   9.243   1.272   9.026 -0.7947 -3.1184 -0.3949
  159MOL0     H21878   9.379   1.267   8.908  0.0389  3.4696 -4.4903
  159MOL0     H21879   9.245   1.403   8.751 -2.1474  0.9156 -0.4518
  159MOL0     H21880   9.145   1.445   8.889 -1.5202 -1.2007 -2.5371
  159MOL0     H21881   9.344   1.549   9.009  0.8537  1.1721 -0.3204
  159MOL0     H21882   9.453   1.483   8.876 -0.2196 -0.2188  1.1502
  159MOL0     H21883   9.301   1.617   8.718  0.9134  4.3124 -2.0120
  159MOL0     H21884   9.452   1.672   8.801  1.0944 -3.1522  0.9396
  159MOL0     H21885   9.160   1.712   8.883 -0.7705  1.3403 -1.2461
  159MOL0     H21886   9.305   1.787   8.965 -0.7092  0.2872  0.4218
  159MOL0     H21887   9.216   1.830   8.675 -0.8169  1.5382  0.9013
  159MOL0     H21888   9.362   1.901   8.750 -0.3704  1.7135  2.0737
  159MOL0     H21889   9.157   2.059   8.748 -1.9888 -0.2285  0.7357
  159MOL0     H21890   9.080   1.949   8.861 -0.9246 -1.7749 -0.5495
  159MOL0     H21891   9.416   2.172   8.860 -0.2633 -0.8245 -1.1717
  159MOL0     H21892   9.447   2.348   9.142 -2.3764 -1.7687  2.3391
  159MOL0     H21893   9.541   2.303   9.011  0.2865  1.7023  1.7958
  159MOL0     H21894   9.658   2.124   9.176  1.1546  0.6982 -0.4786
  159MOL0     H21895   9.683   2.289   9.198  0.7422 -0.5959  0.3862
  159MOL0     H21896   9.557   2.316   9.396  1.6867 -1.0378  4.0970
  159MOL0     H21897   9.459   2.172   9.361  0.6841  0.1817 -0.9778
  159MOL0     H21898   9.631   2.127   9.530 -1.0081  2.1139 -0.5347
  159MOL0     H21899   9.653   2.028   9.382 -1.5620  0.5962 -1.9084
  159MOL0     H21900   9.779   2.037   9.632 -1.6715  1.9066 -2.2333
  159MOL0     H21901   9.829   2.007   9.837 -2.7081 -2.0769  1.1669
  159MOL0     H21902   9.985   1.948   9.898 -2.1238  4.4513  1.8751
  159MOL0     H21903   9.908   1.857   9.764  1.2765  0.5769 -0.2293
  159MOL0     H21904  10.472   1.941   9.719  0.8954 -1.0048 -0.6507
  159MOL0     H21905  10.673   1.866   9.820 -0.8211  2.0705 -2.1261
  159MOL0     H21906  10.688   1.899  10.226 -0.1940 -0.2079  0.3189
  159MOL0     H21907  10.678   1.729  10.261  0.1984 -0.2299  0.5629
  159MOL0     H21908  10.953   1.848  10.169  3.0058 -1.8396  2.7198
  159MOL0     H21909  10.880   1.817  10.328 -4.3544  1.2212  0.0296
  159MOL0     H21910  10.893   1.616  10.095 -0.0650 -0.9670  0.0027
  159MOL0     H21911  10.864   1.583  10.275  0.6251  1.1476  1.8148
  159MOL0     H21912  11.077   1.667  10.330 -2.2522 -3.7884  1.2978
  159MOL0     H21913  11.133   1.690  10.157  0.7208  1.7140  1.2371
  159MOL0     H21914  11.027   1.431  10.287  0.2637 -1.0110  0.6744
  159MOL0     H21915  11.144   1.443  10.147 -1.0435  1.2578 -0.5128
  159MOL0     H21916  11.280   1.365  10.332 -1.2618  0.0078 -1.2642
  159MOL0     H21917  11.213   1.498  10.441  1.7443  2.2193 -0.6268
  159MOL0     H21918  11.312   1.666  10.301 -0.2308  0.1490 -1.1205
  159MOL0     H21919  11.350   1.544  10.187  1.6170  1.8301  0.7248
  159MOL0     H21920  11.555   1.595  10.302 -2.3385  1.2827 -1.7361
  159MOL0     H21921  11.500   1.440  10.355  0.0268 -1.3270 -0.5625
  159MOL0     H21922  10.427   1.790  10.190 -2.6184  0.8759 -0.4302
  159MOL0     H21923  10.247   1.863  10.074  0.1980 -0.0102  0.7807
  159MOL0     H21924  10.233   2.191   9.546  0.2690 -1.0235 -1.5109
  159MOL0     H21925  10.055   2.241   9.388 -2.9313  1.7661  0.1573
  159MOL0     H21926   8.813   1.292   8.852  1.9636  0.8675 -0.7999
  159MOL0     H21927   8.619   1.196   8.705 -0.5909 -1.3905 -0.7204
  159MOL0     H21928   8.633   0.748   8.445 -0.7386 -2.6821 -0.5985
  159MOL0     H21929   8.501   0.605   8.312 -0.6292 -0.3545 -2.4415
  159MOL0     H21930   8.207   0.819   8.041  0.6077  0.2723  1.2528
  159MOL0     H21931   8.358   0.790   7.945  0.5679  0.1341  1.5179
  159MOL0     H21932   8.123   0.586   7.969  0.1594  0.2327  0.9103
  159MOL0     H21933   8.279   0.554   7.890 -0.9305  0.0136 -1.4974
  159MOL0     H21934   8.224   0.767   7.744  1.9389 -0.2723  0.1780
  159MOL0     H21935   8.144   0.611   7.703 -3.0921 -0.4501  2.0350
  159MOL0     H21936   8.017   0.811   7.866  3.4447 -0.5835 -0.6804
  159MOL0     H21937   7.935   0.659   7.827 -1.0057  0.5534  0.8194
  159MOL0     H21938   7.893   0.783   7.443 -1.4572  1.3778  0.2760
  159MOL0     H21939   8.342   0.961   8.105 -1.7966 -1.4117  1.5418
  159MOL0     H21940   8.458   1.204   8.287  1.1893 -4.0587  5.0794
  159MOL0     H21941   8.602   1.164   8.203  0.2557  2.6833  3.3344
  159MOL0     H21942   8.447   1.151   8.117  1.4468 -1.1702 -0.6868
  160MOL0     O21943   4.350   8.325   8.147  0.4592 -0.6778 -0.2255
  160MOL0     C21944   4.301   8.408   8.064  0.3264 -0.4818  0.4873
  160MOL0     O21945   4.170   8.409   8.032  0.7639  0.4044  0.5650
  160MOL0     C21946   4.119   8.279   8.011 -0.7030  0.0682  0.1989
  160MOL0     C21947   4.177   8.189   7.918  0.8861  0.4245  0.3981
  160MOL0     C21948   4.150   8.054   7.918  0.1937 -0.4748 -0.7083
  160MOL0     C21949   4.044   8.008   7.990 -0.0375  0.4975 -0.3986
  160MOL0     O21950   3.999   7.878   7.965 -0.2042 -0.1889  0.1155
  160MOL0     C21951   3.991   7.795   8.075 -0.6881 -0.3796 -0.2679
  160MOL0     C21952   3.972   7.646   8.049  0.1084 -0.2066 -0.7052
  160MOL0     C21953   3.833   7.595   8.000 -0.2233  0.2249 -0.3585
  160MOL0     C21954   3.795   7.651   7.858 -0.5539 -0.2318 -0.3750
  160MOL0     C21955   3.696   7.569   7.775 -0.2623  0.2873 -0.4065
  160MOL0     C21956   3.648   7.635   7.648  0.8252 -0.3960  0.2246
  160MOL0     C21957   3.758   7.659   7.543  0.4106  0.3724  0.4838
  160MOL0     C21958   3.698   7.706   7.409  0.5234 -0.9294 -0.4313
  160MOL0     N21959   3.622   7.612   7.330 -0.6635 -0.8928 -0.1517
  160MOL0     C21960   3.671   7.502   7.280 -0.7892 -0.3496  0.1872
  160MOL0     C21961   3.570   7.458   7.197 -0.2584 -0.2004  0.1266
  160MOL0     C21962   3.571   7.335   7.107 -0.3626 -0.5222 -0.0969
  160MOL0     C21963   3.462   7.227   7.121 -0.4105 -0.2375  0.5394
  160MOL0     C21964   3.499   7.110   7.024  1.0302  0.4239 -0.7400
  160MOL0     C21965   3.632   7.028   7.049  0.1752  0.0183 -0.1634
  160MOL0     O21966   3.676   7.038   7.187  0.6286  0.2427 -0.4203
  160MOL0     C21967   3.788   6.969   7.226  0.1347 -0.0662  0.7232
  160MOL0     C21968   3.809   6.959   7.365  0.8493 -0.2856 -0.1348
  160MOL0     C21969   3.920   6.892   7.417 -0.3691  0.9732  0.0432
  160MOL0     C21970   3.932   6.884   7.571  0.4658 -0.9398 -1.0985
  160MOL0     C21971   4.008   6.831   7.323  0.2955 -0.0382 -1.4430
  160MOL0     C21972   4.112   6.745   7.375  0.0749 -0.6410  0.2874
  160MOL0     O21973   4.232   6.785   7.341  0.0511 -0.1667  0.1809
  160MOL0     C21974   4.350   6.724   7.396  0.5014  1.0503 -0.2040
  160MOL0     C21975   4.456   6.702   7.316  0.5005  0.1088  0.9625
  160MOL0     C21976   4.579   6.651   7.367  0.5834 -0.0856 -0.0179
  160MOL0     C21977   4.597   6.612   7.500  0.1790  0.2361  0.1531
  160MOL0     O21978   4.714   6.555   7.546 -0.2348 -0.7712 -0.2465
  160MOL0     C21979   4.699   6.495   7.676  0.5133  0.9949  0.1205
  160MOL0     C21980   4.828   6.419   7.710  0.6373 -0.2342  0.2503
  160MOL0     C21981   4.818   6.339   7.840  0.1414 -0.5085 -0.4288
  160MOL0     C21982   4.961   6.312   7.890  0.1950 -0.3178 -0.7136
  160MOL0     C21983   5.023   6.438   7.960 -0.2070 -0.8012  0.6581
  160MOL0     C21984   5.159   6.404   8.022  0.8598 -1.0978  0.2505
  160MOL0     C21985   5.194   6.501   8.135  0.7800  0.7934 -0.4967
  160MOL0     C21986   5.343   6.500   8.146  0.0130  0.7216 -0.7700
  160MOL0    Cl21987   5.402   6.341   8.203 -0.1162  0.3866  0.4041
  160MOL0     C21988   4.486   6.643   7.581  0.1174 -0.7061 -0.2194
  160MOL0     C21989   4.367   6.695   7.533  0.0522  0.2298  0.2388
  160MOL0     O21990   4.081   6.658   7.452 -0.8808  0.1405 -0.2504
  160MOL0     C21991   3.985   6.840   7.189 -0.5673 -0.2813  0.4621
  160MOL0     C21992   3.881   6.912   7.139  0.1709 -0.5022 -0.5217
  160MOL0     N21993   3.459   7.535   7.216  0.1560  0.1791 -0.1316
  160MOL0     N21994   3.494   7.630   7.292  0.1287 -0.2727 -1.0584
  160MOL0     C21995   3.980   8.095   8.081 -0.7484 -0.7952  0.3665
  160MOL0     C21996   4.023   8.231   8.094  0.2514  0.9579  0.8805
  160MOL0     C21997   4.397   8.518   8.027  0.0747  0.5493  0.8329
  160MOL0     C21998   4.336   8.630   7.965  0.3318  0.7625  0.0518
  160MOL0     C21999   4.404   8.737   7.926  0.2454 -1.2608  0.3784
  160MOL0     C22000   4.535   8.752   7.969 -0.0391 -0.7633 -0.1829
  160MOL0     O22001   4.601   8.874   7.931 -0.4977  0.0544 -0.1693
  160MOL0     C22002   4.667   8.873   7.799  0.4118  0.9184  0.1004
  160MOL0     C22003   4.803   8.797   7.803  0.1841 -0.6066 -0.3691
  160MOL0     C22004   4.921   8.889   7.858  0.0630  0.4919  0.4359
  160MOL0     C22005   4.914   8.913   8.011 -0.9520  0.5958 -0.1535
  160MOL0     C22006   5.046   8.981   8.042 -0.2669 -0.5871  0.8963
  160MOL0     C22007   5.139   9.038   8.094 -0.3086  0.4738  0.2618
  160MOL0     C22008   4.592   8.657   8.043 -0.8399 -0.7708  0.0064
  160MOL0     C22009   4.528   8.531   8.073 -1.6663 -0.1350  0.4798
  160MOL0     C22010   4.597   8.433   8.165  0.4243  0.0696 -0.1813
  160MOL0     H22011   4.250   8.236   7.852  3.2612 -3.4502 -0.0552
  160MOL0     H22012   4.204   7.992   7.847  2.5690  1.3694 -0.6589
  160MOL0     H22013   3.910   7.821   8.143 -1.7560 -1.3356 -1.1480
  160MOL0     H22014   4.086   7.799   8.130 -0.1252 -2.2094 -1.0095
  160MOL0     H22015   4.048   7.616   7.977  0.1574  2.2178 -1.7409
  160MOL0     H22016   4.001   7.613   8.149  1.4500  0.2107 -0.9404
  160MOL0     H22017   3.834   7.486   8.001  1.9144  0.1677 -1.7428
  160MOL0     H22018   3.756   7.631   8.069  1.1744  2.8393 -0.0095
  160MOL0     H22019   3.765   7.756   7.858  0.8225  0.1827 -0.4380
  160MOL0     H22020   3.885   7.651   7.795  0.2491  0.0214  0.7475
  160MOL0     H22021   3.610   7.546   7.838 -0.0054 -2.5230 -0.9533
  160MOL0     H22022   3.743   7.474   7.746 -1.0626  0.3063 -1.8525
  160MOL0     H22023   3.569   7.569   7.611  0.4328  0.0723  0.2268
  160MOL0     H22024   3.598   7.729   7.673  1.1381  0.2378 -1.4153
  160MOL0     H22025   3.814   7.568   7.522  1.4152  1.1640 -0.3528
  160MOL0     H22026   3.836   7.731   7.568 -0.3346  1.1300  0.7097
  160MOL0     H22027   3.623   7.781   7.436 -1.3979 -3.0694  0.5491
  160MOL0     H22028   3.779   7.747   7.347 -1.4688  2.5060 -1.0331
  160MOL0     H22029   3.767   7.454   7.296 -1.2162 -1.4148 -0.3389
  160MOL0     H22030   3.665   7.284   7.131  2.3709  3.6999 -0.9091
  160MOL0     H22031   3.589   7.361   7.002 -1.4148 -1.6291 -0.5910
  160MOL0     H22032   3.449   7.187   7.223 -1.2670 -2.3241 -0.3175
  160MOL0     H22033   3.367   7.266   7.085 -0.4309  0.6111  1.4819
  160MOL0     H22034   3.418   7.037   7.025  0.6553  0.8082 -1.7809
  160MOL0     H22035   3.493   7.150   6.923 -5.3376  0.4126 -0.7156
  160MOL0     H22036   3.629   6.924   7.017 -0.2062 -0.9113  2.5840
  160MOL0     H22037   3.706   7.074   6.983 -0.5998  0.5730 -0.6632
  160MOL0     H22038   3.730   7.006   7.423 -0.3713 -1.7735 -0.5330
  160MOL0     H22039   3.851   6.944   7.614 -1.3515 -4.6176  1.1752
  160MOL0     H22040   4.024   6.929   7.609 -1.6661  0.5367  2.9952
  160MOL0     H22041   3.921   6.783   7.614 -0.1368  0.5208  2.5742
  160MOL0     H22042   4.446   6.721   7.209 -1.1748  0.0186  1.0733
  160MOL0     H22043   4.663   6.645   7.299  0.4084  0.5853 -0.3037
  160MOL0     H22044   4.691   6.577   7.748 -0.4216 -0.9688  2.3757
  160MOL0     H22045   4.609   6.434   7.681  0.7254  0.5145 -1.3270
  160MOL0     H22046   4.852   6.349   7.630 -2.8511 -2.0035  0.5673
  160MOL0     H22047   4.911   6.487   7.728  2.5259 -1.7901 -2.0064
  160MOL0     H22048   4.775   6.241   7.817 -1.3068 -0.3223  1.3132
  160MOL0     H22049   4.746   6.385   7.908  1.1334 -0.0115  0.3136
  160MOL0     H22050   5.025   6.276   7.808 -1.6321  1.9006 -3.2783
  160MOL0     H22051   4.953   6.230   7.962  0.5192 -1.1101 -1.5570
  160MOL0     H22052   5.039   6.519   7.888 -1.0890 -0.7814  0.4726
  160MOL0     H22053   4.940   6.475   8.022 -2.1184  0.1514 -2.2233
  160MOL0     H22054   5.243   6.407   7.953  1.4798  1.4955  1.0018
  160MOL0     H22055   5.152   6.302   8.061  0.9180 -1.3365 -0.3526
  160MOL0     H22056   5.148   6.481   8.233 -1.5387  1.5832 -1.3523
  160MOL0     H22057   5.165   6.603   8.107 -1.0552  0.3721 -0.2642
  160MOL0     H22058   5.368   6.573   8.223 -1.6273  0.8582 -0.3196
  160MOL0     H22059   5.392   6.523   8.051 -0.2384  1.9649 -0.6195
  160MOL0     H22060   4.481   6.627   7.688 -2.8444 -0.0903 -0.1637
  160MOL0     H22061   4.279   6.694   7.596 -2.1551  0.1905 -2.6648
  160MOL0     H22062   4.050   6.785   7.122 -0.8699  0.0502 -0.1065
  160MOL0     H22063   3.874   6.936   7.033  1.6846 -2.8808 -1.2364
  160MOL0     H22064   3.903   8.058   8.148 -1.8482  0.7161 -0.0045
  160MOL0     H22065   3.985   8.298   8.171 -1.7939 -1.7047  2.3367
  160MOL0     H22066   4.230   8.636   7.940  0.1161  0.4500  0.8455
  160MOL0     H22067   4.350   8.820   7.881 -4.8210 -2.1014  4.0393
  160MOL0     H22068   4.604   8.821   7.726  1.5370 -2.0143  1.0539
  160MOL0     H22069   4.680   8.978   7.775 -0.4729  1.2553  1.0056
  160MOL0     H22070   4.824   8.767   7.700  0.9266  1.6899 -0.9600
  160MOL0     H22071   4.804   8.707   7.864  1.0466  1.5087  3.0234
  160MOL0     H22072   5.009   8.829   7.832 -0.9740 -1.2235  0.7271
  160MOL0     H22073   4.930   8.977   7.794 -2.0121 -1.0855 -2.2748
  160MOL0     H22074   4.907   8.820   8.070  0.6454  0.9069  0.5635
  160MOL0     H22075   4.831   8.981   8.032 -1.7511 -0.4747  0.3230
  160MOL0     H22076   5.229   9.067   8.143 -0.7655 -0.6477  1.8459
  160MOL0     H22077   4.689   8.674   8.088 -1.3130  0.2888  0.6694
  160MOL0     H22078   4.533   8.416   8.252 -0.4253  3.2618 -0.0521
  160MOL0     H22079   4.619   8.339   8.113  2.8039 -0.2727  1.2760
  160MOL0     H22080   4.692   8.469   8.204  0.7967  0.2073 -1.1761
  161MOL0     O22081   9.803   3.531   2.380  1.2562 -0.1702 -0.3137
  161MOL0     C22082   9.860   3.445   2.318 -0.4879 -0.4870 -0.6209
  161MOL0     O22083   9.918   3.456   2.197  1.1700 -0.3969  0.2792
  161MOL0     C22084   9.888   3.565   2.118  0.3608 -0.8126 -0.5259
  161MOL0     C22085   9.985   3.610   2.031  0.1554  0.6293 -0.0877
  161MOL0     C22086   9.965   3.729   1.951  1.2356 -0.6044 -0.0028
  161MOL0     C22087   9.838   3.782   1.936  0.0993 -0.0702 -0.5025
  161MOL0     O22088   9.833   3.880   1.842  0.4225  0.5817 -0.1993
  161MOL0     C22089   9.715   3.921   1.774  0.3179  0.6680  0.2963
  161MOL0     C22090   9.663   3.812   1.677  0.3470 -0.1397  0.8036
  161MOL0     C22091   9.516   3.830   1.638  0.7497 -0.6802  0.5108
  161MOL0     C22092   9.512   3.938   1.533 -0.2070  0.0843  0.0597
  161MOL0     C22093   9.369   3.985   1.495 -0.5809 -0.2880  0.6317
  161MOL0     C22094   9.379   4.114   1.406  0.1815  0.0882  0.9100
  161MOL0     C22095   9.243   4.160   1.359  0.8207 -0.1698  0.6214
  161MOL0     C22096   9.172   4.252   1.460  0.4789 -0.6095 -0.3388
  161MOL0     N22097   9.050   4.315   1.395  0.3102 -0.1290  0.0120
  161MOL0     C22098   9.057   4.439   1.326  0.0426  0.2291 -0.2202
  161MOL0     C22099   8.928   4.461   1.300 -0.1680  0.0532 -0.4496
  161MOL0     C22100   8.886   4.581   1.222  1.4925 -0.2738 -0.1371
  161MOL0     C22101   8.898   4.551   1.072  0.1437 -1.2744  0.5345
  161MOL0     C22102   8.848   4.678   1.001  0.3979  0.3875 -0.2784
  161MOL0     C22103   8.855   4.663   0.855  0.6669  0.1160  0.9026
  161MOL0     O22104   8.995   4.657   0.819  0.3741 -0.0705  0.3674
  161MOL0     C22105   9.063   4.771   0.783  0.2204  0.0737  0.8584
  161MOL0     C22106   9.014   4.908   0.775 -0.4468  0.4996  0.1185
  161MOL0     C22107   9.100   5.018   0.745  0.7577  0.8096 -0.4004
  161MOL0     C22108   9.034   5.158   0.762 -0.2156  0.5247  0.1774
  161MOL0     C22109   9.229   5.002   0.708 -0.8072 -0.5829 -0.0403
  161MOL0     C22110   9.329   5.109   0.666  0.4758  0.5730  0.0556
  161MOL0     O22111   9.463   5.072   0.690  0.3671 -0.1716 -0.3936
  161MOL0     C22112   9.561   5.166   0.653  0.6331 -0.1607  0.1010
  161MOL0     C22113   9.575   5.213   0.526  0.5463 -0.9390 -0.4870
  161MOL0     C22114   9.681   5.298   0.493 -0.6403 -0.3856  0.5174
  161MOL0     C22115   9.779   5.332   0.589  0.4801 -0.0553  0.2832
  161MOL0     O22116   9.881   5.418   0.558 -0.1539  0.3597  0.0612
  161MOL0     C22117  10.008   5.359   0.583 -0.5155 -1.0044 -0.0166
  161MOL0     C22118  10.109   5.454   0.557 -0.0401  0.3200 -0.4120
  161MOL0     C22119  10.096   5.502   0.409  0.5203 -0.2911 -0.3621
  161MOL0     C22120  10.205   5.579   0.333  0.8547 -0.0569  0.0021
  161MOL0     C22121  10.149   5.651   0.210  0.7456 -0.5389 -1.2652
  161MOL0     C22122  10.250   5.675   0.100 -0.0549  1.1397 -0.0019
  161MOL0     C22123  10.172   5.713  -0.028 -0.0943  0.3917 -0.2666
  161MOL0     C22124  10.222   5.840  -0.098 -0.7242 -0.4239 -0.7916
  161MOL0    Cl22125  10.199   5.983   0.003  0.3457  0.1151  0.4546
  161MOL0     C22126   9.761   5.284   0.724  0.5186  0.0923 -0.1633
  161MOL0     C22127   9.643   5.211   0.756  1.1073  0.3661  0.2392
  161MOL0     O22128   9.286   5.218   0.635 -0.0393 -0.9196  0.0624
  161MOL0     C22129   9.270   4.868   0.704  0.2281 -0.3887  0.5589
  161MOL0     C22130   9.197   4.762   0.742 -0.1838 -0.3139 -0.2266
  161MOL0     N22131   8.847   4.360   1.339  0.1340  0.5256  0.1889
  161MOL0     N22132   8.918   4.270   1.392 -0.2725 -0.4893 -0.2697
  161MOL0     C22133   9.741   3.718   2.001  0.2722 -0.5155  0.6716
  161MOL0     C22134   9.766   3.624   2.097 -0.0019  0.6647 -0.0872
  161MOL0     C22135   9.892   3.319   2.379 -0.0173  0.1821 -0.4233
  161MOL0     C22136  10.023   3.270   2.368 -0.1298 -0.0384 -0.6433
  161MOL0     C22137  10.060   3.153   2.436  0.3873 -0.6831  1.0716
  161MOL0     C22138   9.965   3.084   2.505  0.0997  0.8340  0.8533
  161MOL0     O22139  10.007   2.982   2.581  0.1654 -0.2669  0.2765
  161MOL0     C22140  10.022   3.023   2.721  0.9242  0.8349 -0.5404
  161MOL0     C22141   9.887   3.010   2.804 -0.7182 -0.2565 -0.2693
  161MOL0     C22142   9.828   2.873   2.810 -0.0399  1.1079 -0.1158
  161MOL0     C22143   9.901   2.752   2.861 -0.3134  1.6109 -0.3867
  161MOL0     C22144   9.998   2.781   2.958 -0.5062 -0.8598 -0.0512
  161MOL0     C22145  10.076   2.782   3.055 -0.2595 -0.8402  0.4284
  161MOL0     C22146   9.830   3.123   2.499  1.0021 -0.1181  0.3869
  161MOL0     C22147   9.795   3.245   2.442 -0.0886 -0.1333 -0.0216
  161MOL0     C22148   9.653   3.296   2.448 -0.1034 -0.1691  0.5084
  161MOL0     H22149  10.074   3.549   2.043 -0.7696 -0.5524  1.1480
  161MOL0     H22150  10.052   3.767   1.898  2.5336 -0.9032  1.8277
  161MOL0     H22151   9.734   4.015   1.722  1.1874  0.4555  0.2160
  161MOL0     H22152   9.644   3.954   1.851  0.1064  1.5613 -0.2616
  161MOL0     H22153   9.728   3.821   1.589  1.0612 -2.6500  0.9846
  161MOL0     H22154   9.682   3.716   1.726  1.5883 -0.3197  0.0362
  161MOL0     H22155   9.473   3.733   1.612  3.2246 -1.9200  0.6900
  161MOL0     H22156   9.436   3.862   1.705 -0.1766  1.0861 -1.3307
  161MOL0     H22157   9.560   4.030   1.568 -1.3513  1.1975 -1.1377
  161MOL0     H22158   9.568   3.909   1.444 -1.5190 -1.1439 -0.4042
  161MOL0     H22159   9.321   4.020   1.587 -0.4491  3.8040 -0.6500
  161MOL0     H22160   9.305   3.912   1.446 -0.8633 -0.2867  0.9986
  161MOL0     H22161   9.437   4.197   1.445  0.2893  1.1796 -1.3770
  161MOL0     H22162   9.437   4.098   1.314 -0.3070  1.0341  0.4300
  161MOL0     H22163   9.172   4.081   1.332  2.2464 -1.0662 -0.6824
  161MOL0     H22164   9.251   4.213   1.264 -1.6912  1.3163  1.1687
  161MOL0     H22165   9.147   4.196   1.551  1.1906 -0.8344 -0.2822
  161MOL0     H22166   9.236   4.334   1.494  0.5988 -0.5041 -0.8251
  161MOL0     H22167   9.140   4.506   1.306  0.8060 -0.5399  0.2908
  161MOL0     H22168   8.947   4.666   1.252 -0.9384  1.4824  0.1234
  161MOL0     H22169   8.784   4.604   1.251  2.2929  2.4317  0.7528
  161MOL0     H22170   9.003   4.537   1.047 -0.0375 -1.7616  0.0243
  161MOL0     H22171   8.837   4.465   1.040 -3.1940  0.9868  0.2369
  161MOL0     H22172   8.741   4.696   1.017  0.8733  2.8121  0.4629
  161MOL0     H22173   8.902   4.766   1.036 -0.1231  0.8477 -0.6154
  161MOL0     H22174   8.803   4.576   0.814 -0.5558  0.3651  1.8644
  161MOL0     H22175   8.805   4.739   0.795  0.5756  0.2646  1.1674
  161MOL0     H22176   8.907   4.927   0.783 -0.7287 -1.3874  1.4846
  161MOL0     H22177   9.043   5.214   0.668  0.7456  0.5893  0.3024
  161MOL0     H22178   9.079   5.223   0.838  1.1062 -2.6075  2.3007
  161MOL0     H22179   8.928   5.153   0.789  0.7163  1.3231  4.9568
  161MOL0     H22180   9.516   5.177   0.442  1.9943  2.2697 -3.1191
  161MOL0     H22181   9.688   5.335   0.391  0.3588 -0.1803  0.6485
  161MOL0     H22182  10.009   5.333   0.689 -0.3323 -1.0938 -0.0405
  161MOL0     H22183  10.036   5.279   0.514 -1.2966 -0.9929 -0.3563
  161MOL0     H22184  10.098   5.539   0.625  0.0914 -0.0237  0.0429
  161MOL0     H22185  10.208   5.407   0.564  0.0175  0.4874 -0.0806
  161MOL0     H22186  10.010   5.568   0.401  1.8682  1.8274  1.4821
  161MOL0     H22187  10.076   5.416   0.344  3.0942 -0.8499 -0.5521
  161MOL0     H22188  10.294   5.521   0.306  3.3022  2.7103  1.5038
  161MOL0     H22189  10.245   5.656   0.400  1.9244  1.1483 -1.9389
  161MOL0     H22190  10.063   5.596   0.171  0.4781  1.0194 -3.0700
  161MOL0     H22191  10.109   5.748   0.241 -0.5396 -1.0322 -1.3250
  161MOL0     H22192  10.300   5.581   0.075 -1.4278  0.5961 -0.8270
  161MOL0     H22193  10.318   5.758   0.118  0.5105  0.6681  0.0383
  161MOL0     H22194  10.069   5.725   0.005  0.1317 -0.3326  0.7497
  161MOL0     H22195  10.170   5.623  -0.090 -0.8964 -0.7305  1.3223
  161MOL0     H22196  10.164   5.849  -0.190  0.0368 -3.7412 -1.7130
  161MOL0     H22197  10.325   5.826  -0.133 -0.9156  0.1036 -1.6045
  161MOL0     H22198   9.818   5.331   0.803  0.2888 -0.1354  0.1394
  161MOL0     H22199   9.628   5.167   0.854 -2.0731 -1.3821 -0.8787
  161MOL0     H22200   9.370   4.831   0.686 -0.7883 -1.9153 -3.0877
  161MOL0     H22201   9.235   4.661   0.727 -2.4590 -1.3938  0.7386
  161MOL0     H22202   9.638   3.749   1.991  0.8850  1.2953 -0.2929
  161MOL0     H22203   9.679   3.584   2.149  0.7257 -0.1082  0.5734
  161MOL0     H22204  10.091   3.321   2.300  2.0110 -0.0199  1.3651
  161MOL0     H22205  10.161   3.112   2.440  1.4011  1.1196 -2.2559
  161MOL0     H22206  10.094   2.947   2.755 -0.4208  0.2961  1.2470
  161MOL0     H22207  10.064   3.124   2.723 -0.0276  1.2565 -1.0880
  161MOL0     H22208   9.820   3.087   2.764 -0.2208  0.0914 -0.4535
  161MOL0     H22209   9.917   3.032   2.907  0.9472 -2.3878 -0.2424
  161MOL0     H22210   9.751   2.894   2.886  0.1425  0.6921  0.1872
  161MOL0     H22211   9.781   2.853   2.714 -1.3770 -0.0730  0.7401
  161MOL0     H22212   9.943   2.700   2.775  1.6635  4.7197 -1.4785
  161MOL0     H22213   9.822   2.694   2.910 -0.3596  2.4848  0.6139
  161MOL0     H22214  10.150   2.779   3.132  1.2488  3.8368 -0.5207
  161MOL0     H22215   9.755   3.063   2.550 -0.8055  1.5690 -0.1246
  161MOL0     H22216   9.624   3.339   2.352  0.2112  1.9013  1.2846
  161MOL0     H22217   9.581   3.217   2.471  1.3844 -2.4760 -2.1729
  161MOL0     H22218   9.657   3.379   2.519  0.3979  2.7474 -2.6785
  162MOL0     O22219   1.722   9.963   6.558  0.1907  0.5899 -0.4784
  162MOL0     C22220   1.735   9.871   6.481  0.9266  0.0624 -0.1084
  162MOL0     O22221   1.849   9.846   6.407  0.8169  0.7674  0.0867
  162MOL0     C22222   1.967   9.914   6.424 -0.5554 -0.0995  0.3191
  162MOL0     C22223   2.055   9.939   6.315  0.2602 -0.8280  0.2976
  162MOL0     C22224   2.178  10.008   6.328 -0.4164 -0.6668 -0.3024
  162MOL0     C22225   2.218  10.055   6.455 -0.1002  0.7554 -0.2056
  162MOL0     O22226   2.353  10.092   6.458  0.0438 -1.0251 -0.7231
  162MOL0     C22227   2.434  10.080   6.577  0.2792  0.3375  0.4768
  162MOL0     C22228   2.429   9.935   6.615  0.2624  0.4687  0.8851
  162MOL0     C22229   2.529   9.907   6.729 -0.5058 -0.3943  0.5136
  162MOL0     C22230   2.643   9.810   6.693  0.4431 -0.2135 -0.0867
  162MOL0     C22231   2.587   9.664   6.667 -0.7336 -0.1929  0.2697
  162MOL0     C22232   2.557   9.590   6.794  0.5267  0.2323  0.1032
  162MOL0     C22233   2.493   9.452   6.794  0.4188 -0.0132 -0.7067
  162MOL0     C22234   2.553   9.369   6.682  0.5656 -0.8437  0.5878
  162MOL0     N22235   2.488   9.243   6.687 -0.3283  0.2090  0.0357
  162MOL0     C22236   2.526   9.132   6.770  0.5745 -0.4559  0.0948
  162MOL0     C22237   2.461   9.035   6.709 -0.2194 -0.1999 -0.9991
  162MOL0     C22238   2.477   8.893   6.744  0.9617 -0.0470  0.4687
  162MOL0     C22239   2.558   8.815   6.631  0.7183  0.4674  0.0207
  162MOL0     C22240   2.466   8.803   6.515 -1.3766  0.2633 -1.0945
  162MOL0     C22241   2.526   8.691   6.419  0.6079  0.5562 -0.2839
  162MOL0     O22242   2.526   8.555   6.480  0.2330 -0.3608  0.2849
  162MOL0     C22243   2.417   8.487   6.436  0.1139  0.4703  0.6518
  162MOL0     C22244   2.429   8.402   6.320  0.9002  0.2344 -0.0370
  162MOL0     C22245   2.316   8.345   6.259 -0.8247  0.3888  0.8338
  162MOL0     C22246   2.333   8.251   6.143 -0.2984  0.2595  0.2039
  162MOL0     C22247   2.187   8.371   6.306  0.3419  0.3611 -0.8327
  162MOL0     C22248   2.058   8.325   6.256 -0.5315  0.9543 -0.0394
  162MOL0     O22249   1.946   8.357   6.323  0.2871  0.1135  0.2460
  162MOL0     C22250   1.832   8.293   6.286  0.2658 -0.4314 -0.4601
  162MOL0     C22251   1.758   8.204   6.376 -0.6196 -0.7752  0.0780
  162MOL0     C22252   1.649   8.129   6.317 -0.2898  0.4476 -0.0122
  162MOL0     C22253   1.607   8.139   6.188 -0.7937  0.9322 -1.0949
  162MOL0     O22254   1.510   8.057   6.147  0.3074  0.3068 -0.0049
  162MOL0     C22255   1.395   8.118   6.094  0.4376  0.3119  0.3076
  162MOL0     C22256   1.347   8.041   5.967 -0.0520 -0.3590  0.4549
  162MOL0     C22257   1.462   8.014   5.865  0.3063 -0.3091 -0.0945
  162MOL0     C22258   1.396   7.983   5.725  0.7283 -0.3593 -0.0254
  162MOL0     C22259   1.488   7.986   5.600  0.4216  0.0381  0.0952
  162MOL0     C22260   1.585   7.867   5.589  0.5934 -0.2044 -0.5508
  162MOL0     C22261   1.701   7.897   5.503  0.0912 -0.9899  1.2674
  162MOL0     C22262   1.824   7.813   5.505 -0.0422  0.6262 -0.3677
  162MOL0    Cl22263   1.793   7.641   5.479 -0.2413  0.2774  0.4578
  162MOL0     C22264   1.683   8.220   6.108 -0.8663 -0.9912 -0.6557
  162MOL0     C22265   1.791   8.296   6.149 -0.1342 -0.4181 -0.2939
  162MOL0     O22266   2.060   8.241   6.162  0.1916 -1.0676 -0.5653
  162MOL0     C22267   2.179   8.444   6.428 -0.0264  0.2913 -0.4651
  162MOL0     C22268   2.293   8.494   6.497  0.4628 -0.4099  0.5845
  162MOL0     N22269   2.369   9.077   6.617 -0.4264 -0.3734  0.7317
  162MOL0     N22270   2.391   9.199   6.593  0.0262 -0.1431  0.2654
  162MOL0     C22271   2.140  10.034   6.568 -0.4429  1.0377 -0.6094
  162MOL0     C22272   2.019   9.970   6.546  1.1041  0.4965 -0.0186
  162MOL0     C22273   1.617   9.793   6.465  0.5479 -0.7375  0.0562
  162MOL0     C22274   1.565   9.784   6.341  0.5051  0.6505  0.3653
  162MOL0     C22275   1.446   9.725   6.319  0.6359 -1.1128  0.5882
  162MOL0     C22276   1.369   9.668   6.421  0.3307  0.4341  0.1935
  162MOL0     O22277   1.262   9.580   6.400 -0.5197 -0.2760  0.2610
  162MOL0     C22278   1.225   9.541   6.263 -1.3222 -0.1642  0.4987
  162MOL0     C22279   1.118   9.644   6.209  0.2929 -0.1380  0.0615
  162MOL0     C22280   0.987   9.616   6.271 -0.4073 -0.6822  1.2126
  162MOL0     C22281   0.869   9.663   6.177 -0.0663  0.1243  0.0533
  162MOL0     C22282   0.745   9.661   6.243  0.1439  0.2365  0.4980
  162MOL0     C22283   0.645   9.664   6.308  1.6215 -0.0907 -0.1113
  162MOL0     C22284   1.425   9.675   6.549  0.5321 -0.0917  0.5978
  162MOL0     C22285   1.547   9.742   6.569 -0.4057 -0.1012 -0.9890
  162MOL0     C22286   1.598   9.753   6.716 -0.2945 -0.2181 -0.6766
  162MOL0     H22287   2.016   9.906   6.219 -3.8635 -1.8034  2.0990
  162MOL0     H22288   2.247  10.012   6.244  2.3012  0.2950  1.8555
  162MOL0     H22289   2.400  10.143   6.660 -0.9972 -0.6954  0.7726
  162MOL0     H22290   2.536  10.108   6.548 -0.1043 -0.5340 -1.9460
  162MOL0     H22291   2.330   9.896   6.641  1.4008 -2.3497  1.3681
  162MOL0     H22292   2.460   9.881   6.525 -0.8780 -0.5363  1.0780
  162MOL0     H22293   2.575  10.003   6.754 -1.0780 -0.1342  0.5987
  162MOL0     H22294   2.481   9.873   6.822 -0.4606 -2.6345 -0.2047
  162MOL0     H22295   2.699   9.828   6.601  1.4548 -4.0376 -0.3506
  162MOL0     H22296   2.716   9.822   6.773 -0.7076  1.8845  0.7574
  162MOL0     H22297   2.671   9.618   6.614 -1.4209  1.2299 -2.2679
  162MOL0     H22298   2.504   9.682   6.598 -0.1260  0.2439 -0.3590
  162MOL0     H22299   2.649   9.580   6.852  1.8003 -1.4551 -2.0267
  162MOL0     H22300   2.498   9.663   6.850 -1.3074 -1.5585  0.6622
  162MOL0     H22301   2.384   9.462   6.793  0.5699  2.1167 -1.1227
  162MOL0     H22302   2.530   9.394   6.879  1.1430 -0.5927 -1.4020
  162MOL0     H22303   2.524   9.420   6.590  0.7898  2.6033  2.2539
  162MOL0     H22304   2.661   9.360   6.693  0.9841  0.0263 -2.0732
  162MOL0     H22305   2.609   9.129   6.840 -0.2777  0.2147  1.1780
  162MOL0     H22306   2.382   8.842   6.765 -0.5804  1.3585 -2.5068
  162MOL0     H22307   2.530   8.895   6.839  1.1584 -0.1829  0.3615
  162MOL0     H22308   2.651   8.870   6.613  1.7971 -0.6836  1.6957
  162MOL0     H22309   2.579   8.715   6.669  1.0734  0.5962  0.1689
  162MOL0     H22310   2.363   8.796   6.551 -2.1325  0.1695 -3.1552
  162MOL0     H22311   2.466   8.895   6.456 -0.0864  0.7294 -0.4199
  162MOL0     H22312   2.493   8.710   6.316  2.2029  1.7055 -0.6175
  162MOL0     H22313   2.628   8.722   6.398  1.1501 -0.1222  1.2329
  162MOL0     H22314   2.526   8.378   6.279 -0.7735  0.4669 -4.7652
  162MOL0     H22315   2.290   8.155   6.172  2.8981 -1.3599  0.0755
  162MOL0     H22316   2.442   8.248   6.133 -0.2393 -0.9145  0.9651
  162MOL0     H22317   2.295   8.298   6.052 -2.1988  1.1660  1.4038
  162MOL0     H22318   1.785   8.219   6.480  0.7342  1.5636 -0.5377
  162MOL0     H22319   1.586   8.074   6.387  0.3190  1.8001  1.6664
  162MOL0     H22320   1.307   8.124   6.160  2.0874  0.6750  2.6053
  162MOL0     H22321   1.425   8.221   6.072  2.8502  0.5439  3.8597
  162MOL0     H22322   1.305   7.944   5.994  1.0927 -2.0125 -3.1405
  162MOL0     H22323   1.279   8.102   5.907  2.7892  0.7731 -1.8735
  162MOL0     H22324   1.517   7.930   5.909 -2.4489 -1.8900  0.5787
  162MOL0     H22325   1.520   8.107   5.855  0.9985 -0.8180 -0.8936
  162MOL0     H22326   1.315   8.054   5.703 -0.4000 -1.1485  1.3602
  162MOL0     H22327   1.360   7.880   5.733  2.8699 -1.1730 -0.2190
  162MOL0     H22328   1.428   7.992   5.508 -1.0040  1.7373  1.0703
  162MOL0     H22329   1.538   8.083   5.604  0.6667 -0.1033  0.4450
  162MOL0     H22330   1.542   7.768   5.568 -0.1222 -0.4453  1.7897
  162MOL0     H22331   1.635   7.849   5.685  0.4557 -2.4023 -0.8420
  162MOL0     H22332   1.731   8.001   5.522 -0.2991 -0.1756 -1.9720
  162MOL0     H22333   1.676   7.903   5.397  1.4590  1.3441  0.9975
  162MOL0     H22334   1.870   7.836   5.601  1.2651  2.1243 -1.3155
  162MOL0     H22335   1.901   7.848   5.436 -0.7244  0.9912 -0.9525
  162MOL0     H22336   1.663   8.205   6.003 -0.2618 -0.8106 -0.7987
  162MOL0     H22337   1.847   8.358   6.080  1.9710 -0.4498  1.2918
  162MOL0     H22338   2.081   8.465   6.471  0.6370  1.8542  0.3377
  162MOL0     H22339   2.289   8.524   6.601 -1.1801 -1.9272  1.0117
  162MOL0     H22340   2.179  10.056   6.667  1.6895 -1.2428 -0.8539
  162MOL0     H22341   1.964   9.976   6.640  1.4726  0.3626  0.2090
  162MOL0     H22342   1.618   9.814   6.251 -1.6488  0.1705 -1.1392
  162MOL0     H22343   1.411   9.723   6.217  3.1476  0.8346 -0.4141
  162MOL0     H22344   1.307   9.532   6.191 -2.1513  0.3525 -0.5524
  162MOL0     H22345   1.182   9.441   6.252  0.0292 -0.6459 -0.8173
  162MOL0     H22346   1.115   9.638   6.100  0.5119  2.2608 -0.1417
  162MOL0     H22347   1.156   9.744   6.233  1.4666 -0.6026  0.2289
  162MOL0     H22348   0.972   9.508   6.282 -2.3720 -0.6078 -0.2055
  162MOL0     H22349   0.983   9.680   6.360 -0.3573  0.4155  0.4394
  162MOL0     H22350   0.860   9.598   6.090  0.1662 -1.6046  1.2671
  162MOL0     H22351   0.876   9.768   6.149 -1.0490  0.5860  1.4582
  162MOL0     H22352   0.553   9.660   6.362  0.8809 -1.1110 -1.4017
  162MOL0     H22353   1.384   9.627   6.637 -0.1242  0.0319  0.3721
  162MOL0     H22354   1.707   9.749   6.712 -0.2018 -1.5218  1.3942
  162MOL0     H22355   1.556   9.844   6.761  1.9553  1.5791 -1.9818
  162MOL0     H22356   1.558   9.667   6.771 -3.9810  1.6004 -0.2358
  163MOL0     O22357   3.592   5.106  11.401 -0.5723 -0.8590  0.2218
  163MOL0     C22358   3.590   5.000  11.458  0.6607 -0.3883  0.6316
  163MOL0     O22359   3.707   4.928  11.480  0.1786 -0.0889 -0.2474
  163MOL0     C22360   3.825   4.949  11.417 -0.0483  0.8330 -0.9658
  163MOL0     C22361   3.906   4.839  11.379  0.8818  0.2403 -0.1509
  163MOL0     C22362   4.029   4.865  11.308  0.5249 -0.0984 -0.3789
  163MOL0     C22363   4.070   4.993  11.281 -0.2038  0.9098  0.1631
  163MOL0     O22364   4.196   5.008  11.234  0.6017  0.1517 -0.4566
  163MOL0     C22365   4.202   5.064  11.098 -0.3545  0.2596 -0.3672
  163MOL0     C22366   4.260   5.204  11.095  0.6604 -0.4251  0.1304
  163MOL0     C22367   4.225   5.288  10.970 -0.5085 -1.1044  0.2754
  163MOL0     C22368   4.233   5.213  10.836  0.0826  0.1063 -0.1274
  163MOL0     C22369   4.202   5.300  10.718  0.5383 -0.1705  0.1751
  163MOL0     C22370   4.054   5.324  10.702 -0.1098  0.0991 -1.0576
  163MOL0     C22371   4.030   5.390  10.566  0.6220  0.4698 -0.8406
  163MOL0     C22372   4.044   5.542  10.574  0.2547  0.2472  0.1275
  163MOL0     N22373   4.011   5.598  10.443  0.3309  0.4530  0.4160
  163MOL0     C22374   3.903   5.666  10.401  0.1001 -0.2576 -0.0981
  163MOL0     C22375   3.923   5.687  10.269  0.4343  0.1673  0.2182
  163MOL0     C22376   3.830   5.748  10.167 -0.9560 -0.1560  0.1894
  163MOL0     C22377   3.728   5.652  10.105 -0.0865  0.1054 -0.2516
  163MOL0     C22378   3.658   5.690   9.980 -0.4759  0.1423 -0.6535
  163MOL0     C22379   3.540   5.584   9.954 -0.2845  0.4865 -0.5357
  163MOL0     O22380   3.451   5.578  10.068  0.2761 -0.0738 -0.1424
  163MOL0     C22381   3.329   5.564  10.028  0.1769 -0.0729 -0.2319
  163MOL0     C22382   3.289   5.488   9.924 -0.5559  0.6082 -0.6760
  163MOL0     C22383   3.158   5.456   9.898  0.4728 -0.3207 -0.9952
  163MOL0     C22384   3.143   5.349   9.795  0.0085 -0.5684  0.2845
  163MOL0     C22385   3.056   5.509   9.980  0.7558  0.3284  0.4452
  163MOL0     C22386   2.911   5.466   9.968 -0.4530  0.5276 -0.2056
  163MOL0     O22387   2.834   5.500  10.070 -0.7629 -0.1909  0.6760
  163MOL0     C22388   2.709   5.536  10.042 -0.0824  0.0486 -0.3795
  163MOL0     C22389   2.613   5.458   9.978  0.5454  0.1001 -0.5537
  163MOL0     C22390   2.477   5.493   9.970  0.6716 -0.3210  0.3149
  163MOL0     C22391   2.437   5.626  10.006  0.1428 -0.5156 -1.2003
  163MOL0     O22392   2.313   5.677   9.990  1.2177  0.0842 -0.0948
  163MOL0     C22393   2.221   5.602   9.909 -0.0561  1.1575  0.2315
  163MOL0     C22394   2.087   5.677   9.886  0.4096 -0.2021  0.2964
  163MOL0     C22395   1.992   5.603   9.798 -0.0270 -0.5805  0.0002
  163MOL0     C22396   1.863   5.683   9.778  0.4463  0.5026 -0.2249
  163MOL0     C22397   1.755   5.598   9.698 -0.4995 -0.4086 -0.3176
  163MOL0     C22398   1.621   5.669   9.708 -0.8412  0.9505 -0.3226
  163MOL0     C22399   1.496   5.576   9.672 -0.7769  0.5190 -0.2261
  163MOL0     C22400   1.376   5.672   9.660 -0.4884 -0.5152 -0.9692
  163MOL0    Cl22401   1.344   5.749   9.817  0.3006  0.0182 -0.1422
  163MOL0     C22402   2.530   5.702  10.071  0.1616  0.5994  0.1238
  163MOL0     C22403   2.668   5.657  10.095 -0.1297 -0.2818  0.1277
  163MOL0     O22404   2.872   5.426   9.859 -0.1883 -0.4896  0.1254
  163MOL0     C22405   3.091   5.600  10.074  0.0259 -0.0762  0.5048
  163MOL0     C22406   3.224   5.625  10.103 -0.6144 -0.6681  0.2333
  163MOL0     N22407   4.042   5.634  10.225 -0.3821  0.5431  0.2820
  163MOL0     N22408   4.093   5.580  10.335  0.2844  0.3907  0.2493
  163MOL0     C22409   3.993   5.095  11.319  0.1602 -0.4853  0.6419
  163MOL0     C22410   3.878   5.076  11.389 -0.4707 -0.0109  1.3964
  163MOL0     C22411   3.455   4.966  11.507  0.4469  0.2485  0.0118
  163MOL0     C22412   3.352   5.060  11.513 -0.5233 -0.3599  0.0071
  163MOL0     C22413   3.220   5.027  11.566 -0.7841  0.0294 -0.4809
  163MOL0     C22414   3.206   4.901  11.621 -1.0688 -0.7695  0.6730
  163MOL0     O22415   3.087   4.883  11.683 -0.1949  0.5943  0.3222
  163MOL0     C22416   3.051   4.753  11.716  0.5724  0.2675 -0.8326
  163MOL0     C22417   2.903   4.772  11.751  0.1449  0.3514  0.2404
  163MOL0     C22418   2.849   4.643  11.816 -0.0273  0.0084  0.3017
  163MOL0     C22419   2.696   4.648  11.844 -0.1792  0.1411 -0.1938
  163MOL0     C22420   2.668   4.579  11.974 -0.4449  0.1568 -0.7092
  163MOL0     C22421   2.657   4.535  12.090 -0.7175 -0.6406  0.5816
  163MOL0     C22422   3.303   4.808  11.611 -0.2854 -0.0072 -0.1570
  163MOL0     C22423   3.428   4.835  11.554 -0.5489 -0.0254 -0.0923
  163MOL0     C22424   3.533   4.723  11.554 -0.4754  0.8401  0.3861
  163MOL0     H22425   3.872   4.736  11.384 -0.3764  0.6159 -0.5635
  163MOL0     H22426   4.092   4.780  11.284  1.5785  0.6501 -0.3509
  163MOL0     H22427   4.101   5.055  11.056  0.7241 -0.7059 -2.9414
  163MOL0     H22428   4.266   5.004  11.033  1.2265 -0.8721  2.0886
  163MOL0     H22429   4.231   5.264  11.182 -0.5213 -0.7757 -0.0027
  163MOL0     H22430   4.368   5.193  11.108  0.6741  0.2942  0.6562
  163MOL0     H22431   4.117   5.301  10.980 -0.6244  0.6442 -2.3489
  163MOL0     H22432   4.284   5.380  10.964  0.1919 -1.3313  2.6694
  163MOL0     H22433   4.333   5.174  10.814 -1.1175 -2.6161 -1.3072
  163MOL0     H22434   4.160   5.132  10.836 -2.4612  2.2847 -0.2578
  163MOL0     H22435   4.242   5.244  10.632  0.5138 -2.9325  1.8410
  163MOL0     H22436   4.256   5.394  10.731 -0.0678  0.4153 -1.3566
  163MOL0     H22437   4.004   5.228  10.711 -0.5922  0.2565 -1.9561
  163MOL0     H22438   4.012   5.386  10.782  1.9775 -1.1906  1.1595
  163MOL0     H22439   3.926   5.366  10.540  0.4982 -1.2845  1.0043
  163MOL0     H22440   4.095   5.351  10.488  1.3217 -1.8734  0.7927
  163MOL0     H22441   3.981   5.581  10.654 -1.1904  1.9580 -1.7262
  163MOL0     H22442   4.150   5.567  10.585  0.9914 -2.0502 -0.9905
  163MOL0     H22443   3.818   5.694  10.462  1.0547 -2.9166  2.6665
  163MOL0     H22444   3.899   5.785  10.090 -1.4379 -2.1592 -1.3240
  163MOL0     H22445   3.785   5.839  10.208  1.8051  1.0677  0.7114
  163MOL0     H22446   3.789   5.562  10.090  3.0826  1.6811  2.0726
  163MOL0     H22447   3.653   5.632  10.183 -0.4971 -1.7778 -1.0719
  163MOL0     H22448   3.605   5.785   9.979 -2.0655 -0.6773  0.5164
  163MOL0     H22449   3.735   5.688   9.903  3.2093  0.8066  2.7154
  163MOL0     H22450   3.496   5.606   9.856 -2.8892  1.1258  0.7055
  163MOL0     H22451   3.592   5.488   9.943 -0.5697  0.4402 -1.5400
  163MOL0     H22452   3.363   5.444   9.858 -1.5247 -1.3589 -0.5403
  163MOL0     H22453   3.165   5.378   9.692  2.1717  1.2266  1.1793
  163MOL0     H22454   3.045   5.301   9.810 -1.8437  2.9107  0.3304
  163MOL0     H22455   3.228   5.284   9.818  1.9877  1.4222 -1.0272
  163MOL0     H22456   2.641   5.359   9.942 -3.3819 -1.5380  0.3044
  163MOL0     H22457   2.407   5.420   9.931 -0.6623 -0.8899  3.4570
  163MOL0     H22458   2.260   5.586   9.808 -2.7276  1.6536 -0.9612
  163MOL0     H22459   2.199   5.504   9.951 -1.3996  0.6381 -1.5642
  163MOL0     H22460   2.054   5.700   9.988 -1.5762  2.2558 -0.8018
  163MOL0     H22461   2.115   5.769   9.835  2.0981 -0.5159  0.5990
  163MOL0     H22462   1.966   5.508   9.847 -0.1831  0.0294  1.1210
  163MOL0     H22463   2.025   5.600   9.694  0.7161  0.9703  0.1676
  163MOL0     H22464   1.874   5.785   9.741  3.5043 -0.8122 -3.5445
  163MOL0     H22465   1.831   5.695   9.882  0.9083  0.4404 -0.0760
  163MOL0     H22466   1.784   5.581   9.593 -0.8690 -0.8825 -0.3437
  163MOL0     H22467   1.738   5.500   9.741  0.0533 -0.2857  0.1880
  163MOL0     H22468   1.612   5.760   9.648 -0.3201  1.7237  0.7303
  163MOL0     H22469   1.608   5.700   9.812  1.7034  2.4502 -0.3661
  163MOL0     H22470   1.474   5.509   9.756 -0.4269 -0.3054 -0.7868
  163MOL0     H22471   1.516   5.518   9.582  1.9114  2.2176 -0.8202
  163MOL0     H22472   1.287   5.622   9.622  0.1601 -0.4966 -2.5841
  163MOL0     H22473   1.408   5.746   9.586  2.0752 -3.1404 -2.7077
  163MOL0     H22474   2.513   5.805  10.101  2.6567  1.4846 -1.1665
  163MOL0     H22475   2.747   5.712  10.146 -0.8586  0.4135  0.5349
  163MOL0     H22476   3.016   5.637  10.143  0.5148 -0.0167  1.0192
  163MOL0     H22477   3.251   5.677  10.194  2.6353 -0.5240 -0.6949
  163MOL0     H22478   4.031   5.197  11.322  0.4520 -0.5893  0.5609
  163MOL0     H22479   3.826   5.167  11.419 -1.9555  0.4550 -2.1321
  163MOL0     H22480   3.374   5.159  11.475 -0.2188 -0.2290  0.5080
  163MOL0     H22481   3.135   5.094  11.577 -0.0162  0.6716  2.3071
  163MOL0     H22482   3.053   4.676  11.638 -2.4539 -0.6303 -0.1553
  163MOL0     H22483   3.105   4.717  11.804 -0.9474  2.1386  0.9655
  163MOL0     H22484   2.851   4.792  11.656  2.0184 -1.5309 -1.2890
  163MOL0     H22485   2.895   4.865  11.807 -0.5917 -0.4758  1.5560
  163MOL0     H22486   2.874   4.555  11.754 -2.7700 -0.4750 -0.2365
  163MOL0     H22487   2.899   4.621  11.911  1.3122  0.7322 -0.1998
  163MOL0     H22488   2.640   4.595  11.767  2.0979 -1.5399 -0.8072
  163MOL0     H22489   2.658   4.750  11.832 -2.0299 -0.3729  0.8522
  163MOL0     H22490   2.652   4.501  12.191  0.2836  1.5254  1.4325
  163MOL0     H22491   3.297   4.704  11.643  3.5970 -0.0059  1.2189
  163MOL0     H22492   3.600   4.738  11.639  0.0123  0.0985  0.1389
  163MOL0     H22493   3.490   4.623  11.564 -0.2150  0.7782  0.9506
  163MOL0     H22494   3.602   4.721  11.470  0.5676 -2.3933  1.2074
  164MOL0     O22495   5.753   9.470   7.300 -0.7309 -0.2051  0.0961
  164MOL0     C22496   5.714   9.576   7.260 -0.3023  0.7184  0.3015
  164MOL0     O22497   5.773   9.661   7.169 -0.2721 -0.5084 -0.2240
  164MOL0     C22498   5.899   9.636   7.133  0.6033 -0.0593 -0.2928
  164MOL0     C22499   5.929   9.593   7.004  0.0215 -0.5351 -0.1908
  164MOL0     C22500   6.064   9.596   6.956  0.8261  1.6059 -0.0097
  164MOL0     C22501   6.165   9.649   7.033  0.3901  0.0438  0.5205
  164MOL0     O22502   6.277   9.672   6.965 -0.9268  1.1492  0.6112
  164MOL0     C22503   6.404   9.655   7.040  0.7565 -0.6440 -0.4563
  164MOL0     C22504   6.512   9.622   6.939 -0.1694  1.3245  0.4439
  164MOL0     C22505   6.521   9.733   6.831 -0.9356 -0.0124  0.0773
  164MOL0     C22506   6.632   9.692   6.733 -0.1457 -0.3089 -0.4277
  164MOL0     C22507   6.674   9.785   6.619 -0.0433  0.1634  0.5221
  164MOL0     C22508   6.699   9.932   6.651 -0.4876  0.9932 -0.3290
  164MOL0     C22509   6.760   9.990   6.523 -0.6847 -0.8009  0.2133
  164MOL0     C22510   6.783  10.133   6.531 -0.2271 -0.6509 -0.0742
  164MOL0     N22511   6.661  10.212   6.532 -0.0744 -0.2245  0.5444
  164MOL0     C22512   6.556  10.188   6.449  0.3817  0.5582  0.7983
  164MOL0     C22513   6.460  10.282   6.472  1.0638  0.2986  0.2358
  164MOL0     C22514   6.327  10.288   6.395 -0.3847 -0.1939 -0.0070
  164MOL0     C22515   6.260  10.429   6.390 -0.0030 -0.2422 -0.1464
  164MOL0     C22516   6.159  10.435   6.270  1.3598  0.4016 -0.0124
  164MOL0     C22517   6.016  10.389   6.307  0.0769  0.5062 -0.2933
  164MOL0     O22518   6.030  10.242   6.299 -0.4500 -0.6056 -0.0151
  164MOL0     C22519   5.915  10.173   6.298 -0.4798 -0.6650  1.7121
  164MOL0     C22520   5.907  10.049   6.235  1.1269  0.5014 -0.1981
  164MOL0     C22521   5.784   9.988   6.209  1.2111 -0.2261 -0.8381
  164MOL0     C22522   5.783   9.855   6.132 -0.7533  0.4075  0.7650
  164MOL0     C22523   5.674  10.042   6.270  1.3633  0.0955 -0.7095
  164MOL0     C22524   5.535   9.997   6.252  0.3290 -0.0589  0.4230
  164MOL0     O22525   5.458   9.971   6.366  0.5449  0.6253 -0.0733
  164MOL0     C22526   5.335   9.925   6.342  0.1231  0.5704 -0.5718
  164MOL0     C22527   5.313   9.790   6.375  0.3332  0.0310  0.3206
  164MOL0     C22528   5.184   9.732   6.338 -0.2069 -0.1876 -0.1226
  164MOL0     C22529   5.081   9.803   6.283  0.4684 -0.3981 -0.3430
  164MOL0     O22530   4.967   9.732   6.249  0.2600 -0.0111  0.1764
  164MOL0     C22531   4.829   9.783   6.242 -0.0397  0.2293 -0.9698
  164MOL0     C22532   4.736   9.657   6.263 -0.0249  0.0885 -0.6444
  164MOL0     C22533   4.588   9.699   6.244 -0.0076 -0.8404 -0.0456
  164MOL0     C22534   4.543   9.821   6.330 -0.0683 -0.6027  0.1809
  164MOL0     C22535   4.397   9.854   6.311 -0.2622  0.2812  0.7068
  164MOL0     C22536   4.361   9.979   6.386 -0.9586  0.3873 -0.0640
  164MOL0     C22537   4.225  10.039   6.338  0.7138 -0.2678 -0.2122
  164MOL0     C22538   4.225  10.090   6.189 -1.0172 -0.4997  0.3427
  164MOL0    Cl22539   4.086  10.181   6.148 -0.0406  0.0313 -0.1785
  164MOL0     C22540   5.100   9.943   6.270 -0.8551  0.2876 -0.6586
  164MOL0     C22541   5.224  10.003   6.292 -0.9963 -0.0142  0.0733
  164MOL0     O22542   5.494   9.995   6.136 -0.5878 -0.1958 -0.0536
  164MOL0     C22543   5.681  10.162   6.354 -0.4040  0.8861 -0.2420
  164MOL0     C22544   5.800  10.223   6.360 -0.6742  0.4763  0.3605
  164MOL0     N22545   6.510  10.354   6.575  0.2525 -0.0002 -0.7677
  164MOL0     N22546   6.628  10.314   6.611  0.6641  0.4112  0.0421
  164MOL0     C22547   6.143   9.697   7.168  0.7328  0.3666  0.9690
  164MOL0     C22548   6.009   9.686   7.215  0.1531  0.4861 -0.9753
  164MOL0     C22549   5.577   9.598   7.311 -0.5748 -0.5811  0.2570
  164MOL0     C22550   5.496   9.492   7.339  0.3160  1.3630 -0.1393
  164MOL0     C22551   5.362   9.510   7.378  0.7489 -0.5469  0.0611
  164MOL0     C22552   5.314   9.640   7.389 -0.0688 -0.4740  0.0953
  164MOL0     O22553   5.187   9.649   7.419  0.3607  0.6513 -0.0386
  164MOL0     C22554   5.124   9.775   7.440  0.0815 -0.1130 -0.2211
  164MOL0     C22555   4.975   9.744   7.458 -0.5811 -0.4167 -0.7155
  164MOL0     C22556   4.896   9.881   7.474  0.2766 -0.6933  0.2766
  164MOL0     C22557   4.743   9.864   7.496 -0.3274 -0.0059  0.8165
  164MOL0     C22558   4.704   9.823   7.360 -0.4737  0.4727  0.2470
  164MOL0     C22559   4.668   9.795   7.245  1.0197 -0.5715  0.2049
  164MOL0     C22560   5.390   9.751   7.361  0.2703 -0.2590  0.1747
  164MOL0     C22561   5.526   9.733   7.331  0.1119 -0.8616  0.2757
  164MOL0     C22562   5.604   9.863   7.334 -0.5272  0.4398  0.4731
  164MOL0     H22563   5.852   9.546   6.942 -0.3026 -1.7063  1.0470
  164MOL0     H22564   6.089   9.573   6.853 -0.7916  4.7410 -1.2195
  164MOL0     H22565   6.397   9.579   7.118  1.1540  2.7434  3.1666
  164MOL0     H22566   6.434   9.749   7.087  0.6870 -0.4000 -0.8869
  164MOL0     H22567   6.599   9.617   7.004 -0.4407 -2.6945  0.7462
  164MOL0     H22568   6.487   9.524   6.897  1.0112  0.2629  2.1066
  164MOL0     H22569   6.437   9.729   6.761  0.7012  0.4816 -2.0245
  164MOL0     H22570   6.531   9.835   6.869 -0.6463  0.8236 -2.1259
  164MOL0     H22571   6.715   9.664   6.799  0.6232 -1.6997 -1.9221
  164MOL0     H22572   6.610   9.595   6.688  2.0138 -0.2497 -1.7419
  164MOL0     H22573   6.598   9.773   6.542  0.9684 -1.3961 -0.2740
  164MOL0     H22574   6.759   9.740   6.567 -0.0839 -1.1132  1.5072
  164MOL0     H22575   6.601   9.973   6.674 -0.2329  3.3611 -2.9183
  164MOL0     H22576   6.771   9.952   6.731 -0.2677  0.4973 -0.3975
  164MOL0     H22577   6.702   9.965   6.434 -2.2360 -0.3735  1.0724
  164MOL0     H22578   6.859   9.953   6.493 -0.9052 -0.2297 -1.3246
  164MOL0     H22579   6.840  10.153   6.622  2.4272  0.6949 -1.9028
  164MOL0     H22580   6.848  10.162   6.448  0.3143  0.2256  0.6391
  164MOL0     H22581   6.543  10.108   6.377  1.8137 -0.3817  1.5400
  164MOL0     H22582   6.259  10.216   6.442  1.2788 -2.0358 -0.2846
  164MOL0     H22583   6.354  10.242   6.300  1.7191 -1.6245  1.1775
  164MOL0     H22584   6.202  10.463   6.476  0.5756 -0.3975  0.3114
  164MOL0     H22585   6.337  10.506   6.381  0.7967 -0.9424  0.5482
  164MOL0     H22586   6.151  10.536   6.228 -1.4327  0.4757  0.5140
  164MOL0     H22587   6.203  10.378   6.187  0.9605 -1.6856  1.1255
  164MOL0     H22588   5.984  10.425   6.405 -0.3187  1.6584 -0.8237
  164MOL0     H22589   5.938  10.426   6.240 -0.7447  0.7870  0.8001
  164MOL0     H22590   5.991   9.999   6.187 -1.1553 -2.9265 -0.9487
  164MOL0     H22591   5.790   9.765   6.194  1.2796 -0.2150 -0.2554
  164MOL0     H22592   5.870   9.838   6.067 -1.3254  1.4232 -0.2815
  164MOL0     H22593   5.691   9.844   6.075  0.3886 -1.2168 -0.9133
  164MOL0     H22594   5.390   9.725   6.415  0.8167  0.2279 -0.2697
  164MOL0     H22595   5.169   9.630   6.373 -1.3385 -0.8373 -2.3357
  164MOL0     H22596   4.811   9.842   6.332  3.2605 -2.2612  1.6039
  164MOL0     H22597   4.807   9.844   6.155 -1.8941  0.6344 -0.2630
  164MOL0     H22598   4.765   9.572   6.201 -0.6962  2.0008 -3.7851
  164MOL0     H22599   4.750   9.626   6.367 -1.3600  0.5336 -0.3179
  164MOL0     H22600   4.523   9.614   6.263 -3.0884  1.6555  1.5704
  164MOL0     H22601   4.580   9.733   6.141  0.3245 -1.6010 -0.3307
  164MOL0     H22602   4.590   9.916   6.301 -3.3140  0.5618 -1.7539
  164MOL0     H22603   4.555   9.802   6.437 -0.7548 -0.6325  0.2559
  164MOL0     H22604   4.379   9.875   6.205 -1.1406 -1.4579  0.4758
  164MOL0     H22605   4.344   9.763   6.340  1.4995 -0.8897  0.4071
  164MOL0     H22606   4.433  10.057   6.363 -2.5991  1.8619 -0.4176
  164MOL0     H22607   4.378   9.960   6.493 -2.9142  4.0620  1.0818
  164MOL0     H22608   4.202  10.118   6.410  1.3643 -0.7451  0.5303
  164MOL0     H22609   4.148   9.963   6.351  0.6569  0.0449  1.4106
  164MOL0     H22610   4.229  10.001   6.126 -2.7211 -0.3424 -0.0330
  164MOL0     H22611   4.315  10.152   6.181 -3.6994  3.8399  1.0646
  164MOL0     H22612   5.012  10.000   6.241 -1.6837 -0.6354 -0.0220
  164MOL0     H22613   5.238  10.110   6.279  1.9173 -0.6559 -3.6487
  164MOL0     H22614   5.594  10.190   6.412 -0.5331  0.4655 -0.2292
  164MOL0     H22615   5.801  10.315   6.418 -1.0099  0.5536  0.2458
  164MOL0     H22616   6.227   9.735   7.225  1.4935  1.2076 -0.6518
  164MOL0     H22617   5.983   9.713   7.317  0.7178  0.0247 -0.7007
  164MOL0     H22618   5.531   9.390   7.347 -2.2147  0.5620  2.1228
  164MOL0     H22619   5.292   9.429   7.393  0.1661  0.2966  2.2410
  164MOL0     H22620   5.162   9.830   7.527 -0.2751  1.8421 -1.2339
  164MOL0     H22621   5.137   9.836   7.350 -0.4526 -1.4671 -1.2526
  164MOL0     H22622   4.966   9.685   7.550 -0.2819 -0.5354 -0.7573
  164MOL0     H22623   4.946   9.683   7.372 -0.8446 -1.3040 -0.0101
  164MOL0     H22624   4.934   9.928   7.565 -0.3552 -0.9425  0.6708
  164MOL0     H22625   4.917   9.952   7.393  0.8947 -1.8276 -0.5861
  164MOL0     H22626   4.685   9.949   7.532 -1.1789 -0.5906  0.8781
  164MOL0     H22627   4.738   9.784   7.571  2.7008 -0.6190  0.4661
  164MOL0     H22628   4.649   9.754   7.148 -0.3519  0.0181  0.2032
  164MOL0     H22629   5.356   9.853   7.375  0.2124 -0.6477  3.6814
  164MOL0     H22630   5.565   9.933   7.409  0.0762 -1.1622  2.3626
  164MOL0     H22631   5.710   9.843   7.354 -1.1454 -1.2043  2.4132
  164MOL0     H22632   5.602   9.907   7.234 -0.3466 -0.2554  0.1573
  165MOL0     O22633   2.177   2.245   3.060 -0.4024  0.7433  0.6054
  165MOL0     C22634   2.116   2.205   2.961 -0.1147  0.0410 -1.4899
  165MOL0     O22635   2.173   2.163   2.844 -0.6868 -0.0833 -0.2659
  165MOL0     C22636   2.311   2.180   2.826 -0.0424  0.5171  0.3977
  165MOL0     C22637   2.344   2.221   2.699  1.0198 -0.1963 -0.3943
  165MOL0     C22638   2.478   2.245   2.663 -0.4998  0.2172  0.2052
  165MOL0     C22639   2.581   2.231   2.759 -0.6846 -0.0750  0.7889
  165MOL0     O22640   2.708   2.259   2.704  0.0678  1.1874  0.0137
  165MOL0     C22641   2.809   2.237   2.802  0.0430 -0.4089  0.2950
  165MOL0     C22642   2.947   2.284   2.738 -0.5195  0.0314 -0.3455
  165MOL0     C22643   3.042   2.304   2.856  0.3422  0.4016 -0.7235
  165MOL0     C22644   3.175   2.356   2.800  0.5518 -0.3372 -0.1508
  165MOL0     C22645   3.283   2.402   2.908 -0.1533 -0.2998 -0.2815
  165MOL0     C22646   3.382   2.500   2.836  0.0038 -0.1941  0.1989
  165MOL0     C22647   3.494   2.547   2.928 -1.2302  0.0740  0.8932
  165MOL0     C22648   3.577   2.653   2.853 -0.0532 -1.1024 -0.2362
  165MOL0     N22649   3.680   2.701   2.937  0.6954 -0.6341 -0.1150
  165MOL0     C22650   3.815   2.673   2.924 -0.1036 -0.2453  0.1290
  165MOL0     C22651   3.871   2.680   3.051  1.4557 -0.9999  0.0005
  165MOL0     C22652   4.005   2.655   3.098 -0.2484  0.6924  0.0990
  165MOL0     C22653   4.097   2.761   3.040  0.1795  0.0633  0.4511
  165MOL0     C22654   4.152   2.847   3.152  0.7227  0.9356  0.3974
  165MOL0     C22655   4.045   2.965   3.187 -0.2440  0.2076 -0.2249
  165MOL0     O22656   4.084   3.024   3.311 -0.0702 -0.4346 -0.3312
  165MOL0     C22657   4.215   3.071   3.323 -0.2398  0.7018  0.6009
  165MOL0     C22658   4.277   3.077   3.446 -0.4318  1.8953 -0.7747
  165MOL0     C22659   4.407   3.123   3.460 -0.4019 -0.7388 -0.0642
  165MOL0     C22660   4.467   3.114   3.602  0.5350  0.6153 -0.2204
  165MOL0     C22661   4.476   3.182   3.352  0.7652  0.0414 -0.3731
  165MOL0     C22662   4.618   3.239   3.359  0.5585 -0.2656  0.5650
  165MOL0     O22663   4.716   3.218   3.264  0.9345 -0.4963 -0.4696
  165MOL0     C22664   4.837   3.281   3.289  0.0910  0.1501 -0.6156
  165MOL0     C22665   4.933   3.205   3.352 -0.3648  0.5737 -0.5684
  165MOL0     C22666   5.073   3.239   3.365  0.6728 -0.0835  0.0176
  165MOL0     C22667   5.111   3.355   3.297  0.7304  0.0129 -0.5480
  165MOL0     O22668   5.235   3.416   3.299 -0.4471  0.5478 -0.2302
  165MOL0     C22669   5.347   3.326   3.334  0.5462  0.2258 -0.0734
  165MOL0     C22670   5.472   3.411   3.323  0.5925  1.0866  0.5627
  165MOL0     C22671   5.596   3.338   3.356 -0.4404 -0.8889 -0.0583
  165MOL0     C22672   5.709   3.432   3.329 -0.5004 -0.2135 -0.6419
  165MOL0     C22673   5.830   3.357   3.384 -0.7346  0.2962  0.1785
  165MOL0     C22674   5.949   3.425   3.332  0.5086  0.3472 -1.4495
  165MOL0     C22675   6.079   3.351   3.371  0.8399  0.3736 -0.3605
  165MOL0     C22676   6.124   3.405   3.509 -0.2223 -0.5535  0.3829
  165MOL0    Cl22677   6.175   3.266   3.598  0.4546 -0.3753 -0.3600
  165MOL0     C22678   5.023   3.416   3.206  0.2254  0.1800 -1.0824
  165MOL0     C22679   4.881   3.389   3.213  0.0589 -0.1308  0.2278
  165MOL0     O22680   4.626   3.314   3.449  0.4992 -0.2029 -0.5637
  165MOL0     C22681   4.408   3.185   3.230 -0.6488  0.0344 -0.4959
  165MOL0     C22682   4.283   3.125   3.219  0.3642  1.0274  1.2707
  165MOL0     N22683   3.775   2.729   3.135 -0.2052 -0.3488  0.6926
  165MOL0     N22684   3.661   2.739   3.072 -0.2806  0.0165  1.1741
  165MOL0     C22685   2.550   2.172   2.881 -0.2891  0.1612  0.3926
  165MOL0     C22686   2.412   2.149   2.918 -1.3754 -0.3408 -0.3229
  165MOL0     C22687   1.973   2.212   2.967 -0.1179  0.6723  0.7604
  165MOL0     C22688   1.897   2.204   2.847  0.8282 -0.3274  0.4217
  165MOL0     C22689   1.762   2.239   2.848 -1.2897  0.6911  0.6235
  165MOL0     C22690   1.698   2.258   2.967 -1.2925 -0.6572 -0.1167
  165MOL0     O22691   1.563   2.279   2.969  0.0354  0.1789 -0.1885
  165MOL0     C22692   1.530   2.415   2.951  0.1931 -0.3565  0.6565
  165MOL0     C22693   1.475   2.460   3.091 -0.3640  0.3424 -0.5216
  165MOL0     C22694   1.437   2.608   3.111 -0.5152 -1.2884  0.6344
  165MOL0     C22695   1.370   2.685   2.993  0.2283  0.4828  0.3653
  165MOL0     C22696   1.242   2.628   2.952 -0.3632  0.2904  0.0304
  165MOL0     C22697   1.152   2.566   2.890 -0.6938  0.3619  0.0367
  165MOL0     C22698   1.760   2.243   3.089  0.0085  0.7087  1.7269
  165MOL0     C22699   1.896   2.219   3.094 -0.8142  0.2236 -0.1156
  165MOL0     C22700   1.958   2.201   3.231  0.0013 -0.4276  0.4644
  165MOL0     H22701   2.258   2.246   2.637 -1.7723  0.8989  3.4997
  165MOL0     H22702   2.501   2.278   2.563 -0.8301  1.3376  0.4746
  165MOL0     H22703   2.814   2.134   2.838  0.7395  0.2674  2.2257
  165MOL0     H22704   2.780   2.302   2.885 -3.8306 -0.2154 -0.9961
  165MOL0     H22705   2.985   2.201   2.679 -3.5129 -4.1787  2.9732
  165MOL0     H22706   2.929   2.368   2.671 -0.5057  0.7292  0.5119
  165MOL0     H22707   2.995   2.386   2.911 -1.2952 -0.2793 -1.0588
  165MOL0     H22708   3.052   2.210   2.911 -4.8479 -0.5334 -0.8876
  165MOL0     H22709   3.223   2.285   2.732  0.7277 -1.5121  1.1552
  165MOL0     H22710   3.137   2.443   2.745  0.3646 -0.3779 -0.0872
  165MOL0     H22711   3.340   2.314   2.939  0.3044 -0.0957 -0.5251
  165MOL0     H22712   3.233   2.444   2.995  2.6392 -0.2496  1.4404
  165MOL0     H22713   3.433   2.461   2.747 -2.6384  2.7050 -2.8440
  165MOL0     H22714   3.319   2.583   2.802 -0.3991 -0.6362 -0.1363
  165MOL0     H22715   3.557   2.465   2.966 -0.0094 -0.3728 -1.8486
  165MOL0     H22716   3.436   2.586   3.012 -1.8842  1.3079 -0.1099
  165MOL0     H22717   3.618   2.595   2.769  1.4942  0.9202 -0.9776
  165MOL0     H22718   3.522   2.739   2.814  0.0492 -1.1113 -0.4038
  165MOL0     H22719   3.878   2.650   2.839  1.9996 -0.5019  1.6533
  165MOL0     H22720   4.050   2.558   3.074  1.5611  2.1775 -3.1818
  165MOL0     H22721   4.000   2.657   3.207  1.4682 -3.7790  0.4782
  165MOL0     H22722   4.186   2.706   3.005 -0.1001  0.5920 -1.1916
  165MOL0     H22723   4.060   2.813   2.951  0.6382 -0.3148  0.0297
  165MOL0     H22724   4.168   2.778   3.235  2.6911  0.6504 -0.1731
  165MOL0     H22725   4.247   2.894   3.128  0.8732  0.6007  0.3400
  165MOL0     H22726   4.043   3.040   3.108  1.6090  0.0990 -0.4174
  165MOL0     H22727   3.943   2.929   3.204 -1.6841  4.7626  2.2375
  165MOL0     H22728   4.230   3.050   3.540  0.6006  1.7251 -0.3039
  165MOL0     H22729   4.460   3.204   3.664 -0.1788  1.6437 -1.7347
  165MOL0     H22730   4.570   3.080   3.586  0.5402  0.2417  0.5293
  165MOL0     H22731   4.425   3.042   3.673 -0.1812 -0.1087 -1.3676
  165MOL0     H22732   4.913   3.107   3.395 -0.1284  0.1204 -1.4607
  165MOL0     H22733   5.142   3.183   3.427 -2.0932 -0.0118  3.4756
  165MOL0     H22734   5.320   3.307   3.438 -3.7294 -0.7234 -1.1854
  165MOL0     H22735   5.356   3.238   3.270 -1.3406  0.7369 -1.1345
  165MOL0     H22736   5.483   3.434   3.217  1.3951 -1.3486  0.0590
  165MOL0     H22737   5.459   3.496   3.392 -3.9546 -1.6942  3.6880
  165MOL0     H22738   5.607   3.247   3.296  1.1234 -1.8179  1.5558
  165MOL0     H22739   5.589   3.331   3.465 -1.5602  1.6927  0.0983
  165MOL0     H22740   5.693   3.532   3.371  1.7356  0.2025 -0.6623
  165MOL0     H22741   5.730   3.447   3.223 -0.5278 -1.4501 -0.8350
  165MOL0     H22742   5.822   3.344   3.492 -0.5984 -1.1562  0.0343
  165MOL0     H22743   5.828   3.257   3.339 -1.8390  0.6527 -0.5883
  165MOL0     H22744   5.963   3.532   3.350  1.0886  0.3666 -1.9877
  165MOL0     H22745   5.941   3.418   3.223  0.3085  4.2720 -1.8248
  165MOL0     H22746   6.160   3.372   3.300 -0.3066  4.2895 -0.7219
  165MOL0     H22747   6.067   3.242   3.372  3.9001 -0.0301  0.4427
  165MOL0     H22748   6.049   3.454   3.571 -0.1469 -0.2959  0.2735
  165MOL0     H22749   6.211   3.471   3.494  1.7589 -3.4864 -2.4315
  165MOL0     H22750   5.052   3.499   3.142 -1.1425  1.1805 -0.4755
  165MOL0     H22751   4.806   3.438   3.152 -1.3170  0.1078  2.0110
  165MOL0     H22752   4.462   3.229   3.146  0.4546  0.0440  0.1973
  165MOL0     H22753   4.235   3.117   3.122  3.4909 -1.4300 -0.2441
  165MOL0     H22754   2.629   2.153   2.954 -0.2813 -0.2729  0.2730
  165MOL0     H22755   2.377   2.109   3.013 -1.9115  0.0783 -0.3357
  165MOL0     H22756   1.944   2.200   2.749 -0.8418  1.0049 -0.4722
  165MOL0     H22757   1.713   2.241   2.751  1.2839 -0.1330 -0.7960
  165MOL0     H22758   1.614   2.480   2.925 -0.0127 -0.4572 -0.2648
  165MOL0     H22759   1.455   2.418   2.872  1.7955  0.0228 -0.9269
  165MOL0     H22760   1.548   2.423   3.164 -1.8122  1.1308  1.4228
  165MOL0     H22761   1.387   2.398   3.111  0.0414  0.4186  1.6719
  165MOL0     H22762   1.369   2.616   3.196 -2.2968 -3.4149 -0.4865
  165MOL0     H22763   1.533   2.653   3.136 -0.1683 -1.5519 -0.1640
  165MOL0     H22764   1.445   2.685   2.913 -1.6538 -1.2431 -1.4998
  165MOL0     H22765   1.358   2.792   3.012 -0.2948  0.0695  2.6516
  165MOL0     H22766   1.083   2.507   2.834 -0.0798 -0.4183  0.0703
  165MOL0     H22767   1.693   2.238   3.174 -2.2941 -2.2297 -0.0758
  165MOL0     H22768   1.877   2.184   3.302 -1.0290 -3.2410 -1.2366
  165MOL0     H22769   2.024   2.114   3.226  0.4235 -0.1650  1.3240
  165MOL0     H22770   2.019   2.290   3.247  1.2419 -0.7182 -2.1169
  166MOL0     O22771   3.793   2.191   4.790 -0.9753 -0.0788 -0.1890
  166MOL0     C22772   3.695   2.227   4.735 -0.1798  0.2134  0.4036
  166MOL0     O22773   3.654   2.171   4.616 -0.2247 -0.1104 -0.4702
  166MOL0     C22774   3.729   2.077   4.558 -0.4165 -0.0197 -0.3270
  166MOL0     C22775   3.680   1.949   4.546  0.8532 -0.7027  0.1642
  166MOL0     C22776   3.759   1.845   4.498 -0.8393 -1.1707 -0.1533
  166MOL0     C22777   3.890   1.876   4.452  0.1238 -0.0727 -0.2581
  166MOL0     O22778   3.972   1.781   4.395  0.4516 -0.4504  0.3889
  166MOL0     C22779   3.916   1.684   4.307  0.3838 -0.4810  0.0968
  166MOL0     C22780   4.022   1.627   4.220 -0.3946 -0.2758  0.5221
  166MOL0     C22781   4.079   1.729   4.121 -0.2047 -0.5424  0.3470
  166MOL0     C22782   4.179   1.656   4.034 -0.7696  0.4430 -0.2216
  166MOL0     C22783   4.260   1.754   3.943  0.2542 -0.3377  0.2627
  166MOL0     C22784   4.397   1.693   3.920  0.2178 -0.0943  0.3919
  166MOL0     C22785   4.380   1.573   3.819  0.2321  0.1226  0.2896
  166MOL0     C22786   4.514   1.496   3.809  0.9805 -0.3467  0.1648
  166MOL0     N22787   4.611   1.566   3.734  1.2067  0.2742  0.9081
  166MOL0     C22788   4.714   1.642   3.790  1.0820  0.4551 -0.7304
  166MOL0     C22789   4.781   1.691   3.685  0.3362 -0.3084  0.5626
  166MOL0     C22790   4.913   1.758   3.681  0.9462  0.1289 -0.2315
  166MOL0     C22791   5.015   1.655   3.659 -0.0739  0.6782 -0.3774
  166MOL0     C22792   5.001   1.581   3.527 -0.2831  0.4684  0.0761
  166MOL0     C22793   5.129   1.518   3.469  0.7203  0.0709 -0.0920
  166MOL0     O22794   5.232   1.623   3.446  0.1611  0.0492 -0.3192
  166MOL0     C22795   5.365   1.583   3.429  0.4477  0.3056  0.6128
  166MOL0     C22796   5.402   1.451   3.403  0.5365 -0.4700 -0.0683
  166MOL0     C22797   5.542   1.419   3.371  0.0619 -0.4052  0.1404
  166MOL0     C22798   5.571   1.274   3.342  0.0017  0.1870  0.2444
  166MOL0     C22799   5.642   1.519   3.379  0.1759  0.0813  0.1594
  166MOL0     C22800   5.789   1.498   3.361 -0.4750 -0.3378 -0.3627
  166MOL0     O22801   5.863   1.611   3.402  0.0380 -0.2986  0.5298
  166MOL0     C22802   5.997   1.619   3.391 -0.7456  0.9962  0.9581
  166MOL0     C22803   6.069   1.681   3.490  0.2887  0.0695 -0.0962
  166MOL0     C22804   6.210   1.678   3.505 -0.7251 -0.4348  0.0790
  166MOL0     C22805   6.280   1.634   3.387 -0.0361 -0.1342 -0.4268
  166MOL0     O22806   6.414   1.639   3.387  0.0750  0.2461 -0.3832
  166MOL0     C22807   6.496   1.529   3.362 -0.0548  0.1615 -0.4376
  166MOL0     C22808   6.630   1.559   3.417 -0.2280  0.7449 -0.0759
  166MOL0     C22809   6.626   1.579   3.575 -0.5307  0.5917 -0.4460
  166MOL0     C22810   6.772   1.590   3.627 -0.4077  0.4691  0.2970
  166MOL0     C22811   6.854   1.728   3.593 -0.3016 -0.5603  0.2699
  166MOL0     C22812   6.961   1.738   3.703 -0.2432 -0.3858  0.5924
  166MOL0     C22813   7.022   1.872   3.682 -0.3697 -0.1252  0.5715
  166MOL0     C22814   7.156   1.898   3.759  1.0400 -0.5811 -0.6133
  166MOL0    Cl22815   7.298   1.813   3.692  0.2392 -0.1863 -0.6216
  166MOL0     C22816   6.212   1.580   3.281 -0.0912  0.0505 -0.3811
  166MOL0     C22817   6.072   1.573   3.282 -0.4428  0.6054  0.7281
  166MOL0     O22818   5.834   1.390   3.332  0.4275  0.6659 -0.1054
  166MOL0     C22819   5.591   1.651   3.398  0.0076  1.1945 -0.1366
  166MOL0     C22820   5.464   1.684   3.438 -0.1242  0.4480 -0.4944
  166MOL0     N22821   4.717   1.658   3.567 -0.0504  0.0550 -1.2621
  166MOL0     N22822   4.621   1.583   3.597  0.4381 -0.2613 -0.2331
  166MOL0     C22823   3.941   2.001   4.464 -0.8091 -0.0711  0.6428
  166MOL0     C22824   3.858   2.106   4.510 -1.0855 -0.2474  0.5727
  166MOL0     C22825   3.605   2.326   4.804  1.6017 -0.6213  0.0170
  166MOL0     C22826   3.477   2.337   4.755  0.5733  0.6519 -0.1694
  166MOL0     C22827   3.390   2.439   4.790 -0.0683 -0.0758  0.3416
  166MOL0     C22828   3.426   2.529   4.892  0.6311  0.6496 -0.4917
  166MOL0     O22829   3.335   2.624   4.926  0.6266  0.4726 -1.0201
  166MOL0     C22830   3.388   2.723   5.018 -0.0875 -0.0581 -0.5490
  166MOL0     C22831   3.483   2.822   4.952 -0.1043 -0.2079 -0.4436
  166MOL0     C22832   3.411   2.912   4.856  0.0398  0.0049 -0.2084
  166MOL0     C22833   3.515   2.995   4.791 -0.1894 -0.6432 -0.4705
  166MOL0     C22834   3.449   3.097   4.706  0.4914 -0.5153 -0.3097
  166MOL0     C22835   3.400   3.170   4.624  0.0889  1.0929 -0.9510
  166MOL0     C22836   3.555   2.512   4.952  0.0574 -0.1024  0.4604
  166MOL0     C22837   3.640   2.405   4.916 -0.3492 -0.6415  0.5691
  166MOL0     C22838   3.756   2.394   5.007  1.1066  1.0622  0.4366
  166MOL0     H22839   3.585   1.921   4.591  1.2470 -0.5226  1.1062
  166MOL0     H22840   3.723   1.745   4.478 -0.6830 -1.1675 -0.4578
  166MOL0     H22841   3.840   1.732   4.245  0.0636  3.1049  2.8933
  166MOL0     H22842   3.868   1.604   4.365  3.6521 -1.8641  1.1218
  166MOL0     H22843   4.106   1.591   4.280  0.5733  0.2197 -0.4889
  166MOL0     H22844   3.988   1.540   4.162  1.7529 -1.6417  1.1781
  166MOL0     H22845   4.003   1.776   4.057 -0.9099 -1.1500  0.7301
  166MOL0     H22846   4.139   1.804   4.173  0.7824  0.3776 -1.9714
  166MOL0     H22847   4.246   1.604   4.103  1.7881  2.4813 -1.0065
  166MOL0     H22848   4.119   1.583   3.978 -2.2181 -0.8753  2.8312
  166MOL0     H22849   4.254   1.858   3.977 -2.7202 -0.3780  0.1387
  166MOL0     H22850   4.204   1.771   3.851 -0.4749  0.3760  0.8256
  166MOL0     H22851   4.470   1.761   3.875  1.8380 -1.5839  0.6535
  166MOL0     H22852   4.435   1.667   4.019 -1.1547  4.7215  2.4683
  166MOL0     H22853   4.353   1.589   3.715  0.7271 -0.3736  0.0835
  166MOL0     H22854   4.306   1.503   3.859 -2.7696  1.5264 -2.3874
  166MOL0     H22855   4.561   1.492   3.908  3.3821  0.2679 -0.8702
  166MOL0     H22856   4.496   1.393   3.777 -2.2067  0.3418 -0.5605
  166MOL0     H22857   4.759   1.651   3.889  1.0336  0.4351 -0.7062
  166MOL0     H22858   4.933   1.827   3.764  1.1617  1.0467 -1.0228
  166MOL0     H22859   4.911   1.827   3.597 -0.6316 -2.4777 -2.4966
  166MOL0     H22860   5.111   1.709   3.660  1.2035 -1.5030  0.0350
  166MOL0     H22861   5.007   1.578   3.735  1.6239 -0.4062 -1.2179
  166MOL0     H22862   4.930   1.504   3.557 -1.2644  1.5988  0.7562
  166MOL0     H22863   4.965   1.652   3.451  1.8946  0.2859 -1.2078
  166MOL0     H22864   5.170   1.441   3.536 -1.0482 -1.0446 -0.2298
  166MOL0     H22865   5.118   1.471   3.371 -1.2831  3.5638 -1.7240
  166MOL0     H22866   5.326   1.374   3.408  0.0350  0.1128  2.8825
  166MOL0     H22867   5.473   1.228   3.324 -0.4056  1.2095 -0.2411
  166MOL0     H22868   5.633   1.229   3.419  3.6232 -0.7895 -2.9460
  166MOL0     H22869   5.632   1.264   3.252 -0.0732  0.1979  0.1919
  166MOL0     H22870   6.012   1.725   3.572 -0.0705  2.2962 -1.4541
  166MOL0     H22871   6.266   1.725   3.585 -2.1453 -0.8044  1.3426
  166MOL0     H22872   6.460   1.429   3.388 -0.4905 -0.0274 -1.6735
  166MOL0     H22873   6.514   1.518   3.255  1.1873 -0.6298 -0.1644
  166MOL0     H22874   6.697   1.477   3.390 -0.0761  0.4936  1.0466
  166MOL0     H22875   6.664   1.656   3.378  3.3482  1.1182  3.3313
  166MOL0     H22876   6.572   1.490   3.609 -1.4613  0.6712 -1.6271
  166MOL0     H22877   6.578   1.671   3.610  0.7595  1.4149 -0.7837
  166MOL0     H22878   6.832   1.507   3.589 -1.0031 -1.0447  2.4590
  166MOL0     H22879   6.772   1.570   3.735  1.2595 -1.6916 -0.0271
  166MOL0     H22880   6.904   1.723   3.496  0.9263 -2.5383  0.9443
  166MOL0     H22881   6.790   1.816   3.591  0.7568  0.2165 -0.9575
  166MOL0     H22882   7.029   1.653   3.694 -2.1594 -2.0106  0.6117
  166MOL0     H22883   6.917   1.727   3.803  1.8165  0.6889  1.6619
  166MOL0     H22884   6.953   1.951   3.715  0.3434  1.7193 -2.0117
  166MOL0     H22885   7.040   1.890   3.575  2.8993 -4.3221  0.1276
  166MOL0     H22886   7.144   1.863   3.862  4.3842 -0.4168 -0.0266
  166MOL0     H22887   7.169   2.006   3.772  2.7293 -1.0664  3.2838
  166MOL0     H22888   6.264   1.538   3.195  3.2819 -0.3855  1.6662
  166MOL0     H22889   6.018   1.529   3.199  0.2829 -4.0706  2.4147
  166MOL0     H22890   5.652   1.740   3.388 -0.9174  2.2035  2.2817
  166MOL0     H22891   5.441   1.790   3.450  1.3265  1.1366 -3.1015
  166MOL0     H22892   4.039   2.023   4.423  0.2109 -1.7061  2.0827
  166MOL0     H22893   3.897   2.207   4.513 -0.1019 -0.6124  0.6685
  166MOL0     H22894   3.453   2.268   4.675  1.0943 -0.8979  0.9782
  166MOL0     H22895   3.295   2.460   4.742  1.2976 -0.6624 -2.9097
  166MOL0     H22896   3.300   2.773   5.058  1.7362  1.9534  1.2582
  166MOL0     H22897   3.433   2.675   5.106 -0.7027 -3.8964 -2.1177
  166MOL0     H22898   3.556   2.765   4.895  0.5348  1.0556 -0.9431
  166MOL0     H22899   3.541   2.877   5.027  2.1168 -0.4166 -1.9128
  166MOL0     H22900   3.360   2.853   4.779  2.7116  0.6264 -2.6184
  166MOL0     H22901   3.342   2.981   4.907 -0.1385  0.8777 -1.5723
  166MOL0     H22902   3.592   2.944   4.731  0.9364  0.9702 -0.4564
  166MOL0     H22903   3.565   3.054   4.868 -0.7204  1.5947 -1.7577
  166MOL0     H22904   3.355   3.246   4.564 -2.3109  1.6458  1.3347
  166MOL0     H22905   3.586   2.582   5.030 -0.5374  0.9149 -0.1968
  166MOL0     H22906   3.853   2.410   4.959  1.1574 -3.1174 -1.3256
  166MOL0     H22907   3.749   2.464   5.090 -0.6792  1.1409  0.2593
  166MOL0     H22908   3.772   2.291   5.040  1.4340  1.1226  0.4677
  167MOL0     O22909   1.107   8.408   7.477  0.1942 -0.0498 -0.0123
  167MOL0     C22910   1.191   8.352   7.553  0.2346 -0.5810  0.5413
  167MOL0     O22911   1.193   8.365   7.688  0.0992 -0.2645  0.2040
  167MOL0     C22912   1.153   8.483   7.739  0.0759  0.4610 -0.1191
  167MOL0     C22913   1.160   8.477   7.880 -0.3653 -0.4866  0.4261
  167MOL0     C22914   1.144   8.595   7.951 -0.0475  1.1065 -0.0860
  167MOL0     C22915   1.130   8.719   7.887  0.7685  0.1941  0.4418
  167MOL0     O22916   1.126   8.834   7.959  0.5459 -0.1182 -0.0081
  167MOL0     C22917   1.102   8.831   8.100  0.1960 -0.0366 -0.2499
  167MOL0     C22918   1.084   8.975   8.148 -0.3744 -0.9518 -0.3145
  167MOL0     C22919   1.075   8.982   8.302  0.3126  0.4867 -0.5696
  167MOL0     C22920   1.090   9.124   8.346  0.0106 -0.8971 -0.0621
  167MOL0     C22921   1.094   9.147   8.498 -0.7646  0.5621  0.0348
  167MOL0     C22922   1.223   9.093   8.546 -0.2753 -0.2734  0.0008
  167MOL0     C22923   1.292   9.163   8.673  0.8406  0.4772  0.4043
  167MOL0     C22924   1.426   9.099   8.715  0.2635  0.3180 -0.6434
  167MOL0     N22925   1.489   9.147   8.841 -0.2652  0.4430  0.9771
  167MOL0     C22926   1.422   9.153   8.955 -0.8205 -0.6270  0.4602
  167MOL0     C22927   1.511   9.203   9.039  0.5099  0.0261  0.9205
  167MOL0     C22928   1.455   9.256   9.172  0.0030 -0.2828 -0.2648
  167MOL0     C22929   1.520   9.176   9.289  0.1922 -0.1033 -0.1737
  167MOL0     C22930   1.669   9.174   9.282  0.5938 -0.2125 -0.5925
  167MOL0     C22931   1.731   9.155   9.428 -0.1295 -0.0423  0.7278
  167MOL0     O22932   1.867   9.121   9.408 -0.5522  0.0166  0.3843
  167MOL0     C22933   1.944   9.117   9.515 -0.2456  0.1649 -0.2185
  167MOL0     C22934   2.055   9.023   9.511  0.5338 -0.0513 -0.8411
  167MOL0     C22935   2.153   9.027   9.615  0.1248  0.3436  0.4468
  167MOL0     C22936   2.261   8.921   9.598 -0.5063 -0.3239 -0.1158
  167MOL0     C22937   2.146   9.121   9.717  0.4570 -0.1459 -0.6564
  167MOL0     C22938   2.241   9.138   9.829  1.1172 -0.0549  0.0712
  167MOL0     O22939   2.270   9.265   9.854  0.2193  0.7875  0.2135
  167MOL0     C22940   2.356   9.300   9.954 -0.1270  0.2990  0.7387
  167MOL0     C22941   2.326   9.410  10.033  0.3974  0.1088 -0.3576
  167MOL0     C22942   2.407   9.468  10.137 -0.3409 -0.3850  0.1216
  167MOL0     C22943   2.532   9.404  10.159 -0.4264  0.3428  0.8304
  167MOL0     O22944   2.639   9.439  10.241 -0.0450  0.2412  0.2606
  167MOL0     C22945   2.613   9.520  10.358 -0.2013  0.4373  0.2422
  167MOL0     C22946   2.640   9.665  10.323  0.3134  0.2853 -0.0991
  167MOL0     C22947   2.675   9.759  10.442  0.1623 -1.0560  0.5928
  167MOL0     C22948   2.569   9.745  10.555 -1.0438  0.1517  0.3491
  167MOL0     C22949   2.589   9.858  10.657  0.1958  0.1401  0.4118
  167MOL0     C22950   2.483   9.833  10.769  0.1107 -1.1614  0.4515
  167MOL0     C22951   2.455   9.953  10.857  0.5716  0.0039 -0.4382
  167MOL0     C22952   2.380   9.913  10.979  0.2114  0.6928 -1.5635
  167MOL0    Cl22953   2.245   9.782  10.965  0.2762 -0.3858  0.4389
  167MOL0     C22954   2.567   9.292  10.069  0.4240 -0.0745  0.0196
  167MOL0     C22955   2.476   9.241   9.976  0.0590 -0.5210 -0.1683
  167MOL0     O22956   2.275   9.040   9.892  0.2283  0.7820  0.4579
  167MOL0     C22957   2.034   9.205   9.721 -0.0818 -0.0448  0.6521
  167MOL0     C22958   1.940   9.200   9.621 -0.9677  0.5688 -0.4222
  167MOL0     N22959   1.630   9.227   8.980  0.6582 -0.2245 -0.0511
  167MOL0     N22960   1.612   9.193   8.862  0.6708 -0.2629  0.6306
  167MOL0     C22961   1.111   8.724   7.752  1.1101 -0.1409 -0.7290
  167MOL0     C22962   1.127   8.606   7.680 -0.2377 -0.2990 -0.1642
  167MOL0     C22963   1.284   8.247   7.499  0.2339 -0.0056 -0.1630
  167MOL0     C22964   1.279   8.222   7.361  0.0708  1.2155  0.6845
  167MOL0     C22965   1.345   8.110   7.302 -0.1005 -0.3880 -0.1491
  167MOL0     C22966   1.426   8.030   7.378 -0.0720  0.3424 -0.2351
  167MOL0     O22967   1.469   7.923   7.316 -0.0976  0.1801 -0.2493
  167MOL0     C22968   1.568   7.826   7.367  0.5415 -0.7899  0.4896
  167MOL0     C22969   1.505   7.726   7.468 -0.5441 -1.9736 -0.6295
  167MOL0     C22970   1.597   7.610   7.493 -0.5064  0.2297  0.1926
  167MOL0     C22971   1.519   7.502   7.560  0.5650  0.3229  0.5748
  167MOL0     C22972   1.602   7.385   7.605  0.3558  0.8138  0.4569
  167MOL0     C22973   1.677   7.302   7.640  0.1507  0.8365 -0.9835
  167MOL0     C22974   1.442   8.056   7.511 -0.6667  0.0147 -0.3221
  167MOL0     C22975   1.368   8.167   7.571 -0.1945  0.4902 -1.1265
  167MOL0     C22976   1.398   8.190   7.719  0.0826  0.4157 -0.0725
  167MOL0     H22977   1.190   8.387   7.932 -3.5914 -0.4409  2.6322
  167MOL0     H22978   1.164   8.598   8.058  0.2995 -1.0946 -0.0431
  167MOL0     H22979   1.186   8.781   8.149  0.3493  0.7056  0.2596
  167MOL0     H22980   1.011   8.774   8.120  1.1248 -2.0924 -1.5480
  167MOL0     H22981   1.180   9.026   8.136  1.0533 -2.2274  3.8523
  167MOL0     H22982   1.002   9.018   8.089 -0.5467  1.1302  1.3244
  167MOL0     H22983   0.979   8.946   8.340  1.2668 -0.4237  1.0635
  167MOL0     H22984   1.159   8.923   8.340 -1.3309 -1.0078  0.9280
  167MOL0     H22985   1.182   9.157   8.296  0.3781 -1.7557  0.0294
  167MOL0     H22986   1.016   9.193   8.306 -0.5690  0.6904  3.4054
  167MOL0     H22987   1.008   9.100   8.545 -0.4477  1.4994  1.6464
  167MOL0     H22988   1.086   9.256   8.512 -0.3778  0.7476 -1.0746
  167MOL0     H22989   1.221   8.984   8.555 -2.4002 -0.3436 -0.8267
  167MOL0     H22990   1.298   9.115   8.469 -1.7701  0.4368 -1.3105
  167MOL0     H22991   1.216   9.159   8.752  0.7949 -0.2738  0.3277
  167MOL0     H22992   1.320   9.267   8.654 -0.8174  0.8786  0.0013
  167MOL0     H22993   1.402   8.994   8.736  0.6534  0.1817 -0.8499
  167MOL0     H22994   1.498   9.099   8.632  0.5687  2.4244 -0.4303
  167MOL0     H22995   1.317   9.127   8.964 -1.0577  0.8332  2.8268
  167MOL0     H22996   1.346   9.252   9.166 -0.2978 -4.2453  2.9345
  167MOL0     H22997   1.494   9.357   9.185  1.9071 -1.0677  0.5446
  167MOL0     H22998   1.492   9.227   9.382  2.1533  0.7127  0.0188
  167MOL0     H22999   1.492   9.070   9.287 -2.0425  0.4455 -0.3455
  167MOL0     H23000   1.690   9.090   9.215 -0.9674 -1.3782  0.3070
  167MOL0     H23001   1.713   9.260   9.232  0.1977  0.1561 -0.3139
  167MOL0     H23002   1.723   9.252   9.478 -2.4186 -0.2899  0.9159
  167MOL0     H23003   1.675   9.076   9.478 -2.4746  1.8404  1.2418
  167MOL0     H23004   2.071   8.951   9.432 -3.0261  1.3524 -3.1085
  167MOL0     H23005   2.334   8.941   9.677  0.4713  1.3764 -1.3766
  167MOL0     H23006   2.315   8.917   9.502  0.3217  1.2007  0.2586
  167MOL0     H23007   2.227   8.817   9.603 -0.6069 -0.4057 -1.8159
  167MOL0     H23008   2.225   9.447  10.014 -0.2562 -0.1509  2.1695
  167MOL0     H23009   2.374   9.550  10.199 -1.7251 -1.5628  0.9838
  167MOL0     H23010   2.513   9.513  10.403 -0.2270  2.0624  0.4966
  167MOL0     H23011   2.678   9.489  10.440 -0.9882  1.2306  1.1913
  167MOL0     H23012   2.730   9.670  10.261  0.0722 -0.1659 -0.4940
  167MOL0     H23013   2.563   9.718  10.265  3.2475  1.8862 -2.8477
  167MOL0     H23014   2.681   9.863  10.408  2.6518  0.2017  4.3087
  167MOL0     H23015   2.770   9.733  10.490  0.3686  3.3842  3.1732
  167MOL0     H23016   2.576   9.652  10.612 -0.3800  0.7384  1.2655
  167MOL0     H23017   2.464   9.740  10.524 -0.4785  0.9301 -1.8675
  167MOL0     H23018   2.685   9.849  10.709 -0.9371 -0.7528  2.4816
  167MOL0     H23019   2.564   9.955  10.612 -2.1432 -0.3610  0.5365
  167MOL0     H23020   2.525   9.750  10.826 -0.5917 -1.7025  0.1903
  167MOL0     H23021   2.389   9.811  10.718 -0.3746  0.6504  0.5013
  167MOL0     H23022   2.397  10.032  10.808 -1.1749  0.7696  2.6271
  167MOL0     H23023   2.547  10.004  10.889  0.7294  0.6501 -1.8320
  167MOL0     H23024   2.333  10.005  11.016  0.1060 -0.0514  0.2906
  167MOL0     H23025   2.451   9.873  11.051 -0.0445  1.5310 -0.8236
  167MOL0     H23026   2.667   9.252  10.088  1.5397  1.0922 -2.8420
  167MOL0     H23027   2.528   9.158   9.929  2.3840  0.8094 -0.0603
  167MOL0     H23028   2.023   9.280   9.799 -0.0160  0.2984  0.3305
  167MOL0     H23029   1.860   9.273   9.630  1.4506  3.5884 -1.6146
  167MOL0     H23030   1.107   8.820   7.701  1.3476  0.4974  0.4220
  167MOL0     H23031   1.123   8.622   7.573  4.1997 -1.2561 -0.6499
  167MOL0     H23032   1.229   8.302   7.307  0.3889  1.2464  0.4355
  167MOL0     H23033   1.338   8.100   7.194 -1.1936 -1.0653 -0.0357
  167MOL0     H23034   1.603   7.772   7.279  1.7967 -1.5517  1.4019
  167MOL0     H23035   1.652   7.870   7.423 -0.5007 -1.1665  2.4631
  167MOL0     H23036   1.401   7.711   7.439 -1.8957  0.1661  2.4895
  167MOL0     H23037   1.489   7.784   7.559  2.7786  2.2844 -2.4049
  167MOL0     H23038   1.620   7.575   7.392 -3.0872  0.7291 -0.6290
  167MOL0     H23039   1.678   7.644   7.558 -0.3905  0.8725 -0.2833
  167MOL0     H23040   1.441   7.470   7.489 -0.0912  2.2967  0.3451
  167MOL0     H23041   1.468   7.533   7.652 -2.0156 -0.5831 -0.4355
  167MOL0     H23042   1.738   7.224   7.681 -3.4332 -0.7845  1.8559
  167MOL0     H23043   1.517   8.003   7.570  0.5871  0.8145 -1.1552
  167MOL0     H23044   1.308   8.164   7.775 -1.6164  1.7730 -2.0093
  167MOL0     H23045   1.481   8.123   7.742 -0.9555 -1.1448 -0.7326
  167MOL0     H23046   1.436   8.289   7.746 -0.1275 -0.2745  3.1948
  168MOL0     O23047   1.831  11.386   0.771  0.4020  0.2950 -0.4305
  168MOL0     C23048   1.868  11.413   0.883  0.4633  0.0899 -0.7520
  168MOL0     O23049   1.936  11.333   0.963  0.1170 -0.1918 -0.6809
  168MOL0     C23050   2.007  11.234   0.902 -0.0843  0.0329  0.6703
  168MOL0     C23051   2.111  11.262   0.813  0.2395 -0.5102  0.4470
  168MOL0     C23052   2.192  11.161   0.770 -1.3416 -1.1253  0.8005
  168MOL0     C23053   2.165  11.031   0.801 -0.2702  0.4895  1.0846
  168MOL0     O23054   2.266  10.949   0.768 -0.2425  0.5666  0.6811
  168MOL0     C23055   2.290  10.828   0.843  0.3217  1.1814  0.0635
  168MOL0     C23056   2.412  10.763   0.778 -0.3330 -0.5136  1.0785
  168MOL0     C23057   2.434  10.623   0.831 -0.5903 -0.0833  0.1216
  168MOL0     C23058   2.517  10.549   0.728  0.9168  0.1164 -0.0543
  168MOL0     C23059   2.560  10.402   0.765 -0.1294 -0.8833 -0.1685
  168MOL0     C23060   2.661  10.353   0.668 -0.5059 -0.0758  0.1232
  168MOL0     C23061   2.719  10.214   0.714  0.3008 -0.7415  0.9644
  168MOL0     C23062   2.819  10.223   0.833 -0.2666  0.3293  0.7325
  168MOL0     N23063   2.864  10.089   0.844  0.5162  0.9261  0.2688
  168MOL0     C23064   2.953  10.009   0.775  0.3000 -0.5350 -0.4573
  168MOL0     C23065   2.981   9.895   0.852  0.2775  0.7069 -0.1830
  168MOL0     C23066   3.084   9.789   0.821  0.3161  0.0214  0.7474
  168MOL0     C23067   3.226   9.838   0.817  0.2360 -0.2372 -0.2563
  168MOL0     C23068   3.271   9.898   0.954  0.4380 -0.4393 -0.8878
  168MOL0     C23069   3.289   9.781   1.059  0.6937 -0.4052 -0.0854
  168MOL0     O23070   3.376   9.676   1.013  0.0789  0.4228 -0.8052
  168MOL0     C23071   3.509   9.692   1.013 -0.3306 -0.0141 -0.4618
  168MOL0     C23072   3.577   9.799   1.075 -1.0339  0.1010  0.2498
  168MOL0     C23073   3.722   9.809   1.073  0.1240  0.0512  0.7292
  168MOL0     C23074   3.769   9.925   1.164 -0.2268  0.2636 -0.1352
  168MOL0     C23075   3.799   9.710   1.008  0.6041  0.5628  0.7648
  168MOL0     C23076   3.954   9.725   1.007  0.2035  0.0161 -0.1855
  168MOL0     O23077   4.012   9.838   1.057  0.2362 -0.3836 -0.3159
  168MOL0     C23078   4.148   9.831   1.083 -0.0112  0.0569 -0.4916
  168MOL0     C23079   4.200   9.770   1.195  0.0050  0.2149  0.2393
  168MOL0     C23080   4.334   9.775   1.224 -0.1309 -0.7122 -0.6071
  168MOL0     C23081   4.429   9.839   1.143  0.4193 -0.4685 -0.0554
  168MOL0     O23082   4.567   9.846   1.167 -0.2683  0.4853  0.1167
  168MOL0     C23083   4.622   9.764   1.278  0.2094 -0.1646  0.3262
  168MOL0     C23084   4.768   9.791   1.247  0.6617 -0.1707 -0.2172
  168MOL0     C23085   4.868   9.718   1.344 -0.6708 -0.3718  0.6755
  168MOL0     C23086   5.013   9.729   1.283  0.7770  0.4422  0.2685
  168MOL0     C23087   5.115   9.661   1.370 -0.6219 -0.2492 -0.2178
  168MOL0     C23088   5.259   9.679   1.320 -0.1930 -0.1559  0.2930
  168MOL0     C23089   5.334   9.544   1.320 -0.2426 -0.3105  0.0971
  168MOL0     C23090   5.486   9.561   1.287 -0.1619  0.0582 -0.1603
  168MOL0    Cl23091   5.520   9.630   1.123 -0.5489 -0.6329  0.0532
  168MOL0     C23092   4.381   9.888   1.021 -0.1174  0.0214 -0.7030
  168MOL0     C23093   4.248   9.887   0.991  0.5067  0.5839  0.0246
  168MOL0     O23094   4.014   9.632   0.946 -0.6389 -0.3602 -0.3531
  168MOL0     C23095   3.730   9.602   0.953  0.1852 -0.1025 -0.2196
  168MOL0     C23096   3.591   9.592   0.957 -0.1105  0.2026  0.5139
  168MOL0     N23097   2.903   9.899   0.960 -0.0410  0.4589  0.1333
  168MOL0     N23098   2.833  10.008   0.952  1.0344 -0.2656  0.2269
  168MOL0     C23099   2.056  10.993   0.889 -0.2276 -0.3071 -0.1772
  168MOL0     C23100   1.971  11.096   0.925 -0.6113  0.1787 -0.0358
  168MOL0     C23101   1.796  11.527   0.949  0.0797  0.2297 -1.0636
  168MOL0     C23102   1.747  11.510   1.077 -0.2985 -0.0218  0.8836
  168MOL0     C23103   1.675  11.606   1.145  0.1530 -0.0518  0.3594
  168MOL0     C23104   1.648  11.730   1.092  0.1989 -1.0060 -0.0287
  168MOL0     O23105   1.575  11.823   1.155 -0.8634 -0.5612 -0.1791
  168MOL0     C23106   1.560  11.831   1.292 -0.7084  0.4954 -0.9646
  168MOL0     C23107   1.699  11.870   1.365  0.2679  0.7404 -0.7277
  168MOL0     C23108   1.694  11.856   1.518 -0.9644 -0.1758 -0.2371
  168MOL0     C23109   1.655  11.716   1.575 -0.6560 -0.0194  0.1682
  168MOL0     C23110   1.633  11.704   1.716  0.0432  0.0183 -0.7132
  168MOL0     C23111   1.619  11.685   1.835 -0.0589 -0.3706  0.3412
  168MOL0     C23112   1.703  11.756   0.959  1.0148  0.0806 -0.8108
  168MOL0     C23113   1.777  11.652   0.891  0.0419 -0.2811  0.6201
  168MOL0     C23114   1.823  11.695   0.749 -0.1380 -0.5777 -0.6157
  168MOL0     H23115   2.144  11.363   0.788 -0.3863 -0.0413  1.4491
  168MOL0     H23116   2.281  11.194   0.717 -1.4880 -2.0395 -0.0435
  168MOL0     H23117   2.207  10.757   0.831  1.1752  0.2056 -0.2102
  168MOL0     H23118   2.304  10.856   0.948 -0.2771 -0.2711  0.5587
  168MOL0     H23119   2.393  10.767   0.670 -2.6716  1.1605  1.4634
  168MOL0     H23120   2.498  10.824   0.807  0.2826 -1.4915  1.3493
  168MOL0     H23121   2.506  10.639   0.911 -0.5694 -0.1257  0.1113
  168MOL0     H23122   2.342  10.575   0.866  0.6961 -2.0927  0.9836
  168MOL0     H23123   2.459  10.529   0.638 -0.8089 -3.1604  1.6206
  168MOL0     H23124   2.601  10.609   0.692  0.7199 -1.4729 -3.6006
  168MOL0     H23125   2.467  10.346   0.778 -0.9162  0.3096 -0.4265
  168MOL0     H23126   2.598  10.411   0.867  1.8214 -2.5101 -0.6833
  168MOL0     H23127   2.622  10.336   0.567 -0.5416 -1.5402  0.3630
  168MOL0     H23128   2.733  10.432   0.644  0.4449 -1.3564 -1.4981
  168MOL0     H23129   2.758  10.165   0.625  0.1665 -1.8170  1.4761
  168MOL0     H23130   2.635  10.146   0.735  0.8281 -2.4482 -1.9151
  168MOL0     H23131   2.909  10.283   0.819  1.9625 -3.1559 -1.6178
  168MOL0     H23132   2.760  10.260   0.917 -3.8732 -1.0405 -0.9708
  168MOL0     H23133   2.994  10.031   0.677  1.4980  0.9368  0.3312
  168MOL0     H23134   3.064   9.746   0.723  1.1102 -0.3890  0.7526
  168MOL0     H23135   3.068   9.707   0.892 -0.8678 -0.7137 -0.3293
  168MOL0     H23136   3.295   9.755   0.798  1.0235  0.2528  0.3813
  168MOL0     H23137   3.246   9.914   0.741  1.6521  0.9148  1.1949
  168MOL0     H23138   3.370   9.943   0.942  0.3772  0.9402  2.6228
  168MOL0     H23139   3.208   9.982   0.983  1.1267  0.7894 -2.7659
  168MOL0     H23140   3.312   9.826   1.157 -1.2775 -2.7809  1.5754
  168MOL0     H23141   3.199   9.723   1.081  0.6690 -0.1237  0.5856
  168MOL0     H23142   3.528   9.877   1.131 -2.3477 -0.1353 -0.5359
  168MOL0     H23143   3.683   9.944   1.228 -0.4030 -4.0192  1.2068
  168MOL0     H23144   3.788  10.008   1.095 -1.6903 -0.1439 -1.0785
  168MOL0     H23145   3.854   9.905   1.230 -0.8253  2.2382  1.3569
  168MOL0     H23146   4.139   9.726   1.273 -2.0001  2.3685  0.0188
  168MOL0     H23147   4.373   9.729   1.314 -0.1654 -1.2997 -0.8877
  168MOL0     H23148   4.592   9.798   1.378 -3.2398  1.3766 -1.0830
  168MOL0     H23149   4.597   9.657   1.279 -3.4917  0.5770  1.8090
  168MOL0     H23150   4.783   9.760   1.143 -2.2215  2.2106 -1.4928
  168MOL0     H23151   4.776   9.900   1.242 -0.2333 -0.0936 -0.1410
  168MOL0     H23152   4.836   9.614   1.345 -1.7260 -0.0563  0.5929
  168MOL0     H23153   4.870   9.773   1.438 -0.3009  1.0046 -0.1074
  168MOL0     H23154   5.041   9.835   1.283  1.4197  0.2818 -0.6194
  168MOL0     H23155   5.019   9.686   1.183  0.5185 -1.2417  0.9295
  168MOL0     H23156   5.106   9.704   1.471 -1.9267  0.8340 -0.7652
  168MOL0     H23157   5.083   9.557   1.358 -0.5397 -0.0857 -2.1763
  168MOL0     H23158   5.311   9.741   1.395  1.7109 -1.8555  0.4662
  168MOL0     H23159   5.271   9.743   1.232  0.7695  0.3504  0.7704
  168MOL0     H23160   5.292   9.466   1.256 -0.4954  1.2592 -1.7600
  168MOL0     H23161   5.331   9.498   1.419 -1.3086  1.2826  0.8416
  168MOL0     H23162   5.535   9.463   1.302  1.4313  0.7636 -0.4933
  168MOL0     H23163   5.536   9.634   1.351  0.4579 -1.1360  0.7797
  168MOL0     H23164   4.457   9.930   0.955 -0.0141  1.6112  0.3904
  168MOL0     H23165   4.200   9.911   0.896  2.6256 -1.4051 -1.6443
  168MOL0     H23166   3.786   9.520   0.909 -0.3310 -2.3230  2.9682
  168MOL0     H23167   3.547   9.503   0.913 -0.3602 -1.7246  4.2040
  168MOL0     H23168   2.029  10.888   0.900  0.2667 -0.6407 -1.9422
  168MOL0     H23169   1.878  11.083   0.980 -2.6105  2.4444 -2.6043
  168MOL0     H23170   1.765  11.421   1.135 -3.2722  0.5221  2.8785
  168MOL0     H23171   1.650  11.564   1.242 -3.0076  1.8363  0.5383
  168MOL0     H23172   1.480  11.897   1.325 -0.6411 -0.0665  0.3898
  168MOL0     H23173   1.540  11.729   1.329  2.1829 -0.7050 -2.4129
  168MOL0     H23174   1.731  11.968   1.330  1.8406  0.6167  0.2829
  168MOL0     H23175   1.766  11.792   1.327  1.0044  0.6983  0.5848
  168MOL0     H23176   1.799  11.870   1.546  0.1120 -0.1544 -3.7838
  168MOL0     H23177   1.619  11.925   1.556 -2.6480 -1.6912 -0.6554
  168MOL0     H23178   1.733  11.642   1.553  0.8620  1.4670  0.2931
  168MOL0     H23179   1.561  11.684   1.530 -0.0570 -0.2109 -1.0011
  168MOL0     H23180   1.581  11.659   1.932  1.5863  0.3457  1.2161
  168MOL0     H23181   1.687  11.858   0.927 -0.8016 -0.0237 -0.3744
  168MOL0     H23182   1.932  11.688   0.745  0.0045  0.2095  0.8945
  168MOL0     H23183   1.783  11.626   0.674  1.4310 -0.1738 -1.8645
  168MOL0     H23184   1.793  11.796   0.720  0.0192 -1.1028 -2.7346
  169MOL0     O23185   0.946   7.252   8.436  0.4729  0.8129  0.7240
  169MOL0     C23186   0.839   7.290   8.479 -0.0215  0.1444  0.3288
  169MOL0     O23187   0.805   7.422   8.520  0.2073 -0.6088  0.6871
  169MOL0     C23188   0.892   7.518   8.481 -0.0512  0.3467 -0.0959
  169MOL0     C23189   0.922   7.549   8.344 -1.2827  0.3001 -0.1499
  169MOL0     C23190   1.035   7.630   8.314 -1.4433  0.7630  0.3850
  169MOL0     C23191   1.130   7.670   8.415 -0.2712 -0.4054  0.2363
  169MOL0     O23192   1.247   7.733   8.384  1.1613  0.3472 -0.5323
  169MOL0     C23193   1.338   7.782   8.482 -0.6942 -0.3884 -0.0690
  169MOL0     C23194   1.422   7.667   8.541 -0.1264 -0.5099 -0.3035
  169MOL0     C23195   1.545   7.719   8.629 -0.2092  0.6027  0.3183
  169MOL0     C23196   1.657   7.801   8.577  0.2901 -0.2588 -0.6982
  169MOL0     C23197   1.772   7.818   8.671  0.8346  0.7588  0.4752
  169MOL0     C23198   1.881   7.905   8.606 -0.0232 -0.1058 -0.5386
  169MOL0     C23199   1.985   7.941   8.723  0.6457 -1.0908 -0.2512
  169MOL0     C23200   2.093   8.031   8.662  0.8642 -0.5690 -0.4163
  169MOL0     N23201   2.169   8.092   8.771 -0.6004  0.0640 -0.0241
  169MOL0     C23202   2.288   8.057   8.822 -0.2812  0.3964  0.0575
  169MOL0     C23203   2.320   8.142   8.925 -0.0199  0.0701  0.6658
  169MOL0     C23204   2.438   8.137   9.016 -0.5510 -0.4039 -0.0882
  169MOL0     C23205   2.395   8.101   9.158 -0.0798  0.1961  0.0788
  169MOL0     C23206   2.517   8.119   9.251  0.5697 -0.4959  0.6490
  169MOL0     C23207   2.603   8.002   9.237  0.2563 -0.0703 -0.6645
  169MOL0     O23208   2.710   8.022   9.327 -0.2496 -0.4840 -0.4672
  169MOL0     C23209   2.813   7.938   9.325  0.9202  0.5538  0.0577
  169MOL0     C23210   2.876   7.915   9.448 -0.5054 -0.4492  0.7880
  169MOL0     C23211   2.988   7.835   9.462  0.2759  0.4820 -0.1414
  169MOL0     C23212   3.034   7.820   9.603  0.2050 -0.7164 -0.2733
  169MOL0     C23213   3.048   7.779   9.344  0.0099  0.2594 -0.2641
  169MOL0     C23214   3.176   7.703   9.341 -0.3045  0.7077  0.2164
  169MOL0     O23215   3.214   7.637   9.220 -0.6704 -0.0542  0.2627
  169MOL0     C23216   3.339   7.594   9.210  0.1574  0.0774 -0.5364
  169MOL0     C23217   3.376   7.469   9.251 -0.0208  0.1799  0.6629
  169MOL0     C23218   3.509   7.425   9.230  0.3732 -0.1893  0.0507
  169MOL0     C23219   3.612   7.507   9.191 -0.6753 -0.8522 -0.3109
  169MOL0     O23220   3.750   7.474   9.192  1.0053  0.0206 -0.2107
  169MOL0     C23221   3.841   7.570   9.244 -0.2314  0.5799 -0.3544
  169MOL0     C23222   3.974   7.520   9.186  0.4016 -0.0769 -0.7542
  169MOL0     C23223   4.089   7.610   9.256 -0.5297  0.5364 -0.3006
  169MOL0     C23224   4.121   7.560   9.402 -0.2156 -0.2325 -0.0652
  169MOL0     C23225   4.197   7.663   9.484  1.1497 -0.5609  0.7831
  169MOL0     C23226   4.266   7.609   9.605  0.3886  1.0643  0.5917
  169MOL0     C23227   4.355   7.711   9.679 -0.5257 -0.9946  0.1893
  169MOL0     C23228   4.268   7.824   9.745  0.3473  0.2125 -0.2216
  169MOL0    Cl23229   4.149   7.736   9.850 -0.1605  0.0779 -0.4672
  169MOL0     C23230   3.567   7.636   9.153 -0.2722  0.1631 -0.5363
  169MOL0     C23231   3.430   7.686   9.162  0.3677  0.2143 -0.2842
  169MOL0     O23232   3.247   7.708   9.445  0.5077 -0.0667 -0.2156
  169MOL0     C23233   2.991   7.807   9.219 -0.3051 -0.4836 -0.5430
  169MOL0     C23234   2.865   7.874   9.204 -0.7545 -0.3753 -0.6501
  169MOL0     N23235   2.219   8.231   8.930  0.1456  1.0087 -0.5111
  169MOL0     N23236   2.135   8.208   8.834 -1.2428  0.4320 -0.3323
  169MOL0     C23237   1.092   7.643   8.544 -0.1267 -0.4775 -0.0995
  169MOL0     C23238   0.980   7.573   8.575  0.5711 -0.4220 -0.4234
  169MOL0     C23239   0.730   7.188   8.493 -0.2728  0.4270  0.1978
  169MOL0     C23240   0.600   7.241   8.498 -0.7184 -0.1953  0.3347
  169MOL0     C23241   0.503   7.157   8.551 -0.7056 -0.1313  0.8224
  169MOL0     C23242   0.523   7.013   8.560 -0.4800 -1.5641  0.0341
  169MOL0     O23243   0.429   6.923   8.599 -0.4705  0.4817  0.0711
  169MOL0     C23244   0.295   6.973   8.633  0.5615  0.8174  1.0458
  169MOL0     C23245   0.281   7.047   8.766  0.4534  0.2347  0.6406
  169MOL0     C23246   0.322   6.946   8.872  0.6000 -0.1314 -0.4158
  169MOL0     C23247   0.292   6.988   9.014  0.5951  0.1274  0.1499
  169MOL0     C23248   0.259   6.882   9.108 -0.3494 -0.1809 -0.1193
  169MOL0     C23249   0.230   6.787   9.179 -0.2383 -0.2531 -0.5995
  169MOL0     C23250   0.652   6.971   8.539  0.9235  0.5677  0.0992
  169MOL0     C23251   0.759   7.050   8.517 -0.0530  0.0974 -0.4079
  169MOL0     C23252   0.895   6.983   8.511 -0.6308  1.2145 -0.4112
  169MOL0     H23253   0.855   7.515   8.266 -2.8908  2.4850  0.1950
  169MOL0     H23254   1.060   7.650   8.210 -0.0555  4.1847  1.2515
  169MOL0     H23255   1.291   7.844   8.559  1.1867 -1.6498  2.2128
  169MOL0     H23256   1.410   7.843   8.427  1.0309 -1.5142  0.8654
  169MOL0     H23257   1.361   7.601   8.602  0.8413 -1.1453  0.0024
  169MOL0     H23258   1.469   7.614   8.457 -0.5494  1.0751 -1.5953
  169MOL0     H23259   1.513   7.777   8.716  0.2200 -0.9510  1.5474
  169MOL0     H23260   1.590   7.637   8.685  0.5360 -0.6781 -2.0146
  169MOL0     H23261   1.697   7.749   8.489 -0.4623 -0.0391 -1.1837
  169MOL0     H23262   1.618   7.897   8.543 -1.2416 -0.3708  0.6513
  169MOL0     H23263   1.805   7.720   8.706 -2.4574 -0.6575 -0.0125
  169MOL0     H23264   1.725   7.874   8.753  0.0086  1.6891 -0.5974
  169MOL0     H23265   1.933   7.838   8.536  1.1439 -0.4274  0.5841
  169MOL0     H23266   1.832   7.986   8.552  1.1780  0.7560 -0.3805
  169MOL0     H23267   2.036   7.850   8.752  0.7804 -0.7609  0.5708
  169MOL0     H23268   1.942   7.976   8.817 -0.5903 -1.0168 -0.8190
  169MOL0     H23269   2.168   7.972   8.609  1.7962 -0.4323  0.6955
  169MOL0     H23270   2.050   8.108   8.597 -1.1133 -1.0258  0.2934
  169MOL0     H23271   2.335   7.961   8.807  0.0856 -0.1045  3.5577
  169MOL0     H23272   2.481   8.237   9.025 -2.0584  0.3925 -1.1580
  169MOL0     H23273   2.513   8.068   8.977 -0.5042  0.3682 -1.4470
  169MOL0     H23274   2.317   8.168   9.197 -0.6946 -1.3469  1.6284
  169MOL0     H23275   2.353   8.000   9.165  1.0232 -0.4487 -1.8780
  169MOL0     H23276   2.568   8.208   9.213 -0.8830 -0.3054 -0.9666
  169MOL0     H23277   2.491   8.130   9.357 -0.9622 -3.5342  0.6992
  169MOL0     H23278   2.549   7.910   9.264  1.6475 -1.0963 -1.2446
  169MOL0     H23279   2.636   8.001   9.133 -2.8558  1.3018 -1.7834
  169MOL0     H23280   2.841   7.971   9.534  1.6601  1.6474  0.4056
  169MOL0     H23281   2.955   7.826   9.678  1.9354  0.1819  1.5834
  169MOL0     H23282   3.114   7.893   9.622  1.9111 -1.9807 -2.1637
  169MOL0     H23283   3.073   7.718   9.607 -0.7031 -1.1086 -1.0745
  169MOL0     H23284   3.296   7.404   9.285 -1.4608 -0.4830 -3.3941
  169MOL0     H23285   3.535   7.323   9.254 -0.1085 -0.3689 -0.1812
  169MOL0     H23286   3.829   7.667   9.194  1.7212  1.2428  0.4014
  169MOL0     H23287   3.837   7.560   9.353 -1.3177 -0.7508 -0.4874
  169MOL0     H23288   3.991   7.412   9.197 -2.9281 -0.7198 -0.8937
  169MOL0     H23289   3.984   7.537   9.078  0.2602  1.4338 -0.5509
  169MOL0     H23290   4.063   7.715   9.268  0.7466  0.6680  1.6299
  169MOL0     H23291   4.186   7.607   9.206 -0.1663  0.1459  0.4190
  169MOL0     H23292   4.173   7.464   9.395  0.3493 -0.0421  1.2851
  169MOL0     H23293   4.032   7.529   9.459 -0.4012  0.5986  0.1072
  169MOL0     H23294   4.269   7.709   9.415 -0.2670  0.9627  0.2388
  169MOL0     H23295   4.116   7.730   9.513  1.1029 -0.9084  1.4675
  169MOL0     H23296   4.338   7.531   9.581  1.3626  1.1541  2.9143
  169MOL0     H23297   4.192   7.562   9.671  3.9064  0.7062  4.7054
  169MOL0     H23298   4.413   7.771   9.608 -3.0356  2.7261  0.9405
  169MOL0     H23299   4.413   7.664   9.758  2.2445 -1.9672 -2.2458
  169MOL0     H23300   4.217   7.879   9.665 -2.2620 -2.3704 -0.5115
  169MOL0     H23301   4.323   7.892   9.811 -0.1073 -1.0521  1.5330
  169MOL0     H23302   3.642   7.713   9.137 -2.6573  2.4405 -1.6658
  169MOL0     H23303   3.394   7.785   9.137  0.2694  0.2360 -0.0627
  169MOL0     H23304   3.029   7.764   9.126 -4.0947 -0.0957 -2.4727
  169MOL0     H23305   2.823   7.898   9.107 -0.2302  1.0803 -0.5464
  169MOL0     H23306   1.170   7.659   8.618  0.1210  2.9135 -0.9661
  169MOL0     H23307   0.975   7.545   8.680 -0.4457  5.4267  1.4292
  169MOL0     H23308   0.574   7.343   8.474  1.6191 -0.0343 -1.9162
  169MOL0     H23309   0.403   7.195   8.565 -1.2761 -1.7599  1.3212
  169MOL0     H23310   0.263   7.048   8.560 -0.7516  0.4668  1.2418
  169MOL0     H23311   0.219   6.894   8.635  0.5384  0.8498  2.0616
  169MOL0     H23312   0.178   7.083   8.773  1.2772  2.7573  0.7054
  169MOL0     H23313   0.340   7.139   8.763  0.6048  0.1340  0.4562
  169MOL0     H23314   0.271   6.850   8.859 -0.6842  0.5444 -0.5534
  169MOL0     H23315   0.429   6.924   8.864  0.4267 -0.6632 -1.3838
  169MOL0     H23316   0.201   7.049   9.004 -0.1744 -1.2577 -1.7766
  169MOL0     H23317   0.377   7.050   9.045  0.7716 -0.0195 -0.0393
  169MOL0     H23318   0.204   6.714   9.253  1.1066 -0.7525 -0.5968
  169MOL0     H23319   0.663   6.863   8.537  0.0091  0.4659  0.3188
  169MOL0     H23320   0.925   6.997   8.407 -0.1504 -0.0459 -0.4626
  169MOL0     H23321   0.973   7.027   8.573 -0.9017 -0.2408  1.0353
  169MOL0     H23322   0.890   6.877   8.539 -0.9596  2.0251  3.0508
  170MOL0     O23323  10.961   3.336   4.178  0.8000  0.5836  0.0970
  170MOL0     C23324  10.852   3.286   4.143 -0.0386  0.0483 -0.8661
  170MOL0     O23325  10.838   3.171   4.058  1.4384  0.0176  0.1396
  170MOL0     C23326  10.956   3.119   4.009 -0.6033 -0.3789 -0.8692
  170MOL0     C23327  11.030   3.191   3.912 -0.2434  1.0347  0.8889
  170MOL0     C23328  11.137   3.126   3.846  0.0300 -0.1921  0.1013
  170MOL0     C23329  11.183   2.999   3.882  0.0362  0.5504  0.1155
  170MOL0     O23330  11.289   2.930   3.828 -0.2123 -0.6273  0.7294
  170MOL0     C23331  11.350   3.002   3.722 -0.4389 -0.6428  0.3061
  170MOL0     C23332  11.466   2.926   3.651  0.9560 -0.7054 -0.7693
  170MOL0     C23333  11.423   2.793   3.580  0.2817  0.4650 -0.5797
  170MOL0     C23334  11.317   2.701   3.643  0.3534 -0.4667 -0.2608
  170MOL0     C23335  11.305   2.578   3.549 -0.0886  0.2577  0.1662
  170MOL0     C23336  11.176   2.505   3.562 -0.2289 -0.3027 -0.0652
  170MOL0     C23337  11.158   2.481   3.718  1.0980  0.1763  0.0154
  170MOL0     C23338  11.037   2.376   3.731 -0.6438 -0.1161  0.5826
  170MOL0     N23339  11.066   2.244   3.662  0.4485 -0.1192 -0.8419
  170MOL0     C23340  11.174   2.168   3.695 -0.3299 -0.3170  0.4412
  170MOL0     C23341  11.145   2.050   3.637 -0.7546 -0.0291  0.0565
  170MOL0     C23342  11.242   1.930   3.669  0.3094 -0.3393  0.1332
  170MOL0     C23343  11.389   1.935   3.628 -0.0186  0.4421 -1.7272
  170MOL0     C23344  11.456   1.812   3.692  0.4678 -0.2203 -0.7041
  170MOL0     C23345  11.434   1.691   3.608  0.4878 -0.0482  0.3593
  170MOL0     O23346  11.508   1.579   3.667 -0.6779  0.6137  0.4029
  170MOL0     C23347  11.519   1.457   3.606  0.0197 -0.6792  0.0285
  170MOL0     C23348  11.457   1.432   3.481 -0.6501 -0.6126  0.3050
  170MOL0     C23349  11.492   1.319   3.405  0.5751 -0.4945  0.0792
  170MOL0     C23350  11.444   1.319   3.258  0.1098  0.4686  0.1774
  170MOL0     C23351  11.563   1.210   3.465 -0.1751 -0.4506  0.3131
  170MOL0     C23352  11.591   1.081   3.407  0.1152 -0.9813  0.1769
  170MOL0     O23353  11.510   1.046   3.316  0.3208 -0.4245 -0.1135
  170MOL0     C23354  11.508   0.925   3.255  0.3456  0.3055  0.4270
  170MOL0     C23355  11.505   0.796   3.310 -0.1106  0.2322  0.1488
  170MOL0     C23356  11.485   0.669   3.234  0.0228 -0.2184  0.4665
  170MOL0     C23357  11.461   0.684   3.095  0.2934 -0.2803  0.1349
  170MOL0     O23358  11.447   0.568   3.025  0.1317 -0.4247 -0.5456
  170MOL0     C23359  11.373   0.573   2.905 -0.6349  1.0846  0.5835
  170MOL0     C23360  11.335   0.435   2.852 -0.0062 -0.4318 -0.3520
  170MOL0     C23361  11.298   0.443   2.707 -0.0184 -0.3252 -0.3470
  170MOL0     C23362  11.202   0.329   2.671  0.2939  0.1139  0.1793
  170MOL0     C23363  11.225   0.295   2.524 -0.8658 -0.0573 -0.0166
  170MOL0     C23364  11.130   0.178   2.496 -0.0117 -0.5736  0.6739
  170MOL0     C23365  11.102   0.176   2.343  0.3225  0.3925 -0.4018
  170MOL0     C23366  11.007   0.059   2.323  0.0383  0.3174 -0.1374
  170MOL0    Cl23367  10.962   0.082   2.147  0.0635  0.0210 -0.0136
  170MOL0     C23368  11.438   0.811   3.049  0.6521  0.2244  0.0419
  170MOL0     C23369  11.462   0.927   3.120 -0.7912  0.3661  0.9932
  170MOL0     O23370  11.687   1.008   3.444  0.1617 -0.3418 -0.3371
  170MOL0     C23371  11.610   1.237   3.594 -0.2012 -0.1992  0.0578
  170MOL0     C23372  11.595   1.358   3.660  0.0941  0.1549  0.2202
  170MOL0     N23373  11.049   2.066   3.540  0.2260  0.0099 -0.4073
  170MOL0     N23374  10.997   2.185   3.559 -0.3770  0.6893  0.8099
  170MOL0     C23375  11.111   2.928   3.977  0.5577  1.2828  0.0419
  170MOL0     C23376  10.992   2.988   4.033  0.3510 -0.3802  0.2395
  170MOL0     C23377  10.738   3.373   4.153  0.4062  0.2660  0.0232
  170MOL0     C23378  10.634   3.367   4.061  0.2903  0.4259 -0.1067
  170MOL0     C23379  10.518   3.438   4.079  1.0260 -0.3138  0.6333
  170MOL0     C23380  10.495   3.519   4.194  0.2336  0.4169  0.1752
  170MOL0     O23381  10.375   3.584   4.223 -0.6915 -0.3041  1.1348
  170MOL0     C23382  10.267   3.577   4.128  0.1936 -0.1024 -0.1370
  170MOL0     C23383  10.135   3.626   4.180 -0.7971 -0.0453 -1.0225
  170MOL0     C23384  10.038   3.581   4.073  0.2106  0.7590  0.4245
  170MOL0     C23385   9.899   3.658   4.086 -0.0806 -0.6589 -0.1587
  170MOL0     C23386   9.828   3.608   4.197 -0.2389  1.0809  0.4218
  170MOL0     C23387   9.787   3.546   4.295 -0.0066 -0.6223  0.2090
  170MOL0     C23388  10.595   3.513   4.287  0.8974  0.2460 -0.1347
  170MOL0     C23389  10.721   3.447   4.270 -0.0228 -0.1531  0.8565
  170MOL0     C23390  10.825   3.460   4.379 -0.0970 -0.2139 -0.6004
  170MOL0     H23391  10.999   3.288   3.876 -0.5170  0.9795  0.9691
  170MOL0     H23392  11.186   3.188   3.772 -1.1695 -2.5168 -2.8326
  170MOL0     H23393  11.394   3.089   3.771  1.7790 -0.5835 -1.6234
  170MOL0     H23394  11.281   3.037   3.644  1.6767  0.6550 -1.0623
  170MOL0     H23395  11.507   2.997   3.578 -2.1085  0.4709 -1.4853
  170MOL0     H23396  11.543   2.890   3.720 -0.9128 -4.0802 -0.2276
  170MOL0     H23397  11.392   2.818   3.478  0.1992  1.1412 -0.3943
  170MOL0     H23398  11.509   2.726   3.565  0.0775  0.2193 -0.6659
  170MOL0     H23399  11.364   2.682   3.740  2.9485 -0.9730 -1.5399
  170MOL0     H23400  11.229   2.767   3.642  2.5204  3.0872 -5.9199
  170MOL0     H23401  11.389   2.513   3.576 -2.5296 -3.5320 -0.5131
  170MOL0     H23402  11.321   2.614   3.448  1.3004  1.8995  0.9201
  170MOL0     H23403  11.094   2.559   3.514  0.3761 -0.2248 -1.0415
  170MOL0     H23404  11.172   2.410   3.507  1.4532 -0.0733 -0.6412
  170MOL0     H23405  11.127   2.573   3.769  1.7374  1.1995 -1.3627
  170MOL0     H23406  11.248   2.443   3.765 -0.7224 -0.7630  3.0415
  170MOL0     H23407  11.032   2.364   3.840  1.7190  0.5290  0.8217
  170MOL0     H23408  10.936   2.412   3.709 -1.3341  0.0112  3.5266
  170MOL0     H23409  11.261   2.202   3.751  0.9737 -0.0142 -1.6461
  170MOL0     H23410  11.198   1.838   3.629 -0.5566  0.5035 -0.9246
  170MOL0     H23411  11.242   1.934   3.778  1.8789 -1.4497  0.2015
  170MOL0     H23412  11.401   1.932   3.520  2.0903  0.2967 -1.5351
  170MOL0     H23413  11.436   2.024   3.672 -1.1408 -0.1413  0.8712
  170MOL0     H23414  11.564   1.818   3.709  0.1901 -0.8252  1.4776
  170MOL0     H23415  11.410   1.788   3.788 -0.1262 -0.7463 -1.1124
  170MOL0     H23416  11.329   1.661   3.598  0.5976 -0.7746  1.1616
  170MOL0     H23417  11.480   1.715   3.512  1.1766 -0.9061  0.4570
  170MOL0     H23418  11.405   1.514   3.432 -0.2553 -0.7530 -0.3526
  170MOL0     H23419  11.532   1.348   3.200 -1.1691  0.1249 -2.0540
  170MOL0     H23420  11.365   1.392   3.243 -1.5140 -1.1526  0.5348
  170MOL0     H23421  11.420   1.221   3.216  3.1189 -0.7642  1.0077
  170MOL0     H23422  11.507   0.794   3.418  0.4398  1.2971  0.1797
  170MOL0     H23423  11.470   0.578   3.290 -2.4033  1.4211  2.7339
  170MOL0     H23424  11.275   0.622   2.909 -1.3139 -0.0422 -0.9028
  170MOL0     H23425  11.423   0.622   2.821 -2.2104 -0.0800 -1.1307
  170MOL0     H23426  11.425   0.374   2.857  2.4570  2.5105 -3.8569
  170MOL0     H23427  11.248   0.396   2.907  0.5548 -2.8157 -1.0658
  170MOL0     H23428  11.389   0.427   2.649 -1.8583 -3.3849 -2.7309
  170MOL0     H23429  11.259   0.540   2.676 -0.5106 -1.0335 -2.0868
  170MOL0     H23430  11.099   0.358   2.695  0.3106  0.3084  0.0155
  170MOL0     H23431  11.234   0.240   2.725  0.2169 -0.9905 -1.5258
  170MOL0     H23432  11.201   0.386   2.468 -5.5613 -0.9520  0.1507
  170MOL0     H23433  11.331   0.268   2.516 -0.8820  0.1445 -1.0805
  170MOL0     H23434  11.032   0.203   2.539 -1.0823  1.2542 -2.4782
  170MOL0     H23435  11.163   0.082   2.536  0.9954 -1.2742 -1.7015
  170MOL0     H23436  11.194   0.164   2.284  0.6986 -0.7573  0.3764
  170MOL0     H23437  11.056   0.270   2.312 -2.6152 -1.4332 -1.9932
  170MOL0     H23438  10.921   0.064   2.391  0.2278 -0.4577  0.1733
  170MOL0     H23439  11.051  -0.039   2.342 -0.4584  0.0794 -0.2095
  170MOL0     H23440  11.406   0.825   2.946 -2.2734  2.7589  1.1375
  170MOL0     H23441  11.463   1.024   3.071  1.0309 -0.0802  0.0237
  170MOL0     H23442  11.670   1.161   3.644  1.4554  1.2700  0.4347
  170MOL0     H23443  11.624   1.367   3.764  0.0169  0.9393  0.1772
  170MOL0     H23444  11.141   2.828   4.005 -1.1825  0.2257 -1.6290
  170MOL0     H23445  10.921   2.931   4.091 -1.4633 -1.0937 -2.4875
  170MOL0     H23446  10.644   3.297   3.978  0.3775  2.0743 -1.5497
  170MOL0     H23447  10.446   3.418   4.001 -0.0053 -0.4002  1.5798
  170MOL0     H23448  10.293   3.645   4.047 -1.0894  2.2228  1.2819
  170MOL0     H23449  10.247   3.473   4.100  0.8341 -0.5538  1.0114
  170MOL0     H23450  10.138   3.734   4.199  0.1881  0.2786 -2.7708
  170MOL0     H23451  10.113   3.578   4.275 -0.5440  4.5459  1.6626
  170MOL0     H23452  10.085   3.608   3.978  1.0899 -0.5954  0.4533
  170MOL0     H23453  10.011   3.476   4.083 -0.1615  0.9923  2.3057
  170MOL0     H23454   9.844   3.650   3.992  2.5786  1.9233 -2.1680
  170MOL0     H23455   9.911   3.766   4.098  0.5007 -0.8319  0.9832
  170MOL0     H23456   9.754   3.487   4.378  1.3275  0.4174  1.5384
  170MOL0     H23457  10.583   3.562   4.383 -3.5392 -1.0539  0.1965
  170MOL0     H23458  10.790   3.499   4.475 -0.7462 -1.5139 -0.2877
  170MOL0     H23459  10.864   3.358   4.390 -0.1359 -0.4844 -2.5653
  170MOL0     H23460  10.909   3.525   4.354 -1.3752  0.6328 -3.0284
  171MOL0     O23461   8.631   0.885   0.981  0.0195 -0.7114  0.7793
  171MOL0     C23462   8.518   0.902   1.037 -0.1708 -0.1969  0.2114
  171MOL0     O23463   8.502   0.889   1.168  0.7679  0.2219  0.2932
  171MOL0     C23464   8.616   0.866   1.238  0.3510  0.6374 -0.7884
  171MOL0     C23465   8.659   0.726   1.243 -0.1663 -0.4812 -0.1144
  171MOL0     C23466   8.776   0.687   1.309 -0.4113 -0.1280 -0.5702
  171MOL0     C23467   8.832   0.781   1.387 -0.7412 -1.0452 -0.0266
  171MOL0     O23468   8.956   0.763   1.451  0.1043  0.2759  0.2471
  171MOL0     C23469   8.980   0.623   1.495  0.8715  0.1597  0.6129
  171MOL0     C23470   9.140   0.624   1.538  0.3373  0.0849 -0.4370
  171MOL0     C23471   9.241   0.665   1.431  0.1310  0.1534 -0.3778
  171MOL0     C23472   9.379   0.673   1.494  0.7052  1.0682  0.4019
  171MOL0     C23473   9.479   0.737   1.386 -0.0558 -0.0368 -0.4084
  171MOL0     C23474   9.548   0.850   1.453  0.3089 -1.2045  0.2272
  171MOL0     C23475   9.659   0.917   1.378  0.9593  0.1463  0.6610
  171MOL0     C23476   9.793   0.859   1.380  0.2269 -0.2155  0.4670
  171MOL0     N23477   9.865   0.918   1.499 -0.1919 -0.0610  0.2014
  171MOL0     C23478   9.939   1.030   1.493 -0.5501 -0.0968  0.0756
  171MOL0     C23479   9.966   1.055   1.621 -0.5228  0.3104 -0.5531
  171MOL0     C23480  10.055   1.161   1.673 -0.0960  0.5201 -0.2690
  171MOL0     C23481  10.183   1.095   1.739  1.1924 -0.0305 -0.3526
  171MOL0     C23482  10.266   1.018   1.640 -0.0643 -0.1904 -0.0927
  171MOL0     C23483  10.299   1.091   1.502 -0.2656  1.1034 -0.8612
  171MOL0     O23484  10.323   1.232   1.517  0.1678 -0.3832 -0.0413
  171MOL0     C23485  10.427   1.275   1.597 -0.2572  0.2201  0.1478
  171MOL0     C23486  10.554   1.246   1.541 -0.5308 -0.3530 -1.2727
  171MOL0     C23487  10.679   1.284   1.600  1.1202 -0.5843 -0.1113
  171MOL0     C23488  10.800   1.236   1.538 -0.8777 -0.3248 -0.5728
  171MOL0     C23489  10.669   1.356   1.718  0.1930 -0.4497 -0.0303
  171MOL0     C23490  10.784   1.385   1.816  0.6092 -1.1367 -0.1196
  171MOL0     O23491  10.907   1.401   1.759  0.0492 -0.2533 -0.3148
  171MOL0     C23492  11.014   1.370   1.832 -0.6069 -0.1000  0.1274
  171MOL0     C23493  11.056   1.250   1.865  0.0058  1.0719 -0.5990
  171MOL0     C23494  11.166   1.219   1.952  0.0444  0.8539 -0.2125
  171MOL0     C23495  11.242   1.334   1.994  0.6601 -0.1848  0.1131
  171MOL0     O23496  11.356   1.326   2.062 -0.4828  0.7884  0.0654
  171MOL0     C23497  11.407   1.198   2.098  0.0216 -0.1299  1.1798
  171MOL0     C23498  11.542   1.214   2.173  0.3105 -0.2984 -0.9676
  171MOL0     C23499  11.643   1.284   2.081  0.9684 -0.4271  0.4409
  171MOL0     C23500  11.785   1.297   2.144  0.0798 -0.3603  0.0659
  171MOL0     C23501  11.884   1.339   2.041 -0.1914 -0.8373  0.5971
  171MOL0     C23502  12.022   1.377   2.094  0.0370 -0.7974 -0.5259
  171MOL0     C23503  12.109   1.438   1.984 -0.4511 -0.1373 -0.9114
  171MOL0     C23504  12.249   1.381   2.001 -0.1486  0.3624 -0.1740
  171MOL0    Cl23505  12.349   1.478   1.882 -0.2074 -0.2275  0.3790
  171MOL0     C23506  11.204   1.464   1.954 -0.6653 -0.0171  0.2883
  171MOL0     C23507  11.091   1.479   1.875 -0.3973 -0.2021  0.5484
  171MOL0     O23508  10.752   1.401   1.931 -0.3811 -0.2032  0.0470
  171MOL0     C23509  10.541   1.393   1.769  0.5626  0.5381  0.8666
  171MOL0     C23510  10.421   1.352   1.712 -0.2878 -0.5592  0.3507
  171MOL0     N23511   9.913   0.960   1.709 -0.0531  0.7319 -0.0307
  171MOL0     N23512   9.847   0.878   1.634 -0.4410  0.0193 -0.6674
  171MOL0     C23513   8.784   0.911   1.390  0.5848 -0.7662 -0.0338
  171MOL0     C23514   8.687   0.959   1.304  0.7222 -0.3334 -0.3456
  171MOL0     C23515   8.398   0.945   0.960 -0.1792 -0.4524 -1.0362
  171MOL0     C23516   8.277   0.969   1.029 -0.3815  0.1283 -0.3013
  171MOL0     C23517   8.158   1.014   0.972 -0.0567 -1.4027  0.0720
  171MOL0     C23518   8.156   1.046   0.837 -0.5232  0.0854 -0.3066
  171MOL0     O23519   8.041   1.092   0.798  0.0654  0.1574 -0.1585
  171MOL0     C23520   8.025   1.089   0.662 -0.3177 -0.6907 -0.5841
  171MOL0     C23521   7.992   0.954   0.591  0.8995 -0.2153 -0.0993
  171MOL0     C23522   7.889   0.882   0.674 -0.2834 -0.4296  0.4085
  171MOL0     C23523   7.759   0.958   0.692 -1.0221 -0.5164 -0.0629
  171MOL0     C23524   7.677   0.973   0.564  0.3980 -0.2565 -0.7270
  171MOL0     C23525   7.615   1.004   0.464 -0.4404  0.6391 -0.0427
  171MOL0     C23526   8.273   1.015   0.766 -0.5921  0.0068  0.4456
  171MOL0     C23527   8.394   0.978   0.820  0.4026 -0.3206  0.1352
  171MOL0     C23528   8.509   0.940   0.729  0.5252 -0.6265  0.1859
  171MOL0     H23529   8.597   0.653   1.193  1.5512  0.2011 -3.5432
  171MOL0     H23530   8.796   0.582   1.295 -1.4014 -0.1233 -2.3152
  171MOL0     H23531   8.966   0.553   1.412  0.4155 -0.1511  0.9425
  171MOL0     H23532   8.906   0.591   1.570  0.5202 -0.3047  0.0717
  171MOL0     H23533   9.151   0.682   1.630  2.2655  1.8145 -1.6735
  171MOL0     H23534   9.163   0.520   1.560  0.1012 -0.4948 -2.6718
  171MOL0     H23535   9.242   0.601   1.342 -0.0909  2.4014 -2.0754
  171MOL0     H23536   9.210   0.765   1.399 -0.1338  0.1706 -0.0656
  171MOL0     H23537   9.367   0.747   1.572 -1.4410 -0.1573  1.3241
  171MOL0     H23538   9.413   0.574   1.528 -0.9008  0.5087  0.4684
  171MOL0     H23539   9.432   0.760   1.289 -2.4788 -1.9669  0.1782
  171MOL0     H23540   9.546   0.656   1.353  1.2629 -0.4907  3.0144
  171MOL0     H23541   9.477   0.929   1.479 -1.0904 -2.7718  1.4418
  171MOL0     H23542   9.591   0.817   1.548  2.0893 -3.6341 -1.3194
  171MOL0     H23543   9.660   1.022   1.409  0.2476  0.5018 -0.4881
  171MOL0     H23544   9.634   0.916   1.272  1.2430  0.6922  0.5831
  171MOL0     H23545   9.802   0.752   1.400  4.4688 -0.1528 -0.2306
  171MOL0     H23546   9.854   0.883   1.292  0.7763 -0.2031  0.8430
  171MOL0     H23547   9.978   1.080   1.405 -1.8951  3.2762  1.2376
  171MOL0     H23548  10.002   1.214   1.752 -1.5728 -0.3799 -0.6217
  171MOL0     H23549  10.072   1.235   1.595  2.2062  0.1769 -0.1689
  171MOL0     H23550  10.237   1.173   1.794  0.8535 -0.5662  0.7873
  171MOL0     H23551  10.154   1.026   1.819 -0.2322  1.1040  0.1490
  171MOL0     H23552  10.359   0.988   1.689  0.6402 -1.0965 -1.8747
  171MOL0     H23553  10.206   0.933   1.605 -0.6825  0.0865  0.2745
  171MOL0     H23554  10.374   1.030   1.451 -0.3164  0.8534 -0.6466
  171MOL0     H23555  10.216   1.069   1.434 -0.5806 -2.7078  0.4789
  171MOL0     H23556  10.550   1.188   1.449 -1.1873 -1.8463 -0.3444
  171MOL0     H23557  10.849   1.167   1.608  1.1224  0.4454 -1.1394
  171MOL0     H23558  10.874   1.315   1.522 -0.1569 -0.7137  0.6127
  171MOL0     H23559  10.776   1.185   1.444 -5.5455 -0.0417  0.2371
  171MOL0     H23560  10.986   1.175   1.831 -2.5237  1.7079  2.6955
  171MOL0     H23561  11.183   1.114   1.969  0.5670  1.0102  0.2462
  171MOL0     H23562  11.333   1.142   2.156  2.2582 -2.3877  2.0274
  171MOL0     H23563  11.423   1.146   2.003 -4.7890  0.8785 -0.4672
  171MOL0     H23564  11.521   1.275   2.261  2.7303 -0.2168 -0.3676
  171MOL0     H23565  11.582   1.116   2.201  0.3198 -0.5140 -1.7088
  171MOL0     H23566  11.616   1.390   2.072  0.2015 -0.6417  0.1400
  171MOL0     H23567  11.640   1.233   1.985 -0.9016 -2.1415  1.3395
  171MOL0     H23568  11.818   1.197   2.177  4.4289 -0.1003 -2.6809
  171MOL0     H23569  11.782   1.361   2.232  2.9143 -2.6691  2.0371
  171MOL0     H23570  11.889   1.262   1.964  1.8962 -0.0554 -0.1293
  171MOL0     H23571  11.846   1.430   1.995 -2.0561 -2.2541 -0.8372
  171MOL0     H23572  12.075   1.296   2.146 -0.4527 -0.6975  0.1498
  171MOL0     H23573  11.991   1.446   2.174 -0.6659 -2.1899  0.4514
  171MOL0     H23574  12.109   1.547   1.985 -3.0341 -0.0081  2.3632
  171MOL0     H23575  12.076   1.410   1.883 -0.2309 -1.6385 -0.5980
  171MOL0     H23576  12.254   1.272   1.989 -3.0022 -0.1314  2.1431
  171MOL0     H23577  12.274   1.390   2.107 -2.5703 -0.5439  0.5415
  171MOL0     H23578  11.256   1.556   1.978 -1.6153  1.1673 -1.8735
  171MOL0     H23579  11.049   1.577   1.854  0.0929  0.2642  1.6728
  171MOL0     H23580  10.538   1.465   1.851  0.2563  1.7288 -0.1643
  171MOL0     H23581  10.329   1.384   1.759  1.0198  2.7808  0.9323
  171MOL0     H23582   8.839   0.976   1.456  0.0588 -0.2624 -0.0829
  171MOL0     H23583   8.657   1.064   1.306 -0.4590 -0.6598 -0.3862
  171MOL0     H23584   8.266   0.957   1.136 -1.4455  2.2533 -0.1072
  171MOL0     H23585   8.077   1.042   1.039  1.0215  3.9029 -0.3942
  171MOL0     H23586   7.951   1.167   0.643  1.1152  0.8665  0.0170
  171MOL0     H23587   8.112   1.138   0.618  0.1023 -0.1845  0.7539
  171MOL0     H23588   8.084   0.895   0.586  0.1329 -1.5551  1.0319
  171MOL0     H23589   7.962   0.960   0.486  0.3550 -0.7970  0.0176
  171MOL0     H23590   7.863   0.782   0.639  0.0586 -0.7740  1.1282
  171MOL0     H23591   7.931   0.864   0.774  3.2585 -4.1160 -1.4988
  171MOL0     H23592   7.771   1.054   0.744 -3.3011 -1.0271  1.5674
  171MOL0     H23593   7.696   0.902   0.762  0.1799 -0.2307  1.2839
  171MOL0     H23594   7.566   1.031   0.373 -0.0415 -0.6664 -0.6727
  171MOL0     H23595   8.283   1.015   0.658  1.6697 -0.3113  0.6075
  171MOL0     H23596   8.481   0.951   0.623  0.5458  1.8511  0.3693
  171MOL0     H23597   8.597   1.003   0.742 -0.8392  1.1791  1.2087
  171MOL0     H23598   8.526   0.834   0.744 -1.6140 -1.0822 -0.1899
  172MOL0     O23599   9.771   8.981   1.063  0.1992  0.6169  0.3600
  172MOL0     C23600   9.710   8.984   1.168  0.7082  0.4651  0.2995
  172MOL0     O23601   9.661   9.101   1.214 -1.1570 -0.3284  0.6929
  172MOL0     C23602   9.667   9.204   1.126  0.5884  0.3687  0.5425
  172MOL0     C23603   9.541   9.237   1.054 -0.8021  0.8237 -0.7263
  172MOL0     C23604   9.539   9.330   0.947 -0.8641  0.3588  0.1856
  172MOL0     C23605   9.662   9.380   0.916  0.0122 -0.0860 -0.3413
  172MOL0     O23606   9.672   9.456   0.801 -0.1704  0.3840  0.1056
  172MOL0     C23607   9.656   9.370   0.687 -0.0689 -0.1071 -0.1702
  172MOL0     C23608   9.773   9.262   0.664  0.8509 -0.2080 -0.0216
  172MOL0     C23609   9.913   9.325   0.621 -0.7248  0.8599  0.0318
  172MOL0     C23610  10.029   9.240   0.686 -0.1717  0.3599  0.1756
  172MOL0     C23611  10.175   9.292   0.647 -0.9059 -0.6697 -0.2222
  172MOL0     C23612  10.186   9.436   0.690  0.3300 -0.1510 -0.4543
  172MOL0     C23613  10.334   9.483   0.676 -0.0699  0.5123 -0.0203
  172MOL0     C23614  10.375   9.516   0.537 -0.0765  0.4559  0.2378
  172MOL0     N23615  10.517   9.566   0.524 -0.1968  0.0849  0.0786
  172MOL0     C23616  10.609   9.500   0.446  0.3471  0.7897  0.6413
  172MOL0     C23617  10.730   9.570   0.455  0.6366  0.4874 -0.2324
  172MOL0     C23618  10.857   9.539   0.380  0.7548 -0.4570 -0.0795
  172MOL0     C23619  10.980   9.570   0.472 -0.8293 -0.0014 -1.0619
  172MOL0     C23620  11.107   9.613   0.391 -0.9698 -0.0401 -0.0135
  172MOL0     C23621  11.219   9.642   0.487  0.1273 -0.6190 -0.0881
  172MOL0     O23622  11.340   9.666   0.427  0.1586 -0.2256 -0.0416
  172MOL0     C23623  11.450   9.683   0.505 -0.5718 -0.6129 -0.3684
  172MOL0     C23624  11.453   9.684   0.643 -0.1617 -0.3109 -0.1143
  172MOL0     C23625  11.570   9.713   0.713 -0.4544  0.3165 -1.1385
  172MOL0     C23626  11.555   9.725   0.860  0.2051  0.2589  0.1187
  172MOL0     C23627  11.699   9.712   0.645 -0.0496 -0.2612 -0.2956
  172MOL0     C23628  11.840   9.710   0.716  0.6655  0.5946 -0.0951
  172MOL0     O23629  11.845   9.727   0.852 -0.0236 -0.2285  0.3257
  172MOL0     C23630  11.942   9.793   0.926  0.6427  0.4132 -1.2027
  172MOL0     C23631  12.041   9.876   0.876  0.0596 -0.7265  0.0286
  172MOL0     C23632  12.139   9.929   0.964 -0.0993  0.0799  0.4814
  172MOL0     C23633  12.141   9.904   1.105  0.3026  0.2837 -0.7765
  172MOL0     O23634  12.222   9.973   1.200  0.1195  0.3188  0.1584
  172MOL0     C23635  12.347  10.021   1.131  0.1131 -0.3859 -0.1680
  172MOL0     C23636  12.456  10.040   1.240 -0.6760 -0.5544 -0.1542
  172MOL0     C23637  12.570  10.143   1.211  0.4565 -0.7969 -0.1387
  172MOL0     C23638  12.611  10.181   1.065 -0.6169  0.6405 -0.6181
  172MOL0     C23639  12.689  10.310   1.044 -0.0483  0.5063  0.8322
  172MOL0     C23640  12.764  10.313   0.905  0.6131 -1.0647  0.4265
  172MOL0     C23641  12.669  10.298   0.786  0.9325  0.4933  0.2783
  172MOL0     C23642  12.701  10.190   0.691 -0.2586  0.8423 -0.0248
  172MOL0    Cl23643  12.699  10.023   0.768 -0.2805  0.0961  0.3245
  172MOL0     C23644  12.035   9.829   1.150 -0.2935 -0.3333  0.6134
  172MOL0     C23645  11.938   9.768   1.069  0.0376 -0.1442 -0.9586
  172MOL0     O23646  11.938   9.711   0.647 -0.0410  0.3201 -0.7569
  172MOL0     C23647  11.694   9.696   0.505 -0.1459 -0.7152 -0.2114
  172MOL0     C23648  11.579   9.697   0.438  0.9182 -1.4578  0.1426
  172MOL0     N23649  10.707   9.681   0.541 -0.5799 -0.0347 -0.1625
  172MOL0     N23650  10.580   9.671   0.582  0.7967  0.9463 -0.4999
  172MOL0     C23651   9.784   9.358   0.986  0.3423  0.5824 -1.1320
  172MOL0     C23652   9.785   9.273   1.094  0.0163  0.6721  0.9133
  172MOL0     C23653   9.677   8.863   1.248 -0.2096  0.2818  0.0443
  172MOL0     C23654   9.752   8.753   1.211 -0.8572  1.0079  0.3805
  172MOL0     C23655   9.736   8.630   1.279  0.2636  0.3605  0.0749
  172MOL0     C23656   9.638   8.612   1.382 -0.7116  0.9719  0.8075
  172MOL0     O23657   9.626   8.483   1.431 -0.5975 -0.2058  0.5823
  172MOL0     C23658   9.506   8.454   1.513  0.0453 -0.2140  0.0298
  172MOL0     C23659   9.485   8.314   1.529 -0.5414 -0.1731 -1.3828
  172MOL0     C23660   9.476   8.237   1.396 -0.6243 -0.4625  0.1638
  172MOL0     C23661   9.481   8.089   1.414 -0.3625 -0.0507  0.1871
  172MOL0     C23662   9.521   8.020   1.293  0.9380  0.4231 -0.0850
  172MOL0     C23663   9.552   7.961   1.191  0.9468 -0.2957  0.2893
  172MOL0     C23664   9.565   8.725   1.422 -0.0136  0.0538  0.5578
  172MOL0     C23665   9.577   8.845   1.349 -0.6794  0.3258  0.3656
  172MOL0     C23666   9.477   8.951   1.383 -0.4899 -0.4315  0.7876
  172MOL0     H23667   9.449   9.186   1.080 -0.7411 -0.7421 -3.2561
  172MOL0     H23668   9.440   9.348   0.906 -1.2848 -0.5442  0.7653
  172MOL0     H23669   9.644   9.429   0.596  0.3383  1.5932  0.8285
  172MOL0     H23670   9.558   9.323   0.687 -1.1892  2.0833  0.5875
  172MOL0     H23671   9.784   9.204   0.756 -2.0794  0.8844  1.1407
  172MOL0     H23672   9.737   9.208   0.576 -2.1670 -0.7706  1.4420
  172MOL0     H23673   9.920   9.319   0.512 -1.2811 -0.7756  0.0516
  172MOL0     H23674   9.915   9.430   0.648  2.0804  0.7243  0.6789
  172MOL0     H23675  10.011   9.215   0.790 -3.5708  0.4858 -0.2777
  172MOL0     H23676  10.020   9.140   0.642 -0.8184 -0.6980  2.5557
  172MOL0     H23677  10.182   9.280   0.538  2.3674 -0.9709 -0.0665
  172MOL0     H23678  10.258   9.240   0.695 -0.2680  0.7064  0.2015
  172MOL0     H23679  10.119   9.499   0.630 -2.7873 -0.4959  2.3663
  172MOL0     H23680  10.154   9.441   0.794  1.2288 -1.1169 -0.1152
  172MOL0     H23681  10.408   9.409   0.709  0.9798  0.8090 -1.5658
  172MOL0     H23682  10.356   9.571   0.737 -1.2143  1.5216 -1.0305
  172MOL0     H23683  10.373   9.426   0.476  2.3505  0.9845 -0.7543
  172MOL0     H23684  10.297   9.582   0.498 -1.3673 -0.3765  1.3547
  172MOL0     H23685  10.587   9.414   0.384  2.7353  1.5016 -1.3745
  172MOL0     H23686  10.871   9.601   0.291 -1.3292 -0.1654 -0.2693
  172MOL0     H23687  10.856   9.439   0.337 -0.0024  0.2941 -1.9051
  172MOL0     H23688  10.948   9.654   0.535 -1.0595  0.3407 -1.6244
  172MOL0     H23689  11.011   9.483   0.530 -1.9431  0.9024  0.9638
  172MOL0     H23690  11.133   9.534   0.321 -0.5667 -0.8482  1.0166
  172MOL0     H23691  11.081   9.699   0.328  0.0529  1.0140  0.9450
  172MOL0     H23692  11.187   9.724   0.552  1.0208  0.7921 -1.3735
  172MOL0     H23693  11.239   9.560   0.556  3.9025  2.3710  2.8354
  172MOL0     H23694  11.355   9.676   0.688  0.9946  0.7789  2.8828
  172MOL0     H23695  11.599   9.804   0.921 -1.3758 -0.0678  1.7912
  172MOL0     H23696  11.560   9.625   0.904 -0.4979 -0.6259 -1.7074
  172MOL0     H23697  11.450   9.751   0.880  0.6378  0.2255  2.7853
  172MOL0     H23698  12.041   9.908   0.772  1.8729  0.2310  0.2875
  172MOL0     H23699  12.201  10.005   0.917 -0.4494  0.3228  0.4114
  172MOL0     H23700  12.388   9.964   1.048  0.1172 -0.8167  0.1249
  172MOL0     H23701  12.306  10.119   1.107 -1.5275 -0.5291  1.7853
  172MOL0     H23702  12.412  10.069   1.336  0.4201 -0.4777  0.3531
  172MOL0     H23703  12.498   9.939   1.248 -0.7568 -0.6455 -0.8390
  172MOL0     H23704  12.653  10.111   1.274 -0.8828 -0.2008  2.0635
  172MOL0     H23705  12.535  10.237   1.255  2.7098 -0.8180  1.8851
  172MOL0     H23706  12.528  10.154   0.998  0.6020 -4.1342 -0.6206
  172MOL0     H23707  12.673  10.097   1.031 -0.4793  0.5559 -0.1648
  172MOL0     H23708  12.619  10.394   1.043 -1.8693 -0.9218 -1.2895
  172MOL0     H23709  12.759  10.311   1.128  0.8759 -2.4801  0.2226
  172MOL0     H23710  12.843  10.238   0.914  0.2873 -1.6661 -1.4271
  172MOL0     H23711  12.811  10.412   0.898 -0.5532 -0.2779  2.7825
  172MOL0     H23712  12.682  10.394   0.737  2.5186 -0.0488 -0.4440
  172MOL0     H23713  12.567  10.296   0.825  0.6094  3.0871 -0.3124
  172MOL0     H23714  12.798  10.207   0.644 -1.4528  2.3032 -2.1187
  172MOL0     H23715  12.620  10.185   0.617 -0.5988 -0.2321  0.4026
  172MOL0     H23716  12.028   9.816   1.257 -0.4236  0.6563  0.7274
  172MOL0     H23717  11.854   9.710   1.107  0.7845  0.2481  1.4920
  172MOL0     H23718  11.784   9.691   0.444  0.3669 -0.3112  0.4992
  172MOL0     H23719  11.596   9.703   0.331  1.0340  0.4043  0.2484
  172MOL0     H23720   9.875   9.409   0.956  2.2072 -1.3923  0.8053
  172MOL0     H23721   9.873   9.261   1.157  0.4898 -0.6981  0.0423
  172MOL0     H23722   9.818   8.746   1.126  1.6604 -0.3245  2.2968
  172MOL0     H23723   9.801   8.545   1.259  0.1895  0.1253  0.8054
  172MOL0     H23724   9.529   8.490   1.614 -1.0503 -0.2062  0.2857
  172MOL0     H23725   9.417   8.505   1.474  0.7544  1.1342  0.1195
  172MOL0     H23726   9.398   8.289   1.591  0.7453  1.5713  1.3460
  172MOL0     H23727   9.570   8.277   1.587 -2.4187  0.8180  2.3361
  172MOL0     H23728   9.388   8.264   1.338  0.0982 -0.4286 -0.9503
  172MOL0     H23729   9.562   8.268   1.336 -0.4164  0.3052  0.8447
  172MOL0     H23730   9.380   8.057   1.441  0.3737 -1.4087  1.4950
  172MOL0     H23731   9.543   8.055   1.497  1.1879 -1.1583 -1.3397
  172MOL0     H23732   9.599   7.910   1.109  0.2193  1.9809 -1.6585
  172MOL0     H23733   9.490   8.710   1.499 -0.2578  0.0039  0.3120
  172MOL0     H23734   9.391   8.911   1.437 -2.9479  1.8354 -1.1620
  172MOL0     H23735   9.517   9.027   1.451  1.8928  0.6725 -1.7054
  172MOL0     H23736   9.435   8.984   1.288  2.4475  0.0306 -0.4439
  173MOL0     O23737   2.088   2.557   9.427  0.7039  0.0887 -0.2420
  173MOL0     C23738   2.092   2.560   9.546  0.2403 -0.1065 -0.2988
  173MOL0     O23739   2.187   2.500   9.623 -0.4495  0.6353  0.0429
  173MOL0     C23740   2.287   2.422   9.570  0.3961 -0.1724 -0.2847
  173MOL0     C23741   2.383   2.471   9.493 -0.5415 -0.0972  0.0581
  173MOL0     C23742   2.486   2.388   9.438  0.6913  0.0647  0.0902
  173MOL0     C23743   2.492   2.257   9.463  0.1577 -0.7905 -0.5130
  173MOL0     O23744   2.586   2.171   9.414 -0.7081  0.0362 -0.5741
  173MOL0     C23745   2.610   2.168   9.272 -0.6024 -1.1218  0.0637
  173MOL0     C23746   2.742   2.233   9.225  0.4830 -0.0136  0.4548
  173MOL0     C23747   2.759   2.250   9.072 -0.3648 -0.6828  0.2553
  173MOL0     C23748   2.777   2.118   8.993  0.6539  0.0156 -0.4382
  173MOL0     C23749   2.819   2.142   8.849 -0.4805  0.0683  0.2410
  173MOL0     C23750   2.813   2.016   8.767  0.7536  0.0497  0.1856
  173MOL0     C23751   2.861   2.057   8.629  0.2844 -1.3498  0.1385
  173MOL0     C23752   2.848   1.958   8.508 -0.6184 -0.1090 -0.4759
  173MOL0     N23753   2.733   1.877   8.513  0.1748 -0.9802  0.1551
  173MOL0     C23754   2.698   1.777   8.607 -1.1356 -1.5033 -0.5425
  173MOL0     C23755   2.573   1.737   8.578  0.1532 -0.0905 -0.6367
  173MOL0     C23756   2.501   1.625   8.644 -0.6256  0.4107 -0.1550
  173MOL0     C23757   2.415   1.554   8.542 -0.3989 -0.4765 -0.2622
  173MOL0     C23758   2.263   1.582   8.582  0.5426 -0.1157  0.3483
  173MOL0     C23759   2.173   1.512   8.486 -0.1790  0.7327  0.5781
  173MOL0     O23760   2.042   1.543   8.520 -0.1225  0.6511  0.2002
  173MOL0     C23761   1.975   1.655   8.474 -0.0255  0.0777  0.6071
  173MOL0     C23762   1.838   1.661   8.505 -0.3203  0.0208  0.6274
  173MOL0     C23763   1.760   1.769   8.466  1.1519  0.3264  0.6028
  173MOL0     C23764   1.615   1.764   8.527 -0.2054  0.0840 -0.8894
  173MOL0     C23765   1.810   1.868   8.378  0.2720  0.2105  0.2036
  173MOL0     C23766   1.726   1.978   8.328 -0.1331  0.7476 -0.1573
  173MOL0     O23767   1.592   1.990   8.364 -0.0517  0.0345  0.8305
  173MOL0     C23768   1.505   2.042   8.271 -0.3748 -0.5639  0.7357
  173MOL0     C23769   1.527   2.061   8.127 -0.6446 -0.6626 -0.0301
  173MOL0     C23770   1.432   2.106   8.041 -0.7271 -0.0415 -0.6316
  173MOL0     C23771   1.307   2.155   8.081  0.0939  0.9940 -0.3965
  173MOL0     O23772   1.219   2.196   7.991 -0.8723  0.0997  0.1573
  173MOL0     C23773   1.080   2.190   8.017 -1.0335 -0.1521  0.3270
  173MOL0     C23774   0.993   2.161   7.895  0.6256 -0.6282  0.5676
  173MOL0     C23775   0.993   2.012   7.861  0.3414 -0.0691  0.5455
  173MOL0     C23776   0.883   1.976   7.754  0.1790  0.1507  0.0763
  173MOL0     C23777   0.895   1.832   7.724  0.0399  0.7609  0.4934
  173MOL0     C23778   0.796   1.779   7.620 -0.8854 -0.3050 -0.7455
  173MOL0     C23779   0.845   1.648   7.559 -0.5857 -0.7655 -0.1952
  173MOL0     C23780   0.729   1.560   7.506 -0.6807 -0.9133  0.4386
  173MOL0    Cl23781   0.815   1.420   7.428  0.5326 -0.0661  0.3979
  173MOL0     C23782   1.289   2.150   8.222  0.0627 -0.1624  0.5168
  173MOL0     C23783   1.383   2.091   8.312  0.0413  0.1307  0.6302
  173MOL0     O23784   1.778   2.059   8.257 -0.1753 -0.2074  0.0687
  173MOL0     C23785   1.945   1.854   8.334 -0.0928 -0.1612 -0.4039
  173MOL0     C23786   2.026   1.751   8.387 -0.4675  0.7948  0.9584
  173MOL0     N23787   2.535   1.803   8.465 -0.2105 -0.1929  0.1708
  173MOL0     N23788   2.631   1.877   8.423 -0.4674 -0.2469  0.0264
  173MOL0     C23789   2.396   2.202   9.557  0.3144 -1.2439 -0.9429
  173MOL0     C23790   2.287   2.285   9.599  0.3782 -0.6153  0.9948
  173MOL0     C23791   2.013   2.671   9.606  0.1488  0.2075 -1.0095
  173MOL0     C23792   2.065   2.739   9.722 -0.7197 -0.3513  0.2928
  173MOL0     C23793   2.004   2.853   9.771  0.4780  0.4960 -1.2886
  173MOL0     C23794   1.878   2.891   9.726  0.1420  0.5074 -0.9250
  173MOL0     O23795   1.822   3.003   9.787  0.3247 -0.0680  0.1549
  173MOL0     C23796   1.692   2.974   9.841 -0.5300 -1.0756 -0.8818
  173MOL0     C23797   1.629   3.118   9.872  0.1067 -0.7253 -0.6174
  173MOL0     C23798   1.707   3.188   9.980  0.0186 -0.1109 -0.1599
  173MOL0     C23799   1.660   3.333   9.995  0.3211 -0.0068 -0.3144
  173MOL0     C23800   1.537   3.349  10.064  0.1941  0.0100 -0.5844
  173MOL0     C23801   1.418   3.386  10.087 -0.0872  0.5930  0.3815
  173MOL0     C23802   1.822   2.826   9.619  0.3362 -1.4305  0.7208
  173MOL0     C23803   1.888   2.709   9.559 -1.2155 -0.9795  0.2271
  173MOL0     C23804   1.804   2.636   9.454  0.8874 -0.2134  0.0832
  173MOL0     H23805   2.390   2.577   9.473  1.3012 -0.4605 -1.5593
  173MOL0     H23806   2.564   2.417   9.369  0.0649  1.3011 -0.1356
  173MOL0     H23807   2.530   2.218   9.217  1.3655  1.4491 -0.6732
  173MOL0     H23808   2.613   2.062   9.243 -1.4907 -2.1619  3.3555
  173MOL0     H23809   2.727   2.329   9.277  1.7465  1.3149 -1.5131
  173MOL0     H23810   2.834   2.196   9.271  0.8206 -1.2771 -1.1899
  173MOL0     H23811   2.667   2.297   9.037 -0.0465 -1.0730 -1.1991
  173MOL0     H23812   2.849   2.308   9.051 -1.5469  1.7710  1.5610
  173MOL0     H23813   2.852   2.057   9.046  0.3706  0.0301 -0.0174
  173MOL0     H23814   2.680   2.067   8.991  0.3368  0.6273 -2.5156
  173MOL0     H23815   2.925   2.170   8.856 -0.4290 -0.5595  3.0096
  173MOL0     H23816   2.765   2.223   8.799 -0.5078  0.2298  0.5248
  173MOL0     H23817   2.872   1.936   8.813  0.6842  0.8909  1.8313
  173MOL0     H23818   2.705   1.995   8.770 -0.1118  3.8243  0.8401
  173MOL0     H23819   2.964   2.092   8.631 -0.3491  0.6111  1.2010
  173MOL0     H23820   2.808   2.148   8.599  0.8106 -0.5078  1.6417
  173MOL0     H23821   2.861   2.016   8.416 -2.9676 -0.2857 -0.9671
  173MOL0     H23822   2.939   1.898   8.507 -0.1876  0.5271 -0.0469
  173MOL0     H23823   2.764   1.738   8.684 -0.8696 -0.7614 -0.3917
  173MOL0     H23824   2.450   1.657   8.735  0.2292  1.0549  0.1083
  173MOL0     H23825   2.573   1.555   8.687 -2.8687 -0.4217  2.5406
  173MOL0     H23826   2.436   1.587   8.440 -0.5720  0.7630  0.0938
  173MOL0     H23827   2.435   1.447   8.531  0.2321 -0.2557 -1.3925
  173MOL0     H23828   2.233   1.542   8.680  0.3758 -0.7927  0.0260
  173MOL0     H23829   2.258   1.690   8.567  3.2572  0.0655  0.2572
  173MOL0     H23830   2.199   1.532   8.382 -0.9177 -1.3161 -0.0419
  173MOL0     H23831   2.184   1.404   8.498 -0.3818  0.5058 -1.0924
  173MOL0     H23832   1.797   1.589   8.576  0.8569 -0.1983  1.1087
  173MOL0     H23833   1.606   1.848   8.596  1.7217 -0.8899  0.6472
  173MOL0     H23834   1.600   1.678   8.593  3.9957  3.6741  5.8702
  173MOL0     H23835   1.537   1.765   8.450 -0.8737 -0.5259 -0.2384
  173MOL0     H23836   1.623   2.029   8.086  0.1607 -0.5653  1.7117
  173MOL0     H23837   1.469   2.097   7.939  1.1131 -3.1500  0.1948
  173MOL0     H23838   1.059   2.108   8.087  0.2133  0.5879  1.6269
  173MOL0     H23839   1.036   2.281   8.059  0.2359  0.3011  0.6998
  173MOL0     H23840   0.890   2.196   7.909  0.7264 -0.0454 -0.0726
  173MOL0     H23841   1.034   2.204   7.803 -0.7877 -2.3420 -0.9487
  173MOL0     H23842   0.995   1.944   7.948 -1.5510 -0.5392  0.2698
  173MOL0     H23843   1.089   1.989   7.814 -0.0770  2.0515 -1.5327
  173MOL0     H23844   0.903   2.038   7.666 -1.7558  2.2469  0.9953
  173MOL0     H23845   0.779   1.997   7.784 -0.5976 -2.1894 -0.7761
  173MOL0     H23846   0.999   1.820   7.692  0.7750  1.0075  2.5987
  173MOL0     H23847   0.892   1.766   7.811 -0.7766 -0.2269 -0.2738
  173MOL0     H23848   0.768   1.847   7.539 -1.4663  1.6550  0.9960
  173MOL0     H23849   0.711   1.763   7.687  1.1612  2.0541  2.7737
  173MOL0     H23850   0.900   1.583   7.627 -1.0423 -2.6849 -1.5983
  173MOL0     H23851   0.913   1.686   7.482  0.3700  1.1927  1.5121
  173MOL0     H23852   0.669   1.620   7.437 -0.1891 -0.4066  0.4477
  173MOL0     H23853   0.658   1.522   7.580 -0.6799 -0.8356  0.4790
  173MOL0     H23854   1.200   2.193   8.267  1.1950  1.5999  1.1988
  173MOL0     H23855   1.362   2.081   8.418  0.7996 -0.6951  0.7153
  173MOL0     H23856   1.977   1.932   8.266  2.3431 -0.7148  0.0418
  173MOL0     H23857   2.130   1.749   8.355 -0.4695  0.1170  0.9911
  173MOL0     H23858   2.399   2.096   9.581  2.0368 -1.4238 -1.8149
  173MOL0     H23859   2.202   2.241   9.650  1.0398  1.5467  4.2546
  173MOL0     H23860   2.162   2.708   9.761 -0.9343 -2.1785 -0.4992
  173MOL0     H23861   2.030   2.903   9.864 -2.0569 -1.9478  0.9133
  173MOL0     H23862   1.622   2.920   9.777  1.7511 -2.8740 -2.0471
  173MOL0     H23863   1.703   2.911   9.930  1.1401 -3.2657 -2.5234
  173MOL0     H23864   1.526   3.107   9.908  0.7751 -1.2461  1.2239
  173MOL0     H23865   1.651   3.182   9.786  3.4894  2.5068  2.2767
  173MOL0     H23866   1.713   3.140  10.079 -1.4436 -2.1353 -0.9746
  173MOL0     H23867   1.812   3.191   9.952  0.6049  3.4708  1.7858
  173MOL0     H23868   1.663   3.393   9.903  1.2397 -0.2674 -0.4674
  173MOL0     H23869   1.739   3.376  10.059 -0.5930 -0.0276  0.8650
  173MOL0     H23870   1.325   3.422  10.127 -0.8723 -1.7389  0.8023
  173MOL0     H23871   1.722   2.853   9.586  1.1111  1.4011  0.4481
  173MOL0     H23872   1.711   2.690   9.441  1.5852  1.3705  1.3488
  173MOL0     H23873   1.854   2.620   9.357 -0.8988 -1.1367 -0.7256
  173MOL0     H23874   1.782   2.537   9.495 -1.4735 -0.8750 -2.4579
  174MOL0     O23875   6.558  10.526   2.375  0.2932 -0.5830 -0.1647
  174MOL0     C23876   6.622  10.592   2.454 -0.4164 -0.4666 -0.9127
  174MOL0     O23877   6.573  10.629   2.586 -0.0923 -0.4466  0.8284
  174MOL0     C23878   6.443  10.605   2.617  1.4460 -0.6444  0.3340
  174MOL0     C23879   6.335  10.682   2.578 -0.4211 -0.2453 -0.2507
  174MOL0     C23880   6.209  10.667   2.636  0.4513  0.4274  0.4091
  174MOL0     C23881   6.180  10.568   2.725 -0.2690  0.7681  0.8862
  174MOL0     O23882   6.057  10.532   2.771  0.1006 -0.6842  0.0738
  174MOL0     C23883   5.961  10.493   2.682  0.6427 -0.5926 -0.6368
  174MOL0     C23884   5.816  10.502   2.749  0.1493  1.4977  0.0678
  174MOL0     C23885   5.768  10.638   2.740  0.0257  0.0184 -0.6676
  174MOL0     C23886   5.616  10.659   2.683 -0.0833  0.1070  0.3114
  174MOL0     C23887   5.591  10.805   2.652  0.3019 -0.7630  0.1357
  174MOL0     C23888   5.443  10.832   2.606  0.4836 -0.2182  0.1719
  174MOL0     C23889   5.406  10.982   2.599 -1.2606  0.4802  0.4390
  174MOL0     C23890   5.474  11.061   2.476  0.5023 -0.2763 -0.5788
  174MOL0     N23891   5.406  11.189   2.461  0.4195 -0.2849 -0.8177
  174MOL0     C23892   5.441  11.314   2.501  0.2003  1.0714  0.1316
  174MOL0     C23893   5.362  11.404   2.435 -0.5070  0.1452 -0.0425
  174MOL0     C23894   5.369  11.555   2.459 -0.2473  0.7153 -0.5587
  174MOL0     C23895   5.298  11.602   2.587 -1.1812  0.2587 -0.1972
  174MOL0     C23896   5.321  11.759   2.613  0.1013  1.1567  0.1958
  174MOL0     C23897   5.464  11.795   2.656  0.0751 -0.3667  0.4879
  174MOL0     O23898   5.498  11.707   2.767  0.3348  0.7951  0.7607
  174MOL0     C23899   5.611  11.743   2.844  0.3616  0.5274  0.1381
  174MOL0     C23900   5.713  11.650   2.869  0.5193 -0.1804 -0.7179
  174MOL0     C23901   5.807  11.667   2.971  0.7931  0.5497 -1.4788
  174MOL0     C23902   5.906  11.559   3.011  0.2672 -0.2333 -0.0664
  174MOL0     C23903   5.812  11.794   3.039 -0.7985  0.2159 -0.3514
  174MOL0     C23904   5.901  11.839   3.149  0.5222 -0.1997  1.0642
  174MOL0     O23905   5.906  11.980   3.176  0.3064  0.4137 -0.4387
  174MOL0     C23906   5.995  12.005   3.280  0.7818  0.7887  0.2832
  174MOL0     C23907   6.133  12.011   3.262 -0.1312  0.1502 -0.1706
  174MOL0     C23908   6.225  12.053   3.365 -0.3592 -0.2077  0.5975
  174MOL0     C23909   6.174  12.086   3.495  0.0944  0.1178 -0.6402
  174MOL0     O23910   6.246  12.135   3.600  0.2396  0.1646  0.2448
  174MOL0     C23911   6.348  12.041   3.642 -0.0877  0.3934 -1.0609
  174MOL0     C23912   6.433  12.118   3.748 -0.2696 -0.2094 -0.5857
  174MOL0     C23913   6.493  12.020   3.850 -0.3182  1.5992 -0.3006
  174MOL0     C23914   6.618  11.961   3.784 -0.5325  0.1870 -0.7262
  174MOL0     C23915   6.716  11.880   3.870  0.6840  0.4070  0.0398
  174MOL0     C23916   6.780  11.767   3.790 -0.0641 -0.0448 -0.6681
  174MOL0     C23917   6.724  11.625   3.823 -0.7490 -1.4022  0.0637
  174MOL0     C23918   6.801  11.523   3.739 -0.3764  0.6095  0.5319
  174MOL0    Cl23919   6.747  11.540   3.567  0.3001 -0.0087  0.1308
  174MOL0     C23920   6.030  12.091   3.511 -0.1837 -0.3705  0.1545
  174MOL0     C23921   5.950  12.052   3.405  0.4283  0.6148 -0.6862
  174MOL0     O23922   5.979  11.757   3.199  0.1125 -0.5291  0.4909
  174MOL0     C23923   5.707  11.885   3.009  0.0085 -0.0940 -0.4776
  174MOL0     C23924   5.616  11.864   2.912 -0.7832 -0.5681  0.6405
  174MOL0     N23925   5.276  11.330   2.355  0.4547 -0.0074  0.3244
  174MOL0     N23926   5.306  11.206   2.371  0.2936 -0.7038  0.3441
  174MOL0     C23927   6.291  10.494   2.766 -0.1269 -0.6199 -0.3860
  174MOL0     C23928   6.414  10.510   2.709 -0.5263  0.4831 -0.7528
  174MOL0     C23929   6.764  10.626   2.414  0.1377 -0.2310 -0.3619
  174MOL0     C23930   6.817  10.579   2.293  0.3921  0.1705 -0.6057
  174MOL0     C23931   6.942  10.599   2.250  0.7022 -0.3070  0.4379
  174MOL0     C23932   7.023  10.682   2.326 -0.3219  0.0261  0.5162
  174MOL0     O23933   7.156  10.695   2.281 -0.4455  0.1591  0.1993
  174MOL0     C23934   7.261  10.787   2.328  1.0703  0.3513  0.0684
  174MOL0     C23935   7.370  10.781   2.229 -0.0942 -0.3598  0.5438
  174MOL0     C23936   7.437  10.637   2.191  0.2770 -0.0275  0.9387
  174MOL0     C23937   7.558  10.645   2.087  0.7591 -0.4609 -0.0762
  174MOL0     C23938   7.675  10.686   2.151  0.8411 -0.6388 -0.0423
  174MOL0     C23939   7.775  10.734   2.198  0.2072  0.0414  0.3494
  174MOL0     C23940   6.988  10.735   2.446  1.1118  0.1272 -0.1180
  174MOL0     C23941   6.862  10.695   2.492 -0.1579 -0.2460  0.3330
  174MOL0     C23942   6.824  10.756   2.628  0.5032 -0.0078  0.2353
  174MOL0     H23943   6.347  10.763   2.507 -3.3178 -0.7306 -1.4272
  174MOL0     H23944   6.129  10.732   2.603  0.3606  0.0437 -0.1423
  174MOL0     H23945   5.982  10.388   2.660  0.0818 -1.0445  0.8664
  174MOL0     H23946   5.958  10.536   2.582 -0.7112 -2.4441 -1.4362
  174MOL0     H23947   5.753  10.422   2.709  1.9351 -1.2262  2.2929
  174MOL0     H23948   5.827  10.486   2.857 -1.3021 -1.3461 -0.1171
  174MOL0     H23949   5.769  10.691   2.836 -0.5349  0.0099 -0.6548
  174MOL0     H23950   5.832  10.703   2.678  1.2432  2.2420  2.6598
  174MOL0     H23951   5.598  10.598   2.594  1.8077  2.7721 -2.0969
  174MOL0     H23952   5.547  10.623   2.759  0.4882 -1.5218  0.0985
  174MOL0     H23953   5.667  10.821   2.574  1.1806  1.6045  1.3936
  174MOL0     H23954   5.610  10.865   2.741 -0.6332  0.4334 -0.4385
  174MOL0     H23955   5.416  10.790   2.508 -1.2545  1.5902 -0.2047
  174MOL0     H23956   5.383  10.792   2.688 -0.3418  2.7248  1.1387
  174MOL0     H23957   5.441  11.033   2.689 -0.4440  0.9780 -0.1491
  174MOL0     H23958   5.299  10.999   2.583 -1.0755  0.6220 -0.7777
  174MOL0     H23959   5.580  11.086   2.484 -0.0511  1.6644  1.6341
  174MOL0     H23960   5.461  11.000   2.386 -1.4998  2.5132 -2.3467
  174MOL0     H23961   5.513  11.350   2.574  0.1874  1.5456 -0.0855
  174MOL0     H23962   5.322  11.593   2.368  2.8539  2.2991 -1.6132
  174MOL0     H23963   5.474  11.580   2.476  0.2550 -1.8888  0.7432
  174MOL0     H23964   5.191  11.581   2.590 -1.2991  0.8635  2.5008
  174MOL0     H23965   5.332  11.553   2.679  0.8737  3.9435  1.2178
  174MOL0     H23966   5.304  11.819   2.523  3.0515 -2.1864 -2.8933
  174MOL0     H23967   5.260  11.782   2.700  0.8281 -4.3793  2.5738
  174MOL0     H23968   5.544  11.792   2.581 -0.3873 -0.4830 -0.0121
  174MOL0     H23969   5.469  11.901   2.684  0.7311  1.0376 -4.0692
  174MOL0     H23970   5.724  11.554   2.819 -0.4518 -0.4395 -0.4461
  174MOL0     H23971   6.001  11.593   2.969  0.9131 -2.1278 -0.2595
  174MOL0     H23972   5.881  11.467   2.957  1.2454  0.9925 -2.7920
  174MOL0     H23973   5.903  11.546   3.119  2.3438  0.6714  0.1471
  174MOL0     H23974   6.177  11.992   3.164 -1.5105  1.6156 -1.1304
  174MOL0     H23975   6.330  12.049   3.337 -0.6459 -1.5526 -0.4106
  174MOL0     H23976   6.297  11.961   3.697  0.8515 -0.6734 -1.6851
  174MOL0     H23977   6.411  12.002   3.561  0.0972 -1.5148 -0.0546
  174MOL0     H23978   6.508  12.176   3.694 -0.0760  0.2360  0.1532
  174MOL0     H23979   6.384  12.198   3.804  1.1161  0.4901 -0.3502
  174MOL0     H23980   6.419  11.951   3.893  0.9845  0.6492  0.4870
  174MOL0     H23981   6.522  12.076   3.939  0.2090 -0.5201  0.9259
  174MOL0     H23982   6.673  12.041   3.735 -0.3054  0.8969  0.6608
  174MOL0     H23983   6.571  11.884   3.721 -1.5573 -1.0680  1.4442
  174MOL0     H23984   6.794  11.952   3.895  0.3367  0.4755  0.9584
  174MOL0     H23985   6.683  11.842   3.967  2.4519 -0.3459  0.3860
  174MOL0     H23986   6.886  11.778   3.814 -0.7409  0.3766  2.5153
  174MOL0     H23987   6.771  11.792   3.683  0.6848 -0.0260 -0.7293
  174MOL0     H23988   6.617  11.622   3.798 -0.5839 -1.2989 -0.6506
  174MOL0     H23989   6.730  11.601   3.930 -1.4417  0.6156  0.6077
  174MOL0     H23990   6.769  11.428   3.782  0.0096  0.7527  1.1378
  174MOL0     H23991   6.910  11.531   3.735 -0.5031  2.1452 -0.9438
  174MOL0     H23992   6.001  12.136   3.605  1.9378 -0.2072  0.7853
  174MOL0     H23993   5.842  12.058   3.411 -0.1831 -0.2740 -5.7387
  174MOL0     H23994   5.695  11.980   3.060 -0.4283 -0.1990 -0.3765
  174MOL0     H23995   5.548  11.943   2.881 -4.0546 -2.1309  3.1952
  174MOL0     H23996   6.271  10.407   2.828 -1.4930 -1.0172 -1.3183
  174MOL0     H23997   6.494  10.443   2.740 -2.4946 -1.3553  0.6385
  174MOL0     H23998   6.754  10.521   2.227 -1.0502 -1.1382  1.7725
  174MOL0     H23999   6.988  10.556   2.162  2.3031  1.6857  0.2235
  174MOL0     H24000   7.206  10.882   2.331 -0.5945 -0.5476  3.2572
  174MOL0     H24001   7.287  10.774   2.434  2.6458  0.9037 -0.2271
  174MOL0     H24002   7.455  10.836   2.271  1.2640 -1.1868 -0.9957
  174MOL0     H24003   7.337  10.823   2.134  1.4789 -2.6202 -1.1093
  174MOL0     H24004   7.478  10.588   2.280 -0.2043 -0.7351  0.7805
  174MOL0     H24005   7.356  10.576   2.149  0.3928  0.4455  0.0136
  174MOL0     H24006   7.523  10.715   2.011  2.3982  0.7344  0.2106
  174MOL0     H24007   7.585  10.546   2.049  0.9363 -0.5860  0.3716
  174MOL0     H24008   7.869  10.778   2.225  0.8428 -0.7828 -0.4537
  174MOL0     H24009   7.063  10.788   2.505  2.0577 -1.4456  0.1465
  174MOL0     H24010   6.774  10.678   2.686 -1.6013 -0.6839 -2.3138
  174MOL0     H24011   6.916  10.786   2.678  0.1146 -0.3227  1.1480
  174MOL0     H24012   6.758  10.839   2.602 -0.3037 -1.4556 -2.8677
  175MOL0     O24013   4.888  10.052   5.001  0.2552  0.4486  0.2177
  175MOL0     C24014   4.909  10.156   4.947  0.1354  0.2237 -0.0416
  175MOL0     O24015   4.814  10.235   4.902  0.6593 -0.1661 -0.1410
  175MOL0     C24016   4.681  10.213   4.925 -0.1419 -0.6594  0.1627
  175MOL0     C24017   4.622  10.225   5.057 -1.4505 -1.1599 -0.1813
  175MOL0     C24018   4.487  10.228   5.073 -0.6303  0.3353  0.8759
  175MOL0     C24019   4.397  10.208   4.970  0.4255  0.0433  0.1815
  175MOL0     O24020   4.263  10.196   5.001  0.0398 -0.0450 -1.0157
  175MOL0     C24021   4.171  10.283   4.918  0.3232  0.6446  0.8520
  175MOL0     C24022   4.030  10.217   4.919 -0.3301 -0.0915  0.1273
  175MOL0     C24023   4.010  10.119   4.794 -0.6334  0.3912  0.2839
  175MOL0     C24024   3.893  10.027   4.815  0.2228  0.9356  0.5102
  175MOL0     C24025   3.865   9.939   4.696 -0.3880 -0.2984  0.2535
  175MOL0     C24026   3.851  10.031   4.566 -0.2468  0.3744  0.1611
  175MOL0     C24027   3.810   9.936   4.454  0.6418  0.1913  0.0488
  175MOL0     C24028   3.768  10.010   4.327 -0.2351  0.5795  0.4571
  175MOL0     N24029   3.827   9.932   4.213  0.2951  0.0360 -0.9936
  175MOL0     C24030   3.960   9.911   4.185  0.4321 -0.1662 -0.5147
  175MOL0     C24031   3.966   9.836   4.080  0.6061  1.3464  0.0657
  175MOL0     C24032   4.082   9.769   4.009  0.8045 -0.5586  0.4884
  175MOL0     C24033   4.129   9.635   4.073  0.6483 -0.2841  0.0377
  175MOL0     C24034   4.161   9.512   3.986 -0.6481 -0.6605  0.3178
  175MOL0     C24035   4.182   9.396   4.080 -0.2411 -0.0626  0.8379
  175MOL0     O24036   4.295   9.412   4.161  0.2123 -0.0533 -0.1992
  175MOL0     C24037   4.402   9.339   4.122 -0.2861  0.1756  0.0026
  175MOL0     C24038   4.518   9.411   4.079  0.6346 -0.4038  0.5620
  175MOL0     C24039   4.631   9.338   4.017 -0.1912 -0.6196 -0.2930
  175MOL0     C24040   4.759   9.415   3.978  0.7645 -0.0566  0.3210
  175MOL0     C24041   4.622   9.194   4.025  0.5009  0.8881 -0.0685
  175MOL0     C24042   4.732   9.106   3.978 -0.0709 -0.5073  0.3824
  175MOL0     O24043   4.809   9.150   3.876 -0.4042 -0.0643  0.7421
  175MOL0     C24044   4.850   9.061   3.783 -0.1497  0.7067 -0.7684
  175MOL0     C24045   4.978   9.010   3.787  0.4073  1.3452 -0.2236
  175MOL0     C24046   5.012   8.914   3.693 -0.1676  0.2302 -0.4154
  175MOL0     C24047   4.931   8.871   3.588  0.2548 -0.6738  0.8140
  175MOL0     O24048   4.958   8.774   3.493  0.2921 -1.0493 -0.4372
  175MOL0     C24049   5.079   8.704   3.508 -0.1586 -0.1043  0.4276
  175MOL0     C24050   5.069   8.588   3.405  0.9190  0.6479 -1.0303
  175MOL0     C24051   5.169   8.479   3.453 -0.5305 -0.6047  0.0882
  175MOL0     C24052   5.319   8.533   3.461 -0.5510 -0.8211  0.0196
  175MOL0     C24053   5.408   8.417   3.500  0.1056 -0.0664  0.1259
  175MOL0     C24054   5.549   8.458   3.550 -0.1537 -0.0071 -0.5447
  175MOL0     C24055   5.646   8.334   3.547  0.8859  0.8695 -0.0670
  175MOL0     C24056   5.781   8.380   3.598  1.6653 -0.7304 -0.1304
  175MOL0    Cl24057   5.771   8.407   3.777  0.2699 -0.0449  0.4382
  175MOL0     C24058   4.803   8.923   3.588  1.2955 -0.7034 -0.0817
  175MOL0     C24059   4.756   9.015   3.690  0.0422  0.6899  0.2140
  175MOL0     O24060   4.729   8.993   4.025  0.1122  0.2324  0.7898
  175MOL0     C24061   4.505   9.130   4.083 -0.2238  1.1373  0.1213
  175MOL0     C24062   4.393   9.200   4.121  0.4475  0.9355  0.5560
  175MOL0     N24063   3.835   9.804   4.047  0.4116  0.2870 -0.0819
  175MOL0     N24064   3.752   9.852   4.136 -0.5879  0.4771 -0.3162
  175MOL0     C24065   4.451  10.196   4.840 -0.0959  0.6493 -0.3255
  175MOL0     C24066   4.588  10.209   4.818 -0.3654  0.6500 -1.2326
  175MOL0     C24067   5.051  10.196   4.913 -0.4354  0.0030 -0.7519
  175MOL0     C24068   5.071  10.281   4.799  0.1150 -0.0252 -0.2924
  175MOL0     C24069   5.203  10.301   4.756  0.7010 -0.2233 -0.3132
  175MOL0     C24070   5.314  10.255   4.823 -0.1250 -0.0217  0.0275
  175MOL0     O24071   5.431  10.307   4.779 -0.0362  0.1650 -0.2799
  175MOL0     C24072   5.536  10.335   4.871  0.3818  0.6954 -0.7156
  175MOL0     C24073   5.511  10.469   4.946  0.2357  1.0507 -0.7489
  175MOL0     C24074   5.635  10.521   5.018 -0.1433 -0.0487  0.5175
  175MOL0     C24075   5.715  10.607   4.920  0.4687  0.4433 -1.0719
  175MOL0     C24076   5.835  10.657   4.984 -0.9149 -0.3332 -0.0580
  175MOL0     C24077   5.933  10.715   5.030  0.1542  0.5243 -0.5062
  175MOL0     C24078   5.296  10.192   4.945  0.3638  0.1545 -0.6867
  175MOL0     C24079   5.166  10.154   4.991 -0.4898 -0.3423  0.4849
  175MOL0     C24080   5.169  10.074   5.119 -0.1891 -0.6263 -0.8196
  175MOL0     H24081   4.695  10.232   5.137  1.5027 -0.1280 -2.7433
  175MOL0     H24082   4.460  10.234   5.178  3.0486 -1.4615  2.0723
  175MOL0     H24083   4.219  10.300   4.821  1.0691 -1.5104  0.7954
  175MOL0     H24084   4.161  10.379   4.969 -2.6978  0.7316  0.3112
  175MOL0     H24085   4.031  10.163   5.014  0.1503  1.1182  0.8349
  175MOL0     H24086   3.950  10.292   4.917 -2.5956 -2.3925 -1.4649
  175MOL0     H24087   3.999  10.189   4.711  2.0074  1.5529  0.7981
  175MOL0     H24088   4.095  10.054   4.772  1.7436  3.6542 -0.8962
  175MOL0     H24089   3.906   9.967   4.906 -0.2251  0.5710  0.3375
  175MOL0     H24090   3.801  10.077   4.845 -0.1456  1.0079 -0.7024
  175MOL0     H24091   3.778   9.876   4.719 -2.0259  2.2217  1.4594
  175MOL0     H24092   3.952   9.879   4.669  0.0818 -0.5559  2.1636
  175MOL0     H24093   3.763  10.094   4.581 -0.2441  0.1780  1.0463
  175MOL0     H24094   3.941  10.087   4.538 -0.3747  0.1818 -0.6561
  175MOL0     H24095   3.723   9.877   4.484  0.0761 -0.1511 -2.1288
  175MOL0     H24096   3.903   9.882   4.435  0.1848 -0.0871 -1.5758
  175MOL0     H24097   3.661  10.029   4.312  0.4161  4.0639 -0.7097
  175MOL0     H24098   3.817  10.108   4.330  2.7052 -0.6774 -1.5425
  175MOL0     H24099   4.046   9.955   4.235  2.5432 -4.9221  0.6160
  175MOL0     H24100   4.161   9.844   3.999 -0.5638  0.7448 -0.9318
  175MOL0     H24101   4.042   9.744   3.910  0.9624 -2.5506  0.8756
  175MOL0     H24102   4.219   9.660   4.131  0.5176 -0.9745  0.5561
  175MOL0     H24103   4.050   9.612   4.146 -3.0975  3.3374 -2.4671
  175MOL0     H24104   4.082   9.508   3.910 -0.6190  3.2678 -0.1390
  175MOL0     H24105   4.247   9.541   3.926 -0.7177 -1.9318 -0.4331
  175MOL0     H24106   4.099   9.389   4.151  1.2455  0.8515  2.7309
  175MOL0     H24107   4.192   9.307   4.016 -0.9605  0.3124  0.1922
  175MOL0     H24108   4.525   9.519   4.089 -0.8639 -0.3662  1.4963
  175MOL0     H24109   4.847   9.364   4.015  0.4344 -0.4992  0.5025
  175MOL0     H24110   4.761   9.516   4.021 -0.2297  0.3038 -0.4076
  175MOL0     H24111   4.776   9.434   3.871  0.6198  1.2298  0.5112
  175MOL0     H24112   5.047   9.043   3.864  1.5887 -1.6500  0.1277
  175MOL0     H24113   5.112   8.873   3.699 -0.2549 -0.4702 -2.5904
  175MOL0     H24114   5.160   8.769   3.473 -1.0965  0.9781  0.2038
  175MOL0     H24115   5.109   8.689   3.612 -0.5997 -0.0093  0.5712
  175MOL0     H24116   4.970   8.544   3.420  1.1509  0.8919  1.7476
  175MOL0     H24117   5.066   8.613   3.298 -2.4942 -0.7060 -1.3817
  175MOL0     H24118   5.153   8.394   3.386 -0.7427  0.1954 -0.8933
  175MOL0     H24119   5.131   8.472   3.556 -2.4371  3.6771 -0.1186
  175MOL0     H24120   5.331   8.609   3.539 -0.4000 -0.4693 -0.3465
  175MOL0     H24121   5.356   8.568   3.364 -0.5211 -0.5016  0.1458
  175MOL0     H24122   5.362   8.350   3.574 -2.7945  1.9461  0.2843
  175MOL0     H24123   5.437   8.363   3.409  1.7874  1.4950 -0.3137
  175MOL0     H24124   5.547   8.499   3.652  5.0171 -0.9666  0.2395
  175MOL0     H24125   5.584   8.541   3.488  0.6598  0.2309  0.2092
  175MOL0     H24126   5.649   8.305   3.442 -0.9803 -1.5353  0.4816
  175MOL0     H24127   5.608   8.243   3.593  3.5883  0.0259  0.6706
  175MOL0     H24128   5.819   8.468   3.546  2.2511  0.3451  2.0264
  175MOL0     H24129   5.846   8.294   3.576  3.5653 -0.0015  2.2378
  175MOL0     H24130   4.727   8.895   3.516 -0.7136 -0.3595  1.7807
  175MOL0     H24131   4.650   9.033   3.706  0.0168  1.3650 -0.6164
  175MOL0     H24132   4.501   9.022   4.080  1.8486  1.0104  0.5514
  175MOL0     H24133   4.301   9.148   4.144  1.1856 -1.2405 -1.1153
  175MOL0     H24134   4.394  10.168   4.752 -0.3989  1.5438 -0.4204
  175MOL0     H24135   4.629  10.185   4.720  0.4962  2.2373 -1.2845
  175MOL0     H24136   4.988  10.319   4.740 -1.0140 -0.9974  0.6173
  175MOL0     H24137   5.225  10.369   4.674  2.9963  0.9459  1.1563
  175MOL0     H24138   5.557  10.260   4.948 -1.5700 -0.0453 -0.8507
  175MOL0     H24139   5.635  10.341   4.824  2.5596 -1.1908  3.1589
  175MOL0     H24140   5.438  10.446   5.025  0.9691  2.6458  0.4545
  175MOL0     H24141   5.474  10.545   4.877  1.2891  0.9152 -1.4764
  175MOL0     H24142   5.586  10.588   5.090  0.2980 -1.6140  2.3405
  175MOL0     H24143   5.691  10.451   5.080  1.3778 -0.5311 -1.3430
  175MOL0     H24144   5.656  10.697   4.902  0.0133  0.0459 -1.5956
  175MOL0     H24145   5.739  10.553   4.828  0.9488 -2.2571  0.5419
  175MOL0     H24146   6.017  10.750   5.087 -0.0247 -0.0938  0.1487
  175MOL0     H24147   5.375  10.154   5.009 -1.7531 -0.3707  1.7453
  175MOL0     H24148   5.175   9.966   5.100  1.4733 -0.6060 -0.5852
  175MOL0     H24149   5.258  10.104   5.175 -0.2783 -2.2845  0.3042
  175MOL0     H24150   5.079  10.104   5.173 -0.6285 -0.7705 -1.4673
  176MOL0     O24151   7.976   5.256   0.347  0.2728 -0.0884  1.0505
  176MOL0     C24152   8.008   5.271   0.225 -0.0675 -0.1931 -0.0940
  176MOL0     O24153   8.106   5.350   0.174  0.4106  0.1662 -0.7004
  176MOL0     C24154   8.143   5.460   0.249  0.2842 -0.1727  0.4377
  176MOL0     C24155   8.284   5.478   0.273 -0.4609  1.1776  0.2477
  176MOL0     C24156   8.337   5.605   0.312  0.4665  0.8117  0.3785
  176MOL0     C24157   8.244   5.716   0.314  0.1942 -0.2349 -0.4722
  176MOL0     O24158   8.279   5.840   0.347 -0.0189 -0.5988 -0.4335
  176MOL0     C24159   8.405   5.899   0.297 -0.2703  0.5440 -0.0247
  176MOL0     C24160   8.493   5.951   0.413  0.1464 -0.0592 -0.2273
  176MOL0     C24161   8.620   6.021   0.365 -0.2910  0.0818  0.0329
  176MOL0     C24162   8.723   6.061   0.472  1.0694 -0.0852 -0.8856
  176MOL0     C24163   8.830   6.158   0.413  0.3423 -0.5129  0.2963
  176MOL0     C24164   8.938   6.081   0.330 -0.3465 -0.5101  0.2874
  176MOL0     C24165   9.031   6.010   0.430 -0.5781 -0.7250 -0.2380
  176MOL0     C24166   9.120   5.920   0.358  0.4529 -0.0330  0.0581
  176MOL0     N24167   9.047   5.805   0.302  0.1435  0.1802 -0.4036
  176MOL0     C24168   9.093   5.730   0.204  0.4987  0.7017  0.4662
  176MOL0     C24169   9.001   5.628   0.196 -0.5705  0.0835  0.2940
  176MOL0     C24170   9.016   5.507   0.106  0.3995  0.1275  0.5428
  176MOL0     C24171   9.148   5.439   0.141 -0.4844  0.6924 -0.1317
  176MOL0     C24172   9.139   5.359   0.265 -0.5822 -0.2283  0.0041
  176MOL0     C24173   9.272   5.267   0.276 -0.6391  0.1445 -0.2121
  176MOL0     O24174   9.267   5.167   0.181 -0.5103  0.3729 -0.8854
  176MOL0     C24175   9.250   5.039   0.237 -0.6946  0.6085  0.6599
  176MOL0     C24176   9.360   4.976   0.296  0.5525  0.4065  0.6882
  176MOL0     C24177   9.349   4.842   0.338 -0.1536  0.1590  0.6570
  176MOL0     C24178   9.489   4.783   0.357  0.5559  0.0684 -1.3079
  176MOL0     C24179   9.226   4.774   0.332 -0.4267 -0.5792  0.1881
  176MOL0     C24180   9.198   4.646   0.394  0.1399  0.1893 -0.7897
  176MOL0     O24181   9.068   4.589   0.361 -0.4956  0.4814  0.7463
  176MOL0     C24182   9.045   4.466   0.420 -0.4623 -0.4614 -0.1073
  176MOL0     C24183   8.967   4.461   0.531  0.7157  1.1472  0.0334
  176MOL0     C24184   8.938   4.337   0.594 -0.4521 -1.0817 -0.1659
  176MOL0     C24185   8.990   4.218   0.537  0.0562 -1.1030 -0.0064
  176MOL0     O24186   8.958   4.097   0.599 -0.0958 -0.3967 -0.1161
  176MOL0     C24187   9.051   3.990   0.596  1.2289  0.6922 -0.5584
  176MOL0     C24188   8.987   3.870   0.517  0.7391 -0.4694 -0.4033
  176MOL0     C24189   8.871   3.804   0.588  0.2451 -0.5384  0.2984
  176MOL0     C24190   8.805   3.703   0.503 -0.1533 -0.2641  0.1244
  176MOL0     C24191   8.704   3.632   0.598  0.0147  0.6424 -0.3079
  176MOL0     C24192   8.655   3.496   0.521  0.6274  0.5924  0.1330
  176MOL0     C24193   8.561   3.414   0.611 -1.1445 -0.2685  0.3378
  176MOL0     C24194   8.512   3.298   0.532 -0.2697 -0.9995 -0.4591
  176MOL0    Cl24195   8.636   3.170   0.524 -0.0640 -0.3851  0.1538
  176MOL0     C24196   9.071   4.227   0.422 -1.4540 -0.1266  0.6183
  176MOL0     C24197   9.095   4.352   0.360  0.2301  0.0717 -0.3218
  176MOL0     O24198   9.276   4.602   0.473 -0.3969  0.2950  0.9774
  176MOL0     C24199   9.119   4.850   0.284  0.4516  0.4716  0.0186
  176MOL0     C24200   9.137   4.978   0.236 -0.0706 -0.1179 -0.3013
  176MOL0     N24201   8.901   5.652   0.297 -0.5470  0.1223  0.2046
  176MOL0     N24202   8.940   5.757   0.361 -0.1214  0.1511  0.1912
  176MOL0     C24203   8.102   5.697   0.309  0.1348  0.3074 -0.3471
  176MOL0     C24204   8.055   5.565   0.273  0.1033 -0.0466  0.2788
  176MOL0     C24205   7.953   5.154   0.131 -0.0340  0.3958  0.5151
  176MOL0     C24206   7.879   5.060   0.196 -0.4099  1.3579  0.7153
  176MOL0     C24207   7.831   4.945   0.118  0.1077 -0.4977 -0.5886
  176MOL0     C24208   7.873   4.923  -0.011  0.9134 -0.9182  0.2068
  176MOL0     O24209   7.857   4.800  -0.070  0.2871  0.1398 -0.7679
  176MOL0     C24210   7.818   4.798  -0.206  1.1985 -0.2457  0.2245
  176MOL0     C24211   7.809   4.666  -0.268 -0.0270  0.4416 -0.2787
  176MOL0     C24212   7.719   4.558  -0.204 -0.2158  0.0028  0.4579
  176MOL0     C24213   7.749   4.422  -0.254 -0.5364 -0.0385  1.5211
  176MOL0     C24214   7.730   4.388  -0.389 -0.2582  0.5440  0.6662
  176MOL0     C24215   7.729   4.367  -0.509 -0.3897  0.5253 -0.6549
  176MOL0     C24216   7.928   5.032  -0.073  0.0728 -0.2739  0.1218
  176MOL0     C24217   7.968   5.146  -0.012  0.2039  0.6261  0.1188
  176MOL0     C24218   8.024   5.247  -0.105 -0.4272  0.5322 -0.6717
  176MOL0     H24219   8.356   5.398   0.260 -1.3317 -0.0783  2.5517
  176MOL0     H24220   8.440   5.629   0.334  1.2057 -0.9372 -0.9775
  176MOL0     H24221   8.370   5.977   0.229 -1.2415  0.3897  0.2753
  176MOL0     H24222   8.460   5.823   0.241 -0.2996  0.9140 -0.5605
  176MOL0     H24223   8.426   6.012   0.474 -3.8313 -2.7511 -1.4625
  176MOL0     H24224   8.537   5.869   0.470  1.6404  1.2073  0.5146
  176MOL0     H24225   8.666   5.952   0.294 -0.5830  0.7196 -0.7915
  176MOL0     H24226   8.588   6.107   0.306 -0.2812  1.6757  2.2088
  176MOL0     H24227   8.665   6.123   0.541  1.6231 -1.2090  0.6449
  176MOL0     H24228   8.770   5.978   0.524 -1.8939 -0.7146  1.0162
  176MOL0     H24229   8.883   6.219   0.486 -1.6994  1.9995 -0.1865
  176MOL0     H24230   8.781   6.234   0.352 -1.0251 -2.1527 -0.7479
  176MOL0     H24231   8.886   6.014   0.261 -1.2979 -0.4672  0.9319
  176MOL0     H24232   8.998   6.150   0.271 -0.7187 -1.7716 -1.6540
  176MOL0     H24233   8.979   5.947   0.503 -0.7796 -1.9952 -1.4349
  176MOL0     H24234   9.087   6.092   0.476  0.1818 -0.6343 -1.3131
  176MOL0     H24235   9.177   5.979   0.285  2.7826 -0.6011  1.3405
  176MOL0     H24236   9.190   5.878   0.429 -0.5791 -1.6626  0.1557
  176MOL0     H24237   9.187   5.722   0.150 -0.2607 -4.9851 -0.7227
  176MOL0     H24238   9.018   5.534  -0.000 -1.4330  0.8559  0.6429
  176MOL0     H24239   8.930   5.442   0.123  2.2014 -2.6048 -0.1440
  176MOL0     H24240   9.169   5.375   0.055 -1.5923  0.4450 -0.2427
  176MOL0     H24241   9.223   5.516   0.158 -1.4635  1.2888  1.8106
  176MOL0     H24242   9.132   5.418   0.357 -1.4583  1.3650 -1.0372
  176MOL0     H24243   9.053   5.292   0.263 -1.8027  1.2365  1.2656
  176MOL0     H24244   9.359   5.331   0.259  0.6363 -1.4440  0.0804
  176MOL0     H24245   9.292   5.232   0.378  0.5793 -2.1321 -1.1681
  176MOL0     H24246   9.449   5.035   0.281 -1.6850  3.8022 -0.2444
  176MOL0     H24247   9.507   4.816   0.459 -2.1031  1.4667 -1.2239
  176MOL0     H24248   9.563   4.826   0.287  2.9577 -0.5363  0.7066
  176MOL0     H24249   9.490   4.674   0.347  2.2378 -0.1478  0.5026
  176MOL0     H24250   8.923   4.551   0.571 -3.6585 -1.0890  0.8939
  176MOL0     H24251   8.877   4.320   0.682  2.9089  0.8426  2.8397
  176MOL0     H24252   9.154   4.006   0.561  1.0277 -2.6846 -3.1792
  176MOL0     H24253   9.061   3.968   0.703  1.2751  0.5637 -0.5895
  176MOL0     H24254   8.955   3.900   0.417  1.7026 -0.5409 -0.7483
  176MOL0     H24255   9.058   3.788   0.503 -0.8758 -1.7232 -1.5165
  176MOL0     H24256   8.793   3.879   0.607  1.8160  1.6490 -1.3507
  176MOL0     H24257   8.903   3.765   0.685 -0.2588 -3.0282 -0.4734
  176MOL0     H24258   8.868   3.626   0.457  0.0426 -0.4922  0.7669
  176MOL0     H24259   8.758   3.750   0.416  1.5738  1.1096 -0.1220
  176MOL0     H24260   8.748   3.610   0.695 -2.6341  0.6841  1.0036
  176MOL0     H24261   8.614   3.693   0.615 -1.1704  0.2493 -4.0960
  176MOL0     H24262   8.738   3.428   0.503 -1.3100 -2.0574  0.5788
  176MOL0     H24263   8.603   3.524   0.429  0.0855  0.6760  0.4587
  176MOL0     H24264   8.469   3.467   0.637 -2.3724 -1.7190 -0.8443
  176MOL0     H24265   8.625   3.387   0.696 -1.2675 -0.0419  0.5020
  176MOL0     H24266   8.476   3.323   0.432  2.5908 -1.5166 -1.7170
  176MOL0     H24267   8.430   3.250   0.587  1.4679 -2.7853  0.7275
  176MOL0     H24268   9.131   4.142   0.392  0.0420  1.0081  0.2946
  176MOL0     H24269   9.162   4.355   0.275 -1.9381 -1.9650 -2.2626
  176MOL0     H24270   9.015   4.817   0.279 -0.2547  2.5162  0.2582
  176MOL0     H24271   9.052   5.040   0.209  0.2221  0.9495  1.1137
  176MOL0     H24272   8.029   5.774   0.332 -0.1591 -0.5342  1.7776
  176MOL0     H24273   7.947   5.556   0.260  0.1583  0.9003 -0.9611
  176MOL0     H24274   7.855   5.057   0.301  2.3194  1.6705  1.4307
  176MOL0     H24275   7.773   4.866   0.165  2.9295 -1.6552  1.2192
  176MOL0     H24276   7.717   4.839  -0.209  1.1015 -0.5498 -1.1383
  176MOL0     H24277   7.888   4.862  -0.262  0.9979  0.4521  0.7552
  176MOL0     H24278   7.913   4.631  -0.268  0.0958  0.7335  1.7343
  176MOL0     H24279   7.766   4.674  -0.369 -3.3175 -1.0686  0.8397
  176MOL0     H24280   7.730   4.565  -0.096 -0.6785  2.1049  0.4152
  176MOL0     H24281   7.614   4.577  -0.227  0.0862  4.0798  1.7006
  176MOL0     H24282   7.675   4.368  -0.194  0.2367 -1.8832  0.8834
  176MOL0     H24283   7.850   4.394  -0.220  0.3334  2.8121  1.5274
  176MOL0     H24284   7.707   4.343  -0.611  2.2872  1.8421 -1.6574
  176MOL0     H24285   7.954   5.026  -0.178 -1.3003  0.2254 -0.2770
  176MOL0     H24286   8.131   5.224  -0.096 -0.9805 -2.6254 -1.1235
  176MOL0     H24287   7.978   5.238  -0.203  1.1698  1.3048 -1.5412
  176MOL0     H24288   8.012   5.349  -0.068 -0.0663  0.6775 -0.9475
  177MOL0     O24289   8.592   7.621   4.862  0.2893 -0.6274 -0.3617
  177MOL0     C24290   8.710   7.640   4.882 -0.0744  0.1557  0.3780
  177MOL0     O24291   8.760   7.753   4.940  0.4407 -0.3796 -0.4099
  177MOL0     C24292   8.674   7.852   4.976 -0.0371 -0.5268  0.1570
  177MOL0     C24293   8.643   7.864   5.112  0.6648  0.0560 -0.8207
  177MOL0     C24294   8.566   7.964   5.162 -0.9744 -0.6079 -0.0864
  177MOL0     C24295   8.512   8.063   5.070  0.3799 -0.5128 -0.4775
  177MOL0     O24296   8.436   8.152   5.132  0.6338  0.2874 -0.9117
  177MOL0     C24297   8.358   8.245   5.066  0.0304 -0.2897  0.4704
  177MOL0     C24298   8.318   8.346   5.169  0.1008  0.0508 -0.1803
  177MOL0     C24299   8.190   8.291   5.259  0.4283  0.7183 -0.8858
  177MOL0     C24300   8.051   8.319   5.200  0.1886 -0.2804 -0.0988
  177MOL0     C24301   7.940   8.237   5.258 -0.2330  0.5291 -0.8045
  177MOL0     C24302   7.814   8.225   5.163 -0.5353 -0.3113 -0.9577
  177MOL0     C24303   7.722   8.098   5.198  0.5583 -0.0826  0.1396
  177MOL0     C24304   7.644   8.115   5.336  0.1614  0.1343 -0.0259
  177MOL0     N24305   7.585   7.988   5.387  0.6316 -0.7907 -0.1786
  177MOL0     C24306   7.637   7.895   5.469 -0.8032  0.5581 -0.0345
  177MOL0     C24307   7.536   7.805   5.480 -0.1810  0.0855  0.2131
  177MOL0     C24308   7.516   7.677   5.566  0.6037 -0.4779 -0.0247
  177MOL0     C24309   7.456   7.702   5.709  0.6318  0.0877  0.5346
  177MOL0     C24310   7.379   7.574   5.759  0.8462  0.1109 -0.5290
  177MOL0     C24311   7.461   7.445   5.750  0.3742 -0.4482  0.1689
  177MOL0     O24312   7.579   7.452   5.830  0.3500  0.1427 -0.4653
  177MOL0     C24313   7.668   7.344   5.843 -0.3986  0.2568  0.1916
  177MOL0     C24314   7.703   7.267   5.733 -0.5262 -0.4573  0.1053
  177MOL0     C24315   7.803   7.166   5.742 -0.5201 -0.4499  0.0968
  177MOL0     C24316   7.840   7.093   5.615  0.1922 -0.0521 -0.7184
  177MOL0     C24317   7.861   7.143   5.873 -0.5725  0.1375  0.6159
  177MOL0     C24318   7.970   7.045   5.888 -1.3532  0.1365 -0.9304
  177MOL0     O24319   8.054   7.071   6.003  0.0069 -0.3019  0.1937
  177MOL0     C24320   8.160   6.991   6.023  0.0334 -0.3835  0.1529
  177MOL0     C24321   8.170   6.907   6.138  0.5081 -0.1404  0.9211
  177MOL0     C24322   8.285   6.829   6.169 -0.6326  0.0198 -0.9682
  177MOL0     C24323   8.395   6.833   6.080  0.1922  0.5378 -0.0054
  177MOL0     O24324   8.513   6.754   6.098  0.8906 -0.1084 -1.0005
  177MOL0     C24325   8.493   6.618   6.130 -0.5732  0.2250  0.4374
  177MOL0     C24326   8.409   6.548   6.020  0.1356  0.3607  0.8879
  177MOL0     C24327   8.422   6.394   6.046 -0.0055 -1.1136 -0.6058
  177MOL0     C24328   8.291   6.327   5.999  1.4118 -0.0997  0.3883
  177MOL0     C24329   8.283   6.178   6.047  0.2252  0.8953  0.9308
  177MOL0     C24330   8.388   6.085   5.975 -0.4068 -0.1343  0.2916
  177MOL0     C24331   8.368   6.076   5.825 -0.3055 -0.5565  0.6047
  177MOL0     C24332   8.408   5.940   5.767  0.5605  0.0674  0.2235
  177MOL0    Cl24333   8.538   5.854   5.843 -0.0501 -0.3396  0.0502
  177MOL0     C24334   8.396   6.923   5.969  0.0827 -0.1076  0.0154
  177MOL0     C24335   8.275   6.995   5.939 -0.4696  0.5190 -1.2343
  177MOL0     O24336   7.991   6.952   5.806 -0.0782  0.2142 -0.2061
  177MOL0     C24337   7.826   7.216   5.982 -0.2893 -0.4473  0.0711
  177MOL0     C24338   7.727   7.314   5.966 -0.4456  0.2208 -0.1240
  177MOL0     N24339   7.435   7.830   5.391 -0.0541  0.1978 -0.2087
  177MOL0     N24340   7.461   7.946   5.340 -0.4469 -0.5617  0.1782
  177MOL0     C24341   8.533   8.051   4.930 -0.6321 -1.2172 -0.1194
  177MOL0     C24342   8.626   7.953   4.881  0.1777  0.6427 -0.1314
  177MOL0     C24343   8.796   7.523   4.859 -0.0052  0.8886  0.0785
  177MOL0     C24344   8.929   7.543   4.894 -0.6997 -0.1758 -1.2093
  177MOL0     C24345   9.035   7.456   4.872 -0.0395 -0.3050  0.9147
  177MOL0     C24346   8.992   7.334   4.813  1.0242 -0.0623  1.1246
  177MOL0     O24347   9.078   7.223   4.786 -0.2008 -0.1914  0.3251
  177MOL0     C24348   9.220   7.232   4.814 -0.3700 -0.6389  0.6791
  177MOL0     C24349   9.282   7.242   4.679  0.1607  0.4733  0.0957
  177MOL0     C24350   9.273   7.112   4.590  0.2244  0.2967 -0.9412
  177MOL0     C24351   9.357   7.119   4.463 -0.1850  1.0273  0.3116
  177MOL0     C24352   9.500   7.114   4.478  0.6016  0.2038  0.5700
  177MOL0     C24353   9.620   7.095   4.484  0.1096  0.0567 -0.0490
  177MOL0     C24354   8.856   7.309   4.779 -0.5430  0.7377 -0.4133
  177MOL0     C24355   8.755   7.396   4.810 -0.6989 -0.7550 -0.0009
  177MOL0     C24356   8.607   7.355   4.797  0.4606 -0.2120 -0.2958
  177MOL0     H24357   8.662   7.785   5.184  0.8195 -1.5641 -2.5536
  177MOL0     H24358   8.531   7.954   5.265  2.3564 -2.0301  1.0490
  177MOL0     H24359   8.263   8.204   5.030  0.2907 -0.9868  0.5583
  177MOL0     H24360   8.411   8.302   4.990  0.6274 -1.3507  0.0644
  177MOL0     H24361   8.401   8.368   5.236 -1.1052 -0.2316  1.4813
  177MOL0     H24362   8.291   8.440   5.119 -1.7687  0.2953  1.1894
  177MOL0     H24363   8.201   8.185   5.280 -1.7141  1.0281  2.6115
  177MOL0     H24364   8.186   8.328   5.362  0.9682 -1.0435 -0.2079
  177MOL0     H24365   8.034   8.425   5.219 -1.4198 -0.5344  0.0070
  177MOL0     H24366   8.044   8.310   5.091 -1.2230 -0.9454  0.0251
  177MOL0     H24367   7.917   8.280   5.356 -1.4995  1.4714 -1.4948
  177MOL0     H24368   7.976   8.134   5.266  0.1926  0.5812 -1.8595
  177MOL0     H24369   7.749   8.313   5.161  0.1069  0.1573 -1.6626
  177MOL0     H24370   7.849   8.208   5.061 -0.4592  1.6171 -1.2850
  177MOL0     H24371   7.777   8.004   5.201  0.4767 -0.6376 -5.3218
  177MOL0     H24372   7.658   8.097   5.109 -0.3918  1.3145  0.7624
  177MOL0     H24373   7.704   8.175   5.405  1.8344 -1.0327 -0.3733
  177MOL0     H24374   7.556   8.176   5.318  0.1926  0.0120 -0.6210
  177MOL0     H24375   7.731   7.880   5.522 -1.8384 -1.0930  1.4588
  177MOL0     H24376   7.612   7.625   5.576 -1.3886 -4.2370  1.3715
  177MOL0     H24377   7.447   7.613   5.510 -0.2325 -0.7389  1.2591
  177MOL0     H24378   7.529   7.725   5.788  0.9441 -2.8174  1.2260
  177MOL0     H24379   7.383   7.784   5.712  0.5507  0.0787 -0.9149
  177MOL0     H24380   7.339   7.583   5.860 -0.0790  3.4702 -1.0837
  177MOL0     H24381   7.293   7.558   5.693  2.4355 -2.2034 -2.2101
  177MOL0     H24382   7.405   7.357   5.782 -1.3738 -0.1806 -1.9244
  177MOL0     H24383   7.495   7.428   5.647  1.9894 -1.5033  0.8303
  177MOL0     H24384   7.656   7.295   5.639  0.4761  0.5422 -0.1148
  177MOL0     H24385   7.785   7.152   5.540 -0.8393 -0.0109  0.0599
  177MOL0     H24386   7.811   6.988   5.615 -1.7557  0.3831  2.0194
  177MOL0     H24387   7.947   7.113   5.601 -0.4386  2.9925 -2.2604
  177MOL0     H24388   8.087   6.902   6.208 -0.2023 -0.8024  0.0499
  177MOL0     H24389   8.296   6.773   6.261  3.0229  0.4841 -0.9674
  177MOL0     H24390   8.595   6.578   6.142 -0.9416 -0.8883 -0.0614
  177MOL0     H24391   8.445   6.581   6.221 -0.3928 -2.4059 -0.4488
  177MOL0     H24392   8.305   6.579   6.019 -0.7732 -2.4104  0.5643
  177MOL0     H24393   8.450   6.569   5.920 -1.1200 -0.8535  0.0768
  177MOL0     H24394   8.441   6.374   6.152  1.3860 -0.2326 -0.6559
  177MOL0     H24395   8.510   6.355   5.994 -0.1789 -0.2083 -1.6346
  177MOL0     H24396   8.270   6.323   5.891 -1.2355 -2.3079  0.8646
  177MOL0     H24397   8.205   6.384   6.035 -1.3447 -3.0830 -0.9584
  177MOL0     H24398   8.303   6.179   6.155 -0.5825 -1.7109  1.1766
  177MOL0     H24399   8.182   6.138   6.035  1.0146 -0.7201 -0.7388
  177MOL0     H24400   8.391   5.987   6.023  0.7314  0.0186  0.5558
  177MOL0     H24401   8.489   6.116   6.003 -0.8442  2.5219 -0.7642
  177MOL0     H24402   8.430   6.150   5.774 -3.0041  0.1363 -1.9986
  177MOL0     H24403   8.264   6.093   5.795 -0.7861 -1.2569  1.7938
  177MOL0     H24404   8.445   5.953   5.665 -1.0168 -0.8120 -0.5062
  177MOL0     H24405   8.323   5.873   5.753  0.4376  0.4626 -1.0533
  177MOL0     H24406   8.485   6.943   5.910  0.3164 -1.3022 -0.0634
  177MOL0     H24407   8.252   7.056   5.852 -3.1195 -0.4519 -1.3014
  177MOL0     H24408   7.868   7.189   6.078  1.0895 -0.1788 -0.4342
  177MOL0     H24409   7.698   7.376   6.051  1.2177  1.7634 -0.6163
  177MOL0     H24410   8.488   8.130   4.871  2.0515  1.1898  0.7782
  177MOL0     H24411   8.643   7.934   4.776 -0.9202  1.5667 -0.5003
  177MOL0     H24412   8.962   7.637   4.938 -1.0184 -1.6397  2.4937
  177MOL0     H24413   9.132   7.489   4.907 -0.4446  1.4105  0.5169
  177MOL0     H24414   9.252   7.318   4.874 -3.8144 -0.1793  2.1349
  177MOL0     H24415   9.253   7.142   4.868  0.7510 -0.7840 -0.2310
  177MOL0     H24416   9.386   7.266   4.701  0.3873 -1.9887  2.2819
  177MOL0     H24417   9.237   7.322   4.620  0.0224 -1.2807 -2.3342
  177MOL0     H24418   9.295   7.016   4.638 -2.4732 -0.5922 -1.3207
  177MOL0     H24419   9.167   7.099   4.566  0.1794 -0.6711 -0.2620
  177MOL0     H24420   9.320   7.209   4.414  1.1402  1.3387 -0.1568
  177MOL0     H24421   9.334   7.024   4.413  3.4430 -1.0250  2.1593
  177MOL0     H24422   9.726   7.085   4.497  0.2199  0.3921 -0.6584
  177MOL0     H24423   8.831   7.218   4.726 -2.5439  1.1532 -0.2936
  177MOL0     H24424   8.556   7.388   4.888  2.0749  2.4547 -0.2475
  177MOL0     H24425   8.568   7.399   4.705 -0.5352  1.5484  0.9102
  177MOL0     H24426   8.600   7.246   4.787  2.1855 -0.3153 -0.7772
  178MOL0     O24427   2.342   2.954   0.367  0.0725  0.3429  0.0557
  178MOL0     C24428   2.223   2.958   0.386  0.1205  0.1355  0.3668
  178MOL0     O24429   2.137   2.868   0.442 -0.3675  0.2427 -0.2348
  178MOL0     C24430   2.199   2.763   0.508 -0.4074  0.1918 -0.2937
  178MOL0     C24431   2.189   2.763   0.650  0.0539 -0.2356 -0.2604
  178MOL0     C24432   2.223   2.651   0.727 -1.4309 -0.1246  0.5424
  178MOL0     C24433   2.291   2.546   0.662 -0.5802 -0.9145  0.0729
  178MOL0     O24434   2.336   2.448   0.738 -0.4969 -0.2372 -1.2413
  178MOL0     C24435   2.273   2.321   0.706  0.1240  0.1108 -0.1288
  178MOL0     C24436   2.387   2.216   0.677  0.6604 -0.3412  0.1963
  178MOL0     C24437   2.501   2.220   0.778 -1.1273  0.2727 -0.2879
  178MOL0     C24438   2.610   2.111   0.750  1.2917 -0.3438  0.4179
  178MOL0     C24439   2.713   2.116   0.858 -0.1988 -0.1401 -0.0322
  178MOL0     C24440   2.822   2.017   0.820 -0.1661 -0.2715  1.0800
  178MOL0     C24441   2.940   2.021   0.918  0.4581  0.1539  0.0083
  178MOL0     C24442   3.028   1.899   0.902  0.4765  0.0142  0.4753
  178MOL0     N24443   3.105   1.897   0.780 -0.9798  0.3280 -0.2159
  178MOL0     C24444   3.247   1.896   0.790  0.5622 -0.7744  0.4786
  178MOL0     C24445   3.292   1.893   0.665  1.4285  0.5760 -0.6878
  178MOL0     C24446   3.429   1.903   0.625 -0.0020  0.4993  0.0052
  178MOL0     C24447   3.510   1.790   0.675 -0.1502  0.7720  0.4114
  178MOL0     C24448   3.654   1.812   0.632 -0.5123 -0.6593 -0.0495
  178MOL0     C24449   3.762   1.743   0.715 -0.0867 -0.6817  0.3985
  178MOL0     O24450   3.823   1.641   0.640  0.2702 -0.1086  0.3472
  178MOL0     C24451   3.930   1.663   0.569 -0.1597  0.2524  0.1642
  178MOL0     C24452   4.005   1.550   0.542  0.0050  0.7992 -0.0247
  178MOL0     C24453   4.122   1.561   0.471  0.8001 -0.2329  0.5768
  178MOL0     C24454   4.194   1.434   0.442  0.6399  0.3523  0.2774
  178MOL0     C24455   4.169   1.683   0.415  0.4030 -0.4115 -0.3670
  178MOL0     C24456   4.276   1.698   0.332 -0.8643  0.1134  0.2831
  178MOL0     O24457   4.252   1.773   0.220  1.2867  0.9327 -0.2864
  178MOL0     C24458   4.366   1.787   0.143 -0.1161 -1.7485  0.7520
  178MOL0     C24459   4.383   1.715   0.023 -0.2251  0.3250  0.9355
  178MOL0     C24460   4.501   1.723  -0.053  0.6982  0.0846  1.1612
  178MOL0     C24461   4.598   1.822  -0.028  0.1664  0.5128 -0.0097
  178MOL0     O24462   4.703   1.858  -0.107  0.2173  0.1032  0.3244
  178MOL0     C24463   4.773   1.753  -0.179  0.2960  0.4643  0.0277
  178MOL0     C24464   4.921   1.776  -0.168 -0.4143  0.5192 -0.4776
  178MOL0     C24465   5.005   1.671  -0.243  0.3202  0.2331  0.1244
  178MOL0     C24466   5.013   1.528  -0.178  0.8539  0.3162  0.7014
  178MOL0     C24467   5.103   1.442  -0.259  0.2550 -0.3599  0.7366
  178MOL0     C24468   5.107   1.295  -0.217 -0.6263  0.0620  0.0306
  178MOL0     C24469   5.140   1.270  -0.068  0.0302 -0.5084  0.3156
  178MOL0     C24470   5.287   1.303  -0.034  0.4287  0.0782 -0.4365
  178MOL0    Cl24471   5.387   1.160  -0.095 -0.1227 -0.2669  0.4813
  178MOL0     C24472   4.573   1.899   0.081  0.0621 -0.1498  0.1872
  178MOL0     C24473   4.460   1.889   0.165 -0.2653  0.7276  0.6935
  178MOL0     O24474   4.387   1.661   0.374  0.2209 -0.6333 -0.5035
  178MOL0     C24475   4.084   1.793   0.432 -0.0632 -0.1176  0.1428
  178MOL0     C24476   3.967   1.782   0.510 -0.2934 -0.7194  0.6700
  178MOL0     N24477   3.184   1.886   0.581  0.0956  0.2936  0.7918
  178MOL0     N24478   3.068   1.900   0.654 -0.6232  0.1874 -0.5135
  178MOL0     C24479   2.326   2.557   0.524 -0.0380  0.4995  0.1381
  178MOL0     C24480   2.260   2.661   0.445  0.6281 -0.1466 -0.4687
  178MOL0     C24481   2.151   3.078   0.340  0.5052 -0.5188 -0.5855
  178MOL0     C24482   2.186   3.123   0.207  0.0178 -0.1758 -0.4881
  178MOL0     C24483   2.121   3.242   0.153 -0.2874  1.1500  0.1479
  178MOL0     C24484   2.032   3.314   0.224 -1.4710  0.3600 -0.1950
  178MOL0     O24485   1.991   3.427   0.164 -0.8531  0.2613  0.4290
  178MOL0     C24486   1.897   3.507   0.245  0.0839 -0.1334  0.1263
  178MOL0     C24487   1.854   3.623   0.148 -1.0217 -0.9003 -0.8855
  178MOL0     C24488   1.962   3.698   0.071 -1.6741 -0.2760  0.2768
  178MOL0     C24489   1.921   3.814  -0.028  0.5154  0.1331 -0.5424
  178MOL0     C24490   1.970   3.952   0.010 -0.2949 -0.1744 -0.0199
  178MOL0     C24491   2.019   4.058   0.038  0.1326  0.4913 -0.3552
  178MOL0     C24492   1.989   3.254   0.347 -0.9452  0.1097 -0.6957
  178MOL0     C24493   2.040   3.141   0.407  0.0004 -0.7119  0.4961
  178MOL0     C24494   2.006   3.111   0.552  0.3310 -0.4740 -0.3763
  178MOL0     H24495   2.157   2.851   0.703  0.2293  2.4002 -4.1047
  178MOL0     H24496   2.210   2.650   0.835 -2.2326 -0.2640  0.4471
  178MOL0     H24497   2.215   2.329   0.614  2.0359  1.9904 -1.2865
  178MOL0     H24498   2.209   2.281   0.784 -2.4589 -1.1951 -2.7515
  178MOL0     H24499   2.339   2.118   0.688 -0.6048 -0.1226 -2.4487
  178MOL0     H24500   2.427   2.240   0.578  1.3587  1.8832  0.9577
  178MOL0     H24501   2.560   2.310   0.759  1.2562 -1.5308 -1.9943
  178MOL0     H24502   2.462   2.218   0.880  1.6064  1.7905  0.9022
  178MOL0     H24503   2.565   2.011   0.755 -0.4421  0.3206 -0.8572
  178MOL0     H24504   2.658   2.129   0.653 -1.7114  1.8021 -0.8415
  178MOL0     H24505   2.676   2.117   0.960 -1.0165  1.5771 -0.3166
  178MOL0     H24506   2.750   2.218   0.843 -1.9251  0.4541 -0.5438
  178MOL0     H24507   2.791   1.912   0.819 -1.1277  0.0072  0.7266
  178MOL0     H24508   2.864   2.049   0.724 -1.1881 -0.4584  0.5564
  178MOL0     H24509   2.903   2.012   1.021 -0.4811  1.1691 -0.2182
  178MOL0     H24510   3.000   2.111   0.901  1.7367 -0.6329  0.1979
  178MOL0     H24511   3.089   1.881   0.991 -2.3140  0.3125  2.5729
  178MOL0     H24512   2.965   1.810   0.900 -1.2036  1.1711 -1.0016
  178MOL0     H24513   3.302   1.902   0.884  0.7593 -4.4801  0.7297
  178MOL0     H24514   3.469   1.997   0.666 -1.4120  1.3409 -0.4649
  178MOL0     H24515   3.437   1.917   0.517  3.6436 -4.1361 -0.6721
  178MOL0     H24516   3.495   1.776   0.782 -2.7381  2.8145  0.4114
  178MOL0     H24517   3.471   1.699   0.628 -0.5287  1.5204 -0.7663
  178MOL0     H24518   3.659   1.781   0.528  0.0790  0.9127 -0.5066
  178MOL0     H24519   3.685   1.915   0.649  1.3390 -1.5096  2.3103
  178MOL0     H24520   3.830   1.827   0.728 -1.3086  1.0672 -3.1745
  178MOL0     H24521   3.725   1.706   0.811  0.7830 -0.5723  0.7753
  178MOL0     H24522   3.972   1.458   0.588 -1.3195  0.5650 -1.3707
  178MOL0     H24523   4.141   1.359   0.501 -0.6772 -0.0211 -1.3003
  178MOL0     H24524   4.299   1.422   0.473  0.4567  1.0196  1.1872
  178MOL0     H24525   4.181   1.406   0.337  1.2983 -0.3629  0.3733
  178MOL0     H24526   4.309   1.637   0.004 -1.1960  1.9008 -2.5058
  178MOL0     H24527   4.513   1.654  -0.136 -3.0770 -1.2031  1.4616
  178MOL0     H24528   4.761   1.650  -0.143  2.4364 -0.0148 -0.4697
  178MOL0     H24529   4.739   1.748  -0.283 -0.2554  0.8361  0.1899
  178MOL0     H24530   4.933   1.878  -0.207  1.4363 -0.0652 -1.5465
  178MOL0     H24531   4.956   1.786  -0.065 -1.5226 -2.2837  0.2391
  178MOL0     H24532   5.112   1.690  -0.260  0.9472 -3.0927 -0.4011
  178MOL0     H24533   4.967   1.657  -0.344  1.3600 -1.3927 -0.0851
  178MOL0     H24534   4.915   1.480  -0.180  0.7213  0.5190 -1.9163
  178MOL0     H24535   5.047   1.545  -0.076  0.2002 -1.4250  1.2303
  178MOL0     H24536   5.087   1.455  -0.367  0.8731  2.4269  0.9190
  178MOL0     H24537   5.206   1.477  -0.245 -0.1705  1.8505 -1.1149
  178MOL0     H24538   5.177   1.248  -0.286 -1.9773 -0.1932 -1.2095
  178MOL0     H24539   5.009   1.252  -0.239 -0.3709 -1.5228  1.7370
  178MOL0     H24540   5.110   1.167  -0.045 -1.7426  0.3990  2.5692
  178MOL0     H24541   5.066   1.329  -0.012 -1.9892 -1.5399 -1.1444
  178MOL0     H24542   5.291   1.325   0.073 -1.6276  2.7604 -0.8005
  178MOL0     H24543   5.315   1.391  -0.093 -1.9380 -1.2115 -3.7820
  178MOL0     H24544   4.642   1.977   0.111 -1.9333  1.9047 -0.2580
  178MOL0     H24545   4.457   1.963   0.245  0.8171  3.0347 -1.2921
  178MOL0     H24546   4.111   1.887   0.384  1.3031  0.6504  2.2819
  178MOL0     H24547   3.907   1.872   0.523  0.9350  0.3305 -0.6166
  178MOL0     H24548   2.376   2.473   0.478 -0.3592  0.4252 -0.0815
  178MOL0     H24549   2.274   2.666   0.337  1.4247  1.2966 -0.3320
  178MOL0     H24550   2.263   3.068   0.155  0.0630  0.1105 -0.7250
  178MOL0     H24551   2.162   3.269   0.056 -2.5037 -0.6603 -1.4087
  178MOL0     H24552   1.811   3.453   0.285 -0.2695 -1.2008 -1.9279
  178MOL0     H24553   1.962   3.551   0.321 -0.9373  0.5445  0.6237
  178MOL0     H24554   1.797   3.700   0.200 -1.0895 -0.5333 -1.4925
  178MOL0     H24555   1.792   3.585   0.067 -0.6361 -1.0781 -1.1002
  178MOL0     H24556   2.042   3.732   0.136 -0.9434 -0.6873 -0.3895
  178MOL0     H24557   2.020   3.624   0.015 -0.8923  0.8301 -0.4151
  178MOL0     H24558   1.813   3.825  -0.040  0.1785 -1.0893  0.9515
  178MOL0     H24559   1.972   3.789  -0.121  4.5010 -0.4087  1.5959
  178MOL0     H24560   2.072   4.150   0.055  1.3571  0.0940 -1.7747
  178MOL0     H24561   1.914   3.308   0.405  1.8502  1.2620  2.1295
  178MOL0     H24562   2.054   3.184   0.619 -0.6879 -1.5744  1.6408
  178MOL0     H24563   1.898   3.110   0.565  0.2568 -1.1424 -1.0246
  178MOL0     H24564   2.039   3.017   0.597  0.7928 -0.5474 -0.8580
  179MOL0     O24565   5.322   9.527   4.778 -0.4313 -0.7158  0.4205
  179MOL0     C24566   5.227   9.592   4.823  0.1335  0.1749  0.7890
  179MOL0     O24567   5.223   9.660   4.945 -0.4369  0.4909 -0.1069
  179MOL0     C24568   5.339   9.650   5.013  0.3498  0.3631 -0.0273
  179MOL0     C24569   5.435   9.751   5.009 -0.2187  0.1162 -0.4317
  179MOL0     C24570   5.550   9.739   5.089  1.1538 -0.5470  0.5585
  179MOL0     C24571   5.576   9.627   5.161 -0.1841 -1.1744  0.1074
  179MOL0     O24572   5.698   9.604   5.224 -0.6520  0.0154 -0.4877
  179MOL0     C24573   5.772   9.717   5.263 -0.1948  0.0403  0.8546
  179MOL0     C24574   5.900   9.665   5.340  0.2911 -0.1759  0.4346
  179MOL0     C24575   6.012   9.609   5.257 -0.1105 -0.2099  0.2098
  179MOL0     C24576   6.070   9.703   5.153 -1.1846  0.5182  0.5931
  179MOL0     C24577   6.188   9.637   5.086 -0.0639  0.1935 -0.4638
  179MOL0     C24578   6.258   9.714   4.975  0.2058  0.1242  0.3695
  179MOL0     C24579   6.382   9.644   4.927  0.0952  0.0103  0.2327
  179MOL0     C24580   6.455   9.718   4.820 -0.0949 -0.2479  0.5573
  179MOL0     N24581   6.591   9.667   4.790  0.2793 -0.7340 -0.0217
  179MOL0     C24582   6.625   9.540   4.754  1.2254  0.2230 -0.4956
  179MOL0     C24583   6.755   9.529   4.738  0.2031  0.1464 -0.3335
  179MOL0     C24584   6.835   9.397   4.728  0.1172 -0.4841  0.3684
  179MOL0     C24585   6.937   9.392   4.840 -1.4743  0.4042  0.4724
  179MOL0     C24586   7.008   9.256   4.828 -0.6067  0.0263  0.3093
  179MOL0     C24587   7.059   9.196   4.969  0.7273 -0.1189 -0.1511
  179MOL0     O24588   6.938   9.167   5.055 -0.3567 -0.7970  0.0901
  179MOL0     C24589   6.950   9.128   5.184 -0.1316 -0.6698 -0.1358
  179MOL0     C24590   6.830   9.125   5.251  0.3286  0.3372  0.4830
  179MOL0     C24591   6.819   9.090   5.389 -0.8193  0.1541 -0.8382
  179MOL0     C24592   6.686   9.096   5.463  0.0181 -0.0935  0.5575
  179MOL0     C24593   6.936   9.061   5.455 -0.1196  0.3777 -0.4292
  179MOL0     C24594   6.952   9.039   5.608  0.5210 -0.3287  0.3069
  179MOL0     O24595   7.043   8.959   5.655  0.2326 -0.2021  0.1618
  179MOL0     C24596   7.061   8.933   5.793 -0.2932 -0.0563  0.2753
  179MOL0     C24597   6.968   8.863   5.870 -0.4421  0.1699 -0.6361
  179MOL0     C24598   7.006   8.840   6.009 -0.9130 -0.0776  0.0753
  179MOL0     C24599   7.129   8.885   6.063 -1.6843  0.5291  0.3829
  179MOL0     O24600   7.180   8.876   6.191  0.1958  0.4165  0.1242
  179MOL0     C24601   7.101   8.802   6.287 -0.4216  0.0797 -0.1237
  179MOL0     C24602   7.180   8.771   6.406 -0.6131  0.0205  0.1217
  179MOL0     C24603   7.283   8.673   6.362  0.7920 -0.3977  1.1443
  179MOL0     C24604   7.350   8.617   6.488 -1.1605  0.3234  0.7234
  179MOL0     C24605   7.443   8.506   6.445  0.6666  0.6451  0.4098
  179MOL0     C24606   7.563   8.555   6.366 -0.5793  0.1042 -0.1528
  179MOL0     C24607   7.669   8.441   6.342  1.4445 -0.2153  0.1865
  179MOL0     C24608   7.619   8.342   6.239  0.1463 -0.4359 -0.2869
  179MOL0    Cl24609   7.741   8.227   6.191 -0.1519 -0.7182 -0.2669
  179MOL0     C24610   7.213   8.948   5.980 -0.2098 -0.4996  0.4912
  179MOL0     C24611   7.186   8.971   5.845  0.1764  0.6988 -0.0179
  179MOL0     O24612   6.863   9.098   5.672 -0.0142 -0.0932  0.3061
  179MOL0     C24613   7.066   9.054   5.392  0.0639 -0.5105  0.2538
  179MOL0     C24614   7.071   9.089   5.247 -0.0927 -1.0621  0.1950
  179MOL0     N24615   6.804   9.653   4.774  0.4986 -0.3155 -0.2273
  179MOL0     N24616   6.703   9.742   4.794 -0.0591 -0.1738  0.2516
  179MOL0     C24617   5.484   9.521   5.167 -0.7935  0.0009 -0.5217
  179MOL0     C24618   5.366   9.531   5.088  0.2402  0.8148 -0.6480
  179MOL0     C24619   5.110   9.585   4.727 -0.9915  0.5390 -0.1062
  179MOL0     C24620   5.117   9.497   4.611 -0.2044  0.0805 -0.8896
  179MOL0     C24621   5.001   9.476   4.537 -0.2348 -0.4329  0.2210
  179MOL0     C24622   4.886   9.538   4.568  0.3748  0.3519 -0.6555
  179MOL0     O24623   4.764   9.527   4.498 -0.0350 -0.1257  0.6484
  179MOL0     C24624   4.763   9.455   4.372 -0.8447  0.5083 -0.1133
  179MOL0     C24625   4.767   9.302   4.383 -0.8116 -0.5469  0.7034
  179MOL0     C24626   4.633   9.243   4.434  0.4639  0.0707  0.5462
  179MOL0     C24627   4.630   9.089   4.453 -0.6776 -0.1343  0.7904
  179MOL0     C24628   4.493   9.049   4.495  0.4447 -0.5836 -0.1240
  179MOL0     C24629   4.391   8.999   4.531 -1.1756 -0.1077  0.2496
  179MOL0     C24630   4.870   9.616   4.680  0.7337 -0.5944 -0.0696
  179MOL0     C24631   4.981   9.644   4.762  0.6255 -0.3271 -0.2816
  179MOL0     C24632   4.956   9.742   4.870 -0.6334  0.0152 -0.0160
  179MOL0     H24633   5.415   9.835   4.943  2.1544 -0.2306 -1.6984
  179MOL0     H24634   5.623   9.816   5.068  1.6991 -0.8973  1.1473
  179MOL0     H24635   5.719   9.778   5.337 -1.8446  0.0216 -0.2587
  179MOL0     H24636   5.790   9.784   5.178  0.3897  0.9198  1.6469
  179MOL0     H24637   5.942   9.746   5.400 -1.8193  1.5275 -0.2896
  179MOL0     H24638   5.870   9.591   5.414  3.1533 -3.2609 -1.1554
  179MOL0     H24639   6.091   9.580   5.328  0.5340 -0.5044 -0.6142
  179MOL0     H24640   5.967   9.520   5.211  2.3548 -0.1764 -2.5276
  179MOL0     H24641   5.991   9.722   5.080 -0.8309  0.8522  0.2937
  179MOL0     H24642   6.107   9.797   5.195  0.0686  1.8376 -3.0872
  179MOL0     H24643   6.154   9.543   5.041  1.2086  0.1696 -1.4264
  179MOL0     H24644   6.259   9.602   5.160 -0.6621 -0.5881 -0.2443
  179MOL0     H24645   6.192   9.721   4.888  0.1250  0.1179  0.4302
  179MOL0     H24646   6.287   9.816   5.004  1.1510 -0.6093  2.2235
  179MOL0     H24647   6.362   9.544   4.887  4.3014  0.0557 -2.6689
  179MOL0     H24648   6.449   9.638   5.014  0.5481  0.1961 -0.0998
  179MOL0     H24649   6.403   9.705   4.725 -0.1469 -0.4670  0.6161
  179MOL0     H24650   6.455   9.827   4.835  2.1827 -0.2478  1.0073
  179MOL0     H24651   6.562   9.454   4.737  3.8395 -2.1966  1.1054
  179MOL0     H24652   6.879   9.389   4.628  2.8079  0.0655  1.4272
  179MOL0     H24653   6.768   9.311   4.741  1.1205 -1.5826 -1.3792
  179MOL0     H24654   7.012   9.471   4.837  1.6072 -2.3710 -0.3085
  179MOL0     H24655   6.887   9.400   4.937  1.5196 -0.9378  2.2363
  179MOL0     H24656   6.938   9.185   4.784 -5.3354  3.8777  0.7943
  179MOL0     H24657   7.095   9.259   4.761 -0.0899  0.2107  0.9823
  179MOL0     H24658   7.122   9.110   4.943  1.0888  0.1620 -0.2206
  179MOL0     H24659   7.126   9.276   5.005  0.8851  0.5871 -1.9157
  179MOL0     H24660   6.747   9.170   5.197  1.1689  1.7506  0.3259
  179MOL0     H24661   6.677   9.025   5.546  0.2472 -0.8809 -0.0854
  179MOL0     H24662   6.602   9.071   5.398  1.7587 -0.4610 -1.7037
  179MOL0     H24663   6.669   9.193   5.511 -1.7850 -0.2891  0.3795
  179MOL0     H24664   6.866   8.838   5.843 -0.7283 -1.2064  1.4561
  179MOL0     H24665   6.933   8.798   6.078 -0.6174 -0.0151  0.4258
  179MOL0     H24666   7.024   8.870   6.325  0.0564  0.5713 -0.0213
  179MOL0     H24667   7.057   8.707   6.256  0.0947 -0.7456  1.5827
  179MOL0     H24668   7.231   8.859   6.446  1.8459 -2.0546  1.9058
  179MOL0     H24669   7.109   8.727   6.476 -1.8630  0.4504 -0.8375
  179MOL0     H24670   7.365   8.715   6.303  0.8166 -0.3213  1.2323
  179MOL0     H24671   7.240   8.583   6.316  2.0436 -1.1726  1.4274
  179MOL0     H24672   7.271   8.577   6.552 -1.8188 -2.3169 -1.5432
  179MOL0     H24673   7.408   8.693   6.541 -1.4883  0.3706  1.0154
  179MOL0     H24674   7.474   8.477   6.546 -0.5942  0.9295  0.9030
  179MOL0     H24675   7.390   8.426   6.393 -1.1033  1.1850  1.2909
  179MOL0     H24676   7.619   8.624   6.430  1.6356 -2.6750  1.1396
  179MOL0     H24677   7.539   8.592   6.266  0.0104  0.4948 -0.1536
  179MOL0     H24678   7.696   8.385   6.432  0.4291  0.4819  0.9528
  179MOL0     H24679   7.755   8.493   6.300 -0.0163  2.0692 -0.1784
  179MOL0     H24680   7.583   8.394   6.149 -0.7051  2.8708  1.8113
  179MOL0     H24681   7.530   8.290   6.276  1.6659 -2.1127  1.1614
  179MOL0     H24682   7.315   8.964   6.014 -0.2827 -1.2206  1.0638
  179MOL0     H24683   7.264   9.008   5.779  1.0305 -0.2378  0.4384
  179MOL0     H24684   7.165   9.031   5.430  0.5366  0.3397 -0.4243
  179MOL0     H24685   7.156   9.084   5.180  0.3538  3.4158  0.1639
  179MOL0     H24686   5.503   9.424   5.212  0.4578  0.0462 -0.9169
  179MOL0     H24687   5.297   9.448   5.084  0.5699  0.5519 -0.9403
  179MOL0     H24688   5.207   9.453   4.569  1.3422  1.1761  1.0511
  179MOL0     H24689   5.015   9.421   4.445  1.5598 -1.5921  1.1279
  179MOL0     H24690   4.678   9.489   4.312 -1.2123  0.8504  0.5890
  179MOL0     H24691   4.855   9.479   4.317  0.7849 -1.0115  1.8093
  179MOL0     H24692   4.854   9.284   4.446 -0.0472  4.5975  1.5663
  179MOL0     H24693   4.797   9.264   4.285 -1.2334  1.9455 -0.4813
  179MOL0     H24694   4.617   9.289   4.531  0.6447  0.7639  0.2500
  179MOL0     H24695   4.552   9.271   4.365  2.3198  2.0574 -0.9520
  179MOL0     H24696   4.695   9.060   4.536 -2.0231 -2.3733  1.1382
  179MOL0     H24697   4.655   9.039   4.359 -3.6422  0.2641 -0.3087
  179MOL0     H24698   4.305   8.939   4.552 -0.0266 -2.6209 -1.6998
  179MOL0     H24699   4.785   9.675   4.711  3.6447  2.8020  2.1941
  179MOL0     H24700   4.966   9.708   4.973  3.8223  0.8685  0.0311
  179MOL0     H24701   5.034   9.814   4.844 -0.5836  0.3499  1.0411
  179MOL0     H24702   4.862   9.798   4.874 -1.9995 -2.0556 -0.8103
  180MOL0     O24703   0.880  11.389  10.488 -0.2896  0.5348  0.6245
  180MOL0     C24704   0.880  11.512  10.486 -0.0303  0.3498  0.2027
  180MOL0     O24705   0.770  11.587  10.460 -0.0383 -0.5080 -0.3234
  180MOL0     C24706   0.648  11.535  10.482  0.1925 -0.4586 -0.3372
  180MOL0     C24707   0.543  11.574  10.397  0.0217  0.1302  0.1114
  180MOL0     C24708   0.415  11.507  10.396 -0.4450  0.9970 -0.5522
  180MOL0     C24709   0.383  11.428  10.507 -0.2065 -0.0398 -1.4171
  180MOL0     O24710   0.256  11.380  10.511  0.1067  1.3310  0.5616
  180MOL0     C24711   0.249  11.241  10.558 -0.2949 -0.2904  0.3174
  180MOL0     C24712   0.324  11.135  10.473 -0.6997  0.0370  0.1327
  180MOL0     C24713   0.236  11.065  10.376  0.4004 -0.1291  0.4622
  180MOL0     C24714   0.304  10.987  10.272  0.7712 -0.8844 -0.3727
  180MOL0     C24715   0.218  10.925  10.154 -0.4116 -0.0073 -0.6581
  180MOL0     C24716   0.164  11.023  10.052  1.0634 -0.4602  0.0226
  180MOL0     C24717   0.089  10.954   9.941  0.3124  0.3534 -0.5507
  180MOL0     C24718   0.065  11.039   9.823  0.0072 -0.5552 -1.0414
  180MOL0     N24719   0.062  10.962   9.704  0.8079  0.4437  0.4618
  180MOL0     C24720   0.166  10.970   9.612  0.5710 -0.0629 -0.6509
  180MOL0     C24721   0.128  10.888   9.515  0.1284  0.2626 -0.2689
  180MOL0     C24722   0.198  10.866   9.372  0.3887  0.7231 -0.4848
  180MOL0     C24723   0.255  10.986   9.297  0.2259  0.6586 -0.3485
  180MOL0     C24724   0.288  10.954   9.149 -0.3799  0.3677 -0.2380
  180MOL0     C24725   0.366  11.069   9.097 -0.2815 -0.0277 -0.2346
  180MOL0     O24726   0.422  11.028   8.974 -0.9646  0.4468 -0.3173
  180MOL0     C24727   0.490  11.126   8.908  0.3361 -0.3650  1.1275
  180MOL0     C24728   0.434  11.244   8.861  0.2272 -0.6618  0.5588
  180MOL0     C24729   0.512  11.335   8.785  0.6698 -0.6954  0.0733
  180MOL0     C24730   0.435  11.459   8.740 -0.4469  0.2922  0.4754
  180MOL0     C24731   0.647  11.311   8.745 -0.4411 -0.0558  0.3435
  180MOL0     C24732   0.740  11.390   8.663  0.8186 -0.0924  0.0542
  180MOL0     O24733   0.688  11.496   8.591 -0.1282 -0.4018  0.4167
  180MOL0     C24734   0.776  11.588   8.535 -0.6622  0.0728  0.7255
  180MOL0     C24735   0.802  11.718   8.583  0.8128  0.6680  0.3220
  180MOL0     C24736   0.897  11.797   8.524  0.6452  0.0098 -0.7266
  180MOL0     C24737   0.968  11.755   8.410  0.0959 -0.4415  1.2072
  180MOL0     O24738   1.048  11.852   8.354  0.2752  0.5378 -0.5076
  180MOL0     C24739   1.107  11.830   8.220 -0.5186 -0.4608 -0.7875
  180MOL0     C24740   1.025  11.895   8.110  0.1446 -0.1181  0.3498
  180MOL0     C24741   0.880  11.830   8.086 -0.6805 -0.9261 -0.2240
  180MOL0     C24742   0.812  11.917   7.982 -0.0873 -0.1129  0.0313
  180MOL0     C24743   0.655  11.886   7.985  0.1629  0.1532 -0.5661
  180MOL0     C24744   0.598  11.977   7.869 -0.4772  0.0868 -0.0636
  180MOL0     C24745   0.494  12.084   7.917  0.2806  0.0725  0.2548
  180MOL0     C24746   0.351  12.046   7.943 -0.5867 -0.4000 -0.1882
  180MOL0    Cl24747   0.246  12.040   7.793 -0.0807 -0.2189 -0.2889
  180MOL0     C24748   0.948  11.626   8.363  0.6125  0.6120 -0.3131
  180MOL0     C24749   0.857  11.543   8.434 -0.8428  0.2420 -0.3795
  180MOL0     O24750   0.861  11.362   8.666  0.5556 -0.3507  1.0682
  180MOL0     C24751   0.694  11.187   8.798 -0.1445  0.9096 -0.2222
  180MOL0     C24752   0.618  11.088   8.864 -0.4940  0.0078 -0.4050
  180MOL0     N24753   0.005  10.830   9.547 -0.0641  0.0119 -0.7654
  180MOL0     N24754  -0.037  10.881   9.661 -0.1614  0.1385  0.0978
  180MOL0     C24755   0.487  11.399  10.602  0.4743  0.2066  0.6674
  180MOL0     C24756   0.615  11.459  10.588 -0.2034  0.1938 -0.1268
  180MOL0     C24757   1.005  11.579  10.505  0.1764  0.2734  0.1719
  180MOL0     C24758   0.995  11.709  10.561  0.4638 -0.4499 -0.0182
  180MOL0     C24759   1.112  11.781  10.603 -0.0112 -0.0130 -1.0053
  180MOL0     C24760   1.239  11.730  10.582  0.1703  0.0368  1.2003
  180MOL0     O24761   1.344  11.809  10.618 -0.3080 -0.5318  0.3084
  180MOL0     C24762   1.458  11.796  10.535  0.0840  0.5858 -0.0705
  180MOL0     C24763   1.550  11.908  10.583  0.3833  0.1243  0.7528
  180MOL0     C24764   1.684  11.905  10.496  0.1707 -0.6441 -0.9312
  180MOL0     C24765   1.671  11.886  10.341  0.3960  0.2767 -0.2695
  180MOL0     C24766   1.658  11.743  10.301 -0.1329 -0.8372 -0.3449
  180MOL0     C24767   1.660  11.633  10.253 -0.4100 -0.0339 -0.5050
  180MOL0     C24768   1.245  11.604  10.516 -0.3235  0.3347  0.1083
  180MOL0     C24769   1.136  11.525  10.477  0.3812  0.0238 -0.1000
  180MOL0     C24770   1.150  11.384  10.410 -0.3562  0.0304  0.1671
  180MOL0     H24771   0.574  11.646  10.322 -2.5905  2.0473  0.7356
  180MOL0     H24772   0.339  11.529  10.322 -1.1982  5.6357  1.2453
  180MOL0     H24773   0.143  11.217  10.561 -0.6819  1.1789 -0.3993
  180MOL0     H24774   0.286  11.225  10.660 -1.1936 -0.9365  0.5518
  180MOL0     H24775   0.398  11.189  10.414  0.8666 -0.4749  1.5540
  180MOL0     H24776   0.373  11.069  10.546 -0.1565  0.3090  0.0159
  180MOL0     H24777   0.169  10.996  10.428 -0.8822 -0.8117 -1.9524
  180MOL0     H24778   0.171  11.142  10.334  0.8965 -1.3114 -2.6892
  180MOL0     H24779   0.376  11.058  10.231  0.2149  0.2000  0.4957
  180MOL0     H24780   0.371  10.908  10.308 -0.2081 -0.1290  3.5353
  180MOL0     H24781   0.135  10.873  10.202  0.4648  0.8154  1.9020
  180MOL0     H24782   0.268  10.841  10.106 -2.1312 -2.4808  1.5925
  180MOL0     H24783   0.098  11.094  10.103  1.7451  1.1121 -1.2006
  180MOL0     H24784   0.244  11.084  10.009  1.3233 -0.2783  0.7512
  180MOL0     H24785  -0.007  10.928   9.985 -1.5603  1.4822 -3.6059
  180MOL0     H24786   0.147  10.868   9.908 -0.2430  0.8169 -2.9472
  180MOL0     H24787  -0.020  11.106   9.837  0.1828 -0.6730  0.7867
  180MOL0     H24788   0.151  11.106   9.820  0.4321 -1.0846 -0.9064
  180MOL0     H24789   0.257  11.028   9.621 -0.0523  0.9192 -0.5274
  180MOL0     H24790   0.135  10.806   9.305  0.6249  0.4583 -0.4736
  180MOL0     H24791   0.285  10.805   9.395  1.0543  0.3873 -3.4788
  180MOL0     H24792   0.191  11.074   9.304 -0.7771 -0.1661  1.4419
  180MOL0     H24793   0.342  11.025   9.351  1.1092  1.0339 -1.9532
  180MOL0     H24794   0.344  10.860   9.152  1.7053  1.5559  1.1485
  180MOL0     H24795   0.208  10.952   9.075  0.5402 -4.6405 -1.4598
  180MOL0     H24796   0.299  11.153   9.080 -0.8305 -0.2428  0.7525
  180MOL0     H24797   0.447  11.102   9.164 -0.1172 -0.5654 -0.1634
  180MOL0     H24798   0.329  11.271   8.869  0.8190  2.2010 -0.1308
  180MOL0     H24799   0.336  11.478   8.782 -0.5454  2.1679 -0.4741
  180MOL0     H24800   0.411  11.437   8.635 -0.2753  0.8810  0.3052
  180MOL0     H24801   0.495  11.549   8.753 -0.4412  0.1108  1.8496
  180MOL0     H24802   0.737  11.739   8.667 -1.0654  3.1055 -1.6102
  180MOL0     H24803   0.915  11.893   8.572 -1.1595 -1.0016  2.2265
  180MOL0     H24804   1.204  11.881   8.230 -0.6323 -0.1748 -1.1133
  180MOL0     H24805   1.129  11.724   8.206 -0.7880 -0.6905  0.4410
  180MOL0     H24806   1.022  12.003   8.123  0.1415 -0.2568  1.7169
  180MOL0     H24807   1.080  11.885   8.016  0.2693  4.1429 -0.1951
  180MOL0     H24808   0.830  11.817   8.182  0.3174 -0.6393  0.3543
  180MOL0     H24809   0.895  11.732   8.040  0.4580 -0.3988 -1.0376
  180MOL0     H24810   0.863  11.892   7.888  0.6417  1.1810  0.0655
  180MOL0     H24811   0.818  12.024   8.001  0.9669  0.5750 -3.4879
  180MOL0     H24812   0.630  11.781   7.968 -3.1131  0.6530  0.4695
  180MOL0     H24813   0.620  11.912   8.085  0.6461  1.6220 -0.7458
  180MOL0     H24814   0.565  11.910   7.789  0.7381  1.3920 -1.7261
  180MOL0     H24815   0.677  12.036   7.823 -0.3160  1.2796  1.6781
  180MOL0     H24816   0.487  12.152   7.831  1.2234  0.1303  0.2097
  180MOL0     H24817   0.525  12.134   8.009  0.9103 -0.2769  0.2408
  180MOL0     H24818   0.323  12.128   8.011  0.6469 -0.7896  0.8158
  180MOL0     H24819   0.335  11.954   7.999 -1.8494 -0.8421 -1.2107
  180MOL0     H24820   1.010  11.584   8.285  2.2656  1.3357  0.5792
  180MOL0     H24821   0.856  11.442   8.396  0.8191  0.0958 -0.1129
  180MOL0     H24822   0.795  11.152   8.778 -0.9149 -0.8909 -1.2449
  180MOL0     H24823   0.647  10.987   8.891 -0.9354 -0.1265 -0.4092
  180MOL0     H24824   0.458  11.333  10.683 -0.9112 -0.3799 -0.2617
  180MOL0     H24825   0.684  11.435  10.669 -1.8735 -1.5970  0.8784
  180MOL0     H24826   0.900  11.759  10.575  1.9864  2.0335  2.4838
  180MOL0     H24827   1.109  11.867  10.669  0.3676 -0.4322 -0.4254
  180MOL0     H24828   1.507  11.699  10.549  0.9394  0.6396 -2.3142
  180MOL0     H24829   1.435  11.810  10.429  2.1580  3.7430 -0.2110
  180MOL0     H24830   1.568  11.898  10.690 -0.9159 -0.8734  0.8902
  180MOL0     H24831   1.496  12.001  10.560  0.3088 -0.4992 -2.0302
  180MOL0     H24832   1.727  12.005  10.513 -1.7149  0.1024 -0.2461
  180MOL0     H24833   1.749  11.831  10.544  2.3149 -0.7390 -3.7715
  180MOL0     H24834   1.760  11.934  10.300 -0.0821  3.5263  2.0484
  180MOL0     H24835   1.583  11.933  10.296  0.9650  0.5244 -1.1501
  180MOL0     H24836   1.669  11.542  10.196  2.2990  0.8622 -1.7272
  180MOL0     H24837   1.340  11.562  10.485 -1.0807 -1.9645  0.6357
  180MOL0     H24838   1.083  11.365  10.326 -0.1376 -1.4817  0.3052
  180MOL0     H24839   1.251  11.365  10.373 -0.5476  1.3164 -1.1073
  180MOL0     H24840   1.129  11.316  10.493 -1.0661  0.1282  0.0715
  181MOL0     O24841   3.907   0.547   9.627 -0.2968 -0.1488 -0.5967
  181MOL0     C24842   3.932   0.449   9.566 -0.1189 -0.4160 -0.0410
  181MOL0     O24843   3.845   0.387   9.474 -0.0217  0.5078  0.2151
  181MOL0     C24844   3.750   0.455   9.407 -0.6788 -0.1221 -0.1058
  181MOL0     C24845   3.749   0.590   9.370 -0.5078  0.4913  0.3653
  181MOL0     C24846   3.640   0.650   9.298 -1.2867 -0.1308  1.1606
  181MOL0     C24847   3.530   0.572   9.264 -0.6649  0.5671 -0.4267
  181MOL0     O24848   3.447   0.629   9.171 -0.5084  0.5593  0.0086
  181MOL0     C24849   3.321   0.564   9.170  0.1360 -0.7901 -0.0877
  181MOL0     C24850   3.243   0.650   9.075  0.1038  0.9635 -0.0158
  181MOL0     C24851   3.090   0.625   9.083 -0.1897 -0.2014  0.1380
  181MOL0     C24852   3.021   0.700   8.969  0.4158  0.0634 -0.3661
  181MOL0     C24853   2.875   0.680   8.991 -0.6551  0.7079  0.0618
  181MOL0     C24854   2.800   0.730   8.864 -0.2413  0.6189  0.2491
  181MOL0     C24855   2.666   0.790   8.910  0.4954 -0.1949 -0.1926
  181MOL0     C24856   2.609   0.881   8.804 -0.1077  0.8002 -0.3393
  181MOL0     N24857   2.528   0.803   8.702 -0.0817 -0.0774 -0.0053
  181MOL0     C24858   2.393   0.792   8.714  0.1325 -0.0574  0.8755
  181MOL0     C24859   2.367   0.710   8.606  0.2095 -0.3864 -0.0623
  181MOL0     C24860   2.229   0.654   8.566  0.4285 -1.2942  0.8147
  181MOL0     C24861   2.165   0.739   8.453  0.1225  0.5603  0.1070
  181MOL0     C24862   2.130   0.659   8.320  0.2287  0.2490 -0.4206
  181MOL0     C24863   2.254   0.602   8.256 -1.1371 -0.1136 -0.3610
  181MOL0     O24864   2.216   0.577   8.121  1.2570 -0.7500 -0.3137
  181MOL0     C24865   2.300   0.512   8.039 -0.0058 -0.3635  0.2585
  181MOL0     C24866   2.429   0.459   8.055  0.2088  0.1087 -0.4913
  181MOL0     C24867   2.498   0.403   7.941  0.1091 -0.2474  0.3010
  181MOL0     C24868   2.634   0.346   7.977 -0.2846  0.7483  0.4146
  181MOL0     C24869   2.440   0.409   7.815  0.4674  0.3525  0.5714
  181MOL0     C24870   2.499   0.357   7.698  0.4243  0.3016  0.0962
  181MOL0     O24871   2.407   0.343   7.589 -0.4602  0.1658 -0.0756
  181MOL0     C24872   2.452   0.336   7.467 -0.9559 -0.1049  1.1113
  181MOL0     C24873   2.438   0.450   7.383  0.1455 -0.4614  0.5364
  181MOL0     C24874   2.476   0.441   7.244 -0.1260 -0.3129 -0.0335
  181MOL0     C24875   2.555   0.334   7.205  0.2540  0.4910  0.7561
  181MOL0     O24876   2.600   0.351   7.078  0.4046  0.0826  0.0111
  181MOL0     C24877   2.647   0.243   7.000 -0.4597  0.5413 -0.4308
  181MOL0     C24878   2.798   0.236   7.027  0.6460 -0.2957 -0.3264
  181MOL0     C24879   2.872   0.132   6.932  0.6455  0.0481 -0.1338
  181MOL0     C24880   2.819  -0.013   6.955  0.0753 -0.5748  0.5790
  181MOL0     C24881   2.902  -0.117   6.880  0.6824  0.1422 -0.1401
  181MOL0     C24882   2.928  -0.092   6.730 -0.5861 -0.8475 -0.4848
  181MOL0     C24883   2.991  -0.216   6.668  0.9986 -0.4190 -0.3218
  181MOL0     C24884   2.882  -0.309   6.624  0.2716  0.5542  0.2827
  181MOL0    Cl24885   2.949  -0.439   6.515 -0.2171  0.3561 -0.2832
  181MOL0     C24886   2.570   0.229   7.288  0.1197  0.6203 -0.2859
  181MOL0     C24887   2.516   0.223   7.417 -0.1836 -0.5257  0.1089
  181MOL0     O24888   2.619   0.347   7.675 -0.5438  0.3856  0.6166
  181MOL0     C24889   2.305   0.453   7.805 -0.2621 -0.3856 -0.2143
  181MOL0     C24890   2.243   0.511   7.916 -0.2317 -0.2954 -0.3868
  181MOL0     N24891   2.483   0.689   8.535 -0.0189 -0.0135  0.4955
  181MOL0     N24892   2.578   0.749   8.595 -0.0096  0.3586 -1.2140
  181MOL0     C24893   3.521   0.435   9.318 -0.2544  0.0041 -0.1864
  181MOL0     C24894   3.631   0.378   9.379 -0.3002 -1.2391  0.4232
  181MOL0     C24895   4.068   0.386   9.602  0.5841 -0.1947 -0.1903
  181MOL0     C24896   4.123   0.288   9.508  0.6799  0.1933  0.9204
  181MOL0     C24897   4.242   0.230   9.523 -0.1334 -0.0071 -0.3351
  181MOL0     C24898   4.312   0.251   9.653 -0.0547  0.2364  0.1468
  181MOL0     O24899   4.434   0.190   9.704  0.2593  0.1457  0.8637
  181MOL0     C24900   4.505   0.106   9.611  0.0107  0.2063 -0.4940
  181MOL0     C24901   4.637   0.065   9.673  0.2095  0.9131 -1.0207
  181MOL0     C24902   4.622  -0.039   9.784 -0.3824 -0.5731 -0.3581
  181MOL0     C24903   4.740  -0.068   9.864 -0.3528  0.3267 -0.3617
  181MOL0     C24904   4.863  -0.056   9.791  0.3205  0.6777 -0.4304
  181MOL0     C24905   4.957  -0.050   9.716 -0.6811 -0.7751 -1.6258
  181MOL0     C24906   4.265   0.346   9.734  0.5963 -0.1448 -0.8141
  181MOL0     C24907   4.149   0.412   9.720  0.6977  1.1249 -0.7228
  181MOL0     C24908   4.088   0.481   9.833  0.7801  0.0620  0.0639
  181MOL0     H24909   3.839   0.649   9.388 -2.0922  2.9638  0.6820
  181MOL0     H24910   3.663   0.748   9.257 -0.3836 -0.2488  1.3593
  181MOL0     H24911   3.271   0.563   9.267  4.2262 -0.6207  2.2305
  181MOL0     H24912   3.320   0.464   9.127  1.4440 -0.7745 -0.1873
  181MOL0     H24913   3.256   0.751   9.114 -1.1838  1.1607 -0.0530
  181MOL0     H24914   3.268   0.642   8.968 -1.9105 -0.8309 -0.4183
  181MOL0     H24915   3.073   0.517   9.077  3.1059 -0.7573 -1.2033
  181MOL0     H24916   3.049   0.656   9.180 -3.3350  1.2279 -1.5103
  181MOL0     H24917   3.036   0.808   8.978 -0.5804  0.2265 -0.5566
  181MOL0     H24918   3.050   0.666   8.869 -0.8749 -0.8243 -0.4618
  181MOL0     H24919   2.848   0.726   9.086  2.3112  0.1632  1.2768
  181MOL0     H24920   2.860   0.572   8.991  3.9626 -0.1591 -0.5939
  181MOL0     H24921   2.852   0.813   8.815 -0.3481  1.2077  1.1013
  181MOL0     H24922   2.794   0.647   8.793  2.6749  2.4986 -2.4548
  181MOL0     H24923   2.675   0.857   8.995 -4.3534 -1.5811  1.7578
  181MOL0     H24924   2.599   0.712   8.947 -0.2088  0.2568 -0.4918
  181MOL0     H24925   2.548   0.958   8.853 -0.9961  1.6047 -2.6079
  181MOL0     H24926   2.693   0.929   8.754  3.3720 -3.5073  0.6700
  181MOL0     H24927   2.341   0.835   8.799 -0.8150  0.4983  0.0386
  181MOL0     H24928   2.172   0.653   8.659  0.3564  0.3040  0.8146
  181MOL0     H24929   2.245   0.550   8.538 -0.8310 -1.9037  2.3020
  181MOL0     H24930   2.078   0.794   8.490 -0.6225 -0.4009 -0.1801
  181MOL0     H24931   2.233   0.816   8.417  0.1674  0.8403  0.7742
  181MOL0     H24932   2.066   0.573   8.340 -0.7592  0.6327 -1.7578
  181MOL0     H24933   2.075   0.721   8.248  0.4102  2.4481  1.2156
  181MOL0     H24934   2.331   0.680   8.261 -1.9203  0.6085  1.2002
  181MOL0     H24935   2.297   0.520   8.314 -3.7840 -1.8614 -0.7088
  181MOL0     H24936   2.474   0.461   8.154  1.0934 -0.4284 -0.8729
  181MOL0     H24937   2.660   0.265   7.908 -2.8521 -0.6210  0.9345
  181MOL0     H24938   2.642   0.303   8.078  0.4203 -1.0476 -0.3705
  181MOL0     H24939   2.711   0.424   7.978 -0.0835  0.6024 -1.2852
  181MOL0     H24940   2.405   0.541   7.433 -1.5574 -0.9495  0.3488
  181MOL0     H24941   2.451   0.525   7.180 -2.3501 -0.9981 -0.1641
  181MOL0     H24942   2.605   0.146   7.030 -0.4360  0.4726 -0.6199
  181MOL0     H24943   2.627   0.245   6.893  0.9005 -2.4054 -0.8430
  181MOL0     H24944   2.844   0.335   7.032 -2.4810  1.3114 -0.6329
  181MOL0     H24945   2.805   0.207   7.132 -1.2307  1.5500  0.3911
  181MOL0     H24946   2.980   0.147   6.946  0.4743 -0.6137  2.3506
  181MOL0     H24947   2.842   0.162   6.831  0.0609 -0.2321 -0.0439
  181MOL0     H24948   2.721  -0.024   6.909  0.7267  0.7741 -1.2708
  181MOL0     H24949   2.818  -0.024   7.064  2.7603  0.8822  0.8411
  181MOL0     H24950   2.999  -0.127   6.931  0.5150  2.9661  0.9172
  181MOL0     H24951   2.845  -0.207   6.903  0.0439  1.5111  4.7716
  181MOL0     H24952   2.992  -0.005   6.713 -0.6413 -0.5069  0.9828
  181MOL0     H24953   2.838  -0.049   6.683  0.0448  0.0959 -0.8755
  181MOL0     H24954   3.054  -0.261   6.745 -0.2983 -1.9177 -0.0680
  181MOL0     H24955   3.053  -0.184   6.584 -0.2378  1.6401 -0.5216
  181MOL0     H24956   2.806  -0.254   6.568  1.5118 -1.4806 -3.7419
  181MOL0     H24957   2.833  -0.365   6.705  1.3010 -2.5184 -1.0792
  181MOL0     H24958   2.631   0.142   7.265  0.5094  1.4251 -2.5518
  181MOL0     H24959   2.526   0.143   7.490 -0.5668 -2.5786 -1.9764
  181MOL0     H24960   2.235   0.450   7.722  0.0229 -0.3582 -0.4597
  181MOL0     H24961   2.145   0.556   7.919 -0.7220 -1.3033 -0.8161
  181MOL0     H24962   3.443   0.364   9.296 -1.1689  0.3314  1.8312
  181MOL0     H24963   3.622   0.271   9.395 -2.3847 -0.9233  1.8112
  181MOL0     H24964   4.058   0.274   9.423 -2.0021  1.3051  2.6562
  181MOL0     H24965   4.276   0.161   9.447 -1.5429  1.0565 -1.9926
  181MOL0     H24966   4.445   0.016   9.592 -1.8297  1.1579  0.4648
  181MOL0     H24967   4.520   0.156   9.516 -1.4460  0.5931 -0.5453
  181MOL0     H24968   4.666   0.160   9.717 -1.5211  0.7255  0.7124
  181MOL0     H24969   4.710   0.037   9.597  1.6868 -2.0704  1.2805
  181MOL0     H24970   4.547   0.005   9.850 -0.3558  3.6072 -2.7902
  181MOL0     H24971   4.592  -0.137   9.746 -0.7781 -0.1580 -1.1428
  181MOL0     H24972   4.736  -0.167   9.910  2.2388  0.9985  1.5833
  181MOL0     H24973   4.743  -0.005   9.953 -1.2839 -1.4926  1.0213
  181MOL0     H24974   5.042  -0.023   9.657 -2.4793  1.0755 -3.5778
  181MOL0     H24975   4.316   0.375   9.825 -1.1735 -0.3002  0.2763
  181MOL0     H24976   3.984   0.449   9.847  0.7717  0.0521 -0.0121
  181MOL0     H24977   4.122   0.453   9.933  0.4398  1.7811  0.6957
  181MOL0     H24978   4.089   0.589   9.818 -2.1899  0.5259  2.3352
  182MOL0     O24979  10.711   1.755   8.276  0.6502 -0.2387 -0.1302
  182MOL0     C24980  10.604   1.705   8.306 -0.5113  0.4786 -0.2141
  182MOL0     O24981  10.553   1.595   8.252  0.3191 -0.4239  0.5220
  182MOL0     C24982  10.605   1.544   8.129 -0.8373 -0.0034  0.5573
  182MOL0     C24983  10.537   1.569   8.005 -0.0727 -0.7582  0.1219
  182MOL0     C24984  10.604   1.526   7.887  0.5368  0.1715  0.7355
  182MOL0     C24985  10.730   1.464   7.902 -1.1608  1.1888 -0.3359
  182MOL0     O24986  10.792   1.438   7.779 -0.5220 -0.6413 -0.3880
  182MOL0     C24987  10.869   1.555   7.734  0.0435 -0.1156 -0.7382
  182MOL0     C24988  10.974   1.497   7.641 -0.4080  0.2835  0.2286
  182MOL0     C24989  11.096   1.426   7.706 -0.8209  0.4553  0.7736
  182MOL0     C24990  11.180   1.353   7.600 -0.0753 -0.0468  0.7982
  182MOL0     C24991  11.321   1.311   7.641  0.0054 -0.0961 -0.3203
  182MOL0     C24992  11.417   1.427   7.617 -0.8770  0.5306 -0.2004
  182MOL0     C24993  11.561   1.415   7.668 -0.4450  1.0340 -0.6110
  182MOL0     C24994  11.626   1.283   7.614 -1.0579 -0.1902  0.6487
  182MOL0     N24995  11.767   1.271   7.653  0.0916 -0.1436 -0.5982
  182MOL0     C24996  11.834   1.276   7.770  0.0286 -0.1778  0.1268
  182MOL0     C24997  11.967   1.244   7.748  0.5842  0.1553 -0.1026
  182MOL0     C24998  12.071   1.232   7.849 -0.5176 -0.2058  0.7285
  182MOL0     C24999  12.113   1.088   7.857  0.1851  0.5584  0.2286
  182MOL0     C25000  12.253   1.072   7.907 -0.1298 -1.1748 -0.4221
  182MOL0     C25001  12.294   0.932   7.954  0.2283  0.6883 -0.9719
  182MOL0     O25002  12.429   0.942   8.002 -0.7790  0.1100 -0.2555
  182MOL0     C25003  12.511   0.830   7.983 -0.0800 -0.4006 -0.2898
  182MOL0     C25004  12.501   0.735   7.874 -0.0519  0.1404 -0.0440
  182MOL0     C25005  12.605   0.640   7.855 -0.7435  0.3575  0.4269
  182MOL0     C25006  12.593   0.557   7.726 -0.2663  0.0183 -0.1888
  182MOL0     C25007  12.712   0.629   7.952 -0.0362  0.3114 -0.0100
  182MOL0     C25008  12.826   0.530   7.945  0.3184  0.5802 -0.1105
  182MOL0     O25009  12.850   0.481   7.823 -0.1869 -1.1001  0.7971
  182MOL0     C25010  12.946   0.387   7.795 -1.1064  0.0419 -0.8392
  182MOL0     C25011  13.053   0.416   7.709 -0.4351 -0.2036 -1.1722
  182MOL0     C25012  13.136   0.316   7.674  1.2474  0.5588  0.3351
  182MOL0     C25013  13.134   0.188   7.724  0.0734 -0.4520 -0.2075
  182MOL0     O25014  13.232   0.103   7.685  0.3537 -0.4461 -1.0070
  182MOL0     C25015  13.183   0.005   7.594 -0.2652  0.4412  0.8707
  182MOL0     C25016  13.284  -0.109   7.583 -0.4240  0.2358  0.1512
  182MOL0     C25017  13.345  -0.167   7.707  0.5589  0.4939 -0.0300
  182MOL0     C25018  13.437  -0.283   7.685 -0.5422  0.4662 -0.0848
  182MOL0     C25019  13.560  -0.228   7.607 -0.6978  0.0950  0.0295
  182MOL0     C25020  13.662  -0.345   7.594  0.7859  0.3004 -0.1015
  182MOL0     C25021  13.807  -0.291   7.596 -0.6281  0.5703  0.3112
  182MOL0     C25022  13.860  -0.218   7.468 -0.4573 -0.2730  0.7247
  182MOL0    Cl25023  13.808  -0.042   7.477 -0.0944  0.2421 -0.0408
  182MOL0     C25024  13.030   0.152   7.809  0.4647 -0.1913 -0.0480
  182MOL0     C25025  12.944   0.253   7.837 -0.2308  0.5778 -0.7003
  182MOL0     O25026  12.894   0.499   8.037 -0.4435 -0.6992 -0.4311
  182MOL0     C25027  12.712   0.711   8.062  0.0336  0.7557 -0.2540
  182MOL0     C25028  12.621   0.823   8.073 -1.0300  0.0740  0.1407
  182MOL0     N25029  11.972   1.221   7.613  0.0388  0.6041  0.4116
  182MOL0     N25030  11.858   1.237   7.566  0.0458 -0.3619  0.6215
  182MOL0     C25031  10.795   1.439   8.021 -0.5945 -0.4175  0.0421
  182MOL0     C25032  10.720   1.467   8.138 -0.5887  0.7422 -0.9814
  182MOL0     C25033  10.521   1.774   8.410  0.1602  0.1100  0.6544
  182MOL0     C25034  10.387   1.732   8.418 -0.1775  0.7932 -0.6867
  182MOL0     C25035  10.298   1.782   8.511 -0.3393  0.0882 -0.0001
  182MOL0     C25036  10.333   1.894   8.591 -1.1658  0.1262 -0.0053
  182MOL0     O25037  10.263   1.950   8.690 -0.0387 -0.0964 -0.2144
  182MOL0     C25038  10.125   1.978   8.693 -0.2631  0.4141 -0.3311
  182MOL0     C25039  10.109   2.093   8.591  1.0496  0.2374  0.8512
  182MOL0     C25040   9.959   2.133   8.589 -1.2459 -0.3318 -0.0762
  182MOL0     C25041   9.935   2.250   8.484 -0.0267 -0.3162 -0.5240
  182MOL0     C25042   9.946   2.199   8.346 -0.0468 -0.7828 -0.5512
  182MOL0     C25043   9.959   2.169   8.229  0.1233 -0.2371  0.1424
  182MOL0     C25044  10.467   1.945   8.577  0.5068  0.1847 -0.6818
  182MOL0     C25045  10.558   1.883   8.500 -0.6855  0.1304  0.0259
  182MOL0     C25046  10.698   1.946   8.500 -0.6593 -1.1905 -0.5240
  182MOL0     H25047  10.447   1.630   8.010 -0.7081 -1.4225 -2.1056
  182MOL0     H25048  10.556   1.556   7.794  2.4410 -0.9141 -0.6830
  182MOL0     H25049  10.919   1.614   7.811 -2.7022  1.7255 -0.1927
  182MOL0     H25050  10.791   1.621   7.693 -0.7826 -0.9700 -0.5821
  182MOL0     H25051  10.924   1.432   7.569 -0.8531  0.4601  0.3718
  182MOL0     H25052  11.015   1.572   7.573  4.2949 -2.0085  0.2045
  182MOL0     H25053  11.155   1.512   7.740  0.1460 -0.3438  1.1651
  182MOL0     H25054  11.067   1.366   7.793 -3.2475 -0.6829 -0.7396
  182MOL0     H25055  11.128   1.258   7.584  3.7856 -2.3452  0.5671
  182MOL0     H25056  11.180   1.407   7.505 -4.2628 -2.4465 -0.8480
  182MOL0     H25057  11.351   1.219   7.589  0.8763 -0.3901  0.6552
  182MOL0     H25058  11.322   1.276   7.745  1.7715 -2.4272 -1.0218
  182MOL0     H25059  11.416   1.449   7.510  0.0012  2.0901  0.0831
  182MOL0     H25060  11.370   1.514   7.664 -3.0855 -0.4290 -0.4847
  182MOL0     H25061  11.560   1.424   7.777  0.3218 -0.1098 -0.4952
  182MOL0     H25062  11.617   1.500   7.629 -0.0257  0.0787 -2.1988
  182MOL0     H25063  11.572   1.196   7.651 -1.9909 -0.0388 -0.2843
  182MOL0     H25064  11.630   1.263   7.506  1.6915  0.6952  0.4986
  182MOL0     H25065  11.791   1.302   7.866  2.5663  2.9572  0.5995
  182MOL0     H25066  12.029   1.261   7.946 -1.9701  0.8724 -0.1888
  182MOL0     H25067  12.151   1.289   7.801  0.4533 -0.5607  1.8501
  182MOL0     H25068  12.048   1.027   7.921 -1.7711  0.2641 -1.9339
  182MOL0     H25069  12.107   1.034   7.762  2.3457 -0.0387  0.3675
  182MOL0     H25070  12.323   1.117   7.835 -1.9801  2.0116 -0.4579
  182MOL0     H25071  12.257   1.137   7.995  0.6369  1.3866 -2.2243
  182MOL0     H25072  12.235   0.901   8.041  2.1750  0.8427  0.4833
  182MOL0     H25073  12.273   0.848   7.887 -1.2929 -0.3078  0.6406
  182MOL0     H25074  12.421   0.747   7.802  1.1839  3.3242 -1.0516
  182MOL0     H25075  12.663   0.593   7.651  2.3965 -2.3712  0.9556
  182MOL0     H25076  12.492   0.578   7.690 -1.4764  0.9506  3.2922
  182MOL0     H25077  12.622   0.456   7.755  2.4552  0.0922 -2.2437
  182MOL0     H25078  13.065   0.514   7.664 -2.6541  0.9549  0.5620
  182MOL0     H25079  13.207   0.348   7.599 -1.9419  1.7629 -2.3974
  182MOL0     H25080  13.088  -0.034   7.630 -0.8254  1.4261  0.4992
  182MOL0     H25081  13.159   0.030   7.490  0.8670 -0.7941  0.2734
  182MOL0     H25082  13.234  -0.187   7.525  3.5565 -1.7729 -0.9527
  182MOL0     H25083  13.364  -0.074   7.516  0.9054 -0.4060  1.3359
  182MOL0     H25084  13.264  -0.190   7.776 -1.3581  1.0743 -1.9681
  182MOL0     H25085  13.404  -0.082   7.743  0.2169  0.2855  1.0555
  182MOL0     H25086  13.392  -0.363   7.626 -1.2910  0.8342 -0.0233
  182MOL0     H25087  13.457  -0.323   7.785 -2.0254 -0.4106 -0.1000
  182MOL0     H25088  13.535  -0.199   7.505  0.9347 -1.2447 -0.7966
  182MOL0     H25089  13.610  -0.145   7.657 -2.7770  2.3381 -1.3958
  182MOL0     H25090  13.638  -0.394   7.499  0.4776 -0.3841  0.3221
  182MOL0     H25091  13.651  -0.421   7.671 -2.6716  0.7074 -0.0077
  182MOL0     H25092  13.874  -0.373   7.624 -0.8555  0.2315 -0.1201
  182MOL0     H25093  13.807  -0.225   7.683 -2.4341 -1.6718  2.1464
  182MOL0     H25094  13.817  -0.261   7.377 -3.5949  1.3982  1.3066
  182MOL0     H25095  13.969  -0.207   7.460 -0.7119  2.0666 -0.4441
  182MOL0     H25096  13.027   0.045   7.827  1.6102  0.0601  1.8074
  182MOL0     H25097  12.857   0.225   7.895 -1.2030 -0.4951 -2.5607
  182MOL0     H25098  12.794   0.693   8.131  1.4846 -1.5155 -2.4102
  182MOL0     H25099  12.630   0.888   8.159  0.1285 -0.6264  0.5590
  182MOL0     H25100  10.895   1.396   8.020  0.7737  2.4522 -2.5758
  182MOL0     H25101  10.753   1.435   8.236  1.5344  0.7694 -1.6328
  182MOL0     H25102  10.342   1.667   8.344  2.7762 -1.0586 -0.9971
  182MOL0     H25103  10.191   1.760   8.507 -0.5282  1.0340 -0.5434
  182MOL0     H25104  10.060   1.896   8.658 -0.2391  0.9681 -1.7461
  182MOL0     H25105  10.098   2.008   8.794 -0.9469  0.7014 -0.5911
  182MOL0     H25106  10.143   2.074   8.489 -1.5214  1.8793 -0.4124
  182MOL0     H25107  10.169   2.173   8.635  1.2376 -0.7481  2.4955
  182MOL0     H25108   9.889   2.051   8.570 -1.1766 -0.8118  1.5455
  182MOL0     H25109   9.940   2.170   8.690 -0.7977  1.5619 -0.6506
  182MOL0     H25110  10.000   2.337   8.500  1.7891 -1.3250 -2.0782
  182MOL0     H25111   9.830   2.277   8.494 -0.7919 -3.2725  0.6195
  182MOL0     H25112   9.970   2.129   8.130 -0.3672 -0.0984  0.0287
  182MOL0     H25113  10.498   2.029   8.638  0.3937  0.5985 -1.1832
  182MOL0     H25114  10.774   1.878   8.540 -0.9469 -0.4143  1.4721
  182MOL0     H25115  10.715   1.977   8.396  0.7370 -0.2880 -0.0498
  182MOL0     H25116  10.715   2.034   8.563 -1.7728 -2.6871  2.0013
  183MOL0     O25117   3.517  11.171  10.809  0.0612  0.0668  0.4945
  183MOL0     C25118   3.525  11.253  10.896 -0.7503  0.3815 -0.5570
  183MOL0     O25119   3.596  11.236  11.014  0.4829  0.2339 -0.3655
  183MOL0     C25120   3.667  11.119  11.049  0.0471 -0.3511  0.0744
  183MOL0     C25121   3.784  11.136  11.126  0.2829  0.4646  1.0509
  183MOL0     C25122   3.852  11.019  11.172 -1.2218 -0.3463  0.2745
  183MOL0     C25123   3.801  10.894  11.134  0.5962  0.7229  0.0635
  183MOL0     O25124   3.845  10.778  11.187 -0.4791 -0.1370  0.0482
  183MOL0     C25125   3.843  10.766  11.324  0.6728 -0.1442  0.8635
  183MOL0     C25126   3.889  10.633  11.364  0.1494  0.4556 -0.1583
  183MOL0     C25127   3.883  10.614  11.522 -0.3451  0.4786  0.4702
  183MOL0     C25128   3.947  10.485  11.579  0.1024  0.0982 -0.1778
  183MOL0     C25129   4.094  10.510  11.612 -0.2988  0.1168  0.3143
  183MOL0     C25130   4.150  10.379  11.660 -0.3106  0.7993  0.4917
  183MOL0     C25131   4.306  10.398  11.672  0.1792 -0.2699 -0.2690
  183MOL0     C25132   4.357  10.285  11.762 -0.2191  0.5726  0.1698
  183MOL0     N25133   4.502  10.272  11.764 -0.2176  0.1332 -0.0289
  183MOL0     C25134   4.588  10.371  11.793  1.0012  0.0349 -0.1165
  183MOL0     C25135   4.708  10.309  11.800  0.8176  0.4249 -0.5557
  183MOL0     C25136   4.830  10.385  11.837 -0.6829 -1.4654 -0.2944
  183MOL0     C25137   4.956  10.302  11.848 -0.6057 -0.5376 -0.0474
  183MOL0     C25138   5.075  10.380  11.920 -0.0321  0.2254 -0.1660
  183MOL0     C25139   5.205  10.302  11.927 -0.4635 -0.1884  0.5123
  183MOL0     O25140   5.267  10.313  11.797 -0.0397 -0.8266 -0.6114
  183MOL0     C25141   5.350  10.216  11.760 -0.0965  0.3876  0.1365
  183MOL0     C25142   5.389  10.226  11.628  0.8113  0.6743  0.6482
  183MOL0     C25143   5.489  10.139  11.571  0.2340  0.9231 -0.0440
  183MOL0     C25144   5.504  10.156  11.423 -0.4026  0.2198 -0.8519
  183MOL0     C25145   5.547  10.038  11.649 -0.1888 -0.4630 -1.1495
  183MOL0     C25146   5.677   9.976  11.617  0.2025 -0.4942 -0.0230
  183MOL0     O25147   5.712   9.977  11.489  0.0477 -0.0137 -0.2433
  183MOL0     C25148   5.822   9.918  11.451 -0.0068 -0.3510  0.4656
  183MOL0     C25149   5.933  10.001  11.416 -0.7212  0.0463 -0.0949
  183MOL0     C25150   6.058   9.948  11.368  0.1462  1.1919 -0.1039
  183MOL0     C25151   6.075   9.806  11.364 -0.5011  0.7848 -1.2831
  183MOL0     O25152   6.181   9.739  11.309 -0.2278  0.3336 -0.4057
  183MOL0     C25153   6.291   9.811  11.258  0.7318 -0.1340  0.3938
  183MOL0     C25154   6.413   9.787  11.354  0.3072  0.6352 -0.5103
  183MOL0     C25155   6.547   9.831  11.300  0.0773 -0.3770 -0.2904
  183MOL0     C25156   6.645   9.720  11.332  0.7306 -0.2540  0.6556
  183MOL0     C25157   6.789   9.779  11.316  0.2720 -0.6357 -0.2838
  183MOL0     C25158   6.891   9.661  11.322 -0.0169 -0.1207  0.3742
  183MOL0     C25159   7.031   9.704  11.278  1.1339 -0.1196 -0.2008
  183MOL0     C25160   7.134   9.599  11.288  0.0096  1.4297 -0.5157
  183MOL0    Cl25161   7.161   9.534  11.455 -0.0989  0.4587  0.4791
  183MOL0     C25162   5.966   9.722  11.395 -0.5191 -0.9391 -0.2645
  183MOL0     C25163   5.834   9.777  11.424 -0.8323  0.3590 -0.0084
  183MOL0     O25164   5.743   9.928  11.710 -0.2260  0.2192  0.7694
  183MOL0     C25165   5.494  10.020  11.785 -0.0366 -0.1151  0.6345
  183MOL0     C25166   5.395  10.104  11.835  0.1305  0.0855 -0.1905
  183MOL0     N25167   4.696  10.179  11.757 -0.2822  0.2929 -0.2609
  183MOL0     N25168   4.577  10.158  11.733 -0.0053 -0.1359  0.5687
  183MOL0     C25169   3.679  10.883  11.066 -0.3173  0.0229 -0.4819
  183MOL0     C25170   3.617  10.993  11.015  0.6409 -0.7248  0.4415
  183MOL0     C25171   3.443  11.373  10.884  0.4042 -0.7850 -0.1716
  183MOL0     C25172   3.409  11.436  11.011 -1.3995 -0.9180 -0.3246
  183MOL0     C25173   3.346  11.563  11.011  0.2338  0.1262  1.4457
  183MOL0     C25174   3.310  11.631  10.888  0.0723  0.4990 -0.7900
  183MOL0     O25175   3.244  11.756  10.886 -0.5043 -0.3105  0.0444
  183MOL0     C25176   3.172  11.812  10.992  1.1206 -0.1195 -0.2503
  183MOL0     C25177   3.072  11.901  10.916 -0.1996  0.3570  0.2559
  183MOL0     C25178   2.986  11.989  10.993  0.3074  0.0621 -0.7144
  183MOL0     C25179   2.952  12.118  10.915  0.4470 -0.9215  0.1984
  183MOL0     C25180   2.854  12.198  10.997 -0.9596  0.4801 -0.6761
  183MOL0     C25181   2.779  12.276  11.050  0.7175 -0.1593  0.0584
  183MOL0     C25182   3.347  11.565  10.771 -1.0999  0.3435  0.0096
  183MOL0     C25183   3.400  11.436  10.761 -0.1914  0.6186 -0.9735
  183MOL0     C25184   3.431  11.390  10.619  0.6155 -0.0555 -0.5859
  183MOL0     H25185   3.823  11.234  11.150  1.2562 -0.0927  1.7826
  183MOL0     H25186   3.939  11.022  11.237 -1.7154 -0.7081  0.9587
  183MOL0     H25187   3.747  10.789  11.371  0.7185  1.7937  0.0801
  183MOL0     H25188   3.917  10.837  11.361  1.5555 -0.7047  0.2177
  183MOL0     H25189   3.824  10.559  11.317  1.4521 -0.8030 -0.0358
  183MOL0     H25190   3.989  10.621  11.323 -0.1232 -3.4315 -0.0530
  183MOL0     H25191   3.917  10.702  11.578 -0.4005  1.5697 -1.1267
  183MOL0     H25192   3.776  10.604  11.543 -0.6777  1.1363 -0.8046
  183MOL0     H25193   3.901  10.476  11.678  2.1530 -2.0949  0.6754
  183MOL0     H25194   3.926  10.405  11.508 -0.0969  1.8438 -2.1840
  183MOL0     H25195   4.109  10.580  11.694 -0.4174 -0.9795  1.3086
  183MOL0     H25196   4.151  10.546  11.526  2.5068 -0.9705  1.6144
  183MOL0     H25197   4.111  10.345  11.756  2.2748 -3.1604  0.4262
  183MOL0     H25198   4.123  10.309  11.580 -2.6182 -0.1571  2.0354
  183MOL0     H25199   4.327  10.493  11.721  0.8610 -0.8743  0.6623
  183MOL0     H25200   4.351  10.391  11.573 -2.5168 -2.3031 -1.4877
  183MOL0     H25201   4.322  10.294  11.865  0.3542  1.1599  0.3208
  183MOL0     H25202   4.318  10.195  11.714 -3.2184  2.3512 -1.0068
  183MOL0     H25203   4.578  10.479  11.788 -2.0689 -0.1426 -5.6615
  183MOL0     H25204   4.810  10.419  11.939  2.6424  1.8416 -0.5024
  183MOL0     H25205   4.843  10.475  11.775 -2.1557 -0.3547  0.9378
  183MOL0     H25206   4.930  10.210  11.901  3.6703 -1.4835  0.7334
  183MOL0     H25207   4.994  10.278  11.748 -0.1928 -3.5642  0.7441
  183MOL0     H25208   5.101  10.472  11.867  0.7922 -0.7563 -1.5503
  183MOL0     H25209   5.049  10.412  12.021  1.4740 -1.2902  0.7567
  183MOL0     H25210   5.274  10.341  12.002  0.5178  0.1369 -0.5310
  183MOL0     H25211   5.188  10.199  11.960 -0.6766 -0.0904  0.7126
  183MOL0     H25212   5.351  10.311  11.572 -0.7753  1.6977  3.1030
  183MOL0     H25213   5.484  10.065  11.367 -0.4246 -0.4394  0.2032
  183MOL0     H25214   5.607  10.184  11.403  1.4088 -3.0855  2.5979
  183MOL0     H25215   5.430  10.224  11.379 -1.0069  0.9445  1.1608
  183MOL0     H25216   5.931  10.108  11.433 -3.0695 -0.3684  3.1599
  183MOL0     H25217   6.128  10.025  11.337  2.1563 -0.6618 -0.3820
  183MOL0     H25218   6.304   9.777  11.155 -2.2988  0.3694 -0.2498
  183MOL0     H25219   6.280   9.918  11.237  0.9668 -0.1229  0.3302
  183MOL0     H25220   6.397   9.842  11.447  1.2421  1.6185 -0.9114
  183MOL0     H25221   6.422   9.679  11.374  0.3544  0.5906 -0.7587
  183MOL0     H25222   6.592   9.923  11.338 -4.0304  0.8711  2.1535
  183MOL0     H25223   6.543   9.845  11.192 -0.9241  1.2588 -0.0679
  183MOL0     H25224   6.619   9.632  11.273 -2.3270  1.2341 -0.4670
  183MOL0     H25225   6.636   9.692  11.437  0.0978 -1.4894  0.2918
  183MOL0     H25226   6.788   9.833  11.221 -2.2295  0.7501  0.4734
  183MOL0     H25227   6.809   9.853  11.394 -1.7254  0.0648 -0.3987
  183MOL0     H25228   6.853   9.578  11.261  1.1759 -0.0856 -0.4466
  183MOL0     H25229   6.886   9.629  11.426  1.4832  3.7323  1.8302
  183MOL0     H25230   7.048   9.791  11.341 -1.1624  2.0035 -2.2826
  183MOL0     H25231   7.027   9.754  11.180  4.2894  0.6430 -0.0506
  183MOL0     H25232   7.225   9.655  11.263 -0.7159  3.0073  0.2483
  183MOL0     H25233   7.103   9.525  11.214 -3.8611  1.6042  0.7306
  183MOL0     H25234   5.963   9.613  11.392 -2.9060 -0.9074 -3.2916
  183MOL0     H25235   5.753   9.706  11.435  0.1593 -0.6772  0.8984
  183MOL0     H25236   5.527   9.938  11.847  1.0921  1.0337  1.6134
  183MOL0     H25237   5.362  10.079  11.935  1.2213  0.7894  0.3657
  183MOL0     H25238   3.643  10.783  11.047 -1.1369 -0.4849  3.0824
  183MOL0     H25239   3.529  10.989  10.952  1.1129  4.1844 -1.0271
  183MOL0     H25240   3.445  11.385  11.100 -0.8085 -3.6456 -1.9823
  183MOL0     H25241   3.331  11.607  11.109 -0.2601 -0.4072  1.6160
  183MOL0     H25242   3.113  11.740  11.051 -0.8813 -0.3848 -2.4089
  183MOL0     H25243   3.239  11.879  11.046 -0.9180  3.1829 -1.4612
  183MOL0     H25244   3.014  11.832  10.854  0.1248 -0.8365  1.2248
  183MOL0     H25245   3.120  11.966  10.843 -1.2324  1.6508  0.6754
  183MOL0     H25246   2.893  11.939  11.022 -0.3620  2.6849  2.1426
  183MOL0     H25247   3.047  12.004  11.083  1.9259 -0.9578 -1.5813
  183MOL0     H25248   2.925  12.114  10.809  1.7607  2.2519 -0.3663
  183MOL0     H25249   3.043  12.177  10.904  1.7970 -2.8643  0.5135
  183MOL0     H25250   2.709  12.341  11.099 -0.8109  0.3231 -2.5708
  183MOL0     H25251   3.329  11.627  10.684  1.9638 -1.5127 -2.1360
  183MOL0     H25252   3.386  11.292  10.601  0.5078 -0.5552  1.9967
  183MOL0     H25253   3.394  11.462  10.546  1.7379  0.3357 -0.7887
  183MOL0     H25254   3.540  11.387  10.609  0.5588 -0.0835 -1.2254
  184MOL0     O25255   1.014   2.298   3.028  0.2444 -0.0991  0.7722
  184MOL0     C25256   0.930   2.222   2.991  0.3450  0.8796  0.1163
  184MOL0     O25257   0.954   2.104   2.941 -0.5219  0.5829 -0.0870
  184MOL0     C25258   1.078   2.038   2.942  0.4688 -0.2358 -0.5460
  184MOL0     C25259   1.090   1.918   3.012  0.0885 -1.3276  0.1787
  184MOL0     C25260   1.217   1.853   3.032 -0.6941 -0.4792  0.0591
  184MOL0     C25261   1.330   1.919   2.982  0.6499  0.0316 -0.1712
  184MOL0     O25262   1.449   1.852   3.012  0.7190 -0.2709 -0.0724
  184MOL0     C25263   1.569   1.913   2.979 -0.5243  0.1845 -0.4364
  184MOL0     C25264   1.680   1.805   2.982  0.1662  0.2873 -1.0644
  184MOL0     C25265   1.822   1.861   2.970  0.1019  0.1760 -0.0456
  184MOL0     C25266   1.938   1.753   2.955 -0.4589  0.4375 -0.4948
  184MOL0     C25267   2.071   1.800   3.002  0.4305  0.0419  0.6225
  184MOL0     C25268   2.181   1.697   2.982 -0.6633  0.0707  0.4674
  184MOL0     C25269   2.332   1.753   3.003  0.7812  0.6319  0.2854
  184MOL0     C25270   2.353   1.789   3.155  0.0795 -0.4249 -0.5170
  184MOL0     N25271   2.496   1.788   3.171 -0.3842  0.4623 -0.1549
  184MOL0     C25272   2.594   1.873   3.130  1.4909  0.1117 -1.0207
  184MOL0     C25273   2.710   1.820   3.168 -0.3049  0.1791 -0.4066
  184MOL0     C25274   2.851   1.871   3.138 -1.2001  0.4487  0.4848
  184MOL0     C25275   2.899   1.984   3.219  0.0294 -1.1322  0.0841
  184MOL0     C25276   3.050   2.025   3.206  0.3417 -0.4076 -0.0094
  184MOL0     C25277   3.054   2.153   3.291  0.3849  0.4268  0.3266
  184MOL0     O25278   3.045   2.129   3.426  0.3067  0.9950 -0.2508
  184MOL0     C25279   2.982   2.221   3.499  0.2846  0.5192  0.4475
  184MOL0     C25280   3.006   2.358   3.496  0.6873 -1.0487 -0.1448
  184MOL0     C25281   2.922   2.450   3.568  0.2597  1.0477  0.1788
  184MOL0     C25282   2.957   2.596   3.564 -0.4731  0.8488 -0.5643
  184MOL0     C25283   2.814   2.398   3.647 -0.0613 -0.1031 -0.0052
  184MOL0     C25284   2.704   2.484   3.709 -1.3208 -0.4197 -0.2642
  184MOL0     O25285   2.678   2.453   3.837  0.1925 -0.5996 -0.0753
  184MOL0     C25286   2.609   2.544   3.911  0.5351  0.3050 -0.4369
  184MOL0     C25287   2.469   2.532   3.907 -0.3756 -0.6939 -0.5813
  184MOL0     C25288   2.396   2.596   4.009 -0.4865  0.2421 -0.1844
  184MOL0     C25289   2.456   2.679   4.103 -0.7986 -0.1510 -0.4559
  184MOL0     O25290   2.385   2.762   4.193 -0.3615 -0.1043 -0.0846
  184MOL0     C25291   2.241   2.767   4.179 -0.1291 -0.5088  0.3174
  184MOL0     C25292   2.191   2.899   4.251 -0.3525  0.2313  0.0377
  184MOL0     C25293   2.043   2.908   4.285  0.1569  0.2560 -0.9655
  184MOL0     C25294   2.025   3.054   4.346  0.3244 -0.8193  0.5462
  184MOL0     C25295   1.876   3.066   4.376  0.0797  0.1195 -0.5234
  184MOL0     C25296   1.847   3.208   4.438 -0.2887 -0.0699  0.1187
  184MOL0     C25297   1.701   3.220   4.484 -0.1668 -0.7597 -0.0616
  184MOL0     C25298   1.696   3.232   4.639  0.6825 -0.0695  0.0463
  184MOL0    Cl25299   1.733   3.058   4.704 -0.3047  0.4071  0.0212
  184MOL0     C25300   2.594   2.711   4.085 -0.0389 -0.7130  0.3050
  184MOL0     C25301   2.672   2.631   4.003 -0.4619 -0.7703  0.7284
  184MOL0     O25302   2.657   2.567   3.635  0.0805  0.4664  0.3435
  184MOL0     C25303   2.801   2.259   3.656  0.0072  0.2209 -0.7185
  184MOL0     C25304   2.879   2.175   3.580  0.1849  0.1653 -0.3503
  184MOL0     N25305   2.686   1.698   3.234  0.3952  0.1553  0.6178
  184MOL0     N25306   2.552   1.685   3.232  0.4799  0.6761  0.3185
  184MOL0     C25307   1.316   2.043   2.918 -0.5246 -0.6145 -0.6806
  184MOL0     C25308   1.190   2.094   2.887  0.4214 -0.4929  0.7657
  184MOL0     C25309   0.780   2.261   2.999  0.3028 -0.3509 -0.8199
  184MOL0     C25310   0.690   2.179   2.923  0.0192 -1.0339 -0.0514
  184MOL0     C25311   0.552   2.208   2.937  0.2236  0.1461  0.5145
  184MOL0     C25312   0.508   2.300   3.030 -0.2205  0.5446 -0.4328
  184MOL0     O25313   0.369   2.311   3.053 -0.0331  0.5510  0.2300
  184MOL0     C25314   0.309   2.398   3.149  0.0512 -0.0850 -0.8510
  184MOL0     C25315   0.162   2.371   3.154  0.0116 -0.1153  0.1769
  184MOL0     C25316   0.087   2.449   3.266 -0.9221 -0.4411  0.2222
  184MOL0     C25317   0.039   2.590   3.227  0.2715 -0.0122 -1.1950
  184MOL0     C25318  -0.066   2.587   3.132 -0.0490  1.0035  0.5775
  184MOL0     C25319  -0.160   2.573   3.060  0.3064  0.3233  0.3617
  184MOL0     C25320   0.595   2.379   3.100 -0.5983 -0.0114 -0.0934
  184MOL0     C25321   0.732   2.364   3.088  0.9055  0.2489  0.8156
  184MOL0     C25322   0.794   2.465   3.172 -0.1920 -0.3996 -0.3906
  184MOL0     H25323   0.997   1.878   3.049 -0.0084  1.7772  3.9544
  184MOL0     H25324   1.233   1.759   3.085  2.2438  0.8377  1.7465
  184MOL0     H25325   1.590   1.996   3.046 -1.2653  0.3888 -0.4519
  184MOL0     H25326   1.567   1.937   2.872  1.3278 -0.7034 -0.7066
  184MOL0     H25327   1.671   1.751   3.077  1.3328 -1.5340 -1.9595
  184MOL0     H25328   1.673   1.721   2.913 -0.0270  0.5304 -1.3429
  184MOL0     H25329   1.821   1.936   2.890 -3.2803  0.4960  0.1686
  184MOL0     H25330   1.850   1.909   3.065 -3.0012 -1.4514  1.8489
  184MOL0     H25331   1.915   1.669   3.021  0.8296  0.2735 -0.2313
  184MOL0     H25332   1.963   1.715   2.855 -0.9605  1.1519 -0.9078
  184MOL0     H25333   2.059   1.819   3.109 -3.1035 -0.6936  0.4780
  184MOL0     H25334   2.082   1.891   2.942 -2.2128  1.3778  1.9913
  184MOL0     H25335   2.172   1.603   3.039  1.3277  0.3683  1.3905
  184MOL0     H25336   2.183   1.658   2.880 -0.7927 -0.9100  0.8198
  184MOL0     H25337   2.352   1.832   2.930 -0.2689  1.6909  1.0915
  184MOL0     H25338   2.391   1.662   2.989 -2.7886 -2.0155  1.0292
  184MOL0     H25339   2.316   1.892   3.154 -0.5443 -0.6451 -1.7701
  184MOL0     H25340   2.307   1.725   3.231  1.6511  2.3117  3.0251
  184MOL0     H25341   2.590   1.969   3.079  0.5446  0.3103 -0.5972
  184MOL0     H25342   2.845   1.903   3.034 -0.2762  2.0181  0.8829
  184MOL0     H25343   2.922   1.789   3.149 -1.2332  0.3679  0.0967
  184MOL0     H25344   2.834   2.061   3.179 -0.7432 -1.9783 -0.3224
  184MOL0     H25345   2.864   1.968   3.322 -2.4354 -0.3530 -0.5676
  184MOL0     H25346   3.115   1.946   3.243  1.8326  1.6813  2.1455
  184MOL0     H25347   3.073   2.043   3.100 -2.4619  1.1900 -0.4557
  184MOL0     H25348   3.143   2.209   3.263  2.3542 -2.6460 -0.0870
  184MOL0     H25349   2.963   2.209   3.269 -0.2003 -0.2967  0.8654
  184MOL0     H25350   3.095   2.396   3.447  1.0333 -1.3309  0.2539
  184MOL0     H25351   2.910   2.644   3.477  1.0649  1.0074 -1.3434
  184MOL0     H25352   3.060   2.610   3.531 -1.2002  0.4206 -3.3018
  184MOL0     H25353   2.927   2.643   3.657 -4.2917 -0.4097 -0.9713
  184MOL0     H25354   2.422   2.481   3.823 -1.3115 -1.1546  0.2056
  184MOL0     H25355   2.291   2.569   4.013 -0.0844 -1.2559  1.4985
  184MOL0     H25356   2.206   2.777   4.076  0.5952  3.4258  0.3205
  184MOL0     H25357   2.189   2.683   4.227 -0.7785  0.1266  0.7487
  184MOL0     H25358   2.257   2.906   4.338 -0.7792  1.3806  0.2795
  184MOL0     H25359   2.224   2.980   4.185  2.9197  0.6915  2.0188
  184MOL0     H25360   2.026   2.833   4.362  2.6188 -1.5443 -2.0520
  184MOL0     H25361   1.986   2.872   4.199 -2.7330 -2.0246  1.6784
  184MOL0     H25362   2.062   3.134   4.281 -1.9426  0.7851  1.1046
  184MOL0     H25363   2.075   3.066   4.442  1.3991  2.5849 -0.2799
  184MOL0     H25364   1.822   3.042   4.284 -0.2667 -1.7526  0.1122
  184MOL0     H25365   1.859   2.989   4.452  2.0788 -0.4676 -0.6100
  184MOL0     H25366   1.865   3.291   4.370 -3.3442  1.0260  0.4988
  184MOL0     H25367   1.913   3.224   4.524  0.9469 -0.2199 -0.7803
  184MOL0     H25368   1.644   3.131   4.455 -0.6670 -1.9576  3.9461
  184MOL0     H25369   1.665   3.312   4.437  5.4466  0.7680 -2.2196
  184MOL0     H25370   1.595   3.264   4.666  1.0434  2.1420 -0.9949
  184MOL0     H25371   1.769   3.301   4.681 -0.2061 -0.3798  2.2248
  184MOL0     H25372   2.640   2.778   4.158 -2.0245 -0.2244  1.1829
  184MOL0     H25373   2.779   2.628   4.022 -0.2778 -1.8424 -0.3667
  184MOL0     H25374   2.716   2.227   3.716 -1.5149  6.9269  1.5906
  184MOL0     H25375   2.843   2.073   3.571 -3.2496  1.3832 -2.0672
  184MOL0     H25376   1.406   2.097   2.890  0.4580 -1.4840  0.6412
  184MOL0     H25377   1.194   2.190   2.838 -0.7980  0.2477  2.0391
  184MOL0     H25378   0.721   2.105   2.850 -0.3260  1.7570 -3.2597
  184MOL0     H25379   0.474   2.149   2.891 -1.3238  1.3043  1.5391
  184MOL0     H25380   0.343   2.371   3.250 -4.4650  1.9040  1.4916
  184MOL0     H25381   0.336   2.502   3.129  0.3466 -0.0907 -0.5092
  184MOL0     H25382   0.147   2.263   3.156  1.6414 -0.5199 -3.0904
  184MOL0     H25383   0.128   2.409   3.056 -1.3191  1.4642  1.1889
  184MOL0     H25384  -0.006   2.398   3.293 -0.0938 -0.8546  2.5477
  184MOL0     H25385   0.146   2.448   3.358  0.7589 -0.4891 -0.8055
  184MOL0     H25386   0.127   2.644   3.191 -0.9501  2.8368 -0.1976
  184MOL0     H25387   0.005   2.647   3.314  0.5975  0.8781 -1.6361
  184MOL0     H25388  -0.243   2.560   2.993  0.6522  1.0997 -0.2338
  184MOL0     H25389   0.550   2.456   3.162 -1.2063 -1.3499  1.1886
  184MOL0     H25390   0.771   2.449   3.278  0.7158 -0.3786 -0.1801
  184MOL0     H25391   0.902   2.455   3.155 -0.6108  0.0826 -4.0269
  184MOL0     H25392   0.755   2.564   3.145 -0.6892 -0.8498 -1.3444
  185MOL0     O25393   6.957   9.069   9.193  0.8100 -0.3220  0.0679
  185MOL0     C25394   6.940   9.133   9.088  0.2425 -0.5674 -1.1136
  185MOL0     O25395   7.039   9.178   9.013  0.2847 -0.6508  0.2636
  185MOL0     C25396   7.171   9.148   9.036 -0.4057  0.5782  0.2658
  185MOL0     C25397   7.230   9.169   9.161  0.5105  0.0543 -1.1062
  185MOL0     C25398   7.365   9.142   9.181  0.2153  1.3544 -0.2203
  185MOL0     C25399   7.450   9.106   9.080  0.5345 -0.0461  0.1070
  185MOL0     O25400   7.579   9.081   9.117  0.2236  0.4722 -0.6867
  185MOL0     C25401   7.682   9.055   9.019 -0.2303 -0.9713  0.0662
  185MOL0     C25402   7.820   9.055   9.095 -0.3628  0.7944 -0.2512
  185MOL0     C25403   7.816   9.172   9.196 -0.0654  0.1149 -0.3219
  185MOL0     C25404   7.959   9.208   9.232 -0.1592  0.3800 -0.5711
  185MOL0     C25405   8.019   9.094   9.322 -0.9916 -0.5755 -0.5988
  185MOL0     C25406   8.105   8.984   9.254  0.6986  0.1826 -0.4557
  185MOL0     C25407   8.213   9.035   9.153  0.0199 -0.1534  0.4668
  185MOL0     C25408   8.308   9.126   9.233 -0.6685  0.3281 -0.1881
  185MOL0     N25409   8.417   9.058   9.318  0.7624 -0.0306  0.7133
  185MOL0     C25410   8.550   9.092   9.315 -0.6153 -0.0543 -0.1148
  185MOL0     C25411   8.608   9.018   9.426 -0.3264 -0.1218  0.3763
  185MOL0     C25412   8.746   9.037   9.474 -0.6861  0.8783  0.0356
  185MOL0     C25413   8.844   8.983   9.356  0.5285 -0.3388 -0.5041
  185MOL0     C25414   8.980   9.045   9.377  0.0042 -0.2837  0.0242
  185MOL0     C25415   9.098   8.962   9.333 -0.3716  0.3036  0.4356
  185MOL0     O25416   9.219   9.030   9.349 -0.1741 -0.6767 -0.5145
  185MOL0     C25417   9.341   8.976   9.332  0.5331  0.5587 -1.3635
  185MOL0     C25418   9.361   8.856   9.273  0.4911 -0.2869  0.1012
  185MOL0     C25419   9.478   8.796   9.253  0.5146  0.2088  0.4799
  185MOL0     C25420   9.469   8.669   9.178 -0.0663  0.2500  0.2234
  185MOL0     C25421   9.589   8.853   9.307 -0.5027  0.1669 -0.2653
  185MOL0     C25422   9.727   8.810   9.274  0.6379  1.2057  0.4472
  185MOL0     O25423   9.830   8.896   9.288 -0.1423  0.1304 -0.0451
  185MOL0     C25424   9.955   8.878   9.238  0.0033  0.3174 -0.4390
  185MOL0     C25425  10.061   8.939   9.301  0.7861 -0.0532 -1.4453
  185MOL0     C25426  10.194   8.910   9.261  0.0687 -0.1095 -0.7898
  185MOL0     C25427  10.227   8.838   9.144  0.6770  0.4421 -0.7074
  185MOL0     O25428  10.359   8.813   9.121 -0.3724 -0.7779 -0.3561
  185MOL0     C25429  10.392   8.739   8.997 -1.2015 -0.9003 -0.3593
  185MOL0     C25430  10.547   8.710   8.991  0.3546  0.2469 -0.3050
  185MOL0     C25431  10.567   8.583   9.066 -0.3762  0.4967 -1.1368
  185MOL0     C25432  10.712   8.535   9.041 -0.3841 -0.2675  0.0586
  185MOL0     C25433  10.776   8.446   9.150  0.1904 -0.4175 -0.7188
  185MOL0     C25434  10.772   8.513   9.288 -0.2959  0.4465 -0.1038
  185MOL0     C25435  10.850   8.423   9.386  0.7785  0.0017  0.3676
  185MOL0     C25436  10.834   8.487   9.525 -0.7991 -0.3325  0.2225
  185MOL0    Cl25437  10.980   8.593   9.569  0.2492  0.6991 -0.2450
  185MOL0     C25438  10.123   8.794   9.072 -0.1314  0.3401  0.1571
  185MOL0     C25439   9.990   8.802   9.124  0.0879 -0.0975 -0.1345
  185MOL0     O25440   9.737   8.689   9.245 -0.1832 -0.2183 -0.1056
  185MOL0     C25441   9.578   8.983   9.374  0.7577 -0.0967  0.0089
  185MOL0     C25442   9.447   9.035   9.390 -0.2017  0.9358 -0.6198
  185MOL0     N25443   8.505   8.943   9.484  0.0224 -0.6620 -0.2908
  185MOL0     N25444   8.393   8.972   9.418 -0.6412  0.4711  0.2492
  185MOL0     C25445   7.395   9.094   8.956 -0.3820  0.5948  0.9132
  185MOL0     C25446   7.260   9.113   8.930  0.3862 -0.8042  0.5820
  185MOL0     C25447   6.804   9.139   9.034  0.0635  0.3370  0.4018
  185MOL0     C25448   6.783   9.236   8.926  0.6678  0.5742 -0.1845
  185MOL0     C25449   6.661   9.234   8.842 -0.2089  0.0616  0.1441
  185MOL0     C25450   6.555   9.150   8.874 -0.4415 -0.0964 -0.9654
  185MOL0     O25451   6.443   9.153   8.793  0.4661  0.7472  0.1214
  185MOL0     C25452   6.336   9.063   8.818 -0.0266  1.0951 -0.0639
  185MOL0     C25453   6.222   9.102   8.722  1.1567  0.4588  0.0829
  185MOL0     C25454   6.087   9.051   8.774  0.0598 -0.5202  0.0806
  185MOL0     C25455   5.980   9.071   8.669  0.4530 -1.0930  1.9447
  185MOL0     C25456   5.918   9.211   8.670  0.6540 -0.0154  1.1175
  185MOL0     C25457   5.850   9.315   8.664  0.6490  0.1195  0.5746
  185MOL0     C25458   6.581   9.057   8.971 -0.6748 -0.2283 -2.1692
  185MOL0     C25459   6.695   9.063   9.053  0.1950 -0.4996 -0.1386
  185MOL0     C25460   6.700   8.961   9.168  0.3263  0.1835 -0.2283
  185MOL0     H25461   7.180   9.189   9.255  0.7343 -2.9300 -0.2428
  185MOL0     H25462   7.388   9.154   9.286 -2.6347  4.3802  0.2065
  185MOL0     H25463   7.689   9.133   8.942  1.8862 -1.8465 -0.7262
  185MOL0     H25464   7.673   8.956   8.973  0.0911 -1.4461  1.0175
  185MOL0     H25465   7.831   8.958   9.144  1.2133  0.6759 -0.7880
  185MOL0     H25466   7.902   9.065   9.023  2.0982 -1.0411  2.1148
  185MOL0     H25467   7.760   9.256   9.156 -1.6986 -1.1852 -0.8582
  185MOL0     H25468   7.766   9.141   9.289  2.1670  1.4720  1.4519
  185MOL0     H25469   8.022   9.243   9.150 -1.6574  1.5648 -1.2627
  185MOL0     H25470   7.952   9.296   9.297  1.9320 -0.1619  0.5043
  185MOL0     H25471   7.935   9.044   9.371 -1.2873  0.1529 -0.3467
  185MOL0     H25472   8.075   9.132   9.408 -1.8423 -2.8125  1.0278
  185MOL0     H25473   8.150   8.932   9.339 -1.5217  1.1455  1.4092
  185MOL0     H25474   8.045   8.910   9.200  0.0095 -1.5448  2.4197
  185MOL0     H25475   8.165   9.087   9.070  1.9122  1.1613  0.1342
  185MOL0     H25476   8.275   8.950   9.122 -0.7006 -1.2430  1.8749
  185MOL0     H25477   8.366   9.181   9.158 -0.5219  0.5636  0.0976
  185MOL0     H25478   8.243   9.190   9.293 -0.5072  0.6928 -0.4011
  185MOL0     H25479   8.595   9.172   9.256 -0.2156 -0.2974 -0.1405
  185MOL0     H25480   8.757   8.978   9.566 -0.9591  1.0882  0.2027
  185MOL0     H25481   8.758   9.145   9.486 -3.3589  1.1249  1.0321
  185MOL0     H25482   8.861   8.876   9.371 -0.9718 -0.2645  2.4691
  185MOL0     H25483   8.806   9.005   9.255  1.6435  0.1053 -0.8387
  185MOL0     H25484   8.992   9.141   9.326  2.5389  0.7081  2.2351
  185MOL0     H25485   8.995   9.071   9.483 -2.0979  0.8777  0.0793
  185MOL0     H25486   9.100   8.869   9.389  0.7794 -0.9353 -1.5306
  185MOL0     H25487   9.091   8.940   9.226  1.8777 -0.0292  0.3124
  185MOL0     H25488   9.268   8.813   9.238  1.2139 -0.6594 -1.4419
  185MOL0     H25489   9.498   8.591   9.248  2.1423 -0.3175 -1.2367
  185MOL0     H25490   9.539   8.664   9.094 -0.5225  2.5992 -0.3708
  185MOL0     H25491   9.366   8.644   9.151  0.2042 -0.7404  0.0730
  185MOL0     H25492  10.035   8.996   9.390  2.0180  1.1320 -1.8049
  185MOL0     H25493  10.278   8.932   9.327  0.8350 -1.2117 -1.3662
  185MOL0     H25494  10.341   8.642   8.990 -1.6233 -0.5967 -1.6671
  185MOL0     H25495  10.363   8.793   8.907  0.1103  0.8367  0.2156
  185MOL0     H25496  10.572   8.696   8.885 -2.4519  0.6075 -1.1029
  185MOL0     H25497  10.599   8.796   9.034 -0.9481  0.8063  0.1946
  185MOL0     H25498  10.500   8.504   9.031 -0.3761  0.2868 -0.6762
  185MOL0     H25499  10.541   8.601   9.171 -2.4405  2.3573 -1.8804
  185MOL0     H25500  10.780   8.620   9.030 -1.3970  0.5954  0.2800
  185MOL0     H25501  10.708   8.479   8.947 -1.3270 -0.8700  0.4380
  185MOL0     H25502  10.732   8.346   9.156  2.0278 -1.2101  0.1632
  185MOL0     H25503  10.883   8.435   9.131  0.1526 -0.4182 -0.9265
  185MOL0     H25504  10.669   8.507   9.323 -0.4178 -0.2826 -0.5786
  185MOL0     H25505  10.805   8.617   9.274  0.1529  0.2258 -0.7481
  185MOL0     H25506  10.952   8.412   9.350  0.6877 -2.7443  0.7891
  185MOL0     H25507  10.801   8.326   9.397  0.0365 -0.0455 -2.6217
  185MOL0     H25508  10.824   8.415   9.606  2.2683 -0.1430  0.8992
  185MOL0     H25509  10.749   8.555   9.535 -1.5224 -1.4535  2.4681
  185MOL0     H25510  10.147   8.735   8.983 -1.4639  0.0857 -0.0569
  185MOL0     H25511   9.914   8.747   9.070  1.8063 -0.3675 -2.4232
  185MOL0     H25512   9.663   9.025   9.427  1.0306  0.2785 -0.7187
  185MOL0     H25513   9.429   9.120   9.456 -1.2615  0.0949  0.2184
  185MOL0     H25514   7.450   9.081   8.864  1.1297 -0.4992  1.9240
  185MOL0     H25515   7.217   9.096   8.832 -0.3550 -0.4806  0.8444
  185MOL0     H25516   6.861   9.307   8.904  1.2103 -0.2819 -1.1320
  185MOL0     H25517   6.647   9.298   8.755  1.8886 -0.5085 -0.6962
  185MOL0     H25518   6.360   8.957   8.810 -0.9561  0.8403  0.3894
  185MOL0     H25519   6.301   9.076   8.921  3.6305 -3.7151  2.1703
  185MOL0     H25520   6.242   9.071   8.620 -3.7710 -1.5263 -0.5471
  185MOL0     H25521   6.218   9.212   8.716 -2.8739  0.4849  0.3687
  185MOL0     H25522   6.096   8.943   8.789  1.8148 -0.4025  0.1150
  185MOL0     H25523   6.058   9.097   8.869  1.9076  1.2788 -0.1611
  185MOL0     H25524   5.897   9.001   8.683  0.1969 -1.7416 -1.8455
  185MOL0     H25525   6.018   9.045   8.570  1.5769 -1.8264  2.5562
  185MOL0     H25526   5.788   9.399   8.640  0.3894  0.7131  2.9953
  185MOL0     H25527   6.509   8.977   8.981  0.0665 -0.6498  1.0219
  185MOL0     H25528   6.746   9.011   9.254  1.8962  1.5188 -1.7693
  185MOL0     H25529   6.604   8.919   9.197  1.7053 -1.3810  2.5725
  185MOL0     H25530   6.756   8.877   9.125 -0.4812  0.1751 -1.2897
  186MOL0     O25531   1.821   6.839   7.868 -0.3883  0.0783 -0.2143
  186MOL0     C25532   1.792   6.753   7.959  0.4648  0.1665  0.6548
  186MOL0     O25533   1.855   6.635   7.967  0.5992 -0.3962 -0.3708
  186MOL0     C25534   1.966   6.589   7.901  0.1634 -0.1339  0.4221
  186MOL0     C25535   2.043   6.492   7.960  0.2228 -0.1303  0.9155
  186MOL0     C25536   2.171   6.463   7.913 -0.9948  0.3606 -0.5519
  186MOL0     C25537   2.226   6.535   7.799  0.1642  0.8852 -0.7290
  186MOL0     O25538   2.350   6.515   7.740 -1.0273 -0.6308  0.7478
  186MOL0     C25539   2.439   6.418   7.803 -0.7066  0.1811  0.1066
  186MOL0     C25540   2.576   6.448   7.733  0.1137  0.6152 -0.7864
  186MOL0     C25541   2.677   6.339   7.790 -0.1897  0.6690 -0.1893
  186MOL0     C25542   2.808   6.349   7.717 -0.1108 -0.3524  0.8281
  186MOL0     C25543   2.910   6.251   7.765 -0.1755  1.4266 -0.3758
  186MOL0     C25544   3.032   6.252   7.670 -0.9062 -0.6423  0.1341
  186MOL0     C25545   3.153   6.176   7.731  0.6324 -0.0919  1.0569
  186MOL0     C25546   3.267   6.168   7.641  0.2366 -0.7268 -0.3518
  186MOL0     N25547   3.333   6.297   7.611  0.2173  0.3188 -0.1186
  186MOL0     C25548   3.399   6.317   7.490  0.7420  0.8299 -0.2722
  186MOL0     C25549   3.440   6.446   7.491 -0.5544  1.4072 -0.5179
  186MOL0     C25550   3.516   6.503   7.379 -0.1435  0.2101 -0.5851
  186MOL0     C25551   3.663   6.505   7.415 -0.2943 -0.2235 -0.3203
  186MOL0     C25552   3.744   6.582   7.312 -0.2434  0.1651  0.0664
  186MOL0     C25553   3.733   6.535   7.163  0.1451  0.1461 -0.3585
  186MOL0     O25554   3.849   6.572   7.091 -0.8626  1.1848  0.1518
  186MOL0     C25555   3.865   6.537   6.956  0.1699  1.2076  0.1997
  186MOL0     C25556   3.977   6.574   6.884  0.0940 -0.4200  0.5305
  186MOL0     C25557   4.011   6.501   6.764 -0.1142 -0.4010 -0.7985
  186MOL0     C25558   4.156   6.516   6.718 -0.0459 -0.6180 -0.4657
  186MOL0     C25559   3.920   6.405   6.714  0.1563  0.8298  0.3793
  186MOL0     C25560   3.947   6.319   6.596  0.0918  0.8978 -0.0839
  186MOL0     O25561   3.844   6.236   6.561 -0.2349  0.3612  0.2626
  186MOL0     C25562   3.870   6.157   6.452  0.1346  0.4232 -0.6235
  186MOL0     C25563   3.757   6.133   6.367 -0.6507  0.2932  0.2800
  186MOL0     C25564   3.760   6.051   6.249 -0.8420  0.1937  0.2731
  186MOL0     C25565   3.878   5.988   6.218  0.2297  0.2417 -0.0454
  186MOL0     O25566   3.908   5.920   6.098  0.2942  0.3175 -0.8965
  186MOL0     C25567   3.797   5.896   6.010 -0.0704 -0.2469 -0.5734
  186MOL0     C25568   3.830   5.804   5.891  0.3652 -0.7635  0.4019
  186MOL0     C25569   3.952   5.826   5.810  0.1754 -1.1277  0.4807
  186MOL0     C25570   3.967   5.971   5.755 -0.8324  0.7620  0.7372
  186MOL0     C25571   4.087   6.000   5.666 -0.2659 -0.4938 -0.2040
  186MOL0     C25572   4.047   6.136   5.597 -0.1617 -0.4361  0.3706
  186MOL0     C25573   4.149   6.164   5.489  0.1029 -0.1976  0.5823
  186MOL0     C25574   4.135   6.302   5.418 -0.1855 -0.1291  0.9992
  186MOL0    Cl25575   4.208   6.433   5.524  0.2168 -0.5013  0.4353
  186MOL0     C25576   3.989   6.012   6.295 -0.5699  0.9264 -0.1502
  186MOL0     C25577   3.992   6.091   6.416  0.0990  0.1212  0.4651
  186MOL0     O25578   4.050   6.334   6.537 -0.4479 -0.1970  0.6808
  186MOL0     C25579   3.794   6.392   6.776 -0.7126 -0.2433  0.0355
  186MOL0     C25580   3.772   6.455   6.898 -0.0880 -0.4542  1.0780
  186MOL0     N25581   3.429   6.492   7.620  0.5068  0.1660 -0.6664
  186MOL0     N25582   3.359   6.406   7.688  0.5530  0.2485 -1.5569
  186MOL0     C25583   2.152   6.642   7.737 -0.1218  0.5303  0.3365
  186MOL0     C25584   2.023   6.662   7.785  1.1785 -0.2169  0.0917
  186MOL0     C25585   1.665   6.776   8.041 -0.3558  0.3237 -0.0614
  186MOL0     C25586   1.637   6.678   8.124 -0.1480  0.5159 -0.1201
  186MOL0     C25587   1.523   6.681   8.206 -0.4161  1.3518  0.0507
  186MOL0     C25588   1.438   6.791   8.204  0.1113  0.6218 -0.7683
  186MOL0     O25589   1.340   6.806   8.300  0.1804 -0.0353  0.9473
  186MOL0     C25590   1.367   6.769   8.438  0.1830 -0.2836 -0.1414
  186MOL0     C25591   1.273   6.660   8.490  0.1618  0.8091  0.1205
  186MOL0     C25592   1.305   6.648   8.640 -0.8069 -0.3511 -0.0626
  186MOL0     C25593   1.188   6.572   8.700  0.2890  0.5589 -0.6460
  186MOL0     C25594   1.210   6.580   8.848  0.0936 -0.1312  0.1498
  186MOL0     C25595   1.223   6.564   8.971  0.4180  0.6389  0.0779
  186MOL0     C25596   1.469   6.894   8.118 -0.1106 -0.5238 -0.3374
  186MOL0     C25597   1.581   6.893   8.036 -1.7192  0.1419  0.3658
  186MOL0     C25598   1.595   7.007   7.939  0.1892  1.0726 -0.2889
  186MOL0     H25599   1.989   6.431   8.033 -2.0356  0.8735  0.1600
  186MOL0     H25600   2.223   6.381   7.963  2.2344  2.2301 -0.5557
  186MOL0     H25601   2.410   6.315   7.781 -2.3205  0.6440 -0.0221
  186MOL0     H25602   2.445   6.428   7.912 -0.5799 -1.6584  0.2998
  186MOL0     H25603   2.571   6.440   7.624  1.6371 -2.9792 -0.7493
  186MOL0     H25604   2.605   6.550   7.761  0.2235  0.0219  1.4715
  186MOL0     H25605   2.700   6.346   7.896  1.9933  0.4111 -0.5984
  186MOL0     H25606   2.643   6.237   7.769  1.1255 -0.1129  1.2597
  186MOL0     H25607   2.786   6.335   7.611 -4.4751  2.9366  1.0064
  186MOL0     H25608   2.847   6.450   7.734 -0.0349 -0.0164 -1.1210
  186MOL0     H25609   2.873   6.149   7.775  2.0952  0.5218 -0.5723
  186MOL0     H25610   2.946   6.275   7.866  0.0353 -2.2589  0.5703
  186MOL0     H25611   3.014   6.218   7.568  2.8040  1.6484 -1.4863
  186MOL0     H25612   3.058   6.357   7.657  0.0558 -1.0284 -1.1723
  186MOL0     H25613   3.126   6.072   7.751  0.7748 -0.4206 -0.3700
  186MOL0     H25614   3.181   6.229   7.823 -0.7047  0.7949  0.9679
  186MOL0     H25615   3.343   6.106   7.688  0.3249 -1.3206 -1.2633
  186MOL0     H25616   3.232   6.122   7.548  2.3373 -2.0717 -0.5359
  186MOL0     H25617   3.416   6.261   7.399 -1.4352  1.5063 -1.1506
  186MOL0     H25618   3.477   6.599   7.342  0.6213  1.1443  0.9183
  186MOL0     H25619   3.507   6.437   7.293 -1.8345 -1.1306  0.5743
  186MOL0     H25620   3.680   6.559   7.509 -2.5418  1.4493 -0.7843
  186MOL0     H25621   3.700   6.403   7.425  0.1198 -0.1277 -0.8337
  186MOL0     H25622   3.708   6.685   7.304  0.4685  0.2800 -3.1400
  186MOL0     H25623   3.852   6.581   7.329 -0.1207 -0.7139 -0.6598
  186MOL0     H25624   3.721   6.426   7.156  0.0172  0.2768 -3.1100
  186MOL0     H25625   3.645   6.578   7.115 -3.1527 -0.7114  4.2268
  186MOL0     H25626   4.039   6.644   6.938  0.6004  1.2920 -2.1014
  186MOL0     H25627   4.210   6.560   6.802 -5.3146  0.3772  2.8586
  186MOL0     H25628   4.168   6.579   6.629 -1.5350 -1.1463 -1.0834
  186MOL0     H25629   4.202   6.419   6.696 -0.6033 -1.3187  1.3157
  186MOL0     H25630   3.659   6.178   6.379 -0.9765  1.0194 -3.6956
  186MOL0     H25631   3.668   6.040   6.192  0.2848  1.9323 -2.0497
  186MOL0     H25632   3.711   5.845   6.055  0.3125 -0.6363 -0.2715
  186MOL0     H25633   3.766   5.991   5.966  2.5318 -0.0340 -2.1517
  186MOL0     H25634   3.822   5.700   5.922 -2.2293 -0.6536  0.3709
  186MOL0     H25635   3.753   5.824   5.816  1.0761  3.7801  0.5993
  186MOL0     H25636   3.954   5.761   5.722  1.1344 -0.9150  0.3375
  186MOL0     H25637   4.045   5.804   5.864  0.0626  1.1712  1.7560
  186MOL0     H25638   3.984   6.038   5.839 -0.7097  2.1576 -0.3542
  186MOL0     H25639   3.878   6.007   5.701 -0.4051 -0.7281 -1.0711
  186MOL0     H25640   4.173   6.009   5.734  1.7514 -1.2061 -2.5198
  186MOL0     H25641   4.121   5.919   5.601 -0.1525 -0.7227  0.1375
  186MOL0     H25642   4.042   6.222   5.665  1.5426 -0.0734  0.0780
  186MOL0     H25643   3.948   6.133   5.550 -0.5008  0.3577  0.9939
  186MOL0     H25644   4.143   6.086   5.413 -1.1190  0.8946 -0.4889
  186MOL0     H25645   4.248   6.161   5.536  1.0413 -0.4317 -1.3049
  186MOL0     H25646   4.029   6.313   5.398 -0.0343 -0.7962 -0.2665
  186MOL0     H25647   4.196   6.297   5.327 -0.1375 -0.3377  1.0418
  186MOL0     H25648   4.087   5.991   6.254 -1.7389  2.1570 -3.9747
  186MOL0     H25649   4.076   6.115   6.480 -0.4513  0.4136  1.0915
  186MOL0     H25650   3.715   6.326   6.739 -2.7356  1.2952  1.3844
  186MOL0     H25651   3.668   6.456   6.930 -1.2384 -2.1807 -2.1082
  186MOL0     H25652   2.176   6.699   7.648 -0.3932  2.5425  1.4929
  186MOL0     H25653   1.951   6.729   7.739  1.8310  3.3948  3.6599
  186MOL0     H25654   1.699   6.589   8.133 -1.8793 -0.5347  3.7141
  186MOL0     H25655   1.508   6.588   8.261 -0.5145  0.4598 -1.4281
  186MOL0     H25656   1.467   6.727   8.454 -0.8726 -3.3632 -0.9240
  186MOL0     H25657   1.352   6.859   8.498  3.0769 -0.7262  1.4171
  186MOL0     H25658   1.284   6.570   8.429  2.2680 -0.1160  1.7549
  186MOL0     H25659   1.169   6.693   8.481  0.5063  1.9610  0.1510
  186MOL0     H25660   1.403   6.601   8.651  1.6355  3.6140 -2.3808
  186MOL0     H25661   1.306   6.749   8.682  3.0553  0.7504 -2.4155
  186MOL0     H25662   1.184   6.466   8.672  2.5997  0.6960 -1.7349
  186MOL0     H25663   1.093   6.613   8.666 -0.8534 -1.4916 -0.0994
  186MOL0     H25664   1.247   6.563   9.075 -0.7719 -2.9688  0.4634
  186MOL0     H25665   1.400   6.978   8.113 -0.2623 -0.2351  3.4017
  186MOL0     H25666   1.694   7.048   7.959  1.1884 -2.1852  2.4198
  186MOL0     H25667   1.597   6.976   7.834  0.5886 -0.5110  0.1519
  186MOL0     H25668   1.516   7.081   7.952 -0.4646  0.5225 -1.0379
  187MOL0     O25669   3.325   4.286  10.974 -0.0944  0.4366  0.2511
  187MOL0     C25670   3.306   4.176  11.022 -0.6804 -0.4565 -0.1825
  187MOL0     O25671   3.400   4.109  11.090 -0.2329  0.6619  0.0223
  187MOL0     C25672   3.506   4.171  11.147 -0.0063  0.2267 -0.1181
  187MOL0     C25673   3.491   4.293  11.215 -0.0646 -0.1381 -0.0006
  187MOL0     C25674   3.587   4.348  11.289 -0.5505 -0.1427 -0.5807
  187MOL0     C25675   3.710   4.283  11.312  0.0380  0.4509  0.2630
  187MOL0     O25676   3.818   4.327  11.379 -0.1569  0.8104 -0.0127
  187MOL0     C25677   3.790   4.414  11.488  0.0115  0.1528  0.2764
  187MOL0     C25678   3.900   4.428  11.589 -0.1546 -0.2625  0.6282
  187MOL0     C25679   4.034   4.470  11.527 -0.7548 -0.2863  0.9904
  187MOL0     C25680   4.128   4.539  11.631 -0.0352 -0.3622  0.5134
  187MOL0     C25681   4.273   4.559  11.587  0.4090 -0.8381  0.4671
  187MOL0     C25682   4.300   4.673  11.495  0.2864 -0.0514 -0.9809
  187MOL0     C25683   4.455   4.705  11.490 -0.2181 -0.1596  1.0037
  187MOL0     C25684   4.467   4.817  11.394  0.5084  0.4868  0.3802
  187MOL0     N25685   4.589   4.875  11.372  0.2400  0.1013 -0.0889
  187MOL0     C25686   4.667   4.946  11.464 -0.4868  0.0624  0.3862
  187MOL0     C25687   4.792   4.952  11.414  0.6489 -0.0684 -0.5133
  187MOL0     C25688   4.907   5.017  11.488  0.1375 -0.6127  0.6387
  187MOL0     C25689   5.038   4.927  11.483  0.2670  0.1948 -0.0908
  187MOL0     C25690   5.178   4.999  11.513 -0.0995 -0.1327  0.5946
  187MOL0     C25691   5.224   4.964  11.649  0.3456 -1.5718  0.5233
  187MOL0     O25692   5.243   4.831  11.679 -0.0861  0.2149 -0.0128
  187MOL0     C25693   5.339   4.754  11.618  0.7145 -0.0003 -0.8544
  187MOL0     C25694   5.343   4.619  11.648 -0.8299 -0.5477 -0.7163
  187MOL0     C25695   5.437   4.530  11.590  1.0367 -0.3122  0.5847
  187MOL0     C25696   5.399   4.382  11.613 -0.0696  0.4013 -0.0035
  187MOL0     C25697   5.539   4.580  11.507  0.0781 -0.5714 -0.3512
  187MOL0     C25698   5.650   4.503  11.454 -0.4059 -0.7578  1.4725
  187MOL0     O25699   5.636   4.433  11.336 -0.1117 -0.1349 -0.2831
  187MOL0     C25700   5.717   4.326  11.315  0.8689 -0.5246  0.3460
  187MOL0     C25701   5.703   4.209  11.389 -0.2597 -1.0087  1.3868
  187MOL0     C25702   5.790   4.098  11.373  0.9907 -0.3253  0.1326
  187MOL0     C25703   5.890   4.103  11.272 -0.3390  0.5140  0.2782
  187MOL0     O25704   5.967   3.993  11.260 -0.7167  0.5352 -0.5474
  187MOL0     C25705   6.038   3.964  11.138  0.1583  0.0597  0.9567
  187MOL0     C25706   6.057   3.807  11.128  0.0146 -0.0507  0.0525
  187MOL0     C25707   6.060   3.758  10.982 -1.1234 -0.6607  0.8951
  187MOL0     C25708   6.191   3.787  10.912  0.0953  0.5584  0.1997
  187MOL0     C25709   6.179   3.778  10.759 -0.4549 -0.3642 -1.1683
  187MOL0     C25710   6.169   3.629  10.716  0.3342  0.5049  0.0729
  187MOL0     C25711   6.303   3.553  10.739  0.0070 -0.2769 -0.6539
  187MOL0     C25712   6.259   3.407  10.701  0.9080 -0.8701 -0.4001
  187MOL0    Cl25713   6.395   3.319  10.761  0.3149  0.2562  0.0265
  187MOL0     C25714   5.909   4.221  11.205 -0.4567  0.4932  0.1138
  187MOL0     C25715   5.818   4.334  11.215  0.1211  0.2929 -0.0976
  187MOL0     O25716   5.748   4.497  11.530 -0.6630  0.2755  0.6589
  187MOL0     C25717   5.547   4.725  11.496  0.1871 -0.0512  0.1032
  187MOL0     C25718   5.439   4.805  11.536  0.3158 -0.8370 -0.9004
  187MOL0     N25719   4.789   4.904  11.282  0.1031 -0.0486 -0.4161
  187MOL0     N25720   4.665   4.857  11.263  0.7426 -0.7275 -0.1183
  187MOL0     C25721   3.722   4.156  11.254 -0.2757  0.2707 -0.2874
  187MOL0     C25722   3.625   4.101  11.163  0.1574 -0.4979  0.9758
  187MOL0     C25723   3.173   4.115  10.981  0.8178 -0.1765  0.0660
  187MOL0     C25724   3.076   4.190  10.901 -0.2640  0.5135  0.4647
  187MOL0     C25725   2.951   4.142  10.865 -0.5835 -0.1507 -0.2297
  187MOL0     C25726   2.913   4.011  10.896 -0.4495  0.3227  0.0235
  187MOL0     O25727   2.802   3.950  10.850 -0.3676 -0.3028 -0.1724
  187MOL0     C25728   2.684   4.025  10.827  0.3357 -0.6055  0.0862
  187MOL0     C25729   2.635   4.071  10.957 -0.0822 -0.3507 -0.0863
  187MOL0     C25730   2.555   4.205  10.950  0.1901 -0.1767 -0.5261
  187MOL0     C25731   2.631   4.323  10.876 -0.0074  0.7288  0.4026
  187MOL0     C25732   2.717   4.379  10.979  0.4784 -0.1846 -0.0331
  187MOL0     C25733   2.783   4.441  11.063 -0.0241 -0.2961  0.1627
  187MOL0     C25734   3.008   3.933  10.966 -0.3217 -0.9611  0.3821
  187MOL0     C25735   3.131   3.988  11.019 -0.1519 -0.5505 -0.0302
  187MOL0     C25736   3.207   3.893  11.115 -0.2606 -0.2693  0.6069
  187MOL0     H25737   3.397   4.348  11.217 -2.0586 -2.9959 -2.9217
  187MOL0     H25738   3.562   4.445  11.329 -1.0877  0.1920 -1.6709
  187MOL0     H25739   3.697   4.394  11.544 -0.4794 -0.6570 -0.8011
  187MOL0     H25740   3.774   4.512  11.442 -2.0782 -0.1814  0.1765
  187MOL0     H25741   3.873   4.508  11.659 -3.2015 -0.4665 -0.1905
  187MOL0     H25742   3.914   4.332  11.641  2.4741 -0.6347 -0.6161
  187MOL0     H25743   4.078   4.373  11.500 -1.0904 -0.5998  1.5578
  187MOL0     H25744   4.020   4.526  11.434  0.0278 -0.4512  0.7632
  187MOL0     H25745   4.088   4.637  11.658 -0.8013  0.0617 -1.8871
  187MOL0     H25746   4.119   4.478  11.721  0.3155 -0.1531  0.6904
  187MOL0     H25747   4.310   4.462  11.554 -1.1820 -2.4146  2.9924
  187MOL0     H25748   4.328   4.585  11.678 -1.1333  0.2481  1.1521
  187MOL0     H25749   4.266   4.641  11.396 -0.5780  0.9651 -1.0265
  187MOL0     H25750   4.259   4.763  11.542  2.0985 -0.4698  1.6593
  187MOL0     H25751   4.512   4.620  11.451  2.1692  0.9931  1.8671
  187MOL0     H25752   4.510   4.734  11.579 -0.4448  1.4452  0.6483
  187MOL0     H25753   4.439   4.767  11.300  2.9470 -1.0112  0.3523
  187MOL0     H25754   4.399   4.899  11.417  1.3058  1.3050 -0.1187
  187MOL0     H25755   4.650   4.997  11.558  0.3609  1.1438 -0.0136
  187MOL0     H25756   4.878   5.012  11.593 -1.5788 -0.8451  0.1761
  187MOL0     H25757   4.928   5.118  11.452  0.8663 -0.4979  1.3465
  187MOL0     H25758   5.020   4.842  11.549 -2.0623  0.1328 -0.7340
  187MOL0     H25759   5.059   4.890  11.382  1.3557 -0.3710  0.3209
  187MOL0     H25760   5.250   4.961  11.440  0.9902  1.0753  1.0001
  187MOL0     H25761   5.174   5.107  11.498  1.0653 -0.2254 -0.5956
  187MOL0     H25762   5.315   5.022  11.667  0.9243 -1.7787 -1.4404
  187MOL0     H25763   5.150   5.000  11.721  0.1392  0.6143 -0.6703
  187MOL0     H25764   5.273   4.588  11.726 -0.5361 -1.7570 -0.9113
  187MOL0     H25765   5.292   4.359  11.619  0.4554 -2.6805 -0.4964
  187MOL0     H25766   5.438   4.358  11.713 -0.6479  2.7082  0.8225
  187MOL0     H25767   5.441   4.313  11.539  1.0743  0.9539  0.1066
  187MOL0     H25768   5.646   4.217  11.481 -0.6133 -2.5042  1.3291
  187MOL0     H25769   5.772   4.018  11.444  2.0135 -0.7730 -0.1007
  187MOL0     H25770   5.980   4.009  11.056 -0.6730 -2.1830  0.2347
  187MOL0     H25771   6.135   4.015  11.134 -0.3676  1.3600 -4.5783
  187MOL0     H25772   6.141   3.777  11.191  0.5361  1.0587 -0.0784
  187MOL0     H25773   5.969   3.774  11.184 -0.0766  2.7777  1.8035
  187MOL0     H25774   5.972   3.796  10.929 -0.4377  0.2766  0.3957
  187MOL0     H25775   6.051   3.650  10.992  0.6350 -1.0211 -0.8104
  187MOL0     H25776   6.277   3.726  10.943 -0.5787 -1.4960 -1.6478
  187MOL0     H25777   6.231   3.886  10.935  0.5300  0.3377  0.4226
  187MOL0     H25778   6.093   3.830  10.717 -2.2830 -2.0195  0.2892
  187MOL0     H25779   6.272   3.826  10.728  0.7079  0.1850  2.6562
  187MOL0     H25780   6.142   3.636  10.610 -3.4016  0.5057  0.8858
  187MOL0     H25781   6.088   3.580  10.772  1.3051  1.0461  2.0599
  187MOL0     H25782   6.332   3.574  10.842  0.3688  3.6162 -1.3688
  187MOL0     H25783   6.374   3.598  10.669 -0.0089 -0.7399 -0.9648
  187MOL0     H25784   6.243   3.413  10.593  0.9663 -2.0320 -0.4897
  187MOL0     H25785   6.174   3.368  10.757  1.6562  0.3968  1.7138
  187MOL0     H25786   5.981   4.239  11.126 -2.0148 -2.7108 -2.2772
  187MOL0     H25787   5.841   4.420  11.154  2.1663  0.2906  0.5956
  187MOL0     H25788   5.631   4.778  11.452  2.5262 -1.2531  2.8529
  187MOL0     H25789   5.456   4.910  11.515  1.8742 -1.3447 -2.3569
  187MOL0     H25790   3.813   4.100  11.273 -0.1452  0.9273  1.1974
  187MOL0     H25791   3.647   4.013  11.104 -0.4551 -1.5540  2.2742
  187MOL0     H25792   3.098   4.293  10.879 -0.3625  0.2889 -0.7461
  187MOL0     H25793   2.882   4.198  10.802 -1.9205 -1.7688 -0.2604
  187MOL0     H25794   2.718   4.107  10.763 -1.1213  0.8881  1.1425
  187MOL0     H25795   2.605   3.966  10.779 -1.5347  1.5226  0.4190
  187MOL0     H25796   2.711   4.084  11.035  0.3993  1.3930 -0.7864
  187MOL0     H25797   2.560   4.003  10.999  1.9275 -1.0803  2.6211
  187MOL0     H25798   2.458   4.187  10.903 -1.3126  0.7090  2.0209
  187MOL0     H25799   2.533   4.242  11.051 -3.8093  1.6411 -1.8458
  187MOL0     H25800   2.564   4.406  10.852 -0.8311 -0.0987 -0.2018
  187MOL0     H25801   2.674   4.298  10.779 -0.7970 -2.0963  0.6934
  187MOL0     H25802   2.847   4.499  11.127  2.1992 -1.3209 -1.0040
  187MOL0     H25803   2.975   3.832  10.988  0.6410 -2.0187 -2.5516
  187MOL0     H25804   3.147   3.805  11.141  2.0857 -1.7526  1.2633
  187MOL0     H25805   3.294   3.861  11.057 -2.4158  1.4191 -4.0937
  187MOL0     H25806   3.225   3.938  11.213 -3.2075 -1.1785  1.6894
  188MOL0     O25807   8.276   4.230   2.298 -0.3178 -0.7986 -0.0067
  188MOL0     C25808   8.189   4.316   2.271  0.0124  0.6124  0.6427
  188MOL0     O25809   8.216   4.441   2.228  0.6155  0.4770  0.5761
  188MOL0     C25810   8.345   4.480   2.195  0.3357  0.5437 -0.3969
  188MOL0     C25811   8.389   4.515   2.071  0.8197 -0.1953  0.1051
  188MOL0     C25812   8.513   4.587   2.056 -0.0591  0.1197 -1.0888
  188MOL0     C25813   8.602   4.586   2.169  0.0735  0.2110 -0.7371
  188MOL0     O25814   8.731   4.646   2.168  0.1281  0.3538  0.1835
  188MOL0     C25815   8.756   4.754   2.080 -1.0181  0.0960  0.5837
  188MOL0     C25816   8.854   4.862   2.131  0.1708 -0.4269  0.5149
  188MOL0     C25817   8.909   4.952   2.024 -0.6186 -0.6359 -0.0092
  188MOL0     C25818   8.797   5.048   1.980 -1.3083  0.2162 -0.2012
  188MOL0     C25819   8.833   5.148   1.870  0.0633  0.4248  0.7101
  188MOL0     C25820   8.908   5.270   1.914  0.7500  0.6267 -0.0888
  188MOL0     C25821   8.812   5.368   1.995 -0.6163 -0.0262  0.7256
  188MOL0     C25822   8.861   5.509   2.012 -0.5415 -0.0359 -0.1659
  188MOL0     N25823   8.995   5.509   2.086 -0.1927 -0.8021 -0.2822
  188MOL0     C25824   9.131   5.512   2.048  0.2332  0.1262 -0.5345
  188MOL0     C25825   9.205   5.525   2.163 -0.3890  0.4045 -0.5768
  188MOL0     C25826   9.353   5.560   2.189 -0.2406  0.5201 -0.5801
  188MOL0     C25827   9.451   5.452   2.146 -0.0547  0.9932  0.0269
  188MOL0     C25828   9.417   5.302   2.188  0.0653 -0.6689  0.5976
  188MOL0     C25829   9.436   5.286   2.342  0.3976 -0.5727 -0.7903
  188MOL0     O25830   9.576   5.261   2.374  0.8178  0.3426 -0.0648
  188MOL0     C25831   9.610   5.230   2.500  0.2245  0.1111 -0.4807
  188MOL0     C25832   9.531   5.226   2.607  0.4049  0.2044  0.1511
  188MOL0     C25833   9.578   5.168   2.732  0.5790  0.2143  0.2210
  188MOL0     C25834   9.484   5.156   2.851  0.4880 -0.4539  0.6896
  188MOL0     C25835   9.710   5.113   2.751 -0.2918  0.5037  0.1793
  188MOL0     C25836   9.761   5.036   2.866 -0.1404  0.9566  0.1899
  188MOL0     O25837   9.897   5.034   2.875 -0.4640 -0.0679  0.4906
  188MOL0     C25838   9.963   4.965   2.970  0.4509  0.4563  0.1485
  188MOL0     C25839  10.098   5.003   2.994 -0.2648 -0.5940  0.1572
  188MOL0     C25840  10.176   4.936   3.081 -1.4485  0.4051  0.0110
  188MOL0     C25841  10.132   4.814   3.130 -0.5745  0.1407 -0.6752
  188MOL0     O25842  10.219   4.730   3.200 -0.0024 -0.7318  0.0026
  188MOL0     C25843  10.170   4.710   3.333 -1.1787 -0.0730 -0.2509
  188MOL0     C25844  10.191   4.837   3.419  0.5004  0.4324  0.2813
  188MOL0     C25845  10.330   4.892   3.429  0.0830 -0.1419  0.4639
  188MOL0     C25846  10.326   5.035   3.472  0.3312 -0.5899  0.6944
  188MOL0     C25847  10.272   5.123   3.361  0.9333 -0.4602 -0.2025
  188MOL0     C25848  10.270   5.269   3.408 -0.2721 -0.3318  0.4764
  188MOL0     C25849  10.268   5.358   3.287 -0.6543 -0.1160  0.1692
  188MOL0     C25850  10.247   5.508   3.319 -0.0426 -0.3443 -0.5796
  188MOL0    Cl25851  10.382   5.571   3.430 -0.1447  0.4324  0.6906
  188MOL0     C25852  10.009   4.773   3.100  0.5761 -0.1528  0.6610
  188MOL0     C25853   9.927   4.849   3.021  1.3239  1.2369 -0.3164
  188MOL0     O25854   9.681   4.970   2.937 -0.8616  0.5074 -0.6006
  188MOL0     C25855   9.790   5.126   2.637 -0.7232 -0.0812 -0.0464
  188MOL0     C25856   9.748   5.185   2.516 -0.1418  0.3780  0.5884
  188MOL0     N25857   9.113   5.519   2.269  0.1387 -1.1707  0.0115
  188MOL0     N25858   8.996   5.509   2.227 -0.0858 -0.9687  0.3334
  188MOL0     C25859   8.565   4.526   2.292 -0.0805 -0.3342  0.4016
  188MOL0     C25860   8.430   4.489   2.310  0.7188 -0.3984  0.4690
  188MOL0     C25861   8.047   4.289   2.304  0.7494  0.2606 -0.5195
  188MOL0     C25862   7.959   4.394   2.331 -0.2363  0.0120  0.1875
  188MOL0     C25863   7.819   4.381   2.354 -1.2719 -0.1090 -0.2669
  188MOL0     C25864   7.767   4.260   2.338  1.4535  0.7769 -0.2416
  188MOL0     O25865   7.629   4.260   2.343  0.1322  0.6304 -0.5651
  188MOL0     C25866   7.558   4.142   2.307 -0.1907 -0.5543 -0.0602
  188MOL0     C25867   7.410   4.164   2.321  0.6990 -0.5569  0.1607
  188MOL0     C25868   7.359   4.258   2.216  0.3112  0.5007  0.5853
  188MOL0     C25869   7.201   4.270   2.244 -0.5539  0.3404  0.6781
  188MOL0     C25870   7.141   4.335   2.131  0.8226 -0.4435  0.9770
  188MOL0     C25871   7.081   4.393   2.035  0.0842  0.2669 -0.5450
  188MOL0     C25872   7.846   4.141   2.310 -0.0646  0.2501  0.3275
  188MOL0     C25873   7.982   4.154   2.292 -1.1769 -0.1981  0.0609
  188MOL0     C25874   8.062   4.029   2.263 -0.1569 -0.0467 -0.1962
  188MOL0     H25875   8.335   4.495   1.979  1.2309 -0.2879 -0.1220
  188MOL0     H25876   8.543   4.633   1.962  1.4859  1.8451  0.1850
  188MOL0     H25877   8.661   4.800   2.049 -1.1719 -0.2953  0.4671
  188MOL0     H25878   8.806   4.708   1.994 -1.3516  1.4668 -0.3884
  188MOL0     H25879   8.820   4.924   2.214  2.5355 -0.1048  1.3165
  188MOL0     H25880   8.929   4.793   2.170  0.5295 -0.5301 -0.3204
  188MOL0     H25881   8.997   4.998   2.069  1.6276 -0.8136 -3.7328
  188MOL0     H25882   8.947   4.893   1.940  0.2073 -3.0768  1.9554
  188MOL0     H25883   8.719   4.984   1.937 -3.2169  1.4446  1.2359
  188MOL0     H25884   8.748   5.108   2.057 -0.3778  1.8524 -0.8522
  188MOL0     H25885   8.742   5.185   1.821  0.5297 -0.6733 -1.0546
  188MOL0     H25886   8.895   5.096   1.797 -0.3629  0.3164  0.4172
  188MOL0     H25887   8.986   5.225   1.976 -0.4938 -1.8663 -0.1901
  188MOL0     H25888   8.957   5.306   1.824 -0.6122 -2.3516 -2.1767
  188MOL0     H25889   8.774   5.323   2.088  0.4129 -3.8083 -0.5167
  188MOL0     H25890   8.722   5.388   1.936 -0.2556  2.9620  1.0039
  188MOL0     H25891   8.861   5.572   1.922  0.2078  1.4553  0.8397
  188MOL0     H25892   8.788   5.566   2.069 -2.0956 -4.3720  2.5884
  188MOL0     H25893   9.154   5.517   1.942 -1.1899 -2.7049 -1.0503
  188MOL0     H25894   9.355   5.569   2.298 -1.7607 -0.6854 -0.4256
  188MOL0     H25895   9.384   5.658   2.151 -1.2230  0.7584 -0.7897
  188MOL0     H25896   9.450   5.441   2.037  0.3921 -0.2476  0.1245
  188MOL0     H25897   9.548   5.492   2.177 -0.6467  1.3187  1.5416
  188MOL0     H25898   9.317   5.273   2.155  1.1104 -4.1122  0.0443
  188MOL0     H25899   9.476   5.227   2.134  0.9396  0.7728 -0.5166
  188MOL0     H25900   9.398   5.373   2.398 -0.6375 -1.0454 -0.7446
  188MOL0     H25901   9.379   5.199   2.374  1.8205 -0.7034  1.6915
  188MOL0     H25902   9.425   5.247   2.599  0.8276  1.6067 -3.8123
  188MOL0     H25903   9.438   5.059   2.832 -1.2770  0.0479  2.1400
  188MOL0     H25904   9.406   5.232   2.845  4.2263  3.7808 -1.2108
  188MOL0     H25905   9.535   5.187   2.943 -1.1669  0.3965  1.3464
  188MOL0     H25906  10.138   5.088   2.939  1.4359 -0.1140  2.0389
  188MOL0     H25907  10.275   4.967   3.113 -1.4455  0.3511  0.0557
  188MOL0     H25908  10.066   4.676   3.343 -1.1869 -1.1646 -3.0798
  188MOL0     H25909  10.230   4.632   3.382  0.4957  1.5496  0.3760
  188MOL0     H25910  10.115   4.899   3.372 -2.7053 -2.2063  1.6264
  188MOL0     H25911  10.158   4.818   3.521 -0.1448  1.4355  0.2642
  188MOL0     H25912  10.370   4.878   3.328 -1.4336 -2.9743  0.1761
  188MOL0     H25913  10.399   4.834   3.492 -0.3107 -1.7154 -0.5094
  188MOL0     H25914  10.429   5.061   3.499  0.0311 -1.4420  2.8847
  188MOL0     H25915  10.265   5.039   3.563 -3.0635 -2.3442 -1.2880
  188MOL0     H25916  10.333   5.112   3.270  2.7914 -0.3567  0.9892
  188MOL0     H25917  10.168   5.099   3.335  0.2675  3.6518 -2.1375
  188MOL0     H25918  10.358   5.279   3.473  0.1349  0.2633 -0.1565
  188MOL0     H25919  10.177   5.290   3.461 -1.1000  0.5789 -1.2381
  188MOL0     H25920  10.183   5.332   3.224 -0.0150 -0.8397 -0.4115
  188MOL0     H25921  10.359   5.343   3.229 -0.8785 -1.0522  0.0465
  188MOL0     H25922  10.143   5.521   3.352 -1.3699 -1.3671 -3.8451
  188MOL0     H25923  10.249   5.570   3.229  0.5118  0.3180 -0.1153
  188MOL0     H25924   9.966   4.680   3.135  0.1389  0.2348  1.1797
  188MOL0     H25925   9.834   4.801   2.994  1.2888 -0.2383  2.1374
  188MOL0     H25926   9.891   5.089   2.622 -1.0599 -0.7375 -0.7453
  188MOL0     H25927   9.813   5.196   2.430 -1.1669  1.6881 -0.0667
  188MOL0     H25928   8.621   4.520   2.385 -1.1870  0.7744  1.1703
  188MOL0     H25929   8.385   4.448   2.399 -0.2129  1.5476  0.9456
  188MOL0     H25930   8.001   4.493   2.342  0.4539 -0.1276 -1.0311
  188MOL0     H25931   7.761   4.468   2.381  1.6372  1.1640  2.6526
  188MOL0     H25932   7.582   4.118   2.203  2.7006  0.6333  0.2369
  188MOL0     H25933   7.592   4.065   2.377 -1.1878  0.1702  1.2588
  188MOL0     H25934   7.385   4.199   2.422 -1.2155 -0.1893 -0.4074
  188MOL0     H25935   7.358   4.070   2.304  2.6224 -1.3155 -2.0519
  188MOL0     H25936   7.410   4.355   2.222  2.0243 -0.3982  1.5151
  188MOL0     H25937   7.368   4.216   2.116 -4.2577 -0.9827  0.5638
  188MOL0     H25938   7.186   4.329   2.335 -0.5033  3.2208 -1.0389
  188MOL0     H25939   7.158   4.170   2.247  1.5871 -0.6441  0.3180
  188MOL0     H25940   7.035   4.457   1.963 -2.4018  0.5906  1.2085
  188MOL0     H25941   7.797   4.048   2.286 -1.1492  1.0151 -0.5605
  188MOL0     H25942   7.992   3.946   2.255 -0.1111 -0.3562  1.9469
  188MOL0     H25943   8.114   4.051   2.169  1.9109  0.0900  0.9037
  188MOL0     H25944   8.137   4.009   2.340 -0.1449  1.1250  0.1274
  189MOL0     O25945   7.064   0.812  10.215 -0.0319 -0.0279 -0.0657
  189MOL0     C25946   7.001   0.760  10.305  0.3081  0.6873  0.3880
  189MOL0     O25947   6.910   0.663  10.293  0.5396  1.1667  0.0101
  189MOL0     C25948   6.894   0.574  10.188 -0.0689 -0.1620  0.5234
  189MOL0     C25949   6.983   0.533  10.089  0.0885 -0.5690  0.0506
  189MOL0     C25950   6.937   0.440   9.985 -0.5293  0.0584  0.0266
  189MOL0     C25951   6.804   0.408   9.965  0.1656 -0.6826 -0.4776
  189MOL0     O25952   6.756   0.342   9.850  0.0200 -0.0255 -0.1288
  189MOL0     C25953   6.833   0.231   9.805  1.2741  0.0071 -0.4050
  189MOL0     C25954   6.760   0.144   9.702 -0.0514  0.0824  1.0057
  189MOL0     C25955   6.694   0.016   9.764 -0.1692 -0.2767  0.1447
  189MOL0     C25956   6.629  -0.070   9.654 -0.0775 -0.0600  0.4141
  189MOL0     C25957   6.518   0.005   9.587 -0.8446 -0.1428 -0.4620
  189MOL0     C25958   6.383   0.030   9.659 -0.2938 -0.0466  0.1480
  189MOL0     C25959   6.306  -0.094   9.669  0.6892 -0.0091 -0.9427
  189MOL0     C25960   6.167  -0.073   9.725 -0.2878 -0.0816 -0.5729
  189MOL0     N25961   6.154  -0.031   9.864 -0.3441  0.9779 -0.2159
  189MOL0     C25962   6.194  -0.105   9.968  0.3513 -0.6973 -0.0035
  189MOL0     C25963   6.195  -0.008  10.059  0.1875 -0.4387 -0.7088
  189MOL0     C25964   6.243  -0.045  10.198  0.2490  0.4474 -0.1464
  189MOL0     C25965   6.354   0.036  10.251  1.2012  0.3049 -0.2458
  189MOL0     C25966   6.472   0.045  10.153  0.1849  0.1459 -0.2103
  189MOL0     C25967   6.589   0.122  10.199  0.1082 -0.8289  0.4760
  189MOL0     O25968   6.675   0.036  10.264  0.0240 -0.3930  0.3810
  189MOL0     C25969   6.804   0.066  10.302 -0.7929  0.0986  0.5240
  189MOL0     C25970   6.886  -0.036  10.339  0.6634  0.2146  0.2187
  189MOL0     C25971   7.013  -0.029  10.381 -1.1576 -0.6829 -0.0986
  189MOL0     C25972   7.095  -0.153  10.397 -0.0566 -0.0374  0.2274
  189MOL0     C25973   7.062   0.109  10.388 -0.7163  0.7643  0.2360
  189MOL0     C25974   7.201   0.133  10.443 -0.3182 -0.3732 -0.0158
  189MOL0     O25975   7.259   0.064  10.545 -0.4517 -0.2283 -0.1579
  189MOL0     C25976   7.398   0.089  10.564 -0.0325 -0.2505 -0.3033
  189MOL0     C25977   7.445   0.156  10.684  0.6858  0.2543 -1.1670
  189MOL0     C25978   7.580   0.180  10.689 -0.9411 -0.7521  0.0034
  189MOL0     C25979   7.678   0.135  10.596 -0.0932  0.8751 -0.2350
  189MOL0     O25980   7.815   0.151  10.620  0.1405  0.0221 -0.0669
  189MOL0     C25981   7.911   0.116  10.519  0.9089  0.0018 -0.2343
  189MOL0     C25982   8.045   0.152  10.581  0.3959  0.2162  0.8702
  189MOL0     C25983   8.163   0.095  10.499  0.2537 -0.2421 -0.0640
  189MOL0     C25984   8.208   0.191  10.396 -0.1169  0.0643 -0.0899
  189MOL0     C25985   8.324   0.156  10.313 -0.0214  0.1752 -0.1058
  189MOL0     C25986   8.459   0.152  10.390  0.1153 -0.1421  0.4198
  189MOL0     C25987   8.565   0.104  10.292  0.0240 -0.1766 -0.6487
  189MOL0     C25988   8.689   0.061  10.369 -0.1110 -0.1584 -0.2283
  189MOL0    Cl25989   8.757   0.214  10.440  0.5492 -0.5319 -0.3854
  189MOL0     C25990   7.627   0.073  10.479  0.5277 -0.3528 -0.3717
  189MOL0     C25991   7.487   0.054  10.459  0.7018 -0.2155  0.6646
  189MOL0     O25992   7.250   0.239  10.384 -0.4073 -0.1652 -0.2252
  189MOL0     C25993   6.991   0.217  10.340  0.8203  0.2780  0.0180
  189MOL0     C25994   6.856   0.196  10.305  0.6150 -0.9965 -0.2500
  189MOL0     N25995   6.144   0.115  10.023 -1.1111  0.0283 -0.1055
  189MOL0     N25996   6.131   0.099   9.898 -0.2413 -0.4591 -0.1057
  189MOL0     C25997   6.721   0.445  10.069 -0.0007  0.7408  0.9630
  189MOL0     C25998   6.766   0.523  10.180  0.5100 -0.2879  0.1080
  189MOL0     C25999   7.026   0.808  10.444  0.0717 -0.1326  0.6797
  189MOL0     C26000   6.914   0.829  10.529 -0.8695 -0.2293 -0.4185
  189MOL0     C26001   6.917   0.864  10.662 -0.0469 -0.0069  1.1228
  189MOL0     C26002   7.050   0.890  10.716 -0.1370 -0.3117  0.0121
  189MOL0     O26003   7.077   0.946  10.842  0.6719 -0.2372  0.0449
  189MOL0     C26004   6.955   0.958  10.933 -0.3362  0.8152 -0.1835
  189MOL0     C26005   6.921   0.819  10.999  0.4919  0.1161 -0.2450
  189MOL0     C26006   6.767   0.792  11.005  0.2678  0.1369  0.2635
  189MOL0     C26007   6.739   0.661  11.082  0.2813 -0.1394 -0.8984
  189MOL0     C26008   6.773   0.543  11.006 -0.0790 -1.4427 -1.0855
  189MOL0     C26009   6.793   0.438  10.952 -0.7403  0.1409 -0.5859
  189MOL0     C26010   7.162   0.885  10.640 -0.3104  0.1754  1.2561
  189MOL0     C26011   7.156   0.845  10.495 -0.5300 -0.1498 -0.3474
  189MOL0     C26012   7.285   0.825  10.409 -0.3886  0.3391 -0.5274
  189MOL0     H26013   7.087   0.565  10.088 -0.0649  0.0538  1.4855
  189MOL0     H26014   7.007   0.403   9.911 -0.5154 -0.0572  0.0970
  189MOL0     H26015   6.886   0.170   9.879 -0.9080  1.3016  2.4476
  189MOL0     H26016   6.909   0.275   9.740  0.3308  1.6359 -0.4803
  189MOL0     H26017   6.682   0.208   9.659 -0.8088 -2.2774 -1.4131
  189MOL0     H26018   6.819   0.103   9.620 -3.3952  0.1049 -1.6150
  189MOL0     H26019   6.770  -0.050   9.806 -1.9169 -0.7573  2.8133
  189MOL0     H26020   6.640   0.049   9.853  3.7707 -0.1176  2.7068
  189MOL0     H26021   6.700  -0.099   9.576 -0.9391  0.2308 -0.4904
  189MOL0     H26022   6.588  -0.164   9.691 -1.5466 -0.6175 -2.3385
  189MOL0     H26023   6.488  -0.059   9.503 -0.2522 -0.8177 -0.1734
  189MOL0     H26024   6.549   0.104   9.551  0.6672  0.1127  1.3975
  189MOL0     H26025   6.396   0.092   9.749 -1.5952  1.5266 -0.6954
  189MOL0     H26026   6.325   0.107   9.608 -0.4361 -0.1631  0.1323
  189MOL0     H26027   6.355  -0.165   9.736  0.7310  1.5901  0.7925
  189MOL0     H26028   6.296  -0.147   9.574 -0.9822 -1.8571  0.1940
  189MOL0     H26029   6.111  -0.009   9.656  1.3532  0.9025 -1.0281
  189MOL0     H26030   6.104  -0.163   9.720  1.3498 -1.2472 -0.8924
  189MOL0     H26031   6.237  -0.205   9.976  2.6120  0.2088  0.0297
  189MOL0     H26032   6.270  -0.151  10.207 -1.3806  0.0454  0.1651
  189MOL0     H26033   6.161  -0.023  10.266  1.4862  0.3397  1.4368
  189MOL0     H26034   6.316   0.131  10.291  2.0882 -0.0435  1.5223
  189MOL0     H26035   6.385  -0.014  10.343  0.8397 -1.6448 -1.1349
  189MOL0     H26036   6.512  -0.055  10.130 -0.1352 -0.2673  0.9812
  189MOL0     H26037   6.449   0.094  10.058  2.4975 -0.0533 -0.9349
  189MOL0     H26038   6.652   0.166  10.121  1.3500  2.0157  2.9252
  189MOL0     H26039   6.549   0.205  10.257 -0.2007 -1.4276  1.1381
  189MOL0     H26040   6.839  -0.131  10.316  0.7895  0.6279 -2.0210
  189MOL0     H26041   7.039  -0.240  10.362  1.1624 -0.6019 -0.3730
  189MOL0     H26042   7.123  -0.166  10.502  0.6864 -2.7930 -0.2274
  189MOL0     H26043   7.191  -0.149  10.346  1.7698  1.6131  3.4899
  189MOL0     H26044   7.381   0.178  10.769  2.8317 -2.6214  1.4289
  189MOL0     H26045   7.615   0.226  10.781 -1.8597 -0.3435  0.1634
  189MOL0     H26046   7.899   0.017  10.474 -6.0018 -0.1661  0.9862
  189MOL0     H26047   7.895   0.179  10.431 -0.0974 -1.0790 -0.8445
  189MOL0     H26048   8.051   0.261  10.580 -0.9603  0.3040  0.5996
  189MOL0     H26049   8.046   0.116  10.685  2.3611 -1.6684  0.2783
  189MOL0     H26050   8.122   0.002  10.457  1.3475 -1.3723  1.2539
  189MOL0     H26051   8.247   0.059  10.560 -2.0387 -2.6605  1.9185
  189MOL0     H26052   8.237   0.282  10.449  2.6694 -0.1224 -1.1376
  189MOL0     H26053   8.127   0.215  10.326  1.0018 -0.4124 -1.5975
  189MOL0     H26054   8.293   0.060  10.269  0.6371  0.7825 -1.9697
  189MOL0     H26055   8.330   0.224  10.228  0.6412 -1.7406 -1.6752
  189MOL0     H26056   8.444   0.076  10.467  0.4701  0.7062  1.3482
  189MOL0     H26057   8.471   0.254  10.427 -1.8298  0.9677 -1.7116
  189MOL0     H26058   8.593   0.184  10.222  1.6189  0.9373  1.1695
  189MOL0     H26059   8.527   0.017  10.238  0.1631  0.7112 -2.2353
  189MOL0     H26060   8.748   0.015  10.290  1.4038 -0.3031  0.9348
  189MOL0     H26061   8.656  -0.010  10.445  3.1801 -2.1164 -0.4462
  189MOL0     H26062   7.689   0.031  10.401 -1.8724 -0.4339 -2.3667
  189MOL0     H26063   7.459   0.011  10.363  2.9235 -3.1117  1.1857
  189MOL0     H26064   7.020   0.321  10.349  0.5324  0.4843 -1.1646
  189MOL0     H26065   6.792   0.278  10.274  3.3811  0.5855 -2.2049
  189MOL0     H26066   6.621   0.404  10.074  0.9023 -1.5310  2.1829
  189MOL0     H26067   6.691   0.541  10.257 -0.7245 -0.0924 -1.0911
  189MOL0     H26068   6.818   0.798  10.487 -0.4027 -0.4265 -1.3661
  189MOL0     H26069   6.824   0.857  10.717  0.6500 -2.9551  2.1114
  189MOL0     H26070   6.966   1.035  11.010 -0.1748  1.5310 -0.9036
  189MOL0     H26071   6.871   0.997  10.875 -1.6228  0.0166  1.0850
  189MOL0     H26072   6.960   0.836  11.100  3.6307 -0.0006 -1.3303
  189MOL0     H26073   6.977   0.735  10.956 -0.1286 -0.2665 -0.3069
  189MOL0     H26074   6.730   0.877  11.063 -0.9078 -0.2083  0.0281
  189MOL0     H26075   6.722   0.782  10.906 -0.7086 -1.2459  0.8182
  189MOL0     H26076   6.636   0.642  11.112  0.2980  0.8285 -0.2051
  189MOL0     H26077   6.793   0.665  11.177 -0.4093  0.1748 -0.5128
  189MOL0     H26078   6.787   0.337  10.916  0.0073 -0.0721 -0.1539
  189MOL0     H26079   7.259   0.902  10.685  0.5941 -0.3201 -0.3998
  189MOL0     H26080   7.268   0.888  10.322  0.0179  1.1563 -0.0252
  189MOL0     H26081   7.378   0.863  10.452  0.0608 -0.4531 -0.7651
  189MOL0     H26082   7.301   0.721  10.379 -3.7431  0.0476 -1.7519
  190MOL0     O26083   5.390   6.245   4.404 -0.3942 -0.1709 -0.5637
  190MOL0     C26084   5.297   6.239   4.328 -0.0334  0.6606  0.3106
  190MOL0     O26085   5.305   6.177   4.198  0.1210 -0.0868 -0.3091
  190MOL0     C26086   5.421   6.115   4.171  0.1767  0.4347 -0.0868
  190MOL0     C26087   5.433   5.970   4.194  0.1479 -0.2255  1.1064
  190MOL0     C26088   5.552   5.909   4.145 -0.7391 -0.1742 -1.2706
  190MOL0     C26089   5.663   5.980   4.092 -0.0198 -0.7532  0.0293
  190MOL0     O26090   5.765   5.906   4.042  0.2391  0.3720  0.0896
  190MOL0     C26091   5.852   5.974   3.960  0.7885 -0.7107  0.4033
  190MOL0     C26092   5.972   5.888   3.924 -0.8657 -0.5456 -0.5930
  190MOL0     C26093   5.925   5.754   3.856  0.0381  1.2257 -0.0243
  190MOL0     C26094   5.890   5.763   3.701  0.2285 -0.9383 -0.7264
  190MOL0     C26095   5.892   5.627   3.642  0.3201  0.4088 -0.8063
  190MOL0     C26096   5.897   5.625   3.485 -0.5197  0.0202 -0.0941
  190MOL0     C26097   5.856   5.486   3.421  0.5902 -1.1261  0.7411
  190MOL0     C26098   5.945   5.375   3.454  0.4123  0.1596 -0.8024
  190MOL0     N26099   6.071   5.370   3.383 -0.3261  0.8806  0.6199
  190MOL0     C26100   6.182   5.447   3.400  0.7523  0.2343 -0.7366
  190MOL0     C26101   6.260   5.427   3.293 -0.3545 -0.1640 -0.3950
  190MOL0     C26102   6.381   5.508   3.269 -0.5652 -0.7579 -0.0975
  190MOL0     C26103   6.505   5.459   3.325 -0.3579  0.0156 -0.1448
  190MOL0     C26104   6.626   5.547   3.277  0.7839 -0.7395  0.4862
  190MOL0     C26105   6.755   5.494   3.328  0.1493  0.4132 -0.3057
  190MOL0     O26106   6.766   5.493   3.471  0.3431 -0.7109  0.6745
  190MOL0     C26107   6.888   5.465   3.516 -0.0241 -0.7716 -0.7856
  190MOL0     C26108   6.998   5.545   3.476  0.1894 -0.5690  0.3578
  190MOL0     C26109   7.121   5.522   3.529 -0.5178 -0.0378 -0.4600
  190MOL0     C26110   7.233   5.616   3.476  0.2481 -0.2803  0.3371
  190MOL0     C26111   7.143   5.428   3.631 -0.4353  0.0210 -0.5352
  190MOL0     C26112   7.278   5.397   3.689  1.1181  0.6401 -0.5008
  190MOL0     O26113   7.291   5.279   3.766  1.1802  0.1445  0.1196
  190MOL0     C26114   7.412   5.239   3.804  0.5919 -0.7219 -0.4669
  190MOL0     C26115   7.440   5.225   3.936 -0.1462  0.2851 -0.6085
  190MOL0     C26116   7.571   5.205   3.979  0.1755  0.1599 -0.9169
  190MOL0     C26117   7.676   5.190   3.893 -0.5847  1.0310  0.1104
  190MOL0     O26118   7.795   5.179   3.948 -0.4338  0.6024  0.0933
  190MOL0     C26119   7.900   5.139   3.858 -0.4490 -0.3448  0.0439
  190MOL0     C26120   8.039   5.133   3.926  0.3027 -0.1746 -0.9451
  190MOL0     C26121   8.151   5.130   3.820  0.3213 -0.0701 -0.6795
  190MOL0     C26122   8.296   5.125   3.870 -0.6467  0.0900 -0.4123
  190MOL0     C26123   8.329   4.997   3.944 -0.2014  0.2064  0.6689
  190MOL0     C26124   8.485   4.970   3.956 -0.7016  0.2633  0.1393
  190MOL0     C26125   8.549   4.905   3.833 -0.9101  1.2667 -0.0569
  190MOL0     C26126   8.698   4.954   3.809  0.1034  0.6034  0.3243
  190MOL0    Cl26127   8.796   4.899   3.947 -0.6140 -0.0226 -0.3166
  190MOL0     C26128   7.651   5.183   3.759  0.1036 -0.7128  1.0222
  190MOL0     C26129   7.521   5.209   3.718 -0.5825 -0.0885 -0.4886
  190MOL0     O26130   7.371   5.465   3.655  0.2448  0.6238 -0.0892
  190MOL0     C26131   7.033   5.352   3.661 -1.1031  0.6419  0.2153
  190MOL0     C26132   6.911   5.366   3.606 -0.1109  0.1801 -0.0898
  190MOL0     N26133   6.193   5.344   3.207  0.1253  0.1865 -0.1171
  190MOL0     N26134   6.086   5.310   3.258  0.3951  0.9227 -0.1857
  190MOL0     C26135   5.657   6.121   4.096  0.1442  0.3796  0.2553
  190MOL0     C26136   5.537   6.185   4.136 -0.6459 -0.6607  0.0402
  190MOL0     C26137   5.163   6.294   4.362 -0.4844  0.6604 -0.0481
  190MOL0     C26138   5.095   6.355   4.260  1.2121 -0.5563 -0.0117
  190MOL0     C26139   4.969   6.422   4.280 -0.4706  0.0034  0.8289
  190MOL0     C26140   4.916   6.413   4.405 -0.7018  0.6449  0.2210
  190MOL0     O26141   4.793   6.459   4.432  0.2183  0.4434  0.2406
  190MOL0     C26142   4.678   6.380   4.378  0.4450  0.7045 -0.6480
  190MOL0     C26143   4.652   6.280   4.486 -0.3465  1.0834 -0.2069
  190MOL0     C26144   4.629   6.342   4.624 -0.0641  0.3730  0.8861
  190MOL0     C26145   4.570   6.237   4.720 -0.0297 -0.0745 -0.1149
  190MOL0     C26146   4.643   6.108   4.736  0.7726  0.8899  0.5286
  190MOL0     C26147   4.682   5.998   4.768  0.3970  0.1313  0.2636
  190MOL0     C26148   4.983   6.339   4.505  0.2501  0.0528  0.4043
  190MOL0     C26149   5.107   6.282   4.490 -0.6996  0.7964 -0.4040
  190MOL0     C26150   5.164   6.196   4.596  0.1939 -0.3193 -0.8312
  190MOL0     H26151   5.356   5.916   4.247  1.2549 -3.6905 -0.5413
  190MOL0     H26152   5.566   5.801   4.155 -2.1281 -0.3575 -1.1424
  190MOL0     H26153   5.890   6.063   4.011  0.9463  0.1550 -1.1515
  190MOL0     H26154   5.797   6.016   3.875 -1.2489  2.3225  2.9912
  190MOL0     H26155   6.041   5.934   3.853  0.7306 -1.3262  0.4000
  190MOL0     H26156   6.022   5.886   4.021  1.8767  1.1123 -1.8607
  190MOL0     H26157   6.008   5.684   3.873  0.8782  2.2764  0.3207
  190MOL0     H26158   5.837   5.712   3.905  0.5082 -0.8018 -0.7974
  190MOL0     H26159   5.787   5.800   3.693  0.0758 -0.2049  2.8487
  190MOL0     H26160   5.957   5.836   3.654  1.6336 -1.2840  0.6702
  190MOL0     H26161   5.805   5.568   3.670  0.0357 -0.4456 -3.1999
  190MOL0     H26162   5.982   5.575   3.675  0.1991 -0.0967 -1.2627
  190MOL0     H26163   5.832   5.700   3.440 -0.7098 -0.7876 -1.1989
  190MOL0     H26164   5.996   5.652   3.449 -1.0138  3.0069  0.5037
  190MOL0     H26165   5.875   5.489   3.313  3.0262  2.7338  1.0704
  190MOL0     H26166   5.754   5.462   3.452  1.1033  0.4582  4.0894
  190MOL0     H26167   5.967   5.367   3.560 -1.3421  0.9231 -0.3433
  190MOL0     H26168   5.892   5.280   3.447  2.1523 -0.9555  0.3787
  190MOL0     H26169   6.192   5.503   3.493  1.5499 -0.4811 -0.3787
  190MOL0     H26170   6.367   5.615   3.289 -1.2008 -0.9654  0.6240
  190MOL0     H26171   6.387   5.510   3.160  0.6174  0.3147 -0.0321
  190MOL0     H26172   6.487   5.459   3.433 -3.6005 -2.2657 -0.5225
  190MOL0     H26173   6.516   5.357   3.288 -1.3502 -0.4040  0.6645
  190MOL0     H26174   6.625   5.540   3.168  0.4625 -0.9898  0.5041
  190MOL0     H26175   6.614   5.648   3.318 -0.7986 -1.1357  1.0579
  190MOL0     H26176   6.774   5.399   3.277  0.1819  0.6519 -0.7468
  190MOL0     H26177   6.829   5.566   3.290  2.2454 -1.6808 -0.3675
  190MOL0     H26178   6.984   5.629   3.409  0.9369  0.5180  1.5275
  190MOL0     H26179   7.323   5.559   3.451 -0.3249 -0.1072 -2.4513
  190MOL0     H26180   7.265   5.699   3.541  0.0355  0.8750 -0.9841
  190MOL0     H26181   7.207   5.658   3.379 -1.2764 -1.7830  0.0511
  190MOL0     H26182   7.365   5.239   4.014  1.2842  0.9072  0.6917
  190MOL0     H26183   7.593   5.193   4.084 -0.1541 -1.7827 -1.0268
  190MOL0     H26184   7.875   5.041   3.818  0.3370 -0.8627  0.7829
  190MOL0     H26185   7.917   5.217   3.783  1.2350 -0.6323  0.0926
  190MOL0     H26186   8.049   5.223   3.988  3.1433 -1.2905  0.4132
  190MOL0     H26187   8.043   5.051   3.998 -1.3927  0.9056  0.4557
  190MOL0     H26188   8.142   5.218   3.756 -1.3050  0.2292 -0.0620
  190MOL0     H26189   8.147   5.035   3.766  3.2530 -1.4189  1.2097
  190MOL0     H26190   8.318   5.209   3.936  0.1881 -1.2822  1.1447
  190MOL0     H26191   8.366   5.127   3.786 -1.3036 -2.7992 -1.1641
  190MOL0     H26192   8.275   4.987   4.039 -2.7886  1.7616 -0.5184
  190MOL0     H26193   8.286   4.917   3.883 -0.1614  1.9048 -1.7351
  190MOL0     H26194   8.495   4.904   4.043 -2.6480  1.0172  0.9858
  190MOL0     H26195   8.534   5.063   3.985  1.5200 -0.6725 -0.3433
  190MOL0     H26196   8.490   4.948   3.752 -0.0973  2.5976  0.0198
  190MOL0     H26197   8.550   4.796   3.832  1.7269  1.1889 -2.6653
  190MOL0     H26198   8.703   5.063   3.811 -1.0103  0.7468 -2.2125
  190MOL0     H26199   8.740   4.912   3.717 -2.4666 -1.8270  0.0880
  190MOL0     H26200   7.724   5.171   3.680 -1.1812  1.0917 -0.5426
  190MOL0     H26201   7.514   5.216   3.609 -1.9833  1.0405 -0.3581
  190MOL0     H26202   7.047   5.285   3.745 -0.5843  2.3625  1.5550
  190MOL0     H26203   6.836   5.299   3.647 -0.3546 -1.6097 -3.1661
  190MOL0     H26204   5.742   6.183   4.074  1.1519 -1.7325 -2.4160
  190MOL0     H26205   5.514   6.291   4.142 -2.9219 -1.0670 -0.4168
  190MOL0     H26206   5.135   6.358   4.159  1.6436  1.3336  0.1775
  190MOL0     H26207   4.916   6.469   4.198 -0.6856 -2.0905 -0.3078
  190MOL0     H26208   4.584   6.436   4.367 -0.6207 -0.6586  1.0320
  190MOL0     H26209   4.704   6.328   4.286  0.6300 -0.2885 -0.0525
  190MOL0     H26210   4.738   6.212   4.491 -0.7392  0.5214 -0.8315
  190MOL0     H26211   4.562   6.225   4.455 -0.0160 -0.4312  1.3420
  190MOL0     H26212   4.726   6.377   4.658  1.7727 -0.6919 -2.7423
  190MOL0     H26213   4.567   6.432   4.613 -1.2751 -0.5815 -0.5327
  190MOL0     H26214   4.466   6.210   4.702 -0.0442 -3.6208  3.7306
  190MOL0     H26215   4.559   6.296   4.812 -3.8470 -0.0013 -0.4536
  190MOL0     H26216   4.687   5.893   4.788 -3.0180 -0.1821  0.0710
  190MOL0     H26217   4.931   6.319   4.598 -3.4221 -2.3175 -1.8926
  190MOL0     H26218   5.250   6.250   4.636  0.4485 -0.3167 -1.3872
  190MOL0     H26219   5.088   6.182   4.675  0.3169  1.1823 -0.4076
  190MOL0     H26220   5.190   6.095   4.565 -3.6678 -0.5960 -3.9533
  191MOL0     O26221   7.115   2.802   2.651  0.5360 -0.4801  0.5236
  191MOL0     C26222   7.083   2.744   2.551  0.6030  0.2696  0.6169
  191MOL0     O26223   7.167   2.690   2.452 -0.3102 -0.5965  0.4427
  191MOL0     C26224   7.306   2.695   2.459  0.7065 -0.2137  0.2373
  191MOL0     C26225   7.375   2.678   2.339  0.0615  1.4694 -0.2044
  191MOL0     C26226   7.519   2.673   2.347  0.5865 -0.8488 -0.7771
  191MOL0     C26227   7.591   2.698   2.461  0.7909  0.1835 -1.2792
  191MOL0     O26228   7.728   2.698   2.460 -0.6126 -0.7724  0.3326
  191MOL0     C26229   7.809   2.697   2.576  0.2039  0.1016  0.4440
  191MOL0     C26230   7.947   2.762   2.540 -0.1001 -0.4389  0.2712
  191MOL0     C26231   8.027   2.687   2.431 -0.1709  0.3750  0.1427
  191MOL0     C26232   8.163   2.752   2.391 -0.2093 -0.2031 -0.6702
  191MOL0     C26233   8.279   2.746   2.497  0.0350  0.4631  0.1748
  191MOL0     C26234   8.410   2.803   2.439  0.2036 -0.5477  0.2905
  191MOL0     C26235   8.535   2.795   2.519 -0.6558  0.3108 -0.5854
  191MOL0     C26236   8.538   2.689   2.637 -0.5150 -0.8682 -0.3247
  191MOL0     N26237   8.683   2.650   2.659  0.4324 -0.2052  0.3550
  191MOL0     C26238   8.721   2.520   2.667  0.0161 -0.1966  0.7151
  191MOL0     C26239   8.855   2.522   2.691  0.0978 -0.2631  0.1303
  191MOL0     C26240   8.934   2.396   2.710  1.1219 -1.1109 -0.0177
  191MOL0     C26241   9.071   2.398   2.641 -0.8872  0.2471 -0.4248
  191MOL0     C26242   9.128   2.251   2.644 -0.5291  0.2560  0.5369
  191MOL0     C26243   9.262   2.242   2.568 -0.5322 -0.1922  0.3952
  191MOL0     O26244   9.284   2.102   2.533 -0.1272  0.0461  0.2009
  191MOL0     C26245   9.405   2.048   2.560 -0.0655  0.1821 -0.6557
  191MOL0     C26246   9.416   1.919   2.598 -0.1751  0.0493  0.4208
  191MOL0     C26247   9.540   1.849   2.593  0.3588  0.0016  0.2845
  191MOL0     C26248   9.538   1.693   2.623 -0.5909  0.9811  0.0578
  191MOL0     C26249   9.657   1.916   2.552 -0.2202 -0.0515  0.4409
  191MOL0     C26250   9.799   1.859   2.540 -0.7212  0.0910  0.6980
  191MOL0     O26251   9.880   1.929   2.449 -0.2271  0.2728 -0.5737
  191MOL0     C26252   9.999   1.865   2.409 -0.2615  0.1596 -0.5347
  191MOL0     C26253  10.022   1.731   2.366  0.0788  0.7454  0.0611
  191MOL0     C26254  10.154   1.683   2.346  0.5825  0.5084 -0.2139
  191MOL0     C26255  10.262   1.765   2.357 -1.0581  0.3782 -0.6139
  191MOL0     O26256  10.385   1.706   2.337 -0.7304  0.3561 -0.4323
  191MOL0     C26257  10.504   1.788   2.341 -0.0717 -0.2560  0.4612
  191MOL0     C26258  10.528   1.870   2.209 -0.6357  0.2256 -0.7005
  191MOL0     C26259  10.592   1.787   2.106  0.9267 -0.3474 -0.2920
  191MOL0     C26260  10.600   1.849   1.964 -0.6598  0.4671  0.0739
  191MOL0     C26261  10.679   1.775   1.862  0.4901 -0.6086  0.3356
  191MOL0     C26262  10.831   1.784   1.882 -0.1341 -0.0974  0.2602
  191MOL0     C26263  10.887   1.930   1.907 -0.2384  0.4722  0.0209
  191MOL0     C26264  11.039   1.934   1.918 -1.1245 -0.0783 -0.1442
  191MOL0    Cl26265  11.114   1.832   2.044  0.1701  0.0452  0.5101
  191MOL0     C26266  10.236   1.895   2.385  0.1259  0.3456 -1.1051
  191MOL0     C26267  10.109   1.947   2.412  0.3077  0.0015  0.1754
  191MOL0     O26268   9.830   1.754   2.599 -0.0364 -0.1864  0.2641
  191MOL0     C26269   9.647   2.049   2.518 -0.0259  0.5215 -0.2160
  191MOL0     C26270   9.525   2.116   2.527 -0.9607  0.5913 -0.6857
  191MOL0     N26271   8.891   2.654   2.683  0.2629 -0.7948  0.4394
  191MOL0     N26272   8.788   2.731   2.668 -0.6527 -0.6797  0.7570
  191MOL0     C26273   7.521   2.702   2.580  0.7150 -0.5923  0.3138
  191MOL0     C26274   7.377   2.703   2.578 -0.2505  0.4893  1.0731
  191MOL0     C26275   6.932   2.735   2.526 -0.3232  0.3947  0.5986
  191MOL0     C26276   6.846   2.831   2.582  0.0452  1.0860  0.6601
  191MOL0     C26277   6.705   2.829   2.551 -0.1837  0.1710  0.8830
  191MOL0     C26278   6.659   2.730   2.469  0.3348  0.3393  0.7677
  191MOL0     O26279   6.525   2.738   2.443  0.1381  0.0717  0.2012
  191MOL0     C26280   6.442   2.621   2.421 -0.0830 -1.4240 -0.6561
  191MOL0     C26281   6.313   2.654   2.365  0.1376  0.1964  0.2740
  191MOL0     C26282   6.195   2.684   2.462 -0.3211  0.3651  0.0020
  191MOL0     C26283   6.065   2.707   2.379 -0.4091 -0.3433  0.6373
  191MOL0     C26284   5.948   2.712   2.457  0.5705 -0.7948  0.1404
  191MOL0     C26285   5.845   2.716   2.526 -0.2886 -0.0316  0.2171
  191MOL0     C26286   6.738   2.626   2.414  0.2641 -0.9081  0.6400
  191MOL0     C26287   6.867   2.631   2.452  0.5682 -0.2545 -0.2420
  191MOL0     C26288   6.947   2.515   2.399  0.6318 -0.8841 -0.3113
  191MOL0     H26289   7.318   2.668   2.247  0.9273 -2.5685 -0.4776
  191MOL0     H26290   7.573   2.644   2.258  0.2525 -2.1666 -0.5700
  191MOL0     H26291   7.820   2.592   2.604 -2.0100  0.3638  2.5615
  191MOL0     H26292   7.766   2.744   2.665 -5.3156  1.2825 -2.3801
  191MOL0     H26293   7.921   2.867   2.521 -1.5864 -1.3619 -3.9405
  191MOL0     H26294   8.014   2.760   2.626 -1.2970 -0.4433  1.2223
  191MOL0     H26295   8.036   2.583   2.463 -2.8662  0.2387  0.6705
  191MOL0     H26296   7.971   2.681   2.337  0.4871  0.2286 -0.2442
  191MOL0     H26297   8.203   2.714   2.297  2.4077  0.1738  0.1873
  191MOL0     H26298   8.140   2.858   2.379 -0.9792 -0.3496 -0.5138
  191MOL0     H26299   8.284   2.641   2.527 -0.6431  0.3090 -0.2148
  191MOL0     H26300   8.258   2.808   2.585  1.1649 -0.6475  1.2534
  191MOL0     H26301   8.425   2.765   2.337  1.6882 -0.3925  0.4269
  191MOL0     H26302   8.397   2.912   2.438 -0.9204 -0.6132  2.3271
  191MOL0     H26303   8.568   2.889   2.565  0.1555 -0.1673 -0.1739
  191MOL0     H26304   8.616   2.775   2.448 -0.1778  0.8784 -0.2092
  191MOL0     H26305   8.506   2.737   2.730  1.4475 -0.3891  0.1506
  191MOL0     H26306   8.467   2.608   2.619 -1.5563  0.5398 -3.3854
  191MOL0     H26307   8.660   2.431   2.662  2.2345 -1.7256 -1.8820
  191MOL0     H26308   8.870   2.317   2.672 -1.7837 -0.4393  2.9937
  191MOL0     H26309   8.956   2.385   2.817  0.1900  2.4848  0.6777
  191MOL0     H26310   9.064   2.420   2.534  2.7833  0.7185 -0.6908
  191MOL0     H26311   9.135   2.477   2.682 -0.9661  0.6543 -1.0659
  191MOL0     H26312   9.121   2.201   2.741 -0.8702  1.6743  1.2772
  191MOL0     H26313   9.056   2.191   2.587  1.2231 -0.7965 -0.6731
  191MOL0     H26314   9.269   2.312   2.484  1.3647  1.0919  1.5391
  191MOL0     H26315   9.343   2.278   2.632 -2.9464  1.7830  2.5491
  191MOL0     H26316   9.331   1.861   2.633  0.1741 -1.7388 -1.4823
  191MOL0     H26317   9.562   1.641   2.530  1.3623  2.2859 -0.2552
  191MOL0     H26318   9.438   1.671   2.660 -0.4976 -0.4915 -0.5125
  191MOL0     H26319   9.607   1.656   2.699 -1.6841 -2.2902 -0.3747
  191MOL0     H26320   9.946   1.654   2.353  1.0417  0.0455 -1.8048
  191MOL0     H26321  10.172   1.578   2.323 -1.9509 -0.7141  2.7019
  191MOL0     H26322  10.493   1.856   2.426  0.7620 -0.1876  0.5229
  191MOL0     H26323  10.602   1.739   2.345  0.6894  0.5243 -3.7632
  191MOL0     H26324  10.431   1.904   2.172 -0.5630  0.6654 -0.5009
  191MOL0     H26325  10.595   1.955   2.228 -0.8303  0.1072  0.5934
  191MOL0     H26326  10.545   1.690   2.092 -0.4361  0.6383 -3.3885
  191MOL0     H26327  10.693   1.783   2.147  1.7531  6.7089 -0.3294
  191MOL0     H26328  10.630   1.954   1.973  0.7788  0.3067 -2.1307
  191MOL0     H26329  10.500   1.856   1.919 -0.1485  2.1710 -0.8916
  191MOL0     H26330  10.659   1.668   1.866 -0.9735 -0.5004 -2.0298
  191MOL0     H26331  10.647   1.806   1.762 -1.0896 -0.5598  0.8436
  191MOL0     H26332  10.892   1.735   1.805 -1.4139 -1.0328 -0.1888
  191MOL0     H26333  10.866   1.726   1.967  1.1135  1.7866  1.1136
  191MOL0     H26334  10.853   1.970   2.003 -0.8459 -0.0388  0.0221
  191MOL0     H26335  10.853   1.996   1.826 -0.9217  0.3651  0.2111
  191MOL0     H26336  11.075   2.036   1.933 -1.4315  0.3619 -2.0161
  191MOL0     H26337  11.078   1.911   1.818 -1.0590  1.0984 -0.4062
  191MOL0     H26338  10.306   1.977   2.398 -2.0196  1.8321  2.2343
  191MOL0     H26339  10.089   2.053   2.425  0.1727 -0.2225  2.0529
  191MOL0     H26340   9.732   2.101   2.475 -0.0945  0.7959 -0.0169
  191MOL0     H26341   9.509   2.216   2.489 -0.0566  1.5012  1.2063
  191MOL0     H26342   7.560   2.720   2.679 -0.4045  1.1513  0.4955
  191MOL0     H26343   7.311   2.698   2.665 -0.4620  0.2805  0.9033
  191MOL0     H26344   6.874   2.912   2.650  1.5155  2.1568 -1.1329
  191MOL0     H26345   6.647   2.911   2.592 -0.0802  2.4249 -3.0242
  191MOL0     H26346   6.488   2.553   2.348  2.7244  0.5684 -0.9153
  191MOL0     H26347   6.430   2.562   2.512 -1.9493  0.2511  0.2470
  191MOL0     H26348   6.285   2.568   2.304  1.8393  0.5406 -1.1026
  191MOL0     H26349   6.322   2.741   2.299 -3.4891 -0.3348 -1.1424
  191MOL0     H26350   6.179   2.588   2.513 -0.7608  0.1530 -0.5190
  191MOL0     H26351   6.214   2.769   2.528 -0.3685 -0.6306  1.3466
  191MOL0     H26352   6.048   2.612   2.327 -1.8715 -0.3575  1.0927
  191MOL0     H26353   6.073   2.783   2.302 -1.0240 -2.2521 -1.4315
  191MOL0     H26354   5.761   2.721   2.593  1.0109  2.1605  1.8230
  191MOL0     H26355   6.705   2.544   2.350  0.0272 -0.3057 -0.0172
  191MOL0     H26356   7.022   2.486   2.473  1.2022 -1.9404 -1.2688
  191MOL0     H26357   6.883   2.426   2.402 -0.3099 -0.2253  2.5978
  191MOL0     H26358   6.998   2.537   2.305 -0.5325 -1.8484 -1.2093
  192MOL0     O26359  10.043   5.018   0.407 -0.2926 -0.4608 -0.1048
  192MOL0     C26360   9.944   4.949   0.421  0.4231  0.6408  0.9371
  192MOL0     O26361   9.842   4.926   0.319 -0.3349  0.2750  0.2809
  192MOL0     C26362   9.873   4.941   0.187 -0.4431 -0.7122  0.0588
  192MOL0     C26363   9.792   5.013   0.098 -0.1224 -0.5317 -0.1726
  192MOL0     C26364   9.828   5.022  -0.036  0.4093  1.3009 -0.0723
  192MOL0     C26365   9.939   4.951  -0.087 -0.0530  0.5676 -0.2216
  192MOL0     O26366   9.972   4.949  -0.223 -1.1272 -0.3238  0.4611
  192MOL0     C26367  10.094   5.032  -0.238  0.0144  0.2266 -0.1555
  192MOL0     C26368  10.045   5.153  -0.329 -0.7100  0.4429 -0.0215
  192MOL0     C26369  10.162   5.245  -0.354  0.2915 -0.1843  0.6082
  192MOL0     C26370  10.261   5.204  -0.474  0.6685 -0.0796 -0.2533
  192MOL0     C26371  10.386   5.123  -0.418 -0.5358  0.0324  0.7124
  192MOL0     C26372  10.486   5.208  -0.344 -0.5881  0.6742 -0.4300
  192MOL0     C26373  10.617   5.129  -0.305 -0.3052  0.2810 -0.1893
  192MOL0     C26374  10.697   5.210  -0.212 -0.5810  0.8434 -0.4112
  192MOL0     N26375  10.840   5.169  -0.184  0.1405 -0.3372 -0.2546
  192MOL0     C26376  10.885   5.043  -0.173 -0.7974 -0.5685  0.0201
  192MOL0     C26377  11.015   5.050  -0.136 -0.0359 -0.2538 -0.4766
  192MOL0     C26378  11.116   4.946  -0.090 -0.1648 -0.1324 -0.6303
  192MOL0     C26379  11.059   4.829  -0.021  0.7595  0.5188 -0.6737
  192MOL0     C26380  11.164   4.774   0.070 -0.1628 -0.1811 -0.0044
  192MOL0     C26381  11.151   4.633   0.105 -0.5907 -0.7099  0.1408
  192MOL0     O26382  11.284   4.581   0.114 -0.1161  0.1621  0.0392
  192MOL0     C26383  11.283   4.465   0.190 -0.5826  0.1493  1.0017
  192MOL0     C26384  11.239   4.343   0.150  0.7816  1.2125 -0.2092
  192MOL0     C26385  11.260   4.225   0.232 -0.2987  0.2028 -0.1554
  192MOL0     C26386  11.224   4.091   0.173  0.7309 -0.3458 -0.8898
  192MOL0     C26387  11.337   4.246   0.356 -0.7900  0.1864 -0.2205
  192MOL0     C26388  11.389   4.130   0.431  0.6199  1.0352 -0.0261
  192MOL0     O26389  11.494   4.152   0.514  0.9659 -0.6007 -0.3260
  192MOL0     C26390  11.549   4.055   0.583  0.1800 -1.0804 -0.0212
  192MOL0     C26391  11.605   4.082   0.707 -0.3295 -0.2832 -0.6075
  192MOL0     C26392  11.677   3.989   0.786  0.2645 -0.4861  0.3218
  192MOL0     C26393  11.715   3.861   0.728 -0.3170 -0.0628 -0.2513
  192MOL0     O26394  11.792   3.757   0.785  0.3110  0.7535 -1.1152
  192MOL0     C26395  11.780   3.739   0.925 -0.2820  1.5489 -0.4511
  192MOL0     C26396  11.662   3.661   0.975  0.3036 -0.6917 -0.0776
  192MOL0     C26397  11.517   3.721   0.974 -0.2655 -0.4255 -0.5275
  192MOL0     C26398  11.495   3.845   1.072 -0.0103  0.5825 -0.1836
  192MOL0     C26399  11.358   3.922   1.042  0.1368  0.4825 -0.0242
  192MOL0     C26400  11.335   3.983   0.898  0.0506  0.1216  0.2841
  192MOL0     C26401  11.207   4.062   0.882 -0.2366 -0.3124  0.4609
  192MOL0     C26402  11.217   4.119   0.743  0.1433  0.2770 -0.6463
  192MOL0    Cl26403  11.089   4.250   0.730 -0.5756  0.6869  0.2684
  192MOL0     C26404  11.670   3.847   0.595  0.3119  0.6232  0.8300
  192MOL0     C26405  11.586   3.936   0.523 -0.0176 -0.0793  0.7289
  192MOL0     O26406  11.335   4.014   0.409 -0.7547 -0.6412 -0.2949
  192MOL0     C26407  11.387   4.372   0.389  1.3577  0.8850  0.3764
  192MOL0     C26408  11.359   4.478   0.299  0.7725 -0.8368 -0.2195
  192MOL0     N26409  11.052   5.184  -0.149 -0.2072  0.3381  0.6766
  192MOL0     N26410  10.943   5.257  -0.173 -0.8102  0.6597  0.0109
  192MOL0     C26411  10.022   4.879   0.001 -0.9490  0.2365 -0.3773
  192MOL0     C26412   9.990   4.876   0.135  1.0183  0.1566 -1.0002
  192MOL0     C26413   9.938   4.871   0.550  0.6923 -0.5801  0.0250
  192MOL0     C26414   9.814   4.884   0.615 -0.4059  0.2750  0.4403
  192MOL0     C26415   9.795   4.813   0.742 -0.6175 -0.6852 -0.5026
  192MOL0     C26416   9.900   4.733   0.795 -0.4622 -0.4744 -0.4626
  192MOL0     O26417   9.874   4.678   0.918 -0.0056 -0.1895  0.2010
  192MOL0     C26418   9.893   4.540   0.945  0.2419 -0.4646 -0.2221
  192MOL0     C26419   9.815   4.520   1.076  0.2975  0.2757 -0.5737
  192MOL0     C26420   9.718   4.393   1.087  0.8583  0.8634  0.3936
  192MOL0     C26421   9.797   4.259   1.073  0.2495 -0.5390  0.6922
  192MOL0     C26422   9.724   4.146   1.123 -0.1573 -0.9938 -0.3895
  192MOL0     C26423   9.660   4.045   1.142 -1.1377  0.7017 -0.6657
  192MOL0     C26424  10.022   4.729   0.728  1.4454  0.4754  1.1291
  192MOL0     C26425  10.044   4.806   0.612  0.5410  0.7486  0.1130
  192MOL0     C26426  10.183   4.782   0.557  0.1675 -0.6559 -0.1532
  192MOL0     H26427   9.710   5.070   0.141  0.2832  1.1214 -1.4965
  192MOL0     H26428   9.776   5.084  -0.108  0.7962  0.1516 -1.3823
  192MOL0     H26429  10.173   4.970  -0.280  0.4312 -1.2955  2.5967
  192MOL0     H26430  10.130   5.065  -0.140  0.1858 -1.3530  0.3431
  192MOL0     H26431  10.005   5.109  -0.421 -0.3118 -0.6017  0.2886
  192MOL0     H26432   9.960   5.202  -0.282 -2.3152  0.2837 -2.5294
  192MOL0     H26433  10.093   5.327  -0.378 -0.4666 -0.2487  2.4058
  192MOL0     H26434  10.216   5.272  -0.263  1.7439  1.0415 -0.5647
  192MOL0     H26435  10.202   5.147  -0.546 -0.4176  0.2067  0.3893
  192MOL0     H26436  10.307   5.285  -0.533  2.1158 -1.1111 -0.5966
  192MOL0     H26437  10.436   5.070  -0.500 -1.7675 -0.8879  0.5240
  192MOL0     H26438  10.345   5.052  -0.345 -0.4416 -1.6378 -0.7841
  192MOL0     H26439  10.520   5.295  -0.401 -0.7687  0.9087 -0.1829
  192MOL0     H26440  10.442   5.241  -0.249 -2.2832 -2.0970 -0.1459
  192MOL0     H26441  10.677   5.109  -0.394  0.6294 -1.6840  0.8206
  192MOL0     H26442  10.590   5.032  -0.261 -1.6183  1.4370  1.7373
  192MOL0     H26443  10.703   5.314  -0.245 -2.4280  1.3327  0.6313
  192MOL0     H26444  10.635   5.209  -0.122 -1.1462 -2.9230 -0.6571
  192MOL0     H26445  10.820   4.958  -0.190  0.4216 -0.9991 -3.2415
  192MOL0     H26446  11.179   4.993  -0.015  0.3895 -3.9112  1.5734
  192MOL0     H26447  11.192   4.916  -0.162  0.7647  0.0436  0.2646
  192MOL0     H26448  10.964   4.845   0.031 -0.7406 -0.7221 -2.8655
  192MOL0     H26449  11.030   4.755  -0.095  1.6340 -2.0935  1.4460
  192MOL0     H26450  11.260   4.778   0.017 -0.5021 -2.4860 -0.9247
  192MOL0     H26451  11.167   4.839   0.158 -5.6297 -0.7441  0.9355
  192MOL0     H26452  11.101   4.628   0.202  1.9975 -2.6413  1.5058
  192MOL0     H26453  11.105   4.573   0.025  1.8147  2.0049 -3.6554
  192MOL0     H26454  11.195   4.325   0.053  0.1315 -1.0549  0.4354
  192MOL0     H26455  11.197   4.100   0.067 -2.0112  0.3427 -0.2018
  192MOL0     H26456  11.154   4.053   0.247  2.8289  0.3847  1.6299
  192MOL0     H26457  11.311   4.026   0.178  0.4998 -0.6832  4.7528
  192MOL0     H26458  11.576   4.174   0.758  1.6134  0.9783 -1.6188
  192MOL0     H26459  11.709   4.021   0.885 -2.8537  3.7219  0.2545
  192MOL0     H26460  11.865   3.679   0.957 -2.9667 -1.5389  1.4989
  192MOL0     H26461  11.792   3.835   0.977  0.2332  0.3876  1.6663
  192MOL0     H26462  11.646   3.565   0.925 -1.1935 -0.7708  0.4896
  192MOL0     H26463  11.699   3.634   1.074  4.1203 -1.6334 -1.6113
  192MOL0     H26464  11.447   3.641   0.999  1.5002 -2.0102 -0.4263
  192MOL0     H26465  11.489   3.735   0.869 -1.2506 -0.8715 -0.3281
  192MOL0     H26466  11.569   3.919   1.041  0.4707 -0.1205 -0.7157
  192MOL0     H26467  11.503   3.829   1.180 -1.3191  2.3668  0.2334
  192MOL0     H26468  11.275   3.852   1.048 -0.9390  1.6735 -0.4849
  192MOL0     H26469  11.338   3.998   1.118 -1.7430 -0.6743  0.7042
  192MOL0     H26470  11.323   3.893   0.837 -1.4176 -0.0389  0.7573
  192MOL0     H26471  11.423   4.030   0.853 -0.5181  0.2345 -0.7392
  192MOL0     H26472  11.208   4.134   0.964 -2.4191 -0.0494  0.3131
  192MOL0     H26473  11.117   4.001   0.891 -0.8406  0.7209  1.8194
  192MOL0     H26474  11.192   4.043   0.669 -3.3024  0.7330 -0.1180
  192MOL0     H26475  11.314   4.167   0.730 -0.0517  1.2918  1.2062
  192MOL0     H26476  11.704   3.757   0.545 -1.8438 -0.0469  0.4750
  192MOL0     H26477  11.565   3.916   0.418 -0.6565 -2.5047  1.2581
  192MOL0     H26478  11.449   4.398   0.474 -1.5789  0.7375  2.7124
  192MOL0     H26479  11.402   4.576   0.317  0.5922 -0.9014  0.6211
  192MOL0     H26480  10.114   4.835  -0.038  1.4066  4.3829 -0.0694
  192MOL0     H26481  10.059   4.820   0.198  1.3737  0.5271 -1.0544
  192MOL0     H26482   9.734   4.943   0.572 -0.5568  0.8356  1.4469
  192MOL0     H26483   9.710   4.827   0.809 -1.2547  0.7021 -1.5373
  192MOL0     H26484   9.860   4.473   0.864  2.5218 -1.1353 -0.6895
  192MOL0     H26485  10.000   4.518   0.955 -0.1935 -1.6304  2.9086
  192MOL0     H26486   9.753   4.609   1.091 -0.1267 -0.3399  1.7213
  192MOL0     H26487   9.880   4.534   1.162 -1.6271  1.2616  0.7970
  192MOL0     H26488   9.659   4.380   1.178 -2.5515  2.9635 -1.3119
  192MOL0     H26489   9.649   4.405   1.002  0.7936 -2.0410 -0.0657
  192MOL0     H26490   9.892   4.274   1.124  1.3174  0.8726 -1.5136
  192MOL0     H26491   9.826   4.239   0.969  0.4185  0.0931  0.6125
  192MOL0     H26492   9.617   3.948   1.157 -1.2841  0.6379 -1.4590
  192MOL0     H26493  10.095   4.668   0.781  0.8343  0.2699  1.7525
  192MOL0     H26494  10.258   4.836   0.615 -2.1350  0.1672  2.2822
  192MOL0     H26495  10.204   4.676   0.573  1.7770 -0.7242 -2.3289
  192MOL0     H26496  10.174   4.800   0.450 -2.0622 -0.4750  0.0040
  193MOL0     O26497   7.314   5.141   0.827 -0.7537  0.5203  0.0870
  193MOL0     C26498   7.290   5.251   0.873  0.0901  0.1168  0.1691
  193MOL0     O26499   7.380   5.322   0.965  0.7120  0.2148 -0.0983
  193MOL0     C26500   7.470   5.243   1.045  0.1144  0.1740  0.1553
  193MOL0     C26501   7.545   5.319   1.130  0.3304 -0.1866  0.7677
  193MOL0     C26502   7.645   5.263   1.212 -0.1346  0.2199  0.2403
  193MOL0     C26503   7.667   5.120   1.212 -0.4448 -0.4483 -0.1260
  193MOL0     O26504   7.774   5.065   1.271 -0.3102  0.4981 -0.2260
  193MOL0     C26505   7.869   5.144   1.347  0.6563  0.0756  0.0448
  193MOL0     C26506   7.992   5.066   1.391 -0.0224  0.7386  0.6054
  193MOL0     C26507   8.075   5.003   1.285  0.0082  0.4220  0.2468
  193MOL0     C26508   8.159   5.116   1.223  0.4138 -0.2814 -0.2349
  193MOL0     C26509   8.235   5.079   1.102 -0.0854 -0.0674  0.5477
  193MOL0     C26510   8.252   5.202   1.001  0.5506 -0.0978 -1.0564
  193MOL0     C26511   8.332   5.327   1.055 -0.1151  0.5116 -0.0842
  193MOL0     C26512   8.477   5.302   1.052 -0.6309 -0.9128 -0.7862
  193MOL0     N26513   8.546   5.419   1.102 -0.4205  0.4879 -0.1221
  193MOL0     C26514   8.627   5.505   1.029 -1.0341 -0.0625  0.4623
  193MOL0     C26515   8.666   5.597   1.115  0.9256  0.2463  0.3977
  193MOL0     C26516   8.745   5.715   1.097 -0.6055 -0.3274  0.7790
  193MOL0     C26517   8.791   5.752   0.952  0.1658 -0.1224 -0.0351
  193MOL0     C26518   8.817   5.903   0.941 -0.3373 -0.5860  0.3047
  193MOL0     C26519   8.836   5.957   0.798  0.0219  0.6438 -0.2665
  193MOL0     O26520   8.882   6.097   0.779 -0.3608  0.1564  0.5032
  193MOL0     C26521   9.011   6.124   0.816 -1.1133 -0.4995  0.3302
  193MOL0     C26522   9.120   6.027   0.838  0.2872 -0.1015 -0.2813
  193MOL0     C26523   9.256   6.047   0.863  0.4393 -0.7265 -0.1098
  193MOL0     C26524   9.348   5.939   0.920  0.3881  0.0612  0.0329
  193MOL0     C26525   9.311   6.175   0.831 -1.3372 -0.1487 -0.9250
  193MOL0     C26526   9.449   6.214   0.842 -0.5347  0.5684 -0.2493
  193MOL0     O26527   9.547   6.115   0.831  0.2180 -0.5286 -0.0072
  193MOL0     C26528   9.676   6.125   0.876  0.1089 -0.6362  0.3842
  193MOL0     C26529   9.743   6.002   0.847  0.0734 -0.8660 -0.1426
  193MOL0     C26530   9.883   5.992   0.869 -0.3183 -0.5617 -0.9160
  193MOL0     C26531   9.963   6.097   0.920  0.5383  1.0019  0.3405
  193MOL0     O26532  10.100   6.083   0.938 -0.2498  0.0312  0.1816
  193MOL0     C26533  10.174   5.987   0.861 -0.6932  0.3095  0.1399
  193MOL0     C26534  10.326   6.006   0.878  0.8830 -0.4008  0.6052
  193MOL0     C26535  10.398   5.896   0.794 -0.2784  0.4330 -0.3166
  193MOL0     C26536  10.532   5.932   0.753 -0.8295  0.2147 -0.7277
  193MOL0     C26537  10.614   5.933   0.888 -0.6191  0.6736  1.0254
  193MOL0     C26538  10.769   5.949   0.871  0.6224 -0.0600 -0.0891
  193MOL0     C26539  10.849   5.834   0.811  0.2370 -0.5424  1.0151
  193MOL0     C26540  10.858   5.714   0.900  0.9661  0.1200 -0.1954
  193MOL0    Cl26541  10.867   5.557   0.818 -0.3673  0.5994 -0.0574
  193MOL0     C26542   9.899   6.216   0.949  0.6762  0.1045 -0.0300
  193MOL0     C26543   9.759   6.236   0.925 -0.1375  0.1241 -0.0210
  193MOL0     O26544   9.480   6.332   0.861  0.7083 -0.2671 -0.1109
  193MOL0     C26545   9.211   6.274   0.802 -0.0195  0.5367  0.2786
  193MOL0     C26546   9.068   6.250   0.797  0.4718 -0.6053  0.5916
  193MOL0     N26547   8.620   5.567   1.237 -0.6171  0.6240  1.1162
  193MOL0     N26548   8.568   5.451   1.232  0.4699  0.0014  0.4474
  193MOL0     C26549   7.596   5.042   1.127 -0.4902 -1.6502 -1.0055
  193MOL0     C26550   7.495   5.106   1.050 -0.0816 -0.0553  0.0636
  193MOL0     C26551   7.173   5.323   0.812 -0.1548  0.5503 -0.3858
  193MOL0     C26552   7.160   5.454   0.869  0.1418  0.4847 -0.2893
  193MOL0     C26553   7.065   5.540   0.830 -0.1426  0.6067  0.7582
  193MOL0     C26554   6.979   5.513   0.722 -0.4648  0.2360 -0.2095
  193MOL0     O26555   6.890   5.596   0.668  0.7848  0.3986  0.0824
  193MOL0     C26556   6.867   5.724   0.729 -0.4164  0.6784  0.6966
  193MOL0     C26557   6.768   5.811   0.666 -0.1222 -0.4629 -0.3078
  193MOL0     C26558   6.802   5.817   0.516  0.0331  0.8942 -1.3226
  193MOL0     C26559   6.709   5.922   0.451 -0.8318 -0.3930 -0.2004
  193MOL0     C26560   6.568   5.891   0.473  0.2511 -0.8769 -0.2841
  193MOL0     C26561   6.452   5.876   0.513 -0.0030  0.4328  0.3628
  193MOL0     C26562   6.989   5.385   0.665 -0.4552 -0.5610 -0.1520
  193MOL0     C26563   7.079   5.287   0.713  0.0205  0.5881 -0.0201
  193MOL0     C26564   7.075   5.150   0.657 -0.0140  0.3735  0.4012
  193MOL0     H26565   7.532   5.427   1.129  3.3279  0.2795  2.3517
  193MOL0     H26566   7.701   5.329   1.278 -0.7724  1.1372 -0.1188
  193MOL0     H26567   7.827   5.203   1.429 -0.8921 -2.2474  1.0338
  193MOL0     H26568   7.906   5.220   1.277  1.5514 -0.6278 -0.2673
  193MOL0     H26569   8.057   5.131   1.451  0.5203  0.1762  0.6349
  193MOL0     H26570   7.961   4.972   1.437 -0.5651 -0.5694 -2.2247
  193MOL0     H26571   8.131   4.916   1.319  3.8667  2.2746 -0.8143
  193MOL0     H26572   8.003   4.961   1.214  1.9491  0.6919 -2.0350
  193MOL0     H26573   8.096   5.203   1.200 -0.8582 -0.7975  1.1167
  193MOL0     H26574   8.227   5.154   1.300 -0.0415  0.7562 -0.3269
  193MOL0     H26575   8.172   5.012   1.043  1.2098  1.4150 -2.8283
  193MOL0     H26576   8.334   5.036   1.117 -0.5404 -0.3970  3.0105
  193MOL0     H26577   8.291   5.155   0.910  1.2752  1.0601 -1.3697
  193MOL0     H26578   8.156   5.242   0.968  0.7522  1.7612  0.4507
  193MOL0     H26579   8.291   5.368   1.147 -1.7768 -1.0621 -0.0704
  193MOL0     H26580   8.320   5.402   0.977 -1.7841 -0.1970 -0.5421
  193MOL0     H26581   8.503   5.221   1.121  2.7438  0.3569 -0.3806
  193MOL0     H26582   8.509   5.273   0.952  0.2000 -0.3027 -0.7107
  193MOL0     H26583   8.644   5.506   0.922  0.7815 -3.6168  0.5510
  193MOL0     H26584   8.841   5.699   1.148 -1.3734 -0.8714  2.0977
  193MOL0     H26585   8.702   5.804   1.143  2.7160  1.7263  0.2863
  193MOL0     H26586   8.882   5.697   0.927 -0.1524 -1.1736  1.0166
  193MOL0     H26587   8.716   5.737   0.874 -1.2087  0.6190  1.0955
  193MOL0     H26588   8.728   5.949   0.985 -0.0469 -1.1444  1.5243
  193MOL0     H26589   8.897   5.956   0.993 -0.7194 -1.6569  2.0596
  193MOL0     H26590   8.901   5.878   0.761 -0.3576  0.1639  0.0793
  193MOL0     H26591   8.745   5.937   0.740  0.1323  0.1969 -0.2870
  193MOL0     H26592   9.087   5.925   0.851 -0.8797  0.5495  2.6059
  193MOL0     H26593   9.393   5.977   1.012  1.6162  2.2807 -1.3841
  193MOL0     H26594   9.434   5.901   0.866  0.9913 -1.3105  1.8482
  193MOL0     H26595   9.294   5.851   0.957  1.4875 -0.9384 -0.6769
  193MOL0     H26596   9.701   5.912   0.802  1.6495 -1.3000 -0.8044
  193MOL0     H26597   9.926   5.898   0.835 -0.4432 -1.0102  0.1315
  193MOL0     H26598  10.139   5.897   0.913 -1.3276 -0.3045 -1.2990
  193MOL0     H26599  10.131   5.981   0.761  2.6195 -2.3392 -1.3224
  193MOL0     H26600  10.339   6.110   0.847  1.2308 -0.2985  1.0895
  193MOL0     H26601  10.351   5.992   0.983 -0.2346  1.6012  1.1924
  193MOL0     H26602  10.345   5.890   0.698 -0.5926  4.1537 -0.5101
  193MOL0     H26603  10.391   5.800   0.845 -1.6554 -0.0779 -1.3899
  193MOL0     H26604  10.541   6.036   0.721 -0.0357  0.3889  0.0146
  193MOL0     H26605  10.579   5.872   0.675 -0.2196  0.8997 -0.8969
  193MOL0     H26606  10.579   6.010   0.957 -3.6052 -0.2698  0.7152
  193MOL0     H26607  10.602   5.839   0.943 -0.7902 -0.5449 -1.0085
  193MOL0     H26608  10.825   5.973   0.962 -0.8707 -2.2634  1.5114
  193MOL0     H26609  10.777   6.042   0.814 -1.3068  0.4656  0.4299
  193MOL0     H26610  10.947   5.882   0.799  0.1451 -0.2197  1.5512
  193MOL0     H26611  10.804   5.814   0.713 -0.9008  1.1384  1.1592
  193MOL0     H26612  10.766   5.713   0.959  1.5313  0.1374  0.7034
  193MOL0     H26613  10.944   5.722   0.967 -1.2079  0.4088  2.7529
  193MOL0     H26614   9.957   6.296   0.995 -0.0872  0.5798  0.1310
  193MOL0     H26615   9.717   6.335   0.939 -1.6806 -0.3595 -0.9916
  193MOL0     H26616   9.240   6.374   0.772 -0.8053  0.2995 -1.4034
  193MOL0     H26617   9.000   6.329   0.767 -1.6555 -2.8750 -0.9852
  193MOL0     H26618   7.600   4.934   1.117  0.2225 -1.6233 -1.0417
  193MOL0     H26619   7.439   5.028   0.999  2.5561 -1.6793 -0.4853
  193MOL0     H26620   7.227   5.500   0.941  1.2187  0.2716 -1.1302
  193MOL0     H26621   7.061   5.640   0.872 -0.0124  0.9344  0.0084
  193MOL0     H26622   6.834   5.709   0.832  0.3097 -0.6029  0.7573
  193MOL0     H26623   6.968   5.766   0.734  0.0118 -0.3153  0.5990
  193MOL0     H26624   6.777   5.909   0.713 -0.1863  0.9673 -3.0551
  193MOL0     H26625   6.665   5.777   0.683  0.0972 -1.1300 -0.3029
  193MOL0     H26626   6.907   5.843   0.503  0.5620 -0.7083 -0.5008
  193MOL0     H26627   6.794   5.720   0.467 -2.1002 -0.5501  1.5554
  193MOL0     H26628   6.726   5.916   0.343  0.6139  0.2794 -0.0395
  193MOL0     H26629   6.737   6.023   0.482 -0.9757 -0.4304  0.0585
  193MOL0     H26630   6.359   5.829   0.538  0.5263 -0.8121  0.0691
  193MOL0     H26631   6.934   5.363   0.574  0.3609  0.2093 -0.8418
  193MOL0     H26632   7.032   5.088   0.736 -1.8130  1.2603  0.1867
  193MOL0     H26633   7.018   5.148   0.563  2.9762  1.3975 -1.5975
  193MOL0     H26634   7.173   5.110   0.630 -0.6196 -0.5945 -0.4708
  194MOL0     O26635   6.788   8.930   2.272 -0.1746 -0.6447 -0.7469
  194MOL0     C26636   6.850   8.909   2.382  0.1181 -0.5433 -0.4346
  194MOL0     O26637   6.977   8.858   2.395 -0.2184 -0.1542 -0.0831
  194MOL0     C26638   7.045   8.828   2.286  0.8729 -0.5778  0.9196
  194MOL0     C26639   7.113   8.703   2.281 -0.2001  0.1384 -0.0651
  194MOL0     C26640   7.194   8.677   2.170  0.3117  0.2717  0.4328
  194MOL0     C26641   7.217   8.769   2.067  0.2866  0.4215  0.1117
  194MOL0     O26642   7.288   8.754   1.954  0.1619 -0.5576  0.4079
  194MOL0     C26643   7.349   8.628   1.945 -0.2960  0.5136 -0.3407
  194MOL0     C26644   7.406   8.601   1.811  0.0384  0.1009 -0.3940
  194MOL0     C26645   7.475   8.468   1.806  0.4574 -0.0933  0.3488
  194MOL0     C26646   7.520   8.448   1.664  0.8936 -0.1841  0.6275
  194MOL0     C26647   7.533   8.297   1.643  0.0372  0.3768  0.0488
  194MOL0     C26648   7.662   8.237   1.698 -0.1850 -0.1151 -0.3959
  194MOL0     C26649   7.693   8.105   1.621 -0.2964 -0.0919 -0.0861
  194MOL0     C26650   7.823   8.051   1.682  0.0616  0.0117  0.5503
  194MOL0     N26651   7.848   7.914   1.649  0.6968 -0.0475  0.0428
  194MOL0     C26652   7.779   7.804   1.714  0.8718  0.4869  0.8805
  194MOL0     C26653   7.784   7.709   1.615 -0.1711  0.1412  0.4443
  194MOL0     C26654   7.719   7.577   1.619  0.3146 -0.4755 -0.7353
  194MOL0     C26655   7.566   7.580   1.626  0.4178 -0.1082 -0.7985
  194MOL0     C26656   7.507   7.448   1.622 -0.4734 -0.2610  0.3965
  194MOL0     C26657   7.486   7.391   1.479  0.3237  0.1816 -0.3827
  194MOL0     O26658   7.377   7.457   1.398 -0.7675 -0.1612  0.7243
  194MOL0     C26659   7.299   7.374   1.321 -0.5201  0.3704 -0.2977
  194MOL0     C26660   7.345   7.258   1.260 -0.4006 -0.6957 -0.1075
  194MOL0     C26661   7.271   7.184   1.162 -0.4012  0.3341 -0.6293
  194MOL0     C26662   7.337   7.065   1.108 -0.3214  0.9149 -0.6309
  194MOL0     C26663   7.160   7.258   1.108 -0.0857  0.2767  0.2554
  194MOL0     C26664   7.094   7.227   0.981 -0.6879 -0.1281 -1.0134
  194MOL0     O26665   7.022   7.331   0.925 -0.3228  0.3252  0.7915
  194MOL0     C26666   6.947   7.322   0.813  0.6150  0.7275 -0.3306
  194MOL0     C26667   6.807   7.311   0.826 -0.0780 -0.1078  0.4573
  194MOL0     C26668   6.732   7.302   0.709  0.0055 -0.8867  0.1937
  194MOL0     C26669   6.790   7.294   0.582 -0.9964  0.0569  0.5625
  194MOL0     O26670   6.722   7.292   0.463 -0.2517  0.0258 -0.0808
  194MOL0     C26671   6.587   7.253   0.469  0.3259  0.1791  0.0030
  194MOL0     C26672   6.514   7.255   0.336 -0.0290  0.2316  0.4687
  194MOL0     C26673   6.564   7.150   0.236  0.1716  0.3838  0.1722
  194MOL0     C26674   6.501   7.167   0.102 -0.4632  0.2370 -0.6615
  194MOL0     C26675   6.359   7.110   0.090  0.5609  0.3837 -0.0619
  194MOL0     C26676   6.296   7.174  -0.030 -0.3841  0.6147  0.5228
  194MOL0     C26677   6.139   7.200  -0.004 -0.5409  1.2757  0.1481
  194MOL0     C26678   6.063   7.259  -0.121 -0.3495  0.2505  0.8091
  194MOL0    Cl26679   6.038   7.144  -0.259 -0.3721 -0.2085  0.0361
  194MOL0     C26680   6.928   7.304   0.570  0.2015 -0.4869  1.1047
  194MOL0     C26681   7.009   7.320   0.684 -0.0423  1.1203 -0.7893
  194MOL0     O26682   7.113   7.113   0.928 -0.2599  0.0602 -0.5369
  194MOL0     C26683   7.119   7.379   1.171  0.8939  0.7848  0.4695
  194MOL0     C26684   7.184   7.429   1.283  0.3853 -0.1770 -0.9556
  194MOL0     N26685   7.866   7.748   1.506  0.6566 -0.2928  0.7964
  194MOL0     N26686   7.895   7.870   1.535 -0.7728  0.5743  0.2082
  194MOL0     C26687   7.153   8.895   2.079 -1.0193  0.3666 -0.1311
  194MOL0     C26688   7.072   8.924   2.186  0.8951  1.1757  0.0621
  194MOL0     C26689   6.761   8.952   2.500 -0.4849 -0.6179  0.2383
  194MOL0     C26690   6.673   9.058   2.478  0.1643  0.0251 -0.7007
  194MOL0     C26691   6.582   9.099   2.584 -0.6801  0.1264 -0.4067
  194MOL0     C26692   6.596   9.044   2.711 -0.1685 -0.0531 -0.1075
  194MOL0     O26693   6.515   9.092   2.812  0.2745  1.5860  0.1138
  194MOL0     C26694   6.390   9.156   2.790  0.1824  0.1498 -0.0336
  194MOL0     C26695   6.280   9.047   2.785  0.4625  0.0425 -0.0375
  194MOL0     C26696   6.263   9.006   2.931 -0.3994  0.0578 -0.7346
  194MOL0     C26697   6.147   8.912   2.958 -0.7371 -0.3281  0.6951
  194MOL0     C26698   6.167   8.791   2.872 -0.6261 -0.2113 -0.1792
  194MOL0     C26699   6.187   8.696   2.800  0.0857 -0.1170  0.0171
  194MOL0     C26700   6.694   8.955   2.731 -0.4153 -1.0745  0.1807
  194MOL0     C26701   6.779   8.904   2.628  0.6045  0.0037 -0.1233
  194MOL0     C26702   6.878   8.811   2.667 -0.4658  0.3558  0.3618
  194MOL0     H26703   7.109   8.630   2.362 -1.4956  0.2468 -0.0170
  194MOL0     H26704   7.245   8.581   2.176  1.3757  0.8462  0.8758
  194MOL0     H26705   7.272   8.552   1.964 -1.5299  1.7839 -0.0947
  194MOL0     H26706   7.424   8.614   2.024 -1.5886 -0.9824  0.6952
  194MOL0     H26707   7.321   8.587   1.744 -0.0673 -0.0950 -0.2212
  194MOL0     H26708   7.471   8.684   1.779 -0.8266  0.1556 -2.1233
  194MOL0     H26709   7.570   8.456   1.858  1.6386  1.1537 -1.4042
  194MOL0     H26710   7.403   8.391   1.837  0.8897  0.0194  1.6642
  194MOL0     H26711   7.440   8.490   1.603 -0.7588 -0.1234  2.7305
  194MOL0     H26712   7.616   8.497   1.645  0.9038 -0.2510  0.5055
  194MOL0     H26713   7.526   8.290   1.534  0.6181  2.7778 -0.2068
  194MOL0     H26714   7.447   8.246   1.686 -0.5901  2.0564  0.9040
  194MOL0     H26715   7.753   8.297   1.687  1.1107 -1.6588  1.2242
  194MOL0     H26716   7.645   8.226   1.805 -0.0187  1.0741 -0.2365
  194MOL0     H26717   7.718   8.119   1.515  1.0884 -1.2805  0.0465
  194MOL0     H26718   7.607   8.038   1.633  0.5158 -0.7973  2.4637
  194MOL0     H26719   7.901   8.110   1.632  1.1296 -1.3972  0.4941
  194MOL0     H26720   7.835   8.070   1.789  3.4375  0.5250  0.2036
  194MOL0     H26721   7.722   7.812   1.806  1.0329 -0.0567  1.0299
  194MOL0     H26722   7.762   7.518   1.700  1.6570  0.3261 -0.8354
  194MOL0     H26723   7.760   7.533   1.528  3.4582 -0.2638  0.4797
  194MOL0     H26724   7.557   7.631   1.722  4.6397  2.0312 -1.2840
  194MOL0     H26725   7.520   7.639   1.546  1.4196  2.4962  0.4226
  194MOL0     H26726   7.565   7.378   1.683 -4.3658 -1.7059  2.8210
  194MOL0     H26727   7.410   7.450   1.674 -0.1194 -1.0226  1.1091
  194MOL0     H26728   7.578   7.392   1.420  0.8724  1.6815  0.4592
  194MOL0     H26729   7.439   7.295   1.504 -2.0816  1.2256 -0.6499
  194MOL0     H26730   7.443   7.215   1.281 -0.0064  0.2811  0.1036
  194MOL0     H26731   7.403   7.028   1.187 -3.4555  0.2815  1.9288
  194MOL0     H26732   7.403   7.096   1.027  0.1425 -0.8315 -0.9515
  194MOL0     H26733   7.274   6.986   1.067  0.0452  2.1862 -3.9473
  194MOL0     H26734   6.760   7.316   0.924  0.0499 -1.7273  0.6262
  194MOL0     H26735   6.625   7.292   0.715 -0.0732 -1.2531 -1.3341
  194MOL0     H26736   6.576   7.150   0.506 -0.1996  0.6570  1.2412
  194MOL0     H26737   6.524   7.316   0.533  1.8489 -1.0975  2.9243
  194MOL0     H26738   6.408   7.232   0.347  0.2278 -2.2260 -1.1973
  194MOL0     H26739   6.524   7.355   0.293  1.2812  0.6186  1.6035
  194MOL0     H26740   6.536   7.052   0.276 -2.2035  0.3613 -1.3424
  194MOL0     H26741   6.672   7.162   0.231  0.6942 -3.2736  0.2204
  194MOL0     H26742   6.570   7.116   0.033  2.3813  0.9709  1.4543
  194MOL0     H26743   6.513   7.273   0.080  1.9048  0.3993  1.0739
  194MOL0     H26744   6.350   7.003   0.073  0.3992  0.7561 -2.8983
  194MOL0     H26745   6.298   7.134   0.178  0.9427 -0.8941  0.5685
  194MOL0     H26746   6.312   7.113  -0.120  1.6700 -0.7894  1.7529
  194MOL0     H26747   6.340   7.273  -0.044  0.0710  0.5197  1.2173
  194MOL0     H26748   6.114   7.254   0.087 -3.1073 -0.2195  0.4288
  194MOL0     H26749   6.103   7.097   0.010 -0.2506  1.3336  1.4462
  194MOL0     H26750   6.109   7.351  -0.157 -1.1671 -0.1754 -1.5233
  194MOL0     H26751   5.958   7.270  -0.092 -0.0513  1.4847  1.4662
  194MOL0     H26752   6.976   7.305   0.472  0.7774  0.3276  1.3797
  194MOL0     H26753   7.117   7.324   0.676  0.1977  2.3582  2.1021
  194MOL0     H26754   7.035   7.430   1.126  2.5345  1.3374 -2.2343
  194MOL0     H26755   7.141   7.520   1.325 -3.1239 -1.2655 -1.8007
  194MOL0     H26756   7.175   8.961   1.996  0.1782 -0.9479 -0.8970
  194MOL0     H26757   7.039   9.027   2.190  3.1314  2.1753 -3.2962
  194MOL0     H26758   6.655   9.100   2.380 -1.6419  0.0901 -0.3686
  194MOL0     H26759   6.497   9.161   2.560 -0.9612 -0.1058 -0.0151
  194MOL0     H26760   6.361   9.227   2.867 -0.8760  0.6357 -0.8544
  194MOL0     H26761   6.381   9.223   2.704 -0.6537  0.4912  0.3091
  194MOL0     H26762   6.299   8.968   2.712 -0.9469  0.2606 -0.6720
  194MOL0     H26763   6.191   9.094   2.742 -1.7917 -3.3112  0.6415
  194MOL0     H26764   6.358   8.965   2.964 -0.3743 -2.6082 -3.6756
  194MOL0     H26765   6.228   9.095   2.986 -1.3022 -0.8741  0.2492
  194MOL0     H26766   6.045   8.945   2.934 -1.6660 -3.8365 -0.7665
  194MOL0     H26767   6.159   8.877   3.061  2.5270 -1.9744 -0.1395
  194MOL0     H26768   6.214   8.624   2.726  1.1746 -1.6695  1.8216
  194MOL0     H26769   6.706   8.918   2.832 -0.7156  0.6392  0.8619
  194MOL0     H26770   6.970   8.861   2.701 -0.0781 -1.6152  2.4756
  194MOL0     H26771   6.847   8.738   2.742 -1.8229 -1.8037 -2.1546
  194MOL0     H26772   6.900   8.751   2.578 -1.8739  1.3850 -0.7229
  195MOL0     O26773   5.149   4.998   7.454 -0.4542 -0.6211  0.4535
  195MOL0     C26774   5.245   4.948   7.396  1.3650  0.2939  0.5443
  195MOL0     O26775   5.313   4.838   7.431 -0.2957  0.0754  0.1733
  195MOL0     C26776   5.276   4.756   7.532  1.2353 -0.1848  0.2951
  195MOL0     C26777   5.135   4.728   7.552  0.6435 -0.3258 -0.3299
  195MOL0     C26778   5.087   4.621   7.633  1.1749  0.2738 -0.3263
  195MOL0     C26779   5.192   4.546   7.704 -0.6132 -0.6109 -0.2727
  195MOL0     O26780   5.160   4.435   7.782  0.1400  0.0107 -0.4128
  195MOL0     C26781   5.023   4.394   7.806 -0.9080 -0.1552 -0.0755
  195MOL0     C26782   4.951   4.316   7.687  0.0894  0.0891 -0.8614
  195MOL0     C26783   4.814   4.275   7.741 -0.5050  0.5343  0.2811
  195MOL0     C26784   4.821   4.156   7.839 -0.9000 -0.8548  0.1935
  195MOL0     C26785   4.693   4.080   7.858 -0.0855  0.1006 -0.5885
  195MOL0     C26786   4.694   3.985   7.982 -0.3076  0.6798 -0.0954
  195MOL0     C26787   4.559   3.926   8.024 -0.3648  1.3893  0.9805
  195MOL0     C26788   4.569   3.819   8.127 -0.1621  0.5467  0.5518
  195MOL0     N26789   4.567   3.872   8.258 -0.2232  0.0723 -0.2500
  195MOL0     C26790   4.458   3.922   8.319 -0.1818 -0.5543 -0.3138
  195MOL0     C26791   4.498   3.946   8.449  0.4710  0.6109 -0.6269
  195MOL0     C26792   4.419   3.984   8.578 -1.1491 -0.4833 -0.4744
  195MOL0     C26793   4.387   4.139   8.573 -0.0025  0.3727  0.0171
  195MOL0     C26794   4.508   4.222   8.551 -0.5937  0.5669 -0.2919
  195MOL0     C26795   4.533   4.265   8.409 -0.2384  0.5272  0.5531
  195MOL0     O26796   4.420   4.312   8.329  0.2697  0.0693  0.1631
  195MOL0     C26797   4.450   4.378   8.206 -0.1254 -0.5039 -0.2750
  195MOL0     C26798   4.334   4.420   8.139  0.7645 -0.0516 -0.3679
  195MOL0     C26799   4.346   4.501   8.021  1.0291  0.0323  0.0802
  195MOL0     C26800   4.216   4.530   7.945  0.0308 -0.5505  0.6263
  195MOL0     C26801   4.474   4.533   7.971 -0.0211 -0.0110 -0.7079
  195MOL0     C26802   4.501   4.607   7.852 -0.6346 -0.4924  0.5351
  195MOL0     O26803   4.620   4.575   7.781 -0.7075 -0.4454  0.1456
  195MOL0     C26804   4.645   4.656   7.669 -1.0887  0.3109 -0.3920
  195MOL0     C26805   4.685   4.594   7.553 -0.3262  0.9172 -0.8353
  195MOL0     C26806   4.746   4.663   7.451 -0.5413 -1.2279  0.4666
  195MOL0     C26807   4.733   4.803   7.440  1.0397  0.0027  0.1519
  195MOL0     O26808   4.776   4.875   7.325 -0.1751 -0.3681  0.5896
  195MOL0     C26809   4.716   4.844   7.200  0.4154 -0.7280 -0.4134
  195MOL0     C26810   4.806   4.884   7.084  0.0098  0.7317  0.6737
  195MOL0     C26811   4.941   4.817   7.060  0.0125  0.1056 -0.0557
  195MOL0     C26812   5.036   4.914   6.995 -0.5491  0.0622 -0.8030
  195MOL0     C26813   5.167   4.834   6.966 -0.2740 -0.8789 -0.5645
  195MOL0     C26814   5.263   4.929   6.874 -0.2354 -0.3322 -0.3338
  195MOL0     C26815   5.382   4.845   6.841  1.4435  0.3716  0.8549
  195MOL0     C26816   5.489   4.929   6.775  0.9632 -0.9930  1.1422
  195MOL0    Cl26817   5.431   4.975   6.619  0.0110 -0.1453  0.1400
  195MOL0     C26818   4.691   4.871   7.564  0.4856  0.0306 -0.2537
  195MOL0     C26819   4.654   4.794   7.677  0.1095  0.0495 -0.3369
  195MOL0     O26820   4.422   4.701   7.826  0.4379  0.1417  0.1814
  195MOL0     C26821   4.580   4.464   8.029 -0.5433 -1.0641 -0.4755
  195MOL0     C26822   4.573   4.398   8.148  0.5980 -1.7828 -0.5464
  195MOL0     N26823   4.630   3.908   8.460  0.5507  0.3456  0.4481
  195MOL0     N26824   4.670   3.859   8.345  0.2701  0.6981  0.3265
  195MOL0     C26825   5.328   4.577   7.687  0.0990  0.0602 -0.3030
  195MOL0     C26826   5.366   4.683   7.600 -0.1214  0.2511  0.1783
  195MOL0     C26827   5.298   5.043   7.295  0.1327  0.0369  0.6168
  195MOL0     C26828   5.223   5.151   7.239 -0.0422 -0.0055  0.2755
  195MOL0     C26829   5.284   5.256   7.163  0.2532  0.6409  0.1560
  195MOL0     C26830   5.412   5.237   7.119 -1.0168 -0.0233 -0.6521
  195MOL0     O26831   5.469   5.340   7.042  0.3487  0.5331 -0.4674
  195MOL0     C26832   5.597   5.390   7.068  0.4404  0.8949 -0.2253
  195MOL0     C26833   5.563   5.515   7.150 -0.5572  0.3722  0.1388
  195MOL0     C26834   5.672   5.617   7.116 -0.5245  0.2798  0.4626
  195MOL0     C26835   5.631   5.750   7.171  0.6512 -0.1873  0.0309
  195MOL0     C26836   5.741   5.834   7.138 -0.6976 -0.0468  0.2288
  195MOL0     C26837   5.850   5.876   7.110 -0.8472 -0.4491  0.1138
  195MOL0     C26838   5.482   5.120   7.148 -0.6092 -0.2363 -0.3453
  195MOL0     C26839   5.435   5.032   7.243 -0.1792  0.4336 -0.0298
  195MOL0     C26840   5.533   4.925   7.286 -0.5911 -0.4300 -0.1001
  195MOL0     H26841   5.064   4.783   7.491  2.5710  2.3688 -0.3501
  195MOL0     H26842   4.982   4.594   7.629  1.6649 -2.3518  1.7865
  195MOL0     H26843   4.972   4.486   7.835 -0.7513  0.2076 -0.9408
  195MOL0     H26844   5.014   4.331   7.896  1.7085  1.6236  1.5808
  195MOL0     H26845   4.929   4.385   7.605 -1.7502  1.7844  0.9162
  195MOL0     H26846   5.010   4.234   7.644 -0.4325 -0.3685 -0.7114
  195MOL0     H26847   4.771   4.349   7.810 -4.2281 -2.0790  1.0824
  195MOL0     H26848   4.741   4.254   7.662 -1.0647  2.2475  0.2911
  195MOL0     H26849   4.892   4.084   7.798  0.4628  0.8508 -0.5834
  195MOL0     H26850   4.846   4.184   7.942  0.0641 -3.0521  0.6083
  195MOL0     H26851   4.662   4.038   7.762  0.5933 -2.7240  0.3235
  195MOL0     H26852   4.608   4.145   7.878  0.5649  1.0972 -1.0049
  195MOL0     H26853   4.769   3.910   7.953  1.1772  0.8487  2.8837
  195MOL0     H26854   4.726   4.043   8.069 -1.7541 -0.6468  1.3902
  195MOL0     H26855   4.513   3.879   7.936  1.5196 -0.9201  1.1117
  195MOL0     H26856   4.490   4.005   8.055 -1.7786  0.3869  0.5122
  195MOL0     H26857   4.480   3.756   8.117  0.6095 -0.5392  0.3906
  195MOL0     H26858   4.654   3.752   8.115  1.0544  1.9034  1.3546
  195MOL0     H26859   4.363   3.937   8.268 -1.0900  1.3349  1.7535
  195MOL0     H26860   4.476   3.949   8.665  1.0130  0.5968 -1.3708
  195MOL0     H26861   4.328   3.924   8.584 -1.6728  0.4249  1.6420
  195MOL0     H26862   4.306   4.159   8.503 -1.0085  2.2770  1.6279
  195MOL0     H26863   4.355   4.172   8.673  0.5707  0.6922  0.1000
  195MOL0     H26864   4.496   4.312   8.612  1.7111  1.6241 -1.2702
  195MOL0     H26865   4.603   4.181   8.588 -0.5903  1.9236  1.3034
  195MOL0     H26866   4.606   4.346   8.421  2.1317 -1.2712 -0.8474
  195MOL0     H26867   4.588   4.191   8.350 -0.3892  3.5005 -3.7880
  195MOL0     H26868   4.237   4.394   8.182  1.4345 -2.0464  0.0718
  195MOL0     H26869   4.226   4.518   7.836 -0.4369 -1.0298  0.6377
  195MOL0     H26870   4.190   4.637   7.950 -1.9387 -0.7357 -2.7034
  195MOL0     H26871   4.135   4.475   7.992 -1.1709  0.9145  0.3393
  195MOL0     H26872   4.677   4.486   7.551 -2.5192  0.9839  0.7650
  195MOL0     H26873   4.799   4.621   7.366  0.7198 -0.7597  1.0070
  195MOL0     H26874   4.699   4.736   7.199  1.8362 -1.0007 -2.4120
  195MOL0     H26875   4.621   4.898   7.189  1.1284  0.5332 -0.6756
  195MOL0     H26876   4.755   4.854   6.992 -2.1095  1.0691  1.6778
  195MOL0     H26877   4.823   4.992   7.088 -0.4918  0.7927  1.2880
  195MOL0     H26878   4.929   4.726   7.000  2.4433  0.1238 -0.6815
  195MOL0     H26879   4.995   4.784   7.149  1.4368  2.2121 -0.0795
  195MOL0     H26880   5.064   4.999   7.059  3.3153 -2.1703  0.7814
  195MOL0     H26881   4.986   4.940   6.901  1.5878 -1.3288 -2.4001
  195MOL0     H26882   5.221   4.811   7.058 -0.4988 -1.4845 -0.5793
  195MOL0     H26883   5.146   4.741   6.912  2.6164 -0.8147 -1.9995
  195MOL0     H26884   5.288   5.025   6.920  2.4480 -0.3173 -1.6478
  195MOL0     H26885   5.207   4.947   6.781  1.9544 -0.5959 -1.7862
  195MOL0     H26886   5.361   4.759   6.777 -1.2344 -1.2750  3.6769
  195MOL0     H26887   5.428   4.797   6.928  2.4135 -0.1502  0.0712
  195MOL0     H26888   5.586   4.879   6.777 -0.0994 -3.4098 -1.0473
  195MOL0     H26889   5.501   5.027   6.821  0.7511  1.0714 -2.7646
  195MOL0     H26890   4.687   4.978   7.583  0.2147  0.1317 -0.8350
  195MOL0     H26891   4.620   4.839   7.770 -1.7520  0.6917 -1.2558
  195MOL0     H26892   4.676   4.472   7.980  0.1375  1.9366  1.1027
  195MOL0     H26893   4.667   4.364   8.190  1.7923  0.0218 -1.6138
  195MOL0     H26894   5.398   4.509   7.736 -2.9455 -3.2775 -0.1772
  195MOL0     H26895   5.470   4.706   7.580 -0.6732  2.6076 -0.2197
  195MOL0     H26896   5.120   5.164   7.272  0.5484  4.9928  0.9402
  195MOL0     H26897   5.222   5.340   7.132 -1.2636 -0.2696  0.5890
  195MOL0     H26898   5.664   5.320   7.120  1.0312 -0.4700 -2.6620
  195MOL0     H26899   5.645   5.408   6.972  0.7580 -2.7599 -0.9179
  195MOL0     H26900   5.569   5.512   7.259 -1.2006  3.8294  0.3872
  195MOL0     H26901   5.469   5.552   7.108 -1.5794 -1.5389  0.6345
  195MOL0     H26902   5.762   5.583   7.167 -0.9654 -1.2020  0.3314
  195MOL0     H26903   5.690   5.620   7.008 -2.4054 -1.2118  0.0386
  195MOL0     H26904   5.625   5.751   7.280 -0.9977  1.7149 -0.0156
  195MOL0     H26905   5.538   5.781   7.122 -1.5714 -2.0420  2.8299
  195MOL0     H26906   5.947   5.916   7.086 -0.9425 -0.8713 -1.0297
  195MOL0     H26907   5.582   5.106   7.107  0.7296  3.8986  0.9909
  195MOL0     H26908   5.632   4.951   7.248 -0.3618 -0.9098  0.1589
  195MOL0     H26909   5.541   4.906   7.394 -4.1672 -1.7699  0.0675
  195MOL0     H26910   5.501   4.830   7.244 -1.3239  0.1591 -0.9074
  196MOL0     O26911   7.286   3.770   8.667 -0.1625 -0.6486 -0.1209
  196MOL0     C26912   7.223   3.866   8.697  0.0735 -0.7276  0.4614
  196MOL0     O26913   7.269   3.965   8.780  0.2375 -0.3113  0.1979
  196MOL0     C26914   7.403   3.985   8.776 -0.6195  0.7592  0.3908
  196MOL0     C26915   7.483   3.970   8.663  0.2821  1.0683  0.4054
  196MOL0     C26916   7.623   3.982   8.678 -0.2327  0.0595  0.9427
  196MOL0     C26917   7.684   4.003   8.805  0.5470  0.2747 -0.4217
  196MOL0     O26918   7.821   4.003   8.808  0.4561  0.6716  0.2152
  196MOL0     C26919   7.890   4.001   8.939 -0.1878  0.6624  0.8286
  196MOL0     C26920   8.037   4.027   8.911  0.4348 -0.3250  0.8757
  196MOL0     C26921   8.122   4.024   9.032 -0.0031  0.6012 -1.0001
  196MOL0     C26922   8.274   4.050   8.994  0.0157  0.0870  0.1384
  196MOL0     C26923   8.373   4.059   9.109  0.6343  0.3404 -0.7945
  196MOL0     C26924   8.505   4.107   9.058  0.1818 -0.0068  0.5518
  196MOL0     C26925   8.620   4.113   9.165 -0.4181 -0.8278  0.4051
  196MOL0     C26926   8.759   4.158   9.108 -0.1786  0.1165  0.0027
  196MOL0     N26927   8.830   4.044   9.049  0.7103  0.3052  0.7073
  196MOL0     C26928   8.851   4.021   8.921  0.1137 -0.6401  0.2262
  196MOL0     C26929   8.929   3.911   8.909 -1.5296  0.1901 -0.5955
  196MOL0     C26930   8.993   3.843   8.788  0.2154  0.2868 -0.3516
  196MOL0     C26931   9.034   3.706   8.819 -0.3553 -0.0855  0.1132
  196MOL0     C26932   9.099   3.639   8.694  0.0147 -0.3486 -0.6768
  196MOL0     C26933   9.228   3.701   8.642  0.5215 -0.3244 -0.4343
  196MOL0     O26934   9.191   3.774   8.526 -0.2131  0.9993 -0.3008
  196MOL0     C26935   9.274   3.855   8.458 -0.3360  0.7481  0.9581
  196MOL0     C26936   9.229   3.934   8.340 -0.0015 -0.5115 -0.0318
  196MOL0     C26937   9.320   4.016   8.268  0.7663 -0.0049  0.6112
  196MOL0     C26938   9.266   4.080   8.140  1.3962  0.3321  0.1859
  196MOL0     C26939   9.457   4.022   8.309 -0.5300 -1.0469 -0.0920
  196MOL0     C26940   9.570   4.089   8.228 -0.7000  0.6132 -0.3784
  196MOL0     O26941   9.699   4.086   8.288  0.6538  0.2923  1.0816
  196MOL0     C26942   9.809   4.157   8.237  0.2254  1.0194 -0.1538
  196MOL0     C26943   9.792   4.286   8.180 -0.1923  0.4490 -0.2175
  196MOL0     C26944   9.906   4.357   8.146  0.3071 -0.0754  0.8003
  196MOL0     C26945  10.034   4.311   8.186  0.6091  0.2354  0.5458
  196MOL0     O26946  10.146   4.395   8.167 -0.0962 -0.4106  0.3384
  196MOL0     C26947  10.225   4.414   8.285  0.9903  0.2473 -0.0839
  196MOL0     C26948  10.312   4.537   8.279 -0.0112 -0.9699  0.4294
  196MOL0     C26949  10.419   4.528   8.170 -0.1306  0.1874  0.0940
  196MOL0     C26950  10.495   4.659   8.171 -0.3406 -0.0075  0.5693
  196MOL0     C26951  10.586   4.659   8.044  0.1317 -0.1909  0.0721
  196MOL0     C26952  10.689   4.774   8.045 -1.0145  0.4962 -0.3216
  196MOL0     C26953  10.764   4.777   7.907  0.3838  1.1592 -0.8733
  196MOL0     C26954  10.903   4.838   7.914 -0.5979  0.3628  0.1513
  196MOL0    Cl26955  11.022   4.760   8.020 -0.4172 -0.0765  0.0233
  196MOL0     C26956  10.053   4.184   8.246  0.2582  0.2252 -0.2413
  196MOL0     C26957   9.938   4.109   8.269  0.8831 -0.7594 -1.3644
  196MOL0     O26958   9.537   4.145   8.121  0.9716 -1.0538  0.4111
  196MOL0     C26959   9.499   3.947   8.423  0.5826  0.1594 -0.8655
  196MOL0     C26960   9.408   3.873   8.496 -1.1704 -0.1171  0.2883
  196MOL0     N26961   8.939   3.852   9.040 -0.4551  0.6556  0.2825
  196MOL0     N26962   8.887   3.940   9.125  0.5367 -0.7257 -0.1839
  196MOL0     C26963   7.598   4.031   8.916  0.4078  0.2242 -0.0900
  196MOL0     C26964   7.459   4.013   8.900 -0.5895 -0.6026 -0.0619
  196MOL0     C26965   7.089   3.871   8.646 -0.3483 -0.0530  0.2235
  196MOL0     C26966   7.038   3.762   8.566 -0.4426  0.7154 -0.0676
  196MOL0     C26967   6.918   3.770   8.501 -0.2778 -0.1309 -0.2041
  196MOL0     C26968   6.835   3.879   8.517 -0.4794 -0.4090  0.9435
  196MOL0     O26969   6.720   3.902   8.456  0.1971 -0.0621  0.5167
  196MOL0     C26970   6.623   3.801   8.465 -0.2529  0.2233 -0.6831
  196MOL0     C26971   6.599   3.724   8.334  0.5692 -0.4353 -0.0137
  196MOL0     C26972   6.472   3.637   8.325 -0.5516  0.6003 -0.5144
  196MOL0     C26973   6.346   3.694   8.390  0.0614  0.0667  0.3222
  196MOL0     C26974   6.228   3.630   8.342 -0.5488  0.9252  0.5996
  196MOL0     C26975   6.119   3.581   8.310 -0.3968  0.1068 -0.3693
  196MOL0     C26976   6.888   3.985   8.592  0.1002 -0.0204 -0.3752
  196MOL0     C26977   7.004   3.985   8.660 -0.7962  0.5718  0.4466
  196MOL0     C26978   7.042   4.121   8.725 -0.1664  0.1480  0.1032
  196MOL0     H26979   7.439   3.956   8.565  0.8553 -0.0967  0.3002
  196MOL0     H26980   7.692   3.957   8.598  0.8103  1.8091  1.2319
  196MOL0     H26981   7.874   3.903   8.986 -1.9766  1.1331  1.3194
  196MOL0     H26982   7.852   4.081   9.003  0.5472  2.0464 -0.4177
  196MOL0     H26983   8.081   3.969   8.830  0.5130  2.1985 -0.9898
  196MOL0     H26984   8.033   4.131   8.878  1.0686 -1.1922 -2.1957
  196MOL0     H26985   8.090   4.112   9.089  0.0385  0.3053 -0.5178
  196MOL0     H26986   8.106   3.948   9.109  1.1030 -0.1338 -1.4675
  196MOL0     H26987   8.303   3.973   8.922  0.2171  2.3667 -2.3313
  196MOL0     H26988   8.282   4.140   8.933 -2.5013  1.3371  1.4532
  196MOL0     H26989   8.382   3.962   9.161 -0.6590 -0.5099 -2.0865
  196MOL0     H26990   8.331   4.127   9.183  1.9503  0.7780 -0.4280
  196MOL0     H26991   8.526   4.029   8.984  0.5517  0.0612  0.5806
  196MOL0     H26992   8.487   4.205   9.012 -0.8172  0.1800  1.3229
  196MOL0     H26993   8.634   4.011   9.202 -0.3445 -1.6897 -1.8361
  196MOL0     H26994   8.583   4.181   9.242 -0.9807 -3.5698  2.7263
  196MOL0     H26995   8.757   4.245   9.042  4.3339  1.2956  1.0856
  196MOL0     H26996   8.824   4.186   9.191 -3.5266  0.1380  2.8259
  196MOL0     H26997   8.819   4.094   8.846  1.1849 -1.8353 -1.4649
  196MOL0     H26998   9.087   3.892   8.761 -1.4913  2.4640 -2.8083
  196MOL0     H26999   8.927   3.837   8.701 -0.2869 -1.1715  0.1121
  196MOL0     H27000   9.090   3.696   8.913  0.4989 -1.5467 -0.5073
  196MOL0     H27001   8.943   3.645   8.822  0.0265 -0.8474 -2.1132
  196MOL0     H27002   9.107   3.533   8.718  0.5795  0.0570  1.0858
  196MOL0     H27003   9.025   3.630   8.614 -1.7933  3.0996  0.3987
  196MOL0     H27004   9.278   3.759   8.720  3.2398 -0.5310 -1.8751
  196MOL0     H27005   9.305   3.632   8.606  1.0723 -0.0191  0.1300
  196MOL0     H27006   9.129   3.920   8.300  0.0763 -0.4567 -0.2499
  196MOL0     H27007   9.309   4.040   8.047 -0.9822  0.9767 -1.2791
  196MOL0     H27008   9.273   4.189   8.136 -1.4005  0.5473 -2.3239
  196MOL0     H27009   9.160   4.053   8.144  1.2771  0.9151  1.0383
  196MOL0     H27010   9.696   4.327   8.150 -0.5654 -1.1056 -1.2895
  196MOL0     H27011   9.896   4.455   8.101 -2.2192 -0.9286 -0.6949
  196MOL0     H27012  10.162   4.420   8.374  1.0199 -0.1489 -0.0363
  196MOL0     H27013  10.296   4.334   8.306 -0.6769 -1.8366 -1.8962
  196MOL0     H27014  10.246   4.619   8.250  0.2798 -0.5669  0.8982
  196MOL0     H27015  10.358   4.552   8.377  0.2042 -2.8451  0.6414
  196MOL0     H27016  10.367   4.516   8.075 -0.9148 -0.8870  0.6350
  196MOL0     H27017  10.481   4.439   8.185 -0.7969 -0.0512  1.5920
  196MOL0     H27018  10.553   4.668   8.264  0.8336 -0.7156 -0.0606
  196MOL0     H27019  10.427   4.744   8.163 -0.1055 -0.0297 -4.3428
  196MOL0     H27020  10.640   4.564   8.044 -0.1182 -0.4448  3.4689
  196MOL0     H27021  10.528   4.668   7.952  2.1727 -0.6107 -1.3147
  196MOL0     H27022  10.755   4.753   8.130 -1.0971 -1.8904 -0.7860
  196MOL0     H27023  10.652   4.875   8.066  2.3368  2.4141 -2.8093
  196MOL0     H27024  10.696   4.822   7.834 -2.9812 -1.0320  0.6465
  196MOL0     H27025  10.781   4.675   7.870 -0.4314  0.8158 -0.3159
  196MOL0     H27026  10.891   4.944   7.941 -0.3380  0.1884  0.9673
  196MOL0     H27027  10.943   4.820   7.814  1.9261 -0.4821  1.2245
  196MOL0     H27028  10.152   4.149   8.272 -0.2275 -0.1298  1.2658
  196MOL0     H27029   9.937   4.016   8.325 -0.2006  1.0063  1.7756
  196MOL0     H27030   9.603   3.936   8.452 -0.2875 -1.0266  2.2135
  196MOL0     H27031   9.441   3.824   8.588  0.6873  3.5088  1.7669
  196MOL0     H27032   7.638   4.073   9.008  3.3009 -0.7446 -0.7961
  196MOL0     H27033   7.400   4.040   8.987  2.3281 -0.3955  2.0273
  196MOL0     H27034   7.100   3.674   8.554 -0.1769  0.8010  0.6342
  196MOL0     H27035   6.879   3.685   8.446  0.6829 -1.0639  0.5286
  196MOL0     H27036   6.637   3.738   8.553 -1.2116  1.2625  0.2384
  196MOL0     H27037   6.531   3.858   8.482 -1.0346 -1.4636  1.0373
  196MOL0     H27038   6.682   3.654   8.321  1.9266  1.0811  0.1600
  196MOL0     H27039   6.599   3.801   8.256 -0.3286 -0.0299  0.3673
  196MOL0     H27040   6.455   3.611   8.220  0.9577 -2.6060 -0.1111
  196MOL0     H27041   6.488   3.538   8.368  2.4473  0.3548 -1.8757
  196MOL0     H27042   6.336   3.798   8.356 -4.1624 -0.8066 -1.7867
  196MOL0     H27043   6.338   3.687   8.499 -3.2093 -2.3958  0.0636
  196MOL0     H27044   6.028   3.541   8.269  0.0495 -0.5191 -0.7681
  196MOL0     H27045   6.829   4.075   8.591 -0.1533 -0.1716  0.4114
  196MOL0     H27046   7.075   4.101   8.828 -0.9329  0.2736  0.3805
  196MOL0     H27047   7.129   4.162   8.673  0.7218 -1.6950  0.0273
  196MOL0     H27048   6.959   4.191   8.733  0.2608  0.8340 -1.2595
  197MOL0     O27049  11.268   4.672   1.953  0.3215  0.2425  0.9809
  197MOL0     C27050  11.226   4.731   1.859  0.6571  0.1531  0.0003
  197MOL0     O27051  11.283   4.838   1.794  0.0151 -0.1145 -0.2109
  197MOL0     C27052  11.357   4.934   1.857 -0.1063  0.1492  0.9598
  197MOL0     C27053  11.389   4.943   1.987 -0.1031  0.3348 -0.8850
  197MOL0     C27054  11.455   5.058   2.037  1.0636  0.1765 -0.4805
  197MOL0     C27055  11.502   5.160   1.960  0.0226  0.4929  0.5915
  197MOL0     O27056  11.584   5.267   1.995 -0.4628  0.3881 -0.8043
  197MOL0     C27057  11.612   5.291   2.130  0.3683 -0.8588 -0.7139
  197MOL0     C27058  11.650   5.445   2.143 -0.4628 -0.5866 -0.5840
  197MOL0     C27059  11.801   5.459   2.154 -0.0255 -0.2176  0.4622
  197MOL0     C27060  11.830   5.601   2.177  0.2046 -0.1694  0.3270
  197MOL0     C27061  11.976   5.610   2.193 -0.1592  0.4697  0.3324
  197MOL0     C27062  12.005   5.740   2.264  0.1574  0.9358  0.3469
  197MOL0     C27063  12.159   5.771   2.256  0.9636  1.0473 -0.4641
  197MOL0     C27064  12.204   5.838   2.132 -0.0824 -0.2651  0.7223
  197MOL0     N27065  12.198   5.987   2.134  0.0327  0.5747 -0.7710
  197MOL0     C27066  12.256   6.077   2.049 -0.2554  0.2770  0.2775
  197MOL0     C27067  12.225   6.199   2.095 -0.9548  0.9696 -0.2306
  197MOL0     C27068  12.284   6.322   2.042 -0.4423  0.6512 -0.7047
  197MOL0     C27069  12.241   6.358   1.901  0.7985  0.6144 -0.4799
  197MOL0     C27070  12.325   6.469   1.847 -0.9784 -0.6608  0.4605
  197MOL0     C27071  12.280   6.502   1.701 -0.6565 -1.0531  0.1847
  197MOL0     O27072  12.153   6.563   1.726 -0.6862  0.5582  0.2245
  197MOL0     C27073  12.133   6.693   1.769  0.2766  0.2537  0.4089
  197MOL0     C27074  12.008   6.721   1.824  0.6929 -0.3877  0.5579
  197MOL0     C27075  11.983   6.847   1.884 -0.0763  0.2823 -0.2270
  197MOL0     C27076  11.844   6.873   1.944  0.1672 -0.0584 -0.9963
  197MOL0     C27077  12.088   6.944   1.889  0.0330  0.1456  0.0425
  197MOL0     C27078  12.075   7.077   1.953  0.6309 -1.0205  0.7532
  197MOL0     O27079  12.188   7.158   1.921 -0.1224 -0.3603 -0.5062
  197MOL0     C27080  12.188   7.286   1.946 -0.1596 -0.4970 -0.1503
  197MOL0     C27081  12.317   7.337   1.950  0.7942 -0.2209  0.8401
  197MOL0     C27082  12.334   7.476   1.976  0.3522 -0.3506 -0.0582
  197MOL0     C27083  12.221   7.560   1.996 -0.9283 -0.4802 -0.7281
  197MOL0     O27084  12.255   7.689   2.013  0.5139 -0.0071  0.0970
  197MOL0     C27085  12.295   7.755   1.889  0.2655 -0.3650 -0.4057
  197MOL0     C27086  12.301   7.904   1.902 -0.5323 -0.9261 -0.2852
  197MOL0     C27087  12.164   7.961   1.941 -0.2661  0.1252  0.2789
  197MOL0     C27088  12.154   8.114   1.919 -0.5174  0.0236  0.9197
  197MOL0     C27089  12.020   8.154   1.857 -0.1433  0.1746 -0.1695
  197MOL0     C27090  11.903   8.148   1.953 -0.1663  0.2706 -0.5801
  197MOL0     C27091  11.775   8.223   1.904 -0.0015 -0.7369  0.7315
  197MOL0     C27092  11.799   8.374   1.929  0.0692  0.5596  0.3043
  197MOL0    Cl27093  11.667   8.490   1.871  0.0990  0.1941  0.1023
  197MOL0     C27094  12.090   7.510   2.008 -0.3511 -0.2393 -0.4894
  197MOL0     C27095  12.083   7.372   1.968 -0.7294  0.3903  0.3869
  197MOL0     O27096  11.985   7.100   2.037 -0.4314  0.9788  0.3953
  197MOL0     C27097  12.212   6.912   1.830  0.4188  0.2950 -0.2535
  197MOL0     C27098  12.237   6.790   1.768  0.7156  0.2788 -0.7693
  197MOL0     N27099  12.125   6.183   2.192  0.2704 -0.0357 -0.1989
  197MOL0     N27100  12.119   6.057   2.228  0.0951  0.4935 -0.1949
  197MOL0     C27101  11.467   5.141   1.824  0.5893 -0.0795 -0.4844
  197MOL0     C27102  11.399   5.034   1.776 -0.7221  0.4926 -0.5560
  197MOL0     C27103  11.115   4.662   1.777 -0.1180 -0.3890  0.0006
  197MOL0     C27104  11.102   4.696   1.642  0.3615  0.5588  1.5704
  197MOL0     C27105  11.001   4.644   1.557 -0.9825 -0.4119 -0.0655
  197MOL0     C27106  10.907   4.564   1.615 -0.0497 -0.0311 -0.6852
  197MOL0     O27107  10.791   4.514   1.563  0.7224  0.0873 -0.3122
  197MOL0     C27108  10.804   4.435   1.444 -0.6585  0.2071  0.2159
  197MOL0     C27109  10.869   4.300   1.475  0.3024  0.3132  0.7352
  197MOL0     C27110  10.870   4.187   1.374  0.1727 -0.4812  1.3058
  197MOL0     C27111  10.728   4.143   1.339 -0.6607  0.4004  0.0461
  197MOL0     C27112  10.665   4.082   1.456  0.1463 -0.6112  0.0264
  197MOL0     C27113  10.591   4.031   1.551  0.2462  0.1335  1.1937
  197MOL0     C27114  10.923   4.523   1.749 -0.1408  0.2586  0.4327
  197MOL0     C27115  11.019   4.573   1.834 -0.3368  0.3569  0.5615
  197MOL0     C27116  11.012   4.528   1.979  0.1383 -0.5732  0.1816
  197MOL0     H27117  11.348   4.866   2.051 -3.5548  1.2657 -1.7559
  197MOL0     H27118  11.462   5.064   2.145 -1.6000 -0.7676 -0.1734
  197MOL0     H27119  11.690   5.224   2.168  0.1895 -0.7350 -0.1189
  197MOL0     H27120  11.526   5.268   2.194  1.9941 -4.5091  0.4095
  197MOL0     H27121  11.609   5.505   2.061  0.9038  2.4094  0.7926
  197MOL0     H27122  11.595   5.479   2.231 -0.2441 -0.4985 -0.4809
  197MOL0     H27123  11.835   5.395   2.236 -1.4423 -0.8322  0.5933
  197MOL0     H27124  11.847   5.430   2.059 -2.8005 -0.4263 -0.9046
  197MOL0     H27125  11.817   5.670   2.093 -0.3066 -1.6486 -0.8498
  197MOL0     H27126  11.767   5.641   2.257  3.5037  1.0825  2.5369
  197MOL0     H27127  12.023   5.609   2.094  0.3285  3.1425  0.4568
  197MOL0     H27128  12.006   5.539   2.270  0.3064  0.6967  0.3623
  197MOL0     H27129  11.945   5.816   2.213  0.1421 -2.0376 -4.7498
  197MOL0     H27130  11.970   5.727   2.366 -0.7257 -2.6376 -0.2737
  197MOL0     H27131  12.228   5.688   2.272  0.4720  0.8392  0.6605
  197MOL0     H27132  12.184   5.838   2.338 -1.1311  2.9429 -1.2600
  197MOL0     H27133  12.301   5.805   2.094  0.1665 -1.3142  2.1894
  197MOL0     H27134  12.138   5.804   2.052 -2.0194  0.3934  1.9651
  197MOL0     H27135  12.318   6.047   1.965  0.8853  0.5912  0.9782
  197MOL0     H27136  12.393   6.306   2.041 -0.2767  1.6211 -0.0708
  197MOL0     H27137  12.262   6.392   2.123  2.3725 -1.3681  2.0669
  197MOL0     H27138  12.248   6.270   1.837 -2.0744 -1.8337  2.2082
  197MOL0     H27139  12.137   6.392   1.901  1.2326  2.0446 -2.0039
  197MOL0     H27140  12.326   6.559   1.910  1.5399  0.9055 -1.5522
  197MOL0     H27141  12.431   6.444   1.839 -0.3787  1.6372  0.3035
  197MOL0     H27142  12.348   6.571   1.649  0.3070 -1.3640  1.0191
  197MOL0     H27143  12.281   6.418   1.631  2.3119  0.3752 -1.7154
  197MOL0     H27144  11.937   6.641   1.808 -1.9781  2.2144 -1.6513
  197MOL0     H27145  11.850   6.832   2.046 -0.6290  0.0674 -0.8940
  197MOL0     H27146  11.771   6.806   1.898  0.7484 -1.3644 -0.0774
  197MOL0     H27147  11.806   6.975   1.931 -2.4483 -1.1855 -3.0751
  197MOL0     H27148  12.406   7.274   1.954  2.7985  2.1154 -2.2253
  197MOL0     H27149  12.438   7.508   1.976  0.6205 -1.2035 -0.2502
  197MOL0     H27150  12.393   7.720   1.855  1.5363  1.6658  0.9818
  197MOL0     H27151  12.233   7.733   1.802  0.4432  0.6273 -0.7943
  197MOL0     H27152  12.381   7.934   1.970  1.4347 -1.8427 -2.0798
  197MOL0     H27153  12.335   7.954   1.811  0.6229  1.0823  1.1866
  197MOL0     H27154  12.135   7.937   2.044 -1.2978 -1.1655 -0.2745
  197MOL0     H27155  12.088   7.926   1.871 -0.9818 -0.0023  1.0919
  197MOL0     H27156  12.241   8.140   1.858  0.6403  0.4793  2.7091
  197MOL0     H27157  12.163   8.170   2.012 -2.6239 -0.9388  1.7646
  197MOL0     H27158  12.039   8.254   1.817  2.5992 -0.1507  0.0839
  197MOL0     H27159  12.001   8.091   1.770  3.0444 -3.3351  1.3854
  197MOL0     H27160  11.936   8.189   2.050  2.7770 -0.6782 -1.0742
  197MOL0     H27161  11.882   8.043   1.977  1.3451  0.4160  1.7585
  197MOL0     H27162  11.682   8.196   1.954  0.5136 -0.0303  2.1137
  197MOL0     H27163  11.759   8.193   1.799  4.5025 -4.6587  0.8545
  197MOL0     H27164  11.895   8.402   1.884  0.2868  1.1867  1.1321
  197MOL0     H27165  11.801   8.393   2.037 -0.6377 -1.7603  0.7680
  197MOL0     H27166  12.004   7.573   2.025 -1.2910 -1.1641 -1.6609
  197MOL0     H27167  11.980   7.338   1.975 -0.1489 -1.2115  1.6625
  197MOL0     H27168  12.289   6.988   1.830 -1.3331  2.3653  3.5823
  197MOL0     H27169  12.335   6.773   1.725  1.1593  0.3600  0.1692
  197MOL0     H27170  11.508   5.223   1.765  1.9434  2.2530  3.2873
  197MOL0     H27171  11.397   5.020   1.668  0.9876  0.5580 -0.6234
  197MOL0     H27172  11.175   4.768   1.606  2.1838  0.7441  5.1255
  197MOL0     H27173  10.983   4.670   1.453 -0.6271 -2.6385 -0.7428
  197MOL0     H27174  10.710   4.408   1.395 -0.0795  0.1865 -0.9296
  197MOL0     H27175  10.872   4.482   1.372 -0.3972 -1.4007 -0.6582
  197MOL0     H27176  10.833   4.266   1.573 -1.1807 -1.0678 -0.2298
  197MOL0     H27177  10.974   4.317   1.499  0.3640  0.3812  0.4225
  197MOL0     H27178  10.911   4.230   1.282 -0.3918 -2.1090  0.2462
  197MOL0     H27179  10.930   4.101   1.402 -0.6495 -1.2433  0.7590
  197MOL0     H27180  10.711   4.067   1.263 -4.4049  1.6141 -0.5466
  197MOL0     H27181  10.669   4.230   1.309  0.2658  0.2919 -2.3288
  197MOL0     H27182  10.538   4.012   1.642 -2.6895 -1.3296 -0.6561
  197MOL0     H27183  10.841   4.466   1.792  0.4297 -2.2741 -1.5801
  197MOL0     H27184  10.973   4.609   2.041  2.7712  1.7440 -0.9639
  197MOL0     H27185  10.942   4.444   1.985 -1.2113  0.1736 -3.0451
  197MOL0     H27186  11.111   4.506   2.020  0.2846  1.7584  1.2509
  198MOL0     O27187   8.280   8.716   4.904  1.0095 -0.2132 -0.2443
  198MOL0     C27188   8.163   8.664   4.881 -0.9833 -0.0931 -0.2376
  198MOL0     O27189   8.048   8.717   4.916  0.9086 -0.2741  0.4945
  198MOL0     C27190   8.057   8.836   4.983 -1.0163  0.6421 -0.1299
  198MOL0     C27191   8.020   8.950   4.923 -0.7233 -1.5119 -0.2801
  198MOL0     C27192   8.015   9.066   5.005 -0.2812  0.8570 -0.7516
  198MOL0     C27193   8.054   9.072   5.142  0.1961 -0.4544  0.1394
  198MOL0     O27194   8.036   9.190   5.212 -0.4409  0.9653  0.6885
  198MOL0     C27195   8.043   9.178   5.360  0.4074  0.2553  0.5589
  198MOL0     C27196   7.985   9.303   5.424 -0.1470  0.1601  0.6581
  198MOL0     C27197   8.081   9.422   5.416  0.1087  0.1125 -0.8657
  198MOL0     C27198   8.204   9.395   5.504 -1.0092 -0.1421  0.9916
  198MOL0     C27199   8.257   9.532   5.549 -0.3769 -0.0495 -0.2679
  198MOL0     C27200   8.387   9.509   5.630 -0.3811  0.6901 -0.4204
  198MOL0     C27201   8.468   9.630   5.670  0.3257  0.1476 -1.2741
  198MOL0     C27202   8.588   9.580   5.750 -0.5830 -0.0396  0.7983
  198MOL0     N27203   8.675   9.489   5.680 -0.1140 -0.1871  0.4979
  198MOL0     C27204   8.773   9.532   5.596 -0.0726  0.1389  0.7924
  198MOL0     C27205   8.806   9.422   5.534 -0.5386  0.6702 -0.2990
  198MOL0     C27206   8.902   9.404   5.417  0.2784 -0.3847 -0.8917
  198MOL0     C27207   8.870   9.273   5.349 -0.0792 -0.5990  0.2889
  198MOL0     C27208   8.939   9.273   5.211  0.5333 -0.2255 -0.1655
  198MOL0     C27209   8.986   9.136   5.186 -0.6180  0.7025  0.2353
  198MOL0     O27210   9.106   9.117   5.268  0.2572 -0.3783  0.3866
  198MOL0     C27211   9.142   8.984   5.289  0.3227 -1.2228 -0.1699
  198MOL0     C27212   9.119   8.880   5.198  0.5020  0.7832  0.4814
  198MOL0     C27213   9.159   8.749   5.222  0.3102 -0.0685 -0.0798
  198MOL0     C27214   9.136   8.654   5.110 -0.1221 -0.2609  0.2247
  198MOL0     C27215   9.233   8.725   5.340 -1.1284 -0.2781 -0.1542
  198MOL0     C27216   9.298   8.596   5.367  0.2271  0.4628  0.6475
  198MOL0     O27217   9.252   8.486   5.299  0.3389  0.2596 -0.4466
  198MOL0     C27218   9.325   8.362   5.306  0.7114  1.3588  0.3946
  198MOL0     C27219   9.412   8.315   5.403  0.1753 -0.1922 -0.4889
  198MOL0     C27220   9.467   8.184   5.398 -0.8201 -0.1869  0.5888
  198MOL0     C27221   9.417   8.094   5.304 -0.4676 -0.1762 -0.3855
  198MOL0     O27222   9.469   7.965   5.297  0.4790 -0.3351  0.7602
  198MOL0     C27223   9.565   7.906   5.386 -0.2403  0.3911 -0.7850
  198MOL0     C27224   9.624   7.785   5.313  0.1481 -0.5587 -0.2428
  198MOL0     C27225   9.721   7.703   5.390 -0.1063  0.5250 -0.4519
  198MOL0     C27226   9.855   7.779   5.404 -0.1666 -0.6601 -0.0301
  198MOL0     C27227   9.943   7.702   5.505  0.3329 -0.3341  0.0097
  198MOL0     C27228  10.068   7.795   5.541  0.3685  0.3956 -0.1891
  198MOL0     C27229  10.183   7.712   5.582  0.5520 -0.7319  0.4373
  198MOL0     C27230  10.313   7.791   5.594  0.0904 -0.4426 -0.1167
  198MOL0    Cl27231  10.448   7.685   5.660  0.4827 -0.1364  0.0283
  198MOL0     C27232   9.340   8.139   5.198  0.2243  0.3254 -0.2937
  198MOL0     C27233   9.300   8.271   5.201  0.4174 -0.6178  0.2743
  198MOL0     O27234   9.385   8.593   5.453 -0.0064  0.3115 -0.1939
  198MOL0     C27235   9.261   8.827   5.433  0.0020  0.1089  0.4508
  198MOL0     C27236   9.210   8.953   5.408 -0.4062 -0.5733 -0.0774
  198MOL0     N27237   8.742   9.316   5.595  0.0482 -0.1260  0.0308
  198MOL0     N27238   8.667   9.352   5.684  0.0979  0.9263  0.1238
  198MOL0     C27239   8.100   8.943   5.194  0.2241 -0.4678  0.1599
  198MOL0     C27240   8.095   8.825   5.120 -0.0436 -0.4671  0.0405
  198MOL0     C27241   8.160   8.546   4.791  0.4569  0.1310  0.3772
  198MOL0     C27242   8.265   8.458   4.783  0.4111 -0.3656 -0.4747
  198MOL0     C27243   8.267   8.359   4.686 -0.6420 -0.0640  0.0454
  198MOL0     C27244   8.176   8.344   4.587  0.2239  0.3238  0.3559
  198MOL0     O27245   8.206   8.244   4.493 -0.5093  0.7881  0.0250
  198MOL0     C27246   8.124   8.224   4.381  0.2938  0.5266  0.8723
  198MOL0     C27247   8.154   8.082   4.321 -0.4679  0.4795 -0.4243
  198MOL0     C27248   8.303   8.085   4.276  0.5973 -0.1031  0.7101
  198MOL0     C27249   8.349   8.197   4.172 -0.0048  0.0408  0.1617
  198MOL0     C27250   8.262   8.195   4.057 -0.3444  0.0620 -0.3059
  198MOL0     C27251   8.165   8.200   3.982 -0.0616  0.3082  0.2102
  198MOL0     C27252   8.068   8.433   4.590 -1.2981 -0.4698  0.6288
  198MOL0     C27253   8.057   8.534   4.692 -0.2495  0.5719  0.0538
  198MOL0     C27254   7.940   8.622   4.679  1.0639 -0.7135  0.2673
  198MOL0     H27255   7.995   8.962   4.818  1.5886  0.7874 -0.6852
  198MOL0     H27256   7.981   9.160   4.964 -0.8447  0.3521 -1.4608
  198MOL0     H27257   8.148   9.168   5.389  0.1269  0.3206  1.6245
  198MOL0     H27258   7.991   9.088   5.395 -2.4972  1.4683 -0.2845
  198MOL0     H27259   7.888   9.326   5.381 -0.1917 -0.9734  0.1292
  198MOL0     H27260   7.967   9.284   5.530  0.2474 -0.7529  0.5670
  198MOL0     H27261   8.102   9.451   5.313 -1.7590  0.5884 -1.1485
  198MOL0     H27262   8.032   9.512   5.454 -1.9137 -1.2311 -0.0808
  198MOL0     H27263   8.188   9.321   5.583  1.4008 -2.9847 -0.9554
  198MOL0     H27264   8.291   9.362   5.446 -1.4740  0.2528  0.0636
  198MOL0     H27265   8.180   9.574   5.614 -0.8651 -0.5983 -0.4862
  198MOL0     H27266   8.276   9.599   5.464  2.3104 -1.0872 -0.5820
  198MOL0     H27267   8.351   9.468   5.725  0.2707 -0.8770 -0.8100
  198MOL0     H27268   8.451   9.433   5.584  0.0528  1.2933 -0.8297
  198MOL0     H27269   8.407   9.694   5.734  2.1867  0.8825 -0.1339
  198MOL0     H27270   8.509   9.689   5.587 -1.2647 -0.8026 -2.7822
  198MOL0     H27271   8.648   9.665   5.786  0.4855 -0.9042  1.1246
  198MOL0     H27272   8.555   9.523   5.837 -1.2352  1.3792  1.5255
  198MOL0     H27273   8.807   9.635   5.588 -0.3106  0.0590 -3.0120
  198MOL0     H27274   9.008   9.397   5.446  0.8296  0.4961 -2.5366
  198MOL0     H27275   8.891   9.490   5.350  1.9450  1.1362  0.6379
  198MOL0     H27276   8.901   9.192   5.416 -2.1926 -0.1458  1.9148
  198MOL0     H27277   8.763   9.259   5.334 -0.1712  1.8693 -2.3638
  198MOL0     H27278   8.867   9.296   5.132 -0.0445 -0.2615  0.3440
  198MOL0     H27279   9.024   9.341   5.206 -1.2880  2.0534 -3.0696
  198MOL0     H27280   8.902   9.070   5.211 -0.2308  1.0858  2.8336
  198MOL0     H27281   9.018   9.132   5.081 -2.0663  0.1460 -0.2149
  198MOL0     H27282   9.063   8.901   5.108  0.3732 -2.9540 -0.4781
  198MOL0     H27283   9.232   8.623   5.068 -0.4076 -0.8737  0.0172
  198MOL0     H27284   9.082   8.698   5.025  0.5837 -1.3178 -0.8016
  198MOL0     H27285   9.077   8.568   5.143 -1.1287  0.0978 -0.6010
  198MOL0     H27286   9.439   8.366   5.495  0.4514 -1.9507  0.4598
  198MOL0     H27287   9.522   8.146   5.483  2.4384 -4.1004 -2.7713
  198MOL0     H27288   9.653   7.968   5.401  2.3303 -2.8635 -1.3142
  198MOL0     H27289   9.527   7.877   5.485  0.6642 -1.0850 -0.8346
  198MOL0     H27290   9.545   7.713   5.290  0.0086  0.1580 -2.1719
  198MOL0     H27291   9.659   7.811   5.213  0.0394  0.2875 -0.0662
  198MOL0     H27292   9.742   7.611   5.335  0.1001  0.2452  0.0910
  198MOL0     H27293   9.682   7.682   5.490 -2.6131  3.6273 -0.6320
  198MOL0     H27294   9.848   7.883   5.436  0.1431 -0.6794  0.0997
  198MOL0     H27295   9.901   7.781   5.305 -0.4250  1.6217 -0.1522
  198MOL0     H27296   9.894   7.671   5.598  1.3591 -2.4632 -0.0898
  198MOL0     H27297   9.977   7.612   5.453  2.5129  0.1804  0.4114
  198MOL0     H27298  10.040   7.872   5.613 -0.6978  0.7916 -1.0039
  198MOL0     H27299  10.095   7.840   5.445  0.0954  1.8692  0.4061
  198MOL0     H27300  10.202   7.624   5.520  3.3514 -1.1809  1.7531
  198MOL0     H27301  10.168   7.679   5.685  0.5098  0.4134  0.8113
  198MOL0     H27302  10.307   7.876   5.662 -0.0165 -1.2099  0.8685
  198MOL0     H27303  10.338   7.840   5.500  0.3024 -3.2802 -1.6430
  198MOL0     H27304   9.294   8.068   5.130  0.3761  0.1425 -0.2041
  198MOL0     H27305   9.234   8.313   5.125  3.1188 -0.3182 -2.0936
  198MOL0     H27306   9.326   8.817   5.519  1.2710 -1.4610 -0.6314
  198MOL0     H27307   9.250   9.016   5.487  3.0015 -2.5269 -0.0392
  198MOL0     H27308   8.130   8.936   5.298  0.8807 -0.4411 -0.0253
  198MOL0     H27309   8.124   8.724   5.150  2.7486 -0.6522 -2.7304
  198MOL0     H27310   8.345   8.478   4.854 -1.6191 -0.3127  1.9556
  198MOL0     H27311   8.360   8.303   4.687 -0.7103 -0.2233 -1.2432
  198MOL0     H27312   8.019   8.229   4.414 -0.4242  1.7357 -1.3735
  198MOL0     H27313   8.135   8.304   4.306  0.5818 -0.0388  0.3026
  198MOL0     H27314   8.098   8.056   4.230 -0.4904  0.1049 -0.3050
  198MOL0     H27315   8.163   8.008   4.401  1.4508  1.4805  0.3440
  198MOL0     H27316   8.371   8.103   4.359  1.3014 -1.4049  0.4530
  198MOL0     H27317   8.323   7.992   4.222  1.3366 -0.6110  1.8308
  198MOL0     H27318   8.454   8.171   4.156  0.7034  2.6325  0.0922
  198MOL0     H27319   8.345   8.298   4.215  0.0791  0.0582  0.1307
  198MOL0     H27320   8.083   8.218   3.916  0.2494  0.1593 -0.2187
  198MOL0     H27321   7.990   8.424   4.515  0.2742 -2.6144 -0.9012
  198MOL0     H27322   7.874   8.581   4.602  1.4071  0.1237 -0.4777
  198MOL0     H27323   7.872   8.617   4.765  1.2012 -0.3009  0.4025
  198MOL0     H27324   7.970   8.722   4.647 -1.2451  0.2435  0.8732
  199MOL0     O27325   3.596   9.770   0.521 -0.5858  0.3701  0.4496
  199MOL0     C27326   3.667   9.695   0.580  0.6404 -0.0115 -0.2151
  199MOL0     O27327   3.782   9.735   0.657 -0.3712 -0.7802 -0.6768
  199MOL0     C27328   3.802   9.863   0.689 -0.6631 -0.5590 -0.1588
  199MOL0     C27329   3.935   9.912   0.684  0.0590  0.0261  0.1368
  199MOL0     C27330   3.961  10.046   0.721  0.5866 -0.4338  1.1725
  199MOL0     C27331   3.858  10.129   0.766 -0.7826  0.4625 -0.8402
  199MOL0     O27332   3.907  10.253   0.793 -0.2140 -0.1781 -0.1239
  199MOL0     C27333   3.831  10.342   0.874 -0.5576  1.2191 -0.2458
  199MOL0     C27334   3.842  10.313   1.025 -0.0123  0.1634 -0.4220
  199MOL0     C27335   3.969  10.253   1.064 -0.4840 -0.4447  0.5390
  199MOL0     C27336   4.074  10.372   1.064 -1.5729 -0.0030 -1.1335
  199MOL0     C27337   4.213  10.311   1.111 -0.5481 -0.9375  0.0074
  199MOL0     C27338   4.212  10.292   1.257 -0.0957 -0.2821 -0.0254
  199MOL0     C27339   4.354  10.287   1.327  0.2461  0.9741 -0.1699
  199MOL0     C27340   4.400  10.145   1.328  0.1623  0.0906  0.5931
  199MOL0     N27341   4.541  10.133   1.378  0.4040 -0.0399  1.6587
  199MOL0     C27342   4.653  10.162   1.303 -0.4557  0.0706  0.6640
  199MOL0     C27343   4.757  10.138   1.375  0.5159  0.1640  0.7577
  199MOL0     C27344   4.889  10.171   1.320 -0.2416 -0.2800 -0.1039
  199MOL0     C27345   4.994  10.165   1.434  0.6602 -0.3174  0.3387
  199MOL0     C27346   5.129  10.229   1.392 -0.2777 -0.2065 -0.2884
  199MOL0     C27347   5.222  10.242   1.525 -0.6084  1.0646  0.5344
  199MOL0     O27348   5.353  10.292   1.479  0.0623  0.6352  0.1029
  199MOL0     C27349   5.441  10.203   1.424  0.0564 -0.1514 -0.6524
  199MOL0     C27350   5.475  10.078   1.493 -0.0272 -1.0528  0.5443
  199MOL0     C27351   5.575   9.990   1.448 -0.1673 -0.4774 -0.5973
  199MOL0     C27352   5.640   9.884   1.544  0.4848 -0.0652  0.9611
  199MOL0     C27353   5.633  10.025   1.317  0.2673 -1.0158  0.0273
  199MOL0     C27354   5.734   9.941   1.244  0.5358 -0.1220 -0.1784
  199MOL0     O27355   5.759   9.824   1.296  0.1553  0.3486  0.0146
  199MOL0     C27356   5.873   9.759   1.265  0.3498 -0.1419  0.2638
  199MOL0     C27357   5.987   9.822   1.292  0.1127 -0.0169 -0.5722
  199MOL0     C27358   6.113   9.767   1.264  0.3151 -0.0925 -0.0331
  199MOL0     C27359   6.117   9.638   1.203 -0.4409 -0.2349  1.0112
  199MOL0     O27360   6.229   9.569   1.158 -0.0074 -0.9289 -0.4699
  199MOL0     C27361   6.355   9.621   1.212  0.7748 -0.4888 -0.4638
  199MOL0     C27362   6.477   9.544   1.158 -0.0761 -0.3233 -1.1620
  199MOL0     C27363   6.598   9.535   1.254  0.1691  0.7196  0.3118
  199MOL0     C27364   6.699   9.435   1.212 -0.9142 -0.2293  0.8942
  199MOL0     C27365   6.799   9.488   1.111 -0.3336 -0.6780 -0.0024
  199MOL0     C27366   6.875   9.368   1.058 -0.2258 -0.2517  0.3937
  199MOL0     C27367   6.999   9.340   1.138  0.7681  0.3229 -0.1020
  199MOL0     C27368   7.076   9.207   1.087  1.1258  0.5621  0.0139
  199MOL0    Cl27369   7.022   9.052   1.161 -0.5009  0.6112 -0.0553
  199MOL0     C27370   5.991   9.568   1.181  0.0049  0.0152  0.5318
  199MOL0     C27371   5.870   9.634   1.208 -0.0620  0.9260  0.0075
  199MOL0     O27372   5.776   9.978   1.138  0.5369 -1.0675 -0.0313
  199MOL0     C27373   5.591  10.143   1.254  0.7474 -0.7904  0.0016
  199MOL0     C27374   5.503  10.233   1.305 -0.0416  0.8256  0.8065
  199MOL0     N27375   4.715  10.097   1.499  0.2708 -0.6121 -0.0126
  199MOL0     N27376   4.588  10.084   1.493 -0.6859 -0.4052 -0.7076
  199MOL0     C27377   3.722  10.079   0.761 -0.1222  0.7032  0.0706
  199MOL0     C27378   3.699   9.943   0.733  0.2454  1.0372 -0.4069
  199MOL0     C27379   3.641   9.547   0.574 -0.7675  0.1509 -0.0637
  199MOL0     C27380   3.745   9.457   0.590  0.5266 -0.2950 -0.5954
  199MOL0     C27381   3.728   9.316   0.582  0.6453 -0.0283 -0.3079
  199MOL0     C27382   3.595   9.263   0.556 -0.3811 -0.3202  0.2633
  199MOL0     O27383   3.565   9.129   0.560 -0.1471  0.0094  0.1222
  199MOL0     C27384   3.679   9.041   0.524 -0.8896  0.5386 -0.0373
  199MOL0     C27385   3.739   9.054   0.390 -0.0593  0.3867 -0.1220
  199MOL0     C27386   3.633   9.066   0.278 -0.0957 -0.1809 -0.2802
  199MOL0     C27387   3.562   8.930   0.253 -0.0406 -0.6842 -0.1862
  199MOL0     C27388   3.655   8.841   0.189  0.1618 -0.0667 -0.6435
  199MOL0     C27389   3.724   8.775   0.121  0.2693  0.2501 -0.4514
  199MOL0     C27390   3.494   9.353   0.537 -0.2911  0.0746  0.4440
  199MOL0     C27391   3.509   9.493   0.549 -0.6774 -0.1483 -0.5706
  199MOL0     C27392   3.378   9.569   0.530  0.1505 -0.5483 -1.0561
  199MOL0     H27393   4.010   9.838   0.655  0.0898  1.0447 -2.7163
  199MOL0     H27394   4.061  10.086   0.707 -0.0912  1.3824  1.2850
  199MOL0     H27395   3.729  10.355   0.837  0.4615  2.4268 -2.8864
  199MOL0     H27396   3.882  10.439   0.864 -1.1989  1.4821 -1.0860
  199MOL0     H27397   3.806  10.402   1.077  0.9879  0.4787 -0.2520
  199MOL0     H27398   3.759  10.244   1.039 -0.1992  0.0250 -2.0777
  199MOL0     H27399   3.968  10.211   1.165 -3.1308 -0.3194  0.6394
  199MOL0     H27400   4.002  10.170   1.000 -0.9081 -0.6946  0.6406
  199MOL0     H27401   4.093  10.428   0.973 -0.9371  0.2391 -0.8564
  199MOL0     H27402   4.033  10.446   1.134  2.1895 -0.3128  1.7789
  199MOL0     H27403   4.286  10.390   1.094 -0.4138 -1.2520 -0.9339
  199MOL0     H27404   4.236  10.217   1.060  1.0864 -1.0403  0.8928
  199MOL0     H27405   4.159  10.373   1.308  1.2434  1.7955 -1.7617
  199MOL0     H27406   4.157  10.202   1.284 -0.0305 -0.5857 -0.8820
  199MOL0     H27407   4.354  10.325   1.429 -2.5143 -3.7417  1.9055
  199MOL0     H27408   4.427  10.343   1.267 -0.4882  2.0284 -0.1008
  199MOL0     H27409   4.329  10.096   1.396 -2.7719 -0.4527 -2.5958
  199MOL0     H27410   4.396  10.101   1.228  0.9700  1.1842  0.0532
  199MOL0     H27411   4.654  10.195   1.199 -3.5414  2.8394  1.3520
  199MOL0     H27412   4.895  10.272   1.277 -0.8522 -0.2943 -0.2337
  199MOL0     H27413   4.903  10.093   1.244 -2.6371 -1.2027  0.3238
  199MOL0     H27414   4.967  10.211   1.530  1.3603 -0.4001  0.5813
  199MOL0     H27415   5.010  10.058   1.454  3.4032 -0.3238 -1.3812
  199MOL0     H27416   5.186  10.167   1.322  1.1921 -1.4175  1.8694
  199MOL0     H27417   5.109  10.331   1.358 -0.3779 -0.2428 -0.3368
  199MOL0     H27418   5.178  10.306   1.602 -0.1943  1.2506  0.6149
  199MOL0     H27419   5.224  10.139   1.561  0.1388  0.6145 -0.7305
  199MOL0     H27420   5.438  10.057   1.593  1.2386 -1.1400  1.0113
  199MOL0     H27421   5.612   9.911   1.647  0.8844  4.0490  0.1365
  199MOL0     H27422   5.749   9.892   1.540  0.4242  1.0353  1.2286
  199MOL0     H27423   5.620   9.782   1.508  2.4329  0.5298 -2.1992
  199MOL0     H27424   5.993   9.913   1.351 -1.5426  1.0629 -1.9695
  199MOL0     H27425   6.198   9.830   1.286  1.1058 -0.9185 -0.6232
  199MOL0     H27426   6.370   9.729   1.199  2.5043 -0.6791 -0.2263
  199MOL0     H27427   6.353   9.612   1.321  1.7756  3.9650  0.1074
  199MOL0     H27428   6.445   9.441   1.141  3.4454 -1.1654 -3.7982
  199MOL0     H27429   6.510   9.595   1.067  0.1793  0.9250 -0.4005
  199MOL0     H27430   6.563   9.511   1.355 -0.7752 -0.1121 -0.1933
  199MOL0     H27431   6.654   9.628   1.248  1.0654  0.3043  1.8381
  199MOL0     H27432   6.654   9.338   1.188  0.7147 -0.9877  0.7349
  199MOL0     H27433   6.750   9.413   1.307 -1.0147 -1.5726  0.6549
  199MOL0     H27434   6.749   9.523   1.020 -0.3604 -0.1377  0.2119
  199MOL0     H27435   6.863   9.566   1.154 -0.5475 -0.9569  0.8427
  199MOL0     H27436   6.908   9.383   0.955  2.9353 -2.9240  0.8408
  199MOL0     H27437   6.805   9.285   1.047 -0.6170  0.3675 -2.5972
  199MOL0     H27438   6.976   9.329   1.245  0.9458  3.5707  0.3641
  199MOL0     H27439   7.071   9.422   1.128  1.9014 -0.3528  1.8870
  199MOL0     H27440   7.179   9.211   1.124  0.5806 -1.7354  2.0442
  199MOL0     H27441   7.066   9.205   0.978  0.3301 -2.9017  0.0292
  199MOL0     H27442   6.006   9.467   1.144  3.0785  0.7949 -0.6387
  199MOL0     H27443   5.773   9.592   1.184 -0.4003  0.3997  2.0365
  199MOL0     H27444   5.643  10.170   1.163 -0.8360  2.1885 -0.1332
  199MOL0     H27445   5.485  10.323   1.248  1.7529  0.7291  0.0179
  199MOL0     H27446   3.636  10.138   0.791 -1.8947 -1.8369  0.2981
  199MOL0     H27447   3.602   9.896   0.747 -0.1100  1.0591 -2.5022
  199MOL0     H27448   3.843   9.490   0.623 -0.3997  1.9751  0.0642
  199MOL0     H27449   3.818   9.256   0.594  0.1254 -0.9847 -1.0493
  199MOL0     H27450   3.748   9.038   0.609 -1.9398  1.3518  0.8823
  199MOL0     H27451   3.641   8.938   0.532  1.5047 -0.2474  3.7479
  199MOL0     H27452   3.800   8.964   0.374 -0.7333  0.0241 -0.6992
  199MOL0     H27453   3.800   9.145   0.381 -1.7198  1.6831  1.1554
  199MOL0     H27454   3.563   9.145   0.305  1.8913  0.7308  2.7008
  199MOL0     H27455   3.672   9.099   0.181 -0.4840  0.1919 -0.3106
  199MOL0     H27456   3.477   8.952   0.188  1.7414 -1.2609 -2.8749
  199MOL0     H27457   3.511   8.906   0.347 -1.3572  2.1572 -0.0511
  199MOL0     H27458   3.784   8.719   0.051  0.7409  2.6468 -2.0939
  199MOL0     H27459   3.397   9.309   0.515  0.0130 -1.8324  2.5165
  199MOL0     H27460   3.366   9.614   0.630  2.0054 -2.3059  0.0477
  199MOL0     H27461   3.388   9.652   0.460 -0.7683 -1.3136 -2.1160
  199MOL0     H27462   3.297   9.504   0.497  0.4037 -1.4205 -0.0370
  200MOL0     O27463   3.708   5.048   9.029 -0.2096  0.3084 -0.9841
  200MOL0     C27464   3.637   5.048   8.931  0.3434  0.4233 -0.1998
  200MOL0     O27465   3.674   5.069   8.804  0.2879 -0.4007  0.9459
  200MOL0     C27466   3.809   5.087   8.773 -1.2815  0.1829 -0.9137
  200MOL0     C27467   3.908   4.984   8.784 -1.5906 -0.3795 -0.1119
  200MOL0     C27468   4.042   4.998   8.741 -0.3599  0.1668 -0.6883
  200MOL0     C27469   4.080   5.109   8.669 -0.0550 -0.6590 -0.0878
  200MOL0     O27470   4.219   5.113   8.631 -0.2180  0.1351 -0.2277
  200MOL0     C27471   4.260   5.217   8.536 -0.4103  0.1567  0.5827
  200MOL0     C27472   4.377   5.184   8.443  0.4727  0.2321 -0.5635
  200MOL0     C27473   4.498   5.124   8.535  0.8559 -0.0021 -0.0663
  200MOL0     C27474   4.625   5.091   8.447 -0.3412  0.6875  1.0393
  200MOL0     C27475   4.741   5.027   8.524 -0.1808  0.8007  0.0570
  200MOL0     C27476   4.728   4.870   8.532  0.0483 -0.1085 -0.1025
  200MOL0     C27477   4.832   4.802   8.608  0.5739  0.3597 -1.1611
  200MOL0     C27478   4.965   4.796   8.538  0.5003  0.8423  0.4250
  200MOL0     N27479   5.037   4.682   8.573  0.0567  0.1008 -0.1300
  200MOL0     C27480   5.167   4.664   8.536  0.5905  0.1103  0.5217
  200MOL0     C27481   5.202   4.547   8.595  0.5199  0.6694 -0.6786
  200MOL0     C27482   5.326   4.469   8.601 -0.0625 -0.1000  0.7995
  200MOL0     C27483   5.380   4.441   8.455  0.2694 -0.6350  1.0054
  200MOL0     C27484   5.494   4.337   8.485 -0.5037 -0.3801  0.3962
  200MOL0     C27485   5.620   4.405   8.540 -0.6337 -0.0338 -1.0420
  200MOL0     O27486   5.681   4.514   8.462 -0.3829 -0.9299  0.1104
  200MOL0     C27487   5.811   4.499   8.423 -0.8777 -0.1051 -0.2024
  200MOL0     C27488   5.849   4.533   8.293  0.0656  0.4674  0.0033
  200MOL0     C27489   5.983   4.540   8.243  0.5308  0.2117 -0.3103
  200MOL0     C27490   5.995   4.584   8.098 -0.0693 -0.5137 -0.8313
  200MOL0     C27491   6.087   4.509   8.335  0.6844 -0.7630  0.9520
  200MOL0     C27492   6.228   4.517   8.294 -0.3438  0.3236  0.7877
  200MOL0     O27493   6.311   4.479   8.396  0.2142 -0.5692  0.0252
  200MOL0     C27494   6.444   4.448   8.361  0.1414  0.8675  0.2244
  200MOL0     C27495   6.472   4.314   8.326 -0.5388  0.3855  0.1009
  200MOL0     C27496   6.604   4.267   8.319 -0.6871  0.4292  0.2759
  200MOL0     C27497   6.715   4.354   8.346 -0.3453  0.2837 -0.2668
  200MOL0     O27498   6.843   4.311   8.343  0.1161 -0.1210  0.1534
  200MOL0     C27499   6.889   4.206   8.260 -0.2512 -0.1173  0.4842
  200MOL0     C27500   7.039   4.176   8.280  0.2220 -0.3370 -0.0852
  200MOL0     C27501   7.108   4.105   8.156  0.6619 -0.0367  0.6682
  200MOL0     C27502   7.253   4.094   8.204  0.0875 -0.1879  0.0312
  200MOL0     C27503   7.334   4.029   8.098  0.1238  0.0693  0.8380
  200MOL0     C27504   7.460   3.963   8.163 -0.2390  0.0560 -0.1157
  200MOL0     C27505   7.561   3.946   8.041  0.0941  0.0950 -0.2305
  200MOL0     C27506   7.688   3.869   8.076 -0.0284  0.3866  0.0933
  200MOL0    Cl27507   7.739   3.878   8.244 -0.2350 -0.1710  0.1363
  200MOL0     C27508   6.684   4.486   8.387 -0.6273 -0.3859  0.8723
  200MOL0     C27509   6.548   4.528   8.397  0.3863  0.5158 -0.2910
  200MOL0     O27510   6.263   4.543   8.179  0.1234  0.3202 -0.3610
  200MOL0     C27511   6.046   4.477   8.467  0.0125 -0.3709 -0.0802
  200MOL0     C27512   5.919   4.477   8.511  0.2793  0.1698  0.7402
  200MOL0     N27513   5.090   4.494   8.661  0.5713 -0.1091  0.4495
  200MOL0     N27514   4.997   4.576   8.651 -0.0844 -0.4076  0.6479
  200MOL0     C27515   3.986   5.215   8.664  0.0312 -1.4393  0.0785
  200MOL0     C27516   3.852   5.207   8.711 -0.3906  0.2611 -0.6329
  200MOL0     C27517   3.482   5.053   8.945 -0.1631 -0.1109 -0.3249
  200MOL0     C27518   3.401   5.082   8.834  1.3296 -0.1296  0.6240
  200MOL0     C27519   3.260   5.066   8.837  0.6875  0.2447  0.3707
  200MOL0     C27520   3.198   5.048   8.951  0.3012  0.5000 -0.1022
  200MOL0     O27521   3.058   5.046   8.970 -0.4562  0.6445  0.0002
  200MOL0     C27522   2.973   5.112   8.873 -0.0530  0.5966  0.5481
  200MOL0     C27523   2.976   5.260   8.902 -0.5074  0.4505  0.5876
  200MOL0     C27524   3.039   5.342   8.784  0.2512  0.1201 -0.1000
  200MOL0     C27525   2.930   5.347   8.672 -0.6217 -0.8649  0.4881
  200MOL0     C27526   2.836   5.461   8.693  0.4721 -0.0364  0.0856
  200MOL0     C27527   2.751   5.553   8.697 -0.3431  0.5745  0.3529
  200MOL0     C27528   3.271   5.029   9.069  0.3021 -0.2794 -0.0582
  200MOL0     C27529   3.414   5.037   9.071 -0.3393 -0.2484 -0.7634
  200MOL0     C27530   3.485   5.016   9.203  0.3067  0.1530 -0.1077
  200MOL0     H27531   3.875   4.890   8.828 -2.1272 -0.9672 -1.7145
  200MOL0     H27532   4.109   4.913   8.750  0.4563  0.9873  1.7850
  200MOL0     H27533   4.292   5.305   8.593 -3.8129  4.8950 -3.9135
  200MOL0     H27534   4.181   5.248   8.467  0.9613  1.1829 -0.5947
  200MOL0     H27535   4.351   5.122   8.356  0.2337  0.1531 -0.4358
  200MOL0     H27536   4.399   5.286   8.409  1.0590  0.6202  0.9128
  200MOL0     H27537   4.525   5.189   8.619  0.1219 -0.9247  0.9155
  200MOL0     H27538   4.465   5.030   8.581 -0.3899  1.3361  1.9228
  200MOL0     H27539   4.605   5.035   8.355 -0.0541  2.1222  0.0713
  200MOL0     H27540   4.662   5.189   8.416 -0.0391  0.6168  1.1723
  200MOL0     H27541   4.728   5.073   8.623 -3.5672  0.6676 -0.2162
  200MOL0     H27542   4.836   5.051   8.475 -2.1260  2.3716 -3.2931
  200MOL0     H27543   4.634   4.842   8.582  1.5225  0.2485  3.1541
  200MOL0     H27544   4.730   4.825   8.433  3.0009  1.0854 -0.6935
  200MOL0     H27545   4.785   4.704   8.625 -1.3896  1.6160  1.3609
  200MOL0     H27546   4.849   4.836   8.710 -2.0593 -1.8762  0.1760
  200MOL0     H27547   4.950   4.767   8.434  2.0832 -3.1086  1.1136
  200MOL0     H27548   5.012   4.890   8.568 -0.9571  0.2967  5.4228
  200MOL0     H27549   5.231   4.725   8.473 -0.7536 -1.4340 -2.6061
  200MOL0     H27550   5.318   4.373   8.652  0.8805 -0.9789 -0.6394
  200MOL0     H27551   5.393   4.523   8.669  0.7746  0.8952 -0.7310
  200MOL0     H27552   5.308   4.408   8.380  1.6771 -0.7441 -0.3441
  200MOL0     H27553   5.433   4.532   8.427  1.3038 -0.3417  3.6293
  200MOL0     H27554   5.462   4.259   8.555  0.6243 -1.1599  0.0783
  200MOL0     H27555   5.524   4.278   8.398  2.2983 -4.7798  3.8599
  200MOL0     H27556   5.602   4.445   8.641  2.6068  1.2205 -0.8615
  200MOL0     H27557   5.695   4.327   8.554  2.3370  2.9700  1.6467
  200MOL0     H27558   5.777   4.571   8.220  0.8540  0.7241 -0.6528
  200MOL0     H27559   6.038   4.684   8.084  0.1760 -0.3996  0.6116
  200MOL0     H27560   5.900   4.585   8.044  0.5674  0.8365 -1.9982
  200MOL0     H27561   6.056   4.507   8.050  1.7516 -0.6585  1.5212
  200MOL0     H27562   6.392   4.248   8.294  1.8909 -1.8725 -1.7926
  200MOL0     H27563   6.625   4.163   8.296  3.3341  0.5529  2.5881
  200MOL0     H27564   6.822   4.120   8.269  0.0496 -0.5416 -1.0376
  200MOL0     H27565   6.877   4.245   8.159  1.0147 -1.7469 -0.3420
  200MOL0     H27566   7.085   4.275   8.295 -1.5097  0.6391 -0.9502
  200MOL0     H27567   7.047   4.119   8.373 -2.3488  0.5068  0.7458
  200MOL0     H27568   7.098   4.166   8.065  0.1913 -0.3636  0.4958
  200MOL0     H27569   7.059   4.010   8.134  2.1922 -0.4796 -1.1269
  200MOL0     H27570   7.243   4.028   8.290 -1.9889  0.3146  0.2353
  200MOL0     H27571   7.300   4.191   8.226  0.5061 -0.3868  0.0117
  200MOL0     H27572   7.279   3.949   8.048 -0.8972  0.2666  1.6166
  200MOL0     H27573   7.354   4.107   8.024 -2.2310 -1.4929 -1.6233
  200MOL0     H27574   7.432   3.863   8.199  0.5549  0.4678  1.7416
  200MOL0     H27575   7.499   4.028   8.241  1.9363 -0.4232 -0.7434
  200MOL0     H27576   7.584   4.049   8.011  0.2781  0.8392  2.1810
  200MOL0     H27577   7.515   3.894   7.957 -1.6640 -1.5938  1.6820
  200MOL0     H27578   7.769   3.904   8.012  1.1427 -1.3365  0.5410
  200MOL0     H27579   7.677   3.764   8.047  1.2416  0.6596 -1.5309
  200MOL0     H27580   6.765   4.544   8.431  1.9733 -2.9648 -0.1951
  200MOL0     H27581   6.526   4.627   8.437  0.1554  0.5825 -0.5771
  200MOL0     H27582   6.116   4.446   8.544 -0.5572 -0.9019  0.2270
  200MOL0     H27583   5.911   4.445   8.615  1.6396 -1.4313  0.4007
  200MOL0     H27584   4.026   5.312   8.637 -3.1843  0.2731  0.9563
  200MOL0     H27585   3.775   5.280   8.689 -2.0661 -1.9245 -2.5495
  200MOL0     H27586   3.443   5.112   8.738 -0.1208  1.7434  0.5144
  200MOL0     H27587   3.208   5.076   8.742  1.3461  1.6215  0.1402
  200MOL0     H27588   3.002   5.099   8.769 -2.8359 -0.0257 -0.2299
  200MOL0     H27589   2.871   5.076   8.887 -0.1160 -0.1709 -1.6000
  200MOL0     H27590   3.029   5.283   8.995  2.2934  4.2567 -1.6694
  200MOL0     H27591   2.874   5.298   8.915  0.1579  1.5966  3.1712
  200MOL0     H27592   3.064   5.442   8.821 -1.2941  0.8730 -0.9880
  200MOL0     H27593   3.135   5.298   8.754  0.4062  0.9566 -0.8820
  200MOL0     H27594   2.875   5.254   8.686  2.0114 -2.5407  0.2672
  200MOL0     H27595   2.973   5.348   8.571 -2.4633 -1.6900 -0.3547
  200MOL0     H27596   2.684   5.635   8.712  2.4367  3.0688  0.2251
  200MOL0     H27597   3.220   5.020   9.164 -1.4596 -0.2170 -0.9607
  200MOL0     H27598   3.415   4.991   9.284  1.6219  0.0139  1.0277
  200MOL0     H27599   3.563   4.940   9.210 -1.0938 -1.1827  3.9221
  200MOL0     H27600   3.535   5.106   9.239 -2.0271  1.2167  0.6788
  201MOL0     O27601  10.674   9.761   8.371 -0.2014  0.0819  0.0065
  201MOL0     C27602  10.655   9.643   8.392  0.5139  0.1418 -0.8823
  201MOL0     O27603  10.725   9.578   8.493  1.0479  0.3459  0.4134
  201MOL0     C27604  10.833   9.628   8.567  0.5285  0.3279 -0.2796
  201MOL0     C27605  10.911   9.730   8.534 -0.0787 -0.2019  0.5100
  201MOL0     C27606  11.025   9.757   8.614 -0.2023 -0.5273 -0.5109
  201MOL0     C27607  11.056   9.682   8.732  0.5102  0.3792  0.7462
  201MOL0     O27608  11.158   9.732   8.804  0.1230 -0.3373 -0.5075
  201MOL0     C27609  11.206   9.666   8.922 -0.5975 -0.1993 -0.1532
  201MOL0     C27610  11.298   9.544   8.907  0.4884 -0.4184  1.0968
  201MOL0     C27611  11.402   9.573   8.797 -0.1533 -0.0466 -0.4296
  201MOL0     C27612  11.512   9.469   8.813 -0.4152 -0.4732  0.1211
  201MOL0     C27613  11.627   9.480   8.701  0.7216  0.2600 -0.7402
  201MOL0     C27614  11.751   9.379   8.725  0.0810  0.2360 -0.5787
  201MOL0     C27615  11.846   9.364   8.612  0.4681  0.4314 -0.6187
  201MOL0     C27616  11.950   9.253   8.637 -0.3425 -0.3496  0.2010
  201MOL0     N27617  12.056   9.265   8.535 -0.3158  0.1681 -0.3542
  201MOL0     C27618  12.032   9.258   8.399  0.0695 -0.3309  0.1376
  201MOL0     C27619  12.151   9.302   8.348  0.8740  0.1570 -0.1771
  201MOL0     C27620  12.173   9.329   8.200  0.3174 -0.7361  0.0454
  201MOL0     C27621  12.228   9.467   8.178  0.1205 -0.3399  0.0327
  201MOL0     C27622  12.195   9.512   8.038  0.0411  0.1247  0.4548
  201MOL0     C27623  12.234   9.658   8.016 -0.2506 -0.1691 -0.2415
  201MOL0     O27624  12.240   9.696   7.877 -1.0762  0.2623 -0.0877
  201MOL0     C27625  12.293   9.821   7.843  0.6782 -0.8241  0.9446
  201MOL0     C27626  12.318   9.927   7.933 -0.7171 -0.4284 -0.6721
  201MOL0     C27627  12.366  10.055   7.895 -0.1416 -0.0811 -0.6383
  201MOL0     C27628  12.376  10.155   8.005  1.0865  0.3203 -1.5229
  201MOL0     C27629  12.394  10.068   7.753  0.2592 -0.8270  0.4921
  201MOL0     C27630  12.443  10.192   7.690 -0.4004 -0.4075 -0.8124
  201MOL0     O27631  12.452  10.195   7.550 -0.1715 -0.1746 -0.7377
  201MOL0     C27632  12.525  10.293   7.496  0.2149 -0.0028  0.2793
  201MOL0     C27633  12.469  10.361   7.389  0.4612  0.0414  0.1813
  201MOL0     C27634  12.545  10.452   7.311  0.2314 -0.2186  0.2429
  201MOL0     C27635  12.679  10.463   7.334  0.0759  1.2366 -0.4854
  201MOL0     O27636  12.764  10.554   7.272  0.0342  0.1708 -0.6695
  201MOL0     C27637  12.723  10.606   7.148  0.1235 -0.4742 -0.7751
  201MOL0     C27638  12.840  10.671   7.089 -0.3292 -0.3304  0.2741
  201MOL0     C27639  12.819  10.736   6.946  0.8589 -0.3703 -0.5339
  201MOL0     C27640  12.933  10.819   6.888 -0.5043 -0.8102 -0.2734
  201MOL0     C27641  12.873  10.906   6.776 -0.3540  0.8063 -0.8568
  201MOL0     C27642  12.987  10.963   6.693  0.2233 -0.2567 -0.0447
  201MOL0     C27643  12.930  11.076   6.601  0.5306 -0.0149 -0.4794
  201MOL0     C27644  12.890  11.034   6.461  0.5713 -1.0793  0.3393
  201MOL0    Cl27645  13.032  10.971   6.370 -0.2816  0.1110 -0.1309
  201MOL0     C27646  12.740  10.387   7.445  0.4137  0.6681  0.3278
  201MOL0     C27647  12.660  10.304   7.528  0.7322  0.2059  0.2622
  201MOL0     O27648  12.477  10.285   7.765 -0.6919 -0.7454  0.5234
  201MOL0     C27649  12.384   9.958   7.669  0.2791  0.2700  0.4052
  201MOL0     C27650  12.328   9.845   7.708  0.5719  1.2264 -0.4070
  201MOL0     N27651  12.245   9.330   8.445  0.4330 -0.6571 -0.2304
  201MOL0     N27652  12.185   9.308   8.559 -0.2647 -0.2591  0.0227
  201MOL0     C27653  10.966   9.575   8.767  0.0121  0.9822  0.4025
  201MOL0     C27654  10.858   9.545   8.680  0.4724 -0.3731 -0.4215
  201MOL0     C27655  10.564   9.585   8.301 -0.6595  0.8277  0.8624
  201MOL0     C27656  10.508   9.654   8.198 -0.1301  0.0798  1.4195
  201MOL0     C27657  10.421   9.596   8.104  0.2729 -0.2639 -0.3912
  201MOL0     C27658  10.387   9.462   8.107  0.5859  0.1887  0.8175
  201MOL0     O27659  10.298   9.414   8.008 -0.2489 -0.5308 -0.1706
  201MOL0     C27660  10.344   9.427   7.868  0.1784 -0.2747 -0.1739
  201MOL0     C27661  10.467   9.337   7.840  0.6893 -0.5204 -0.2769
  201MOL0     C27662  10.434   9.196   7.887  0.0938  0.2706  1.0508
  201MOL0     C27663  10.532   9.092   7.848 -0.0038 -0.0326  1.5142
  201MOL0     C27664  10.532   9.065   7.702 -0.5458 -0.3377 -0.3999
  201MOL0     C27665  10.544   9.045   7.581 -0.2685 -0.5991 -0.1245
  201MOL0     C27666  10.445   9.391   8.206  0.4469 -0.3518  0.6396
  201MOL0     C27667  10.527   9.447   8.302 -0.0959 -0.3959  0.7938
  201MOL0     C27668  10.567   9.349   8.414  0.2879  0.1444 -0.2790
  201MOL0     H27669  10.881   9.796   8.453  1.4285 -0.5867 -0.4088
  201MOL0     H27670  11.085   9.842   8.585  1.6189 -1.8935 -0.9510
  201MOL0     H27671  11.118   9.639   8.981 -0.6962 -0.1811 -0.2914
  201MOL0     H27672  11.258   9.734   8.990  2.5154 -3.9641  1.6350
  201MOL0     H27673  11.358   9.525   8.996  0.4984 -1.1527  0.9370
  201MOL0     H27674  11.241   9.454   8.882 -0.0309 -0.0286  0.8573
  201MOL0     H27675  11.351   9.570   8.700  0.6851 -0.9836 -0.8588
  201MOL0     H27676  11.441   9.674   8.815  0.1570 -0.4436  1.2642
  201MOL0     H27677  11.555   9.466   8.913 -1.4047  3.2653  0.8096
  201MOL0     H27678  11.456   9.376   8.799 -2.0264  0.1322  2.0452
  201MOL0     H27679  11.666   9.582   8.707  4.2701 -1.0192  1.4608
  201MOL0     H27680  11.585   9.460   8.602  3.1025 -1.2908 -1.5428
  201MOL0     H27681  11.804   9.407   8.816  2.0296  2.6249 -2.3181
  201MOL0     H27682  11.702   9.283   8.742 -0.6130  0.4046 -1.5226
  201MOL0     H27683  11.891   9.462   8.595  2.7172 -0.8584 -2.8778
  201MOL0     H27684  11.792   9.340   8.520 -3.4492  1.0140  1.3340
  201MOL0     H27685  11.992   9.281   8.734  1.0472  4.9429 -1.5795
  201MOL0     H27686  11.903   9.155   8.636  2.4498 -1.7784 -1.7628
  201MOL0     H27687  11.936   9.229   8.359 -0.8834  1.5835  0.9018
  201MOL0     H27688  12.080   9.322   8.142  0.8787  1.5643 -1.2917
  201MOL0     H27689  12.241   9.256   8.156  1.5094  0.8146 -0.8014
  201MOL0     H27690  12.187   9.542   8.247  2.1174 -0.4757  1.4426
  201MOL0     H27691  12.335   9.461   8.197  0.0097  1.5077  1.4982
  201MOL0     H27692  12.253   9.456   7.964  0.9036  0.6927  0.6958
  201MOL0     H27693  12.091   9.495   8.005  0.5253  2.1672 -2.5691
  201MOL0     H27694  12.165   9.717   8.078 -0.1941 -1.4301  1.0771
  201MOL0     H27695  12.334   9.674   8.058  0.2622 -1.4786 -0.8829
  201MOL0     H27696  12.285   9.909   8.035 -0.3774 -0.5177 -0.5756
  201MOL0     H27697  12.478  10.190   8.021  1.2944  0.0608 -2.2615
  201MOL0     H27698  12.322  10.126   8.096 -3.6475  0.0965 -4.0872
  201MOL0     H27699  12.313  10.239   7.976 -2.0586 -0.0742  3.0714
  201MOL0     H27700  12.365  10.344   7.360  0.9109 -0.1348 -1.4056
  201MOL0     H27701  12.497  10.493   7.224  0.1578 -1.5887 -0.3975
  201MOL0     H27702  12.704  10.523   7.081  0.0215 -0.8451 -0.2908
  201MOL0     H27703  12.633  10.668   7.148  0.6326  0.4386  2.4223
  201MOL0     H27704  12.883  10.737   7.164 -1.5795  0.6250  0.1715
  201MOL0     H27705  12.924  10.601   7.081  1.3075  1.4099  1.5387
  201MOL0     H27706  12.730  10.799   6.954 -0.2023 -1.7317 -1.2209
  201MOL0     H27707  12.799  10.646   6.887  5.1905 -1.4289 -0.7333
  201MOL0     H27708  13.009  10.747   6.857 -0.6780 -0.9628 -0.3441
  201MOL0     H27709  12.984  10.887   6.958  0.9922  1.1338 -3.0596
  201MOL0     H27710  12.810  10.844   6.712  0.5155  0.8631 -1.8118
  201MOL0     H27711  12.815  10.980   6.831  0.5084  0.4750  0.5613
  201MOL0     H27712  13.042  10.889   6.634 -0.8580 -0.5065 -0.7747
  201MOL0     H27713  13.063  11.013   6.753  0.5936  0.1165 -0.8137
  201MOL0     H27714  13.008  11.152   6.603  0.4031  0.1036  0.5092
  201MOL0     H27715  12.841  11.113   6.653  1.7904  0.0993  1.6827
  201MOL0     H27716  12.856  11.128   6.416  1.6722  0.0054  1.6605
  201MOL0     H27717  12.799  10.973   6.464 -1.2717  1.3802 -1.5421
  201MOL0     H27718  12.846  10.400   7.465  1.7467 -5.2822 -0.9485
  201MOL0     H27719  12.690  10.235   7.607 -0.5953 -2.0476 -1.0714
  201MOL0     H27720  12.416   9.948   7.566 -3.3925 -1.1727 -0.7482
  201MOL0     H27721  12.335   9.764   7.635  3.0949 -0.0809  1.1278
  201MOL0     H27722  10.982   9.520   8.859  1.7149 -0.9710 -0.9792
  201MOL0     H27723  10.792   9.465   8.712  0.9948 -0.8381 -0.4869
  201MOL0     H27724  10.518   9.761   8.185 -0.0265 -0.0086  0.7141
  201MOL0     H27725  10.374   9.664   8.033  0.8510  2.5452  1.7284
  201MOL0     H27726  10.273   9.390   7.793  0.0230  1.0062 -0.6803
  201MOL0     H27727  10.365   9.533   7.852  1.1504 -0.7171 -2.1878
  201MOL0     H27728  10.558   9.362   7.895  0.6187 -1.6433  0.3889
  201MOL0     H27729  10.486   9.354   7.734 -2.4562  1.8169 -0.6156
  201MOL0     H27730  10.442   9.194   7.996 -1.2769 -0.4034  1.1664
  201MOL0     H27731  10.336   9.162   7.852 -0.7788  2.4767  1.1648
  201MOL0     H27732  10.519   8.997   7.901  0.6700  1.2032  4.0608
  201MOL0     H27733  10.633   9.133   7.859 -0.0244  2.4122 -4.1226
  201MOL0     H27734  10.529   9.044   7.475  2.4067 -2.0905 -0.5719
  201MOL0     H27735  10.419   9.285   8.207 -1.1991 -0.0303 -1.4870
  201MOL0     H27736  10.659   9.291   8.404  0.1863  0.0162 -0.4699
  201MOL0     H27737  10.580   9.392   8.514 -1.3985  0.1554 -0.0297
  201MOL0     H27738  10.493   9.268   8.423  1.7615 -1.5984 -2.5845
  202MOL0     O27739   3.232   4.559  11.377 -0.3464 -0.3078  0.4532
  202MOL0     C27740   3.151   4.629  11.317 -0.2577  0.0489 -1.1660
  202MOL0     O27741   3.180   4.718  11.214  0.8273  0.0794 -0.4805
  202MOL0     C27742   3.304   4.708  11.161  0.0495 -1.2685  0.7323
  202MOL0     C27743   3.336   4.608  11.072 -0.9745 -1.5919  0.0907
  202MOL0     C27744   3.467   4.622  11.004 -0.3048 -0.6789  0.3813
  202MOL0     C27745   3.549   4.733  11.019 -0.5921 -0.5616  0.4695
  202MOL0     O27746   3.674   4.732  10.967 -0.4642  0.9753 -0.1108
  202MOL0     C27747   3.755   4.851  10.977 -0.1567 -0.4069 -0.3745
  202MOL0     C27748   3.870   4.837  10.886  0.0736  0.6302  0.3371
  202MOL0     C27749   3.960   4.733  10.936  0.3756  0.0357  0.2818
  202MOL0     C27750   4.093   4.723  10.872  0.0226 -0.5230  0.6508
  202MOL0     C27751   4.208   4.662  10.948  0.4328  0.3037  0.8836
  202MOL0     C27752   4.326   4.670  10.846  0.2142  0.0731 -0.0050
  202MOL0     C27753   4.449   4.598  10.904  0.1704 -0.3744  0.5136
  202MOL0     C27754   4.568   4.598  10.816 -0.1760  0.4441 -0.7853
  202MOL0     N27755   4.618   4.739  10.810  0.8385  0.0172 -1.1815
  202MOL0     C27756   4.673   4.802  10.913  0.7789 -0.5622  0.7986
  202MOL0     C27757   4.740   4.912  10.858 -0.2402  0.2349 -0.7937
  202MOL0     C27758   4.832   5.007  10.926  0.6636 -0.1300 -0.3099
  202MOL0     C27759   4.977   4.971  10.891 -0.8931 -0.6381 -0.4735
  202MOL0     C27760   5.081   5.045  10.979 -0.1296 -0.4459  0.3225
  202MOL0     C27761   5.078   5.010  11.128  0.4722 -0.1984 -0.5244
  202MOL0     O27762   5.169   5.101  11.200  0.0115  0.5785 -0.2920
  202MOL0     C27763   5.305   5.063  11.203  0.7590 -0.7498  0.7039
  202MOL0     C27764   5.389   5.169  11.236 -0.2373  0.1995  0.0373
  202MOL0     C27765   5.527   5.149  11.251 -0.0401 -0.3460  0.5593
  202MOL0     C27766   5.597   5.264  11.310 -0.3550  0.4781  0.3911
  202MOL0     C27767   5.588   5.023  11.216  0.3601  0.1556  0.2417
  202MOL0     C27768   5.731   4.993  11.236  0.9132  0.1418 -0.6825
  202MOL0     O27769   5.757   4.854  11.241 -0.4686 -0.1452 -0.9406
  202MOL0     C27770   5.887   4.818  11.260  0.0523  0.2398 -0.0003
  202MOL0     C27771   5.992   4.865  11.185  0.6758 -0.2491 -0.8533
  202MOL0     C27772   6.122   4.814  11.195 -0.0778  1.3018 -0.0142
  202MOL0     C27773   6.148   4.708  11.280 -0.2661 -0.7152 -0.5191
  202MOL0     O27774   6.272   4.639  11.273 -0.3949 -0.6457  0.0217
  202MOL0     C27775   6.285   4.497  11.265 -0.4513  0.7342 -0.6677
  202MOL0     C27776   6.421   4.456  11.315  0.7903  0.3953 -0.1658
  202MOL0     C27777   6.439   4.302  11.338  0.3734  0.0625  0.6274
  202MOL0     C27778   6.557   4.248  11.255 -0.7627 -0.0165  0.4403
  202MOL0     C27779   6.693   4.317  11.299  0.6581 -0.7098 -0.0282
  202MOL0     C27780   6.813   4.219  11.279  0.0651  0.4963  0.2855
  202MOL0     C27781   6.843   4.176  11.127  0.3854 -0.2964 -0.0235
  202MOL0     C27782   6.924   4.044  11.122  0.8641 -0.1901  0.1419
  202MOL0    Cl27783   7.051   4.050  11.247 -0.1333  0.4336 -0.3832
  202MOL0     C27784   6.044   4.668  11.366 -0.4480  0.4497 -0.4768
  202MOL0     C27785   5.917   4.719  11.358 -0.1896  0.4578  0.3994
  202MOL0     O27786   5.816   5.081  11.232  0.3914 -0.3498 -0.1933
  202MOL0     C27787   5.496   4.914  11.172 -0.1145 -0.3836 -0.4832
  202MOL0     C27788   5.361   4.939  11.154  0.5988 -0.8250  0.3306
  202MOL0     N27789   4.706   4.923  10.729  0.2394  0.1503 -0.2153
  202MOL0     N27790   4.633   4.825  10.709  0.6085  0.1575 -0.0452
  202MOL0     C27791   3.503   4.830  11.105 -0.0031  0.2398  0.4604
  202MOL0     C27792   3.380   4.823  11.170 -0.2542  0.3580  0.6004
  202MOL0     C27793   3.009   4.610  11.367 -0.7064 -0.6514  0.2693
  202MOL0     C27794   2.978   4.485  11.427 -0.4139 -0.0618  0.4229
  202MOL0     C27795   2.848   4.462  11.465 -0.7990 -0.0856 -0.4595
  202MOL0     C27796   2.741   4.544  11.444  1.0605  0.7955 -0.3068
  202MOL0     O27797   2.610   4.518  11.489 -0.0903  0.6064  0.3665
  202MOL0     C27798   2.516   4.538  11.375  0.0112  0.7236 -0.7754
  202MOL0     C27799   2.448   4.401  11.344 -0.3277  0.6852 -0.0806
  202MOL0     C27800   2.333   4.416  11.247 -0.1100  0.0649  0.0115
  202MOL0     C27801   2.254   4.291  11.207  0.3499  0.4207 -0.0986
  202MOL0     C27802   2.129   4.330  11.137 -1.3029  0.3567 -0.1120
  202MOL0     C27803   2.023   4.360  11.095  0.2361 -0.5741 -0.0140
  202MOL0     C27804   2.776   4.672  11.399 -0.1742 -0.2678  0.2394
  202MOL0     C27805   2.906   4.700  11.353 -0.2913 -0.5266 -0.6839
  202MOL0     C27806   2.934   4.843  11.312 -0.2579  0.2332 -0.1456
  202MOL0     H27807   3.272   4.524  11.047  1.8363 -3.1068 -2.9940
  202MOL0     H27808   3.504   4.539  10.945  0.5187 -0.1569  0.1345
  202MOL0     H27809   3.789   4.871  11.079  0.6291 -1.3620 -0.4329
  202MOL0     H27810   3.690   4.932  10.943 -1.8708 -1.4279  0.3482
  202MOL0     H27811   3.831   4.807  10.788 -0.3947 -0.4120  0.8325
  202MOL0     H27812   3.929   4.929  10.890 -2.3980  2.5412 -2.4372
  202MOL0     H27813   3.980   4.761  11.040 -1.3610  0.0637  0.6354
  202MOL0     H27814   3.900   4.641  10.931  2.4737 -1.3182 -1.6218
  202MOL0     H27815   4.072   4.673  10.777  1.8031 -0.6828  0.3161
  202MOL0     H27816   4.121   4.825  10.846 -2.7120 -0.1401 -1.1957
  202MOL0     H27817   4.180   4.560  10.974 -0.7430  0.5158  0.5059
  202MOL0     H27818   4.231   4.718  11.039 -1.0448  0.8530  0.9414
  202MOL0     H27819   4.294   4.630  10.750 -0.3007  1.4011 -0.4038
  202MOL0     H27820   4.357   4.774  10.832  0.9983  0.1053  1.6963
  202MOL0     H27821   4.434   4.492  10.925  0.3511 -0.9692 -2.0245
  202MOL0     H27822   4.469   4.645  11.001 -0.2252  1.8374 -0.4248
  202MOL0     H27823   4.651   4.537  10.856 -0.6615 -3.5663 -4.9720
  202MOL0     H27824   4.549   4.555  10.717 -0.6558 -2.8840  0.5910
  202MOL0     H27825   4.683   4.769  11.016  0.4370  2.2353  1.8101
  202MOL0     H27826   4.816   4.999  11.034  3.0220  0.2196  0.1217
  202MOL0     H27827   4.818   5.112  10.898 -0.3197  0.2139  1.3367
  202MOL0     H27828   4.996   4.864  10.904  1.5528 -0.1583  0.4058
  202MOL0     H27829   4.997   5.006  10.790  3.7001 -0.2274  0.3677
  202MOL0     H27830   5.183   5.032  10.942 -0.5301 -0.3398 -0.8524
  202MOL0     H27831   5.075   5.152  10.960  1.1150 -0.4171  0.0455
  202MOL0     H27832   4.977   5.030  11.165 -1.2525 -3.8658 -2.6541
  202MOL0     H27833   5.110   4.909  11.155  2.1141  0.3706 -0.2334
  202MOL0     H27834   5.351   5.265  11.271 -0.6962 -0.7342  2.2632
  202MOL0     H27835   5.658   5.317  11.237 -0.5242  2.1053  1.3882
  202MOL0     H27836   5.662   5.228  11.390  0.3274 -2.5244 -1.3536
  202MOL0     H27837   5.529   5.340  11.351 -3.7204 -2.2525  0.3342
  202MOL0     H27838   5.979   4.921  11.093  0.5134 -2.7456 -2.4334
  202MOL0     H27839   6.203   4.844  11.129 -0.2829 -0.4877 -1.1568
  202MOL0     H27840   6.206   4.445  11.321  0.4715  0.6662  0.6114
  202MOL0     H27841   6.274   4.479  11.158  1.0025  1.2128 -0.9163
  202MOL0     H27842   6.483   4.485  11.229  0.0622  2.0236 -0.1845
  202MOL0     H27843   6.442   4.513  11.406  2.6450  0.8692 -0.8533
  202MOL0     H27844   6.352   4.238  11.326 -0.3688  1.0535  0.6422
  202MOL0     H27845   6.457   4.290  11.445 -0.4521  2.1865  1.0494
  202MOL0     H27846   6.542   4.247  11.146 -1.7696 -2.1948  0.5360
  202MOL0     H27847   6.559   4.140  11.274  0.1213 -0.8233 -3.3535
  202MOL0     H27848   6.707   4.409  11.243  0.2085 -1.4894 -1.4817
  202MOL0     H27849   6.691   4.349  11.403  1.2386 -0.3226 -0.1293
  202MOL0     H27850   6.779   4.128  11.330 -0.3210 -1.0784 -2.5306
  202MOL0     H27851   6.908   4.256  11.318  0.2500 -1.3095  1.6924
  202MOL0     H27852   6.908   4.247  11.077  1.0504 -0.6006  0.3961
  202MOL0     H27853   6.752   4.158  11.069 -0.1477 -3.7586  1.6045
  202MOL0     H27854   6.972   4.023  11.027 -2.0266  1.3450 -1.8149
  202MOL0     H27855   6.867   3.952  11.137 -0.7260  0.5525 -1.0222
  202MOL0     H27856   6.049   4.590  11.440 -2.6324  0.1130 -0.6185
  202MOL0     H27857   5.834   4.693  11.422 -0.0843 -1.0722 -0.0454
  202MOL0     H27858   5.544   4.821  11.142  1.2608 -0.9932  3.1142
  202MOL0     H27859   5.298   4.857  11.122 -1.8108  2.3047 -3.9628
  202MOL0     H27860   3.570   4.913  11.126  0.9709 -0.2249 -0.6772
  202MOL0     H27861   3.357   4.909  11.232  2.3669  0.9792  0.8211
  202MOL0     H27862   3.064   4.422  11.451  1.8222  0.9579 -3.7629
  202MOL0     H27863   2.829   4.372  11.522 -0.0123 -0.4923 -0.8220
  202MOL0     H27864   2.449   4.611  11.421  2.1492  3.7061 -2.0277
  202MOL0     H27865   2.547   4.600  11.291  0.9624 -2.0768 -2.6260
  202MOL0     H27866   2.400   4.347  11.426  0.3121 -0.4085 -0.4051
  202MOL0     H27867   2.513   4.328  11.295 -1.5392 -1.0757  0.8138
  202MOL0     H27868   2.267   4.496  11.281 -0.9267 -0.6563  0.1504
  202MOL0     H27869   2.377   4.445  11.151  1.8927 -3.7233 -0.3911
  202MOL0     H27870   2.228   4.228  11.292 -0.0692  0.8327  0.0786
  202MOL0     H27871   2.318   4.238  11.136 -1.2372 -2.0386  0.2042
  202MOL0     H27872   1.927   4.400  11.070  1.5320  0.8554 -3.2731
  202MOL0     H27873   2.705   4.754  11.386  1.2103  0.7395 -1.5460
  202MOL0     H27874   2.852   4.912  11.334 -1.6885 -0.0801 -3.7614
  202MOL0     H27875   3.022   4.885  11.361  0.0607 -1.7817  1.1371
  202MOL0     H27876   2.945   4.852  11.204 -2.7161  1.5007 -0.3438
  203MOL0     O27877  10.972   6.232   2.344 -0.4216  0.1849  0.1985
  203MOL0     C27878  11.016   6.203   2.236  0.0774  0.1787  0.1332
  203MOL0     O27879  11.141   6.167   2.209 -0.6379  0.1447  0.6218
  203MOL0     C27880  11.238   6.208   2.289 -0.1306 -0.6792 -0.6307
  203MOL0     C27881  11.347   6.291   2.238 -1.1070  0.0994 -0.3950
  203MOL0     C27882  11.452   6.317   2.329 -0.0255 -0.7695  0.3309
  203MOL0     C27883  11.471   6.255   2.453 -0.1474  0.4834  0.0157
  203MOL0     O27884  11.577   6.276   2.540 -0.0006  0.3122  0.1488
  203MOL0     C27885  11.707   6.249   2.492  0.0569  0.9879 -0.5073
  203MOL0     C27886  11.799   6.366   2.507  0.3475  0.8241  1.0069
  203MOL0     C27887  11.882   6.399   2.381  0.8488 -0.5584 -0.1560
  203MOL0     C27888  12.016   6.465   2.415  0.3274 -0.2129 -0.0639
  203MOL0     C27889  12.090   6.540   2.295 -0.0772  0.3696 -0.3122
  203MOL0     C27890  12.070   6.691   2.286  0.3599 -0.4561 -0.6274
  203MOL0     C27891  12.090   6.758   2.423  0.4236  0.5096 -0.1558
  203MOL0     C27892  12.072   6.915   2.423  0.2126  0.8590  0.1079
  203MOL0     N27893  12.044   6.954   2.558  0.0347 -0.1124 -0.1636
  203MOL0     C27894  11.947   7.041   2.603 -0.4571  0.0907 -0.3282
  203MOL0     C27895  11.969   7.053   2.731 -0.0183  1.1968 -1.0421
  203MOL0     C27896  11.895   7.150   2.805  0.3916  0.0526  0.3627
  203MOL0     C27897  11.929   7.301   2.766 -0.0399 -0.3298  1.5159
  203MOL0     C27898  11.820   7.375   2.691 -0.3236  0.3034  0.2946
  203MOL0     C27899  11.847   7.516   2.651  0.8842 -1.0907  0.3389
  203MOL0     O27900  11.811   7.616   2.754 -0.8589  0.5523  0.2444
  203MOL0     C27901  11.685   7.654   2.791  0.8277  0.5379 -1.5055
  203MOL0     C27902  11.668   7.717   2.920 -0.0283 -0.5685  0.0264
  203MOL0     C27903  11.539   7.779   2.943  0.3620 -0.6476 -0.5557
  203MOL0     C27904  11.517   7.831   3.085  0.0099  0.3809 -0.1306
  203MOL0     C27905  11.435   7.780   2.844 -1.2391  0.1683  0.2586
  203MOL0     C27906  11.305   7.847   2.863 -1.0975 -0.5278  0.8950
  203MOL0     O27907  11.240   7.847   2.751 -0.5923  0.5547 -0.4815
  203MOL0     C27908  11.105   7.876   2.751 -1.5030  0.3137 -0.5563
  203MOL0     C27909  11.029   7.773   2.716  0.0239 -0.0302 -0.1344
  203MOL0     C27910  10.889   7.806   2.696 -0.2309  0.7629 -0.9346
  203MOL0     C27911  10.830   7.939   2.704 -0.8017 -0.8557 -0.4903
  203MOL0     O27912  10.700   7.973   2.685  0.4991 -0.0607  0.2783
  203MOL0     C27913  10.623   7.891   2.599 -0.0023 -0.4915 -0.1261
  203MOL0     C27914  10.497   7.973   2.567  0.1431  0.4821 -0.3843
  203MOL0     C27915  10.526   8.119   2.515 -0.5206 -0.4880 -0.0423
  203MOL0     C27916  10.411   8.172   2.436  1.5163  0.4973  0.9608
  203MOL0     C27917  10.428   8.326   2.403 -0.0563  0.6332  0.2434
  203MOL0     C27918  10.318   8.395   2.315 -0.2374  0.0010 -0.3482
  203MOL0     C27919  10.182   8.401   2.377  0.7621 -0.6793 -0.3064
  203MOL0     C27920  10.100   8.510   2.299  0.0674 -0.1351 -0.4836
  203MOL0    Cl27921  10.074   8.450   2.132  0.3447 -0.1072 -0.5676
  203MOL0     C27922  10.922   8.040   2.754 -0.2720  0.2351 -0.6250
  203MOL0     C27923  11.066   8.006   2.774  1.4283 -0.2714  0.1032
  203MOL0     O27924  11.266   7.890   2.969 -0.3225 -0.0161 -0.2985
  203MOL0     C27925  11.452   7.696   2.734  0.0607 -1.2582  0.5851
  203MOL0     C27926  11.574   7.630   2.710  1.1603  0.5211 -0.2235
  203MOL0     N27927  12.083   6.994   2.765  0.0697 -0.0264 -0.6911
  203MOL0     N27928  12.129   6.931   2.658  0.3919 -0.0754  0.7028
  203MOL0     C27929  11.365   6.174   2.490  0.0363  0.9718 -0.3388
  203MOL0     C27930  11.256   6.140   2.414 -0.1142 -0.1063  0.8521
  203MOL0     C27931  10.907   6.192   2.126  1.1435  0.2117 -0.0599
  203MOL0     C27932  10.781   6.258   2.146  0.4712  0.2621 -0.2874
  203MOL0     C27933  10.676   6.256   2.058  0.4709  0.1078 -0.7524
  203MOL0     C27934  10.687   6.177   1.944  0.8110  0.0714  0.1480
  203MOL0     O27935  10.565   6.171   1.877  0.5092 -0.0559  0.2824
  203MOL0     C27936  10.565   6.108   1.746  0.1771  0.9398 -1.2485
  203MOL0     C27937  10.548   5.945   1.753  0.6943  0.3186  0.5582
  203MOL0     C27938  10.417   5.910   1.813  0.0481  0.4096 -0.3755
  203MOL0     C27939  10.424   5.909   1.963  0.3230 -0.2667 -1.3381
  203MOL0     C27940  10.332   5.815   2.025 -0.0765  0.6653 -0.0732
  203MOL0     C27941  10.260   5.740   2.082  0.3033  0.9262 -0.6936
  203MOL0     C27942  10.811   6.116   1.914  0.3244 -0.1685 -0.2670
  203MOL0     C27943  10.916   6.122   2.002  0.0056  1.1511  0.1027
  203MOL0     C27944  11.037   6.027   1.974 -0.6080  0.0101 -0.0502
  203MOL0     H27945  11.331   6.350   2.148 -1.7307 -0.0614 -0.3970
  203MOL0     H27946  11.531   6.384   2.297 -0.9655 -0.5946 -1.8332
  203MOL0     H27947  11.708   6.197   2.395  2.5677  1.4260 -0.7889
  203MOL0     H27948  11.750   6.171   2.555  0.0211 -0.0317 -1.6971
  203MOL0     H27949  11.742   6.459   2.520  1.6260  1.4257  2.6028
  203MOL0     H27950  11.870   6.357   2.590  0.1248  1.4749  1.2791
  203MOL0     H27951  11.913   6.308   2.329  3.2898 -0.5216  1.1185
  203MOL0     H27952  11.827   6.474   2.323  0.5690 -0.7696 -0.1663
  203MOL0     H27953  11.987   6.528   2.499  1.1784 -0.8937  0.7693
  203MOL0     H27954  12.086   6.397   2.465  0.3734 -1.2925 -1.5395
  203MOL0     H27955  12.058   6.496   2.200  0.4381  2.3696 -1.4628
  203MOL0     H27956  12.194   6.508   2.309 -0.4139 -0.3199  0.7453
  203MOL0     H27957  12.126   6.744   2.209  0.3044  1.4746  0.5811
  203MOL0     H27958  11.968   6.724   2.264  1.1684  0.1982 -3.8115
  203MOL0     H27959  12.189   6.727   2.458  0.1158  1.1542  1.3842
  203MOL0     H27960  12.023   6.722   2.502  1.6414 -0.2437  0.5620
  203MOL0     H27961  12.169   6.953   2.389 -0.0393  0.1820 -1.4412
  203MOL0     H27962  12.000   6.939   2.345  0.6042 -1.3885 -1.0053
  203MOL0     H27963  11.875   7.097   2.544 -1.4405 -0.1474  0.6027
  203MOL0     H27964  11.932   7.132   2.907  1.2929  1.4308  0.3018
  203MOL0     H27965  11.787   7.136   2.794 -0.1216  3.8672 -0.7558
  203MOL0     H27966  11.960   7.348   2.860  1.2812  1.4020  0.2961
  203MOL0     H27967  12.016   7.297   2.699 -0.0992 -0.3586  1.4413
  203MOL0     H27968  11.809   7.324   2.594 -1.3369  1.6860 -0.3434
  203MOL0     H27969  11.724   7.365   2.743 -0.8762 -0.8046 -0.8659
  203MOL0     H27970  11.955   7.524   2.633  0.6015 -0.7851 -1.3931
  203MOL0     H27971  11.800   7.539   2.555  0.8031  1.0791  0.8549
  203MOL0     H27972  11.750   7.714   2.990 -2.4752 -3.6738  3.1754
  203MOL0     H27973  11.487   7.936   3.085 -1.0467  0.1080 -1.4120
  203MOL0     H27974  11.614   7.824   3.137 -0.8337 -1.2601  1.3445
  203MOL0     H27975  11.448   7.771   3.145  0.2446  2.9857  3.0440
  203MOL0     H27976  11.068   7.675   2.690  1.5456  0.0920  1.4859
  203MOL0     H27977  10.825   7.731   2.651 -0.5784  0.6631 -0.2921
  203MOL0     H27978  10.671   7.879   2.501  0.5085  0.1860  0.0314
  203MOL0     H27979  10.602   7.794   2.644 -3.1414  0.6913  1.2914
  203MOL0     H27980  10.433   7.919   2.497  0.5811 -0.3410 -0.1615
  203MOL0     H27981  10.434   7.989   2.655  1.2626 -3.3800  1.3096
  203MOL0     H27982  10.615   8.119   2.452 -0.3729  0.1719  0.1543
  203MOL0     H27983  10.553   8.181   2.601  1.4593  1.8043 -2.1447
  203MOL0     H27984  10.323   8.155   2.499  1.5171  1.8103  1.3597
  203MOL0     H27985  10.402   8.110   2.346  0.8377  1.3736  0.3958
  203MOL0     H27986  10.443   8.380   2.497  1.2068  0.8208 -0.0374
  203MOL0     H27987  10.524   8.341   2.353 -0.8867  2.1668 -0.9409
  203MOL0     H27988  10.314   8.357   2.212  1.9271  0.3312 -0.6067
  203MOL0     H27989  10.345   8.501   2.312  2.0185 -0.4006  1.7832
  203MOL0     H27990  10.187   8.434   2.481 -0.8667 -2.2094  0.3078
  203MOL0     H27991  10.134   8.304   2.361  1.4878 -1.1073  0.0470
  203MOL0     H27992  10.144   8.611   2.298 -0.7559  0.2270 -1.1009
  203MOL0     H27993  10.001   8.518   2.344 -0.3954  0.3195 -1.5447
  203MOL0     H27994  10.881   8.140   2.760 -2.5404 -0.6621  0.0260
  203MOL0     H27995  11.136   8.081   2.808  2.8422 -1.7774  0.6334
  203MOL0     H27996  11.391   7.685   2.645  1.8210  1.6191 -1.1563
  203MOL0     H27997  11.578   7.576   2.617  2.3567  0.3695 -0.0947
  203MOL0     H27998  11.375   6.132   2.589 -1.3374  1.4359  0.0202
  203MOL0     H27999  11.179   6.065   2.435 -0.3089  0.2700  1.4973
  203MOL0     H28000  10.767   6.307   2.242  1.3925  0.3257 -0.1736
  203MOL0     H28001  10.583   6.311   2.065 -0.5893 -1.7983  3.3684
  203MOL0     H28002  10.484   6.162   1.696 -0.8241  3.6788  2.7860
  203MOL0     H28003  10.653   6.131   1.685  1.4377 -1.1991 -0.3427
  203MOL0     H28004  10.631   5.891   1.799 -0.3779 -4.0163 -2.0502
  203MOL0     H28005  10.552   5.917   1.647  1.4798 -0.0423  0.6757
  203MOL0     H28006  10.340   5.982   1.784 -1.1257 -0.4651  0.4756
  203MOL0     H28007  10.397   5.811   1.770  2.7327 -0.2669 -0.2417
  203MOL0     H28008  10.396   6.007   2.001  3.8776  1.2865 -2.2623
  203MOL0     H28009  10.523   5.891   2.006 -0.2785  0.8755  0.6531
  203MOL0     H28010  10.205   5.665   2.136  3.0616  1.2221  2.9370
  203MOL0     H28011  10.822   6.060   1.822  0.9201 -0.0695 -0.2551
  203MOL0     H28012  11.008   5.981   1.879 -1.4567 -0.8027  0.5863
  203MOL0     H28013  11.126   6.088   1.960 -1.4825  2.0251  2.3542
  203MOL0     H28014  11.055   5.953   2.052 -1.4106  1.1529  1.2680
  204MOL0     O28015   9.327   7.279   5.255 -0.0232 -0.0353 -0.0931
  204MOL0     C28016   9.212   7.315   5.229 -0.5429 -0.1489  0.2891
  204MOL0     O28017   9.102   7.233   5.210  0.5406  0.1085  0.2012
  204MOL0     C28018   9.124   7.097   5.193  0.0773  0.1656 -0.0386
  204MOL0     C28019   9.046   7.028   5.100 -0.4328  0.0205 -0.1904
  204MOL0     C28020   9.054   6.885   5.089  0.2081  0.1127 -0.5098
  204MOL0     C28021   9.147   6.822   5.170 -0.1872  1.3126 -0.2619
  204MOL0     O28022   9.147   6.679   5.174 -0.2400 -0.8443  0.4624
  204MOL0     C28023   9.247   6.610   5.256 -0.0788  0.8189  0.2081
  204MOL0     C28024   9.251   6.465   5.223  0.1942 -0.0349 -0.0432
  204MOL0     C28025   9.336   6.401   5.315 -0.3653 -1.0907  0.4300
  204MOL0     C28026   9.315   6.255   5.303  0.5597  1.3912 -0.3746
  204MOL0     C28027   9.337   6.181   5.429 -0.7107 -1.0955 -0.3146
  204MOL0     C28028   9.322   6.028   5.406 -0.5439 -0.1599 -0.5056
  204MOL0     C28029   9.316   5.953   5.542 -0.1436  0.8042  0.6856
  204MOL0     C28030   9.327   5.795   5.534  0.2339 -0.2183  0.0403
  204MOL0     N28031   9.448   5.746   5.471 -0.6839 -0.0825 -0.3805
  204MOL0     C28032   9.452   5.708   5.344 -0.3530 -0.4368  0.2602
  204MOL0     C28033   9.564   5.638   5.331 -0.1257 -0.9160  0.2398
  204MOL0     C28034   9.614   5.571   5.208  0.4428 -0.4461 -1.0087
  204MOL0     C28035   9.710   5.676   5.139  0.4477  0.0350 -0.4736
  204MOL0     C28036   9.642   5.782   5.044 -0.7736  0.1184  0.1161
  204MOL0     C28037   9.574   5.734   4.927 -0.4523 -0.4887 -0.5911
  204MOL0     O28038   9.543   5.838   4.832 -0.0241 -1.0304 -0.7419
  204MOL0     C28039   9.443   5.931   4.851  0.4355 -0.0987 -0.2705
  204MOL0     C28040   9.454   6.043   4.776 -0.4047  0.0522 -0.5650
  204MOL0     C28041   9.357   6.146   4.782  0.7747 -0.5164  0.8254
  204MOL0     C28042   9.392   6.274   4.703  0.0348  0.4049  0.6122
  204MOL0     C28043   9.241   6.135   4.871  0.4642  0.5599  0.2589
  204MOL0     C28044   9.137   6.233   4.885 -1.0048  0.4785 -0.1364
  204MOL0     O28045   9.033   6.186   4.963 -0.2798 -0.2500 -0.2756
  204MOL0     C28046   8.934   6.270   4.991 -0.0425  0.1503  1.2027
  204MOL0     C28047   8.811   6.214   4.959 -0.3292 -0.4548 -0.4726
  204MOL0     C28048   8.697   6.286   4.965 -0.4213 -0.8032 -0.2701
  204MOL0     C28049   8.700   6.430   5.004  1.1850 -0.0907 -0.8897
  204MOL0     O28050   8.586   6.508   5.000  0.5047  0.3647 -0.6080
  204MOL0     C28051   8.469   6.457   4.931 -0.0005 -0.4391 -0.0074
  204MOL0     C28052   8.347   6.540   4.965 -0.3491  0.7080  1.7607
  204MOL0     C28053   8.231   6.460   4.897  0.7042 -1.0484 -0.0122
  204MOL0     C28054   8.085   6.508   4.927  0.5258 -0.8851 -0.3918
  204MOL0     C28055   7.993   6.408   4.857 -0.6094  0.4720 -0.0472
  204MOL0     C28056   7.876   6.493   4.805 -0.0341  0.3304  0.6508
  204MOL0     C28057   7.774   6.409   4.719  0.1899  0.4831 -0.2573
  204MOL0     C28058   7.709   6.288   4.809 -0.0024 -0.4454  0.0845
  204MOL0    Cl28059   7.652   6.330   4.978  0.4542  0.3617 -0.3970
  204MOL0     C28060   8.827   6.483   5.044  0.0801  0.8859  0.3686
  204MOL0     C28061   8.939   6.411   5.020 -0.2687  0.2689  0.6296
  204MOL0     O28062   9.141   6.347   4.841 -0.6701  0.2447  0.2553
  204MOL0     C28063   9.234   6.016   4.946 -0.1652 -0.7488 -0.4202
  204MOL0     C28064   9.328   5.913   4.935  0.1096  0.3209 -0.4879
  204MOL0     N28065   9.637   5.647   5.445 -0.3913  0.0276 -0.4070
  204MOL0     N28066   9.574   5.719   5.526 -0.5790  0.0652 -0.3623
  204MOL0     C28067   9.220   6.886   5.264 -0.6144 -0.5678  0.8461
  204MOL0     C28068   9.209   7.019   5.279  0.6256  0.3844 -0.1025
  204MOL0     C28069   9.193   7.464   5.216  0.5525  1.0250 -0.4325
  204MOL0     C28070   9.065   7.508   5.224  0.7995  0.1947 -0.2305
  204MOL0     C28071   9.033   7.643   5.216 -0.0798 -0.1232 -0.3302
  204MOL0     C28072   9.134   7.727   5.170  0.2573  0.2246  0.5131
  204MOL0     O28073   9.119   7.858   5.134  0.2886 -0.2059  0.2485
  204MOL0     C28074   9.011   7.936   5.195 -0.2573 -0.0184 -0.1591
  204MOL0     C28075   8.979   8.050   5.100 -0.1537 -0.4607 -0.0958
  204MOL0     C28076   8.869   8.149   5.142  0.0933 -0.9713 -0.2080
  204MOL0     C28077   8.827   8.227   5.021  0.1838  0.4080  0.1337
  204MOL0     C28078   8.925   8.321   4.957 -0.1918 -0.1895 -0.2738
  204MOL0     C28079   9.016   8.378   4.898 -0.5060  0.4847 -0.2427
  204MOL0     C28080   9.255   7.675   5.148  0.1162  0.0395 -0.1122
  204MOL0     C28081   9.295   7.546   5.180  0.0840 -0.5722  1.1120
  204MOL0     C28082   9.438   7.506   5.147 -0.3804 -0.0495  0.0254
  204MOL0     H28083   8.965   7.079   5.050 -0.6645 -0.9599 -0.8453
  204MOL0     H28084   8.996   6.831   5.015  0.7697 -0.9140 -0.2136
  204MOL0     H28085   9.220   6.616   5.362  2.3498 -4.6341  1.5026
  204MOL0     H28086   9.349   6.650   5.246  1.0394 -1.6620  0.7730
  204MOL0     H28087   9.147   6.431   5.224 -0.0073  0.5590 -0.6218
  204MOL0     H28088   9.287   6.463   5.120 -2.7574  0.4881 -1.1926
  204MOL0     H28089   9.434   6.433   5.279 -0.8619  1.3151  1.0356
  204MOL0     H28090   9.319   6.437   5.417 -3.7416 -0.3331 -0.2881
  204MOL0     H28091   9.211   6.236   5.276  1.2163 -0.2000 -2.0355
  204MOL0     H28092   9.375   6.209   5.224  2.5310  0.3243  1.6378
  204MOL0     H28093   9.273   6.213   5.511  0.0394 -0.1608 -0.0726
  204MOL0     H28094   9.436   6.211   5.466 -1.3822  0.3543  0.3694
  204MOL0     H28095   9.236   6.000   5.344  0.3751 -1.4624 -1.2317
  204MOL0     H28096   9.404   5.993   5.343 -0.2263 -2.4781  1.0939
  204MOL0     H28097   9.217   5.973   5.583 -0.2269 -0.6972  1.2892
  204MOL0     H28098   9.395   5.983   5.612 -0.2404  0.0853  1.1212
  204MOL0     H28099   9.313   5.752   5.634 -2.0665 -1.1257 -0.6032
  204MOL0     H28100   9.239   5.766   5.477  1.3085 -0.2651 -1.6746
  204MOL0     H28101   9.377   5.713   5.266 -2.4684  0.5909  2.2240
  204MOL0     H28102   9.531   5.550   5.139  0.9466  0.3260 -1.8619
  204MOL0     H28103   9.666   5.477   5.228 -0.4845 -0.7936 -0.1372
  204MOL0     H28104   9.778   5.724   5.210 -1.0392 -0.6577  1.5048
  204MOL0     H28105   9.783   5.619   5.080  1.5912  1.7915 -0.8285
  204MOL0     H28106   9.567   5.838   5.100 -0.4275 -0.2564  0.9655
  204MOL0     H28107   9.722   5.853   5.019 -0.0178 -0.9852 -0.7242
  204MOL0     H28108   9.639   5.658   4.883 -0.1482  1.2521 -3.4387
  204MOL0     H28109   9.488   5.671   4.948  0.6898 -1.3664  1.8174
  204MOL0     H28110   9.538   6.051   4.708 -0.5460  1.1084 -0.6318
  204MOL0     H28111   9.406   6.352   4.779 -0.9577  2.0018 -0.7874
  204MOL0     H28112   9.308   6.308   4.642 -0.3544 -0.0341  0.8907
  204MOL0     H28113   9.482   6.253   4.645  0.2581  0.3957  0.9561
  204MOL0     H28114   8.825   6.106   4.949  2.9393 -0.1283 -0.7940
  204MOL0     H28115   8.606   6.235   4.936 -2.3723  1.0567  2.1463
  204MOL0     H28116   8.499   6.446   4.826 -1.1280 -0.5483 -0.3259
  204MOL0     H28117   8.436   6.369   4.986 -2.2490  0.0465 -0.4762
  204MOL0     H28118   8.335   6.548   5.074  1.0445  3.4123  1.7874
  204MOL0     H28119   8.357   6.643   4.929 -0.5107 -0.1742 -1.0594
  204MOL0     H28120   8.234   6.356   4.928 -0.4503 -0.7944  1.0419
  204MOL0     H28121   8.242   6.455   4.789  0.8679 -0.1521 -0.0504
  204MOL0     H28122   8.065   6.612   4.901  0.8980 -0.5323  0.6775
  204MOL0     H28123   8.076   6.497   5.035 -1.3934 -0.3717 -0.4545
  204MOL0     H28124   8.045   6.351   4.779 -5.2294 -0.6766 -2.6682
  204MOL0     H28125   7.969   6.330   4.929  0.2240 -0.0871 -0.3679
  204MOL0     H28126   7.913   6.565   4.732 -0.2369  0.3836  0.5987
  204MOL0     H28127   7.839   6.546   4.893  1.6674  1.3916  0.7693
  204MOL0     H28128   7.811   6.365   4.627  0.8415 -1.8820  1.0512
  204MOL0     H28129   7.697   6.482   4.691 -0.4110 -0.3375 -0.7815
  204MOL0     H28130   7.787   6.212   4.824  0.2861 -0.3393 -0.8540
  204MOL0     H28131   7.631   6.234   4.756  0.9039 -0.4346 -1.3022
  204MOL0     H28132   8.823   6.589   5.067 -3.0292  1.3618 -1.7478
  204MOL0     H28133   9.034   6.462   5.035  1.0158 -1.7354 -0.3349
  204MOL0     H28134   9.163   5.989   5.024 -2.4316 -2.8868 -3.0058
  204MOL0     H28135   9.307   5.822   4.990 -0.6544  1.1602  0.6533
  204MOL0     H28136   9.279   6.843   5.344  1.1559  2.7959  1.5354
  204MOL0     H28137   9.254   7.065   5.366 -0.5126  0.1688  0.6158
  204MOL0     H28138   8.981   7.444   5.250  0.5011  0.2200 -1.0648
  204MOL0     H28139   8.931   7.674   5.233 -0.5553 -1.0769 -1.3144
  204MOL0     H28140   8.916   7.885   5.212  0.0749 -1.1117 -1.3899
  204MOL0     H28141   9.052   7.970   5.291  1.8714 -2.4916 -0.0861
  204MOL0     H28142   8.956   8.003   5.004  0.4662 -1.9594  0.4610
  204MOL0     H28143   9.065   8.117   5.094 -1.9361  2.0937  1.2753
  204MOL0     H28144   8.786   8.086   5.175 -0.2836 -1.0109 -1.2040
  204MOL0     H28145   8.906   8.215   5.222  0.0277 -3.3077  1.8792
  204MOL0     H28146   8.742   8.288   5.052 -0.4667 -1.0997  1.4721
  204MOL0     H28147   8.792   8.152   4.949 -0.6717  0.3835  0.5556
  204MOL0     H28148   9.101   8.403   4.838  0.8415 -3.4720 -0.2799
  204MOL0     H28149   9.323   7.751   5.110  1.5437 -0.2642  1.6868
  204MOL0     H28150   9.496   7.482   5.236 -0.1668 -2.2412 -0.6487
  204MOL0     H28151   9.435   7.410   5.095 -0.0891  0.8360 -1.7139
  204MOL0     H28152   9.485   7.578   5.079 -2.7665  1.4519 -0.1578
  205MOL0     O28153   5.265  10.053   6.976  0.0667 -0.6183 -0.9791
  205MOL0     C28154   5.324   9.952   6.992  0.6695 -0.3768 -0.3301
  205MOL0     O28155   5.459   9.941   6.971 -0.3581  0.1671 -0.0576
  205MOL0     C28156   5.546  10.050   6.987  0.0505 -0.5734  0.6406
  205MOL0     C28157   5.522  10.188   7.006  0.2181 -0.1525 -0.2481
  205MOL0     C28158   5.626  10.278   7.042 -0.6587  0.3604 -0.3332
  205MOL0     C28159   5.755  10.236   7.064 -0.1045 -1.3530  0.5066
  205MOL0     O28160   5.843  10.339   7.096  0.1570  0.1651  0.2601
  205MOL0     C28161   5.981  10.304   7.143  0.0373  0.3087 -0.8893
  205MOL0     C28162   5.976  10.213   7.269  0.1719  0.1276  0.2274
  205MOL0     C28163   6.115  10.179   7.304  0.9167 -0.1663  0.9499
  205MOL0     C28164   6.142  10.071   7.404  0.8912  0.1968  0.1827
  205MOL0     C28165   6.285  10.086   7.467 -0.6318 -1.1378 -0.1546
  205MOL0     C28166   6.310   9.988   7.578  0.5426 -0.2222 -0.0521
  205MOL0     C28167   6.447   9.997   7.645 -0.1279  0.3623 -0.0078
  205MOL0     C28168   6.497  10.141   7.663  0.1032  0.1158 -0.0114
  205MOL0     N28169   6.609  10.164   7.749 -0.8989 -0.5935 -0.5532
  205MOL0     C28170   6.625  10.115   7.873 -0.0591  0.0123  0.6302
  205MOL0     C28171   6.724  10.180   7.936 -0.3028 -1.5310 -0.4488
  205MOL0     C28172   6.758  10.166   8.078  0.3948 -0.0591  0.0379
  205MOL0     C28173   6.884  10.083   8.085  0.3994  0.7023 -0.2835
  205MOL0     C28174   6.953  10.107   8.227  0.5624 -0.3788 -0.0734
  205MOL0     C28175   7.062  10.012   8.264 -0.6716  0.2107  0.3126
  205MOL0     O28176   7.142   9.997   8.148  0.1041  1.1329  0.9995
  205MOL0     C28177   7.218   9.880   8.147  0.3929 -0.1136 -0.3732
  205MOL0     C28178   7.236   9.795   8.250 -0.7116  0.2039 -0.7704
  205MOL0     C28179   7.317   9.687   8.231  0.3357 -0.0768 -0.4380
  205MOL0     C28180   7.328   9.601   8.360  0.3490  0.2177  0.2535
  205MOL0     C28181   7.393   9.665   8.109 -0.4929 -0.1953 -1.2043
  205MOL0     C28182   7.510   9.571   8.096 -1.1266 -0.1435 -0.1872
  205MOL0     O28183   7.548   9.549   7.969 -0.1027 -0.3496  0.0336
  205MOL0     C28184   7.660   9.474   7.939 -0.6002 -0.5757  0.1669
  205MOL0     C28185   7.768   9.537   7.887  0.0644  0.3623  0.2339
  205MOL0     C28186   7.889   9.476   7.865  0.4984  0.1792  0.2540
  205MOL0     C28187   7.896   9.339   7.884  0.3927  0.5569  0.2317
  205MOL0     O28188   8.012   9.261   7.877  0.0798 -0.7258 -0.4837
  205MOL0     C28189   8.030   9.192   7.753 -0.0054  0.2400  0.7600
  205MOL0     C28190   8.136   9.081   7.759  0.5351  0.0773  0.1213
  205MOL0     C28191   8.102   8.979   7.879 -1.0195  0.0158 -0.6027
  205MOL0     C28192   8.190   8.862   7.843  1.1822  0.0701  0.0601
  205MOL0     C28193   8.218   8.759   7.958  0.3744  0.0300 -0.0286
  205MOL0     C28194   8.241   8.611   7.906 -0.4622 -0.5553 -0.4678
  205MOL0     C28195   8.366   8.610   7.809  0.6243  0.4700  0.1056
  205MOL0     C28196   8.415   8.461   7.800  0.3288  0.1542  0.2152
  205MOL0    Cl28197   8.563   8.484   7.713 -0.4853 -0.0283 -0.0108
  205MOL0     C28198   7.784   9.272   7.937 -0.7843  0.2699 -0.3807
  205MOL0     C28199   7.669   9.341   7.968  0.2891  0.5153 -0.8598
  205MOL0     O28200   7.565   9.525   8.197  0.8671  0.4987 -0.3432
  205MOL0     C28201   7.368   9.752   8.009 -0.6301  0.4137  0.1021
  205MOL0     C28202   7.280   9.859   8.029  0.2706 -0.4680  0.8112
  205MOL0     N28203   6.772  10.273   7.841  0.2513  0.0889 -0.2899
  205MOL0     N28204   6.709  10.255   7.730  0.2275  0.9588  0.5817
  205MOL0     C28205   5.782  10.107   7.035 -0.3647  0.2675 -0.5716
  205MOL0     C28206   5.684  10.015   7.003  0.4818 -0.1933  0.1758
  205MOL0     C28207   5.243   9.832   7.027  0.7003 -0.1536 -0.1195
  205MOL0     C28208   5.306   9.702   7.018 -0.0240  1.1036  0.0717
  205MOL0     C28209   5.233   9.584   7.047 -0.7649 -0.7798  0.2267
  205MOL0     C28210   5.101   9.587   7.086 -0.2141  0.1252 -0.6512
  205MOL0     O28211   5.024   9.483   7.116  0.1985  0.4391 -0.4969
  205MOL0     C28212   5.081   9.357   7.158 -0.3444  0.7655  0.8036
  205MOL0     C28213   4.972   9.276   7.235 -0.2003  0.2133 -0.1856
  205MOL0     C28214   4.868   9.199   7.151 -0.3459 -0.0057 -0.0170
  205MOL0     C28215   4.759   9.113   7.230  0.2267  0.2497 -0.3283
  205MOL0     C28216   4.727   9.186   7.357 -1.0392 -0.0690 -0.8515
  205MOL0     C28217   4.692   9.259   7.448  0.1581  0.3430  0.5048
  205MOL0     C28218   5.039   9.713   7.099 -1.1387 -0.1178  0.0946
  205MOL0     C28219   5.101   9.833   7.055  0.0485  0.4663 -0.4866
  205MOL0     C28220   5.018   9.960   7.077 -0.2078  0.4984  0.4538
  205MOL0     H28221   5.422  10.227   6.988  1.2122  2.1625 -1.1502
  205MOL0     H28222   5.606  10.384   7.054 -1.4678  0.1173  0.5916
  205MOL0     H28223   6.040  10.390   7.174 -0.5730 -0.4132  2.7419
  205MOL0     H28224   6.033  10.258   7.058 -2.3793  0.7619 -2.7405
  205MOL0     H28225   5.924  10.263   7.351  0.1945  0.1585  0.2228
  205MOL0     H28226   5.920  10.121   7.249  1.5377 -0.5449 -0.6599
  205MOL0     H28227   6.168  10.147   7.213  0.1106  2.7874 -0.7076
  205MOL0     H28228   6.163  10.273   7.334  4.1254  0.4473 -4.6149
  205MOL0     H28229   6.055  10.073   7.469 -0.4482 -2.1237 -1.4267
  205MOL0     H28230   6.133   9.973   7.357  0.3776 -0.5570  1.7910
  205MOL0     H28231   6.292  10.188   7.508  2.1671 -1.5589  0.6226
  205MOL0     H28232   6.366  10.068   7.396 -1.0852 -1.3104 -0.6390
  205MOL0     H28233   6.228  10.001   7.649  1.4721 -1.0379  1.2260
  205MOL0     H28234   6.302   9.891   7.528 -1.4998  1.4166 -3.2656
  205MOL0     H28235   6.526   9.941   7.595  0.8879  1.4905  0.2748
  205MOL0     H28236   6.442   9.958   7.747  1.2447  1.7959  0.6690
  205MOL0     H28237   6.507  10.203   7.574 -0.8210  0.2928 -0.0013
  205MOL0     H28238   6.424  10.193   7.725  0.4695  0.2525  0.3163
  205MOL0     H28239   6.563  10.039   7.920 -0.7509 -0.4393 -0.9382
  205MOL0     H28240   6.675  10.127   8.139  1.3565  0.6844  1.9085
  205MOL0     H28241   6.774  10.265   8.122  1.1932  0.2827 -0.9947
  205MOL0     H28242   6.870   9.979   8.055  2.0190  1.2667 -3.4227
  205MOL0     H28243   6.956  10.108   8.007 -1.1311  0.3472 -1.8735
  205MOL0     H28244   6.987  10.211   8.226 -2.6240  0.7701 -1.2863
  205MOL0     H28245   6.885  10.099   8.312  1.2617 -2.5001  0.3581
  205MOL0     H28246   7.115  10.048   8.353 -0.1641  0.3733 -0.0496
  205MOL0     H28247   7.019   9.916   8.293  1.6572 -1.5761 -1.8059
  205MOL0     H28248   7.187   9.794   8.347 -1.6230  0.1919 -1.2256
  205MOL0     H28249   7.232   9.565   8.397 -1.0576  1.1505 -2.2739
  205MOL0     H28250   7.382   9.656   8.438  1.8192 -2.0869  0.9513
  205MOL0     H28251   7.383   9.508   8.344  2.0028  1.1635  0.2300
  205MOL0     H28252   7.775   9.645   7.884 -0.0399  0.4117  1.5557
  205MOL0     H28253   7.968   9.543   7.833 -0.0433  1.7365  1.9956
  205MOL0     H28254   7.935   9.152   7.717 -0.0676 -0.2049  1.4185
  205MOL0     H28255   8.063   9.263   7.676  0.3199  1.0825  1.6560
  205MOL0     H28256   8.140   9.025   7.665 -0.6663 -1.9910  1.2119
  205MOL0     H28257   8.230   9.135   7.773  0.1397  0.9078 -0.3589
  205MOL0     H28258   7.996   8.950   7.879 -1.0368  0.0649  0.2973
  205MOL0     H28259   8.117   9.018   7.979 -2.8709  0.5900 -0.5043
  205MOL0     H28260   8.289   8.887   7.803  2.2975 -2.2817  1.1074
  205MOL0     H28261   8.126   8.813   7.769 -3.0108  1.3544  2.4684
  205MOL0     H28262   8.303   8.797   8.015 -0.1355 -0.0616  0.8126
  205MOL0     H28263   8.130   8.764   8.023  1.6670 -1.1009  1.9218
  205MOL0     H28264   8.153   8.584   7.847  0.2743  0.7406 -2.2391
  205MOL0     H28265   8.262   8.551   7.995  0.2708  0.6922  0.2253
  205MOL0     H28266   8.441   8.675   7.855 -0.3344  0.2675  2.0732
  205MOL0     H28267   8.347   8.649   7.709  2.2933 -4.1926 -2.2967
  205MOL0     H28268   8.355   8.394   7.739  1.5933 -0.4181 -0.4426
  205MOL0     H28269   8.422   8.430   7.905 -2.4511  0.4199  0.5545
  205MOL0     H28270   7.784   9.166   7.958 -0.7288 -0.1766 -2.4167
  205MOL0     H28271   7.583   9.291   8.012  1.7440 -1.7636 -0.4394
  205MOL0     H28272   7.422   9.746   7.915 -0.8542 -3.4251  0.0881
  205MOL0     H28273   7.251   9.922   7.946  0.3428 -2.4163 -0.7649
  205MOL0     H28274   5.885  10.074   7.045 -0.1151  0.9046 -0.9990
  205MOL0     H28275   5.701   9.910   6.984 -1.1274 -0.3390 -0.6391
  205MOL0     H28276   5.403   9.699   6.970 -0.1080 -1.1930 -0.0555
  205MOL0     H28277   5.284   9.490   7.026 -2.3957 -1.2176 -2.2296
  205MOL0     H28278   5.115   9.296   7.075 -2.2954 -3.0172  2.5391
  205MOL0     H28279   5.168   9.371   7.224  0.7540  2.1643 -0.8467
  205MOL0     H28280   4.923   9.352   7.297  1.8924  1.3440  0.1611
  205MOL0     H28281   5.029   9.213   7.303 -0.1604  1.3993  0.9304
  205MOL0     H28282   4.817   9.279   7.097 -0.6720 -0.2657 -0.0998
  205MOL0     H28283   4.923   9.129   7.087 -3.9159 -0.7511 -2.6005
  205MOL0     H28284   4.779   9.005   7.234 -2.4271 -0.3159 -0.3122
  205MOL0     H28285   4.663   9.115   7.178 -0.3417  1.0853  0.7040
  205MOL0     H28286   4.650   9.324   7.522  0.3963 -1.1636  2.0440
  205MOL0     H28287   4.935   9.727   7.128 -1.5602  2.3255 -2.2922
  205MOL0     H28288   4.921   9.938   7.121 -0.4158  3.0997  1.4801
  205MOL0     H28289   5.071  10.031   7.142  3.5333 -0.1469 -1.5991
  205MOL0     H28290   5.007   9.994   6.974  0.5138 -2.8803 -0.8885
  206MOL0     O28291   2.203   9.744   7.906  0.7171  0.6192 -0.0071
  206MOL0     C28292   2.269   9.643   7.917  0.0268  0.8029  1.2975
  206MOL0     O28293   2.387   9.629   7.858 -0.0495 -0.6027 -0.2123
  206MOL0     C28294   2.434   9.729   7.769 -0.0224  0.8602  0.2259
  206MOL0     C28295   2.368   9.769   7.648  0.6117 -0.4769  0.0431
  206MOL0     C28296   2.423   9.864   7.571  0.6106 -0.9473 -0.4469
  206MOL0     C28297   2.533   9.936   7.606 -0.9021 -0.2877 -0.2765
  206MOL0     O28298   2.588  10.035   7.525 -0.3976 -0.2674  0.4660
  206MOL0     C28299   2.640  10.153   7.579 -0.6913  0.4639 -0.2138
  206MOL0     C28300   2.717  10.240   7.474 -0.6647 -1.0190 -0.3951
  206MOL0     C28301   2.806  10.350   7.548  0.1819 -0.0393  1.6201
  206MOL0     C28302   2.720  10.456   7.615 -0.2557  0.0593  0.5630
  206MOL0     C28303   2.800  10.575   7.678  1.1146 -0.3085  0.1224
  206MOL0     C28304   2.924  10.533   7.760  0.1494  1.2803  0.1535
  206MOL0     C28305   2.965  10.618   7.876 -0.1163  0.0924 -0.0007
  206MOL0     C28306   3.085  10.707   7.873  0.4085 -0.6861 -0.0450
  206MOL0     N28307   3.203  10.637   7.867 -0.6069  0.1477 -0.8231
  206MOL0     C28308   3.255  10.584   7.981  0.7562 -0.3875  0.2396
  206MOL0     C28309   3.380  10.544   7.944  0.5666  0.4058 -0.2200
  206MOL0     C28310   3.474  10.492   8.041 -0.3107  0.2889  0.1007
  206MOL0     C28311   3.501  10.593   8.158  0.5818 -0.2910 -0.1476
  206MOL0     C28312   3.591  10.521   8.267 -0.3194 -0.3999  0.9654
  206MOL0     C28313   3.526  10.429   8.362  0.3384  0.2488 -0.1643
  206MOL0     O28314   3.609  10.305   8.398  0.3676  0.0055  0.4617
  206MOL0     C28315   3.693  10.309   8.504 -0.3475 -0.3698 -0.1470
  206MOL0     C28316   3.796  10.209   8.518  0.1692  0.4265 -0.5408
  206MOL0     C28317   3.893  10.216   8.620 -0.1589  0.5781  0.1356
  206MOL0     C28318   3.991  10.102   8.627 -0.2536  0.0245 -0.2651
  206MOL0     C28319   3.891  10.325   8.721  0.9369 -0.1614  0.4147
  206MOL0     C28320   3.978  10.327   8.845  0.1024  0.5745  0.8148
  206MOL0     O28321   3.937  10.403   8.945 -0.0354 -0.6656  0.3643
  206MOL0     C28322   3.985  10.386   9.070  0.5399 -0.4970 -1.4009
  206MOL0     C28323   4.028  10.506   9.124  0.3040  0.0366  0.1961
  206MOL0     C28324   4.089  10.513   9.251 -0.6780  0.1045 -0.4218
  206MOL0     C28325   4.115  10.387   9.322  0.2915 -0.0338 -0.2288
  206MOL0     O28326   4.164  10.402   9.448  0.4478 -0.5017  0.2792
  206MOL0     C28327   4.244  10.297   9.504  0.0019 -0.0853 -0.3035
  206MOL0     C28328   4.377  10.293   9.413  0.7302 -0.0412 -0.5582
  206MOL0     C28329   4.475  10.196   9.473  0.3214  0.2114 -0.2467
  206MOL0     C28330   4.574  10.143   9.370  0.1023  0.1082  0.5573
  206MOL0     C28331   4.656  10.249   9.305  0.7685  0.7510  0.4798
  206MOL0     C28332   4.794  10.205   9.250  0.4784 -0.5940 -0.3169
  206MOL0     C28333   4.882  10.333   9.224 -0.1687 -0.1976  0.0664
  206MOL0     C28334   5.018  10.293   9.155  0.1492  0.6168 -0.0507
  206MOL0    Cl28335   5.002  10.260   8.982  0.1160  0.0481 -0.2187
  206MOL0     C28336   4.062  10.268   9.273  0.2941  1.0408 -0.6421
  206MOL0     C28337   4.001  10.271   9.145 -0.8599 -0.8644 -0.3350
  206MOL0     O28338   4.076  10.251   8.853  0.3727  0.5371  0.2681
  206MOL0     C28339   3.788  10.417   8.700  0.6352  0.5100  0.1176
  206MOL0     C28340   3.688  10.412   8.597 -0.4980  0.0079  0.1833
  206MOL0     N28341   3.399  10.572   7.811 -0.1348  0.2678 -1.3100
  206MOL0     N28342   3.290  10.628   7.769  0.2559  0.2529 -0.0836
  206MOL0     C28343   2.597   9.900   7.723 -0.7346 -0.2113 -0.7073
  206MOL0     C28344   2.555   9.787   7.798 -0.0519 -0.7350 -0.6814
  206MOL0     C28345   2.213   9.515   7.980 -0.2093 -0.6416 -0.1398
  206MOL0     C28346   2.296   9.403   7.980 -0.4892  0.9732 -0.8679
  206MOL0     C28347   2.253   9.286   8.038 -0.8733  0.5607 -0.4265
  206MOL0     C28348   2.130   9.284   8.106 -0.3458  0.5452 -0.0997
  206MOL0     O28349   2.099   9.166   8.173 -0.2042 -0.0428 -0.3326
  206MOL0     C28350   2.187   9.127   8.287  0.2234 -0.3490  0.9707
  206MOL0     C28351   2.136   9.182   8.408 -0.1649  0.0802 -0.5529
  206MOL0     C28352   1.982   9.156   8.432 -0.9651  0.1179  0.5092
  206MOL0     C28353   1.942   9.199   8.572  0.0337 -1.0111 -0.2622
  206MOL0     C28354   1.942   9.347   8.596  0.2972  0.9534  0.1370
  206MOL0     C28355   1.938   9.465   8.629 -0.3607 -0.1465 -0.1766
  206MOL0     C28356   2.047   9.386   8.107 -0.0069 -1.0161  0.0369
  206MOL0     C28357   2.084   9.507   8.048 -0.8515  0.4408  0.3730
  206MOL0     C28358   1.993   9.623   8.064  0.1272 -0.1463 -1.0049
  206MOL0     H28359   2.279   9.712   7.622  1.1670 -1.5572  0.4532
  206MOL0     H28360   2.356   9.895   7.492 -2.1456  1.9347  2.6806
  206MOL0     H28361   2.726  10.132   7.643 -2.2600 -2.1980  1.2209
  206MOL0     H28362   2.565  10.210   7.634 -0.0567  0.0803  1.0695
  206MOL0     H28363   2.773  10.178   7.403 -0.3640  1.9384 -2.9485
  206MOL0     H28364   2.636  10.281   7.414 -0.8383 -1.3745 -0.4041
  206MOL0     H28365   2.875  10.296   7.614 -0.1758 -1.3076  1.0006
  206MOL0     H28366   2.867  10.410   7.481 -1.0473 -1.6290 -1.1225
  206MOL0     H28367   2.652  10.501   7.542  1.2429  0.4506 -0.6595
  206MOL0     H28368   2.652  10.417   7.691 -2.8715  3.6339  0.3403
  206MOL0     H28369   2.730  10.626   7.746  3.3105  2.0234  0.7845
  206MOL0     H28370   2.829  10.649   7.603 -1.4526 -2.0095 -2.8060
  206MOL0     H28371   2.879  10.445   7.808  1.4917 -0.3957 -1.5358
  206MOL0     H28372   3.010  10.494   7.705 -1.6063 -4.0885  0.5986
  206MOL0     H28373   2.980  10.558   7.967  2.7433  0.8801  0.1566
  206MOL0     H28374   2.878  10.679   7.902 -0.9774 -1.3070  0.5317
  206MOL0     H28375   3.086  10.776   7.787 -1.2216 -1.4903 -0.7590
  206MOL0     H28376   3.077  10.753   7.972  0.3334 -0.6916 -0.0491
  206MOL0     H28377   3.212  10.561   8.077 -2.8692 -1.9206 -1.5795
  206MOL0     H28378   3.565  10.455   7.995 -1.9708 -1.7701 -1.7503
  206MOL0     H28379   3.440  10.394   8.077 -1.3537 -0.5223 -2.8159
  206MOL0     H28380   3.548  10.685   8.122 -1.7038  1.2072  0.4787
  206MOL0     H28381   3.407  10.612   8.210  0.2185  3.3468 -1.8435
  206MOL0     H28382   3.677  10.479   8.215 -1.6235 -3.3682  1.0074
  206MOL0     H28383   3.627  10.612   8.316 -2.7456  0.4722  1.3132
  206MOL0     H28384   3.484  10.478   8.451 -3.3084 -2.4915 -0.1530
  206MOL0     H28385   3.441  10.375   8.319 -0.3055  1.4503 -0.4499
  206MOL0     H28386   3.798  10.126   8.448 -1.7676  0.1606 -0.3292
  206MOL0     H28387   4.094  10.138   8.628  1.7268 -4.8867  0.6797
  206MOL0     H28388   3.993  10.037   8.538 -0.5005 -0.2201 -0.0955
  206MOL0     H28389   3.980  10.037   8.714 -0.0377  1.3692  0.7948
  206MOL0     H28390   4.009  10.590   9.057 -1.0663 -3.4001 -4.1461
  206MOL0     H28391   4.120  10.610   9.288  0.6008 -0.8275  1.0933
  206MOL0     H28392   4.275  10.320   9.606  0.7404 -4.3447  0.5908
  206MOL0     H28393   4.190  10.202   9.513  1.2320 -0.8443 -0.7047
  206MOL0     H28394   4.354  10.261   9.311  2.5554 -4.7231  0.2641
  206MOL0     H28395   4.430  10.389   9.415 -2.1589  1.6853  2.0020
  206MOL0     H28396   4.420  10.109   9.509 -0.0728 -0.3984 -2.1630
  206MOL0     H28397   4.526  10.228   9.564  2.1667 -3.2579  0.0985
  206MOL0     H28398   4.521  10.071   9.308 -0.4636  0.6342  0.4225
  206MOL0     H28399   4.647  10.081   9.422  0.1029 -1.0984 -0.8201
  206MOL0     H28400   4.599  10.303   9.229 -0.3089  0.6282  1.1732
  206MOL0     H28401   4.691  10.331   9.369  0.7647  0.3710  0.9762
  206MOL0     H28402   4.773  10.144   9.162 -2.0386 -0.9592  0.4484
  206MOL0     H28403   4.853  10.152   9.325  0.6352 -0.0664 -0.0611
  206MOL0     H28404   4.906  10.378   9.321 -3.6982  2.3414 -0.0714
  206MOL0     H28405   4.829  10.407   9.163 -2.5577 -0.5175  1.6497
  206MOL0     H28406   5.066  10.206   9.201  2.5325  1.1426 -1.3242
  206MOL0     H28407   5.095  10.370   9.174  0.3113  0.4591 -0.0658
  206MOL0     H28408   4.076  10.177   9.330  1.3756  0.5588 -1.6231
  206MOL0     H28409   3.969  10.176   9.104 -0.4976 -0.0746 -2.5922
  206MOL0     H28410   3.782  10.504   8.765  2.9493 -0.7080  2.1500
  206MOL0     H28411   3.633  10.505   8.585 -0.5135  0.1035  0.9207
  206MOL0     H28412   2.686   9.957   7.748 -3.3211  2.6788  3.0298
  206MOL0     H28413   2.616   9.741   7.875 -3.5836 -1.6366  1.8370
  206MOL0     H28414   2.387   9.397   7.920 -0.9980 -4.7930 -1.6233
  206MOL0     H28415   2.317   9.199   8.028  2.3649  2.9910 -2.6300
  206MOL0     H28416   2.182   9.020   8.309  2.0110 -0.5885  0.3456
  206MOL0     H28417   2.291   9.161   8.287  0.6925 -1.7382  0.9228
  206MOL0     H28418   2.159   9.289   8.412  0.6458 -0.0897 -0.5006
  206MOL0     H28419   2.198   9.135   8.485 -1.7369 -1.2702 -0.0423
  206MOL0     H28420   1.934   9.221   8.359  0.2418  1.4685  0.8531
  206MOL0     H28421   1.962   9.050   8.417 -2.1596  0.5095 -0.8380
  206MOL0     H28422   2.004   9.148   8.647 -0.3471 -0.8109  0.1882
  206MOL0     H28423   1.843   9.154   8.579 -0.0388 -1.2151 -2.0705
  206MOL0     H28424   1.917   9.568   8.651  0.6294  0.6875 -2.7827
  206MOL0     H28425   1.948   9.375   8.150 -0.0829 -1.1570 -0.1747
  206MOL0     H28426   1.903   9.594   8.119  1.3379 -0.2600  1.0177
  206MOL0     H28427   2.043   9.696   8.129 -1.5199 -2.1640  2.8379
  206MOL0     H28428   1.958   9.664   7.969 -1.0478  1.6695  0.1411
  207MOL0     O28429  10.626   8.414   5.165 -0.6665 -0.6017 -0.1952
  207MOL0     C28430  10.662   8.327   5.083 -0.0109  1.2855  0.2313
  207MOL0     O28431  10.648   8.188   5.107  0.9188 -1.0136  0.0161
  207MOL0     C28432  10.661   8.141   5.239 -1.7784  0.9182  0.8974
  207MOL0     C28433  10.618   8.010   5.265  0.2077  0.4148 -0.0699
  207MOL0     C28434  10.623   7.960   5.398 -0.0379 -0.3718  0.6893
  207MOL0     C28435  10.676   8.040   5.504  0.1358  0.5274  0.6428
  207MOL0     O28436  10.672   7.984   5.626 -0.1600  0.5747  0.8805
  207MOL0     C28437  10.767   8.008   5.735 -0.2840  0.4218  0.0565
  207MOL0     C28438  10.741   7.908   5.844 -0.3317  0.1994  0.5780
  207MOL0     C28439  10.623   7.931   5.938 -0.4918  0.0446  0.3144
  207MOL0     C28440  10.578   7.802   6.000 -0.3783  0.6985  0.5736
  207MOL0     C28441  10.459   7.820   6.095 -0.1310  1.4522 -0.6546
  207MOL0     C28442  10.327   7.779   6.021  0.2705 -0.2423  0.3976
  207MOL0     C28443  10.207   7.802   6.106 -0.3617  0.3454 -0.4120
  207MOL0     C28444  10.182   7.692   6.208  1.1201 -0.5944 -0.2996
  207MOL0     N28445  10.126   7.755   6.332  0.3409  0.0909 -0.0679
  207MOL0     C28446  10.024   7.834   6.336 -0.3804 -0.0157  1.0647
  207MOL0     C28447  10.017   7.874   6.462 -1.1237  0.1548  0.3818
  207MOL0     C28448   9.920   7.966   6.518  0.5648  0.9393 -0.1325
  207MOL0     C28449   9.776   7.931   6.474 -0.6292 -0.0999  0.8130
  207MOL0     C28450   9.739   7.777   6.481 -0.4158  0.5214 -0.6333
  207MOL0     C28451   9.585   7.759   6.460 -0.2890 -0.7559 -0.4481
  207MOL0     O28452   9.550   7.624   6.473  0.2626 -0.2435  0.8924
  207MOL0     C28453   9.428   7.616   6.540  0.0458  0.2045 -0.2500
  207MOL0     C28454   9.413   7.526   6.643  0.6794  0.0479  0.1507
  207MOL0     C28455   9.292   7.505   6.709 -0.1776  0.2412  0.6924
  207MOL0     C28456   9.292   7.395   6.814  1.0798  0.1144 -0.4336
  207MOL0     C28457   9.179   7.565   6.653 -0.1729 -0.5533  0.0347
  207MOL0     C28458   9.041   7.544   6.703  0.0442 -0.8122  0.3373
  207MOL0     O28459   8.956   7.654   6.675  0.3150  0.8486  0.3883
  207MOL0     C28460   8.837   7.646   6.743  0.2974 -0.5663  0.6142
  207MOL0     C28461   8.734   7.570   6.681 -0.4049 -0.9927 -0.2741
  207MOL0     C28462   8.599   7.589   6.715 -0.0336 -0.9392  0.4219
  207MOL0     C28463   8.565   7.672   6.829  0.1648 -0.6182  0.5300
  207MOL0     O28464   8.433   7.686   6.887 -0.1404  0.1286  1.1939
  207MOL0     C28465   8.347   7.581   6.863 -0.2339 -0.0881 -0.4972
  207MOL0     C28466   8.250   7.562   6.980 -0.3338  0.3890 -0.1774
  207MOL0     C28467   8.328   7.524   7.115  0.2020 -0.7132  1.3652
  207MOL0     C28468   8.227   7.495   7.219  0.3664  0.0947 -0.4056
  207MOL0     C28469   8.294   7.493   7.357 -0.5390 -0.1101  0.7483
  207MOL0     C28470   8.207   7.440   7.469  0.1803  0.6846 -0.1594
  207MOL0     C28471   8.194   7.286   7.470  0.2694  1.4881  0.3575
  207MOL0     C28472   8.179   7.231   7.611  1.1522  0.4245  0.1419
  207MOL0    Cl28473   8.020   7.280   7.690  0.4474 -0.4992 -0.0318
  207MOL0     C28474   8.670   7.742   6.890  0.4943  0.0353  0.2429
  207MOL0     C28475   8.805   7.736   6.842 -0.2602  0.8818 -0.4176
  207MOL0     O28476   9.009   7.445   6.764 -0.5730 -0.6549  0.4943
  207MOL0     C28477   9.189   7.655   6.546 -0.3524  0.4645  0.4079
  207MOL0     C28478   9.313   7.685   6.489 -0.1319  0.1400 -0.3285
  207MOL0     N28479  10.122   7.827   6.537  0.5551  0.1644  0.3436
  207MOL0     N28480  10.178   7.743   6.463  0.0023 -0.1041 -0.0135
  207MOL0     C28481  10.735   8.163   5.471 -0.6095 -0.7972  0.0266
  207MOL0     C28482  10.726   8.211   5.342  0.5355 -0.8878  0.2515
  207MOL0     C28483  10.686   8.358   4.944  1.0408 -0.2554 -0.7672
  207MOL0     C28484  10.808   8.318   4.900 -1.1118  0.2732 -0.1566
  207MOL0     C28485  10.861   8.367   4.776 -0.4962  0.4610 -0.0833
  207MOL0     C28486  10.784   8.451   4.697 -0.8130 -0.1313 -0.6806
  207MOL0     O28487  10.847   8.516   4.589 -0.3946 -0.5284 -0.3269
  207MOL0     C28488  10.778   8.509   4.462  0.6720 -0.2781  0.2592
  207MOL0     C28489  10.849   8.584   4.353  0.4539 -0.2894 -0.3717
  207MOL0     C28490  10.748   8.588   4.227 -0.4031 -0.2515  0.3409
  207MOL0     C28491  10.804   8.655   4.102 -0.2259 -0.8337 -1.0668
  207MOL0     C28492  10.868   8.784   4.126 -0.1036  0.6700  0.1465
  207MOL0     C28493  10.909   8.893   4.150  0.6336 -0.7463 -0.1653
  207MOL0     C28494  10.649   8.467   4.742  0.2311  0.4385 -0.3547
  207MOL0     C28495  10.595   8.429   4.868  0.5265 -0.7314 -0.5769
  207MOL0     C28496  10.461   8.488   4.908 -0.3914 -0.7621 -1.0890
  207MOL0     H28497  10.574   7.962   5.178 -1.7898  0.5109  0.8531
  207MOL0     H28498  10.581   7.861   5.414 -1.8426 -0.1946 -2.2430
  207MOL0     H28499  10.757   8.107   5.779  2.2273  0.0802  1.5832
  207MOL0     H28500  10.869   7.996   5.697  1.0172  2.3010  2.7097
  207MOL0     H28501  10.735   7.808   5.799  0.1486  0.5055 -0.1921
  207MOL0     H28502  10.831   7.915   5.906  0.2555  0.2965 -0.2583
  207MOL0     H28503  10.656   8.001   6.015 -0.1250  2.8030 -2.1999
  207MOL0     H28504  10.535   7.972   5.887  0.8849 -0.8699 -3.0489
  207MOL0     H28505  10.557   7.719   5.933 -0.1439 -0.4254  1.8413
  207MOL0     H28506  10.665   7.766   6.056  0.7396  1.9217 -0.3195
  207MOL0     H28507  10.445   7.923   6.131 -2.2415  1.7853 -2.2774
  207MOL0     H28508  10.481   7.767   6.189 -0.9263  2.9325  0.4208
  207MOL0     H28509  10.306   7.845   5.935  1.1128  0.9389  1.0734
  207MOL0     H28510  10.335   7.672   6.004 -0.0054  0.1359 -2.7648
  207MOL0     H28511  10.112   7.796   6.050 -0.9877 -1.1957  0.7358
  207MOL0     H28512  10.200   7.900   6.154 -0.4576 -0.5795  1.5669
  207MOL0     H28513  10.104   7.626   6.167 -1.0414  0.9136  1.1614
  207MOL0     H28514  10.264   7.628   6.241 -0.2087 -2.3127 -0.1405
  207MOL0     H28515   9.955   7.852   6.254  0.2185 -2.8537 -0.1439
  207MOL0     H28516   9.961   8.060   6.481  3.5715 -0.6501 -1.1529
  207MOL0     H28517   9.931   7.960   6.626 -1.2403 -0.8560  0.0269
  207MOL0     H28518   9.713   7.987   6.544 -0.1895  0.6017  0.6567
  207MOL0     H28519   9.759   7.954   6.368  1.3421 -2.9535 -0.2429
  207MOL0     H28520   9.787   7.719   6.401  1.2383  1.6013 -0.4760
  207MOL0     H28521   9.768   7.733   6.577  1.9870  2.5765 -0.3104
  207MOL0     H28522   9.543   7.822   6.539  1.3357  2.1392 -1.7642
  207MOL0     H28523   9.551   7.787   6.360 -1.6207 -0.0958  0.1556
  207MOL0     H28524   9.504   7.476   6.672  1.4247  1.8987  1.2017
  207MOL0     H28525   9.275   7.299   6.765  3.3568  0.6538 -2.4849
  207MOL0     H28526   9.236   7.412   6.906  0.6949 -1.6521 -0.2952
  207MOL0     H28527   9.397   7.380   6.841  1.6080 -2.7386 -3.4225
  207MOL0     H28528   8.759   7.495   6.606 -0.6492 -0.8753 -0.4769
  207MOL0     H28529   8.531   7.532   6.653 -0.9645  1.4418 -0.8556
  207MOL0     H28530   8.284   7.603   6.777  0.2769 -0.7061 -1.0404
  207MOL0     H28531   8.395   7.484   6.854 -1.7924 -1.2109  2.0876
  207MOL0     H28532   8.195   7.654   7.000  0.4125  0.4223  1.9853
  207MOL0     H28533   8.176   7.485   6.956  0.8966 -0.8843 -0.0289
  207MOL0     H28534   8.400   7.603   7.138  2.7266 -2.1058 -1.1869
  207MOL0     H28535   8.387   7.432   7.105 -1.0012 -1.4956  1.3036
  207MOL0     H28536   8.183   7.399   7.190  1.3447 -0.4245 -0.1914
  207MOL0     H28537   8.153   7.576   7.225 -0.4094 -0.7067  2.6025
  207MOL0     H28538   8.376   7.421   7.347 -0.9697 -0.4434 -0.5984
  207MOL0     H28539   8.325   7.596   7.375  4.1113 -0.9146 -1.3012
  207MOL0     H28540   8.111   7.491   7.470  0.1539  0.6640 -0.9917
  207MOL0     H28541   8.251   7.470   7.564 -0.7444  1.1070  0.1404
  207MOL0     H28542   8.284   7.240   7.431  0.1146 -0.7140  2.3607
  207MOL0     H28543   8.114   7.254   7.402  0.8011 -1.7665  1.0937
  207MOL0     H28544   8.262   7.257   7.677  0.8083  2.1827 -0.0726
  207MOL0     H28545   8.179   7.122   7.596  0.3851  0.1594  1.8116
  207MOL0     H28546   8.642   7.794   6.982  0.2418 -1.6450  1.1488
  207MOL0     H28547   8.886   7.799   6.878 -1.4914  2.6084 -0.5238
  207MOL0     H28548   9.100   7.699   6.502  0.3447  2.9893  1.3215
  207MOL0     H28549   9.326   7.759   6.410  1.1691  0.0212 -0.2300
  207MOL0     H28550  10.774   8.229   5.548 -0.4271 -2.0587  1.0385
  207MOL0     H28551  10.775   8.307   5.327  1.3495 -1.6781 -2.9021
  207MOL0     H28552  10.876   8.255   4.957 -1.0045 -0.0888 -0.6755
  207MOL0     H28553  10.962   8.346   4.743 -0.3937  0.4599  0.2366
  207MOL0     H28554  10.775   8.403   4.434  1.0521 -0.3373  0.4351
  207MOL0     H28555  10.676   8.548   4.468  1.1008  0.8455  0.5350
  207MOL0     H28556  10.943   8.534   4.325  1.5109  0.8405  0.9921
  207MOL0     H28557  10.878   8.685   4.383 -1.4620  0.1349  0.1590
  207MOL0     H28558  10.711   8.492   4.192  2.4913 -0.6735 -1.8644
  207MOL0     H28559  10.659   8.641   4.263  0.4235  1.4284  0.0037
  207MOL0     H28560  10.724   8.679   4.031 -1.1846 -0.3328  0.1379
  207MOL0     H28561  10.886   8.592   4.068  3.2418  0.5594  3.6259
  207MOL0     H28562  10.931   8.994   4.176  2.3756 -0.2451 -3.1620
  207MOL0     H28563  10.579   8.522   4.679 -2.1182  0.3060  1.9637
  207MOL0     H28564  10.402   8.412   4.960  1.4034 -1.6097 -0.2372
  207MOL0     H28565  10.491   8.572   4.972  0.3094 -0.6678 -1.5373
  207MOL0     H28566  10.405   8.529   4.823 -0.1592 -0.2026 -0.9796
  208MOL0     O28567   2.016   8.970   7.671 -0.5055 -0.6913  0.2452
  208MOL0     C28568   1.896   9.003   7.658  0.5223  0.5944 -0.1340
  208MOL0     O28569   1.803   8.979   7.764 -0.1772 -0.2842  0.0262
  208MOL0     C28570   1.850   8.907   7.872 -0.7110 -0.7244 -0.4126
  208MOL0     C28571   1.868   8.969   7.995 -1.0286  1.0048 -0.1480
  208MOL0     C28572   1.914   8.902   8.108 -0.5082 -0.6130 -0.3439
  208MOL0     C28573   1.926   8.759   8.105  0.4779 -0.5397  0.8278
  208MOL0     O28574   1.962   8.696   8.217 -0.0227 -0.7923  0.1847
  208MOL0     C28575   2.046   8.581   8.196  0.1147 -0.2432  0.2109
  208MOL0     C28576   2.200   8.619   8.210 -0.5858 -0.4622 -0.5436
  208MOL0     C28577   2.284   8.493   8.235  0.2346  0.7743  0.4193
  208MOL0     C28578   2.434   8.529   8.273 -0.2130 -0.0649  0.2027
  208MOL0     C28579   2.528   8.408   8.226  0.0413  0.6306 -0.4035
  208MOL0     C28580   2.673   8.444   8.264  0.0199 -0.3378 -0.0461
  208MOL0     C28581   2.776   8.326   8.264 -0.3930 -0.1387 -0.3296
  208MOL0     C28582   2.915   8.364   8.305 -0.6633 -0.6699 -0.4053
  208MOL0     N28583   2.991   8.238   8.325 -0.3449  0.3867  0.1233
  208MOL0     C28584   2.993   8.172   8.441 -0.3336 -0.4899  0.5867
  208MOL0     C28585   3.084   8.073   8.440 -0.0789 -0.6914  0.2242
  208MOL0     C28586   3.101   7.953   8.524 -0.2734  0.1571 -0.1851
  208MOL0     C28587   2.969   7.877   8.566  0.2836  0.0682  0.1701
  208MOL0     C28588   3.019   7.737   8.606 -0.2564 -0.0654  0.1201
  208MOL0     C28589   2.906   7.657   8.654 -0.7283 -0.1615  0.5851
  208MOL0     O28590   2.856   7.704   8.783 -0.5555  0.2754 -0.2582
  208MOL0     C28591   2.715   7.698   8.797 -0.0708 -0.2295 -0.8683
  208MOL0     C28592   2.638   7.584   8.781 -0.0715 -0.4667 -0.4713
  208MOL0     C28593   2.504   7.580   8.800  0.6811 -1.3144  0.3934
  208MOL0     C28594   2.432   7.454   8.773  0.3991  0.3434 -0.1911
  208MOL0     C28595   2.442   7.690   8.855  0.6647 -0.5540  0.4410
  208MOL0     C28596   2.297   7.696   8.881 -0.8300  0.1860  0.5433
  208MOL0     O28597   2.256   7.770   8.985 -0.1897  0.9219 -0.7060
  208MOL0     C28598   2.124   7.763   9.015  0.3397  0.6139 -0.7000
  208MOL0     C28599   2.061   7.868   9.093 -0.3220  0.0267  0.1570
  208MOL0     C28600   1.929   7.871   9.130 -0.4275 -1.0540 -0.5325
  208MOL0     C28601   1.847   7.767   9.091 -0.7450 -0.8188 -0.1949
  208MOL0     O28602   1.715   7.777   9.129 -0.3211 -0.7654  0.3415
  208MOL0     C28603   1.621   7.700   9.043 -0.7632 -0.4505  0.0648
  208MOL0     C28604   1.473   7.716   9.096  0.4199  0.9880  0.7117
  208MOL0     C28605   1.437   7.860   9.119  0.6457  0.1312  0.1747
  208MOL0     C28606   1.284   7.887   9.135  0.0607 -0.2204  0.7458
  208MOL0     C28607   1.250   8.031   9.176 -0.5626  0.1297 -0.2246
  208MOL0     C28608   1.103   8.082   9.147 -0.0668  0.3092 -0.8214
  208MOL0     C28609   1.070   8.188   9.236 -0.8785  0.2601  0.3328
  208MOL0     C28610   0.937   8.253   9.198 -0.9018 -0.3581  0.5544
  208MOL0    Cl28611   0.913   8.330   9.036  0.5262 -0.1481  0.2608
  208MOL0     C28612   1.904   7.656   9.032  0.0799  0.3817 -0.6825
  208MOL0     C28613   2.042   7.652   8.997  0.4615  0.1460 -0.1282
  208MOL0     O28614   2.231   7.655   8.781  0.2829 -0.2207  0.3313
  208MOL0     C28615   2.520   7.796   8.904 -0.5102 -0.0744  0.4784
  208MOL0     C28616   2.654   7.797   8.867 -0.3378 -0.1634 -0.1665
  208MOL0     N28617   3.151   8.099   8.316 -0.2162  1.2172  0.3564
  208MOL0     N28618   3.096   8.197   8.251 -0.1805  0.2029  0.8736
  208MOL0     C28619   1.896   8.692   7.981  0.0200  0.3995  0.0758
  208MOL0     C28620   1.867   8.768   7.862  0.0509  0.3096  0.7444
  208MOL0     C28621   1.850   9.048   7.525 -0.6124 -0.4800  0.1170
  208MOL0     C28622   1.944   9.120   7.446 -0.2301 -0.9534  0.3693
  208MOL0     C28623   1.903   9.191   7.332 -0.8299  0.2276  0.6911
  208MOL0     C28624   1.772   9.161   7.279 -0.0513 -0.2724 -1.3202
  208MOL0     O28625   1.740   9.231   7.167  0.2065 -0.1032 -0.1558
  208MOL0     C28626   1.744   9.153   7.052  0.4685 -0.1272  0.7363
  208MOL0     C28627   1.892   9.109   7.016  0.3326  0.5364  0.5739
  208MOL0     C28628   1.912   9.065   6.871 -1.0225  0.1134  0.0737
  208MOL0     C28629   2.064   9.012   6.839  0.9842 -0.4986  0.1145
  208MOL0     C28630   2.129   8.961   6.962 -0.3152 -0.2696  0.0823
  208MOL0     C28631   2.193   8.917   7.052 -0.2665  0.1031  0.8727
  208MOL0     C28632   1.686   9.075   7.356 -0.3276  0.4347  0.1943
  208MOL0     C28633   1.727   9.016   7.469 -0.2297  0.5296  0.2564
  208MOL0     C28634   1.626   8.933   7.532  0.3122  0.5431  0.3942
  208MOL0     H28635   1.852   9.076   8.001 -0.5282  1.2238 -1.9171
  208MOL0     H28636   1.927   8.959   8.199  0.9971  0.0281 -0.9271
  208MOL0     H28637   2.033   8.511   8.113 -1.2965  1.4616 -1.0892
  208MOL0     H28638   2.035   8.521   8.286 -0.0485 -1.2150 -0.4439
  208MOL0     H28639   2.228   8.669   8.117  2.3403  0.3659  0.6669
  208MOL0     H28640   2.207   8.693   8.291 -1.0220 -2.1298  1.0938
  208MOL0     H28641   2.240   8.432   8.314  0.1190 -2.1296 -1.7573
  208MOL0     H28642   2.280   8.421   8.154 -2.8802  0.2692  0.9195
  208MOL0     H28643   2.472   8.624   8.233 -1.1178  0.7063  1.1466
  208MOL0     H28644   2.443   8.540   8.381 -0.9709 -0.2084  0.2857
  208MOL0     H28645   2.524   8.408   8.116  1.5129  0.2726 -0.4818
  208MOL0     H28646   2.501   8.312   8.272  3.6920  0.3437  1.4748
  208MOL0     H28647   2.714   8.513   8.189 -2.2265  3.4908  1.9745
  208MOL0     H28648   2.667   8.493   8.362  0.4834 -3.3033  1.5792
  208MOL0     H28649   2.784   8.273   8.168 -1.6249 -0.0724 -0.4909
  208MOL0     H28650   2.733   8.259   8.339  2.3585  0.4889  1.9538
  208MOL0     H28651   2.964   8.427   8.230 -1.4759  0.9036  0.3362
  208MOL0     H28652   2.916   8.435   8.388 -3.1864  1.8532 -2.2927
  208MOL0     H28653   2.929   8.191   8.527  1.4889  1.2291  1.6493
  208MOL0     H28654   3.156   7.988   8.612 -3.4476  3.0110  0.8884
  208MOL0     H28655   3.168   7.886   8.470  0.9762  1.9203 -0.9267
  208MOL0     H28656   2.928   7.930   8.651 -1.1001 -2.0147  0.8691
  208MOL0     H28657   2.891   7.868   8.490 -0.3506 -3.2797  1.0724
  208MOL0     H28658   3.061   7.688   8.518 -4.6922 -0.5850 -2.0226
  208MOL0     H28659   3.090   7.754   8.687  0.1445  0.6821 -0.3743
  208MOL0     H28660   2.820   7.655   8.586 -0.4576  0.8727  0.1935
  208MOL0     H28661   2.949   7.557   8.660 -1.6711 -0.6630 -0.5871
  208MOL0     H28662   2.679   7.495   8.734 -0.4315 -0.7591 -0.2394
  208MOL0     H28663   2.482   7.366   8.816  0.1801  0.5711  0.5382
  208MOL0     H28664   2.414   7.439   8.666  0.3316 -1.7203  0.0521
  208MOL0     H28665   2.334   7.443   8.821  1.0164 -3.1289  0.5946
  208MOL0     H28666   2.115   7.961   9.111  0.4617 -0.6543  1.4755
  208MOL0     H28667   1.876   7.949   9.185  1.6732  0.7195 -0.8779
  208MOL0     H28668   1.627   7.741   8.941  2.8940  2.8856  1.3541
  208MOL0     H28669   1.631   7.591   9.041 -1.0201 -0.4711 -0.1481
  208MOL0     H28670   1.391   7.678   9.035 -0.1612  2.6718  0.3731
  208MOL0     H28671   1.469   7.658   9.189  2.0316 -4.4063 -2.1655
  208MOL0     H28672   1.476   7.930   9.045  0.2480 -0.0642 -0.2212
  208MOL0     H28673   1.494   7.880   9.211 -1.1291  1.6021  1.0273
  208MOL0     H28674   1.231   7.818   9.203 -1.7049  0.6072  0.2771
  208MOL0     H28675   1.255   7.871   9.031  2.5921 -3.7818  0.4087
  208MOL0     H28676   1.278   8.021   9.281  4.4577  0.5177 -1.2596
  208MOL0     H28677   1.308   8.100   9.115 -1.8290  0.8198 -0.6784
  208MOL0     H28678   1.034   8.001   9.171  3.7004 -2.4876  1.9894
  208MOL0     H28679   1.112   8.111   9.042  3.0303  1.6345 -0.3191
  208MOL0     H28680   1.145   8.267   9.230 -1.2808  0.8054  1.9179
  208MOL0     H28681   1.062   8.149   9.338  2.0414 -2.2187 -0.2619
  208MOL0     H28682   0.914   8.330   9.271 -0.2003  2.5830 -2.1047
  208MOL0     H28683   0.865   8.171   9.191 -2.4265  0.9484  0.2635
  208MOL0     H28684   1.848   7.563   9.024  3.2374 -2.0674  2.4297
  208MOL0     H28685   2.077   7.562   8.948  1.6351  0.9591 -0.8467
  208MOL0     H28686   2.487   7.869   8.977 -1.9478 -1.9132  1.7800
  208MOL0     H28687   2.709   7.884   8.902 -2.9604  0.7847  1.9705
  208MOL0     H28688   1.902   8.585   7.961  3.8204  0.6406 -0.7846
  208MOL0     H28689   1.850   8.715   7.769 -0.1157  1.5299  0.0651
  208MOL0     H28690   2.044   9.135   7.484 -0.8522 -0.3530  1.8198
  208MOL0     H28691   1.974   9.254   7.280  1.8345 -1.5939  1.8535
  208MOL0     H28692   1.688   9.060   7.065  3.0068 -2.1181 -1.3093
  208MOL0     H28693   1.701   9.217   6.976  0.8062 -2.7648 -1.8610
  208MOL0     H28694   1.918   9.033   7.090  0.2796 -0.6569 -0.5975
  208MOL0     H28695   1.949   9.201   7.031 -2.7720  2.2389  3.5261
  208MOL0     H28696   1.842   8.986   6.842  0.2175 -0.9576 -0.0853
  208MOL0     H28697   1.893   9.152   6.807  2.1912  2.2606  1.7773
  208MOL0     H28698   2.111   9.104   6.805 -2.2703  1.3689  0.2362
  208MOL0     H28699   2.057   8.937   6.759 -1.3848 -1.1323  0.8308
  208MOL0     H28700   2.253   8.873   7.130 -0.2636 -1.1773  0.1752
  208MOL0     H28701   1.589   9.050   7.313 -0.7758 -0.4443  1.6533
  208MOL0     H28702   1.534   8.937   7.473  0.9107  1.1852 -0.5214
  208MOL0     H28703   1.656   8.828   7.539 -2.1504 -0.2794 -0.2726
  208MOL0     H28704   1.608   8.983   7.628  1.9558  0.8952  0.5389
  209MOL0     O28705   7.209   9.871   2.590 -0.7460 -0.1937 -0.3028
  209MOL0     C28706   7.119   9.808   2.549  0.4934 -1.1020 -0.1338
  209MOL0     O28707   7.135   9.718   2.455 -0.0817 -0.5182  0.2683
  209MOL0     C28708   7.246   9.711   2.372 -0.5183  0.4812  0.5982
  209MOL0     C28709   7.371   9.663   2.420  0.3752  0.1370  0.1023
  209MOL0     C28710   7.468   9.646   2.325 -0.1828  0.5187  0.4969
  209MOL0     C28711   7.452   9.649   2.187 -0.3634 -0.3685  0.1092
  209MOL0     O28712   7.534   9.606   2.094 -0.8993  0.2410 -0.0518
  209MOL0     C28713   7.654   9.684   2.067 -0.9021 -0.0800 -0.4248
  209MOL0     C28714   7.760   9.591   2.014  0.2083  0.4565 -0.9167
  209MOL0     C28715   7.840   9.525   2.131 -0.2061 -0.8520  0.6023
  209MOL0     C28716   7.902   9.387   2.095 -0.4966 -0.2548  0.3512
  209MOL0     C28717   7.962   9.326   2.220 -0.9379 -0.2748  0.2977
  209MOL0     C28718   7.997   9.176   2.200 -0.4731  0.0041 -0.0147
  209MOL0     C28719   8.098   9.130   2.308 -0.1070  0.3228 -0.5586
  209MOL0     C28720   8.126   8.975   2.322  0.3784 -0.9248 -0.0492
  209MOL0     N28721   8.011   8.887   2.338 -0.4508 -0.1679  0.0765
  209MOL0     C28722   7.909   8.861   2.253 -0.2364 -0.8310  0.2076
  209MOL0     C28723   7.818   8.780   2.312  0.1174  0.2777  0.6522
  209MOL0     C28724   7.697   8.737   2.238  0.1141 -0.2716 -0.1045
  209MOL0     C28725   7.603   8.653   2.324  0.3764 -0.0539  0.3759
  209MOL0     C28726   7.661   8.512   2.341  0.4489  0.1980  0.0756
  209MOL0     C28727   7.556   8.409   2.365 -0.4182 -0.5262  0.3000
  209MOL0     O28728   7.468   8.404   2.252 -0.1676  0.0231  0.3058
  209MOL0     C28729   7.464   8.297   2.160  0.8148 -0.1686 -0.0040
  209MOL0     C28730   7.354   8.294   2.082  0.0691  0.5759 -0.0064
  209MOL0     C28731   7.349   8.188   1.984  0.2269 -0.4004 -0.2765
  209MOL0     C28732   7.216   8.183   1.917  0.4679  0.1023 -0.6294
  209MOL0     C28733   7.448   8.092   1.968  0.5717  0.5357  0.5116
  209MOL0     C28734   7.442   7.971   1.878  1.1521 -0.5188 -0.2976
  209MOL0     O28735   7.349   7.974   1.779 -0.7440 -0.5142 -0.3505
  209MOL0     C28736   7.292   7.856   1.741 -0.7366 -0.3244 -0.0770
  209MOL0     C28737   7.306   7.809   1.610 -0.1253 -0.2334  0.0821
  209MOL0     C28738   7.235   7.701   1.566  0.1607 -0.6201 -0.4319
  209MOL0     C28739   7.145   7.628   1.655 -0.3024 -0.0117  0.4776
  209MOL0     O28740   7.082   7.515   1.605  0.9557 -0.3487  0.1428
  209MOL0     C28741   7.063   7.408   1.695 -0.5957 -0.4009 -0.0859
  209MOL0     C28742   7.113   7.283   1.651  0.6015 -0.0899  0.6225
  209MOL0     C28743   7.041   7.233   1.537  0.4154  0.1181 -0.1685
  209MOL0     C28744   7.093   7.099   1.500  0.4861 -0.2700  0.9774
  209MOL0     C28745   7.010   7.047   1.377  0.0566  0.4123 -0.1060
  209MOL0     C28746   7.082   6.921   1.328  0.1468 -0.1487  0.3297
  209MOL0     C28747   7.033   6.879   1.187  0.3047  0.0556  0.6707
  209MOL0     C28748   7.101   6.758   1.130  0.1324 -0.6396  0.4340
  209MOL0    Cl28749   7.057   6.750   0.959 -0.3008 -0.0146  0.0486
  209MOL0     C28750   7.132   7.677   1.786 -0.0814  0.1485 -0.3397
  209MOL0     C28751   7.203   7.790   1.825  0.3270  0.2784  0.0775
  209MOL0     O28752   7.507   7.870   1.911  0.3918  0.1837 -0.1712
  209MOL0     C28753   7.559   8.110   2.053 -0.1313  0.4010  0.6609
  209MOL0     C28754   7.565   8.204   2.147  0.6828 -0.0442  0.1752
  209MOL0     N28755   7.867   8.764   2.436 -0.8716 -0.0476 -0.7636
  209MOL0     N28756   7.983   8.821   2.453  1.2101 -0.1814  0.0297
  209MOL0     C28757   7.331   9.692   2.141 -0.3860 -0.8072  0.0306
  209MOL0     C28758   7.233   9.735   2.234  0.8385  0.9118  0.2427
  209MOL0     C28759   6.982   9.841   2.594 -0.1359 -0.2157  0.2095
  209MOL0     C28760   6.870   9.816   2.521 -0.5888  0.0466 -0.0222
  209MOL0     C28761   6.739   9.858   2.556  0.4358 -0.0873  0.8567
  209MOL0     C28762   6.711   9.913   2.681 -0.3031  0.1982  0.0820
  209MOL0     O28763   6.587   9.961   2.722  1.1339  0.3138 -0.2773
  209MOL0     C28764   6.475   9.931   2.631  0.2922  0.4018 -0.4614
  209MOL0     C28765   6.336   9.963   2.698 -1.1807 -0.3595  0.3579
  209MOL0     C28766   6.225   9.908   2.617  0.3431  0.3649  0.1498
  209MOL0     C28767   6.085   9.924   2.675 -0.6979  0.0020  0.2768
  209MOL0     C28768   6.080  10.047   2.749  0.0239  0.0368  0.8334
  209MOL0     C28769   6.077  10.157   2.797  0.7239  0.0960  0.2124
  209MOL0     C28770   6.822   9.932   2.763  0.2260  0.9473  0.3543
  209MOL0     C28771   6.951   9.899   2.726 -0.1945 -0.2920  0.8387
  209MOL0     C28772   7.062   9.922   2.821 -0.4916  0.2281  0.1492
  209MOL0     H28773   7.375   9.653   2.528 -0.1974  0.0111  0.1143
  209MOL0     H28774   7.561   9.594   2.349 -0.7850 -1.6411 -1.4732
  209MOL0     H28775   7.680   9.737   2.160 -0.0248 -0.9910 -0.1400
  209MOL0     H28776   7.631   9.754   1.986 -1.9040 -2.5800 -2.4222
  209MOL0     H28777   7.724   9.505   1.957  2.2341 -2.1148  1.3889
  209MOL0     H28778   7.825   9.650   1.950  1.1958 -1.2629 -1.5656
  209MOL0     H28779   7.919   9.596   2.154 -0.5438 -1.1141  2.7675
  209MOL0     H28780   7.780   9.510   2.221  0.4332 -1.2979  0.9564
  209MOL0     H28781   7.813   9.330   2.067 -0.7219  1.2521 -2.2894
  209MOL0     H28782   7.969   9.400   2.010 -2.3925  0.5502 -1.0810
  209MOL0     H28783   7.891   9.338   2.303 -2.6252  1.1530 -1.2711
  209MOL0     H28784   8.045   9.389   2.252 -1.6013  0.5305  0.4592
  209MOL0     H28785   7.907   9.115   2.215 -0.5725  0.6384  2.3903
  209MOL0     H28786   8.042   9.174   2.100  2.5778 -0.0376  1.2826
  209MOL0     H28787   8.051   9.148   2.405 -0.3158  1.5510 -0.8669
  209MOL0     H28788   8.185   9.196   2.306 -0.3614  0.6595 -0.6124
  209MOL0     H28789   8.169   8.950   2.224 -0.0084 -2.1655  0.0858
  209MOL0     H28790   8.196   8.957   2.404 -2.1186 -0.5648  2.2758
  209MOL0     H28791   7.906   8.913   2.157  1.4272 -0.4673  0.3236
  209MOL0     H28792   7.729   8.673   2.155 -1.7359 -0.9539 -0.3346
  209MOL0     H28793   7.643   8.820   2.193 -2.5579 -2.6571 -1.6249
  209MOL0     H28794   7.592   8.718   2.411  1.3991  3.6750 -2.0344
  209MOL0     H28795   7.506   8.639   2.276 -0.0880 -2.3242  1.8285
  209MOL0     H28796   7.704   8.479   2.246  0.0274  0.7721 -0.3233
  209MOL0     H28797   7.738   8.499   2.418 -0.3440 -2.5993  0.5257
  209MOL0     H28798   7.605   8.313   2.383  2.4230  0.2928 -2.2696
  209MOL0     H28799   7.499   8.429   2.457 -0.4498 -0.3301  0.2388
  209MOL0     H28800   7.272   8.362   2.100 -0.6993 -0.1159 -0.8603
  209MOL0     H28801   7.155   8.273   1.927 -2.8265 -1.9761 -0.3927
  209MOL0     H28802   7.151   8.106   1.961 -0.2661  0.0548 -1.7269
  209MOL0     H28803   7.239   8.179   1.810  2.4311 -1.3743 -0.2179
  209MOL0     H28804   7.381   7.850   1.544 -0.1439  0.9897  0.7910
  209MOL0     H28805   7.239   7.662   1.465 -0.7561  0.6368 -0.9766
  209MOL0     H28806   7.102   7.427   1.795  0.9734 -0.8556 -0.5724
  209MOL0     H28807   6.954   7.397   1.700 -0.9948  2.3464 -0.9814
  209MOL0     H28808   7.215   7.295   1.613  0.4298 -3.6505 -1.3653
  209MOL0     H28809   7.102   7.215   1.736  1.5970 -2.2643 -0.9022
  209MOL0     H28810   7.051   7.302   1.452 -1.9827  0.0274 -0.6084
  209MOL0     H28811   6.935   7.217   1.559  0.0530 -0.5791 -2.1536
  209MOL0     H28812   7.088   7.027   1.582 -0.0858 -0.4144  0.8195
  209MOL0     H28813   7.194   7.108   1.459 -0.0274 -2.9205 -1.1883
  209MOL0     H28814   6.902   7.046   1.392 -0.3322 -0.5023 -2.5124
  209MOL0     H28815   7.022   7.109   1.287 -2.1400  0.5340 -0.3585
  209MOL0     H28816   7.074   6.843   1.404  0.8946 -1.7051 -1.1443
  209MOL0     H28817   7.190   6.939   1.326  0.6500 -2.1752  3.2016
  209MOL0     H28818   7.048   6.959   1.114 -1.1273 -0.2579  0.0009
  209MOL0     H28819   6.927   6.853   1.188  0.4073 -0.3566  1.2867
  209MOL0     H28820   7.053   6.676   1.184 -2.6645  0.2714 -0.4904
  209MOL0     H28821   7.209   6.759   1.148  0.3513 -0.2629 -0.8129
  209MOL0     H28822   7.052   7.644   1.852 -0.8495 -0.1043 -1.3607
  209MOL0     H28823   7.202   7.820   1.929 -0.7520 -1.3650  0.5780
  209MOL0     H28824   7.628   8.026   2.057 -0.3559  0.2047  0.4037
  209MOL0     H28825   7.648   8.190   2.216  0.0632 -2.1437  0.5529
  209MOL0     H28826   7.323   9.700   2.033 -0.8547  2.4332  0.2053
  209MOL0     H28827   7.132   9.762   2.205  0.8862  1.9092  0.9525
  209MOL0     H28828   6.882   9.770   2.424  1.5941  0.9052 -0.2055
  209MOL0     H28829   6.669   9.848   2.473  0.9846 -0.3214  0.4144
  209MOL0     H28830   6.477   9.984   2.535 -2.3417  3.8248  1.1406
  209MOL0     H28831   6.476   9.823   2.616 -0.9101  0.1233  1.2352
  209MOL0     H28832   6.343  10.072   2.707  1.4755 -0.5618  1.5629
  209MOL0     H28833   6.323   9.916   2.796  0.5173 -0.6158  0.4795
  209MOL0     H28834   6.221   9.951   2.516  0.3576 -0.1986 -0.0936
  209MOL0     H28835   6.239   9.800   2.605 -1.2204 -0.0571  1.7747
  209MOL0     H28836   6.054   9.843   2.742  0.8175  0.7462  1.9541
  209MOL0     H28837   6.012   9.929   2.594  1.6305  0.2079 -1.9584
  209MOL0     H28838   6.070  10.251   2.848 -0.7056 -0.0871  0.3996
  209MOL0     H28839   6.805   9.984   2.857 -1.5946  0.8028  0.1352
  209MOL0     H28840   7.018   9.935   2.921 -3.9310 -1.1950 -1.0411
  209MOL0     H28841   7.122   9.831   2.829  0.9829  1.2899  2.2541
  209MOL0     H28842   7.124  10.008   2.793  2.0978 -2.0843 -1.7926
  210MOL0     O28843   9.725   8.515   6.575 -0.1301  0.5827  0.4180
  210MOL0     C28844   9.682   8.436   6.666 -0.3736  0.8339  0.4802
  210MOL0     O28845   9.758   8.373   6.754  0.4227  0.8116  0.0313
  210MOL0     C28846   9.894   8.383   6.760  0.3225 -0.3383 -0.2333
  210MOL0     C28847   9.969   8.267   6.799 -1.0820 -0.0981 -0.0174
  210MOL0     C28848  10.116   8.285   6.807  1.5409  0.3447 -0.1286
  210MOL0     C28849  10.176   8.409   6.787 -0.0537  0.4178  0.0248
  210MOL0     O28850  10.318   8.400   6.792 -0.2559 -0.2813 -0.3911
  210MOL0     C28851  10.390   8.516   6.820 -0.5623 -0.4770  0.1791
  210MOL0     C28852  10.541   8.486   6.834  0.3374 -0.1841  0.1629
  210MOL0     C28853  10.576   8.363   6.917  0.0242  0.7740 -0.5257
  210MOL0     C28854  10.609   8.403   7.060  0.0835 -0.8153  1.0783
  210MOL0     C28855  10.747   8.479   7.056  0.6708 -1.0075 -0.1201
  210MOL0     C28856  10.792   8.485   7.200 -0.0495  0.2000  0.0581
  210MOL0     C28857  10.917   8.567   7.205 -0.8803  0.1221  0.0714
  210MOL0     C28858  10.973   8.590   7.348  0.2569 -0.2996  0.4929
  210MOL0     N28859  11.111   8.629   7.363  0.4824  0.2368 -0.0468
  210MOL0     C28860  11.178   8.738   7.306 -0.5182  0.2604  0.4734
  210MOL0     C28861  11.301   8.729   7.370  0.7530 -0.0199  0.2493
  210MOL0     C28862  11.400   8.843   7.370 -0.2353 -0.3949  0.3915
  210MOL0     C28863  11.521   8.815   7.450  0.0098  0.0532  1.1122
  210MOL0     C28864  11.610   8.940   7.457 -0.1759  0.8656 -1.2005
  210MOL0     C28865  11.738   8.885   7.522  0.0413  0.8138 -0.8802
  210MOL0     O28866  11.706   8.844   7.655 -0.5322  0.2528 -0.3799
  210MOL0     C28867  11.690   8.940   7.756 -0.3932  0.2251 -0.0542
  210MOL0     C28868  11.620   8.904   7.878 -0.6137 -0.8982 -0.0819
  210MOL0     C28869  11.614   8.990   7.990 -0.3868 -0.0400  0.2497
  210MOL0     C28870  11.525   8.939   8.103  0.7344  0.1609 -0.6851
  210MOL0     C28871  11.686   9.112   7.986  0.1605 -0.2847  0.5931
  210MOL0     C28872  11.683   9.219   8.085  0.4071 -0.2032 -0.1558
  210MOL0     O28873  11.715   9.345   8.041  0.2931 -0.1650 -0.1264
  210MOL0     C28874  11.749   9.448   8.127  0.9682 -0.4007  0.8070
  210MOL0     C28875  11.793   9.562   8.057 -0.5453 -0.1451 -0.0131
  210MOL0     C28876  11.841   9.671   8.120 -0.0864 -0.6400 -0.4643
  210MOL0     C28877  11.809   9.689   8.256 -0.6794 -0.5264  0.3240
  210MOL0     O28878  11.838   9.809   8.309 -0.3241 -0.3406 -0.1865
  210MOL0     C28879  11.883   9.827   8.449  0.2179 -0.5643 -0.1711
  210MOL0     C28880  12.015   9.893   8.457  0.0536  0.0684 -0.6271
  210MOL0     C28881  12.113   9.793   8.387 -1.3165 -0.6289 -0.8110
  210MOL0     C28882  12.252   9.846   8.413  0.8797  0.1190  0.1240
  210MOL0     C28883  12.361   9.744   8.385 -1.0837  0.2065 -0.0963
  210MOL0     C28884  12.500   9.808   8.403 -0.2011  0.9645  0.0902
  210MOL0     C28885  12.551   9.903   8.286  0.7574  0.2301 -0.1245
  210MOL0     C28886  12.659  10.001   8.325 -0.7432  0.0890  0.3943
  210MOL0    Cl28887  12.602  10.096   8.456 -0.1054 -0.0351  0.0681
  210MOL0     C28888  11.759   9.583   8.329  0.7544 -0.6593  1.1488
  210MOL0     C28889  11.728   9.461   8.271 -0.4121  0.3442  0.7804
  210MOL0     O28890  11.660   9.188   8.201 -0.2735  0.4922  0.5878
  210MOL0     C28891  11.762   9.138   7.867 -0.0399 -0.5501  0.4856
  210MOL0     C28892  11.758   9.065   7.752 -0.0208  0.2423  0.4458
  210MOL0     N28893  11.312   8.617   7.436  0.7018 -0.3767 -0.3798
  210MOL0     N28894  11.202   8.545   7.423  0.2042 -0.0193 -0.5116
  210MOL0     C28895  10.090   8.523   6.762 -0.0432 -0.4720  0.5308
  210MOL0     C28896   9.954   8.509   6.755  0.0048 -0.3776  0.5069
  210MOL0     C28897   9.534   8.423   6.670  0.6483  0.2222 -0.2198
  210MOL0     C28898   9.455   8.517   6.606  0.3213  0.3845  0.1700
  210MOL0     C28899   9.311   8.518   6.608  0.2352 -0.1260 -0.7184
  210MOL0     C28900   9.251   8.403   6.660 -0.1559  0.8741  0.9057
  210MOL0     O28901   9.111   8.393   6.655 -0.4085  0.7921 -0.2832
  210MOL0     C28902   9.047   8.279   6.719 -0.2435  0.4099  0.2010
  210MOL0     C28903   8.903   8.274   6.670  0.2481  0.7545 -0.1394
  210MOL0     C28904   8.833   8.153   6.730 -0.0098  0.0852  0.0895
  210MOL0     C28905   8.684   8.159   6.710  0.7309 -0.4247  0.2441
  210MOL0     C28906   8.633   8.143   6.578 -0.0460  0.5047  0.2861
  210MOL0     C28907   8.580   8.149   6.468  0.0357 -0.1885 -0.5909
  210MOL0     C28908   9.325   8.291   6.704 -0.3295 -0.3773  1.0278
  210MOL0     C28909   9.462   8.307   6.716 -1.0561  0.1631 -0.3445
  210MOL0     C28910   9.535   8.184   6.756 -0.2734  0.1869 -0.7970
  210MOL0     H28911   9.929   8.168   6.819 -0.9704 -0.2064 -0.3249
  210MOL0     H28912  10.187   8.204   6.819 -0.0271 -1.2613 -1.2463
  210MOL0     H28913  10.357   8.556   6.916 -0.1511  0.2178  0.0333
  210MOL0     H28914  10.364   8.587   6.741  1.2100  0.6563  0.5574
  210MOL0     H28915  10.567   8.471   6.729  1.1826 -0.0277  0.3419
  210MOL0     H28916  10.596   8.574   6.868 -2.8597  2.3261 -0.5725
  210MOL0     H28917  10.488   8.298   6.922 -1.4581  2.7495  1.3223
  210MOL0     H28918  10.659   8.316   6.864  1.1888  1.0573  0.9758
  210MOL0     H28919  10.529   8.467   7.096  0.9089 -0.4849  2.4004
  210MOL0     H28920  10.607   8.310   7.117  3.0378 -1.0814  0.9097
  210MOL0     H28921  10.732   8.579   7.014 -2.4730 -1.6533 -0.7254
  210MOL0     H28922  10.817   8.428   6.989 -0.0010 -1.8119 -0.2215
  210MOL0     H28923  10.708   8.528   7.255  0.3694  2.2589 -0.7968
  210MOL0     H28924  10.808   8.385   7.241 -2.2933 -0.1885  0.0982
  210MOL0     H28925  10.917   8.667   7.160  0.4649 -0.8519 -2.2657
  210MOL0     H28926  10.987   8.501   7.154 -3.1162 -3.0288  0.7935
  210MOL0     H28927  10.917   8.666   7.403  1.6175  1.0274  0.1288
  210MOL0     H28928  10.972   8.494   7.399  0.7429 -1.9807 -2.4284
  210MOL0     H28929  11.128   8.826   7.267 -1.6744  0.0791  1.4815
  210MOL0     H28930  11.349   8.923   7.424  1.0548 -0.2802  1.5060
  210MOL0     H28931  11.421   8.867   7.266 -1.2499  2.4634  0.7694
  210MOL0     H28932  11.476   8.804   7.549 -1.3842 -1.2326  0.3906
  210MOL0     H28933  11.573   8.727   7.413  0.4531  0.9278 -0.4402
  210MOL0     H28934  11.639   8.982   7.360  1.7755 -0.9799 -1.4907
  210MOL0     H28935  11.571   9.016   7.525  3.0204  1.6923 -0.1389
  210MOL0     H28936  11.774   8.795   7.472 -0.1422  0.5515 -0.5506
  210MOL0     H28937  11.823   8.953   7.528 -0.6521  1.5741  1.2353
  210MOL0     H28938  11.564   8.811   7.886 -1.4274 -0.3321  1.1702
  210MOL0     H28939  11.558   8.951   8.207 -1.8120  0.8812  0.1013
  210MOL0     H28940  11.498   8.834   8.090  2.6065 -0.1800 -2.3161
  210MOL0     H28941  11.431   8.993   8.097  1.6528  1.8332 -0.7767
  210MOL0     H28942  11.786   9.566   7.949 -0.3418 -0.2690 -0.0318
  210MOL0     H28943  11.879   9.756   8.064 -2.1744 -0.2047 -1.3114
  210MOL0     H28944  11.807   9.889   8.498  1.1533  1.4910 -1.1688
  210MOL0     H28945  11.898   9.730   8.497  3.7162 -0.0683 -0.0161
  210MOL0     H28946  12.001   9.994   8.417  0.9951  1.3583  2.0642
  210MOL0     H28947  12.054   9.903   8.559 -0.4468 -2.1613 -0.1525
  210MOL0     H28948  12.086   9.787   8.281  0.5275  3.0887 -1.6657
  210MOL0     H28949  12.098   9.698   8.439 -0.8524  0.2020  0.9483
  210MOL0     H28950  12.271   9.871   8.517 -0.8966 -1.2871  0.8347
  210MOL0     H28951  12.259   9.925   8.337  0.9962  1.9575  1.9760
  210MOL0     H28952  12.363   9.667   8.464  2.6685 -1.2321 -1.3650
  210MOL0     H28953  12.361   9.692   8.289 -1.1014  1.4160 -0.7661
  210MOL0     H28954  12.582   9.736   8.401 -0.8511  0.1985 -2.7990
  210MOL0     H28955  12.500   9.866   8.496  0.3303  2.0703 -0.5824
  210MOL0     H28956  12.471   9.958   8.235  0.4680 -1.3745 -1.5125
  210MOL0     H28957  12.598   9.836   8.213 -1.6980 -1.7006 -0.0705
  210MOL0     H28958  12.700  10.060   8.242  1.1781 -1.9984 -0.2698
  210MOL0     H28959  12.740   9.939   8.366 -0.1205  1.4925  1.3929
  210MOL0     H28960  11.742   9.595   8.435 -2.3708 -1.7133  0.8757
  210MOL0     H28961  11.676   9.383   8.327 -2.8527  1.1340 -0.2305
  210MOL0     H28962  11.827   9.225   7.869 -1.0918  0.4281 -2.4943
  210MOL0     H28963  11.801   9.107   7.661  1.3222 -0.4953  0.7262
  210MOL0     H28964  10.129   8.621   6.737 -3.2436  0.3676 -1.8401
  210MOL0     H28965   9.896   8.597   6.727  0.4206 -0.7203 -1.5971
  210MOL0     H28966   9.503   8.607   6.569 -0.6048 -0.1479 -2.5467
  210MOL0     H28967   9.251   8.603   6.580 -0.5412  0.3820  2.1361
  210MOL0     H28968   9.086   8.187   6.676 -1.1521 -0.3447  0.9655
  210MOL0     H28969   9.057   8.281   6.828  0.5532 -2.4123  0.2558
  210MOL0     H28970   8.902   8.264   6.561 -0.0284  1.0374 -0.1653
  210MOL0     H28971   8.852   8.365   6.702 -1.2649 -0.5967  1.4500
  210MOL0     H28972   8.873   8.056   6.701 -1.3939 -1.0444  1.7875
  210MOL0     H28973   8.853   8.168   6.837  2.5541  1.8137 -0.5467
  210MOL0     H28974   8.639   8.251   6.748  3.3287  0.3864  1.5871
  210MOL0     H28975   8.639   8.086   6.777  0.1507  1.0416  1.4854
  210MOL0     H28976   8.533   8.164   6.373  1.6239  2.4959 -1.0631
  210MOL0     H28977   9.281   8.198   6.739  0.6371  0.0281  3.4703
  210MOL0     H28978   9.616   8.155   6.689 -0.4014 -2.3657  0.0293
  210MOL0     H28979   9.571   8.195   6.859  0.5403 -2.3325 -0.7521
  210MOL0     H28980   9.463   8.102   6.766  0.7350 -0.4829  2.0891
  211MOL0     O28981   7.280  10.903   8.111 -0.1369 -0.2562  0.3762
  211MOL0     C28982   7.281  10.939   8.234 -0.1567  0.0622  0.3344
  211MOL0     O28983   7.364  10.885   8.321  0.1324 -0.6778  0.3070
  211MOL0     C28984   7.470  10.802   8.277  0.3979 -0.5587  0.6086
  211MOL0     C28985   7.458  10.673   8.234  0.6583 -0.1405 -0.6976
  211MOL0     C28986   7.568  10.595   8.203 -0.3553 -0.1879 -0.2235
  211MOL0     C28987   7.695  10.643   8.212 -0.7390  0.7907  0.1436
  211MOL0     O28988   7.800  10.555   8.173 -0.2394 -0.3424  0.5398
  211MOL0     C28989   7.935  10.604   8.192  0.5198 -0.5445 -0.0201
  211MOL0     C28990   8.028  10.486   8.206  0.4767 -0.3491  0.0760
  211MOL0     C28991   8.046  10.407   8.075 -0.1347 -0.8030 -0.2317
  211MOL0     C28992   8.102  10.271   8.108 -0.2526  0.3757  0.9481
  211MOL0     C28993   8.251  10.273   8.155  0.4991 -0.1167  0.0136
  211MOL0     C28994   8.344  10.355   8.065  0.2045 -0.3902 -0.0070
  211MOL0     C28995   8.488  10.320   8.099  0.0047  0.5054  0.4128
  211MOL0     C28996   8.588  10.414   8.029 -0.6917 -0.6512  0.5685
  211MOL0     N28997   8.621  10.355   7.897 -0.9082  0.2078 -0.2700
  211MOL0     C28998   8.737  10.286   7.863 -1.1449  0.4960  0.2181
  211MOL0     C28999   8.735  10.268   7.726  1.2400  0.4475 -1.4102
  211MOL0     C29000   8.836  10.194   7.653 -0.4166 -0.0667 -0.4965
  211MOL0     C29001   8.923  10.266   7.548  0.4931 -0.6914  0.8928
  211MOL0     C29002   8.974  10.396   7.609 -0.0195 -0.6451 -0.4964
  211MOL0     C29003   9.051  10.483   7.513  0.5960  0.1377  0.8101
  211MOL0     O29004   9.180  10.453   7.455 -0.0614  0.0304 -0.3474
  211MOL0     C29005   9.289  10.462   7.530  0.0646  0.5394  1.0782
  211MOL0     C29006   9.406  10.447   7.457  0.3588  0.2471 -1.1872
  211MOL0     C29007   9.534  10.465   7.520  0.0173 -0.3981  1.0963
  211MOL0     C29008   9.664  10.464   7.434  0.0075  0.5075  0.2483
  211MOL0     C29009   9.537  10.502   7.661 -0.1170  0.3424  0.7859
  211MOL0     C29010   9.670  10.531   7.728 -0.3099 -0.4915 -0.6406
  211MOL0     O29011   9.784  10.577   7.669 -0.6839  0.7797  0.3079
  211MOL0     C29012   9.909  10.580   7.718  0.8811 -1.6826  0.1179
  211MOL0     C29013  10.011  10.600   7.624  0.1763 -0.3170  0.3403
  211MOL0     C29014  10.145  10.592   7.658 -0.2037  0.5835 -0.0741
  211MOL0     C29015  10.188  10.552   7.792 -0.2444 -0.9356 -0.3155
  211MOL0     O29016  10.319  10.527   7.812 -0.3136  0.0505  0.6344
  211MOL0     C29017  10.369  10.456   7.919 -0.3439 -0.8971 -0.7816
  211MOL0     C29018  10.526  10.471   7.945 -1.4669 -0.1668  0.5675
  211MOL0     C29019  10.560  10.628   7.941 -0.1480  1.1154  0.3886
  211MOL0     C29020  10.706  10.636   7.979 -0.1748  0.0064  0.7733
  211MOL0     C29021  10.746  10.788   7.971 -0.7884  0.7403  0.5083
  211MOL0     C29022  10.831  10.833   8.094  0.3115  0.2134 -0.0611
  211MOL0     C29023  10.861  10.985   8.074  1.0585  0.1981 -0.2095
  211MOL0     C29024  11.018  11.004   8.086  0.0691 -0.1398  0.4994
  211MOL0    Cl29025  11.103  10.928   7.948 -0.2054 -0.5193  0.2342
  211MOL0     C29026  10.082  10.549   7.885 -0.7893 -0.2803 -0.6605
  211MOL0     C29027   9.943  10.553   7.850  0.3818 -0.4342  0.3165
  211MOL0     O29028   9.650  10.523   7.854 -0.4413  0.2877 -0.0698
  211MOL0     C29029   9.415  10.519   7.728  0.2290 -0.8727 -0.0448
  211MOL0     C29030   9.291  10.492   7.663  0.0323  0.6091  0.6047
  211MOL0     N29031   8.618  10.329   7.685  0.6998 -0.7543  0.3719
  211MOL0     N29032   8.561  10.396   7.785 -1.0833 -0.2623 -0.4068
  211MOL0     C29033   7.712  10.781   8.249  0.3055 -0.5044  0.3548
  211MOL0     C29034   7.599  10.861   8.281 -0.0026  0.8078  0.1503
  211MOL0     C29035   7.175  11.043   8.277 -1.0826  0.9202 -0.3515
  211MOL0     C29036   7.096  11.089   8.184 -0.8531  0.4467  0.5946
  211MOL0     C29037   7.001  11.183   8.210 -0.4840  0.5629  0.2125
  211MOL0     C29038   6.989  11.238   8.339 -0.0534  0.5392  1.1054
  211MOL0     O29039   6.910  11.347   8.369  1.1189 -0.7009  0.1008
  211MOL0     C29040   6.776  11.368   8.304 -0.5199 -0.4794 -0.9618
  211MOL0     C29041   6.776  11.433   8.166  0.3993 -0.0718 -0.7167
  211MOL0     C29042   6.629  11.441   8.095 -1.1238  0.7270  0.4812
  211MOL0     C29043   6.518  11.492   8.184  0.2478  0.7041 -0.0845
  211MOL0     C29044   6.531  11.635   8.219  0.3573  0.5185 -0.2977
  211MOL0     C29045   6.542  11.751   8.243  1.0554 -0.2076 -0.3333
  211MOL0     C29046   7.060  11.183   8.448  0.0202 -0.8517  0.5161
  211MOL0     C29047   7.160  11.092   8.409  0.9926 -0.1405 -0.8665
  211MOL0     C29048   7.252  11.045   8.528 -0.8672  0.4273  0.4517
  211MOL0     H29049   7.357  10.637   8.219  1.1572 -2.0208  0.1671
  211MOL0     H29050   7.566  10.493   8.165  3.0918 -0.3233 -0.3613
  211MOL0     H29051   7.940  10.671   8.278 -0.9943  0.1936 -0.4664
  211MOL0     H29052   7.972  10.667   8.110  4.7563 -2.7090 -0.0515
  211MOL0     H29053   8.125  10.519   8.247  1.0051 -0.7330 -0.8380
  211MOL0     H29054   7.984  10.422   8.283  0.7134 -0.2485  0.3006
  211MOL0     H29055   7.948  10.378   8.035  0.0767 -3.9228  1.1742
  211MOL0     H29056   8.100  10.458   7.995 -2.8124  1.5159 -0.7404
  211MOL0     H29057   8.036  10.229   8.185 -3.1810  1.5542 -0.7303
  211MOL0     H29058   8.096  10.209   8.019  1.8254  3.0473 -1.2196
  211MOL0     H29059   8.289  10.171   8.159 -0.9785 -0.7027 -0.3800
  211MOL0     H29060   8.246  10.312   8.257  0.3829 -0.9695  0.3421
  211MOL0     H29061   8.319  10.330   7.961  0.2180 -0.7125  0.0677
  211MOL0     H29062   8.323  10.462   8.072  0.1439 -0.4551  0.8694
  211MOL0     H29063   8.497  10.211   8.086 -0.2867  0.2378  2.1831
  211MOL0     H29064   8.504  10.333   8.207 -1.3283 -0.3008  0.7303
  211MOL0     H29065   8.550  10.516   8.011 -0.9766 -0.8094  0.2575
  211MOL0     H29066   8.682  10.419   8.085  0.3628 -1.0762 -1.0691
  211MOL0     H29067   8.808  10.243   7.932  0.3941 -0.0421 -1.6278
  211MOL0     H29068   8.789  10.107   7.606 -2.0648  1.0322 -0.9617
  211MOL0     H29069   8.909  10.154   7.723 -1.1147 -0.6734 -0.1020
  211MOL0     H29070   9.011  10.216   7.506  0.9621  1.9384 -1.5699
  211MOL0     H29071   8.862  10.276   7.458  1.1352 -0.1566  0.5014
  211MOL0     H29072   8.887  10.457   7.634 -0.3016 -1.8730  1.7560
  211MOL0     H29073   9.030  10.378   7.701  1.5509  3.7080 -0.3401
  211MOL0     H29074   8.987  10.501   7.425  1.1009  0.0412  0.4178
  211MOL0     H29075   9.061  10.581   7.560  0.2976  0.9792 -0.7983
  211MOL0     H29076   9.385  10.435   7.351 -3.1925 -1.5367 -0.4445
  211MOL0     H29077   9.643  10.451   7.327  1.1764  1.2771 -0.0955
  211MOL0     H29078   9.741  10.396   7.472 -2.9525 -1.6251  3.0324
  211MOL0     H29079   9.689  10.569   7.449 -0.8953  0.3652  3.5100
  211MOL0     H29080   9.988  10.626   7.522  0.1126 -0.2940  0.3599
  211MOL0     H29081  10.224  10.613   7.586 -1.6069  0.2523 -1.7878
  211MOL0     H29082  10.331  10.498   8.013  0.8622 -2.0955  0.2942
  211MOL0     H29083  10.343  10.350   7.911 -1.9372 -0.5274 -0.7766
  211MOL0     H29084  10.571  10.429   8.036  1.1391 -0.8061 -0.9081
  211MOL0     H29085  10.575  10.428   7.858 -0.6616  2.2381 -0.2562
  211MOL0     H29086  10.489  10.683   8.003 -2.1805 -0.4939 -0.3808
  211MOL0     H29087  10.549  10.673   7.841 -4.3531 -3.1135 -1.4066
  211MOL0     H29088  10.780  10.589   7.914  0.4696  3.9901 -1.7435
  211MOL0     H29089  10.719  10.601   8.082 -0.5082 -1.2932  0.3869
  211MOL0     H29090  10.808  10.814   7.885 -3.0397  0.8660 -1.1633
  211MOL0     H29091  10.660  10.855   7.969 -0.6916  0.8731  0.7509
  211MOL0     H29092  10.924  10.777   8.099  0.0126 -0.3190 -0.4333
  211MOL0     H29093  10.770  10.817   8.184  1.3188 -1.9386  0.2888
  211MOL0     H29094  10.811  11.049   8.148 -1.6777  0.5542 -2.2153
  211MOL0     H29095  10.829  11.023   7.977 -0.4566 -0.9292 -0.1857
  211MOL0     H29096  11.056  10.961   8.179 -0.2032  2.1986  1.7623
  211MOL0     H29097  11.033  11.112   8.082  1.9344 -0.4024 -1.7166
  211MOL0     H29098  10.105  10.512   7.985 -0.8139  0.2772 -0.4430
  211MOL0     H29099   9.870  10.554   7.929  0.5489 -1.5956  0.4991
  211MOL0     H29100   9.413  10.552   7.831  1.7913 -0.6927 -0.0523
  211MOL0     H29101   9.199  10.504   7.720 -0.4413 -0.5575  0.1358
  211MOL0     H29102   7.808  10.831   8.250 -0.2895  0.7263 -0.7348
  211MOL0     H29103   7.603  10.964   8.314 -1.8149  0.2907  2.2517
  211MOL0     H29104   7.106  11.066   8.078  1.2650  1.6975  0.4629
  211MOL0     H29105   6.951  11.223   8.122 -0.2669  0.8473  0.2156
  211MOL0     H29106   6.722  11.273   8.303 -2.5119  0.5659 -2.2767
  211MOL0     H29107   6.733  11.440   8.374  1.2633  1.0463 -1.3544
  211MOL0     H29108   6.838  11.377   8.096 -0.2826  1.6240 -2.7886
  211MOL0     H29109   6.815  11.535   8.170 -2.5744  1.2154 -1.3432
  211MOL0     H29110   6.627  11.502   8.004 -1.0602 -0.9214 -0.6682
  211MOL0     H29111   6.603  11.340   8.061 -0.9082  1.1224 -0.9395
  211MOL0     H29112   6.531  11.428   8.273  1.5340 -0.4537 -1.0494
  211MOL0     H29113   6.419  11.468   8.144 -0.1662  1.1898  0.6363
  211MOL0     H29114   6.551  11.857   8.259 -0.9444 -0.3485  2.4116
  211MOL0     H29115   7.055  11.243   8.538 -0.8645 -1.1947  0.7050
  211MOL0     H29116   7.237  11.117   8.608  0.1362  1.0616  0.0952
  211MOL0     H29117   7.244  10.945   8.572  0.6718  0.1977  0.2893
  211MOL0     H29118   7.359  11.056   8.504 -0.4566  0.8041  2.3607
  212MOL0     O29119   3.064   0.848  11.351 -0.1278  0.5491 -0.0519
  212MOL0     C29120   3.172   0.845  11.406 -0.5600 -1.1149  0.2742
  212MOL0     O29121   3.297   0.838  11.344  0.7527 -0.2197 -0.0171
  212MOL0     C29122   3.305   0.824  11.202 -0.8234  0.0184 -0.4220
  212MOL0     C29123   3.418   0.760  11.144 -0.8834  0.1689 -0.6637
  212MOL0     C29124   3.440   0.749  11.001  0.1686 -0.1835  0.1059
  212MOL0     C29125   3.354   0.821  10.922  0.5493  0.7362  0.5106
  212MOL0     O29126   3.392   0.838  10.791 -0.9571 -0.8185 -0.0645
  212MOL0     C29127   3.323   0.926  10.697  0.4163  0.7254 -0.4332
  212MOL0     C29128   3.388   0.937  10.555 -1.1393  0.4861  0.9183
  212MOL0     C29129   3.327   1.041  10.464  0.6539 -0.2711  0.1753
  212MOL0     C29130   3.339   1.184  10.523  0.1622 -0.2532 -0.0463
  212MOL0     C29131   3.277   1.300  10.439  0.2172  0.3527  0.9195
  212MOL0     C29132   3.126   1.307  10.454  0.7103  0.5744  0.4733
  212MOL0     C29133   3.075   1.450  10.430  0.1358  0.1306 -0.0756
  212MOL0     C29134   3.123   1.508  10.296  0.2804 -0.6894 -0.1246
  212MOL0     N29135   3.041   1.632  10.280  0.7147  0.0876 -0.3779
  212MOL0     C29136   3.057   1.746  10.341  0.5350 -0.6517  0.9800
  212MOL0     C29137   2.968   1.831  10.276 -0.1253  0.5358  0.1566
  212MOL0     C29138   2.935   1.976  10.322  0.1453  0.4501  1.1579
  212MOL0     C29139   2.915   2.062  10.197 -0.8779 -0.7267  0.3357
  212MOL0     C29140   2.950   2.206  10.230  0.7332  0.5076 -0.2165
  212MOL0     C29141   3.003   2.283  10.122  0.5432 -1.0175 -0.1965
  212MOL0     O29142   3.014   2.418  10.174  0.2577  0.3371 -0.1003
  212MOL0     C29143   3.081   2.514  10.106  0.4671 -0.0199  0.3528
  212MOL0     C29144   3.088   2.529   9.962  0.3565  0.1993 -0.2524
  212MOL0     C29145   3.146   2.636   9.896 -0.5078  0.0642  0.4410
  212MOL0     C29146   3.143   2.641   9.740  0.0185  0.8108  0.0892
  212MOL0     C29147   3.207   2.736   9.978  0.1558 -0.5674 -0.5200
  212MOL0     C29148   3.280   2.855   9.931 -1.0706  0.2307  0.5749
  212MOL0     O29149   3.362   2.914  10.010  0.6488 -0.0608  0.9727
  212MOL0     C29150   3.422   3.034   9.975 -0.2576  0.0363  0.3619
  212MOL0     C29151   3.560   3.032   9.972  0.1883  0.2789  0.0702
  212MOL0     C29152   3.630   3.148   9.928 -0.1249  0.2210  0.2874
  212MOL0     C29153   3.564   3.264   9.900  0.3231  0.8303  0.6407
  212MOL0     O29154   3.628   3.383   9.872  1.1250 -0.2741 -0.9060
  212MOL0     C29155   3.768   3.416   9.886  0.4620 -0.4230 -0.0387
  212MOL0     C29156   3.797   3.565   9.852  0.7296 -0.4792 -0.0312
  212MOL0     C29157   3.732   3.665   9.949  0.1624 -0.1214 -1.1581
  212MOL0     C29158   3.797   3.808   9.923  0.1378  0.3558  0.7923
  212MOL0     C29159   3.738   3.933   9.999  0.5208 -0.0988 -0.4060
  212MOL0     C29160   3.803   4.066   9.959 -0.5325 -0.9178 -0.3711
  212MOL0     C29161   3.726   4.187  10.010  0.3673  0.4245  0.2413
  212MOL0     C29162   3.725   4.171  10.158  0.4408 -0.2055 -0.5692
  212MOL0    Cl29163   3.680   4.340  10.225 -0.4511  0.8345 -0.2513
  212MOL0     C29164   3.419   3.268   9.916 -0.1318  0.2605  0.6139
  212MOL0     C29165   3.348   3.153   9.945  0.0709 -0.2649  0.1843
  212MOL0     O29166   3.233   2.900   9.823 -0.2326  0.3857 -0.0765
  212MOL0     C29167   3.180   2.730  10.115  1.0132 -0.6454  0.0353
  212MOL0     C29168   3.130   2.618  10.183 -0.0084 -0.1991  0.1539
  212MOL0     N29169   2.899   1.760  10.175  0.2201 -0.5784 -0.4161
  212MOL0     N29170   2.942   1.640  10.186 -0.1873  0.5253  0.1803
  212MOL0     C29171   3.231   0.874  10.969 -0.1826  0.3547 -0.5639
  212MOL0     C29172   3.211   0.876  11.110  0.1706  0.2903 -0.1237
  212MOL0     C29173   3.171   0.835  11.556  0.6533  0.5924  0.6149
  212MOL0     C29174   3.291   0.789  11.619 -0.5853 -0.0686  0.5097
  212MOL0     C29175   3.311   0.780  11.754 -0.9740  0.5473 -0.9657
  212MOL0     C29176   3.205   0.828  11.832 -0.5337 -0.6479  0.2234
  212MOL0     O29177   3.208   0.819  11.969  0.0734 -0.5918  0.1414
  212MOL0     C29178   3.332   0.839  12.049  0.3260  0.4248 -0.3848
  212MOL0     C29179   3.417   0.963  12.010 -0.1836  0.5621  0.1920
  212MOL0     C29180   3.535   0.994  12.098 -0.2782 -0.1245 -0.9101
  212MOL0     C29181   3.628   0.878  12.120  0.2519 -0.5762 -0.8620
  212MOL0     C29182   3.760   0.935  12.159 -0.2159  0.8529  0.1156
  212MOL0     C29183   3.870   0.977  12.178  0.1587  0.3581 -0.2610
  212MOL0     C29184   3.083   0.855  11.780  0.2815  0.3667 -0.6305
  212MOL0     C29185   3.059   0.847  11.644  0.5155  0.1079 -0.7629
  212MOL0     C29186   2.916   0.856  11.598 -0.1224 -0.5640 -0.8995
  212MOL0     H29187   3.487   0.705  11.208 -0.7500  1.2821  0.1815
  212MOL0     H29188   3.523   0.696  10.956 -0.3743 -0.4850 -0.5514
  212MOL0     H29189   3.328   1.024  10.747 -2.7394  0.0928  1.4335
  212MOL0     H29190   3.221   0.887  10.706  0.4022  1.0954  1.4650
  212MOL0     H29191   3.494   0.947  10.580 -0.7378 -1.0109 -0.0868
  212MOL0     H29192   3.379   0.837  10.512 -1.5401  0.8452  0.1526
  212MOL0     H29193   3.392   1.043  10.377 -0.3325 -2.7291 -0.7347
  212MOL0     H29194   3.224   1.024  10.430  0.7166  1.7132 -1.1953
  212MOL0     H29195   3.277   1.198  10.612 -1.6969  1.1884 -1.4942
  212MOL0     H29196   3.447   1.197  10.532  0.4735 -1.8157 -1.1210
  212MOL0     H29197   3.316   1.289  10.338 -0.9131  1.0751  0.3806
  212MOL0     H29198   3.324   1.391  10.479  3.4416  0.0545 -1.8091
  212MOL0     H29199   3.086   1.230  10.387  1.2973 -1.7148  2.6016
  212MOL0     H29200   3.101   1.278  10.556  0.9687 -0.4648  0.2473
  212MOL0     H29201   3.113   1.519  10.506  2.8645 -1.9192  0.5981
  212MOL0     H29202   2.966   1.447  10.425  0.1682  0.7115 -3.9406
  212MOL0     H29203   3.229   1.533  10.306  0.9644 -2.6841 -1.7705
  212MOL0     H29204   3.100   1.436  10.217 -1.2522  0.6129 -0.9442
  212MOL0     H29205   3.130   1.774  10.416  0.6588  0.9038  0.3025
  212MOL0     H29206   3.022   2.011  10.378  1.7417 -2.9247  1.0712
  212MOL0     H29207   2.849   1.977  10.389 -0.9882 -2.7213 -0.0696
  212MOL0     H29208   2.961   2.015  10.109  1.5334  2.2303 -0.1366
  212MOL0     H29209   2.810   2.056  10.165 -0.9380 -0.8035  0.5475
  212MOL0     H29210   2.862   2.255  10.271  1.7854  2.0478  0.3068
  212MOL0     H29211   3.029   2.203  10.306 -0.5928  2.8584  1.3611
  212MOL0     H29212   3.102   2.245  10.094  1.9528  0.7439  1.9777
  212MOL0     H29213   2.933   2.285  10.038  0.7916  1.1541 -0.4325
  212MOL0     H29214   3.041   2.456   9.897 -2.2721  0.8148  0.8153
  212MOL0     H29215   3.167   2.539   9.712  5.4929  1.3215  1.6954
  212MOL0     H29216   3.229   2.698   9.703 -1.2326  3.3106  0.7715
  212MOL0     H29217   3.053   2.682   9.693  0.0718 -0.6301 -1.3329
  212MOL0     H29218   3.609   2.937   9.992 -0.9360 -0.4127 -0.3189
  212MOL0     H29219   3.738   3.146   9.923 -0.1161  0.3934  0.4026
  212MOL0     H29220   3.801   3.398   9.989  0.3578  1.2255  0.3096
  212MOL0     H29221   3.825   3.363   9.809  1.4342 -1.2261  1.1844
  212MOL0     H29222   3.906   3.573   9.855  1.0453 -2.5055 -2.5443
  212MOL0     H29223   3.765   3.591   9.751  1.1831 -2.2412 -0.6590
  212MOL0     H29224   3.758   3.636  10.051  0.6125  2.5134 -0.4502
  212MOL0     H29225   3.622   3.670   9.949  0.1638  0.0810 -2.5821
  212MOL0     H29226   3.787   3.830   9.816  1.7908 -2.3603 -0.0156
  212MOL0     H29227   3.901   3.789   9.951 -0.3929 -3.8542  0.4591
  212MOL0     H29228   3.635   3.943   9.966  1.0651  2.1971 -1.6221
  212MOL0     H29229   3.726   3.916  10.107 -0.0963 -0.4787 -0.5334
  212MOL0     H29230   3.799   4.078   9.850 -2.7050 -1.5037 -0.4064
  212MOL0     H29231   3.911   4.064   9.975 -0.4344  0.5013 -0.7310
  212MOL0     H29232   3.621   4.180   9.982  0.7156 -0.7804 -0.8533
  212MOL0     H29233   3.772   4.274   9.962 -3.1084  0.7540 -2.9853
  212MOL0     H29234   3.817   4.159  10.215 -0.8202  2.0541  2.1412
  212MOL0     H29235   3.657   4.092  10.194  0.2667  0.6227  0.9858
  212MOL0     H29236   3.363   3.358   9.893 -4.1986 -1.9770  0.8170
  212MOL0     H29237   3.239   3.157   9.949  0.0999 -0.1823  1.3784
  212MOL0     H29238   3.204   2.820  10.171  2.0933 -1.2830  0.6204
  212MOL0     H29239   3.123   2.614  10.291  0.8986 -1.6226  0.1804
  212MOL0     H29240   3.153   0.920  10.911 -0.2289  1.9580  0.7083
  212MOL0     H29241   3.126   0.932  11.146 -2.1433 -2.1561 -1.4014
  212MOL0     H29242   3.382   0.780  11.560  2.1507 -1.0596  4.4660
  212MOL0     H29243   3.411   0.765  11.791 -0.4747  5.3461  0.3803
  212MOL0     H29244   3.319   0.848  12.157  3.2061  2.2307 -0.1021
  212MOL0     H29245   3.379   0.741  12.040  2.4691  1.4227 -0.6011
  212MOL0     H29246   3.359   1.055  11.996  1.0713  1.0752 -2.1457
  212MOL0     H29247   3.455   0.935  11.911 -4.6756 -1.0636 -1.3128
  212MOL0     H29248   3.590   1.076  12.051  1.6596 -1.5042 -1.2010
  212MOL0     H29249   3.499   1.014  12.199  2.9578  0.0703  0.3287
  212MOL0     H29250   3.630   0.821  12.027 -0.2486 -2.7001  0.3494
  212MOL0     H29251   3.596   0.823  12.209  0.3452 -0.8930 -1.0230
  212MOL0     H29252   3.965   1.019  12.204 -1.2700  2.4228  2.1575
  212MOL0     H29253   3.009   0.882  11.855  2.0407  2.4974  0.4557
  212MOL0     H29254   2.903   0.772  11.529 -0.6893 -0.5426 -0.8257
  212MOL0     H29255   2.846   0.844  11.681  0.0337 -1.3711 -0.8765
  212MOL0     H29256   2.906   0.956  11.555  1.2512 -0.4366 -0.9585
  213MOL0     O29257   3.386   7.101   6.302 -0.7097 -0.5728 -0.0173
  213MOL0     C29258   3.329   7.099   6.414  0.2918 -0.6773 -0.5013
  213MOL0     O29259   3.332   7.203   6.509  0.6096 -0.6822  0.2147
  213MOL0     C29260   3.428   7.312   6.500 -0.3924  1.2447 -0.1202
  213MOL0     C29261   3.397   7.424   6.564 -0.0865 -0.3846 -0.6037
  213MOL0     C29262   3.486   7.526   6.587 -0.1028 -0.4289  0.4936
  213MOL0     C29263   3.617   7.519   6.538  0.1835  0.4720 -0.6147
  213MOL0     O29264   3.710   7.616   6.554 -0.1147  0.0125  0.0718
  213MOL0     C29265   3.699   7.704   6.658  0.5668  0.4822  0.2795
  213MOL0     C29266   3.805   7.798   6.685  0.1881 -0.3397 -1.2898
  213MOL0     C29267   3.888   7.837   6.567  0.1386  0.2670 -0.1188
  213MOL0     C29268   3.994   7.932   6.602  0.3122 -0.9057 -1.0115
  213MOL0     C29269   4.108   7.923   6.501 -0.3774  0.2056  0.4680
  213MOL0     C29270   4.223   8.006   6.548  0.0454  0.3778 -0.1789
  213MOL0     C29271   4.330   8.026   6.438  0.1056 -0.6378 -0.7738
  213MOL0     C29272   4.414   7.907   6.395 -0.1726  0.5505  0.2526
  213MOL0     N29273   4.512   7.877   6.504 -0.3121  0.4224 -0.6153
  213MOL0     C29274   4.608   7.965   6.541 -0.3201  0.1950 -0.3666
  213MOL0     C29275   4.670   7.905   6.648 -0.0367  0.2775  0.0657
  213MOL0     C29276   4.789   7.962   6.717 -1.2341 -0.4589 -0.3859
  213MOL0     C29277   4.783   7.994   6.874  0.2476  0.2703  0.0710
  213MOL0     C29278   4.711   8.128   6.893  0.5735 -0.0644  0.6807
  213MOL0     C29279   4.690   8.149   7.045  0.6427 -0.4639  0.1407
  213MOL0     O29280   4.632   8.277   7.083  0.2743 -0.1076  0.0988
  213MOL0     C29281   4.711   8.387   7.071 -0.6783 -0.2246  0.4962
  213MOL0     C29282   4.638   8.502   7.075  0.6805 -0.3883 -0.2490
  213MOL0     C29283   4.690   8.627   7.051 -0.2593  0.0159 -0.1146
  213MOL0     C29284   4.599   8.749   7.042 -0.9940  0.3272 -0.2470
  213MOL0     C29285   4.834   8.636   7.047  0.9571  0.2272 -0.6125
  213MOL0     C29286   4.916   8.757   7.027  0.5150 -0.6511  0.6102
  213MOL0     O29287   5.042   8.746   7.078 -0.2864 -0.7942 -0.5607
  213MOL0     C29288   5.120   8.860   7.076  0.4480 -0.6284 -0.2390
  213MOL0     C29289   5.199   8.885   6.958  0.6611 -0.2116 -0.1850
  213MOL0     C29290   5.282   8.993   6.963  0.8364  0.0057 -0.6468
  213MOL0     C29291   5.291   9.077   7.072 -0.1470  0.0649 -0.2123
  213MOL0     O29292   5.383   9.180   7.069 -0.2816 -0.1100  0.6930
  213MOL0     C29293   5.514   9.138   7.028  0.0570  0.4988  0.3966
  213MOL0     C29294   5.613   9.221   7.101 -0.1684  0.0736  0.2981
  213MOL0     C29295   5.755   9.162   7.073  1.1849  0.6251  0.2860
  213MOL0     C29296   5.865   9.225   7.160  1.0087 -0.4969 -0.6546
  213MOL0     C29297   6.005   9.176   7.111 -0.2447  0.3368 -0.4417
  213MOL0     C29298   6.113   9.220   7.219 -0.2157 -0.1543  0.1999
  213MOL0     C29299   6.261   9.198   7.194  1.1457 -0.1316  1.1536
  213MOL0     C29300   6.313   9.325   7.129  0.2715 -0.0529  0.3353
  213MOL0    Cl29301   6.454   9.272   7.049 -0.1023 -0.2653  0.2436
  213MOL0     C29302   5.218   9.049   7.189  0.2097 -0.5561  0.2070
  213MOL0     C29303   5.128   8.950   7.181 -0.7096 -0.0967  0.2723
  213MOL0     O29304   4.865   8.856   6.973 -1.4082 -0.3105 -0.6172
  213MOL0     C29305   4.906   8.514   7.046  0.6786  0.6519 -0.0629
  213MOL0     C29306   4.847   8.390   7.053 -0.8440 -0.2334  0.6807
  213MOL0     N29307   4.600   7.785   6.681 -1.1142 -0.8326  0.1846
  213MOL0     N29308   4.514   7.767   6.593  0.4890  0.1920  0.4760
  213MOL0     C29309   3.656   7.395   6.473 -0.3548 -0.7546 -0.2749
  213MOL0     C29310   3.563   7.286   6.461 -0.4424  1.0191  0.2706
  213MOL0     C29311   3.239   6.990   6.429 -0.0471 -0.1079  0.3801
  213MOL0     C29312   3.274   6.869   6.371  0.4696  0.0854 -0.2635
  213MOL0     C29313   3.188   6.763   6.375  0.7657 -0.6204  0.1671
  213MOL0     C29314   3.068   6.766   6.451 -0.7427 -0.2263  0.3193
  213MOL0     O29315   3.011   6.642   6.472  0.0457  0.0911  0.3989
  213MOL0     C29316   2.902   6.621   6.571 -0.5512  0.6309  0.4378
  213MOL0     C29317   2.871   6.473   6.573  0.7768 -0.2012  0.6272
  213MOL0     C29318   2.809   6.432   6.439  0.1813 -0.3070  0.4630
  213MOL0     C29319   2.833   6.284   6.425 -0.0411 -0.2001 -0.0269
  213MOL0     C29320   2.850   6.246   6.284 -0.1160  0.3289  0.8265
  213MOL0     C29321   2.852   6.217   6.165 -0.8269  0.4437  0.3952
  213MOL0     C29322   3.034   6.890   6.512 -0.1108  0.5005  0.5548
  213MOL0     C29323   3.114   7.005   6.498 -0.6794  0.8785 -0.5043
  213MOL0     C29324   3.053   7.143   6.540 -0.6780  0.0901  0.4466
  213MOL0     H29325   3.291   7.429   6.590 -0.3381 -0.9814 -1.4489
  213MOL0     H29326   3.446   7.618   6.629  2.4899  2.1820 -2.2649
  213MOL0     H29327   3.674   7.638   6.741  1.1320  0.1978  0.2249
  213MOL0     H29328   3.603   7.753   6.637 -1.6891 -3.2764  0.8164
  213MOL0     H29329   3.755   7.876   6.743  0.5103 -2.7749  2.6437
  213MOL0     H29330   3.877   7.753   6.754 -0.1201  1.6265  0.4319
  213MOL0     H29331   3.929   7.750   6.514 -0.3494 -1.0554  1.5602
  213MOL0     H29332   3.815   7.872   6.494 -1.3544 -0.2469  1.0741
  213MOL0     H29333   3.950   8.031   6.614 -0.5839 -1.2437 -1.3639
  213MOL0     H29334   4.033   7.915   6.702 -0.6671  0.6504 -0.3367
  213MOL0     H29335   4.077   7.954   6.400 -1.3745 -0.6622  0.4877
  213MOL0     H29336   4.150   7.823   6.490  1.5756  0.9523  0.7593
  213MOL0     H29337   4.178   8.092   6.600 -0.4875 -0.8832  1.5477
  213MOL0     H29338   4.280   7.947   6.620  0.0761 -0.9142 -1.2343
  213MOL0     H29339   4.402   8.099   6.475 -1.0862 -0.5304  1.4673
  213MOL0     H29340   4.284   8.067   6.347 -0.9601 -0.1485 -0.0348
  213MOL0     H29341   4.348   7.821   6.378 -1.1528  1.0262  1.5103
  213MOL0     H29342   4.473   7.934   6.306 -1.3515  0.6290 -0.5312
  213MOL0     H29343   4.636   8.059   6.494  3.5929 -0.0909  1.0236
  213MOL0     H29344   4.823   8.055   6.670  0.7275 -1.7250 -1.5988
  213MOL0     H29345   4.873   7.892   6.706 -1.8943 -1.2425 -0.5603
  213MOL0     H29346   4.721   7.913   6.914 -1.0128  1.5752  0.8930
  213MOL0     H29347   4.881   7.996   6.921  0.5371  1.3557 -0.5308
  213MOL0     H29348   4.773   8.206   6.847 -0.3796  1.4271  1.8470
  213MOL0     H29349   4.615   8.127   6.840  0.7430  1.5854  0.2765
  213MOL0     H29350   4.624   8.070   7.080 -0.4440  0.2085 -0.3535
  213MOL0     H29351   4.781   8.140   7.106  0.4683 -1.0740  0.3109
  213MOL0     H29352   4.530   8.498   7.079  0.7483 -2.8145  0.4303
  213MOL0     H29353   4.638   8.827   7.108 -1.4529  0.3985 -0.0593
  213MOL0     H29354   4.495   8.727   7.067 -1.2629  0.6775 -1.0297
  213MOL0     H29355   4.597   8.794   6.942 -1.1796  0.8483 -0.0112
  213MOL0     H29356   5.197   8.823   6.869 -0.4029 -1.0154  0.3680
  213MOL0     H29357   5.325   9.039   6.875  0.3274 -0.8862 -1.3849
  213MOL0     H29358   5.527   9.031   7.050  3.1171  0.8813  0.9118
  213MOL0     H29359   5.531   9.137   6.920  0.3129 -2.8978  0.3589
  213MOL0     H29360   5.593   9.324   7.068 -1.0574 -0.7649 -1.9487
  213MOL0     H29361   5.594   9.207   7.208  1.9614  1.9794  0.9981
  213MOL0     H29362   5.770   9.168   6.965 -4.2198  0.7981 -0.7171
  213MOL0     H29363   5.759   9.057   7.104  2.4092  1.2485  2.4590
  213MOL0     H29364   5.854   9.209   7.268  1.2257 -1.4549 -0.7648
  213MOL0     H29365   5.859   9.334   7.153 -2.8390 -0.5168  0.0515
  213MOL0     H29366   6.010   9.067   7.099  0.8174  0.2839  0.3623
  213MOL0     H29367   6.020   9.219   7.011 -1.7197 -1.5613 -1.5465
  213MOL0     H29368   6.102   9.163   7.312  1.1194 -1.2277 -0.2741
  213MOL0     H29369   6.109   9.325   7.250  3.4625 -0.8216  3.9054
  213MOL0     H29370   6.274   9.119   7.118  1.1206  0.1292  0.8763
  213MOL0     H29371   6.315   9.179   7.287  1.3289 -0.4188  0.9931
  213MOL0     H29372   6.334   9.396   7.209  0.1630 -0.2826  0.5705
  213MOL0     H29373   6.256   9.373   7.048  1.9033 -0.4320 -1.0895
  213MOL0     H29374   5.220   9.110   7.278  0.3070 -0.4549  0.1356
  213MOL0     H29375   5.068   8.947   7.272 -0.1035  1.3619  0.7558
  213MOL0     H29376   5.014   8.522   7.039  0.6045  3.9027  0.8619
  213MOL0     H29377   4.915   8.306   7.054 -0.5818 -0.0548  3.2516
  213MOL0     H29378   3.762   7.386   6.452  0.7592  0.7896  3.7417
  213MOL0     H29379   3.606   7.192   6.427 -1.4414  0.8115 -0.4554
  213MOL0     H29380   3.369   6.858   6.319  0.2493  0.2818 -0.7193
  213MOL0     H29381   3.211   6.668   6.328  0.2615 -1.5920  1.7837
  213MOL0     H29382   2.935   6.651   6.671 -1.7895 -1.2873  1.4871
  213MOL0     H29383   2.814   6.681   6.547 -1.2115 -1.0281 -1.6232
  213MOL0     H29384   2.804   6.449   6.656  0.3248  0.9503  0.6148
  213MOL0     H29385   2.971   6.428   6.580  0.8877 -0.1781 -0.5525
  213MOL0     H29386   2.703   6.457   6.449  0.3406  0.3497  0.5214
  213MOL0     H29387   2.851   6.485   6.353 -0.2366 -1.9813 -0.8343
  213MOL0     H29388   2.753   6.227   6.473 -1.5002  2.3417  0.7524
  213MOL0     H29389   2.929   6.264   6.474  0.4432 -1.5664 -1.4656
  213MOL0     H29390   2.858   6.196   6.060  1.6829  0.8584  0.3838
  213MOL0     H29391   2.944   6.896   6.572 -0.5442 -1.5193  0.1760
  213MOL0     H29392   2.944   7.133   6.547 -0.6193 -0.7115  0.3313
  213MOL0     H29393   3.090   7.185   6.633 -0.9376 -1.6009  1.3636
  213MOL0     H29394   3.072   7.220   6.465  1.2869 -1.6169 -0.9343
  214MOL0     O29395   4.542   6.836   7.021 -0.1909 -0.4001 -0.3013
  214MOL0     C29396   4.606   6.935   7.059 -0.1619  0.2332  0.7869
  214MOL0     O29397   4.737   6.939   7.115  0.5063  0.4244 -0.2381
  214MOL0     C29398   4.800   6.822   7.148 -0.4126 -0.2961 -0.4770
  214MOL0     C29399   4.872   6.813   7.269  0.9350 -0.0392  0.1002
  214MOL0     C29400   4.951   6.706   7.303  0.3028 -0.3861 -1.1612
  214MOL0     C29401   4.952   6.596   7.231 -0.4902  0.7659 -0.1911
  214MOL0     O29402   5.051   6.504   7.273 -0.5760 -0.7019  0.2108
  214MOL0     C29403   5.004   6.370   7.294  0.3174  0.4561  0.4380
  214MOL0     C29404   5.115   6.262   7.284  0.2338 -0.7166  0.4691
  214MOL0     C29405   5.227   6.288   7.386 -0.2034  0.1551 -0.8791
  214MOL0     C29406   5.320   6.172   7.381 -1.3756 -0.4275  0.0189
  214MOL0     C29407   5.447   6.211   7.463  0.0535 -0.3281  0.3491
  214MOL0     C29408   5.534   6.087   7.457 -0.7712  0.7481 -0.0242
  214MOL0     C29409   5.670   6.098   7.536  0.4301 -0.5221 -0.4419
  214MOL0     C29410   5.775   5.987   7.548  0.1996 -0.0501  1.1575
  214MOL0     N29411   5.715   5.871   7.614  0.2322 -0.3331  0.8797
  214MOL0     C29412   5.774   5.803   7.720  0.2620 -0.0045  0.2378
  214MOL0     C29413   5.720   5.681   7.718  0.2255  0.2951 -0.6844
  214MOL0     C29414   5.738   5.579   7.829 -1.1684  0.6589  0.4373
  214MOL0     C29415   5.633   5.584   7.941 -0.4381 -0.2187  0.7161
  214MOL0     C29416   5.520   5.495   7.900 -0.5262  0.1933  0.0418
  214MOL0     C29417   5.401   5.528   7.991  0.2380  0.5794  0.1785
  214MOL0     O29418   5.287   5.466   7.942 -0.4753  0.0877 -0.2454
  214MOL0     C29419   5.163   5.508   7.976 -0.5710 -0.0747  0.6772
  214MOL0     C29420   5.124   5.589   8.086 -0.3392  0.6856 -0.4019
  214MOL0     C29421   4.993   5.632   8.111  0.2563 -0.3760  0.5380
  214MOL0     C29422   4.964   5.727   8.227 -0.5450 -0.3920 -0.8472
  214MOL0     C29423   4.889   5.590   8.023  1.8144  0.2384 -0.3740
  214MOL0     C29424   4.746   5.637   8.046 -0.0654 -0.8018  0.2295
  214MOL0     O29425   4.670   5.636   7.935  0.5625  0.6501 -0.2244
  214MOL0     C29426   4.549   5.699   7.921  0.0172 -0.7777  0.5610
  214MOL0     C29427   4.531   5.836   7.939  0.2852 -0.0058  0.8500
  214MOL0     C29428   4.406   5.890   7.913  0.1051  0.3333 -0.9185
  214MOL0     C29429   4.291   5.802   7.900 -0.5356 -0.0283  0.6945
  214MOL0     O29430   4.160   5.844   7.885 -0.3481 -0.5347 -0.4461
  214MOL0     C29431   4.115   5.945   7.984 -0.4214  0.4456  0.6468
  214MOL0     C29432   4.009   6.036   7.925 -0.3895  0.1591 -0.1821
  214MOL0     C29433   3.965   6.120   8.049 -0.3116  0.5627 -0.2637
  214MOL0     C29434   3.855   6.213   8.008 -0.2741  0.1697 -1.4058
  214MOL0     C29435   3.792   6.291   8.129 -0.0044 -0.0355 -0.7646
  214MOL0     C29436   3.809   6.223   8.270 -0.5088 -0.3116  0.5148
  214MOL0     C29437   3.777   6.330   8.381 -0.0680 -0.4450 -0.3433
  214MOL0     C29438   3.625   6.353   8.407  0.2484  0.4333  0.3173
  214MOL0    Cl29439   3.549   6.199   8.447 -0.4616 -0.5424 -0.4689
  214MOL0     C29440   4.313   5.669   7.887  1.7284  0.3239  0.0676
  214MOL0     C29441   4.444   5.618   7.893 -0.2886 -0.2659  0.5024
  214MOL0     O29442   4.711   5.692   8.148 -0.0839  0.5741  0.0432
  214MOL0     C29443   4.925   5.510   7.910 -0.0121 -0.3746  0.3849
  214MOL0     C29444   5.059   5.476   7.895  0.1994 -0.0842 -0.0562
  214MOL0     N29445   5.642   5.661   7.612 -0.0861 -0.1329  0.2529
  214MOL0     N29446   5.634   5.774   7.559 -0.8202 -0.3228  0.7077
  214MOL0     C29447   4.888   6.593   7.109 -0.3408 -0.3617  0.2946
  214MOL0     C29448   4.816   6.708   7.066  0.2997  0.5055  0.1024
  214MOL0     C29449   4.525   7.060   7.026 -0.6856 -0.1224 -0.2587
  214MOL0     C29450   4.597   7.185   7.056  0.4584  0.3987 -0.0889
  214MOL0     C29451   4.541   7.312   7.033  0.1843 -0.4705  0.1367
  214MOL0     C29452   4.418   7.321   6.970 -0.1173 -0.1782 -0.5045
  214MOL0     O29453   4.362   7.447   6.949 -0.0492 -0.0811  0.6189
  214MOL0     C29454   4.370   7.480   6.810  0.0018 -0.6981 -0.0706
  214MOL0     C29455   4.262   7.580   6.775  0.5996 -0.0963 -0.3572
  214MOL0     C29456   4.114   7.533   6.797  0.9562  0.3304 -0.2883
  214MOL0     C29457   4.076   7.422   6.691  0.5066 -0.1157  0.1958
  214MOL0     C29458   4.079   7.458   6.542 -0.1475  0.3834 -0.5907
  214MOL0     C29459   4.078   7.504   6.427  0.4170  1.1873 -0.0946
  214MOL0     C29460   4.336   7.207   6.966  0.7298 -0.3944 -0.2123
  214MOL0     C29461   4.388   7.077   6.999 -0.2466  0.2429 -0.1196
  214MOL0     C29462   4.283   6.975   7.022  0.9402 -0.3168 -0.9415
  214MOL0     H29463   4.869   6.897   7.339  1.3042  0.6296 -0.6746
  214MOL0     H29464   5.013   6.693   7.391 -0.0804 -2.1993 -1.1357
  214MOL0     H29465   4.934   6.341   7.215 -1.0399 -0.5209  1.9448
  214MOL0     H29466   4.950   6.365   7.389  1.1912  0.2227  0.9388
  214MOL0     H29467   5.076   6.161   7.298 -0.7412 -0.1970  1.6013
  214MOL0     H29468   5.161   6.252   7.185 -0.0054  0.5221  0.2192
  214MOL0     H29469   5.281   6.380   7.359 -0.1274  1.6549  3.5698
  214MOL0     H29470   5.192   6.307   7.488 -1.0980 -0.3047 -1.0923
  214MOL0     H29471   5.275   6.076   7.411 -1.0612 -0.8837 -0.9279
  214MOL0     H29472   5.345   6.154   7.276 -1.2788  0.1774 -0.0631
  214MOL0     H29473   5.426   6.243   7.566  3.2309  5.8600 -0.4267
  214MOL0     H29474   5.497   6.291   7.408 -4.7653  0.8569 -2.9368
  214MOL0     H29475   5.489   5.995   7.495 -4.2426  2.5767  0.6447
  214MOL0     H29476   5.551   6.078   7.349  0.0672  2.7579 -0.1073
  214MOL0     H29477   5.640   6.130   7.637  2.6372  1.7993 -0.4226
  214MOL0     H29478   5.720   6.187   7.497 -2.0957  2.0430  1.6895
  214MOL0     H29479   5.798   5.964   7.443 -1.3615 -1.0393  0.9879
  214MOL0     H29480   5.875   6.019   7.577  2.4993 -1.8300 -3.7546
  214MOL0     H29481   5.857   5.832   7.784  1.3092 -0.5821 -0.8174
  214MOL0     H29482   5.837   5.590   7.873 -1.2719  0.5040  0.7143
  214MOL0     H29483   5.738   5.480   7.781  1.1901 -1.2140  3.9098
  214MOL0     H29484   5.666   5.538   8.034  0.6679  1.8852  1.4271
  214MOL0     H29485   5.600   5.688   7.950 -0.9596 -0.4964  2.3407
  214MOL0     H29486   5.480   5.515   7.800 -0.1185  0.1874 -0.1214
  214MOL0     H29487   5.551   5.391   7.909  0.7416  0.2918 -2.3970
  214MOL0     H29488   5.423   5.494   8.092 -1.1716 -2.5881 -0.4656
  214MOL0     H29489   5.398   5.637   8.002  2.2245  0.7905 -0.8325
  214MOL0     H29490   5.196   5.632   8.155 -0.1645 -0.9885  0.5227
  214MOL0     H29491   5.052   5.764   8.280 -1.2433  1.3780 -0.8524
  214MOL0     H29492   4.899   5.675   8.298 -1.8088  2.0803 -0.0803
  214MOL0     H29493   4.907   5.809   8.183 -1.5011  0.0690  1.1320
  214MOL0     H29494   4.602   5.905   7.984 -1.1575  2.1477  0.0328
  214MOL0     H29495   4.380   5.995   7.911 -1.0267  0.0670 -3.0156
  214MOL0     H29496   4.084   5.901   8.079  0.2122  1.5968  1.4179
  214MOL0     H29497   4.201   6.008   8.007  0.3270 -1.1844  2.5566
  214MOL0     H29498   4.049   6.099   7.845 -0.9118  1.2568  0.4086
  214MOL0     H29499   3.927   5.981   7.877 -2.2695  4.6551 -2.7554
  214MOL0     H29500   4.055   6.174   8.081  1.1541  0.7055 -4.1066
  214MOL0     H29501   3.925   6.058   8.129 -0.7249  1.0225 -0.1093
  214MOL0     H29502   3.762   6.161   7.984 -1.1501  1.3881 -0.7651
  214MOL0     H29503   3.885   6.276   7.923  0.0179  1.4942 -0.3577
  214MOL0     H29504   3.854   6.380   8.116 -0.5767  0.4771 -0.0571
  214MOL0     H29505   3.688   6.319   8.110 -0.5226 -0.8522  0.7502
  214MOL0     H29506   3.915   6.203   8.290  0.3177  2.2208 -0.9441
  214MOL0     H29507   3.739   6.139   8.270 -0.7316 -0.1633 -1.0643
  214MOL0     H29508   3.827   6.424   8.355 -0.3945  0.5772  2.3569
  214MOL0     H29509   3.824   6.296   8.474  0.7358 -0.6947 -0.8292
  214MOL0     H29510   3.579   6.380   8.312 -1.1491  0.0630  0.8617
  214MOL0     H29511   3.610   6.432   8.480  0.6720  0.8979 -0.0906
  214MOL0     H29512   4.221   5.616   7.863  0.7967  1.4388  0.9825
  214MOL0     H29513   4.455   5.510   7.891  2.5508 -0.0605  0.9211
  214MOL0     H29514   4.847   5.475   7.842 -0.0287  1.1063 -0.4006
  214MOL0     H29515   5.080   5.420   7.804  2.6909  1.5806 -0.5978
  214MOL0     H29516   4.906   6.511   7.039 -0.4076 -1.4654  1.5298
  214MOL0     H29517   4.781   6.705   6.964  2.2413 -3.2204 -0.6410
  214MOL0     H29518   4.695   7.182   7.102  1.5444  1.4726 -2.1775
  214MOL0     H29519   4.596   7.400   7.066  0.4515 -1.0901  1.4072
  214MOL0     H29520   4.465   7.529   6.790 -1.4527  1.8976 -1.0564
  214MOL0     H29521   4.350   7.390   6.752 -0.8417 -3.1541  3.6343
  214MOL0     H29522   4.273   7.618   6.672  0.2780  1.9738  0.3259
  214MOL0     H29523   4.261   7.668   6.840 -0.2191  1.1628 -1.9740
  214MOL0     H29524   4.098   7.489   6.896  0.1541 -0.9112 -0.9406
  214MOL0     H29525   4.041   7.614   6.788 -3.7168 -3.6400 -2.8619
  214MOL0     H29526   3.972   7.394   6.711 -0.7919 -0.0740 -5.1857
  214MOL0     H29527   4.124   7.325   6.710  0.4439 -0.5123 -1.5481
  214MOL0     H29528   4.077   7.544   6.328 -1.3306  1.0768 -0.1610
  214MOL0     H29529   4.229   7.221   6.952  0.8447  2.0368  0.7604
  214MOL0     H29530   4.182   7.013   7.006 -0.1475 -1.8684  1.6153
  214MOL0     H29531   4.303   6.881   6.969 -0.3133 -1.1234 -0.0565
  214MOL0     H29532   4.282   6.956   7.130 -0.5213 -0.8064 -1.0190
  215MOL0     O29533   6.126   0.489   1.533 -0.3318 -0.1170 -0.4225
  215MOL0     C29534   6.194   0.397   1.485  0.0721  0.1614  0.3809
  215MOL0     O29535   6.276   0.407   1.376  0.2889  0.3317  0.0563
  215MOL0     C29536   6.320   0.535   1.341 -0.1400  0.6906  0.5828
  215MOL0     C29537   6.223   0.615   1.283 -0.6561 -0.7623  0.8794
  215MOL0     C29538   6.254   0.751   1.247 -0.3380  0.3752 -0.3686
  215MOL0     C29539   6.392   0.794   1.262  0.3827  0.5308  0.6061
  215MOL0     O29540   6.445   0.919   1.240 -0.1338 -0.1317  0.2765
  215MOL0     C29541   6.355   1.015   1.174 -0.6070 -0.3005 -0.1833
  215MOL0     C29542   6.346   0.989   1.030  0.1199  0.4072  0.6467
  215MOL0     C29543   6.240   1.068   0.964 -0.1256 -0.1334 -0.3898
  215MOL0     C29544   6.192   1.015   0.831 -0.1242 -0.3965 -0.0709
  215MOL0     C29545   6.084   1.093   0.748  0.0041  0.2174  0.5359
  215MOL0     C29546   6.141   1.206   0.668  0.4400 -0.9372 -0.2979
  215MOL0     C29547   6.022   1.273   0.590 -0.7844 -0.0679 -0.1064
  215MOL0     C29548   6.075   1.392   0.505  0.8577 -0.1136 -0.4730
  215MOL0     N29549   6.169   1.364   0.396  0.8485 -0.1661  0.0995
  215MOL0     C29550   6.304   1.351   0.402  0.8650  0.5743  1.0320
  215MOL0     C29551   6.337   1.307   0.275 -0.2925 -0.0933 -0.5681
  215MOL0     C29552   6.477   1.274   0.228 -0.7092  0.0791 -0.1279
  215MOL0     C29553   6.523   1.158   0.301 -0.7484 -0.2660  0.1181
  215MOL0     C29554   6.671   1.178   0.328 -0.3090 -0.5089 -0.7718
  215MOL0     C29555   6.732   1.051   0.374 -0.3462 -0.0780 -0.0375
  215MOL0     O29556   6.757   0.966   0.264  0.4331  0.4605  0.2720
  215MOL0     C29557   6.881   0.959   0.214 -0.6560 -0.0614  0.6805
  215MOL0     C29558   6.904   0.868   0.107 -0.0310  0.2131 -0.2134
  215MOL0     C29559   7.028   0.848   0.045  0.8380 -0.0542 -0.9202
  215MOL0     C29560   7.045   0.776  -0.086 -1.0719  0.3004 -0.0543
  215MOL0     C29561   7.140   0.910   0.106  0.2581  0.2914 -0.8142
  215MOL0     C29562   7.280   0.873   0.062  0.0014 -0.3218 -0.0189
  215MOL0     O29563   7.380   0.968   0.089  0.2331 -0.0512 -0.4793
  215MOL0     C29564   7.509   0.918   0.095  0.2352 -0.0794 -0.5418
  215MOL0     C29565   7.551   0.805   0.175 -0.2509  0.4123 -0.4321
  215MOL0     C29566   7.689   0.773   0.183 -0.2500 -0.1107  0.7426
  215MOL0     C29567   7.785   0.857   0.134  0.7020  0.3520 -0.6249
  215MOL0     O29568   7.920   0.855   0.156 -0.1778 -0.1558 -0.1710
  215MOL0     C29569   7.965   0.760   0.247  0.1821  0.3188 -0.4444
  215MOL0     C29570   8.116   0.771   0.261 -0.2898 -0.1608 -0.1843
  215MOL0     C29571   8.166   0.673   0.364  0.6451 -0.2257  0.0711
  215MOL0     C29572   8.315   0.677   0.369  0.2285  0.5767  0.0247
  215MOL0     C29573   8.380   0.588   0.480  0.3843 -0.3670 -0.0850
  215MOL0     C29574   8.330   0.623   0.620  0.7496 -0.3358 -0.0027
  215MOL0     C29575   8.423   0.579   0.727  0.6236  0.2961 -0.1734
  215MOL0     C29576   8.372   0.590   0.869  0.0813 -0.6239 -0.0020
  215MOL0    Cl29577   8.507   0.533   0.977 -0.7198 -0.3437 -0.4695
  215MOL0     C29578   7.746   0.968   0.063  0.5257  1.2091  0.3912
  215MOL0     C29579   7.610   1.002   0.043 -1.3477  0.3677  0.3395
  215MOL0     O29580   7.300   0.760   0.025 -1.1336  0.4479 -1.0064
  215MOL0     C29581   7.120   1.004   0.202 -0.0328 -0.2585 -0.0874
  215MOL0     C29582   6.995   1.021   0.262 -0.2600  0.5599 -0.0228
  215MOL0     N29583   6.232   1.303   0.196  0.0708  0.4833 -0.2181
  215MOL0     N29584   6.130   1.336   0.266 -0.6119  0.0791  0.2574
  215MOL0     C29585   6.484   0.700   1.312 -0.7249 -0.0162  0.3810
  215MOL0     C29586   6.448   0.570   1.344 -1.1750 -0.1852  0.4487
  215MOL0     C29587   6.189   0.266   1.550  0.0232 -1.0476 -0.2644
  215MOL0     C29588   6.062   0.229   1.601 -0.3215 -0.0474 -0.4597
  215MOL0     C29589   6.033   0.101   1.664 -0.2122 -0.1586 -0.4816
  215MOL0     C29590   6.138   0.010   1.669 -0.6589  0.0587  0.4181
  215MOL0     O29591   6.113  -0.124   1.704 -0.2509  0.0136  0.4634
  215MOL0     C29592   6.027  -0.194   1.616 -0.5242  1.3913  0.5399
  215MOL0     C29593   6.110  -0.270   1.513  0.4168 -0.6929  0.5339
  215MOL0     C29594   6.033  -0.372   1.430  0.0808 -0.3312 -1.1336
  215MOL0     C29595   6.127  -0.442   1.341 -0.8374 -0.0703  0.1330
  215MOL0     C29596   6.180  -0.565   1.408 -1.1018 -0.1805  0.5612
  215MOL0     C29597   6.237  -0.671   1.431 -0.1052 -1.1249 -0.1469
  215MOL0     C29598   6.273   0.046   1.631  0.0412 -0.3146  0.0146
  215MOL0     C29599   6.294   0.173   1.568  0.2949  0.3675 -0.8672
  215MOL0     C29600   6.431   0.199   1.525  0.5269  0.2542  0.1584
  215MOL0     H29601   6.129   0.565   1.262 -0.2203 -0.3544 -2.5644
  215MOL0     H29602   6.179   0.818   1.206 -1.3758  0.4857  1.6082
  215MOL0     H29603   6.385   1.119   1.193  0.0499 -0.2888 -1.2140
  215MOL0     H29604   6.253   1.016   1.214 -1.2827 -0.4356 -1.8655
  215MOL0     H29605   6.441   1.019   0.984 -0.4647 -1.5250 -2.0639
  215MOL0     H29606   6.330   0.882   1.017  2.7221  0.0958 -0.5990
  215MOL0     H29607   6.155   1.072   1.032 -0.2123 -0.6946 -0.4598
  215MOL0     H29608   6.265   1.173   0.945 -1.0953  0.8443  3.1175
  215MOL0     H29609   6.284   0.999   0.774  0.5932  0.5307  0.7862
  215MOL0     H29610   6.152   0.916   0.848  0.0765 -0.9584 -2.4570
  215MOL0     H29611   6.005   1.115   0.821 -2.2264 -2.0099 -1.0237
  215MOL0     H29612   6.045   1.021   0.676  3.0458 -1.1322  0.1281
  215MOL0     H29613   6.187   1.277   0.737 -0.0290  0.0021 -0.9361
  215MOL0     H29614   6.213   1.163   0.597 -2.5131 -4.0779 -1.6490
  215MOL0     H29615   5.941   1.299   0.659  1.3587  0.9181  2.1701
  215MOL0     H29616   5.979   1.207   0.514  1.6035  1.4462 -2.9873
  215MOL0     H29617   5.987   1.445   0.468  0.3298 -0.4302  0.3009
  215MOL0     H29618   6.130   1.460   0.571  1.8949  1.1822 -2.5385
  215MOL0     H29619   6.373   1.373   0.483  0.4851  1.2569  1.1692
  215MOL0     H29620   6.548   1.357   0.241 -0.7002  0.0930 -0.2642
  215MOL0     H29621   6.476   1.250   0.121 -1.9332  2.8401 -0.8175
  215MOL0     H29622   6.476   1.166   0.399 -3.2998 -2.5354 -0.8229
  215MOL0     H29623   6.499   1.062   0.255  1.3848 -0.9147  0.2485
  215MOL0     H29624   6.710   1.214   0.233 -4.1808  1.5789 -1.7676
  215MOL0     H29625   6.686   1.246   0.412 -2.3877  0.4521 -1.1181
  215MOL0     H29626   6.811   1.056   0.449  0.5576 -0.7344 -0.9191
  215MOL0     H29627   6.663   0.999   0.441  0.2008 -2.3972 -1.1895
  215MOL0     H29628   6.820   0.817   0.060 -0.0346  0.4242 -0.4366
  215MOL0     H29629   7.107   0.836  -0.154  0.7514 -2.2415 -0.7897
  215MOL0     H29630   6.945   0.773  -0.129 -0.4193  0.3637 -1.6501
  215MOL0     H29631   7.070   0.671  -0.069 -3.4444 -0.1140  1.3120
  215MOL0     H29632   7.477   0.752   0.234  1.9564 -1.5957  0.6859
  215MOL0     H29633   7.719   0.688   0.244 -1.0401 -0.6562  0.3918
  215MOL0     H29634   7.903   0.782   0.335 -0.1916  0.8704 -0.8414
  215MOL0     H29635   7.946   0.660   0.208  1.1489  0.8364 -2.3882
  215MOL0     H29636   8.153   0.735   0.164 -1.9798  0.4112 -1.0972
  215MOL0     H29637   8.154   0.871   0.284 -2.0342  0.1552  1.6684
  215MOL0     H29638   8.134   0.575   0.330  2.0853 -0.6481 -0.1285
  215MOL0     H29639   8.131   0.704   0.463  0.3648  0.0077 -0.0980
  215MOL0     H29640   8.341   0.783   0.380 -0.1412  0.6478  0.2024
  215MOL0     H29641   8.344   0.631   0.274 -1.9234 -2.1124  0.5515
  215MOL0     H29642   8.362   0.482   0.459 -2.7277  0.1342 -0.3670
  215MOL0     H29643   8.489   0.599   0.477  0.6459 -2.6137 -0.3886
  215MOL0     H29644   8.240   0.563   0.636  0.0766  0.3824 -0.9938
  215MOL0     H29645   8.311   0.730   0.625  2.6941  0.1126 -1.1417
  215MOL0     H29646   8.523   0.623   0.726  0.4236  0.7915  0.4551
  215MOL0     H29647   8.449   0.473   0.718 -0.4593  0.1053 -1.3725
  215MOL0     H29648   8.275   0.541   0.886 -0.8816  1.3897  0.6730
  215MOL0     H29649   8.360   0.698   0.876  0.8460 -0.3815 -1.9264
  215MOL0     H29650   7.830   1.035   0.047  1.6440 -0.3669 -0.5420
  215MOL0     H29651   7.574   1.092  -0.006 -1.1148 -0.0209 -0.5498
  215MOL0     H29652   7.206   1.044   0.255 -0.9536 -1.1664  2.2215
  215MOL0     H29653   6.997   1.095   0.341  0.1783 -2.8278  3.3804
  215MOL0     H29654   6.588   0.728   1.329 -1.1524  1.1501  1.1959
  215MOL0     H29655   6.517   0.495   1.382  0.6482  0.4019 -1.4931
  215MOL0     H29656   5.981   0.300   1.587 -1.5023 -0.6907  2.2629
  215MOL0     H29657   5.940   0.075   1.713 -0.2872  1.1652  0.1154
  215MOL0     H29658   5.963  -0.257   1.679 -0.2426  0.2379 -0.2966
  215MOL0     H29659   5.958  -0.127   1.564 -2.3061 -0.1926  0.7290
  215MOL0     H29660   6.183  -0.328   1.570  2.8558  0.6401 -1.0652
  215MOL0     H29661   6.167  -0.208   1.444  0.9042 -0.0645  1.4721
  215MOL0     H29662   5.974  -0.442   1.489 -0.4969 -0.9150 -2.3661
  215MOL0     H29663   5.952  -0.314   1.385 -1.7093  2.0143  4.2701
  215MOL0     H29664   6.211  -0.379   1.311 -1.9484  0.8975 -1.0589
  215MOL0     H29665   6.079  -0.474   1.248  0.3773 -1.5835 -0.0037
  215MOL0     H29666   6.296  -0.756   1.461 -0.2809 -0.8973  0.8766
  215MOL0     H29667   6.360  -0.020   1.632 -0.3664 -0.8673 -0.3902
  215MOL0     H29668   6.500   0.175   1.607 -0.3066 -0.1716  0.7456
  215MOL0     H29669   6.447   0.123   1.447 -1.4999 -1.0884  0.9853
  215MOL0     H29670   6.445   0.302   1.491 -0.7322  0.2077 -0.5731
  216MOL0     O29671  10.265  11.456   4.111 -0.5699  0.4484  0.2722
  216MOL0     C29672  10.235  11.497   3.997  0.3589  0.3511  0.0543
  216MOL0     O29673  10.243  11.422   3.877 -0.0455  0.0334  0.0601
  216MOL0     C29674  10.338  11.326   3.863 -0.9032  0.0744 -0.1730
  216MOL0     C29675  10.407  11.257   3.964 -0.9541  0.0152  0.0283
  216MOL0     C29676  10.510  11.160   3.943  0.4759  0.5828 -0.3042
  216MOL0     C29677  10.536  11.122   3.818  0.9687 -0.4388  0.6615
  216MOL0     O29678  10.632  11.019   3.798 -0.1470  0.6258 -1.3265
  216MOL0     C29679  10.692  11.023   3.669  0.0771  0.5773  0.1930
  216MOL0     C29680  10.818  10.934   3.690 -0.1781 -0.0820 -0.1431
  216MOL0     C29681  10.886  10.899   3.550 -0.0119  0.4329  0.7125
  216MOL0     C29682  11.035  10.847   3.536  1.1243  1.1789  0.8239
  216MOL0     C29683  11.111  10.965   3.579  0.5115  0.1924 -1.0181
  216MOL0     C29684  11.264  10.947   3.572 -1.0847  0.2286  0.1303
  216MOL0     C29685  11.308  10.851   3.689  0.8555 -0.1372  0.3195
  216MOL0     C29686  11.465  10.884   3.707  0.2271  0.3772 -0.5620
  216MOL0     N29687  11.508  11.024   3.715 -0.9514 -0.1592  0.2678
  216MOL0     C29688  11.435  11.126   3.780  0.1186 -0.4319  1.1071
  216MOL0     C29689  11.498  11.237   3.744  1.4065  0.5783  0.0244
  216MOL0     C29690  11.440  11.378   3.754 -0.7963 -0.4171 -0.6711
  216MOL0     C29691  11.381  11.423   3.621  0.5045  0.1173  0.0961
  216MOL0     C29692  11.237  11.370   3.620  0.2541  0.9303 -0.0261
  216MOL0     C29693  11.152  11.418   3.505 -0.3439 -0.4137  0.3862
  216MOL0     O29694  11.103  11.542   3.544 -0.3206 -0.4816 -0.0088
  216MOL0     C29695  10.992  11.596   3.484 -0.1343 -0.3459 -0.6818
  216MOL0     C29696  10.966  11.727   3.531  0.2431  1.8161 -0.2384
  216MOL0     C29697  10.866  11.804   3.463 -0.2580  0.0495  0.8140
  216MOL0     C29698  10.845  11.953   3.495 -1.0061 -0.1472 -0.3801
  216MOL0     C29699  10.775  11.738   3.375  0.2538 -0.3172 -0.9226
  216MOL0     C29700  10.663  11.799   3.304  0.5341 -0.9853 -0.2654
  216MOL0     O29701  10.657  11.924   3.264 -0.0048 -0.1149 -0.3104
  216MOL0     C29702  10.550  11.976   3.194 -0.0037  0.5434 -0.0171
  216MOL0     C29703  10.576  12.017   3.066  0.1241  0.0363 -0.0047
  216MOL0     C29704  10.477  12.059   2.977 -0.4460 -1.1785 -0.9078
  216MOL0     C29705  10.348  12.058   3.029  0.7204 -0.6685  0.6138
  216MOL0     O29706  10.225  12.083   2.967  0.2630  0.0145 -0.2683
  216MOL0     C29707  10.227  12.068   2.828  0.4162  0.3749  0.1057
  216MOL0     C29708  10.091  12.062   2.766  1.1541  0.4091  0.0165
  216MOL0     C29709  10.007  11.931   2.812  1.2070 -0.0915  0.2273
  216MOL0     C29710  10.081  11.800   2.774 -0.1513  0.2899  0.7605
  216MOL0     C29711  10.085  11.794   2.625 -1.2748  0.4522  0.1472
  216MOL0     C29712  10.094  11.657   2.562 -0.2166 -0.6550 -0.1808
  216MOL0     C29713  10.196  11.568   2.636 -0.5883 -0.1889 -0.5226
  216MOL0     C29714  10.329  11.579   2.566  0.1866  0.1233 -0.2177
  216MOL0    Cl29715  10.400  11.416   2.548 -0.3885 -0.0649  0.4934
  216MOL0     C29716  10.318  12.024   3.160  0.2640  0.7293  0.3395
  216MOL0     C29717  10.415  11.976   3.240  0.0958  0.2727  0.3974
  216MOL0     O29718  10.574  11.714   3.285 -0.7144 -0.3045  0.0173
  216MOL0     C29719  10.798  11.592   3.359 -0.0342 -0.0938  0.4555
  216MOL0     C29720  10.907  11.525   3.410 -0.1927 -0.3398 -0.0783
  216MOL0     N29721  11.617  11.199   3.680 -0.1185 -0.2676 -0.0826
  216MOL0     N29722  11.614  11.076   3.652  0.4238  0.4266 -0.1221
  216MOL0     C29723  10.458  11.173   3.707  0.9120 -0.2493 -0.3896
  216MOL0     C29724  10.358  11.270   3.734 -1.0234 -0.1094  0.2467
  216MOL0     C29725  10.163  11.627   3.991 -0.3507 -1.2247  0.3755
  216MOL0     C29726  10.141  11.691   3.871 -0.0929 -0.1321  1.0032
  216MOL0     C29727  10.075  11.813   3.862  0.0336  0.7462  0.0917
  216MOL0     C29728  10.045  11.887   3.974  0.1350  0.8154  0.3656
  216MOL0     O29729   9.991  12.019   3.977  0.2964  0.3741  0.5577
  216MOL0     C29730   9.958  12.072   3.846 -0.6694  0.1589 -1.1459
  216MOL0     C29731   9.922  12.223   3.843 -0.2954 -0.6464  0.5292
  216MOL0     C29732  10.042  12.291   3.918  0.0556 -0.8147 -0.4352
  216MOL0     C29733  10.024  12.449   3.923 -0.0093 -0.8327 -0.2389
  216MOL0     C29734   9.908  12.494   4.001 -0.3090 -1.2882 -0.6339
  216MOL0     C29735   9.807  12.534   4.057 -0.3508  0.9100 -0.1206
  216MOL0     C29736  10.072  11.831   4.095 -0.8384 -0.7411  0.3657
  216MOL0     C29737  10.125  11.702   4.108  1.2443  0.3382  0.4014
  216MOL0     C29738  10.126  11.661   4.253 -0.0504  0.2195  0.5237
  216MOL0     H29739  10.383  11.269   4.069 -0.2714  0.1963  0.1689
  216MOL0     H29740  10.553  11.111   4.030  1.9795 -0.3409 -1.5245
  216MOL0     H29741  10.726  11.120   3.633 -0.1801  0.3411 -0.7083
  216MOL0     H29742  10.629  10.969   3.598  2.7681  0.7117 -2.4674
  216MOL0     H29743  10.880  10.989   3.761  0.8386 -2.7716  1.1661
  216MOL0     H29744  10.788  10.847   3.748  0.4036  1.5022  2.6878
  216MOL0     H29745  10.823  10.815   3.518  1.4371 -0.4435  0.0424
  216MOL0     H29746  10.873  10.976   3.473 -0.8518 -0.8548 -0.4841
  216MOL0     H29747  11.051  10.768   3.609  0.8288 -0.3712 -0.7285
  216MOL0     H29748  11.060  10.809   3.437 -1.5775 -1.6333  1.0603
  216MOL0     H29749  11.078  10.990   3.681 -2.2156 -1.0944 -1.5085
  216MOL0     H29750  11.085  11.052   3.518  1.5697  0.8806 -0.5199
  216MOL0     H29751  11.289  10.897   3.478  1.4468 -0.9852  1.3338
  216MOL0     H29752  11.304  11.049   3.572 -1.4678  0.4006  1.6090
  216MOL0     H29753  11.303  10.743   3.680  0.5686 -0.0377 -0.8091
  216MOL0     H29754  11.256  10.878   3.782  0.4397  2.4477 -0.5712
  216MOL0     H29755  11.495  10.831   3.798  1.0107  0.4781 -0.7492
  216MOL0     H29756  11.510  10.836   3.619  2.9864  0.0284  0.8983
  216MOL0     H29757  11.338  11.117   3.827 -0.5034 -2.8702 -0.4505
  216MOL0     H29758  11.523  11.438   3.791  0.3168 -2.2694 -0.0514
  216MOL0     H29759  11.358  11.386   3.826 -1.3102  2.1067 -1.4310
  216MOL0     H29760  11.400  11.531   3.613  0.2338  0.0242 -3.1252
  216MOL0     H29761  11.432  11.370   3.539  1.3892  0.6086  0.3219
  216MOL0     H29762  11.235  11.261   3.608 -0.8154  1.1096 -1.7786
  216MOL0     H29763  11.182  11.396   3.712  0.6496  0.8408  0.2366
  216MOL0     H29764  11.208  11.434   3.412 -0.2802  1.9843  0.7762
  216MOL0     H29765  11.083  11.338   3.475  1.7448 -2.4067  0.5978
  216MOL0     H29766  11.024  11.786   3.601  1.5434  0.8941 -0.4870
  216MOL0     H29767  10.937  11.992   3.541 -0.4515  0.7205 -2.1554
  216MOL0     H29768  10.755  11.969   3.554 -1.2263  0.6140 -0.9091
  216MOL0     H29769  10.841  12.005   3.399 -2.0647 -1.1909 -0.9135
  216MOL0     H29770  10.676  12.011   3.027 -0.1042  1.2768 -0.8227
  216MOL0     H29771  10.495  12.076   2.871 -1.5056 -2.7949 -1.3894
  216MOL0     H29772  10.279  12.158   2.792  0.2622  0.7725  0.8384
  216MOL0     H29773  10.275  11.972   2.807 -0.0538  0.6601 -2.5698
  216MOL0     H29774  10.056  12.160   2.801  4.5901  1.9513 -0.3970
  216MOL0     H29775  10.102  12.080   2.658  4.5585  1.5775  0.4227
  216MOL0     H29776   9.906  11.930   2.770  1.2166  2.2848 -0.0316
  216MOL0     H29777   9.971  11.938   2.915 -1.2709  0.3298 -0.5893
  216MOL0     H29778  10.025  11.713   2.810  0.1923 -0.9641 -1.5599
  216MOL0     H29779  10.171  11.789   2.835 -0.4127 -3.1490  0.7161
  216MOL0     H29780   9.998  11.839   2.577  1.2518  2.9190 -2.6340
  216MOL0     H29781  10.169  11.857   2.593 -1.8076  0.5834 -1.0329
  216MOL0     H29782  10.096  11.657   2.452 -3.9654 -0.4047 -0.3923
  216MOL0     H29783   9.997  11.609   2.577 -0.9315 -0.6867 -3.7989
  216MOL0     H29784  10.164  11.463   2.633  0.7068 -0.5796 -2.5403
  216MOL0     H29785  10.219  11.603   2.737 -0.3568  1.5245 -1.1375
  216MOL0     H29786  10.395  11.652   2.614  3.3142 -1.5589 -1.6057
  216MOL0     H29787  10.315  11.615   2.463 -0.3297 -2.3857 -1.0951
  216MOL0     H29788  10.212  12.017   3.183 -0.2138 -1.5933 -2.1564
  216MOL0     H29789  10.394  11.930   3.337  1.8565 -2.3665 -0.3672
  216MOL0     H29790  10.719  11.533   3.313 -0.9399  2.8807 -2.1612
  216MOL0     H29791  10.910  11.418   3.394 -0.8615 -0.9293  2.9701
  216MOL0     H29792  10.462  11.136   3.605 -1.8791 -2.0979  0.0652
  216MOL0     H29793  10.302  11.325   3.660 -1.8394 -1.1687  0.0565
  216MOL0     H29794  10.165  11.633   3.783 -2.0144 -1.3659  1.2196
  216MOL0     H29795  10.050  11.840   3.760  0.5147 -0.2032 -0.2945
  216MOL0     H29796  10.035  12.062   3.769  1.0709  1.0381  0.3904
  216MOL0     H29797   9.869  12.014   3.821 -1.5177  0.8180  0.1961
  216MOL0     H29798   9.828  12.230   3.899 -0.4869 -2.1881  0.4461
  216MOL0     H29799   9.912  12.264   3.742  3.6858 -0.1848  0.1673
  216MOL0     H29800  10.040  12.259   4.023 -0.7679  2.3558  0.6373
  216MOL0     H29801  10.131  12.260   3.864 -0.1479 -1.8280 -0.2109
  216MOL0     H29802  10.017  12.490   3.822  0.6404 -0.7937 -0.2691
  216MOL0     H29803  10.116  12.493   3.964 -0.6754 -1.1031  1.6758
  216MOL0     H29804   9.727  12.585   4.107  0.1154 -0.7760  2.5725
  216MOL0     H29805  10.048  11.896   4.179  0.1169  2.7393 -1.8235
  216MOL0     H29806  10.056  11.578   4.262  1.5366 -1.3579 -0.9945
  216MOL0     H29807  10.223  11.623   4.284 -0.1274  0.7915  1.5193
  216MOL0     H29808  10.099  11.748   4.314 -1.2370  1.1894 -1.2880
  217MOL0     O29809  10.366   1.955  10.946  0.5137 -0.4046  0.7091
  217MOL0     C29810  10.363   2.060  10.885 -0.0870  1.0435 -0.2792
  217MOL0     O29811  10.478   2.128  10.843 -0.3270 -0.0086  0.2503
  217MOL0     C29812  10.601   2.113  10.894  0.1186  0.6826  0.6070
  217MOL0     C29813  10.628   2.075  11.024 -0.3054 -0.4799  0.5457
  217MOL0     C29814  10.770   2.083  11.064  0.4057  0.8409 -0.0174
  217MOL0     C29815  10.871   2.121  10.979 -0.0483 -0.4436  0.8397
  217MOL0     O29816  10.994   2.110  11.030  0.0007  0.3607 -0.0921
  217MOL0     C29817  11.094   2.087  10.929 -0.6256 -0.0523  0.3983
  217MOL0     C29818  11.222   2.053  10.999 -0.2243  0.7939 -1.1182
  217MOL0     C29819  11.205   1.936  11.101  0.4080  0.5092  0.3971
  217MOL0     C29820  11.344   1.888  11.143 -0.3291  1.0475 -0.6971
  217MOL0     C29821  11.339   1.789  11.250  0.2993  0.0638 -0.9056
  217MOL0     C29822  11.481   1.757  11.301  0.2087  0.2672  1.3020
  217MOL0     C29823  11.478   1.648  11.408  0.0563 -0.6598 -0.2360
  217MOL0     C29824  11.624   1.624  11.450  0.4819 -0.4975  0.7069
  217MOL0     N29825  11.627   1.532  11.562 -0.8332  0.6964 -0.6764
  217MOL0     C29826  11.683   1.400  11.543  0.7210 -0.5039  0.4109
  217MOL0     C29827  11.685   1.356  11.671 -0.7358 -0.0966 -0.0990
  217MOL0     C29828  11.755   1.227  11.713 -0.5802 -0.0710  0.2570
  217MOL0     C29829  11.760   1.204  11.863  0.7159 -0.7018  1.1757
  217MOL0     C29830  11.640   1.119  11.898  0.3772  1.3960 -0.7172
  217MOL0     C29831  11.634   1.096  12.048 -0.3929 -0.1451 -0.7904
  217MOL0     O29832  11.758   1.053  12.101  0.1717 -0.3131  0.3876
  217MOL0     C29833  11.757   1.033  12.239  0.0875  0.0102  0.1839
  217MOL0     C29834  11.882   1.028  12.303 -0.2114 -0.7373  0.7721
  217MOL0     C29835  11.902   0.992  12.438  0.6506 -1.0226 -0.3119
  217MOL0     C29836  12.047   1.007  12.484 -0.1164 -0.4759 -0.2408
  217MOL0     C29837  11.780   0.951  12.510 -0.9286  0.1908  0.3710
  217MOL0     C29838  11.768   0.921  12.654 -0.3836 -0.1537  0.8341
  217MOL0     O29839  11.638   0.906  12.706  0.2927 -0.8387 -0.6484
  217MOL0     C29840  11.625   0.897  12.840  0.4703  0.3772 -0.7450
  217MOL0     C29841  11.654   0.775  12.906  0.2885 -0.0951  0.2148
  217MOL0     C29842  11.643   0.768  13.044 -0.0627 -0.1106 -0.4499
  217MOL0     C29843  11.592   0.877  13.118 -0.3713  0.1853 -0.8807
  217MOL0     O29844  11.570   0.878  13.250 -0.4182 -0.5413 -0.5104
  217MOL0     C29845  11.684   0.835  13.317  0.1296  0.6722  0.2855
  217MOL0     C29846  11.700   0.930  13.429 -0.4117  0.8172  0.3373
  217MOL0     C29847  11.792   0.874  13.543 -1.0742 -0.2561  0.1535
  217MOL0     C29848  11.937   0.852  13.498 -0.7189  0.8317 -0.1922
  217MOL0     C29849  12.019   0.813  13.623  0.1359  0.0901  0.2443
  217MOL0     C29850  12.173   0.801  13.599 -0.2566  0.5882  0.6141
  217MOL0     C29851  12.243   0.787  13.737  0.2522  0.6708 -0.2794
  217MOL0     C29852  12.396   0.787  13.718 -0.3543  0.4294  0.8107
  217MOL0    Cl29853  12.452   0.767  13.887  0.3190 -0.2026  0.4484
  217MOL0     C29854  11.564   1.000  13.052 -0.8550 -0.2168 -0.5495
  217MOL0     C29855  11.582   1.006  12.916 -0.6097 -0.0205  0.1455
  217MOL0     O29856  11.876   0.932  12.725 -0.3585  0.1119  0.0691
  217MOL0     C29857  11.653   0.961  12.441 -0.1572 -0.1480  0.3296
  217MOL0     C29858  11.646   0.995  12.302 -0.1340  0.6096  0.2629
  217MOL0     N29859  11.623   1.453  11.753  0.1258 -0.5610 -0.8593
  217MOL0     N29860  11.599   1.560  11.694 -0.2270 -0.4798  0.2372
  217MOL0     C29861  10.830   2.145  10.844  0.1032 -0.1282 -0.6140
  217MOL0     C29862  10.695   2.150  10.806 -0.0029  0.4069 -0.1813
  217MOL0     C29863  10.235   2.102  10.814  0.1563  0.5807  0.0057
  217MOL0     C29864  10.240   2.178  10.691  0.5571  0.7700 -0.1762
  217MOL0     C29865  10.124   2.241  10.634 -0.5437  0.0882 -0.0512
  217MOL0     C29866   9.994   2.211  10.689 -0.2666 -0.1420 -0.7742
  217MOL0     O29867   9.877   2.248  10.645 -0.3104  0.3062 -0.0264
  217MOL0     C29868   9.869   2.365  10.562 -0.7484 -0.0233  0.8286
  217MOL0     C29869   9.731   2.399  10.535  0.1283  0.6453  0.7949
  217MOL0     C29870   9.708   2.528  10.449 -0.4099 -0.2197 -0.3399
  217MOL0     C29871   9.563   2.562  10.444  0.7677 -0.5221 -0.5976
  217MOL0     C29872   9.530   2.697  10.508 -0.4408  0.4883  0.7614
  217MOL0     C29873   9.521   2.805  10.558  0.0446  0.2986  0.1041
  217MOL0     C29874   9.993   2.143  10.812  0.3593  0.9065  0.5560
  217MOL0     C29875  10.106   2.078  10.866  0.4842 -0.0318 -0.4824
  217MOL0     C29876  10.081   2.004  10.996  0.3886  0.0572  0.1032
  217MOL0     H29877  10.550   2.037  11.089  1.4784 -4.8227  0.5251
  217MOL0     H29878  10.795   2.046  11.163 -1.9377 -1.9824 -0.3548
  217MOL0     H29879  11.114   2.170  10.861 -0.6480 -0.9540 -0.7283
  217MOL0     H29880  11.074   1.999  10.867  1.0226 -0.0149 -0.2341
  217MOL0     H29881  11.286   2.008  10.921  0.2217 -0.2354 -0.1810
  217MOL0     H29882  11.263   2.146  11.039 -1.5096  0.9303 -0.0509
  217MOL0     H29883  11.148   1.975  11.185  3.7421  1.1348  2.5747
  217MOL0     H29884  11.146   1.859  11.051 -1.9248  2.0830  0.5567
  217MOL0     H29885  11.391   1.844  11.054  1.8201 -0.7720  1.2330
  217MOL0     H29886  11.395   1.973  11.190 -3.3128  1.8498  1.3571
  217MOL0     H29887  11.297   1.696  11.211  1.3205 -1.4567  1.3878
  217MOL0     H29888  11.274   1.818  11.333 -0.8846 -0.0744 -1.7601
  217MOL0     H29889  11.547   1.730  11.219 -3.4972 -1.8179 -1.2821
  217MOL0     H29890  11.520   1.851  11.342 -1.9011  1.9885 -0.3960
  217MOL0     H29891  11.444   1.552  11.368 -0.6912 -0.0995 -0.9890
  217MOL0     H29892  11.408   1.673  11.489  0.4216  0.6384 -0.3023
  217MOL0     H29893  11.682   1.595  11.362  2.6681  1.1998  1.5230
  217MOL0     H29894  11.673   1.713  11.490  1.0283 -0.4557 -0.0320
  217MOL0     H29895  11.712   1.365  11.444  1.4210  0.6050  0.2006
  217MOL0     H29896  11.861   1.238  11.687 -0.0056  2.0136  2.9763
  217MOL0     H29897  11.712   1.141  11.661 -0.8332  0.4877 -0.4679
  217MOL0     H29898  11.850   1.145  11.883  1.8761  0.0261 -1.4229
  217MOL0     H29899  11.765   1.302  11.912  1.5939 -0.3000  0.3319
  217MOL0     H29900  11.549   1.168  11.863 -0.6723  1.6958  2.1142
  217MOL0     H29901  11.643   1.023  11.846 -0.8265 -1.2193  3.4833
  217MOL0     H29902  11.584   1.178  12.101  1.0430 -1.1291  2.3371
  217MOL0     H29903  11.562   1.016  12.064 -1.9530  1.0057 -1.7471
  217MOL0     H29904  11.969   1.057  12.244 -0.7768  1.3342  0.8861
  217MOL0     H29905  12.065   0.937  12.566  1.6090 -2.1589 -1.9387
  217MOL0     H29906  12.070   1.109  12.518  2.3835 -0.9042 -0.4069
  217MOL0     H29907  12.131   0.987  12.416  1.2208 -0.0189  1.1977
  217MOL0     H29908  11.690   0.693  12.843  0.3773 -0.0660  0.2267
  217MOL0     H29909  11.672   0.674  13.089 -3.3144 -1.2143 -0.4305
  217MOL0     H29910  11.666   0.737  13.363 -3.9582  2.5111  3.1979
  217MOL0     H29911  11.775   0.817  13.258 -0.4294 -2.3382  0.1408
  217MOL0     H29912  11.743   1.020  13.383 -0.0496 -0.0519 -1.0878
  217MOL0     H29913  11.601   0.961  13.463  0.1838  1.0521  1.9445
  217MOL0     H29914  11.756   0.782  13.590 -0.0306 -0.7637 -0.0181
  217MOL0     H29915  11.787   0.942  13.629  1.7970  0.0780  0.1681
  217MOL0     H29916  11.983   0.942  13.455  0.5616 -1.3667 -3.8891
  217MOL0     H29917  11.937   0.781  13.415 -4.9820  1.6213 -1.1026
  217MOL0     H29918  11.998   0.884  13.703 -0.1645 -0.6775  0.8688
  217MOL0     H29919  11.984   0.715  13.660 -2.0274 -0.5523 -3.1226
  217MOL0     H29920  12.217   0.893  13.559 -0.5611  1.0027  1.2192
  217MOL0     H29921  12.187   0.720  13.526  1.6555  2.6200 -1.4532
  217MOL0     H29922  12.222   0.689  13.779  0.6193 -0.4933 -2.6215
  217MOL0     H29923  12.209   0.869  13.800 -1.3150 -1.1865  1.4173
  217MOL0     H29924  12.425   0.884  13.677  1.5187 -0.1025  0.7981
  217MOL0     H29925  12.431   0.712  13.646  0.8132 -0.7819  2.5392
  217MOL0     H29926  11.512   1.077  13.108  0.8830 -0.3909  1.4130
  217MOL0     H29927  11.564   1.100  12.864  0.9127 -0.2427 -0.8597
  217MOL0     H29928  11.560   0.931  12.488  0.1593 -0.2307  0.9098
  217MOL0     H29929  11.548   0.991  12.257  1.0433  1.3292 -2.5461
  217MOL0     H29930  10.909   2.158  10.770  2.3851 -1.6955  1.3788
  217MOL0     H29931  10.666   2.193  10.710 -2.4762  1.7781  1.0920
  217MOL0     H29932  10.337   2.190  10.645  1.4733  1.4238  1.8370
  217MOL0     H29933  10.148   2.292  10.542 -0.5086 -3.5197 -2.2253
  217MOL0     H29934   9.914   2.448  10.617  3.4624 -0.6913 -1.1897
  217MOL0     H29935   9.931   2.355  10.472 -0.1140 -2.4319  1.4842
  217MOL0     H29936   9.674   2.397  10.629  0.9815 -0.4220  1.3179
  217MOL0     H29937   9.694   2.312  10.480  0.5030 -0.3516  2.0528
  217MOL0     H29938   9.781   2.601  10.484  1.2909 -1.8765 -0.2781
  217MOL0     H29939   9.749   2.515  10.348  2.8977  2.2186  0.5165
  217MOL0     H29940   9.511   2.477  10.490  1.5161  0.3727  2.0503
  217MOL0     H29941   9.533   2.558  10.339  1.8908 -0.4578 -0.9308
  217MOL0     H29942   9.509   2.906  10.593  1.2866  0.2536  0.7179
  217MOL0     H29943   9.892   2.119  10.844  0.8847 -0.0178  1.5613
  217MOL0     H29944  10.123   1.903  10.993 -1.6083 -0.8097 -1.5718
  217MOL0     H29945  10.134   2.055  11.076 -0.4013 -1.1043  1.4251
  217MOL0     H29946   9.976   2.001  11.024  0.4597 -3.4070  0.4288
  218MOL0     O29947   6.080   1.976  10.100  0.3949  0.2213 -0.0023
  218MOL0     C29948   6.081   2.014  10.214  0.2917 -0.9791 -0.7181
  218MOL0     O29949   5.971   2.069  10.284  0.3126  0.8172  0.1162
  218MOL0     C29950   5.840   2.055  10.232 -0.2704  0.6099  0.0414
  218MOL0     C29951   5.738   2.001  10.311  0.1391 -0.2409 -0.5030
  218MOL0     C29952   5.614   1.984  10.253  0.7714 -1.1058  0.1113
  218MOL0     C29953   5.577   2.035  10.127  0.0392 -0.7304 -0.8100
  218MOL0     O29954   5.449   2.006  10.090  0.1465 -0.0232 -0.6959
  218MOL0     C29955   5.413   2.023   9.949 -0.0505  0.3491 -0.5907
  218MOL0     C29956   5.267   1.993   9.938  0.0311  0.4814 -0.5210
  218MOL0     C29957   5.236   1.917   9.811 -0.3295  0.1667 -0.3225
  218MOL0     C29958   5.258   2.010   9.686  0.0811 -0.7294  0.0869
  218MOL0     C29959   5.247   1.931   9.546  0.0483  0.2076 -0.8161
  218MOL0     C29960   5.212   2.018   9.429 -0.2874 -0.0458  0.7451
  218MOL0     C29961   5.321   2.113   9.406  0.3648 -0.1712 -0.2855
  218MOL0     C29962   5.310   2.207   9.279  1.2120 -0.6258 -0.5477
  218MOL0     N29963   5.372   2.337   9.298 -0.0605  0.3379  1.2040
  218MOL0     C29964   5.317   2.451   9.341 -0.1109  0.1665 -0.1648
  218MOL0     C29965   5.419   2.540   9.359  0.0746  0.5740 -0.3859
  218MOL0     C29966   5.384   2.681   9.414  0.0515  0.2047 -0.2990
  218MOL0     C29967   5.505   2.756   9.475  1.5388  0.2979  0.5836
  218MOL0     C29968   5.587   2.825   9.366 -0.0202 -0.2509  0.2312
  218MOL0     C29969   5.734   2.844   9.409  0.0083 -0.8735 -0.6833
  218MOL0     O29970   5.803   2.725   9.432  0.4556  0.3508  0.1368
  218MOL0     C29971   5.942   2.740   9.448  0.9124  0.0163 -0.2173
  218MOL0     C29972   6.018   2.863   9.438  0.0510 -0.3106  0.1529
  218MOL0     C29973   6.151   2.875   9.459  0.0182 -0.2023  0.8711
  218MOL0     C29974   6.208   3.007   9.475 -0.8510 -0.1731 -0.2305
  218MOL0     C29975   6.225   2.751   9.480  0.3655 -0.2854 -0.6824
  218MOL0     C29976   6.371   2.754   9.526  0.3328  0.5045 -1.2998
  218MOL0     O29977   6.424   2.658   9.602 -0.4179  0.0450 -0.5900
  218MOL0     C29978   6.558   2.652   9.628  0.3328  0.5474 -0.0217
  218MOL0     C29979   6.655   2.637   9.529 -0.1943 -0.5408  0.6689
  218MOL0     C29980   6.794   2.642   9.562  0.4697 -0.4062 -0.4438
  218MOL0     C29981   6.829   2.655   9.696  0.3331  0.9099  0.0506
  218MOL0     O29982   6.960   2.651   9.710 -0.0114  0.3053  0.3219
  218MOL0     C29983   7.004   2.597   9.829 -0.5482 -0.0322 -0.1551
  218MOL0     C29984   7.161   2.578   9.805 -0.3878  0.2671 -0.0919
  218MOL0     C29985   7.247   2.516   9.920  0.6996  0.2565 -0.5245
  218MOL0     C29986   7.391   2.537   9.895 -0.7205 -0.5670 -0.8074
  218MOL0     C29987   7.470   2.493  10.023 -0.0430 -0.7905  0.5465
  218MOL0     C29988   7.620   2.488   9.976  0.4682 -0.2100  0.8631
  218MOL0     C29989   7.705   2.427  10.083 -0.4581  0.2576 -0.1312
  218MOL0     C29990   7.690   2.277  10.093 -0.2481 -0.4422  0.4763
  218MOL0    Cl29991   7.732   2.214  10.246  0.0731 -0.2392 -0.1119
  218MOL0     C29992   6.733   2.652   9.799  0.5790 -0.5875  0.2802
  218MOL0     C29993   6.596   2.643   9.764  0.1855  0.3594  0.2440
  218MOL0     O29994   6.437   2.841   9.471 -0.2438 -0.2374  0.5387
  218MOL0     C29995   6.151   2.631   9.487 -0.1389  0.1393 -0.4062
  218MOL0     C29996   6.012   2.624   9.475 -0.2775  0.2664 -0.7526
  218MOL0     N29997   5.532   2.485   9.306 -0.1895 -0.2421 -0.2767
  218MOL0     N29998   5.505   2.364   9.273  0.1958 -0.0234  0.2013
  218MOL0     C29999   5.676   2.083  10.050  0.2293  0.7123  0.5848
  218MOL0     C30000   5.809   2.096  10.099 -0.6099  0.5099  0.0125
  218MOL0     C30001   6.216   2.016  10.283  0.8358 -0.3956  0.2519
  218MOL0     C30002   6.236   2.123  10.382  0.2092 -0.0454  0.5413
  218MOL0     C30003   6.350   2.135  10.459 -0.0954  0.5809 -0.6803
  218MOL0     C30004   6.443   2.044  10.443 -0.3758  0.4777  0.3833
  218MOL0     O30005   6.564   2.069  10.511  0.4683  0.0273  0.5377
  218MOL0     C30006   6.677   1.984  10.482 -1.0153 -1.1181  0.4812
  218MOL0     C30007   6.796   2.016  10.575  0.1671  0.4307  0.0906
  218MOL0     C30008   6.829   2.154  10.610 -0.2463 -0.0973 -0.5723
  218MOL0     C30009   6.973   2.163  10.664 -0.2095  0.5356  0.0908
  218MOL0     C30010   7.015   2.302  10.659 -0.2041  0.0534  0.3828
  218MOL0     C30011   7.063   2.412  10.669 -0.1639  0.3723 -0.8106
  218MOL0     C30012   6.434   1.939  10.353  0.7098 -0.2896 -0.3455
  218MOL0     C30013   6.320   1.924  10.277  0.9320  0.2316  0.7801
  218MOL0     C30014   6.308   1.800  10.195 -0.9115  0.2742 -0.1613
  218MOL0     H30015   5.762   1.980  10.415 -2.3068 -1.1714 -0.0679
  218MOL0     H30016   5.532   1.944  10.312  0.1155 -0.3494 -0.2619
  218MOL0     H30017   5.467   1.954   9.884 -2.6250 -2.3116 -0.1094
  218MOL0     H30018   5.432   2.128   9.923 -0.8275  0.5005 -0.5459
  218MOL0     H30019   5.236   1.935  10.025 -1.4493  1.5685 -0.2785
  218MOL0     H30020   5.201   2.079   9.944  3.0523  2.9530 -0.3526
  218MOL0     H30021   5.299   1.829   9.796  2.6688  2.4142 -2.1222
  218MOL0     H30022   5.130   1.889   9.812 -0.7401  1.6387  1.0942
  218MOL0     H30023   5.179   2.085   9.697  0.8957 -0.0176  1.3358
  218MOL0     H30024   5.353   2.063   9.679 -0.1221 -0.1557  1.3780
  218MOL0     H30025   5.175   1.851   9.563  0.2069 -0.0087 -1.1558
  218MOL0     H30026   5.344   1.881   9.534 -0.5442 -1.0395 -0.4972
  218MOL0     H30027   5.197   1.950   9.345 -1.8400 -1.1707  1.8665
  218MOL0     H30028   5.116   2.065   9.448  0.0530  0.7348  0.5724
  218MOL0     H30029   5.417   2.061   9.409 -0.2845 -1.4979 -1.3639
  218MOL0     H30030   5.315   2.175   9.496  1.5851 -0.7320  0.2119
  218MOL0     H30031   5.354   2.163   9.189 -0.0140  1.5633 -2.3263
  218MOL0     H30032   5.204   2.228   9.263  0.5720 -1.8115  1.7156
  218MOL0     H30033   5.214   2.480   9.356 -0.1895  0.2721 -0.8463
  218MOL0     H30034   5.324   2.659   9.503 -1.7158  1.8410 -1.0049
  218MOL0     H30035   5.335   2.741   9.337  0.1758  1.6408  0.7207
  218MOL0     H30036   5.472   2.835   9.542 -0.6063  0.6762 -0.8174
  218MOL0     H30037   5.565   2.687   9.535  0.8730  1.2280  2.3864
  218MOL0     H30038   5.580   2.772   9.271 -0.8257 -1.5787  0.9907
  218MOL0     H30039   5.543   2.924   9.354  3.1891  1.8574  3.5616
  218MOL0     H30040   5.780   2.904   9.330 -1.3290 -0.4441 -1.1721
  218MOL0     H30041   5.737   2.896   9.506 -3.4486 -0.8572 -0.4545
  218MOL0     H30042   5.959   2.955   9.443 -0.7211 -0.8528  1.4117
  218MOL0     H30043   6.275   3.042   9.397 -1.3321 -0.0587 -0.5975
  218MOL0     H30044   6.265   3.012   9.569  0.5362  1.0357 -1.1031
  218MOL0     H30045   6.124   3.076   9.486 -0.3420  0.1302  2.6449
  218MOL0     H30046   6.638   2.624   9.422 -0.4653  0.2821  0.6040
  218MOL0     H30047   6.870   2.631   9.485  0.6877 -2.9256  0.0601
  218MOL0     H30048   6.998   2.673   9.908  2.5790 -1.2968  1.4802
  218MOL0     H30049   6.963   2.501   9.863  0.1252  0.2918  1.7317
  218MOL0     H30050   7.175   2.522   9.712  0.2727  1.8550 -0.9665
  218MOL0     H30051   7.202   2.676   9.780 -2.9517  0.6389 -3.5263
  218MOL0     H30052   7.209   2.414   9.923 -0.0906  0.5629  0.8356
  218MOL0     H30053   7.207   2.552  10.015 -2.6413 -1.2774 -1.2025
  218MOL0     H30054   7.412   2.643   9.881  0.3041 -0.0790  3.2222
  218MOL0     H30055   7.423   2.476   9.811 -0.3568  0.5398 -1.4963
  218MOL0     H30056   7.451   2.563  10.105  0.6272  0.6418 -0.4727
  218MOL0     H30057   7.432   2.394  10.049 -0.2856 -0.7278  0.4317
  218MOL0     H30058   7.652   2.593   9.976 -1.3736  0.3896  0.5424
  218MOL0     H30059   7.634   2.440   9.879 -0.4922 -1.0213  1.1027
  218MOL0     H30060   7.665   2.462  10.178 -2.7681 -3.1434  0.3365
  218MOL0     H30061   7.813   2.445  10.071 -0.3948 -0.0890 -0.1030
  218MOL0     H30062   7.764   2.245  10.019 -0.3179 -1.8463  0.9779
  218MOL0     H30063   7.590   2.244  10.062 -0.0357 -1.2387  0.6343
  218MOL0     H30064   6.768   2.640   9.901  2.5713 -1.6942 -0.4873
  218MOL0     H30065   6.536   2.623   9.852 -1.6638 -1.6514 -1.3499
  218MOL0     H30066   6.203   2.546   9.528 -1.4881  0.6697  2.6730
  218MOL0     H30067   5.949   2.539   9.495 -1.0881  1.1949  0.7757
  218MOL0     H30068   5.655   2.106   9.946  0.9730 -1.2186 -0.0343
  218MOL0     H30069   5.887   2.117  10.026  0.4601  2.2637  1.5926
  218MOL0     H30070   6.160   2.198  10.400  1.9716  1.5895  1.5283
  218MOL0     H30071   6.368   2.221  10.523  1.2823  0.0096 -0.2588
  218MOL0     H30072   6.664   1.877  10.501 -0.6878 -1.2847 -0.2197
  218MOL0     H30073   6.710   1.982  10.378 -1.6850 -0.8802  0.2584
  218MOL0     H30074   6.884   1.962  10.539  0.3654 -1.2506  2.7687
  218MOL0     H30075   6.770   1.960  10.666  3.3354 -0.7393  0.3979
  218MOL0     H30076   6.811   2.220  10.525  2.6053  1.4600 -0.1136
  218MOL0     H30077   6.757   2.189  10.685  0.1572 -0.5058  0.0133
  218MOL0     H30078   7.042   2.102  10.604  1.2863  2.4961 -0.2811
  218MOL0     H30079   6.976   2.129  10.768  0.8126 -0.1265 -0.1283
  218MOL0     H30080   7.090   2.515  10.682 -0.6573  0.3886  0.2220
  218MOL0     H30081   6.511   1.871  10.320  0.9937 -2.0553  3.4423
  218MOL0     H30082   6.366   1.811  10.103  2.6028  2.6451  2.1001
  218MOL0     H30083   6.355   1.721  10.254  0.0629  1.6298  0.9506
  218MOL0     H30084   6.204   1.770  10.181 -1.0887  0.3174  0.9440
  219MOL0     O30085   0.483   0.347  11.410 -0.4980 -0.5647  0.1185
  219MOL0     C30086   0.527   0.409  11.511 -0.1123 -0.3345  0.5504
  219MOL0     O30087   0.458   0.425  11.626 -0.2546 -0.1595 -0.4882
  219MOL0     C30088   0.330   0.380  11.648 -0.2224 -0.0159  0.3519
  219MOL0     C30089   0.229   0.413  11.561 -0.5351 -0.8878  0.2147
  219MOL0     C30090   0.104   0.360  11.577  0.1606 -0.5455 -0.1907
  219MOL0     C30091   0.066   0.292  11.697  0.5759  0.1835 -0.7994
  219MOL0     O30092  -0.050   0.221  11.724  0.1105 -0.0167 -0.3484
  219MOL0     C30093  -0.158   0.273  11.648 -0.5985  0.8642 -0.4981
  219MOL0     C30094  -0.292   0.195  11.673  0.2491 -0.6345  0.5292
  219MOL0     C30095  -0.402   0.238  11.578  0.7847  0.5503 -0.2553
  219MOL0     C30096  -0.474   0.360  11.638 -0.8036 -0.4087  0.4613
  219MOL0     C30097  -0.586   0.331  11.740  0.7249 -0.4588 -0.5797
  219MOL0     C30098  -0.677   0.446  11.783 -0.7797  0.1386 -0.2163
  219MOL0     C30099  -0.608   0.535  11.889 -0.2050  1.1070 -0.1645
  219MOL0     C30100  -0.688   0.667  11.913  0.0672 -0.3650 -0.0177
  219MOL0     N30101  -0.836   0.662  11.906  0.3292 -0.5922 -0.0363
  219MOL0     C30102  -0.910   0.609  12.010 -0.1339 -0.0119 -0.7452
  219MOL0     C30103  -1.035   0.632  11.967 -0.9964  0.1053 -0.2165
  219MOL0     C30104  -1.162   0.605  12.047 -0.4332  0.0078 -0.5064
  219MOL0     C30105  -1.176   0.456  12.085 -0.2158 -0.3270  1.0471
  219MOL0     C30106  -1.297   0.441  12.182 -0.2899 -0.4120  0.2692
  219MOL0     C30107  -1.433   0.429  12.107 -0.4539  0.0207  0.0489
  219MOL0     O30108  -1.434   0.303  12.045  0.1335  0.0802  0.7021
  219MOL0     C30109  -1.477   0.196  12.123 -0.0293 -0.5217 -0.4509
  219MOL0     C30110  -1.601   0.183  12.183  1.0440 -0.2684  0.1669
  219MOL0     C30111  -1.633   0.066  12.259 -0.9282  0.3933  0.3147
  219MOL0     C30112  -1.764   0.056  12.324  0.7354 -0.1568  0.2802
  219MOL0     C30113  -1.530  -0.033  12.271 -0.1046  0.6327 -1.0914
  219MOL0     C30114  -1.555  -0.153  12.355  0.8791 -1.0383 -0.4819
  219MOL0     O30115  -1.663  -0.225  12.313 -0.3855 -0.1703  0.0689
  219MOL0     C30116  -1.690  -0.344  12.373 -0.2149  0.7807 -0.4773
  219MOL0     C30117  -1.609  -0.422  12.463 -0.5470  0.5840 -0.6016
  219MOL0     C30118  -1.655  -0.548  12.505 -0.4702  0.3286 -0.6405
  219MOL0     C30119  -1.774  -0.597  12.450 -0.7388 -0.4019 -0.9755
  219MOL0     O30120  -1.811  -0.725  12.497 -0.1710  0.5120 -0.0602
  219MOL0     C30121  -1.951  -0.771  12.485  0.0564 -0.2057  0.0307
  219MOL0     C30122  -1.977  -0.926  12.513  0.5546  0.1149 -0.4727
  219MOL0     C30123  -1.924  -1.024  12.400  1.3707 -0.3015  0.2638
  219MOL0     C30124  -1.984  -1.160  12.417  0.5347  0.0683  0.1171
  219MOL0     C30125  -1.917  -1.266  12.331 -0.0671  0.1983 -0.3305
  219MOL0     C30126  -2.019  -1.362  12.277  0.0480  0.8448 -0.4283
  219MOL0     C30127  -2.106  -1.307  12.157 -0.0679  0.3284 -0.5134
  219MOL0     C30128  -2.258  -1.286  12.190 -0.1733  0.0518  0.0246
  219MOL0    Cl30129  -2.282  -1.132  12.286 -0.5599  0.1333  0.4356
  219MOL0     C30130  -1.856  -0.521  12.363 -0.5556 -0.6778 -0.3295
  219MOL0     C30131  -1.814  -0.393  12.330 -0.4777 -0.5659  0.0501
  219MOL0     O30132  -1.475  -0.178  12.447 -0.0543 -0.5052 -0.2352
  219MOL0     C30133  -1.404  -0.019  12.213 -0.2213 -0.0152  0.6728
  219MOL0     C30134  -1.381   0.096  12.141  0.1457 -0.9239 -0.8059
  219MOL0     N30135  -1.038   0.704  11.854 -0.4280 -0.0289  0.0656
  219MOL0     N30136  -0.920   0.735  11.812 -0.0190  0.6391 -0.4466
  219MOL0     C30137   0.171   0.266  11.790  0.2456  0.0168  0.1447
  219MOL0     C30138   0.309   0.318  11.767  0.9402  0.2870  0.6400
  219MOL0     C30139   0.664   0.465  11.507 -0.0532  0.4230  0.2429
  219MOL0     C30140   0.704   0.532  11.625 -0.1065 -0.0962 -0.7176
  219MOL0     C30141   0.829   0.592  11.635  0.6931 -0.1459  0.3852
  219MOL0     C30142   0.913   0.598  11.526 -0.4921  0.9732  0.4339
  219MOL0     O30143   1.026   0.673  11.521  0.2698  0.3664 -0.0234
  219MOL0     C30144   1.125   0.626  11.618 -0.1296  0.0862  0.4832
  219MOL0     C30145   1.187   0.491  11.592  0.5031  0.1124  0.5021
  219MOL0     C30146   1.303   0.458  11.696 -0.1129 -0.7270 -0.1108
  219MOL0     C30147   1.366   0.320  11.680 -0.0315  0.6481 -0.6304
  219MOL0     C30148   1.448   0.275  11.791  1.1766  0.3652 -0.1241
  219MOL0     C30149   1.529   0.232  11.870 -0.1992  0.2013  0.4610
  219MOL0     C30150   0.873   0.517  11.416  0.3239 -1.2941  0.0127
  219MOL0     C30151   0.750   0.448  11.399 -0.4668 -0.4123  0.3677
  219MOL0     C30152   0.727   0.371  11.276 -0.5039 -0.0717  0.5036
  219MOL0     H30153   0.245   0.465  11.468 -0.6159 -0.7379  0.2842
  219MOL0     H30154   0.043   0.368  11.487  1.4079  0.5846 -0.9812
  219MOL0     H30155  -0.135   0.252  11.544  0.1623 -0.7540 -0.0268
  219MOL0     H30156  -0.170   0.381  11.665 -0.4440  0.8964 -0.5971
  219MOL0     H30157  -0.264   0.091  11.654  2.3568 -0.0597  0.3174
  219MOL0     H30158  -0.315   0.198  11.780  1.9529  0.0414  0.9059
  219MOL0     H30159  -0.360   0.270  11.482  2.3993 -0.0129  0.2412
  219MOL0     H30160  -0.476   0.159  11.562  0.6860  0.5214  0.3008
  219MOL0     H30161  -0.400   0.436  11.667  2.6525 -2.9152 -1.0113
  219MOL0     H30162  -0.535   0.402  11.559 -1.0716  0.3654  1.0667
  219MOL0     H30163  -0.528   0.302  11.828  3.9178  1.8056 -1.7294
  219MOL0     H30164  -0.649   0.249  11.703 -0.2846  0.4472 -0.9255
  219MOL0     H30165  -0.713   0.511  11.702 -2.1836  1.2093  1.1963
  219MOL0     H30166  -0.765   0.397  11.824  0.2832 -0.8245  0.9903
  219MOL0     H30167  -0.508   0.568  11.859 -0.4099 -0.2677 -2.6112
  219MOL0     H30168  -0.617   0.475  11.980  0.0323 -0.4789 -1.1366
  219MOL0     H30169  -0.651   0.703  12.009  2.1292  0.7111 -1.1680
  219MOL0     H30170  -0.666   0.742  11.837 -2.5172 -1.4305 -1.9693
  219MOL0     H30171  -0.881   0.565  12.104 -0.1813  2.3791  0.4617
  219MOL0     H30172  -1.251   0.636  11.993 -0.5182 -2.1161 -1.6826
  219MOL0     H30173  -1.166   0.669  12.136  2.6218 -1.6708  1.0216
  219MOL0     H30174  -1.186   0.394  11.995 -1.3821  0.6120  0.5086
  219MOL0     H30175  -1.087   0.420  12.138 -1.2420 -1.6377  1.9730
  219MOL0     H30176  -1.291   0.360  12.255 -2.3286  0.2853  1.2867
  219MOL0     H30177  -1.298   0.532  12.243  3.8488  0.3747 -0.5099
  219MOL0     H30178  -1.514   0.444  12.179 -2.7387  3.1503 -2.8278
  219MOL0     H30179  -1.441   0.501  12.024 -3.0371 -0.1142  0.1005
  219MOL0     H30180  -1.669   0.265  12.158  1.5096 -0.0926 -0.5673
  219MOL0     H30181  -1.761   0.032  12.431 -1.5476  1.5638  0.8169
  219MOL0     H30182  -1.814  -0.024  12.268  1.1942  1.3764 -2.5152
  219MOL0     H30183  -1.821   0.147  12.303  4.1228  1.7859 -1.2766
  219MOL0     H30184  -1.508  -0.398  12.493 -0.6032  0.3922 -0.2425
  219MOL0     H30185  -1.579  -0.602  12.561  1.1214 -1.3398 -4.0896
  219MOL0     H30186  -2.011  -0.718  12.559 -1.9034 -2.0778 -0.1323
  219MOL0     H30187  -1.976  -0.745  12.382  1.0600 -1.3384 -0.5337
  219MOL0     H30188  -1.931  -0.946  12.611 -2.1028  0.6997  1.0125
  219MOL0     H30189  -2.084  -0.947  12.526  0.9378 -1.7513 -0.0398
  219MOL0     H30190  -1.815  -1.030  12.399  1.4829  1.0478  1.3229
  219MOL0     H30191  -1.959  -0.980  12.306 -1.1504  0.7099  1.5688
  219MOL0     H30192  -2.091  -1.144  12.400  0.4728  0.7747  1.1094
  219MOL0     H30193  -1.982  -1.190  12.522 -2.0820 -0.2497  0.1416
  219MOL0     H30194  -1.856  -1.221  12.252  0.8817 -0.3116  0.0897
  219MOL0     H30195  -1.847  -1.320  12.395 -2.6429 -0.1725  2.3922
  219MOL0     H30196  -2.083  -1.394  12.360  2.9274 -5.3522 -0.0445
  219MOL0     H30197  -1.958  -1.448  12.248 -0.2775  1.0575 -1.8186
  219MOL0     H30198  -2.120  -1.379  12.076 -2.6558 -0.0073  0.1696
  219MOL0     H30199  -2.065  -1.216  12.112 -1.2488  0.3245 -1.6509
  219MOL0     H30200  -2.301  -1.373  12.241  2.1008 -1.3067 -0.2664
  219MOL0     H30201  -2.314  -1.265  12.099 -1.7457  0.4579  1.0412
  219MOL0     H30202  -1.942  -0.565  12.314  0.2588 -3.3443  0.4423
  219MOL0     H30203  -1.873  -0.328  12.266 -1.6253 -1.2260  0.4152
  219MOL0     H30204  -1.334  -0.102  12.225 -2.0444 -2.2204 -2.5144
  219MOL0     H30205  -1.291   0.117  12.083  0.8130  1.4881  0.9585
  219MOL0     H30206   0.159   0.216  11.885 -1.0595 -1.0961 -0.5602
  219MOL0     H30207   0.389   0.308  11.839  3.5552  1.6728 -1.8762
  219MOL0     H30208   0.649   0.527  11.719  1.9848 -0.2335  0.5735
  219MOL0     H30209   0.848   0.656  11.720 -0.3814  1.3970 -0.4872
  219MOL0     H30210   1.200   0.706  11.614 -0.0947  0.0235 -2.9655
  219MOL0     H30211   1.082   0.611  11.717 -0.9391 -4.5689 -0.3675
  219MOL0     H30212   1.226   0.486  11.490 -0.1569  2.6651  0.0330
  219MOL0     H30213   1.107   0.419  11.611  0.8390 -0.2982  0.3505
  219MOL0     H30214   1.383   0.533  11.688 -0.6093 -0.3570 -2.3983
  219MOL0     H30215   1.252   0.462  11.792 -0.0806  1.6658 -0.1273
  219MOL0     H30216   1.434   0.311  11.595  1.5512  0.0469  0.6485
  219MOL0     H30217   1.279   0.254  11.667  0.7291 -0.7080  0.8452
  219MOL0     H30218   1.580   0.174  11.944  0.3772  0.0300 -0.0650
  219MOL0     H30219   0.946   0.531  11.337  0.4085  0.6957  0.3772
  219MOL0     H30220   0.696   0.268  11.300  0.3026 -0.4067  0.1280
  219MOL0     H30221   0.653   0.406  11.203 -0.2664 -1.9435 -0.7077
  219MOL0     H30222   0.822   0.354  11.224  1.3219  0.2524  3.4969
  220MOL0     O30223   7.614   5.241   0.048  0.2430  1.0777 -0.3569
  220MOL0     C30224   7.630   5.305  -0.051  0.1905 -0.8764  0.3090
  220MOL0     O30225   7.634   5.451  -0.056 -0.1190  0.4144 -0.2586
  220MOL0     C30226   7.634   5.536   0.054  0.0677 -0.3264  0.4166
  220MOL0     C30227   7.683   5.667   0.031 -0.0124  1.1888  0.2788
  220MOL0     C30228   7.701   5.747   0.138 -0.1641 -0.0876 -0.4040
  220MOL0     C30229   7.692   5.704   0.274 -0.4614 -0.6558  0.0408
  220MOL0     O30230   7.738   5.791   0.375 -0.5454  0.0255 -0.1461
  220MOL0     C30231   7.699   5.752   0.512  0.2332 -0.1745 -0.0716
  220MOL0     C30232   7.729   5.870   0.617  0.5122 -0.5362  0.2891
  220MOL0     C30233   7.845   5.956   0.583 -0.3631  0.1576 -0.0277
  220MOL0     C30234   7.888   6.039   0.711  0.1346  0.2251  0.9662
  220MOL0     C30235   8.018   6.116   0.674  0.2916  0.1162 -0.1456
  220MOL0     C30236   8.069   6.181   0.807 -0.3233  0.1793  0.2701
  220MOL0     C30237   8.207   6.239   0.798  0.1169  0.6407  0.0693
  220MOL0     C30238   8.252   6.292   0.934  0.0487  0.0064 -0.1854
  220MOL0     N30239   8.392   6.315   0.928 -0.1295  0.8756  0.2532
  220MOL0     C30240   8.441   6.427   0.864  0.9104  0.6387  0.6076
  220MOL0     C30241   8.577   6.398   0.864  0.3529  1.1151 -0.7025
  220MOL0     C30242   8.681   6.466   0.792  0.3247  0.2141  1.0049
  220MOL0     C30243   8.797   6.502   0.884  0.8519  0.0825  0.1820
  220MOL0     C30244   8.898   6.597   0.812 -0.4016 -0.1328  0.3516
  220MOL0     C30245   9.019   6.618   0.905  0.5075 -0.3604  0.1102
  220MOL0     O30246   9.098   6.728   0.841  0.2211  0.4444 -0.0658
  220MOL0     C30247   9.190   6.800   0.912 -0.2144 -1.6065 -0.0542
  220MOL0     C30248   9.260   6.911   0.842 -0.2013  0.9608  0.6093
  220MOL0     C30249   9.368   6.984   0.900  0.0275  0.6127 -0.5882
  220MOL0     C30250   9.449   7.084   0.822 -0.1258 -1.1265 -0.4425
  220MOL0     C30251   9.399   6.953   1.037 -0.1820 -0.4769  0.1757
  220MOL0     C30252   9.504   7.015   1.126  0.2169 -0.2502 -0.1194
  220MOL0     O30253   9.534   6.963   1.251 -0.6562  0.4340  0.0349
  220MOL0     C30254   9.654   6.996   1.298  0.3074 -0.2937 -1.3756
  220MOL0     C30255   9.769   6.939   1.262  0.2161 -0.2645  0.5891
  220MOL0     C30256   9.895   6.965   1.322 -0.6140 -0.2959  0.0097
  220MOL0     C30257   9.912   7.062   1.424 -0.2079 -0.0121 -0.9070
  220MOL0     O30258  10.029   7.089   1.490 -0.7668 -0.3354  0.0153
  220MOL0     C30259  10.029   7.044   1.628 -0.2554  0.1922 -0.3836
  220MOL0     C30260  10.079   6.900   1.636 -0.7680  0.0572  0.1819
  220MOL0     C30261  10.231   6.878   1.575 -0.5486  0.7882  0.5354
  220MOL0     C30262  10.338   6.947   1.668  0.3486 -0.3794  0.2120
  220MOL0     C30263  10.339   6.896   1.811  0.2771  0.2857  0.5238
  220MOL0     C30264  10.382   6.749   1.829 -0.3778 -0.0503 -0.1643
  220MOL0     C30265  10.537   6.751   1.817 -0.5719 -0.5675 -0.2216
  220MOL0     C30266  10.591   6.608   1.815 -0.4755 -0.4126  0.3815
  220MOL0    Cl30267  10.525   6.514   1.677 -0.3054 -0.3790 -0.4393
  220MOL0     C30268   9.792   7.133   1.451 -0.4466 -0.3149 -0.5356
  220MOL0     C30269   9.665   7.102   1.391  0.6298  0.4686  0.0566
  220MOL0     O30270   9.556   7.116   1.078 -0.2034 -0.0169  0.2061
  220MOL0     C30271   9.323   6.850   1.103  0.1149  0.2579  0.1632
  220MOL0     C30272   9.232   6.766   1.042 -0.4692 -0.3436  0.0669
  220MOL0     N30273   8.588   6.268   0.926 -1.1807  0.0713  0.4294
  220MOL0     N30274   8.486   6.212   0.957  0.3453 -0.7446 -0.4417
  220MOL0     C30275   7.629   5.579   0.291 -0.6410 -0.9588 -0.1910
  220MOL0     C30276   7.593   5.497   0.183 -0.1234 -0.2056  0.4968
  220MOL0     C30277   7.634   5.244  -0.189  0.6487 -0.3259  0.0623
  220MOL0     C30278   7.709   5.304  -0.287 -0.1380  0.5723  0.5295
  220MOL0     C30279   7.720   5.260  -0.415 -0.0654 -0.4409  0.3127
  220MOL0     C30280   7.670   5.139  -0.454 -0.0450  0.2273 -0.5676
  220MOL0     O30281   7.684   5.101  -0.589 -0.0904  0.1633  0.3374
  220MOL0     C30282   7.602   4.979  -0.621  0.2017 -0.3260  0.4471
  220MOL0     C30283   7.605   4.975  -0.774 -0.0253  0.1232 -0.8653
  220MOL0     C30284   7.524   4.846  -0.826 -0.4744  0.7090 -0.4336
  220MOL0     C30285   7.550   4.827  -0.977 -0.3310 -1.0860  0.3305
  220MOL0     C30286   7.527   4.959  -1.052 -0.2224  0.9503  0.2958
  220MOL0     C30287   7.513   5.059  -1.116 -0.6357  0.2536  0.2270
  220MOL0     C30288   7.604   5.063  -0.352  0.5610  0.6726 -0.2147
  220MOL0     C30289   7.589   5.111  -0.220  1.0317 -0.6063  0.6257
  220MOL0     C30290   7.500   5.032  -0.130  0.0938 -0.9651  0.1895
  220MOL0     H30291   7.705   5.705  -0.068  1.9311 -0.7903 -0.1243
  220MOL0     H30292   7.739   5.849   0.135 -1.3369  0.3544 -1.7825
  220MOL0     H30293   7.753   5.658   0.526 -2.8151 -1.9130  0.9597
  220MOL0     H30294   7.593   5.727   0.520  0.3221  0.1572  3.8252
  220MOL0     H30295   7.639   5.930   0.630  1.2889  0.2521  2.4330
  220MOL0     H30296   7.736   5.824   0.716 -2.6146 -1.5324  0.1544
  220MOL0     H30297   7.930   5.902   0.541 -0.6614 -0.1974 -0.1846
  220MOL0     H30298   7.813   6.029   0.507 -2.7424  0.0274  0.7599
  220MOL0     H30299   7.811   6.108   0.746  0.9631  0.3528  2.6079
  220MOL0     H30300   7.906   5.973   0.795  1.0412 -1.2518 -0.3335
  220MOL0     H30301   7.989   6.192   0.601  0.7140  2.4130  1.9618
  220MOL0     H30302   8.094   6.056   0.623  2.5940  2.2879  0.5521
  220MOL0     H30303   7.994   6.255   0.837 -3.0393 -2.6048  0.8796
  220MOL0     H30304   8.084   6.099   0.877 -0.8375 -0.1140  0.0389
  220MOL0     H30305   8.214   6.323   0.728 -0.6107 -2.3089 -3.8411
  220MOL0     H30306   8.276   6.167   0.753  0.1505  0.5759  0.2254
  220MOL0     H30307   8.195   6.381   0.960  0.2560 -0.0447  0.4729
  220MOL0     H30308   8.253   6.215   1.012  0.0737 -0.4372 -0.6212
  220MOL0     H30309   8.387   6.514   0.828  2.2205  0.7899 -1.1033
  220MOL0     H30310   8.640   6.556   0.744 -4.2562 -2.5410 -0.8221
  220MOL0     H30311   8.702   6.391   0.716 -1.6580  0.1572  0.4786
  220MOL0     H30312   8.759   6.555   0.972  1.2883 -2.0187  1.7104
  220MOL0     H30313   8.834   6.408   0.925 -1.3570  0.0451  2.3581
  220MOL0     H30314   8.928   6.543   0.721 -0.5326  0.4788 -0.0606
  220MOL0     H30315   8.860   6.695   0.782  0.5786  0.3958  0.7750
  220MOL0     H30316   8.987   6.648   1.005  1.0841  1.6125 -0.2380
  220MOL0     H30317   9.079   6.527   0.910 -0.2288 -0.7967  1.6552
  220MOL0     H30318   9.226   6.943   0.744 -3.5573 -1.5428  0.8154
  220MOL0     H30319   9.549   7.040   0.810  0.8984  0.3709  1.8823
  220MOL0     H30320   9.449   7.177   0.880 -2.5557 -1.0821 -0.4185
  220MOL0     H30321   9.399   7.110   0.729 -0.5847  1.4174  0.4372
  220MOL0     H30322   9.768   6.864   1.183  4.0649  0.3811 -0.3053
  220MOL0     H30323   9.984   6.911   1.291 -0.1797 -1.1629  2.5325
  220MOL0     H30324  10.083   7.122   1.682  0.7978  1.0538 -2.5903
  220MOL0     H30325   9.933   7.050   1.681 -1.4644 -0.1153 -2.4568
  220MOL0     H30326  10.086   6.869   1.740  1.2186 -3.3625 -0.8097
  220MOL0     H30327  10.011   6.826   1.593 -0.7564  0.2890 -0.2479
  220MOL0     H30328  10.248   6.914   1.474 -4.1047 -1.4077 -1.0217
  220MOL0     H30329  10.248   6.770   1.573  0.4969  0.9322  0.8664
  220MOL0     H30330  10.299   7.048   1.676  0.2108 -0.1427 -2.4080
  220MOL0     H30331  10.441   6.960   1.633  0.0226  1.9703  0.0050
  220MOL0     H30332  10.408   6.957   1.871 -1.7009  0.1995  3.0372
  220MOL0     H30333  10.243   6.906   1.863 -0.1083 -1.3243  0.1631
  220MOL0     H30334  10.342   6.680   1.754  1.1876 -4.9920  3.0375
  220MOL0     H30335  10.357   6.715   1.930  1.1852 -1.1667 -0.1081
  220MOL0     H30336  10.586   6.796   1.904  1.6692 -2.1433 -0.5829
  220MOL0     H30337  10.558   6.803   1.723 -4.3374 -0.7320 -1.2842
  220MOL0     H30338  10.567   6.556   1.908  0.8516 -3.0437 -0.6470
  220MOL0     H30339  10.700   6.611   1.810 -0.3506 -0.0952  2.4664
  220MOL0     H30340   9.807   7.206   1.529 -1.1160 -3.6230  2.9878
  220MOL0     H30341   9.574   7.152   1.422  1.2074  0.4612  1.8422
  220MOL0     H30342   9.340   6.836   1.209 -0.7976  0.6324  0.3631
  220MOL0     H30343   9.172   6.697   1.101  1.0829 -1.3409  0.5374
  220MOL0     H30344   7.616   5.545   0.393 -1.7467  0.7199  0.2671
  220MOL0     H30345   7.544   5.401   0.195  1.1203 -0.6602  2.4922
  220MOL0     H30346   7.747   5.403  -0.260  1.6409 -0.7996  3.5825
  220MOL0     H30347   7.764   5.336  -0.478  2.8102 -0.3068  2.2802
  220MOL0     H30348   7.651   4.891  -0.577 -2.3256  0.2793  5.0070
  220MOL0     H30349   7.505   4.990  -0.573  0.2385  0.4994  0.3429
  220MOL0     H30350   7.711   4.964  -0.798 -0.2407 -2.1018 -1.0755
  220MOL0     H30351   7.560   5.067  -0.813 -3.4658 -0.8766  0.3400
  220MOL0     H30352   7.540   4.754  -0.769 -0.7945  0.4868 -0.7026
  220MOL0     H30353   7.421   4.880  -0.811 -0.8548  0.1139 -1.5921
  220MOL0     H30354   7.487   4.745  -1.012 -1.7445 -1.2307  2.9651
  220MOL0     H30355   7.656   4.802  -0.982 -0.6117 -2.3211  0.2576
  220MOL0     H30356   7.488   5.151  -1.164 -5.2443 -1.5562 -1.4854
  220MOL0     H30357   7.557   4.971  -0.385 -0.3341  0.5026  1.4026
  220MOL0     H30358   7.416   5.079  -0.079  0.6041 -1.3855  1.4611
  220MOL0     H30359   7.449   4.956  -0.189  0.7180 -0.6046 -0.8409
  220MOL0     H30360   7.559   4.984  -0.052  1.0216 -1.6546 -0.8985
  221MOL0     O30361   5.055   5.712   3.028 -0.5520  0.6668 -0.1670
  221MOL0     C30362   4.965   5.784   3.066  0.9674 -0.1880 -0.0618
  221MOL0     O30363   4.941   5.913   3.035 -0.6966 -0.8484  0.2886
  221MOL0     C30364   5.022   5.996   2.954  0.8920  0.5817 -1.0214
  221MOL0     C30365   5.161   5.995   2.968 -0.7062 -0.2600  0.1735
  221MOL0     C30366   5.244   6.088   2.908  0.9148  0.6961  0.8884
  221MOL0     C30367   5.193   6.169   2.807 -0.2179  0.4188  0.5565
  221MOL0     O30368   5.261   6.247   2.723 -0.3373 -0.1146 -0.2906
  221MOL0     C30369   5.401   6.223   2.705  0.6641  0.1610  0.0714
  221MOL0     C30370   5.450   6.348   2.624 -1.3603 -0.0984 -0.3735
  221MOL0     C30371   5.596   6.330   2.590 -1.3266 -0.1300 -0.9834
  221MOL0     C30372   5.631   6.210   2.505 -0.0422  0.7289 -0.0748
  221MOL0     C30373   5.777   6.214   2.450 -0.0107  0.3757  0.7097
  221MOL0     C30374   5.802   6.335   2.349  0.4584  1.0785  0.1780
  221MOL0     C30375   5.934   6.317   2.287  0.3757  0.3150  0.5036
  221MOL0     C30376   6.054   6.320   2.385 -0.3018 -0.4540 -0.5874
  221MOL0     N30377   6.046   6.447   2.471 -0.6944  0.0931  0.1044
  221MOL0     C30378   6.015   6.567   2.415 -0.5049 -0.1815 -1.2541
  221MOL0     C30379   6.012   6.648   2.521 -0.6721 -0.2067  0.4195
  221MOL0     C30380   5.963   6.790   2.518 -0.6024  0.1039  0.8034
  221MOL0     C30381   6.085   6.878   2.560  0.2477  0.3822  0.2760
  221MOL0     C30382   6.185   6.891   2.442 -0.0982 -1.0691 -0.3732
  221MOL0     C30383   6.304   6.984   2.492  0.0792  0.1040 -0.0011
  221MOL0     O30384   6.416   6.898   2.535  0.1931  0.2548 -0.5136
  221MOL0     C30385   6.491   6.951   2.634 -0.3535  0.1540  0.1649
  221MOL0     C30386   6.574   7.061   2.622 -0.1264  0.0676  0.1047
  221MOL0     C30387   6.639   7.127   2.736 -0.1433  0.1291  0.5755
  221MOL0     C30388   6.729   7.248   2.703  0.4319  0.1782 -0.3429
  221MOL0     C30389   6.626   7.066   2.862 -0.0465  0.2087 -0.7331
  221MOL0     C30390   6.705   7.113   2.983 -0.5416 -0.0548  0.1763
  221MOL0     O30391   6.728   7.017   3.080  0.8798 -0.4730 -0.0081
  221MOL0     C30392   6.773   7.052   3.207  0.2371 -0.6679  0.6128
  221MOL0     C30393   6.710   7.138   3.301 -0.8928  0.1802  0.2647
  221MOL0     C30394   6.762   7.167   3.429 -1.0282  0.7647 -0.3619
  221MOL0     C30395   6.883   7.116   3.467 -0.9226  0.1746  0.0338
  221MOL0     O30396   6.960   7.162   3.577 -0.6262  0.2854 -0.1643
  221MOL0     C30397   6.922   7.283   3.652 -0.0513 -0.5696  0.1933
  221MOL0     C30398   7.029   7.307   3.764 -0.8295  0.6610 -0.1323
  221MOL0     C30399   7.157   7.380   3.721  0.4634 -0.2660 -1.3626
  221MOL0     C30400   7.262   7.387   3.826 -0.4049  0.2337 -0.1709
  221MOL0     C30401   7.391   7.448   3.756  0.4959 -0.4219  0.1618
  221MOL0     C30402   7.505   7.491   3.853  0.7722  0.2497 -0.0984
  221MOL0     C30403   7.624   7.532   3.769  0.1294  0.7968 -0.4844
  221MOL0     C30404   7.739   7.540   3.851 -0.4919 -1.2599 -0.7745
  221MOL0    Cl30405   7.868   7.620   3.761 -0.1101 -0.1113  0.2556
  221MOL0     C30406   6.941   7.019   3.386  0.7331 -0.1480 -0.2256
  221MOL0     C30407   6.895   7.004   3.257  0.3749  0.6951 -0.1071
  221MOL0     O30408   6.747   7.229   2.995 -0.1582  0.0987  0.1320
  221MOL0     C30409   6.535   6.958   2.877 -0.9777 -0.2885  0.0132
  221MOL0     C30410   6.460   6.910   2.766 -0.3265  0.3154 -0.3976
  221MOL0     N30411   6.045   6.576   2.635  0.0763  0.1170  0.1934
  221MOL0     N30412   6.064   6.457   2.605 -0.0821  0.5720 -0.9292
  221MOL0     C30413   5.051   6.150   2.778  0.6278 -0.1692 -0.3712
  221MOL0     C30414   4.965   6.081   2.861 -0.2981 -0.1892 -0.7296
  221MOL0     C30415   4.851   5.714   3.137 -0.4890  0.8888 -0.1206
  221MOL0     C30416   4.725   5.787   3.148  0.1947  0.0296  0.8947
  221MOL0     C30417   4.621   5.734   3.233 -0.1186 -0.4541 -0.0597
  221MOL0     C30418   4.637   5.613   3.309 -1.3388 -0.6471 -0.9041
  221MOL0     O30419   4.541   5.569   3.404  0.1357 -0.6082  0.0480
  221MOL0     C30420   4.473   5.445   3.361  0.9292  0.9301 -1.1211
  221MOL0     C30421   4.379   5.381   3.467  1.1515  0.0468 -0.1042
  221MOL0     C30422   4.269   5.487   3.504 -0.2462  0.0934  0.1027
  221MOL0     C30423   4.137   5.416   3.557 -1.1777 -0.1753  0.1776
  221MOL0     C30424   4.024   5.505   3.592 -0.0669  0.4074 -0.1148
  221MOL0     C30425   3.917   5.560   3.624 -0.2585 -0.0871  0.1676
  221MOL0     C30426   4.758   5.552   3.289  0.3702 -0.2908  0.7128
  221MOL0     C30427   4.868   5.585   3.208 -0.3628 -0.2853  0.4600
  221MOL0     C30428   5.004   5.511   3.218 -0.5567  0.8579 -0.2822
  221MOL0     H30429   5.207   5.933   3.045 -2.6150  1.2939  2.7164
  221MOL0     H30430   5.349   6.091   2.933  1.2703  1.6224 -0.5677
  221MOL0     H30431   5.424   6.129   2.653 -0.3793 -0.5169  0.7789
  221MOL0     H30432   5.453   6.228   2.801  0.0448  1.5634  0.3571
  221MOL0     H30433   5.394   6.347   2.530  1.4066  0.3054 -2.1601
  221MOL0     H30434   5.443   6.444   2.676  1.2278  0.5746 -1.1056
  221MOL0     H30435   5.625   6.427   2.548  1.0007 -0.4663 -0.3016
  221MOL0     H30436   5.657   6.320   2.681  0.1829 -4.3081 -2.2357
  221MOL0     H30437   5.619   6.116   2.561 -0.3080 -0.3025 -1.7913
  221MOL0     H30438   5.567   6.203   2.417  0.3558 -1.7349 -0.2630
  221MOL0     H30439   5.811   6.121   2.403  1.0296  0.3865  1.4012
  221MOL0     H30440   5.849   6.235   2.530 -0.9845 -0.4426  1.8240
  221MOL0     H30441   5.725   6.327   2.272  2.7678  2.1368 -2.4049
  221MOL0     H30442   5.798   6.427   2.408  2.4659  1.8718 -0.8395
  221MOL0     H30443   5.951   6.390   2.207 -1.1682 -1.1729 -1.2686
  221MOL0     H30444   5.923   6.218   2.244 -2.2821 -0.2261  2.1987
  221MOL0     H30445   6.059   6.231   2.448 -2.9463  0.1279  0.5858
  221MOL0     H30446   6.149   6.318   2.331  1.0187  0.7460  1.5773
  221MOL0     H30447   5.998   6.592   2.310 -3.3580  1.3751 -0.5198
  221MOL0     H30448   5.873   6.800   2.579 -2.0116 -1.3528 -0.8873
  221MOL0     H30449   5.933   6.829   2.420 -0.1167  0.3027  0.7310
  221MOL0     H30450   6.053   6.975   2.601 -1.8351 -1.4796  3.5287
  221MOL0     H30451   6.127   6.822   2.644  1.2253 -3.2781 -2.4255
  221MOL0     H30452   6.217   6.787   2.429  4.1413 -0.5181  3.2352
  221MOL0     H30453   6.143   6.937   2.353 -3.2316  1.3076  2.1317
  221MOL0     H30454   6.348   7.032   2.404  2.2552 -2.2187 -0.3170
  221MOL0     H30455   6.271   7.059   2.564 -1.2726 -2.6446  2.4339
  221MOL0     H30456   6.595   7.107   2.526  0.5499  0.2949  0.3531
  221MOL0     H30457   6.672   7.336   2.734 -0.9977 -0.3080 -1.4390
  221MOL0     H30458   6.748   7.251   2.595  0.1276 -2.1520 -0.5131
  221MOL0     H30459   6.819   7.252   2.765  0.0593  2.1195  0.1265
  221MOL0     H30460   6.630   7.198   3.258 -2.2526 -1.4186  0.4580
  221MOL0     H30461   6.702   7.243   3.479 -0.7096  1.4116 -0.9310
  221MOL0     H30462   6.931   7.372   3.589 -1.1993  1.0258  2.1604
  221MOL0     H30463   6.821   7.269   3.693 -0.2331 -1.0160 -0.3923
  221MOL0     H30464   6.986   7.354   3.853  1.3138  0.6430  0.9739
  221MOL0     H30465   7.059   7.209   3.802 -1.1866 -0.0443 -1.5933
  221MOL0     H30466   7.131   7.484   3.697 -2.0819  0.0998  2.0766
  221MOL0     H30467   7.197   7.314   3.645 -0.8459 -0.5270 -1.8605
  221MOL0     H30468   7.284   7.295   3.880  0.4092  0.8330  0.5349
  221MOL0     H30469   7.233   7.467   3.895  0.6818 -1.3204  2.2190
  221MOL0     H30470   7.423   7.371   3.685  1.9995  1.7809 -1.7056
  221MOL0     H30471   7.358   7.537   3.702 -0.3251  0.0222  1.3487
  221MOL0     H30472   7.526   7.409   3.922 -2.5007 -0.4015  0.3221
  221MOL0     H30473   7.477   7.576   3.917 -1.1011 -0.4440  0.0676
  221MOL0     H30474   7.602   7.631   3.729 -0.2510  1.9016  2.2122
  221MOL0     H30475   7.634   7.447   3.700 -1.5715  2.0223 -2.3579
  221MOL0     H30476   7.783   7.448   3.889 -2.0598 -0.8711  2.2298
  221MOL0     H30477   7.710   7.591   3.944  1.4124 -0.2642 -0.6614
  221MOL0     H30478   7.035   6.976   3.419 -1.0767 -1.4581  3.8672
  221MOL0     H30479   6.930   6.927   3.189 -2.2459  0.1255 -0.9424
  221MOL0     H30480   6.527   6.911   2.975  2.4256  0.6546  0.8742
  221MOL0     H30481   6.397   6.822   2.773 -1.4057  0.8563 -2.4291
  221MOL0     H30482   5.005   6.198   2.692 -2.8158 -1.3918  0.6339
  221MOL0     H30483   4.859   6.072   2.838  0.1072 -0.3753 -2.6502
  221MOL0     H30484   4.709   5.885   3.104 -0.6300  0.8551  2.9020
  221MOL0     H30485   4.524   5.782   3.244 -0.2634  0.0871 -3.0164
  221MOL0     H30486   4.424   5.459   3.265  1.6398  0.7930 -1.5068
  221MOL0     H30487   4.546   5.365   3.348  0.4648  0.7824 -3.1740
  221MOL0     H30488   4.449   5.372   3.550  4.7978  3.3434 -2.4442
  221MOL0     H30489   4.339   5.283   3.439 -0.7685  0.4024  1.1938
  221MOL0     H30490   4.304   5.561   3.576 -0.7559 -0.9102  1.4306
  221MOL0     H30491   4.250   5.548   3.415  0.9542  1.4155  0.7292
  221MOL0     H30492   4.154   5.342   3.635 -0.8889 -0.3300 -0.0278
  221MOL0     H30493   4.095   5.357   3.474  0.3375  0.0503 -0.7881
  221MOL0     H30494   3.828   5.616   3.646  0.5716  1.1994  0.3733
  221MOL0     H30495   4.764   5.471   3.361 -0.4943  2.6275  4.3982
  221MOL0     H30496   5.033   5.454   3.129  0.5304  1.7301 -0.5090
  221MOL0     H30497   5.083   5.583   3.240  0.4819  0.1524 -1.5723
  221MOL0     H30498   4.990   5.445   3.304 -0.8787  0.0438 -0.9406
  222MOL0     O30499   1.384   2.873   7.903  0.8701 -0.4214  0.9648
  222MOL0     C30500   1.266   2.852   7.902  0.4869 -0.3679 -0.2047
  222MOL0     O30501   1.191   2.782   7.997 -0.3057  0.1484  0.3482
  222MOL0     C30502   1.267   2.726   8.094 -0.2262  0.3080  0.0826
  222MOL0     C30503   1.266   2.779   8.223 -0.0054 -0.4977 -0.1258
  222MOL0     C30504   1.348   2.726   8.327 -0.2013  0.7424  0.7383
  222MOL0     C30505   1.426   2.612   8.302 -0.3746 -0.1514  0.8395
  222MOL0     O30506   1.493   2.551   8.408  0.0026  0.3064 -0.9693
  222MOL0     C30507   1.547   2.416   8.399 -0.4912  0.0753  0.2497
  222MOL0     C30508   1.602   2.352   8.516 -0.1852 -1.2382  0.0775
  222MOL0     C30509   1.499   2.299   8.615 -0.5836  0.3302  0.2111
  222MOL0     C30510   1.577   2.216   8.709  0.2248  1.3366  0.3736
  222MOL0     C30511   1.488   2.178   8.833 -0.0154  0.4211  0.1947
  222MOL0     C30512   1.566   2.122   8.954  0.2381 -0.3288 -0.9155
  222MOL0     C30513   1.546   1.967   8.977 -0.0012  0.2091  0.0332
  222MOL0     C30514   1.404   1.918   8.996 -0.5233  0.6437 -0.0523
  222MOL0     N30515   1.373   1.928   9.143  0.1486  0.6221  0.6951
  222MOL0     C30516   1.394   1.833   9.238 -0.4017 -0.7046  0.0190
  222MOL0     C30517   1.328   1.890   9.342 -0.7243  0.0203 -0.3273
  222MOL0     C30518   1.301   1.821   9.471  1.2487  0.5228  0.4400
  222MOL0     C30519   1.412   1.841   9.574  0.1996 -0.3609 -0.0294
  222MOL0     C30520   1.367   1.802   9.716 -0.4269  0.3054 -0.0149
  222MOL0     C30521   1.493   1.803   9.812  0.6858  0.0716  1.9213
  222MOL0     O30522   1.474   1.729   9.930  0.1894  0.5056  0.1239
  222MOL0     C30523   1.530   1.598   9.940 -0.1321 -0.0828  0.2723
  222MOL0     C30524   1.509   1.500   9.848 -0.4504 -0.5656  0.3624
  222MOL0     C30525   1.561   1.374   9.864  0.0086  0.2746 -0.0102
  222MOL0     C30526   1.538   1.274   9.747  0.1421  0.6760  0.1817
  222MOL0     C30527   1.634   1.339   9.983  0.3479  0.0406  0.4635
  222MOL0     C30528   1.704   1.206   9.995  0.8999 -0.3796 -0.3927
  222MOL0     O30529   1.673   1.120   9.903 -0.0075  0.6568  1.1059
  222MOL0     C30530   1.728   0.997   9.908 -0.2038 -0.1044 -0.4379
  222MOL0     C30531   1.655   0.877   9.928  0.7195  0.6395 -0.2662
  222MOL0     C30532   1.713   0.754   9.931 -0.8250 -0.4050 -0.1532
  222MOL0     C30533   1.854   0.735   9.913 -0.3012 -0.5513  0.5343
  222MOL0     O30534   1.919   0.613   9.915  0.2443  0.3180 -0.2071
  222MOL0     C30535   1.843   0.494   9.969  1.0320  0.0944  0.9790
  222MOL0     C30536   1.937   0.370   9.949  0.1898  0.2717 -0.8393
  222MOL0     C30537   1.939   0.245  10.036 -0.1863  0.7407 -0.0336
  222MOL0     C30538   2.004   0.258  10.175  0.0539 -0.0360  0.9024
  222MOL0     C30539   2.035   0.126  10.249 -0.4984  0.2012  0.1416
  222MOL0     C30540   2.137   0.037  10.183 -0.4849  0.1571 -0.3290
  222MOL0     C30541   2.275   0.102  10.166 -0.8631 -0.5961 -0.6096
  222MOL0     C30542   2.399   0.013  10.150 -1.5814  0.9896  0.1294
  222MOL0    Cl30543   2.447  -0.026   9.991 -0.0047 -0.0185  0.4038
  222MOL0     C30544   1.934   0.851   9.889 -0.7042  0.2334 -0.2493
  222MOL0     C30545   1.867   0.977   9.887 -0.4008 -0.7973 -0.6460
  222MOL0     O30546   1.770   1.181  10.092  0.5899 -0.7093 -0.1721
  222MOL0     C30547   1.646   1.438  10.082  0.4537  0.0544 -0.0174
  222MOL0     C30548   1.595   1.566  10.057 -0.1738 -0.4017 -0.2731
  222MOL0     N30549   1.274   2.015   9.310 -0.4735 -0.0743 -0.2980
  222MOL0     N30550   1.302   2.035   9.186 -0.5692 -0.8492 -0.5190
  222MOL0     C30551   1.428   2.560   8.173  0.3816 -0.1985  0.3766
  222MOL0     C30552   1.348   2.621   8.075 -0.7509  0.3780 -0.1768
  222MOL0     C30553   1.182   2.916   7.794  0.2866  0.3444 -0.2216
  222MOL0     C30554   1.043   2.935   7.821 -0.8988 -0.0050  0.6561
  222MOL0     C30555   0.958   3.004   7.728  0.1658 -0.1522  0.1068
  222MOL0     C30556   1.011   3.057   7.614 -0.2281 -0.7718  0.2623
  222MOL0     O30557   0.932   3.113   7.517  0.4117  0.0413 -0.2311
  222MOL0     C30558   0.808   3.188   7.541  0.4916  0.0511  0.2856
  222MOL0     C30559   0.825   3.302   7.640 -0.1895  0.5912 -0.0095
  222MOL0     C30560   0.813   3.446   7.586 -0.3456  0.0477 -0.1845
  222MOL0     C30561   0.934   3.481   7.497 -0.1643  0.4469  0.8930
  222MOL0     C30562   1.069   3.436   7.535 -0.0525  0.2702 -0.1141
  222MOL0     C30563   1.180   3.418   7.582 -0.7093 -0.4188  0.4128
  222MOL0     C30564   1.148   3.043   7.593  0.0512  0.7893  0.0738
  222MOL0     C30565   1.230   2.983   7.674 -0.6542 -0.2496  0.0349
  222MOL0     C30566   1.378   2.981   7.619  0.1979  0.4406 -0.1964
  222MOL0     H30567   1.210   2.870   8.241  1.9271  0.4325  1.5312
  222MOL0     H30568   1.349   2.755   8.432  4.5407  2.2532  0.5361
  222MOL0     H30569   1.627   2.422   8.324  0.9254 -1.1481  1.6040
  222MOL0     H30570   1.471   2.348   8.359 -2.1813  1.5464  0.7993
  222MOL0     H30571   1.672   2.275   8.483  0.5875 -2.0673  3.2455
  222MOL0     H30572   1.659   2.435   8.558 -0.6582  1.3514 -3.8837
  222MOL0     H30573   1.458   2.386   8.667 -0.8721 -0.9891  2.3070
  222MOL0     H30574   1.418   2.237   8.576  0.4930 -0.9804 -0.0146
  222MOL0     H30575   1.599   2.120   8.661  0.4664  0.8222  1.4607
  222MOL0     H30576   1.667   2.270   8.741  2.2386 -2.0711  0.9262
  222MOL0     H30577   1.409   2.112   8.798  0.1518  1.1017 -1.5451
  222MOL0     H30578   1.442   2.269   8.874 -1.0277  0.1159 -0.2408
  222MOL0     H30579   1.671   2.154   8.949 -0.5255  2.1964 -2.3521
  222MOL0     H30580   1.516   2.166   9.041  0.6131 -0.3334 -0.6936
  222MOL0     H30581   1.618   1.920   9.045  1.2996  0.4046 -1.1500
  222MOL0     H30582   1.583   1.929   8.882  1.9305 -1.1773  1.2728
  222MOL0     H30583   1.330   1.979   8.943 -1.6419 -2.0686 -1.7878
  222MOL0     H30584   1.397   1.813   8.969 -0.4298  0.9576 -1.3281
  222MOL0     H30585   1.441   1.735   9.232  1.6667  0.2025  0.2419
  222MOL0     H30586   1.283   1.715   9.456 -1.1171  0.6075  2.0994
  222MOL0     H30587   1.208   1.852   9.519 -0.2248 -2.0595 -0.6038
  222MOL0     H30588   1.495   1.778   9.543 -0.0152 -1.4503  1.4855
  222MOL0     H30589   1.444   1.946   9.578  0.3815 -0.4043 -0.3230
  222MOL0     H30590   1.290   1.867   9.757  0.7047  1.1878  0.7701
  222MOL0     H30591   1.328   1.700   9.710  1.4370 -0.6610  2.6073
  222MOL0     H30592   1.577   1.763   9.755 -1.6796  0.1313 -2.0457
  222MOL0     H30593   1.518   1.908   9.821 -0.1090  0.6902 -1.5311
  222MOL0     H30594   1.461   1.535   9.757  0.9024 -0.9797 -0.5348
  222MOL0     H30595   1.639   1.245   9.715  1.1939  0.8078  3.0508
  222MOL0     H30596   1.473   1.312   9.669  0.0414 -0.2309 -0.1795
  222MOL0     H30597   1.489   1.184   9.785  1.8731 -0.0266  0.8673
  222MOL0     H30598   1.546   0.873   9.934  0.7504 -3.2329  0.0585
  222MOL0     H30599   1.649   0.667   9.924  1.0441 -1.7547 -1.3896
  222MOL0     H30600   1.832   0.492  10.078  1.4137  0.4441  1.0284
  222MOL0     H30601   1.747   0.466   9.926  1.7211  0.1045 -0.6220
  222MOL0     H30602   1.920   0.341   9.844  0.8875  4.5182 -2.3289
  222MOL0     H30603   2.041   0.404   9.943  0.7015 -0.5908  1.7623
  222MOL0     H30604   2.000   0.164   9.994 -1.2534 -1.1539  1.8450
  222MOL0     H30605   1.842   0.197  10.052  1.3438 -1.7562  3.0341
  222MOL0     H30606   1.931   0.313  10.235 -1.3328 -0.2972 -0.4766
  222MOL0     H30607   2.089   0.327  10.164 -0.9981  1.4262  1.6531
  222MOL0     H30608   2.076   0.141  10.349 -0.6458 -0.8849  0.3816
  222MOL0     H30609   1.942   0.074  10.275 -1.5400  2.0405  0.2263
  222MOL0     H30610   2.103   0.019  10.080 -0.7867 -0.1413 -0.1790
  222MOL0     H30611   2.137  -0.063  10.227 -0.4432  0.1240 -0.4031
  222MOL0     H30612   2.293   0.168  10.251 -1.8245  0.2097 -1.0075
  222MOL0     H30613   2.272   0.165  10.076 -1.0322 -1.4630 -1.2212
  222MOL0     H30614   2.373  -0.089  10.181  2.8874 -0.7094 -0.9323
  222MOL0     H30615   2.479   0.057  10.210 -1.5235  1.2312 -0.1272
  222MOL0     H30616   2.041   0.839   9.878 -0.6318 -1.0096  1.4608
  222MOL0     H30617   1.932   1.064   9.880 -0.6616 -0.2931  1.9932
  222MOL0     H30618   1.695   1.428  10.178 -2.5192  1.7573  1.8594
  222MOL0     H30619   1.608   1.646  10.130 -2.5443 -0.9602  0.8500
  222MOL0     H30620   1.488   2.477   8.136 -3.9873 -3.2355 -0.6597
  222MOL0     H30621   1.348   2.593   7.970  1.9805  1.4978 -0.5505
  222MOL0     H30622   0.992   2.874   7.896  1.2560 -0.4260  1.8552
  222MOL0     H30623   0.853   3.006   7.753  1.1095  2.7612  4.9101
  222MOL0     H30624   0.781   3.226   7.442  0.8091 -4.3528 -1.7616
  222MOL0     H30625   0.730   3.115   7.568  3.2793 -4.0464 -1.6403
  222MOL0     H30626   0.921   3.290   7.691  0.2796  2.4995 -0.3778
  222MOL0     H30627   0.743   3.289   7.712 -1.2898  2.0366 -0.9542
  222MOL0     H30628   0.717   3.461   7.536 -1.2675  2.9405  2.1294
  222MOL0     H30629   0.823   3.512   7.673 -0.2718 -0.5860  0.2989
  222MOL0     H30630   0.942   3.589   7.480  3.6780  0.7418  3.4747
  222MOL0     H30631   0.918   3.439   7.397 -0.8730  2.4325  0.1298
  222MOL0     H30632   1.279   3.388   7.610  0.2367  1.0246 -1.1449
  222MOL0     H30633   1.190   3.091   7.505  1.8233 -0.0498  0.4267
  222MOL0     H30634   1.439   3.061   7.662  0.3834  0.4254 -0.4287
  222MOL0     H30635   1.413   2.880   7.641 -2.5754 -0.6843 -0.4606
  222MOL0     H30636   1.390   2.993   7.511 -0.4534  1.7071 -0.1593
  223MOL0     O30637   1.825   2.143   1.279 -0.0678  0.9779 -0.3115
  223MOL0     C30638   1.761   2.095   1.374 -0.6099 -0.1379  0.1589
  223MOL0     O30639   1.817   2.072   1.495 -0.0597  0.7378  0.2402
  223MOL0     C30640   1.948   2.100   1.496 -0.3465 -0.2226 -0.4511
  223MOL0     C30641   1.975   2.205   1.580 -0.2495 -0.8503  1.0748
  223MOL0     C30642   2.098   2.242   1.611 -0.7034 -0.7217  0.8878
  223MOL0     C30643   2.208   2.178   1.560 -0.3435  0.8386 -1.0117
  223MOL0     O30644   2.335   2.208   1.605 -0.3103 -0.1924 -0.3377
  223MOL0     C30645   2.446   2.118   1.557  0.3114 -0.8255  0.6950
  223MOL0     C30646   2.563   2.187   1.627  0.3339 -1.0839  0.4960
  223MOL0     C30647   2.555   2.211   1.774 -0.1627  0.5096 -0.7636
  223MOL0     C30648   2.690   2.207   1.846 -0.2820  0.2880  0.0304
  223MOL0     C30649   2.725   2.064   1.868 -0.9145  0.6397 -0.3139
  223MOL0     C30650   2.868   2.046   1.932 -0.6881  0.4310 -0.4499
  223MOL0     C30651   2.986   2.055   1.842 -0.4237 -0.5851  1.0216
  223MOL0     C30652   3.113   2.095   1.920  1.0612  0.3597 -0.1102
  223MOL0     N30653   3.241   2.056   1.850  0.5292  0.2422  0.6263
  223MOL0     C30654   3.261   2.061   1.714  0.8212  0.7945 -0.2849
  223MOL0     C30655   3.389   2.020   1.693  1.0060 -0.0693 -0.1999
  223MOL0     C30656   3.478   2.004   1.565 -0.5646 -0.8603  0.8117
  223MOL0     C30657   3.576   2.121   1.552 -0.3362 -0.5886  0.1085
  223MOL0     C30658   3.657   2.122   1.426  0.1784 -0.4628  0.0358
  223MOL0     C30659   3.769   2.225   1.435 -0.3681 -0.4864 -0.1531
  223MOL0     O30660   3.828   2.220   1.303 -0.5578  0.4172 -0.0480
  223MOL0     C30661   3.934   2.301   1.271 -0.6501  0.0499  0.2984
  223MOL0     C30662   3.997   2.388   1.361 -0.1536 -0.2444  0.1770
  223MOL0     C30663   4.088   2.486   1.321 -0.2641 -0.4419 -0.3497
  223MOL0     C30664   4.131   2.590   1.410 -0.0561 -0.4833 -0.2975
  223MOL0     C30665   4.124   2.484   1.187  0.2185 -0.1513  0.2228
  223MOL0     C30666   4.240   2.555   1.132 -0.1588 -0.1816 -0.2441
  223MOL0     O30667   4.290   2.662   1.193 -0.1501 -0.1950 -0.2532
  223MOL0     C30668   4.380   2.746   1.121  0.1479  0.2425  0.2611
  223MOL0     C30669   4.341   2.809   1.004  0.1570 -0.8426  0.1754
  223MOL0     C30670   4.427   2.900   0.939 -0.4070 -0.4228  0.4572
  223MOL0     C30671   4.557   2.922   0.993 -0.3578  0.5334  0.6379
  223MOL0     O30672   4.638   3.011   0.919  0.1234 -0.0555 -0.0013
  223MOL0     C30673   4.724   2.964   0.818  0.1903  0.2896  0.3026
  223MOL0     C30674   4.690   3.027   0.680  0.0076 -0.4397 -0.5235
  223MOL0     C30675   4.754   2.961   0.559 -0.5076  0.5161 -0.8797
  223MOL0     C30676   4.912   2.959   0.567  0.0975  0.4139 -0.4076
  223MOL0     C30677   4.964   3.104   0.548  0.3877  0.2790  0.0481
  223MOL0     C30678   5.112   3.103   0.589  0.1691 -0.2354 -0.2249
  223MOL0     C30679   5.167   3.220   0.518 -0.5435  0.6222 -0.4457
  223MOL0     C30680   5.304   3.257   0.579  0.2424 -1.2758 -0.5496
  223MOL0    Cl30681   5.369   3.410   0.510 -0.1065  0.2369  0.4643
  223MOL0     C30682   4.597   2.841   1.099 -1.0560 -0.6964 -0.9513
  223MOL0     C30683   4.506   2.769   1.180 -0.8450 -0.3814  0.9926
  223MOL0     O30684   4.284   2.514   1.021 -0.1117  1.1247 -0.3973
  223MOL0     C30685   4.067   2.386   1.099  0.2505  0.4959  0.7359
  223MOL0     C30686   3.968   2.297   1.140  0.1099  1.1947 -0.3169
  223MOL0     N30687   3.440   1.985   1.819  0.0471 -0.2720  0.7645
  223MOL0     N30688   3.356   2.010   1.903 -0.7117  0.1388 -0.4355
  223MOL0     C30689   2.180   2.065   1.474 -0.4134 -0.4768  1.1302
  223MOL0     C30690   2.048   2.021   1.443  0.3328  0.0395 -0.5018
  223MOL0     C30691   1.623   2.046   1.353  0.1958 -0.1041  0.4025
  223MOL0     C30692   1.559   1.972   1.463 -0.1405  0.1116  0.6161
  223MOL0     C30693   1.437   1.904   1.445  0.2254 -0.6230 -0.0148
  223MOL0     C30694   1.374   1.913   1.322  0.5087 -0.4451 -0.1758
  223MOL0     O30695   1.266   1.826   1.301 -0.0477 -0.3627 -0.0531
  223MOL0     C30696   1.163   1.874   1.213 -0.1723  0.2943 -0.4459
  223MOL0     C30697   1.099   2.013   1.260 -0.5663 -0.6451  0.2470
  223MOL0     C30698   0.987   2.030   1.156  0.3908  0.2419 -0.0192
  223MOL0     C30699   0.900   2.147   1.194  0.2534 -0.3319 -0.3470
  223MOL0     C30700   0.804   2.155   1.081 -0.3814 -0.3319 -0.6121
  223MOL0     C30701   0.718   2.166   1.002  0.0584 -0.0861  0.4390
  223MOL0     C30702   1.431   1.980   1.217 -0.0746 -0.2306  0.5034
  223MOL0     C30703   1.552   2.044   1.227 -0.2948  0.6199 -0.5204
  223MOL0     C30704   1.609   2.110   1.109  0.3566 -0.5071  0.0151
  223MOL0     H30705   1.888   2.254   1.623 -0.2013 -1.4212  1.8599
  223MOL0     H30706   2.117   2.320   1.684  4.1998 -0.2562 -0.5354
  223MOL0     H30707   2.459   2.125   1.449 -1.8398  1.3461  0.5177
  223MOL0     H30708   2.443   2.011   1.580  1.9704 -1.1099 -0.1914
  223MOL0     H30709   2.655   2.136   1.599  1.9516  0.3703  2.8586
  223MOL0     H30710   2.577   2.285   1.580  1.4774  0.1260  3.1519
  223MOL0     H30711   2.494   2.302   1.784 -0.1955  0.2772  1.6255
  223MOL0     H30712   2.508   2.122   1.817  2.6077 -1.5062 -1.6769
  223MOL0     H30713   2.760   2.264   1.785  0.7864  2.5992  3.1706
  223MOL0     H30714   2.698   2.254   1.944  2.9755 -0.9986  0.5042
  223MOL0     H30715   2.727   2.010   1.772 -0.4097  1.3688 -0.7269
  223MOL0     H30716   2.644   2.027   1.932 -0.8705 -0.1425 -0.6936
  223MOL0     H30717   2.868   2.129   2.003 -3.2804  0.7911 -0.7439
  223MOL0     H30718   2.879   1.947   1.975  1.8104 -0.0028 -1.9178
  223MOL0     H30719   2.971   2.139   1.774  1.6418 -1.1999 -0.3027
  223MOL0     H30720   2.999   1.959   1.790 -1.7268  0.3232 -1.0968
  223MOL0     H30721   3.109   2.205   1.923  0.8531  0.3243  1.5852
  223MOL0     H30722   3.120   2.055   2.021  1.4594  1.7653  0.4380
  223MOL0     H30723   3.197   2.098   1.634 -1.3566 -0.8416  0.5978
  223MOL0     H30724   3.410   2.004   1.479 -1.7615 -1.9551  1.7261
  223MOL0     H30725   3.533   1.909   1.569  0.5705 -0.4015 -1.8122
  223MOL0     H30726   3.518   2.212   1.535  1.7794  0.5329 -1.5366
  223MOL0     H30727   3.641   2.141   1.637  2.1555  0.0381 -1.8486
  223MOL0     H30728   3.712   2.028   1.412 -1.7591 -1.6024 -0.2060
  223MOL0     H30729   3.590   2.139   1.341 -0.1839 -0.8730  0.2361
  223MOL0     H30730   3.732   2.324   1.464  3.9940  2.2672 -2.7909
  223MOL0     H30731   3.850   2.193   1.502  3.0336  2.8645 -2.2861
  223MOL0     H30732   3.974   2.390   1.467 -2.3676 -1.8171 -0.1984
  223MOL0     H30733   4.239   2.602   1.419 -0.3260  2.5773 -0.1700
  223MOL0     H30734   4.099   2.581   1.514 -1.4065 -0.4627 -0.6892
  223MOL0     H30735   4.092   2.683   1.368 -0.5618 -1.3366 -1.8188
  223MOL0     H30736   4.249   2.779   0.955 -0.1094 -4.0039  2.3270
  223MOL0     H30737   4.396   2.957   0.852  3.2896  2.8967  1.0286
  223MOL0     H30738   4.826   2.998   0.833 -0.1003  2.9754 -2.8811
  223MOL0     H30739   4.707   2.855   0.820 -3.1519  0.7124  1.1137
  223MOL0     H30740   4.582   3.014   0.673  0.1109 -4.3779  1.8945
  223MOL0     H30741   4.722   3.131   0.686 -1.3764 -0.0680  1.7146
  223MOL0     H30742   4.725   3.009   0.465  0.8613  0.8537 -1.1511
  223MOL0     H30743   4.721   2.857   0.551  2.3734 -0.4691 -1.0235
  223MOL0     H30744   4.946   2.904   0.479 -1.7683 -0.0399 -0.8718
  223MOL0     H30745   4.953   2.910   0.656  0.3032 -0.4958 -0.9912
  223MOL0     H30746   4.955   3.125   0.441  0.3111  0.0238  0.0034
  223MOL0     H30747   4.911   3.175   0.612  1.9153  0.5991  1.0005
  223MOL0     H30748   5.161   3.010   0.559  2.2990  0.7805 -0.0651
  223MOL0     H30749   5.131   3.102   0.697  0.1622 -3.0507 -0.1755
  223MOL0     H30750   5.094   3.300   0.534 -0.5929  0.2435  1.5205
  223MOL0     H30751   5.190   3.201   0.413 -2.2576  1.1401 -0.9569
  223MOL0     H30752   5.383   3.181   0.579 -0.0686 -1.6406  1.1995
  223MOL0     H30753   5.281   3.280   0.683 -2.3247  2.0892 -1.6655
  223MOL0     H30754   4.701   2.856   1.127 -0.9154 -2.2257 -0.5956
  223MOL0     H30755   4.539   2.718   1.269  1.2886 -0.5100  0.1800
  223MOL0     H30756   4.079   2.381   0.991 -0.2837  1.7385  0.5995
  223MOL0     H30757   3.930   2.215   1.080 -0.4333  2.3592 -1.6526
  223MOL0     H30758   2.259   2.014   1.420 -1.3970 -3.3977  2.2246
  223MOL0     H30759   2.038   1.929   1.386  1.8660 -1.2479  1.1603
  223MOL0     H30760   1.615   1.952   1.554  1.6674  0.5790 -0.3554
  223MOL0     H30761   1.394   1.848   1.527 -0.2115 -1.9170 -1.0865
  223MOL0     H30762   1.199   1.870   1.110  1.1676  0.1104  0.0058
  223MOL0     H30763   1.096   1.787   1.215  1.0257 -0.6513  0.5179
  223MOL0     H30764   1.162   2.102   1.264  0.7927 -1.4821 -1.1493
  223MOL0     H30765   1.049   1.992   1.355 -2.9379 -4.3702 -1.5813
  223MOL0     H30766   1.019   2.023   1.051  0.4697 -0.6470  0.0608
  223MOL0     H30767   0.931   1.937   1.167  4.7323 -2.6865  0.0137
  223MOL0     H30768   0.949   2.244   1.206 -1.8521  0.9109 -1.1656
  223MOL0     H30769   0.847   2.112   1.284 -1.1577 -2.3773 -1.8593
  223MOL0     H30770   0.650   2.183   0.920  0.8709 -1.1202 -0.4777
  223MOL0     H30771   1.381   1.980   1.121  0.7259  1.2955  0.0528
  223MOL0     H30772   1.695   2.054   1.070  0.5154 -0.8496  0.8426
  223MOL0     H30773   1.529   2.115   1.035 -1.4398 -3.5363  1.5592
  223MOL0     H30774   1.645   2.211   1.130 -0.6991  0.0203 -0.6062
  224MOL0     O30775   6.234   2.670   6.576 -0.4468  0.3846 -0.1470
  224MOL0     C30776   6.314   2.578   6.562 -0.5146  0.2198  0.4344
  224MOL0     O30777   6.286   2.449   6.544  0.2603 -0.5375  0.3177
  224MOL0     C30778   6.155   2.415   6.533 -0.1720  0.6570  0.3168
  224MOL0     C30779   6.085   2.429   6.417 -0.2709 -0.7728  0.9327
  224MOL0     C30780   5.951   2.390   6.398 -0.3947  0.5465 -0.2473
  224MOL0     C30781   5.879   2.341   6.507 -0.0623  0.2988  0.2023
  224MOL0     O30782   5.740   2.320   6.495  0.6540 -0.4657  1.5570
  224MOL0     C30783   5.672   2.308   6.617  0.8092  0.1454 -0.3173
  224MOL0     C30784   5.525   2.317   6.599  0.6899  0.7444  0.7657
  224MOL0     C30785   5.450   2.267   6.726  0.2578  0.2929 -0.7775
  224MOL0     C30786   5.309   2.326   6.723 -0.5658  0.6843  0.0143
  224MOL0     C30787   5.234   2.299   6.854  0.2044  0.0050  0.4232
  224MOL0     C30788   5.107   2.375   6.868 -0.4623 -0.4061  0.7348
  224MOL0     C30789   5.048   2.344   7.008  0.0929 -0.1474 -1.4329
  224MOL0     C30790   4.918   2.417   7.032 -0.0293 -0.2441  0.3374
  224MOL0     N30791   4.839   2.369   7.145  0.3781  0.5166 -0.2492
  224MOL0     C30792   4.880   2.385   7.277  0.0229  0.4396  0.4913
  224MOL0     C30793   4.785   2.306   7.336 -0.4183  1.2867 -0.4490
  224MOL0     C30794   4.768   2.291   7.479 -0.2758 -0.0402  0.1999
  224MOL0     C30795   4.643   2.363   7.544 -1.1803  0.0297 -0.0396
  224MOL0     C30796   4.524   2.274   7.557 -0.7693 -0.2253 -0.3035
  224MOL0     C30797   4.405   2.360   7.607  0.8665  0.3256 -0.1262
  224MOL0     O30798   4.279   2.293   7.592  0.1200 -0.3556 -0.1360
  224MOL0     C30799   4.169   2.369   7.626  1.0494  0.0454  0.4584
  224MOL0     C30800   4.157   2.487   7.713 -0.5000  0.1772  0.1752
  224MOL0     C30801   4.030   2.535   7.754 -0.5906 -0.4233 -0.7819
  224MOL0     C30802   4.018   2.625   7.878 -0.1448  0.2102  0.2917
  224MOL0     C30803   3.906   2.479   7.691  1.1164  0.4779  0.5186
  224MOL0     C30804   3.768   2.531   7.713 -0.3280  1.0051 -0.5606
  224MOL0     O30805   3.757   2.653   7.765  0.3157 -0.3373 -1.0039
  224MOL0     C30806   3.643   2.719   7.747 -0.4034 -0.8422 -0.6489
  224MOL0     C30807   3.596   2.749   7.616 -0.5918 -0.3819 -0.5637
  224MOL0     C30808   3.474   2.815   7.610  0.5167 -0.4374  0.4035
  224MOL0     C30809   3.390   2.838   7.719  0.2239 -0.1303  0.3036
  224MOL0     O30810   3.258   2.902   7.716 -0.4112 -0.2014  0.4416
  224MOL0     C30811   3.192   2.939   7.597  0.9249  0.0949  0.6261
  224MOL0     C30812   3.042   2.959   7.606 -0.0460  0.2576  0.4972
  224MOL0     C30813   3.006   3.048   7.728 -0.9510 -0.3288  0.1184
  224MOL0     C30814   2.859   3.081   7.723  0.8640  0.0906  0.0205
  224MOL0     C30815   2.804   3.148   7.844  0.0866  0.9195  0.2039
  224MOL0     C30816   2.866   3.272   7.901  0.5468 -0.2681  0.0814
  224MOL0     C30817   2.884   3.378   7.785 -0.5493 -0.2924  0.9760
  224MOL0     C30818   2.753   3.408   7.701 -0.0029  0.7106 -0.3678
  224MOL0    Cl30819   2.634   3.457   7.835  0.2272  0.0780  0.3249
  224MOL0     C30820   3.441   2.814   7.845 -0.2167  0.0540  0.0158
  224MOL0     C30821   3.566   2.758   7.864 -0.6604  0.6238  0.3771
  224MOL0     O30822   3.675   2.460   7.678 -0.1991  0.9403  0.5299
  224MOL0     C30823   3.922   2.386   7.596  0.4337  0.2273  0.0828
  224MOL0     C30824   4.052   2.327   7.563  0.1445 -0.5050 -0.2386
  224MOL0     N30825   4.701   2.240   7.247 -0.2036  0.4892 -0.3735
  224MOL0     N30826   4.734   2.279   7.129  0.0934 -0.4551 -0.5563
  224MOL0     C30827   5.958   2.320   6.625  0.5148 -0.8658 -0.9017
  224MOL0     C30828   6.092   2.347   6.636 -0.0226 -1.0541  0.8902
  224MOL0     C30829   6.459   2.620   6.555  0.3559 -0.0991 -0.2988
  224MOL0     C30830   6.501   2.725   6.638 -0.0225 -0.0945 -0.2260
  224MOL0     C30831   6.637   2.761   6.653 -0.2168  0.6239  0.5567
  224MOL0     C30832   6.730   2.682   6.587  0.1197  0.3880  0.1770
  224MOL0     O30833   6.854   2.724   6.620  0.4804  0.1093  0.1582
  224MOL0     C30834   6.971   2.651   6.583 -0.0432  0.2847  0.4515
  224MOL0     C30835   7.012   2.559   6.697 -0.1263  0.0069  0.1074
  224MOL0     C30836   7.153   2.489   6.677  0.1851 -1.0802  0.1541
  224MOL0     C30837   7.211   2.415   6.797 -0.4300  0.0502 -0.2167
  224MOL0     C30838   7.333   2.341   6.752  0.0428  0.1309 -0.4015
  224MOL0     C30839   7.433   2.280   6.714  0.5853 -0.1994 -0.6725
  224MOL0     C30840   6.692   2.587   6.497 -0.1221  0.7240 -0.0317
  224MOL0     C30841   6.558   2.547   6.482  0.2073  0.8388 -0.6677
  224MOL0     C30842   6.526   2.446   6.377  0.2509 -0.2398 -0.9191
  224MOL0     H30843   6.140   2.483   6.340  2.9329 -1.7590  2.3691
  224MOL0     H30844   5.910   2.419   6.301  0.6241  3.4742  0.0900
  224MOL0     H30845   5.693   2.390   6.686  0.4341  0.3399 -0.4330
  224MOL0     H30846   5.706   2.216   6.665  1.1493 -0.8768 -2.4033
  224MOL0     H30847   5.500   2.422   6.585  0.3070  0.5714  0.1025
  224MOL0     H30848   5.487   2.252   6.519 -1.4356  0.0780  2.2281
  224MOL0     H30849   5.433   2.159   6.725  3.9393 -0.4403  0.6794
  224MOL0     H30850   5.498   2.292   6.821 -2.8803 -1.2183  1.3475
  224MOL0     H30851   5.321   2.434   6.709  0.3826  0.5133 -0.5756
  224MOL0     H30852   5.252   2.270   6.648 -2.0282 -0.8078  2.1005
  224MOL0     H30853   5.295   2.344   6.932 -1.1117  1.7082  0.5285
  224MOL0     H30854   5.213   2.192   6.868 -4.0493  0.4813 -0.7486
  224MOL0     H30855   5.119   2.482   6.852 -0.8373 -0.9109 -5.8054
  224MOL0     H30856   5.039   2.353   6.785  1.0313 -1.2750 -0.3314
  224MOL0     H30857   5.118   2.377   7.085 -0.3524  2.5143 -2.0735
  224MOL0     H30858   5.033   2.236   7.021 -0.1857  0.1089  0.6724
  224MOL0     H30859   4.943   2.523   7.035  1.0388 -0.4428 -0.9298
  224MOL0     H30860   4.845   2.401   6.952 -0.2791  0.4472  0.4181
  224MOL0     H30861   4.958   2.448   7.320  2.1831 -2.5909  1.4058
  224MOL0     H30862   4.853   2.332   7.535  0.4260 -0.3709 -0.6047
  224MOL0     H30863   4.756   2.190   7.519 -0.5302  0.3095  1.0330
  224MOL0     H30864   4.688   2.405   7.634  1.2913  0.0050 -1.1674
  224MOL0     H30865   4.621   2.448   7.479  0.0843  1.4234  1.2925
  224MOL0     H30866   4.488   2.242   7.459  2.5596  0.5770 -1.9279
  224MOL0     H30867   4.566   2.198   7.623  2.9105 -0.2302 -2.4018
  224MOL0     H30868   4.412   2.380   7.714 -4.2561 -1.4835  0.8297
  224MOL0     H30869   4.393   2.452   7.549  1.5678  0.9865  0.7415
  224MOL0     H30870   4.243   2.529   7.765 -0.4096 -2.2652  2.2351
  224MOL0     H30871   4.115   2.631   7.927 -0.2842  0.6370  0.5126
  224MOL0     H30872   3.948   2.576   7.946 -0.6710 -1.2826 -1.2337
  224MOL0     H30873   3.979   2.724   7.853  1.6652  0.6129 -1.1885
  224MOL0     H30874   3.661   2.726   7.532 -1.5304 -2.1367 -0.8625
  224MOL0     H30875   3.446   2.827   7.506 -1.4630 -0.1647  0.9210
  224MOL0     H30876   3.238   3.031   7.561 -0.6087  0.0503 -1.5987
  224MOL0     H30877   3.198   2.860   7.522  1.7919  2.7417 -2.2863
  224MOL0     H30878   3.002   3.015   7.522  0.7625  1.8101  1.1153
  224MOL0     H30879   2.992   2.861   7.608 -1.4543  0.9177 -0.7490
  224MOL0     H30880   3.058   3.144   7.721 -1.6980  0.1799  1.2001
  224MOL0     H30881   3.032   2.988   7.816  1.4447 -0.7972 -0.8209
  224MOL0     H30882   2.796   2.992   7.710  0.2895  0.6971 -1.6023
  224MOL0     H30883   2.843   3.142   7.634  3.5961 -0.7238 -1.1565
  224MOL0     H30884   2.698   3.162   7.818 -0.3793 -2.0837  0.1034
  224MOL0     H30885   2.798   3.066   7.916 -1.6208 -1.2095 -2.1722
  224MOL0     H30886   2.966   3.255   7.940  0.4923 -1.3886 -0.2233
  224MOL0     H30887   2.798   3.310   7.978  0.2549  3.0903 -1.6299
  224MOL0     H30888   2.954   3.341   7.710  1.6713  1.1040  2.2590
  224MOL0     H30889   2.930   3.469   7.825 -1.8877 -0.1232  2.2258
  224MOL0     H30890   2.714   3.330   7.634 -1.4042 -1.2397  2.5310
  224MOL0     H30891   2.783   3.490   7.635 -2.9842  1.6025 -0.7375
  224MOL0     H30892   3.394   2.840   7.940 -0.8802 -1.6778  0.2067
  224MOL0     H30893   3.616   2.741   7.959  0.2961  0.9284 -0.0499
  224MOL0     H30894   3.829   2.350   7.554  1.4125 -1.8666 -0.3957
  224MOL0     H30895   4.069   2.246   7.493 -1.4272 -3.4058  2.4737
  224MOL0     H30896   5.915   2.275   6.714  1.1072 -1.8166 -1.0853
  224MOL0     H30897   6.137   2.326   6.733 -0.4085  0.2679  1.3763
  224MOL0     H30898   6.425   2.787   6.684 -0.6853  1.1467 -2.8023
  224MOL0     H30899   6.661   2.842   6.721 -1.8920 -0.8055  2.9753
  224MOL0     H30900   6.957   2.596   6.489  0.0413  1.0369 -0.0108
  224MOL0     H30901   7.046   2.727   6.558  0.2388 -0.1806 -0.1226
  224MOL0     H30902   6.936   2.480   6.689  0.0895  0.0129 -3.9099
  224MOL0     H30903   7.014   2.617   6.790  1.2432  1.0896 -0.5807
  224MOL0     H30904   7.148   2.418   6.594  0.6424  0.2880 -1.0754
  224MOL0     H30905   7.227   2.565   6.651 -2.0333  1.8754  1.8257
  224MOL0     H30906   7.145   2.340   6.842 -0.2646 -0.8439 -1.4373
  224MOL0     H30907   7.238   2.489   6.873  1.1246 -0.7101  0.0162
  224MOL0     H30908   7.518   2.224   6.681  0.0178 -0.1105 -2.3929
  224MOL0     H30909   6.771   2.530   6.449 -0.4593  0.7291 -0.5958
  224MOL0     H30910   6.475   2.369   6.434  0.2432  2.1024  2.4927
  224MOL0     H30911   6.458   2.499   6.310  0.1543 -1.3874 -1.7674
  224MOL0     H30912   6.612   2.402   6.324  1.9412  0.9243  0.7436
  225MOL0     O30913  11.410   1.928  10.205 -0.7118  0.6160  0.4899
  225MOL0     C30914  11.423   1.968  10.318  0.0599  0.0603 -0.7372
  225MOL0     O30915  11.545   1.989  10.374 -0.4421 -0.1313 -0.7968
  225MOL0     C30916  11.658   2.026  10.317 -0.4536  0.1035  1.0463
  225MOL0     C30917  11.668   2.079  10.183 -0.2628  1.1741 -0.1013
  225MOL0     C30918  11.795   2.098  10.130  0.1360  0.4096 -0.1168
  225MOL0     C30919  11.907   2.098  10.214 -0.4644  0.9114  0.7407
  225MOL0     O30920  12.034   2.128  10.167 -0.1708  0.3027  0.7484
  225MOL0     C30921  12.066   2.104  10.027  0.2684 -0.0646  0.6416
  225MOL0     C30922  12.215   2.121  10.000 -0.1611 -0.2846  0.9964
  225MOL0     C30923  12.292   2.021  10.095  0.3880 -0.1166  0.0115
  225MOL0     C30924  12.440   2.056  10.077  0.6211  0.2099  0.1410
  225MOL0     C30925  12.515   1.953  10.171 -0.1210 -0.1867 -0.1652
  225MOL0     C30926  12.663   1.989  10.159  0.7522 -0.6835  0.7160
  225MOL0     C30927  12.759   1.900  10.238 -0.6287  0.1357  0.4994
  225MOL0     C30928  12.895   1.956  10.226 -0.2762 -0.7402  0.8481
  225MOL0     N30929  12.992   1.872  10.302 -0.6307  0.3953  0.0843
  225MOL0     C30930  13.121   1.899  10.348 -0.1095 -0.6711  0.2739
  225MOL0     C30931  13.164   1.785  10.411 -0.4065  0.8038  0.1447
  225MOL0     C30932  13.303   1.784  10.469  0.0926 -0.3214 -0.0897
  225MOL0     C30933  13.402   1.817  10.364  0.8318 -0.7151  1.1477
  225MOL0     C30934  13.549   1.788  10.400 -0.0818 -0.6664  0.1542
  225MOL0     C30935  13.593   1.832  10.538  0.0754 -0.1750 -0.4733
  225MOL0     O30936  13.581   1.980  10.535  0.0464  0.1231  0.0261
  225MOL0     C30937  13.691   2.051  10.500  0.4672 -0.7780 -0.0799
  225MOL0     C30938  13.818   2.008  10.464  0.4346 -0.5018 -0.5351
  225MOL0     C30939  13.914   2.104  10.419  0.0723 -0.1843 -0.2253
  225MOL0     C30940  14.035   2.053  10.348 -0.3026  0.9029  0.2425
  225MOL0     C30941  13.883   2.240  10.435 -0.4306 -0.7194  0.8373
  225MOL0     C30942  13.973   2.351  10.400 -0.7425 -0.1996 -0.3801
  225MOL0     O30943  13.916   2.449  10.324 -0.0812 -0.2268 -0.7623
  225MOL0     C30944  13.985   2.552  10.261  0.3131  0.3529  0.9076
  225MOL0     C30945  14.113   2.529  10.210 -0.5257  0.0863 -0.1390
  225MOL0     C30946  14.172   2.619  10.125  0.0551 -1.1582 -0.3350
  225MOL0     C30947  14.105   2.740  10.090 -0.4053  0.7429 -0.0023
  225MOL0     O30948  14.146   2.847  10.007 -0.1665  0.2287 -0.5012
  225MOL0     C30949  14.288   2.839   9.963 -0.3432 -0.5186 -0.0824
  225MOL0     C30950  14.333   2.956   9.873  0.5237  0.1091  0.2841
  225MOL0     C30951  14.271   2.954   9.738  0.3238  0.4330  0.4336
  225MOL0     C30952  14.287   3.091   9.662  0.0273 -0.7120 -0.1382
  225MOL0     C30953  14.196   3.081   9.542 -0.9408 -0.1288  0.2670
  225MOL0     C30954  14.179   3.207   9.455 -0.1557  0.3532 -0.3504
  225MOL0     C30955  14.104   3.195   9.313 -1.1223 -0.6353 -1.4005
  225MOL0     C30956  13.975   3.120   9.324 -0.5262 -0.3562 -0.4022
  225MOL0    Cl30957  13.835   3.223   9.371 -0.3215 -0.1142 -0.3333
  225MOL0     C30958  13.981   2.761  10.149  0.9387  0.1685 -0.9545
  225MOL0     C30959  13.917   2.672  10.236 -0.2631  0.0748 -0.4005
  225MOL0     O30960  14.093   2.360  10.446 -0.0356 -0.6982  0.3140
  225MOL0     C30961  13.763   2.280  10.482  0.6194 -0.1058 -0.3174
  225MOL0     C30962  13.666   2.191  10.515 -0.3476  0.1716 -0.6539
  225MOL0     N30963  13.074   1.685  10.387 -0.9949  0.0049 -0.4978
  225MOL0     N30964  12.974   1.740  10.341  0.1919  0.0997 -0.2273
  225MOL0     C30965  11.893   2.073  10.351 -0.4304 -0.3850  0.0090
  225MOL0     C30966  11.770   2.029  10.402  0.6411  0.3009  0.7673
  225MOL0     C30967  11.311   1.957  10.410 -0.6014 -0.4828  0.1568
  225MOL0     C30968  11.323   1.913  10.541  0.2212 -0.7275  0.0355
  225MOL0     C30969  11.213   1.898  10.621 -0.0274  0.2690 -0.0760
  225MOL0     C30970  11.093   1.936  10.582 -0.0345  0.4478 -0.0470
  225MOL0     O30971  10.981   1.930  10.660 -0.8162 -0.5308  0.8202
  225MOL0     C30972  10.906   1.802  10.664  0.5333 -0.0906 -0.1044
  225MOL0     C30973  10.755   1.813  10.693  0.0504 -0.0571  0.6232
  225MOL0     C30974  10.676   1.844  10.564  0.4470  0.0176  0.0604
  225MOL0     C30975  10.524   1.840  10.586  1.0642 -0.0133 -0.1802
  225MOL0     C30976  10.461   1.914  10.475 -0.2217 -0.0233  0.6829
  225MOL0     C30977  10.423   1.972  10.377 -1.0038  0.5976  1.2415
  225MOL0     C30978  11.077   1.983  10.448 -0.2835  0.5379 -0.1073
  225MOL0     C30979  11.184   1.997  10.365 -0.0727  1.5828  0.1348
  225MOL0     C30980  11.162   2.059  10.234 -0.2249  0.3259 -0.0732
  225MOL0     H30981  11.582   2.095  10.118  0.4552 -1.5717 -1.9080
  225MOL0     H30982  11.790   2.130  10.026 -2.9997  1.2948  0.2037
  225MOL0     H30983  12.021   2.185   9.969 -0.7780 -0.4268  0.9152
  225MOL0     H30984  12.038   2.002   9.998 -0.0640 -0.2295  1.5093
  225MOL0     H30985  12.232   2.101   9.894  0.1637 -0.8890  1.1518
  225MOL0     H30986  12.251   2.218  10.035 -2.3227  0.2732  1.8141
  225MOL0     H30987  12.256   2.033  10.198  3.4384 -0.9992  1.2669
  225MOL0     H30988  12.267   1.923  10.053 -2.3026 -0.0190  1.1385
  225MOL0     H30989  12.471   2.038   9.973 -0.4375  0.9586 -0.3202
  225MOL0     H30990  12.457   2.162  10.095 -1.8441  0.7019 -0.1520
  225MOL0     H30991  12.493   1.847  10.154 -1.0171  0.0590 -0.6350
  225MOL0     H30992  12.488   1.974  10.275  3.6019 -0.9894  1.1097
  225MOL0     H30993  12.684   1.978  10.052 -0.7193  0.5326  0.2663
  225MOL0     H30994  12.676   2.096  10.178 -0.7838 -0.1629 -0.9512
  225MOL0     H30995  12.769   1.799  10.196  0.2733 -1.0358  3.2219
  225MOL0     H30996  12.726   1.883  10.341  0.0014 -3.3305  0.2853
  225MOL0     H30997  12.930   1.975  10.124  0.2977 -2.6570  0.6483
  225MOL0     H30998  12.898   2.053  10.277 -1.4580 -1.5388  2.5204
  225MOL0     H30999  13.182   1.988  10.346 -0.4390 -0.4274  0.8058
  225MOL0     H31000  13.315   1.687  10.519  0.7344  0.8440  2.1319
  225MOL0     H31001  13.321   1.861  10.544  0.4625 -0.6824  0.1967
  225MOL0     H31002  13.387   1.748  10.280  0.7059 -0.7082  1.1643
  225MOL0     H31003  13.388   1.919  10.328 -0.1525 -0.6340  1.7467
  225MOL0     H31004  13.563   1.680  10.393 -0.7876 -0.6354 -3.3176
  225MOL0     H31005  13.608   1.845  10.328 -1.7577 -0.2447 -0.9300
  225MOL0     H31006  13.525   1.783  10.609  0.5743 -1.2107 -0.6845
  225MOL0     H31007  13.690   1.787  10.562 -0.5494 -1.0065  0.6202
  225MOL0     H31008  13.843   1.904  10.445  2.0255 -0.3842  0.6539
  225MOL0     H31009  14.060   2.121  10.266  2.4216 -0.2890 -0.0463
  225MOL0     H31010  14.019   1.947  10.324  1.8942  0.3456  0.9144
  225MOL0     H31011  14.118   2.050  10.420 -0.1452 -1.5739  0.0471
  225MOL0     H31012  14.165   2.434  10.219 -1.6386 -0.4768  0.5590
  225MOL0     H31013  14.266   2.598  10.076 -0.3962 -0.6189 -1.4830
  225MOL0     H31014  14.347   2.841  10.056 -0.5750  2.2527  0.0750
  225MOL0     H31015  14.315   2.747   9.909  0.9569 -0.0507 -0.2703
  225MOL0     H31016  14.296   3.051   9.914  1.0791 -0.0554  1.1909
  225MOL0     H31017  14.442   2.961   9.873  0.4991  0.7473  1.1703
  225MOL0     H31018  14.166   2.929   9.757  0.5767 -0.2473  0.9756
  225MOL0     H31019  14.312   2.888   9.660  1.0338  3.4797 -1.9601
  225MOL0     H31020  14.393   3.102   9.636 -0.0242  1.0260  0.2860
  225MOL0     H31021  14.255   3.178   9.719  1.4028 -0.3261  0.0720
  225MOL0     H31022  14.243   3.001   9.483 -1.7685 -1.5115  1.4277
  225MOL0     H31023  14.099   3.047   9.581  0.2966 -2.1062  1.8187
  225MOL0     H31024  14.277   3.243   9.424 -0.0325  0.8919  0.6185
  225MOL0     H31025  14.130   3.282   9.517 -1.0007  1.1452 -1.9159
  225MOL0     H31026  14.175   3.149   9.244  1.1902  1.9292 -0.8949
  225MOL0     H31027  14.089   3.294   9.268  0.3634  0.7173  0.8726
  225MOL0     H31028  14.003   3.027   9.374  3.4720 -0.1140 -1.9064
  225MOL0     H31029  13.943   3.089   9.224  2.4333 -0.8820 -1.2680
  225MOL0     H31030  13.924   2.851  10.133 -0.5087 -0.3448  0.8810
  225MOL0     H31031  13.822   2.694  10.283 -0.4665 -2.5336  0.5748
  225MOL0     H31032  13.748   2.386  10.500 -1.8200 -0.4960  0.2626
  225MOL0     H31033  13.569   2.222  10.552 -0.1535 -1.1519  1.1222
  225MOL0     H31034  11.979   2.078  10.416 -1.2973  0.7499  1.1026
  225MOL0     H31035  11.763   2.005  10.507  0.6990 -0.6546  0.5645
  225MOL0     H31036  11.414   1.864  10.576 -0.2268 -1.1272  0.6523
  225MOL0     H31037  11.229   1.841  10.712 -0.2765 -2.1099 -1.4363
  225MOL0     H31038  10.925   1.740  10.577 -2.2366 -0.4585 -0.5339
  225MOL0     H31039  10.945   1.743  10.747 -2.2273 -1.1857  0.5414
  225MOL0     H31040  10.727   1.885  10.770 -1.7759  2.1609 -1.9742
  225MOL0     H31041  10.721   1.715  10.728  2.4499 -1.4210 -0.6078
  225MOL0     H31042  10.707   1.941  10.523 -1.8934  1.2666  1.0519
  225MOL0     H31043  10.692   1.756  10.501 -1.5188 -0.8746  0.7571
  225MOL0     H31044  10.481   1.878  10.679 -0.4762  0.5726 -1.0921
  225MOL0     H31045  10.497   1.734  10.590 -0.2600  0.3224  0.2359
  225MOL0     H31046  10.402   2.030  10.290  0.6680 -0.1540  0.3007
  225MOL0     H31047  10.977   2.014  10.420 -0.6514 -0.0433  0.5307
  225MOL0     H31048  11.187   1.981  10.162 -2.4689 -0.9886  0.4791
  225MOL0     H31049  11.060   2.096  10.221  0.3349  1.6057 -1.0343
  225MOL0     H31050  11.230   2.144  10.220 -1.3161  1.1073 -0.8620
  226MOL0     O31051   5.363   4.767   9.136 -0.4376 -0.0254 -0.1084
  226MOL0     C31052   5.347   4.668   9.205  0.3869  0.6724 -0.9878
  226MOL0     O31053   5.446   4.587   9.250  0.7894  0.1405 -0.2392
  226MOL0     C31054   5.565   4.644   9.254 -1.2085  0.5385  0.8193
  226MOL0     C31055   5.640   4.668   9.142 -0.0948  0.0432 -0.1393
  226MOL0     C31056   5.768   4.740   9.154  1.2090 -0.2960  0.7761
  226MOL0     C31057   5.827   4.766   9.274 -0.1678 -0.2074 -0.0339
  226MOL0     O31058   5.953   4.833   9.272  0.5852 -0.2695 -0.3925
  226MOL0     C31059   6.000   4.903   9.389  0.3564 -0.1909  0.5897
  226MOL0     C31060   6.106   5.006   9.356  0.6540 -0.2232  0.1830
  226MOL0     C31061   6.234   4.930   9.313 -0.9184  0.7321  0.0600
  226MOL0     C31062   6.336   5.030   9.268  0.1743  1.5847  0.1668
  226MOL0     C31063   6.465   4.964   9.219 -0.0064  0.1263 -0.4243
  226MOL0     C31064   6.557   4.901   9.325 -0.5933 -0.6120 -0.2973
  226MOL0     C31065   6.597   4.753   9.290 -0.5244  0.0200 -0.5463
  226MOL0     C31066   6.709   4.752   9.191 -0.4404  0.3768  0.6086
  226MOL0     N31067   6.836   4.763   9.258  0.3674  0.0581  0.0567
  226MOL0     C31068   6.907   4.661   9.309  0.1204  0.1142  0.0245
  226MOL0     C31069   7.038   4.692   9.288 -0.1423 -0.4882  0.8718
  226MOL0     C31070   7.152   4.609   9.351 -0.0687 -0.1347  0.0599
  226MOL0     C31071   7.275   4.693   9.342 -1.0438  0.7334 -0.1946
  226MOL0     C31072   7.390   4.601   9.390  0.4653 -0.1207  0.3717
  226MOL0     C31073   7.527   4.658   9.365 -0.5158 -0.3410 -0.5674
  226MOL0     O31074   7.544   4.769   9.455  0.2992 -0.2421  0.6268
  226MOL0     C31075   7.569   4.748   9.585 -0.1312 -0.6504  0.1996
  226MOL0     C31076   7.473   4.774   9.686 -0.0379 -0.1925  0.4157
  226MOL0     C31077   7.506   4.739   9.821 -0.5415  0.3812 -0.8226
  226MOL0     C31078   7.407   4.778   9.921  0.3149  0.1563  0.0439
  226MOL0     C31079   7.634   4.683   9.849  0.2799 -0.0232  0.3828
  226MOL0     C31080   7.692   4.654   9.986 -0.5857 -0.2481 -0.7471
  226MOL0     O31081   7.832   4.641  10.012 -0.0012  0.1708 -0.1481
  226MOL0     C31082   7.878   4.704  10.128  0.1141 -0.0772 -0.8490
  226MOL0     C31083   7.806   4.819  10.183 -0.3068  1.0499 -0.6710
  226MOL0     C31084   7.871   4.880  10.292  0.2215 -0.6241  1.9385
  226MOL0     C31085   7.989   4.834  10.361  0.8446 -1.2016 -0.0230
  226MOL0     O31086   8.048   4.895  10.470  0.3600 -0.1566  0.3089
  226MOL0     C31087   8.043   5.042  10.464 -1.2463  0.5718 -0.1132
  226MOL0     C31088   8.113   5.094  10.594 -0.2993 -0.0683  0.0562
  226MOL0     C31089   8.131   5.249  10.592  0.4650  0.3511 -0.5364
  226MOL0     C31090   8.002   5.313  10.622 -0.4093  0.0961 -0.0589
  226MOL0     C31091   8.003   5.461  10.637  0.7103  0.7100 -0.9170
  226MOL0     C31092   8.007   5.543  10.507 -0.6117 -0.7580  0.1215
  226MOL0     C31093   7.881   5.534  10.426  0.6455 -0.1336  0.5319
  226MOL0     C31094   7.903   5.491  10.284 -0.0571 -0.1272 -0.1575
  226MOL0    Cl31095   8.035   5.595  10.203 -0.0544  0.2413 -0.2086
  226MOL0     C31096   8.042   4.718  10.318 -0.7675 -0.2221 -0.7089
  226MOL0     C31097   8.001   4.656  10.194  0.2292 -0.6022 -0.0978
  226MOL0     O31098   7.608   4.627  10.074 -0.4287 -0.1012  0.1674
  226MOL0     C31099   7.731   4.664   9.750 -0.2048 -0.2425 -0.3856
  226MOL0     C31100   7.688   4.686   9.622  0.7318 -0.7177  0.2637
  226MOL0     N31101   7.043   4.816   9.243  0.9899 -0.3198  0.4761
  226MOL0     N31102   6.924   4.864   9.231 -0.0916 -0.7964  1.1490
  226MOL0     C31103   5.763   4.724   9.394 -0.0444  0.3859  0.1327
  226MOL0     C31104   5.635   4.654   9.377  0.6749 -0.0016 -0.2714
  226MOL0     C31105   5.210   4.615   9.246 -0.5448 -0.7115  0.2920
  226MOL0     C31106   5.209   4.559   9.371 -0.3387  0.0302 -0.7566
  226MOL0     C31107   5.085   4.520   9.429 -0.1114 -0.0047  0.0925
  226MOL0     C31108   4.974   4.509   9.349  0.4457  0.1571  0.4189
  226MOL0     O31109   4.850   4.466   9.392  0.0825 -0.2365  0.4067
  226MOL0     C31110   4.839   4.368   9.502 -0.4666 -0.3321  0.0115
  226MOL0     C31111   4.891   4.228   9.449 -0.0732 -0.7506  0.4215
  226MOL0     C31112   4.829   4.109   9.513  0.9207  0.5216  0.5181
  226MOL0     C31113   4.873   3.970   9.477 -0.5636  0.8776  0.5470
  226MOL0     C31114   5.014   3.946   9.506 -0.4907  0.0136  0.3180
  226MOL0     C31115   5.133   3.923   9.522 -0.0688 -0.5607  0.1574
  226MOL0     C31116   4.976   4.580   9.225  0.2448  0.8064  0.6323
  226MOL0     C31117   5.096   4.632   9.175 -0.5775  0.4288  0.1555
  226MOL0     C31118   5.086   4.701   9.044 -0.3943  0.3089  0.1398
  226MOL0     H31119   5.597   4.644   9.046  1.4591  0.0429 -0.8615
  226MOL0     H31120   5.803   4.787   9.063  1.8981 -0.3086  1.0279
  226MOL0     H31121   6.021   4.828   9.465 -2.9205  1.8085  3.7750
  226MOL0     H31122   5.917   4.962   9.429 -0.9048 -1.0701 -0.6420
  226MOL0     H31123   6.063   5.064   9.273 -0.9008  2.3867  2.6262
  226MOL0     H31124   6.123   5.085   9.430 -1.1900  1.6129 -1.2300
  226MOL0     H31125   6.275   4.878   9.401 -0.1094  1.8627  0.3832
  226MOL0     H31126   6.209   4.857   9.236 -1.0702 -2.1827  2.6584
  226MOL0     H31127   6.285   5.089   9.190  1.7515  2.9151  0.0985
  226MOL0     H31128   6.358   5.103   9.346 -0.2665  3.7210 -1.6037
  226MOL0     H31129   6.526   5.028   9.155  1.0780 -1.4308 -1.0162
  226MOL0     H31130   6.440   4.880   9.153 -1.7452  0.4501 -0.2308
  226MOL0     H31131   6.641   4.971   9.336 -2.4086  1.4296  1.1964
  226MOL0     H31132   6.502   4.895   9.419  1.7316 -1.8748  1.0830
  226MOL0     H31133   6.515   4.692   9.253 -0.6677 -2.1950  2.9033
  226MOL0     H31134   6.622   4.691   9.377  0.5284 -0.4604 -1.1676
  226MOL0     H31135   6.700   4.657   9.137 -1.8871  1.4155 -1.0843
  226MOL0     H31136   6.707   4.832   9.117 -1.7801 -2.1570 -2.3300
  226MOL0     H31137   6.862   4.569   9.345  2.0124 -1.3452 -1.1233
  226MOL0     H31138   7.185   4.514   9.307  0.4225 -0.0140  0.1605
  226MOL0     H31139   7.124   4.579   9.452  2.1667 -1.7833  0.2762
  226MOL0     H31140   7.293   4.724   9.239 -1.4569  3.0299  0.3771
  226MOL0     H31141   7.272   4.794   9.383 -0.1325  1.5212 -1.9331
  226MOL0     H31142   7.372   4.568   9.493  2.5404 -0.3649  0.6956
  226MOL0     H31143   7.391   4.508   9.332  2.1029  0.5839 -0.7917
  226MOL0     H31144   7.601   4.578   9.373 -0.3779 -0.1306  0.3305
  226MOL0     H31145   7.539   4.690   9.261 -1.2233 -1.5053 -1.0365
  226MOL0     H31146   7.381   4.827   9.661  1.0272  1.4811 -0.1773
  226MOL0     H31147   7.321   4.825   9.873  1.0427 -1.3981 -3.0503
  226MOL0     H31148   7.448   4.863   9.977  2.5427 -0.4470 -0.5441
  226MOL0     H31149   7.389   4.689   9.982  1.6866 -1.8228 -2.2291
  226MOL0     H31150   7.710   4.855  10.149 -1.7211 -0.0358  1.8418
  226MOL0     H31151   7.820   4.971  10.320 -0.7261 -0.2042 -0.8639
  226MOL0     H31152   8.100   5.063  10.373 -5.0411 -1.6222 -3.2583
  226MOL0     H31153   7.939   5.076  10.461 -1.4144  0.0248 -0.5048
  226MOL0     H31154   8.059   5.066  10.685  1.7175 -1.8081  0.7825
  226MOL0     H31155   8.212   5.049  10.604 -0.5242 -0.1256  2.7009
  226MOL0     H31156   8.163   5.274  10.491  0.0333  2.6566 -0.1478
  226MOL0     H31157   8.200   5.278  10.671 -1.3535 -0.8186  1.6030
  226MOL0     H31158   7.967   5.268  10.715 -0.6886  2.1791  0.8830
  226MOL0     H31159   7.926   5.283  10.549 -2.4498 -1.0055  2.3777
  226MOL0     H31160   7.906   5.488  10.681  0.2612 -0.2425 -1.3068
  226MOL0     H31161   8.078   5.491  10.711  0.1838 -3.1473  1.4411
  226MOL0     H31162   8.087   5.500  10.446 -1.2907 -0.4392 -1.0036
  226MOL0     H31163   8.026   5.647  10.536 -2.6503 -0.9941  2.6117
  226MOL0     H31164   7.820   5.624  10.418 -1.6812 -1.7583 -1.5513
  226MOL0     H31165   7.809   5.468  10.476 -0.2984  0.8255  0.4590
  226MOL0     H31166   7.809   5.494  10.229 -0.9204  1.8118  1.3343
  226MOL0     H31167   7.924   5.384  10.275 -0.7451 -0.2424 -0.4703
  226MOL0     H31168   8.135   4.683  10.362 -0.9470  0.9966  0.7176
  226MOL0     H31169   8.052   4.570  10.153 -1.4765 -0.5954 -2.4529
  226MOL0     H31170   7.832   4.628   9.767  0.5854  2.0469  0.1775
  226MOL0     H31171   7.749   4.654   9.538 -0.4312 -1.4659 -0.3251
  226MOL0     H31172   5.819   4.737   9.487 -1.9756  1.6794  1.1980
  226MOL0     H31173   5.585   4.621   9.468  1.6921  0.3531  0.4463
  226MOL0     H31174   5.303   4.560   9.425  0.6936 -2.9935 -2.2261
  226MOL0     H31175   5.086   4.487   9.532  2.2506 -0.2060  0.0763
  226MOL0     H31176   4.905   4.383   9.588 -0.5462 -3.8470  0.8180
  226MOL0     H31177   4.737   4.370   9.543 -0.5619 -2.4115  0.0029
  226MOL0     H31178   5.001   4.228   9.454  0.3290  1.5413 -3.8929
  226MOL0     H31179   4.886   4.228   9.340  3.1902 -0.4383  0.1586
  226MOL0     H31180   4.841   4.117   9.621 -1.5434  1.2824  0.8102
  226MOL0     H31181   4.721   4.104   9.492  1.2583  1.4198 -1.7087
  226MOL0     H31182   4.858   3.938   9.373  0.4542  0.4669  0.5158
  226MOL0     H31183   4.805   3.908   9.536  1.4067 -1.5566  0.4331
  226MOL0     H31184   5.234   3.894   9.539 -0.3026 -4.1987 -3.2083
  226MOL0     H31185   4.887   4.591   9.165  0.4728  2.9512  0.6371
  226MOL0     H31186   5.153   4.658   8.969  2.0547 -1.0840  2.9524
  226MOL0     H31187   4.983   4.693   9.007 -0.6463  0.6526  0.7654
  226MOL0     H31188   5.110   4.805   9.067  1.6957 -0.2135  0.5193
  227MOL0     O31189   1.294   9.496   3.185  0.5110  0.1596  0.1891
  227MOL0     C31190   1.353   9.452   3.286  0.2776 -0.4884  0.0133
  227MOL0     O31191   1.484   9.478   3.307 -0.0634  0.6490  0.1755
  227MOL0     C31192   1.557   9.545   3.211  0.3754 -0.8896 -0.0871
  227MOL0     C31193   1.608   9.486   3.096 -0.2199  0.0563 -0.4731
  227MOL0     C31194   1.679   9.567   3.005 -0.1965  0.4450  0.5943
  227MOL0     C31195   1.717   9.693   3.048  0.0349  0.6408  1.2722
  227MOL0     O31196   1.806   9.750   2.967 -1.0790 -0.1902 -0.5803
  227MOL0     C31197   1.867   9.871   3.007 -1.1612  0.0700 -0.7116
  227MOL0     C31198   1.955   9.920   2.893 -0.1033 -0.6646  0.6652
  227MOL0     C31199   2.074   9.832   2.849  0.2952 -0.8820  0.1257
  227MOL0     C31200   2.132   9.881   2.715  0.0571  0.3596 -0.5364
  227MOL0     C31201   2.262   9.803   2.689  0.3762 -0.5184  1.0311
  227MOL0     C31202   2.346   9.867   2.573 -0.8862 -0.1629 -0.1765
  227MOL0     C31203   2.475   9.790   2.565 -0.2796  0.0589  0.1439
  227MOL0     C31204   2.563   9.828   2.451 -0.3706 -0.5970 -0.4664
  227MOL0     N31205   2.686   9.741   2.457  1.6180 -0.6374  0.3124
  227MOL0     C31206   2.795   9.768   2.534  0.4618 -0.2391 -0.2369
  227MOL0     C31207   2.879   9.673   2.509 -0.4375  0.5372 -0.6645
  227MOL0     C31208   3.027   9.646   2.550  0.9826 -0.3058  0.3957
  227MOL0     C31209   3.117   9.637   2.432 -0.9675 -0.8174 -0.7976
  227MOL0     C31210   3.264   9.649   2.474 -0.8464 -0.2992 -0.5889
  227MOL0     C31211   3.351   9.622   2.360  0.2393 -0.0521 -1.4864
  227MOL0     O31212   3.489   9.640   2.395 -0.8938 -0.3838 -0.2913
  227MOL0     C31213   3.593   9.609   2.312  0.2038  0.2144  0.6092
  227MOL0     C31214   3.579   9.592   2.172 -0.5274  0.5106 -0.2823
  227MOL0     C31215   3.693   9.567   2.088 -0.4077  0.2756  1.7310
  227MOL0     C31216   3.677   9.576   1.941 -0.5993 -0.4497  0.1581
  227MOL0     C31217   3.812   9.536   2.147 -0.0212  0.4196 -0.5530
  227MOL0     C31218   3.933   9.484   2.077 -0.6106  0.4356  0.2599
  227MOL0     O31219   3.913   9.415   1.958  0.4564 -0.5880  0.2659
  227MOL0     C31220   4.019   9.348   1.898 -0.0894 -0.2421 -1.0765
  227MOL0     C31221   4.111   9.267   1.969  0.2399 -0.4331 -0.2130
  227MOL0     C31222   4.227   9.220   1.919  0.0043  0.6244 -0.0292
  227MOL0     C31223   4.256   9.236   1.782  0.4089 -1.1387  0.3325
  227MOL0     O31224   4.364   9.189   1.714 -0.0221 -0.0779  0.9043
  227MOL0     C31225   4.470   9.130   1.789  0.1642 -0.0245 -0.1613
  227MOL0     C31226   4.574   9.062   1.685 -0.1638 -0.0212 -0.5205
  227MOL0     C31227   4.491   8.966   1.592  0.4896 -0.1288  0.1242
  227MOL0     C31228   4.581   8.855   1.533 -0.4240 -0.5306  0.2819
  227MOL0     C31229   4.512   8.761   1.443  0.1948  0.1503 -0.0964
  227MOL0     C31230   4.419   8.666   1.516  0.2630 -0.2726  0.1434
  227MOL0     C31231   4.341   8.568   1.416 -0.3831  0.7799  0.6217
  227MOL0     C31232   4.268   8.452   1.487  0.0506 -0.4058 -0.4670
  227MOL0    Cl31233   4.214   8.333   1.368 -0.6480 -0.1765 -0.2380
  227MOL0     C31234   4.162   9.299   1.701 -0.3821  1.1508 -0.1205
  227MOL0     C31235   4.045   9.352   1.758  0.7890  0.2500 -0.2767
  227MOL0     O31236   4.041   9.496   2.133 -0.2740 -0.0213 -0.1505
  227MOL0     C31237   3.823   9.547   2.292  0.2622  0.0438 -0.2194
  227MOL0     C31238   3.717   9.592   2.366  0.6005 -0.3702  0.0919
  227MOL0     N31239   2.817   9.578   2.443  1.5282  0.1352 -0.2889
  227MOL0     N31240   2.708   9.619   2.402  0.5147  0.2609 -0.6586
  227MOL0     C31241   1.675   9.750   3.168  0.7071  0.3298  0.2496
  227MOL0     C31242   1.586   9.674   3.242 -0.1450  0.2495  0.5553
  227MOL0     C31243   1.272   9.402   3.397 -0.1175  0.5160 -0.6447
  227MOL0     C31244   1.315   9.429   3.526 -0.1358  0.5072 -0.8460
  227MOL0     C31245   1.250   9.389   3.644  0.4099  0.2978  0.5297
  227MOL0     C31246   1.124   9.329   3.632 -0.5522  0.5178  0.7616
  227MOL0     O31247   1.052   9.305   3.744  0.2265 -0.0134  1.4605
  227MOL0     C31248   0.943   9.396   3.771  0.0658 -0.3719  0.4215
  227MOL0     C31249   0.915   9.413   3.919 -0.5741  0.0081 -0.4861
  227MOL0     C31250   0.856   9.283   3.975 -0.4021 -0.1379 -0.1265
  227MOL0     C31251   0.826   9.286   4.118 -0.2124 -0.1973 -0.7556
  227MOL0     C31252   0.918   9.359   4.204  0.0538 -1.0176  0.0775
  227MOL0     C31253   1.014   9.402   4.263 -0.7870 -0.2492  0.1171
  227MOL0     C31254   1.068   9.307   3.501  0.0649  0.0113  0.2056
  227MOL0     C31255   1.142   9.347   3.386 -0.1677 -0.1511 -0.2047
  227MOL0     C31256   1.084   9.305   3.253 -0.4672  1.1725  0.0834
  227MOL0     H31257   1.605   9.381   3.068 -0.6145  0.3263 -1.5288
  227MOL0     H31258   1.737   9.522   2.924  2.1629  4.3971 -0.1979
  227MOL0     H31259   1.927   9.844   3.094 -2.8221 -1.8911 -0.0799
  227MOL0     H31260   1.796   9.947   3.040 -1.3090 -0.5459  0.4478
  227MOL0     H31261   1.879   9.927   2.814 -0.5677 -1.2375  1.0507
  227MOL0     H31262   1.982  10.023   2.918  0.5037 -0.1413 -1.8906
  227MOL0     H31263   2.143   9.832   2.934 -0.5719  1.1566  0.8979
  227MOL0     H31264   2.033   9.731   2.840 -1.3465 -0.3759  1.5247
  227MOL0     H31265   2.059   9.864   2.635 -0.0412 -3.6201  0.1743
  227MOL0     H31266   2.161   9.986   2.725 -0.7742  0.5608 -0.1173
  227MOL0     H31267   2.246   9.697   2.666 -1.7892  0.0756 -0.6066
  227MOL0     H31268   2.319   9.806   2.783 -0.7818 -0.9218  1.7741
  227MOL0     H31269   2.283   9.859   2.484 -1.6711 -0.2651  0.3832
  227MOL0     H31270   2.365   9.972   2.598 -1.1133 -0.1464 -0.0748
  227MOL0     H31271   2.457   9.682   2.576  1.3521 -0.2457  0.0811
  227MOL0     H31272   2.529   9.817   2.656  0.2400  0.6820 -0.3419
  227MOL0     H31273   2.512   9.815   2.355  0.7972 -3.0661 -0.8482
  227MOL0     H31274   2.594   9.933   2.450 -2.4649  0.0699 -0.4232
  227MOL0     H31275   2.825   9.861   2.582 -2.3521 -0.4784  2.2762
  227MOL0     H31276   3.025   9.553   2.608  2.0190  0.2671  1.3968
  227MOL0     H31277   3.063   9.729   2.612 -1.3169 -0.5780  2.2239
  227MOL0     H31278   3.117   9.539   2.384  0.9233 -1.5167  0.5159
  227MOL0     H31279   3.099   9.720   2.363  1.0481  0.2257 -0.1629
  227MOL0     H31280   3.300   9.748   2.503  0.0547 -0.7473 -0.1454
  227MOL0     H31281   3.284   9.584   2.559 -0.6593 -2.0055 -1.9002
  227MOL0     H31282   3.343   9.522   2.316 -0.7547 -0.2960 -0.7846
  227MOL0     H31283   3.326   9.691   2.278 -1.0150  1.7315  0.2925
  227MOL0     H31284   3.478   9.597   2.131  0.3802  1.0709 -2.5950
  227MOL0     H31285   3.641   9.482   1.898 -2.1225  0.0741  0.2456
  227MOL0     H31286   3.774   9.611   1.903 -0.4053 -1.3316 -0.1730
  227MOL0     H31287   3.606   9.655   1.917 -1.6326 -0.5666  2.5535
  227MOL0     H31288   4.095   9.264   2.077  2.3699 -1.1393  0.1293
  227MOL0     H31289   4.304   9.177   1.984  0.5050  2.9623  1.0160
  227MOL0     H31290   4.521   9.206   1.847  0.8421  0.7475 -1.7184
  227MOL0     H31291   4.445   9.052   1.862  2.7236 -1.7463 -1.0143
  227MOL0     H31292   4.627   9.135   1.623  1.8875 -1.7282 -0.8659
  227MOL0     H31293   4.650   9.006   1.740 -0.1798 -1.2965 -1.7544
  227MOL0     H31294   4.444   9.025   1.514 -1.1840 -0.0643  1.1379
  227MOL0     H31295   4.406   8.926   1.648 -1.0034  2.4346 -0.1810
  227MOL0     H31296   4.643   8.804   1.607 -0.0469 -2.9896 -1.5901
  227MOL0     H31297   4.648   8.903   1.460 -2.6179  0.4753 -1.1778
  227MOL0     H31298   4.449   8.815   1.372 -1.1948 -2.0243 -0.5902
  227MOL0     H31299   4.591   8.703   1.393  0.9900  0.0059  1.2791
  227MOL0     H31300   4.358   8.729   1.581  2.0976  0.4444  1.2545
  227MOL0     H31301   4.479   8.598   1.578  2.6789 -2.7939 -4.4390
  227MOL0     H31302   4.416   8.536   1.344  0.9134  0.0876  2.2092
  227MOL0     H31303   4.255   8.619   1.373  0.1448  1.3004  0.1720
  227MOL0     H31304   4.176   8.487   1.534  0.0496 -1.7457  0.5669
  227MOL0     H31305   4.335   8.406   1.560  0.8935  1.7170  0.1873
  227MOL0     H31306   4.187   9.309   1.596  0.6124  0.1335  0.0016
  227MOL0     H31307   3.970   9.408   1.703  0.4613 -1.2094 -1.3893
  227MOL0     H31308   3.927   9.533   2.322  0.9563  4.1791 -0.0252
  227MOL0     H31309   3.718   9.604   2.474 -1.2451 -1.0754  0.2228
  227MOL0     H31310   1.712   9.839   3.219  0.3192  0.4599  0.3143
  227MOL0     H31311   1.557   9.725   3.334  0.9615  0.1951  0.9585
  227MOL0     H31312   1.410   9.482   3.525 -0.2224  0.8016  1.5969
  227MOL0     H31313   1.295   9.406   3.741 -1.4451 -0.2871  1.5597
  227MOL0     H31314   0.959   9.487   3.712 -1.2116 -0.0842  0.4973
  227MOL0     H31315   0.851   9.360   3.724 -0.7025 -0.5669  2.0148
  227MOL0     H31316   0.840   9.490   3.935 -2.0111 -1.3373 -0.4603
  227MOL0     H31317   1.017   9.429   3.954  1.0032 -1.3108 -3.9989
  227MOL0     H31318   0.771   9.249   3.915  0.4163 -1.5420 -0.5741
  227MOL0     H31319   0.931   9.203   3.968  0.4230  0.6696 -0.9667
  227MOL0     H31320   0.813   9.182   4.150 -4.6015  0.2738 -0.4371
  227MOL0     H31321   0.733   9.342   4.133 -0.2666 -0.5090  0.1234
  227MOL0     H31322   1.106   9.418   4.317 -0.3177  0.9678 -0.9958
  227MOL0     H31323   0.968   9.266   3.488  0.8942 -2.7967  1.7846
  227MOL0     H31324   1.086   9.391   3.185 -2.5356  0.7307 -0.6174
  227MOL0     H31325   1.141   9.218   3.219 -0.6588  0.3387  1.7937
  227MOL0     H31326   0.979   9.276   3.265 -0.5573  0.7180 -1.5578
  228MOL0     O31327   4.605   3.522   6.237  0.0739  0.9065 -0.1307
  228MOL0     C31328   4.481   3.529   6.209 -0.3536 -0.0163 -0.1587
  228MOL0     O31329   4.434   3.532   6.077  0.5730  0.5968 -0.5044
  228MOL0     C31330   4.525   3.544   5.981  0.0410  0.3236 -1.0110
  228MOL0     C31331   4.574   3.430   5.915 -1.0250  0.0157 -0.4657
  228MOL0     C31332   4.676   3.440   5.822  0.3898  0.3803  0.0131
  228MOL0     C31333   4.713   3.565   5.777 -0.6322 -0.0943 -0.0353
  228MOL0     O31334   4.818   3.587   5.692  0.2347  0.4456 -0.7712
  228MOL0     C31335   4.918   3.487   5.662 -0.8274  0.2161 -0.5354
  228MOL0     C31336   4.899   3.446   5.517  0.5113 -0.8878 -0.8645
  228MOL0     C31337   4.776   3.363   5.486  0.9274 -0.2334  0.5625
  228MOL0     C31338   4.763   3.312   5.346  0.2350 -0.1200 -0.1314
  228MOL0     C31339   4.640   3.223   5.341 -0.0441  0.5293  1.1754
  228MOL0     C31340   4.511   3.300   5.369  0.0398  0.4017  0.1994
  228MOL0     C31341   4.392   3.209   5.364 -0.0834 -0.3726 -0.5443
  228MOL0     C31342   4.256   3.280   5.386 -0.4630  0.0831  0.4424
  228MOL0     N31343   4.225   3.322   5.519 -0.1407  0.0502 -0.2270
  228MOL0     C31344   4.268   3.426   5.591 -0.5017 -0.6055 -0.4457
  228MOL0     C31345   4.179   3.433   5.691 -0.0442 -0.4577 -0.1145
  228MOL0     C31346   4.210   3.508   5.814 -0.7362  0.0257  0.5813
  228MOL0     C31347   4.243   3.648   5.772 -0.3411 -0.0526 -0.5784
  228MOL0     C31348   4.111   3.733   5.777 -0.1400 -0.9669  0.0654
  228MOL0     C31349   4.044   3.737   5.631  0.3112  0.4201  0.0371
  228MOL0     O31350   4.135   3.804   5.539  0.1844 -0.0499 -0.7622
  228MOL0     C31351   4.118   3.797   5.407 -0.4014 -0.6226  0.0975
  228MOL0     C31352   4.225   3.748   5.332 -1.0154 -0.4048 -0.6942
  228MOL0     C31353   4.215   3.722   5.196  0.4140  0.4842 -0.2915
  228MOL0     C31354   4.337   3.669   5.119  0.3323  0.6080  0.0996
  228MOL0     C31355   4.100   3.756   5.134  0.0959  0.0292  0.5940
  228MOL0     C31356   4.069   3.744   4.989 -0.1660  1.0609  0.5935
  228MOL0     O31357   4.140   3.660   4.905  0.1409  0.3054 -0.7546
  228MOL0     C31358   4.125   3.676   4.772  0.3158 -0.0138 -0.1732
  228MOL0     C31359   4.188   3.783   4.700 -1.0496 -0.0528 -0.3567
  228MOL0     C31360   4.188   3.783   4.561  0.3003 -0.2979 -0.7536
  228MOL0     C31361   4.126   3.685   4.486 -0.2370 -0.4189 -1.1424
  228MOL0     O31362   4.168   3.669   4.357 -0.2928  0.2106  0.4983
  228MOL0     C31363   4.161   3.789   4.273  0.4253  0.2261 -0.3255
  228MOL0     C31364   4.124   3.728   4.131  0.0926  0.1489 -0.5381
  228MOL0     C31365   4.135   3.817   4.002 -0.4354 -0.7065 -1.3118
  228MOL0     C31366   4.111   3.745   3.873  0.2073  0.7068 -0.0860
  228MOL0     C31367   3.968   3.721   3.841  1.0385  0.7013  0.7489
  228MOL0     C31368   3.914   3.848   3.770  0.2384 -0.8882 -0.1955
  228MOL0     C31369   3.777   3.821   3.712 -0.1477 -0.1597 -0.2754
  228MOL0     C31370   3.712   3.952   3.674 -0.0650  1.1973  0.6998
  228MOL0    Cl31371   3.798   4.028   3.543 -0.1356 -0.3071  0.1875
  228MOL0     C31372   4.053   3.589   4.558  0.9444 -0.1314  0.8025
  228MOL0     C31373   4.049   3.579   4.697  0.0209 -0.4776  0.0061
  228MOL0     O31374   3.985   3.821   4.945  0.6106 -0.5225  0.2552
  228MOL0     C31375   3.998   3.819   5.209  0.1470 -0.9132  0.6883
  228MOL0     C31376   4.005   3.836   5.349  0.6673  0.0737  0.1749
  228MOL0     N31377   4.070   3.359   5.658 -0.2945  1.1583  0.2741
  228MOL0     N31378   4.099   3.290   5.551  0.3336  0.2353  0.3665
  228MOL0     C31379   4.652   3.680   5.831  0.0475 -0.0373 -0.0328
  228MOL0     C31380   4.555   3.667   5.932 -0.3383  0.3018 -0.1963
  228MOL0     C31381   4.383   3.525   6.328 -0.6454  0.3918 -0.5262
  228MOL0     C31382   4.444   3.491   6.452 -0.1707 -0.2029  0.2067
  228MOL0     C31383   4.367   3.489   6.565  0.1190  0.6248 -0.3359
  228MOL0     C31384   4.236   3.537   6.568  0.2671  0.4925  0.0928
  228MOL0     O31385   4.183   3.554   6.693  0.1962  0.3814 -0.0986
  228MOL0     C31386   4.042   3.528   6.704  0.9276 -0.0246  0.1271
  228MOL0     C31387   4.002   3.518   6.860  0.2888 -0.1889  0.3119
  228MOL0     C31388   4.069   3.390   6.918  0.5168 -0.9331 -0.4312
  228MOL0     C31389   4.040   3.369   7.076  0.3017 -0.6109  0.4604
  228MOL0     C31390   4.126   3.281   7.136  0.2065 -0.6652 -0.8023
  228MOL0     C31391   4.189   3.203   7.201 -0.2565 -0.6378 -1.3532
  228MOL0     C31392   4.172   3.571   6.443  0.1071 -0.3125 -0.3996
  228MOL0     C31393   4.242   3.560   6.319 -0.1353  0.3284 -0.8365
  228MOL0     C31394   4.176   3.587   6.187  0.2108 -0.4721  0.9823
  228MOL0     H31395   4.522   3.339   5.945 -2.2920  1.6587  2.9129
  228MOL0     H31396   4.731   3.351   5.793  2.2977  1.1729  0.9473
  228MOL0     H31397   4.918   3.407   5.737  0.8234  0.4166 -0.2933
  228MOL0     H31398   5.018   3.531   5.669 -0.7962  0.3581 -1.7581
  228MOL0     H31399   4.906   3.533   5.452  1.1989  1.6024  2.3047
  228MOL0     H31400   4.985   3.383   5.493  1.5917  0.1593  0.1126
  228MOL0     H31401   4.769   3.271   5.545 -1.4313  1.5536  3.3872
  228MOL0     H31402   4.693   3.434   5.497  0.4699 -0.4323 -1.2985
  228MOL0     H31403   4.753   3.386   5.266  1.7519 -2.3909 -2.6142
  228MOL0     H31404   4.856   3.261   5.316  1.6502  2.8284 -1.1514
  228MOL0     H31405   4.643   3.138   5.411 -1.0653 -2.0731 -1.7032
  228MOL0     H31406   4.643   3.169   5.246 -0.2719 -1.1035  2.0568
  228MOL0     H31407   4.508   3.357   5.463 -3.2430  2.4253 -0.9664
  228MOL0     H31408   4.506   3.377   5.292  1.0038 -0.6654 -0.9810
  228MOL0     H31409   4.393   3.135   5.445  2.4389 -0.5082 -0.6272
  228MOL0     H31410   4.382   3.154   5.270 -0.5713 -0.3252 -0.5249
  228MOL0     H31411   4.256   3.366   5.319 -1.9703  0.3852  0.8008
  228MOL0     H31412   4.179   3.208   5.358  1.1309 -2.1207  1.4144
  228MOL0     H31413   4.369   3.463   5.573 -1.5607  2.0885 -1.3846
  228MOL0     H31414   4.297   3.461   5.861 -1.9657 -0.4175  2.5286
  228MOL0     H31415   4.132   3.505   5.890 -0.6001  0.3876  0.7388
  228MOL0     H31416   4.321   3.686   5.839 -1.8838  1.6166  0.3758
  228MOL0     H31417   4.287   3.659   5.672 -2.5592 -0.3787 -1.6363
  228MOL0     H31418   4.036   3.679   5.836 -1.4583 -1.3840 -1.8947
  228MOL0     H31419   4.130   3.836   5.810  1.9231 -0.6347 -1.9579
  228MOL0     H31420   4.021   3.637   5.593 -2.4425  0.4539  1.3048
  228MOL0     H31421   3.948   3.788   5.639  1.5688  2.6388  3.0252
  228MOL0     H31422   4.320   3.724   5.380 -1.8104 -2.3577 -0.0105
  228MOL0     H31423   4.379   3.734   5.042  0.6120 -1.0656 -1.2064
  228MOL0     H31424   4.288   3.578   5.083 -2.4649  1.9044  0.3675
  228MOL0     H31425   4.418   3.634   5.185 -0.3304 -0.5177  0.3527
  228MOL0     H31426   4.243   3.852   4.762 -0.6805  0.9534 -1.7362
  228MOL0     H31427   4.254   3.855   4.513 -0.1724 -0.3588 -1.5189
  228MOL0     H31428   4.073   3.847   4.303  1.3962  0.3155  2.7721
  228MOL0     H31429   4.249   3.854   4.280 -0.0205  1.1705 -2.6536
  228MOL0     H31430   4.189   3.641   4.122 -2.0181 -1.8261  1.5114
  228MOL0     H31431   4.026   3.679   4.134  0.9277 -1.5875  2.0779
  228MOL0     H31432   4.238   3.854   3.994 -0.6509 -0.2810 -2.2973
  228MOL0     H31433   4.080   3.912   4.004 -0.2707 -0.6150 -0.4560
  228MOL0     H31434   4.167   3.651   3.870  0.8773  1.1095 -0.6464
  228MOL0     H31435   4.157   3.812   3.800 -0.1152  0.1940 -0.7769
  228MOL0     H31436   3.947   3.642   3.769  0.7218  0.3510  1.2168
  228MOL0     H31437   3.905   3.696   3.927 -0.0960 -2.4592 -0.8380
  228MOL0     H31438   3.988   3.881   3.697 -0.2562  2.7183  0.7614
  228MOL0     H31439   3.904   3.933   3.838 -0.6926 -1.1883  0.0627
  228MOL0     H31440   3.715   3.775   3.789 -0.2167  0.1282 -0.1566
  228MOL0     H31441   3.799   3.744   3.638  3.3661  0.8384 -0.4698
  228MOL0     H31442   3.707   4.011   3.766  1.9199 -0.4370  1.9461
  228MOL0     H31443   3.615   3.928   3.628 -1.1835  0.6590  3.1263
  228MOL0     H31444   4.014   3.510   4.495  3.1093  0.9043 -2.0865
  228MOL0     H31445   4.011   3.485   4.735  1.3848 -2.5455 -3.2574
  228MOL0     H31446   3.906   3.864   5.172 -1.7942 -2.9270  2.7118
  228MOL0     H31447   3.927   3.877   5.412 -2.2962 -0.5299 -2.8108
  228MOL0     H31448   4.679   3.775   5.786  1.6797 -0.3976  0.1397
  228MOL0     H31449   4.519   3.752   5.990 -4.2827 -2.2852  1.6043
  228MOL0     H31450   4.550   3.467   6.462 -0.1936 -1.4589 -1.9669
  228MOL0     H31451   4.411   3.473   6.663 -3.0597 -1.5278  0.8761
  228MOL0     H31452   3.992   3.614   6.660  0.2176 -0.4611  0.0598
  228MOL0     H31453   3.998   3.440   6.655  2.6714  0.1206 -1.8182
  228MOL0     H31454   3.893   3.507   6.871 -0.1026  2.0373 -0.7799
  228MOL0     H31455   4.035   3.607   6.914  0.7497  1.0307 -1.8480
  228MOL0     H31456   4.035   3.304   6.859  2.7761 -1.8211 -0.5334
  228MOL0     H31457   4.176   3.404   6.902  0.5780  0.0244  0.6942
  228MOL0     H31458   3.937   3.333   7.084 -1.4096  3.2348 -1.3848
  228MOL0     H31459   4.042   3.470   7.116 -0.3181  0.8285 -2.8138
  228MOL0     H31460   4.240   3.135   7.266 -2.1202 -0.3898  0.4693
  228MOL0     H31461   4.069   3.603   6.432 -0.2900 -0.2061  2.7200
  228MOL0     H31462   4.202   3.686   6.150 -0.1570 -2.1527 -4.7417
  228MOL0     H31463   4.208   3.514   6.112  1.2832 -0.5628  1.5063
  228MOL0     H31464   4.069   3.576   6.204 -0.4663  2.9507 -0.3728
  229MOL0     O31465   6.658   0.163   0.065  0.5080  0.3010 -0.5451
  229MOL0     C31466   6.604   0.271   0.036  0.9613 -0.2879  0.1092
  229MOL0     O31467   6.667   0.374  -0.018 -0.1275 -0.4621 -0.5444
  229MOL0     C31468   6.801   0.358  -0.035 -0.0828 -0.3323  0.3312
  229MOL0     C31469   6.896   0.354   0.067  0.7995  0.0999 -0.1547
  229MOL0     C31470   7.029   0.332   0.060  0.4155  0.1256  0.6058
  229MOL0     C31471   7.080   0.300  -0.066  0.5444  0.0376  0.3916
  229MOL0     O31472   7.212   0.274  -0.080 -0.0501 -0.1203  0.1365
  229MOL0     C31473   7.294   0.393  -0.077 -0.2560 -0.0005 -0.0141
  229MOL0     C31474   7.438   0.362  -0.087  0.6211 -0.1640 -0.2863
  229MOL0     C31475   7.522   0.490  -0.035 -0.4097 -0.5058 -0.4481
  229MOL0     C31476   7.668   0.465  -0.015 -0.3953 -0.6449  0.2270
  229MOL0     C31477   7.698   0.322   0.047 -0.1422 -0.3998 -0.5215
  229MOL0     C31478   7.844   0.319   0.096 -0.0736  0.6164 -0.1230
  229MOL0     C31479   7.897   0.177   0.109 -0.0995  1.1360  0.5598
  229MOL0     C31480   8.036   0.151   0.174 -0.5288  0.3461  0.1525
  229MOL0     N31481   8.125   0.252   0.120 -0.3283  0.3456 -0.3878
  229MOL0     C31482   8.180   0.266  -0.006  0.5517  0.3987 -1.1426
  229MOL0     C31483   8.266   0.379   0.002  0.9702 -0.1667 -0.6249
  229MOL0     C31484   8.367   0.418  -0.101  0.3224 -0.2208 -0.4968
  229MOL0     C31485   8.498   0.345  -0.120  0.0304  0.4065 -0.4408
  229MOL0     C31486   8.535   0.322  -0.267 -0.1275  0.5043 -0.5035
  229MOL0     C31487   8.659   0.232  -0.273  0.1971  0.2004 -0.7958
  229MOL0     O31488   8.759   0.284  -0.184 -0.2318  0.6981  0.1139
  229MOL0     C31489   8.890   0.270  -0.208 -0.1703 -0.0610  0.7225
  229MOL0     C31490   8.944   0.164  -0.287  0.2256 -0.6855 -0.1614
  229MOL0     C31491   9.086   0.157  -0.315  0.6195  0.0571  0.1475
  229MOL0     C31492   9.131   0.055  -0.420  0.8029  0.3217 -0.0799
  229MOL0     C31493   9.168   0.250  -0.245  1.0385  0.2399 -0.5526
  229MOL0     C31494   9.310   0.260  -0.268 -0.2324 -0.6100 -1.1392
  229MOL0     O31495   9.396   0.263  -0.164  0.4603 -0.1210 -0.4586
  229MOL0     C31496   9.522   0.220  -0.193  0.6545 -0.3284 -0.3734
  229MOL0     C31497   9.576   0.127  -0.118 -0.2574  0.7238  0.6497
  229MOL0     C31498   9.702   0.069  -0.137 -1.0395  0.0644  0.2019
  229MOL0     C31499   9.782   0.113  -0.248  0.4482 -0.0145  0.1664
  229MOL0     O31500   9.906   0.077  -0.284  0.6069  0.0469  0.0352
  229MOL0     C31501   9.980  -0.012  -0.193  0.3653  0.9382 -0.3701
  229MOL0     C31502  10.085  -0.074  -0.289  0.6246  0.1662 -0.0195
  229MOL0     C31503  10.164   0.028  -0.376  0.0157  0.2151  0.4809
  229MOL0     C31504  10.308  -0.012  -0.400 -0.2570 -0.0498 -0.1168
  229MOL0     C31505  10.379   0.119  -0.451 -0.3037  0.0954 -0.9067
  229MOL0     C31506  10.531   0.095  -0.476  1.5557  0.0440 -0.4465
  229MOL0     C31507  10.575  -0.037  -0.557 -0.0971  0.3271 -0.3798
  229MOL0     C31508  10.520  -0.054  -0.695 -0.4578 -0.3941  0.0592
  229MOL0    Cl31509  10.566   0.088  -0.802  0.2204  0.3305  0.6205
  229MOL0     C31510   9.723   0.218  -0.327 -0.1941 -0.2820  0.3900
  229MOL0     C31511   9.602   0.272  -0.301  0.7454  0.0095  0.2758
  229MOL0     O31512   9.332   0.259  -0.390  0.9144  0.1126 -0.4884
  229MOL0     C31513   9.112   0.343  -0.154 -0.3871  0.2202 -0.6956
  229MOL0     C31514   8.976   0.348  -0.128 -0.4185  0.1746  0.0044
  229MOL0     N31515   8.263   0.424   0.135 -0.5611 -0.2105  0.6500
  229MOL0     N31516   8.190   0.345   0.202 -0.3626  0.3576  0.5556
  229MOL0     C31517   6.997   0.296  -0.187  0.3348 -0.2259  0.2992
  229MOL0     C31518   6.859   0.335  -0.167 -0.2533 -0.1411 -0.5350
  229MOL0     C31519   6.460   0.287   0.054  0.9684  0.0877 -0.9346
  229MOL0     C31520   6.411   0.423   0.042 -0.8869  1.6357 -0.2419
  229MOL0     C31521   6.276   0.451   0.050 -1.0625 -0.3562 -0.2368
  229MOL0     C31522   6.190   0.347   0.077 -0.4584  0.6444  0.8781
  229MOL0     O31523   6.061   0.388   0.073  0.3204  0.4547  0.1544
  229MOL0     C31524   5.957   0.300   0.038  0.3188 -0.5308  1.0787
  229MOL0     C31525   5.810   0.356   0.048 -1.1070  0.3693  0.5375
  229MOL0     C31526   5.781   0.477  -0.044 -0.5178  0.0552  0.4675
  229MOL0     C31527   5.666   0.561   0.017  0.2954  0.4407  0.5077
  229MOL0     C31528   5.545   0.479   0.019  0.3017  0.0964 -0.9783
  229MOL0     C31529   5.443   0.411   0.021  1.1091 -0.1212 -0.4528
  229MOL0     C31530   6.243   0.215   0.095  0.9270  0.8347 -0.0767
  229MOL0     C31531   6.369   0.187   0.084 -0.7736  0.0191 -0.5741
  229MOL0     C31532   6.402   0.042   0.103 -0.2904  0.3572 -0.1608
  229MOL0     H31533   6.861   0.389   0.164  0.2159 -1.3993  0.2081
  229MOL0     H31534   7.093   0.335   0.148  2.0137  1.3932 -0.5349
  229MOL0     H31535   7.284   0.451   0.015 -1.3310  1.2414 -0.8718
  229MOL0     H31536   7.254   0.461  -0.153 -2.7074 -2.4491 -1.0820
  229MOL0     H31537   7.459   0.270  -0.033 -0.9298 -0.2972  0.1265
  229MOL0     H31538   7.455   0.347  -0.194 -2.8357  0.1833 -1.0063
  229MOL0     H31539   7.515   0.578  -0.100 -0.9386 -0.5613 -0.4647
  229MOL0     H31540   7.489   0.520   0.065 -0.5145  2.0958 -1.1820
  229MOL0     H31541   7.717   0.478  -0.112 -0.9621 -0.1358  0.0013
  229MOL0     H31542   7.712   0.544   0.045 -0.9016 -0.1593 -0.0394
  229MOL0     H31543   7.698   0.244  -0.030  2.3063 -1.4642  0.4518
  229MOL0     H31544   7.630   0.299   0.129 -1.6288  0.4265 -1.4889
  229MOL0     H31545   7.914   0.358   0.021  2.8121 -0.6752  1.7144
  229MOL0     H31546   7.867   0.378   0.186 -3.5088 -0.8290  1.8870
  229MOL0     H31547   7.894   0.128   0.011 -0.7275 -0.7413  1.4663
  229MOL0     H31548   7.831   0.119   0.175  1.0164 -1.2581 -0.2962
  229MOL0     H31549   8.017   0.164   0.280 -2.1363  0.6348 -0.1468
  229MOL0     H31550   8.076   0.051   0.155  2.5239  1.0636  2.0502
  229MOL0     H31551   8.164   0.193  -0.084  1.1357  1.5033 -2.3312
  229MOL0     H31552   8.392   0.522  -0.078  1.3624 -0.5485 -0.1019
  229MOL0     H31553   8.304   0.417  -0.191  0.5895 -0.2547 -0.6876
  229MOL0     H31554   8.576   0.385  -0.054  2.1619  0.0475 -2.5975
  229MOL0     H31555   8.475   0.247  -0.078 -0.6323  1.2326  1.2340
  229MOL0     H31556   8.453   0.280  -0.325 -0.2002  0.4479 -0.3614
  229MOL0     H31557   8.571   0.417  -0.306  4.2937 -1.2443 -1.3193
  229MOL0     H31558   8.636   0.129  -0.245  4.0552 -0.7918 -0.7033
  229MOL0     H31559   8.700   0.228  -0.375 -1.0919  1.2000 -1.3865
  229MOL0     H31560   8.870   0.102  -0.337 -0.5586  0.6318 -0.6783
  229MOL0     H31561   9.069  -0.033  -0.406 -0.2073  0.9705 -0.3489
  229MOL0     H31562   9.233   0.017  -0.409  0.5743 -0.0284  0.8376
  229MOL0     H31563   9.125   0.093  -0.523 -0.5174  0.2714 -0.0267
  229MOL0     H31564   9.517   0.080  -0.040  0.4701  0.0649  0.8136
  229MOL0     H31565   9.736  -0.008  -0.069 -2.3543  0.9838  1.9988
  229MOL0     H31566  10.041   0.039  -0.118  1.6744  3.1190 -2.7823
  229MOL0     H31567   9.920  -0.092  -0.147  2.8839 -1.8694 -1.6172
  229MOL0     H31568  10.159  -0.125  -0.227  1.4551  0.3716 -0.8239
  229MOL0     H31569  10.040  -0.146  -0.357  2.4021  0.1650 -1.2557
  229MOL0     H31570  10.170   0.118  -0.313  2.2356  0.0651  0.5765
  229MOL0     H31571  10.122   0.051  -0.474 -0.3886 -1.9944  0.0929
  229MOL0     H31572  10.318  -0.096  -0.469  2.0060  1.1261 -1.3100
  229MOL0     H31573  10.347  -0.037  -0.301  0.9771 -0.3068 -0.6486
  229MOL0     H31574  10.340   0.162  -0.543  2.2558 -0.4746 -2.3402
  229MOL0     H31575  10.370   0.191  -0.369 -0.5362 -0.7080 -0.2007
  229MOL0     H31576  10.587   0.094  -0.383  1.0104  0.8663 -0.0942
  229MOL0     H31577  10.568   0.182  -0.531  2.7171 -0.6693 -0.8261
  229MOL0     H31578  10.532  -0.123  -0.506  0.2827 -1.1165 -2.3710
  229MOL0     H31579  10.684  -0.045  -0.564 -0.0466  1.7454 -1.8410
  229MOL0     H31580  10.411  -0.063  -0.694 -0.5592  0.1277 -1.8264
  229MOL0     H31581  10.564  -0.138  -0.749 -0.7799 -0.0254 -0.7984
  229MOL0     H31582   9.787   0.277  -0.392 -2.0928  2.9087  1.1966
  229MOL0     H31583   9.562   0.354  -0.360 -1.0694 -0.7329  0.4157
  229MOL0     H31584   9.180   0.415  -0.108 -0.9755  0.6028 -0.4240
  229MOL0     H31585   8.929   0.422  -0.065 -1.5153  0.3114 -0.9414
  229MOL0     H31586   7.028   0.258  -0.284  0.8648 -1.8829  1.0740
  229MOL0     H31587   6.794   0.344  -0.254  0.2136  1.1328 -0.7681
  229MOL0     H31588   6.471   0.511   0.021  0.2846  1.4715  2.1716
  229MOL0     H31589   6.236   0.551   0.036  0.7602  0.5907  0.9617
  229MOL0     H31590   5.964   0.271  -0.067  0.3350  4.0247 -0.3787
  229MOL0     H31591   5.972   0.213   0.103  2.8932 -0.8055  0.2362
  229MOL0     H31592   5.799   0.399   0.148  0.8859 -0.5973  1.2317
  229MOL0     H31593   5.743   0.274   0.021 -0.5293  0.6151 -1.9464
  229MOL0     H31594   5.864   0.547  -0.058 -2.1846  2.1734  0.7109
  229MOL0     H31595   5.743   0.448  -0.142 -1.6433  3.2354 -0.1568
  229MOL0     H31596   5.650   0.655  -0.037 -3.6775  0.6468  1.7373
  229MOL0     H31597   5.679   0.596   0.119  0.5155 -0.6508  0.8662
  229MOL0     H31598   5.358   0.346   0.019  0.8341 -0.0296  2.5745
  229MOL0     H31599   6.171   0.137   0.118 -1.0539  2.1486 -1.3673
  229MOL0     H31600   6.486   0.035   0.174  0.1657 -1.1834 -0.8059
  229MOL0     H31601   6.325  -0.030   0.132  0.0816 -0.4247 -1.0396
  229MOL0     H31602   6.456   0.005   0.015  0.1458  0.9151 -0.1368
  230MOL0     O31603  10.328  10.535   2.887 -0.0588 -0.6350 -0.1209
  230MOL0     C31604  10.412  10.522   2.792  0.5589 -0.6499 -0.4430
  230MOL0     O31605  10.376  10.517   2.657 -0.2587 -0.1000  0.5081
  230MOL0     C31606  10.256  10.570   2.617 -0.7386  0.2425  0.1758
  230MOL0     C31607  10.256  10.669   2.519  0.0106 -0.1810  0.8372
  230MOL0     C31608  10.133  10.705   2.474 -0.1086  0.8004  0.1227
  230MOL0     C31609  10.012  10.659   2.525 -0.5891 -0.2742  0.1547
  230MOL0     O31610   9.886  10.699   2.484 -0.4750  0.1259 -0.2915
  230MOL0     C31611   9.871  10.791   2.374  0.0081  0.4191 -0.7791
  230MOL0     C31612   9.716  10.786   2.337 -1.0003  0.9455  0.5548
  230MOL0     C31613   9.671  10.893   2.237  0.1445  0.6536 -0.3400
  230MOL0     C31614   9.530  10.851   2.195  0.0594  1.0347 -0.2979
  230MOL0     C31615   9.463  10.922   2.078 -0.1987 -0.1227  0.6212
  230MOL0     C31616   9.343  10.846   2.038  0.2574  0.0062  0.7858
  230MOL0     C31617   9.255  10.936   1.938  0.2876 -0.3318  0.1960
  230MOL0     C31618   9.119  10.975   2.004 -0.6135 -0.1708 -0.5944
  230MOL0     N31619   9.143  11.070   2.112  0.5816  0.2418 -0.0759
  230MOL0     C31620   9.227  11.185   2.117  1.2366  0.3988 -0.5940
  230MOL0     C31621   9.216  11.225   2.248 -0.1102  0.0623 -0.0984
  230MOL0     C31622   9.277  11.337   2.315  0.8043 -1.6976 -0.9104
  230MOL0     C31623   9.380  11.307   2.430  0.2821  0.2646  0.5433
  230MOL0     C31624   9.527  11.304   2.384  1.3032  0.4762 -0.3589
  230MOL0     C31625   9.613  11.245   2.492 -0.5997 -0.4200 -1.0630
  230MOL0     O31626   9.588  11.324   2.614 -0.1479  0.1816  0.0615
  230MOL0     C31627   9.620  11.252   2.731  1.2187 -1.1079  0.0821
  230MOL0     C31628   9.531  11.196   2.824  0.7555 -0.2439  0.5087
  230MOL0     C31629   9.575  11.113   2.928  1.2219  0.3835 -0.6574
  230MOL0     C31630   9.466  11.038   3.007 -0.0553 -0.0492  0.2222
  230MOL0     C31631   9.711  11.108   2.956 -0.2723 -0.5708 -0.6451
  230MOL0     C31632   9.776  11.038   3.079  0.2523  1.4350  0.4171
  230MOL0     O31633   9.903  11.074   3.102 -0.0164  0.5046 -0.0739
  230MOL0     C31634   9.970  11.007   3.200 -0.7698 -0.7235 -0.3669
  230MOL0     C31635  10.034  11.082   3.302 -0.3727  0.3614  0.2136
  230MOL0     C31636  10.109  11.019   3.404  0.5367 -0.5866 -1.1940
  230MOL0     C31637  10.117  10.882   3.398  0.8323  0.6048 -0.2002
  230MOL0     O31638  10.207  10.820   3.476  0.1458  0.2807  0.1340
  230MOL0     C31639  10.248  10.890   3.599 -0.4761  0.4052 -0.7515
  230MOL0     C31640  10.298  10.771   3.692 -0.7000 -0.8329 -0.1027
  230MOL0     C31641  10.365  10.814   3.825  1.2822  0.6799  0.5386
  230MOL0     C31642  10.333  10.706   3.925  0.2245  0.7577 -0.4226
  230MOL0     C31643  10.412  10.724   4.058  0.7382 -0.5038 -0.0891
  230MOL0     C31644  10.401  10.859   4.129  0.2424  0.2652 -1.1507
  230MOL0     C31645  10.268  10.903   4.168 -0.0488 -0.9523  1.2493
  230MOL0     C31646  10.216  10.815   4.282  0.2710 -0.2237 -0.8310
  230MOL0    Cl31647  10.057  10.871   4.341 -0.0107  0.0132 -0.3093
  230MOL0     C31648  10.041  10.804   3.306 -0.0755  0.0080 -0.8095
  230MOL0     C31649   9.966  10.863   3.214 -0.5850  0.1302 -0.6140
  230MOL0     O31650   9.708  10.961   3.139  0.5723  0.0468 -0.0004
  230MOL0     C31651   9.795  11.173   2.865  0.4494  0.6304 -0.0799
  230MOL0     C31652   9.755  11.234   2.753  0.2167 -0.3783  0.8190
  230MOL0     N31653   9.141  11.140   2.323  0.2310 -0.2686  0.0159
  230MOL0     N31654   9.102  11.038   2.240 -0.2296  0.7090  0.3738
  230MOL0     C31655  10.010  10.560   2.630 -0.0717 -0.2510 -0.3242
  230MOL0     C31656  10.139  10.511   2.671  0.0332  0.9832 -0.3785
  230MOL0     C31657  10.556  10.484   2.813  0.7102 -0.5188  0.4961
  230MOL0     C31658  10.642  10.463   2.701 -0.0947  0.2371 -0.7122
  230MOL0     C31659  10.777  10.422   2.713  0.0925 -0.4344  0.0767
  230MOL0     C31660  10.826  10.399   2.843 -0.1137  0.3718  0.5437
  230MOL0     O31661  10.958  10.364   2.869  0.4857  0.0107  0.5406
  230MOL0     C31662  11.040  10.473   2.825  0.4270  0.4799 -0.2432
  230MOL0     C31663  11.189  10.463   2.855  0.5018 -0.0591 -0.1362
  230MOL0     C31664  11.269  10.357   2.779 -0.6000  0.0191  0.1814
  230MOL0     C31665  11.423  10.376   2.795 -0.6397 -0.0467 -0.4306
  230MOL0     C31666  11.501  10.248   2.784  0.1881  0.1777 -0.2579
  230MOL0     C31667  11.544  10.127   2.775 -0.3126 -0.3842 -0.0884
  230MOL0     C31668  10.749  10.422   2.953  0.1287  0.4284  0.6780
  230MOL0     C31669  10.617  10.464   2.938  0.1994 -0.7065  1.1426
  230MOL0     C31670  10.542  10.496   3.064  0.8901  0.0638 -0.0216
  230MOL0     H31671  10.345  10.714   2.477 -1.4761 -0.2669 -2.7311
  230MOL0     H31672  10.126  10.775   2.392  2.4364  0.4709 -0.4541
  230MOL0     H31673   9.928  10.767   2.284  1.4993 -0.8905  0.4532
  230MOL0     H31674   9.896  10.890   2.412 -1.8687 -0.4184  3.1387
  230MOL0     H31675   9.700  10.687   2.293 -0.5533  1.5253 -0.9883
  230MOL0     H31676   9.656  10.784   2.429 -0.0685 -1.4179  1.1890
  230MOL0     H31677   9.668  10.990   2.288 -2.7036  1.6150 -2.0940
  230MOL0     H31678   9.741  10.894   2.153 -1.6160  1.0660 -1.8679
  230MOL0     H31679   9.538  10.744   2.174 -0.9433  0.8305  0.2893
  230MOL0     H31680   9.458  10.856   2.277  1.4522  0.8917  0.9923
  230MOL0     H31681   9.536  10.932   1.997 -0.2253  2.7814  0.8632
  230MOL0     H31682   9.443  11.021   2.119 -1.1382 -0.9813  2.3537
  230MOL0     H31683   9.375  10.753   1.990 -0.5111  0.1200  0.0215
  230MOL0     H31684   9.290  10.818   2.130 -2.7319  2.0419 -0.1676
  230MOL0     H31685   9.244  10.886   1.841  0.0550 -0.4636  0.2875
  230MOL0     H31686   9.314  11.022   1.905 -0.5809  1.1122  2.1857
  230MOL0     H31687   9.058  11.022   1.926  0.3139  4.1445  0.9980
  230MOL0     H31688   9.067  10.886   2.039 -2.8575  1.7730  1.4083
  230MOL0     H31689   9.261  11.248   2.036  0.8006  2.3811  0.6805
  230MOL0     H31690   9.200  11.401   2.359  2.3668 -0.7866  0.6295
  230MOL0     H31691   9.321  11.410   2.246  2.1735 -1.1522  0.4716
  230MOL0     H31692   9.365  11.384   2.506  0.4188  1.1686 -0.3206
  230MOL0     H31693   9.364  11.205   2.467  2.2034  0.1227  1.0521
  230MOL0     H31694   9.534  11.240   2.296 -2.0150  3.6731 -3.3158
  230MOL0     H31695   9.560  11.405   2.359 -0.3304  2.2818  3.8666
  230MOL0     H31696   9.597  11.139   2.513  1.9838 -0.8146 -0.8531
  230MOL0     H31697   9.720  11.241   2.469  0.0574  0.2534  1.5258
  230MOL0     H31698   9.427  11.203   2.793  0.8021  0.3947  0.4715
  230MOL0     H31699   9.499  10.934   3.018  1.0024 -0.0034 -1.9867
  230MOL0     H31700   9.373  11.039   2.950  0.5734  1.5690 -0.8338
  230MOL0     H31701   9.458  11.077   3.109  2.4917 -1.0608  0.8971
  230MOL0     H31702  10.035  11.190   3.296 -2.3447  0.6022  2.8164
  230MOL0     H31703  10.170  11.080   3.469 -1.6050 -1.4443  1.8422
  230MOL0     H31704  10.335  10.955   3.586 -1.5438  2.3073  0.9498
  230MOL0     H31705  10.171  10.952   3.644  1.4296  1.4162  1.3507
  230MOL0     H31706  10.208  10.709   3.699 -1.8069  0.7376  0.2510
  230MOL0     H31707  10.373  10.715   3.636 -3.5444 -2.0293 -3.0815
  230MOL0     H31708  10.319  10.906   3.862  3.0349  1.4946  0.7883
  230MOL0     H31709  10.472  10.832   3.812  0.8799  1.1835 -3.4985
  230MOL0     H31710  10.371  10.610   3.889 -0.1470  1.4363 -2.7705
  230MOL0     H31711  10.227  10.685   3.942  0.7693 -0.3622  2.0137
  230MOL0     H31712  10.379  10.644   4.125 -0.7941  0.3578  0.2412
  230MOL0     H31713  10.518  10.702   4.040  0.9921 -0.7428  1.5248
  230MOL0     H31714  10.455  10.938   4.077  2.0066 -1.0367 -1.4054
  230MOL0     H31715  10.457  10.860   4.223 -0.6907 -2.1521 -0.4952
  230MOL0     H31716  10.208  10.895   4.077 -0.9959  0.2964  1.7301
  230MOL0     H31717  10.270  11.006   4.207  0.0832 -0.6047  0.3701
  230MOL0     H31718  10.287  10.812   4.365 -0.1614 -0.2287 -0.4589
  230MOL0     H31719  10.216  10.711   4.248  1.3920 -0.8065  0.7967
  230MOL0     H31720  10.024  10.699   3.326 -1.4101  0.3369 -0.0899
  230MOL0     H31721   9.912  10.802   3.142  1.6133 -0.8879 -1.5030
  230MOL0     H31722   9.899  11.179   2.898 -0.8176 -0.3700  4.9512
  230MOL0     H31723   9.831  11.270   2.684 -0.7944 -0.8014 -0.5685
  230MOL0     H31724   9.913  10.526   2.664  0.6901 -2.7214 -0.4537
  230MOL0     H31725  10.141  10.422   2.732  1.4219  0.5829 -0.9615
  230MOL0     H31726  10.615  10.487   2.599  0.0439 -0.4071 -0.9055
  230MOL0     H31727  10.851  10.406   2.636  0.8647  3.9730 -0.3770
  230MOL0     H31728  11.047  10.484   2.716 -0.8421  2.2227 -0.1933
  230MOL0     H31729  11.007  10.568   2.868  2.0533 -0.2765  2.9445
  230MOL0     H31730  11.210  10.448   2.961  0.6716 -2.4886 -0.4668
  230MOL0     H31731  11.242  10.554   2.823  2.2761 -1.1360 -0.4003
  230MOL0     H31732  11.239  10.257   2.811 -0.4257 -1.1224 -2.8832
  230MOL0     H31733  11.248  10.365   2.672 -0.2455 -0.6091  0.0617
  230MOL0     H31734  11.445  10.407   2.898 -0.4932 -2.9722  0.5092
  230MOL0     H31735  11.465  10.453   2.729 -0.4109 -0.1707 -0.4309
  230MOL0     H31736  11.585  10.028   2.775  0.4813 -0.0695 -1.0523
  230MOL0     H31737  10.794  10.390   3.046  1.1580 -0.9452 -0.2516
  230MOL0     H31738  10.492  10.593   3.067  0.4623 -0.1742  2.7787
  230MOL0     H31739  10.480  10.408   3.080  0.1093 -0.2130 -3.6977
  230MOL0     H31740  10.611  10.500   3.149  1.4095 -2.0106 -0.2852
  231MOL0     O31741   0.873   6.697   6.484  0.2389 -0.9479  0.0325
  231MOL0     C31742   0.873   6.593   6.539 -0.4596 -0.0083  0.2051
  231MOL0     O31743   0.840   6.474   6.476  0.3217  0.3711 -0.1586
  231MOL0     C31744   0.765   6.478   6.358  0.7652 -0.3291 -0.3400
  231MOL0     C31745   0.808   6.405   6.244 -0.2589  0.3961  0.5722
  231MOL0     C31746   0.739   6.398   6.126  0.2553  0.0076  0.2884
  231MOL0     C31747   0.624   6.480   6.111 -0.3045 -0.0381 -1.2982
  231MOL0     O31748   0.555   6.484   5.995 -0.5016  0.1345  0.2390
  231MOL0     C31749   0.489   6.360   5.961 -0.3876 -0.3192  1.0978
  231MOL0     C31750   0.493   6.344   5.811  0.0877 -0.8036  1.0221
  231MOL0     C31751   0.371   6.280   5.754  0.0702  0.4319  0.1468
  231MOL0     C31752   0.402   6.181   5.648  0.1684  0.2287  1.0796
  231MOL0     C31753   0.292   6.157   5.543  0.3980  0.4752 -0.1721
  231MOL0     C31754   0.168   6.075   5.593 -0.1237  0.2089  0.3917
  231MOL0     C31755   0.120   5.986   5.473 -0.0966 -0.5377 -1.6107
  231MOL0     C31756  -0.027   5.963   5.497  0.4863 -0.2211 -0.0724
  231MOL0     N31757  -0.057   5.910   5.631  0.1543 -0.1572  0.4430
  231MOL0     C31758  -0.030   5.787   5.686  0.3202  0.1546  0.7728
  231MOL0     C31759  -0.101   5.788   5.804 -0.0660 -0.7499  0.2978
  231MOL0     C31760  -0.116   5.680   5.908 -0.3869  0.3120  0.9242
  231MOL0     C31761  -0.072   5.546   5.864 -0.4841  0.2222 -0.3941
  231MOL0     C31762  -0.119   5.426   5.955 -0.1540 -0.6093 -0.2214
  231MOL0     C31763  -0.074   5.441   6.106 -0.0361 -0.1603  0.2132
  231MOL0     O31764   0.067   5.479   6.114 -0.2636  0.0904  0.3314
  231MOL0     C31765   0.159   5.394   6.070 -0.3284  0.2131  0.0843
  231MOL0     C31766   0.297   5.436   6.064 -0.0304 -0.0529  0.5524
  231MOL0     C31767   0.392   5.350   6.018  0.8401  0.5121 -0.6291
  231MOL0     C31768   0.530   5.410   6.007 -0.4162  0.7670 -0.0833
  231MOL0     C31769   0.363   5.211   5.993  0.3109 -1.1844 -0.2463
  231MOL0     C31770   0.472   5.114   5.952 -0.3620 -0.4906  1.3932
  231MOL0     O31771   0.595   5.134   5.997 -0.1590 -0.6991 -0.5499
  231MOL0     C31772   0.697   5.056   5.964 -0.6646  0.0084  0.2679
  231MOL0     C31773   0.821   5.123   5.952  0.5804 -0.3065  0.2967
  231MOL0     C31774   0.934   5.043   5.935 -0.7848 -0.3417  0.1628
  231MOL0     C31775   0.925   4.899   5.921 -0.0819 -0.5165  0.2270
  231MOL0     O31776   1.042   4.833   5.894  0.2734  0.2852  0.6209
  231MOL0     C31777   1.031   4.693   5.880 -0.0432  0.9270 -0.2095
  231MOL0     C31778   0.991   4.655   5.744 -0.4408 -0.0015  0.3788
  231MOL0     C31779   1.004   4.503   5.726  0.1241 -0.3842 -0.5904
  231MOL0     C31780   0.970   4.463   5.574 -0.2551 -0.2206  0.3878
  231MOL0     C31781   0.961   4.310   5.555 -0.2655  0.2686 -0.4251
  231MOL0     C31782   0.887   4.230   5.664  0.2992 -0.2432 -0.2262
  231MOL0     C31783   0.908   4.079   5.648  0.3981 -0.0421 -0.0222
  231MOL0     C31784   0.833   4.000   5.747 -0.9584 -0.6867 -0.1908
  231MOL0    Cl31785   0.665   4.043   5.749 -0.3546  0.4524  0.3412
  231MOL0     C31786   0.805   4.843   5.931 -0.3259  1.1463 -0.3480
  231MOL0     C31787   0.698   4.917   5.958  0.0785 -0.1117  0.5478
  231MOL0     O31788   0.441   5.026   5.879 -0.1306 -0.1745 -0.3994
  231MOL0     C31789   0.225   5.173   6.000  0.3626  1.1682  0.4842
  231MOL0     C31790   0.129   5.264   6.030  0.0935  0.1080  0.0088
  231MOL0     N31791  -0.169   5.910   5.819 -0.3240 -0.4574  0.7644
  231MOL0     N31792  -0.142   5.983   5.719  0.0868  0.1425  0.3234
  231MOL0     C31793   0.582   6.570   6.216  0.6641 -0.2744  0.2912
  231MOL0     C31794   0.656   6.554   6.335  0.1622 -0.2323 -0.8269
  231MOL0     C31795   0.928   6.585   6.680  0.7061 -0.8070  0.1467
  231MOL0     C31796   0.961   6.451   6.723  0.1299 -0.0412  0.5255
  231MOL0     C31797   1.030   6.434   6.846 -0.9266 -0.1832 -0.2730
  231MOL0     C31798   1.053   6.545   6.935 -0.0730 -1.0453 -0.2567
  231MOL0     O31799   1.104   6.519   7.055  0.0069  1.0635  0.1498
  231MOL0     C31800   1.211   6.611   7.099  0.1463 -0.2218  1.0682
  231MOL0     C31801   1.338   6.523   7.108  0.3927  0.0561  1.0701
  231MOL0     C31802   1.465   6.597   7.117  0.5100  0.5672  0.4032
  231MOL0     C31803   1.592   6.506   7.094  0.8224 -0.0492 -0.5792
  231MOL0     C31804   1.629   6.417   7.205  0.2702 -0.3036 -0.1163
  231MOL0     C31805   1.663   6.350   7.300  0.8769 -0.2747 -0.4942
  231MOL0     C31806   1.020   6.676   6.886  0.5460  0.4979  0.2465
  231MOL0     C31807   0.959   6.698   6.762  0.4153  0.7216  0.1178
  231MOL0     C31808   0.942   6.845   6.716  1.1481  0.5374  0.5313
  231MOL0     H31809   0.908   6.365   6.255 -0.5368 -0.0570  1.5887
  231MOL0     H31810   0.770   6.341   6.039 -4.0731  1.0506 -2.2035
  231MOL0     H31811   0.383   6.364   5.988 -1.3284 -4.5737 -1.0666
  231MOL0     H31812   0.535   6.273   6.011 -2.1604 -0.6639  2.2342
  231MOL0     H31813   0.530   6.433   5.761  2.2101 -0.5395  2.9196
  231MOL0     H31814   0.585   6.286   5.804  3.0492  3.4354  1.5626
  231MOL0     H31815   0.309   6.229   5.829 -0.5939  3.1992  1.5964
  231MOL0     H31816   0.303   6.361   5.726 -1.4354 -1.4979 -2.1792
  231MOL0     H31817   0.485   6.215   5.585 -0.3866 -1.8413 -0.9068
  231MOL0     H31818   0.438   6.084   5.681 -1.3243  0.4137  3.4344
  231MOL0     H31819   0.353   6.100   5.473  0.0972 -1.7369  1.2798
  231MOL0     H31820   0.257   6.252   5.500  1.3466  1.6898  1.6169
  231MOL0     H31821   0.189   6.016   5.683  0.6410 -1.9062 -1.0712
  231MOL0     H31822   0.083   6.138   5.620  0.1632  1.8612 -2.2384
  231MOL0     H31823   0.187   5.902   5.454  1.4924  0.6697 -1.5193
  231MOL0     H31824   0.117   6.052   5.386  0.5061  1.3337 -0.2603
  231MOL0     H31825  -0.085   6.056   5.498 -0.1187 -0.5618  2.3087
  231MOL0     H31826  -0.063   5.898   5.417  3.6835 -1.2294 -0.8237
  231MOL0     H31827   0.029   5.707   5.642 -1.1031 -0.0928 -0.7711
  231MOL0     H31828  -0.220   5.674   5.944 -0.8179 -0.5594 -0.3896
  231MOL0     H31829  -0.046   5.705   5.988  1.8366 -1.4557 -0.3485
  231MOL0     H31830  -0.091   5.520   5.760  0.7353 -1.1848 -0.2974
  231MOL0     H31831   0.038   5.550   5.869 -0.2496 -2.0576 -2.2944
  231MOL0     H31832  -0.228   5.423   5.964 -0.0458 -0.2869  1.6143
  231MOL0     H31833  -0.088   5.330   5.914 -2.0367 -0.6780 -1.6190
  231MOL0     H31834  -0.129   5.527   6.147  0.7958  1.3418 -1.6431
  231MOL0     H31835  -0.094   5.351   6.165  0.7868  0.4462  1.4693
  231MOL0     H31836   0.313   5.541   6.083  0.3195  0.1192 -0.6143
  231MOL0     H31837   0.511   5.517   5.994 -1.1477  0.7737  0.8924
  231MOL0     H31838   0.601   5.366   5.936  1.3389 -0.4663  2.2897
  231MOL0     H31839   0.581   5.397   6.103 -0.1674 -2.0474 -0.4987
  231MOL0     H31840   0.819   5.231   5.952  0.5763 -0.2827 -1.5304
  231MOL0     H31841   1.034   5.085   5.943  0.0810 -2.0553 -0.8023
  231MOL0     H31842   1.134   4.658   5.894  0.2852  1.7564 -0.4951
  231MOL0     H31843   0.977   4.637   5.956  2.0940 -0.0329  0.6842
  231MOL0     H31844   0.888   4.692   5.745 -0.4060  0.1468 -0.6343
  231MOL0     H31845   1.057   4.706   5.674 -1.9387 -1.8463 -2.5739
  231MOL0     H31846   0.931   4.457   5.794 -1.3604  0.1423 -1.7637
  231MOL0     H31847   1.106   4.474   5.753 -0.0400 -1.1891 -0.8102
  231MOL0     H31848   1.045   4.508   5.509 -1.3318 -0.8907 -1.3797
  231MOL0     H31849   0.876   4.511   5.545 -0.1309 -0.0511  0.2685
  231MOL0     H31850   0.896   4.299   5.468 -0.4687 -0.0928 -0.2294
  231MOL0     H31851   1.060   4.265   5.544  0.5648  1.7715  0.5084
  231MOL0     H31852   0.780   4.253   5.664 -0.3608 -2.8976  0.5725
  231MOL0     H31853   0.938   4.261   5.756 -4.0206 -0.7745  2.6572
  231MOL0     H31854   1.013   4.051   5.659  0.2380 -0.2483  1.1254
  231MOL0     H31855   0.881   4.043   5.548  2.1786  3.2400 -1.8600
  231MOL0     H31856   0.868   4.001   5.850 -3.0043 -0.3977  0.5463
  231MOL0     H31857   0.827   3.896   5.713 -2.5237 -1.4782  2.2472
  231MOL0     H31858   0.794   4.735   5.933  0.7457  1.0442  0.7513
  231MOL0     H31859   0.609   4.860   5.981 -0.0084 -1.4203 -2.4915
  231MOL0     H31860   0.189   5.073   5.979  1.1569  0.5519  1.9293
  231MOL0     H31861   0.027   5.230   6.045 -0.3278  0.2889 -2.1405
  231MOL0     H31862   0.492   6.630   6.213 -0.2519 -1.6256 -0.2664
  231MOL0     H31863   0.630   6.615   6.420 -0.5571  2.9284 -3.1440
  231MOL0     H31864   0.940   6.357   6.673 -0.3130 -1.3997  3.0814
  231MOL0     H31865   1.045   6.344   6.905 -1.1370  1.1074  1.8388
  231MOL0     H31866   1.222   6.693   7.027  2.0346 -1.0557  0.3339
  231MOL0     H31867   1.189   6.650   7.199  1.6180  0.0792  1.3002
  231MOL0     H31868   1.340   6.444   7.032  1.0787  0.5415  0.5633
  231MOL0     H31869   1.330   6.452   7.190 -0.2443 -0.2670  0.7352
  231MOL0     H31870   1.460   6.678   7.044  4.2900  0.7238  0.1429
  231MOL0     H31871   1.472   6.641   7.218 -2.2067 -0.3708  1.0946
  231MOL0     H31872   1.666   6.582   7.069  2.2049 -0.6814  1.4352
  231MOL0     H31873   1.579   6.444   7.004 -3.1234  0.9924 -0.9360
  231MOL0     H31874   1.692   6.281   7.376 -1.0676 -1.0543 -0.4078
  231MOL0     H31875   1.028   6.766   6.946 -1.3432  0.3388  0.7911
  231MOL0     H31876   1.006   6.866   6.630  1.5051 -1.5049  0.2614
  231MOL0     H31877   0.835   6.858   6.698  1.3846  0.2602 -1.1763
  231MOL0     H31878   0.964   6.919   6.794  0.5759  0.9636  0.2986
  232MOL0     O31879   7.107   8.458   1.744  1.1924  0.0237  0.0592
  232MOL0     C31880   7.042   8.524   1.660 -0.8393  0.1486 -0.7053
  232MOL0     O31881   7.054   8.512   1.519 -0.4269 -0.5678 -0.5434
  232MOL0     C31882   7.128   8.410   1.475  0.3355 -0.2865  0.4756
  232MOL0     C31883   7.124   8.282   1.529 -0.3729  0.0732 -0.2656
  232MOL0     C31884   7.195   8.172   1.479 -0.3873  0.0772 -0.6551
  232MOL0     C31885   7.277   8.188   1.371 -0.4297 -0.1964  0.0529
  232MOL0     O31886   7.334   8.077   1.310  0.6063 -0.4061  1.1037
  232MOL0     C31887   7.468   8.091   1.287  0.1520  0.2718 -0.3584
  232MOL0     C31888   7.547   7.964   1.261  0.5276 -0.4764 -0.7590
  232MOL0     C31889   7.697   7.983   1.249  0.0294 -0.7774 -0.8487
  232MOL0     C31890   7.747   7.970   1.111  0.0776  0.1815  0.8085
  232MOL0     C31891   7.877   8.027   1.088 -0.4647 -0.6372 -0.7952
  232MOL0     C31892   7.926   7.957   0.962 -0.1566  0.6197  0.1318
  232MOL0     C31893   8.049   8.028   0.904 -0.1057  0.0603  0.4430
  232MOL0     C31894   8.183   7.960   0.960 -0.1747  0.6342  0.3722
  232MOL0     N31895   8.305   8.006   0.906  0.3397 -0.6816  0.0095
  232MOL0     C31896   8.320   8.082   0.794 -0.2380  0.4905 -0.8356
  232MOL0     C31897   8.455   8.102   0.796  0.0231  0.7246  0.9519
  232MOL0     C31898   8.530   8.208   0.718 -0.3309  0.0773  0.0359
  232MOL0     C31899   8.625   8.153   0.617  0.5145  0.2265 -0.9447
  232MOL0     C31900   8.717   8.253   0.547 -0.0841 -0.7678  0.0385
  232MOL0     C31901   8.819   8.183   0.454 -0.2305 -0.2647  0.4165
  232MOL0     O31902   8.752   8.143   0.329 -0.7709 -0.1764 -0.0020
  232MOL0     C31903   8.753   8.229   0.221  0.5470  0.9432  0.2882
  232MOL0     C31904   8.682   8.188   0.111  0.4302 -0.8628  0.1649
  232MOL0     C31905   8.687   8.261  -0.004  0.5705 -0.5641  0.8083
  232MOL0     C31906   8.628   8.193  -0.123 -0.3442 -0.6275  0.0972
  232MOL0     C31907   8.767   8.383  -0.017 -0.0466  0.9683  0.2496
  232MOL0     C31908   8.792   8.450  -0.151 -0.1436 -0.0787 -0.0842
  232MOL0     O31909   8.896   8.542  -0.157  0.0653 -0.5911 -0.1036
  232MOL0     C31910   8.915   8.602  -0.275  0.3851 -0.0442  0.1596
  232MOL0     C31911   8.949   8.536  -0.391 -0.6968  0.3010  1.1105
  232MOL0     C31912   8.958   8.611  -0.513  0.2460  0.3979 -0.0843
  232MOL0     C31913   8.933   8.748  -0.524 -0.7528 -0.0388 -0.0871
  232MOL0     O31914   8.922   8.818  -0.633 -0.1193  0.4543 -0.0199
  232MOL0     C31915   8.940   8.748  -0.756 -0.4689 -0.0858  0.5577
  232MOL0     C31916   8.883   8.820  -0.877  0.8748  0.0599 -0.2659
  232MOL0     C31917   8.728   8.847  -0.856 -0.2847  0.5209 -0.2410
  232MOL0     C31918   8.671   8.912  -0.989  0.2418 -0.3905 -1.6346
  232MOL0     C31919   8.517   8.893  -0.975  0.0321 -0.8924  0.1874
  232MOL0     C31920   8.430   8.920  -1.101  0.3325 -0.0592  0.1591
  232MOL0     C31921   8.420   9.063  -1.166 -0.3216 -0.1656 -0.2894
  232MOL0     C31922   8.314   9.076  -1.280 -0.0952  0.3043  0.4576
  232MOL0    Cl31923   8.157   9.093  -1.195  0.1274  0.5490 -0.2206
  232MOL0     C31924   8.915   8.813  -0.396  0.9798 -0.2380  1.3082
  232MOL0     C31925   8.907   8.746  -0.277  0.0484  0.0736  0.0002
  232MOL0     O31926   8.697   8.441  -0.229 -0.1179 -0.1804  0.1774
  232MOL0     C31927   8.826   8.435   0.102  0.5436 -0.1663  0.0044
  232MOL0     C31928   8.816   8.357   0.215  1.0086 -0.2091 -0.0042
  232MOL0     N31929   8.511   8.026   0.890  0.4185  0.4146  0.1531
  232MOL0     N31930   8.422   7.965   0.952 -0.5715 -0.1771 -0.6870
  232MOL0     C31931   7.285   8.325   1.320  0.2649  0.5430  0.1158
  232MOL0     C31932   7.220   8.437   1.373  1.1315  0.1683  0.1209
  232MOL0     C31933   6.959   8.636   1.708  0.4014  0.3507 -0.8203
  232MOL0     C31934   6.921   8.640   1.848 -0.4501 -0.7516  0.8525
  232MOL0     C31935   6.838   8.740   1.903 -0.6800 -0.5393  1.3788
  232MOL0     C31936   6.776   8.843   1.814 -0.2564  0.1391 -0.7459
  232MOL0     O31937   6.675   8.929   1.860  0.0765  0.2774 -0.5942
  232MOL0     C31938   6.620   8.916   1.993 -0.5512 -0.2768  0.2906
  232MOL0     C31939   6.503   9.012   1.991  0.4331  0.5618 -1.3977
  232MOL0     C31940   6.446   9.011   2.133  1.6093  0.6715  0.0900
  232MOL0     C31941   6.370   9.133   2.154  0.8261 -1.3359 -0.3653
  232MOL0     C31942   6.324   9.152   2.291 -0.7959 -0.5052 -1.2971
  232MOL0     C31943   6.298   9.182   2.405 -0.8812 -0.2438 -0.3293
  232MOL0     C31944   6.816   8.837   1.678  0.2868  0.7589 -0.4605
  232MOL0     C31945   6.911   8.745   1.629  0.2487 -0.5854 -0.6131
  232MOL0     C31946   6.947   8.771   1.487 -0.1605  0.2310  0.5284
  232MOL0     H31947   7.044   8.265   1.600 -0.8310  1.0423 -0.5381
  232MOL0     H31948   7.189   8.071   1.518 -0.4100 -1.1463 -3.6234
  232MOL0     H31949   7.519   8.127   1.377 -0.9018 -2.2058  1.3432
  232MOL0     H31950   7.484   8.163   1.207  0.1740 -0.9008 -1.4350
  232MOL0     H31951   7.524   7.897   1.344  0.1802  0.3147 -0.2035
  232MOL0     H31952   7.507   7.911   1.174 -1.5156 -1.0774  0.4735
  232MOL0     H31953   7.725   8.079   1.293 -1.5255  0.7087 -2.9557
  232MOL0     H31954   7.745   7.903   1.306  1.0959  0.2418 -0.2823
  232MOL0     H31955   7.737   7.866   1.079 -0.2610  0.8848 -1.5161
  232MOL0     H31956   7.671   8.019   1.051 -0.4174  2.0987  2.8893
  232MOL0     H31957   7.938   8.020   1.178 -0.8942 -1.3324 -0.5466
  232MOL0     H31958   7.863   8.132   1.059 -1.1573 -0.2042  0.9978
  232MOL0     H31959   7.956   7.857   0.995 -0.7354  0.3908 -0.0256
  232MOL0     H31960   7.847   7.956   0.887  0.6538  2.4683 -0.8097
  232MOL0     H31961   8.049   8.133   0.937 -1.9203  0.3071 -0.2601
  232MOL0     H31962   8.035   8.029   0.796 -1.6122 -0.0812  0.6218
  232MOL0     H31963   8.187   7.983   1.066  0.6002  0.2410  0.4419
  232MOL0     H31964   8.182   7.852   0.941  0.8950  0.6410  0.1625
  232MOL0     H31965   8.248   8.125   0.725 -1.5863  1.0294  0.8349
  232MOL0     H31966   8.585   8.253   0.801 -1.0804 -1.7541  1.6003
  232MOL0     H31967   8.452   8.266   0.668  1.8003  2.4145 -0.7436
  232MOL0     H31968   8.690   8.081   0.668  0.6885  0.7430 -0.4318
  232MOL0     H31969   8.576   8.099   0.535  1.0880 -0.5582 -0.7820
  232MOL0     H31970   8.674   8.334   0.487 -0.1572 -0.7591  0.1032
  232MOL0     H31971   8.772   8.301   0.629 -0.3880 -0.5804  0.1340
  232MOL0     H31972   8.904   8.249   0.432 -0.7492  0.1667 -0.3505
  232MOL0     H31973   8.858   8.093   0.502 -0.2555 -1.2293 -1.2909
  232MOL0     H31974   8.634   8.091   0.120 -0.5084 -0.4452 -0.2776
  232MOL0     H31975   8.604   8.088  -0.100  1.5260 -0.9489  0.7652
  232MOL0     H31976   8.705   8.185  -0.200  1.5509 -0.5516  1.8947
  232MOL0     H31977   8.550   8.250  -0.174  2.4340  1.5498 -2.0463
  232MOL0     H31978   8.968   8.429  -0.393 -0.7848  0.2765  1.4802
  232MOL0     H31979   8.985   8.551  -0.599 -0.2544  1.0598 -0.7159
  232MOL0     H31980   9.046   8.732  -0.774 -0.6794 -0.0536 -0.8275
  232MOL0     H31981   8.895   8.648  -0.759 -1.4824  0.3730 -1.9701
  232MOL0     H31982   8.925   8.921  -0.879 -0.3198  0.7620  3.0520
  232MOL0     H31983   8.905   8.762  -0.967 -1.8287  1.1865 -1.7600
  232MOL0     H31984   8.723   8.926  -0.780  1.4759 -0.5902  1.1353
  232MOL0     H31985   8.665   8.760  -0.835  2.5762 -1.9050 -0.9817
  232MOL0     H31986   8.712   8.863  -1.078  2.5159  1.9068 -1.9628
  232MOL0     H31987   8.699   9.017  -1.000 -2.2398  0.2957 -1.9292
  232MOL0     H31988   8.495   8.792  -0.939  0.9745 -1.3177 -0.4005
  232MOL0     H31989   8.493   8.965  -0.896  1.7490 -0.8035  0.6521
  232MOL0     H31990   8.328   8.887  -1.080 -0.7226  2.4695 -0.5794
  232MOL0     H31991   8.473   8.852  -1.176 -0.6250  0.5342 -0.9692
  232MOL0     H31992   8.512   9.091  -1.218  0.9813  0.7885  2.3526
  232MOL0     H31993   8.398   9.139  -1.090 -1.0134 -1.3586  0.7391
  232MOL0     H31994   8.299   8.990  -1.346  0.6895  1.9174 -2.0057
  232MOL0     H31995   8.342   9.155  -1.350 -0.7856  0.3575  0.2318
  232MOL0     H31996   8.917   8.921  -0.394 -0.0436 -0.2132  1.1706
  232MOL0     H31997   8.902   8.788  -0.177 -1.0560 -0.0360  0.0013
  232MOL0     H31998   8.890   8.523   0.094  1.6126 -1.0719 -2.5086
  232MOL0     H31999   8.868   8.391   0.304 -3.5758 -0.5941  3.2157
  232MOL0     H32000   7.349   8.359   1.239 -1.0520  2.3058 -0.2474
  232MOL0     H32001   7.235   8.536   1.332  1.6526  1.0377  2.2439
  232MOL0     H32002   6.963   8.560   1.908  0.9770 -0.6281  0.0648
  232MOL0     H32003   6.822   8.741   2.010  1.7382 -0.9850  1.8229
  232MOL0     H32004   6.589   8.812   2.000 -0.0832 -0.5879 -1.7036
  232MOL0     H32005   6.694   8.953   2.065 -1.0970  2.4733 -0.4455
  232MOL0     H32006   6.436   8.966   1.917 -0.4999 -3.8045  1.7664
  232MOL0     H32007   6.528   9.115   1.967 -1.5973  1.6065  0.5891
  232MOL0     H32008   6.381   8.923   2.142  2.2192 -0.0204 -1.8044
  232MOL0     H32009   6.532   9.001   2.201  1.2798  0.5881  0.4996
  232MOL0     H32010   6.278   9.150   2.098  1.0271  1.3616 -0.0091
  232MOL0     H32011   6.431   9.219   2.126 -0.7494 -0.8325 -2.4761
  232MOL0     H32012   6.252   9.211   2.498  0.3773  2.6236 -0.4733
  232MOL0     H32013   6.781   8.917   1.613  2.5619  1.2702 -1.1590
  232MOL0     H32014   7.055   8.776   1.470 -0.4523  1.1140 -1.4613
  232MOL0     H32015   6.904   8.696   1.420  0.8467  0.3555 -0.2874
  232MOL0     H32016   6.918   8.868   1.445 -1.0729 -1.3313 -2.7848
  233MOL0     O32017   6.087  10.261   5.796 -0.2709 -0.5191 -0.1356
  233MOL0     C32018   6.005  10.179   5.840 -0.1425 -0.7666  0.0563
  233MOL0     O32019   6.033  10.048   5.883  0.3834 -0.5946 -0.4680
  233MOL0     C32020   6.168  10.010   5.892 -0.4205 -0.1861  1.1137
  233MOL0     C32021   6.216   9.906   5.810  0.8366 -0.2501  0.4330
  233MOL0     C32022   6.347   9.875   5.799  0.1150 -0.5907 -1.1618
  233MOL0     C32023   6.443   9.946   5.874  0.0580 -0.0479  1.0124
  233MOL0     O32024   6.576   9.918   5.872 -0.2361  0.0447 -0.1054
  233MOL0     C32025   6.626   9.823   5.787 -0.5487  0.1692  0.0638
  233MOL0     C32026   6.780   9.837   5.779 -0.1832 -0.4534  0.7334
  233MOL0     C32027   6.848   9.699   5.769  0.3240  0.2766  0.2841
  233MOL0     C32028   6.835   9.630   5.632 -0.1277  0.3177  0.4702
  233MOL0     C32029   6.931   9.517   5.618 -0.0307  0.2270 -0.3420
  233MOL0     C32030   6.938   9.471   5.475 -0.2796 -0.0941  0.4342
  233MOL0     C32031   6.991   9.576   5.375  0.2720 -0.4879 -0.3910
  233MOL0     C32032   7.033   9.507   5.252  0.0909  0.2433  0.0103
  233MOL0     N32033   7.096   9.605   5.156  0.0941 -0.3063 -0.1161
  233MOL0     C32034   7.223   9.657   5.156 -0.2709 -0.0881 -1.1746
  233MOL0     C32035   7.239   9.743   5.048  0.6804 -0.7141  0.8561
  233MOL0     C32036   7.369   9.801   4.992  0.2631 -0.6395  0.6087
  233MOL0     C32037   7.328   9.920   4.895  0.1633  0.6651 -0.5256
  233MOL0     C32038   7.452   9.977   4.814 -0.0981 -0.7651 -0.2345
  233MOL0     C32039   7.547   9.869   4.773  0.5579  0.7546  0.4604
  233MOL0     O32040   7.636   9.928   4.679 -0.4447  0.0671  0.4828
  233MOL0     C32041   7.770   9.880   4.663  0.5684 -0.0621  0.6278
  233MOL0     C32042   7.845   9.962   4.578 -1.0738  0.5651  0.0562
  233MOL0     C32043   7.984   9.936   4.559  0.3330 -0.5303 -0.5120
  233MOL0     C32044   8.065  10.026   4.478  0.1536  0.2597 -0.1255
  233MOL0     C32045   8.043   9.820   4.619 -0.5390  1.0098 -1.4524
  233MOL0     C32046   8.194   9.778   4.611  0.0185  0.4019 -0.4475
  233MOL0     O32047   8.216   9.644   4.647  0.5682 -0.3745 -0.0116
  233MOL0     C32048   8.333   9.578   4.625 -1.4960 -0.3634 -0.3729
  233MOL0     C32049   8.321   9.441   4.620 -0.9486 -0.7822  0.2002
  233MOL0     C32050   8.430   9.364   4.595  0.0424  0.4092 -0.5996
  233MOL0     C32051   8.564   9.404   4.601 -0.1790 -0.5432  0.5205
  233MOL0     O32052   8.656   9.306   4.575  0.6573 -1.1435 -1.6333
  233MOL0     C32053   8.782   9.333   4.630  0.6338  0.7975 -0.4529
  233MOL0     C32054   8.798   9.313   4.784  0.0547 -0.3610  0.0474
  233MOL0     C32055   8.748   9.184   4.844 -0.1907 -0.4701  0.3594
  233MOL0     C32056   8.817   9.056   4.788  0.5040  0.1705 -0.4073
  233MOL0     C32057   8.767   8.932   4.862 -0.9765  2.0787 -0.0780
  233MOL0     C32058   8.859   8.810   4.834 -0.8733 -0.1401 -0.3828
  233MOL0     C32059   8.810   8.679   4.901  0.7550 -0.6659 -0.5202
  233MOL0     C32060   8.657   8.644   4.875 -0.0249  0.4153 -0.5580
  233MOL0    Cl32061   8.594   8.489   4.939 -0.0301  0.2693  0.2008
  233MOL0     C32062   8.582   9.546   4.617  0.9857  0.0040 -0.3536
  233MOL0     C32063   8.467   9.633   4.624 -1.2598  1.1317  0.4671
  233MOL0     O32064   8.286   9.859   4.589  0.3523 -0.5581  0.0442
  233MOL0     C32065   7.962   9.750   4.709 -0.0358 -0.0757 -0.0629
  233MOL0     C32066   7.831   9.768   4.727  0.4971  0.6919  0.4668
  233MOL0     N32067   7.105   9.737   4.996 -0.3803  0.7397 -0.6215
  233MOL0     N32068   7.024   9.655   5.050 -0.6868 -0.7024  0.1857
  233MOL0     C32069   6.406  10.054   5.957 -0.0826 -0.1302 -0.1652
  233MOL0     C32070   6.269  10.085   5.963  1.1414  0.2263  0.7741
  233MOL0     C32071   5.862  10.220   5.847 -0.3310  0.7849  0.7100
  233MOL0     C32072   5.766  10.115   5.834 -0.7800 -0.6036  0.1502
  233MOL0     C32073   5.634  10.148   5.827  0.9730  1.1613 -0.3050
  233MOL0     C32074   5.584  10.284   5.825  0.7911  0.2374  0.3126
  233MOL0     O32075   5.453  10.322   5.825 -0.4296 -0.4308 -0.4017
  233MOL0     C32076   5.366  10.219   5.808  0.6341 -0.5409 -0.1264
  233MOL0     C32077   5.231  10.288   5.786  0.1327  0.1517  0.3271
  233MOL0     C32078   5.100  10.208   5.776 -0.4904  0.8380 -0.4607
  233MOL0     C32079   4.982  10.295   5.723 -0.4804 -0.3003 -0.1914
  233MOL0     C32080   4.876  10.202   5.679 -0.0210  0.4185 -0.6583
  233MOL0     C32081   4.777  10.135   5.654 -0.3498  0.0927 -0.4025
  233MOL0     C32082   5.673  10.384   5.849 -0.8580 -0.8866 -0.6425
  233MOL0     C32083   5.812  10.360   5.860 -0.2276  0.4617  0.3094
  233MOL0     C32084   5.904  10.477   5.903 -0.1850  0.1519  0.3004
  233MOL0     H32085   6.145   9.845   5.755 -0.7177  0.7869  1.2167
  233MOL0     H32086   6.371   9.794   5.731 -2.1391 -1.3387 -1.1283
  233MOL0     H32087   6.577   9.819   5.690  0.6829  2.5753 -0.7363
  233MOL0     H32088   6.606   9.729   5.838 -0.9483 -0.1194 -0.6116
  233MOL0     H32089   6.803   9.889   5.686 -0.1587 -1.7612 -0.0122
  233MOL0     H32090   6.812   9.895   5.866  2.2128 -2.4708  1.3147
  233MOL0     H32091   6.951   9.703   5.807 -0.0325  1.6380  1.1667
  233MOL0     H32092   6.795   9.628   5.833  0.2109 -0.0120 -0.1302
  233MOL0     H32093   6.731   9.600   5.620  0.1802 -0.6128 -0.0158
  233MOL0     H32094   6.858   9.700   5.551  2.2548 -0.7471  0.1249
  233MOL0     H32095   6.891   9.440   5.685  2.6846  1.0657  2.4530
  233MOL0     H32096   7.034   9.542   5.646 -1.3608  4.6521  1.4932
  233MOL0     H32097   7.005   9.386   5.462 -1.5521 -0.7146 -2.8626
  233MOL0     H32098   6.835   9.446   5.448  0.4836 -0.7165 -2.1720
  233MOL0     H32099   7.076   9.621   5.428 -1.1056 -1.5698  2.9799
  233MOL0     H32100   6.906   9.639   5.349  0.0139 -0.9214 -0.5963
  233MOL0     H32101   7.104   9.424   5.259  0.3693  0.4526 -0.3435
  233MOL0     H32102   6.940   9.472   5.206  1.3862  0.3326 -2.8905
  233MOL0     H32103   7.305   9.637   5.225 -0.6421  1.8709 -0.0916
  233MOL0     H32104   7.423   9.726   4.933 -0.9232 -2.1191  1.3381
  233MOL0     H32105   7.426   9.831   5.081 -1.6338 -1.1327  2.0490
  233MOL0     H32106   7.260   9.876   4.821 -0.2017  1.1278 -0.4693
  233MOL0     H32107   7.280  10.006   4.942  1.1423  1.7846 -1.5054
  233MOL0     H32108   7.407  10.021   4.724  2.0045 -0.1775 -1.0601
  233MOL0     H32109   7.506  10.054   4.870  0.0294 -2.8784  2.7598
  233MOL0     H32110   7.592   9.834   4.867 -2.1814 -2.3846  0.8164
  233MOL0     H32111   7.495   9.784   4.727  0.7039  2.2643 -2.7961
  233MOL0     H32112   7.788  10.041   4.530 -3.3540 -0.9923  0.0500
  233MOL0     H32113   8.002  10.103   4.432  0.9207  0.2741 -1.1753
  233MOL0     H32114   8.115   9.982   4.392 -2.1408  0.5341 -1.7056
  233MOL0     H32115   8.137  10.076   4.542 -0.9964  1.0393  0.5923
  233MOL0     H32116   8.223   9.396   4.604 -1.8198  1.8584 -3.2010
  233MOL0     H32117   8.411   9.265   4.555  0.6351  0.3511 -0.7366
  233MOL0     H32118   8.849   9.257   4.589  0.4542 -0.5331  1.5702
  233MOL0     H32119   8.816   9.431   4.596  0.8536  0.1633 -2.1932
  233MOL0     H32120   8.905   9.320   4.809 -0.0346  1.5003  0.0351
  233MOL0     H32121   8.759   9.405   4.830  4.5712  1.3069  1.1188
  233MOL0     H32122   8.640   9.184   4.826 -0.1729 -2.1956  0.0873
  233MOL0     H32123   8.765   9.184   4.952  0.3122 -1.6893  0.2941
  233MOL0     H32124   8.923   9.071   4.808 -0.1379  2.6137  1.6867
  233MOL0     H32125   8.796   9.041   4.682 -0.4581 -1.9861  0.0344
  233MOL0     H32126   8.760   8.937   4.971  0.2416 -3.7897  0.6141
  233MOL0     H32127   8.668   8.897   4.829  0.4020 -3.8117  0.8473
  233MOL0     H32128   8.960   8.825   4.871 -0.5740  3.6672 -2.2048
  233MOL0     H32129   8.874   8.791   4.727 -3.7877 -1.7433 -0.6205
  233MOL0     H32130   8.826   8.681   5.009 -1.3663 -0.3600 -0.1722
  233MOL0     H32131   8.876   8.612   4.844  0.8454  0.3881 -1.7008
  233MOL0     H32132   8.637   8.649   4.768 -0.7502 -3.1466 -0.7012
  233MOL0     H32133   8.600   8.720   4.930  2.7143  1.1620  1.5078
  233MOL0     H32134   8.677   9.596   4.636  1.2716  1.1822 -4.0551
  233MOL0     H32135   8.496   9.738   4.625  2.1607  0.3829 -2.2021
  233MOL0     H32136   8.001   9.676   4.778 -0.9198 -2.4226 -1.9544
  233MOL0     H32137   7.768   9.705   4.789 -0.9715 -0.9662 -2.5245
  233MOL0     H32138   6.478  10.114   6.011 -0.7082  0.8733 -0.4129
  233MOL0     H32139   6.249  10.172   6.024 -0.2603 -0.1171  0.8231
  233MOL0     H32140   5.798  10.011   5.839  0.2147 -0.3627 -0.7131
  233MOL0     H32141   5.572  10.059   5.835 -1.6635  2.5779 -2.9511
  233MOL0     H32142   5.383  10.162   5.716  3.6149  1.0780 -0.6998
  233MOL0     H32143   5.362  10.146   5.889  3.0588  1.0949  1.5829
  233MOL0     H32144   5.226  10.357   5.701 -0.9484  1.9710  1.7994
  233MOL0     H32145   5.221  10.339   5.882 -1.1014  2.3156 -0.8812
  233MOL0     H32146   5.121  10.116   5.722 -0.0481 -1.0176  2.6424
  233MOL0     H32147   5.069  10.168   5.873 -2.7145  0.4021 -1.2962
  233MOL0     H32148   5.019  10.339   5.630 -0.6816 -3.0715 -1.7018
  233MOL0     H32149   4.932  10.366   5.790  1.8400 -0.6277  2.0425
  233MOL0     H32150   4.687  10.079   5.638 -0.4272 -0.6896  2.3128
  233MOL0     H32151   5.632  10.484   5.854 -1.8107 -1.2826 -0.1274
  233MOL0     H32152   5.949  10.520   5.813  0.3832 -1.4262 -0.1977
  233MOL0     H32153   5.845  10.544   5.966 -3.1898 -2.5042  0.5497
  233MOL0     H32154   5.985  10.448   5.970 -1.6565  3.0567  3.6836
  234MOL0     O32155   2.579   4.494   1.098 -0.1247 -0.4759  0.1572
  234MOL0     C32156   2.555   4.391   1.148 -0.3926 -0.0945  1.0540
  234MOL0     O32157   2.634   4.280   1.133  0.5692 -0.2008 -0.1729
  234MOL0     C32158   2.695   4.260   1.011  0.5403 -0.1789 -0.0183
  234MOL0     C32159   2.642   4.165   0.920 -0.1027 -0.8093 -0.3885
  234MOL0     C32160   2.691   4.153   0.792 -0.6788  0.0407  0.1850
  234MOL0     C32161   2.810   4.214   0.757  0.1751 -1.0382 -0.0905
  234MOL0     O32162   2.888   4.169   0.655 -0.5225  0.6334  0.1290
  234MOL0     C32163   2.833   4.071   0.568  0.3924  0.4558  1.2154
  234MOL0     C32164   2.929   4.059   0.445 -0.4878  0.8447  0.5591
  234MOL0     C32165   2.951   4.195   0.370 -0.0502 -0.3880 -0.2848
  234MOL0     C32166   3.102   4.224   0.346  0.3422  0.3418  0.4567
  234MOL0     C32167   3.127   4.369   0.305  0.2091 -1.1924  0.0847
  234MOL0     C32168   3.275   4.390   0.258  0.2306 -0.7371  0.1339
  234MOL0     C32169   3.377   4.359   0.355 -0.1019  0.5944 -0.1981
  234MOL0     C32170   3.505   4.413   0.298  0.8506 -0.1824  0.6300
  234MOL0     N32171   3.624   4.381   0.379  0.5558  0.0636  0.5006
  234MOL0     C32172   3.689   4.458   0.474  0.5251  0.3892  0.2937
  234MOL0     C32173   3.808   4.400   0.494 -1.1340 -0.5610 -0.6105
  234MOL0     C32174   3.907   4.440   0.601 -0.3777 -0.2999 -0.0587
  234MOL0     C32175   3.928   4.320   0.699 -0.7377 -0.1118  0.7428
  234MOL0     C32176   4.000   4.376   0.823  0.6155 -0.3390 -0.4412
  234MOL0     C32177   4.047   4.259   0.916 -0.5689  0.1507  0.3025
  234MOL0     O32178   4.180   4.221   0.875 -0.5266 -0.2200 -0.8094
  234MOL0     C32179   4.268   4.204   0.975  0.9296 -0.0015 -0.3011
  234MOL0     C32180   4.234   4.107   1.077  0.3172 -0.6430 -0.2702
  234MOL0     C32181   4.322   4.084   1.188  0.1319 -0.0579  0.1181
  234MOL0     C32182   4.270   3.991   1.292  0.0548 -0.0409  0.7619
  234MOL0     C32183   4.456   4.134   1.177  0.1407  0.1266 -0.4933
  234MOL0     C32184   4.560   4.110   1.278 -0.2762 -0.1336 -0.0836
  234MOL0     O32185   4.568   3.988   1.344 -0.6105 -0.0179  0.0962
  234MOL0     C32186   4.648   3.986   1.456  1.0279 -1.5863 -0.9415
  234MOL0     C32187   4.782   3.952   1.442 -0.2626 -0.3303  0.0821
  234MOL0     C32188   4.860   3.964   1.553 -0.0301  0.6236 -0.3649
  234MOL0     C32189   4.809   4.005   1.682  0.9190  0.3157 -0.5708
  234MOL0     O32190   4.881   4.012   1.797  0.4708 -0.1533  0.4021
  234MOL0     C32191   5.024   4.028   1.794 -0.2173  0.1862  0.1548
  234MOL0     C32192   5.089   4.046   1.930 -0.8048  0.2521 -0.3267
  234MOL0     C32193   5.077   3.920   2.020 -0.0057  0.4356  0.2798
  234MOL0     C32194   5.158   3.943   2.148 -0.0093  0.8253  0.2287
  234MOL0     C32195   5.139   3.847   2.251  0.4756  0.6104  0.3145
  234MOL0     C32196   5.006   3.882   2.333 -0.4549  0.2883  0.2096
  234MOL0     C32197   4.968   3.783   2.445  1.0536  0.9807  0.8498
  234MOL0     C32198   4.875   3.856   2.540 -0.5704 -0.3878  0.2486
  234MOL0    Cl32199   4.837   3.741   2.664 -0.2649 -0.0267 -0.2136
  234MOL0     C32200   4.674   4.024   1.691  0.4525 -0.7654 -1.3854
  234MOL0     C32201   4.592   4.018   1.581 -0.2069  0.0252  0.2978
  234MOL0     O32202   4.624   4.205   1.306  0.2226 -0.5399 -0.1222
  234MOL0     C32203   4.480   4.232   1.080  0.3721  0.1677 -0.3640
  234MOL0     C32204   4.388   4.270   0.985 -0.2359 -0.2353  0.4187
  234MOL0     N32205   3.810   4.290   0.411  0.0393  0.0525 -0.4023
  234MOL0     N32206   3.702   4.278   0.343  0.4827  0.5734 -0.4245
  234MOL0     C32207   2.862   4.310   0.840  0.1675  0.0725 -0.5249
  234MOL0     C32208   2.809   4.338   0.971 -0.5685 -0.0410  0.4173
  234MOL0     C32209   2.447   4.391   1.256  0.1525 -0.0410 -0.8669
  234MOL0     C32210   2.383   4.513   1.280 -0.0109  1.0096  0.3525
  234MOL0     C32211   2.282   4.520   1.373  0.7512  0.0899 -1.0356
  234MOL0     C32212   2.247   4.419   1.461  0.8226 -0.7935  0.2017
  234MOL0     O32213   2.146   4.432   1.560 -0.3695 -0.1239  1.0507
  234MOL0     C32214   2.036   4.353   1.513  0.4429  0.0373  0.3007
  234MOL0     C32215   1.906   4.360   1.594 -0.8903  0.4089  0.8702
  234MOL0     C32216   1.935   4.332   1.741  0.1543 -0.5717  0.1830
  234MOL0     C32217   1.850   4.404   1.843  0.4496 -0.2466  0.5166
  234MOL0     C32218   1.711   4.382   1.806  1.5682 -0.1761 -0.3828
  234MOL0     C32219   1.588   4.364   1.777 -0.0883  0.3437  0.2332
  234MOL0     C32220   2.308   4.295   1.433  0.6515  0.7430 -0.0927
  234MOL0     C32221   2.400   4.278   1.325 -0.1825 -0.1567 -0.9388
  234MOL0     C32222   2.458   4.139   1.308 -0.3572 -0.0250  0.2459
  234MOL0     H32223   2.562   4.108   0.966  0.0878  1.3817  3.0457
  234MOL0     H32224   2.645   4.078   0.730 -0.5106 -3.3209  3.7835
  234MOL0     H32225   2.737   4.106   0.530  2.2788  0.8139 -4.0825
  234MOL0     H32226   2.837   3.969   0.607  1.6972  0.0217  0.0183
  234MOL0     H32227   3.025   4.018   0.479 -0.5047 -1.4737 -1.8658
  234MOL0     H32228   2.903   3.980   0.374 -1.3214  0.2717  1.4750
  234MOL0     H32229   2.904   4.188   0.271 -1.4570 -1.7515  0.4157
  234MOL0     H32230   2.901   4.275   0.424 -1.8529 -1.2860 -0.5228
  234MOL0     H32231   3.155   4.202   0.439  1.2079  0.0331 -0.1053
  234MOL0     H32232   3.148   4.155   0.275  0.9728  0.9110  0.2992
  234MOL0     H32233   3.105   4.436   0.390  0.4637 -1.2967  0.2342
  234MOL0     H32234   3.067   4.391   0.216  2.1647  0.5655 -0.9055
  234MOL0     H32235   3.282   4.321   0.174 -0.1219 -0.2644 -0.2940
  234MOL0     H32236   3.285   4.490   0.213 -1.9879 -0.0287  1.0399
  234MOL0     H32237   3.376   4.257   0.394 -2.1696  0.2667 -0.9860
  234MOL0     H32238   3.348   4.420   0.441 -1.7868  0.4401 -0.6072
  234MOL0     H32239   3.521   4.370   0.199 -0.4962  1.6443 -0.4340
  234MOL0     H32240   3.482   4.520   0.298  0.2201 -0.2845  2.1624
  234MOL0     H32241   3.656   4.550   0.522  2.5698  2.0919 -1.3381
  234MOL0     H32242   3.867   4.525   0.658  1.2621 -0.0044  0.7106
  234MOL0     H32243   4.004   4.464   0.557  0.0402 -3.4217 -1.0528
  234MOL0     H32244   3.828   4.284   0.725 -0.1209 -1.0352  1.9752
  234MOL0     H32245   3.981   4.233   0.659 -0.8488  0.8149 -1.5279
  234MOL0     H32246   4.087   4.436   0.795 -0.2175  0.3545 -1.7034
  234MOL0     H32247   3.920   4.428   0.878 -0.6788 -2.3834 -0.2976
  234MOL0     H32248   4.050   4.298   1.018 -5.0055  0.0913  0.6265
  234MOL0     H32249   3.971   4.182   0.929 -1.7366  1.5749  2.5838
  234MOL0     H32250   4.135   4.062   1.076 -2.1395  3.9554  2.4344
  234MOL0     H32251   4.322   3.895   1.297  1.4565  0.7674  3.8442
  234MOL0     H32252   4.164   3.968   1.278  0.4490 -0.2326 -2.6177
  234MOL0     H32253   4.300   4.029   1.390  1.7694 -4.5313  2.2702
  234MOL0     H32254   4.822   3.924   1.345  3.6724 -2.0685  1.9600
  234MOL0     H32255   4.961   3.925   1.559 -0.0275  0.8471  1.8551
  234MOL0     H32256   5.071   3.941   1.749 -0.7481  0.2040 -0.4571
  234MOL0     H32257   5.057   4.110   1.729  1.7015 -1.4422 -1.0102
  234MOL0     H32258   5.196   4.066   1.922 -0.1111 -0.7928  4.0910
  234MOL0     H32259   5.039   4.131   1.977 -0.9655 -0.1413  0.2209
  234MOL0     H32260   5.111   3.826   1.975  0.8104  1.3490 -1.1028
  234MOL0     H32261   4.972   3.910   2.047  0.5590 -0.2910  2.4166
  234MOL0     H32262   5.143   4.039   2.198 -2.9984  0.5342  0.0244
  234MOL0     H32263   5.263   3.934   2.117 -0.4501 -1.1086 -0.9094
  234MOL0     H32264   5.122   3.752   2.200 -1.0966  2.9686 -4.0247
  234MOL0     H32265   5.228   3.838   2.314 -0.4058 -3.6140  1.2945
  234MOL0     H32266   4.920   3.891   2.266 -2.0643  1.4654  2.3089
  234MOL0     H32267   5.027   3.981   2.376 -0.8631  0.6658 -0.4271
  234MOL0     H32268   5.044   3.729   2.503 -1.2457  0.3113  3.4406
  234MOL0     H32269   4.912   3.703   2.398 -0.7206  1.2686  2.3434
  234MOL0     H32270   4.787   3.890   2.484  1.2973 -2.6118 -4.5642
  234MOL0     H32271   4.936   3.936   2.584 -0.1680 -0.8399  0.5099
  234MOL0     H32272   4.637   4.046   1.790  3.5689 -2.5443  0.3342
  234MOL0     H32273   4.484   4.023   1.591 -0.0672  1.1640  1.6321
  234MOL0     H32274   4.574   4.286   1.067  0.1970  0.5227 -0.1844
  234MOL0     H32275   4.411   4.346   0.910 -0.9051 -0.0761  0.3666
  234MOL0     H32276   2.963   4.331   0.806  0.3276 -1.8443 -1.3241
  234MOL0     H32277   2.855   4.406   1.041  0.7193 -0.0914 -0.3522
  234MOL0     H32278   2.415   4.597   1.220  1.0848 -0.5144 -1.2918
  234MOL0     H32279   2.232   4.613   1.397 -0.5242 -0.5991 -0.9830
  234MOL0     H32280   2.010   4.394   1.415  1.3557 -2.0307 -0.8710
  234MOL0     H32281   2.071   4.251   1.493  0.8317  0.2036  0.1280
  234MOL0     H32282   1.833   4.286   1.559 -1.4354  1.0005  0.7563
  234MOL0     H32283   1.861   4.459   1.589  1.8406  1.7232  0.7961
  234MOL0     H32284   1.916   4.226   1.758  0.0674 -0.3033  1.9163
  234MOL0     H32285   2.042   4.348   1.758  1.7752 -4.9112 -3.5722
  234MOL0     H32286   1.871   4.511   1.855  0.0765 -0.0663 -0.3601
  234MOL0     H32287   1.877   4.364   1.941  0.2432 -1.2476  0.1788
  234MOL0     H32288   1.482   4.349   1.769  0.0557  0.4356 -3.3500
  234MOL0     H32289   2.278   4.229   1.513  1.2730  1.2363  0.5648
  234MOL0     H32290   2.558   4.133   1.353 -0.8730  1.0404  1.6179
  234MOL0     H32291   2.399   4.061   1.357  2.8994 -4.1964 -1.8622
  234MOL0     H32292   2.456   4.122   1.200 -2.8405 -0.1222  0.2451
  235MOL0     O32293   2.081   1.095   6.654 -0.6768  0.4635 -0.8422
  235MOL0     C32294   2.061   1.097   6.531 -0.2864  0.0358 -0.1741
  235MOL0     O32295   2.153   1.099   6.433 -0.7133  0.8796  0.1194
  235MOL0     C32296   2.275   1.149   6.445  0.4274 -0.0288  0.5720
  235MOL0     C32297   2.364   1.133   6.345  0.1862 -0.8500  0.9764
  235MOL0     C32298   2.485   1.192   6.330  0.8347  0.2443 -0.0265
  235MOL0     C32299   2.510   1.299   6.409 -0.5225 -0.2161  1.2357
  235MOL0     O32300   2.630   1.367   6.383  0.5480 -0.2095  0.0867
  235MOL0     C32301   2.646   1.490   6.449  0.1150 -0.5573 -0.7612
  235MOL0     C32302   2.773   1.571   6.384 -0.3687  0.9199 -0.3397
  235MOL0     C32303   2.899   1.515   6.457  0.3860 -0.5496  0.2431
  235MOL0     C32304   3.016   1.605   6.428  0.7199  0.0163  0.0137
  235MOL0     C32305   3.155   1.556   6.485  0.5728 -0.4999 -0.4395
  235MOL0     C32306   3.209   1.433   6.416 -0.0436 -0.1216  0.3022
  235MOL0     C32307   3.348   1.393   6.469  0.4640 -0.7484 -0.3351
  235MOL0     C32308   3.458   1.480   6.400 -0.1835  0.2108  0.0137
  235MOL0     N32309   3.512   1.394   6.286  1.1370 -0.7591 -0.8675
  235MOL0     C32310   3.441   1.347   6.177  0.8390 -0.1065  0.6776
  235MOL0     C32311   3.526   1.281   6.094  0.5617  1.5078  0.9822
  235MOL0     C32312   3.492   1.181   5.983  0.4436 -0.1146  0.1695
  235MOL0     C32313   3.517   1.035   6.035 -0.5207  0.0203 -0.3727
  235MOL0     C32314   3.463   1.015   6.183 -0.5310 -1.3221  0.1370
  235MOL0     C32315   3.312   1.043   6.192  0.0024 -0.1448 -0.0726
  235MOL0     O32316   3.269   1.032   6.324  0.0025 -0.1390  0.4104
  235MOL0     C32317   3.139   0.989   6.333  0.0037 -0.2648 -0.1210
  235MOL0     C32318   3.123   0.876   6.412  0.3296  0.6482 -0.1877
  235MOL0     C32319   3.003   0.827   6.453  0.0735 -0.2194 -0.4760
  235MOL0     C32320   2.996   0.698   6.514 -0.8098  0.9777  0.4695
  235MOL0     C32321   2.888   0.902   6.414  0.1867  0.3084  0.0360
  235MOL0     C32322   2.751   0.862   6.448  0.8042 -0.1233 -0.1924
  235MOL0     O32323   2.721   0.764   6.549  0.1748 -0.1075  0.2346
  235MOL0     C32324   2.590   0.726   6.574 -0.4710  0.3250 -0.6812
  235MOL0     C32325   2.577   0.598   6.627 -0.6023 -0.7671  0.1666
  235MOL0     C32326   2.452   0.545   6.656 -0.8180 -0.0605 -0.0098
  235MOL0     C32327   2.333   0.619   6.641 -0.1433 -0.3679  0.1745
  235MOL0     O32328   2.202   0.565   6.664 -0.3690  0.0329 -0.0894
  235MOL0     C32329   2.157   0.497   6.779  0.0580  0.5048  0.3997
  235MOL0     C32330   2.067   0.593   6.870 -0.2140  0.8185 -0.2239
  235MOL0     C32331   2.137   0.696   6.964 -0.0876 -0.2496  0.0826
  235MOL0     C32332   2.065   0.834   6.958  0.3451  0.1504 -0.0591
  235MOL0     C32333   2.116   0.944   7.049 -0.1094 -0.3377 -0.5379
  235MOL0     C32334   2.025   1.061   7.033  0.4920  0.7756  0.1058
  235MOL0     C32335   2.040   1.172   7.143 -0.3486 -0.2626  0.2197
  235MOL0     C32336   1.901   1.244   7.147  0.0231 -0.3554  1.3038
  235MOL0    Cl32337   1.780   1.146   7.234 -0.1560  0.1230 -0.2904
  235MOL0     C32338   2.351   0.748   6.586 -0.0440 -0.3420 -0.4065
  235MOL0     C32339   2.479   0.801   6.561  0.1782  0.1938  0.1657
  235MOL0     O32340   2.667   0.909   6.372  0.7491 -0.7340  0.0792
  235MOL0     C32341   2.906   1.017   6.328 -0.2562  0.6344 -0.2765
  235MOL0     C32342   3.030   1.069   6.295  0.4012 -0.1376  0.1591
  235MOL0     N32343   3.650   1.302   6.149  0.3317 -0.0010 -0.0925
  235MOL0     N32344   3.637   1.370   6.258  0.0762  0.2813  0.1551
  235MOL0     C32345   2.416   1.340   6.500  0.3985 -0.2100  0.7826
  235MOL0     C32346   2.301   1.261   6.526 -0.0434  0.0704 -0.2859
  235MOL0     C32347   1.927   1.060   6.482  0.3059  0.3397  0.0642
  235MOL0     C32348   1.886   1.136   6.371 -0.1735 -0.3034 -0.1207
  235MOL0     C32349   1.761   1.127   6.317 -0.5739  0.6289  1.3141
  235MOL0     C32350   1.663   1.058   6.382 -0.3158 -0.5189 -0.5938
  235MOL0     O32351   1.540   1.059   6.322  0.5346  0.0353  0.3319
  235MOL0     C32352   1.429   0.990   6.369  0.5455  0.3816 -0.0049
  235MOL0     C32353   1.307   1.004   6.272  0.8899  0.7779  0.3946
  235MOL0     C32354   1.270   0.880   6.197 -0.2971  0.5436  0.4372
  235MOL0     C32355   1.165   0.893   6.090  0.9720  0.0542 -0.4209
  235MOL0     C32356   1.060   0.794   6.101  0.6329  0.1386  0.2353
  235MOL0     C32357   0.970   0.714   6.106 -0.7074 -0.0433  0.1566
  235MOL0     C32358   1.706   0.977   6.496 -0.0666  0.2918 -0.1767
  235MOL0     C32359   1.841   0.960   6.535  0.1290 -0.1478  0.0489
  235MOL0     C32360   1.876   0.863   6.638 -0.1556 -0.1812  0.1883
  235MOL0     H32361   2.349   1.047   6.280 -0.8481 -0.1202  0.2216
  235MOL0     H32362   2.557   1.149   6.261 -0.3080 -0.3707 -0.8590
  235MOL0     H32363   2.655   1.459   6.554 -1.5157 -2.2120 -1.0450
  235MOL0     H32364   2.557   1.547   6.423 -0.9397 -2.4265 -1.4212
  235MOL0     H32365   2.779   1.542   6.279 -2.3465 -3.1433  0.4419
  235MOL0     H32366   2.758   1.679   6.387 -1.5621  0.8255 -1.7891
  235MOL0     H32367   2.882   1.508   6.565 -0.9175 -2.6795 -0.0247
  235MOL0     H32368   2.917   1.420   6.406 -1.3854  0.4546 -2.4615
  235MOL0     H32369   3.026   1.598   6.319 -2.4822 -1.1850 -0.3098
  235MOL0     H32370   2.985   1.708   6.446 -1.2622 -0.8402  1.8592
  235MOL0     H32371   3.161   1.550   6.594  0.2712 -1.0134 -0.4477
  235MOL0     H32372   3.220   1.640   6.459  1.0790 -0.3538  1.1727
  235MOL0     H32373   3.138   1.352   6.436  0.1054 -0.4841 -0.5701
  235MOL0     H32374   3.214   1.455   6.309 -0.4756 -1.5932 -0.0416
  235MOL0     H32375   3.372   1.287   6.459 -1.7415 -1.3380  0.1803
  235MOL0     H32376   3.350   1.422   6.575 -1.5133  1.3875 -0.8132
  235MOL0     H32377   3.422   1.576   6.362  1.1419  1.2215  1.1790
  235MOL0     H32378   3.540   1.505   6.468  0.0384 -1.1310  0.2707
  235MOL0     H32379   3.334   1.358   6.165  0.8231  0.3451  1.1784
  235MOL0     H32380   3.569   1.196   5.907  0.7535 -0.7421  0.3455
  235MOL0     H32381   3.393   1.189   5.939  1.5756  1.8391 -2.2523
  235MOL0     H32382   3.470   0.964   5.966 -0.8413 -1.7423  1.5715
  235MOL0     H32383   3.623   1.011   6.037 -0.0479  1.9051 -0.0541
  235MOL0     H32384   3.491   0.913   6.210 -0.1674 -1.6717 -1.4782
  235MOL0     H32385   3.510   1.079   6.258 -1.4514 -0.0132 -0.3562
  235MOL0     H32386   3.293   1.142   6.148 -1.4637 -0.8116 -1.0391
  235MOL0     H32387   3.255   0.972   6.130  1.9490 -1.5392 -0.3649
  235MOL0     H32388   3.205   0.807   6.430 -1.2094 -0.7353  2.1639
  235MOL0     H32389   3.092   0.645   6.510 -2.6188 -2.8696  2.3536
  235MOL0     H32390   2.911   0.642   6.475 -2.0209  3.7959 -1.2625
  235MOL0     H32391   2.986   0.709   6.623  0.1192 -2.8023  1.0994
  235MOL0     H32392   2.659   0.529   6.647 -0.1189 -0.2797 -0.1039
  235MOL0     H32393   2.442   0.443   6.693  1.2599 -0.8566 -1.4627
  235MOL0     H32394   2.091   0.421   6.735 -0.7918  1.4795 -0.0391
  235MOL0     H32395   2.237   0.441   6.829 -0.7526 -0.9620  0.1316
  235MOL0     H32396   1.987   0.624   6.803 -1.3999 -1.3562  0.0961
  235MOL0     H32397   2.017   0.536   6.948 -1.8358 -1.6821 -2.8867
  235MOL0     H32398   2.238   0.709   6.924 -0.3583  0.7571 -0.3216
  235MOL0     H32399   2.149   0.667   7.068 -1.1393  2.2584  0.9918
  235MOL0     H32400   1.960   0.814   6.981  0.3138  2.3499  2.0610
  235MOL0     H32401   2.058   0.872   6.855  0.3156 -0.8908 -0.4551
  235MOL0     H32402   2.089   0.918   7.152  2.0158  2.8226  0.9769
  235MOL0     H32403   2.221   0.970   7.035 -0.2676  0.4051 -0.3489
  235MOL0     H32404   1.920   1.030   7.030  1.1541 -1.6098 -0.1142
  235MOL0     H32405   2.046   1.102   6.933 -1.8462  1.4001 -0.1831
  235MOL0     H32406   2.111   1.250   7.112  0.6317 -1.1089  0.3027
  235MOL0     H32407   2.078   1.131   7.236 -0.6651  2.0916  1.4829
  235MOL0     H32408   1.874   1.267   7.043 -1.0350 -0.3873  1.5594
  235MOL0     H32409   1.902   1.340   7.199 -1.3706 -0.4603  1.5471
  235MOL0     H32410   2.251   0.791   6.577 -1.0976 -2.1105  1.7651
  235MOL0     H32411   2.475   0.908   6.543 -0.4897  0.4121  1.4963
  235MOL0     H32412   2.824   1.070   6.280 -0.9590  1.3755  1.6396
  235MOL0     H32413   3.040   1.166   6.248  0.6461 -0.1000  0.2876
  235MOL0     H32414   2.417   1.437   6.548 -0.0754 -1.0055  2.4605
  235MOL0     H32415   2.217   1.289   6.589 -1.7816 -3.2983 -0.8781
  235MOL0     H32416   1.959   1.197   6.319 -1.7424 -0.5781 -2.8889
  235MOL0     H32417   1.743   1.185   6.227  3.2892 -0.0017 -0.0860
  235MOL0     H32418   1.444   0.882   6.375 -3.0668 -0.3296 -1.1866
  235MOL0     H32419   1.404   1.028   6.469 -0.2665  0.3090 -0.1718
  235MOL0     H32420   1.330   1.087   6.205  0.9540 -0.4824 -1.2060
  235MOL0     H32421   1.220   1.014   6.337 -1.1401 -1.8087 -1.6817
  235MOL0     H32422   1.364   0.840   6.158  1.5486  2.5549  2.4679
  235MOL0     H32423   1.236   0.811   6.275 -0.3147 -1.0748 -0.9355
  235MOL0     H32424   1.213   0.874   5.994 -2.2172 -2.0846 -1.7474
  235MOL0     H32425   1.114   0.990   6.087  2.0756  0.6367 -0.9920
  235MOL0     H32426   0.886   0.647   6.110  0.1576 -1.1128  1.2007
  235MOL0     H32427   1.629   0.918   6.545 -0.7603  0.3726 -1.1379
  235MOL0     H32428   1.975   0.823   6.612 -0.2324  0.6198 -1.5345
  235MOL0     H32429   1.870   0.916   6.734  1.0016  1.0644 -0.3767
  235MOL0     H32430   1.809   0.778   6.650  0.5529 -0.5268  2.0676
  236MOL0     O32431  11.076   4.232  10.292 -0.3105  0.4803 -0.1910
  236MOL0     C32432  11.064   4.325  10.214 -0.2852 -0.2595 -0.0270
  236MOL0     O32433  11.163   4.396  10.156 -1.0943  0.4116 -0.1323
  236MOL0     C32434  11.288   4.378  10.213 -0.2922  0.0199 -0.6307
  236MOL0     C32435  11.382   4.282  10.170 -0.2040 -0.8229 -0.0489
  236MOL0     C32436  11.512   4.279  10.225  1.3118  0.0309 -0.0185
  236MOL0     C32437  11.551   4.368  10.321 -0.6038  1.1753  0.3795
  236MOL0     O32438  11.679   4.345  10.372  0.1634  0.5723  0.4914
  236MOL0     C32439  11.749   4.476  10.396 -0.4111  0.6016  0.8911
  236MOL0     C32440  11.899   4.471  10.359 -0.5498 -0.0711  0.3162
  236MOL0     C32441  11.925   4.455  10.204 -0.6647 -0.5474 -0.0363
  236MOL0     C32442  12.070   4.463  10.160  0.4387 -0.4820 -0.0890
  236MOL0     C32443  12.162   4.388  10.257  1.2533 -0.2618  0.2690
  236MOL0     C32444  12.308   4.375  10.230  0.4444 -0.3439 -0.6212
  236MOL0     C32445  12.368   4.296  10.338 -0.5153 -0.2552  0.3975
  236MOL0     C32446  12.507   4.240  10.309  0.5581 -0.5541  0.2373
  236MOL0     N32447  12.578   4.181  10.419  0.1404  0.1462  0.8326
  236MOL0     C32448  12.685   4.230  10.495  0.0433 -0.0212 -0.0755
  236MOL0     C32449  12.708   4.123  10.586  0.2241 -0.6217 -1.3187
  236MOL0     C32450  12.827   4.129  10.682  1.0635 -0.5647  0.6711
  236MOL0     C32451  12.786   4.183  10.820  0.1472 -0.0695  1.4688
  236MOL0     C32452  12.888   4.275  10.895  0.8678  0.0338  0.1367
  236MOL0     C32453  13.023   4.208  10.882 -0.0119  0.2053 -0.2680
  236MOL0     O32454  13.126   4.286  10.949 -0.1945 -0.1639 -0.8070
  236MOL0     C32455  13.134   4.265  11.088  0.0013 -0.7075 -0.1512
  236MOL0     C32456  13.103   4.372  11.178 -0.2449  0.4972  0.0496
  236MOL0     C32457  13.108   4.351  11.316  0.3816 -0.0580 -0.6597
  236MOL0     C32458  13.056   4.469  11.398  0.0164  0.1838  0.7038
  236MOL0     C32459  13.155   4.229  11.371  0.3500 -0.0919 -0.0425
  236MOL0     C32460  13.175   4.215  11.520  0.6329 -0.8973 -0.1795
  236MOL0     O32461  13.234   4.320  11.586  0.1098 -0.4130 -0.0809
  236MOL0     C32462  13.243   4.312  11.720  0.1625 -0.2363 -0.0350
  236MOL0     C32463  13.130   4.337  11.801 -0.7312  0.6595 -0.0477
  236MOL0     C32464  13.149   4.343  11.934  0.0360  0.1620 -1.0859
  236MOL0     C32465  13.276   4.313  11.991 -0.6109  0.2000 -0.1156
  236MOL0     O32466  13.308   4.321  12.129  0.5106 -0.3227  0.0253
  236MOL0     C32467  13.229   4.416  12.217  0.4545  0.1717 -0.3096
  236MOL0     C32468  13.117   4.336  12.282  0.9906  0.0010  0.2859
  236MOL0     C32469  13.164   4.235  12.388 -0.0852 -0.0932  0.1984
  236MOL0     C32470  13.260   4.295  12.490  0.8446  0.5236  0.0239
  236MOL0     C32471  13.315   4.198  12.598 -0.4632 -0.9666  0.2367
  236MOL0     C32472  13.211   4.163  12.696  0.1790 -1.1602 -0.2405
  236MOL0     C32473  13.269   4.064  12.798  0.8132 -0.7187 -0.0412
  236MOL0     C32474  13.169   4.016  12.897  0.5365  0.1285 -0.3923
  236MOL0    Cl32475  13.014   3.970  12.834  0.0586 -0.1879  0.2139
  236MOL0     C32476  13.379   4.267  11.906  0.3026 -0.9405 -0.7293
  236MOL0     C32477  13.361   4.265  11.766  0.6331  0.8714 -1.3080
  236MOL0     O32478  13.153   4.107  11.571 -0.5138  0.0688 -0.2917
  236MOL0     C32479  13.197   4.123  11.273 -0.3120  1.0591 -0.8022
  236MOL0     C32480  13.183   4.143  11.136 -0.2409 -0.3570 -0.3999
  236MOL0     N32481  12.621   4.026  10.572  0.2654  0.3474  0.7309
  236MOL0     N32482  12.540   4.058  10.470  0.5044 -0.0846  0.3468
  236MOL0     C32483  11.460   4.459  10.366  0.7198  0.5719 -0.8394
  236MOL0     C32484  11.337   4.474  10.304  1.0891  0.0248  0.2379
  236MOL0     C32485  10.929   4.363  10.157  0.6785  0.4779  1.1300
  236MOL0     C32486  10.820   4.278  10.194  0.7060 -0.8590  0.2729
  236MOL0     C32487  10.694   4.297  10.132 -0.1213 -0.0596 -0.5692
  236MOL0     C32488  10.673   4.399  10.038  0.7318 -0.4174  0.3008
  236MOL0     O32489  10.550   4.430   9.982  0.3286  0.1967 -0.3409
  236MOL0     C32490  10.442   4.331  10.000  0.1408 -0.0336 -0.8529
  236MOL0     C32491  10.364   4.372  10.125  0.6977  0.2974  0.1706
  236MOL0     C32492  10.256   4.258  10.144 -0.6390 -0.0645 -0.4959
  236MOL0     C32493  10.177   4.301  10.261 -0.0463 -0.0748 -1.1855
  236MOL0     C32494  10.053   4.232  10.270 -0.5095  0.7262 -0.1719
  236MOL0     C32495   9.943   4.180  10.275 -0.5044 -1.1490 -0.9876
  236MOL0     C32496  10.776   4.483   9.999 -0.0276  0.7616  0.1033
  236MOL0     C32497  10.900   4.465  10.052 -0.2707  1.0893  0.0784
  236MOL0     C32498  11.010   4.555  10.009 -0.1985  0.1441 -0.3903
  236MOL0     H32499  11.367   4.211  10.090 -0.9659 -0.3982 -0.2884
  236MOL0     H32500  11.584   4.199  10.208  3.0987  0.9372  2.6840
  236MOL0     H32501  11.745   4.509  10.500  0.2389  1.2580  0.7185
  236MOL0     H32502  11.701   4.556  10.340 -0.8266  0.7664  1.4840
  236MOL0     H32503  11.951   4.556  10.404  4.1528 -1.5612 -1.6332
  236MOL0     H32504  11.935   4.382  10.412 -1.6797  0.2903  1.7577
  236MOL0     H32505  11.883   4.364  10.159 -0.2992 -2.0130  2.3996
  236MOL0     H32506  11.867   4.532  10.153  1.1584 -2.1033 -5.0045
  236MOL0     H32507  12.091   4.418  10.063  0.2785 -0.0455 -0.3301
  236MOL0     H32508  12.105   4.567  10.152  1.9323 -1.0710 -1.7685
  236MOL0     H32509  12.130   4.283  10.260  0.5726 -0.0252  2.3212
  236MOL0     H32510  12.152   4.440  10.352  0.8004 -0.1486  0.1599
  236MOL0     H32511  12.324   4.312  10.142 -0.1679 -3.3451  1.2659
  236MOL0     H32512  12.351   4.475  10.220 -0.1593 -0.1689 -1.6101
  236MOL0     H32513  12.299   4.214  10.356 -2.2746  1.4715  2.1192
  236MOL0     H32514  12.377   4.361  10.426 -0.7172 -0.6648  0.7239
  236MOL0     H32515  12.490   4.164  10.233 -4.0133  1.9504 -1.6431
  236MOL0     H32516  12.573   4.316  10.267  0.0746  1.0267  2.1596
  236MOL0     H32517  12.745   4.320  10.490  0.1840 -0.1355 -0.5072
  236MOL0     H32518  12.901   4.195  10.635  0.8542 -0.9141 -0.1784
  236MOL0     H32519  12.881   4.035  10.685  2.2338  0.0319 -0.5125
  236MOL0     H32520  12.689   4.232  10.815  1.6679  3.2900  1.9686
  236MOL0     H32521  12.767   4.095  10.882  1.2980 -0.8193  0.7880
  236MOL0     H32522  12.902   4.369  10.839  0.1149 -0.3723 -0.7725
  236MOL0     H32523  12.854   4.286  10.998 -1.3369  0.3615 -0.5664
  236MOL0     H32524  13.031   4.109  10.927  1.7642 -0.7920 -2.5957
  236MOL0     H32525  13.053   4.195  10.777 -0.5982 -2.0160 -0.2086
  236MOL0     H32526  13.078   4.464  11.126  0.2747 -0.5380 -2.1266
  236MOL0     H32527  13.016   4.538  11.323 -4.4207 -1.5512  1.1400
  236MOL0     H32528  13.135   4.512  11.460 -0.2589  0.2748  0.9893
  236MOL0     H32529  12.982   4.431  11.469  1.0541  0.6745  2.0762
  236MOL0     H32530  13.036   4.357  11.751  1.1933 -0.3786 -4.5894
  236MOL0     H32531  13.060   4.367  11.991  0.2123 -0.7116 -0.4161
  236MOL0     H32532  13.288   4.474  12.290 -0.7492  1.5445 -0.3960
  236MOL0     H32533  13.178   4.493  12.159 -1.9260 -0.3235  0.9964
  236MOL0     H32534  13.063   4.408  12.343  2.5595  3.0229 -1.6343
  236MOL0     H32535  13.062   4.294  12.196  0.8028  2.4061 -0.8572
  236MOL0     H32536  13.209   4.150  12.335 -2.8967 -2.0586  0.7153
  236MOL0     H32537  13.078   4.196  12.444 -0.9497  0.6266 -0.5794
  236MOL0     H32538  13.204   4.369  12.549  1.7506 -0.3079  2.0153
  236MOL0     H32539  13.347   4.341  12.441  0.9511 -0.9305 -1.2304
  236MOL0     H32540  13.357   4.114  12.542  2.5865 -0.1263  1.0753
  236MOL0     H32541  13.401   4.241  12.651 -2.1387 -0.7379  2.9881
  236MOL0     H32542  13.124   4.115  12.649 -2.2470  0.1416  2.5728
  236MOL0     H32543  13.182   4.244  12.763 -0.8782 -1.1920 -0.6242
  236MOL0     H32544  13.358   4.102  12.848 -0.7098  0.2405  2.0905
  236MOL0     H32545  13.304   3.972  12.748 -0.1471 -1.9603  1.4727
  236MOL0     H32546  13.155   4.097  12.970 -2.4509 -1.6131  1.1370
  236MOL0     H32547  13.206   3.923  12.941  2.2818  1.5570  1.3404
  236MOL0     H32548  13.469   4.237  11.958  1.3665  4.6131  1.3719
  236MOL0     H32549  13.445   4.244  11.701  2.5813  0.6802  1.0989
  236MOL0     H32550  13.225   4.023  11.304 -3.0801  0.2748 -0.6267
  236MOL0     H32551  13.209   4.060  11.072 -0.8628 -2.0483  1.4463
  236MOL0     H32552  11.477   4.514  10.459  0.1215  1.8423 -1.4591
  236MOL0     H32553  11.276   4.555  10.342 -0.6386 -1.5678  1.0292
  236MOL0     H32554  10.814   4.207  10.276 -2.1895  1.6443  2.5133
  236MOL0     H32555  10.614   4.232  10.165  0.7191  0.5480  3.1141
  236MOL0     H32556  10.378   4.335   9.911  1.8187  1.6276 -2.0673
  236MOL0     H32557  10.481   4.230  10.009 -0.1905 -0.1398 -0.5711
  236MOL0     H32558  10.309   4.465  10.109  0.0114 -0.3404 -1.4172
  236MOL0     H32559  10.430   4.376  10.212 -0.2080  3.5175  0.8194
  236MOL0     H32560  10.194   4.242  10.056  1.1715 -1.2524 -1.6147
  236MOL0     H32561  10.307   4.163  10.166  4.1006  1.8928 -1.7489
  236MOL0     H32562  10.148   4.407  10.251 -2.6535 -0.6535 -0.5161
  236MOL0     H32563  10.222   4.292  10.360 -0.3464  0.0988 -1.0327
  236MOL0     H32564   9.845   4.135  10.279  0.1661 -2.9059  4.8610
  236MOL0     H32565  10.753   4.574   9.944  0.9720  1.0514  0.1489
  236MOL0     H32566  11.095   4.497   9.973  2.1718  2.4932  1.0565
  236MOL0     H32567  10.973   4.614   9.925 -1.3813 -3.5491 -2.7408
  236MOL0     H32568  11.043   4.614  10.095  3.4590 -2.7706  0.4932
  237MOL0     O32569   1.800   6.759   8.812 -0.3817 -0.3455  0.1819
  237MOL0     C32570   1.681   6.782   8.789  0.4273 -0.0218 -0.2115
  237MOL0     O32571   1.624   6.797   8.664 -0.1506 -0.1065 -0.0121
  237MOL0     C32572   1.711   6.802   8.557  0.5630 -0.4844  0.5117
  237MOL0     C32573   1.818   6.709   8.545 -0.8827  0.5872 -0.7790
  237MOL0     C32574   1.915   6.730   8.450 -0.1903 -0.2189  0.3913
  237MOL0     C32575   1.899   6.838   8.349 -0.4846 -0.1656 -0.6601
  237MOL0     O32576   1.990   6.860   8.249 -0.0824 -0.0469  0.0931
  237MOL0     C32577   2.117   6.789   8.250  0.9972  0.5274  0.0819
  237MOL0     C32578   2.196   6.808   8.130  0.5976  0.9586 -0.6591
  237MOL0     C32579   2.312   6.715   8.123 -1.2487  0.0061  0.5154
  237MOL0     C32580   2.429   6.772   8.204  0.0862 -0.0661  0.1822
  237MOL0     C32581   2.555   6.703   8.144 -0.9369 -0.2406  0.2286
  237MOL0     C32582   2.676   6.764   8.216 -0.2643 -0.9677  0.2145
  237MOL0     C32583   2.813   6.709   8.175 -0.0647 -0.0179  0.6028
  237MOL0     C32584   2.822   6.556   8.200 -1.5153 -0.5318 -0.0768
  237MOL0     N32585   2.958   6.513   8.224 -0.7073  0.5545 -0.0579
  237MOL0     C32586   3.048   6.457   8.131 -0.3724 -0.3799  0.3257
  237MOL0     C32587   3.160   6.431   8.201 -0.9690  0.2763 -0.0584
  237MOL0     C32588   3.281   6.366   8.133  0.7837 -0.4447  0.3810
  237MOL0     C32589   3.274   6.213   8.138 -0.5755  0.6328  0.3076
  237MOL0     C32590   3.414   6.168   8.092 -0.1941  1.0987 -0.2792
  237MOL0     C32591   3.436   6.013   8.113  0.0004 -0.0148 -0.3060
  237MOL0     O32592   3.385   5.944   8.001  0.1548 -0.6588 -0.6591
  237MOL0     C32593   3.449   5.918   7.882  0.6330 -0.1313  0.0705
  237MOL0     C32594   3.558   5.997   7.834  0.6168 -0.0751 -0.5251
  237MOL0     C32595   3.617   5.973   7.714 -0.3052  0.6216 -0.6035
  237MOL0     C32596   3.734   6.062   7.673  0.2305  0.3646 -0.0542
  237MOL0     C32597   3.567   5.863   7.639  0.3089  0.7762  0.3671
  237MOL0     C32598   3.611   5.835   7.504 -0.0211 -0.0048 -0.4207
  237MOL0     O32599   3.598   5.706   7.456  0.0720  0.6463  0.0753
  237MOL0     C32600   3.624   5.690   7.327  0.3694  0.1550  0.2405
  237MOL0     C32601   3.750   5.643   7.284  0.1904 -0.2313 -0.7385
  237MOL0     C32602   3.774   5.612   7.153  0.0375  0.2248  0.4769
  237MOL0     C32603   3.676   5.619   7.056  0.3741  0.5054  0.4310
  237MOL0     O32604   3.721   5.563   6.939  0.4996 -0.0240 -0.1857
  237MOL0     C32605   3.634   5.564   6.822 -0.2967  1.0594 -0.1825
  237MOL0     C32606   3.545   5.443   6.823  0.1470  0.4437 -0.5343
  237MOL0     C32607   3.442   5.449   6.706 -0.1935 -0.8544 -0.9529
  237MOL0     C32608   3.306   5.450   6.769 -0.3380  0.1892 -0.2404
  237MOL0     C32609   3.249   5.585   6.739 -0.9096 -0.1356 -0.9194
  237MOL0     C32610   3.106   5.582   6.789  1.3047  0.3671  0.7958
  237MOL0     C32611   3.006   5.603   6.671  0.1388 -0.2145  0.2049
  237MOL0     C32612   2.885   5.679   6.724 -0.4461 -0.9557 -0.2843
  237MOL0    Cl32613   2.915   5.838   6.813 -0.4681 -0.1613 -0.2830
  237MOL0     C32614   3.548   5.671   7.097 -0.2991 -0.4599 -0.0014
  237MOL0     C32615   3.519   5.704   7.234 -0.2482  0.3504  0.2165
  237MOL0     O32616   3.636   5.935   7.431  0.2072 -0.1732 -0.8565
  237MOL0     C32617   3.461   5.783   7.692  0.1401 -0.2813  0.2098
  237MOL0     C32618   3.406   5.811   7.811  0.1182  0.2892 -0.0850
  237MOL0     N32619   3.146   6.483   8.328 -0.0882  0.1937 -0.3777
  237MOL0     N32620   3.024   6.522   8.346 -0.2496 -0.7927  0.2637
  237MOL0     C32621   1.787   6.918   8.364  0.3328  0.0173  0.8962
  237MOL0     C32622   1.697   6.904   8.463  1.7014 -0.0946 -0.2129
  237MOL0     C32623   1.587   6.787   8.911  0.7551 -0.0489  0.1510
  237MOL0     C32624   1.467   6.859   8.895  0.1388 -0.5453  0.9301
  237MOL0     C32625   1.377   6.875   9.002  0.3565 -0.9807  0.1753
  237MOL0     C32626   1.403   6.818   9.126 -0.4362  0.0348 -0.2346
  237MOL0     O32627   1.328   6.830   9.247 -0.2064 -0.4523  0.0115
  237MOL0     C32628   1.244   6.944   9.260  1.0576  0.3204 -0.2518
  237MOL0     C32629   1.204   6.959   9.411 -0.2340  0.2745  0.0963
  237MOL0     C32630   1.112   7.075   9.429  0.3619  0.2396  0.1849
  237MOL0     C32631   1.055   7.061   9.574  0.1742 -0.5208 -0.7905
  237MOL0     C32632   0.968   7.174   9.617  0.3522 -0.7169  0.3982
  237MOL0     C32633   0.889   7.255   9.654  0.2118 -1.1703 -0.2153
  237MOL0     C32634   1.522   6.741   9.135 -0.3239  0.2826 -0.8457
  237MOL0     C32635   1.608   6.710   9.030  0.5721  0.2554  0.6041
  237MOL0     C32636   1.711   6.595   9.050  0.0215 -0.0404  0.4150
  237MOL0     H32637   1.829   6.628   8.617 -1.1303  1.6431  0.4970
  237MOL0     H32638   2.003   6.667   8.449 -0.6111 -0.8307 -1.1601
  237MOL0     H32639   2.097   6.683   8.233  0.9912  0.4810  0.3684
  237MOL0     H32640   2.173   6.808   8.342  1.8651 -1.5471  0.0206
  237MOL0     H32641   2.135   6.798   8.040 -0.2431 -0.8514  0.0557
  237MOL0     H32642   2.221   6.914   8.140 -0.1693  0.9807  1.7897
  237MOL0     H32643   2.304   6.609   8.148  0.8208  0.1384  2.1019
  237MOL0     H32644   2.328   6.726   8.016 -2.8993 -1.8419  0.0413
  237MOL0     H32645   2.436   6.881   8.205  1.4231 -0.1378  0.3589
  237MOL0     H32646   2.419   6.740   8.308 -3.5496 -1.1958 -0.3488
  237MOL0     H32647   2.568   6.713   8.036  0.0157  1.6650  0.4849
  237MOL0     H32648   2.538   6.599   8.172 -1.4693 -0.5755 -1.2691
  237MOL0     H32649   2.674   6.871   8.193  1.9945 -1.0753 -0.7361
  237MOL0     H32650   2.669   6.755   8.325 -2.5192  1.4816  0.3713
  237MOL0     H32651   2.887   6.751   8.244 -2.1479 -0.0582  3.0009
  237MOL0     H32652   2.841   6.736   8.073  0.3036 -0.3629  0.6065
  237MOL0     H32653   2.764   6.532   8.290 -2.6347 -0.6935 -0.8347
  237MOL0     H32654   2.775   6.496   8.122  2.0557 -2.8052 -0.7040
  237MOL0     H32655   3.021   6.440   8.028 -1.1543  0.2823  0.4100
  237MOL0     H32656   3.365   6.408   8.190 -0.8772  2.2563  0.9874
  237MOL0     H32657   3.298   6.407   8.033  4.1748  3.1429  2.1352
  237MOL0     H32658   3.250   6.185   8.241 -1.4771 -0.6714 -0.2310
  237MOL0     H32659   3.192   6.169   8.081 -0.3324 -4.0815  3.0404
  237MOL0     H32660   3.429   6.194   7.987  3.1995 -2.0796 -0.7742
  237MOL0     H32661   3.481   6.222   8.159 -1.2519 -3.4258  5.1437
  237MOL0     H32662   3.543   5.996   8.128  0.0095 -1.8816 -2.0399
  237MOL0     H32663   3.384   5.974   8.200  0.4290 -1.9558 -0.8829
  237MOL0     H32664   3.594   6.078   7.896  1.2763 -3.1469  3.5672
  237MOL0     H32665   3.750   6.152   7.732 -3.7379  1.2266 -0.0569
  237MOL0     H32666   3.711   6.105   7.575 -0.5377  2.2836  0.9208
  237MOL0     H32667   3.818   5.997   7.646 -1.7199 -0.8844 -3.8725
  237MOL0     H32668   3.827   5.628   7.359 -2.2801  3.5842  3.0836
  237MOL0     H32669   3.866   5.574   7.109 -0.2860 -1.2728  1.0208
  237MOL0     H32670   3.576   5.654   6.798  2.0195  1.7366 -4.1664
  237MOL0     H32671   3.712   5.565   6.745 -0.0006  1.3051  0.1184
  237MOL0     H32672   3.608   5.353   6.811 -0.8152 -0.3248  0.0198
  237MOL0     H32673   3.506   5.431   6.925 -0.7489 -0.5961 -0.9742
  237MOL0     H32674   3.463   5.359   6.647  1.9553 -2.9614  2.7156
  237MOL0     H32675   3.455   5.532   6.636 -1.0992 -2.1900 -2.7897
  237MOL0     H32676   3.302   5.434   6.877  2.6573 -2.1504 -0.3150
  237MOL0     H32677   3.251   5.373   6.713 -2.0781  1.3329 -0.1692
  237MOL0     H32678   3.307   5.664   6.787 -0.7583 -1.0024  0.3886
  237MOL0     H32679   3.260   5.593   6.630  0.6345 -0.3488 -0.8049
  237MOL0     H32680   3.089   5.654   6.870 -0.9233 -2.5100  3.0884
  237MOL0     H32681   3.085   5.492   6.847 -0.5892  2.0293  2.8962
  237MOL0     H32682   2.973   5.505   6.636 -1.8652  0.5911 -0.2712
  237MOL0     H32683   3.045   5.658   6.584 -0.3414 -0.1935  0.0027
  237MOL0     H32684   2.829   5.612   6.790 -2.5133  1.2564  0.3931
  237MOL0     H32685   2.825   5.687   6.633  0.6920 -2.7685 -1.2545
  237MOL0     H32686   3.476   5.707   7.024  2.1897 -0.5324 -2.6832
  237MOL0     H32687   3.426   5.741   7.275  0.0606  0.6867  0.6290
  237MOL0     H32688   3.424   5.695   7.640  0.3685 -1.4655  1.9883
  237MOL0     H32689   3.323   5.755   7.851 -0.1133 -0.7836 -1.9611
  237MOL0     H32690   1.774   7.002   8.297  0.3800 -0.0693  0.7777
  237MOL0     H32691   1.613   6.973   8.471  2.1217  0.5074 -0.9846
  237MOL0     H32692   1.445   6.920   8.808  2.7633 -0.0194  0.5724
  237MOL0     H32693   1.276   6.910   8.982  0.2988 -1.6889 -0.9026
  237MOL0     H32694   1.309   7.027   9.231  1.5705 -0.1719 -0.5120
  237MOL0     H32695   1.160   6.925   9.193  2.3673  0.1726 -1.9187
  237MOL0     H32696   1.291   6.974   9.476 -1.5696 -1.7989  2.5737
  237MOL0     H32697   1.147   6.870   9.440 -1.5420  0.5270 -1.5355
  237MOL0     H32698   1.162   7.171   9.419 -2.3463  1.5069 -3.5435
  237MOL0     H32699   1.034   7.075   9.353  0.4034  2.8986  0.0579
  237MOL0     H32700   1.123   7.043   9.658  2.9592 -3.5190 -3.3983
  237MOL0     H32701   0.998   6.968   9.570 -1.2741  0.3705 -1.9465
  237MOL0     H32702   0.823   7.328   9.697 -0.1929 -2.3765  1.3128
  237MOL0     H32703   1.545   6.681   9.222  1.6377 -1.3932 -2.3997
  237MOL0     H32704   1.657   6.526   9.115 -1.4514 -1.0855 -1.7952
  237MOL0     H32705   1.730   6.541   8.956  0.3004  1.2922 -0.3277
  237MOL0     H32706   1.808   6.628   9.088  1.1253  0.4848 -2.5298
  238MOL0     O32707   6.804   6.558   2.049 -0.1439 -0.1143  0.0216
  238MOL0     C32708   6.888   6.492   1.988 -0.5607 -0.4766  0.4256
  238MOL0     O32709   6.861   6.391   1.899  0.0343  0.4682  0.1943
  238MOL0     C32710   6.725   6.361   1.873 -0.7975 -0.1098  1.0230
  238MOL0     C32711   6.696   6.224   1.865 -0.9622  0.1409  0.0283
  238MOL0     C32712   6.566   6.182   1.835 -0.1286 -0.0837 -0.7314
  238MOL0     C32713   6.460   6.271   1.803 -0.3235  0.6691  0.3007
  238MOL0     O32714   6.331   6.230   1.774 -0.0758 -1.0981 -0.5595
  238MOL0     C32715   6.302   6.096   1.740 -0.0393  0.5670  0.1329
  238MOL0     C32716   6.154   6.056   1.716  0.2649  0.7349 -0.2484
  238MOL0     C32717   6.084   6.028   1.850  0.6762 -0.3668 -0.1618
  238MOL0     C32718   5.930   5.999   1.838 -0.8040 -0.4769 -0.4439
  238MOL0     C32719   5.864   5.987   1.975 -0.2560  0.2990  1.1328
  238MOL0     C32720   5.716   5.945   1.966 -0.1112  0.1306 -0.4930
  238MOL0     C32721   5.661   5.869   2.092 -0.2349  0.3078  0.1866
  238MOL0     C32722   5.680   5.954   2.219  0.4491  0.2030  0.3038
  238MOL0     N32723   5.596   5.905   2.327  0.1815 -0.3772 -0.7997
  238MOL0     C32724   5.466   5.941   2.354  0.5858  0.3480  0.7595
  238MOL0     C32725   5.428   5.862   2.454 -0.6843 -0.3324  0.2296
  238MOL0     C32726   5.294   5.884   2.511  0.2263 -0.0986 -0.2911
  238MOL0     C32727   5.232   5.752   2.541 -0.3928 -0.6979 -0.1576
  238MOL0     C32728   5.097   5.788   2.614 -1.3824  0.1045 -0.1681
  238MOL0     C32729   5.048   5.664   2.681  0.2486  0.5195 -1.0205
  238MOL0     O32730   4.926   5.686   2.739 -0.0430 -0.2403 -0.2019
  238MOL0     C32731   4.811   5.643   2.682  1.1160 -0.1880 -0.4709
  238MOL0     C32732   4.706   5.606   2.774 -0.6312  0.3096 -0.0010
  238MOL0     C32733   4.588   5.553   2.729  0.6425  0.6017 -0.0600
  238MOL0     C32734   4.481   5.521   2.831  0.7196  0.5163  0.7007
  238MOL0     C32735   4.567   5.528   2.585  0.3763  0.2893 -0.0003
  238MOL0     C32736   4.446   5.455   2.526 -0.4589  0.2252 -0.8660
  238MOL0     O32737   4.458   5.392   2.400  0.8014 -0.7897  0.0713
  238MOL0     C32738   4.349   5.336   2.343 -0.7773  0.1633  0.2132
  238MOL0     C32739   4.240   5.275   2.401  0.5375 -0.2128  0.5189
  238MOL0     C32740   4.138   5.204   2.336  0.0465  0.1072  0.2827
  238MOL0     C32741   4.147   5.189   2.199  0.0239  0.5793  1.5866
  238MOL0     O32742   4.057   5.129   2.111 -0.0093  0.1632  0.1393
  238MOL0     C32743   3.931   5.078   2.157  0.1527 -0.4837  0.3878
  238MOL0     C32744   3.938   4.931   2.196 -0.3480 -0.0090  0.2536
  238MOL0     C32745   3.812   4.849   2.214 -0.9079 -0.0673 -0.8069
  238MOL0     C32746   3.841   4.693   2.210 -0.1147 -0.0031 -0.9179
  238MOL0     C32747   3.721   4.594   2.219 -0.8272 -0.8031  0.7119
  238MOL0     C32748   3.612   4.604   2.106 -1.0867  0.5193  0.3591
  238MOL0     C32749   3.492   4.511   2.129  0.2370 -0.1104  0.0020
  238MOL0     C32750   3.382   4.550   2.030 -0.4329 -1.1958  0.1304
  238MOL0    Cl32751   3.439   4.505   1.872  0.2150  0.1826  0.4824
  238MOL0     C32752   4.268   5.230   2.142 -1.2084 -0.8579  0.4104
  238MOL0     C32753   4.362   5.313   2.212  0.2980  0.4338  0.1947
  238MOL0     O32754   4.342   5.470   2.594  0.8719 -0.3466  0.5382
  238MOL0     C32755   4.667   5.578   2.491  0.4636 -0.2256  0.9862
  238MOL0     C32756   4.787   5.638   2.546  0.0660  1.1448  0.0139
  238MOL0     N32757   5.539   5.796   2.497 -0.0799 -0.2568  0.1429
  238MOL0     N32758   5.641   5.816   2.420 -0.0658  0.4463 -0.0269
  238MOL0     C32759   6.494   6.408   1.800  0.0196 -1.4093  0.5957
  238MOL0     C32760   6.622   6.446   1.839 -0.3058 -0.0746 -0.1463
  238MOL0     C32761   7.035   6.534   2.013  0.3090 -0.1959  0.0768
  238MOL0     C32762   7.059   6.656   2.083 -0.0291 -0.1315  0.0872
  238MOL0     C32763   7.185   6.705   2.126  0.3400 -0.2753  1.0160
  238MOL0     C32764   7.293   6.629   2.092  0.0907 -0.0647  0.3941
  238MOL0     O32765   7.412   6.674   2.140 -1.3130 -0.6216 -0.0086
  238MOL0     C32766   7.522   6.670   2.041  0.3782  1.0216  0.1757
  238MOL0     C32767   7.615   6.780   2.047  1.1919 -0.0734 -0.1812
  238MOL0     C32768   7.649   6.799   2.187 -0.5023 -0.2842 -0.1883
  238MOL0     C32769   7.746   6.916   2.199  0.0892 -0.5770  0.5221
  238MOL0     C32770   7.814   6.938   2.326  0.7483 -0.2941  0.2059
  238MOL0     C32771   7.849   6.952   2.437 -0.3315  0.8996 -0.1144
  238MOL0     C32772   7.273   6.514   2.014  0.5360  0.4409 -0.6329
  238MOL0     C32773   7.144   6.459   1.980 -0.5658  0.2139  0.9052
  238MOL0     C32774   7.128   6.330   1.916 -0.6904 -1.3665 -0.5159
  238MOL0     H32775   6.761   6.138   1.874 -1.9476 -0.3854  4.1089
  238MOL0     H32776   6.548   6.075   1.840  0.5331 -0.1540  0.6037
  238MOL0     H32777   6.348   6.033   1.817  1.2123  1.2641 -0.0053
  238MOL0     H32778   6.358   6.074   1.649  1.9517  1.4629  1.0756
  238MOL0     H32779   6.106   6.141   1.666 -2.6834 -0.1307  0.9097
  238MOL0     H32780   6.150   5.971   1.647  0.0749 -0.7992  1.5686
  238MOL0     H32781   6.129   5.946   1.906  1.4226 -0.0074 -0.2167
  238MOL0     H32782   6.100   6.119   1.908  1.5189  0.5213 -1.7072
  238MOL0     H32783   5.882   6.084   1.788  0.2406  0.6541  0.3852
  238MOL0     H32784   5.910   5.913   1.774  3.6606 -0.7947 -1.7854
  238MOL0     H32785   5.869   6.084   2.027  0.3296  1.2981 -0.6896
  238MOL0     H32786   5.915   5.909   2.031 -0.6264  0.2779  1.4420
  238MOL0     H32787   5.661   6.039   1.959  1.2587  1.0966  1.0098
  238MOL0     H32788   5.700   5.883   1.877 -2.6289 -2.9153  1.8488
  238MOL0     H32789   5.715   5.776   2.113  0.8279  1.5420  3.5967
  238MOL0     H32790   5.556   5.843   2.076  0.0717 -1.9204  1.3646
  238MOL0     H32791   5.788   5.955   2.235  0.5390  1.3533 -0.2470
  238MOL0     H32792   5.656   6.060   2.206  0.9049  0.5196  1.8024
  238MOL0     H32793   5.410   6.021   2.308  1.5755  1.0115  0.6764
  238MOL0     H32794   5.230   5.944   2.447  0.4292 -0.7910 -1.1549
  238MOL0     H32795   5.310   5.935   2.607 -0.7950 -1.0316  0.4009
  238MOL0     H32796   5.210   5.677   2.463 -1.5518 -2.0479  1.3892
  238MOL0     H32797   5.300   5.699   2.607  0.7876  0.4840 -0.3865
  238MOL0     H32798   5.120   5.867   2.687  2.2074 -0.6561 -0.2531
  238MOL0     H32799   5.026   5.826   2.541  1.7576  1.2568 -2.9103
  238MOL0     H32800   5.039   5.574   2.620  2.3057 -0.2427 -0.2769
  238MOL0     H32801   5.115   5.633   2.761  0.8953  1.6522 -1.1057
  238MOL0     H32802   4.720   5.623   2.881 -0.2872  2.4096 -0.3327
  238MOL0     H32803   4.447   5.419   2.810 -0.4196  1.6616 -4.4004
  238MOL0     H32804   4.403   5.596   2.814  0.1392 -0.3313 -0.5466
  238MOL0     H32805   4.518   5.527   2.934 -0.8406 -0.3240  1.3433
  238MOL0     H32806   4.222   5.281   2.508  1.1389 -1.2771  0.6894
  238MOL0     H32807   4.062   5.155   2.394 -1.6311  0.7947 -1.2342
  238MOL0     H32808   3.894   5.135   2.242 -1.7748 -0.4022 -0.4560
  238MOL0     H32809   3.862   5.091   2.073  2.2148 -1.1393 -1.5283
  238MOL0     H32810   4.006   4.872   2.133 -1.0280 -4.8512  3.5145
  238MOL0     H32811   3.993   4.921   2.290 -3.4488 -1.0925  2.0871
  238MOL0     H32812   3.742   4.860   2.131 -0.3030  0.2948 -1.2720
  238MOL0     H32813   3.753   4.882   2.300 -1.3452 -0.6534 -0.8738
  238MOL0     H32814   3.916   4.671   2.287  0.5980 -2.5299 -2.2353
  238MOL0     H32815   3.885   4.671   2.112  0.9436 -1.1987 -0.2098
  238MOL0     H32816   3.754   4.490   2.226 -1.6067 -1.1540 -0.4829
  238MOL0     H32817   3.676   4.604   2.319  1.0388  1.0938  1.4435
  238MOL0     H32818   3.662   4.591   2.009  0.2605  3.8493  0.4670
  238MOL0     H32819   3.580   4.709   2.101  1.5056  1.3680  0.0896
  238MOL0     H32820   3.447   4.523   2.228  0.1613  2.3053 -0.2533
  238MOL0     H32821   3.518   4.407   2.110 -1.0797 -0.6227  0.9015
  238MOL0     H32822   3.369   4.658   2.040 -0.8171 -1.4349  2.9748
  238MOL0     H32823   3.293   4.490   2.050 -0.6501 -0.9653 -0.1372
  238MOL0     H32824   4.288   5.211   2.037  1.3959  2.5799  0.0824
  238MOL0     H32825   4.444   5.348   2.151  1.2903 -3.5922 -1.0783
  238MOL0     H32826   4.652   5.547   2.388 -0.3077  0.1893  0.9660
  238MOL0     H32827   4.860   5.665   2.470 -0.8225  0.1467 -1.2287
  238MOL0     H32828   6.420   6.486   1.782  1.9159 -0.0533 -1.9615
  238MOL0     H32829   6.646   6.552   1.837  0.2268 -0.1766  0.2754
  238MOL0     H32830   6.978   6.726   2.102  3.0504  3.8322  0.1171
  238MOL0     H32831   7.188   6.805   2.169 -0.1397  0.1382  0.0999
  238MOL0     H32832   7.579   6.578   2.052 -0.9405  0.3033  1.2137
  238MOL0     H32833   7.479   6.682   1.941 -1.4556  3.3035  1.1415
  238MOL0     H32834   7.562   6.866   2.005  2.6363  1.2815  0.6361
  238MOL0     H32835   7.690   6.742   1.976  0.9884  1.1682 -1.0941
  238MOL0     H32836   7.567   6.813   2.258  0.2750 -1.6470  1.0529
  238MOL0     H32837   7.705   6.712   2.221 -1.0813  0.9335  4.6082
  238MOL0     H32838   7.694   7.012   2.188 -0.4155 -0.7948  0.9882
  238MOL0     H32839   7.816   6.900   2.116 -0.4083  0.5178 -0.1346
  238MOL0     H32840   7.866   6.961   2.543 -0.7233 -0.5820  0.0931
  238MOL0     H32841   7.364   6.460   1.989 -1.2358 -2.1799 -1.9621
  238MOL0     H32842   7.221   6.273   1.903  0.6131  1.2741 -4.2141
  238MOL0     H32843   7.064   6.268   1.980 -0.2067  2.3243  4.0953
  238MOL0     H32844   7.084   6.341   1.817 -0.1091 -0.6322 -0.6945
  239MOL0     O32845   2.316   5.894   4.937 -0.2704 -0.0315 -0.0888
  239MOL0     C32846   2.333   5.812   4.841  1.3075 -0.4099 -1.4184
  239MOL0     O32847   2.425   5.825   4.750 -0.6959 -0.1187  0.2481
  239MOL0     C32848   2.509   5.931   4.765 -0.4297  0.7667  0.6232
  239MOL0     C32849   2.634   5.921   4.836 -1.3031  0.1290 -0.1498
  239MOL0     C32850   2.720   6.028   4.833 -0.0628  0.0701 -0.1066
  239MOL0     C32851   2.683   6.149   4.765 -0.3384 -0.1321  0.3331
  239MOL0     O32852   2.754   6.268   4.755 -0.3296 -0.2876 -0.0157
  239MOL0     C32853   2.867   6.274   4.850 -0.3706  0.2410  0.0013
  239MOL0     C32854   2.995   6.192   4.801 -0.4320 -0.3894  0.2171
  239MOL0     C32855   3.042   6.266   4.672 -0.6417  0.8539  0.5550
  239MOL0     C32856   3.178   6.204   4.645  0.0102 -0.6143  0.5445
  239MOL0     C32857   3.264   6.299   4.566 -0.6782 -0.5239 -0.5366
  239MOL0     C32858   3.408   6.258   4.590  0.8490  0.1388  0.9668
  239MOL0     C32859   3.517   6.320   4.504 -0.1029 -0.3341  0.1204
  239MOL0     C32860   3.543   6.469   4.524 -0.3685 -0.5038 -0.3240
  239MOL0     N32861   3.657   6.511   4.446 -0.1474  0.3658 -0.1619
  239MOL0     C32862   3.785   6.450   4.465  0.1135 -0.6868  0.3030
  239MOL0     C32863   3.871   6.520   4.383 -0.1099 -0.4922  0.2045
  239MOL0     C32864   4.015   6.484   4.364 -0.1864  0.0761 -0.8290
  239MOL0     C32865   4.101   6.601   4.424  0.3928  0.7311  0.3623
  239MOL0     C32866   4.248   6.564   4.448 -0.4050 -0.0800  0.1306
  239MOL0     C32867   4.297   6.662   4.552 -0.4005 -0.1114 -0.5379
  239MOL0     O32868   4.444   6.643   4.571  0.2237  1.0087  1.1188
  239MOL0     C32869   4.511   6.739   4.647  0.4252  0.3228  0.7716
  239MOL0     C32870   4.647   6.717   4.664  0.2214 -0.8520 -0.1433
  239MOL0     C32871   4.729   6.793   4.749 -0.3888 -0.2275 -0.0205
  239MOL0     C32872   4.877   6.760   4.771  0.4965  0.0904 -0.1171
  239MOL0     C32873   4.663   6.910   4.808 -0.0436  1.0244 -0.2867
  239MOL0     C32874   4.733   7.014   4.887  1.2980 -0.3783 -0.0997
  239MOL0     O32875   4.863   7.001   4.924  0.0896  0.5955 -0.8370
  239MOL0     C32876   4.932   7.091   5.006 -0.1961  0.3235  0.7453
  239MOL0     C32877   5.047   7.047   5.072  1.0955 -0.4668  0.3762
  239MOL0     C32878   5.134   7.136   5.132 -0.2864  0.4853 -0.8706
  239MOL0     C32879   5.107   7.270   5.149  0.4474  0.0475  0.8205
  239MOL0     O32880   5.184   7.356   5.222  0.1407 -0.3154  0.4416
  239MOL0     C32881   5.140   7.490   5.265  0.2764 -0.3783  0.0307
  239MOL0     C32882   5.129   7.602   5.157  0.0588 -0.0281 -0.4543
  239MOL0     C32883   5.243   7.573   5.059 -0.3342 -0.3193  0.1776
  239MOL0     C32884   5.276   7.700   4.973  1.0444 -0.1693  0.1702
  239MOL0     C32885   5.384   7.672   4.875 -0.5501 -0.5288  0.1180
  239MOL0     C32886   5.385   7.781   4.766 -0.3068  0.0487 -1.2711
  239MOL0     C32887   5.267   7.786   4.671 -0.0713  0.3226  0.5295
  239MOL0     C32888   5.300   7.818   4.524 -0.4938  0.1563  0.8025
  239MOL0    Cl32889   5.406   7.694   4.462  0.9737 -0.2508 -0.0329
  239MOL0     C32890   4.984   7.315   5.090 -0.2692 -0.4716  0.3068
  239MOL0     C32891   4.900   7.223   5.021 -0.4848 -0.8620 -0.4821
  239MOL0     O32892   4.668   7.118   4.907 -0.7045  0.5114 -0.1234
  239MOL0     C32893   4.528   6.931   4.778  0.0622  0.4544 -0.4095
  239MOL0     C32894   4.451   6.848   4.697  0.8168 -0.2937 -0.8226
  239MOL0     N32895   3.800   6.629   4.332 -0.9826 -0.1349  0.5603
  239MOL0     N32896   3.674   6.607   4.354  0.0218  0.1485  0.5077
  239MOL0     C32897   2.559   6.159   4.696 -0.5632  0.5230  0.6465
  239MOL0     C32898   2.474   6.048   4.701  0.5043 -0.4603 -0.2769
  239MOL0     C32899   2.250   5.694   4.827 -0.4399  0.3544 -0.4439
  239MOL0     C32900   2.301   5.578   4.758  0.3874  0.4053 -0.9380
  239MOL0     C32901   2.227   5.460   4.746 -0.2041  0.4756 -0.2574
  239MOL0     C32902   2.102   5.450   4.809  0.7004 -0.1072  0.1775
  239MOL0     O32903   2.031   5.338   4.829  0.1093 -0.3167  0.4479
  239MOL0     C32904   1.956   5.281   4.716 -0.2303  0.6862  0.3437
  239MOL0     C32905   2.008   5.145   4.687 -0.2622  0.8220 -0.1298
  239MOL0     C32906   1.987   5.050   4.805 -0.5664  0.1751 -1.0953
  239MOL0     C32907   1.840   5.026   4.850  0.6483 -0.1243 -0.0475
  239MOL0     C32908   1.747   4.974   4.747  0.2924  0.4921  0.2785
  239MOL0     C32909   1.681   4.942   4.650  0.1603  0.2367  0.0712
  239MOL0     C32910   2.057   5.559   4.890  0.9154 -0.6293  1.1086
  239MOL0     C32911   2.124   5.677   4.898 -0.4187 -0.7251  0.1179
  239MOL0     C32912   2.052   5.784   4.984  0.2907 -0.1666  0.5877
  239MOL0     H32913   2.670   5.832   4.887  0.7720  1.6795  1.2754
  239MOL0     H32914   2.819   6.025   4.876  0.5680  1.6355 -1.3228
  239MOL0     H32915   2.841   6.238   4.951  0.0465  0.2477  0.1129
  239MOL0     H32916   2.892   6.379   4.865  1.2660  0.0203 -1.0098
  239MOL0     H32917   3.069   6.196   4.881  0.3579  0.8611 -0.5311
  239MOL0     H32918   2.978   6.086   4.778  1.9639 -0.6875 -0.4881
  239MOL0     H32919   2.967   6.251   4.595  1.4217 -2.7785 -1.0035
  239MOL0     H32920   3.051   6.373   4.690  0.2705  0.6969  1.1031
  239MOL0     H32921   3.232   6.177   4.737  4.0970  1.8651 -0.8671
  239MOL0     H32922   3.173   6.106   4.597 -3.3896  0.0558 -0.7560
  239MOL0     H32923   3.254   6.398   4.611  0.5113 -1.5519  2.2259
  239MOL0     H32924   3.243   6.310   4.459  0.8448  2.2133 -0.6330
  239MOL0     H32925   3.433   6.277   4.695  2.6863 -1.6345  0.9008
  239MOL0     H32926   3.409   6.152   4.564 -3.7006  0.4057 -1.3213
  239MOL0     H32927   3.476   6.325   4.403  2.4225  1.3367 -0.8992
  239MOL0     H32928   3.607   6.258   4.507  1.2574  1.3577 -2.3932
  239MOL0     H32929   3.457   6.532   4.499 -0.2405  0.7908  2.1888
  239MOL0     H32930   3.563   6.482   4.631  1.5636 -2.3186 -0.4007
  239MOL0     H32931   3.800   6.364   4.529 -0.7652  1.0297  2.9873
  239MOL0     H32932   4.037   6.474   4.257  2.0848  1.5690 -0.5736
  239MOL0     H32933   4.047   6.397   4.421 -1.9707  1.2159  2.1686
  239MOL0     H32934   4.094   6.681   4.350  1.5949 -0.4845 -1.1411
  239MOL0     H32935   4.045   6.632   4.512  0.3629  2.6941 -0.3120
  239MOL0     H32936   4.263   6.459   4.472 -0.1548  0.2815  1.6523
  239MOL0     H32937   4.314   6.588   4.364  2.4583  2.9009  2.9180
  239MOL0     H32938   4.286   6.765   4.517 -0.3776  0.1039  0.0627
  239MOL0     H32939   4.235   6.644   4.640  0.3544  1.9821  0.4990
  239MOL0     H32940   4.687   6.625   4.624  1.0618  0.5481 -2.7573
  239MOL0     H32941   4.949   6.837   4.739  0.4679 -0.0473 -0.5146
  239MOL0     H32942   4.905   6.670   4.717  1.7678  1.8443 -2.6094
  239MOL0     H32943   4.893   6.751   4.879 -0.1542  2.8871  0.2848
  239MOL0     H32944   5.074   6.942   5.071 -0.3538 -0.8700  0.4793
  239MOL0     H32945   5.215   7.079   5.176 -0.6701  0.9163  0.4721
  239MOL0     H32946   5.045   7.484   5.318 -1.3741  1.3098 -2.5175
  239MOL0     H32947   5.213   7.521   5.341 -1.3459 -0.4758  1.6961
  239MOL0     H32948   5.035   7.604   5.101  1.2298  1.5161 -2.5488
  239MOL0     H32949   5.136   7.695   5.212  2.0335 -0.0477 -0.5958
  239MOL0     H32950   5.223   7.495   4.986 -0.4708 -0.9840  0.9185
  239MOL0     H32951   5.336   7.547   5.111 -0.3827 -2.7372 -0.8224
  239MOL0     H32952   5.295   7.785   5.040  1.1813 -0.9287  1.1115
  239MOL0     H32953   5.183   7.729   4.923 -0.5330  0.0519  3.0173
  239MOL0     H32954   5.469   7.672   4.944  0.8472 -1.1867 -1.5568
  239MOL0     H32955   5.374   7.577   4.823  3.4395 -0.2507 -1.4518
  239MOL0     H32956   5.478   7.774   4.709  0.9647  0.5001  0.6472
  239MOL0     H32957   5.397   7.875   4.821  0.6839 -0.4639 -0.5884
  239MOL0     H32958   5.188   7.850   4.711 -1.9803 -0.2232 -2.1369
  239MOL0     H32959   5.225   7.685   4.675  1.4200 -0.2900  2.4357
  239MOL0     H32960   5.343   7.917   4.505  2.8001 -1.3143 -0.1092
  239MOL0     H32961   5.206   7.822   4.467  1.0893  1.9090 -1.9486
  239MOL0     H32962   4.942   7.411   5.118 -0.6481 -0.1882 -1.1492
  239MOL0     H32963   4.805   7.267   4.991 -2.2988 -3.4288  1.0501
  239MOL0     H32964   4.493   7.029   4.808  2.2097  1.2247 -0.1881
  239MOL0     H32965   4.351   6.883   4.671  0.1706 -1.1542  0.3853
  239MOL0     H32966   2.540   6.246   4.634 -1.0244 -0.1629 -0.2064
  239MOL0     H32967   2.385   6.042   4.638  0.0731 -0.8924  0.3634
  239MOL0     H32968   2.391   5.584   4.699  1.1604 -2.2592 -0.1659
  239MOL0     H32969   2.266   5.376   4.690  0.6083 -0.1429  1.1952
  239MOL0     H32970   1.848   5.272   4.726 -0.5851  1.7278 -1.8572
  239MOL0     H32971   1.971   5.348   4.631 -1.6358 -0.0212 -0.5053
  239MOL0     H32972   2.115   5.161   4.675 -0.3733  0.7020 -1.3809
  239MOL0     H32973   1.977   5.097   4.594  1.1734 -3.3866  1.3480
  239MOL0     H32974   2.036   4.958   4.772  2.1157  1.0225  0.2053
  239MOL0     H32975   2.044   5.088   4.890 -0.1141 -0.0301 -1.2997
  239MOL0     H32976   1.784   5.109   4.894  3.2352  2.3689 -1.1069
  239MOL0     H32977   1.853   4.948   4.926  1.1191  0.9164  0.9691
  239MOL0     H32978   1.635   4.911   4.559  0.4831 -1.2080  0.3701
  239MOL0     H32979   1.973   5.543   4.957 -1.3830  0.8465 -1.1749
  239MOL0     H32980   2.078   5.886   4.956 -0.4151  0.6419  2.6829
  239MOL0     H32981   1.945   5.761   4.983  0.3487 -0.4360 -0.8732
  239MOL0     H32982   2.078   5.768   5.089  1.3892 -0.3230  0.3034
  240MOL0     O32983   0.553   3.848   9.713  0.3558  0.1107 -0.5268
  240MOL0     C32984   0.461   3.830   9.794 -0.0391  0.0190 -1.0933
  240MOL0     O32985   0.468   3.739   9.897 -0.7627 -0.4545  0.0170
  240MOL0     C32986   0.552   3.638   9.887  0.2946 -0.0559 -1.4192
  240MOL0     C32987   0.554   3.564   9.775 -0.0840 -0.5349 -0.1076
  240MOL0     C32988   0.629   3.446   9.777 -0.7150  0.5105  0.0924
  240MOL0     C32989   0.706   3.402   9.891  0.2398  0.7483 -0.0009
  240MOL0     O32990   0.779   3.292   9.885  0.2188 -0.0871  0.4543
  240MOL0     C32991   0.902   3.305   9.817 -0.7736  0.1868  0.2798
  240MOL0     C32992   1.008   3.402   9.886 -0.2528 -0.7499  1.0113
  240MOL0     C32993   1.135   3.437   9.798  0.0157 -0.1274  0.5641
  240MOL0     C32994   1.219   3.311   9.762  0.7061 -1.0444 -0.6146
  240MOL0     C32995   1.362   3.347   9.708  1.1116  1.3297 -0.0084
  240MOL0     C32996   1.352   3.447   9.590  0.3705 -0.5319  0.3942
  240MOL0     C32997   1.486   3.483   9.522 -0.6141  0.3682 -0.9530
  240MOL0     C32998   1.481   3.617   9.441 -0.7811  0.3716  0.0815
  240MOL0     N32999   1.537   3.738   9.518  0.2929  0.3680 -0.0192
  240MOL0     C33000   1.577   3.729   9.652  0.0617  0.6113  0.1823
  240MOL0     C33001   1.629   3.851   9.668 -0.3020 -0.5341  0.2251
  240MOL0     C33002   1.699   3.927   9.780 -0.7302  0.7517 -0.3681
  240MOL0     C33003   1.840   3.863   9.807  0.5043  0.1149  0.2498
  240MOL0     C33004   1.939   3.890   9.691 -0.0870 -0.0185 -0.2983
  240MOL0     C33005   2.069   3.806   9.697  0.2475 -0.6999 -0.0545
  240MOL0     O33006   2.171   3.851   9.787 -0.0236  0.4332 -0.4342
  240MOL0     C33007   2.279   3.763   9.799 -0.7221 -0.0218 -0.3604
  240MOL0     C33008   2.310   3.665   9.696  0.7115  0.2669 -0.4444
  240MOL0     C33009   2.433   3.604   9.689 -0.3567 -0.8657 -0.2791
  240MOL0     C33010   2.453   3.534   9.562 -0.1938 -0.3860  0.3021
  240MOL0     C33011   2.523   3.619   9.801  0.5591 -0.8607  0.3794
  240MOL0     C33012   2.662   3.557   9.808  0.4073 -0.2936  0.3904
  240MOL0     O33013   2.743   3.609   9.904  0.6277 -0.4095 -0.3251
  240MOL0     C33014   2.870   3.570   9.936  0.3992  0.4458  0.0851
  240MOL0     C33015   2.954   3.668   9.975 -0.2831 -0.2955 -0.2155
  240MOL0     C33016   3.082   3.646  10.030  0.6670  0.3396 -0.2842
  240MOL0     C33017   3.134   3.513  10.037  0.4967 -0.0841  0.2400
  240MOL0     O33018   3.255   3.503  10.091 -0.7173  0.5834 -0.8375
  240MOL0     C33019   3.289   3.389  10.177  0.2657 -0.2104 -1.5531
  240MOL0     C33020   3.271   3.440  10.334  0.4428  0.0013 -0.2788
  240MOL0     C33021   3.354   3.561  10.374  0.1641 -0.3978 -0.9922
  240MOL0     C33022   3.511   3.536  10.358  0.1570 -0.0048  0.0310
  240MOL0     C33023   3.589   3.648  10.424 -0.5260 -0.0770 -0.4322
  240MOL0     C33024   3.737   3.660  10.378  0.5366  0.2164  0.3598
  240MOL0     C33025   3.808   3.743  10.481 -0.0610 -0.1145  0.1621
  240MOL0     C33026   3.883   3.862  10.414  0.5691  0.3150 -0.4730
  240MOL0    Cl33027   3.982   3.821  10.277 -0.2078  0.1287  0.3357
  240MOL0     C33028   3.051   3.411   9.999  0.4036  0.7797 -1.0134
  240MOL0     C33029   2.916   3.433   9.953 -0.0718 -1.0020  0.0343
  240MOL0     O33030   2.683   3.461   9.733 -0.1107 -0.4411  0.2998
  240MOL0     C33031   2.485   3.701   9.905 -0.0409 -0.7018 -1.1274
  240MOL0     C33032   2.370   3.774   9.903 -0.2815  0.1766 -0.0296
  240MOL0     N33033   1.612   3.935   9.552  0.4581  0.0835  0.4167
  240MOL0     N33034   1.558   3.859   9.462 -0.7655 -0.2642 -0.0036
  240MOL0     C33035   0.697   3.471  10.005 -0.7253  0.1962  0.5732
  240MOL0     C33036   0.614   3.590  10.009  0.0428 -0.2118  0.3228
  240MOL0     C33037   0.355   3.939   9.808 -0.7511 -0.4429 -0.6898
  240MOL0     C33038   0.314   4.004   9.695  0.5124  0.9678 -0.1237
  240MOL0     C33039   0.218   4.108   9.701  0.4347  0.9222  0.1841
  240MOL0     C33040   0.150   4.146   9.820  0.6078  0.6356  0.8223
  240MOL0     O33041   0.050   4.232   9.853 -0.5825 -0.5683  0.3458
  240MOL0     C33042   0.018   4.340   9.761 -0.4417  0.0030 -0.1616
  240MOL0     C33043  -0.128   4.380   9.781 -0.4984 -0.8688  0.2912
  240MOL0     C33044  -0.182   4.491   9.692 -0.2240  0.4082  0.7070
  240MOL0     C33045  -0.118   4.632   9.717 -0.6697  0.6614 -0.0368
  240MOL0     C33046  -0.150   4.678   9.851 -0.1418  0.5532  0.3034
  240MOL0     C33047  -0.158   4.712   9.965 -0.5469 -0.1573 -0.0279
  240MOL0     C33048   0.189   4.070   9.927 -0.0069 -0.7602  0.9619
  240MOL0     C33049   0.295   3.979   9.927  0.1740  0.6932 -0.6874
  240MOL0     C33050   0.341   3.931  10.062  0.4902 -0.2271 -0.0713
  240MOL0     H33051   0.493   3.584   9.688  0.2823  0.3445 -0.1831
  240MOL0     H33052   0.630   3.379   9.691  2.6936  2.3715 -1.5355
  240MOL0     H33053   0.888   3.343   9.715 -0.4370  0.9592  0.5165
  240MOL0     H33054   0.944   3.205   9.804  1.5769  1.3505 -2.0098
  240MOL0     H33055   0.964   3.497   9.916 -0.5327 -0.6257  0.2243
  240MOL0     H33056   1.040   3.345   9.974  0.3358 -3.1548 -0.6553
  240MOL0     H33057   1.097   3.491   9.711 -0.8152 -0.1605  0.8919
  240MOL0     H33058   1.198   3.508   9.853  0.9384 -0.9246  0.5475
  240MOL0     H33059   1.230   3.259   9.857 -0.8468  0.7793  0.6228
  240MOL0     H33060   1.175   3.250   9.683 -1.0392  0.8971 -1.2075
  240MOL0     H33061   1.411   3.252   9.685 -1.3556 -0.8046  2.6886
  240MOL0     H33062   1.411   3.400   9.790 -0.2576  1.2485  0.8963
  240MOL0     H33063   1.292   3.405   9.509 -0.0369 -2.9598  1.8719
  240MOL0     H33064   1.301   3.538   9.624  0.5475  0.2842 -1.3689
  240MOL0     H33065   1.507   3.400   9.455  0.9552 -0.5505  0.6096
  240MOL0     H33066   1.566   3.479   9.596  0.3304 -4.5202 -1.9233
  240MOL0     H33067   1.549   3.601   9.357 -0.6545  3.6465 -0.5670
  240MOL0     H33068   1.384   3.624   9.392 -1.3322  0.2744  1.1195
  240MOL0     H33069   1.560   3.644   9.717  0.2293  0.9771  0.7126
  240MOL0     H33070   1.646   3.918   9.875  0.0147 -0.1214 -0.0267
  240MOL0     H33071   1.702   4.034   9.759 -1.6626  0.7436 -0.5686
  240MOL0     H33072   1.881   3.896   9.903 -3.2567  0.6111  1.8329
  240MOL0     H33073   1.833   3.754   9.818  0.0541  0.3891  3.7446
  240MOL0     H33074   1.886   3.846   9.606 -2.2376  0.2598  0.8231
  240MOL0     H33075   1.959   3.995   9.669  0.0779  0.4038  1.6675
  240MOL0     H33076   2.040   3.707   9.731 -0.6962  0.0329  1.3805
  240MOL0     H33077   2.105   3.818   9.594  1.0304  0.9252  0.3686
  240MOL0     H33078   2.235   3.648   9.619  0.9480  1.8726 -1.0823
  240MOL0     H33079   2.554   3.500   9.538  1.6708  6.3707 -4.0944
  240MOL0     H33080   2.443   3.603   9.479  2.4584 -1.6298 -1.1947
  240MOL0     H33081   2.375   3.458   9.557 -1.6466  0.9840  1.2852
  240MOL0     H33082   2.908   3.766   9.968  0.2638 -0.0609 -0.6186
  240MOL0     H33083   3.153   3.720  10.067 -0.0106  2.0985 -2.3471
  240MOL0     H33084   3.228   3.299  10.170 -1.2688  0.6880 -0.3589
  240MOL0     H33085   3.393   3.362  10.158 -0.0344 -0.8120 -2.3552
  240MOL0     H33086   3.166   3.461  10.356  1.3652  1.6467  3.4048
  240MOL0     H33087   3.300   3.357  10.400 -0.0663 -0.8422 -1.0815
  240MOL0     H33088   3.331   3.572  10.481 -3.1272 -3.2171 -1.2346
  240MOL0     H33089   3.317   3.644  10.314 -3.2889  0.1813  1.6003
  240MOL0     H33090   3.547   3.518  10.257  1.7645  0.6208  0.4551
  240MOL0     H33091   3.522   3.443  10.415 -1.7067 -0.7479 -0.7235
  240MOL0     H33092   3.531   3.738  10.401  0.5421  0.5698 -0.6799
  240MOL0     H33093   3.582   3.631  10.532  3.5425  1.5202  0.2540
  240MOL0     H33094   3.743   3.707  10.279  4.2944  0.5178  0.6100
  240MOL0     H33095   3.793   3.567  10.369  0.1839  0.0572 -0.2664
  240MOL0     H33096   3.885   3.684  10.531  0.2513 -0.0566 -0.2481
  240MOL0     H33097   3.733   3.777  10.554 -1.1385 -0.9237 -0.5333
  240MOL0     H33098   3.935   3.897  10.504 -0.1010  0.5136 -0.1598
  240MOL0     H33099   3.817   3.944  10.387  0.4047  0.9774  1.7385
  240MOL0     H33100   3.085   3.308   9.995 -0.0292  0.6589 -1.7235
  240MOL0     H33101   2.854   3.352   9.917 -2.6947  0.7953  0.2663
  240MOL0     H33102   2.549   3.711   9.992 -0.1405  0.8389 -1.2100
  240MOL0     H33103   2.352   3.847   9.981  0.4642  0.4064 -0.0641
  240MOL0     H33104   0.745   3.442  10.097 -0.0163 -0.2844  0.0625
  240MOL0     H33105   0.618   3.640  10.105  0.2364 -1.0692  0.7709
  240MOL0     H33106   0.344   3.975   9.595  0.7703  1.2670 -0.1347
  240MOL0     H33107   0.196   4.154   9.605  2.2874  0.7412 -0.3727
  240MOL0     H33108   0.089   4.422   9.767 -1.6672  1.4032 -3.1095
  240MOL0     H33109   0.026   4.303   9.658 -0.1929  1.4462 -0.6772
  240MOL0     H33110  -0.127   4.410   9.886  2.0492  0.5555 -0.0692
  240MOL0     H33111  -0.192   4.291   9.776 -2.7388  0.7056 -0.4448
  240MOL0     H33112  -0.178   4.461   9.587 -1.7066 -0.1626  0.7869
  240MOL0     H33113  -0.291   4.498   9.697 -0.1750  0.9565  1.0530
  240MOL0     H33114  -0.148   4.703   9.638  1.2585 -0.6019 -2.0227
  240MOL0     H33115  -0.010   4.624   9.712 -0.6503 -0.7226  1.7991
  240MOL0     H33116  -0.155   4.757  10.062 -2.2453  1.1187 -0.5166
  240MOL0     H33117   0.132   4.084  10.019 -0.5779 -1.1221  0.6710
  240MOL0     H33118   0.450   3.921  10.060  1.0408  4.0829 -0.1765
  240MOL0     H33119   0.312   4.007  10.134 -1.8483 -2.0144  1.0215
  240MOL0     H33120   0.285   3.840  10.087  0.6220  0.4483  3.0343
  241MOL0     O33121   8.847   3.594   8.108 -0.0314 -0.4215  0.0221
  241MOL0     C33122   8.943   3.677   8.119 -0.4080  0.2627 -0.0930
  241MOL0     O33123   9.043   3.654   8.212  0.1948 -0.3277  0.1605
  241MOL0     C33124   9.034   3.537   8.285 -0.5378  0.2771  0.6619
  241MOL0     C33125   8.924   3.520   8.377 -1.0707  0.1155 -0.2574
  241MOL0     C33126   8.921   3.407   8.458  0.3208 -0.6121 -0.3917
  241MOL0     C33127   9.007   3.302   8.437 -0.4977 -0.1288  0.4417
  241MOL0     O33128   8.993   3.196   8.518  0.5208 -0.1773 -0.7016
  241MOL0     C33129   8.986   3.061   8.477 -0.6728 -0.3486  0.0494
  241MOL0     C33130   8.889   3.035   8.363  0.1050 -0.8009 -0.5537
  241MOL0     C33131   8.744   3.089   8.394  0.0581  0.3057 -0.6256
  241MOL0     C33132   8.685   3.051   8.533 -0.3114 -0.2643 -0.5594
  241MOL0     C33133   8.534   3.080   8.542  0.7079 -0.4126 -0.1052
  241MOL0     C33134   8.497   3.227   8.517  0.4029  0.5319  0.1186
  241MOL0     C33135   8.349   3.254   8.533  0.2177 -0.5766  0.1975
  241MOL0     C33136   8.263   3.191   8.423 -0.2767 -0.0469 -0.3697
  241MOL0     N33137   8.114   3.203   8.441 -0.9521 -0.8566 -0.6004
  241MOL0     C33138   8.048   3.147   8.548  0.9663 -0.0942 -0.0890
  241MOL0     C33139   7.916   3.154   8.522 -0.3941  0.4361  0.4960
  241MOL0     C33140   7.795   3.120   8.607  0.4884 -0.4214  0.5243
  241MOL0     C33141   7.799   2.984   8.659 -0.5035  0.4705  0.4150
  241MOL0     C33142   7.666   2.924   8.714 -0.5965 -0.4355  0.0121
  241MOL0     C33143   7.598   3.021   8.813 -0.2172 -0.0287  0.6533
  241MOL0     O33144   7.534   3.135   8.760  0.2764 -0.4905  0.0471
  241MOL0     C33145   7.400   3.129   8.748 -0.1071  0.3268  0.1251
  241MOL0     C33146   7.336   3.256   8.739 -0.4107 -0.3563  0.2176
  241MOL0     C33147   7.198   3.269   8.727  0.3747 -0.3955 -0.2353
  241MOL0     C33148   7.141   3.408   8.704 -0.0228  0.3861  0.2639
  241MOL0     C33149   7.114   3.149   8.736  0.6225 -0.2879 -0.5211
  241MOL0     C33150   6.966   3.140   8.744  0.2219 -0.3005 -0.4679
  241MOL0     O33151   6.912   3.018   8.750  0.0629 -0.6891  0.4408
  241MOL0     C33152   6.790   3.000   8.807 -0.1564  0.2290 -0.2477
  241MOL0     C33153   6.776   2.950   8.939 -0.4154 -0.1805 -1.3285
  241MOL0     C33154   6.650   2.909   8.993  0.1627 -0.0520 -0.1090
  241MOL0     C33155   6.533   2.922   8.912 -1.1779 -0.2705 -0.2154
  241MOL0     O33156   6.408   2.884   8.962 -0.3095  0.5205  0.1238
  241MOL0     C33157   6.406   2.812   9.088  0.1600 -0.2857  0.2360
  241MOL0     C33158   6.250   2.807   9.126 -0.3398 -1.0291  0.3731
  241MOL0     C33159   6.171   2.718   9.032 -0.2073 -0.0707  0.7095
  241MOL0     C33160   6.029   2.699   9.088  0.3152  0.2374  0.3142
  241MOL0     C33161   5.931   2.671   8.966  0.7231 -0.1282 -0.8429
  241MOL0     C33162   5.789   2.645   9.022  0.5671 -0.1356 -0.7934
  241MOL0     C33163   5.712   2.571   8.922  0.8470 -0.0591  0.0811
  241MOL0     C33164   5.573   2.531   8.979 -0.9847  0.4241 -0.5091
  241MOL0    Cl33165   5.470   2.676   9.003 -0.5282  0.0823  0.0338
  241MOL0     C33166   6.551   2.974   8.779  0.1372 -0.5994 -0.4224
  241MOL0     C33167   6.675   3.011   8.730 -0.2315 -0.0701  0.2240
  241MOL0     O33168   6.900   3.244   8.736 -0.3993 -0.2168 -0.0094
  241MOL0     C33169   7.180   3.022   8.761 -0.5734  0.6429  0.1187
  241MOL0     C33170   7.320   3.017   8.756 -0.7185 -0.5309 -0.1541
  241MOL0     N33171   7.913   3.231   8.402  0.0692  0.9733 -0.3640
  241MOL0     N33172   8.030   3.252   8.348  0.1138 -0.2561 -0.0710
  241MOL0     C33173   9.109   3.309   8.337  0.6900  0.7048 -0.4941
  241MOL0     C33174   9.118   3.435   8.268 -0.6387  0.5184  0.2791
  241MOL0     C33175   8.950   3.802   8.040  0.3821 -0.2477 -0.7428
  241MOL0     C33176   9.080   3.830   7.984 -0.2992 -0.0609  0.9571
  241MOL0     C33177   9.095   3.939   7.895 -0.1480 -0.0891 -0.0551
  241MOL0     C33178   8.987   4.017   7.865 -0.3079  0.2414 -0.8544
  241MOL0     O33179   8.997   4.132   7.792 -0.0327 -0.4081 -0.0038
  241MOL0     C33180   9.033   4.107   7.652  0.4428 -0.2989 -0.2259
  241MOL0     C33181   8.905   4.072   7.565 -0.3506  0.2744 -0.6535
  241MOL0     C33182   8.808   4.192   7.569 -0.5737 -0.1733 -0.0586
  241MOL0     C33183   8.668   4.157   7.526  0.2724 -0.1751 -0.6089
  241MOL0     C33184   8.574   4.261   7.553  0.1669 -0.9949 -0.3525
  241MOL0     C33185   8.484   4.344   7.569 -0.5859 -0.4855  0.6053
  241MOL0     C33186   8.864   3.990   7.924  0.7456 -0.5135  0.2038
  241MOL0     C33187   8.843   3.875   8.000 -0.2570 -0.7625 -0.1662
  241MOL0     C33188   8.702   3.847   8.054  0.5837  0.1585  0.8056
  241MOL0     H33189   8.851   3.599   8.388 -1.8119 -0.7067  1.0108
  241MOL0     H33190   8.853   3.387   8.541  0.6766  0.6997  0.2417
  241MOL0     H33191   8.967   3.005   8.569  2.8984 -2.7690 -0.4951
  241MOL0     H33192   9.089   3.040   8.448  0.2444  2.7083  0.6636
  241MOL0     H33193   8.915   3.095   8.276 -0.0323 -2.2056 -1.5964
  241MOL0     H33194   8.888   2.929   8.335 -0.1695 -0.3689 -2.3185
  241MOL0     H33195   8.723   3.196   8.386 -2.1007 -0.1136 -1.1039
  241MOL0     H33196   8.678   3.052   8.316 -1.0670 -1.0466  0.8841
  241MOL0     H33197   8.695   2.942   8.541 -1.4005 -0.2462  1.7610
  241MOL0     H33198   8.741   3.094   8.616 -2.0141 -3.3233  2.3970
  241MOL0     H33199   8.494   3.044   8.637 -1.7508 -2.1859 -1.6752
  241MOL0     H33200   8.483   3.023   8.463 -1.9508  2.5817 -0.7849
  241MOL0     H33201   8.553   3.284   8.593  2.4811 -0.5324 -0.5274
  241MOL0     H33202   8.517   3.260   8.415  0.2196  1.9461  0.5100
  241MOL0     H33203   8.319   3.359   8.524  1.1133 -0.4159 -1.2009
  241MOL0     H33204   8.329   3.219   8.635  1.2722 -1.1579  0.2216
  241MOL0     H33205   8.284   3.248   8.332  0.2707  2.5218  1.2637
  241MOL0     H33206   8.280   3.083   8.418  2.7557  0.3642 -0.7765
  241MOL0     H33207   8.097   3.093   8.629  0.4833  0.2175  0.4224
  241MOL0     H33208   7.702   3.143   8.554 -0.9428  1.5107  3.6319
  241MOL0     H33209   7.808   3.188   8.691 -0.3383  1.3626 -0.7097
  241MOL0     H33210   7.854   2.913   8.597  0.5042  0.7752  0.9423
  241MOL0     H33211   7.866   2.989   8.745 -1.9574  5.6166  1.6143
  241MOL0     H33212   7.598   2.910   8.630  0.2710 -1.8054 -0.5045
  241MOL0     H33213   7.684   2.832   8.770 -1.9369  0.3572  1.8548
  241MOL0     H33214   7.537   2.962   8.882  1.1335 -0.8742  1.1596
  241MOL0     H33215   7.680   3.051   8.879 -1.1982 -2.9513  3.4826
  241MOL0     H33216   7.395   3.347   8.744  0.7531 -0.8295 -2.7763
  241MOL0     H33217   7.069   3.404   8.621  1.1525  3.3342 -1.0424
  241MOL0     H33218   7.216   3.480   8.670  0.6920 -0.8811 -0.9593
  241MOL0     H33219   7.095   3.432   8.800  0.6004 -0.4916  0.8003
  241MOL0     H33220   6.868   2.956   8.996 -1.6464  0.3102  0.7338
  241MOL0     H33221   6.653   2.873   9.096 -1.5458 -1.9470 -0.6520
  241MOL0     H33222   6.453   2.714   9.080  1.6943  0.4613 -0.4250
  241MOL0     H33223   6.455   2.866   9.170 -2.9367  0.7695  1.5166
  241MOL0     H33224   6.233   2.762   9.224 -1.8843  0.0088  0.6044
  241MOL0     H33225   6.217   2.911   9.133  1.1774 -0.6440  2.8155
  241MOL0     H33226   6.219   2.622   9.011  2.5375  1.5171 -0.8976
  241MOL0     H33227   6.172   2.767   8.935 -1.0053 -1.8658 -0.2613
  241MOL0     H33228   5.984   2.783   9.142  0.0300 -0.6882  1.5778
  241MOL0     H33229   6.037   2.613   9.156 -0.3737  1.1659  1.6258
  241MOL0     H33230   5.922   2.757   8.899  2.9979  0.1200 -0.8944
  241MOL0     H33231   5.958   2.581   8.909  0.6125  0.4267 -1.7928
  241MOL0     H33232   5.743   2.743   9.041  1.9465  0.2713  0.7362
  241MOL0     H33233   5.789   2.593   9.118 -0.3682  1.0214 -0.1271
  241MOL0     H33234   5.769   2.489   8.876  1.9026  2.2124 -2.9845
  241MOL0     H33235   5.692   2.643   8.842  1.0541  1.5105  1.3971
  241MOL0     H33236   5.584   2.459   9.061 -1.0753 -0.4567 -1.2699
  241MOL0     H33237   5.526   2.470   8.902  2.3816 -1.9424 -0.9338
  241MOL0     H33238   6.464   2.969   8.714 -1.0181  0.2174  0.9908
  241MOL0     H33239   6.680   3.038   8.625  2.2937 -2.7931 -0.4990
  241MOL0     H33240   7.128   2.928   8.776  2.4882 -1.1603  0.2945
  241MOL0     H33241   7.381   2.927   8.757  3.7351  2.2035  1.9968
  241MOL0     H33242   9.177   3.227   8.321 -2.0889 -1.8067 -0.4011
  241MOL0     H33243   9.195   3.444   8.192 -1.3710  1.9468 -0.3325
  241MOL0     H33244   9.159   3.763   8.014 -1.8202 -3.5354 -1.9719
  241MOL0     H33245   9.194   3.969   7.863 -0.1019 -0.5633 -0.3729
  241MOL0     H33246   9.085   4.197   7.617 -0.5968  0.2499 -0.4084
  241MOL0     H33247   9.104   4.024   7.648  1.1387  0.3482 -2.0510
  241MOL0     H33248   8.855   3.988   7.615  0.3165  1.0260  1.3848
  241MOL0     H33249   8.926   4.045   7.461  2.1091 -2.6292  0.4550
  241MOL0     H33250   8.801   4.242   7.667 -1.3048  2.8041 -1.5035
  241MOL0     H33251   8.844   4.267   7.497  2.3689 -2.6964 -1.4484
  241MOL0     H33252   8.633   4.077   7.593  0.4283  2.1864  2.5401
  241MOL0     H33253   8.676   4.116   7.425  1.2468 -2.4057  0.2978
  241MOL0     H33254   8.399   4.409   7.564 -1.0959 -1.2130 -0.6657
  241MOL0     H33255   8.788   4.064   7.901  0.3389 -0.9324  0.1807
  241MOL0     H33256   8.694   3.842   8.163  0.9826  0.0653  0.8329
  241MOL0     H33257   8.632   3.925   8.023  0.0672 -0.4632  0.4070
  241MOL0     H33258   8.661   3.753   8.017  0.3997 -0.8183  3.2813
  242MOL0     O33259   0.773   7.784  11.096  0.5692  0.1833 -0.0868
  242MOL0     C33260   0.787   7.905  11.101 -0.0653  0.2056 -0.9034
  242MOL0     O33261   0.707   8.003  11.065  0.1195  0.1126  0.0230
  242MOL0     C33262   0.567   7.984  11.076  0.3354 -0.7316 -0.8992
  242MOL0     C33263   0.497   8.106  11.054  0.3448  0.0593 -0.4334
  242MOL0     C33264   0.358   8.104  11.062 -0.0475  1.0640  0.5973
  242MOL0     C33265   0.295   7.986  11.103 -0.4650 -0.9919 -1.2274
  242MOL0     O33266   0.158   7.996  11.115  0.0629 -0.4852  0.2933
  242MOL0     C33267   0.121   8.042  11.248 -0.7210  0.3523 -0.1059
  242MOL0     C33268  -0.030   8.020  11.282 -0.1342 -0.0325  0.0868
  242MOL0     C33269  -0.140   8.071  11.193 -0.0767 -0.4617  0.1036
  242MOL0     C33270  -0.253   8.068  11.285 -0.6488 -0.9643  0.5294
  242MOL0     C33271  -0.364   8.148  11.228  0.0978  0.1550  0.3061
  242MOL0     C33272  -0.416   8.125  11.082  0.3410  0.4475  0.5759
  242MOL0     C33273  -0.547   8.200  11.057 -0.6463 -0.7256  0.2000
  242MOL0     C33274  -0.666   8.136  11.122 -0.0206 -0.0414 -0.7376
  242MOL0     N33275  -0.797   8.194  11.070  0.5503 -0.2826 -0.4091
  242MOL0     C33276  -0.879   8.274  11.139  0.3091 -0.3833  0.0009
  242MOL0     C33277  -0.974   8.302  11.045 -0.3090 -0.3733  1.0951
  242MOL0     C33278  -1.096   8.386  11.056 -0.1882  0.5027 -0.5586
  242MOL0     C33279  -1.213   8.300  11.108 -0.4005 -0.8205  0.8834
  242MOL0     C33280  -1.346   8.373  11.120 -0.3784  0.8398  0.3297
  242MOL0     C33281  -1.448   8.269  11.156  0.1492  0.6282  0.4250
  242MOL0     O33282  -1.427   8.217  11.280  0.2685  0.9990 -0.0703
  242MOL0     C33283  -1.541   8.171  11.346 -0.4415 -0.2452 -0.2188
  242MOL0     C33284  -1.519   8.056  11.413  0.5374 -0.0133 -0.6953
  242MOL0     C33285  -1.624   8.006  11.499 -0.1103  1.0779  0.2577
  242MOL0     C33286  -1.585   7.871  11.559  0.8948 -0.5017 -0.5468
  242MOL0     C33287  -1.738   8.084  11.526  0.3646  0.0490  0.4240
  242MOL0     C33288  -1.852   8.035  11.604  0.3389 -0.8576 -0.3902
  242MOL0     O33289  -1.944   8.133  11.640 -0.6089  0.1769  0.2501
  242MOL0     C33290  -2.052   8.090  11.713 -0.6883  0.2677 -0.3345
  242MOL0     C33291  -2.184   8.112  11.667 -0.0109  0.7437  0.3207
  242MOL0     C33292  -2.289   8.084  11.746 -0.6135  0.5453  0.5654
  242MOL0     C33293  -2.269   8.037  11.877 -0.4416 -0.0772  0.6059
  242MOL0     O33294  -2.389   8.011  11.946  0.7617  0.4705 -0.1869
  242MOL0     C33295  -2.388   7.890  12.017 -0.4166 -0.0452  0.0718
  242MOL0     C33296  -2.510   7.893  12.111 -0.6756 -0.3219  0.3339
  242MOL0     C33297  -2.516   7.762  12.187  0.4254  0.2998  0.3649
  242MOL0     C33298  -2.643   7.762  12.273  0.2242 -0.0812  0.4153
  242MOL0     C33299  -2.666   7.625  12.351  0.6325  0.4657 -0.3198
  242MOL0     C33300  -2.790   7.637  12.438 -0.2193 -0.3862 -0.3354
  242MOL0     C33301  -2.800   7.512  12.521  0.6769 -0.7397  0.3755
  242MOL0     C33302  -2.850   7.382  12.453 -0.3990 -0.3051 -0.6054
  242MOL0    Cl33303  -2.853   7.258  12.577 -0.2758 -0.0367 -0.2599
  242MOL0     C33304  -2.136   8.023  11.928 -0.6982  0.1503  0.0561
  242MOL0     C33305  -2.030   8.032  11.841 -0.1227 -0.4004  0.7543
  242MOL0     O33306  -1.860   7.917  11.631  0.1947  0.2992 -0.2796
  242MOL0     C33307  -1.745   8.208  11.462  0.3916 -0.5239 -0.5031
  242MOL0     C33308  -1.654   8.251  11.369  0.2583  0.5766 -0.3402
  242MOL0     N33309  -0.956   8.231  10.931  0.4792 -0.5857  0.7811
  242MOL0     N33310  -0.851   8.164  10.948  0.9183  0.6751 -0.4846
  242MOL0     C33311   0.360   7.866  11.140 -0.0215  0.2204  0.8581
  242MOL0     C33312   0.499   7.871  11.130  0.0846  0.6982 -0.7499
  242MOL0     C33313   0.908   7.938  11.188 -0.3116  0.2997  0.3018
  242MOL0     C33314   0.903   8.074  11.232  0.0468  0.4816 -0.4927
  242MOL0     C33315   1.015   8.133  11.291  0.9149  0.1013 -0.2141
  242MOL0     C33316   1.119   8.057  11.325 -0.4980 -0.9557  0.7667
  242MOL0     O33317   1.223   8.137  11.369 -0.4190 -0.3623 -0.2465
  242MOL0     C33318   1.326   8.074  11.442 -0.5284  0.0526  0.1277
  242MOL0     C33319   1.410   8.184  11.488 -0.5016 -0.3808 -0.3042
  242MOL0     C33320   1.499   8.135  11.602  0.4766 -0.0764  0.3546
  242MOL0     C33321   1.600   8.234  11.658 -0.7639 -0.0643  0.9189
  242MOL0     C33322   1.529   8.310  11.763 -0.7684  0.3125  0.2718
  242MOL0     C33323   1.477   8.379  11.843 -0.3306  0.4934  0.6825
  242MOL0     C33324   1.127   7.928  11.294  0.4295 -0.1041 -0.3849
  242MOL0     C33325   1.025   7.863  11.223 -0.7379 -0.5502 -0.7515
  242MOL0     C33326   1.032   7.716  11.198  1.2562 -0.6856 -0.2926
  242MOL0     H33327   0.555   8.191  11.021 -0.3282  0.4997 -0.5185
  242MOL0     H33328   0.298   8.194  11.060 -2.6559 -0.4886  2.4574
  242MOL0     H33329   0.149   8.147  11.255  0.9622 -0.1985  4.3071
  242MOL0     H33330   0.188   7.989  11.316  0.4765  0.3484 -1.2556
  242MOL0     H33331  -0.049   7.913  11.294 -0.2486 -0.4345 -2.8628
  242MOL0     H33332  -0.048   8.070  11.377  0.0962 -0.3889  0.3212
  242MOL0     H33333  -0.132   8.174  11.156 -3.3026  0.2205  1.0377
  242MOL0     H33334  -0.141   8.000  11.110 -0.8971  1.1575 -1.3155
  242MOL0     H33335  -0.289   7.965  11.289  1.0755 -1.6247 -0.1130
  242MOL0     H33336  -0.239   8.104  11.387 -0.6752  1.1451 -0.1409
  242MOL0     H33337  -0.343   8.255  11.238 -2.5268  1.1689 -3.0830
  242MOL0     H33338  -0.444   8.120  11.296 -0.1336 -1.9485 -0.7683
  242MOL0     H33339  -0.339   8.147  11.007  0.9493  0.6595  1.2526
  242MOL0     H33340  -0.431   8.019  11.060  1.4872  0.6836 -1.7232
  242MOL0     H33341  -0.565   8.216  10.950  1.2920 -0.3528 -0.1028
  242MOL0     H33342  -0.537   8.301  11.097 -1.8052 -0.4195 -0.2330
  242MOL0     H33343  -0.672   8.030  11.094 -0.0731 -0.8414  1.9805
  242MOL0     H33344  -0.654   8.154  11.230  2.6807  1.1046 -1.1514
  242MOL0     H33345  -0.883   8.303  11.243 -0.7269  0.7629 -0.3286
  242MOL0     H33346  -1.113   8.429  10.957 -2.2781  0.3295 -0.3106
  242MOL0     H33347  -1.068   8.479  11.106  1.3761  0.0597 -0.5353
  242MOL0     H33348  -1.223   8.223  11.031  1.0564 -0.4888  0.3400
  242MOL0     H33349  -1.185   8.247  11.199  2.3639  1.7892  1.7115
  242MOL0     H33350  -1.344   8.444  11.203  0.2667  3.0060 -1.4725
  242MOL0     H33351  -1.366   8.423  11.025  1.9473  1.4267  0.1091
  242MOL0     H33352  -1.545   8.320  11.160 -0.7341 -0.9673  0.0823
  242MOL0     H33353  -1.455   8.180  11.093 -1.6074  1.8756 -1.2694
  242MOL0     H33354  -1.428   7.996  11.402  0.4062 -0.1444 -1.0855
  242MOL0     H33355  -1.649   7.791  11.522  0.6956 -1.7767  2.3302
  242MOL0     H33356  -1.607   7.873  11.666 -2.4774  0.3981 -1.1587
  242MOL0     H33357  -1.480   7.844  11.544  0.9051 -1.5610  1.1582
  242MOL0     H33358  -2.193   8.154  11.568  5.3700  1.4962 -0.1915
  242MOL0     H33359  -2.395   8.096  11.728 -0.8371 -2.1803 -0.3891
  242MOL0     H33360  -2.405   7.807  11.947 -2.7172  0.7250 -0.3744
  242MOL0     H33361  -2.292   7.892  12.070  0.0715  1.6558 -0.8227
  242MOL0     H33362  -2.528   7.983  12.170  1.6650 -2.3114  4.5581
  242MOL0     H33363  -2.597   7.893  12.044  0.1364  0.6638 -0.7552
  242MOL0     H33364  -2.423   7.759  12.245  3.1127  4.1139 -3.1577
  242MOL0     H33365  -2.520   7.671  12.128  1.8021 -0.8315  1.9322
  242MOL0     H33366  -2.732   7.780  12.213 -0.2723  1.1894  1.4788
  242MOL0     H33367  -2.628   7.845  12.343 -0.2661 -2.2835  3.3485
  242MOL0     H33368  -2.679   7.548  12.274 -0.5441  2.1753 -1.9320
  242MOL0     H33369  -2.572   7.599  12.401 -0.3405 -1.6503  0.4896
  242MOL0     H33370  -2.876   7.645  12.370 -0.5203  0.7799  0.1512
  242MOL0     H33371  -2.789   7.729  12.497 -1.6722  0.0630 -0.9497
  242MOL0     H33372  -2.873   7.538  12.598 -1.1049 -0.8114 -1.2185
  242MOL0     H33373  -2.704   7.493  12.570  1.1664 -0.3295 -0.4095
  242MOL0     H33374  -2.785   7.359  12.369 -0.7475 -2.8193 -0.2691
  242MOL0     H33375  -2.949   7.392  12.406 -0.3253  0.5766 -0.6008
  242MOL0     H33376  -2.114   7.998  12.032 -0.9991  2.3984  0.7221
  242MOL0     H33377  -1.926   8.015  11.868  1.0550 -1.5478 -3.7561
  242MOL0     H33378  -1.827   8.279  11.471  0.7816 -0.0482 -0.6379
  242MOL0     H33379  -1.670   8.344  11.315 -0.3864  0.4417 -0.3852
  242MOL0     H33380   0.313   7.776  11.179 -0.3345 -0.2874 -0.6434
  242MOL0     H33381   0.549   7.776  11.149  0.4351  1.2349  1.1672
  242MOL0     H33382   0.820   8.144  11.224 -2.1277 -1.4665  2.5823
  242MOL0     H33383   1.009   8.240  11.310 -0.1171 -0.3342  2.2452
  242MOL0     H33384   1.291   8.018  11.529  1.2091  1.3933  1.7590
  242MOL0     H33385   1.367   8.002  11.370 -2.3533 -0.0495 -0.8687
  242MOL0     H33386   1.347   8.265  11.524  1.3731 -0.5447  3.8796
  242MOL0     H33387   1.481   8.218  11.412 -0.8878 -1.5055 -1.2113
  242MOL0     H33388   1.436   8.095  11.682  1.4301 -0.1497  1.0906
  242MOL0     H33389   1.562   8.054  11.563  1.5812  0.2296  1.4420
  242MOL0     H33390   1.641   8.300  11.580  0.9998  1.6724  3.1620
  242MOL0     H33391   1.683   8.181  11.707  0.5955  0.9299 -0.2192
  242MOL0     H33392   1.437   8.428  11.930 -0.8383 -0.1880  0.8426
  242MOL0     H33393   1.209   7.863  11.323 -1.1883 -2.4425 -0.7203
  242MOL0     H33394   1.132   7.672  11.210  1.0983 -0.9677  0.0107
  242MOL0     H33395   0.968   7.666  11.271  0.2996 -0.8887 -1.2346
  242MOL0     H33396   0.998   7.707  11.094 -0.1618  1.7700 -0.1105
  243MOL0     O33397   7.881   0.869   5.453 -0.3498 -0.4787 -0.1082
  243MOL0     C33398   7.978   0.800   5.489 -0.0641  0.1772 -0.8291
  243MOL0     O33399   7.983   0.735   5.616  0.6211 -0.1086 -0.1503
  243MOL0     C33400   7.874   0.758   5.698 -0.0514  0.4199  0.3389
  243MOL0     C33401   7.855   0.884   5.757  0.3866  0.3102 -0.2930
  243MOL0     C33402   7.750   0.902   5.844 -0.6767 -0.5934 -0.2905
  243MOL0     C33403   7.664   0.799   5.885  0.6583 -0.4345 -0.2803
  243MOL0     O33404   7.560   0.827   5.976  0.8931 -0.1140 -0.3526
  243MOL0     C33405   7.609   0.811   6.113 -0.1855  0.3163 -0.3467
  243MOL0     C33406   7.490   0.826   6.217  0.3645 -0.3815  0.6898
  243MOL0     C33407   7.421   0.963   6.196  0.1937  0.2863  0.3178
  243MOL0     C33408   7.282   0.985   6.257  0.0100 -0.4037 -0.9967
  243MOL0     C33409   7.283   0.942   6.405  0.1941  0.4043  0.1277
  243MOL0     C33410   7.159   0.937   6.478  1.3118 -0.1594  0.6435
  243MOL0     C33411   7.091   1.078   6.502  0.5088  0.1379  0.2194
  243MOL0     C33412   6.958   1.066   6.582  0.4430  0.0719  0.0727
  243MOL0     N33413   6.962   0.998   6.715 -0.6934 -0.5593 -0.1142
  243MOL0     C33414   7.051   1.043   6.815 -0.3409  0.3700  0.9761
  243MOL0     C33415   7.021   0.949   6.908  0.5363  0.9261 -0.1942
  243MOL0     C33416   7.112   0.937   7.029  0.7031  0.7772  0.1140
  243MOL0     C33417   7.212   0.819   7.015  0.2606  0.6647  0.3047
  243MOL0     C33418   7.170   0.679   7.071  0.5555  0.0878 -0.6615
  243MOL0     C33419   7.287   0.627   7.161  0.4359 -0.4892  0.6956
  243MOL0     O33420   7.316   0.712   7.276  0.3066 -0.4554  0.0266
  243MOL0     C33421   7.399   0.662   7.373  0.6512 -0.1490  0.1760
  243MOL0     C33422   7.430   0.750   7.473  0.4853 -0.9781 -1.1558
  243MOL0     C33423   7.511   0.714   7.578  0.4853  0.1178 -0.1936
  243MOL0     C33424   7.555   0.831   7.668  0.2239  0.0088 -1.3843
  243MOL0     C33425   7.570   0.582   7.577  0.0281 -0.3972  0.6540
  243MOL0     C33426   7.672   0.534   7.672 -0.1321 -0.3717  0.3586
  243MOL0     O33427   7.759   0.435   7.620 -0.2933  0.2595  0.0124
  243MOL0     C33428   7.871   0.393   7.690 -0.5188 -0.6068  0.3397
  243MOL0     C33429   7.994   0.377   7.616  0.4707  0.8498  0.3835
  243MOL0     C33430   8.110   0.325   7.670 -0.4367  0.0523  0.2865
  243MOL0     C33431   8.100   0.276   7.805  0.2108 -0.5149  0.9560
  243MOL0     O33432   8.209   0.236   7.876 -0.4400 -0.3586  0.2502
  243MOL0     C33433   8.322   0.190   7.793  0.3977 -0.1109 -0.1424
  243MOL0     C33434   8.441   0.123   7.875 -0.1541  0.6982 -0.0897
  243MOL0     C33435   8.502   0.205   7.997 -0.5631  0.2976 -0.3262
  243MOL0     C33436   8.641   0.263   7.968 -0.0103  0.7112  0.3091
  243MOL0     C33437   8.695   0.336   8.087 -0.8950 -0.9267  0.0015
  243MOL0     C33438   8.826   0.413   8.052  0.6682  0.0833 -0.5580
  243MOL0     C33439   8.892   0.447   8.193 -0.1863 -0.3532 -0.0948
  243MOL0     C33440   8.818   0.568   8.247  0.9187 -0.0916  0.0738
  243MOL0    Cl33441   8.889   0.625   8.403  0.6092  0.2535 -0.0671
  243MOL0     C33442   7.984   0.287   7.876 -0.1379  0.5357  0.1405
  243MOL0     C33443   7.868   0.340   7.815 -0.0138  0.3012 -0.0739
  243MOL0     O33444   7.678   0.582   7.785  0.2589 -0.1845  0.2392
  243MOL0     C33445   7.545   0.502   7.465  0.9164  0.9062 -0.1150
  243MOL0     C33446   7.466   0.539   7.364  1.1029 -0.1090 -0.5203
  243MOL0     N33447   6.927   0.858   6.868  0.8514 -0.2288  0.0000
  243MOL0     N33448   6.893   0.893   6.751  0.4088 -0.0580 -0.0006
  243MOL0     C33449   7.676   0.678   5.812  0.0727 -0.7364 -0.7407
  243MOL0     C33450   7.788   0.651   5.730  0.0542  0.4454  0.6393
  243MOL0     C33451   8.078   0.756   5.396 -0.5263  0.6052 -0.2191
  243MOL0     C33452   8.190   0.665   5.434  0.3459  0.3045 -0.2978
  243MOL0     C33453   8.295   0.626   5.347  0.2130 -0.0801  0.1109
  243MOL0     C33454   8.291   0.677   5.219  1.1677  0.7864 -0.1365
  243MOL0     O33455   8.385   0.627   5.133  0.1889 -0.6151 -0.0452
  243MOL0     C33456   8.443   0.715   5.028 -0.3489  0.0469 -0.9454
  243MOL0     C33457   8.591   0.750   5.060  0.8960 -0.2348  0.5003
  243MOL0     C33458   8.672   0.624   5.115  0.4251 -0.2243 -0.0230
  243MOL0     C33459   8.828   0.661   5.136  0.3968  0.1343 -0.0343
  243MOL0     C33460   8.911   0.545   5.198  0.7529  0.6879 -0.3588
  243MOL0     C33461   8.982   0.467   5.248  0.5434  1.5266 -0.3707
  243MOL0     C33462   8.192   0.767   5.177  0.0695  0.0803 -0.1124
  243MOL0     C33463   8.088   0.803   5.264 -0.0790 -0.9646 -0.0066
  243MOL0     C33464   7.995   0.910   5.194  0.9939  0.3838 -0.7034
  243MOL0     H33465   7.937   0.953   5.741  0.1150  0.3498 -1.5820
  243MOL0     H33466   7.742   0.999   5.892  2.8750 -0.5363  0.4606
  243MOL0     H33467   7.687   0.885   6.133  0.2449  0.1541 -1.3985
  243MOL0     H33468   7.655   0.714   6.135  1.3197  1.0359 -0.2283
  243MOL0     H33469   7.418   0.744   6.217  0.2646 -0.3540  2.9237
  243MOL0     H33470   7.524   0.818   6.320 -0.4417  2.6028  1.2948
  243MOL0     H33471   7.482   1.040   6.244  1.7016 -1.0361  0.6026
  243MOL0     H33472   7.422   0.993   6.091 -0.0445  0.2927  0.3152
  243MOL0     H33473   7.248   1.089   6.253  1.2986  0.0484 -0.4907
  243MOL0     H33474   7.207   0.931   6.197  0.0125 -3.6070  1.5947
  243MOL0     H33475   7.360   0.993   6.464  1.1135 -1.1984  0.3703
  243MOL0     H33476   7.316   0.838   6.398 -1.7314 -0.1541 -1.2246
  243MOL0     H33477   7.091   0.868   6.427 -0.1233 -0.1049  2.3533
  243MOL0     H33478   7.180   0.889   6.575  1.0253 -0.8040  0.3927
  243MOL0     H33479   7.060   1.111   6.403  1.8801 -2.3128 -1.1371
  243MOL0     H33480   7.159   1.148   6.552  1.1806 -0.7262  0.5470
  243MOL0     H33481   6.918   1.167   6.594 -2.3630 -0.9391 -0.0188
  243MOL0     H33482   6.886   1.015   6.518 -0.3229 -0.1520  1.0828
  243MOL0     H33483   7.132   1.115   6.816  1.7296 -1.8380  2.2013
  243MOL0     H33484   7.057   0.931   7.124 -0.4745  1.1172 -0.5337
  243MOL0     H33485   7.182   1.021   7.032 -0.4039  1.7958 -1.2908
  243MOL0     H33486   7.244   0.798   6.912 -0.0691  0.2478  0.2851
  243MOL0     H33487   7.309   0.850   7.054  0.6928  1.5883 -1.3906
  243MOL0     H33488   7.073   0.680   7.121 -0.8582 -1.6394 -3.1725
  243MOL0     H33489   7.152   0.613   6.986  1.5762 -1.7153  0.4811
  243MOL0     H33490   7.264   0.529   7.205 -0.4444 -0.7249 -0.2605
  243MOL0     H33491   7.380   0.611   7.106  0.2761  0.7311  0.0445
  243MOL0     H33492   7.379   0.845   7.464 -1.8427 -2.0093  0.4748
  243MOL0     H33493   7.530   0.794   7.768  0.9685  0.1043 -1.1605
  243MOL0     H33494   7.492   0.917   7.643  0.0348 -0.1359 -1.4042
  243MOL0     H33495   7.658   0.864   7.651  0.2708  0.7635  0.2003
  243MOL0     H33496   7.995   0.420   7.516 -2.3557  2.5207  0.9578
  243MOL0     H33497   8.201   0.337   7.612 -0.3010 -0.6791  0.3465
  243MOL0     H33498   8.286   0.128   7.710 -0.7404  0.6899 -0.2827
  243MOL0     H33499   8.371   0.274   7.743 -0.4410  0.0759 -0.6903
  243MOL0     H33500   8.412   0.026   7.915  0.0965  1.0118  0.8619
  243MOL0     H33501   8.519   0.100   7.802 -0.3369 -0.9942  0.2074
  243MOL0     H33502   8.510   0.140   8.085  2.0308 -0.8110 -1.2767
  243MOL0     H33503   8.440   0.292   8.021 -1.8878 -1.2204  2.1769
  243MOL0     H33504   8.638   0.333   7.884 -0.0710  0.6170  0.2323
  243MOL0     H33505   8.712   0.182   7.947  0.6849  1.6204 -0.9717
  243MOL0     H33506   8.619   0.404   8.127 -0.6250 -1.7856  2.1558
  243MOL0     H33507   8.704   0.272   8.175 -0.2892  0.5424  1.0532
  243MOL0     H33508   8.810   0.501   7.990 -0.7005  0.0973 -0.2093
  243MOL0     H33509   8.901   0.359   7.993  0.7880 -1.5471  0.9940
  243MOL0     H33510   8.997   0.476   8.178  0.1448 -0.6800  1.4438
  243MOL0     H33511   8.894   0.365   8.265 -1.2303  0.6213  1.0850
  243MOL0     H33512   8.714   0.551   8.275  1.5730 -1.5677  1.8427
  243MOL0     H33513   8.810   0.661   8.191 -1.9694 -0.0571  0.4033
  243MOL0     H33514   7.985   0.234   7.971 -0.6438 -0.8393 -0.5924
  243MOL0     H33515   7.775   0.321   7.867  1.1057 -3.0485  0.9507
  243MOL0     H33516   7.587   0.403   7.450 -0.4027  0.5569 -1.7476
  243MOL0     H33517   7.444   0.468   7.284 -0.8920 -1.5410  1.1940
  243MOL0     H33518   7.595   0.608   5.833 -1.0132  0.6884 -0.0360
  243MOL0     H33519   7.809   0.564   5.669 -1.5308  0.7015 -0.3367
  243MOL0     H33520   8.193   0.610   5.528 -2.3140  0.0948 -0.2458
  243MOL0     H33521   8.372   0.553   5.371 -1.4234 -2.0151 -0.1798
  243MOL0     H33522   8.448   0.661   4.933  0.2804  1.5686 -1.8001
  243MOL0     H33523   8.392   0.812   5.021  0.0852  0.2995 -0.6282
  243MOL0     H33524   8.603   0.829   5.134 -1.6557  1.3476 -0.6712
  243MOL0     H33525   8.644   0.775   4.968 -0.5014 -2.6327 -1.0449
  243MOL0     H33526   8.616   0.596   5.205  0.3348 -2.1005 -0.6342
  243MOL0     H33527   8.668   0.538   5.047  2.5662  0.3378 -0.9271
  243MOL0     H33528   8.838   0.751   5.199  0.0222  0.5627 -0.5790
  243MOL0     H33529   8.866   0.697   5.040  0.1481  3.7649  1.0702
  243MOL0     H33530   9.029   0.375   5.279 -1.5098  0.1502 -1.1462
  243MOL0     H33531   8.195   0.795   5.072  1.2260 -0.4111 -0.2378
  243MOL0     H33532   7.901   0.857   5.181  1.5262 -1.5234  2.2113
  243MOL0     H33533   7.968   0.994   5.258  0.7457 -0.9029  0.9428
  243MOL0     H33534   8.041   0.951   5.103 -2.0697 -0.4109 -2.7350
  244MOL0     O33535   6.202   4.138   0.512 -0.0572 -0.1654  0.5444
  244MOL0     C33536   6.107   4.060   0.515 -0.1587  0.3364  0.2195
  244MOL0     O33537   6.031   4.027   0.622  0.3204  0.2964  0.0106
  244MOL0     C33538   6.076   4.087   0.742  0.3442  0.4065 -0.4108
  244MOL0     C33539   5.993   4.179   0.802  0.6436 -1.2433  0.1547
  244MOL0     C33540   6.012   4.242   0.924 -1.5522  0.0650 -0.6357
  244MOL0     C33541   6.130   4.209   0.998 -1.1882  0.6925  0.5421
  244MOL0     O33542   6.145   4.268   1.121 -0.4269  0.4998  0.3175
  244MOL0     C33543   6.279   4.279   1.179  0.1872 -0.3449 -0.2737
  244MOL0     C33544   6.347   4.404   1.123  0.0538 -1.1947 -0.0636
  244MOL0     C33545   6.476   4.450   1.198  0.3481 -0.2041  0.7305
  244MOL0     C33546   6.587   4.349   1.170 -0.3024 -0.0086  0.2718
  244MOL0     C33547   6.710   4.394   1.242  0.5820  0.2008  1.0067
  244MOL0     C33548   6.829   4.308   1.210  0.0265  0.3808 -0.2226
  244MOL0     C33549   6.956   4.342   1.286  0.3357  0.5357 -0.2875
  244MOL0     C33550   7.084   4.283   1.223 -0.2910 -0.5762 -0.1791
  244MOL0     N33551   7.193   4.349   1.294  0.3385  0.1492 -0.4238
  244MOL0     C33552   7.297   4.285   1.351 -1.1156  0.0494 -0.4028
  244MOL0     C33553   7.383   4.375   1.398  0.6356  0.5517 -0.4271
  244MOL0     C33554   7.497   4.347   1.493  0.2377 -0.6777 -0.4093
  244MOL0     C33555   7.483   4.428   1.619  0.7755 -0.2058  0.2129
  244MOL0     C33556   7.356   4.400   1.706  0.7245  0.1662  0.9069
  244MOL0     C33557   7.335   4.247   1.746 -0.3903 -0.9869 -0.2712
  244MOL0     O33558   7.278   4.180   1.633  0.0669  0.4378 -0.1536
  244MOL0     C33559   7.142   4.164   1.627 -0.0550  0.4547 -0.6229
  244MOL0     C33560   7.051   4.262   1.677 -0.2070  0.0069  1.2475
  244MOL0     C33561   6.910   4.244   1.656  0.8900  0.3746  0.3965
  244MOL0     C33562   6.823   4.355   1.711 -0.9507  0.9024  0.4252
  244MOL0     C33563   6.859   4.129   1.592 -0.6678  0.7997  0.1733
  244MOL0     C33564   6.719   4.087   1.588  0.9133  0.9210  0.3253
  244MOL0     O33565   6.693   4.008   1.478  0.0690 -0.4276  0.8936
  244MOL0     C33566   6.570   3.984   1.433  0.8334 -0.2331  0.7367
  244MOL0     C33567   6.468   4.078   1.443 -0.1429 -0.8751 -1.3785
  244MOL0     C33568   6.335   4.038   1.410  0.2499 -0.4476  0.1145
  244MOL0     C33569   6.308   3.910   1.358  1.0274  0.1029  1.1482
  244MOL0     O33570   6.190   3.863   1.306  0.3185  0.6018 -0.3024
  244MOL0     C33571   6.063   3.926   1.320 -0.3774 -0.3361  0.1658
  244MOL0     C33572   5.935   3.837   1.325  0.2040 -0.7842  0.1948
  244MOL0     C33573   5.923   3.753   1.450  0.1832 -0.0649 -0.3625
  244MOL0     C33574   6.042   3.649   1.479  0.8819 -0.0973 -0.1354
  244MOL0     C33575   6.039   3.521   1.410 -0.0006  0.2279 -0.5116
  244MOL0     C33576   6.141   3.422   1.464 -0.6192 -0.6453  0.1452
  244MOL0     C33577   6.115   3.284   1.392  0.3510  0.5739  0.6103
  244MOL0     C33578   6.162   3.281   1.245 -0.0733 -0.7429 -0.0502
  244MOL0    Cl33579   6.343   3.323   1.241  0.1089 -0.2199 -0.0354
  244MOL0     C33580   6.403   3.821   1.350 -1.6670  0.0858  0.0364
  244MOL0     C33581   6.536   3.859   1.380 -0.5786  0.1672 -1.1891
  244MOL0     O33582   6.639   4.121   1.676  0.1302 -0.2020 -0.7350
  244MOL0     C33583   6.958   4.034   1.544  0.0082  0.6580  0.5044
  244MOL0     C33584   7.095   4.048   1.561 -0.5007  0.6169 -1.0998
  244MOL0     N33585   7.340   4.496   1.359 -0.0336  0.2406  0.3423
  244MOL0     N33586   7.236   4.478   1.282  0.0080 -0.0170 -0.1142
  244MOL0     C33587   6.222   4.112   0.938  0.1023  0.1736 -0.2346
  244MOL0     C33588   6.196   4.054   0.814 -0.9059 -0.1796  0.9957
  244MOL0     C33589   6.081   3.984   0.389 -0.4585 -0.1939 -0.3225
  244MOL0     C33590   6.008   3.869   0.406  0.6361  0.7096  1.2095
  244MOL0     C33591   5.979   3.790   0.290  0.2197 -0.2258  0.7591
  244MOL0     C33592   6.010   3.822   0.153  0.2103  1.3566 -0.7385
  244MOL0     O33593   5.974   3.757   0.044  0.4374  0.6577  0.5372
  244MOL0     C33594   5.855   3.675   0.055  0.1076  0.4893  1.2201
  244MOL0     C33595   5.820   3.613  -0.080  0.4380  0.6592 -0.0094
  244MOL0     C33596   5.936   3.519  -0.113  0.0115 -0.3197  0.8959
  244MOL0     C33597   5.914   3.413  -0.221 -0.6558 -0.3138 -0.0853
  244MOL0     C33598   6.034   3.402  -0.307  0.1340  0.0674 -0.8853
  244MOL0     C33599   6.124   3.416  -0.385 -0.4448  0.3342  0.1373
  244MOL0     C33600   6.083   3.936   0.143  0.0356  0.1807  0.1950
  244MOL0     C33601   6.121   4.017   0.254  1.0060 -0.2737 -0.1757
  244MOL0     C33602   6.194   4.138   0.213 -0.3730  0.9852 -0.3879
  244MOL0     H33603   5.912   4.223   0.744  0.2729  2.0633  2.8212
  244MOL0     H33604   5.950   4.326   0.954  0.0567  0.6571  1.2301
  244MOL0     H33605   6.348   4.194   1.169 -0.0326 -0.8818  2.1494
  244MOL0     H33606   6.275   4.299   1.286 -2.4174 -2.7820  0.2244
  244MOL0     H33607   6.380   4.384   1.021  2.4257  1.3910  0.0773
  244MOL0     H33608   6.276   4.486   1.112  1.6255  0.2565  0.2614
  244MOL0     H33609   6.507   4.544   1.151  3.5421 -1.9207 -0.9633
  244MOL0     H33610   6.468   4.459   1.307  0.5903 -0.5621  0.7775
  244MOL0     H33611   6.565   4.250   1.210  0.5947  0.2499  1.4256
  244MOL0     H33612   6.617   4.348   1.064  1.0108 -0.9732  0.6332
  244MOL0     H33613   6.693   4.370   1.347  0.0639  0.3463  0.9565
  244MOL0     H33614   6.723   4.501   1.221 -2.4447  0.1039 -2.4229
  244MOL0     H33615   6.800   4.204   1.229 -0.6632  0.6636  0.3432
  244MOL0     H33616   6.848   4.326   1.104 -0.4617  0.2909 -0.3278
  244MOL0     H33617   6.944   4.323   1.393 -1.1551 -0.1759 -0.5507
  244MOL0     H33618   6.959   4.451   1.276 -0.6796  0.5239 -0.8494
  244MOL0     H33619   7.079   4.175   1.240 -0.3041 -0.6272 -0.5066
  244MOL0     H33620   7.088   4.295   1.114  1.3669 -1.7577 -0.2776
  244MOL0     H33621   7.315   4.180   1.372 -1.4432 -0.0480 -0.5983
  244MOL0     H33622   7.588   4.368   1.435  0.9242  0.7968  1.1293
  244MOL0     H33623   7.501   4.238   1.507  1.1848 -0.9933 -2.6960
  244MOL0     H33624   7.571   4.402   1.678  0.9718  1.6242  0.8090
  244MOL0     H33625   7.491   4.535   1.596  2.1051 -0.3287  0.0073
  244MOL0     H33626   7.375   4.462   1.795  1.7186 -1.6707  2.0519
  244MOL0     H33627   7.265   4.436   1.658  1.2618 -2.0850 -2.0894
  244MOL0     H33628   7.427   4.201   1.782  2.4028  2.9923 -1.6072
  244MOL0     H33629   7.260   4.250   1.825 -0.2010 -0.3639 -0.1071
  244MOL0     H33630   7.095   4.345   1.732  2.3025 -2.2524  2.9868
  244MOL0     H33631   6.737   4.364   1.645 -0.4997  0.8570 -0.1752
  244MOL0     H33632   6.888   4.442   1.696  1.5144 -1.0741 -1.3038
  244MOL0     H33633   6.788   4.345   1.814 -2.4714 -4.3040 -0.3233
  244MOL0     H33634   6.491   4.180   1.476  0.9285 -2.1424  2.3315
  244MOL0     H33635   6.250   4.105   1.422  0.5144 -0.4253  2.1595
  244MOL0     H33636   6.060   3.980   1.415 -2.7320 -0.6507  0.3144
  244MOL0     H33637   6.037   3.991   1.236 -1.2716 -0.5696  0.2568
  244MOL0     H33638   5.848   3.901   1.310  0.0055 -1.5195 -2.0767
  244MOL0     H33639   5.935   3.764   1.244  0.7276 -2.5861  1.7366
  244MOL0     H33640   5.829   3.698   1.452 -0.0469  0.3371  0.4174
  244MOL0     H33641   5.912   3.825   1.532  1.7690 -0.9537  0.6940
  244MOL0     H33642   6.031   3.631   1.586  2.3718  0.7888  0.2116
  244MOL0     H33643   6.144   3.687   1.464  1.4115 -1.5610 -0.4437
  244MOL0     H33644   5.938   3.483   1.427 -0.2691  1.8704  2.1858
  244MOL0     H33645   6.056   3.537   1.303  1.0720 -2.8028 -0.9026
  244MOL0     H33646   6.117   3.421   1.571  0.4207 -0.4331  0.3844
  244MOL0     H33647   6.243   3.458   1.448 -1.6273  1.9324 -1.0717
  244MOL0     H33648   6.010   3.254   1.404  0.4184  0.4986  1.0370
  244MOL0     H33649   6.164   3.204   1.448  0.5292 -1.2283 -1.9853
  244MOL0     H33650   6.106   3.344   1.175  1.4256  1.0044  0.2340
  244MOL0     H33651   6.147   3.181   1.205 -0.5880 -1.4049  1.6867
  244MOL0     H33652   6.383   3.721   1.312  1.7991 -0.6562 -0.2453
  244MOL0     H33653   6.614   3.783   1.375  1.7127  2.3204 -0.2538
  244MOL0     H33654   6.908   3.947   1.502 -1.9462  1.3868  1.1823
  244MOL0     H33655   7.163   3.971   1.527 -2.2533 -1.5774  0.0648
  244MOL0     H33656   6.319   4.091   0.982  0.0906  2.2400  0.9037
  244MOL0     H33657   6.267   3.986   0.768  0.3388  1.2413  0.7393
  244MOL0     H33658   5.975   3.827   0.501 -0.5202 -1.8322 -0.2415
  244MOL0     H33659   5.929   3.697   0.312 -0.4591 -0.4453 -1.4702
  244MOL0     H33660   5.882   3.594   0.122  0.3080 -1.7707 -1.4250
  244MOL0     H33661   5.759   3.722   0.078 -1.9830 -1.0655 -3.1523
  244MOL0     H33662   5.800   3.681  -0.163  0.8863 -1.6648 -2.1297
  244MOL0     H33663   5.734   3.547  -0.064  1.8876 -1.0328  1.1858
  244MOL0     H33664   6.026   3.576  -0.138  1.4045 -3.1844 -1.2179
  244MOL0     H33665   5.975   3.468  -0.024 -0.5304 -2.4238 -0.0060
  244MOL0     H33666   5.832   3.441  -0.288  1.4555  1.0090 -2.3023
  244MOL0     H33667   5.893   3.316  -0.175 -0.6857  0.1850  0.9799
  244MOL0     H33668   6.209   3.436  -0.448 -0.2050  1.2111  0.7147
  244MOL0     H33669   6.102   3.966   0.040  1.7786  0.7483  0.6512
  244MOL0     H33670   6.182   4.156   0.106 -1.7165 -1.3057 -0.6691
  244MOL0     H33671   6.152   4.219   0.273 -0.4332  0.5373  0.1808
  244MOL0     H33672   6.301   4.133   0.236  0.1959  1.4138 -2.6640
  245MOL0     O33673   4.559  11.063   1.578 -1.1265 -0.8357  0.5654
  245MOL0     C33674   4.610  11.178   1.567  0.2077  0.1860  0.1931
  245MOL0     O33675   4.549  11.279   1.510  0.1864  0.0470 -0.4119
  245MOL0     C33676   4.426  11.252   1.446  0.0006  0.1973 -0.0266
  245MOL0     C33677   4.297  11.285   1.497 -0.8564 -0.2926  0.5869
  245MOL0     C33678   4.180  11.265   1.420 -1.2167 -0.2100 -0.7648
  245MOL0     C33679   4.184  11.191   1.302 -0.1634 -0.8378 -0.1865
  245MOL0     O33680   4.075  11.170   1.220  1.2051 -0.0137  0.1100
  245MOL0     C33681   3.938  11.208   1.267  0.5331  0.6868 -0.1795
  245MOL0     C33682   3.835  11.176   1.163  0.3683 -0.1945  0.5881
  245MOL0     C33683   3.808  11.276   1.043  0.8415  0.1957  0.2541
  245MOL0     C33684   3.667  11.270   0.972  0.6262 -0.0831  0.1865
  245MOL0     C33685   3.653  11.354   0.843 -0.7426 -0.0880  1.3369
  245MOL0     C33686   3.518  11.356   0.785 -0.3611 -0.0525  0.4779
  245MOL0     C33687   3.521  11.414   0.643  0.7440 -0.0786 -0.3480
  245MOL0     C33688   3.384  11.406   0.571  0.1899  0.3017 -0.3584
  245MOL0     N33689   3.347  11.270   0.523 -0.5749 -0.1891 -0.0586
  245MOL0     C33690   3.250  11.186   0.568  0.0541 -1.0163 -0.0232
  245MOL0     C33691   3.236  11.085   0.476  0.3853 -0.1388 -0.5757
  245MOL0     C33692   3.126  10.992   0.478  0.6506  0.4437  0.2231
  245MOL0     C33693   3.159  10.846   0.476 -0.1575  1.2217 -0.9064
  245MOL0     C33694   3.202  10.796   0.613  0.8557 -0.2031 -0.1193
  245MOL0     C33695   3.261  10.654   0.615 -0.6832  0.9727 -1.0810
  245MOL0     O33696   3.383  10.656   0.544 -0.0161 -0.8975 -0.0379
  245MOL0     C33697   3.485  10.703   0.616  0.2503  0.8980  0.5317
  245MOL0     C33698   3.531  10.832   0.599 -0.4252 -0.5826 -0.4726
  245MOL0     C33699   3.631  10.883   0.684 -0.4272 -0.0813  0.0531
  245MOL0     C33700   3.669  11.027   0.649 -0.4034 -0.5556  0.0323
  245MOL0     C33701   3.685  10.798   0.786 -0.0793  0.0608  0.4647
  245MOL0     C33702   3.792  10.844   0.881 -0.4842  0.6687 -0.1722
  245MOL0     O33703   3.880  10.741   0.927 -0.2734  0.1219  0.5238
  245MOL0     C33704   3.940  10.758   1.049 -0.3739  0.0302  0.1952
  245MOL0     C33705   3.873  10.802   1.164  0.0091 -0.4145 -0.1364
  245MOL0     C33706   3.934  10.805   1.284  0.0354  0.7522 -0.6952
  245MOL0     C33707   4.058  10.742   1.306 -0.1423 -0.3612 -0.2328
  245MOL0     O33708   4.089  10.730   1.437 -0.6146  0.4313  0.0642
  245MOL0     C33709   4.228  10.697   1.475 -0.1368  0.3010 -0.8260
  245MOL0     C33710   4.217  10.659   1.623  0.7094  0.6551  0.7055
  245MOL0     C33711   4.363  10.631   1.670 -0.1440 -0.2345 -0.2972
  245MOL0     C33712   4.388  10.632   1.825 -0.0893  0.5659 -0.4957
  245MOL0     C33713   4.325  10.749   1.902  1.2300 -0.4022  0.7892
  245MOL0     C33714   4.373  10.892   1.867 -0.1858 -0.7884  0.2608
  245MOL0     C33715   4.306  11.005   1.934 -0.6326 -0.0430  0.6316
  245MOL0     C33716   4.167  11.040   1.868  0.2112 -0.4699 -0.2490
  245MOL0    Cl33717   4.172  11.204   1.818 -0.5206 -0.1804  0.1535
  245MOL0     C33718   4.133  10.698   1.195 -0.0629  0.2388 -0.2134
  245MOL0     C33719   4.070  10.708   1.063 -0.1530 -0.6771 -0.3714
  245MOL0     O33720   3.808  10.961   0.901  0.2385  0.5536 -0.1219
  245MOL0     C33721   3.654  10.663   0.779  0.2488  0.1028 -1.0886
  245MOL0     C33722   3.549  10.625   0.705  0.9144  0.3801 -0.0013
  245MOL0     N33723   3.323  11.110   0.375 -0.4987  0.4160  0.1415
  245MOL0     N33724   3.396  11.216   0.408 -0.1359  0.0412 -0.0861
  245MOL0     C33725   4.309  11.154   1.253 -0.1066 -0.2175 -0.0606
  245MOL0     C33726   4.435  11.186   1.318 -0.3025 -0.6548  0.0521
  245MOL0     C33727   4.749  11.200   1.600 -0.4918 -0.6260  0.0952
  245MOL0     C33728   4.821  11.301   1.542 -0.0415  0.0623 -0.3988
  245MOL0     C33729   4.951  11.340   1.582 -1.3459  0.8056 -0.2940
  245MOL0     C33730   5.011  11.278   1.690  0.3424  0.5364 -0.1788
  245MOL0     O33731   5.128  11.327   1.733  0.0013 -0.5262  0.5208
  245MOL0     C33732   5.195  11.275   1.843 -0.3599 -0.9848 -0.9575
  245MOL0     C33733   5.336  11.342   1.862  0.2723  0.0620 -0.6357
  245MOL0     C33734   5.398  11.298   1.992  0.1718 -0.6037 -0.3258
  245MOL0     C33735   5.492  11.392   2.060 -0.3905 -0.8346  1.0058
  245MOL0     C33736   5.618  11.368   1.997 -0.9562  0.6830 -0.8110
  245MOL0     C33737   5.724  11.370   1.930 -0.6245  0.0381  0.0246
  245MOL0     C33738   4.935  11.179   1.748 -0.5748  0.4738  0.3328
  245MOL0     C33739   4.808  11.139   1.711 -0.5342 -0.5125 -0.2760
  245MOL0     C33740   4.731  11.055   1.810 -0.3275  0.5562  0.1448
  245MOL0     H33741   4.296  11.320   1.600  0.8414 -0.2372  0.6214
  245MOL0     H33742   4.082  11.293   1.458  0.3512  0.6970  3.1345
  245MOL0     H33743   3.933  11.316   1.281 -2.6947  0.5448  0.5467
  245MOL0     H33744   3.931  11.167   1.368  2.1454  1.6193  0.3392
  245MOL0     H33745   3.860  11.078   1.121  1.4122  1.2745 -2.4417
  245MOL0     H33746   3.738  11.166   1.213 -0.3147 -1.0821 -0.8433
  245MOL0     H33747   3.818  11.381   1.073  0.5963  1.4107 -3.3825
  245MOL0     H33748   3.882  11.254   0.966 -1.0552 -0.5839 -1.4294
  245MOL0     H33749   3.646  11.166   0.945  4.2003 -0.4910 -1.6383
  245MOL0     H33750   3.585  11.302   1.036 -2.9204 -1.3539 -3.3276
  245MOL0     H33751   3.730  11.334   0.767 -0.4498  3.8932  0.3485
  245MOL0     H33752   3.659  11.462   0.862 -4.3404  0.8544 -1.6908
  245MOL0     H33753   3.484  11.253   0.775 -1.2339  0.4012 -2.4066
  245MOL0     H33754   3.441  11.405   0.846 -0.8616  0.1590 -0.2999
  245MOL0     H33755   3.599  11.364   0.586  2.5732  2.5654 -0.3173
  245MOL0     H33756   3.539  11.522   0.644 -5.1506  1.2375  0.4501
  245MOL0     H33757   3.295  11.441   0.624 -1.8455  0.4082 -3.6019
  245MOL0     H33758   3.397  11.469   0.483  1.5440  0.9665  0.2870
  245MOL0     H33759   3.192  11.197   0.660 -0.1811 -1.8335 -0.0664
  245MOL0     H33760   3.074  11.022   0.387  2.6791  0.8243 -0.8636
  245MOL0     H33761   3.053  11.020   0.555  0.2467  1.3069 -0.4613
  245MOL0     H33762   3.069  10.795   0.441 -0.0190  0.4469 -0.1749
  245MOL0     H33763   3.248  10.829   0.414  0.7831  3.4007 -0.2543
  245MOL0     H33764   3.280  10.859   0.656 -0.9599  0.0764  3.0659
  245MOL0     H33765   3.123  10.793   0.689  2.1870 -0.6762  1.3053
  245MOL0     H33766   3.278  10.618   0.716  0.0016  0.7127 -1.2765
  245MOL0     H33767   3.191  10.589   0.562  0.7711 -1.1592 -0.5213
  245MOL0     H33768   3.490  10.900   0.525 -1.0877 -1.4027 -0.8687
  245MOL0     H33769   3.618  11.067   0.561  0.8892  1.9919  0.3662
  245MOL0     H33770   3.776  11.030   0.627  0.0434  0.4346  2.1621
  245MOL0     H33771   3.655  11.098   0.731  0.5599 -1.2628  0.8374
  245MOL0     H33772   3.767  10.823   1.157 -0.1001  1.6784  4.4872
  245MOL0     H33773   3.871  10.851   1.359 -3.5308  1.7279 -3.9604
  245MOL0     H33774   4.278  10.617   1.421  2.1125  0.9429  0.1617
  245MOL0     H33775   4.295  10.783   1.463  3.2513 -2.1896 -1.3884
  245MOL0     H33776   4.169  10.738   1.682 -0.1909  0.4503  0.2619
  245MOL0     H33777   4.158  10.567   1.626 -0.3518  1.2810 -0.0754
  245MOL0     H33778   4.420  10.717   1.632  1.6500 -0.5804  1.4646
  245MOL0     H33779   4.402  10.537   1.631 -1.9118 -1.8073  1.4893
  245MOL0     H33780   4.497  10.638   1.832  0.1240 -2.7392  0.9364
  245MOL0     H33781   4.359  10.534   1.864  1.2999  0.0504 -0.6806
  245MOL0     H33782   4.216  10.743   1.893  1.2498  0.1522  0.0754
  245MOL0     H33783   4.345  10.731   2.008  0.2729 -0.2767  1.0026
  245MOL0     H33784   4.389  10.914   1.761  2.5989  2.2150  1.1233
  245MOL0     H33785   4.473  10.896   1.912 -0.5268 -0.2866  1.0022
  245MOL0     H33786   4.375  11.090   1.938  1.2064 -1.3878 -0.6840
  245MOL0     H33787   4.288  10.980   2.040 -1.3552  3.8364  1.5600
  245MOL0     H33788   4.081  11.024   1.934 -0.7167  0.4975 -1.1750
  245MOL0     H33789   4.144  10.969   1.787 -1.2372 -2.0850  1.4740
  245MOL0     H33790   4.233  10.655   1.206  1.2496  3.6140  3.1237
  245MOL0     H33791   4.115  10.654   0.980  2.6607  0.9180 -0.0041
  245MOL0     H33792   3.687  10.596   0.858 -2.2579  0.4945  0.4140
  245MOL0     H33793   3.515  10.524   0.722 -0.2386  0.7673  0.0822
  245MOL0     H33794   4.320  11.103   1.158  0.3128  0.9705 -0.6657
  245MOL0     H33795   4.521  11.125   1.293 -0.8433 -1.0945 -0.7957
  245MOL0     H33796   4.775  11.355   1.460 -1.0871 -2.2423 -1.4253
  245MOL0     H33797   5.009  11.409   1.522  4.5538 -1.6740  1.8584
  245MOL0     H33798   5.139  11.303   1.932  1.6441  3.2353 -0.7773
  245MOL0     H33799   5.202  11.166   1.840 -1.1815 -1.4254  4.2402
  245MOL0     H33800   5.320  11.450   1.873 -1.2125 -0.2589  0.9065
  245MOL0     H33801   5.392  11.322   1.771  0.9904 -0.1236 -0.1565
  245MOL0     H33802   5.318  11.286   2.066  0.5953 -0.1927  0.2090
  245MOL0     H33803   5.440  11.197   1.989 -3.9361 -2.6364  1.6313
  245MOL0     H33804   5.505  11.366   2.165 -0.6062  0.7777  1.4565
  245MOL0     H33805   5.456  11.495   2.051  1.1104 -0.4048 -0.7301
  245MOL0     H33806   5.810  11.368   1.866  0.1572  2.6179  0.8606
  245MOL0     H33807   4.965  11.134   1.843  1.2033  2.1135  0.6021
  245MOL0     H33808   4.628  11.087   1.823  0.3427  2.2274  1.8058
  245MOL0     H33809   4.733  10.952   1.774  1.8264  0.1076  1.3852
  245MOL0     H33810   4.786  11.049   1.904  2.9613 -2.5763 -1.7264
  246MOL0     O33811   0.905   4.086  11.462 -0.5616 -0.7397  0.4230
  246MOL0     C33812   0.808   4.016  11.499 -0.0477  0.8213 -0.7490
  246MOL0     O33813   0.798   3.951  11.626  0.4636 -0.2261  0.0989
  246MOL0     C33814   0.912   3.966  11.699  0.2801 -0.9763 -0.1478
  246MOL0     C33815   1.002   3.861  11.694 -0.2891 -1.3994 -0.6008
  246MOL0     C33816   1.124   3.869  11.763  0.2763 -0.6361  0.0687
  246MOL0     C33817   1.153   3.993  11.838 -0.5781  0.2578  0.4375
  246MOL0     O33818   1.266   4.020  11.907 -0.2263 -0.4074  0.1977
  246MOL0     C33819   1.383   3.945  11.885 -0.5879  0.2216 -0.0612
  246MOL0     C33820   1.485   3.966  11.994  0.5994 -0.3872 -0.4797
  246MOL0     C33821   1.601   3.877  11.963 -0.6750 -0.1929  0.0643
  246MOL0     C33822   1.737   3.952  12.004 -0.0566 -0.9932 -0.0166
  246MOL0     C33823   1.860   3.853  12.023  0.2369  0.6410  0.4897
  246MOL0     C33824   2.004   3.909  12.005  0.2413 -0.3458 -0.1030
  246MOL0     C33825   2.061   3.911  11.863  0.8300 -0.1101  0.2757
  246MOL0     C33826   2.212   3.924  11.875 -0.6937  0.5824  0.5859
  246MOL0     N33827   2.265   3.935  11.738  0.4653  0.3014  0.2694
  246MOL0     C33828   2.279   3.824  11.652  0.6861 -0.5014  0.7748
  246MOL0     C33829   2.330   3.877  11.537  1.0754  0.2622 -0.4057
  246MOL0     C33830   2.393   3.796  11.428 -0.0810  0.4184 -0.2675
  246MOL0     C33831   2.280   3.708  11.377 -0.4908 -0.0027  0.1555
  246MOL0     C33832   2.320   3.638  11.247 -0.0743  0.2275  0.2528
  246MOL0     C33833   2.203   3.564  11.179 -0.8592  0.2692  0.1189
  246MOL0     O33834   2.133   3.482  11.269  0.6862  0.4935 -0.4955
  246MOL0     C33835   2.023   3.413  11.215  0.9360 -0.0433 -0.3444
  246MOL0     C33836   1.989   3.409  11.077 -0.2044 -0.2392  0.0986
  246MOL0     C33837   1.872   3.346  11.032 -0.2796  0.0567 -0.2149
  246MOL0     C33838   1.845   3.363  10.879 -0.2811 -0.3387  1.1546
  246MOL0     C33839   1.780   3.295  11.128  0.2245 -0.3933 -0.3990
  246MOL0     C33840   1.644   3.226  11.087 -0.9429 -0.8581  0.6824
  246MOL0     O33841   1.577   3.148  11.190 -0.0457  0.5714  0.0393
  246MOL0     C33842   1.465   3.066  11.174  0.2493  0.4048  0.3036
  246MOL0     C33843   1.442   2.997  11.056 -0.0192  0.7775  0.8638
  246MOL0     C33844   1.335   2.910  11.035  0.5562  0.3776 -0.2285
  246MOL0     C33845   1.242   2.883  11.137  0.1497 -0.0594 -0.7092
  246MOL0     O33846   1.135   2.803  11.106  0.0522 -0.0351 -0.8218
  246MOL0     C33847   1.031   2.789  11.206  0.0379  0.7387  0.5429
  246MOL0     C33848   0.914   2.717  11.143 -1.0331  0.8325  0.5695
  246MOL0     C33849   0.931   2.562  11.122  0.3096 -0.9031  0.1897
  246MOL0     C33850   0.839   2.511  11.013  0.2059 -1.2542 -0.1606
  246MOL0     C33851   0.875   2.366  10.974  0.2426 -0.4966 -0.2643
  246MOL0     C33852   0.784   2.310  10.864  0.2586  0.6117 -0.4159
  246MOL0     C33853   0.786   2.158  10.851 -0.8048 -1.5478  0.8431
  246MOL0     C33854   0.688   2.098  10.750  0.5251  0.6415 -0.7756
  246MOL0    Cl33855   0.525   2.179  10.757  0.5513 -0.2605  0.7978
  246MOL0     C33856   1.265   2.955  11.264  0.1892  0.1588  0.3572
  246MOL0     C33857   1.376   3.045  11.273 -0.4790 -0.3558 -0.0800
  246MOL0     O33858   1.605   3.250  10.974  0.0316 -0.3986  0.9082
  246MOL0     C33859   1.815   3.295  11.261 -0.1262  0.6062 -0.4863
  246MOL0     C33860   1.938   3.353  11.301  0.1330  0.5050 -0.2074
  246MOL0     N33861   2.335   4.013  11.558 -0.1296  0.0382 -0.8508
  246MOL0     N33862   2.304   4.049  11.680  0.6629  0.5901  0.3827
  246MOL0     C33863   1.052   4.093  11.841 -0.0343 -0.2485 -0.0560
  246MOL0     C33864   0.934   4.083  11.779 -0.0192  0.6706  0.7129
  246MOL0     C33865   0.702   4.004  11.388  0.0996  0.2033  0.4698
  246MOL0     C33866   0.714   4.080  11.267  0.2103  0.6883 -0.0995
  246MOL0     C33867   0.628   4.071  11.160  0.0097  0.9119 -1.7552
  246MOL0     C33868   0.514   3.995  11.181  0.3545  0.4989 -0.7458
  246MOL0     O33869   0.421   3.963  11.091 -0.5082 -0.1663 -0.8805
  246MOL0     C33870   0.430   4.004  10.956  0.3902 -0.4545  0.0311
  246MOL0     C33871   0.548   3.927  10.888  0.9743 -0.2241 -0.4349
  246MOL0     C33872   0.487   3.788  10.842 -0.9237  0.4758  0.2998
  246MOL0     C33873   0.591   3.681  10.787  0.2475 -0.6431  0.3447
  246MOL0     C33874   0.518   3.560  10.768 -0.2384  0.2696 -1.1302
  246MOL0     C33875   0.452   3.457  10.754 -0.4607  0.0141 -0.0403
  246MOL0     C33876   0.490   3.925  11.299  0.5528  0.1702  0.2680
  246MOL0     C33877   0.578   3.933  11.411 -0.1982 -0.4202 -0.1792
  246MOL0     C33878   0.538   3.877  11.540 -0.2302  0.4240 -0.5063
  246MOL0     H33879   0.973   3.771  11.642 -4.4085 -1.7950  1.9280
  246MOL0     H33880   1.199   3.791  11.757  0.4207 -0.3927 -1.5553
  246MOL0     H33881   1.430   3.969  11.789 -0.9757  0.4924 -0.1876
  246MOL0     H33882   1.341   3.843  11.883 -1.6034  0.5652 -3.3309
  246MOL0     H33883   1.515   4.071  11.995 -1.2719  0.1788  0.7517
  246MOL0     H33884   1.443   3.953  12.094 -1.8642  2.1414 -1.0477
  246MOL0     H33885   1.598   3.783  12.020  3.3683 -1.9694 -2.2379
  246MOL0     H33886   1.614   3.854  11.857  2.9756  0.9648  0.1272
  246MOL0     H33887   1.777   4.018  11.927  1.3077 -0.9557  0.6868
  246MOL0     H33888   1.722   4.012  12.094 -1.7768 -0.3078 -0.7161
  246MOL0     H33889   1.853   3.779  11.942  1.1950  0.0876  0.8975
  246MOL0     H33890   1.858   3.801  12.119 -0.4566  2.3248  1.4380
  246MOL0     H33891   2.010   4.006  12.055  0.8420 -0.6636  0.4594
  246MOL0     H33892   2.064   3.851  12.076 -1.2693  0.8448  2.2445
  246MOL0     H33893   2.007   3.993  11.814 -2.0327 -0.7659  2.0728
  246MOL0     H33894   2.044   3.818  11.807  1.6869  1.2725 -2.4370
  246MOL0     H33895   2.235   4.016  11.930 -0.3388  0.1020  1.2527
  246MOL0     H33896   2.248   3.829  11.915  0.2898  0.2688 -0.9617
  246MOL0     H33897   2.277   3.719  11.677 -0.5994 -0.6098  0.3119
  246MOL0     H33898   2.469   3.738  11.480  1.2788  3.0736  0.8851
  246MOL0     H33899   2.441   3.862  11.354  1.4994 -1.6303 -1.1617
  246MOL0     H33900   2.259   3.627  11.448  0.0264  1.4949  2.0885
  246MOL0     H33901   2.196   3.777  11.366 -1.7879 -1.6396 -0.7690
  246MOL0     H33902   2.362   3.712  11.179  1.2737 -1.7423 -1.1811
  246MOL0     H33903   2.403   3.572  11.274 -0.3727  0.9556  3.2727
  246MOL0     H33904   2.132   3.629  11.127 -2.4784 -2.8456 -1.8795
  246MOL0     H33905   2.257   3.503  11.107 -2.1323 -0.6527 -0.1027
  246MOL0     H33906   2.049   3.458  11.001 -4.6342  0.5889 -3.2879
  246MOL0     H33907   1.814   3.276  10.820  3.1658  0.7927 -2.8628
  246MOL0     H33908   1.935   3.402  10.831 -1.1964 -0.4546 -0.7705
  246MOL0     H33909   1.767   3.439  10.879 -0.5364 -0.5991  1.3636
  246MOL0     H33910   1.509   3.010  10.972 -0.8775  2.2906  0.3886
  246MOL0     H33911   1.318   2.862  10.939  2.1643 -0.2284 -0.2306
  246MOL0     H33912   1.050   2.735  11.299 -2.0027  1.8942  1.7267
  246MOL0     H33913   1.011   2.896  11.220  1.2228  0.9110  0.9944
  246MOL0     H33914   0.821   2.731  11.197 -0.8667  0.7458  0.8840
  246MOL0     H33915   0.894   2.760  11.044  0.7350  1.3224  0.3842
  246MOL0     H33916   0.911   2.514  11.218 -0.1830 -0.0108  0.5481
  246MOL0     H33917   1.033   2.544  11.085  1.4666 -1.0369  3.1387
  246MOL0     H33918   0.848   2.571  10.922  0.7932  0.8981  1.2519
  246MOL0     H33919   0.734   2.523  11.041  0.1788  0.2277 -0.8209
  246MOL0     H33920   0.980   2.366  10.944  0.5211  2.6649  0.3783
  246MOL0     H33921   0.870   2.318  11.072 -1.0439 -0.1209 -0.1140
  246MOL0     H33922   0.822   2.349  10.769 -1.2966  3.0391 -0.1163
  246MOL0     H33923   0.686   2.358  10.876 -0.5646 -0.5231 -2.2244
  246MOL0     H33924   0.777   2.119  10.953  0.6117 -0.6897  1.3309
  246MOL0     H33925   0.887   2.133  10.818 -0.8213 -0.7822  0.2126
  246MOL0     H33926   0.683   1.991  10.773  3.4359  1.1750  3.4338
  246MOL0     H33927   0.725   2.122  10.650 -1.5814  1.2038 -1.4701
  246MOL0     H33928   1.198   2.963  11.349 -2.1715 -3.0070 -0.9817
  246MOL0     H33929   1.378   3.101  11.366 -1.9413  1.3659 -1.0221
  246MOL0     H33930   1.743   3.255  11.332 -0.1968 -3.2141 -2.4605
  246MOL0     H33931   1.962   3.341  11.406 -0.1034 -0.7453 -0.2731
  246MOL0     H33932   1.075   4.180  11.902 -0.5082 -1.0449  1.3290
  246MOL0     H33933   0.863   4.166  11.776  0.7508  1.3362  0.5246
  246MOL0     H33934   0.797   4.147  11.249 -0.5710  1.0350 -2.9388
  246MOL0     H33935   0.636   4.138  11.075 -1.6449  2.7088 -0.5832
  246MOL0     H33936   0.335   3.983  10.907 -1.1221  2.3573  1.5134
  246MOL0     H33937   0.444   4.112  10.944  1.4082 -0.5112  0.5504
  246MOL0     H33938   0.637   3.920  10.951  0.8287 -1.6234 -0.3593
  246MOL0     H33939   0.581   3.990  10.804  0.3963 -0.3727 -0.7809
  246MOL0     H33940   0.447   3.743  10.933 -3.1182  1.2488 -0.2317
  246MOL0     H33941   0.412   3.807  10.766  1.6149  1.2237 -2.2072
  246MOL0     H33942   0.665   3.678  10.867  1.8999  1.5786 -0.9828
  246MOL0     H33943   0.625   3.726  10.693  0.7379 -1.9993 -0.1488
  246MOL0     H33944   0.402   3.363  10.742 -0.7729 -0.0798  1.7016
  246MOL0     H33945   0.397   3.871  11.301  0.5995  0.0127 -0.8749
  246MOL0     H33946   0.614   3.803  11.564 -1.4399 -0.6124  0.2797
  246MOL0     H33947   0.522   3.951  11.619 -2.3886 -2.6692  2.2368
  246MOL0     H33948   0.442   3.827  11.524 -0.0211 -0.0382 -0.3353
  247MOL0     O33949   1.726  11.404   1.425 -0.2563  0.1190 -0.1047
  247MOL0     C33950   1.805  11.310   1.425 -0.5357  0.0146 -0.6897
  247MOL0     O33951   1.917  11.306   1.497 -0.1234 -0.7519 -0.2276
  247MOL0     C33952   1.967  11.425   1.539  1.1974  0.0085 -0.4489
  247MOL0     C33953   1.984  11.451   1.682  0.3164  0.5538 -0.6499
  247MOL0     C33954   2.034  11.577   1.721 -0.0868 -0.5026 -1.1701
  247MOL0     C33955   2.063  11.679   1.631  0.2519 -0.2875 -0.5087
  247MOL0     O33956   2.125  11.785   1.686 -0.1480 -0.0946  0.3191
  247MOL0     C33957   2.133  11.909   1.604 -0.4401 -0.0656  0.4715
  247MOL0     C33958   2.261  11.904   1.517  0.2687  0.2173 -0.6171
  247MOL0     C33959   2.380  11.828   1.574 -0.1436  0.2063  0.0085
  247MOL0     C33960   2.515  11.872   1.502  0.0926  0.3678 -0.2681
  247MOL0     C33961   2.636  11.789   1.515 -0.4457 -0.0452 -1.0621
  247MOL0     C33962   2.778  11.856   1.510  0.0029 -0.7815  0.6105
  247MOL0     C33963   2.883  11.747   1.526  0.2516 -0.0987 -0.4384
  247MOL0     C33964   2.876  11.673   1.661  0.9906 -0.5935 -0.6454
  247MOL0     N33965   2.843  11.533   1.650 -0.0713  0.0252 -0.6267
  247MOL0     C33966   2.757  11.476   1.566  0.1892 -0.1421 -0.0084
  247MOL0     C33967   2.753  11.354   1.606  0.8152 -0.1432  0.6930
  247MOL0     C33968   2.667  11.242   1.536 -0.2947 -0.6295  0.3873
  247MOL0     C33969   2.703  11.232   1.380  0.4559 -0.8309  0.6586
  247MOL0     C33970   2.843  11.260   1.342  0.2046 -0.2695 -0.1202
  247MOL0     C33971   2.902  11.214   1.209 -0.2534  0.1431 -0.0729
  247MOL0     O33972   2.799  11.180   1.111  0.0538 -0.3825  0.0298
  247MOL0     C33973   2.738  11.282   1.036 -0.6930  0.1103  0.7008
  247MOL0     C33974   2.763  11.422   1.045 -0.4520  0.4251 -0.1606
  247MOL0     C33975   2.696  11.522   0.974 -0.3672 -0.2412  1.2818
  247MOL0     C33976   2.724  11.667   0.992  0.8811 -0.5032  0.0427
  247MOL0     C33977   2.589  11.475   0.885 -0.1382 -0.1576 -0.9270
  247MOL0     C33978   2.499  11.562   0.804 -0.0711  0.0317 -0.9259
  247MOL0     O33979   2.398  11.504   0.747 -0.2945  0.0436  0.2720
  247MOL0     C33980   2.310  11.563   0.655 -0.4596  0.2096 -0.3833
  247MOL0     C33981   2.275  11.697   0.679 -0.4997 -0.4670 -0.9837
  247MOL0     C33982   2.179  11.758   0.600 -0.7044 -0.4142 -0.6231
  247MOL0     C33983   2.112  11.685   0.499 -0.9126  0.9116 -0.2109
  247MOL0     O33984   2.018  11.748   0.426  0.2849  0.5155  0.3396
  247MOL0     C33985   1.898  11.669   0.394 -0.5663 -0.2536 -0.3238
  247MOL0     C33986   1.882  11.636   0.246 -0.4274 -1.1561 -0.1762
  247MOL0     C33987   1.845  11.766   0.172 -0.7425  0.1067  0.2487
  247MOL0     C33988   1.792  11.724   0.032 -0.1167 -0.1293 -0.0215
  247MOL0     C33989   1.794  11.847  -0.062  0.2212  0.1344 -0.0468
  247MOL0     C33990   1.700  11.962  -0.015  0.0510 -0.9987  0.7930
  247MOL0     C33991   1.616  12.012  -0.134 -0.4677 -0.4906 -0.2846
  247MOL0     C33992   1.519  12.131  -0.096 -1.1912  0.0540 -0.3492
  247MOL0    Cl33993   1.622  12.285  -0.052  0.2193 -0.1292 -0.0007
  247MOL0     C33994   2.144  11.551   0.480  0.4451 -0.4396  0.8884
  247MOL0     C33995   2.247  11.492   0.556  0.1396 -0.3913  0.0837
  247MOL0     O33996   2.554  11.667   0.772 -0.3781 -0.2834  0.0481
  247MOL0     C33997   2.570  11.335   0.877  0.9471  0.5402  0.8727
  247MOL0     C33998   2.637  11.244   0.952  0.4926 -0.1943 -0.3404
  247MOL0     N33999   2.834  11.324   1.716 -0.8132 -0.7076  1.0153
  247MOL0     N34000   2.886  11.442   1.738  0.0453 -0.2033 -0.5084
  247MOL0     C34001   2.036  11.657   1.492  0.1734 -0.2222 -0.3606
  247MOL0     C34002   1.989  11.532   1.449  0.6003 -0.5936 -0.0335
  247MOL0     C34003   1.753  11.187   1.364  0.0755 -0.0336 -0.1943
  247MOL0     C34004   1.613  11.159   1.371  0.4853 -0.0106  0.1075
  247MOL0     C34005   1.559  11.043   1.320 -0.4409  0.4600  0.0518
  247MOL0     C34006   1.647  10.950   1.253 -0.3302  0.1513 -1.5259
  247MOL0     O34007   1.613  10.825   1.204 -0.2358 -1.2372  0.0517
  247MOL0     C34008   1.501  10.754   1.262 -0.0198  0.4682  0.8657
  247MOL0     C34009   1.382  10.761   1.168  0.0232 -0.5132  0.2915
  247MOL0     C34010   1.250  10.696   1.211 -0.1705  0.4733  0.2270
  247MOL0     C34011   1.201  10.753   1.350  1.3098 -0.7501 -0.4313
  247MOL0     C34012   1.175  10.899   1.356  0.3191 -0.1156 -0.4641
  247MOL0     C34013   1.135  11.015   1.366 -0.2959  0.0252  0.3611
  247MOL0     C34014   1.782  10.985   1.239 -0.0117 -0.4183 -0.2550
  247MOL0     C34015   1.838  11.103   1.290 -0.4513  0.5592 -1.1399
  247MOL0     C34016   1.987  11.143   1.260  0.5942  0.6008  0.0763
  247MOL0     H34017   1.971  11.365   1.746  3.4948 -0.5325 -1.3042
  247MOL0     H34018   2.059  11.599   1.824 -2.7791 -1.3684 -0.2500
  247MOL0     H34019   2.154  11.999   1.661 -1.3071  2.4305 -2.8134
  247MOL0     H34020   2.044  11.917   1.541 -0.1838 -2.5021 -0.2970
  247MOL0     H34021   2.239  11.855   1.422  2.6592 -2.0999 -0.1047
  247MOL0     H34022   2.295  12.008   1.506 -0.9191  0.8293  1.1390
  247MOL0     H34023   2.392  11.843   1.682  1.2754  2.7101 -0.4133
  247MOL0     H34024   2.369  11.720   1.559  0.3805 -0.2504  2.4347
  247MOL0     H34025   2.496  11.897   1.398 -0.2404 -1.7755 -0.7502
  247MOL0     H34026   2.543  11.965   1.554  0.5019 -0.3586  0.8475
  247MOL0     H34027   2.618  11.719   1.433 -2.0822  0.9519 -1.6092
  247MOL0     H34028   2.627  11.732   1.608 -0.1526 -0.8246 -1.5010
  247MOL0     H34029   2.781  11.887   1.405  0.5411  0.1518  0.8941
  247MOL0     H34030   2.793  11.938   1.580  0.1627 -1.1360  0.9930
  247MOL0     H34031   2.982  11.792   1.522 -0.1792  0.9565  0.1591
  247MOL0     H34032   2.871  11.670   1.449 -2.1102 -2.0478  1.6984
  247MOL0     H34033   2.971  11.696   1.710  1.1810 -1.8377 -0.3911
  247MOL0     H34034   2.804  11.714   1.733  1.7675 -2.6799  1.4674
  247MOL0     H34035   2.696  11.517   1.486 -2.3272 -0.0423  1.8341
  247MOL0     H34036   2.559  11.261   1.543 -0.5292 -2.0514  1.1854
  247MOL0     H34037   2.674  11.143   1.583 -0.9179 -0.9241 -0.1311
  247MOL0     H34038   2.693  11.127   1.350  1.0187 -0.7250  0.0496
  247MOL0     H34039   2.636  11.297   1.323  1.8176 -0.2996 -0.4203
  247MOL0     H34040   2.862  11.368   1.348  0.6985 -0.4395  2.5966
  247MOL0     H34041   2.895  11.209   1.424 -4.3318 -1.9247  2.0303
  247MOL0     H34042   2.980  11.280   1.169 -0.9306  0.0818 -1.5309
  247MOL0     H34043   2.953  11.120   1.234 -2.3330 -0.4913  2.2283
  247MOL0     H34044   2.828  11.461   1.123  1.5694  0.6667 -1.8745
  247MOL0     H34045   2.758  11.723   0.904  1.0513 -0.8040 -0.0830
  247MOL0     H34046   2.803  11.677   1.067  1.7493 -0.3200 -0.8762
  247MOL0     H34047   2.637  11.719   1.034  0.4585 -2.4389  1.7047
  247MOL0     H34048   2.314  11.744   0.769 -2.4099 -2.0284  0.7434
  247MOL0     H34049   2.149  11.859   0.623 -0.1814  0.7109 -4.1628
  247MOL0     H34050   1.895  11.585   0.464 -2.1433  0.0568  0.0083
  247MOL0     H34051   1.814  11.726   0.433  0.3811 -0.8728  2.9328
  247MOL0     H34052   1.978  11.596   0.210  0.6239  1.0603 -0.0156
  247MOL0     H34053   1.801  11.563   0.240  0.3224 -1.8861 -3.1343
  247MOL0     H34054   1.931  11.833   0.158 -2.3627  1.8092 -2.6223
  247MOL0     H34055   1.771  11.821   0.231  1.5306  1.3536  2.0740
  247MOL0     H34056   1.692  11.679   0.026 -0.6376  1.2131 -2.9882
  247MOL0     H34057   1.855  11.644  -0.008 -0.5092  0.3720 -1.6915
  247MOL0     H34058   1.900  11.875  -0.070  1.3077 -3.5852 -0.4470
  247MOL0     H34059   1.761  11.820  -0.162 -1.5031 -0.6641  0.7016
  247MOL0     H34060   1.759  12.044   0.026 -1.9697  0.4080  1.0243
  247MOL0     H34061   1.624  11.929   0.056 -2.2557  0.0256 -1.0221
  247MOL0     H34062   1.544  11.938  -0.170 -1.1514 -0.9013  1.8346
  247MOL0     H34063   1.682  12.046  -0.215 -1.8639 -0.0845 -1.2862
  247MOL0     H34064   1.448  12.095  -0.020 -1.7582 -1.3567 -1.4964
  247MOL0     H34065   1.455  12.151  -0.183 -0.3150  0.1122 -0.9941
  247MOL0     H34066   2.092  11.493   0.404 -1.3972  0.3601  1.4944
  247MOL0     H34067   2.268  11.386   0.545 -2.8266 -1.1830  1.2271
  247MOL0     H34068   2.497  11.307   0.801  1.5455  1.3168 -0.0150
  247MOL0     H34069   2.629  11.136   0.954  2.1275 -0.3414  0.5660
  247MOL0     H34070   2.048  11.739   1.421  2.3826 -0.2066 -0.0413
  247MOL0     H34071   1.974  11.532   1.341 -0.7635  2.1171  0.0505
  247MOL0     H34072   1.543  11.208   1.436 -0.4331 -1.5160  0.2940
  247MOL0     H34073   1.454  11.016   1.324 -0.7006  1.4762  0.2500
  247MOL0     H34074   1.522  10.647   1.272  0.0563  0.3943 -0.0059
  247MOL0     H34075   1.476  10.786   1.364 -0.8710 -1.6081  1.3761
  247MOL0     H34076   1.425  10.712   1.079 -2.7204 -1.0806 -0.8411
  247MOL0     H34077   1.363  10.865   1.140  1.1967 -0.2743  0.3136
  247MOL0     H34078   1.175  10.699   1.132 -0.6406 -0.2797  0.6384
  247MOL0     H34079   1.266  10.591   1.239  0.3983  1.3273  3.4782
  247MOL0     H34080   1.275  10.730   1.427  1.1642 -0.6161 -0.2508
  247MOL0     H34081   1.108  10.705   1.383  1.5081 -0.3488  0.7316
  247MOL0     H34082   1.087  11.111   1.370  1.6516  1.0572  0.4590
  247MOL0     H34083   1.833  10.913   1.175 -0.8902 -0.8839 -0.4550
  247MOL0     H34084   2.038  11.076   1.190  0.6109 -0.0823  0.7187
  247MOL0     H34085   1.988  11.238   1.206 -0.7978  0.1220 -0.8654
  247MOL0     H34086   2.040  11.145   1.356  2.8112  1.3364 -1.0887
  248MOL0     O34087   5.151   8.126   4.620 -1.0823 -0.0843  0.2889
  248MOL0     C34088   5.067   8.199   4.592  0.0407  0.4281 -0.3221
  248MOL0     O34089   4.990   8.253   4.689 -0.0195 -0.1949  0.3949
  248MOL0     C34090   5.002   8.237   4.825 -0.3908  0.6552 -0.9714
  248MOL0     C34091   5.121   8.282   4.881 -0.4765  0.1800  0.1836
  248MOL0     C34092   5.150   8.262   5.013  0.9194  0.0794 -0.4883
  248MOL0     C34093   5.053   8.214   5.109  0.3685 -0.3505  0.4757
  248MOL0     O34094   5.063   8.216   5.246 -0.1300 -0.1839  0.0912
  248MOL0     C34095   5.186   8.233   5.310  0.3022  0.2486  0.4956
  248MOL0     C34096   5.185   8.382   5.379 -0.0960  0.3905  0.5533
  248MOL0     C34097   5.270   8.482   5.285 -0.5229  0.3121 -0.0586
  248MOL0     C34098   5.292   8.615   5.359  0.2003  0.3955  0.2754
  248MOL0     C34099   5.420   8.690   5.311 -0.1879 -0.0638 -0.1871
  248MOL0     C34100   5.451   8.823   5.383  0.8409 -0.0916  0.9347
  248MOL0     C34101   5.348   8.926   5.350  0.6530 -0.2921  0.6603
  248MOL0     C34102   5.374   9.055   5.443 -0.3335 -0.2450 -0.3323
  248MOL0     N34103   5.263   9.140   5.408  0.6200 -0.2138  0.0387
  248MOL0     C34104   5.141   9.134   5.475 -0.1952  0.7826  0.6887
  248MOL0     C34105   5.067   9.227   5.405 -0.1323  0.8075 -0.0010
  248MOL0     C34106   4.944   9.288   5.449  0.3460  0.0046 -0.4813
  248MOL0     C34107   4.973   9.365   5.584  0.4515 -0.3454 -0.0216
  248MOL0     C34108   5.054   9.491   5.556  0.3477 -0.6449 -0.4977
  248MOL0     C34109   5.205   9.485   5.542 -0.1213  0.7468 -0.1438
  248MOL0     O34110   5.250   9.424   5.663  0.3949 -0.1584 -0.0061
  248MOL0     C34111   5.368   9.358   5.647  0.3195  0.2641 -0.5855
  248MOL0     C34112   5.466   9.374   5.548  0.1201  0.3254  0.5207
  248MOL0     C34113   5.587   9.307   5.555 -0.3307  0.6380  0.2539
  248MOL0     C34114   5.688   9.325   5.441  0.6896 -0.5457 -0.3972
  248MOL0     C34115   5.613   9.205   5.662 -0.2258 -0.1898  0.3566
  248MOL0     C34116   5.734   9.113   5.655  0.0029 -0.3815 -0.3512
  248MOL0     O34117   5.751   9.045   5.536  0.2754 -0.2508  0.1085
  248MOL0     C34118   5.874   8.991   5.509 -0.4617 -0.4509  0.2719
  248MOL0     C34119   5.993   9.028   5.575  0.2318  0.2669  0.4833
  248MOL0     C34120   6.122   8.968   5.549 -0.1160 -1.0730 -0.2011
  248MOL0     C34121   6.126   8.851   5.470  0.2638  0.7949 -0.1422
  248MOL0     O34122   6.236   8.781   5.437 -0.3280  0.0094  0.6381
  248MOL0     C34123   6.351   8.797   5.516 -0.5314  0.6882 -0.0217
  248MOL0     C34124   6.413   8.660   5.546 -0.4617  0.5071 -0.5033
  248MOL0     C34125   6.559   8.669   5.595 -0.1790  0.2181 -0.1894
  248MOL0     C34126   6.611   8.544   5.642 -0.4679  0.5623  0.0470
  248MOL0     C34127   6.606   8.427   5.540  0.7276  0.1401 -0.6146
  248MOL0     C34128   6.653   8.293   5.603 -0.1530  0.0439  0.1520
  248MOL0     C34129   6.643   8.177   5.498  0.4720  0.9725  0.6534
  248MOL0     C34130   6.649   8.032   5.568  0.1701  0.7745 -0.8705
  248MOL0    Cl34131   6.689   7.922   5.438 -0.3219  0.1067  0.2449
  248MOL0     C34132   6.010   8.817   5.407 -0.4527 -0.2702  1.5031
  248MOL0     C34133   5.891   8.890   5.416  0.7312 -0.4718  0.0062
  248MOL0     O34134   5.787   9.084   5.759  0.1064  0.3316  0.3939
  248MOL0     C34135   5.509   9.194   5.754  0.2860  0.3995 -0.0328
  248MOL0     C34136   5.390   9.265   5.742 -0.0208 -0.7534 -0.6256
  248MOL0     N34137   5.136   9.268   5.291  1.5616 -0.4064  0.7069
  248MOL0     N34138   5.250   9.222   5.299 -0.2953  0.1214 -0.4796
  248MOL0     C34139   4.936   8.173   5.049  0.6261  0.0050 -0.1278
  248MOL0     C34140   4.906   8.176   4.908 -0.3829  0.3056  0.9759
  248MOL0     C34141   5.036   8.254   4.455  0.2991 -0.4860 -0.3889
  248MOL0     C34142   4.927   8.342   4.443 -0.3670 -0.0449 -0.2789
  248MOL0     C34143   4.883   8.390   4.314 -0.1596  0.0304 -0.3250
  248MOL0     C34144   4.949   8.354   4.200 -0.2643  0.7866 -0.6804
  248MOL0     O34145   4.908   8.399   4.083  0.6895 -0.2303 -0.6978
  248MOL0     C34146   4.995   8.466   3.992 -0.3256  0.9146  0.2590
  248MOL0     C34147   4.916   8.505   3.870  0.3704  0.1931 -0.3400
  248MOL0     C34148   4.810   8.601   3.921  0.5594 -0.2151  0.5748
  248MOL0     C34149   4.723   8.656   3.796 -0.7543  0.7175 -0.3744
  248MOL0     C34150   4.673   8.553   3.705 -0.8667 -0.3780  0.4295
  248MOL0     C34151   4.654   8.458   3.632  1.2364  0.5526 -0.5979
  248MOL0     C34152   5.066   8.270   4.210  0.4538 -0.5761  0.3980
  248MOL0     C34153   5.112   8.227   4.340  0.8050 -0.6560  0.3841
  248MOL0     C34154   5.247   8.149   4.340 -0.1273  0.6206  0.2569
  248MOL0     H34155   5.194   8.329   4.816 -1.7289  0.2688 -1.2218
  248MOL0     H34156   5.244   8.295   5.057  0.1955 -0.4555  1.5745
  248MOL0     H34157   5.268   8.218   5.239 -1.8842  1.3651 -2.4398
  248MOL0     H34158   5.194   8.152   5.383 -0.4039 -2.7000 -2.4542
  248MOL0     H34159   5.083   8.415   5.399 -0.3107 -0.7251  1.3635
  248MOL0     H34160   5.236   8.371   5.475  0.3113 -0.5220  0.2391
  248MOL0     H34161   5.365   8.444   5.248 -0.8015 -1.0274  0.5447
  248MOL0     H34162   5.218   8.505   5.192 -3.0059 -1.5393  0.7572
  248MOL0     H34163   5.201   8.671   5.338 -2.3982 -3.3263  0.7271
  248MOL0     H34164   5.312   8.594   5.464  3.0310  0.8757 -0.0761
  248MOL0     H34165   5.422   8.710   5.203 -0.1940  0.7743 -0.0344
  248MOL0     H34166   5.501   8.619   5.331 -1.0467 -1.7082 -2.1676
  248MOL0     H34167   5.452   8.796   5.489  0.0736 -2.1403  0.4613
  248MOL0     H34168   5.548   8.859   5.349  1.4153 -2.2970  0.0718
  248MOL0     H34169   5.244   8.894   5.359  1.0549 -1.7292  0.4187
  248MOL0     H34170   5.356   8.970   5.250 -1.8387 -0.3880  0.3629
  248MOL0     H34171   5.370   9.032   5.550 -3.1892 -1.9452 -0.7023
  248MOL0     H34172   5.471   9.099   5.419 -0.1001 -0.2158  0.6411
  248MOL0     H34173   5.126   9.082   5.569  2.0063  0.5073  0.9437
  248MOL0     H34174   4.869   9.209   5.453  1.5242 -1.1352 -0.0017
  248MOL0     H34175   4.909   9.362   5.376 -2.1653  1.7484  2.2837
  248MOL0     H34176   4.878   9.403   5.623  0.6717 -0.9832  1.1799
  248MOL0     H34177   5.019   9.300   5.659  1.2229  1.3102  0.9934
  248MOL0     H34178   5.017   9.553   5.474  1.5669  0.6331 -0.1248
  248MOL0     H34179   5.047   9.555   5.644  4.1828  0.5109 -0.8837
  248MOL0     H34180   5.248   9.451   5.448  0.9634  0.6749  0.3690
  248MOL0     H34181   5.233   9.591   5.549 -0.7376  0.9661 -0.7944
  248MOL0     H34182   5.461   9.456   5.478 -2.3335  1.3124  1.7209
  248MOL0     H34183   5.684   9.232   5.384  0.8778 -1.2325  0.6794
  248MOL0     H34184   5.787   9.343   5.484 -1.0129 -0.8156  4.2128
  248MOL0     H34185   5.664   9.411   5.377 -2.4157  2.4555  4.2273
  248MOL0     H34186   5.998   9.104   5.652  0.2057  1.1529 -0.3650
  248MOL0     H34187   6.212   8.999   5.601  1.0379 -2.0393 -1.5513
  248MOL0     H34188   6.422   8.853   5.454 -1.4175  0.4464 -1.2871
  248MOL0     H34189   6.339   8.850   5.611  3.4283 -2.8210  2.8050
  248MOL0     H34190   6.351   8.615   5.624  0.9869 -0.2761  0.2320
  248MOL0     H34191   6.415   8.597   5.457  0.8095  1.3638 -1.1122
  248MOL0     H34192   6.558   8.737   5.681  0.6978 -0.1899  0.1514
  248MOL0     H34193   6.625   8.706   5.516 -0.0424  2.2106  0.7826
  248MOL0     H34194   6.559   8.511   5.733 -4.8252 -2.9020 -3.2402
  248MOL0     H34195   6.713   8.570   5.673 -0.5846  1.2865 -0.1619
  248MOL0     H34196   6.502   8.415   5.509  0.8706  1.2031 -1.5462
  248MOL0     H34197   6.670   8.444   5.454  0.7885  1.1011 -0.3915
  248MOL0     H34198   6.588   8.269   5.688 -2.6644 -0.6734 -1.8379
  248MOL0     H34199   6.759   8.310   5.620 -0.2300  2.2403 -1.3041
  248MOL0     H34200   6.725   8.174   5.426  0.6490  0.7073  0.8633
  248MOL0     H34201   6.552   8.191   5.439  0.9853 -0.4825 -0.5600
  248MOL0     H34202   6.556   7.996   5.613 -0.0070  0.9510 -1.0916
  248MOL0     H34203   6.723   8.033   5.648 -0.9640 -1.8376  0.3372
  248MOL0     H34204   6.013   8.729   5.343  0.4039  1.5392 -1.1215
  248MOL0     H34205   5.800   8.857   5.368  0.4338 -0.9993  0.9221
  248MOL0     H34206   5.529   9.126   5.836 -0.3424 -1.1751 -1.1179
  248MOL0     H34207   5.318   9.247   5.822 -0.2462  3.2575  0.3071
  248MOL0     H34208   4.850   8.126   5.096 -1.2876  0.0156 -3.3055
  248MOL0     H34209   4.808   8.151   4.869  0.4436 -2.2699  0.3350
  248MOL0     H34210   4.871   8.378   4.528  2.1202  0.5690  1.2036
  248MOL0     H34211   4.786   8.437   4.308 -1.0411 -1.7588 -0.6445
  248MOL0     H34212   5.034   8.559   4.033 -1.8004  1.1447  1.2170
  248MOL0     H34213   5.084   8.406   3.970 -1.4520 -0.1113 -1.6689
  248MOL0     H34214   4.872   8.414   3.827  3.0064 -1.6628  0.5828
  248MOL0     H34215   4.972   8.558   3.793  0.5216  0.7747  0.1689
  248MOL0     H34216   4.732   8.560   3.985  0.0233  0.5838  0.4484
  248MOL0     H34217   4.858   8.688   3.966 -3.9497  3.4351 -0.9031
  248MOL0     H34218   4.799   8.713   3.741  0.2294 -1.2764 -1.2045
  248MOL0     H34219   4.635   8.715   3.824 -0.4725  1.1240 -0.3307
  248MOL0     H34220   4.645   8.370   3.573  1.9425  0.0532  0.0162
  248MOL0     H34221   5.119   8.239   4.121 -0.0577  3.8038 -1.6993
  248MOL0     H34222   5.307   8.184   4.255 -1.3354  2.0330 -0.0369
  248MOL0     H34223   5.296   8.171   4.435  1.4181 -1.6033  0.0783
  248MOL0     H34224   5.235   8.040   4.328  2.2698  0.1978  1.1940
  249MOL0     O34225   9.565  10.012   4.995 -0.3197 -0.1985  0.0635
  249MOL0     C34226   9.444  10.005   4.971 -0.7360 -0.6215  0.7215
  249MOL0     O34227   9.335  10.017   5.060 -0.0196  1.1723  0.2145
  249MOL0     C34228   9.363   9.975   5.189 -0.6798  0.3873  0.1176
  249MOL0     C34229   9.293  10.041   5.290 -1.0035 -0.7193 -0.2111
  249MOL0     C34230   9.307  10.002   5.426 -0.0435 -0.9441  0.3363
  249MOL0     C34231   9.403   9.906   5.460  0.0690  0.6463 -1.0230
  249MOL0     O34232   9.444   9.876   5.592 -0.3559 -0.4076 -0.1116
  249MOL0     C34233   9.380   9.952   5.691  0.2400 -0.6500 -1.0101
  249MOL0     C34234   9.422   9.887   5.825 -0.2495  0.7783 -0.5080
  249MOL0     C34235   9.364   9.747   5.862  0.4179 -1.1249  0.5112
  249MOL0     C34236   9.388   9.723   6.005  0.2187  0.4406  0.6675
  249MOL0     C34237   9.349   9.584   6.064  1.1387 -0.0794  0.3839
  249MOL0     C34238   9.425   9.465   6.003  0.0739 -0.0976 -0.3091
  249MOL0     C34239   9.429   9.344   6.096  0.0320  0.6816  0.1197
  249MOL0     C34240   9.542   9.357   6.197  0.1443 -0.3497 -0.6224
  249MOL0     N34241   9.580   9.225   6.243 -0.7693 -0.8534  0.2609
  249MOL0     C34242   9.697   9.158   6.207  0.9746 -0.5298 -0.3148
  249MOL0     C34243   9.669   9.030   6.242 -0.2653  0.4899 -0.4722
  249MOL0     C34244   9.746   8.905   6.227 -0.3424  0.6165  0.9108
  249MOL0     C34245   9.740   8.819   6.357 -0.2619  0.5880  0.1862
  249MOL0     C34246   9.769   8.895   6.489  0.1406  0.4634 -0.8113
  249MOL0     C34247   9.899   8.974   6.499  0.5437 -0.0656  0.5008
  249MOL0     O34248  10.012   8.891   6.498 -0.3458 -0.0707  0.5516
  249MOL0     C34249  10.135   8.952   6.505  0.2757 -0.4555 -0.3993
  249MOL0     C34250  10.159   9.096   6.529  0.3297 -0.0245 -0.0817
  249MOL0     C34251  10.290   9.145   6.560 -0.4721  1.3070  0.5284
  249MOL0     C34252  10.308   9.289   6.602  0.5725 -0.3934 -0.0678
  249MOL0     C34253  10.396   9.042   6.553  0.2984 -0.4229  0.5895
  249MOL0     C34254  10.540   9.067   6.588 -0.6689 -0.9860  0.7440
  249MOL0     O34255  10.572   9.184   6.652  0.3919  0.8653 -0.9361
  249MOL0     C34256  10.699   9.208   6.695  0.0809  0.2382  0.4288
  249MOL0     C34257  10.694   9.279   6.813 -0.9031 -1.4584 -0.2053
  249MOL0     C34258  10.816   9.319   6.861 -0.8971 -0.2210 -0.2912
  249MOL0     C34259  10.933   9.287   6.809 -1.1112 -0.4436 -0.0520
  249MOL0     O34260  11.042   9.344   6.859 -0.1912  0.0072  0.3101
  249MOL0     C34261  11.174   9.295   6.817 -0.1304 -0.1200 -0.3836
  249MOL0     C34262  11.276   9.366   6.904 -0.0555  0.1244  0.0377
  249MOL0     C34263  11.289   9.519   6.867  0.0748  0.3380  0.6074
  249MOL0     C34264  11.378   9.602   6.956 -0.0573  0.4449 -0.5660
  249MOL0     C34265  11.365   9.750   6.918 -0.1392  0.4413 -0.0976
  249MOL0     C34266  11.452   9.820   7.021  0.5290 -0.2680 -0.2075
  249MOL0     C34267  11.451   9.975   6.990 -0.5964  0.9744 -0.9605
  249MOL0     C34268  11.524  10.048   7.097 -0.2241  0.8227 -0.5645
  249MOL0    Cl34269  11.698  10.000   7.130  0.1367  0.3488  0.1648
  249MOL0     C34270  10.933   9.206   6.692  0.0596  0.0544  0.7396
  249MOL0     C34271  10.817   9.179   6.631 -0.4924  0.5696  0.1909
  249MOL0     O34272  10.623   8.979   6.565  0.4832 -0.0471  0.4352
  249MOL0     C34273  10.370   8.902   6.522  0.7633 -0.7634  0.2122
  249MOL0     C34274  10.238   8.860   6.506  0.2215  0.7092  0.4148
  249MOL0     N34275   9.544   9.022   6.305 -0.0989  0.3931  0.3138
  249MOL0     N34276   9.497   9.143   6.305 -0.1055 -0.4959 -1.2371
  249MOL0     C34277   9.477   9.845   5.359  0.4370  0.1002 -0.4019
  249MOL0     C34278   9.461   9.881   5.228  1.2118 -0.2211 -0.3464
  249MOL0     C34279   9.401  10.003   4.833 -0.2083  0.4899 -0.0339
  249MOL0     C34280   9.272  10.054   4.789 -0.2901  0.2752 -0.7506
  249MOL0     C34281   9.224  10.060   4.661 -0.5053 -0.0570  1.0356
  249MOL0     C34282   9.311  10.012   4.564 -0.6764 -0.6463 -0.2303
  249MOL0     O34283   9.284  10.025   4.434  0.5680 -0.0730 -0.2568
  249MOL0     C34284   9.188  10.126   4.395 -0.9396 -0.8865 -0.1619
  249MOL0     C34285   9.174  10.101   4.242 -0.3359  1.1261 -0.3078
  249MOL0     C34286   9.292  10.139   4.160 -0.3494  0.2934 -0.1973
  249MOL0     C34287   9.251  10.141   4.005 -0.4552 -0.0285 -0.5008
  249MOL0     C34288   9.188  10.013   3.970 -1.2293  0.1993 -0.1443
  249MOL0     C34289   9.132   9.911   3.946 -0.6721 -0.0371 -0.9075
  249MOL0     C34290   9.438   9.951   4.599  0.0318 -0.6106  0.2760
  249MOL0     C34291   9.485   9.944   4.732 -0.6906 -0.0490  0.2492
  249MOL0     C34292   9.614   9.871   4.750  0.1607  0.1795 -0.5787
  249MOL0     H34293   9.214  10.113   5.278 -1.9851 -1.8371 -0.6310
  249MOL0     H34294   9.247  10.056   5.499 -0.2393 -1.6709  0.7230
  249MOL0     H34295   9.271   9.956   5.694  0.1773 -2.2227  0.7455
  249MOL0     H34296   9.421  10.053   5.693 -1.3558  0.0087  0.3015
  249MOL0     H34297   9.531   9.881   5.832 -0.1774  2.8412  0.9991
  249MOL0     H34298   9.392   9.950   5.910 -1.3583  1.3296 -1.2758
  249MOL0     H34299   9.258   9.732   5.843  1.0207 -0.9657 -4.3000
  249MOL0     H34300   9.414   9.668   5.805  2.3210 -1.3175  2.3219
  249MOL0     H34301   9.495   9.743   6.015 -0.1621  2.2755  1.4551
  249MOL0     H34302   9.337   9.793   6.071 -2.1533  2.4729 -2.9445
  249MOL0     H34303   9.242   9.577   6.044  0.7013 -0.9604  2.7076
  249MOL0     H34304   9.368   9.577   6.171  3.8790 -3.5660 -0.1383
  249MOL0     H34305   9.368   9.447   5.912 -0.6135 -0.5953  0.2018
  249MOL0     H34306   9.530   9.483   5.977  0.2281 -1.2595 -0.5296
  249MOL0     H34307   9.437   9.255   6.033  0.1817  2.5792 -2.7232
  249MOL0     H34308   9.335   9.333   6.151  0.6159 -0.0662  1.0058
  249MOL0     H34309   9.625   9.404   6.144 -1.7200  1.1554 -2.3893
  249MOL0     H34310   9.510   9.418   6.281  0.2935 -1.5628  0.3515
  249MOL0     H34311   9.785   9.198   6.158  0.0083  0.1034 -1.5816
  249MOL0     H34312   9.846   8.945   6.209  0.0057 -1.4313 -2.5709
  249MOL0     H34313   9.727   8.847   6.136 -0.0826  1.6461  0.1929
  249MOL0     H34314   9.643   8.769   6.362 -0.5915  1.0378 -1.1207
  249MOL0     H34315   9.824   8.751   6.345 -0.0785  0.7168  0.7036
  249MOL0     H34316   9.686   8.962   6.513 -1.5475 -1.9906  0.6911
  249MOL0     H34317   9.763   8.818   6.567 -0.3384 -2.1930 -3.2907
  249MOL0     H34318   9.897   9.051   6.421  2.3103 -0.1253  0.3545
  249MOL0     H34319   9.896   9.031   6.592 -0.8532 -2.5388  2.0831
  249MOL0     H34320  10.071   9.158   6.542  0.5161  0.1133  0.5930
  249MOL0     H34321  10.382   9.328   6.531  0.4708  0.1181  0.1041
  249MOL0     H34322  10.356   9.299   6.699  2.0602 -1.2413 -0.6875
  249MOL0     H34323  10.211   9.340   6.593 -0.9784 -3.2590 -0.9550
  249MOL0     H34324  10.606   9.303   6.872  0.4376 -0.3265  1.4368
  249MOL0     H34325  10.815   9.389   6.945 -0.0462 -0.2610 -0.2393
  249MOL0     H34326  11.174   9.189   6.842  0.7756 -0.4836 -1.8021
  249MOL0     H34327  11.200   9.323   6.715 -2.2982  1.7123 -0.5067
  249MOL0     H34328  11.262   9.361   7.012 -0.0863 -0.1843  0.0229
  249MOL0     H34329  11.372   9.316   6.890  0.1185  0.4217  0.1657
  249MOL0     H34330  11.187   9.559   6.874  0.5029  1.2662  1.7090
  249MOL0     H34331  11.318   9.531   6.762 -2.2771 -0.8317 -0.2562
  249MOL0     H34332  11.479   9.567   6.931  0.2713  1.4967 -0.7570
  249MOL0     H34333  11.363   9.581   7.062  3.4407 -1.5978 -0.3167
  249MOL0     H34334  11.410   9.774   6.821  2.0726 -0.2641  0.6759
  249MOL0     H34335  11.262   9.785   6.927 -0.4116 -0.6740  1.5510
  249MOL0     H34336  11.551   9.780   6.994  0.2396  1.1427 -3.9818
  249MOL0     H34337  11.416   9.806   7.123  0.4814  3.2400  0.3724
  249MOL0     H34338  11.351  10.017   6.994 -0.2521  1.7456  0.4753
  249MOL0     H34339  11.492   9.995   6.891  1.5751  1.3882 -0.0294
  249MOL0     H34340  11.475  10.047   7.194  0.8821 -2.0974  0.0627
  249MOL0     H34341  11.537  10.152   7.063  2.3145  1.4419  1.8805
  249MOL0     H34342  11.023   9.170   6.643 -0.9986 -1.7467  0.0392
  249MOL0     H34343  10.816   9.125   6.537  0.4021 -1.5826  1.3401
  249MOL0     H34344  10.448   8.827   6.525  0.1524 -1.3943  0.6116
  249MOL0     H34345  10.222   8.753   6.495 -2.3967  0.9875  0.7600
  249MOL0     H34346   9.547   9.767   5.388  0.3003  0.0149 -0.3009
  249MOL0     H34347   9.515   9.820   5.156 -0.5185  0.7127 -2.5543
  249MOL0     H34348   9.202  10.101   4.858 -0.0634  1.5329 -1.3315
  249MOL0     H34349   9.132  10.106   4.627  1.1692  0.9955 -2.7286
  249MOL0     H34350   9.085  10.123   4.430 -1.9878  0.8083 -2.7926
  249MOL0     H34351   9.228  10.222   4.431 -2.3639 -1.1212  2.2465
  249MOL0     H34352   9.087  10.161   4.211 -1.6205  3.7367  6.6510
  249MOL0     H34353   9.145   9.997   4.225  5.7780 -0.6131 -2.7732
  249MOL0     H34354   9.326  10.237   4.195  0.8396  0.3818 -1.4847
  249MOL0     H34355   9.374  10.069   4.181 -2.3006 -1.5982  1.6490
  249MOL0     H34356   9.344  10.156   3.950  1.0698 -4.4161  0.4846
  249MOL0     H34357   9.181  10.225   3.995  0.5476  1.1538  1.5643
  249MOL0     H34358   9.076   9.822   3.926 -1.8453 -0.0307  1.9501
  249MOL0     H34359   9.498   9.901   4.524 -1.0409 -2.2969  0.4999
  249MOL0     H34360   9.644   9.832   4.652  0.4590 -1.2831  0.0608
  249MOL0     H34361   9.691   9.937   4.791 -0.4496  0.4150  0.2126
  249MOL0     H34362   9.598   9.787   4.818 -1.3058  0.8663 -0.0470
  250MOL0     O34363   9.524   5.497   6.958 -0.0591 -0.0479  0.0813
  250MOL0     C34364   9.554   5.556   7.061  0.0685 -0.9903  0.6043
  250MOL0     O34365   9.675   5.590   7.107 -0.3327 -0.5077  0.9847
  250MOL0     C34366   9.778   5.571   7.019  0.1449  0.2199 -0.2557
  250MOL0     C34367   9.871   5.480   7.071 -0.4882  0.6912 -0.3493
  250MOL0     C34368   9.990   5.459   7.002 -0.5130  0.3398  0.5639
  250MOL0     C34369  10.023   5.533   6.882  0.3920  0.4250  0.0525
  250MOL0     O34370  10.140   5.498   6.821 -0.4646 -0.0393  0.4222
  250MOL0     C34371  10.174   5.564   6.697  0.0098 -0.3791 -0.1712
  250MOL0     C34372  10.289   5.486   6.637 -0.2495 -0.4998  1.0134
  250MOL0     C34373  10.349   5.588   6.528  0.5343  0.1252 -1.2350
  250MOL0     C34374  10.469   5.513   6.465 -0.5089 -0.1063  0.3589
  250MOL0     C34375  10.530   5.611   6.357  0.0388  0.1551  0.0097
  250MOL0     C34376  10.670   5.571   6.305  0.2291 -0.2807  0.2211
  250MOL0     C34377  10.646   5.439   6.221 -0.4149 -0.5426 -0.8681
  250MOL0     C34378  10.770   5.406   6.146 -0.7692 -0.3893  0.8432
  250MOL0     N34379  10.891   5.407   6.225 -0.4260 -0.3299  0.3629
  250MOL0     C34380  10.919   5.332   6.351 -0.2887 -0.0888 -0.1048
  250MOL0     C34381  11.053   5.314   6.347  1.1272  0.1971 -0.5878
  250MOL0     C34382  11.126   5.217   6.438 -0.4706  0.1076 -0.0211
  250MOL0     C34383  11.261   5.279   6.478  0.5400 -0.0150 -1.2759
  250MOL0     C34384  11.254   5.394   6.580  0.9100 -0.1986  0.6994
  250MOL0     C34385  11.266   5.351   6.724  0.1276  0.5504 -0.2067
  250MOL0     O34386  11.394   5.276   6.748  0.5697 -0.3687  0.2624
  250MOL0     C34387  11.512   5.344   6.762  0.0147  0.2705 -0.5603
  250MOL0     C34388  11.523   5.481   6.768 -0.2204 -0.1685  0.2681
  250MOL0     C34389  11.641   5.544   6.810 -0.5772  0.0143 -0.2562
  250MOL0     C34390  11.637   5.691   6.823 -0.0696 -0.7683  0.3274
  250MOL0     C34391  11.763   5.470   6.820  0.9836  0.6916 -0.4188
  250MOL0     C34392  11.897   5.519   6.852  0.5846  0.8450  0.6184
  250MOL0     O34393  11.986   5.417   6.896  0.1706  0.3221 -0.0667
  250MOL0     C34394  12.112   5.455   6.924 -0.5058 -0.3440  0.0108
  250MOL0     C34395  12.206   5.369   6.881  0.2469 -0.1374 -0.5618
  250MOL0     C34396  12.338   5.389   6.909 -0.4826 -0.3263  0.1723
  250MOL0     C34397  12.378   5.511   6.970 -0.0271 -1.3216  0.2032
  250MOL0     O34398  12.511   5.548   7.001 -0.6863 -0.4828 -1.0500
  250MOL0     C34399  12.606   5.441   6.991 -0.2772  0.4302  0.8006
  250MOL0     C34400  12.740   5.503   7.021  0.0210  0.3297 -0.2414
  250MOL0     C34401  12.807   5.581   6.899 -0.2428 -0.0255 -0.7300
  250MOL0     C34402  12.948   5.541   6.885  0.9451  0.3821  0.5543
  250MOL0     C34403  13.014   5.640   6.788  0.5511 -0.2139  0.2140
  250MOL0     C34404  13.164   5.604   6.790  0.1835 -0.2255 -0.3378
  250MOL0     C34405  13.260   5.712   6.728 -0.6197  0.8042 -0.1203
  250MOL0     C34406  13.268   5.717   6.572  0.8519 -0.1474  0.9497
  250MOL0    Cl34407  13.127   5.780   6.496 -0.3084 -0.0720 -0.3104
  250MOL0     C34408  12.283   5.608   7.007 -0.2216  0.8998 -0.2134
  250MOL0     C34409  12.148   5.576   6.985 -0.4350 -0.5510 -1.3909
  250MOL0     O34410  11.919   5.632   6.835  0.1106 -0.2536  0.4380
  250MOL0     C34411  11.750   5.334   6.794  0.1054  0.5989  0.1031
  250MOL0     C34412  11.623   5.270   6.773 -0.3217 -0.3204  0.3264
  250MOL0     N34413  11.111   5.378   6.234 -0.1149 -1.0545 -0.0255
  250MOL0     N34414  11.014   5.437   6.169 -0.2048  0.0700  0.1131
  250MOL0     C34415   9.941   5.635   6.846  0.1915 -0.8536  0.3853
  250MOL0     C34416   9.817   5.661   6.919  0.2244 -0.2075 -0.0003
  250MOL0     C34417   9.448   5.599   7.155  0.4226  0.0969  0.1581
  250MOL0     C34418   9.327   5.659   7.112  0.0595 -0.1332 -0.0842
  250MOL0     C34419   9.231   5.695   7.201  0.5127  0.1084 -0.1837
  250MOL0     C34420   9.241   5.667   7.341  0.4068 -0.0966  0.0492
  250MOL0     O34421   9.139   5.688   7.431  0.5202  0.4693  0.6948
  250MOL0     C34422   9.101   5.564   7.484 -0.0284  0.3192  0.0427
  250MOL0     C34423   9.029   5.471   7.374  0.4640 -1.4976 -0.0473
  250MOL0     C34424   8.923   5.552   7.292 -1.6123 -0.2702 -0.1993
  250MOL0     C34425   8.842   5.469   7.195  0.0851  0.2812 -0.1228
  250MOL0     C34426   8.738   5.386   7.261 -0.3707  0.8311  0.5708
  250MOL0     C34427   8.663   5.312   7.317  0.0821  0.3018 -0.1266
  250MOL0     C34428   9.356   5.601   7.379 -0.0592 -0.4907  0.0375
  250MOL0     C34429   9.455   5.568   7.296 -0.8693 -0.2666  0.3530
  250MOL0     C34430   9.577   5.499   7.356  0.3461 -0.3519 -0.0705
  250MOL0     H34431   9.847   5.421   7.159  3.7233 -0.8598  0.0330
  250MOL0     H34432  10.057   5.378   7.032 -2.4791 -1.1687  1.1396
  250MOL0     H34433  10.212   5.665   6.718  0.5543 -0.6548  0.1936
  250MOL0     H34434  10.092   5.584   6.627  0.1873  0.0643 -0.2594
  250MOL0     H34435  10.365   5.469   6.715  0.6237  2.8166  1.0620
  250MOL0     H34436  10.257   5.392   6.592  0.0497 -0.5529  0.9107
  250MOL0     H34437  10.266   5.613   6.462 -1.5005 -2.3996  0.1781
  250MOL0     H34438  10.391   5.682   6.565  0.7076  0.1547 -1.5033
  250MOL0     H34439  10.554   5.478   6.525 -0.3970 -0.6649 -0.1196
  250MOL0     H34440  10.421   5.438   6.402 -1.6780  0.8605  0.0467
  250MOL0     H34441  10.529   5.714   6.395 -1.9943  0.7563 -1.5158
  250MOL0     H34442  10.464   5.613   6.270 -0.8382 -4.0371  0.3771
  250MOL0     H34443  10.700   5.659   6.249  1.5471  1.5259  3.4880
  250MOL0     H34444  10.746   5.552   6.382 -0.5285 -0.3751  0.9611
  250MOL0     H34445  10.562   5.452   6.153  0.3448 -0.6342 -1.8534
  250MOL0     H34446  10.616   5.361   6.291 -1.6500  0.0235 -0.7396
  250MOL0     H34447  10.756   5.306   6.103 -0.1721 -0.4008  0.6579
  250MOL0     H34448  10.789   5.474   6.062  0.7964 -1.1871  0.5044
  250MOL0     H34449  10.851   5.283   6.419  0.8831 -0.3333  0.9294
  250MOL0     H34450  11.152   5.125   6.384 -3.2344 -3.2262  3.8036
  250MOL0     H34451  11.059   5.188   6.519  0.3946 -1.3087  0.2317
  250MOL0     H34452  11.326   5.198   6.514  3.1969  1.5848 -2.1462
  250MOL0     H34453  11.309   5.310   6.385  0.6757  0.6678 -0.9863
  250MOL0     H34454  11.329   5.470   6.558 -0.2623 -0.0565 -3.6718
  250MOL0     H34455  11.157   5.439   6.557  2.3819  3.5102  1.0662
  250MOL0     H34456  11.259   5.437   6.792  0.9439 -0.7642  1.6290
  250MOL0     H34457  11.171   5.307   6.756 -0.4644  2.7132  1.2509
  250MOL0     H34458  11.441   5.551   6.756 -0.0268  0.0219  0.0401
  250MOL0     H34459  11.685   5.726   6.915  0.2194 -3.4356  1.2879
  250MOL0     H34460  11.534   5.727   6.819 -0.0219 -0.5305  1.0532
  250MOL0     H34461  11.690   5.731   6.736 -1.0014 -0.2571 -0.0227
  250MOL0     H34462  12.173   5.270   6.848  1.0144 -0.8661  0.7513
  250MOL0     H34463  12.413   5.316   6.880  1.2071  0.8196  1.4318
  250MOL0     H34464  12.589   5.365   7.068 -1.1130  1.3942  1.5999
  250MOL0     H34465  12.616   5.396   6.892 -0.2399 -1.6225  1.6645
  250MOL0     H34466  12.737   5.572   7.105 -1.7278  1.1962 -0.9739
  250MOL0     H34467  12.813   5.423   7.038  1.4090  1.6275  0.1731
  250MOL0     H34468  12.805   5.682   6.942  1.4561 -0.5158  0.6080
  250MOL0     H34469  12.755   5.587   6.802  3.0685  0.1337 -2.6290
  250MOL0     H34470  12.955   5.434   6.863 -0.8884  0.2348  0.4981
  250MOL0     H34471  13.003   5.556   6.978  2.4752  0.1383 -0.2830
  250MOL0     H34472  12.976   5.632   6.686  2.8700  1.0065 -0.8146
  250MOL0     H34473  12.991   5.738   6.832  2.8072  0.5661 -0.2051
  250MOL0     H34474  13.186   5.520   6.723  1.1291  1.2581 -2.0074
  250MOL0     H34475  13.196   5.585   6.892 -3.0289 -0.5036  0.7362
  250MOL0     H34476  13.360   5.698   6.769 -0.9015  1.6053  0.8826
  250MOL0     H34477  13.235   5.816   6.751 -1.2261  0.3929  1.1705
  250MOL0     H34478  13.289   5.615   6.538 -0.8863  0.0053 -0.7498
  250MOL0     H34479  13.356   5.775   6.544  2.7299 -3.5254 -0.7527
  250MOL0     H34480  12.313   5.706   7.045  3.1504 -0.5526  1.2690
  250MOL0     H34481  12.078   5.650   7.021  1.2372 -0.2686  1.5205
  250MOL0     H34482  11.839   5.276   6.774  0.2212  0.3511  1.2795
  250MOL0     H34483  11.612   5.162   6.766 -1.1269 -0.1653 -1.0289
  250MOL0     H34484   9.957   5.704   6.763  1.2004  0.0356  1.2970
  250MOL0     H34485   9.749   5.746   6.914 -0.9915 -1.1482  0.2225
  250MOL0     H34486   9.324   5.690   7.007  1.9663  1.8606  0.3739
  250MOL0     H34487   9.147   5.759   7.178  1.0158  0.2873 -1.6441
  250MOL0     H34488   9.174   5.502   7.537  0.0853  0.2783 -0.1589
  250MOL0     H34489   9.036   5.589   7.568  0.4851  0.5725  0.3694
  250MOL0     H34490   8.974   5.391   7.424 -1.9288  0.2786  0.3616
  250MOL0     H34491   9.109   5.426   7.315  0.3375  1.6567 -2.9512
  250MOL0     H34492   8.846   5.591   7.360 -2.8733 -1.5199 -0.8604
  250MOL0     H34493   8.972   5.633   7.237  0.1639  0.4161  2.2735
  250MOL0     H34494   8.912   5.400   7.146 -1.5306 -2.1518  0.8327
  250MOL0     H34495   8.799   5.537   7.121  1.2896  0.6058 -0.5494
  250MOL0     H34496   8.606   5.242   7.375  0.4843  1.2034  1.4211
  250MOL0     H34497   9.360   5.587   7.486  2.0418 -0.4645  0.0107
  250MOL0     H34498   9.649   5.573   7.392  2.0993 -2.1037  0.1991
  250MOL0     H34499   9.551   5.432   7.439  0.2212 -1.0616 -0.6684
  250MOL0     H34500   9.629   5.429   7.289  0.3264 -2.1415  1.6807
  251MOL0     O34501   3.983   9.706   1.560  0.7906 -0.4188  0.1084
  251MOL0     C34502   3.898   9.778   1.509 -0.1124  0.3700 -0.0094
  251MOL0     O34503   3.907   9.915   1.494 -1.1768  0.3552  1.0546
  251MOL0     C34504   3.978   9.994   1.583 -0.0125 -0.0125 -0.0114
  251MOL0     C34505   3.913  10.065   1.685 -0.4709  0.5722  0.3164
  251MOL0     C34506   3.986  10.140   1.774 -0.7038 -0.9793 -0.0380
  251MOL0     C34507   4.125  10.141   1.764  0.4100  0.7570 -0.5768
  251MOL0     O34508   4.202  10.228   1.843  0.2767  0.2349  0.0232
  251MOL0     C34509   4.339  10.196   1.883 -0.4396 -0.1636  0.7965
  251MOL0     C34510   4.352  10.084   1.974 -0.4720 -0.0881  0.1378
  251MOL0     C34511   4.499  10.052   2.012 -0.0368  0.1915 -0.3737
  251MOL0     C34512   4.592   9.988   1.905  0.0620 -0.1592  0.4152
  251MOL0     C34513   4.735   9.990   1.960  0.7007 -0.0780  0.8322
  251MOL0     C34514   4.832   9.900   1.881  0.2825  0.7430  0.7127
  251MOL0     C34515   4.977   9.921   1.928 -0.0506 -0.0729  0.3328
  251MOL0     C34516   5.033  10.014   1.826  0.0434 -0.3388 -0.0902
  251MOL0     N34517   5.176  10.041   1.856 -0.5040  0.6967  0.7201
  251MOL0     C34518   5.266   9.946   1.891  0.2575  0.4702 -0.1440
  251MOL0     C34519   5.381  10.001   1.929  0.3343 -0.2128 -0.6285
  251MOL0     C34520   5.501   9.930   1.985 -0.2345 -0.8012  0.6085
  251MOL0     C34521   5.628  10.012   1.961  0.4932  0.0993  0.1037
  251MOL0     C34522   5.749   9.944   2.018  0.2359 -0.2853  0.6719
  251MOL0     C34523   5.812   9.854   1.909  0.8022  0.3475 -0.2536
  251MOL0     O34524   5.851   9.919   1.789  0.0721 -0.0463  0.6267
  251MOL0     C34525   5.978   9.904   1.738 -0.4366  0.0388 -0.3514
  251MOL0     C34526   6.080   9.982   1.796 -0.7038 -0.6060 -0.3988
  251MOL0     C34527   6.213   9.969   1.741  0.9560  0.4836 -0.2161
  251MOL0     C34528   6.297  10.082   1.782  0.3466  0.1709 -0.1425
  251MOL0     C34529   6.244   9.878   1.638 -0.2410 -0.8936  0.5949
  251MOL0     C34530   6.379   9.861   1.579 -0.6223 -0.5463 -0.2283
  251MOL0     O34531   6.492   9.890   1.658  0.1912  0.4514  0.0104
  251MOL0     C34532   6.610   9.855   1.595  0.7526  0.4821  0.4867
  251MOL0     C34533   6.700   9.951   1.551  0.2488  1.2306  0.3096
  251MOL0     C34534   6.820   9.918   1.478  0.1811 -0.0270 -0.2459
  251MOL0     C34535   6.858   9.785   1.461 -0.7623  0.6526  0.1196
  251MOL0     O34536   6.975   9.755   1.392  0.1116 -0.1316  0.1972
  251MOL0     C34537   7.044   9.632   1.420 -0.0464 -0.2549 -0.3148
  251MOL0     C34538   7.178   9.621   1.348  0.5402 -0.6291 -0.6425
  251MOL0     C34539   7.241   9.482   1.370  0.6295  0.1358  0.7322
  251MOL0     C34540   7.375   9.447   1.299  0.9369 -0.2732  0.1099
  251MOL0     C34541   7.429   9.313   1.353  0.7039  0.5379 -1.0875
  251MOL0     C34542   7.568   9.287   1.289 -0.2452 -0.6140 -0.4366
  251MOL0     C34543   7.644   9.184   1.364  0.5669  0.2030 -0.0867
  251MOL0     C34544   7.789   9.174   1.306  0.9980 -0.0908 -0.1711
  251MOL0    Cl34545   7.841   9.015   1.383  0.2291  0.2288 -1.1127
  251MOL0     C34546   6.767   9.682   1.508 -0.6532 -0.4233  0.1937
  251MOL0     C34547   6.638   9.722   1.566 -0.0544 -0.0619 -0.3858
  251MOL0     O34548   6.377   9.808   1.468 -0.0271  0.0486 -1.0054
  251MOL0     C34549   6.144   9.790   1.595  0.8955  0.0061 -0.0274
  251MOL0     C34550   6.006   9.804   1.640 -1.2426 -0.7082  0.4982
  251MOL0     N34551   5.370  10.132   1.904  0.3290 -0.1327  0.2222
  251MOL0     N34552   5.242  10.159   1.861 -0.4966  0.3639  0.0370
  251MOL0     C34553   4.188  10.071   1.655 -0.3390 -1.5758 -0.2648
  251MOL0     C34554   4.109  10.008   1.562 -0.5990  1.5039  0.3373
  251MOL0     C34555   3.780   9.702   1.452  0.7211 -0.0758 -0.0319
  251MOL0     C34556   3.657   9.778   1.459 -0.8427 -0.0206  0.2476
  251MOL0     C34557   3.541   9.723   1.410 -0.0970 -0.0935 -0.3909
  251MOL0     C34558   3.529   9.595   1.364 -1.2394  0.3997 -0.1142
  251MOL0     O34559   3.407   9.561   1.314  0.3213 -0.5196  0.2188
  251MOL0     C34560   3.373   9.430   1.303 -1.0375  0.2610 -0.8432
  251MOL0     C34561   3.222   9.422   1.264 -1.0233 -0.0474  0.9203
  251MOL0     C34562   3.131   9.510   1.339  0.7187  0.1029 -1.0327
  251MOL0     C34563   2.996   9.519   1.270  0.3040  0.0795  0.1787
  251MOL0     C34564   2.921   9.397   1.286 -0.1718 -0.0870  1.3899
  251MOL0     C34565   2.854   9.298   1.296 -0.4748  0.0250  0.7259
  251MOL0     C34566   3.647   9.514   1.365 -0.3518  0.6150  0.5657
  251MOL0     C34567   3.771   9.563   1.411  0.1039 -0.5775 -0.3424
  251MOL0     C34568   3.886   9.471   1.399  0.2757 -0.5608 -0.4817
  251MOL0     H34569   3.809  10.044   1.706 -0.5671  0.2395 -0.4533
  251MOL0     H34570   3.938  10.192   1.856  0.3572 -1.1759  0.7179
  251MOL0     H34571   4.389  10.283   1.927  4.3939 -2.5859  0.7608
  251MOL0     H34572   4.397  10.165   1.795 -0.4630 -0.2770  0.8210
  251MOL0     H34573   4.301  10.121   2.063 -2.3126 -1.0071 -0.4949
  251MOL0     H34574   4.321   9.988   1.931  4.2006 -2.3607  1.1138
  251MOL0     H34575   4.536  10.145   2.055 -3.3376  1.9064 -0.8836
  251MOL0     H34576   4.504   9.984   2.098  0.6393 -0.6287 -1.0472
  251MOL0     H34577   4.563   9.886   1.879 -0.0315  0.8760 -4.6213
  251MOL0     H34578   4.586  10.041   1.809 -0.1940 -0.5198  0.2288
  251MOL0     H34579   4.743   9.954   2.063  2.8425  0.7562  1.0134
  251MOL0     H34580   4.767  10.095   1.957  2.2733 -0.4367 -3.9807
  251MOL0     H34581   4.797   9.797   1.891  0.0352  0.1625 -3.8303
  251MOL0     H34582   4.818   9.921   1.774 -0.1224  1.0364  0.8243
  251MOL0     H34583   5.028   9.824   1.934  0.3705  0.2275  3.9426
  251MOL0     H34584   4.981   9.974   2.023 -0.6648  0.3663  0.1174
  251MOL0     H34585   5.032   9.984   1.721  1.0295  4.1281 -1.5922
  251MOL0     H34586   4.973  10.106   1.836 -1.9644 -1.5137 -0.6755
  251MOL0     H34587   5.247   9.839   1.891  0.2850  0.4589  0.4215
  251MOL0     H34588   5.520   9.837   1.930  2.1323  0.8594 -1.6794
  251MOL0     H34589   5.475   9.906   2.088 -0.3946  1.1837  1.0692
  251MOL0     H34590   5.654  10.032   1.857  2.3321  1.7539  0.8261
  251MOL0     H34591   5.609  10.107   2.012 -0.4178  0.0703 -0.1682
  251MOL0     H34592   5.823  10.021   2.044  0.1612 -0.1795  0.5721
  251MOL0     H34593   5.720   9.877   2.099 -3.1838  0.1305 -0.0577
  251MOL0     H34594   5.892   9.794   1.954  0.0284  0.9317  1.9867
  251MOL0     H34595   5.736   9.781   1.879 -0.4026  1.2080  0.6378
  251MOL0     H34596   6.055  10.061   1.865  0.2626  0.7048 -1.5080
  251MOL0     H34597   6.343  10.054   1.877  2.2009  1.6760 -0.5224
  251MOL0     H34598   6.244  10.176   1.801 -0.2640 -0.2001  0.0210
  251MOL0     H34599   6.373  10.114   1.710  1.8647  0.8802  1.6823
  251MOL0     H34600   6.685  10.057   1.571  0.9669  1.2093  0.9932
  251MOL0     H34601   6.885   9.995   1.437  0.7506  0.3218  1.2631
  251MOL0     H34602   7.039   9.607   1.526 -3.4460  2.0376  0.2309
  251MOL0     H34603   6.980   9.564   1.363  1.3220  0.5997 -3.0589
  251MOL0     H34604   7.155   9.647   1.244  0.5225  0.9945 -0.2615
  251MOL0     H34605   7.252   9.691   1.387  0.7680 -0.9355 -0.5222
  251MOL0     H34606   7.164   9.405   1.356  0.1955  0.1087  2.8687
  251MOL0     H34607   7.259   9.472   1.478  2.2896 -1.9207  0.3375
  251MOL0     H34608   7.440   9.529   1.331  0.6885  1.1476 -2.7292
  251MOL0     H34609   7.376   9.445   1.190  1.1538  0.9832  0.0695
  251MOL0     H34610   7.444   9.321   1.461  1.2796 -0.6476 -1.0693
  251MOL0     H34611   7.355   9.233   1.347  1.7121 -0.6499  1.2309
  251MOL0     H34612   7.621   9.383   1.277  0.0261 -0.9502 -2.3116
  251MOL0     H34613   7.555   9.245   1.188 -2.0293  2.1329 -1.4880
  251MOL0     H34614   7.586   9.093   1.346  0.6113  0.5056 -1.9612
  251MOL0     H34615   7.650   9.204   1.472  0.3996 -0.7402  0.0994
  251MOL0     H34616   7.850   9.260   1.334  0.2211  0.0549  1.1873
  251MOL0     H34617   7.794   9.161   1.197  1.6456  2.0392 -0.4343
  251MOL0     H34618   6.790   9.577   1.500 -1.9935 -0.7191 -0.0700
  251MOL0     H34619   6.571   9.647   1.608  3.6931 -1.8064  3.1524
  251MOL0     H34620   6.174   9.708   1.530  0.1050 -0.2611 -0.0728
  251MOL0     H34621   5.927   9.734   1.617 -4.7869  2.3687  2.2632
  251MOL0     H34622   4.294  10.086   1.637  0.1139 -1.9847  1.7906
  251MOL0     H34623   4.158   9.968   1.473  0.6901 -1.3249  2.1953
  251MOL0     H34624   3.668   9.879   1.496  0.6795 -0.1421  0.1980
  251MOL0     H34625   3.456   9.790   1.408 -0.4332 -0.4748  0.5803
  251MOL0     H34626   3.436   9.377   1.231  1.1893  1.2928  0.2557
  251MOL0     H34627   3.378   9.375   1.398  0.5399  1.3089 -0.2873
  251MOL0     H34628   3.189   9.318   1.257  0.4133 -0.5687  1.4959
  251MOL0     H34629   3.238   9.459   1.162  5.6356 -1.8820  0.8032
  251MOL0     H34630   3.109   9.468   1.438 -1.2603  2.7156 -0.2446
  251MOL0     H34631   3.166   9.613   1.348 -2.3494  1.0539  4.2800
  251MOL0     H34632   3.008   9.551   1.166 -0.5504 -2.0549 -0.6423
  251MOL0     H34633   2.929   9.589   1.321  2.2467  1.5505  0.8531
  251MOL0     H34634   2.796   9.209   1.310 -0.3610  0.3254  3.7462
  251MOL0     H34635   3.635   9.412   1.331 -2.3745  0.6847  0.9424
  251MOL0     H34636   3.952   9.469   1.487  0.3533  1.0868 -0.4778
  251MOL0     H34637   3.849   9.368   1.400  0.3427 -0.5847 -0.2943
  251MOL0     H34638   3.947   9.489   1.310  1.1909 -2.0167 -0.1899
  252MOL0     O34639   4.117   3.091   2.848  0.7210 -0.6339  0.0694
  252MOL0     C34640   4.089   3.152   2.739 -0.7249 -0.1668 -0.0955
  252MOL0     O34641   3.966   3.179   2.690  0.1266 -0.2402 -0.2374
  252MOL0     C34642   3.853   3.135   2.748 -0.0409  0.2984  0.5332
  252MOL0     C34643   3.837   3.092   2.874  0.5464 -0.1776 -0.2677
  252MOL0     C34644   3.715   3.044   2.924 -0.7861  0.0852  0.1721
  252MOL0     C34645   3.601   3.037   2.839  0.2418 -0.5865  0.3061
  252MOL0     O34646   3.480   2.986   2.877  0.3351  0.0299  0.6664
  252MOL0     C34647   3.437   3.019   3.009  0.8053  0.4922 -0.3114
  252MOL0     C34648   3.288   2.999   3.002  0.0481 -0.3139 -0.3923
  252MOL0     C34649   3.239   2.850   3.032 -0.0567  0.1179  0.5269
  252MOL0     C34650   3.091   2.846   3.073 -0.2831  0.2817 -0.3002
  252MOL0     C34651   3.041   2.705   3.107  0.1242 -0.6104 -1.0000
  252MOL0     C34652   2.893   2.699   3.156  0.5108  0.9795 -0.6176
  252MOL0     C34653   2.840   2.552   3.164  0.2430 -0.4807 -0.3026
  252MOL0     C34654   2.703   2.540   3.228 -0.1346 -0.9350 -0.3743
  252MOL0     N34655   2.661   2.405   3.266  0.4585  0.2886 -0.0298
  252MOL0     C34656   2.588   2.373   3.375  0.0102  0.3494 -0.0197
  252MOL0     C34657   2.549   2.244   3.345 -0.1771  0.6468 -0.5095
  252MOL0     C34658   2.456   2.154   3.419  0.4255 -0.4544 -0.2172
  252MOL0     C34659   2.535   2.050   3.496 -0.2966  0.0682 -0.3524
  252MOL0     C34660   2.468   1.918   3.529  0.2382  0.3116 -0.1187
  252MOL0     C34661   2.363   1.939   3.642  0.0662 -0.1240  0.7566
  252MOL0     O34662   2.423   2.003   3.754  0.0111 -0.2579  0.3993
  252MOL0     C34663   2.348   2.023   3.868 -0.6944 -0.4673 -0.2687
  252MOL0     C34664   2.217   1.972   3.878 -0.7552  0.4605 -0.4953
  252MOL0     C34665   2.150   1.965   3.999  0.1381  0.8860 -0.2882
  252MOL0     C34666   2.020   1.881   3.990  0.3056  0.6997  0.6983
  252MOL0     C34667   2.188   2.039   4.107 -0.0134  0.6362  0.2023
  252MOL0     C34668   2.103   2.050   4.228 -0.5405 -0.1687  0.5667
  252MOL0     O34669   1.976   2.017   4.224 -0.5969 -0.3862  0.1174
  252MOL0     C34670   1.885   2.031   4.322 -0.0190  0.1861  1.0463
  252MOL0     C34671   1.881   2.151   4.392 -0.2281  0.1702  0.6907
  252MOL0     C34672   1.770   2.177   4.470  0.6460  0.1453  0.3027
  252MOL0     C34673   1.660   2.092   4.483  0.5273 -0.1763 -0.4081
  252MOL0     O34674   1.551   2.096   4.567 -0.5523 -0.6455 -0.6250
  252MOL0     C34675   1.535   2.222   4.627  0.5651 -0.4756 -0.1424
  252MOL0     C34676   1.422   2.225   4.730  0.1289 -0.3207 -0.1007
  252MOL0     C34677   1.368   2.095   4.769 -0.1563  0.1850 -0.3987
  252MOL0     C34678   1.254   2.107   4.867  0.4756  0.0784  0.3820
  252MOL0     C34679   1.148   1.998   4.844 -1.0086 -0.9110 -0.2598
  252MOL0     C34680   1.063   1.982   4.959  0.5951 -0.2227  0.3208
  252MOL0     C34681   0.973   1.854   4.956 -0.4216 -0.1892 -0.6411
  252MOL0     C34682   0.885   1.819   4.833  0.1702 -0.6531  0.6572
  252MOL0    Cl34683   0.769   1.691   4.850 -0.1113 -0.3671  0.2997
  252MOL0     C34684   1.667   1.981   4.400  0.4519  0.3387 -0.5042
  252MOL0     C34685   1.779   1.945   4.330 -0.1151  0.5713 -0.2231
  252MOL0     O34686   2.160   2.088   4.332 -0.5142  0.1448  0.4696
  252MOL0     C34687   2.315   2.095   4.094  0.2719 -0.5508  0.5457
  252MOL0     C34688   2.400   2.085   3.984 -0.4975 -0.0910 -0.4769
  252MOL0     N34689   2.611   2.202   3.226 -0.2482 -0.4597  0.5779
  252MOL0     N34690   2.673   2.302   3.174 -0.2294 -0.2220  0.0356
  252MOL0     C34691   3.618   3.086   2.710 -0.1367 -0.0636  0.3656
  252MOL0     C34692   3.738   3.148   2.666  0.4253  0.5239 -0.1868
  252MOL0     C34693   4.191   3.198   2.652  0.6435 -0.1305  0.7079
  252MOL0     C34694   4.205   3.334   2.628 -0.0650 -0.4320  0.0829
  252MOL0     C34695   4.299   3.390   2.545  0.1416 -0.0943  0.1676
  252MOL0     C34696   4.385   3.310   2.471 -0.2556  0.1315  0.3063
  252MOL0     O34697   4.488   3.369   2.393 -0.1603  0.8719  0.6594
  252MOL0     C34698   4.541   3.305   2.273  0.5831  0.3813 -0.7057
  252MOL0     C34699   4.675   3.246   2.297  0.0492  0.2220 -0.6360
  252MOL0     C34700   4.786   3.356   2.312 -0.9618 -0.4403 -0.4694
  252MOL0     C34701   4.935   3.295   2.314 -0.6537  0.9797 -0.4360
  252MOL0     C34702   5.035   3.394   2.281  0.7876 -0.5874  1.3124
  252MOL0     C34703   5.121   3.475   2.264 -0.6958  0.1818 -0.4163
  252MOL0     C34704   4.380   3.173   2.494  0.5124 -0.5995 -0.1412
  252MOL0     C34705   4.284   3.116   2.575 -0.0906 -0.4334  0.0564
  252MOL0     C34706   4.276   2.959   2.593 -0.7418 -0.9559  0.4860
  252MOL0     H34707   3.911   3.084   2.952 -0.7057  0.0575  0.9855
  252MOL0     H34708   3.724   3.009   3.027  1.2442 -3.5744 -1.0641
  252MOL0     H34709   3.461   3.124   3.025  1.6951  0.0458  1.4966
  252MOL0     H34710   3.483   2.955   3.084  1.2901 -0.3850 -1.3253
  252MOL0     H34711   3.237   3.054   3.082 -0.8154 -1.5759 -0.0371
  252MOL0     H34712   3.241   3.035   2.910 -1.4149  1.9912  1.1404
  252MOL0     H34713   3.235   2.786   2.944 -0.4672  1.7360 -0.6808
  252MOL0     H34714   3.301   2.800   3.108  2.7938 -0.1606 -1.8015
  252MOL0     H34715   3.053   2.910   3.153 -1.2418 -0.2557 -0.3066
  252MOL0     H34716   3.033   2.878   2.987 -0.4041 -0.0138 -0.3313
  252MOL0     H34717   3.102   2.682   3.195  0.0820  0.4871 -0.6760
  252MOL0     H34718   3.059   2.636   3.024  2.3744 -2.4725  0.9007
  252MOL0     H34719   2.878   2.750   3.252  0.2266 -1.3626  0.6588
  252MOL0     H34720   2.823   2.745   3.085  1.6665  1.2358 -1.6211
  252MOL0     H34721   2.909   2.497   3.228 -0.4830 -2.3138 -1.0235
  252MOL0     H34722   2.842   2.514   3.061 -3.7307 -0.4950 -0.5287
  252MOL0     H34723   2.711   2.594   3.323  0.5549  1.0146 -1.4703
  252MOL0     H34724   2.631   2.592   3.163  2.7938  3.7265 -0.3974
  252MOL0     H34725   2.549   2.436   3.454  0.9387  0.7229  0.1514
  252MOL0     H34726   2.386   2.101   3.354  0.5125  0.4854 -1.1112
  252MOL0     H34727   2.390   2.212   3.484 -0.0662  0.5167 -1.5406
  252MOL0     H34728   2.626   2.021   3.443 -0.1932 -1.7401  0.7119
  252MOL0     H34729   2.569   2.105   3.585 -1.3934  0.8063 -0.3693
  252MOL0     H34730   2.422   1.876   3.439 -1.6146 -1.5347  1.5904
  252MOL0     H34731   2.541   1.843   3.561  1.5636  0.5722 -2.3141
  252MOL0     H34732   2.276   1.996   3.609  0.3799  0.7882  1.4552
  252MOL0     H34733   2.333   1.844   3.687 -0.7731 -0.6051 -0.7627
  252MOL0     H34734   2.171   1.908   3.803 -4.1848 -0.0025  1.7879
  252MOL0     H34735   2.009   1.822   3.898  1.4411 -1.6494  1.9813
  252MOL0     H34736   1.929   1.942   3.994 -1.6289 -2.0819  3.0428
  252MOL0     H34737   2.007   1.815   4.076 -0.9243 -0.0875 -0.0631
  252MOL0     H34738   1.962   2.222   4.376 -1.2829  1.5074  1.1242
  252MOL0     H34739   1.767   2.273   4.520 -3.0469 -0.8817  2.4235
  252MOL0     H34740   1.620   2.272   4.674 -1.1043  2.7903 -0.2632
  252MOL0     H34741   1.506   2.294   4.549 -1.5466 -0.4621  0.5872
  252MOL0     H34742   1.452   2.295   4.809  0.7627  1.0219 -1.4932
  252MOL0     H34743   1.333   2.270   4.686 -2.0107 -4.8203 -1.0180
  252MOL0     H34744   1.443   2.036   4.823  0.4475 -1.0091 -2.4075
  252MOL0     H34745   1.343   2.027   4.687  1.0762 -2.1741  1.0614
  252MOL0     H34746   1.195   2.199   4.858 -1.0091 -0.9856 -1.6317
  252MOL0     H34747   1.300   2.106   4.967 -2.3456 -1.4347  1.8011
  252MOL0     H34748   1.095   2.025   4.753  1.6825  1.2968 -1.3046
  252MOL0     H34749   1.205   1.907   4.822 -0.0696 -0.2102 -0.8174
  252MOL0     H34750   0.992   2.066   4.962  0.1981 -0.5806  2.5719
  252MOL0     H34751   1.114   1.993   5.055  0.1641  3.6056  0.2926
  252MOL0     H34752   0.914   1.876   5.046  2.7286 -0.6922  1.6982
  252MOL0     H34753   1.021   1.759   4.981 -1.3765  0.0551  2.6128
  252MOL0     H34754   0.956   1.806   4.751  0.4081  5.2512 -0.4750
  252MOL0     H34755   0.824   1.909   4.821 -0.4523 -0.9576  1.4408
  252MOL0     H34756   1.579   1.918   4.398 -0.0940  1.0883 -2.0325
  252MOL0     H34757   1.767   1.858   4.266 -1.3036 -1.4372  2.5242
  252MOL0     H34758   2.343   2.160   4.177  1.5688  2.2976 -1.8832
  252MOL0     H34759   2.503   2.118   3.993 -1.3840  2.7064  0.4404
  252MOL0     H34760   3.529   3.073   2.649  1.8872  0.1743 -2.8992
  252MOL0     H34761   3.751   3.171   2.561  2.0170 -2.8977 -0.8957
  252MOL0     H34762   4.135   3.402   2.676 -1.0129  0.1991 -2.0402
  252MOL0     H34763   4.299   3.499   2.537 -1.7265 -0.1754 -2.1453
  252MOL0     H34764   4.470   3.224   2.252 -0.4042  0.8631  0.6134
  252MOL0     H34765   4.547   3.379   2.193  0.8764  0.1666 -0.8842
  252MOL0     H34766   4.708   3.165   2.231 -2.4661 -0.7300 -0.8297
  252MOL0     H34767   4.677   3.204   2.398 -0.9242  2.0572  0.1985
  252MOL0     H34768   4.793   3.418   2.222  1.9009 -0.9164 -0.6693
  252MOL0     H34769   4.771   3.423   2.397 -0.1518 -0.2889 -0.4356
  252MOL0     H34770   4.932   3.205   2.251 -0.1766  1.0967 -0.6265
  252MOL0     H34771   4.970   3.260   2.412  1.3266  0.3746 -1.3096
  252MOL0     H34772   5.200   3.547   2.255  0.1239 -0.6066  0.3354
  252MOL0     H34773   4.454   3.099   2.462 -0.2650 -0.4987 -2.3875
  252MOL0     H34774   4.333   2.937   2.683  1.7732 -0.9516 -0.9920
  252MOL0     H34775   4.174   2.921   2.597 -1.6464  0.6969 -2.6776
  252MOL0     H34776   4.324   2.904   2.511  1.0596  0.1158  0.7600
  253MOL0     O34777   5.215   1.551   6.004 -0.0086 -0.4043  0.2175
  253MOL0     C34778   5.305   1.507   6.071 -0.1973  0.8229 -0.3170
  253MOL0     O34779   5.407   1.585   6.125 -0.1120 -0.0720 -0.4236
  253MOL0     C34780   5.402   1.718   6.112  0.6736 -0.9133 -0.4320
  253MOL0     C34781   5.338   1.806   6.204 -0.1968 -1.0291 -0.9146
  253MOL0     C34782   5.336   1.949   6.192  1.0819 -0.0012  0.5783
  253MOL0     C34783   5.396   1.991   6.069 -0.3187  0.4354 -0.6062
  253MOL0     O34784   5.397   2.121   6.041 -0.8678 -0.2316 -0.1897
  253MOL0     C34785   5.390   2.225   6.140 -0.1948 -0.9458  0.2886
  253MOL0     C34786   5.515   2.254   6.214 -0.6355 -0.4137  0.1256
  253MOL0     C34787   5.641   2.304   6.131 -0.0580 -0.4093  0.2473
  253MOL0     C34788   5.650   2.462   6.128  0.1882  0.1393  0.0448
  253MOL0     C34789   5.767   2.519   6.043 -0.4890 -0.5619  0.3742
  253MOL0     C34790   5.718   2.525   5.896 -0.4377  0.0754  0.9770
  253MOL0     C34791   5.841   2.588   5.804 -0.4968 -0.1196  0.6760
  253MOL0     C34792   5.826   2.603   5.651  0.9655  0.4069  0.5371
  253MOL0     N34793   5.806   2.484   5.576  0.1955  0.1383  0.4699
  253MOL0     C34794   5.908   2.403   5.530  0.3921  0.4453  0.7225
  253MOL0     C34795   5.842   2.292   5.482  0.3661  0.3765 -0.0433
  253MOL0     C34796   5.925   2.175   5.427  0.5723  1.0482 -0.2827
  253MOL0     C34797   5.956   2.184   5.271  0.4046  0.5344 -0.2950
  253MOL0     C34798   6.073   2.280   5.223 -0.6203  0.4244 -0.7104
  253MOL0     C34799   6.199   2.260   5.306 -0.5959 -0.1551  0.0115
  253MOL0     O34800   6.202   2.321   5.436  0.0626  0.8292  0.9469
  253MOL0     C34801   6.328   2.313   5.492 -0.2313 -0.1463  0.3906
  253MOL0     C34802   6.384   2.435   5.545  0.0104  0.2693  0.5140
  253MOL0     C34803   6.509   2.438   5.598  0.3806  0.3747 -0.1756
  253MOL0     C34804   6.554   2.576   5.647  0.3768 -0.0174 -0.6105
  253MOL0     C34805   6.588   2.318   5.597  1.4911 -0.2793 -0.0881
  253MOL0     C34806   6.728   2.309   5.624 -0.5977 -0.5821  0.2371
  253MOL0     O34807   6.808   2.420   5.589 -0.3667 -0.3092 -0.0999
  253MOL0     C34808   6.945   2.406   5.597  0.1908  0.1028 -0.0765
  253MOL0     C34809   7.035   2.508   5.642 -0.4400 -0.0083 -0.5215
  253MOL0     C34810   7.174   2.491   5.634  0.0097  1.3467  0.2425
  253MOL0     C34811   7.233   2.374   5.582 -0.5600 -0.0576  0.2237
  253MOL0     O34812   7.369   2.363   5.570 -0.1389 -0.6593  0.6759
  253MOL0     C34813   7.428   2.239   5.527 -0.4797 -0.9621  0.2198
  253MOL0     C34814   7.420   2.128   5.632 -0.6164  0.5086 -0.4416
  253MOL0     C34815   7.477   2.157   5.773  0.0396  0.0673 -0.4347
  253MOL0     C34816   7.625   2.127   5.772 -0.4925  0.8873 -0.0126
  253MOL0     C34817   7.688   2.116   5.917 -0.5036  0.3767  0.1739
  253MOL0     C34818   7.836   2.056   5.926 -0.4453 -0.4146  0.3041
  253MOL0     C34819   7.865   2.033   6.068  0.4349  1.0860 -0.4630
  253MOL0     C34820   7.951   2.141   6.128 -0.6413  0.5936 -0.1902
  253MOL0    Cl34821   8.113   2.151   6.054 -0.3164  0.5658 -0.2804
  253MOL0     C34822   7.145   2.275   5.529  0.1772 -0.1273 -0.6223
  253MOL0     C34823   7.008   2.304   5.527 -0.6288 -0.9112  1.0292
  253MOL0     O34824   6.775   2.200   5.664 -0.0481  0.5981  0.3985
  253MOL0     C34825   6.524   2.196   5.557 -1.1723 -0.2862 -0.4965
  253MOL0     C34826   6.399   2.191   5.498  0.3224  0.8262 -0.0393
  253MOL0     N34827   5.712   2.296   5.514 -0.1144 -0.2134 -1.2790
  253MOL0     N34828   5.692   2.410   5.570  0.0798 -0.2786 -0.4816
  253MOL0     C34829   5.458   1.906   5.983  0.1870 -0.7685  0.1792
  253MOL0     C34830   5.458   1.774   6.001 -0.0532  0.4005 -0.3560
  253MOL0     C34831   5.313   1.357   6.087 -0.8748  0.5497 -0.0728
  253MOL0     C34832   5.433   1.296   6.089 -0.1216 -0.4867 -0.0847
  253MOL0     C34833   5.458   1.165   6.098  0.3067  0.7552  1.1307
  253MOL0     C34834   5.350   1.072   6.096 -0.9840  0.1082  0.8769
  253MOL0     O34835   5.371   0.936   6.114  0.0640  0.2831 -0.6084
  253MOL0     C34836   5.505   0.887   6.133  0.1714  0.1392 -0.2457
  253MOL0     C34837   5.497   0.737   6.152 -0.4920  0.1603  0.2469
  253MOL0     C34838   5.420   0.692   6.281  0.3146  0.1483  0.5149
  253MOL0     C34839   5.505   0.677   6.406 -0.2726 -0.3381 -0.5083
  253MOL0     C34840   5.504   0.812   6.461 -0.4861 -0.2813  1.3760
  253MOL0     C34841   5.501   0.922   6.510 -0.1245 -0.2582 -0.6641
  253MOL0     C34842   5.226   1.124   6.091  0.2701  0.5992  0.4884
  253MOL0     C34843   5.202   1.267   6.081 -0.1366 -0.6669 -0.9815
  253MOL0     C34844   5.059   1.317   6.075 -0.5537  0.3237 -0.3215
  253MOL0     H34845   5.282   1.765   6.287 -1.4874  1.1144 -0.6496
  253MOL0     H34846   5.282   2.005   6.268  2.0677  3.3505 -0.9804
  253MOL0     H34847   5.312   2.219   6.217  3.4332  2.6422  4.8617
  253MOL0     H34848   5.359   2.316   6.089  1.2397 -1.3437 -1.3808
  253MOL0     H34849   5.501   2.331   6.291  2.2611  0.2434  0.0833
  253MOL0     H34850   5.550   2.164   6.265  0.3551  0.2684  0.6803
  253MOL0     H34851   5.722   2.268   6.194  0.5832 -1.4021 -1.0778
  253MOL0     H34852   5.656   2.260   6.031 -0.6231 -2.2279  0.9170
  253MOL0     H34853   5.562   2.518   6.096 -1.2518 -0.6720  2.3878
  253MOL0     H34854   5.669   2.494   6.231  0.3764  0.0897  0.0261
  253MOL0     H34855   5.844   2.442   6.032 -1.4501 -1.3788 -0.8827
  253MOL0     H34856   5.805   2.619   6.069 -2.2843  1.3764 -3.6871
  253MOL0     H34857   5.692   2.427   5.857 -1.8286  1.4128 -1.7015
  253MOL0     H34858   5.629   2.586   5.881 -0.2315 -0.1923 -1.8315
  253MOL0     H34859   5.934   2.535   5.827 -0.0520 -0.4845 -1.6645
  253MOL0     H34860   5.861   2.689   5.840 -0.0743  0.3106 -0.7026
  253MOL0     H34861   5.738   2.666   5.636  1.6471  1.7043  1.7611
  253MOL0     H34862   5.912   2.656   5.611 -1.6143  3.6666 -1.2250
  253MOL0     H34863   6.014   2.424   5.529  0.1041  2.0041  0.2968
  253MOL0     H34864   5.857   2.093   5.452  1.5835  1.0468  2.9131
  253MOL0     H34865   6.017   2.162   5.485 -0.4086  0.9830  1.3068
  253MOL0     H34866   5.991   2.091   5.226 -0.8958  1.1780 -2.8580
  253MOL0     H34867   5.870   2.226   5.218 -0.7900 -2.3439 -0.7860
  253MOL0     H34868   6.090   2.254   5.118 -1.4607 -1.6326 -0.3834
  253MOL0     H34869   6.036   2.383   5.229  0.2345  0.6902  0.3455
  253MOL0     H34870   6.219   2.152   5.314  4.0720  0.2030 -3.1524
  253MOL0     H34871   6.280   2.297   5.242 -0.1817  1.7915  1.5722
  253MOL0     H34872   6.329   2.529   5.544  1.9459  1.4466 -0.2722
  253MOL0     H34873   6.578   2.652   5.573  3.8550  0.7062  1.0681
  253MOL0     H34874   6.638   2.550   5.712  0.0200 -2.2038 -0.9682
  253MOL0     H34875   6.484   2.636   5.707 -0.2046  0.0646 -1.3537
  253MOL0     H34876   7.002   2.601   5.686  0.1935  0.8988 -1.8813
  253MOL0     H34877   7.252   2.564   5.658  2.3023 -1.2902  1.3095
  253MOL0     H34878   7.379   2.206   5.436 -1.5478  1.3926 -0.1279
  253MOL0     H34879   7.536   2.249   5.510 -0.2516 -0.9625  1.5266
  253MOL0     H34880   7.315   2.100   5.636 -1.3094  2.9183 -0.2356
  253MOL0     H34881   7.466   2.037   5.592  0.4600  1.0669 -0.5213
  253MOL0     H34882   7.431   2.096   5.850  2.1071  1.2739  1.8845
  253MOL0     H34883   7.465   2.258   5.814  4.0018  0.5435 -0.0309
  253MOL0     H34884   7.684   2.189   5.704  2.3365 -0.5173  0.9994
  253MOL0     H34885   7.632   2.028   5.727 -0.3305  0.7752  0.2600
  253MOL0     H34886   7.682   2.211   5.971  1.5855 -0.0479  1.2909
  253MOL0     H34887   7.618   2.057   5.977 -1.6679 -0.1639 -1.6202
  253MOL0     H34888   7.913   2.123   5.887 -2.2600  1.4284 -0.3125
  253MOL0     H34889   7.847   1.960   5.875 -2.3907 -0.0368 -0.9269
  253MOL0     H34890   7.920   1.939   6.082  1.3946  1.5363 -1.1507
  253MOL0     H34891   7.774   2.037   6.129  0.1223  1.2131 -0.9279
  253MOL0     H34892   7.963   2.107   6.231 -0.1655  0.1753 -0.3801
  253MOL0     H34893   7.900   2.238   6.130 -3.6504 -0.8952  0.6455
  253MOL0     H34894   7.177   2.181   5.484  0.8483 -1.1933  1.9215
  253MOL0     H34895   6.935   2.242   5.476 -2.5739  0.7853  1.6343
  253MOL0     H34896   6.585   2.107   5.546 -0.9857 -0.7506  3.2858
  253MOL0     H34897   6.374   2.103   5.440  1.8345  0.0545  0.4051
  253MOL0     H34898   5.503   1.939   5.890 -0.5622  1.8620  0.6702
  253MOL0     H34899   5.492   1.699   5.930  1.3320 -1.3591  2.0098
  253MOL0     H34900   5.520   1.354   6.059 -0.3908  0.0682  0.1835
  253MOL0     H34901   5.563   1.137   6.107  0.4485  0.9450  0.1845
  253MOL0     H34902   5.563   0.906   6.043  0.0647 -1.9205 -0.7958
  253MOL0     H34903   5.560   0.929   6.218 -0.1907 -1.9415  1.0683
  253MOL0     H34904   5.595   0.688   6.152 -0.4972  0.1069 -1.4335
  253MOL0     H34905   5.444   0.699   6.065 -1.2573 -0.3032  0.9049
  253MOL0     H34906   5.339   0.766   6.286  0.3753  1.0566 -5.3854
  253MOL0     H34907   5.380   0.593   6.259  2.7232 -0.7381 -0.1656
  253MOL0     H34908   5.602   0.634   6.380  0.3142 -0.6944  2.0792
  253MOL0     H34909   5.464   0.614   6.485  0.5110  2.1653  2.0373
  253MOL0     H34910   5.517   1.016   6.559  1.7220 -0.4939 -0.7294
  253MOL0     H34911   5.135   1.064   6.084  0.0652  0.8633  0.8308
  253MOL0     H34912   5.054   1.415   6.123 -0.1375 -0.0644  0.5371
  253MOL0     H34913   5.031   1.330   5.970 -3.2384 -0.0861  0.2555
  253MOL0     H34914   4.990   1.251   6.129 -2.0279  0.7968 -1.5580
  254MOL0     O34915   6.510   9.351   0.829  0.2835 -0.8683  0.0018
  254MOL0     C34916   6.464   9.299   0.731 -0.1995  0.5127  1.0292
  254MOL0     O34917   6.539   9.226   0.643  0.0851 -0.1165  0.3823
  254MOL0     C34918   6.671   9.199   0.662 -0.0679  0.2108  0.1487
  254MOL0     C34919   6.736   9.074   0.665  0.0834  0.3334 -0.2961
  254MOL0     C34920   6.874   9.059   0.689 -0.2026 -0.6916  0.1452
  254MOL0     C34921   6.961   9.169   0.709 -0.4714 -0.5530  0.5866
  254MOL0     O34922   7.091   9.162   0.736 -0.3207  0.1397  0.1925
  254MOL0     C34923   7.171   9.049   0.698 -0.4619  1.2265 -0.4523
  254MOL0     C34924   7.310   9.051   0.774  0.6520 -0.5016 -0.2426
  254MOL0     C34925   7.317   9.079   0.923 -0.6585 -0.7298 -1.4342
  254MOL0     C34926   7.455   9.047   0.993 -0.5293 -0.0307  0.4011
  254MOL0     C34927   7.484   8.895   1.003  0.2607  0.3479  0.1459
  254MOL0     C34928   7.615   8.872   1.089  1.7882 -0.1574  0.5590
  254MOL0     C34929   7.649   8.730   1.122  0.0306  0.3261 -0.1648
  254MOL0     C34930   7.581   8.696   1.256  0.4784 -0.6567 -0.1410
  254MOL0     N34931   7.638   8.569   1.297 -0.0579 -0.0380  0.2379
  254MOL0     C34932   7.761   8.552   1.360 -0.3862 -0.8989 -0.1410
  254MOL0     C34933   7.785   8.423   1.359 -0.0452 -0.1601  0.4810
  254MOL0     C34934   7.905   8.358   1.411 -0.2780 -0.2144  0.3107
  254MOL0     C34935   8.007   8.337   1.300  0.6600 -0.1217 -0.5298
  254MOL0     C34936   8.106   8.241   1.361  0.9369 -0.1035  0.9488
  254MOL0     C34937   8.235   8.211   1.276  0.4834 -0.3385  0.9153
  254MOL0     O34938   8.324   8.317   1.309 -0.1964 -0.6674 -1.0964
  254MOL0     C34939   8.437   8.345   1.244  0.3373  0.2043 -0.2413
  254MOL0     C34940   8.495   8.466   1.280 -0.6020 -0.1711  0.1961
  254MOL0     C34941   8.618   8.516   1.213  0.6767  0.2472 -0.1365
  254MOL0     C34942   8.666   8.657   1.260 -0.2271 -0.2206 -1.2197
  254MOL0     C34943   8.687   8.435   1.117 -0.3297 -0.7446  1.0069
  254MOL0     C34944   8.824   8.464   1.062  1.4119 -0.5060  0.2038
  254MOL0     O34945   8.858   8.391   0.953  0.0263  0.1893  0.4493
  254MOL0     C34946   8.963   8.421   0.868  0.0962  0.5727 -0.1149
  254MOL0     C34947   9.010   8.310   0.792  0.3442  0.0793  0.3902
  254MOL0     C34948   9.114   8.326   0.700  0.1031  0.8779 -0.5400
  254MOL0     C34949   9.172   8.456   0.674  0.1806  0.1245 -0.6733
  254MOL0     O34950   9.249   8.489   0.568  0.5382 -0.1297 -0.1096
  254MOL0     C34951   9.271   8.394   0.470 -0.8793  1.1781 -0.3065
  254MOL0     C34952   9.391   8.443   0.378  0.2739  1.1470 -0.0982
  254MOL0     C34953   9.526   8.428   0.455  0.1827 -0.0166 -0.1104
  254MOL0     C34954   9.649   8.436   0.373 -0.4029  0.4771 -0.2602
  254MOL0     C34955   9.776   8.415   0.461 -0.6825  0.1164  1.0515
  254MOL0     C34956   9.902   8.414   0.373  1.0187 -0.4676  0.2380
  254MOL0     C34957  10.026   8.478   0.442  0.4531 -0.0629  1.2624
  254MOL0     C34958  10.088   8.588   0.356 -0.0291  0.9041 -0.5307
  254MOL0    Cl34959   9.963   8.714   0.342  0.0791  0.2424  0.0272
  254MOL0     C34960   9.136   8.554   0.759 -0.0936  0.6867 -0.5833
  254MOL0     C34961   9.035   8.540   0.860  0.3345 -1.0919  0.3823
  254MOL0     O34962   8.886   8.558   1.107  0.3973  0.7994  0.5948
  254MOL0     C34963   8.627   8.313   1.082 -0.7202 -0.3275  0.8294
  254MOL0     C34964   8.499   8.269   1.140 -0.6595 -0.4098  0.5600
  254MOL0     N34965   7.670   8.363   1.322 -0.9262  0.1091  0.1247
  254MOL0     N34966   7.582   8.445   1.289 -0.4010 -0.6992 -0.3797
  254MOL0     C34967   6.905   9.295   0.684  0.2107  0.1766  1.2840
  254MOL0     C34968   6.764   9.307   0.663  1.4423 -0.3244 -0.0847
  254MOL0     C34969   6.310   9.314   0.712 -0.5724 -0.3733  0.1893
  254MOL0     C34970   6.253   9.429   0.772  0.0279  0.3224  0.0735
  254MOL0     C34971   6.119   9.447   0.753  0.3796  0.6000 -1.3802
  254MOL0     C34972   6.034   9.368   0.671  0.0285  0.0991 -0.3577
  254MOL0     O34973   5.900   9.402   0.651  0.0070 -0.2759 -0.2174
  254MOL0     C34974   5.861   9.539   0.630 -0.2347 -0.5307 -0.7990
  254MOL0     C34975   5.774   9.552   0.512 -0.4739  0.1153  0.0702
  254MOL0     C34976   5.768   9.705   0.459 -0.3995 -0.4296  0.1540
  254MOL0     C34977   5.714   9.799   0.570  1.5186 -0.3680 -0.0072
  254MOL0     C34978   5.566   9.794   0.585 -0.3115  0.1398 -0.1126
  254MOL0     C34979   5.443   9.778   0.590 -0.0994 -1.4844 -0.4948
  254MOL0     C34980   6.096   9.257   0.609 -0.9200 -0.4352 -0.8921
  254MOL0     C34981   6.231   9.216   0.639  1.5870 -0.3267 -0.7744
  254MOL0     C34982   6.277   9.084   0.584 -0.1691  0.6513 -0.3175
  254MOL0     H34983   6.687   8.978   0.653  0.1665  0.2385  0.1003
  254MOL0     H34984   6.919   8.961   0.699 -0.4858 -0.9076 -0.6185
  254MOL0     H34985   7.190   9.052   0.590 -1.4240 -1.1214 -0.7620
  254MOL0     H34986   7.125   8.953   0.722  0.5052  0.1027 -2.7620
  254MOL0     H34987   7.359   8.956   0.751  1.6674  0.3363 -1.7490
  254MOL0     H34988   7.370   9.134   0.733  0.5018  1.6875  3.5092
  254MOL0     H34989   7.307   9.185   0.947 -0.6336 -1.3911  2.0354
  254MOL0     H34990   7.230   9.030   0.967 -0.6131  0.6484  0.2534
  254MOL0     H34991   7.538   9.102   0.947 -0.9671 -0.2758 -0.7120
  254MOL0     H34992   7.439   9.080   1.096  2.0639 -2.1213  1.5762
  254MOL0     H34993   7.499   8.858   0.901  0.6144 -1.5896  0.8677
  254MOL0     H34994   7.401   8.840   1.050  0.9675 -1.3271 -0.4856
  254MOL0     H34995   7.698   8.915   1.033  0.8402  0.4133 -0.4399
  254MOL0     H34996   7.602   8.932   1.179 -2.0646  0.6620 -0.3826
  254MOL0     H34997   7.757   8.714   1.126  0.4125  2.8271  1.5098
  254MOL0     H34998   7.599   8.659   1.055  1.1724  0.4361 -1.1600
  254MOL0     H34999   7.605   8.777   1.326  1.9903 -3.3363  2.7073
  254MOL0     H35000   7.472   8.692   1.260  0.4692  0.3907  2.5409
  254MOL0     H35001   7.810   8.641   1.399  0.9720 -2.1435  1.0938
  254MOL0     H35002   7.873   8.261   1.449 -0.4685 -1.0053 -1.7771
  254MOL0     H35003   7.954   8.424   1.484 -1.9456  1.3420  0.1076
  254MOL0     H35004   7.955   8.304   1.211 -0.3939  2.2625 -0.8830
  254MOL0     H35005   8.052   8.434   1.277  0.3897  0.1983  0.2306
  254MOL0     H35006   8.133   8.259   1.466 -0.2788 -1.4394  1.5180
  254MOL0     H35007   8.058   8.144   1.354  4.9708 -2.2057 -0.9623
  254MOL0     H35008   8.283   8.116   1.303  2.8886  0.8318  0.9865
  254MOL0     H35009   8.205   8.215   1.171 -0.5724  1.4615  1.2399
  254MOL0     H35010   8.451   8.533   1.353  0.2397  1.1193 -0.4407
  254MOL0     H35011   8.719   8.714   1.183  2.0321  1.4913  1.4250
  254MOL0     H35012   8.742   8.634   1.334 -0.7750 -0.4991 -0.7377
  254MOL0     H35013   8.600   8.721   1.319  0.6692 -0.3366 -0.0592
  254MOL0     H35014   8.958   8.215   0.803 -4.1113  2.1071 -0.5802
  254MOL0     H35015   9.150   8.239   0.646 -0.2298 -1.1235  2.2382
  254MOL0     H35016   9.304   8.299   0.514 -2.0204  1.7664  1.9610
  254MOL0     H35017   9.173   8.386   0.422 -0.9507 -1.2083  0.1383
  254MOL0     H35018   9.402   8.372   0.295  2.1162 -0.9317  1.8016
  254MOL0     H35019   9.361   8.538   0.333 -1.9754  0.3554 -0.4270
  254MOL0     H35020   9.528   8.337   0.516 -1.2572  0.3492  0.5402
  254MOL0     H35021   9.516   8.515   0.521 -0.3069  0.4277 -0.7630
  254MOL0     H35022   9.655   8.533   0.323  2.4502  1.1992  1.2630
  254MOL0     H35023   9.643   8.358   0.296 -1.2974 -2.7398  2.8126
  254MOL0     H35024   9.773   8.500   0.529  0.6891  1.6938 -0.7503
  254MOL0     H35025   9.764   8.317   0.508 -3.3307  0.2674  0.8319
  254MOL0     H35026   9.874   8.470   0.283 -0.8866 -0.4121  0.8400
  254MOL0     H35027   9.922   8.313   0.337  0.0677 -1.4969  2.4348
  254MOL0     H35028  10.108   8.406   0.454  2.5727  1.6442 -1.6260
  254MOL0     H35029  10.007   8.505   0.546  0.5547 -1.2938  1.6136
  254MOL0     H35030  10.103   8.553   0.253  0.1453  2.4447 -1.0556
  254MOL0     H35031  10.188   8.618   0.388  0.2961 -0.4729 -0.1791
  254MOL0     H35032   9.176   8.654   0.746 -0.4308  0.7306 -1.3509
  254MOL0     H35033   9.012   8.634   0.909  2.8235 -1.0017  1.5601
  254MOL0     H35034   8.686   8.240   1.027  2.8362  1.4626  1.9345
  254MOL0     H35035   8.447   8.179   1.110 -0.7644 -0.2919  0.3839
  254MOL0     H35036   6.968   9.383   0.694 -2.4113  2.0265  2.7702
  254MOL0     H35037   6.735   9.407   0.632 -1.1464 -1.1756 -0.6209
  254MOL0     H35038   6.306   9.503   0.831  1.5880  0.5839 -1.5554
  254MOL0     H35039   6.083   9.537   0.802 -0.8072 -0.2489 -0.6326
  254MOL0     H35040   5.806   9.576   0.718 -0.2192 -2.3185  0.0121
  254MOL0     H35041   5.955   9.591   0.610 -0.3045  0.8185  1.9021
  254MOL0     H35042   5.674   9.520   0.545 -1.0694  1.5562 -0.2407
  254MOL0     H35043   5.801   9.487   0.428  3.2694  0.4712  0.8583
  254MOL0     H35044   5.865   9.749   0.433  0.8494 -2.2509  1.5092
  254MOL0     H35045   5.709   9.695   0.367 -2.1530  1.8088  0.9603
  254MOL0     H35046   5.746   9.903   0.559  0.1826  0.0591 -0.0286
  254MOL0     H35047   5.754   9.782   0.670  1.2109  0.2065  0.2158
  254MOL0     H35048   5.336   9.776   0.601  0.0032  0.8700  1.7694
  254MOL0     H35049   6.040   9.183   0.553  0.8608 -0.5761 -2.6020
  254MOL0     H35050   6.366   9.045   0.635 -0.3860 -1.2017 -1.2772
  254MOL0     H35051   6.208   8.999   0.587  0.2914  0.2943  1.2368
  254MOL0     H35052   6.314   9.109   0.484 -1.1104 -1.4615 -1.2393
  255MOL0     O35053   7.826   2.315   6.421 -0.1792  0.1378 -0.1417
  255MOL0     C35054   7.813   2.389   6.517 -2.0987 -0.8632 -0.0719
  255MOL0     O35055   7.862   2.362   6.650  0.6076 -0.0378  0.3791
  255MOL0     C35056   7.942   2.248   6.671 -0.2634 -0.0594 -0.5791
  255MOL0     C35057   7.885   2.146   6.742  0.0546  0.8792  0.0652
  255MOL0     C35058   7.954   2.023   6.761 -0.1638  0.5276 -0.3293
  255MOL0     C35059   8.080   2.010   6.707 -0.8821  0.2243 -0.5655
  255MOL0     O35060   8.142   1.889   6.723  0.0471  1.3419  0.0220
  255MOL0     C35061   8.248   1.866   6.639  0.2132 -1.0339  0.1225
  255MOL0     C35062   8.301   1.719   6.633  0.4569 -1.2034  0.9337
  255MOL0     C35063   8.381   1.678   6.747 -0.8649  0.5374 -0.2362
  255MOL0     C35064   8.452   1.549   6.728 -0.3321 -0.0228 -0.5334
  255MOL0     C35065   8.543   1.518   6.858 -0.0799 -0.3286 -0.2291
  255MOL0     C35066   8.454   1.438   6.946 -0.2337  0.2693 -1.2010
  255MOL0     C35067   8.507   1.424   7.088 -0.9821  0.0960  0.1470
  255MOL0     C35068   8.490   1.556   7.172  0.7790  0.9577  0.9591
  255MOL0     N35069   8.566   1.563   7.298 -0.2468  0.8799 -0.7507
  255MOL0     C35070   8.633   1.671   7.345 -1.1962  0.8465  0.0587
  255MOL0     C35071   8.691   1.627   7.460  0.1762  0.4412  0.6817
  255MOL0     C35072   8.785   1.693   7.562  0.4190  0.3644  0.5289
  255MOL0     C35073   8.706   1.797   7.628 -0.3803 -0.9899 -0.3825
  255MOL0     C35074   8.590   1.750   7.714  0.3129  0.4116  1.0305
  255MOL0     C35075   8.544   1.863   7.809 -0.6161 -0.1505 -0.1490
  255MOL0     O35076   8.471   1.971   7.734 -0.3003  0.7081 -0.8482
  255MOL0     C35077   8.400   2.058   7.822 -0.4432  0.6367 -0.9140
  255MOL0     C35078   8.277   2.108   7.773 -0.6373  0.1393  0.9862
  255MOL0     C35079   8.198   2.200   7.852 -0.2911 -0.6714  1.7195
  255MOL0     C35080   8.073   2.255   7.788 -0.3780  0.2676 -0.2491
  255MOL0     C35081   8.230   2.218   7.984 -0.4590  0.2418  0.2394
  255MOL0     C35082   8.146   2.305   8.076  0.5943  0.6514 -0.2858
  255MOL0     O35083   8.177   2.286   8.199 -0.1470 -0.0975 -0.5889
  255MOL0     C35084   8.086   2.316   8.302 -0.1177  0.7829  1.1349
  255MOL0     C35085   8.148   2.321   8.421 -0.3377 -0.1274 -0.5430
  255MOL0     C35086   8.085   2.372   8.536  0.2966 -0.1658  0.4235
  255MOL0     C35087   7.955   2.416   8.526 -0.1916 -0.2067  0.2379
  255MOL0     O35088   7.896   2.467   8.642 -0.6190 -0.8153 -0.1520
  255MOL0     C35089   7.760   2.495   8.644 -0.6384  0.4711  0.7400
  255MOL0     C35090   7.700   2.552   8.772  0.6712 -0.7379  0.1689
  255MOL0     C35091   7.547   2.558   8.756 -0.3058 -0.5475 -0.1886
  255MOL0     C35092   7.501   2.623   8.888 -0.4549 -0.5116 -0.0854
  255MOL0     C35093   7.355   2.615   8.915 -0.0979 -0.1388 -0.5555
  255MOL0     C35094   7.311   2.679   9.049 -0.6339  0.0464 -0.3282
  255MOL0     C35095   7.164   2.715   9.059 -0.0258 -0.2471 -0.5641
  255MOL0     C35096   7.124   2.737   9.208  0.1892 -0.8248 -0.4760
  255MOL0    Cl35097   6.956   2.787   9.227 -0.4128 -0.8913 -0.3605
  255MOL0     C35098   7.889   2.414   8.399 -0.5103 -0.7344 -0.4641
  255MOL0     C35099   7.956   2.359   8.288  0.9102  0.9710  0.2350
  255MOL0     O35100   8.070   2.397   8.035 -0.0713  0.5447  0.3753
  255MOL0     C35101   8.355   2.163   8.033  0.6611 -0.2740  0.0838
  255MOL0     C35102   8.436   2.090   7.956 -1.1702  0.0477  0.4594
  255MOL0     N35103   8.637   1.502   7.488  0.4938  0.0651  0.0776
  255MOL0     N35104   8.571   1.462   7.391  0.0100 -0.3651  0.3663
  255MOL0     C35105   8.145   2.118   6.635  0.5192 -0.9211 -1.1851
  255MOL0     C35106   8.072   2.235   6.621  0.2770 -0.1891 -0.0582
  255MOL0     C35107   7.727   2.510   6.501  0.2940  0.0422  0.2854
  255MOL0     C35108   7.615   2.506   6.425  0.3874  0.4015 -0.5437
  255MOL0     C35109   7.527   2.616   6.423  0.6266 -0.4612  1.1621
  255MOL0     C35110   7.550   2.733   6.496  0.0817 -0.0143 -0.2525
  255MOL0     O35111   7.470   2.847   6.487  0.6423  0.9603 -0.0568
  255MOL0     C35112   7.460   2.909   6.357  0.9198 -0.2859 -0.2971
  255MOL0     C35113   7.323   2.967   6.322 -0.6690  0.2358 -0.3368
  255MOL0     C35114   7.206   2.867   6.351  0.0503  0.1860  0.2546
  255MOL0     C35115   7.069   2.930   6.339  0.4746  1.0950  0.1565
  255MOL0     C35116   7.047   2.960   6.201  0.9295 -0.8156  0.1057
  255MOL0     C35117   6.999   2.961   6.085 -1.0304 -0.0906  0.8860
  255MOL0     C35118   7.669   2.741   6.568  0.8029  0.2852  1.0438
  255MOL0     C35119   7.753   2.630   6.579  0.2831  0.1408  0.0466
  255MOL0     C35120   7.880   2.650   6.654 -0.3809 -0.0006 -0.2430
  255MOL0     H35121   7.781   2.153   6.771 -0.2586  1.3230 -1.1043
  255MOL0     H35122   7.906   1.932   6.795  1.1362 -0.1077 -0.1227
  255MOL0     H35123   8.329   1.935   6.662  1.5391 -2.1831 -0.9546
  255MOL0     H35124   8.216   1.889   6.537  1.3322 -1.0096 -0.2269
  255MOL0     H35125   8.218   1.654   6.605 -0.3807  0.6261 -1.1180
  255MOL0     H35126   8.374   1.712   6.552  0.8166  1.9449  0.8446
  255MOL0     H35127   8.457   1.754   6.767  0.0930  0.2107 -2.3061
  255MOL0     H35128   8.311   1.666   6.830 -0.6202 -2.7052 -0.3632
  255MOL0     H35129   8.380   1.471   6.703  1.1760 -1.8051  0.4459
  255MOL0     H35130   8.520   1.566   6.644  2.3166 -1.2781  1.2290
  255MOL0     H35131   8.570   1.617   6.896 -1.3198  0.1996 -0.6571
  255MOL0     H35132   8.632   1.460   6.833  0.3645  0.4070 -0.3937
  255MOL0     H35133   8.353   1.479   6.937 -0.1024  1.3240  1.3596
  255MOL0     H35134   8.466   1.336   6.909  0.5641  0.7245 -2.2557
  255MOL0     H35135   8.608   1.384   7.088 -1.6504 -1.7031 -0.6845
  255MOL0     H35136   8.454   1.340   7.134  1.7686 -1.0507  1.4567
  255MOL0     H35137   8.510   1.645   7.111 -1.5158  1.5295  0.9585
  255MOL0     H35138   8.384   1.568   7.195 -0.0240 -0.7283 -1.4848
  255MOL0     H35139   8.648   1.763   7.289  0.8644  0.2063 -0.5230
  255MOL0     H35140   8.873   1.728   7.507 -1.4240  1.3228 -1.9797
  255MOL0     H35141   8.818   1.625   7.641  1.8349  0.4067 -0.0043
  255MOL0     H35142   8.769   1.851   7.700 -0.2551 -0.5402 -0.8248
  255MOL0     H35143   8.677   1.880   7.564  0.6769  0.6329  1.1154
  255MOL0     H35144   8.509   1.714   7.649  0.6058 -1.2393  1.5160
  255MOL0     H35145   8.624   1.663   7.771  1.3629 -1.5976 -2.3124
  255MOL0     H35146   8.484   1.829   7.894 -1.8839  0.3479 -0.8098
  255MOL0     H35147   8.622   1.919   7.860 -2.9389  2.1800  1.1116
  255MOL0     H35148   8.248   2.090   7.670  1.2113  0.8810  0.2974
  255MOL0     H35149   8.043   2.210   7.693  0.3398 -0.1524 -0.2810
  255MOL0     H35150   8.090   2.360   7.763 -0.5286  0.2068 -0.6104
  255MOL0     H35151   7.990   2.239   7.858 -0.4950 -0.9169 -0.6420
  255MOL0     H35152   8.249   2.284   8.413 -0.5326 -0.5124 -1.4081
  255MOL0     H35153   8.133   2.378   8.634 -1.2011 -2.6667  1.4145
  255MOL0     H35154   7.746   2.557   8.555 -0.5949 -1.9581 -1.0606
  255MOL0     H35155   7.707   2.405   8.611  0.4037 -0.2014  0.8564
  255MOL0     H35156   7.723   2.480   8.852 -1.2395  1.5595  3.0048
  255MOL0     H35157   7.748   2.648   8.794 -2.9152  0.9954  1.1406
  255MOL0     H35158   7.505   2.456   8.753  0.9314 -1.0532 -1.6008
  255MOL0     H35159   7.525   2.611   8.663 -1.7335  1.4137  1.1923
  255MOL0     H35160   7.524   2.730   8.886  1.2667 -0.7860  1.6357
  255MOL0     H35161   7.560   2.572   8.965 -0.0836 -1.8243 -1.2189
  255MOL0     H35162   7.314   2.663   8.826 -0.3280 -0.5450 -0.6718
  255MOL0     H35163   7.322   2.511   8.911  2.5092 -1.0649  0.1398
  255MOL0     H35164   7.363   2.774   9.059 -1.1231  0.2072  0.8733
  255MOL0     H35165   7.353   2.609   9.122  3.9259  0.0759 -2.5360
  255MOL0     H35166   7.097   2.634   9.028 -0.0217 -0.4251 -0.1141
  255MOL0     H35167   7.146   2.807   9.002 -0.7597  0.2880  0.5101
  255MOL0     H35168   7.171   2.829   9.243 -1.1968 -0.4446  0.4664
  255MOL0     H35169   7.148   2.646   9.265 -2.6447 -1.9437 -0.8962
  255MOL0     H35170   7.794   2.465   8.386  0.4931  1.9088  1.6377
  255MOL0     H35171   7.904   2.351   8.193 -0.2460 -0.6230  0.9447
  255MOL0     H35172   8.379   2.171   8.139 -1.0249 -1.3737  0.5846
  255MOL0     H35173   8.536   2.062   7.989 -0.3935  3.8072  1.7781
  255MOL0     H35174   8.244   2.106   6.592  1.3881 -0.6884  0.6833
  255MOL0     H35175   8.109   2.316   6.559 -1.7438  0.6987 -0.2209
  255MOL0     H35176   7.596   2.412   6.373 -3.2036 -0.8658  2.5889
  255MOL0     H35177   7.441   2.614   6.358  4.0175  2.6082 -4.1836
  255MOL0     H35178   7.538   2.983   6.343  0.3201 -0.0066 -2.4390
  255MOL0     H35179   7.485   2.837   6.279 -0.3684  0.9004 -1.8578
  255MOL0     H35180   7.314   2.985   6.215 -1.9196 -0.0369 -0.2888
  255MOL0     H35181   7.305   3.055   6.384  1.3395 -0.9114  2.0546
  255MOL0     H35182   7.212   2.784   6.280  1.0140 -1.6457  2.3488
  255MOL0     H35183   7.219   2.813   6.445  1.1953 -4.0448 -2.0711
  255MOL0     H35184   7.066   3.017   6.407  0.3750  1.0226  0.2448
  255MOL0     H35185   6.995   2.853   6.360  0.8096  0.7180 -0.0375
  255MOL0     H35186   6.973   2.969   5.981  0.8005  1.5892  0.4853
  255MOL0     H35187   7.696   2.839   6.606  0.6280  0.2639  1.2254
  255MOL0     H35188   7.880   2.587   6.743 -1.3769 -2.1761 -1.7109
  255MOL0     H35189   7.965   2.635   6.586 -2.2690 -0.7884 -2.5532
  255MOL0     H35190   7.885   2.752   6.693  2.5677  0.8295 -2.3487
  256MOL0     O35191   3.641   5.826  10.432  0.5170  0.1309 -0.0318
  256MOL0     C35192   3.561   5.908  10.482 -0.6824  0.1147 -0.1716
  256MOL0     O35193   3.568   5.939  10.620  0.2390  0.2154 -0.2193
  256MOL0     C35194   3.662   5.870  10.697 -0.0863  1.0634  0.2350
  256MOL0     C35195   3.750   5.932  10.776 -0.4742 -0.3799 -0.0395
  256MOL0     C35196   3.841   5.864  10.860 -0.2022 -0.4967  0.3130
  256MOL0     C35197   3.837   5.727  10.869 -0.0047 -0.5143  0.1587
  256MOL0     O35198   3.924   5.650  10.943 -0.5988 -0.4295  0.8401
  256MOL0     C35199   3.973   5.711  11.066  0.2100 -0.3853 -0.2116
  256MOL0     C35200   4.053   5.587  11.129 -0.5477  0.5873  1.3423
  256MOL0     C35201   4.100   5.610  11.267 -0.1003  0.5321  1.2640
  256MOL0     C35202   4.204   5.718  11.278 -0.1887 -0.1861 -0.2487
  256MOL0     C35203   4.202   5.787  11.417  0.0924 -0.0534  0.1910
  256MOL0     C35204   4.210   5.699  11.538  0.2152  0.2089  0.5779
  256MOL0     C35205   4.217   5.786  11.662  1.0950  0.2868  0.6095
  256MOL0     C35206   4.346   5.858  11.687 -0.9586  0.0154  0.7009
  256MOL0     N35207   4.451   5.762  11.736 -0.0937  0.6965 -0.0821
  256MOL0     C35208   4.516   5.667  11.661  0.7892 -0.2838  0.0030
  256MOL0     C35209   4.580   5.593  11.755 -0.1183 -1.1348  0.0408
  256MOL0     C35210   4.649   5.469  11.713  0.3467 -0.6114 -0.5906
  256MOL0     C35211   4.669   5.357  11.819 -0.0834  0.6090 -0.2552
  256MOL0     C35212   4.767   5.379  11.936 -0.7714  0.3100 -0.3613
  256MOL0     C35213   4.777   5.263  12.042 -0.2269  1.4397 -0.0472
  256MOL0     O35214   4.836   5.142  11.977  0.1123  0.1501  1.3866
  256MOL0     C35215   4.968   5.113  11.977 -0.8562  0.6490 -0.6970
  256MOL0     C35216   5.065   5.207  11.983 -0.6679  0.2198  0.3068
  256MOL0     C35217   5.206   5.175  11.990  0.7037  0.8368 -0.6282
  256MOL0     C35218   5.292   5.291  12.002  0.5461 -0.1107 -0.1547
  256MOL0     C35219   5.243   5.040  11.993  0.5090 -0.4689 -0.2289
  256MOL0     C35220   5.384   4.994  12.020  0.3010  0.2285 -0.1568
  256MOL0     O35221   5.481   5.087  12.062  0.0163  0.4750 -0.8215
  256MOL0     C35222   5.607   5.058  12.070  0.4787 -0.3254  0.5355
  256MOL0     C35223   5.695   5.140  12.003 -0.4996  0.1048 -0.1942
  256MOL0     C35224   5.839   5.115  12.015  0.2221  0.1913  0.4252
  256MOL0     C35225   5.888   5.011  12.092  0.3395 -0.8413  0.1427
  256MOL0     O35226   6.023   4.999  12.107 -0.2697  0.1660 -0.8430
  256MOL0     C35227   6.112   5.086  12.036 -0.4057  0.1896 -0.5241
  256MOL0     C35228   6.245   5.006  12.056 -0.4570 -0.5241 -0.3288
  256MOL0     C35229   6.300   5.042  12.200  0.4679  0.5022 -0.3256
  256MOL0     C35230   6.422   4.955  12.217  0.0505 -0.7575 -1.1257
  256MOL0     C35231   6.393   4.807  12.203 -0.6934  0.0835  0.3038
  256MOL0     C35232   6.502   4.705  12.247 -0.0170 -0.1497 -0.2936
  256MOL0     C35233   6.446   4.554  12.239 -0.0309 -0.9416  0.7105
  256MOL0     C35234   6.568   4.473  12.275 -0.4492  0.0553  0.3386
  256MOL0    Cl35235   6.518   4.303  12.273  0.1450 -0.1639  0.5054
  256MOL0     C35236   5.796   4.930  12.152 -0.4461 -0.1906 -0.4048
  256MOL0     C35237   5.655   4.950  12.140  0.3086  0.2194 -0.4128
  256MOL0     O35238   5.401   4.874  12.003  0.0542  0.3262 -0.1750
  256MOL0     C35239   5.141   4.946  11.998 -0.0279  0.5564  0.0610
  256MOL0     C35240   5.004   4.983  11.983 -0.2959 -0.8241 -0.2217
  256MOL0     N35241   4.573   5.652  11.880  0.4282 -0.2128  0.0139
  256MOL0     N35242   4.491   5.751  11.867  0.8105  0.7704  0.3964
  256MOL0     C35243   3.744   5.659  10.784 -0.1708  0.3755 -0.8513
  256MOL0     C35244   3.664   5.725  10.702  0.4406  0.0124 -1.1215
  256MOL0     C35245   3.449   5.952  10.394  0.7238  0.1619 -0.8080
  256MOL0     C35246   3.428   5.888  10.270  0.6225 -0.1264  0.1860
  256MOL0     C35247   3.320   5.937  10.187 -0.4852 -0.0818 -0.6095
  256MOL0     C35248   3.231   6.035  10.224 -0.2611 -0.0194 -0.4497
  256MOL0     O35249   3.125   6.056  10.139 -0.3648 -0.3667 -0.0042
  256MOL0     C35250   3.017   6.144  10.178 -0.4930  0.0848  0.2361
  256MOL0     C35251   2.883   6.101  10.111 -0.1386  0.4483  0.1016
  256MOL0     C35252   2.834   5.961  10.156 -0.6050 -0.5051  0.3176
  256MOL0     C35253   2.791   5.947  10.308  0.5335  0.0421  0.1413
  256MOL0     C35254   2.906   5.917  10.396 -0.0778  0.1026 -0.2850
  256MOL0     C35255   3.001   5.894  10.468 -0.5797 -0.1920 -0.1734
  256MOL0     C35256   3.260   6.096  10.350  0.0849 -0.1660 -0.0292
  256MOL0     C35257   3.365   6.059  10.430 -0.3747 -0.2255 -0.4936
  256MOL0     C35258   3.382   6.136  10.559 -0.1764 -0.0526 -0.1900
  256MOL0     H35259   3.747   6.040  10.775 -0.4997 -0.3837 -1.5891
  256MOL0     H35260   3.910   5.925  10.918 -3.5622  1.3576  2.7465
  256MOL0     H35261   3.896   5.734  11.141  3.5859  1.6241  2.9522
  256MOL0     H35262   4.028   5.804  11.053 -2.3954  2.3835  5.2862
  256MOL0     H35263   3.979   5.506  11.129  1.1572 -1.0176  1.3351
  256MOL0     H35264   4.133   5.558  11.060 -0.6769  0.9677  1.0295
  256MOL0     H35265   4.011   5.623  11.328 -0.5726 -0.8859  0.9176
  256MOL0     H35266   4.147   5.518  11.302  0.7465 -0.0355 -1.1676
  256MOL0     H35267   4.306   5.687  11.256  0.9489  3.0738 -0.1194
  256MOL0     H35268   4.192   5.804  11.212  0.6020 -0.1315 -0.3202
  256MOL0     H35269   4.116   5.855  11.425  0.7870  1.0247 -1.0935
  256MOL0     H35270   4.284   5.859  11.415  1.6484 -1.7123 -2.7652
  256MOL0     H35271   4.119   5.638  11.540 -0.2835  0.9450  1.9530
  256MOL0     H35272   4.298   5.635  11.528  0.1206  0.4408 -2.7912
  256MOL0     H35273   4.187   5.735  11.754 -1.9373 -0.2953 -0.5614
  256MOL0     H35274   4.140   5.862  11.649  1.8797  1.2345  1.3120
  256MOL0     H35275   4.380   5.915  11.600 -1.4432  2.6550  2.1280
  256MOL0     H35276   4.330   5.932  11.766  1.1402 -2.4385  3.6611
  256MOL0     H35277   4.507   5.623  11.562  1.3078 -3.8250  1.3946
  256MOL0     H35278   4.745   5.494  11.665  0.5726 -0.2143  0.0565
  256MOL0     H35279   4.594   5.423  11.631  2.3140 -0.8316 -1.8530
  256MOL0     H35280   4.570   5.340  11.861  0.1156 -0.6006 -0.2360
  256MOL0     H35281   4.697   5.263  11.770 -1.3232  0.8053 -1.3893
  256MOL0     H35282   4.868   5.395  11.895 -1.5901 -0.1145 -2.7016
  256MOL0     H35283   4.724   5.464  11.988  1.6635  0.2786  1.9344
  256MOL0     H35284   4.834   5.290  12.131 -1.6749  0.2699  1.3015
  256MOL0     H35285   4.673   5.251  12.075 -0.2209  1.8756  0.1274
  256MOL0     H35286   5.048   5.313  11.992 -0.0244  0.4748 -1.1321
  256MOL0     H35287   5.332   5.311  12.102  2.1395  0.6037 -0.8962
  256MOL0     H35288   5.239   5.379  11.963  0.9188 -0.7767 -2.3415
  256MOL0     H35289   5.380   5.273  11.940  2.0151 -1.6404  2.2161
  256MOL0     H35290   5.653   5.221  11.944 -3.6614  0.9400  2.8444
  256MOL0     H35291   5.906   5.182  11.963  2.0806 -1.1902  0.9375
  256MOL0     H35292   6.086   5.088  11.929  2.4045  0.3266 -1.2732
  256MOL0     H35293   6.111   5.184  12.082 -3.5224  0.3722 -0.7107
  256MOL0     H35294   6.227   4.898  12.049 -0.8320 -0.4738 -0.1743
  256MOL0     H35295   6.314   5.036  11.977 -1.6594  1.0605 -0.8203
  256MOL0     H35296   6.224   5.025  12.277 -0.0350 -0.3141 -0.9890
  256MOL0     H35297   6.334   5.146  12.206 -0.4209  0.8512 -1.1314
  256MOL0     H35298   6.471   4.979  12.312  1.5927 -0.4321 -1.9819
  256MOL0     H35299   6.494   4.979  12.138  0.4233 -1.3962 -0.9869
  256MOL0     H35300   6.296   4.782  12.247 -2.5486  0.6762 -3.0891
  256MOL0     H35301   6.390   4.786  12.095  0.9306  4.0571 -0.6876
  256MOL0     H35302   6.538   4.723  12.348  0.3260 -1.6666 -0.1158
  256MOL0     H35303   6.585   4.728  12.179 -0.5978  1.5183 -0.4864
  256MOL0     H35304   6.406   4.547  12.137  1.0871  0.8855  0.0887
  256MOL0     H35305   6.367   4.555  12.315  1.8583 -1.8035  2.7961
  256MOL0     H35306   6.606   4.481  12.377  0.4374 -2.3538  0.2501
  256MOL0     H35307   6.648   4.476  12.200  1.0301  0.6578  1.8506
  256MOL0     H35308   5.836   4.857  12.222 -4.4888 -1.2930  1.0417
  256MOL0     H35309   5.596   4.876  12.194  1.7015 -1.6131 -1.3005
  256MOL0     H35310   5.164   4.841  12.016 -5.2813 -1.1497 -1.3137
  256MOL0     H35311   4.922   4.914  11.971 -0.5780 -0.2199 -2.1241
  256MOL0     H35312   3.729   5.552  10.788 -0.9703  0.4634  3.1503
  256MOL0     H35313   3.592   5.663  10.648 -1.5905  0.1722  1.2448
  256MOL0     H35314   3.499   5.812  10.241  1.0263  1.3038 -3.0066
  256MOL0     H35315   3.296   5.879  10.099  0.4314  0.8137 -1.4775
  256MOL0     H35316   3.001   6.166  10.284 -1.3198  3.9655 -0.5460
  256MOL0     H35317   3.042   6.238  10.128  1.9391 -1.3321 -1.4019
  256MOL0     H35318   2.889   6.092  10.003  2.3384  0.3038  0.1910
  256MOL0     H35319   2.797   6.164  10.137  0.0094  0.8018 -0.2584
  256MOL0     H35320   2.749   5.946  10.088  1.1169 -0.1789 -2.0172
  256MOL0     H35321   2.919   5.897  10.129  1.8857  1.5680  2.6915
  256MOL0     H35322   2.717   5.868  10.314 -1.9685  2.1560 -0.8318
  256MOL0     H35323   2.747   6.043  10.339 -0.3881 -1.2437  3.0712
  256MOL0     H35324   3.095   5.887  10.520 -0.3212 -0.2806 -0.6507
  256MOL0     H35325   3.206   6.179  10.395 -0.0542  0.1323 -0.7318
  256MOL0     H35326   3.367   6.065  10.640 -2.4201  0.3246 -0.2041
  256MOL0     H35327   3.482   6.171  10.584 -1.0035  1.9847  0.5075
  256MOL0     H35328   3.312   6.220  10.571 -2.0525 -1.6438  0.5327
  257MOL0     O35329   8.703   8.452   3.219 -0.1792  0.8390  0.7609
  257MOL0     C35330   8.682   8.333   3.186  0.1838  0.1501  0.1403
  257MOL0     O35331   8.777   8.250   3.134  1.1378 -0.0102 -0.7827
  257MOL0     C35332   8.904   8.297   3.131  0.3801  0.1563 -0.1199
  257MOL0     C35333   8.942   8.380   3.028 -0.3671 -0.7489 -0.5590
  257MOL0     C35334   9.079   8.416   3.016  0.3726 -0.8665  0.5819
  257MOL0     C35335   9.165   8.374   3.114 -0.8595 -0.8177  0.3273
  257MOL0     O35336   9.295   8.414   3.112 -0.0970 -0.2434  0.0913
  257MOL0     C35337   9.324   8.512   3.206 -0.4424  0.9108  0.0321
  257MOL0     C35338   9.446   8.472   3.302 -0.0421 -0.3457 -0.2820
  257MOL0     C35339   9.584   8.474   3.227  0.5188 -0.7496 -0.9248
  257MOL0     C35340   9.700   8.397   3.307  0.0012 -0.4393  0.4623
  257MOL0     C35341   9.753   8.497   3.415  0.1844 -0.0004 -0.3043
  257MOL0     C35342   9.861   8.430   3.486 -0.2751 -0.0016  0.7586
  257MOL0     C35343   9.917   8.502   3.610  0.9104 -0.2408  0.4759
  257MOL0     C35344  10.071   8.483   3.634 -0.0407 -0.0539  0.6273
  257MOL0     N35345  10.099   8.359   3.704 -0.2328  0.2926  0.6118
  257MOL0     C35346  10.131   8.236   3.642  0.8168 -0.5389  0.1451
  257MOL0     C35347  10.151   8.151   3.747 -0.3423  0.2890 -0.2180
  257MOL0     C35348  10.186   8.001   3.734 -0.0349 -0.4756 -0.5925
  257MOL0     C35349  10.316   7.964   3.797 -0.5499  0.1464 -0.7075
  257MOL0     C35350  10.421   8.034   3.710 -0.0454  0.2414  0.0061
  257MOL0     C35351  10.561   8.033   3.765  0.0255 -0.1379  0.1860
  257MOL0     O35352  10.581   7.903   3.826 -0.5432 -0.1493 -0.1204
  257MOL0     C35353  10.706   7.848   3.831 -0.5493  0.1748  0.1135
  257MOL0     C35354  10.817   7.919   3.786 -1.3968 -0.1882  0.1083
  257MOL0     C35355  10.948   7.859   3.785 -0.5432 -1.1875  0.6611
  257MOL0     C35356  11.062   7.950   3.767 -0.7745 -0.0230 -0.5882
  257MOL0     C35357  10.967   7.721   3.822  0.9084  0.5934  0.0996
  257MOL0     C35358  11.093   7.637   3.806 -0.5198  0.8084  0.4599
  257MOL0     O35359  11.087   7.507   3.854  0.3147 -0.1198  0.2509
  257MOL0     C35360  11.158   7.406   3.799  0.2126  0.3824 -0.6014
  257MOL0     C35361  11.121   7.274   3.845 -0.2038  0.0018  0.2464
  257MOL0     C35362  11.185   7.163   3.786  0.2758 -0.7472 -0.7584
  257MOL0     C35363  11.292   7.173   3.701  0.2427  0.1402  0.1992
  257MOL0     O35364  11.344   7.058   3.645 -0.0505  0.5688  0.1565
  257MOL0     C35365  11.387   7.067   3.510 -0.2099 -0.1426  0.2265
  257MOL0     C35366  11.463   6.946   3.470  0.6149  0.1121 -0.3460
  257MOL0     C35367  11.545   6.947   3.339  0.7535 -0.4894  0.2441
  257MOL0     C35368  11.679   7.025   3.345  0.2452  1.2120  0.4261
  257MOL0     C35369  11.768   7.022   3.223 -0.9235  0.5351 -0.1252
  257MOL0     C35370  11.919   6.994   3.266  0.2953 -0.9000  0.2476
  257MOL0     C35371  11.956   6.856   3.320 -0.0829 -0.7208  0.2545
  257MOL0     C35372  11.958   6.749   3.204  0.3221  0.3223  0.1869
  257MOL0    Cl35373  11.987   6.588   3.275  0.2256 -0.2302  0.0518
  257MOL0     C35374  11.331   7.297   3.662  0.3964 -0.2475 -0.4581
  257MOL0     C35375  11.264   7.415   3.708 -0.0809 -0.2764 -0.6809
  257MOL0     O35376  11.194   7.694   3.756  0.5545  0.5964 -0.3239
  257MOL0     C35377  10.849   7.653   3.860 -0.7169 -0.1820  0.0515
  257MOL0     C35378  10.729   7.719   3.875  0.4203  0.4838  0.0348
  257MOL0     N35379  10.149   8.225   3.859 -0.8785 -0.7879 -0.4466
  257MOL0     N35380  10.129   8.351   3.843 -0.5286  0.1201  0.3190
  257MOL0     C35381   9.129   8.299   3.218  0.4456  1.1237 -0.1966
  257MOL0     C35382   8.994   8.264   3.227  0.3060 -0.1901 -0.3354
  257MOL0     C35383   8.540   8.281   3.170  0.5127 -0.2140 -0.1667
  257MOL0     C35384   8.518   8.150   3.117  0.1941  0.0791 -0.4941
  257MOL0     C35385   8.389   8.101   3.112 -0.3605  0.2615  0.8698
  257MOL0     C35386   8.280   8.177   3.137 -0.2371  0.1423  0.6169
  257MOL0     O35387   8.151   8.134   3.128  0.5118  0.2932 -0.5444
  257MOL0     C35388   8.110   8.067   3.015 -0.1263  0.5384 -0.1778
  257MOL0     C35389   7.970   8.013   3.046  0.5959 -0.8358  0.3097
  257MOL0     C35390   7.982   7.918   3.166 -0.1719  0.4723 -0.0608
  257MOL0     C35391   7.844   7.856   3.181 -0.5157  0.6757 -0.0960
  257MOL0     C35392   7.743   7.929   3.263  0.0417  0.4040  0.7554
  257MOL0     C35393   7.656   7.982   3.329  0.0097 -0.0653  0.2358
  257MOL0     C35394   8.298   8.312   3.183  0.5981 -0.0261  0.7639
  257MOL0     C35395   8.425   8.360   3.210  0.4644  0.0436 -0.8128
  257MOL0     C35396   8.430   8.493   3.281 -0.5343  0.1461  0.2348
  257MOL0     H35397   8.862   8.410   2.961 -2.5949 -2.4535  1.1763
  257MOL0     H35398   9.105   8.474   2.927 -0.6150  1.0348  1.4753
  257MOL0     H35399   9.237   8.531   3.270 -2.7748  0.6011 -2.8311
  257MOL0     H35400   9.346   8.607   3.156 -0.7705  2.0398  1.9260
  257MOL0     H35401   9.438   8.543   3.385 -1.8611 -0.3527 -0.3955
  257MOL0     H35402   9.438   8.370   3.341  1.4487 -0.7460 -0.9359
  257MOL0     H35403   9.578   8.425   3.129 -0.0040 -0.6013 -0.9715
  257MOL0     H35404   9.615   8.578   3.215 -2.0761 -0.0525 -2.5388
  257MOL0     H35405   9.661   8.305   3.351  0.5508 -0.5106  0.8121
  257MOL0     H35406   9.784   8.374   3.240  0.0535  1.2170 -0.0815
  257MOL0     H35407   9.678   8.520   3.490  0.6674  0.5161  0.0227
  257MOL0     H35408   9.789   8.591   3.371  1.1171  0.2563  0.9620
  257MOL0     H35409   9.826   8.332   3.522  0.1694 -0.0022  1.1947
  257MOL0     H35410   9.942   8.417   3.413 -2.3224  1.8996 -2.0747
  257MOL0     H35411   9.857   8.470   3.696  0.8459  0.3488  0.6544
  257MOL0     H35412   9.906   8.610   3.595 -1.8773 -0.2647  1.6839
  257MOL0     H35413  10.112   8.470   3.534  0.3482 -0.4137  0.8298
  257MOL0     H35414  10.116   8.575   3.675 -0.1931  0.6570 -0.7549
  257MOL0     H35415  10.143   8.210   3.537 -1.6524 -1.5698  0.0512
  257MOL0     H35416  10.189   7.975   3.628  2.0248 -0.2055 -0.6433
  257MOL0     H35417  10.102   7.945   3.776 -0.8092  1.8945  1.2173
  257MOL0     H35418  10.306   7.996   3.901 -0.9011 -2.3575  0.0813
  257MOL0     H35419  10.328   7.856   3.791  0.9118  0.2280  0.2599
  257MOL0     H35420  10.423   7.982   3.614 -3.0838 -0.5421  0.2645
  257MOL0     H35421  10.392   8.139   3.698 -0.1440  0.3303  0.9759
  257MOL0     H35422  10.630   8.053   3.682 -1.4091 -0.2817 -1.1020
  257MOL0     H35423  10.585   8.111   3.837  0.9728  1.9982 -2.3152
  257MOL0     H35424  10.828   8.025   3.763  1.1576 -0.5184 -0.5198
  257MOL0     H35425  11.140   7.913   3.835 -1.8908 -0.8118  0.3101
  257MOL0     H35426  11.038   8.054   3.789 -1.3539  0.3213 -2.6189
  257MOL0     H35427  11.101   7.958   3.665 -0.6628 -0.6466 -0.6011
  257MOL0     H35428  11.037   7.258   3.913  0.9537  0.2686  1.8005
  257MOL0     H35429  11.145   7.065   3.811  0.4045 -1.5965 -3.4965
  257MOL0     H35430  11.308   7.070   3.434  1.4552 -0.1794 -1.5847
  257MOL0     H35431  11.453   7.154   3.500 -0.9420  0.3950 -0.0784
  257MOL0     H35432  11.536   6.912   3.544  3.5364  2.5850 -1.8552
  257MOL0     H35433  11.388   6.867   3.455 -0.4530  0.2657  3.2473
  257MOL0     H35434  11.484   6.992   3.260  1.0632  0.9471  0.7808
  257MOL0     H35435  11.576   6.847   3.308  1.3207 -0.2462  0.0107
  257MOL0     H35436  11.738   7.000   3.434  0.5955 -3.0664 -0.7774
  257MOL0     H35437  11.644   7.127   3.363 -0.7280  1.0728 -0.6262
  257MOL0     H35438  11.735   6.939   3.160 -2.8927  0.6912  0.6260
  257MOL0     H35439  11.750   7.117   3.173 -1.9391  1.3780  1.7394
  257MOL0     H35440  11.942   7.074   3.338 -0.3215  0.6048 -1.1689
  257MOL0     H35441  11.980   7.028   3.182  1.0404 -1.0974  0.7000
  257MOL0     H35442  11.891   6.823   3.402 -0.7319 -0.2758 -0.0753
  257MOL0     H35443  12.051   6.853   3.375  0.8338 -2.3644 -1.2843
  257MOL0     H35444  12.037   6.768   3.132 -0.8224 -1.3937 -1.6281
  257MOL0     H35445  11.864   6.754   3.147  1.5558  1.7290 -1.8471
  257MOL0     H35446  11.405   7.326   3.589 -1.8650  1.7608 -2.1287
  257MOL0     H35447  11.303   7.510   3.674 -2.2152  1.3305  1.0125
  257MOL0     H35448  10.859   7.550   3.892 -2.4883 -0.5435 -0.4646
  257MOL0     H35449  10.641   7.666   3.910  0.1650  1.2951  0.6778
  257MOL0     H35450   9.192   8.269   3.302  2.4461 -0.0079 -1.9933
  257MOL0     H35451   8.965   8.202   3.312 -0.4861 -0.3562 -0.7176
  257MOL0     H35452   8.607   8.093   3.093 -0.0560 -0.0241 -1.1860
  257MOL0     H35453   8.374   7.999   3.076  0.0172  0.2749  0.6675
  257MOL0     H35454   8.097   8.132   2.928 -2.9066 -1.0073 -1.0682
  257MOL0     H35455   8.169   7.978   2.991 -0.6837  0.6218 -2.0008
  257MOL0     H35456   7.926   7.959   2.961 -0.6870  1.1018 -0.3188
  257MOL0     H35457   7.905   8.098   3.067  0.9149 -0.6067  0.3835
  257MOL0     H35458   8.060   7.844   3.151 -1.0629 -0.8170  1.4157
  257MOL0     H35459   8.011   7.968   3.259 -1.7479  3.7702 -1.1577
  257MOL0     H35460   7.868   7.768   3.243 -0.4345  1.0417  0.4000
  257MOL0     H35461   7.811   7.828   3.081 -0.0172  2.1478 -0.6879
  257MOL0     H35462   7.568   8.018   3.377  1.0560  1.1665  1.3228
  257MOL0     H35463   8.204   8.360   3.209 -0.2836  0.4839 -2.8210
  257MOL0     H35464   8.335   8.512   3.330 -0.3886  0.1550  0.5117
  257MOL0     H35465   8.500   8.490   3.365 -1.0340  0.2736  0.6599
  257MOL0     H35466   8.457   8.576   3.215 -0.4456  0.3858  0.5730
  258MOL0     O35467   1.671   0.989   1.153 -0.2655 -0.0010  0.3026
  258MOL0     C35468   1.572   0.975   1.083 -0.9834  0.3020  0.2860
  258MOL0     O35469   1.575   0.903   0.964  0.6741  0.0544 -0.2729
  258MOL0     C35470   1.702   0.887   0.918 -0.5014  0.6364  0.1928
  258MOL0     C35471   1.778   0.775   0.961  0.3204  0.2679 -0.5225
  258MOL0     C35472   1.894   0.746   0.896  0.4889  0.4874 -0.6949
  258MOL0     C35473   1.939   0.824   0.798  0.0582 -0.9050 -0.2776
  258MOL0     O35474   2.059   0.808   0.739  0.4371 -0.1822  0.1178
  258MOL0     C35475   2.172   0.799   0.830 -0.7106  0.1303 -0.0659
  258MOL0     C35476   2.210   0.932   0.897 -0.4056 -0.0301 -0.3166
  258MOL0     C35477   2.201   1.060   0.807  0.1663 -0.7488 -0.1842
  258MOL0     C35478   2.223   1.191   0.879 -0.6512  0.1846  0.3848
  258MOL0     C35479   2.160   1.312   0.815 -0.1393 -0.4700 -0.7963
  258MOL0     C35480   2.231   1.439   0.873  1.1264 -0.4914 -0.5717
  258MOL0     C35481   2.353   1.485   0.792 -0.7629 -1.0347  0.3577
  258MOL0     C35482   2.316   1.514   0.640 -0.1366  0.0425 -0.2150
  258MOL0     N35483   2.423   1.594   0.562  0.2663  0.2578  0.0521
  258MOL0     C35484   2.429   1.729   0.564 -0.6843  1.1493  0.1390
  258MOL0     C35485   2.526   1.763   0.478 -0.0911  0.4132 -0.0339
  258MOL0     C35486   2.570   1.904   0.443 -0.3454  0.6300 -0.2803
  258MOL0     C35487   2.723   1.929   0.442 -0.0560 -0.4988 -0.0840
  258MOL0     C35488   2.782   1.900   0.306 -0.3735  0.1230 -0.3990
  258MOL0     C35489   2.922   1.940   0.302 -0.8925 -0.7559  0.2265
  258MOL0     O35490   2.951   1.985   0.168 -0.5455 -0.3672 -0.0703
  258MOL0     C35491   3.084   2.021   0.134  0.7523 -0.4298 -0.1212
  258MOL0     C35492   3.098   2.042  -0.004 -0.4333  0.4659 -0.1943
  258MOL0     C35493   3.215   2.104  -0.056  0.1950  0.6077 -0.7960
  258MOL0     C35494   3.204   2.133  -0.198 -0.4440  0.1373  0.1566
  258MOL0     C35495   3.324   2.124   0.028 -0.9813 -0.7742 -0.0813
  258MOL0     C35496   3.451   2.179  -0.027 -0.4985  0.6332 -0.1038
  258MOL0     O35497   3.480   2.155  -0.160  0.3626 -0.1952 -0.8404
  258MOL0     C35498   3.605   2.182  -0.200  0.3540 -0.3463  0.5910
  258MOL0     C35499   3.608   2.277  -0.300  0.0949 -0.4086 -0.2080
  258MOL0     C35500   3.738   2.317  -0.349 -0.8641  0.1750 -0.2024
  258MOL0     C35501   3.855   2.268  -0.295  0.5339 -0.6453 -1.1078
  258MOL0     O35502   3.982   2.311  -0.337 -0.0889  0.2876  0.1524
  258MOL0     C35503   3.984   2.445  -0.388  0.2527 -0.5018 -0.3159
  258MOL0     C35504   4.126   2.499  -0.383  0.3046 -0.7955  0.5281
  258MOL0     C35505   4.210   2.411  -0.474  0.7131 -0.1602 -0.9433
  258MOL0     C35506   4.335   2.490  -0.512  0.1490 -0.1441 -0.4921
  258MOL0     C35507   4.432   2.394  -0.579  0.5266  0.0288 -1.2930
  258MOL0     C35508   4.524   2.313  -0.474 -0.0134 -0.1308 -0.2271
  258MOL0     C35509   4.610   2.206  -0.541  0.2485 -0.5750  0.2485
  258MOL0     C35510   4.728   2.165  -0.457 -1.0224  0.1163  0.7532
  258MOL0    Cl35511   4.841   2.072  -0.534 -0.4164  0.4265  0.2675
  258MOL0     C35512   3.856   2.185  -0.189  0.0809 -0.2838  0.6457
  258MOL0     C35513   3.725   2.129  -0.148 -0.3755 -0.1481 -0.4884
  258MOL0     O35514   3.523   2.237   0.051  0.2731  0.2597 -0.5049
  258MOL0     C35515   3.310   2.089   0.166  0.5989 -0.0687 -0.1654
  258MOL0     C35516   3.192   2.033   0.214  0.3103  0.2425 -1.0771
  258MOL0     N35517   2.575   1.640   0.422  0.0728 -0.6763 -0.5087
  258MOL0     N35518   2.504   1.547   0.473 -0.4959 -0.3507 -0.3835
  258MOL0     C35519   1.857   0.923   0.745  0.0810 -0.3180  0.0493
  258MOL0     C35520   1.743   0.956   0.802 -0.6376  0.1541 -0.5910
  258MOL0     C35521   1.447   0.995   1.147 -0.9746  0.0130  0.1037
  258MOL0     C35522   1.344   0.923   1.086 -0.6229  0.4787  0.5698
  258MOL0     C35523   1.219   0.935   1.141  0.2861 -1.7628 -0.2885
  258MOL0     C35524   1.196   1.009   1.266  0.4354  1.0893  0.8794
  258MOL0     O35525   1.065   1.007   1.313 -0.3952  0.0404 -0.5783
  258MOL0     C35526   1.021   0.899   1.406  0.1218  0.9752 -0.4642
  258MOL0     C35527   0.946   0.769   1.349  0.0116  0.0807 -0.4266
  258MOL0     C35528   0.824   0.810   1.269  0.7079 -0.5932 -0.3077
  258MOL0     C35529   0.757   0.693   1.184 -0.8447 -0.3455  0.0175
  258MOL0     C35530   0.817   0.689   1.054  0.1597  0.3062 -0.2672
  258MOL0     C35531   0.866   0.710   0.945 -0.4592  0.3590 -0.7366
  258MOL0     C35532   1.303   1.071   1.328  0.1722  0.0741  0.6828
  258MOL0     C35533   1.425   1.078   1.258 -0.5914  0.2687 -0.3216
  258MOL0     C35534   1.536   1.150   1.339 -0.2551  0.7164 -0.7234
  258MOL0     H35535   1.752   0.718   1.050  3.2798  1.3343  1.1709
  258MOL0     H35536   1.945   0.655   0.928  0.2016 -0.2411 -2.1701
  258MOL0     H35537   2.259   0.763   0.775 -0.5891  0.7625 -0.3023
  258MOL0     H35538   2.152   0.724   0.906  1.8956  0.7527  1.3499
  258MOL0     H35539   2.139   0.947   0.980  0.7251  1.1761  0.4821
  258MOL0     H35540   2.308   0.927   0.946 -0.7568  1.6191  0.6138
  258MOL0     H35541   2.277   1.054   0.729 -0.7144  2.3637 -1.4224
  258MOL0     H35542   2.102   1.070   0.762  1.2661 -0.2137 -2.6702
  258MOL0     H35543   2.177   1.174   0.977  1.7016 -1.4878  1.2687
  258MOL0     H35544   2.329   1.205   0.903  0.3726 -0.5588 -3.1164
  258MOL0     H35545   2.054   1.303   0.840 -0.0999  0.4794 -0.2413
  258MOL0     H35546   2.173   1.305   0.706  1.2030 -0.0810 -0.6827
  258MOL0     H35547   2.154   1.516   0.879  1.0820 -0.6061  0.8051
  258MOL0     H35548   2.254   1.422   0.979 -3.7850  3.8543  1.5911
  258MOL0     H35549   2.429   1.409   0.810 -0.3146 -0.6584  0.0678
  258MOL0     H35550   2.378   1.583   0.834  0.9864 -1.1154 -0.4570
  258MOL0     H35551   2.293   1.423   0.583 -1.1638 -1.5533  2.5447
  258MOL0     H35552   2.227   1.577   0.641  0.5980  1.1532  1.9412
  258MOL0     H35553   2.359   1.794   0.616  0.5764  1.0496  2.0509
  258MOL0     H35554   2.520   1.972   0.514 -2.1094  1.0462 -1.8310
  258MOL0     H35555   2.526   1.918   0.344  0.6874 -0.2446 -0.8772
  258MOL0     H35556   2.744   2.035   0.463  0.3942 -0.4824 -0.5853
  258MOL0     H35557   2.770   1.879   0.527  0.1648  1.0748  0.7665
  258MOL0     H35558   2.775   1.796   0.276 -0.7920  0.5086 -1.7124
  258MOL0     H35559   2.722   1.960   0.236  0.9746 -0.9475 -2.5794
  258MOL0     H35560   2.937   2.022   0.374 -1.9671  0.5718 -0.9803
  258MOL0     H35561   2.991   1.870   0.349 -1.2987 -1.6998 -0.5622
  258MOL0     H35562   3.006   2.039  -0.063  0.4500  1.5747 -1.6923
  258MOL0     H35563   3.235   2.237  -0.209 -0.6098  0.1273 -0.5032
  258MOL0     H35564   3.102   2.124  -0.239 -1.3289  1.4683  1.9461
  258MOL0     H35565   3.271   2.069  -0.256  1.2998  1.5925  0.4971
  258MOL0     H35566   3.519   2.312  -0.349  0.8224 -0.3125 -1.4970
  258MOL0     H35567   3.737   2.382  -0.436 -0.8869  0.0132 -0.3224
  258MOL0     H35568   3.940   2.440  -0.488 -0.1545  3.9966 -0.5530
  258MOL0     H35569   3.926   2.513  -0.326  3.5032  0.6245  1.7340
  258MOL0     H35570   4.112   2.603  -0.413 -1.3724 -1.0901  0.2266
  258MOL0     H35571   4.161   2.516  -0.281  0.0146  3.2469  0.1178
  258MOL0     H35572   4.155   2.372  -0.560  1.3449 -1.0343 -0.9618
  258MOL0     H35573   4.233   2.315  -0.429 -0.5824  0.3536  0.9285
  258MOL0     H35574   4.377   2.535  -0.421 -0.6089 -2.0851  0.8621
  258MOL0     H35575   4.313   2.570  -0.584  1.9900  0.9230  0.0631
  258MOL0     H35576   4.371   2.317  -0.627  1.7565 -2.5382  0.9476
  258MOL0     H35577   4.492   2.449  -0.652 -1.1183  4.4906  0.4110
  258MOL0     H35578   4.458   2.261  -0.405 -0.9509  0.5024 -0.6227
  258MOL0     H35579   4.589   2.383  -0.421  0.9170  1.6847 -3.4602
  258MOL0     H35580   4.647   2.252  -0.633  1.2444 -1.0841  0.3843
  258MOL0     H35581   4.542   2.123  -0.561 -0.4245 -0.4591  1.8673
  258MOL0     H35582   4.697   2.098  -0.376 -3.7250  2.0717  1.4754
  258MOL0     H35583   4.793   2.244  -0.418 -1.1286 -0.6232  2.5264
  258MOL0     H35584   3.953   2.144  -0.162  0.2127 -1.1974 -1.0643
  258MOL0     H35585   3.718   2.051  -0.073  3.0449  0.6671  0.8583
  258MOL0     H35586   3.394   2.104   0.233  0.1781  1.3446  0.0815
  258MOL0     H35587   3.175   2.003   0.317  0.8469  1.8391 -0.4817
  258MOL0     H35588   1.886   0.988   0.663 -0.8574  0.3423  0.2309
  258MOL0     H35589   1.681   1.030   0.753 -0.9328  3.0656  3.6420
  258MOL0     H35590   1.361   0.856   1.002 -0.7550  2.1298 -0.8249
  258MOL0     H35591   1.139   0.881   1.092 -0.9610 -0.2395  0.0014
  258MOL0     H35592   1.097   0.860   1.475 -0.5952 -0.4942 -0.4631
  258MOL0     H35593   0.939   0.939   1.468  0.5526 -1.1850  1.6452
  258MOL0     H35594   0.921   0.697   1.428  1.6625  1.5060  1.5027
  258MOL0     H35595   1.008   0.707   1.284  0.5540  1.3138 -1.1287
  258MOL0     H35596   0.746   0.844   1.338  1.3470 -1.3710  0.8347
  258MOL0     H35597   0.848   0.899   1.209 -2.9302  2.2567  2.0240
  258MOL0     H35598   0.650   0.711   1.172 -0.3792  2.8989 -0.0820
  258MOL0     H35599   0.773   0.599   1.238  3.8362 -1.1132 -2.1416
  258MOL0     H35600   0.913   0.733   0.852  0.8565 -0.5057 -0.3099
  258MOL0     H35601   1.278   1.122   1.421 -1.2804  2.4645 -0.9131
  258MOL0     H35602   1.590   1.223   1.278  0.4685  0.6788 -0.1317
  258MOL0     H35603   1.497   1.207   1.424 -1.9834 -0.1882 -0.8630
  258MOL0     H35604   1.610   1.077   1.373 -0.4089  1.3454  1.0295
  259MOL0     O35605   3.945  10.115   2.153 -0.2570  0.2543 -0.3070
  259MOL0     C35606   3.880  10.034   2.219  0.1272 -0.0032  1.1982
  259MOL0     O35607   3.898   9.892   2.214 -0.0449  0.9319 -0.4310
  259MOL0     C35608   4.014   9.851   2.155 -0.0584 -0.1116 -0.3435
  259MOL0     C35609   4.012   9.837   2.018 -0.6316  0.0438  0.4838
  259MOL0     C35610   4.131   9.797   1.958 -0.4653 -0.9806  0.4446
  259MOL0     C35611   4.250   9.768   2.035 -0.4780 -0.5431 -0.0050
  259MOL0     O35612   4.360   9.719   1.978  0.6877  0.6395  0.4002
  259MOL0     C35613   4.346   9.674   1.840  0.1269  0.0218  0.9446
  259MOL0     C35614   4.464   9.584   1.803 -0.9144  0.3174 -0.4527
  259MOL0     C35615   4.465   9.559   1.656  0.5134 -0.0507 -0.0918
  259MOL0     C35616   4.578   9.477   1.589  0.5430 -0.0273 -0.3631
  259MOL0     C35617   4.726   9.530   1.613 -0.6287 -0.2452  0.1486
  259MOL0     C35618   4.798   9.473   1.735  0.3687 -0.2467  0.0090
  259MOL0     C35619   4.947   9.532   1.723  1.0763 -0.6757 -0.3364
  259MOL0     C35620   5.052   9.471   1.816  1.6512  0.5453 -0.0613
  259MOL0     N35621   5.174   9.552   1.843  0.0738 -0.3565 -0.1261
  259MOL0     C35622   5.252   9.522   1.951  0.2148 -0.5789  0.6935
  259MOL0     C35623   5.384   9.546   1.906 -0.2093 -1.2219 -0.8535
  259MOL0     C35624   5.491   9.537   2.016 -0.0700 -0.0830 -0.0238
  259MOL0     C35625   5.561   9.403   2.003  0.6948  0.9601 -0.7862
  259MOL0     C35626   5.685   9.396   2.104  0.0615  0.2499  0.2357
  259MOL0     C35627   5.765   9.287   2.048 -0.4750  0.5104 -0.2983
  259MOL0     O35628   5.830   9.321   1.924 -0.1049  0.3524  0.2559
  259MOL0     C35629   5.926   9.228   1.881  0.0632  0.1573  0.9342
  259MOL0     C35630   5.955   9.102   1.946  0.3162 -0.2152  0.2696
  259MOL0     C35631   6.040   9.004   1.880  0.5157 -0.2782 -0.7704
  259MOL0     C35632   6.085   8.885   1.952  0.0494  0.7809  0.2453
  259MOL0     C35633   6.105   9.044   1.752 -0.1837 -0.4130  0.4848
  259MOL0     C35634   6.183   8.947   1.665 -1.0323  0.3847 -0.3772
  259MOL0     O35635   6.283   8.999   1.587  0.2679  0.0423 -0.4248
  259MOL0     C35636   6.354   8.911   1.505  0.0385  0.7228 -0.0039
  259MOL0     C35637   6.473   8.850   1.553  0.4857  0.6114  0.4714
  259MOL0     C35638   6.529   8.738   1.487 -0.1105 -0.5172  0.3272
  259MOL0     C35639   6.474   8.700   1.369  0.2523 -0.9439  0.4457
  259MOL0     O35640   6.528   8.597   1.305  0.1422  0.5313  0.3399
  259MOL0     C35641   6.557   8.614   1.161 -0.1571 -0.0670 -0.1215
  259MOL0     C35642   6.470   8.502   1.098 -0.0679  0.1003 -0.3305
  259MOL0     C35643   6.490   8.487   0.950 -0.2606 -0.6840 -0.3781
  259MOL0     C35644   6.399   8.385   0.900  0.2586  1.5496 -0.4434
  259MOL0     C35645   6.427   8.343   0.755  0.0455 -0.4004  0.8638
  259MOL0     C35646   6.426   8.189   0.730 -0.5567  0.1204  0.6030
  259MOL0     C35647   6.291   8.134   0.770  0.9281 -0.5856  0.0591
  259MOL0     C35648   6.180   8.183   0.672 -0.7061 -0.4532 -1.2499
  259MOL0    Cl35649   6.025   8.106   0.715 -0.5840  0.2572 -0.3032
  259MOL0     C35650   6.352   8.747   1.329  0.0139 -0.7289 -0.0488
  259MOL0     C35651   6.288   8.847   1.397 -0.9324 -0.6409  0.2946
  259MOL0     O35652   6.172   8.827   1.685  0.7833  0.4537 -0.2282
  259MOL0     C35653   6.077   9.166   1.699  0.2552 -0.4723 -0.5655
  259MOL0     C35654   5.984   9.253   1.760  0.1077 -0.1064 -0.0568
  259MOL0     N35655   5.372   9.606   1.779  0.0845  0.6154 -0.4243
  259MOL0     N35656   5.250   9.617   1.746 -0.5666 -0.6185  0.0242
  259MOL0     C35657   4.245   9.773   2.171 -0.6544 -0.7415 -1.0284
  259MOL0     C35658   4.129   9.825   2.232 -0.1178  0.1361  0.5304
  259MOL0     C35659   3.779  10.082   2.308  0.4278 -0.4720 -0.2449
  259MOL0     C35660   3.693   9.987   2.372  0.1342 -0.7518  0.5401
  259MOL0     C35661   3.597  10.008   2.466 -0.0695 -0.9423  0.3509
  259MOL0     C35662   3.579  10.145   2.505  0.2611 -0.3410  0.2689
  259MOL0     O35663   3.483  10.181   2.602 -0.9535 -0.2873 -0.5837
  259MOL0     C35664   3.404  10.085   2.676  0.2758 -0.2889  0.3861
  259MOL0     C35665   3.278  10.051   2.600 -0.1441 -0.2313 -0.1525
  259MOL0     C35666   3.192  10.184   2.598  0.9433  0.0713 -0.3197
  259MOL0     C35667   3.037  10.159   2.578  0.5282  0.6334 -0.1688
  259MOL0     C35668   2.978  10.297   2.575  0.5809 -0.4636  0.1901
  259MOL0     C35669   2.934  10.405   2.542  0.1759  0.5848 -0.0372
  259MOL0     C35670   3.665  10.243   2.458  0.5456  0.1940  0.1341
  259MOL0     C35671   3.759  10.221   2.353  0.4905  0.6797  0.2818
  259MOL0     C35672   3.842  10.334   2.312  0.5463 -0.2704 -0.2477
  259MOL0     H35673   3.921   9.850   1.960  0.2669  2.0075 -0.5759
  259MOL0     H35674   4.121   9.780   1.851  0.2528  2.6820 -0.3221
  259MOL0     H35675   4.347   9.754   1.766 -1.3502 -1.8907 -1.3029
  259MOL0     H35676   4.252   9.620   1.823  0.4194  0.3273 -2.1380
  259MOL0     H35677   4.557   9.628   1.840 -0.0522 -2.7518  1.4418
  259MOL0     H35678   4.457   9.490   1.859  0.1199  0.9141  0.7281
  259MOL0     H35679   4.370   9.511   1.632  0.6643 -0.8690  0.8647
  259MOL0     H35680   4.457   9.655   1.604 -3.8358  2.0341  3.7191
  259MOL0     H35681   4.569   9.373   1.622 -1.8399  0.4451  0.7461
  259MOL0     H35682   4.549   9.481   1.483  1.6368 -1.6873 -0.7543
  259MOL0     H35683   4.730   9.639   1.618 -0.0461 -0.2445 -0.2701
  259MOL0     H35684   4.775   9.500   1.519  0.5284 -0.8388  0.9194
  259MOL0     H35685   4.752   9.497   1.831  0.6593 -2.7821  0.8723
  259MOL0     H35686   4.803   9.364   1.727 -2.5230 -0.4811  0.4609
  259MOL0     H35687   4.933   9.639   1.739  0.1402 -0.6911 -0.9375
  259MOL0     H35688   4.980   9.516   1.620 -1.6215 -0.8927 -1.2445
  259MOL0     H35689   5.006   9.449   1.913 -4.1896  3.1602 -1.7736
  259MOL0     H35690   5.073   9.370   1.780 -2.6443 -0.1684 -1.0704
  259MOL0     H35691   5.220   9.490   2.050  1.5749  0.9824  1.6935
  259MOL0     H35692   5.459   9.554   2.119  0.2293 -0.1891  0.0903
  259MOL0     H35693   5.565   9.613   1.987  0.1538  0.0178  0.7885
  259MOL0     H35694   5.490   9.323   2.025  1.3031  0.6388  0.0833
  259MOL0     H35695   5.593   9.381   1.901  0.8569  1.8584 -0.9325
  259MOL0     H35696   5.740   9.490   2.107 -1.6273  1.2711  1.1301
  259MOL0     H35697   5.653   9.376   2.207 -0.0259  2.2628  0.6367
  259MOL0     H35698   5.840   9.279   2.127  0.3291  1.6977 -0.9163
  259MOL0     H35699   5.697   9.202   2.048 -1.4970  1.2617  1.6424
  259MOL0     H35700   5.919   9.089   2.048 -0.9618 -0.1030 -0.1448
  259MOL0     H35701   6.189   8.861   1.925  0.6426  1.0974  2.1320
  259MOL0     H35702   6.025   8.798   1.923  0.1808  0.4712  0.8912
  259MOL0     H35703   6.074   8.893   2.060 -2.5032  1.6745 -0.0141
  259MOL0     H35704   6.526   8.892   1.638 -0.0360  0.3601  0.9255
  259MOL0     H35705   6.621   8.689   1.519  0.0459 -1.4120 -1.3676
  259MOL0     H35706   6.527   8.707   1.111  0.6907 -1.3172 -3.2077
  259MOL0     H35707   6.666   8.609   1.148  0.1943  0.6843  2.0990
  259MOL0     H35708   6.500   8.413   1.155  0.6606 -0.4350 -1.5146
  259MOL0     H35709   6.363   8.514   1.120 -0.3945 -3.4955  0.7223
  259MOL0     H35710   6.596   8.468   0.929 -0.3611  0.3804 -2.0699
  259MOL0     H35711   6.464   8.585   0.910  0.0958 -0.7692 -0.8222
  259MOL0     H35712   6.294   8.412   0.918 -0.4342 -2.4884  3.4148
  259MOL0     H35713   6.409   8.299   0.968  0.2276  3.3000  1.9073
  259MOL0     H35714   6.358   8.394   0.688  2.6240  0.3476 -1.3859
  259MOL0     H35715   6.532   8.367   0.734  0.1034  1.9064  3.3134
  259MOL0     H35716   6.504   8.135   0.784 -1.1193 -0.5779  0.7279
  259MOL0     H35717   6.440   8.179   0.622  4.3087 -0.6201  1.0647
  259MOL0     H35718   6.266   8.158   0.873 -0.2973 -0.3667 -0.2610
  259MOL0     H35719   6.305   8.026   0.776 -0.2699 -0.6866  1.8828
  259MOL0     H35720   6.206   8.145   0.573  2.7930 -2.7575  0.3755
  259MOL0     H35721   6.169   8.291   0.686  0.8796 -0.5589  1.6808
  259MOL0     H35722   6.300   8.709   1.242 -4.6337  0.5942  1.8577
  259MOL0     H35723   6.187   8.883   1.376 -1.1834 -1.9566 -0.8872
  259MOL0     H35724   6.113   9.204   1.604 -0.0605  0.2663 -0.3989
  259MOL0     H35725   5.956   9.348   1.714 -2.2061 -1.7854 -2.3983
  259MOL0     H35726   4.330   9.758   2.237  0.8807  0.1449 -2.7239
  259MOL0     H35727   4.124   9.824   2.340  1.0475  1.7335  0.6345
  259MOL0     H35728   3.699   9.882   2.342 -2.6855 -0.3391 -2.0295
  259MOL0     H35729   3.550   9.927   2.521 -1.4000 -3.9146 -4.5233
  259MOL0     H35730   3.463   9.994   2.690 -2.5879 -2.5995 -1.5327
  259MOL0     H35731   3.386  10.116   2.779  1.0764  2.1011 -0.1205
  259MOL0     H35732   3.232   9.970   2.658  2.7948 -2.2104 -0.3403
  259MOL0     H35733   3.297  10.000   2.506 -0.1557 -1.4821  0.4992
  259MOL0     H35734   3.209  10.228   2.696  1.4770 -0.1578 -0.3050
  259MOL0     H35735   3.227  10.258   2.525  1.2862  0.8791  0.6388
  259MOL0     H35736   2.989  10.106   2.661  1.9583  2.0149  1.6292
  259MOL0     H35737   3.020  10.112   2.481 -0.8247  2.1753 -0.7135
  259MOL0     H35738   2.909  10.500   2.501  0.7131  0.9509  0.4730
  259MOL0     H35739   3.644  10.337   2.508  1.7223 -0.9004  2.9188
  259MOL0     H35740   3.943  10.337   2.354 -0.3477 -1.4931  2.1981
  259MOL0     H35741   3.846  10.346   2.203  1.1321  1.4713 -0.0655
  259MOL0     H35742   3.791  10.425   2.345  0.9908 -0.4437  0.9641
  260MOL0     O35743   5.785  10.621   6.735 -0.1349 -0.4984 -1.0297
  260MOL0     C35744   5.770  10.498   6.738 -0.4511 -0.3088  0.2079
  260MOL0     O35745   5.861  10.417   6.793  0.6436  0.6926  0.2929
  260MOL0     C35746   5.985  10.462   6.838  0.6668  0.4429 -0.5347
  260MOL0     C35747   6.099  10.423   6.768 -0.1071  0.3868 -0.2347
  260MOL0     C35748   6.228  10.465   6.806  0.7263 -1.0124  0.0600
  260MOL0     C35749   6.243  10.561   6.910 -0.1936 -0.4341  0.1339
  260MOL0     O35750   6.367  10.600   6.934 -0.3591 -0.1602  0.3942
  260MOL0     C35751   6.407  10.589   7.073  0.8795  0.3465  0.7302
  260MOL0     C35752   6.466  10.451   7.122  0.5836 -0.3092  0.9797
  260MOL0     C35753   6.612  10.431   7.095 -0.6574 -0.0759  0.2266
  260MOL0     C35754   6.650  10.429   6.955 -0.3000 -1.1559 -0.6279
  260MOL0     C35755   6.803  10.428   6.940  0.2059 -0.5882 -0.1441
  260MOL0     C35756   6.866  10.457   6.803 -0.5268  0.1958 -0.5822
  260MOL0     C35757   6.952  10.582   6.801  0.3194 -0.5374 -0.3944
  260MOL0     C35758   7.064  10.589   6.904 -0.1180 -0.0661 -0.5303
  260MOL0     N35759   7.132  10.460   6.923 -0.5267  0.4592 -0.3873
  260MOL0     C35760   7.198  10.389   6.818 -0.0171  0.3091 -0.0332
  260MOL0     C35761   7.194  10.257   6.861  0.9027  0.5594 -0.0903
  260MOL0     C35762   7.232  10.137   6.784  0.6011 -0.1196 -0.8164
  260MOL0     C35763   7.355  10.076   6.846 -0.9680  0.5281  0.3093
  260MOL0     C35764   7.457  10.029   6.732 -0.5188 -0.0115 -0.1484
  260MOL0     C35765   7.594   9.993   6.792  0.5614  0.1925  0.5975
  260MOL0     O35766   7.594   9.861   6.857  0.5095 -0.0934 -0.4186
  260MOL0     C35767   7.715   9.810   6.904  0.4378 -0.0871  0.2393
  260MOL0     C35768   7.720   9.685   6.968 -0.1259 -0.5460 -0.5248
  260MOL0     C35769   7.840   9.635   7.011  0.6727  0.2692  0.6210
  260MOL0     C35770   7.821   9.505   7.091  0.4556 -0.2668  0.0799
  260MOL0     C35771   7.958   9.702   6.991 -0.6368 -0.4570  0.6513
  260MOL0     C35772   8.090   9.654   7.054 -0.5166 -0.1758 -0.1166
  260MOL0     O35773   8.200   9.740   7.065 -0.0693  0.3112 -0.2745
  260MOL0     C35774   8.317   9.680   7.047  0.2990 -0.1055  0.2801
  260MOL0     C35775   8.375   9.692   6.918 -0.3275  0.1412  0.0385
  260MOL0     C35776   8.506   9.633   6.894  0.2628 -0.0956 -0.1895
  260MOL0     C35777   8.576   9.561   7.003  0.0962  0.2871  0.7811
  260MOL0     O35778   8.708   9.514   7.002  0.4259  0.1423  0.8528
  260MOL0     C35779   8.789   9.561   6.892  0.6058  0.4905  0.4192
  260MOL0     C35780   8.795   9.442   6.801 -0.7808 -0.0375  0.0426
  260MOL0     C35781   8.855   9.461   6.662  0.4293  0.1707  0.6072
  260MOL0     C35782   8.765   9.548   6.562  0.2493 -0.3214 -0.6308
  260MOL0     C35783   8.665   9.454   6.497  0.5579  0.1590 -0.2777
  260MOL0     C35784   8.591   9.531   6.387  0.4133  0.2729 -0.6370
  260MOL0     C35785   8.496   9.443   6.320  0.1873  0.1486  0.5171
  260MOL0     C35786   8.432   9.490   6.196 -0.5836  0.3275  1.1011
  260MOL0    Cl35787   8.373   9.363   6.097  0.5216 -0.0778  0.1692
  260MOL0     C35788   8.514   9.559   7.131 -0.0413  0.9826  0.5164
  260MOL0     C35789   8.381   9.613   7.152  0.2466 -0.0134  0.8729
  260MOL0     O35790   8.098   9.533   7.046 -0.2315  0.0914 -0.4542
  260MOL0     C35791   7.953   9.830   6.923  0.3296 -0.7819 -0.4171
  260MOL0     C35792   7.832   9.878   6.882  0.1530 -0.1041 -0.7545
  260MOL0     N35793   7.124  10.252   6.983  0.1085  0.6211  0.2800
  260MOL0     N35794   7.109  10.369   7.025 -0.1811 -0.1893  0.1058
  260MOL0     C35795   6.128  10.612   6.980 -0.3888  0.6039  0.1780
  260MOL0     C35796   6.000  10.558   6.941  0.0846 -0.0533 -1.0661
  260MOL0     C35797   5.646  10.435   6.669 -0.3619  0.3308  0.8443
  260MOL0     C35798   5.631  10.299   6.685 -0.0149 -0.1617 -0.1692
  260MOL0     C35799   5.516  10.227   6.649 -0.6381  0.4127 -1.2627
  260MOL0     C35800   5.414  10.294   6.594 -0.4195 -0.8810  0.3945
  260MOL0     O35801   5.299  10.212   6.571  0.6943 -0.1074  0.8978
  260MOL0     C35802   5.186  10.273   6.505 -0.0526  0.0483  0.1183
  260MOL0     C35803   5.069  10.172   6.521  0.4065  0.6598  0.0096
  260MOL0     C35804   4.977  10.198   6.642 -0.5541 -0.4757 -0.6699
  260MOL0     C35805   4.887  10.319   6.619  0.2536  0.1602 -0.0957
  260MOL0     C35806   4.775  10.272   6.536 -0.2651  0.4799 -0.5375
  260MOL0     C35807   4.693  10.218   6.468  0.3025  0.6052 -0.3129
  260MOL0     C35808   5.426  10.428   6.561 -0.3083  0.1038 -0.4067
  260MOL0     C35809   5.541  10.497   6.588  0.2448  0.1976 -0.4639
  260MOL0     C35810   5.550  10.636   6.525  0.0950  0.4411 -0.5936
  260MOL0     H35811   6.072  10.379   6.672 -1.4425 -1.4187  0.8988
  260MOL0     H35812   6.316  10.435   6.750  0.5289 -0.8417 -0.3497
  260MOL0     H35813   6.325  10.618   7.140 -1.1366  0.1690 -1.5341
  260MOL0     H35814   6.480  10.668   7.093  0.0619  1.3707 -0.1473
  260MOL0     H35815   6.450  10.460   7.230  1.0257 -1.7641  1.1917
  260MOL0     H35816   6.400  10.373   7.083 -1.5805  1.5507  0.7297
  260MOL0     H35817   6.675  10.508   7.140  0.8698 -1.6532  0.8747
  260MOL0     H35818   6.647  10.341   7.146 -0.9896  1.4758  3.4319
  260MOL0     H35819   6.615  10.340   6.902  0.5834 -2.6042  1.1321
  260MOL0     H35820   6.616  10.519   6.902  0.9107  0.5395  1.3057
  260MOL0     H35821   6.836  10.332   6.982 -1.6948 -2.4147 -2.4893
  260MOL0     H35822   6.843  10.503   7.008  1.0583 -0.0785 -1.1743
  260MOL0     H35823   6.922  10.369   6.769 -1.1997 -2.3572  4.0557
  260MOL0     H35824   6.783  10.468   6.732 -2.4170 -3.9192  0.7149
  260MOL0     H35825   6.889  10.672   6.803  1.9661  0.7129 -1.8795
  260MOL0     H35826   7.004  10.594   6.706  1.1920  1.4428  0.2747
  260MOL0     H35827   7.139  10.663   6.874 -0.5266  0.4541 -0.2802
  260MOL0     H35828   7.016  10.628   6.995  1.4153  1.7625 -0.4262
  260MOL0     H35829   7.240  10.444   6.734 -0.4327  1.1481  0.2872
  260MOL0     H35830   7.251  10.168   6.681  0.6236  1.5222 -0.3535
  260MOL0     H35831   7.150  10.067   6.765  0.9862 -0.2657 -2.0299
  260MOL0     H35832   7.411  10.158   6.892 -1.9133  1.3141  0.0739
  260MOL0     H35833   7.337   9.999   6.922  0.1534  1.0625  1.1500
  260MOL0     H35834   7.415   9.948   6.671 -1.0167  0.3375 -0.2781
  260MOL0     H35835   7.473  10.111   6.662  2.0397 -1.5034 -1.4659
  260MOL0     H35836   7.664   9.997   6.708 -0.8697 -0.2321 -0.6667
  260MOL0     H35837   7.631  10.062   6.868  0.9210 -3.6922  4.3089
  260MOL0     H35838   7.625   9.640   6.995  0.4065  0.6296  4.0562
  260MOL0     H35839   7.879   9.511   7.184 -0.5244  0.2226  0.6754
  260MOL0     H35840   7.855   9.427   7.022  2.3713  0.9838 -0.4902
  260MOL0     H35841   7.718   9.496   7.126  0.0209 -0.6905 -1.2586
  260MOL0     H35842   8.321   9.732   6.832  0.0419  2.6879  0.9129
  260MOL0     H35843   8.550   9.633   6.794  0.3255  1.4929 -0.1964
  260MOL0     H35844   8.745   9.645   6.837 -5.2317 -2.0815  0.4565
  260MOL0     H35845   8.894   9.584   6.914  2.4276 -3.6753 -2.5404
  260MOL0     H35846   8.852   9.363   6.851  0.5344 -1.1257 -2.9473
  260MOL0     H35847   8.690   9.419   6.780 -1.0814  2.2501 -1.2440
  260MOL0     H35848   8.878   9.368   6.611  0.4525  1.4036 -1.7697
  260MOL0     H35849   8.948   9.516   6.676 -0.1673  2.4572 -2.9764
  260MOL0     H35850   8.823   9.597   6.484  0.3398  0.4975 -0.0665
  260MOL0     H35851   8.713   9.634   6.604 -1.6847  0.1991 -3.7891
  260MOL0     H35852   8.705   9.368   6.442 -0.6920 -2.5695  2.7794
  260MOL0     H35853   8.596   9.413   6.571  2.4773 -0.6952  1.1201
  260MOL0     H35854   8.663   9.551   6.307  1.2781 -1.4999 -0.3628
  260MOL0     H35855   8.560   9.631   6.419 -0.5422  0.3899 -1.8376
  260MOL0     H35856   8.417   9.424   6.393  0.2342  1.6309  0.9818
  260MOL0     H35857   8.539   9.345   6.296  1.7608  0.8834  0.2430
  260MOL0     H35858   8.505   9.545   6.134 -0.0258 -1.2161  0.3299
  260MOL0     H35859   8.342   9.550   6.210 -0.9460  0.5784 -1.7585
  260MOL0     H35860   8.573   9.529   7.217  1.8858 -0.2652 -1.1728
  260MOL0     H35861   8.330   9.623   7.247 -2.5119 -0.3693 -0.4638
  260MOL0     H35862   8.045   9.878   6.892 -0.5882 -0.4685 -2.8737
  260MOL0     H35863   7.841   9.978   6.841 -1.2492  2.4610  4.2947
  260MOL0     H35864   6.132  10.687   7.059 -4.6917  3.0001 -1.5088
  260MOL0     H35865   5.908  10.580   6.993 -0.2554  2.1314 -2.4738
  260MOL0     H35866   5.718  10.245   6.721  0.8122  0.9400 -0.4502
  260MOL0     H35867   5.520  10.120   6.664  0.0901  0.7244  1.3974
  260MOL0     H35868   5.160  10.374   6.540  0.6863 -0.2387  1.5840
  260MOL0     H35869   5.218  10.282   6.401  0.2638 -0.9818  0.1203
  260MOL0     H35870   5.111  10.071   6.524 -2.1395 -0.4575  0.4312
  260MOL0     H35871   5.005  10.169   6.432 -1.4911  0.4636  1.3216
  260MOL0     H35872   4.920  10.107   6.663 -2.5413  0.6775 -0.8133
  260MOL0     H35873   5.036  10.216   6.733 -0.0208 -1.1580 -0.8742
  260MOL0     H35874   4.937  10.406   6.577  1.5876  0.0186  1.1336
  260MOL0     H35875   4.848  10.350   6.717  1.6274 -0.9793  0.8435
  260MOL0     H35876   4.618  10.178   6.402 -0.0503  1.1728 -0.2657
  260MOL0     H35877   5.341  10.485   6.526 -0.8820  0.3331  1.2481
  260MOL0     H35878   5.549  10.703   6.612  0.2047 -0.1140 -0.1568
  260MOL0     H35879   5.641  10.655   6.468  0.4514  0.7297  0.0563
  260MOL0     H35880   5.467  10.654   6.456  0.2650 -0.3819 -1.0242
  261MOL0     O35881   5.245   4.267   1.445  0.2766  0.9757  0.2710
  261MOL0     C35882   5.267   4.165   1.380  0.5758 -0.5734 -0.3441
  261MOL0     O35883   5.338   4.053   1.410 -0.4635 -0.4864  0.1803
  261MOL0     C35884   5.414   4.065   1.527 -0.1284  0.3417 -0.0417
  261MOL0     C35885   5.545   4.008   1.524  1.3918 -0.2532  0.3563
  261MOL0     C35886   5.627   4.021   1.634  0.3289  0.0656 -0.0614
  261MOL0     C35887   5.584   4.086   1.750  0.8875  0.4722 -0.0290
  261MOL0     O35888   5.671   4.084   1.856  0.5611 -0.2450 -0.0741
  261MOL0     C35889   5.622   4.128   1.988 -0.0795 -0.0842 -0.1459
  261MOL0     C35890   5.734   4.151   2.087  0.7784 -0.4608 -0.2073
  261MOL0     C35891   5.861   4.215   2.033 -0.0117  0.9612 -0.2335
  261MOL0     C35892   5.914   4.293   2.150  0.4106 -0.1216  0.5329
  261MOL0     C35893   6.066   4.323   2.144 -1.0193 -0.5807 -0.3959
  261MOL0     C35894   6.105   4.418   2.258 -0.3014 -0.4612 -0.5463
  261MOL0     C35895   6.257   4.424   2.276 -0.3158 -0.6293  0.0099
  261MOL0     C35896   6.319   4.304   2.352  0.1392 -0.3882 -0.1691
  261MOL0     N35897   6.446   4.273   2.289 -0.9900 -0.2768  0.5247
  261MOL0     C35898   6.479   4.194   2.184 -0.6198  0.4481 -0.7993
  261MOL0     C35899   6.613   4.201   2.170 -0.1853 -0.0008  0.2026
  261MOL0     C35900   6.699   4.139   2.063 -0.2959  0.2727  0.7927
  261MOL0     C35901   6.708   3.987   2.087 -0.6601 -0.0636 -0.3964
  261MOL0     C35902   6.772   3.892   1.983 -0.8208 -0.1578 -0.0790
  261MOL0     C35903   6.924   3.923   1.947 -0.5569 -0.3735 -0.1665
  261MOL0     O35904   7.009   3.856   2.038 -0.2535 -0.0827  0.3270
  261MOL0     C35905   7.146   3.879   2.024  0.6444  0.2878  0.1243
  261MOL0     C35906   7.237   3.833   2.117 -0.5667 -0.4814  0.1338
  261MOL0     C35907   7.368   3.845   2.112  0.3125  0.7299 -0.0523
  261MOL0     C35908   7.448   3.786   2.233 -0.4666 -1.6042 -0.3053
  261MOL0     C35909   7.426   3.901   1.999  0.4347  0.0551  0.5781
  261MOL0     C35910   7.565   3.923   1.972 -1.0236  0.5989  0.1812
  261MOL0     O35911   7.598   3.947   1.838  0.5291  0.3212  0.2803
  261MOL0     C35912   7.731   3.973   1.818  0.4340  0.5851  0.0756
  261MOL0     C35913   7.812   3.866   1.768  0.0385 -0.5238  0.5373
  261MOL0     C35914   7.950   3.879   1.755 -0.8336 -0.6096 -0.3047
  261MOL0     C35915   8.008   3.998   1.782  0.2704  0.3971 -0.0928
  261MOL0     O35916   8.146   4.006   1.756  0.1085  0.5096  0.6914
  261MOL0     C35917   8.219   4.122   1.818 -0.5311 -0.0294 -0.2149
  261MOL0     C35918   8.374   4.096   1.810 -0.1438  0.2741 -0.5007
  261MOL0     C35919   8.439   4.165   1.931  0.1668  0.4205 -0.3508
  261MOL0     C35920   8.589   4.142   1.958 -0.2631 -0.4281 -0.2103
  261MOL0     C35921   8.683   4.218   1.852 -0.7429  0.3135 -0.9494
  261MOL0     C35922   8.820   4.250   1.924 -0.4923  0.8471  0.0759
  261MOL0     C35923   8.933   4.256   1.830  0.0654 -0.5218 -1.4214
  261MOL0     C35924   8.919   4.369   1.736  0.0789 -1.1776  0.6035
  261MOL0    Cl35925   8.910   4.534   1.807 -0.3834  0.2100  0.0468
  261MOL0     C35926   7.923   4.113   1.813  0.5738  0.2126 -0.3701
  261MOL0     C35927   7.787   4.092   1.835  0.5694  0.8302  0.1744
  261MOL0     O35928   7.639   3.924   2.068  0.0218 -0.4288  0.4558
  261MOL0     C35929   7.337   3.935   1.893 -0.1141  0.0925 -0.6711
  261MOL0     C35930   7.205   3.911   1.899  0.2028  0.5255 -1.1494
  261MOL0     N35931   6.656   4.264   2.285  0.0198 -0.6853  0.0112
  261MOL0     N35932   6.557   4.312   2.344 -0.7026  1.0928 -0.0432
  261MOL0     C35933   5.453   4.132   1.754  1.0373 -0.0303  0.8721
  261MOL0     C35934   5.365   4.126   1.647 -0.3818  0.2322 -0.0195
  261MOL0     C35935   5.213   4.161   1.243 -0.2269  0.2698 -0.0661
  261MOL0     C35936   5.309   4.119   1.143  0.6531 -0.3739  0.5487
  261MOL0     C35937   5.265   4.118   1.013 -0.6779  0.4508  0.3626
  261MOL0     C35938   5.145   4.165   0.972  0.7774 -0.2440  0.1602
  261MOL0     O35939   5.095   4.154   0.844 -0.1346  0.4553  0.2186
  261MOL0     C35940   5.141   4.056   0.742 -0.3092 -0.7739 -0.9346
  261MOL0     C35941   5.125   4.121   0.606  0.0435 -0.2213 -0.1402
  261MOL0     C35942   5.210   4.253   0.600 -0.0621  0.1907  0.8888
  261MOL0     C35943   5.199   4.311   0.454  0.1911  0.7463  0.0620
  261MOL0     C35944   5.065   4.377   0.442 -0.9954 -0.6895  0.2026
  261MOL0     C35945   4.961   4.444   0.450 -0.7070 -0.3278  0.2151
  261MOL0     C35946   5.059   4.211   1.069 -0.0389 -0.1734 -0.5063
  261MOL0     C35947   5.085   4.203   1.209  0.4293  0.2351 -0.2451
  261MOL0     C35948   4.965   4.238   1.292 -0.4514 -0.3055 -0.8282
  261MOL0     H35949   5.587   3.945   1.446  1.1189  0.2177 -0.1780
  261MOL0     H35950   5.714   3.956   1.625 -2.5246 -3.9752 -1.3041
  261MOL0     H35951   5.555   4.061   2.042 -0.3190 -1.3177 -1.8629
  261MOL0     H35952   5.570   4.223   1.973 -2.3065 -1.3583 -0.9959
  261MOL0     H35953   5.683   4.217   2.158  1.4278  0.7285 -0.8123
  261MOL0     H35954   5.764   4.057   2.134 -1.1263 -0.0443  2.0201
  261MOL0     H35955   5.925   4.134   1.995 -2.0954 -0.6988 -0.4229
  261MOL0     H35956   5.846   4.280   1.946 -1.4570  3.1355  1.5500
  261MOL0     H35957   5.864   4.390   2.150  0.7036  0.0380 -0.3890
  261MOL0     H35958   5.888   4.251   2.248 -0.9915 -2.2244 -0.6749
  261MOL0     H35959   6.085   4.373   2.049 -3.0598 -3.0320 -2.2486
  261MOL0     H35960   6.131   4.235   2.152 -0.7074 -0.3127  0.0780
  261MOL0     H35961   6.083   4.523   2.234  2.6777  0.5093  0.5044
  261MOL0     H35962   6.059   4.388   2.353  0.5632  1.4543  0.5410
  261MOL0     H35963   6.288   4.517   2.325  1.8773 -1.5422  0.4800
  261MOL0     H35964   6.295   4.439   2.175  0.8261  0.1669  0.5316
  261MOL0     H35965   6.331   4.341   2.454 -1.5241 -0.4007  0.0431
  261MOL0     H35966   6.254   4.217   2.354  0.8987 -0.9981  2.3671
  261MOL0     H35967   6.416   4.142   2.114 -1.3024 -0.5868  0.5291
  261MOL0     H35968   6.792   4.195   2.054  0.6878 -1.4227 -0.3093
  261MOL0     H35969   6.641   4.146   1.971 -1.0748  3.7971  1.4154
  261MOL0     H35970   6.768   3.980   2.178 -0.1740 -0.0291 -0.7092
  261MOL0     H35971   6.607   3.947   2.098  0.8577 -4.3108 -0.2456
  261MOL0     H35972   6.764   3.790   2.021 -1.6020 -0.6615 -1.5355
  261MOL0     H35973   6.719   3.904   1.888 -0.3046 -0.4366 -0.4038
  261MOL0     H35974   6.940   3.899   1.841 -3.1662 -1.0465 -0.4882
  261MOL0     H35975   6.941   4.031   1.951 -0.4974 -0.3998  0.4299
  261MOL0     H35976   7.187   3.789   2.204 -1.0883  0.7304  0.4630
  261MOL0     H35977   7.502   3.872   2.273 -1.8079  0.0284 -1.8732
  261MOL0     H35978   7.529   3.716   2.211 -1.5671 -3.2012  0.5093
  261MOL0     H35979   7.394   3.733   2.312 -0.2051 -2.0003 -0.3833
  261MOL0     H35980   7.762   3.771   1.750  1.3322 -1.2315  0.5102
  261MOL0     H35981   8.024   3.812   1.713  0.5912  1.3628 -1.0599
  261MOL0     H35982   8.201   4.222   1.776  2.6630  0.3843 -0.8686
  261MOL0     H35983   8.191   4.125   1.923 -1.5754  0.2722 -0.4881
  261MOL0     H35984   8.405   3.992   1.819  2.3246  0.8361 -1.6595
  261MOL0     H35985   8.411   4.139   1.717  2.9848  2.2549  1.4654
  261MOL0     H35986   8.390   4.136   2.024  1.3298 -0.3747  0.0311
  261MOL0     H35987   8.417   4.272   1.920 -3.5041 -0.1785 -0.0365
  261MOL0     H35988   8.617   4.036   1.962  4.3718  0.6203  2.1742
  261MOL0     H35989   8.605   4.195   2.053 -2.7272 -1.0183  0.6269
  261MOL0     H35990   8.691   4.155   1.763  0.5541  1.6709 -1.8471
  261MOL0     H35991   8.634   4.309   1.819  0.5324  0.1325 -3.5800
  261MOL0     H35992   8.842   4.167   1.992  2.4326  1.5717  0.1254
  261MOL0     H35993   8.805   4.344   1.977 -2.9586 -0.7266  2.4843
  261MOL0     H35994   8.943   4.161   1.776 -1.5948 -1.3143 -0.4084
  261MOL0     H35995   9.030   4.265   1.880  1.8647 -0.1483 -4.6871
  261MOL0     H35996   8.828   4.343   1.681 -0.9496 -2.1450  2.6479
  261MOL0     H35997   9.007   4.364   1.671 -0.1164 -1.6195  0.3673
  261MOL0     H35998   7.978   4.206   1.814  0.3795  0.4112 -2.6410
  261MOL0     H35999   7.720   4.176   1.850 -1.4985 -0.4182 -1.5570
  261MOL0     H36000   7.368   3.971   1.796 -0.8041  0.7552 -0.6594
  261MOL0     H36001   7.158   3.930   1.803  0.3052 -3.2219 -2.0889
  261MOL0     H36002   5.389   4.156   1.838  0.3644 -1.3997  0.7858
  261MOL0     H36003   5.267   4.165   1.671  0.3340 -0.3738  5.0980
  261MOL0     H36004   5.407   4.076   1.156  1.8116  2.3505  1.7367
  261MOL0     H36005   5.339   4.074   0.947 -0.4713 -2.4347  2.3363
  261MOL0     H36006   5.246   4.027   0.755 -0.2795 -0.5154 -0.6020
  261MOL0     H36007   5.080   3.966   0.740 -0.7092 -0.6222  1.5612
  261MOL0     H36008   5.019   4.146   0.596  0.5990  2.2710 -0.6689
  261MOL0     H36009   5.157   4.057   0.523  2.7559 -2.1688  2.2384
  261MOL0     H36010   5.170   4.327   0.669  1.9886  1.0386  1.2341
  261MOL0     H36011   5.313   4.241   0.633 -0.5003 -1.0468  1.8913
  261MOL0     H36012   5.218   4.228   0.385  1.7330 -1.5797  3.0335
  261MOL0     H36013   5.283   4.379   0.440  0.7368 -0.2302 -1.7588
  261MOL0     H36014   4.874   4.506   0.461  0.0387  0.8804 -0.4547
  261MOL0     H36015   4.968   4.252   1.025  0.2411 -0.1447 -1.0768
  261MOL0     H36016   4.932   4.342   1.297 -0.7112 -0.4274  0.1535
  261MOL0     H36017   4.881   4.181   1.253 -1.1287 -1.0704  1.5649
  261MOL0     H36018   4.961   4.210   1.398 -2.0445  0.1385 -0.7581
  262MOL0     O36019   6.000   7.293   4.989 -0.0417 -0.6485  0.5160
  262MOL0     C36020   6.124   7.285   4.997 -0.5515  0.7143  0.7804
  262MOL0     O36021   6.202   7.322   5.105 -0.2283  0.5014  0.1269
  262MOL0     C36022   6.137   7.344   5.221  0.3369  0.1074  0.5767
  262MOL0     C36023   6.033   7.254   5.267  0.2571  0.0832 -0.3048
  262MOL0     C36024   5.968   7.290   5.385  0.0740  0.1700 -0.3798
  262MOL0     C36025   6.007   7.398   5.465  0.1898 -0.1815 -0.3290
  262MOL0     O36026   5.955   7.438   5.589 -0.4056  0.2647 -0.1649
  262MOL0     C36027   5.963   7.333   5.690 -0.4507  0.2716  0.0044
  262MOL0     C36028   6.060   7.362   5.809 -0.2663  0.4897 -0.3219
  262MOL0     C36029   6.201   7.417   5.772 -0.2863 -0.0991 -0.2654
  262MOL0     C36030   6.277   7.313   5.684 -0.4537 -0.4024  0.3327
  262MOL0     C36031   6.423   7.347   5.654  0.2796 -0.4407 -0.4228
  262MOL0     C36032   6.511   7.283   5.767  0.5525  1.1235  0.7027
  262MOL0     C36033   6.648   7.360   5.783  0.8177  0.8715 -0.3128
  262MOL0     C36034   6.750   7.325   5.680  0.3624  0.5237 -1.1220
  262MOL0     N36035   6.854   7.424   5.660  0.5935 -0.1077  0.6952
  262MOL0     C36036   6.835   7.546   5.597 -0.3676 -0.8874 -0.3977
  262MOL0     C36037   6.967   7.593   5.593  0.4302  0.3244  0.2822
  262MOL0     C36038   6.996   7.733   5.559 -1.1875 -0.8325 -0.0418
  262MOL0     C36039   6.987   7.844   5.664  1.0738 -0.5452  0.8285
  262MOL0     C36040   7.067   7.966   5.626  0.0500 -0.9621 -0.1993
  262MOL0     C36041   7.028   8.033   5.488 -0.7641  0.6519 -0.1694
  262MOL0     O36042   7.009   8.173   5.505  0.7809  0.8152  0.2376
  262MOL0     C36043   7.120   8.255   5.500  0.2053  1.3373 -0.3241
  262MOL0     C36044   7.097   8.386   5.479  0.0664 -0.3539 -0.7931
  262MOL0     C36045   7.198   8.480   5.483 -1.1025  0.7005 -0.0785
  262MOL0     C36046   7.150   8.621   5.458 -0.8895  0.7978 -0.4634
  262MOL0     C36047   7.337   8.435   5.493 -0.6173 -0.3190 -0.4000
  262MOL0     C36048   7.455   8.524   5.488  0.3575 -0.8730  0.0075
  262MOL0     O36049   7.566   8.455   5.442  0.8166 -0.0361 -0.3475
  262MOL0     C36050   7.690   8.522   5.438 -0.2375 -0.2743  0.1988
  262MOL0     C36051   7.792   8.453   5.505  0.7299  0.6269 -0.1988
  262MOL0     C36052   7.923   8.513   5.504  0.3399  0.0616  0.8002
  262MOL0     C36053   7.948   8.640   5.448  0.2303 -0.3429  0.0788
  262MOL0     O36054   8.058   8.715   5.463 -0.0466  0.3633 -1.2004
  262MOL0     C36055   8.175   8.639   5.511  0.2723  0.5180  0.2055
  262MOL0     C36056   8.291   8.729   5.563 -0.3241  0.1914  0.2343
  262MOL0     C36057   8.239   8.858   5.626 -0.3678  1.2018  0.8582
  262MOL0     C36058   8.356   8.955   5.674  0.0944  1.0290 -0.1937
  262MOL0     C36059   8.303   9.049   5.778  0.5320 -0.1053  0.0897
  262MOL0     C36060   8.399   9.156   5.833 -0.5966  0.6481 -0.0663
  262MOL0     C36061   8.524   9.075   5.895  0.0663  0.7062  0.0673
  262MOL0     C36062   8.631   9.152   5.957 -0.3550  0.0391  0.5210
  262MOL0    Cl36063   8.741   9.038   6.023  0.1122 -0.7535  0.2503
  262MOL0     C36064   7.853   8.700   5.379 -0.2500 -0.8325 -0.0478
  262MOL0     C36065   7.725   8.643   5.365  0.1348  0.4822 -0.8374
  262MOL0     O36066   7.446   8.645   5.504 -0.4276 -0.5760 -0.1778
  262MOL0     C36067   7.360   8.303   5.510 -0.0521  0.1284 -0.0226
  262MOL0     C36068   7.256   8.220   5.502  0.7806 -0.4013 -0.2041
  262MOL0     N36069   7.042   7.513   5.666  0.2727 -0.1381  0.1546
  262MOL0     N36070   6.982   7.409   5.703  0.3650 -0.5513  0.1419
  262MOL0     C36071   6.103   7.475   5.414  0.0349 -0.3896 -0.4164
  262MOL0     C36072   6.175   7.452   5.297  0.6965 -0.4225 -0.0860
  262MOL0     C36073   6.199   7.253   4.863  1.3758  1.2331  0.1903
  262MOL0     C36074   6.138   7.296   4.740  0.3085  1.1989  0.2404
  262MOL0     C36075   6.213   7.286   4.620  0.1278 -0.2688  0.2579
  262MOL0     C36076   6.342   7.231   4.620  0.1488  0.6555 -0.3352
  262MOL0     O36077   6.405   7.227   4.499 -0.0713 -0.7285 -0.1200
  262MOL0     C36078   6.414   7.341   4.411 -0.1357  0.1194 -0.1428
  262MOL0     C36079   6.557   7.342   4.341  0.1532  0.1002  0.2365
  262MOL0     C36080   6.562   7.236   4.226  0.0360 -0.2229  0.0037
  262MOL0     C36081   6.712   7.245   4.183 -0.6102  0.9310 -0.3907
  262MOL0     C36082   6.731   7.197   4.045  1.0396  0.2742 -0.1542
  262MOL0     C36083   6.734   7.152   3.931  0.2370  0.3345 -0.3028
  262MOL0     C36084   6.408   7.192   4.739  0.1917 -0.9944 -0.0243
  262MOL0     C36085   6.336   7.201   4.862  0.8915 -1.0312 -0.1813
  262MOL0     C36086   6.406   7.150   4.986 -0.1946  0.5139 -1.1052
  262MOL0     H36087   5.993   7.169   5.212 -0.9992 -0.4720  1.3952
  262MOL0     H36088   5.883   7.228   5.413 -0.8303  1.1892 -0.7915
  262MOL0     H36089   5.998   7.239   5.647  0.8810  0.5505  0.4241
  262MOL0     H36090   5.860   7.316   5.724 -0.7935  1.1426 -0.5517
  262MOL0     H36091   6.022   7.436   5.881 -1.9674  0.6327 -1.3395
  262MOL0     H36092   6.070   7.264   5.856 -0.1787 -1.5854 -4.2590
  262MOL0     H36093   6.188   7.504   5.708 -2.7121 -2.0200 -2.6195
  262MOL0     H36094   6.255   7.442   5.864 -1.7645 -0.9394  0.8758
  262MOL0     H36095   6.288   7.221   5.742  1.4116 -0.3797  0.0745
  262MOL0     H36096   6.209   7.293   5.600 -1.2480 -1.9218  1.2886
  262MOL0     H36097   6.429   7.456   5.663 -0.6309 -0.4669  0.8358
  262MOL0     H36098   6.457   7.325   5.553  2.7099 -1.0105  0.4551
  262MOL0     H36099   6.463   7.293   5.865 -1.4056  1.5600 -0.2353
  262MOL0     H36100   6.519   7.174   5.752  0.2700  0.3611  4.8563
  262MOL0     H36101   6.687   7.338   5.883 -2.8636 -0.5966  0.9565
  262MOL0     H36102   6.628   7.468   5.784 -1.8727  0.4448 -0.2673
  262MOL0     H36103   6.794   7.227   5.704 -1.2852 -1.0529 -3.9870
  262MOL0     H36104   6.698   7.313   5.585 -1.6150  3.0528 -0.4356
  262MOL0     H36105   6.750   7.600   5.557  0.9767  1.8358  0.1532
  262MOL0     H36106   6.929   7.760   5.477 -4.3479 -2.0227  1.9709
  262MOL0     H36107   7.098   7.735   5.521 -1.0627  1.0005  0.2672
  262MOL0     H36108   6.881   7.870   5.670  0.3420 -2.5567 -1.6477
  262MOL0     H36109   7.031   7.801   5.754  3.4775 -2.7260 -1.2233
  262MOL0     H36110   7.051   8.041   5.704  2.5645  0.4246 -0.9070
  262MOL0     H36111   7.172   7.934   5.622  0.9461  1.4330  1.7120
  262MOL0     H36112   7.103   8.005   5.414  0.0051 -2.3737  1.6111
  262MOL0     H36113   6.932   7.986   5.463  0.0484 -0.8563 -0.5394
  262MOL0     H36114   6.992   8.414   5.476  0.8126  2.8217 -1.2950
  262MOL0     H36115   7.196   8.677   5.540 -2.2716  0.5231  0.5502
  262MOL0     H36116   7.042   8.637   5.460 -0.7730  1.7730  1.6146
  262MOL0     H36117   7.192   8.642   5.360 -1.1618 -0.0109 -0.7604
  262MOL0     H36118   7.768   8.369   5.570 -0.3234  1.3818  0.4325
  262MOL0     H36119   7.996   8.458   5.563  0.3094  0.7678  1.5169
  262MOL0     H36120   8.148   8.581   5.600 -2.1114  1.4488  0.1659
  262MOL0     H36121   8.211   8.570   5.434 -0.5182  1.0307 -0.6494
  262MOL0     H36122   8.349   8.665   5.631  1.0537  2.2172  1.0445
  262MOL0     H36123   8.352   8.762   5.479  2.7586  0.6820  2.5017
  262MOL0     H36124   8.172   8.826   5.706  0.4287 -0.9818  0.7097
  262MOL0     H36125   8.180   8.922   5.560  1.8094  1.8920 -0.5482
  262MOL0     H36126   8.407   9.005   5.591  2.0663  0.3478  0.5409
  262MOL0     H36127   8.426   8.889   5.727 -1.0042 -0.4341 -0.5065
  262MOL0     H36128   8.209   9.098   5.751 -0.0958 -0.5438  1.4256
  262MOL0     H36129   8.268   8.991   5.864  1.7375  1.7908  1.9495
  262MOL0     H36130   8.340   9.200   5.913  0.6737 -0.0912  1.3240
  262MOL0     H36131   8.429   9.227   5.755  4.3338 -0.4708  0.4459
  262MOL0     H36132   8.572   9.035   5.805 -2.7350 -0.2295 -1.1077
  262MOL0     H36133   8.492   8.995   5.963  2.2465 -0.8726 -0.6180
  262MOL0     H36134   8.593   9.222   6.032 -1.4876  3.5631 -2.9717
  262MOL0     H36135   8.682   9.221   5.888  2.7483 -0.6064  1.9944
  262MOL0     H36136   7.863   8.784   5.312 -1.4257 -1.8191 -1.5338
  262MOL0     H36137   7.652   8.692   5.301 -0.7144 -0.2825 -0.4790
  262MOL0     H36138   7.460   8.261   5.519  1.0776  2.8870  1.5749
  262MOL0     H36139   7.284   8.117   5.517  0.3424 -0.6194 -0.8301
  262MOL0     H36140   6.144   7.556   5.473  2.2481 -0.4278 -1.7729
  262MOL0     H36141   6.244   7.520   5.248  1.7046 -1.7084 -0.4758
  262MOL0     H36142   6.034   7.327   4.728 -0.7654 -2.6750 -1.9445
  262MOL0     H36143   6.179   7.323   4.524  0.6109  0.1649  0.2469
  262MOL0     H36144   6.339   7.339   4.331 -2.3837  1.0087  1.8251
  262MOL0     H36145   6.396   7.434   4.465 -4.5223 -0.5518 -0.0441
  262MOL0     H36146   6.634   7.319   4.415 -2.0779 -0.6733  2.4641
  262MOL0     H36147   6.561   7.436   4.286  1.8522 -0.0376  0.0966
  262MOL0     H36148   6.551   7.144   4.283  0.8191 -0.6777 -0.5676
  262MOL0     H36149   6.477   7.253   4.159  0.4240  3.5010  0.2452
  262MOL0     H36150   6.767   7.179   4.250 -0.4442  1.0424 -0.4174
  262MOL0     H36151   6.746   7.349   4.186 -0.3142  1.0231 -3.3146
  262MOL0     H36152   6.723   7.126   3.827 -1.8223  1.9600 -0.5571
  262MOL0     H36153   6.510   7.156   4.744  0.5075 -0.0625  0.5844
  262MOL0     H36154   6.347   7.104   5.066  0.6692  1.6684  0.2576
  262MOL0     H36155   6.486   7.079   4.966  3.0499  3.7544 -0.7466
  262MOL0     H36156   6.443   7.242   5.032 -2.8826  0.4706  1.4111
  263MOL0     O36157   1.904  10.677   0.894  0.3589 -0.1379 -0.3500
  263MOL0     C36158   1.923  10.689   0.772  0.0759 -0.2872  0.5567
  263MOL0     O36159   1.867  10.789   0.684  0.2428 -0.7974 -0.5792
  263MOL0     C36160   1.781  10.877   0.744  0.7957  0.1308  0.2802
  263MOL0     C36161   1.686  10.852   0.844 -0.3568  1.0325 -0.2040
  263MOL0     C36162   1.597  10.955   0.890 -0.0023  0.1135  0.0332
  263MOL0     C36163   1.590  11.075   0.814 -0.4471 -0.9452 -0.5347
  263MOL0     O36164   1.496  11.172   0.834  1.4770  0.1877  0.5791
  263MOL0     C36165   1.530  11.301   0.884  0.8561 -0.0788 -0.5203
  263MOL0     C36166   1.393  11.366   0.910 -0.1571  0.0967 -0.1432
  263MOL0     C36167   1.336  11.314   1.047 -0.0069  0.4145  0.9864
  263MOL0     C36168   1.389  11.392   1.174  0.5766 -0.1455  0.7983
  263MOL0     C36169   1.278  11.398   1.298  0.1583  0.2277 -1.0795
  263MOL0     C36170   1.331  11.484   1.414 -0.3189  0.3819  0.2268
  263MOL0     C36171   1.243  11.474   1.540 -0.4668 -0.1106 -0.3232
  263MOL0     C36172   1.116  11.553   1.519  0.2057 -0.1708  1.2155
  263MOL0     N36173   1.146  11.689   1.483 -0.0552  0.1780  0.6489
  263MOL0     C36174   1.179  11.795   1.569 -0.6222 -0.1965 -0.0044
  263MOL0     C36175   1.178  11.905   1.492  1.1049 -0.2300  0.0488
  263MOL0     C36176   1.197  12.048   1.542 -1.1720 -0.1938  0.0302
  263MOL0     C36177   1.336  12.089   1.502  0.2410 -0.4992  0.0129
  263MOL0     C36178   1.376  12.229   1.561  0.7611  0.0091  0.0934
  263MOL0     C36179   1.507  12.273   1.502 -0.3540  0.4928 -0.6326
  263MOL0     O36180   1.605  12.179   1.541 -0.0058 -1.1737  0.4785
  263MOL0     C36181   1.736  12.231   1.533 -0.4071 -0.0942 -0.8010
  263MOL0     C36182   1.805  12.291   1.429 -0.1479 -0.1197  0.0679
  263MOL0     C36183   1.941  12.325   1.438  0.4940  0.3997 -0.7611
  263MOL0     C36184   2.001  12.386   1.320  0.1624  0.3916 -0.0316
  263MOL0     C36185   2.006  12.300   1.569 -0.9309  0.2196  1.1202
  263MOL0     C36186   2.155  12.310   1.582  0.4764 -0.5616 -0.3230
  263MOL0     O36187   2.203  12.292   1.705 -0.3444 -0.9950 -0.4679
  263MOL0     C36188   2.340  12.320   1.736 -0.4502  0.5172  0.2789
  263MOL0     C36189   2.411  12.426   1.671  0.5781 -0.0771  1.3869
  263MOL0     C36190   2.535  12.466   1.714 -0.2983  0.0848  0.0636
  263MOL0     C36191   2.596  12.397   1.819 -0.7300  0.2460  0.0505
  263MOL0     O36192   2.722  12.443   1.858 -0.4199  0.0618  0.9466
  263MOL0     C36193   2.822  12.339   1.881 -0.1415 -0.0488 -0.2492
  263MOL0     C36194   2.956  12.422   1.885  0.4924  0.4473  0.4502
  263MOL0     C36195   2.975  12.520   2.005  0.2828 -0.0502 -0.5535
  263MOL0     C36196   3.105  12.605   1.990 -0.1356  0.4100 -0.7431
  263MOL0     C36197   3.131  12.688   2.108  1.1669  0.0897 -0.1779
  263MOL0     C36198   3.263  12.758   2.105 -0.4078  0.8061  0.0400
  263MOL0     C36199   3.299  12.823   2.232  1.0836 -0.2949  0.3101
  263MOL0     C36200   3.443  12.883   2.228 -0.0594  0.8020  0.6105
  263MOL0    Cl36201   3.559  12.735   2.267  0.2834 -0.1450  0.2345
  263MOL0     C36202   2.527  12.300   1.886 -0.6974  0.5583  0.1807
  263MOL0     C36203   2.399  12.264   1.847  0.4746  0.4294  0.6512
  263MOL0     O36204   2.229  12.337   1.484  0.1697  0.8253 -0.6547
  263MOL0     C36205   1.932  12.249   1.676 -0.1862  1.2196  0.3053
  263MOL0     C36206   1.803  12.221   1.653 -0.9428 -0.2542  0.2204
  263MOL0     N36207   1.150  11.880   1.353  0.4896  0.3304 -0.1800
  263MOL0     N36208   1.137  11.752   1.360 -0.3680  0.0050  0.2096
  263MOL0     C36209   1.682  11.099   0.715 -0.7420 -0.9180  1.0464
  263MOL0     C36210   1.780  11.004   0.684 -0.0388 -0.1803  0.0045
  263MOL0     C36211   2.005  10.586   0.699 -0.3617  0.5496  0.9207
  263MOL0     C36212   2.042  10.609   0.561 -0.2037  0.4009 -0.3899
  263MOL0     C36213   2.118  10.519   0.492 -1.7060 -0.5466  0.6190
  263MOL0     C36214   2.197  10.419   0.546 -0.6398 -0.0233  0.2056
  263MOL0     O36215   2.282  10.331   0.479  0.6687  0.4034 -0.3867
  263MOL0     C36216   2.268  10.315   0.339  0.4167  0.1489  0.7035
  263MOL0     C36217   2.134  10.226   0.312 -0.0381  0.0743 -0.0054
  263MOL0     C36218   2.158  10.072   0.346  0.1630  0.8763  0.2355
  263MOL0     C36219   2.038   9.988   0.298  0.7035 -0.6328  0.2639
  263MOL0     C36220   2.068   9.838   0.319 -0.1040 -0.4559 -0.3039
  263MOL0     C36221   2.078   9.722   0.346  0.0645  0.5677  0.0395
  263MOL0     C36222   2.175  10.401   0.678 -0.4229 -0.6321 -0.2194
  263MOL0     C36223   2.080  10.474   0.760 -0.4238 -0.8610 -0.3262
  263MOL0     C36224   2.060  10.418   0.901  0.1179 -0.2719 -0.6931
  263MOL0     H36225   1.682  10.751   0.883 -2.3162  1.4359  0.8169
  263MOL0     H36226   1.537  10.941   0.979  1.3113  0.5542  1.0196
  263MOL0     H36227   1.574  11.363   0.806  2.1203 -0.2592  0.0137
  263MOL0     H36228   1.599  11.304   0.969 -0.0797 -0.7776  0.2974
  263MOL0     H36229   1.398  11.475   0.914  1.4912  0.0075  1.8424
  263MOL0     H36230   1.326  11.342   0.826  0.4818  1.1447 -0.9778
  263MOL0     H36231   1.229  11.330   1.031  0.2538  1.0521 -0.1777
  263MOL0     H36232   1.351  11.205   1.051  0.7680  0.3753 -1.5538
  263MOL0     H36233   1.491  11.360   1.197  0.3024 -0.9179  0.9798
  263MOL0     H36234   1.414  11.491   1.135 -0.9295 -0.3132 -0.7140
  263MOL0     H36235   1.257  11.298   1.336  1.8477  0.9706  2.2002
  263MOL0     H36236   1.181  11.435   1.263 -0.9114 -1.7910 -0.4052
  263MOL0     H36237   1.433  11.449   1.434 -0.5776 -0.8895 -0.5736
  263MOL0     H36238   1.349  11.584   1.373 -3.5038 -0.4010 -3.6498
  263MOL0     H36239   1.301  11.507   1.627  1.0842 -0.3874 -1.2174
  263MOL0     H36240   1.211  11.373   1.567  1.4099 -0.5700  0.3413
  263MOL0     H36241   1.066  11.508   1.432  1.2421 -0.8857  0.9644
  263MOL0     H36242   1.046  11.539   1.601 -0.5422 -1.4316  0.4016
  263MOL0     H36243   1.199  11.790   1.675 -2.0942  1.8148  0.4302
  263MOL0     H36244   1.175  12.064   1.648 -2.5164  0.6800 -0.3493
  263MOL0     H36245   1.125  12.112   1.490 -1.5304  0.5121  1.3520
  263MOL0     H36246   1.411  12.011   1.516  3.0085  1.6936 -1.5700
  263MOL0     H36247   1.336  12.106   1.394  1.5557 -0.3795  0.0154
  263MOL0     H36248   1.304  12.307   1.534  1.2359 -0.4161 -2.6413
  263MOL0     H36249   1.380  12.226   1.671  0.3052  1.3393  0.1577
  263MOL0     H36250   1.516  12.271   1.393 -1.4833 -1.2383 -0.7463
  263MOL0     H36251   1.540  12.372   1.534 -0.4935  0.6345 -0.9235
  263MOL0     H36252   1.747  12.300   1.337  0.5198 -0.8738 -0.4454
  263MOL0     H36253   2.088  12.330   1.283 -0.5300 -0.2343 -0.7223
  263MOL0     H36254   2.036  12.486   1.346 -0.7114  0.4923  0.8051
  263MOL0     H36255   1.917  12.401   1.252  0.7493  2.2009 -0.4212
  263MOL0     H36256   2.374  12.482   1.586  2.2196 -1.9966 -0.7394
  263MOL0     H36257   2.602  12.537   1.666  0.0812 -0.4835 -0.2542
  263MOL0     H36258   2.807  12.299   1.982 -1.2448  0.0856 -0.3470
  263MOL0     H36259   2.825  12.259   1.806 -4.9503 -1.1416  0.3532
  263MOL0     H36260   3.037  12.349   1.892  1.2973  1.2395 -0.3053
  263MOL0     H36261   2.989  12.467   1.791 -3.4000 -0.4029 -1.5490
  263MOL0     H36262   2.983  12.456   2.094 -5.4150  0.0903  0.4122
  263MOL0     H36263   2.885  12.580   2.023  0.1182 -0.7856  1.3329
  263MOL0     H36264   3.105  12.662   1.896  0.5204 -0.4743 -1.3022
  263MOL0     H36265   3.192  12.538   1.999 -0.0805  0.5085 -0.5438
  263MOL0     H36266   3.044  12.754   2.119  1.6254  0.7281 -0.3865
  263MOL0     H36267   3.118  12.616   2.190 -1.7027  0.5956 -0.0613
  263MOL0     H36268   3.268  12.835   2.028  3.3721  2.5931  1.7780
  263MOL0     H36269   3.335  12.681   2.077 -2.4972 -0.3114 -2.6855
  263MOL0     H36270   3.293  12.760   2.321 -0.7137 -0.9014 -0.2026
  263MOL0     H36271   3.229  12.906   2.244  0.9026  0.4423 -4.0343
  263MOL0     H36272   3.441  12.954   2.311 -3.3802 -0.3493  1.6964
  263MOL0     H36273   3.479  12.946   2.146 -1.2964  0.0050 -0.5958
  263MOL0     H36274   2.573  12.247   1.969 -0.2695  0.0467 -0.3748
  263MOL0     H36275   2.346  12.184   1.898 -0.5961  1.1149  0.6593
  263MOL0     H36276   1.961  12.222   1.777  1.4044 -5.3921 -1.4252
  263MOL0     H36277   1.746  12.196   1.742 -1.0280  0.2639  0.3199
  263MOL0     H36278   1.670  11.185   0.650 -1.1559 -1.7028  0.0687
  263MOL0     H36279   1.836  11.013   0.592 -0.7260 -0.6252 -0.4667
  263MOL0     H36280   1.991  10.693   0.514  0.7508  2.6806  2.3756
  263MOL0     H36281   2.137  10.532   0.385 -0.9113 -1.3905  0.6458
  263MOL0     H36282   2.285  10.404   0.278  0.2272  0.4097  1.0251
  263MOL0     H36283   2.356  10.255   0.319  0.3464 -0.6150  2.4790
  263MOL0     H36284   2.113  10.215   0.206 -0.3857 -1.0471  0.1587
  263MOL0     H36285   2.060  10.274   0.378 -0.2740  1.0691 -0.9759
  263MOL0     H36286   2.246  10.028   0.298  0.2271  1.3195 -0.0588
  263MOL0     H36287   2.163  10.054   0.454 -1.7553 -0.1863  0.1848
  263MOL0     H36288   2.020  10.004   0.191 -0.1010 -0.8243  0.3637
  263MOL0     H36289   1.947  10.005   0.355 -0.6115  0.9227 -2.1337
  263MOL0     H36290   2.093   9.619   0.373  2.1647  0.5401 -0.9994
  263MOL0     H36291   2.243  10.334   0.730  2.2230  2.8243  1.1542
  263MOL0     H36292   2.111  10.491   0.963 -2.9972 -0.0365  1.8475
  263MOL0     H36293   1.956  10.408   0.935  0.9142  1.6580  2.6872
  263MOL0     H36294   2.090  10.313   0.905  2.1016  0.2982  0.5220
  264MOL0     O36295   0.329   4.728   4.616  0.6268 -0.1197 -0.5229
  264MOL0     C36296   0.432   4.699   4.549  0.2135 -0.5220  0.2450
  264MOL0     O36297   0.439   4.627   4.428 -0.1404  0.8808 -0.2282
  264MOL0     C36298   0.306   4.584   4.409 -0.5228  0.9904  1.3487
  264MOL0     C36299   0.251   4.460   4.457 -0.1131  0.4107  0.0511
  264MOL0     C36300   0.128   4.406   4.404  0.5501  0.6098  0.0609
  264MOL0     C36301   0.058   4.484   4.317 -0.3149  0.4435 -0.5442
  264MOL0     O36302  -0.076   4.464   4.295  1.0145 -0.6626 -0.0149
  264MOL0     C36303  -0.140   4.351   4.346 -0.1830  0.1213  0.0549
  264MOL0     C36304  -0.286   4.340   4.288  0.3476  0.0045 -0.0926
  264MOL0     C36305  -0.392   4.417   4.368  0.0915 -0.4185  0.6182
  264MOL0     C36306  -0.533   4.435   4.302 -0.5829 -0.0316  0.4041
  264MOL0     C36307  -0.641   4.483   4.391 -0.0159  0.1385 -0.6119
  264MOL0     C36308  -0.615   4.606   4.484 -0.2770  0.4452  0.8003
  264MOL0     C36309  -0.551   4.728   4.403  0.6364  0.7146  0.3294
  264MOL0     C36310  -0.626   4.769   4.272 -0.1573  0.1766 -0.8183
  264MOL0     N36311  -0.760   4.828   4.296  0.4799  0.8339  0.1022
  264MOL0     C36312  -0.799   4.896   4.413 -0.3448  0.4546  1.0475
  264MOL0     C36313  -0.929   4.923   4.391  0.3312 -0.4455  0.4351
  264MOL0     C36314  -1.009   5.009   4.490 -0.3500  0.2740 -0.5424
  264MOL0     C36315  -1.089   4.916   4.587  1.1477 -0.1605 -0.7357
  264MOL0     C36316  -0.994   4.841   4.684  0.1294  0.7008  0.5846
  264MOL0     C36317  -1.079   4.786   4.805  0.0365  0.5492 -0.1604
  264MOL0     O36318  -1.160   4.671   4.763 -0.4042 -0.4677  0.0390
  264MOL0     C36319  -1.122   4.543   4.734 -0.0090  0.2042 -0.6320
  264MOL0     C36320  -0.990   4.507   4.740  0.0847 -1.0469 -0.0404
  264MOL0     C36321  -0.952   4.370   4.735  0.1105 -0.7713 -0.6677
  264MOL0     C36322  -0.805   4.336   4.722  0.0769 -0.5079  0.2281
  264MOL0     C36323  -1.050   4.269   4.731  0.0214  0.3928  1.0006
  264MOL0     C36324  -1.028   4.120   4.750 -0.5680  0.2290  0.7060
  264MOL0     O36325  -0.899   4.076   4.787 -0.0578 -0.1165  0.9446
  264MOL0     C36326  -0.884   3.941   4.793  0.0409  0.3305 -0.8256
  264MOL0     C36327  -0.969   3.855   4.872 -0.3104 -0.7033 -1.0155
  264MOL0     C36328  -0.946   3.717   4.882  1.1739  0.1645  0.2430
  264MOL0     C36329  -0.839   3.658   4.803  0.0455 -0.0685  0.1854
  264MOL0     O36330  -0.806   3.523   4.802  0.1256 -0.5520  0.5881
  264MOL0     C36331  -0.901   3.419   4.842  0.9482 -0.0558  0.0122
  264MOL0     C36332  -0.865   3.279   4.776  0.9994  0.7605  0.9677
  264MOL0     C36333  -0.854   3.284   4.626 -0.6637 -0.0270  0.1384
  264MOL0     C36334  -0.885   3.142   4.562  0.1489  0.2188 -0.1778
  264MOL0     C36335  -0.878   3.140   4.413  0.3092  0.7504 -0.1386
  264MOL0     C36336  -0.912   2.998   4.362  0.7891 -0.1966 -0.0920
  264MOL0     C36337  -0.890   2.987   4.207  0.2479  0.4484  0.8654
  264MOL0     C36338  -0.997   3.049   4.114 -0.1018  1.1313  0.6709
  264MOL0    Cl36339  -0.951   3.011   3.943 -0.0654 -0.3025 -0.3131
  264MOL0     C36340  -0.757   3.739   4.735  0.3131 -0.5411  0.0299
  264MOL0     C36341  -0.778   3.883   4.721  0.4303  0.8627  0.4973
  264MOL0     O36342  -1.125   4.046   4.734  0.1157 -0.5617 -0.0872
  264MOL0     C36343  -1.187   4.308   4.719  0.1685  0.1541  0.1469
  264MOL0     C36344  -1.219   4.442   4.717 -0.8571  0.0186 -0.3730
  264MOL0     N36345  -0.975   4.846   4.282  1.3334 -0.4410 -0.5841
  264MOL0     N36346  -0.870   4.787   4.226  0.4976 -0.5490 -0.4194
  264MOL0     C36347   0.106   4.602   4.262 -0.8105  0.4283  0.0714
  264MOL0     C36348   0.232   4.656   4.312  0.2572  0.2572  1.4396
  264MOL0     C36349   0.560   4.749   4.610 -0.7608 -0.2755  0.4226
  264MOL0     C36350   0.556   4.846   4.716 -0.5062  0.5154 -0.3305
  264MOL0     C36351   0.669   4.891   4.790 -0.5669 -0.3264  1.0278
  264MOL0     C36352   0.794   4.853   4.745 -0.1426 -0.7893 -0.1975
  264MOL0     O36353   0.895   4.913   4.821  0.3244 -0.9987 -1.1431
  264MOL0     C36354   1.033   4.880   4.790 -0.6643 -0.4413  0.3140
  264MOL0     C36355   1.110   4.915   4.915 -0.2330 -0.0258 -0.1555
  264MOL0     C36356   1.255   4.874   4.921 -0.8449 -0.0760  0.1121
  264MOL0     C36357   1.308   4.894   5.067  0.5921 -0.2956  0.2562
  264MOL0     C36358   1.256   4.779   5.143  0.8376 -0.6705 -0.1466
  264MOL0     C36359   1.194   4.685   5.192 -0.0492  0.6377  0.2906
  264MOL0     C36360   0.805   4.774   4.629  0.4265 -0.8510  0.1663
  264MOL0     C36361   0.691   4.725   4.563 -0.9818  0.4116  0.5372
  264MOL0     C36362   0.724   4.656   4.440  0.0351  0.5204 -0.8253
  264MOL0     H36363   0.302   4.409   4.539  0.2517 -0.4697 -0.6966
  264MOL0     H36364   0.095   4.309   4.441 -3.1948  1.4222 -0.7654
  264MOL0     H36365  -0.149   4.350   4.456 -2.2755  1.4508 -0.0433
  264MOL0     H36366  -0.078   4.265   4.318  1.5531  1.0007  1.0150
  264MOL0     H36367  -0.292   4.383   4.188  0.5231  2.4740  0.8819
  264MOL0     H36368  -0.305   4.233   4.285  1.4996 -0.3633  2.4146
  264MOL0     H36369  -0.415   4.363   4.460 -1.6975 -0.6850  0.0507
  264MOL0     H36370  -0.363   4.516   4.406 -4.4336  0.5469  2.1357
  264MOL0     H36371  -0.509   4.491   4.212  0.3844 -0.3273  0.4652
  264MOL0     H36372  -0.561   4.340   4.255  1.0754  0.0751 -0.9181
  264MOL0     H36373  -0.661   4.399   4.458  0.2114 -0.2261 -0.9927
  264MOL0     H36374  -0.719   4.497   4.316  0.5934 -1.9280 -1.7047
  264MOL0     H36375  -0.719   4.629   4.511 -0.3281  0.7046  0.4011
  264MOL0     H36376  -0.560   4.569   4.571 -0.8801 -0.8773  0.6323
  264MOL0     H36377  -0.455   4.693   4.365 -0.5705 -3.1638  0.4203
  264MOL0     H36378  -0.534   4.815   4.467  0.7258  0.4474  0.6744
  264MOL0     H36379  -0.565   4.849   4.230 -0.4469 -0.4428 -2.5075
  264MOL0     H36380  -0.631   4.688   4.198  2.3570  1.1422 -2.1556
  264MOL0     H36381  -0.744   4.919   4.504 -1.5245  2.0306  1.4102
  264MOL0     H36382  -1.094   5.059   4.443 -1.9600 -2.3702 -0.6504
  264MOL0     H36383  -0.927   5.068   4.532  0.8056 -0.7528 -1.3080
  264MOL0     H36384  -1.165   4.974   4.642  0.8757 -1.4674  0.3405
  264MOL0     H36385  -1.150   4.855   4.520  0.3481  1.2709 -1.3564
  264MOL0     H36386  -0.945   4.760   4.629  2.7273 -0.2647  3.9345
  264MOL0     H36387  -0.917   4.900   4.733  0.9920 -0.8230  1.1508
  264MOL0     H36388  -1.013   4.761   4.889 -1.4751 -1.3607  0.5318
  264MOL0     H36389  -1.142   4.872   4.830 -1.3109 -0.3768 -0.2524
  264MOL0     H36390  -0.908   4.577   4.744  1.1351 -2.2321 -0.1475
  264MOL0     H36391  -0.743   4.418   4.684 -1.6471  0.3833 -0.8058
  264MOL0     H36392  -0.800   4.258   4.645  0.5838  1.2351 -1.5722
  264MOL0     H36393  -0.763   4.309   4.819  0.8056 -0.0266  0.0581
  264MOL0     H36394  -1.032   3.900   4.948 -1.1239 -1.5624 -1.1598
  264MOL0     H36395  -1.005   3.661   4.954  0.1614  2.0834  0.9910
  264MOL0     H36396  -0.899   3.398   4.949 -1.9085 -3.8099 -0.4589
  264MOL0     H36397  -1.004   3.451   4.822  0.7282 -1.5948 -1.5564
  264MOL0     H36398  -0.765   3.247   4.807  1.4821  1.5744  0.2882
  264MOL0     H36399  -0.939   3.208   4.815  2.8213  0.2014  3.7300
  264MOL0     H36400  -0.761   3.321   4.582 -1.2525 -2.6979 -3.8657
  264MOL0     H36401  -0.934   3.357   4.607  0.4003  0.9129 -0.9335
  264MOL0     H36402  -0.988   3.117   4.587 -0.4640  1.5181 -1.2858
  264MOL0     H36403  -0.826   3.061   4.606 -0.5182 -0.1153  0.1159
  264MOL0     H36404  -0.950   3.209   4.368  1.9360  2.1192 -0.7526
  264MOL0     H36405  -0.785   3.185   4.377 -0.4249  2.9515  0.5563
  264MOL0     H36406  -1.014   2.969   4.387  0.6704  0.7373  0.5752
  264MOL0     H36407  -0.845   2.928   4.414  0.4629  0.5712  1.4393
  264MOL0     H36408  -0.894   2.881   4.180 -0.4360  1.0021 -1.4622
  264MOL0     H36409  -0.791   3.021   4.176 -0.0498 -0.7099 -1.6312
  264MOL0     H36410  -1.005   3.156   4.135  2.2839  1.5712 -0.2943
  264MOL0     H36411  -1.091   2.995   4.128 -0.1238  0.2668 -2.1681
  264MOL0     H36412  -0.676   3.703   4.672 -0.5045 -1.2907 -0.6190
  264MOL0     H36413  -0.713   3.954   4.671  0.2072  1.1189  0.5624
  264MOL0     H36414  -1.267   4.235   4.712 -0.8857  1.3306 -0.4510
  264MOL0     H36415  -1.325   4.465   4.709 -0.5649  1.9037  0.4887
  264MOL0     H36416   0.041   4.664   4.200 -1.2343 -0.1961 -0.1248
  264MOL0     H36417   0.258   4.754   4.273 -2.4428  1.9637  3.5761
  264MOL0     H36418   0.459   4.886   4.744 -0.6424  1.4841 -2.0236
  264MOL0     H36419   0.655   4.958   4.874 -0.3674  0.0646  0.7530
  264MOL0     H36420   1.044   4.772   4.776  0.8011  0.0729 -3.5112
  264MOL0     H36421   1.073   4.920   4.697 -0.8236  0.4308  0.6107
  264MOL0     H36422   1.063   4.882   5.008  2.8631 -0.4279  1.4032
  264MOL0     H36423   1.107   5.024   4.923 -0.6019  0.0480 -1.1611
  264MOL0     H36424   1.268   4.774   4.877 -0.3977  0.9323 -2.2104
  264MOL0     H36425   1.317   4.934   4.854  0.9846  0.3146  2.0385
  264MOL0     H36426   1.285   4.990   5.114  0.7476 -0.1327  0.0039
  264MOL0     H36427   1.413   4.875   5.092 -0.5443 -3.6419  3.3173
  264MOL0     H36428   1.150   4.595   5.229  2.2008 -0.8035 -0.3670
  264MOL0     H36429   0.905   4.769   4.587  0.4301 -0.8255  0.1723
  264MOL0     H36430   0.683   4.555   4.450  1.4768  0.0647  1.1874
  264MOL0     H36431   0.705   4.714   4.349  1.6499  2.9715  0.2914
  264MOL0     H36432   0.831   4.633   4.439 -0.0308  0.1921 -0.4315
  265MOL0     O36433   2.081   6.853   0.775  0.0835 -0.2113  0.0663
  265MOL0     C36434   2.146   6.797   0.688 -0.4894  0.4970 -0.1439
  265MOL0     O36435   2.094   6.710   0.595 -0.1917  0.6754  0.2272
  265MOL0     C36436   1.961   6.665   0.610 -0.0921  0.3521  0.2237
  265MOL0     C36437   1.854   6.748   0.568 -0.1013 -0.4965 -0.0282
  265MOL0     C36438   1.723   6.698   0.570  0.8156 -0.5993  0.5926
  265MOL0     C36439   1.695   6.572   0.619 -0.4115  0.2830 -1.1642
  265MOL0     O36440   1.565   6.527   0.614 -0.2610 -0.0162 -0.2115
  265MOL0     C36441   1.526   6.427   0.706  0.4626 -0.3007  0.0691
  265MOL0     C36442   1.368   6.434   0.717 -0.2423 -0.2167  0.4925
  265MOL0     C36443   1.300   6.327   0.806  0.5394 -0.0200  0.5985
  265MOL0     C36444   1.159   6.367   0.860  0.6117 -0.1449  0.1537
  265MOL0     C36445   1.112   6.251   0.952 -0.6045  0.5385  0.1895
  265MOL0     C36446   0.965   6.275   1.010 -0.4054 -0.1900 -0.3037
  265MOL0     C36447   0.909   6.144   1.067  0.0251 -0.0573 -0.4731
  265MOL0     C36448   0.818   6.163   1.191  0.3521 -0.2848 -0.1124
  265MOL0     N36449   0.895   6.203   1.311 -0.2185  0.1680 -0.7279
  265MOL0     C36450   0.983   6.133   1.392  0.5851 -0.4208 -0.1392
  265MOL0     C36451   1.053   6.222   1.458  0.5194  0.8260  0.7254
  265MOL0     C36452   1.169   6.193   1.538 -0.1012  0.6907 -1.1155
  265MOL0     C36453   1.303   6.198   1.462  1.0255  0.6087  0.4418
  265MOL0     C36454   1.300   6.127   1.332 -0.0623  0.4480  0.2387
  265MOL0     C36455   1.433   6.099   1.268 -0.0230 -0.5677  0.0109
  265MOL0     O36456   1.444   5.972   1.187 -0.3981 -0.4706 -0.8250
  265MOL0     C36457   1.526   5.980   1.078  0.2571 -0.3167  0.4193
  265MOL0     C36458   1.665   5.958   1.077 -0.8492 -0.1392  0.6761
  265MOL0     C36459   1.745   5.958   0.959  0.8654 -0.6748  0.0283
  265MOL0     C36460   1.896   5.928   0.973 -0.3221  0.4137  1.4946
  265MOL0     C36461   1.681   5.997   0.834 -0.7531  0.3559 -1.0014
  265MOL0     C36462   1.752   5.993   0.708 -0.1795  0.0273 -0.2820
  265MOL0     O36463   1.774   5.876   0.631  0.3740 -0.1471  0.1814
  265MOL0     C36464   1.691   5.774   0.636 -0.7981  0.1145  0.1516
  265MOL0     C36465   1.570   5.768   0.573  0.3390  0.3690  1.1353
  265MOL0     C36466   1.499   5.642   0.579  0.2436 -1.0727  0.4889
  265MOL0     C36467   1.537   5.533   0.653  0.0424  0.2703 -0.4448
  265MOL0     O36468   1.470   5.417   0.682  0.2424 -0.1816 -0.0374
  265MOL0     C36469   1.370   5.379   0.583  0.0060 -0.4363 -0.3319
  265MOL0     C36470   1.231   5.374   0.636 -1.0474  0.8281  0.4588
  265MOL0     C36471   1.144   5.324   0.522 -0.3143  0.2930 -0.1011
  265MOL0     C36472   1.000   5.295   0.565 -0.6898 -0.1215  1.1609
  265MOL0     C36473   0.918   5.422   0.591 -0.4522 -0.0148 -0.1957
  265MOL0     C36474   0.772   5.392   0.624  0.5801 -0.6905  0.5214
  265MOL0     C36475   0.746   5.292   0.736  0.1169  0.9328 -0.2589
  265MOL0     C36476   0.593   5.288   0.781 -1.0124  0.1934  0.3173
  265MOL0    Cl36477   0.501   5.192   0.660 -0.3693  0.2127  0.0306
  265MOL0     C36478   1.660   5.546   0.720  0.4052  0.0975  0.2173
  265MOL0     C36479   1.736   5.660   0.712 -0.0110 -0.5711  0.1610
  265MOL0     O36480   1.798   6.102   0.681  0.2264 -0.9935  0.1027
  265MOL0     C36481   1.544   6.030   0.834 -0.3990 -0.0122 -0.1095
  265MOL0     C36482   1.475   6.027   0.961  0.3617 -0.1387  0.6671
  265MOL0     N36483   1.003   6.352   1.438  0.0313  0.5026  0.1634
  265MOL0     N36484   0.900   6.333   1.356  0.0026 -0.4804  0.4264
  265MOL0     C36485   1.804   6.487   0.646 -0.1881 -0.1999 -1.0640
  265MOL0     C36486   1.935   6.535   0.632 -0.2820 -0.2014 -0.6183
  265MOL0     C36487   2.294   6.819   0.690  0.4895 -0.4829 -0.2742
  265MOL0     C36488   2.352   6.857   0.568  0.1581 -0.7195  0.8484
  265MOL0     C36489   2.483   6.904   0.563  0.8975 -0.7154  0.3442
  265MOL0     C36490   2.551   6.930   0.675  0.4624  0.9283  0.6048
  265MOL0     O36491   2.668   6.997   0.647  0.3674 -0.8113  0.1082
  265MOL0     C36492   2.758   7.022   0.749 -0.2064  0.0201 -0.0129
  265MOL0     C36493   2.890   7.088   0.698 -0.0349 -0.5795 -0.4169
  265MOL0     C36494   2.887   7.231   0.737 -0.4613 -0.2184 -0.3058
  265MOL0     C36495   2.984   7.326   0.657 -0.0183  1.1570  1.1891
  265MOL0     C36496   2.953   7.472   0.669  0.0147  0.1442 -0.1496
  265MOL0     C36497   2.919   7.581   0.692  0.4086 -0.3694 -0.0933
  265MOL0     C36498   2.495   6.899   0.798 -0.1793  0.1283  0.5321
  265MOL0     C36499   2.367   6.846   0.804  0.2860 -0.1592 -0.5091
  265MOL0     C36500   2.302   6.855   0.944 -0.6449  0.4315  0.6493
  265MOL0     H36501   1.875   6.851   0.539  0.6866 -0.0383  1.9964
  265MOL0     H36502   1.638   6.757   0.537  0.8145  0.4334  2.3430
  265MOL0     H36503   1.574   6.452   0.800  2.5058  1.3218 -1.3121
  265MOL0     H36504   1.548   6.327   0.668 -1.2921 -0.3399 -0.9846
  265MOL0     H36505   1.343   6.532   0.757  1.7969  0.0110  1.2928
  265MOL0     H36506   1.342   6.418   0.612  0.3728 -1.7881  0.5412
  265MOL0     H36507   1.279   6.236   0.749  1.6929  0.4696 -0.6690
  265MOL0     H36508   1.362   6.299   0.891  1.6057  2.3988  0.7044
  265MOL0     H36509   1.169   6.460   0.916 -0.1137 -0.0579  0.1450
  265MOL0     H36510   1.087   6.383   0.780 -0.9295  1.2617  1.7322
  265MOL0     H36511   1.180   6.251   1.038  2.6402  1.4406 -2.2222
  265MOL0     H36512   1.125   6.157   0.898 -0.9675  0.1460  0.7694
  265MOL0     H36513   0.965   6.361   1.079 -0.9185 -1.5253  1.4314
  265MOL0     H36514   0.903   6.304   0.925  0.6328  0.3666 -0.8954
  265MOL0     H36515   0.991   6.078   1.098 -1.3240 -0.5183  2.5027
  265MOL0     H36516   0.847   6.103   0.986  1.1627  0.9346 -1.8931
  265MOL0     H36517   0.742   6.241   1.179  1.8216  1.2858  0.4027
  265MOL0     H36518   0.776   6.063   1.204 -0.5963 -0.0726 -1.3678
  265MOL0     H36519   0.984   6.025   1.399 -2.1486 -0.4979  0.4660
  265MOL0     H36520   1.170   6.093   1.584  1.4828  1.3836  0.4851
  265MOL0     H36521   1.170   6.272   1.613  0.4076  0.2664 -0.6642
  265MOL0     H36522   1.312   6.303   1.430  1.8629 -0.1249 -1.9975
  265MOL0     H36523   1.391   6.167   1.519  1.9203 -1.2643 -1.7792
  265MOL0     H36524   1.244   6.033   1.337 -1.7195  1.4615  1.5637
  265MOL0     H36525   1.243   6.181   1.256 -1.4025 -2.9390 -1.3612
  265MOL0     H36526   1.465   6.190   1.215  0.3560 -0.1972  0.8543
  265MOL0     H36527   1.503   6.097   1.353  2.0658 -1.8397 -1.6255
  265MOL0     H36528   1.706   5.926   1.172  0.4270  0.5523  0.3751
  265MOL0     H36529   1.921   5.934   1.080  1.4397 -1.1622  1.2273
  265MOL0     H36530   1.960   6.001   0.924  2.8935 -2.9067  0.2362
  265MOL0     H36531   1.924   5.829   0.936  0.6358  1.0907  0.3486
  265MOL0     H36532   1.533   5.850   0.512 -0.0985 -1.1142 -0.6930
  265MOL0     H36533   1.403   5.638   0.529  0.9094 -0.7683 -0.8641
  265MOL0     H36534   1.363   5.438   0.491  0.9672  0.7400  0.3265
  265MOL0     H36535   1.382   5.273   0.557  0.6251 -0.8815  1.6600
  265MOL0     H36536   1.230   5.305   0.721  1.4446 -1.7236 -1.4177
  265MOL0     H36537   1.195   5.474   0.660  1.4610  2.1064 -0.7656
  265MOL0     H36538   1.188   5.232   0.481 -0.4787  0.8161 -1.4971
  265MOL0     H36539   1.132   5.397   0.441 -2.3691 -2.3179 -2.3610
  265MOL0     H36540   0.999   5.223   0.648  1.4162 -2.1195 -0.4158
  265MOL0     H36541   0.943   5.251   0.483  1.3370 -1.4893  0.4275
  265MOL0     H36542   0.964   5.480   0.672  0.3778 -0.1479 -0.5552
  265MOL0     H36543   0.927   5.485   0.501  3.8368  0.7020  0.5124
  265MOL0     H36544   0.723   5.372   0.529  2.6314  1.6380 -1.1771
  265MOL0     H36545   0.717   5.482   0.654  0.2188 -0.5582 -0.5006
  265MOL0     H36546   0.806   5.311   0.826 -0.1970  1.3794 -0.1426
  265MOL0     H36547   0.769   5.186   0.720 -4.3377  0.0438 -2.2314
  265MOL0     H36548   0.553   5.388   0.799 -0.6616  0.5309 -0.6772
  265MOL0     H36549   0.591   5.239   0.879 -1.9344  0.1656  0.2879
  265MOL0     H36550   1.699   5.455   0.764  0.8842 -0.2045 -0.8059
  265MOL0     H36551   1.832   5.664   0.763 -1.9250 -0.5465  4.1878
  265MOL0     H36552   1.492   6.068   0.747  0.7167  1.6022 -0.1242
  265MOL0     H36553   1.369   6.053   0.963  0.8519  2.0224  0.8683
  265MOL0     H36554   1.795   6.380   0.663  2.9120 -0.2052  1.4315
  265MOL0     H36555   2.021   6.470   0.640  1.3146  1.8591 -0.0455
  265MOL0     H36556   2.297   6.853   0.474  0.5160  3.6076  0.2881
  265MOL0     H36557   2.505   6.930   0.460 -3.6165  2.9155 -0.0326
  265MOL0     H36558   2.708   7.087   0.822 -3.0634 -2.9360  0.9155
  265MOL0     H36559   2.779   6.930   0.804  1.1751  0.1146 -0.3569
  265MOL0     H36560   2.886   7.090   0.588  1.5006  0.5760 -0.4898
  265MOL0     H36561   2.976   7.030   0.733  1.6627  1.2007 -1.4487
  265MOL0     H36562   2.791   7.274   0.707 -0.7285  0.9687  1.9898
  265MOL0     H36563   2.902   7.251   0.843  2.7080 -0.6732 -0.5788
  265MOL0     H36564   2.982   7.288   0.554 -0.4212 -0.3560  1.7218
  265MOL0     H36565   3.090   7.304   0.676  0.0348 -1.0478 -0.9996
  265MOL0     H36566   2.882   7.671   0.738 -1.9886 -3.1019  3.8968
  265MOL0     H36567   2.546   6.934   0.888  0.8608  0.6808 -0.2558
  265MOL0     H36568   2.384   6.844   1.016 -2.8222  0.5860  3.2663
  265MOL0     H36569   2.257   6.951   0.972 -0.5408  0.7436 -0.2163
  265MOL0     H36570   2.224   6.780   0.956 -1.1915  0.6647 -1.1019
  266MOL0     O36571   3.146   3.391   6.794 -0.0077 -0.4200 -0.0873
  266MOL0     C36572   3.228   3.440   6.718 -0.4043 -1.1829  0.0965
  266MOL0     O36573   3.201   3.542   6.627  0.3408 -0.1568 -0.5958
  266MOL0     C36574   3.087   3.622   6.659 -0.0257 -0.5340 -0.1279
  266MOL0     C36575   2.984   3.621   6.565  0.9305  0.0932 -0.2683
  266MOL0     C36576   2.875   3.697   6.596 -0.5277 -0.2655  0.3671
  266MOL0     C36577   2.863   3.768   6.713 -0.3682  0.5297  0.2733
  266MOL0     O36578   2.752   3.840   6.739 -0.0933 -0.1860 -0.3675
  266MOL0     C36579   2.631   3.772   6.721  0.8734  0.4003  0.4231
  266MOL0     C36580   2.517   3.830   6.808 -0.3830 -0.0319 -0.5864
  266MOL0     C36581   2.526   3.801   6.959 -0.6116  0.0059  0.9377
  266MOL0     C36582   2.413   3.884   7.016 -0.3792 -0.6197  0.1158
  266MOL0     C36583   2.421   3.869   7.166 -0.8211 -0.2724 -1.2333
  266MOL0     C36584   2.318   3.942   7.249 -0.9573  0.0154 -1.3539
  266MOL0     C36585   2.181   3.886   7.221 -0.2514  0.2266  1.1193
  266MOL0     C36586   2.076   3.964   7.297 -0.8739  0.2536  0.0911
  266MOL0     N36587   2.011   3.877   7.390  0.1200 -0.5937 -0.3524
  266MOL0     C36588   1.900   3.805   7.352  0.1555  0.4626 -0.2217
  266MOL0     C36589   1.882   3.717   7.452  0.0290 -0.6174  0.3921
  266MOL0     C36590   1.780   3.602   7.446 -0.2095  1.0146  0.0429
  266MOL0     C36591   1.667   3.595   7.339  0.4736  0.2565  1.0707
  266MOL0     C36592   1.556   3.694   7.350  0.0456 -0.0593 -0.3771
  266MOL0     C36593   1.434   3.665   7.265  1.0038  0.9046 -0.1872
  266MOL0     O36594   1.472   3.632   7.134  0.0013 -0.3264 -0.3227
  266MOL0     C36595   1.393   3.660   7.033 -0.0703  0.1171 -0.5238
  266MOL0     C36596   1.322   3.783   7.015  0.7197  0.6818  0.8519
  266MOL0     C36597   1.237   3.801   6.908 -0.3602  0.1783  0.0637
  266MOL0     C36598   1.165   3.933   6.900 -0.5785 -0.2579  0.0544
  266MOL0     C36599   1.235   3.691   6.801 -0.0148 -0.5235  0.7282
  266MOL0     C36600   1.146   3.695   6.682  0.5092  0.2730  0.4403
  266MOL0     O36601   1.138   3.577   6.603  0.0127  0.2731 -1.0664
  266MOL0     C36602   1.051   3.573   6.496 -0.2710  0.8493  0.0446
  266MOL0     C36603   1.066   3.660   6.387 -0.6931 -0.3175 -0.3783
  266MOL0     C36604   0.982   3.657   6.277  0.8609  0.0236  1.1211
  266MOL0     C36605   0.880   3.558   6.266 -0.0064  0.3640 -0.5196
  266MOL0     O36606   0.785   3.535   6.168  0.3385  0.0428  0.7093
  266MOL0     C36607   0.777   3.621   6.053  0.5064  1.0073 -0.5923
  266MOL0     C36608   0.702   3.551   5.932  0.1937 -0.1396  0.5218
  266MOL0     C36609   0.704   3.646   5.813 -0.2135  0.3421  0.8461
  266MOL0     C36610   0.645   3.591   5.681  0.5762  0.4733 -0.2950
  266MOL0     C36611   0.681   3.673   5.561 -0.3255  0.3633 -0.4201
  266MOL0     C36612   0.827   3.657   5.523 -0.9051 -0.4741 -1.0515
  266MOL0     C36613   0.844   3.739   5.391 -0.6833  0.3191  0.0303
  266MOL0     C36614   0.998   3.741   5.360  0.4044 -0.4263  0.0742
  266MOL0    Cl36615   1.015   3.866   5.237 -0.0720 -0.2486 -0.1261
  266MOL0     C36616   0.863   3.481   6.375 -0.3559 -0.4335 -0.9028
  266MOL0     C36617   0.945   3.479   6.488  0.5289  0.0242 -0.0299
  266MOL0     O36618   1.085   3.796   6.653 -0.8494  0.4312  0.2890
  266MOL0     C36619   1.315   3.580   6.823  0.3727  0.1292  0.1447
  266MOL0     C36620   1.399   3.559   6.937  0.4182  0.1086  1.4041
  266MOL0     N36621   1.983   3.735   7.547  0.1137  0.2819  0.1267
  266MOL0     N36622   2.054   3.837   7.513 -0.3457 -0.4979  0.3201
  266MOL0     C36623   2.967   3.778   6.802 -0.3669  1.0132  0.4986
  266MOL0     C36624   3.084   3.706   6.773  0.4840 -1.0217 -0.4324
  266MOL0     C36625   3.357   3.382   6.697 -1.0568 -0.4375  0.0153
  266MOL0     C36626   3.472   3.457   6.717 -1.1499 -0.5392 -0.1892
  266MOL0     C36627   3.606   3.406   6.719  0.5460  0.0429 -0.4167
  266MOL0     C36628   3.628   3.270   6.692 -0.1884 -0.3609 -1.3843
  266MOL0     O36629   3.757   3.232   6.693 -0.0390 -0.0778  0.3395
  266MOL0     C36630   3.783   3.092   6.685 -0.5818 -0.9283 -0.2853
  266MOL0     C36631   3.777   3.041   6.547 -0.2962 -0.0494 -0.2697
  266MOL0     C36632   3.883   3.091   6.447  0.0486  0.7183  0.0524
  266MOL0     C36633   4.018   3.022   6.475 -0.2955 -0.7487 -0.4490
  266MOL0     C36634   4.106   3.094   6.565 -0.2273  0.3214 -0.4378
  266MOL0     C36635   4.173   3.142   6.649  0.2346  0.1127 -0.3988
  266MOL0     C36636   3.515   3.197   6.662 -0.3917 -0.1954  0.0980
  266MOL0     C36637   3.381   3.246   6.664 -0.1182 -0.6328  0.4205
  266MOL0     C36638   3.257   3.157   6.635 -0.1919 -0.4241  0.8906
  266MOL0     H36639   2.977   3.542   6.491 -1.6437 -1.7099  1.7146
  266MOL0     H36640   2.794   3.699   6.524 -0.6667 -1.9073  0.4288
  266MOL0     H36641   2.649   3.668   6.753 -1.7044 -0.8366 -1.7247
  266MOL0     H36642   2.611   3.765   6.613 -2.1460 -3.5325  0.9883
  266MOL0     H36643   2.519   3.937   6.789 -2.4376  0.0137 -0.8534
  266MOL0     H36644   2.419   3.790   6.778 -1.3248  0.6935  1.3228
  266MOL0     H36645   2.510   3.700   6.998 -1.8159  0.0721  0.6389
  266MOL0     H36646   2.624   3.832   6.996 -0.8478  4.2048 -1.3614
  266MOL0     H36647   2.410   3.987   6.980  0.7917  1.2873  4.6619
  266MOL0     H36648   2.325   3.841   6.966 -0.5305  0.8470 -0.9359
  266MOL0     H36649   2.520   3.902   7.198 -1.9382  2.8128 -0.6562
  266MOL0     H36650   2.422   3.762   7.190  0.4683 -0.0925 -0.4164
  266MOL0     H36651   2.349   3.939   7.354  0.7547  1.5986 -1.7503
  266MOL0     H36652   2.327   4.048   7.221 -0.7068 -0.0310 -1.4559
  266MOL0     H36653   2.175   3.779   7.242  1.3562  0.1714  1.4144
  266MOL0     H36654   2.168   3.906   7.114  0.7109  0.1348  0.9712
  266MOL0     H36655   2.122   4.054   7.337  1.1230  1.8730 -5.0758
  266MOL0     H36656   1.994   3.997   7.232 -1.1242 -0.0247  0.2605
  266MOL0     H36657   1.829   3.810   7.269 -2.5640 -0.0368  1.9358
  266MOL0     H36658   1.723   3.597   7.539 -2.6293 -2.1752 -1.3866
  266MOL0     H36659   1.839   3.511   7.434  1.4997  2.3040 -2.0158
  266MOL0     H36660   1.719   3.606   7.244  0.2906 -0.5093  0.8762
  266MOL0     H36661   1.629   3.493   7.344  1.3913 -0.0596  2.4155
  266MOL0     H36662   1.537   3.692   7.458 -1.6115 -4.9832 -0.5096
  266MOL0     H36663   1.593   3.794   7.329 -0.5337  0.2994  0.2348
  266MOL0     H36664   1.383   3.580   7.310 -1.5538  1.1586 -2.3730
  266MOL0     H36665   1.370   3.753   7.269  2.6155  2.0922  1.6752
  266MOL0     H36666   1.321   3.867   7.083 -1.1246  2.8984 -1.7218
  266MOL0     H36667   1.202   4.006   6.972  2.0194 -1.4052 -0.0002
  266MOL0     H36668   1.061   3.909   6.924  0.1039 -2.5728  0.9648
  266MOL0     H36669   1.164   3.982   6.802  1.9774  0.1094  0.1291
  266MOL0     H36670   1.140   3.738   6.396  0.8895 -1.8466  0.3871
  266MOL0     H36671   1.000   3.738   6.207  0.7275  1.3852  2.6056
  266MOL0     H36672   0.718   3.711   6.073 -2.7903 -1.1271  0.2249
  266MOL0     H36673   0.874   3.651   6.013  1.1272 -1.5946 -1.2131
  266MOL0     H36674   0.746   3.455   5.904 -0.6619 -0.6561  0.9027
  266MOL0     H36675   0.600   3.536   5.968 -0.6671  3.0726 -0.2739
  266MOL0     H36676   0.810   3.673   5.804 -0.4842  2.0985  2.4250
  266MOL0     H36677   0.648   3.736   5.839 -0.1307  0.3264  1.0797
  266MOL0     H36678   0.537   3.591   5.698  0.8273 -0.7672  1.6337
  266MOL0     H36679   0.682   3.488   5.669 -3.3069 -1.0752 -0.7747
  266MOL0     H36680   0.623   3.627   5.480  0.8694 -2.7474  0.3526
  266MOL0     H36681   0.637   3.772   5.575  0.3072  0.7136 -0.8459
  266MOL0     H36682   0.854   3.551   5.516  2.5750  0.3213 -1.4551
  266MOL0     H36683   0.888   3.688   5.608  0.1752  1.0212 -2.3257
  266MOL0     H36684   0.810   3.841   5.412 -0.0196  1.1114 -2.3920
  266MOL0     H36685   0.786   3.685   5.316  0.1779 -0.5501 -0.0387
  266MOL0     H36686   1.028   3.650   5.307 -0.1050  0.2828 -1.4881
  266MOL0     H36687   1.064   3.754   5.446  1.3808 -2.3186 -0.3192
  266MOL0     H36688   0.791   3.402   6.359  0.5339 -1.2784 -0.7855
  266MOL0     H36689   0.934   3.398   6.560 -2.9091 -0.6742 -1.1398
  266MOL0     H36690   1.314   3.504   6.745 -3.6055  0.3101 -0.1834
  266MOL0     H36691   1.454   3.465   6.936 -0.3993 -0.8530 -5.7097
  266MOL0     H36692   2.962   3.831   6.897  0.6213  0.7871  0.6850
  266MOL0     H36693   3.156   3.715   6.854  0.1140  2.1478 -0.3239
  266MOL0     H36694   3.474   3.565   6.727  3.0036 -0.4011 -0.9614
  266MOL0     H36695   3.695   3.466   6.733 -0.0786  0.9160 -0.1240
  266MOL0     H36696   3.879   3.063   6.728 -0.8961  1.4841  2.3706
  266MOL0     H36697   3.711   3.037   6.746 -4.1463  2.0365 -1.4372
  266MOL0     H36698   3.681   3.055   6.497  0.8197 -1.7030 -3.1467
  266MOL0     H36699   3.792   2.933   6.557 -3.8828 -0.4982  2.3888
  266MOL0     H36700   3.847   3.066   6.347 -0.3139 -0.3214  0.4325
  266MOL0     H36701   3.894   3.199   6.453  0.7504  0.6283  0.6135
  266MOL0     H36702   4.069   3.008   6.379 -0.6585 -1.4171 -0.5488
  266MOL0     H36703   4.008   2.922   6.519 -2.6598 -1.7013 -2.8350
  266MOL0     H36704   4.225   3.208   6.716  0.6002 -0.2557 -0.3177
  266MOL0     H36705   3.520   3.088   6.663  2.7574 -0.1643 -1.5574
  266MOL0     H36706   3.288   3.060   6.596 -2.8030 -1.2429  0.6409
  266MOL0     H36707   3.197   3.126   6.721 -3.0921  0.2856 -0.7516
  266MOL0     H36708   3.201   3.205   6.555 -2.1478 -3.5163  0.2427
  267MOL0     O36709   3.597   9.061   7.615  0.0515  0.1471 -1.5561
  267MOL0     C36710   3.563   9.133   7.526 -0.6291 -0.0557 -0.4555
  267MOL0     O36711   3.477   9.103   7.427  0.4370 -0.7440 -0.3003
  267MOL0     C36712   3.468   8.971   7.381 -0.8225  0.5733  0.7650
  267MOL0     C36713   3.566   8.874   7.402 -0.8476 -0.0612 -0.8536
  267MOL0     C36714   3.562   8.751   7.337  0.3508  0.4297 -1.0341
  267MOL0     C36715   3.457   8.727   7.253  0.2377  0.6301 -0.0914
  267MOL0     O36716   3.456   8.602   7.190 -0.4624 -0.1159 -0.0890
  267MOL0     C36717   3.516   8.590   7.060  0.2921  0.4820  0.8526
  267MOL0     C36718   3.668   8.573   7.065 -0.2670 -0.3412 -0.6510
  267MOL0     C36719   3.701   8.456   7.152  0.1656  0.3865 -1.1294
  267MOL0     C36720   3.768   8.339   7.072  0.0101 -0.2432 -1.2231
  267MOL0     C36721   3.784   8.209   7.161 -0.3851  0.5130 -0.6582
  267MOL0     C36722   3.799   8.088   7.066 -0.8498  1.1736  0.2604
  267MOL0     C36723   3.838   7.949   7.130 -0.9245  0.5355 -0.1536
  267MOL0     C36724   3.866   7.857   7.012  0.6701  0.5619 -0.1820
  267MOL0     N36725   3.901   7.720   7.052  0.2880 -0.1277 -0.0683
  267MOL0     C36726   4.017   7.680   7.118 -1.1549 -0.3100  1.1229
  267MOL0     C36727   4.007   7.551   7.127 -1.5450  0.5397 -0.0438
  267MOL0     C36728   4.103   7.463   7.194 -0.0088  0.8790 -0.2411
  267MOL0     C36729   4.051   7.316   7.196 -0.2046  0.5864  0.5379
  267MOL0     C36730   4.083   7.227   7.310 -0.8543  0.5597  1.4602
  267MOL0     C36731   4.232   7.219   7.329 -0.8835  0.2124 -0.0318
  267MOL0     O36732   4.260   7.141   7.444 -0.2025 -0.0296 -0.5383
  267MOL0     C36733   4.395   7.127   7.473 -0.3465  0.6172  0.1397
  267MOL0     C36734   4.508   7.187   7.412 -0.4517 -0.4259 -0.6526
  267MOL0     C36735   4.640   7.166   7.458 -0.3508  0.5120 -0.1849
  267MOL0     C36736   4.755   7.234   7.389 -0.4000 -0.5429  0.6823
  267MOL0     C36737   4.668   7.070   7.559 -0.5182  0.8226 -0.7916
  267MOL0     C36738   4.798   7.033   7.623  0.0513 -0.6275  1.2275
  267MOL0     O36739   4.821   6.906   7.658  0.2007 -0.2707  0.2675
  267MOL0     C36740   4.943   6.863   7.702  0.0074 -0.2773  1.0590
  267MOL0     C36741   5.029   6.937   7.778  0.2917  0.2888  0.4694
  267MOL0     C36742   5.157   6.889   7.817  0.1114  0.3069 -0.1542
  267MOL0     C36743   5.206   6.772   7.764  0.2148 -0.2166  0.2144
  267MOL0     O36744   5.331   6.717   7.780 -0.0514 -0.2231 -0.2903
  267MOL0     C36745   5.440   6.794   7.848  0.3723 -0.2501  0.2137
  267MOL0     C36746   5.564   6.706   7.830 -0.3500 -0.2426 -0.8365
  267MOL0     C36747   5.684   6.762   7.906 -1.3163 -0.2415  0.2898
  267MOL0     C36748   5.790   6.662   7.907 -0.1741 -0.9066 -0.0323
  267MOL0     C36749   5.924   6.708   7.969  0.3983  0.5345  0.2458
  267MOL0     C36750   5.949   6.615   8.082 -0.5327 -0.2810 -0.0223
  267MOL0     C36751   6.075   6.634   8.172  0.2044 -0.1897  0.1277
  267MOL0     C36752   6.084   6.535   8.300  0.2666 -0.4855  0.2294
  267MOL0    Cl36753   5.915   6.527   8.370 -0.2406 -0.0446 -0.0339
  267MOL0     C36754   5.122   6.693   7.672 -0.9484  0.3758 -0.0191
  267MOL0     C36755   4.995   6.738   7.645  0.6431 -0.5333 -0.3964
  267MOL0     O36756   4.872   7.120   7.622  0.0086 -0.9389 -0.4543
  267MOL0     C36757   4.556   7.008   7.608  0.0185  0.3520 -0.0536
  267MOL0     C36758   4.423   7.028   7.562 -0.4825  0.4972 -0.4722
  267MOL0     N36759   3.896   7.507   7.063  0.5746 -1.1687  0.6113
  267MOL0     N36760   3.835   7.610   7.015  0.1875 -0.4231  0.1245
  267MOL0     C36761   3.356   8.813   7.236  0.0858  0.2784 -0.6533
  267MOL0     C36762   3.359   8.935   7.295 -0.5060 -0.6700 -0.0917
  267MOL0     C36763   3.598   9.278   7.535 -0.4476 -0.1484  0.1844
  267MOL0     C36764   3.532   9.362   7.454 -0.2685 -0.6135 -0.3501
  267MOL0     C36765   3.557   9.502   7.443 -0.3204  0.3697 -0.4843
  267MOL0     C36766   3.655   9.562   7.520 -0.3212  0.2733 -0.4685
  267MOL0     O36767   3.679   9.700   7.514 -0.0902  0.8894  0.0422
  267MOL0     C36768   3.604   9.787   7.424 -0.7166  0.5838 -1.2316
  267MOL0     C36769   3.657   9.933   7.451  0.2327  0.3239  0.1675
  267MOL0     C36770   3.792   9.953   7.381  0.1378  0.3932 -0.6229
  267MOL0     C36771   3.917   9.912   7.453 -0.4310 -0.7856 -0.3684
  267MOL0     C36772   3.975  10.020   7.546  0.1117  0.8815  0.2729
  267MOL0     C36773   4.009  10.106   7.615 -0.3883 -0.0167 -0.4264
  267MOL0     C36774   3.737   9.478   7.591  0.3018  1.0251 -0.1115
  267MOL0     C36775   3.717   9.338   7.594  0.1701  0.3445  0.3107
  267MOL0     C36776   3.807   9.257   7.680 -0.3701 -0.2460 -0.3297
  267MOL0     H36777   3.650   8.892   7.469 -0.7196 -0.9313 -0.7633
  267MOL0     H36778   3.644   8.682   7.355 -0.7290 -0.1752  2.3741
  267MOL0     H36779   3.501   8.684   7.005  0.6759  1.3478  2.1759
  267MOL0     H36780   3.461   8.511   7.008  0.6970  0.0020  1.1449
  267MOL0     H36781   3.712   8.562   6.965 -2.0213 -2.2203 -1.2785
  267MOL0     H36782   3.698   8.668   7.110 -1.2034  0.6620 -2.0557
  267MOL0     H36783   3.772   8.499   7.225 -2.3441  0.8693  1.2044
  267MOL0     H36784   3.620   8.420   7.216  0.8910  1.9755  0.8024
  267MOL0     H36785   3.700   8.314   6.990  1.1518 -1.9431 -1.7094
  267MOL0     H36786   3.863   8.380   7.037 -0.8647  3.0024 -0.1647
  267MOL0     H36787   3.693   8.191   7.218  0.5110  0.6758  0.8658
  267MOL0     H36788   3.863   8.215   7.236 -2.0322  2.1772  1.0542
  267MOL0     H36789   3.708   8.077   7.006 -1.0181  1.7700  0.4054
  267MOL0     H36790   3.869   8.112   6.985 -3.5048  1.0195 -2.2701
  267MOL0     H36791   3.754   7.901   7.182 -2.2852 -0.3473 -2.9439
  267MOL0     H36792   3.925   7.951   7.195 -1.6419 -1.7649  1.0162
  267MOL0     H36793   3.772   7.854   6.956 -1.3014  2.4284  2.7568
  267MOL0     H36794   3.940   7.899   6.943  1.4211 -1.1135 -0.4278
  267MOL0     H36795   4.106   7.734   7.150 -0.0238 -1.8102  0.5880
  267MOL0     H36796   4.129   7.504   7.292  0.7736  0.2459 -0.1770
  267MOL0     H36797   4.200   7.458   7.144  0.7715 -0.6522  1.3428
  267MOL0     H36798   3.942   7.314   7.207 -0.3414  0.9922 -0.6124
  267MOL0     H36799   4.063   7.265   7.100  0.2661  0.2077  0.7965
  267MOL0     H36800   4.046   7.279   7.398  1.1908  4.8947  0.0790
  267MOL0     H36801   4.037   7.129   7.302  1.1351 -0.3717  0.7493
  267MOL0     H36802   4.282   7.171   7.244 -0.0523 -0.5417  0.8611
  267MOL0     H36803   4.274   7.319   7.341  0.0577  0.0089 -1.4455
  267MOL0     H36804   4.499   7.251   7.325  0.6375  0.6317 -0.0116
  267MOL0     H36805   4.838   7.167   7.363  0.3878  1.4760 -2.6940
  267MOL0     H36806   4.796   7.315   7.450 -1.1916  3.0847 -3.1804
  267MOL0     H36807   4.716   7.278   7.297  1.1613  2.2539  1.2384
  267MOL0     H36808   4.988   7.030   7.816  2.3397  2.0807 -1.4401
  267MOL0     H36809   5.219   6.946   7.885  1.4919  2.0088 -2.7025
  267MOL0     H36810   5.460   6.889   7.799  0.0450 -1.0021 -1.4488
  267MOL0     H36811   5.408   6.810   7.951 -2.2206  1.3532 -0.7593
  267MOL0     H36812   5.545   6.604   7.867  0.4935  0.1632  0.8348
  267MOL0     H36813   5.584   6.696   7.723  1.7951  2.2351 -0.7625
  267MOL0     H36814   5.650   6.788   8.007 -1.6319 -0.0410  0.1335
  267MOL0     H36815   5.732   6.850   7.863 -1.1757  1.1745  3.1159
  267MOL0     H36816   5.821   6.632   7.806 -0.1073 -2.4800  0.4318
  267MOL0     H36817   5.759   6.573   7.961  0.6828  0.5229  3.0856
  267MOL0     H36818   6.006   6.708   7.897 -0.5849 -1.3003 -0.9603
  267MOL0     H36819   5.907   6.806   8.014 -0.0005  0.9543 -0.7747
  267MOL0     H36820   5.954   6.513   8.043 -2.0301 -1.2084  2.0104
  267MOL0     H36821   5.860   6.630   8.143 -0.2337  0.9487  0.1360
  267MOL0     H36822   6.086   6.740   8.194  0.4520 -0.4167  1.1221
  267MOL0     H36823   6.164   6.620   8.111 -0.8952  0.5671 -1.7554
  267MOL0     H36824   6.139   6.580   8.384 -2.7737 -0.2778  2.2655
  267MOL0     H36825   6.131   6.440   8.274 -1.6015 -1.4968  0.4055
  267MOL0     H36826   5.152   6.603   7.620 -0.0514  2.4428 -3.3474
  267MOL0     H36827   4.921   6.688   7.584 -1.1448  3.1019 -1.5261
  267MOL0     H36828   4.575   6.931   7.681 -1.5771 -1.3287 -1.3218
  267MOL0     H36829   4.334   6.989   7.610 -1.3021 -1.3408 -3.2252
  267MOL0     H36830   3.272   8.782   7.176 -1.0436 -0.5252  1.2485
  267MOL0     H36831   3.284   9.004   7.257  0.0955 -1.8844 -3.9235
  267MOL0     H36832   3.457   9.330   7.383  1.5208 -1.5761 -1.9115
  267MOL0     H36833   3.475   9.554   7.394 -2.4848 -2.2139  0.1395
  267MOL0     H36834   3.624   9.757   7.321  0.9576  0.8085 -0.9910
  267MOL0     H36835   3.497   9.771   7.443 -0.0285 -0.0675  3.1070
  267MOL0     H36836   3.672   9.957   7.557  1.0626  0.1463  0.0988
  267MOL0     H36837   3.582  10.005   7.415  0.6729 -0.0896 -1.6820
  267MOL0     H36838   3.805   9.888   7.294  3.1628 -1.2511  0.9049
  267MOL0     H36839   3.807  10.055   7.345  0.7853  0.1840 -0.9544
  267MOL0     H36840   3.996   9.895   7.380 -0.5132  1.5734 -1.1002
  267MOL0     H36841   3.916   9.814   7.501  1.1864 -0.1857  1.0119
  267MOL0     H36842   4.026  10.188   7.682  0.1418 -0.5906  0.1603
  267MOL0     H36843   3.824   9.524   7.636 -0.5180  2.2576  0.2760
  267MOL0     H36844   3.833   9.161   7.633 -1.0238  0.3508 -1.9921
  267MOL0     H36845   3.896   9.314   7.707 -1.1748 -0.3101  2.8297
  267MOL0     H36846   3.766   9.239   7.780  1.4479  2.5821  1.0303
  268MOL0     O36847   6.644   6.164  11.335  0.4008  0.3500  0.1740
  268MOL0     C36848   6.540   6.102  11.308 -0.6497  0.0675  0.0048
  268MOL0     O36849   6.544   5.975  11.263 -0.2653  0.2168 -0.6336
  268MOL0     C36850   6.663   5.903  11.290  0.3878  0.3876 -1.9852
  268MOL0     C36851   6.705   5.816  11.197  0.7107  0.0430 -0.1294
  268MOL0     C36852   6.822   5.737  11.217  0.6084  0.3590 -0.8930
  268MOL0     C36853   6.891   5.755  11.341  0.0052  0.2294 -0.1900
  268MOL0     O36854   7.005   5.683  11.370 -0.2754  0.0539 -0.2084
  268MOL0     C36855   7.084   5.639  11.261 -1.2913  0.6679  0.3475
  268MOL0     C36856   7.149   5.751  11.171 -0.4262  0.6740 -0.2256
  268MOL0     C36857   7.285   5.808  11.226 -0.8941 -0.2218 -0.2936
  268MOL0     C36858   7.370   5.885  11.128  0.7907 -0.3077  0.4397
  268MOL0     C36859   7.474   5.953  11.216 -0.5134 -0.5054 -0.3315
  268MOL0     C36860   7.579   6.024  11.135 -0.6362  0.6656 -0.7942
  268MOL0     C36861   7.703   6.060  11.209 -0.8036 -0.3418  0.2302
  268MOL0     C36862   7.819   6.090  11.115 -1.4631  0.1310  0.3510
  268MOL0     N36863   7.936   6.140  11.191 -1.0160 -0.5182  1.2467
  268MOL0     C36864   8.069   6.116  11.154 -0.4744 -1.1626  0.1710
  268MOL0     C36865   8.137   6.228  11.201 -0.4266  0.1285  0.9298
  268MOL0     C36866   8.286   6.259  11.160 -0.1971  0.6812 -1.2239
  268MOL0     C36867   8.381   6.188  11.267 -0.2972  0.5357 -0.0230
  268MOL0     C36868   8.425   6.287  11.368  1.1861  0.1716 -0.0650
  268MOL0     C36869   8.496   6.214  11.484 -0.1952  0.7200 -0.0726
  268MOL0     O36870   8.622   6.157  11.464 -0.9275 -0.0217  0.4501
  268MOL0     C36871   8.734   6.232  11.475  0.0524  0.0569 -0.6840
  268MOL0     C36872   8.856   6.164  11.461  0.6399  0.4340 -0.2596
  268MOL0     C36873   8.979   6.223  11.470 -0.0699  0.0339  0.8184
  268MOL0     C36874   9.105   6.131  11.441 -0.1398 -0.2318 -1.0549
  268MOL0     C36875   8.982   6.365  11.494  0.2475 -1.2339 -0.6301
  268MOL0     C36876   9.110   6.437  11.512  0.9754  0.7420 -0.3535
  268MOL0     O36877   9.097   6.570  11.504 -0.1702 -0.2422 -0.0356
  268MOL0     C36878   9.214   6.644  11.506 -0.2198  0.4030 -0.5005
  268MOL0     C36879   9.295   6.647  11.623  0.2197  0.1875 -0.8755
  268MOL0     C36880   9.409   6.726  11.640 -0.6543 -0.1164 -0.5863
  268MOL0     C36881   9.456   6.794  11.531 -0.1066  0.0113 -0.0688
  268MOL0     O36882   9.581   6.861  11.544  0.2222 -0.1384  0.0860
  268MOL0     C36883   9.599   6.979  11.461 -0.1568  0.6334 -0.3851
  268MOL0     C36884   9.747   6.980  11.412  1.1557  0.1914 -0.1294
  268MOL0     C36885   9.835   6.973  11.537 -0.3565 -0.5507  0.5960
  268MOL0     C36886   9.957   7.072  11.520 -0.4305  0.3021 -0.5982
  268MOL0     C36887  10.039   7.094  11.642  0.3045 -0.3201  0.8847
  268MOL0     C36888  10.076   6.959  11.704 -0.6282 -0.0114 -0.3595
  268MOL0     C36889  10.194   6.971  11.797 -0.6933  0.4397 -0.4530
  268MOL0     C36890  10.242   6.833  11.828 -0.4135 -0.1482  0.4318
  268MOL0    Cl36891  10.372   6.847  11.955  0.0061  0.1459 -0.3791
  268MOL0     C36892   9.374   6.797  11.416 -0.3559  0.7421  0.9242
  268MOL0     C36893   9.252   6.730  11.407  0.8547 -0.4700 -0.7040
  268MOL0     O36894   9.208   6.366  11.536 -0.4045 -0.5270  0.0580
  268MOL0     C36895   8.860   6.436  11.510 -0.1965  0.4994  0.0790
  268MOL0     C36896   8.736   6.369  11.508  0.5257 -0.1266 -0.0497
  268MOL0     N36897   8.047   6.306  11.263 -0.6979 -0.3475 -0.9526
  268MOL0     N36898   7.928   6.254  11.266  0.1609 -0.1077  0.2311
  268MOL0     C36899   6.830   5.830  11.445 -0.2420 -0.6775  0.0221
  268MOL0     C36900   6.717   5.904  11.418  0.2344 -0.1121  0.1413
  268MOL0     C36901   6.402   6.171  11.309 -0.5626 -0.1419  0.0420
  268MOL0     C36902   6.309   6.115  11.221 -0.5320  0.4872 -0.4790
  268MOL0     C36903   6.177   6.152  11.226 -0.4061  0.5277  0.1484
  268MOL0     C36904   6.134   6.250  11.316  0.0782  0.2851 -0.7326
  268MOL0     O36905   5.996   6.275  11.308 -0.4071 -0.0110  0.7516
  268MOL0     C36906   5.940   6.350  11.423 -0.7055 -0.4418  0.1177
  268MOL0     C36907   5.803   6.406  11.390 -0.4001 -0.4803 -0.5043
  268MOL0     C36908   5.694   6.293  11.393 -0.2770  0.1314  0.7566
  268MOL0     C36909   5.558   6.356  11.380  0.4727  0.3941 -0.2968
  268MOL0     C36910   5.543   6.424  11.249 -0.1376  0.1069  0.3828
  268MOL0     C36911   5.517   6.483  11.146 -0.3235 -0.3698  0.0015
  268MOL0     C36912   6.236   6.323  11.392  0.0430  0.8807 -0.1653
  268MOL0     C36913   6.367   6.282  11.393  0.4100 -0.3098  0.3314
  268MOL0     C36914   6.465   6.352  11.487 -0.1007 -0.5285 -0.5637
  268MOL0     H36915   6.659   5.805  11.099 -1.2889  0.7854  0.6706
  268MOL0     H36916   6.841   5.672  11.132 -0.5535 -2.5325  0.8923
  268MOL0     H36917   7.036   5.569  11.192  2.6049  0.0074 -1.9818
  268MOL0     H36918   7.168   5.581  11.301 -0.4047 -1.5568 -4.1253
  268MOL0     H36919   7.165   5.695  11.078  0.0522  0.1447  0.1688
  268MOL0     H36920   7.076   5.830  11.148 -2.8929 -1.7486 -1.4026
  268MOL0     H36921   7.253   5.877  11.304 -0.3399  0.2842 -0.5090
  268MOL0     H36922   7.332   5.716  11.262 -3.5518 -1.9244 -0.8734
  268MOL0     H36923   7.411   5.823  11.048 -1.1682  0.5632 -1.3259
  268MOL0     H36924   7.306   5.966  11.092 -0.7399 -1.5344  0.2717
  268MOL0     H36925   7.528   5.887  11.285  1.5646  2.6966  1.3547
  268MOL0     H36926   7.410   6.016  11.278 -2.6458 -0.3810 -2.5251
  268MOL0     H36927   7.614   5.946  11.066 -1.7809 -1.8784  1.2950
  268MOL0     H36928   7.541   6.100  11.067 -2.1163  0.2836 -0.4371
  268MOL0     H36929   7.728   5.973  11.270 -0.0815  0.5294  1.2123
  268MOL0     H36930   7.682   6.144  11.276 -3.4562 -1.2413  0.6276
  268MOL0     H36931   7.848   5.999  11.061  0.2887  0.0895  1.3113
  268MOL0     H36932   7.790   6.156  11.032  2.4984 -1.1170 -2.3373
  268MOL0     H36933   8.103   6.031  11.096 -0.6341 -1.0809 -0.0439
  268MOL0     H36934   8.288   6.368  11.168  0.2778  0.5470  1.5611
  268MOL0     H36935   8.318   6.224  11.062  1.9309 -1.9810  0.3079
  268MOL0     H36936   8.339   6.098  11.311  1.0956 -0.4873 -0.7109
  268MOL0     H36937   8.472   6.151  11.219 -1.1394 -0.4207 -0.9393
  268MOL0     H36938   8.485   6.366  11.321  2.3869 -0.0137  1.0982
  268MOL0     H36939   8.340   6.330  11.421 -0.4046  2.2221 -3.8751
  268MOL0     H36940   8.510   6.290  11.562 -1.7414  1.6599 -0.6677
  268MOL0     H36941   8.440   6.130  11.526  0.9198  1.4722  3.2051
  268MOL0     H36942   8.857   6.062  11.424 -2.6763  0.7085 -1.4183
  268MOL0     H36943   9.171   6.157  11.357  2.7682 -0.5072  1.0193
  268MOL0     H36944   9.061   6.036  11.411 -2.0561  0.4798 -0.6573
  268MOL0     H36945   9.169   6.121  11.528  0.1862  1.3733 -1.0645
  268MOL0     H36946   9.271   6.594  11.716  0.3268 -0.1645 -1.0461
  268MOL0     H36947   9.472   6.731  11.728 -0.5528  2.2799 -0.7265
  268MOL0     H36948   9.532   6.982  11.375  0.8737  1.1159 -1.2066
  268MOL0     H36949   9.564   7.067  11.516  0.0654  0.8251 -0.5466
  268MOL0     H36950   9.757   6.892  11.347 -1.8027 -0.1013 -0.3521
  268MOL0     H36951   9.767   7.070  11.354 -1.3133  1.5914  1.0565
  268MOL0     H36952   9.862   6.868  11.555  0.2951 -0.3792  0.6483
  268MOL0     H36953   9.786   6.997  11.632 -0.0201 -1.5690  1.0434
  268MOL0     H36954   9.918   7.166  11.481 -1.8786 -0.4510 -1.0450
  268MOL0     H36955  10.013   7.026  11.437  1.9689  1.5166  0.2334
  268MOL0     H36956  10.130   7.143  11.606  0.0199 -1.5189 -1.6749
  268MOL0     H36957   9.989   7.165  11.708 -0.9031 -0.6340  0.3253
  268MOL0     H36958  10.101   6.882  11.631  0.0328 -0.8729  0.7358
  268MOL0     H36959   9.994   6.922  11.767 -0.8504  0.6965 -0.2261
  268MOL0     H36960  10.182   7.023  11.893  0.7675  0.5955 -0.3277
  268MOL0     H36961  10.277   7.026  11.752  0.6319  1.1334  2.5743
  268MOL0     H36962  10.285   6.802  11.732  1.0779  1.9725  0.3437
  268MOL0     H36963  10.158   6.768  11.854  1.4322 -1.6522  3.1416
  268MOL0     H36964   9.396   6.851  11.325 -2.6119  0.2516  0.0362
  268MOL0     H36965   9.185   6.734  11.322 -0.5320  1.6086  0.4051
  268MOL0     H36966   8.867   6.543  11.526 -2.5809  0.7964 -0.4896
  268MOL0     H36967   8.644   6.424  11.524  0.2711  0.1239 -2.0393
  268MOL0     H36968   6.879   5.831  11.542 -0.1451  4.5946  0.2264
  268MOL0     H36969   6.690   5.973  11.497  2.1893  0.1467  0.6352
  268MOL0     H36970   6.335   6.043  11.144 -0.4126  1.4555 -1.3632
  268MOL0     H36971   6.104   6.101  11.164 -1.1683 -0.5260  1.8249
  268MOL0     H36972   5.933   6.295  11.517 -0.8719  2.8798  2.1951
  268MOL0     H36973   6.012   6.425  11.455  1.2663 -1.8576 -0.7371
  268MOL0     H36974   5.792   6.457  11.294  1.9041  0.5625 -0.2652
  268MOL0     H36975   5.777   6.476  11.470 -1.6782 -2.3363  0.7784
  268MOL0     H36976   5.715   6.224  11.311  1.6693  2.6349 -1.0167
  268MOL0     H36977   5.701   6.238  11.487 -3.1465 -0.3468  0.7804
  268MOL0     H36978   5.529   6.418  11.465 -0.5465  0.6100 -0.7855
  268MOL0     H36979   5.486   6.275  11.394 -0.2786  1.4896  3.1317
  268MOL0     H36980   5.489   6.534  11.056  0.3176  0.2703  0.1633
  268MOL0     H36981   6.204   6.411  11.447 -0.7950  1.5612 -1.6677
  268MOL0     H36982   6.409   6.345  11.581  0.0205 -0.7385 -0.5084
  268MOL0     H36983   6.557   6.303  11.519 -0.1979  0.4215  1.2684
  268MOL0     H36984   6.480   6.457  11.461 -3.4301 -0.6973 -4.1569
  269MOL0     O36985   2.400   3.879   0.698 -0.5912  0.4005 -0.0419
  269MOL0     C36986   2.518   3.845   0.687  0.4979  0.8428 -0.5596
  269MOL0     O36987   2.604   3.807   0.786  0.5788 -0.3056 -0.5653
  269MOL0     C36988   2.568   3.802   0.915  0.9654  0.2291  0.6250
  269MOL0     C36989   2.659   3.845   1.007 -0.4124 -0.7211 -0.7417
  269MOL0     C36990   2.629   3.845   1.138 -0.2194  0.2589 -0.1920
  269MOL0     C36991   2.520   3.782   1.185 -0.1958 -0.2068 -0.1835
  269MOL0     O36992   2.480   3.755   1.312 -0.0648 -0.4988 -0.4015
  269MOL0     C36993   2.570   3.774   1.425 -0.8912 -0.6461  0.2366
  269MOL0     C36994   2.504   3.750   1.556  0.0141 -0.3128 -1.5342
  269MOL0     C36995   2.431   3.608   1.555  0.8517  0.4832  0.0370
  269MOL0     C36996   2.348   3.584   1.692 -0.9005  0.5384  0.6598
  269MOL0     C36997   2.275   3.449   1.703  0.2021  0.1548 -0.7072
  269MOL0     C36998   2.194   3.426   1.838  0.4324  0.6644  0.2740
  269MOL0     C36999   2.069   3.502   1.841  0.7490 -0.0847  0.8607
  269MOL0     C37000   1.971   3.429   1.941  0.1707 -0.2540  0.5714
  269MOL0     N37001   1.836   3.430   1.886  0.2475 -0.2654 -0.5124
  269MOL0     C37002   1.742   3.526   1.899  0.4127  0.0262 -0.3412
  269MOL0     C37003   1.633   3.481   1.832  0.4121  0.1760 -0.9484
  269MOL0     C37004   1.497   3.548   1.821  0.2494  0.2087 -0.8694
  269MOL0     C37005   1.515   3.691   1.755  0.1825  0.3128 -0.7048
  269MOL0     C37006   1.589   3.696   1.626 -0.0140  0.1776 -0.1122
  269MOL0     C37007   1.537   3.577   1.533 -0.1220  0.5521  0.6731
  269MOL0     O37008   1.595   3.599   1.401  0.4475 -0.0260  0.7280
  269MOL0     C37009   1.725   3.559   1.372  0.3151 -0.2997 -0.6214
  269MOL0     C37010   1.786   3.612   1.261 -0.4981  0.5835 -0.4613
  269MOL0     C37011   1.925   3.597   1.220 -0.1480 -0.6977 -0.6170
  269MOL0     C37012   1.985   3.681   1.120  0.3468 -0.0041 -0.4644
  269MOL0     C37013   1.998   3.494   1.285  0.0123  0.3574 -0.1180
  269MOL0     C37014   2.145   3.455   1.266  0.2740  0.8463  0.8928
  269MOL0     O37015   2.215   3.405   1.366 -0.6286 -0.0858  0.1663
  269MOL0     C37016   2.330   3.339   1.349  0.0992 -0.3368 -0.0242
  269MOL0     C37017   2.331   3.207   1.403 -0.0565 -0.6590 -0.5893
  269MOL0     C37018   2.434   3.124   1.381 -0.3419 -0.2891 -0.3747
  269MOL0     C37019   2.554   3.176   1.332 -0.5019 -0.6773  0.0091
  269MOL0     O37020   2.668   3.104   1.322 -0.4596  0.2229  0.1470
  269MOL0     C37021   2.653   2.972   1.275  0.7869 -0.0817 -0.5272
  269MOL0     C37022   2.765   2.928   1.165 -0.6104  0.4551  0.0204
  269MOL0     C37023   2.780   3.033   1.058 -0.7504 -0.6853 -0.0188
  269MOL0     C37024   2.862   2.983   0.936  0.3330  0.7294  0.3083
  269MOL0     C37025   2.814   2.865   0.849  0.2181  0.1031 -0.3410
  269MOL0     C37026   2.659   2.871   0.844 -0.1667  0.2634 -0.2583
  269MOL0     C37027   2.605   2.792   0.727 -0.6345 -0.1457  0.2804
  269MOL0     C37028   2.590   2.645   0.743 -0.6333 -0.3226 -0.7722
  269MOL0    Cl37029   2.745   2.554   0.777  0.1507  0.4443  0.0885
  269MOL0     C37030   2.562   3.315   1.287  0.1001 -0.8423  0.6630
  269MOL0     C37031   2.444   3.391   1.290  0.2700  0.5184 -1.1134
  269MOL0     O37032   2.186   3.468   1.150  0.3684 -0.7555 -0.7374
  269MOL0     C37033   1.934   3.435   1.397 -0.3338  0.3316 -0.6882
  269MOL0     C37034   1.799   3.464   1.441 -0.9579  0.4557 -0.2308
  269MOL0     N37035   1.673   3.352   1.785  1.1678 -0.2570  0.3183
  269MOL0     N37036   1.792   3.332   1.810 -0.1362  0.7843 -1.1052
  269MOL0     C37037   2.419   3.747   1.100  0.4157 -0.4282 -0.5035
  269MOL0     C37038   2.447   3.752   0.964  0.0859  0.8479 -0.9575
  269MOL0     C37039   2.570   3.842   0.550 -0.8981 -0.4161 -0.3407
  269MOL0     C37040   2.521   3.950   0.466 -0.0738 -0.2094 -0.6357
  269MOL0     C37041   2.571   3.965   0.336  0.1167 -0.0655 -0.9494
  269MOL0     C37042   2.663   3.873   0.284  0.0856  0.0251 -0.1061
  269MOL0     O37043   2.708   3.877   0.157  0.2144  0.0397 -0.7355
  269MOL0     C37044   2.699   3.998   0.072  0.5953 -0.7701  0.0540
  269MOL0     C37045   2.814   3.988  -0.015 -0.2662  0.3725  0.3911
  269MOL0     C37046   2.810   4.099  -0.125 -0.7072  0.3614 -0.2927
  269MOL0     C37047   2.944   4.085  -0.208  0.0029  0.0799 -0.0915
  269MOL0     C37048   3.054   4.130  -0.122  0.3421 -0.2531  0.4809
  269MOL0     C37049   3.156   4.170  -0.077  0.1282 -0.7492  0.0877
  269MOL0     C37050   2.697   3.758   0.367  0.4708 -0.1951  0.0128
  269MOL0     C37051   2.653   3.747   0.503  0.4853  0.0163  1.2178
  269MOL0     C37052   2.672   3.612   0.567 -0.0859 -0.1674 -0.2258
  269MOL0     H37053   2.748   3.894   0.967 -1.2233 -0.1076 -1.8209
  269MOL0     H37054   2.702   3.884   1.209 -1.0349  1.2775  0.1218
  269MOL0     H37055   2.608   3.876   1.419 -0.0312 -1.0093 -0.9038
  269MOL0     H37056   2.649   3.699   1.416  0.5333  0.8716 -0.2492
  269MOL0     H37057   2.578   3.749   1.636 -0.9789 -1.2124 -0.5977
  269MOL0     H37058   2.431   3.827   1.580 -0.1294 -0.9608  0.2589
  269MOL0     H37059   2.359   3.591   1.473  0.9520  1.8187 -0.3584
  269MOL0     H37060   2.506   3.529   1.546 -0.8499 -1.3787  1.4237
  269MOL0     H37061   2.422   3.581   1.773 -2.0296 -2.1706  1.6923
  269MOL0     H37062   2.271   3.662   1.701  0.5959  1.9209  2.4050
  269MOL0     H37063   2.358   3.379   1.692 -1.2298 -1.8073  0.4076
  269MOL0     H37064   2.204   3.444   1.620 -0.3745 -0.1415 -0.2063
  269MOL0     H37065   2.188   3.316   1.838 -0.4753  0.7045 -0.2390
  269MOL0     H37066   2.253   3.451   1.928 -0.8807  0.3812  1.2402
  269MOL0     H37067   2.021   3.509   1.743 -0.0430 -0.7795  1.1770
  269MOL0     H37068   2.102   3.600   1.877  2.8049 -0.3611 -0.1511
  269MOL0     H37069   2.000   3.324   1.943 -0.0783 -0.4006 -1.3478
  269MOL0     H37070   1.973   3.477   2.039  0.9841  0.1849  0.3511
  269MOL0     H37071   1.751   3.627   1.937 -1.8995  0.4948 -0.8982
  269MOL0     H37072   1.431   3.550   1.908  1.2514  1.3043 -0.0921
  269MOL0     H37073   1.434   3.486   1.757  0.6036 -1.2444  0.1349
  269MOL0     H37074   1.414   3.731   1.746 -0.1605 -0.2361  0.4513
  269MOL0     H37075   1.574   3.750   1.827 -2.2617 -0.6775  2.3274
  269MOL0     H37076   1.578   3.798   1.587  1.8126 -0.2397 -1.8694
  269MOL0     H37077   1.696   3.685   1.646 -0.2940 -1.6507  0.5542
  269MOL0     H37078   1.567   3.480   1.573  0.6271  0.4347 -0.1404
  269MOL0     H37079   1.429   3.568   1.522  0.1792 -0.6314 -2.2193
  269MOL0     H37080   1.731   3.692   1.211 -3.4336 -1.8223 -1.3776
  269MOL0     H37081   1.969   3.649   1.017 -0.9789  0.2483 -0.3541
  269MOL0     H37082   2.094   3.686   1.127  0.2287  1.1886  1.1461
  269MOL0     H37083   1.940   3.779   1.141 -2.1566 -1.7732  3.6366
  269MOL0     H37084   2.241   3.167   1.447 -0.7532 -0.2515 -1.6177
  269MOL0     H37085   2.405   3.022   1.400 -0.7381 -0.5836 -2.2940
  269MOL0     H37086   2.655   2.895   1.352  1.1309  0.2042 -0.2462
  269MOL0     H37087   2.562   2.966   1.215  1.3577  1.3269 -1.6027
  269MOL0     H37088   2.859   2.910   1.219 -1.6095 -1.0817  1.3303
  269MOL0     H37089   2.746   2.832   1.117  1.7328 -0.2948  0.4590
  269MOL0     H37090   2.842   3.111   1.103  2.1653 -0.5582 -3.7971
  269MOL0     H37091   2.681   3.066   1.027 -0.5851 -0.3515 -0.1903
  269MOL0     H37092   2.964   2.964   0.971  0.6318  3.1873  0.9924
  269MOL0     H37093   2.865   3.068   0.867  0.9749 -1.8401 -3.0319
  269MOL0     H37094   2.858   2.862   0.749 -2.9413 -2.4729 -1.8146
  269MOL0     H37095   2.835   2.774   0.906 -1.5088 -0.2270 -0.1792
  269MOL0     H37096   2.633   2.977   0.842 -2.7830 -0.1606  2.7777
  269MOL0     H37097   2.612   2.837   0.937 -2.4705  0.1089 -1.4046
  269MOL0     H37098   2.656   2.820   0.635 -0.9584  0.8754  0.3998
  269MOL0     H37099   2.500   2.820   0.711 -2.3722 -3.9332  3.4311
  269MOL0     H37100   2.541   2.603   0.655 -2.6970  1.3674 -0.5219
  269MOL0     H37101   2.526   2.628   0.830 -0.1897  0.4284 -0.2842
  269MOL0     H37102   2.644   3.376   1.253 -2.0083  1.1311 -1.1726
  269MOL0     H37103   2.440   3.498   1.273 -1.1443  0.5267 -0.8883
  269MOL0     H37104   1.992   3.355   1.442  0.8623 -0.0414 -2.7603
  269MOL0     H37105   1.753   3.401   1.516  0.0525  0.1429  0.1441
  269MOL0     H37106   2.327   3.706   1.140 -1.0162  1.5830 -1.5492
  269MOL0     H37107   2.377   3.700   0.899  0.3250  0.4272 -0.8794
  269MOL0     H37108   2.462   4.034   0.504  0.3391 -0.2341  0.0913
  269MOL0     H37109   2.532   4.047   0.277 -1.2421  1.0334  1.3077
  269MOL0     H37110   2.603   3.989   0.020  1.2127 -1.8637 -0.9434
  269MOL0     H37111   2.694   4.089   0.133 -1.6415  0.5938 -2.0133
  269MOL0     H37112   2.811   3.893  -0.069  0.1360  0.7710 -0.3594
  269MOL0     H37113   2.910   3.991   0.038 -0.6727 -1.3826  1.2999
  269MOL0     H37114   2.728   4.079  -0.194  0.1127 -2.3566 -0.6030
  269MOL0     H37115   2.809   4.197  -0.076  2.1411  0.2360  0.2174
  269MOL0     H37116   2.939   4.148  -0.298 -1.2983 -0.0738 -0.1437
  269MOL0     H37117   2.975   3.985  -0.240  2.0523  0.1770  1.3749
  269MOL0     H37118   3.256   4.182  -0.039  1.0110 -1.8861 -1.7227
  269MOL0     H37119   2.770   3.689   0.327  1.0941  0.0962  0.6166
  269MOL0     H37120   2.601   3.592   0.648  1.4540  2.1089  1.8501
  269MOL0     H37121   2.671   3.528   0.497  1.6996 -0.8184  0.4779
  269MOL0     H37122   2.766   3.606   0.623  0.0310 -1.1374 -0.5074
  270MOL0     O37123   8.446   9.635   2.026  0.3157  0.3220 -0.9677
  270MOL0     C37124   8.336   9.636   2.086  0.0447  0.1882 -0.3355
  270MOL0     O37125   8.255   9.539   2.108  0.1647  0.9621 -0.2506
  270MOL0     C37126   8.308   9.409   2.089  0.7256 -0.7528  0.7416
  270MOL0     C37127   8.278   9.346   1.965 -0.0784 -0.1194 -0.5766
  270MOL0     C37128   8.341   9.223   1.947  0.6884  0.5068 -0.1681
  270MOL0     C37129   8.412   9.158   2.039  0.0042  0.6936 -0.6371
  270MOL0     O37130   8.442   9.026   2.005  0.2240  0.5863 -0.6886
  270MOL0     C37131   8.340   8.926   1.982 -0.7003  0.7108 -0.4840
  270MOL0     C37132   8.410   8.801   1.931  0.3160  0.3787 -0.4639
  270MOL0     C37133   8.313   8.713   1.841 -0.6531 -0.1491 -0.1826
  270MOL0     C37134   8.200   8.651   1.923 -0.3601 -0.4476  0.2967
  270MOL0     C37135   8.223   8.510   1.970 -0.5079  0.1099 -1.0322
  270MOL0     C37136   8.133   8.453   2.079  0.2096  1.1670  0.4796
  270MOL0     C37137   7.986   8.468   2.055  0.2917  1.5204 -0.1953
  270MOL0     C37138   7.934   8.406   1.922  0.5755  0.7533 -0.4464
  270MOL0     N37139   7.984   8.261   1.917  0.0087 -0.0088  0.5109
  270MOL0     C37140   8.064   8.207   1.824 -0.1972 -0.2778  0.0854
  270MOL0     C37141   8.109   8.090   1.857 -0.5452 -0.1547  0.0916
  270MOL0     C37142   8.191   7.977   1.806 -0.0266 -0.4095  0.2441
  270MOL0     C37143   8.320   7.934   1.888 -0.1597  0.1497  0.5435
  270MOL0     C37144   8.364   7.793   1.851  0.4547 -0.0512  0.4421
  270MOL0     C37145   8.498   7.743   1.926 -0.0690  0.6518 -0.1631
  270MOL0     O37146   8.610   7.821   1.881 -0.6933 -0.3664  0.6996
  270MOL0     C37147   8.734   7.786   1.918  0.0073  1.3195  0.5240
  270MOL0     C37148   8.841   7.794   1.827  0.4830  0.0493 -1.5202
  270MOL0     C37149   8.974   7.751   1.865  0.2551  0.3142  0.3502
  270MOL0     C37150   9.087   7.769   1.767  0.5193  0.5223 -0.2648
  270MOL0     C37151   8.999   7.711   1.998 -0.0437 -0.7792  0.3807
  270MOL0     C37152   9.130   7.677   2.067 -0.6496  0.5316 -0.3129
  270MOL0     O37153   9.126   7.635   2.196 -0.4072 -0.0181  0.3257
  270MOL0     C37154   9.256   7.620   2.253  0.2929  0.3611  0.0869
  270MOL0     C37155   9.316   7.502   2.263  0.2956  0.2375  0.1967
  270MOL0     C37156   9.437   7.492   2.326  0.5682  0.0414 -0.7512
  270MOL0     C37157   9.494   7.611   2.388 -0.3663  0.2833 -0.2240
  270MOL0     O37158   9.605   7.605   2.462  0.2725 -0.2749  0.3964
  270MOL0     C37159   9.582   7.544   2.585 -0.1717  0.0185  0.1910
  270MOL0     C37160   9.711   7.489   2.647 -0.4009 -0.5723 -0.4361
  270MOL0     C37161   9.793   7.407   2.550 -0.1528 -0.2804  0.5309
  270MOL0     C37162   9.926   7.358   2.606  0.1711  0.0131 -0.9848
  270MOL0     C37163   9.912   7.268   2.733  0.5890  0.2240 -0.0477
  270MOL0     C37164  10.050   7.219   2.783  0.9333 -0.8428  0.6944
  270MOL0     C37165  10.023   7.112   2.890 -0.0471 -0.4104  0.6811
  270MOL0     C37166  10.147   7.080   2.969  0.6618 -0.4319  0.1504
  270MOL0    Cl37167  10.095   6.946   3.082 -0.2822  0.1770  0.0070
  270MOL0     C37168   9.436   7.733   2.366 -0.0613 -0.2950 -0.3609
  270MOL0     C37169   9.318   7.741   2.296 -0.3660  0.7560  0.1368
  270MOL0     O37170   9.229   7.665   1.988  0.6976 -0.2253  0.4268
  270MOL0     C37171   8.890   7.694   2.084 -0.2764 -1.0069 -0.8437
  270MOL0     C37172   8.762   7.728   2.037 -0.1228  1.0336 -0.3183
  270MOL0     N37173   8.054   8.074   1.986 -0.7328  0.8076  0.4683
  270MOL0     N37174   7.978   8.171   2.017 -0.0600 -0.6978  0.7647
  270MOL0     C37175   8.431   9.211   2.163 -0.8430 -0.1132 -0.2731
  270MOL0     C37176   8.377   9.341   2.191 -0.6424  0.1726 -0.1334
  270MOL0     C37177   8.295   9.763   2.146 -0.7126  0.5314  0.3448
  270MOL0     C37178   8.170   9.805   2.126  0.1087  0.5798 -0.5579
  270MOL0     C37179   8.125   9.924   2.169 -0.1661 -0.3555  0.2918
  270MOL0     C37180   8.201  10.015   2.237 -0.6404  0.2694  1.1715
  270MOL0     O37181   8.156  10.130   2.290 -0.7928 -0.1113  0.2384
  270MOL0     C37182   8.022  10.171   2.279 -0.0923 -0.0400 -0.4108
  270MOL0     C37183   7.999  10.288   2.378 -0.3610 -0.0371 -0.6875
  270MOL0     C37184   8.040  10.424   2.327 -0.4209 -0.6582 -0.1606
  270MOL0     C37185   8.191  10.450   2.339 -0.3196  0.1430  0.4680
  270MOL0     C37186   8.227  10.567   2.263 -0.5194 -0.8055  0.3240
  270MOL0     C37187   8.261  10.672   2.209  0.7275  0.6061 -0.5977
  270MOL0     C37188   8.340   9.972   2.255 -0.2733 -0.2169 -1.1232
  270MOL0     C37189   8.388   9.852   2.208 -0.6618 -0.2465 -1.6279
  270MOL0     C37190   8.528   9.824   2.243 -0.5838  0.6147  0.4561
  270MOL0     H37191   8.223   9.394   1.884  1.3775  1.0548 -0.9177
  270MOL0     H37192   8.327   9.169   1.853 -1.2283  0.5296  0.0719
  270MOL0     H37193   8.257   8.960   1.919 -0.2825 -0.0657 -1.4734
  270MOL0     H37194   8.306   8.898   2.082  2.8709 -0.8505  0.4579
  270MOL0     H37195   8.500   8.837   1.879  0.4355  4.4764  2.1672
  270MOL0     H37196   8.442   8.740   2.016  2.6104  4.4878  1.9047
  270MOL0     H37197   8.264   8.778   1.767 -2.8577 -1.0635  0.4077
  270MOL0     H37198   8.368   8.642   1.778  0.8448  0.9893 -0.2412
  270MOL0     H37199   8.165   8.720   2.000  2.8528  1.7729 -0.0500
  270MOL0     H37200   8.111   8.646   1.860 -0.6045 -0.3919  0.6321
  270MOL0     H37201   8.323   8.499   2.013 -1.2824  0.0274  0.8060
  270MOL0     H37202   8.222   8.443   1.883 -3.2265  1.7182 -2.3778
  270MOL0     H37203   8.157   8.347   2.093  0.0615  0.8867 -1.1933
  270MOL0     H37204   8.144   8.497   2.178  2.0947  1.8913 -0.0173
  270MOL0     H37205   7.950   8.571   2.049  0.2726  1.4467 -1.7433
  270MOL0     H37206   7.941   8.414   2.139  2.3436  3.9704  2.7065
  270MOL0     H37207   7.825   8.413   1.914  0.4330 -1.7222 -1.3768
  270MOL0     H37208   7.977   8.467   1.843  1.2035  1.2914  0.2910
  270MOL0     H37209   8.081   8.251   1.726  0.3258 -2.8517 -1.0675
  270MOL0     H37210   8.217   8.008   1.704 -1.2557 -0.6412 -0.1618
  270MOL0     H37211   8.128   7.888   1.800  0.7561 -0.8707 -2.2503
  270MOL0     H37212   8.398   8.002   1.853  0.6482 -1.1989 -0.3602
  270MOL0     H37213   8.297   7.938   1.995 -1.1332  1.8333  0.3077
  270MOL0     H37214   8.298   7.714   1.887  0.3937 -0.2904 -0.1856
  270MOL0     H37215   8.388   7.784   1.745 -0.6199 -1.3564  0.2879
  270MOL0     H37216   8.489   7.764   2.033  1.5852  0.0516  0.1161
  270MOL0     H37217   8.507   7.638   1.899 -1.2423  0.6797 -0.7377
  270MOL0     H37218   8.824   7.829   1.726 -0.2862 -1.4398 -1.9424
  270MOL0     H37219   9.155   7.845   1.805  0.4465  0.6755 -0.4405
  270MOL0     H37220   9.053   7.817   1.676 -0.0123 -1.4404 -1.1604
  270MOL0     H37221   9.144   7.678   1.745 -1.1120 -0.6147 -0.0179
  270MOL0     H37222   9.268   7.410   2.232 -2.3167  1.5029  0.2347
  270MOL0     H37223   9.491   7.399   2.339 -1.0708 -1.0667 -1.5802
  270MOL0     H37224   9.530   7.616   2.650 -3.1755  0.2271 -2.1850
  270MOL0     H37225   9.513   7.460   2.575  0.6710 -0.7999  1.1084
  270MOL0     H37226   9.773   7.571   2.686  3.6909 -4.1601  1.4944
  270MOL0     H37227   9.682   7.417   2.725 -0.4678 -1.7830 -1.5561
  270MOL0     H37228   9.811   7.468   2.461  0.0823  0.6230  1.1784
  270MOL0     H37229   9.740   7.323   2.503 -0.6078  1.0809 -1.5345
  270MOL0     H37230   9.991   7.442   2.635  0.9047 -1.7114  2.9767
  270MOL0     H37231   9.977   7.306   2.524 -0.9233 -0.6549 -1.2580
  270MOL0     H37232   9.870   7.314   2.822  2.1272 -2.1231  2.0369
  270MOL0     H37233   9.839   7.191   2.709  1.1382 -0.5242  0.5970
  270MOL0     H37234  10.101   7.310   2.816 -0.9461 -0.0264  1.4988
  270MOL0     H37235  10.095   7.172   2.696 -0.0935  0.0801 -0.3598
  270MOL0     H37236   9.981   7.021   2.847  1.7147 -1.0479  0.2544
  270MOL0     H37237   9.953   7.142   2.969  0.2967 -1.4166  1.3758
  270MOL0     H37238  10.167   7.166   3.033 -0.7435  1.8701 -2.3153
  270MOL0     H37239  10.237   7.053   2.912  1.7106  0.8027  1.1639
  270MOL0     H37240   9.487   7.822   2.401 -2.0203 -0.3379  3.0640
  270MOL0     H37241   9.286   7.840   2.266  0.8937  1.1531  0.0510
  270MOL0     H37242   8.905   7.634   2.173  1.5943 -2.1118 -1.8356
  270MOL0     H37243   8.679   7.718   2.107 -0.2565 -0.8345 -0.7057
  270MOL0     H37244   8.464   9.159   2.252  1.9267  2.8490  0.6693
  270MOL0     H37245   8.397   9.387   2.287 -1.4781 -0.5636  0.4067
  270MOL0     H37246   8.112   9.731   2.071  0.3182 -0.5701  0.7368
  270MOL0     H37247   8.024   9.959   2.149 -0.4739 -0.0605  2.1632
  270MOL0     H37248   8.001  10.212   2.180  0.0028  0.8391 -0.0697
  270MOL0     H37249   7.953  10.087   2.296  0.9495 -0.9451 -0.5260
  270MOL0     H37250   8.058  10.269   2.468 -1.1939  1.4418  0.1988
  270MOL0     H37251   7.893  10.295   2.402  0.0450 -0.1589  1.2746
  270MOL0     H37252   8.015  10.440   2.222  1.3093 -1.1346 -0.6772
  270MOL0     H37253   7.976  10.490   2.387  3.2259  0.4904  2.8859
  270MOL0     H37254   8.248  10.364   2.302 -2.8953 -0.6485 -2.0347
  270MOL0     H37255   8.200  10.470   2.446 -0.2405  0.0147  0.4851
  270MOL0     H37256   8.283  10.769   2.167 -0.9287  1.5548  0.6018
  270MOL0     H37257   8.398  10.036   2.321 -0.2856 -0.7801 -0.5590
  270MOL0     H37258   8.590   9.841   2.154  1.5448 -0.2613  1.7044
  270MOL0     H37259   8.576   9.886   2.319 -1.0617  1.1308  0.3497
  270MOL0     H37260   8.529   9.720   2.275 -2.1602  0.8154  1.2586
  271MOL0     O37261   1.128   3.226   0.007  0.3692 -0.4335  0.1754
  271MOL0     C37262   1.070   3.326   0.036  0.6421  0.2981 -1.2177
  271MOL0     O37263   1.002   3.339   0.156  0.2165 -0.0984 -0.1229
  271MOL0     C37264   1.025   3.258   0.264  0.3961  0.8249  0.4544
  271MOL0     C37265   1.147   3.192   0.290  0.7370  0.3404 -0.1294
  271MOL0     C37266   1.159   3.109   0.399  0.8510  0.8067 -0.5883
  271MOL0     C37267   1.049   3.094   0.493 -1.0182  0.6497  0.6994
  271MOL0     O37268   1.053   3.013   0.606 -0.5442  0.0138  0.0183
  271MOL0     C37269   1.110   2.884   0.589 -0.5754 -0.3776 -0.6652
  271MOL0     C37270   1.162   2.830   0.722  0.3327 -0.7936 -0.2501
  271MOL0     C37271   1.052   2.804   0.822 -0.4434  0.1713  0.1517
  271MOL0     C37272   1.107   2.723   0.929 -0.2562  0.9500 -0.7760
  271MOL0     C37273   1.007   2.696   1.044 -0.9829  0.5866 -0.3080
  271MOL0     C37274   1.090   2.635   1.161  0.0320  0.0435  0.7402
  271MOL0     C37275   1.010   2.620   1.282 -0.5919  0.0068  0.2860
  271MOL0     C37276   0.991   2.752   1.365 -0.1282 -0.2844 -0.3514
  271MOL0     N37277   1.128   2.799   1.411  0.1508 -0.1812 -0.0238
  271MOL0     C37278   1.229   2.733   1.483  0.3765  0.0906  0.8946
  271MOL0     C37279   1.326   2.828   1.507  0.2665 -0.2783 -0.1587
  271MOL0     C37280   1.456   2.812   1.582  0.1516  0.1172  0.6719
  271MOL0     C37281   1.464   2.923   1.693 -1.0586 -0.0266  0.5849
  271MOL0     C37282   1.567   2.890   1.801 -0.3098  0.4924  0.0430
  271MOL0     C37283   1.591   2.988   1.903 -0.1719  0.5715  0.5352
  271MOL0     O37284   1.673   2.940   2.011  0.3965 -0.5591  0.4505
  271MOL0     C37285   1.812   2.952   2.018 -0.2788 -0.2396  0.4837
  271MOL0     C37286   1.879   2.896   2.130 -0.0269 -0.6714  0.0533
  271MOL0     C37287   2.024   2.900   2.144  0.0386 -0.2777  0.2101
  271MOL0     C37288   2.089   2.822   2.245  0.4386 -0.5338 -0.6858
  271MOL0     C37289   2.101   2.973   2.047  0.4249  0.7646  0.0120
  271MOL0     C37290   2.247   2.988   2.049 -0.2646  0.6289  0.9209
  271MOL0     O37291   2.300   3.044   1.932 -0.6191 -0.6706 -0.1635
  271MOL0     C37292   2.437   3.046   1.903  0.3848  0.8333 -0.0341
  271MOL0     C37293   2.546   2.988   1.970  0.2284 -0.2421 -0.9707
  271MOL0     C37294   2.674   3.016   1.918  0.5078  0.3337 -0.3179
  271MOL0     C37295   2.701   3.077   1.795  0.3563  0.4530 -0.5317
  271MOL0     O37296   2.826   3.097   1.733  0.1658 -0.0321 -0.5175
  271MOL0     C37297   2.938   3.098   1.817  0.6357 -0.9465 -0.0623
  271MOL0     C37298   3.049   3.133   1.714 -0.0678 -0.0877 -1.1583
  271MOL0     C37299   3.096   3.008   1.637 -0.5096 -0.1037 -1.0050
  271MOL0     C37300   3.207   3.041   1.536  0.9493 -0.1987  0.2979
  271MOL0     C37301   3.228   2.926   1.440 -0.3895 -0.3701 -0.1711
  271MOL0     C37302   3.142   2.932   1.317 -0.0839 -0.6973 -0.1264
  271MOL0     C37303   3.143   2.795   1.245 -0.0978  0.8326 -0.1652
  271MOL0     C37304   3.105   2.670   1.329  0.7439 -0.1754  0.7565
  271MOL0    Cl37305   2.946   2.719   1.411 -0.1581 -0.3103 -0.1069
  271MOL0     C37306   2.587   3.128   1.729  0.2627 -0.1216  0.3044
  271MOL0     C37307   2.455   3.116   1.781 -0.4127 -0.9430 -0.2848
  271MOL0     O37308   2.309   2.972   2.151 -0.3492  1.0173  0.3038
  271MOL0     C37309   2.028   3.032   1.937 -0.1703  1.0494  0.1787
  271MOL0     C37310   1.893   3.021   1.930 -0.9747 -0.1519 -1.0801
  271MOL0     N37311   1.291   2.942   1.435 -1.0710  0.4387  0.6051
  271MOL0     N37312   1.171   2.920   1.387  0.2498 -0.6449 -0.6572
  271MOL0     C37313   0.930   3.157   0.460 -0.1046 -0.2453  0.7878
  271MOL0     C37314   0.916   3.235   0.348  0.2205  0.5320  0.4182
  271MOL0     C37315   1.061   3.435  -0.055 -0.0842 -0.6649 -0.8310
  271MOL0     C37316   0.960   3.533  -0.036  0.4441  0.1998  0.8397
  271MOL0     C37317   0.942   3.642  -0.124 -0.0586  0.7923 -0.2303
  271MOL0     C37318   1.028   3.652  -0.238  0.4516 -0.1516 -0.6325
  271MOL0     O37319   1.035   3.741  -0.335  0.3791 -0.6349  0.1847
  271MOL0     C37320   0.947   3.854  -0.339  0.0445 -0.2991  0.0026
  271MOL0     C37321   1.005   3.960  -0.436 -0.2758 -0.3469 -0.0751
  271MOL0     C37322   0.945   3.952  -0.587 -0.5239 -0.1220  0.1641
  271MOL0     C37323   0.966   3.809  -0.644 -0.1414 -0.5914 -0.2441
  271MOL0     C37324   0.908   3.804  -0.780  0.8678 -0.0608 -0.4006
  271MOL0     C37325   0.857   3.820  -0.884 -0.4398  0.3282  0.9846
  271MOL0     C37326   1.127   3.556  -0.250  0.3515  0.1394 -0.1886
  271MOL0     C37327   1.146   3.442  -0.168  0.3794 -0.3919  0.0822
  271MOL0     C37328   1.254   3.344  -0.208  0.2695  0.5283 -0.6079
  271MOL0     H37329   1.242   3.202   0.238  0.4118  0.2397 -0.7481
  271MOL0     H37330   1.256   3.067   0.424 -0.4812 -2.2048 -0.0368
  271MOL0     H37331   1.191   2.892   0.516 -0.0056 -0.5152 -0.0570
  271MOL0     H37332   1.045   2.801   0.558  2.8639 -3.7360  0.4126
  271MOL0     H37333   1.212   2.740   0.686 -1.8516 -1.5965 -1.4871
  271MOL0     H37334   1.232   2.893   0.777  0.7294 -1.8252  0.4662
  271MOL0     H37335   1.008   2.900   0.851  0.7962  1.1265 -1.0601
  271MOL0     H37336   0.974   2.745   0.772 -1.7193  1.8105  0.0925
  271MOL0     H37337   1.155   2.635   0.886 -2.1093  0.0170 -1.0528
  271MOL0     H37338   1.196   2.774   0.969  0.1046  0.0521 -0.4140
  271MOL0     H37339   0.922   2.635   1.011  0.7072 -2.0077 -0.2177
  271MOL0     H37340   0.968   2.787   1.089  0.3115  0.6386  0.7675
  271MOL0     H37341   1.134   2.543   1.123 -0.7164  0.7148 -1.9207
  271MOL0     H37342   1.176   2.699   1.184  0.3811  0.5919 -1.8075
  271MOL0     H37343   1.050   2.544   1.350  2.4442  1.6888  0.5369
  271MOL0     H37344   0.914   2.580   1.246  0.5534 -1.3627 -1.4089
  271MOL0     H37345   0.950   2.825   1.294 -2.0174 -1.0612 -0.1187
  271MOL0     H37346   0.928   2.736   1.454  1.4064  0.4816  0.9178
  271MOL0     H37347   1.229   2.631   1.519 -3.4691 -0.0302  0.9134
  271MOL0     H37348   1.541   2.820   1.514  0.9026 -2.2913  1.2222
  271MOL0     H37349   1.450   2.712   1.628 -1.8293 -0.7697 -1.2971
  271MOL0     H37350   1.505   3.011   1.642 -1.1543 -2.0831 -3.4381
  271MOL0     H37351   1.365   2.942   1.735 -1.7483 -2.7403  0.3593
  271MOL0     H37352   1.523   2.808   1.860  1.0745 -0.0921  0.3113
  271MOL0     H37353   1.660   2.852   1.756 -1.2829 -1.4886 -0.4214
  271MOL0     H37354   1.624   3.082   1.858 -1.1961  1.1944  1.0485
  271MOL0     H37355   1.494   3.015   1.944 -0.5029  1.7319 -0.9151
  271MOL0     H37356   1.814   2.848   2.202 -1.3313  0.6879 -0.1628
  271MOL0     H37357   2.017   2.775   2.313  0.3298 -1.7926 -1.6251
  271MOL0     H37358   2.145   2.888   2.312  0.4369 -0.5156 -0.7028
  271MOL0     H37359   2.138   2.735   2.200 -0.8865 -0.4272 -2.4276
  271MOL0     H37360   2.538   2.925   2.058  0.9368 -1.3475 -1.6612
  271MOL0     H37361   2.767   2.975   1.956  0.8654  2.1433  0.8664
  271MOL0     H37362   2.945   3.176   1.893  1.1608  1.2563 -2.2392
  271MOL0     H37363   2.952   3.003   1.870 -3.1194  0.1149  3.2908
  271MOL0     H37364   3.013   3.199   1.634 -1.6982  0.0091 -0.3662
  271MOL0     H37365   3.129   3.186   1.767 -1.2134  0.5094  0.0289
  271MOL0     H37366   3.008   2.967   1.587 -0.2749 -2.3466  0.3079
  271MOL0     H37367   3.139   2.937   1.708  0.8014  2.0137  0.4133
  271MOL0     H37368   3.302   3.069   1.582  0.6593  0.7165  0.3466
  271MOL0     H37369   3.184   3.135   1.485  2.3338  0.0890  0.1610
  271MOL0     H37370   3.333   2.949   1.422 -0.3712  2.0613  2.4261
  271MOL0     H37371   3.226   2.828   1.489  4.0524 -2.0898 -2.8460
  271MOL0     H37372   3.174   3.019   1.260  3.1954 -1.1344  0.8484
  271MOL0     H37373   3.038   2.943   1.348  0.3501 -0.3182  1.2863
  271MOL0     H37374   3.243   2.781   1.203  0.9900  1.6016  2.0138
  271MOL0     H37375   3.074   2.807   1.161 -2.4488  2.4511  1.8694
  271MOL0     H37376   3.182   2.651   1.404  0.0489  0.1396  1.5805
  271MOL0     H37377   3.102   2.571   1.284 -1.6232 -0.5861  1.6898
  271MOL0     H37378   2.586   3.178   1.632 -1.8439 -1.0409 -0.1974
  271MOL0     H37379   2.365   3.159   1.738  0.3899 -0.5330 -1.5946
  271MOL0     H37380   2.082   3.089   1.862 -2.2784 -1.1266 -3.2397
  271MOL0     H37381   1.839   3.086   1.862 -0.0160  1.8080 -0.0568
  271MOL0     H37382   0.847   3.144   0.529 -0.9960 -1.9004 -0.5143
  271MOL0     H37383   0.831   3.300   0.330  2.8672  4.8791  1.9383
  271MOL0     H37384   0.894   3.523   0.050 -0.5315  1.4187  0.2620
  271MOL0     H37385   0.865   3.717  -0.111 -1.7958 -1.1842  1.8214
  271MOL0     H37386   0.848   3.830  -0.379  0.3124  0.9851 -1.5166
  271MOL0     H37387   0.934   3.899  -0.240 -1.4266  1.7485 -1.0339
  271MOL0     H37388   1.114   3.950  -0.439 -0.0238  2.0103 -2.1224
  271MOL0     H37389   0.978   4.059  -0.398  0.9045 -0.8587  2.2916
  271MOL0     H37390   0.837   3.969  -0.595 -0.6272  0.0223  1.6531
  271MOL0     H37391   0.992   4.029  -0.649 -0.0911 -0.9377 -0.5464
  271MOL0     H37392   0.918   3.728  -0.588 -1.2535 -1.2059 -2.0280
  271MOL0     H37393   1.072   3.785  -0.657 -0.2327 -0.3700 -1.5346
  271MOL0     H37394   0.815   3.820  -0.983  3.4512 -0.2574 -0.8519
  271MOL0     H37395   1.200   3.570  -0.329  1.4725 -1.3817  0.5338
  271MOL0     H37396   1.212   3.255  -0.256  0.3265  0.7960 -1.1698
  271MOL0     H37397   1.325   3.390  -0.278  2.4669 -2.0008 -0.1942
  271MOL0     H37398   1.320   3.321  -0.124  0.6555  0.1697 -1.0057
  272MOL0     O37399  11.281   3.080  10.826  0.2851 -0.2117  0.3783
  272MOL0     C37400  11.172   3.121  10.796 -0.3925 -0.9732  0.3260
  272MOL0     O37401  11.143   3.210  10.684 -0.4327  0.2135 -0.1644
  272MOL0     C37402  11.256   3.234  10.605  0.3491 -0.0322 -0.0535
  272MOL0     C37403  11.273   3.142  10.505 -0.0632  0.4336  0.2513
  272MOL0     C37404  11.388   3.149  10.425  0.6793  0.5620  0.1611
  272MOL0     C37405  11.487   3.248  10.448  0.7339 -0.0513  0.6420
  272MOL0     O37406  11.601   3.262  10.370 -0.2316 -0.8412  0.3670
  272MOL0     C37407  11.633   3.183  10.257  0.3312  0.0566 -0.0099
  272MOL0     C37408  11.674   3.041  10.292  0.3087 -0.5066 -0.1815
  272MOL0     C37409  11.778   3.039  10.406  0.2181 -0.3374 -0.0922
  272MOL0     C37410  11.911   3.103  10.365 -0.2285  0.8717  0.9893
  272MOL0     C37411  12.019   3.047  10.463 -0.1933  0.7925  0.4369
  272MOL0     C37412  12.074   2.907  10.422  0.0675 -0.5588  0.9283
  272MOL0     C37413  12.184   2.854  10.518 -0.5905 -0.3790  0.2133
  272MOL0     C37414  12.119   2.766  10.626  0.7344 -0.0556 -0.4423
  272MOL0     N37415  12.047   2.851  10.728  0.0152  0.8128 -0.0661
  272MOL0     C37416  11.914   2.867  10.736  0.8741  0.1281  0.2372
  272MOL0     C37417  11.890   2.949  10.837 -0.3418  0.3225  0.6578
  272MOL0     C37418  11.757   2.983  10.873  0.2990 -0.3651  0.6319
  272MOL0     C37419  11.700   3.104  10.802  0.4374 -0.2948  0.5733
  272MOL0     C37420  11.581   3.153  10.890 -0.3689  0.3407  0.2111
  272MOL0     C37421  11.608   3.260  11.004  0.2739  0.5007 -0.0883
  272MOL0     O37422  11.647   3.378  10.930  0.4769  0.7694  0.1978
  272MOL0     C37423  11.649   3.496  10.996  0.1203  0.4193  0.1294
  272MOL0     C37424  11.649   3.505  11.133  1.5222  0.2210  0.2247
  272MOL0     C37425  11.629   3.623  11.200 -0.3081  0.2360  0.2676
  272MOL0     C37426  11.622   3.610  11.358 -0.0614  0.2343  0.3734
  272MOL0     C37427  11.617   3.746  11.132  0.5556 -0.6488  0.5765
  272MOL0     C37428  11.600   3.875  11.197  0.3793  0.0072  0.1165
  272MOL0     O37429  11.585   3.974  11.106 -0.4001 -0.0020 -0.4376
  272MOL0     C37430  11.473   4.047  11.151  0.2395  0.8637 -0.2573
  272MOL0     C37431  11.485   4.143  11.240  0.6509 -0.1462  0.2073
  272MOL0     C37432  11.381   4.222  11.280  0.8765  0.6544 -0.3733
  272MOL0     C37433  11.252   4.204  11.224  0.3982 -0.0019 -1.0649
  272MOL0     O37434  11.158   4.287  11.275  0.1169  0.3827  0.6241
  272MOL0     C37435  11.039   4.305  11.200  0.5629 -0.0791  0.3653
  272MOL0     C37436  10.945   4.380  11.281 -0.3089 -0.9580 -0.4582
  272MOL0     C37437  10.890   4.286  11.394 -0.3031  0.2829  0.6231
  272MOL0     C37438  10.859   4.365  11.521  0.2389  0.1049  0.1076
  272MOL0     C37439  10.813   4.273  11.631  0.4449  0.8864 -0.2725
  272MOL0     C37440  10.677   4.206  11.607 -0.6300  0.3736  0.5804
  272MOL0     C37441  10.603   4.180  11.741 -0.1965 -0.6867 -0.0928
  272MOL0     C37442  10.476   4.102  11.720  0.1923 -0.0445  0.0096
  272MOL0    Cl37443  10.406   4.063  11.885  0.4557  0.4405 -0.1429
  272MOL0     C37444  11.238   4.097  11.132  0.8294 -0.3316  0.3206
  272MOL0     C37445  11.349   4.020  11.099 -0.4746 -0.0265 -0.4147
  272MOL0     O37446  11.583   3.885  11.318  0.0418 -0.4416  0.1670
  272MOL0     C37447  11.631   3.739  10.995 -0.5272  0.3917  0.3641
  272MOL0     C37448  11.643   3.619  10.922  0.1897  0.6936 -0.3015
  272MOL0     N37449  12.007   2.973  10.900 -0.3136  0.0545  0.5280
  272MOL0     N37450  12.100   2.911  10.834 -0.1474 -0.5411 -0.8831
  272MOL0     C37451  11.461   3.346  10.554  0.3714  1.5932 -0.3584
  272MOL0     C37452  11.348   3.337  10.625 -0.4461 -0.3070 -0.0296
  272MOL0     C37453  11.057   3.094  10.886  0.5193  0.2906  0.1460
  272MOL0     C37454  10.931   3.145  10.845 -0.6453  0.2592 -0.5692
  272MOL0     C37455  10.817   3.101  10.908  0.2636 -0.4646  0.5801
  272MOL0     C37456  10.823   3.018  11.016 -0.3263  0.0890  0.0484
  272MOL0     O37457  10.694   2.982  11.056  0.5092  0.3168 -0.7545
  272MOL0     C37458  10.675   2.890  11.157 -0.3282  0.5413  0.3107
  272MOL0     C37459  10.516   2.891  11.190 -0.6560 -0.2699  0.2003
  272MOL0     C37460  10.469   2.752  11.232  0.8822  0.4888  0.5228
  272MOL0     C37461  10.312   2.751  11.225 -0.3658  0.0406 -0.9633
  272MOL0     C37462  10.261   2.845  11.323 -0.4473  0.3989 -0.2296
  272MOL0     C37463  10.232   2.917  11.406 -0.4509 -0.0354 -1.0392
  272MOL0     C37464  10.949   2.981  11.074  0.3391  0.3214  0.3805
  272MOL0     C37465  11.064   3.023  11.010  0.3947  0.3373  0.1819
  272MOL0     C37466  11.173   2.966  11.083  0.2747  0.4306 -0.4973
  272MOL0     H37467  11.196   3.069  10.484 -0.0399  0.6965 -0.8258
  272MOL0     H37468  11.402   3.083  10.340  4.9498 -0.0667  1.1339
  272MOL0     H37469  11.715   3.232  10.203  0.1790 -0.6880 -0.9472
  272MOL0     H37470  11.549   3.184  10.188  0.0517 -1.0063  0.3010
  272MOL0     H37471  11.599   2.971  10.331 -0.0317  0.7521  1.5798
  272MOL0     H37472  11.709   2.989  10.203 -3.1815 -3.1616 -0.2214
  272MOL0     H37473  11.737   3.075  10.501  1.1150 -3.0248  1.4312
  272MOL0     H37474  11.794   2.933  10.430  1.4222  0.1581  1.4650
  272MOL0     H37475  11.935   3.078  10.261 -3.9930 -2.9814  0.7328
  272MOL0     H37476  11.894   3.211  10.366 -1.3522  0.8278 -2.0053
  272MOL0     H37477  11.986   3.051  10.567 -0.2095  1.0314  0.4222
  272MOL0     H37478  12.107   3.112  10.467 -0.8414  1.8071 -1.0643
  272MOL0     H37479  11.996   2.830  10.416 -0.3817 -0.1216  1.1020
  272MOL0     H37480  12.111   2.928  10.321 -3.4179  0.6728 -0.2531
  272MOL0     H37481  12.235   2.942  10.558  0.4274 -0.6901 -0.3817
  272MOL0     H37482  12.262   2.797  10.467  0.5026 -0.6897  2.1097
  272MOL0     H37483  12.057   2.689  10.580 -0.5670 -0.6438  2.1222
  272MOL0     H37484  12.201   2.711  10.674  0.1186 -0.6709 -0.0824
  272MOL0     H37485  11.836   2.830  10.670  0.8372 -0.7052  0.7382
  272MOL0     H37486  11.747   2.985  10.982  2.1687 -1.6337  0.8779
  272MOL0     H37487  11.683   2.907  10.846 -1.7932  2.5642 -2.6268
  272MOL0     H37488  11.770   3.186  10.784 -0.4549  0.9238  2.2692
  272MOL0     H37489  11.668   3.065  10.706  1.9256 -2.1193  0.7548
  272MOL0     H37490  11.503   3.184  10.821  0.5578 -0.5612 -1.2841
  272MOL0     H37491  11.545   3.066  10.944 -1.4796 -1.2769 -2.9113
  272MOL0     H37492  11.518   3.272  11.064 -1.9695 -0.7537 -2.9294
  272MOL0     H37493  11.691   3.217  11.061  0.0979  3.0607  2.2419
  272MOL0     H37494  11.661   3.422  11.202 -0.5488 -0.0452  0.3445
  272MOL0     H37495  11.710   3.641  11.415  0.8613 -1.2747 -0.1859
  272MOL0     H37496  11.598   3.507  11.385  0.3647 -0.0688 -0.3898
  272MOL0     H37497  11.537   3.671  11.392 -0.7619 -0.1504 -0.6385
  272MOL0     H37498  11.582   4.155  11.286 -0.2158  2.1816  1.5418
  272MOL0     H37499  11.404   4.293  11.358  5.6251  0.0681 -0.9261
  272MOL0     H37500  11.056   4.357  11.106 -2.8739 -1.8362 -1.4166
  272MOL0     H37501  10.996   4.207  11.174 -2.1148  1.7161 -2.7204
  272MOL0     H37502  10.996   4.468  11.322 -4.1045  0.4735  1.6728
  272MOL0     H37503  10.866   4.418  11.217 -2.9623  1.2431  3.6479
  272MOL0     H37504  10.959   4.203  11.411  2.0993  2.2067  0.7674
  272MOL0     H37505  10.793   4.243  11.364 -1.4077  1.6532  2.1259
  272MOL0     H37506  10.778   4.435  11.494  0.5774  0.5703  0.2919
  272MOL0     H37507  10.939   4.427  11.560  0.2219  1.4551 -1.8323
  272MOL0     H37508  10.892   4.200  11.651  2.0647  3.1442  2.1980
  272MOL0     H37509  10.812   4.329  11.725 -1.3317 -2.1371  1.6914
  272MOL0     H37510  10.698   4.112  11.554  0.8749  0.1687  1.4577
  272MOL0     H37511  10.619   4.270  11.540 -0.5876  0.5920  0.7511
  272MOL0     H37512  10.580   4.275  11.790  0.5700  0.6776 -2.2332
  272MOL0     H37513  10.661   4.118  11.811 -3.3711  1.3036  4.8578
  272MOL0     H37514  10.486   4.014  11.655 -1.2682  0.2291 -0.6314
  272MOL0     H37515  10.411   4.175  11.671  0.9172  2.0313  1.9649
  272MOL0     H37516  11.148   4.078  11.076  1.4155 -2.0130 -0.1150
  272MOL0     H37517  11.328   3.939  11.030 -0.7196  0.3637 -0.8061
  272MOL0     H37518  11.622   3.831  10.937  1.6277  0.8473  0.7037
  272MOL0     H37519  11.649   3.622  10.814 -0.3224  0.2234 -0.3463
  272MOL0     H37520  11.532   3.427  10.567 -0.2080  2.0878 -0.2028
  272MOL0     H37521  11.326   3.400  10.711  0.9638 -0.4559  0.4720
  272MOL0     H37522  10.915   3.200  10.752  0.9040 -1.8502 -2.1734
  272MOL0     H37523  10.723   3.117  10.855  0.1935 -0.5574  0.6765
  272MOL0     H37524  10.729   2.797  11.136  2.0189  2.2375 -1.6087
  272MOL0     H37525  10.726   2.937  11.242  1.4125  0.5028 -0.6658
  272MOL0     H37526  10.456   2.916  11.103  1.6653 -1.1639 -1.7763
  272MOL0     H37527  10.524   2.977  11.257 -1.4099  1.4174 -1.7812
  272MOL0     H37528  10.507   2.678  11.161 -0.8103 -0.4873  0.5736
  272MOL0     H37529  10.517   2.729  11.328  1.9341  0.7542  0.0758
  272MOL0     H37530  10.274   2.654  11.260 -0.9309 -0.1972 -2.1889
  272MOL0     H37531  10.272   2.776  11.127  2.1819  0.7069 -1.8814
  272MOL0     H37532  10.204   2.984  11.485  0.9688 -1.1394  0.4611
  272MOL0     H37533  10.939   2.940  11.173 -1.1614  0.5078  0.3414
  272MOL0     H37534  11.254   2.928  11.019 -1.7537  0.5253 -3.2761
  272MOL0     H37535  11.203   3.036  11.162 -2.5996 -0.2582  1.3228
  272MOL0     H37536  11.137   2.876  11.133  0.3324  1.6872  1.9542
  273MOL0     O37537   4.456   8.924  11.413 -0.1755 -0.1950  0.1251
  273MOL0     C37538   4.472   9.013  11.495  0.6052  0.1653  0.1764
  273MOL0     O37539   4.589   9.085  11.509 -0.8823  0.2907 -0.0565
  273MOL0     C37540   4.680   9.070  11.415  0.4472 -0.4091  0.3438
  273MOL0     C37541   4.698   9.171  11.322 -0.2414  0.0431 -0.4277
  273MOL0     C37542   4.786   9.149  11.217  0.0005  0.1491  0.6242
  273MOL0     C37543   4.866   9.038  11.215  1.7602  0.8113 -0.7478
  273MOL0     O37544   4.956   9.030  11.111  0.0074  0.0006 -0.0565
  273MOL0     C37545   5.064   8.935  11.116  0.8394  0.8487  0.6284
  273MOL0     C37546   5.183   9.010  11.048  0.6865 -0.1885  0.7319
  273MOL0     C37547   5.143   9.081  10.915  0.3632 -0.4416  0.0335
  273MOL0     C37548   5.071   8.987  10.812  0.5000 -0.4269 -0.2028
  273MOL0     C37549   5.079   9.042  10.667 -0.0619 -0.2138 -0.3858
  273MOL0     C37550   5.024   8.959  10.556  0.4193  0.6996  0.3992
  273MOL0     C37551   5.080   8.997  10.412 -0.6356  0.7835  0.7036
  273MOL0     C37552   5.040   8.895  10.299  0.0887 -0.8262 -0.5098
  273MOL0     N37553   5.131   8.774  10.300 -0.0910  0.4110  0.1270
  273MOL0     C37554   5.269   8.768  10.303 -0.1147  0.1919 -0.1999
  273MOL0     C37555   5.300   8.641  10.279  0.2798 -0.3479  0.0437
  273MOL0     C37556   5.432   8.576  10.284 -0.3627 -0.5876  1.0816
  273MOL0     C37557   5.492   8.498  10.165 -0.9001 -0.3106  0.3601
  273MOL0     C37558   5.622   8.418  10.196 -0.7103  0.3325 -0.6665
  273MOL0     C37559   5.650   8.315  10.092  0.1694 -0.1340  0.0462
  273MOL0     O37560   5.687   8.396   9.980 -0.1546 -0.2038  0.5029
  273MOL0     C37561   5.768   8.328   9.895 -0.3999 -0.0726  0.3427
  273MOL0     C37562   5.879   8.405   9.850  0.2432 -0.0302  0.6031
  273MOL0     C37563   5.976   8.354   9.762  0.0082  0.4474 -0.4100
  273MOL0     C37564   6.100   8.439   9.748  0.2971  0.1587 -0.3652
  273MOL0     C37565   5.962   8.226   9.700 -0.1500  0.5999  0.0808
  273MOL0     C37566   6.057   8.162   9.610  0.1960  0.3700 -0.4596
  273MOL0     O37567   6.072   8.025   9.622  0.2113 -0.0482 -0.3692
  273MOL0     C37568   6.162   7.971   9.536 -0.3781 -0.0445  0.2918
  273MOL0     C37569   6.285   7.939   9.587  0.7926 -0.1460 -0.5259
  273MOL0     C37570   6.380   7.870   9.510  0.7491  0.3566  0.3383
  273MOL0     C37571   6.338   7.820   9.381 -0.4444 -0.3863  0.3175
  273MOL0     O37572   6.419   7.745   9.302  0.3850  0.1620  0.6511
  273MOL0     C37573   6.564   7.766   9.319  0.1376  0.0644 -0.2842
  273MOL0     C37574   6.640   7.737   9.184 -0.1839  0.3547  0.3601
  273MOL0     C37575   6.787   7.792   9.193 -0.0609 -0.2880  0.2123
  273MOL0     C37576   6.895   7.696   9.131  0.2040  0.0400 -0.5062
  273MOL0     C37577   6.884   7.682   8.974  0.6406  0.7490 -0.3538
  273MOL0     C37578   6.964   7.562   8.904  0.4455 -0.0440 -0.1438
  273MOL0     C37579   6.944   7.549   8.755  0.1023  0.5853 -0.0947
  273MOL0     C37580   7.015   7.424   8.697  0.6517 -0.0247 -0.1234
  273MOL0    Cl37581   6.929   7.285   8.755  0.0277 -0.1077  0.1583
  273MOL0     C37582   6.210   7.852   9.333 -0.1273  0.8790  0.1632
  273MOL0     C37583   6.118   7.925   9.406 -0.1833 -0.0511 -0.4011
  273MOL0     O37584   6.125   8.236   9.535 -0.0540  0.2581  0.0797
  273MOL0     C37585   5.846   8.148   9.747 -0.0409 -0.1833 -0.3431
  273MOL0     C37586   5.752   8.201   9.836 -0.0055 -0.5948 -1.2070
  273MOL0     N37587   5.183   8.573  10.256  0.6933 -0.0080 -0.0198
  273MOL0     N37588   5.082   8.655  10.262  0.0447 -0.2239 -0.2024
  273MOL0     C37589   4.836   8.934  11.302 -0.4062 -0.1981  0.1670
  273MOL0     C37590   4.749   8.951  11.403  0.8423  0.2914 -0.5211
  273MOL0     C37591   4.360   9.049  11.600  0.3565 -0.4650  0.4324
  273MOL0     C37592   4.402   9.138  11.700 -0.2811  1.5889  0.3783
  273MOL0     C37593   4.320   9.187  11.794  0.3364  0.0276  0.5373
  273MOL0     C37594   4.184   9.144  11.803  0.0688  0.0888 -0.1829
  273MOL0     O37595   4.093   9.173  11.904  0.4528  0.4396 -0.0504
  273MOL0     C37596   4.129   9.237  12.027  0.4966  0.4195 -0.2253
  273MOL0     C37597   4.124   9.384  12.000 -0.3996 -0.2635  0.3380
  273MOL0     C37598   4.172   9.479  12.114  0.4239 -0.5752  0.7200
  273MOL0     C37599   4.295   9.431  12.198 -0.7881 -0.0637  0.3302
  273MOL0     C37600   4.408   9.417  12.114  0.3772  0.0520  0.6448
  273MOL0     C37601   4.492   9.396  12.034  0.2062  0.5182  0.2433
  273MOL0     C37602   4.142   9.048  11.711  0.2234  0.9879  0.9677
  273MOL0     C37603   4.230   9.003  11.611  0.1250  0.2969  0.7839
  273MOL0     C37604   4.177   8.885  11.534 -0.2180 -0.2907 -0.9486
  273MOL0     H37605   4.635   9.258  11.334 -2.0667 -1.0881 -1.3876
  273MOL0     H37606   4.791   9.223  11.138 -0.0013  1.6867  2.0095
  273MOL0     H37607   5.046   8.849  11.052 -0.7381  0.4742  1.5281
  273MOL0     H37608   5.096   8.898  11.214  1.1303 -0.4961  0.0367
  273MOL0     H37609   5.233   9.080  11.116 -1.3270  0.1093  1.9928
  273MOL0     H37610   5.257   8.935  11.021 -0.8994 -1.6230  0.2343
  273MOL0     H37611   5.070   9.155  10.948  1.4703 -0.2285  2.1312
  273MOL0     H37612   5.227   9.130  10.864 -1.4521  0.7819 -1.9744
  273MOL0     H37613   5.125   8.892  10.808  1.6873  0.2337 -0.6511
  273MOL0     H37614   4.969   8.979  10.849  0.3604  2.8076  0.4468
  273MOL0     H37615   5.184   9.053  10.637 -0.4869  0.6431 -1.6341
  273MOL0     H37616   5.036   9.142  10.658  2.3418  1.2009  2.1289
  273MOL0     H37617   5.036   8.852  10.579 -0.7933 -0.2558 -2.8980
  273MOL0     H37618   4.915   8.967  10.553  0.1160 -1.1577  2.6709
  273MOL0     H37619   5.189   9.003  10.406 -0.5575 -1.4761 -1.7088
  273MOL0     H37620   5.045   9.094  10.376 -0.5010  0.5548 -0.0551
  273MOL0     H37621   4.938   8.866  10.325 -0.4026  1.6650  0.6210
  273MOL0     H37622   5.042   8.938  10.198 -0.5982 -0.9127 -0.5614
  273MOL0     H37623   5.343   8.848  10.305  0.3476 -0.1753 -1.5706
  273MOL0     H37624   5.419   8.488  10.348 -0.3347 -1.6919 -0.3715
  273MOL0     H37625   5.509   8.643  10.322 -0.0966 -0.7313  0.8013
  273MOL0     H37626   5.418   8.429  10.123  0.0418 -0.1535 -1.6608
  273MOL0     H37627   5.513   8.569  10.085 -0.3241  0.5479  1.2569
  273MOL0     H37628   5.714   8.476  10.204  0.9266 -2.2001 -0.1928
  273MOL0     H37629   5.610   8.369  10.292  2.2711  1.3832  0.3427
  273MOL0     H37630   5.728   8.241  10.112 -2.0672 -2.2128  1.5814
  273MOL0     H37631   5.560   8.256  10.077 -2.6138  3.8817 -0.6277
  273MOL0     H37632   5.876   8.506   9.889 -2.8721 -0.5992  2.1658
  273MOL0     H37633   6.080   8.536   9.793  2.8159  0.4900  0.1409
  273MOL0     H37634   6.144   8.445   9.648  3.2617 -1.7129  0.6927
  273MOL0     H37635   6.178   8.391   9.807 -1.7403 -1.3131  1.3083
  273MOL0     H37636   6.321   7.980   9.681 -1.4753 -1.0931  0.8299
  273MOL0     H37637   6.474   7.851   9.560 -0.5211 -0.9461  2.4045
  273MOL0     H37638   6.579   7.871   9.345 -1.6529  0.6875 -1.5223
  273MOL0     H37639   6.589   7.693   9.396 -0.0825 -0.0577 -0.3272
  273MOL0     H37640   6.644   7.629   9.168 -2.5352  0.4218 -1.0491
  273MOL0     H37641   6.592   7.779   9.096  0.9474 -4.2850 -2.8909
  273MOL0     H37642   6.818   7.792   9.298  1.2822  1.6944 -0.1333
  273MOL0     H37643   6.797   7.893   9.151  0.4377 -0.4148  0.0264
  273MOL0     H37644   6.883   7.595   9.170  0.9719 -0.8247 -2.3952
  273MOL0     H37645   6.995   7.736   9.151  0.6534  0.0074 -2.5328
  273MOL0     H37646   6.780   7.663   8.945  0.3401 -2.5689  2.2198
  273MOL0     H37647   6.882   7.777   8.919 -3.8178 -0.5176 -2.9372
  273MOL0     H37648   6.937   7.478   8.970 -1.8111  0.1087 -0.7929
  273MOL0     H37649   7.069   7.589   8.914  0.8036 -1.2092 -0.5591
  273MOL0     H37650   6.972   7.636   8.695  2.1704 -0.8332 -1.3197
  273MOL0     H37651   6.835   7.541   8.742  0.0866  0.2556  0.2243
  273MOL0     H37652   7.119   7.420   8.731  0.7031 -2.1860 -0.3994
  273MOL0     H37653   7.009   7.417   8.588 -2.3660  1.8023 -0.1864
  273MOL0     H37654   6.187   7.812   9.235 -0.3555  0.5258  0.3612
  273MOL0     H37655   6.015   7.948   9.378 -0.6082 -0.1871  0.9722
  273MOL0     H37656   5.829   8.045   9.718  0.6279 -0.6591  0.8825
  273MOL0     H37657   5.664   8.142   9.860  1.1565 -2.1919 -0.7012
  273MOL0     H37658   4.888   8.839  11.300 -2.1276 -1.1798 -0.1464
  273MOL0     H37659   4.726   8.874  11.476  3.1449  2.1033  2.3729
  273MOL0     H37660   4.506   9.158  11.722  0.7391 -0.5810 -1.9624
  273MOL0     H37661   4.352   9.262  11.865 -2.1660  2.4732 -0.7152
  273MOL0     H37662   4.055   9.206  12.102  3.0192 -2.4906  1.2622
  273MOL0     H37663   4.227   9.206  12.065 -0.3123  0.3019  1.9257
  273MOL0     H37664   4.026   9.420  11.967  0.3134  1.1158 -0.3772
  273MOL0     H37665   4.181   9.418  11.912  0.4876  2.9570  2.0120
  273MOL0     H37666   4.195   9.574  12.064 -2.7528  0.6006  1.2969
  273MOL0     H37667   4.090   9.508  12.180  0.0252 -2.3911  1.0628
  273MOL0     H37668   4.265   9.338  12.248 -0.1957 -0.4244  0.0303
  273MOL0     H37669   4.317   9.517  12.262  0.2147  0.5817 -0.8438
  273MOL0     H37670   4.572   9.369  11.968  0.2336 -3.7022  1.7127
  273MOL0     H37671   4.035   9.028  11.711  0.1010  1.6221  1.0225
  273MOL0     H37672   4.093   8.839  11.586 -0.6275 -0.6320 -1.8843
  273MOL0     H37673   4.141   8.919  11.436 -1.2781  1.4158 -0.0264
  273MOL0     H37674   4.261   8.816  11.526 -0.3272 -0.6727  0.7858
  274MOL0     O37675   9.592   6.480   4.503 -0.2549  0.4615 -0.7694
  274MOL0     C37676   9.531   6.447   4.403 -0.0565  0.8723 -0.0463
  274MOL0     O37677   9.553   6.335   4.321 -0.3305  0.2104  0.2588
  274MOL0     C37678   9.687   6.290   4.304  0.2980 -0.2581  0.1371
  274MOL0     C37679   9.704   6.162   4.257  0.6308 -0.1061 -0.0081
  274MOL0     C37680   9.827   6.108   4.232  1.2134 -0.0543 -0.3752
  274MOL0     C37681   9.937   6.172   4.263 -1.1670 -0.3799 -0.3961
  274MOL0     O37682  10.038   6.081   4.266  0.2220 -0.3304 -0.6000
  274MOL0     C37683  10.171   6.135   4.276  0.0437 -0.6705 -1.1719
  274MOL0     C37684  10.269   6.023   4.229 -0.1150 -0.5004  0.1795
  274MOL0     C37685  10.257   5.900   4.316 -0.4995 -0.1080 -1.3322
  274MOL0     C37686  10.373   5.807   4.260 -0.1535 -0.0890  0.0365
  274MOL0     C37687  10.391   5.667   4.320  0.8777  0.2282  0.4480
  274MOL0     C37688  10.359   5.674   4.471 -0.6182  1.3020  0.0086
  274MOL0     C37689  10.385   5.536   4.541 -0.6809  0.0152 -0.1925
  274MOL0     C37690  10.302   5.506   4.670  0.3279  1.4105 -0.5231
  274MOL0     N37691  10.357   5.391   4.738 -0.7395 -0.9637  0.5622
  274MOL0     C37692  10.420   5.402   4.860 -0.0655 -1.2982  0.4599
  274MOL0     C37693  10.484   5.282   4.871  0.2415 -1.1655  0.5292
  274MOL0     C37694  10.568   5.242   4.985 -0.0045 -0.1353  1.4666
  274MOL0     C37695  10.579   5.089   4.977  0.0437 -0.7724 -0.5462
  274MOL0     C37696  10.627   5.027   5.120 -0.7505  0.0651 -0.1887
  274MOL0     C37697  10.672   4.883   5.110  0.1772 -0.0299 -0.1151
  274MOL0     O37698  10.559   4.787   5.117 -0.1003 -0.0926  0.2429
  274MOL0     C37699  10.585   4.648   5.127 -0.1793 -0.1591 -0.0453
  274MOL0     C37700  10.482   4.562   5.106  0.8243 -0.5789 -0.7107
  274MOL0     C37701  10.488   4.417   5.120 -0.0195 -0.8409  0.0349
  274MOL0     C37702  10.356   4.331   5.114 -0.1100 -0.1835  0.0600
  274MOL0     C37703  10.617   4.364   5.148 -0.1622 -0.6033 -0.0070
  274MOL0     C37704  10.639   4.216   5.168 -0.0961  0.0801  0.1537
  274MOL0     O37705  10.762   4.165   5.139  0.1717  1.1701  0.0765
  274MOL0     C37706  10.786   4.033   5.143  0.4094  0.5458  0.2844
  274MOL0     C37707  10.823   3.961   5.026  0.1080 -0.7649 -0.6449
  274MOL0     C37708  10.872   3.832   5.031 -0.0845  0.1872 -0.7499
  274MOL0     C37709  10.866   3.760   5.144  0.4423 -0.0436 -0.9112
  274MOL0     O37710  10.917   3.632   5.149  0.3315 -0.2290  1.0477
  274MOL0     C37711  10.851   3.520   5.212 -0.3641  0.1780  0.2696
  274MOL0     C37712  10.845   3.397   5.113 -0.3054 -1.0535 -0.0027
  274MOL0     C37713  10.799   3.266   5.190  0.6997  0.5239 -0.7381
  274MOL0     C37714  10.800   3.133   5.100 -0.3817  0.7460  0.4643
  274MOL0     C37715  10.716   3.013   5.156 -0.4135 -0.2396  0.3279
  274MOL0     C37716  10.579   2.991   5.094 -0.3828 -0.1282 -0.7093
  274MOL0     C37717  10.570   2.917   4.963  1.3240 -0.1739 -0.1575
  274MOL0     C37718  10.576   2.767   4.966  0.8374 -0.9973 -0.0186
  274MOL0    Cl37719  10.642   2.697   4.818  0.0521 -0.2879 -0.2765
  274MOL0     C37720  10.814   3.817   5.259 -0.1076 -0.0227  0.1558
  274MOL0     C37721  10.780   3.950   5.263 -0.6946  0.3296 -0.8454
  274MOL0     O37722  10.537   4.152   5.199  0.5736 -0.1030 -0.0733
  274MOL0     C37723  10.727   4.452   5.160  1.0437 -0.2041 -0.5265
  274MOL0     C37724  10.713   4.592   5.149  0.1248 -0.4969  0.6028
  274MOL0     N37725  10.451   5.210   4.763  0.0084  0.2635 -0.5483
  274MOL0     N37726  10.357   5.272   4.688 -0.4883  0.1831 -0.0458
  274MOL0     C37727   9.932   6.301   4.317 -0.1674  0.4043 -0.1947
  274MOL0     C37728   9.804   6.367   4.323  0.1454 -0.1819  0.6318
  274MOL0     C37729   9.401   6.509   4.373  0.7853 -0.3071 -0.3885
  274MOL0     C37730   9.293   6.427   4.352 -0.1855  0.1661  0.1517
  274MOL0     C37731   9.168   6.479   4.325  0.3918  1.1542  0.7946
  274MOL0     C37732   9.136   6.609   4.322 -0.5739 -0.0864  0.2608
  274MOL0     O37733   8.996   6.640   4.306 -0.3150 -0.3502 -0.2012
  274MOL0     C37734   8.956   6.776   4.325  0.6110 -0.0839  0.3796
  274MOL0     C37735   8.799   6.783   4.307 -0.3484 -0.1935 -0.6394
  274MOL0     C37736   8.764   6.747   4.163  0.2344 -0.3246  0.3830
  274MOL0     C37737   8.614   6.733   4.142  0.3963 -0.0343  0.4810
  274MOL0     C37738   8.567   6.698   4.007  0.0147  0.0405  0.3364
  274MOL0     C37739   8.523   6.670   3.899  0.0184 -0.7090  0.9010
  274MOL0     C37740   9.246   6.695   4.332 -0.0707  0.1329  0.2204
  274MOL0     C37741   9.377   6.652   4.365  0.2132  1.0112  0.0578
  274MOL0     C37742   9.478   6.758   4.391 -1.2569  0.0870 -0.2269
  274MOL0     H37743   9.613   6.104   4.254  0.5772  0.0166 -1.7805
  274MOL0     H37744   9.832   6.002   4.207 -1.6892 -0.7356  1.4301
  274MOL0     H37745  10.199   6.173   4.375 -0.4888 -2.2564 -0.3703
  274MOL0     H37746  10.189   6.223   4.214  1.7233 -0.2058 -0.0834
  274MOL0     H37747  10.240   5.987   4.130 -1.8520  0.2921  0.3624
  274MOL0     H37748  10.367   6.069   4.226 -1.0836  1.6408 -0.4014
  274MOL0     H37749  10.286   5.920   4.419 -2.6169 -1.7490 -0.3399
  274MOL0     H37750  10.165   5.843   4.304  0.7772 -2.7089  0.2408
  274MOL0     H37751  10.364   5.800   4.151 -3.2202 -1.7836  0.2677
  274MOL0     H37752  10.464   5.860   4.289  1.3663 -2.8019  0.5401
  274MOL0     H37753  10.489   5.624   4.295  0.9837  2.6368 -4.5371
  274MOL0     H37754  10.313   5.606   4.274 -1.3003  1.2188  2.6098
  274MOL0     H37755  10.421   5.749   4.520  0.2550  0.0620  0.8783
  274MOL0     H37756  10.252   5.687   4.490 -0.5487  0.7779  0.8336
  274MOL0     H37757  10.488   5.549   4.576 -0.9157  1.4270  0.0342
  274MOL0     H37758  10.361   5.453   4.474 -1.4132 -2.3365  2.7828
  274MOL0     H37759  10.309   5.587   4.743  5.9372 -1.3680  2.7046
  274MOL0     H37760  10.200   5.480   4.640  0.4568  1.6927 -1.2557
  274MOL0     H37761  10.426   5.488   4.926  1.9909  0.1933 -1.5028
  274MOL0     H37762  10.520   5.262   5.081 -1.7855 -0.3904  0.6719
  274MOL0     H37763  10.663   5.297   4.991  0.8490 -1.6870  2.7791
  274MOL0     H37764  10.485   5.042   4.948 -1.1638  1.7387 -0.9604
  274MOL0     H37765  10.654   5.056   4.905  0.2019 -1.5667 -0.0275
  274MOL0     H37766  10.709   5.091   5.152 -2.2225  2.1545 -0.3592
  274MOL0     H37767  10.550   5.036   5.198  0.6334 -0.0035  1.2268
  274MOL0     H37768  10.721   4.876   5.012 -2.1626  1.1395 -1.4523
  274MOL0     H37769  10.744   4.872   5.191 -1.5490 -1.6122  1.2894
  274MOL0     H37770  10.388   4.603   5.071 -1.0011 -1.7571  2.3336
  274MOL0     H37771  10.368   4.243   5.050  2.8982 -0.2985  0.6578
  274MOL0     H37772  10.275   4.394   5.077 -0.4486 -0.2474  0.6756
  274MOL0     H37773  10.318   4.293   5.210 -2.0510 -0.5115 -0.7852
  274MOL0     H37774  10.821   4.014   4.932  0.6014  3.0252  1.2850
  274MOL0     H37775  10.914   3.779   4.946  3.1169  2.3816 -0.7225
  274MOL0     H37776  10.919   3.494   5.294  0.5441 -0.1605 -0.5686
  274MOL0     H37777  10.758   3.536   5.267  0.9470  1.4358  2.2456
  274MOL0     H37778  10.781   3.420   5.028  0.0836  2.8440  0.5522
  274MOL0     H37779  10.945   3.374   5.075  0.9414 -2.9041  3.8816
  274MOL0     H37780  10.691   3.268   5.209  0.4781 -1.4646 -1.5326
  274MOL0     H37781  10.845   3.250   5.288  0.7925  0.8053 -0.7350
  274MOL0     H37782  10.906   3.104   5.097 -0.7538 -0.7765  1.1324
  274MOL0     H37783  10.775   3.158   4.996 -0.8203  3.4468  1.1241
  274MOL0     H37784  10.767   2.918   5.138  0.2681  0.2639 -0.5100
  274MOL0     H37785  10.705   3.032   5.263 -1.9917 -0.9700  0.3229
  274MOL0     H37786  10.526   3.086   5.092 -0.9928 -0.4511 -0.3526
  274MOL0     H37787  10.512   2.941   5.165  0.0924 -0.7815 -0.7168
  274MOL0     H37788  10.655   2.941   4.897  1.3469 -0.3548 -0.1960
  274MOL0     H37789  10.478   2.938   4.909  1.9962  0.9806 -0.8995
  274MOL0     H37790  10.475   2.733   4.992 -0.3323  1.9670 -0.3016
  274MOL0     H37791  10.645   2.747   5.049  0.5825  2.3328  1.1818
  274MOL0     H37792  10.816   3.749   5.344  3.5494  2.2748  2.1673
  274MOL0     H37793  10.747   3.990   5.358  2.5723 -0.8212  0.9382
  274MOL0     H37794  10.825   4.413   5.186  0.9021  0.3894  0.9745
  274MOL0     H37795  10.806   4.648   5.148 -0.4296  0.4876 -1.3094
  274MOL0     H37796  10.018   6.343   4.368 -0.0536  1.6567 -1.3629
  274MOL0     H37797   9.797   6.467   4.364 -1.8236 -0.6966  1.7074
  274MOL0     H37798   9.303   6.319   4.362 -0.7926 -0.3309 -3.3573
  274MOL0     H37799   9.093   6.400   4.317 -0.2410  1.8741 -1.0034
  274MOL0     H37800   8.979   6.808   4.427  2.4013  0.7901 -0.2674
  274MOL0     H37801   9.012   6.835   4.252 -0.7755  0.2558 -0.4594
  274MOL0     H37802   8.757   6.881   4.332 -2.1688 -1.4144  1.5173
  274MOL0     H37803   8.759   6.710   4.378  4.6042 -2.1036  0.6079
  274MOL0     H37804   8.808   6.812   4.086  1.7534 -0.1764  1.3344
  274MOL0     H37805   8.807   6.649   4.138 -0.8868 -0.5659 -0.6540
  274MOL0     H37806   8.565   6.827   4.167 -0.5853 -0.1186 -1.0039
  274MOL0     H37807   8.579   6.656   4.212  0.5560 -0.7756 -0.2353
  274MOL0     H37808   8.482   6.649   3.802 -0.3049  2.0791  0.3564
  274MOL0     H37809   9.234   6.803   4.323 -1.8876 -0.2069 -2.7656
  274MOL0     H37810   9.447   6.846   4.448 -1.1476  0.4906 -0.7882
  274MOL0     H37811   9.567   6.727   4.448 -0.6832  2.1532  0.0890
  274MOL0     H37812   9.510   6.793   4.293  2.1158  3.7278  1.8776
  275MOL0     O37813   0.666   8.509   2.084  0.2076 -0.3759  0.5177
  275MOL0     C37814   0.733   8.570   2.169  0.2123  0.4819  0.5633
  275MOL0     O37815   0.698   8.609   2.289 -0.7923  0.3031 -0.4706
  275MOL0     C37816   0.577   8.585   2.339  0.2386 -0.3626 -0.5032
  275MOL0     C37817   0.453   8.562   2.277  0.2214 -0.9821  0.3045
  275MOL0     C37818   0.334   8.565   2.348 -0.1707 -0.2498  0.1436
  275MOL0     C37819   0.343   8.579   2.491  0.3350 -0.0417 -0.0486
  275MOL0     O37820   0.229   8.567   2.576  0.4450 -0.3287  0.1815
  275MOL0     C37821   0.141   8.678   2.580  0.2985 -1.2607  0.1902
  275MOL0     C37822   0.006   8.655   2.647  0.6528  0.5341 -0.1505
  275MOL0     C37823   0.008   8.654   2.801  0.4921  0.2030 -0.1653
  275MOL0     C37824   0.035   8.785   2.870 -0.3831 -0.9095  0.4053
  275MOL0     C37825   0.057   8.766   3.019 -0.7243  0.3398 -0.5201
  275MOL0     C37826   0.195   8.704   3.043  0.5271  0.3997 -0.1605
  275MOL0     C37827   0.239   8.730   3.191 -0.4812  0.3705  0.1022
  275MOL0     C37828   0.376   8.671   3.223  0.2149  0.2451  0.4609
  275MOL0     N37829   0.368   8.529   3.237  0.1024  0.0386 -0.1327
  275MOL0     C37830   0.456   8.434   3.197 -0.3823 -0.7312 -0.2242
  275MOL0     C37831   0.400   8.325   3.229  0.7216  0.9628  0.3498
  275MOL0     C37832   0.470   8.189   3.216  0.5626  0.5315 -0.0194
  275MOL0     C37833   0.376   8.065   3.210  0.5286 -0.3820  0.5252
  275MOL0     C37834   0.440   7.930   3.222 -0.2884 -0.0915  0.5853
  275MOL0     C37835   0.534   7.915   3.094  0.3960 -0.0022 -0.6338
  275MOL0     O37836   0.558   7.781   3.070 -0.3194  0.0692 -0.2113
  275MOL0     C37837   0.637   7.754   2.964  0.3334  0.4496 -0.2632
  275MOL0     C37838   0.742   7.664   2.984  0.7222 -0.1990 -0.4565
  275MOL0     C37839   0.833   7.627   2.881  0.1694 -0.9794  0.5614
  275MOL0     C37840   0.960   7.560   2.930 -0.4642  0.5217 -0.7863
  275MOL0     C37841   0.813   7.674   2.746  0.1032 -0.1262 -0.6721
  275MOL0     C37842   0.896   7.638   2.640  0.0414 -0.6107 -0.2366
  275MOL0     O37843   0.896   7.723   2.523 -0.8615  0.5922  0.2544
  275MOL0     C37844   1.005   7.701   2.442 -0.1480 -0.1699  1.4072
  275MOL0     C37845   1.138   7.672   2.477 -1.0574  0.0476 -0.6795
  275MOL0     C37846   1.232   7.653   2.378 -0.3524 -0.3892 -0.5427
  275MOL0     C37847   1.205   7.663   2.247  0.3660 -0.0309 -0.3414
  275MOL0     O37848   1.321   7.664   2.171 -0.0967 -0.0191  0.2269
  275MOL0     C37849   1.307   7.672   2.024  0.6463  0.1610  0.5100
  275MOL0     C37850   1.337   7.825   1.990 -0.5191 -0.3406  0.0981
  275MOL0     C37851   1.469   7.891   2.038  0.5716  0.8879 -0.0505
  275MOL0     C37852   1.595   7.803   1.995  0.4611 -0.2451 -0.0852
  275MOL0     C37853   1.712   7.881   2.047 -0.2515 -0.2312  0.3459
  275MOL0     C37854   1.848   7.827   2.002  0.4366  1.0957  0.6156
  275MOL0     C37855   1.960   7.915   2.043  0.5210  0.7920 -0.1165
  275MOL0     C37856   2.092   7.879   1.970  0.3572  0.7314 -1.0550
  275MOL0    Cl37857   2.087   7.927   1.797 -0.1617 -0.3078  0.1220
  275MOL0     C37858   1.078   7.698   2.209 -0.5149  0.0535 -0.0767
  275MOL0     C37859   0.976   7.703   2.307  0.3218 -0.1382 -0.2142
  275MOL0     O37860   0.964   7.536   2.649  0.3699 -0.0502 -0.3468
  275MOL0     C37861   0.707   7.763   2.728  0.2104  1.0547  0.2468
  275MOL0     C37862   0.616   7.797   2.838  0.5990  0.5659  0.3589
  275MOL0     N37863   0.284   8.348   3.295  0.4570  0.5408  0.6228
  275MOL0     N37864   0.259   8.468   3.306 -0.1798 -0.2480  0.1490
  275MOL0     C37865   0.466   8.597   2.556  0.1629  0.2596  0.4561
  275MOL0     C37866   0.579   8.608   2.480  0.1979  1.1928  0.1961
  275MOL0     C37867   0.864   8.625   2.131 -0.7888  0.1004  1.2177
  275MOL0     C37868   0.900   8.748   2.172 -0.6647 -0.9283  0.2199
  275MOL0     C37869   1.032   8.803   2.147 -0.3967  0.5860 -0.2497
  275MOL0     C37870   1.128   8.729   2.065 -0.6006  0.4520 -0.0078
  275MOL0     O37871   1.253   8.778   2.029 -0.4649  0.0938  0.2428
  275MOL0     C37872   1.291   8.912   2.053  0.6626  0.0937  0.5758
  275MOL0     C37873   1.350   8.922   2.192 -0.1113 -0.5456  0.3535
  275MOL0     C37874   1.424   9.052   2.206 -0.4460 -0.1245  0.4524
  275MOL0     C37875   1.521   9.066   2.318 -1.1493 -0.5814 -0.2834
  275MOL0     C37876   1.590   9.202   2.323 -0.4591  0.3005 -0.4542
  275MOL0     C37877   1.628   9.312   2.317  0.8862 -0.6413 -0.5973
  275MOL0     C37878   1.089   8.605   2.024 -0.5360  0.2948 -0.3273
  275MOL0     C37879   0.961   8.549   2.055  0.0828  0.9775  0.8782
  275MOL0     C37880   0.958   8.402   2.013  0.3284  0.9821 -0.0718
  275MOL0     H37881   0.440   8.549   2.170  0.0622  0.5284  0.1230
  275MOL0     H37882   0.239   8.554   2.295 -0.5131  1.0214  0.4605
  275MOL0     H37883   0.110   8.703   2.478 -1.0387 -4.7775 -0.4023
  275MOL0     H37884   0.182   8.767   2.630 -5.1705  0.9440  1.4518
  275MOL0     H37885  -0.067   8.730   2.617 -2.4322 -1.7578  1.0275
  275MOL0     H37886  -0.035   8.565   2.600  1.5867  1.0698 -2.1299
  275MOL0     H37887  -0.076   8.592   2.835  2.5688 -2.2078  0.8470
  275MOL0     H37888   0.087   8.582   2.824 -1.8441 -2.1334  1.0713
  275MOL0     H37889   0.125   8.825   2.823 -1.0021 -1.7277 -1.5529
  275MOL0     H37890  -0.056   8.841   2.851 -2.0114 -3.7275 -0.7873
  275MOL0     H37891  -0.024   8.699   3.050 -1.3558  1.3058 -0.0587
  275MOL0     H37892   0.056   8.858   3.078  0.0182 -0.5924  1.0426
  275MOL0     H37893   0.187   8.598   3.019 -0.0235  0.4197 -0.0803
  275MOL0     H37894   0.265   8.748   2.971  1.2158  0.0181  0.2704
  275MOL0     H37895   0.174   8.697   3.272  0.5647 -0.0633  0.7993
  275MOL0     H37896   0.250   8.838   3.199  1.7204  0.1423  1.1433
  275MOL0     H37897   0.444   8.698   3.141  3.1192  0.2925  2.7300
  275MOL0     H37898   0.413   8.726   3.310 -1.3381  2.4559 -0.1782
  275MOL0     H37899   0.557   8.453   3.160 -0.7156 -0.9444 -1.2681
  275MOL0     H37900   0.533   8.171   3.303  1.6808  1.0548 -0.6868
  275MOL0     H37901   0.529   8.191   3.123  2.0287  2.3257  0.8657
  275MOL0     H37902   0.314   8.081   3.299  1.5934  2.5999  0.8577
  275MOL0     H37903   0.318   8.067   3.117 -0.2081 -2.0253  0.9070
  275MOL0     H37904   0.508   7.944   3.306  0.8002 -0.3914 -0.2078
  275MOL0     H37905   0.368   7.849   3.238  0.0596 -0.2427  1.4056
  275MOL0     H37906   0.482   7.950   3.004 -0.0729  0.6263 -0.1240
  275MOL0     H37907   0.626   7.971   3.109  0.5698 -0.6430  0.8180
  275MOL0     H37908   0.775   7.653   3.087  0.1996 -0.2399 -0.2891
  275MOL0     H37909   0.943   7.530   3.034 -1.1388 -0.7608 -1.2404
  275MOL0     H37910   1.046   7.626   2.917 -0.5820  0.7859 -0.2419
  275MOL0     H37911   0.969   7.464   2.878 -0.0006 -0.7287  1.4788
  275MOL0     H37912   1.177   7.672   2.578 -3.0142  5.1550  0.4205
  275MOL0     H37913   1.328   7.614   2.409 -0.0475 -0.1698 -1.2120
  275MOL0     H37914   1.389   7.616   1.978 -0.4380 -1.1510  0.1158
  275MOL0     H37915   1.218   7.622   1.985  1.1213  0.0062 -0.3858
  275MOL0     H37916   1.348   7.834   1.881  0.9018  0.1600  0.2543
  275MOL0     H37917   1.243   7.871   2.020 -0.6819 -1.4987  1.5137
  275MOL0     H37918   1.460   7.898   2.147 -4.0921 -2.8255  0.1509
  275MOL0     H37919   1.477   7.990   1.992  0.7161  0.0255 -1.9970
  275MOL0     H37920   1.601   7.809   1.886  1.1852 -0.1103 -0.0489
  275MOL0     H37921   1.589   7.701   2.033 -3.4902  0.0522  0.4099
  275MOL0     H37922   1.700   7.981   2.004 -0.0999  0.4536  1.8367
  275MOL0     H37923   1.709   7.889   2.156 -1.3112  1.4771  0.2345
  275MOL0     H37924   1.831   7.816   1.894  0.2867 -1.1279  0.8225
  275MOL0     H37925   1.870   7.730   2.047 -0.9154  0.5555  0.1951
  275MOL0     H37926   1.968   7.885   2.148 -1.3749 -1.0160 -0.4272
  275MOL0     H37927   1.934   8.021   2.035  0.5594  1.0750  2.5481
  275MOL0     H37928   2.099   7.770   1.975 -0.4171  0.7384  1.4039
  275MOL0     H37929   2.171   7.922   2.032  2.0119 -2.2025 -0.9797
  275MOL0     H37930   1.047   7.719   2.106  0.0733 -1.8150 -0.6621
  275MOL0     H37931   0.870   7.715   2.285  0.3296 -1.4264 -1.0711
  275MOL0     H37932   0.676   7.810   2.635 -0.6825  1.8807  0.9312
  275MOL0     H37933   0.527   7.856   2.819 -0.0367 -0.4764  0.0356
  275MOL0     H37934   0.471   8.613   2.663  0.6350  2.0495  0.2040
  275MOL0     H37935   0.677   8.639   2.514  0.2774  1.4069 -0.2136
  275MOL0     H37936   0.832   8.812   2.227 -2.5775 -2.8152  0.1835
  275MOL0     H37937   1.058   8.904   2.177  1.4631  0.3829 -1.0632
  275MOL0     H37938   1.377   8.924   1.987  0.5393 -0.6356  0.2686
  275MOL0     H37939   1.222   8.994   2.029  2.1511  0.9211 -1.1067
  275MOL0     H37940   1.416   8.838   2.214  1.8826  0.6916 -0.6777
  275MOL0     H37941   1.261   8.909   2.254 -0.3456  1.2436  0.4277
  275MOL0     H37942   1.473   9.080   2.113  2.1873  2.6407  2.4385
  275MOL0     H37943   1.340   9.120   2.225 -0.3131 -0.0433  0.7678
  275MOL0     H37944   1.597   8.988   2.312  0.9867  1.4080 -0.4363
  275MOL0     H37945   1.474   9.046   2.415  0.7844  0.8534  1.0275
  275MOL0     H37946   1.651   9.416   2.314  0.0096 -0.3303  1.5039
  275MOL0     H37947   1.157   8.548   1.962  0.8210  1.2502  0.2346
  275MOL0     H37948   0.898   8.332   2.074  2.7288 -0.8217  0.3532
  275MOL0     H37949   0.930   8.374   1.911  0.7023 -1.1626  0.3660
  275MOL0     H37950   1.057   8.358   2.026 -1.4483 -3.3648  0.6208
  276MOL0     O37951   4.199   7.717   5.689  0.6313  0.1218 -0.4919
  276MOL0     C37952   4.217   7.643   5.591  0.0267  0.7477  0.0635
  276MOL0     O37953   4.313   7.673   5.500 -0.0450  0.6983 -0.4221
  276MOL0     C37954   4.400   7.774   5.520  0.4365 -0.5660 -0.5033
  276MOL0     C37955   4.426   7.870   5.416  0.5718  0.1000  0.0817
  276MOL0     C37956   4.519   7.981   5.433  0.1370 -0.2039  0.2011
  276MOL0     C37957   4.603   7.989   5.545  0.2123  0.1580 -0.6868
  276MOL0     O37958   4.698   8.087   5.568  0.4877 -0.3179 -0.1243
  276MOL0     C37959   4.768   8.150   5.463 -0.3545  0.2441  0.6397
  276MOL0     C37960   4.824   8.280   5.512  0.0697  0.3310 -1.1068
  276MOL0     C37961   4.932   8.247   5.622 -1.1814  0.1804 -0.5328
  276MOL0     C37962   4.933   8.357   5.724  0.5042 -0.1267 -0.1775
  276MOL0     C37963   5.060   8.360   5.794  0.2304  0.6773  0.1569
  276MOL0     C37964   5.098   8.490   5.872  0.6244  0.3610  0.8973
  276MOL0     C37965   5.003   8.551   5.967  0.5266  0.5056 -0.1689
  276MOL0     C37966   4.985   8.469   6.094  0.8553  0.3177  0.1470
  276MOL0     N37967   5.105   8.458   6.174 -0.2505  0.1420 -0.1592
  276MOL0     C37968   5.190   8.564   6.217  0.2678  1.0211  0.6543
  276MOL0     C37969   5.289   8.493   6.278 -0.0095 -0.0532  0.6324
  276MOL0     C37970   5.404   8.565   6.357 -0.4062 -0.2334  0.0747
  276MOL0     C37971   5.544   8.547   6.305 -0.5077 -0.2534 -0.5419
  276MOL0     C37972   5.573   8.645   6.187 -0.4419 -0.2805  0.7860
  276MOL0     C37973   5.719   8.637   6.120  0.5220 -0.6641 -0.7133
  276MOL0     O37974   5.835   8.624   6.207  0.7654  0.1044 -0.3570
  276MOL0     C37975   5.958   8.598   6.153 -0.4112 -0.2463 -0.0955
  276MOL0     C37976   5.986   8.619   6.014 -0.1493  0.6922  0.8783
  276MOL0     C37977   6.109   8.579   5.955 -0.4809  0.5333 -0.1236
  276MOL0     C37978   6.143   8.627   5.820  0.8163  0.1739  0.3078
  276MOL0     C37979   6.205   8.523   6.040 -0.5066  0.3505 -0.3301
  276MOL0     C37980   6.338   8.474   5.990 -0.4077 -0.1436 -0.4761
  276MOL0     O37981   6.431   8.448   6.090  1.2896 -0.0416  0.1424
  276MOL0     C37982   6.558   8.428   6.051 -0.1290  0.2866  1.0838
  276MOL0     C37983   6.646   8.537   6.034  0.3386 -0.1108  0.2381
  276MOL0     C37984   6.778   8.511   5.995 -0.1028 -0.1500  0.2589
  276MOL0     C37985   6.822   8.378   5.978  0.1572 -0.1883 -0.3944
  276MOL0     O37986   6.949   8.331   5.932  0.3987 -0.6122 -0.0605
  276MOL0     C37987   7.055   8.422   5.920  0.2322 -0.6148 -0.9907
  276MOL0     C37988   7.184   8.364   5.851 -0.4292 -0.4385 -0.2439
  276MOL0     C37989   7.318   8.414   5.919  0.7264  0.8952 -0.3317
  276MOL0     C37990   7.456   8.368   5.868  0.5554  0.3039  0.3376
  276MOL0     C37991   7.501   8.221   5.872  0.2495 -0.5035  0.0223
  276MOL0     C37992   7.638   8.192   5.818  0.7327  0.4534  0.4574
  276MOL0     C37993   7.673   8.046   5.820  0.4395  0.3470  0.0116
  276MOL0     C37994   7.825   8.017   5.793  1.0052  0.7479 -0.9079
  276MOL0    Cl37995   7.902   8.099   5.649  0.5838 -0.2546 -0.0590
  276MOL0     C37996   6.734   8.268   5.989  0.6369  0.0670  0.5966
  276MOL0     C37997   6.605   8.298   6.025  0.1855 -0.3601 -0.4710
  276MOL0     O37998   6.360   8.465   5.872  0.0425  0.3169 -0.2225
  276MOL0     C37999   6.173   8.520   6.183 -0.0766  0.3213  0.4169
  276MOL0     C38000   6.052   8.553   6.232 -0.3100  0.0348 -1.0879
  276MOL0     N38001   5.266   8.360   6.272 -0.2156  0.1623  0.2441
  276MOL0     N38002   5.154   8.338   6.216 -0.0083  0.7692 -0.2685
  276MOL0     C38003   4.583   7.894   5.649 -0.4721  0.2585  0.0787
  276MOL0     C38004   4.491   7.788   5.633  0.9288 -0.2487  0.2620
  276MOL0     C38005   4.131   7.520   5.586 -0.3916 -0.4341 -0.2774
  276MOL0     C38006   4.005   7.538   5.656  0.7458  0.1351  1.2637
  276MOL0     C38007   3.914   7.432   5.654 -0.2662  0.7665 -0.5703
  276MOL0     C38008   3.957   7.306   5.615  0.6096  0.5384 -0.2237
  276MOL0     O38009   3.876   7.197   5.617 -0.3045 -0.7917 -0.8890
  276MOL0     C38010   3.746   7.204   5.560 -0.1835  0.0871  0.3984
  276MOL0     C38011   3.680   7.074   5.526 -0.5792 -0.2552 -0.2827
  276MOL0     C38012   3.745   6.997   5.412  0.1252 -0.3936  0.9541
  276MOL0     C38013   3.656   6.896   5.352 -0.8117  0.9333 -0.5222
  276MOL0     C38014   3.707   6.825   5.238 -0.2665  0.2900 -0.2939
  276MOL0     C38015   3.767   6.774   5.145 -0.1392 -0.3590 -0.4525
  276MOL0     C38016   4.081   7.285   5.557  0.5490 -0.2201  0.3960
  276MOL0     C38017   4.168   7.389   5.540 -0.4317  0.6531  0.1470
  276MOL0     C38018   4.299   7.351   5.484 -1.2604  0.3242 -1.0937
  276MOL0     H38019   4.370   7.857   5.324 -1.4520 -0.4644  1.3267
  276MOL0     H38020   4.522   8.050   5.349 -4.1477  1.1942  0.9496
  276MOL0     H38021   4.700   8.171   5.379  0.7636  1.8845  0.1116
  276MOL0     H38022   4.843   8.083   5.420 -0.3553 -0.8152  2.2300
  276MOL0     H38023   4.870   8.324   5.424  0.4545 -0.4471 -1.3083
  276MOL0     H38024   4.744   8.346   5.548  1.2868  1.9969 -1.3217
  276MOL0     H38025   4.916   8.152   5.674  0.9174 -0.6189 -1.2410
  276MOL0     H38026   5.027   8.233   5.570 -1.2780 -0.7418 -0.4765
  276MOL0     H38027   4.933   8.448   5.663  0.9776 -0.4665 -0.6978
  276MOL0     H38028   4.846   8.357   5.789  0.3811  2.3899 -0.2440
  276MOL0     H38029   5.145   8.332   5.732 -1.0573  1.8205 -2.2579
  276MOL0     H38030   5.048   8.280   5.868 -1.1113 -1.2221 -1.9710
  276MOL0     H38031   5.188   8.473   5.932  0.5938  2.2866  1.5601
  276MOL0     H38032   5.130   8.567   5.801 -3.1061  0.9536 -0.3665
  276MOL0     H38033   4.903   8.547   5.923  0.7384 -1.3351 -0.5775
  276MOL0     H38034   5.034   8.651   5.997 -0.3827 -0.1271  3.2837
  276MOL0     H38035   4.908   8.521   6.152 -0.7395 -2.4818  0.7380
  276MOL0     H38036   4.944   8.370   6.070  1.4440 -0.0139  0.5076
  276MOL0     H38037   5.179   8.671   6.224  2.9380  1.4685 -0.7355
  276MOL0     H38038   5.406   8.530   6.461  2.1974 -1.5237 -0.3110
  276MOL0     H38039   5.384   8.672   6.367 -2.4966 -0.4271 -1.3273
  276MOL0     H38040   5.618   8.578   6.380  0.3747 -0.1171 -1.4473
  276MOL0     H38041   5.563   8.443   6.276 -0.4118  0.0518 -1.5932
  276MOL0     H38042   5.496   8.638   6.110 -0.5663  3.1547  0.4384
  276MOL0     H38043   5.570   8.748   6.224  0.2126  0.1601 -0.3164
  276MOL0     H38044   5.722   8.552   6.052 -0.4922 -1.9752  0.7865
  276MOL0     H38045   5.729   8.729   6.063  0.9771 -0.4189 -0.2557
  276MOL0     H38046   5.921   8.685   5.958 -0.4188 -0.6623 -0.4594
  276MOL0     H38047   6.235   8.683   5.835  1.4273 -0.1992 -1.7894
  276MOL0     H38048   6.067   8.698   5.785 -2.4467 -3.2616 -0.2281
  276MOL0     H38049   6.157   8.545   5.750  2.7083 -1.8715  2.8887
  276MOL0     H38050   6.623   8.642   6.050  0.5570 -0.3214  2.1140
  276MOL0     H38051   6.852   8.588   5.975 -0.1627  0.4272  2.1004
  276MOL0     H38052   7.042   8.511   5.857 -0.9739  1.3166  1.7948
  276MOL0     H38053   7.076   8.457   6.022  0.7585  0.9487 -1.5965
  276MOL0     H38054   7.182   8.256   5.867  1.8872 -0.6309 -0.8073
  276MOL0     H38055   7.182   8.391   5.745 -2.8667  2.3569  0.3903
  276MOL0     H38056   7.319   8.371   6.020  1.4734  2.0762  0.1772
  276MOL0     H38057   7.307   8.523   5.926  0.1185  0.8516 -0.5857
  276MOL0     H38058   7.532   8.421   5.926 -0.1176 -0.9798  2.5622
  276MOL0     H38059   7.461   8.405   5.766 -2.0346  1.5972  0.5884
  276MOL0     H38060   7.500   8.191   5.977 -2.4539 -2.8909 -0.5609
  276MOL0     H38061   7.424   8.165   5.819 -2.0951 -1.1414  3.7543
  276MOL0     H38062   7.715   8.234   5.884  0.6776 -0.3446  1.0536
  276MOL0     H38063   7.648   8.223   5.714  1.9061 -0.8270  0.1674
  276MOL0     H38064   7.615   7.991   5.746 -0.3646 -1.8512  2.1125
  276MOL0     H38065   7.635   8.000   5.912 -0.0282  1.4609  0.3885
  276MOL0     H38066   7.830   7.909   5.774 -1.8911  0.3688  0.0542
  276MOL0     H38067   7.883   8.039   5.884  0.5513 -1.5763  0.0266
  276MOL0     H38068   6.763   8.165   5.971  0.0165  0.2872 -2.3370
  276MOL0     H38069   6.537   8.214   6.024  0.0980 -0.2896 -1.0867
  276MOL0     H38070   6.232   8.469   6.258  0.1325  2.2229  1.6147
  276MOL0     H38071   6.026   8.517   6.332 -0.6795  1.0232 -0.8195
  276MOL0     H38072   4.642   7.896   5.740 -0.7132  1.3918  0.2247
  276MOL0     H38073   4.476   7.729   5.722 -0.8578  2.1921  1.7262
  276MOL0     H38074   3.985   7.633   5.705  0.5342  0.7735 -0.0278
  276MOL0     H38075   3.816   7.452   5.695  0.0660  0.9577  0.1579
  276MOL0     H38076   3.678   7.261   5.625 -0.0963  0.9911 -0.2964
  276MOL0     H38077   3.764   7.266   5.472  1.0455  0.8063  1.1329
  276MOL0     H38078   3.573   7.088   5.512 -0.7305 -0.3249  0.7474
  276MOL0     H38079   3.688   7.011   5.615  0.7258 -0.2201 -0.3567
  276MOL0     H38080   3.779   7.063   5.332 -0.6625 -1.2913 -0.1603
  276MOL0     H38081   3.840   6.953   5.443  1.3387  0.3021 -1.5055
  276MOL0     H38082   3.571   6.947   5.304 -1.1566 -0.1370 -1.0832
  276MOL0     H38083   3.622   6.829   5.431  3.0797  0.0801  0.5967
  276MOL0     H38084   3.815   6.727   5.061  0.2694 -0.2980 -0.2546
  276MOL0     H38085   4.106   7.188   5.515 -0.4890 -0.0032 -0.7849
  276MOL0     H38086   4.378   7.423   5.508 -2.2161  0.8047  0.8621
  276MOL0     H38087   4.321   7.262   5.542 -1.0037  0.4523 -0.9943
  276MOL0     H38088   4.297   7.330   5.377  0.0698 -4.1075 -0.4264
  277MOL0     O38089  10.676   3.015  10.103 -0.6263  0.5724 -0.1326
  277MOL0     C38090  10.646   2.989  10.223  0.3651  0.5371 -0.3449
  277MOL0     O38091  10.520   2.994  10.282  0.2066 -0.1197  0.3703
  277MOL0     C38092  10.414   3.010  10.197 -0.3443 -0.3967 -0.7760
  277MOL0     C38093  10.320   3.119  10.201 -0.3572 -0.0395 -0.5378
  277MOL0     C38094  10.216   3.122  10.108 -0.3918 -0.3958 -0.1726
  277MOL0     C38095  10.190   3.022  10.008  0.1487 -0.3303 -0.1347
  277MOL0     O38096  10.095   3.031   9.915 -0.0864  0.2049  0.1511
  277MOL0     C38097   9.983   3.119   9.938 -0.2146 -0.2942  0.4957
  277MOL0     C38098   9.852   3.089   9.856  0.1518  0.3359 -0.1437
  277MOL0     C38099   9.746   3.185   9.914 -1.1214 -0.0055  0.1112
  277MOL0     C38100   9.614   3.170   9.826  0.0657  0.6974 -0.1488
  277MOL0     C38101   9.480   3.224   9.889 -0.4457  0.5015 -0.2559
  277MOL0     C38102   9.358   3.155   9.840  0.5434  0.5148 -0.1420
  277MOL0     C38103   9.232   3.200   9.912 -0.6355 -0.9903  0.3314
  277MOL0     C38104   9.106   3.142   9.844 -0.4613  0.5769  0.2207
  277MOL0     N38105   9.038   3.249   9.769  0.6510  0.2205  0.6503
  277MOL0     C38106   8.945   3.330   9.825 -0.0078 -0.4083 -0.3130
  277MOL0     C38107   8.886   3.406   9.732 -0.3489 -0.2243  0.3387
  277MOL0     C38108   8.772   3.502   9.770 -0.6583 -0.7794 -0.0175
  277MOL0     C38109   8.839   3.644   9.794  0.0887  0.5518  0.1177
  277MOL0     C38110   8.739   3.747   9.830  0.5754 -0.7409 -0.3055
  277MOL0     C38111   8.658   3.796   9.708  0.1982 -0.2256 -0.1380
  277MOL0     O38112   8.515   3.809   9.735 -0.6615  1.2293 -0.1201
  277MOL0     C38113   8.438   3.888   9.653  0.5742 -0.0334  0.5544
  277MOL0     C38114   8.302   3.910   9.697  0.1136 -0.5128  0.4225
  277MOL0     C38115   8.226   4.012   9.642 -1.3043 -0.1572  0.1293
  277MOL0     C38116   8.095   4.030   9.705 -0.1764 -0.4372  0.0197
  277MOL0     C38117   8.278   4.101   9.542 -0.8112  0.3881  0.4512
  277MOL0     C38118   8.218   4.220   9.492  0.1121  0.8376 -0.1860
  277MOL0     O38119   8.274   4.293   9.394 -0.2723  0.0434  0.7847
  277MOL0     C38120   8.232   4.410   9.344 -0.5671  0.0051  0.8388
  277MOL0     C38121   8.238   4.531   9.408  0.1697 -0.8175  1.0654
  277MOL0     C38122   8.195   4.649   9.348 -0.2656  0.6594 -0.6018
  277MOL0     C38123   8.127   4.647   9.223  0.4397 -0.1848 -0.1879
  277MOL0     O38124   8.063   4.751   9.159 -0.1941  0.8774  0.2061
  277MOL0     C38125   8.047   4.872   9.229 -0.9353  0.2665 -0.4564
  277MOL0     C38126   7.985   4.974   9.133  0.2914  0.1665  0.5643
  277MOL0     C38127   7.939   5.104   9.197  0.1781  0.0549 -0.6491
  277MOL0     C38128   8.059   5.192   9.195 -0.4409  0.0537 -0.1540
  277MOL0     C38129   8.058   5.314   9.286  0.1718  0.1104 -1.5873
  277MOL0     C38130   7.953   5.425   9.263 -0.6257  0.9580 -0.3767
  277MOL0     C38131   8.000   5.502   9.145 -0.2105  0.0806  0.5061
  277MOL0     C38132   7.954   5.642   9.134  0.0657 -0.0828  0.4376
  277MOL0    Cl38133   7.776   5.626   9.096 -0.3008  0.4030  0.1627
  277MOL0     C38134   8.124   4.529   9.150  0.1815 -0.1295 -0.0615
  277MOL0     C38135   8.176   4.418   9.216 -0.2772  0.7623 -0.7291
  277MOL0     O38136   8.119   4.255   9.543  0.3367  0.0346  0.1865
  277MOL0     C38137   8.411   4.072   9.500 -0.1147  0.1975  0.1608
  277MOL0     C38138   8.490   3.967   9.550  0.2996 -0.7328 -0.7518
  277MOL0     N38139   8.934   3.355   9.609  0.4907 -0.5530  0.5891
  277MOL0     N38140   9.023   3.272   9.633  0.2894  0.7784  0.5750
  277MOL0     C38141  10.275   2.915  10.018 -0.4674 -0.7611  0.8256
  277MOL0     C38142  10.385   2.905  10.106  0.7487 -0.5183 -0.3114
  277MOL0     C38143  10.760   2.945  10.310  0.8766 -0.3493  0.1542
  277MOL0     C38144  10.885   2.906  10.256  0.3193 -0.3599 -0.3162
  277MOL0     C38145  10.985   2.855  10.340 -0.2773 -1.2651 -0.2519
  277MOL0     C38146  10.972   2.843  10.479 -0.2706  0.7705  0.0299
  277MOL0     O38147  11.066   2.798  10.573  0.5806 -0.2175  0.5415
  277MOL0     C38148  11.181   2.726  10.521  1.2215 -0.7119  0.0983
  277MOL0     C38149  11.313   2.755  10.604  1.3830  0.3200  0.5262
  277MOL0     C38150  11.429   2.702  10.523 -0.1702  0.4517 -0.5556
  277MOL0     C38151  11.569   2.749  10.583  0.0486  0.0138 -0.2920
  277MOL0     C38152  11.682   2.684  10.514  0.4384 -0.7976 -0.0013
  277MOL0     C38153  11.778   2.629  10.464 -0.4836 -0.3317  0.9604
  277MOL0     C38154  10.859   2.892  10.538 -0.1299  0.0068 -0.4748
  277MOL0     C38155  10.753   2.934  10.448 -0.8003 -0.2328 -0.0826
  277MOL0     C38156  10.637   2.974  10.522  0.0519  0.4520 -0.6239
  277MOL0     H38157  10.338   3.200  10.272  1.1806 -1.6073  0.9774
  277MOL0     H38158  10.149   3.204  10.134 -1.3830 -1.5557  1.0943
  277MOL0     H38159  10.020   3.220   9.916  0.7198 -1.1883 -2.5292
  277MOL0     H38160   9.949   3.117  10.041 -2.3303 -0.0055 -0.1427
  277MOL0     H38161   9.868   3.109   9.750 -1.3540  0.4008 -0.3861
  277MOL0     H38162   9.834   2.982   9.873  0.2299  0.1807 -1.0049
  277MOL0     H38163   9.723   3.160  10.018  0.9760  3.3841  1.5824
  277MOL0     H38164   9.776   3.291   9.921  1.1746 -0.6354  0.6151
  277MOL0     H38165   9.620   3.228   9.733  0.2928  0.6201 -0.1842
  277MOL0     H38166   9.596   3.064   9.806 -2.8589  0.6807  2.0173
  277MOL0     H38167   9.464   3.328   9.861 -7.0362 -0.6896 -2.8135
  277MOL0     H38168   9.482   3.210   9.997 -1.4187 -1.1642 -0.4220
  277MOL0     H38169   9.360   3.172   9.732  2.5045 -0.1158 -0.2462
  277MOL0     H38170   9.360   3.047   9.856 -0.4218  0.1272 -2.2025
  277MOL0     H38171   9.225   3.309   9.924  1.4680 -0.8240  0.5141
  277MOL0     H38172   9.243   3.160  10.013  3.4372 -1.6156 -0.1946
  277MOL0     H38173   9.142   3.071   9.769 -0.4252  1.9660 -1.1082
  277MOL0     H38174   9.040   3.094   9.917 -0.6102  1.0028  0.3716
  277MOL0     H38175   8.914   3.328   9.929 -1.2888 -3.5042 -0.6525
  277MOL0     H38176   8.720   3.458   9.856 -1.0465 -0.9042 -0.3095
  277MOL0     H38177   8.698   3.503   9.689 -0.7697 -0.7798  0.0828
  277MOL0     H38178   8.923   3.647   9.865 -0.9049  3.8790  1.3376
  277MOL0     H38179   8.886   3.666   9.698  0.7635  1.2844  0.6036
  277MOL0     H38180   8.670   3.696   9.897 -0.0246 -2.7808 -2.3198
  277MOL0     H38181   8.784   3.840   9.866 -1.6557 -0.0733  0.8891
  277MOL0     H38182   8.694   3.892   9.669 -1.9214 -0.7878 -4.0408
  277MOL0     H38183   8.679   3.724   9.629  4.7901  0.1245  0.5106
  277MOL0     H38184   8.271   3.856   9.785 -4.3539  0.7937 -0.1330
  277MOL0     H38185   8.018   4.019   9.628  0.9973 -0.8279 -1.1584
  277MOL0     H38186   8.085   4.130   9.747  0.0274 -0.3447 -0.1457
  277MOL0     H38187   8.068   3.950   9.774  1.5437 -0.6780  0.4616
  277MOL0     H38188   8.269   4.535   9.512  3.3897  2.8419  0.2087
  277MOL0     H38189   8.206   4.733   9.416  2.6545 -2.7709  3.7745
  277MOL0     H38190   7.986   4.857   9.318  0.1600  1.5818  0.5609
  277MOL0     H38191   8.143   4.917   9.257 -0.7755 -0.3235 -0.0497
  277MOL0     H38192   8.050   4.984   9.045 -0.6285 -1.4674 -0.3669
  277MOL0     H38193   7.895   4.932   9.086  0.2093 -0.6645  1.4419
  277MOL0     H38194   7.898   5.078   9.296 -1.8430 -1.7973 -1.8819
  277MOL0     H38195   7.851   5.140   9.143 -1.3433 -0.6111  1.2548
  277MOL0     H38196   8.071   5.227   9.092 -3.1609  1.4958 -0.0765
  277MOL0     H38197   8.147   5.132   9.222 -0.3107  0.5414  0.5248
  277MOL0     H38198   8.030   5.275   9.384  1.2261  0.4494 -1.1371
  277MOL0     H38199   8.157   5.360   9.299  1.0116 -1.2905 -2.7482
  277MOL0     H38200   7.945   5.498   9.345 -0.2313 -0.3714  0.8923
  277MOL0     H38201   7.855   5.380   9.246  1.5191 -4.0289 -1.3107
  277MOL0     H38202   7.967   5.451   9.054  4.4667  2.3523 -2.8549
  277MOL0     H38203   8.109   5.498   9.137 -0.1182  1.1789  1.0596
  277MOL0     H38204   8.012   5.692   9.055 -3.4852  1.4733 -1.3954
  277MOL0     H38205   7.969   5.700   9.226  1.8485  1.2290 -0.6104
  277MOL0     H38206   8.081   4.505   9.054  1.3912 -2.6255 -0.0533
  277MOL0     H38207   8.164   4.332   9.150  1.6029  0.3129 -0.5671
  277MOL0     H38208   8.462   4.141   9.434  2.8206 -1.4842  0.4927
  277MOL0     H38209   8.592   3.968   9.514  1.5226  1.5125  2.2903
  277MOL0     H38210  10.269   2.827   9.955  1.6523 -0.4765  0.1602
  277MOL0     H38211  10.451   2.818  10.111 -0.5516 -1.4817  0.6810
  277MOL0     H38212  10.889   2.912  10.147 -0.0769 -2.7174 -0.5082
  277MOL0     H38213  11.080   2.830  10.293 -0.3963 -1.1259 -0.5667
  277MOL0     H38214  11.154   2.620  10.525  1.9583 -0.8944  0.5753
  277MOL0     H38215  11.212   2.751  10.419  1.9060  0.6905  0.6223
  277MOL0     H38216  11.291   2.713  10.703 -0.0013  2.8124  1.3637
  277MOL0     H38217  11.312   2.865  10.609  1.4632  0.4596 -1.6699
  277MOL0     H38218  11.422   2.594  10.511 -0.2885  0.3571  0.2972
  277MOL0     H38219  11.421   2.734  10.418  0.4466 -2.0610 -1.4371
  277MOL0     H38220  11.572   2.736  10.691  2.0601  1.3336 -0.1315
  277MOL0     H38221  11.579   2.856  10.559  1.2436 -0.8070 -4.1781
  277MOL0     H38222  11.850   2.574  10.407  0.6012  2.1044 -0.1627
  277MOL0     H38223  10.860   2.892  10.647  0.4526 -0.4731 -0.4720
  277MOL0     H38224  10.651   2.958  10.630 -0.3243 -1.6492 -0.8496
  277MOL0     H38225  10.598   3.077  10.520 -0.4076  0.3065  0.0935
  277MOL0     H38226  10.557   2.904  10.496  0.1405  0.5166 -1.0653
  278MOL0     O38227   1.259   6.134  11.315 -0.6270  0.1024 -0.2536
  278MOL0     C38228   1.172   6.220  11.294  0.0519 -0.5258 -0.5547
  278MOL0     O38229   1.167   6.303  11.191  0.2181 -0.3273 -0.5019
  278MOL0     C38230   1.265   6.331  11.094  1.7182 -0.3927 -0.0321
  278MOL0     C38231   1.404   6.306  11.098  0.0590  1.1838 -0.0162
  278MOL0     C38232   1.491   6.344  11.006  0.1946  0.0431  0.0218
  278MOL0     C38233   1.447   6.405  10.888 -0.4007 -0.5105 -0.0808
  278MOL0     O38234   1.550   6.446  10.814 -0.3037 -0.3385  0.3267
  278MOL0     C38235   1.514   6.541  10.703 -0.0376  0.5213  0.4554
  278MOL0     C38236   1.628   6.636  10.684 -1.1063  0.6464  1.0380
  278MOL0     C38237   1.759   6.562  10.630  0.2244 -0.4044  0.4275
  278MOL0     C38238   1.863   6.672  10.594  0.1107  0.3825  0.4758
  278MOL0     C38239   1.998   6.611  10.549 -0.0736 -0.2566  0.2734
  278MOL0     C38240   2.008   6.586  10.402  0.0024  0.3642  0.5343
  278MOL0     C38241   2.160   6.583  10.359 -0.2745  0.1640  0.6012
  278MOL0     C38242   2.195   6.731  10.328 -0.2823  0.1739  0.1378
  278MOL0     N38243   2.329   6.754  10.280 -0.2370  0.1602 -0.9311
  278MOL0     C38244   2.446   6.772  10.356  0.7655  0.2295 -1.0331
  278MOL0     C38245   2.544   6.792  10.267  0.3632  0.5120 -0.1364
  278MOL0     C38246   2.688   6.823  10.291 -0.9776  0.2065 -0.7289
  278MOL0     C38247   2.752   6.738  10.403  0.0741 -0.1686 -0.1921
  278MOL0     C38248   2.881   6.805  10.445  0.0130  0.1923 -1.0982
  278MOL0     C38249   2.990   6.796  10.337  0.4139  0.1159 -0.6690
  278MOL0     O38250   3.018   6.666  10.307 -0.8851  0.6131 -0.2200
  278MOL0     C38251   3.136   6.601  10.339  0.1311 -0.6340 -0.9342
  278MOL0     C38252   3.234   6.648  10.434 -0.0608  0.0959  0.0461
  278MOL0     C38253   3.359   6.591  10.431  0.3897 -0.8490 -0.0948
  278MOL0     C38254   3.459   6.676  10.501 -0.4395 -0.2630 -0.1860
  278MOL0     C38255   3.393   6.488  10.349 -0.5071  0.3604 -0.3820
  278MOL0     C38256   3.529   6.437  10.340  0.8123 -0.2665  0.1139
  278MOL0     O38257   3.609   6.438  10.452 -0.3715 -0.3843 -0.0453
  278MOL0     C38258   3.720   6.357  10.460 -0.4662  0.6286  1.5465
  278MOL0     C38259   3.813   6.392  10.557 -0.7346 -0.0303 -0.1577
  278MOL0     C38260   3.928   6.310  10.577  0.2942  0.3601 -0.1164
  278MOL0     C38261   3.947   6.195  10.501 -0.5790 -0.6127 -0.0933
  278MOL0     O38262   4.053   6.108  10.524 -0.0581  0.4573 -0.0913
  278MOL0     C38263   4.058   5.971  10.460  0.8112 -0.1520 -0.4453
  278MOL0     C38264   4.198   5.912  10.494 -0.8425  0.5518  0.3583
  278MOL0     C38265   4.214   5.874  10.646  0.3525 -0.0342  0.0021
  278MOL0     C38266   4.353   5.898  10.698 -0.4215 -0.6057 -0.0267
  278MOL0     C38267   4.350   5.874  10.846  0.2954  0.6346  0.8277
  278MOL0     C38268   4.476   5.931  10.909 -0.4192 -0.2177 -0.3228
  278MOL0     C38269   4.476   5.894  11.058  0.9661  0.3039  0.0646
  278MOL0     C38270   4.603   5.934  11.122 -0.2962  0.0724  0.0259
  278MOL0    Cl38271   4.623   6.116  11.115 -0.2763 -0.1587 -0.1029
  278MOL0     C38272   3.850   6.158  10.404 -0.5851 -0.4618 -0.2800
  278MOL0     C38273   3.739   6.239  10.390 -0.2313 -0.6360  0.0377
  278MOL0     O38274   3.562   6.390  10.229  0.0956 -0.1970 -0.1293
  278MOL0     C38275   3.291   6.442  10.265 -0.0279  0.0983  1.3678
  278MOL0     C38276   3.160   6.497  10.264 -0.6510 -0.2583  0.9247
  278MOL0     N38277   2.487   6.768  10.140 -0.3738  0.3293 -0.6226
  278MOL0     N38278   2.364   6.755  10.151 -0.1301  0.8329  0.5581
  278MOL0     C38279   1.308   6.427  10.883  0.0352  0.5053  0.8211
  278MOL0     C38280   1.217   6.394  10.978 -0.7179 -0.2023 -0.1376
  278MOL0     C38281   1.050   6.209  11.378 -0.6486  0.0098 -0.9500
  278MOL0     C38282   1.043   6.102  11.470 -0.3099 -0.2236 -0.5458
  278MOL0     C38283   0.934   6.080  11.559  0.4784  0.1016 -0.1406
  278MOL0     C38284   0.833   6.177  11.569 -0.0688 -0.6367  0.1347
  278MOL0     O38285   0.728   6.152  11.659  0.0551  0.1956  0.2480
  278MOL0     C38286   0.613   6.235  11.668 -0.8345 -0.3362 -0.5940
  278MOL0     C38287   0.514   6.195  11.558 -0.2443 -0.0179  0.2400
  278MOL0     C38288   0.386   6.269  11.537 -1.5187 -0.2353 -0.2397
  278MOL0     C38289   0.412   6.420  11.513 -1.1118  0.1134 -0.0820
  278MOL0     C38290   0.331   6.463  11.397 -0.0445 -0.2439  1.0981
  278MOL0     C38291   0.246   6.499  11.313  0.2647  0.7974  0.3644
  278MOL0     C38292   0.838   6.283  11.477  0.5586 -0.5833 -0.2804
  278MOL0     C38293   0.946   6.299  11.385  0.4446  0.3755  0.0410
  278MOL0     C38294   0.939   6.422  11.299  0.1219 -0.9519 -0.3530
  278MOL0     H38295   1.439   6.250  11.185 -1.8477  0.8566  0.5859
  278MOL0     H38296   1.595   6.319  11.023  0.7023  1.9047 -0.1208
  278MOL0     H38297   1.420   6.594  10.720 -2.6987 -2.7069 -2.7180
  278MOL0     H38298   1.491   6.484  10.613 -0.5411  2.3857 -0.6520
  278MOL0     H38299   1.605   6.713  10.610  1.5671 -0.0624 -0.6402
  278MOL0     H38300   1.646   6.684  10.780 -1.0580 -0.5527  1.6522
  278MOL0     H38301   1.803   6.504  10.712 -2.0343 -0.4467  1.7098
  278MOL0     H38302   1.745   6.490  10.549 -1.4414  0.6258 -0.2605
  278MOL0     H38303   1.831   6.739  10.514  0.8621  2.2450  1.6583
  278MOL0     H38304   1.890   6.732  10.682 -0.8035  0.2893  0.8307
  278MOL0     H38305   2.021   6.520  10.605  0.7697  0.0661  0.4586
  278MOL0     H38306   2.082   6.678  10.572 -0.7002  0.5565  0.2434
  278MOL0     H38307   1.969   6.485  10.387  2.6334 -0.6814  0.1620
  278MOL0     H38308   1.962   6.655  10.331  1.9069  0.1517 -0.9926
  278MOL0     H38309   2.178   6.509  10.280 -0.7443  0.0386  0.6062
  278MOL0     H38310   2.214   6.542  10.444 -0.7088 -1.7783  0.0005
  278MOL0     H38311   2.117   6.767  10.260 -0.9802 -0.6609  0.4754
  278MOL0     H38312   2.185   6.787  10.421  1.0128 -0.2586  0.5571
  278MOL0     H38313   2.443   6.767  10.465 -0.9689 -2.1091 -1.1132
  278MOL0     H38314   2.709   6.929  10.304 -1.6289  0.2578 -0.0753
  278MOL0     H38315   2.740   6.794  10.199  1.8623 -0.3954  0.9222
  278MOL0     H38316   2.686   6.732  10.490 -1.6860 -3.6418 -1.5666
  278MOL0     H38317   2.768   6.634  10.372 -0.4876  0.1239 -1.5064
  278MOL0     H38318   2.858   6.906  10.479  2.4140  0.0114  1.4934
  278MOL0     H38319   2.913   6.743  10.528 -1.5780  1.6693  0.7008
  278MOL0     H38320   2.963   6.862  10.253 -0.6314  1.5786  0.7597
  278MOL0     H38321   3.076   6.839  10.389 -1.2173  3.1565 -0.2171
  278MOL0     H38322   3.206   6.729  10.501  0.2731  0.2270  0.0285
  278MOL0     H38323   3.493   6.621  10.590  1.2020 -1.3424 -1.4237
  278MOL0     H38324   3.426   6.775  10.535 -0.5914 -0.5574  0.5442
  278MOL0     H38325   3.549   6.690  10.441 -0.1216  0.1748  0.3730
  278MOL0     H38326   3.795   6.480  10.616  2.3230 -1.4938  3.3036
  278MOL0     H38327   4.001   6.349  10.647  1.5576  0.5501 -1.4916
  278MOL0     H38328   3.977   5.907  10.494  0.8401 -1.0983 -2.0260
  278MOL0     H38329   4.046   5.970  10.351 -0.3668 -1.4830 -0.3256
  278MOL0     H38330   4.204   5.823  10.432 -2.7204  0.7926 -0.2274
  278MOL0     H38331   4.277   5.977  10.454 -0.8497  1.1513  1.2807
  278MOL0     H38332   4.186   5.770  10.664 -0.4405  0.4234  1.5294
  278MOL0     H38333   4.147   5.934  10.708  0.2976 -0.7910  0.6983
  278MOL0     H38334   4.379   6.004  10.689  3.3865 -1.0534  2.8512
  278MOL0     H38335   4.433   5.836  10.657  0.6321 -1.3063  2.8445
  278MOL0     H38336   4.257   5.915  10.887  0.4593  0.2148  1.6485
  278MOL0     H38337   4.345   5.768  10.875  0.2259 -0.1486 -1.7521
  278MOL0     H38338   4.478   6.039  10.891 -1.4601  0.2424  2.0059
  278MOL0     H38339   4.561   5.883  10.860  0.0932  0.6255 -0.2868
  278MOL0     H38340   4.451   5.788  11.072 -0.1186  0.7222  1.5495
  278MOL0     H38341   4.399   5.947  11.114 -2.1534 -0.7888 -2.8994
  278MOL0     H38342   4.693   5.893  11.075 -0.7843  0.0486 -0.9075
  278MOL0     H38343   4.588   5.908  11.227 -3.6341  0.3520 -0.2832
  278MOL0     H38344   3.862   6.076  10.334  1.7252  1.5209 -2.3650
  278MOL0     H38345   3.654   6.220  10.326 -1.1618 -0.0190  1.0554
  278MOL0     H38346   3.305   6.353  10.205 -0.0105  0.8548  0.2136
  278MOL0     H38347   3.080   6.455  10.205  0.1869 -0.5769 -0.0149
  278MOL0     H38348   1.266   6.467  10.792  0.1734 -0.7981  0.1669
  278MOL0     H38349   1.109   6.408  10.972 -0.7282 -0.8036 -1.8267
  278MOL0     H38350   1.123   6.028  11.473 -0.8845 -0.8309  0.1714
  278MOL0     H38351   0.928   5.992  11.623  3.7129  0.9928  1.6303
  278MOL0     H38352   0.570   6.216  11.767  0.5852  1.1215  0.3609
  278MOL0     H38353   0.638   6.342  11.667  1.4967 -0.8321 -0.7347
  278MOL0     H38354   0.492   6.089  11.573 -0.5541  0.1023  0.6476
  278MOL0     H38355   0.566   6.208  11.463  3.1079 -0.8930  1.7886
  278MOL0     H38356   0.337   6.227  11.449  2.6269 -3.0701 -1.4428
  278MOL0     H38357   0.325   6.248  11.626 -2.9167 -1.0603 -1.3529
  278MOL0     H38358   0.516   6.440  11.488 -1.0138 -1.1500 -0.7424
  278MOL0     H38359   0.380   6.474  11.603  2.1358  2.9760 -0.4541
  278MOL0     H38360   0.175   6.535  11.241  1.9973  0.9830 -1.3378
  278MOL0     H38361   0.754   6.351  11.491  1.7816  0.8712  0.2257
  278MOL0     H38362   0.932   6.377  11.199  2.2429 -0.3897 -0.8193
  278MOL0     H38363   0.869   6.497  11.336  0.5599  0.8472 -2.9056
  278MOL0     H38364   1.038   6.469  11.301 -0.1500 -0.3703 -0.5265
  279MOL0     O38365  10.141   1.516   1.586 -0.0289 -0.2526  0.1396
  279MOL0     C38366  10.054   1.588   1.550 -0.4246 -1.2912 -0.6338
  279MOL0     O38367  10.063   1.725   1.531  0.4193 -0.4326 -0.0898
  279MOL0     C38368  10.170   1.805   1.549 -0.0767 -0.8652 -0.0089
  279MOL0     C38369  10.302   1.764   1.516  0.5995 -0.3946  0.3988
  279MOL0     C38370  10.411   1.849   1.517  0.3936  0.9585  0.7504
  279MOL0     C38371  10.381   1.992   1.547 -1.1235  0.1644  0.3387
  279MOL0     O38372  10.491   2.081   1.537  0.4911  0.7944  0.0118
  279MOL0     C38373  10.468   2.217   1.585  0.6792 -0.5051 -0.3442
  279MOL0     C38374  10.599   2.302   1.579 -0.5202  0.0206 -0.4906
  279MOL0     C38375  10.688   2.272   1.713  0.0225 -0.0201 -0.4522
  279MOL0     C38376  10.638   2.362   1.835  0.6893  0.7538  0.2628
  279MOL0     C38377  10.733   2.340   1.954 -0.6984 -0.0412  0.1385
  279MOL0     C38378  10.694   2.413   2.084 -0.5832  0.3896 -0.2509
  279MOL0     C38379  10.685   2.315   2.204  0.3398 -0.4881 -0.3484
  279MOL0     C38380  10.667   2.390   2.341  0.0964 -0.1986  0.5804
  279MOL0     N38381  10.777   2.468   2.392 -0.3907  0.3040  0.3077
  279MOL0     C38382  10.909   2.424   2.379 -0.0799 -0.4034 -0.5941
  279MOL0     C38383  10.981   2.512   2.451  0.1298  0.4118 -0.5717
  279MOL0     C38384  11.126   2.488   2.473  0.5796 -0.3341 -0.3424
  279MOL0     C38385  11.203   2.570   2.578  0.1387  0.1919 -0.0078
  279MOL0     C38386  11.226   2.729   2.541  0.0390  1.2351  0.8099
  279MOL0     C38387  11.331   2.767   2.638  0.4347 -1.1535  0.3348
  279MOL0     O38388  11.320   2.913   2.652 -0.6912  0.2252  0.1387
  279MOL0     C38389  11.369   2.964   2.772 -0.5498 -0.4560  0.5847
  279MOL0     C38390  11.327   3.089   2.807  0.7709  0.3803 -0.1887
  279MOL0     C38391  11.374   3.156   2.924 -0.5764  0.6205 -0.4718
  279MOL0     C38392  11.328   3.304   2.942  0.1141 -0.0859  0.4459
  279MOL0     C38393  11.460   3.082   3.018 -0.4481 -0.5146  0.4548
  279MOL0     C38394  11.514   3.138   3.146 -0.0648 -0.4005 -0.5201
  279MOL0     O38395  11.493   3.270   3.176 -0.0310 -0.3464 -0.2955
  279MOL0     C38396  11.470   3.291   3.310 -0.4638 -0.3075 -0.5012
  279MOL0     C38397  11.346   3.321   3.350  0.3449 -0.1960  0.7009
  279MOL0     C38398  11.326   3.343   3.484 -0.2194 -0.4200  1.2042
  279MOL0     C38399  11.429   3.350   3.579 -0.2992  0.0805 -0.3373
  279MOL0     O38400  11.375   3.384   3.699 -0.2467  0.1944 -0.1862
  279MOL0     C38401  11.462   3.442   3.794 -0.1307  0.7169 -0.3998
  279MOL0     C38402  11.384   3.483   3.919 -0.1236 -0.6760 -0.3782
  279MOL0     C38403  11.285   3.591   3.899  0.8410  0.2951 -0.2919
  279MOL0     C38404  11.148   3.579   3.990 -0.2280  0.0530  0.7663
  279MOL0     C38405  11.046   3.695   3.944 -0.1030 -0.2601  0.1204
  279MOL0     C38406  10.912   3.696   4.031 -0.3823 -0.6985 -0.5452
  279MOL0     C38407  10.822   3.823   3.994 -0.1885  0.0653 -0.2002
  279MOL0     C38408  10.816   3.864   3.857  0.6163 -0.4658 -0.0669
  279MOL0    Cl38409  10.770   3.731   3.748  0.4156  0.1857 -0.3661
  279MOL0     C38410  11.562   3.340   3.537 -0.2408 -0.6785 -0.8732
  279MOL0     C38411  11.580   3.303   3.401 -0.8428  0.1577  0.5200
  279MOL0     O38412  11.549   3.052   3.231 -0.7617 -0.5614  0.2054
  279MOL0     C38413  11.501   2.952   2.978 -0.4020 -0.4925 -0.1604
  279MOL0     C38414  11.451   2.897   2.861 -0.3154  0.4706  0.0637
  279MOL0     N38415  10.898   2.616   2.490  0.1475  0.7523  0.0986
  279MOL0     N38416  10.776   2.593   2.452 -0.5078 -0.1969  0.0553
  279MOL0     C38417  10.246   2.031   1.563 -0.8084 -0.0228  0.1179
  279MOL0     C38418  10.142   1.940   1.550 -0.2398 -0.5288 -0.0206
  279MOL0     C38419   9.925   1.525   1.552  0.4770 -0.6040 -0.2080
  279MOL0     C38420   9.842   1.562   1.662 -0.2142 -0.2906  0.5457
  279MOL0     C38421   9.723   1.492   1.674 -0.0929 -0.8299  0.0180
  279MOL0     C38422   9.680   1.400   1.580 -0.7496 -0.1956 -0.0157
  279MOL0     O38423   9.573   1.321   1.595  0.8365 -0.2879 -0.1889
  279MOL0     C38424   9.534   1.256   1.719 -0.5613 -0.6563  0.1113
  279MOL0     C38425   9.631   1.140   1.748  1.0526  0.4514  0.0521
  279MOL0     C38426   9.566   1.045   1.855 -0.2364  0.9618  0.3005
  279MOL0     C38427   9.561   1.097   1.996 -0.2256  0.7516 -0.3354
  279MOL0     C38428   9.476   1.218   2.024  0.0395  0.7360  0.0336
  279MOL0     C38429   9.405   1.302   2.069  0.0764 -0.0561  0.7576
  279MOL0     C38430   9.768   1.363   1.477 -0.1605  0.1274 -1.1399
  279MOL0     C38431   9.890   1.425   1.459  0.9067  0.8734  0.2159
  279MOL0     C38432   9.967   1.409   1.324  0.1504  0.5248 -0.0395
  279MOL0     H38433  10.314   1.663   1.479 -0.3017  0.2983 -1.9403
  279MOL0     H38434  10.506   1.805   1.489  0.7327  1.8843  0.4049
  279MOL0     H38435  10.416   2.231   1.680 -2.7982  2.1152 -2.4037
  279MOL0     H38436  10.406   2.272   1.514 -0.5993 -0.1507  0.9956
  279MOL0     H38437  10.654   2.288   1.485 -0.5706  0.2999 -0.5614
  279MOL0     H38438  10.585   2.410   1.584 -1.0611 -0.0485 -0.4580
  279MOL0     H38439  10.678   2.166   1.739 -1.7753  0.6251  1.7753
  279MOL0     H38440  10.791   2.293   1.684  1.5794 -3.4177  1.9220
  279MOL0     H38441  10.641   2.469   1.811 -1.3141  1.4423  2.6607
  279MOL0     H38442  10.533   2.356   1.867  0.4815  0.8857 -0.3809
  279MOL0     H38443  10.828   2.379   1.916 -0.7498  3.6012  3.1668
  279MOL0     H38444  10.737   2.233   1.973  0.0230 -0.7194 -3.2056
  279MOL0     H38445  10.763   2.492   2.112  0.7607 -0.7555 -0.2459
  279MOL0     H38446  10.592   2.451   2.071 -0.1451  2.3916  1.6704
  279MOL0     H38447  10.774   2.251   2.206  1.0955  0.5250 -0.7643
  279MOL0     H38448  10.599   2.251   2.183  0.6058 -0.5047 -1.4162
  279MOL0     H38449  10.580   2.455   2.326  0.1898 -0.1217  0.3573
  279MOL0     H38450  10.636   2.317   2.416 -3.2814 -0.2401 -0.6624
  279MOL0     H38451  10.945   2.328   2.343  2.1509  0.3196 -0.3926
  279MOL0     H38452  11.173   2.492   2.374 -2.3443 -2.0324 -1.9491
  279MOL0     H38453  11.140   2.390   2.519  1.8411 -0.4326 -0.8968
  279MOL0     H38454  11.146   2.577   2.672  2.4405  3.0062  1.3409
  279MOL0     H38455  11.298   2.518   2.587  0.8272  1.3994 -0.1327
  279MOL0     H38456  11.261   2.742   2.438  1.3353  0.0897  1.0743
  279MOL0     H38457  11.131   2.781   2.553 -1.3407 -1.0678  0.4867
  279MOL0     H38458  11.301   2.712   2.727 -2.8060  1.2815  0.9569
  279MOL0     H38459  11.434   2.737   2.616  1.5785  2.0807  0.7683
  279MOL0     H38460  11.261   3.149   2.744 -0.1000 -2.4182 -2.1247
  279MOL0     H38461  11.247   3.310   3.015 -0.0888 -1.1728  0.3316
  279MOL0     H38462  11.299   3.346   2.846 -0.8384  1.2945  1.2980
  279MOL0     H38463  11.415   3.361   2.976  1.7834 -0.5742 -2.6488
  279MOL0     H38464  11.272   3.334   3.272  1.0494 -2.9247 -0.5412
  279MOL0     H38465  11.224   3.371   3.509  0.9235  3.0079  2.6275
  279MOL0     H38466  11.548   3.377   3.815 -1.4401 -0.4477  1.7124
  279MOL0     H38467  11.508   3.529   3.746  1.8322 -0.7761 -1.4230
  279MOL0     H38468  11.332   3.392   3.949 -1.8903 -0.6197 -2.9733
  279MOL0     H38469  11.459   3.512   3.993 -2.8268 -0.3714  2.4280
  279MOL0     H38470  11.269   3.591   3.791  0.9779 -1.2258 -0.3271
  279MOL0     H38471  11.336   3.688   3.898 -0.1341  0.8338  0.6509
  279MOL0     H38472  11.161   3.587   4.098 -2.0079 -2.8805  1.2860
  279MOL0     H38473  11.117   3.475   3.975  0.9930 -0.7540  3.2644
  279MOL0     H38474  11.096   3.792   3.950  0.1923 -0.4044  0.0414
  279MOL0     H38475  11.019   3.682   3.839 -1.9302  0.0854  0.5179
  279MOL0     H38476  10.932   3.699   4.138 -0.9458 -1.6363 -0.4043
  279MOL0     H38477  10.861   3.603   4.002 -3.4651  0.3403  1.1415
  279MOL0     H38478  10.870   3.900   4.053  0.0625 -2.2535  2.8633
  279MOL0     H38479  10.723   3.805   4.038 -0.5441  1.7869 -0.2317
  279MOL0     H38480  10.918   3.895   3.830 -0.5158  0.6033 -3.7010
  279MOL0     H38481  10.754   3.954   3.846  1.0299 -0.2176 -0.4350
  279MOL0     H38482  11.639   3.342   3.613 -0.9418  1.8515 -0.1026
  279MOL0     H38483  11.679   3.276   3.364 -0.7506  0.9010  0.2055
  279MOL0     H38484  11.567   2.903   3.049  1.0047  2.4590  0.7072
  279MOL0     H38485  11.493   2.797   2.850  2.4962  1.7149 -1.6429
  279MOL0     H38486  10.231   2.138   1.571  2.3786  0.5746 -0.4533
  279MOL0     H38487  10.041   1.978   1.545 -0.7715 -1.9703 -0.8764
  279MOL0     H38488   9.882   1.634   1.732  0.3916  1.1885 -1.2693
  279MOL0     H38489   9.651   1.514   1.752  0.7733 -0.7377  0.8026
  279MOL0     H38490   9.522   1.332   1.796  2.9372  1.9844 -1.6851
  279MOL0     H38491   9.440   1.201   1.707 -0.4979 -0.4782 -1.5074
  279MOL0     H38492   9.721   1.196   1.774 -0.2319  2.4683  0.3742
  279MOL0     H38493   9.656   1.082   1.658  2.7785 -2.7842  2.3819
  279MOL0     H38494   9.462   1.029   1.824 -0.2153  1.1851  0.1027
  279MOL0     H38495   9.625   0.953   1.853  0.4792  1.3952  0.8092
  279MOL0     H38496   9.663   1.127   2.021  0.0060 -0.9970  0.9989
  279MOL0     H38497   9.529   1.018   2.065 -0.3112  2.0572  1.1694
  279MOL0     H38498   9.330   1.370   2.105 -2.4724 -1.0209 -2.2437
  279MOL0     H38499   9.726   1.291   1.408  0.3535 -3.2010  1.7733
  279MOL0     H38500  10.075   1.406   1.342 -0.0464 -1.0291  1.0464
  279MOL0     H38501   9.953   1.311   1.279  2.0836 -0.2007  0.8249
  279MOL0     H38502   9.958   1.494   1.255 -1.1167  3.2550  3.1759
  280MOL0     O38503   3.925   2.399  10.650  0.1665  0.1198  0.0439
  280MOL0     C38504   3.890   2.493  10.725 -0.4927  0.3465  0.7012
  280MOL0     O38505   3.765   2.512  10.781 -0.4683  0.2889 -0.4290
  280MOL0     C38506   3.673   2.415  10.788  0.1155  0.2885  0.2977
  280MOL0     C38507   3.540   2.450  10.828 -0.0687 -0.6580  0.3547
  280MOL0     C38508   3.442   2.358  10.859 -0.3528 -0.1908  0.6107
  280MOL0     C38509   3.469   2.222  10.848  0.1016  0.2129  0.0728
  280MOL0     O38510   3.362   2.136  10.880 -0.3026 -0.4095  0.6117
  280MOL0     C38511   3.404   2.002  10.890  0.5855  0.9163  0.7249
  280MOL0     C38512   3.302   1.900  10.930  0.8327 -0.2715 -0.7723
  280MOL0     C38513   3.178   1.916  10.845  0.2457 -0.1161  0.1588
  280MOL0     C38514   3.081   1.801  10.816  0.0457  0.4990 -1.4341
  280MOL0     C38515   2.977   1.856  10.711  0.1230  1.0088 -0.5627
  280MOL0     C38516   2.861   1.746  10.704  0.3280 -1.7632 -0.3362
  280MOL0     C38517   2.774   1.720  10.579 -1.1939 -0.8668 -0.4858
  280MOL0     C38518   2.691   1.592  10.605 -0.4849  0.9671  0.2487
  280MOL0     N38519   2.611   1.568  10.487  0.6847 -0.0342 -0.1656
  280MOL0     C38520   2.655   1.515  10.368 -0.6423  0.0692 -0.6555
  280MOL0     C38521   2.555   1.542  10.282 -0.0682  0.1212  0.1598
  280MOL0     C38522   2.568   1.517  10.133  0.1618 -0.5036  0.1463
  280MOL0     C38523   2.432   1.486  10.059  0.5623 -0.0513  0.4194
  280MOL0     C38524   2.340   1.605  10.055  0.0801 -0.6170 -0.8269
  280MOL0     C38525   2.406   1.718   9.981  0.2845  0.3829 -0.0741
  280MOL0     O38526   2.311   1.822   9.996  0.2500 -0.3618  0.3285
  280MOL0     C38527   2.212   1.828   9.902 -0.8841  0.8349 -0.7587
  280MOL0     C38528   2.083   1.819   9.959 -0.4205 -0.3168 -0.2105
  280MOL0     C38529   1.973   1.844   9.879 -0.0468  0.4383 -0.0554
  280MOL0     C38530   1.839   1.837   9.945  0.2600 -0.0152 -0.7014
  280MOL0     C38531   1.984   1.870   9.740 -1.4397 -0.2839  0.4207
  280MOL0     C38532   1.868   1.907   9.645  0.1589  0.0876  0.6001
  280MOL0     O38533   1.905   1.935   9.516  0.3822 -0.4533  0.2656
  280MOL0     C38534   1.824   2.030   9.459 -1.1231 -0.1269  0.2564
  280MOL0     C38535   1.693   2.001   9.423 -0.7619 -1.0794 -0.6318
  280MOL0     C38536   1.623   2.100   9.358  0.7240 -0.3672  0.6132
  280MOL0     C38537   1.673   2.225   9.335 -0.9763 -0.7656  0.4056
  280MOL0     O38538   1.603   2.332   9.286  0.1471 -0.1288 -0.4771
  280MOL0     C38539   1.470   2.351   9.312  0.0789 -0.4079  0.2109
  280MOL0     C38540   1.444   2.510   9.326  0.1207  0.3568  0.0442
  280MOL0     C38541   1.485   2.596   9.209 -0.1378  0.4265  0.3062
  280MOL0     C38542   1.413   2.549   9.080 -0.0938  0.0116 -0.4816
  280MOL0     C38543   1.269   2.596   9.062  0.7986 -0.6759 -1.0228
  280MOL0     C38544   1.197   2.504   8.977 -0.1632  0.2188  1.1557
  280MOL0     C38545   1.152   2.375   9.037  0.2664  0.0274 -0.3451
  280MOL0     C38546   1.045   2.307   8.961 -0.3495  0.5985 -0.2554
  280MOL0    Cl38547   1.111   2.237   8.812 -0.2423  0.4156  0.0602
  280MOL0     C38548   1.814   2.248   9.358  0.4010 -0.5283 -0.6826
  280MOL0     C38549   1.884   2.146   9.422 -0.4501 -0.1292  1.2546
  280MOL0     O38550   1.755   1.900   9.682  0.5201  0.3399  0.3894
  280MOL0     C38551   2.115   1.874   9.695  0.1597  0.6120  1.3088
  280MOL0     C38552   2.232   1.841   9.767  0.5360 -0.5024 -0.0462
  280MOL0     N38553   2.456   1.625  10.352 -0.1577 -0.8475 -0.6716
  280MOL0     N38554   2.491   1.627  10.476 -0.0653  0.7135 -0.3541
  280MOL0     C38555   3.592   2.182  10.798  0.2330 -0.1681 -0.7318
  280MOL0     C38556   3.694   2.274  10.774  0.1620 -0.0040 -0.4114
  280MOL0     C38557   3.994   2.598  10.747 -1.4888  0.0345  0.1338
  280MOL0     C38558   3.952   2.703  10.841 -0.0953  0.3464 -0.3957
  280MOL0     C38559   4.039   2.806  10.873  0.5023  0.2615 -0.0135
  280MOL0     C38560   4.167   2.808  10.820  0.0408  0.4908 -0.2133
  280MOL0     O38561   4.248   2.913  10.854 -0.0185  0.2471  0.3095
  280MOL0     C38562   4.371   2.918  10.786 -0.1918 -1.3438 -0.6160
  280MOL0     C38563   4.469   3.015  10.844 -0.9154 -0.1813 -0.0792
  280MOL0     C38564   4.589   3.021  10.752  0.0345 -0.2219  0.1829
  280MOL0     C38565   4.690   3.119  10.805  0.2897  0.2955 -0.2039
  280MOL0     C38566   4.802   3.122  10.715 -0.3220  0.4983  0.3591
  280MOL0     C38567   4.883   3.148  10.633 -0.7384  1.4437  0.0100
  280MOL0     C38568   4.200   2.712  10.722 -0.6157 -0.2876 -0.5591
  280MOL0     C38569   4.122   2.609  10.683  0.0485  0.6603  0.7309
  280MOL0     C38570   4.167   2.508  10.578 -0.5746 -0.7287 -0.0522
  280MOL0     H38571   3.520   2.557  10.840  0.7195 -0.0729 -2.7213
  280MOL0     H38572   3.346   2.380  10.904  0.0754 -0.6866  1.8111
  280MOL0     H38573   3.490   1.995  10.958  1.8263  1.1362 -0.7837
  280MOL0     H38574   3.439   1.955  10.798 -1.4086 -2.1334  1.3853
  280MOL0     H38575   3.342   1.799  10.929 -2.4168 -1.7284  0.7544
  280MOL0     H38576   3.266   1.928  11.030  1.6384 -4.7996  1.0314
  280MOL0     H38577   3.123   2.000  10.887  0.2857 -0.0797  0.1392
  280MOL0     H38578   3.213   1.953  10.748  1.1862  0.6424  0.7695
  280MOL0     H38579   3.124   1.706  10.784  3.3055 -0.1520  3.8547
  280MOL0     H38580   3.033   1.778  10.912 -1.9556  0.5389 -2.3550
  280MOL0     H38581   3.014   1.854  10.608  1.8593 -2.7343 -0.0463
  280MOL0     H38582   2.930   1.952  10.731 -0.8812  1.0532 -2.7989
  280MOL0     H38583   2.918   1.654  10.721  1.3556 -1.4064 -1.6376
  280MOL0     H38584   2.791   1.776  10.782  0.9840  1.1263 -0.7306
  280MOL0     H38585   2.833   1.717  10.487 -0.2201 -1.5219  0.1388
  280MOL0     H38586   2.713   1.808  10.562  1.4050  1.6834  2.2353
  280MOL0     H38587   2.763   1.510  10.619 -1.6835  0.2915  3.3369
  280MOL0     H38588   2.625   1.596  10.692 -0.1734 -3.0154  0.8563
  280MOL0     H38589   2.750   1.465  10.353 -1.1157 -1.2692  0.5564
  280MOL0     H38590   2.628   1.429  10.109 -0.8132 -1.5433  1.3297
  280MOL0     H38591   2.630   1.601  10.100 -0.6350 -0.7146 -2.0277
  280MOL0     H38592   2.449   1.453   9.957  1.7145 -1.5983  1.0830
  280MOL0     H38593   2.382   1.409  10.119  1.9906  0.7784  2.8120
  280MOL0     H38594   2.245   1.582  10.005 -0.1522 -1.8470  0.1181
  280MOL0     H38595   2.309   1.631  10.157 -3.1717 -0.9331 -1.6258
  280MOL0     H38596   2.501   1.740  10.031  0.3554  1.9785 -0.8700
  280MOL0     H38597   2.425   1.697   9.876 -0.7848  1.8053 -0.5704
  280MOL0     H38598   2.083   1.801  10.066 -3.4307  0.0995 -0.0328
  280MOL0     H38599   1.775   1.770   9.888  2.1026 -2.3078 -0.2436
  280MOL0     H38600   1.800   1.939   9.949  0.3108 -0.0265  0.4096
  280MOL0     H38601   1.844   1.799  10.048 -2.3792 -0.5438 -0.6948
  280MOL0     H38602   1.644   1.909   9.454 -2.6451  0.4431  1.2434
  280MOL0     H38603   1.519   2.081   9.331  1.0656 -0.6681 -0.5535
  280MOL0     H38604   1.402   2.306   9.240  0.4769 -3.6723  1.6713
  280MOL0     H38605   1.433   2.303   9.403 -3.5837  3.1125  0.8595
  280MOL0     H38606   1.340   2.532   9.352  0.4525  0.3677  1.4672
  280MOL0     H38607   1.505   2.544   9.410 -0.6579 -0.0681  0.8076
  280MOL0     H38608   1.592   2.577   9.197 -0.4615  0.2153 -2.9327
  280MOL0     H38609   1.461   2.703   9.210 -1.4319  0.3064 -3.4181
  280MOL0     H38610   1.421   2.440   9.087  0.5620  0.1148  0.6390
  280MOL0     H38611   1.468   2.592   8.996 -2.4752 -0.7649 -2.5518
  280MOL0     H38612   1.218   2.615   9.157  2.4743  2.6836 -0.6136
  280MOL0     H38613   1.282   2.694   9.015  1.4903  0.0386  0.5709
  280MOL0     H38614   1.256   2.485   8.887 -2.8704  0.6842 -0.8440
  280MOL0     H38615   1.106   2.552   8.939 -0.0494  0.0659  0.6790
  280MOL0     H38616   1.124   2.401   9.139  2.6091  0.6391  0.1999
  280MOL0     H38617   1.235   2.305   9.049  0.6932  0.6832  0.6963
  280MOL0     H38618   0.960   2.375   8.948 -1.7339 -0.7632  1.1042
  280MOL0     H38619   1.013   2.221   9.021  1.2974 -0.1117 -0.3472
  280MOL0     H38620   1.864   2.341   9.331  0.4258  0.1951  1.6141
  280MOL0     H38621   1.990   2.160   9.441 -0.1586 -0.8349  0.1889
  280MOL0     H38622   2.116   1.903   9.590 -2.4634 -0.2741  0.9531
  280MOL0     H38623   2.328   1.846   9.718  0.4837 -0.8332 -0.1880
  280MOL0     H38624   3.600   2.075  10.780 -1.1089 -1.1432  3.3389
  280MOL0     H38625   3.796   2.244  10.754  0.3398  0.2421  0.1067
  280MOL0     H38626   3.854   2.702  10.887 -0.5710  1.1685 -1.3453
  280MOL0     H38627   4.016   2.886  10.942 -1.2745  0.6816 -1.0291
  280MOL0     H38628   4.421   2.821  10.796  1.6376 -0.2626  2.0866
  280MOL0     H38629   4.347   2.948  10.683  0.8582  2.5319  0.1158
  280MOL0     H38630   4.504   2.990  10.945  2.1657 -0.3454 -1.0824
  280MOL0     H38631   4.432   3.117  10.850  2.3629  1.0491  2.1510
  280MOL0     H38632   4.618   2.917  10.765 -2.2264 -0.6716  2.3518
  280MOL0     H38633   4.561   3.047  10.649 -1.0461  0.4464  0.6383
  280MOL0     H38634   4.713   3.100  10.910 -3.0348 -0.4348  0.4951
  280MOL0     H38635   4.643   3.217  10.793  1.0090  0.3772 -2.9486
  280MOL0     H38636   4.967   3.172  10.571 -1.7459 -0.1792 -2.1363
  280MOL0     H38637   4.283   2.721  10.654 -1.6403 -1.2455 -1.9914
  280MOL0     H38638   4.269   2.524  10.543  0.7600  0.9075  3.9208
  280MOL0     H38639   4.184   2.415  10.633 -0.1952 -0.4858  0.2446
  280MOL0     H38640   4.094   2.504  10.497  0.1971  1.6845 -0.9545
  281MOL0     O38641   2.238   7.600   4.663 -0.3565 -0.0659 -0.2824
  281MOL0     C38642   2.224   7.521   4.749  1.0292  0.1377 -0.2851
  281MOL0     O38643   2.309   7.499   4.855 -0.2641 -0.1877 -0.2101
  281MOL0     C38644   2.416   7.589   4.873 -0.5437  0.2292 -0.4195
  281MOL0     C38645   2.410   7.726   4.881 -0.1553 -0.0030  0.4655
  281MOL0     C38646   2.524   7.803   4.907  0.0002 -0.6973  0.4730
  281MOL0     C38647   2.646   7.740   4.917 -0.2822 -0.5280  0.2325
  281MOL0     O38648   2.753   7.830   4.929  0.3074  0.5146  0.3332
  281MOL0     C38649   2.884   7.772   4.942 -1.0202  0.1055 -0.6234
  281MOL0     C38650   2.992   7.877   4.934  0.7786 -0.3748  0.5648
  281MOL0     C38651   2.986   7.956   4.803  0.3519 -0.2541  0.2131
  281MOL0     C38652   3.096   8.060   4.788  0.0385  0.9367 -0.5855
  281MOL0     C38653   3.086   8.132   4.651  0.2016 -0.1158 -0.5498
  281MOL0     C38654   3.193   8.251   4.640  0.4257  0.4774  0.4152
  281MOL0     C38655   3.169   8.320   4.515 -0.3438  0.0255  1.0156
  281MOL0     C38656   3.251   8.452   4.510 -0.2587  1.1599 -0.6013
  281MOL0     N38657   3.205   8.551   4.408  0.7277 -0.1204 -1.1969
  281MOL0     C38658   3.164   8.520   4.284 -0.2191 -0.0974 -0.6561
  281MOL0     C38659   3.202   8.618   4.209 -0.0746 -0.7964 -0.4814
  281MOL0     C38660   3.202   8.610   4.056  0.0336 -0.1587 -1.2163
  281MOL0     C38661   3.134   8.723   3.993 -1.1647  0.1572  0.9046
  281MOL0     C38662   3.225   8.849   3.978 -0.2785  0.2661 -0.0412
  281MOL0     C38663   3.142   8.974   3.937  0.1530  0.3958 -0.8738
  281MOL0     O38664   3.229   9.086   3.911 -0.0369  0.0237 -0.6687
  281MOL0     C38665   3.307   9.086   3.804  0.4279  0.1818 -0.0829
  281MOL0     C38666   3.304   8.992   3.695 -0.0214 -1.0683 -1.0817
  281MOL0     C38667   3.401   8.997   3.593  0.0608  0.3947  0.7749
  281MOL0     C38668   3.378   8.905   3.476  0.7852 -0.6730 -0.0706
  281MOL0     C38669   3.502   9.100   3.594  0.3781 -0.2130  0.2868
  281MOL0     C38670   3.598   9.116   3.484  0.8172 -0.5084 -0.0152
  281MOL0     O38671   3.638   9.243   3.448  0.1994 -0.2239  0.3112
  281MOL0     C38672   3.737   9.247   3.359 -1.0479  0.5866  0.1446
  281MOL0     C38673   3.702   9.281   3.228 -0.8629 -0.6258  0.0859
  281MOL0     C38674   3.802   9.282   3.126  0.6442  0.4914  0.7065
  281MOL0     C38675   3.928   9.249   3.159  0.4746 -0.2633 -1.0466
  281MOL0     O38676   4.016   9.268   3.058  0.0719 -0.6893  0.3403
  281MOL0     C38677   4.153   9.236   3.086  0.0160 -0.1709 -0.5923
  281MOL0     C38678   4.238   9.251   2.952  0.7172  0.1982 -0.4916
  281MOL0     C38679   4.365   9.171   2.954 -0.8078  0.2823  0.2209
  281MOL0     C38680   4.429   9.195   2.819  0.2210  1.4618  0.0938
  281MOL0     C38681   4.562   9.118   2.809  0.2883  0.7622  0.1994
  281MOL0     C38682   4.618   9.159   2.674  0.2319  0.3993 -0.1771
  281MOL0     C38683   4.678   9.302   2.678  0.0131 -0.2496 -0.8148
  281MOL0     C38684   4.788   9.342   2.594 -0.4726 -0.4635 -0.9893
  281MOL0    Cl38685   4.885   9.494   2.647  0.2534 -0.4978  0.4734
  281MOL0     C38686   3.967   9.219   3.288  1.3460  0.0174 -0.7235
  281MOL0     C38687   3.869   9.220   3.392 -0.3207 -0.3893 -0.3681
  281MOL0     O38688   3.631   9.012   3.432  0.4314  0.4273  0.1947
  281MOL0     C38689   3.500   9.195   3.702  0.7231  0.2532 -0.4752
  281MOL0     C38690   3.398   9.190   3.802 -0.6114 -0.5578  0.3687
  281MOL0     N38691   3.255   8.719   4.286 -0.5008 -0.3217 -0.1795
  281MOL0     N38692   3.257   8.679   4.407  0.1745  0.0855 -0.6725
  281MOL0     C38693   2.653   7.602   4.907 -0.0809  0.4801 -0.1590
  281MOL0     C38694   2.544   7.522   4.895  1.1772 -1.2697 -0.1533
  281MOL0     C38695   2.097   7.450   4.744 -0.8002  0.1586 -0.0339
  281MOL0     C38696   2.052   7.386   4.859 -0.1707 -0.0236  0.5559
  281MOL0     C38697   1.935   7.314   4.871  0.9397  0.9710 -0.7958
  281MOL0     C38698   1.850   7.309   4.767 -0.2292 -0.1237 -0.1482
  281MOL0     O38699   1.729   7.239   4.790  0.5574  0.1065 -0.7282
  281MOL0     C38700   1.633   7.258   4.686  0.9534  0.2523 -0.2375
  281MOL0     C38701   1.496   7.194   4.723  0.6925  0.3138 -0.1051
  281MOL0     C38702   1.423   7.249   4.843  0.4203 -0.1101 -0.4827
  281MOL0     C38703   1.488   7.211   4.970 -0.8207  0.2606  0.1887
  281MOL0     C38704   1.406   7.274   5.073  0.9900 -0.5649  0.1934
  281MOL0     C38705   1.342   7.343   5.146 -0.5884  0.3134 -0.1072
  281MOL0     C38706   1.888   7.374   4.648 -0.3203 -0.0003  0.2622
  281MOL0     C38707   2.003   7.452   4.632  0.5709  0.4005 -0.0863
  281MOL0     C38708   2.027   7.511   4.494  0.4579  0.8637  0.4593
  281MOL0     H38709   2.312   7.773   4.877  0.7735  2.2477  2.3012
  281MOL0     H38710   2.513   7.910   4.916 -2.0643 -0.7372 -0.9713
  281MOL0     H38711   2.905   7.702   4.861  1.8753 -0.4044  0.4528
  281MOL0     H38712   2.893   7.725   5.040  2.1410 -0.1268 -0.9389
  281MOL0     H38713   2.992   7.955   5.011  3.0876  1.2125 -0.8998
  281MOL0     H38714   3.084   7.818   4.940 -0.5085 -2.7828 -1.5242
  281MOL0     H38715   2.994   7.889   4.717 -0.8106 -2.4124  1.6946
  281MOL0     H38716   2.889   8.007   4.799  2.0591  3.4082  1.3284
  281MOL0     H38717   3.091   8.134   4.868  1.1126  0.8638 -0.4452
  281MOL0     H38718   3.195   8.015   4.795  1.7613  4.1616 -2.0214
  281MOL0     H38719   2.986   8.176   4.653 -1.0297 -2.7097  1.0144
  281MOL0     H38720   3.093   8.056   4.573  1.3191 -0.6499  0.0471
  281MOL0     H38721   3.181   8.315   4.728  2.9067  1.6472 -0.0122
  281MOL0     H38722   3.295   8.214   4.627 -0.1669 -0.6270 -1.4951
  281MOL0     H38723   3.063   8.344   4.512 -1.2929 -3.4012  2.1496
  281MOL0     H38724   3.205   8.257   4.433 -1.0990  3.5611 -2.2916
  281MOL0     H38725   3.265   8.488   4.613 -0.7632 -2.9094  1.0995
  281MOL0     H38726   3.353   8.419   4.492 -0.0808 -1.1090  3.3247
  281MOL0     H38727   3.141   8.423   4.242  3.4629 -0.7808 -1.4334
  281MOL0     H38728   3.136   8.527   4.031 -0.4764 -0.4421  0.8354
  281MOL0     H38729   3.301   8.594   4.014  1.2223  2.4310  0.3307
  281MOL0     H38730   3.095   8.690   3.896  0.4263  1.7694 -0.3579
  281MOL0     H38731   3.048   8.748   4.056 -2.4253 -0.5275 -0.4802
  281MOL0     H38732   3.286   8.885   4.061  0.6617 -2.3634  0.4923
  281MOL0     H38733   3.295   8.827   3.897 -1.3883  0.8335 -1.1865
  281MOL0     H38734   3.079   8.947   3.851 -0.8004  0.1455 -0.1218
  281MOL0     H38735   3.081   8.999   4.024  3.0659  1.8359  0.9114
  281MOL0     H38736   3.235   8.910   3.713  0.8801 -1.5842  0.1399
  281MOL0     H38737   3.407   8.951   3.382  0.7551  0.9619  0.6772
  281MOL0     H38738   3.276   8.865   3.470  1.1091 -1.6685  0.7457
  281MOL0     H38739   3.428   8.809   3.496  3.0244  0.1122 -1.6167
  281MOL0     H38740   3.603   9.310   3.194 -0.4833 -0.0134 -0.5231
  281MOL0     H38741   3.774   9.311   3.026 -0.7975  0.8698  1.1893
  281MOL0     H38742   4.206   9.297   3.161 -0.3016  1.3773 -1.5743
  281MOL0     H38743   4.148   9.134   3.125 -4.2142 -0.0313 -0.3471
  281MOL0     H38744   4.176   9.216   2.869  0.2803  0.8695 -0.4615
  281MOL0     H38745   4.260   9.357   2.934  0.4784 -0.0889 -2.7723
  281MOL0     H38746   4.340   9.067   2.976 -0.3617  0.8005  3.8016
  281MOL0     H38747   4.427   9.211   3.035 -1.1872 -1.0241  1.1919
  281MOL0     H38748   4.451   9.302   2.817  3.9729  0.8446 -2.8386
  281MOL0     H38749   4.354   9.169   2.744  3.7571 -2.5654 -2.5038
  281MOL0     H38750   4.633   9.128   2.891 -2.7575 -0.5479  3.2074
  281MOL0     H38751   4.545   9.010   2.805  1.8013  0.1764  4.6389
  281MOL0     H38752   4.536   9.159   2.602  0.7961  1.0897 -0.8318
  281MOL0     H38753   4.698   9.093   2.639  0.5750  1.3902 -1.3046
  281MOL0     H38754   4.713   9.324   2.780 -0.6589 -2.6949  0.0109
  281MOL0     H38755   4.596   9.372   2.662 -1.0807 -0.7416  2.0336
  281MOL0     H38756   4.757   9.363   2.491  1.5939 -2.0073 -2.0154
  281MOL0     H38757   4.860   9.260   2.589  0.0515 -0.0582 -0.3968
  281MOL0     H38758   4.066   9.192   3.321  0.4938 -1.2050  1.0160
  281MOL0     H38759   3.911   9.191   3.488  1.9786 -0.0543 -1.2173
  281MOL0     H38760   3.557   9.287   3.696 -0.0729  1.1324  3.1139
  281MOL0     H38761   3.411   9.264   3.881 -1.1771  0.7711 -0.7319
  281MOL0     H38762   2.747   7.548   4.902  0.7731  1.8215  0.6930
  281MOL0     H38763   2.557   7.415   4.899 -3.1019 -1.9043  1.3377
  281MOL0     H38764   2.110   7.389   4.951 -0.1664  1.0003  0.5284
  281MOL0     H38765   1.910   7.264   4.964  1.1214  1.5616 -0.4212
  281MOL0     H38766   1.620   7.366   4.668  0.6817  0.0504 -1.3089
  281MOL0     H38767   1.670   7.212   4.594  0.7619 -0.0919 -0.1445
  281MOL0     H38768   1.519   7.090   4.747 -0.6903  0.0768  0.2712
  281MOL0     H38769   1.437   7.204   4.631  0.1571  0.4111  0.2451
  281MOL0     H38770   1.414   7.357   4.829 -1.4714 -0.4315 -2.2412
  281MOL0     H38771   1.323   7.205   4.845  1.4721 -2.9252 -2.9112
  281MOL0     H38772   1.588   7.249   4.991  0.1694 -2.0345 -0.1152
  281MOL0     H38773   1.498   7.103   4.988 -3.6113  0.4637  4.5448
  281MOL0     H38774   1.283   7.417   5.196 -1.0572  1.8451 -2.7546
  281MOL0     H38775   1.827   7.371   4.559  1.0754  2.2672 -0.8724
  281MOL0     H38776   2.135   7.514   4.482  0.6054 -0.6282  1.1118
  281MOL0     H38777   1.996   7.438   4.418  1.4240  0.2576  0.6294
  281MOL0     H38778   1.975   7.607   4.492 -1.0322  0.0850  0.2816
  282MOL0     O38779   7.931   1.941   0.184  0.2844 -0.2478 -0.6647
  282MOL0     C38780   7.869   2.048   0.205 -1.7548 -0.1406  0.2963
  282MOL0     O38781   7.925   2.168   0.238 -0.3318 -0.4396 -0.0779
  282MOL0     C38782   8.059   2.187   0.257  0.7597  0.8939  0.2365
  282MOL0     C38783   8.104   2.311   0.226 -0.1857 -0.4239 -0.7749
  282MOL0     C38784   8.237   2.341   0.261  0.1174  0.3414 -0.2915
  282MOL0     C38785   8.325   2.245   0.320 -0.1820 -0.5327 -0.6764
  282MOL0     O38786   8.458   2.258   0.340  0.1180  0.0901  0.2190
  282MOL0     C38787   8.513   2.390   0.364  0.1100 -0.9513  0.0121
  282MOL0     C38788   8.668   2.379   0.376 -0.1399 -0.0562  0.4528
  282MOL0     C38789   8.724   2.517   0.424  0.3837  0.2981  0.0341
  282MOL0     C38790   8.865   2.499   0.479 -0.2992 -0.2576 -0.8135
  282MOL0     C38791   8.891   2.615   0.581  0.0214  0.2803  0.1544
  282MOL0     C38792   8.916   2.757   0.516 -0.6018 -0.3475  0.2529
  282MOL0     C38793   8.967   2.849   0.616  0.5116 -0.8109 -0.0721
  282MOL0     C38794   8.985   2.989   0.570  0.1101  0.3794  0.0584
  282MOL0     N38795   9.041   3.073   0.673 -0.1835 -0.1188 -0.5329
  282MOL0     C38796   8.986   3.189   0.712 -0.3617 -0.5185 -0.1050
  282MOL0     C38797   9.080   3.249   0.787  0.1916  0.1982  1.0222
  282MOL0     C38798   9.075   3.388   0.850 -0.1053 -0.5941  0.9295
  282MOL0     C38799   9.179   3.467   0.773 -0.2122  0.2873 -0.8106
  282MOL0     C38800   9.197   3.611   0.833  0.2850  0.3217 -0.7859
  282MOL0     C38801   9.298   3.688   0.751 -0.7122  0.2431 -0.1849
  282MOL0     O38802   9.247   3.699   0.612  0.3726 -0.4069  0.0405
  282MOL0     C38803   9.345   3.727   0.514  0.4260  0.2876  0.0864
  282MOL0     C38804   9.370   3.641   0.407  0.5854 -0.2017  0.0507
  282MOL0     C38805   9.463   3.672   0.303 -0.5900  0.2405 -0.1001
  282MOL0     C38806   9.477   3.570   0.188  0.0016 -0.5340  0.3260
  282MOL0     C38807   9.523   3.796   0.303 -0.4027 -0.3051  1.0939
  282MOL0     C38808   9.615   3.853   0.200 -0.0959  0.9670 -0.9715
  282MOL0     O38809   9.648   3.989   0.204  0.0581  0.3586  0.4568
  282MOL0     C38810   9.765   4.012   0.129 -0.0893 -0.9561 -0.4140
  282MOL0     C38811   9.888   4.017   0.194 -0.6279  0.1953 -0.4237
  282MOL0     C38812  10.007   4.045   0.131 -0.2192  0.1167  0.2799
  282MOL0     C38813  10.003   4.067  -0.007 -0.1187 -0.2357  0.7789
  282MOL0     O38814  10.112   4.094  -0.086  0.4641  0.4816 -0.2282
  282MOL0     C38815  10.226   4.142  -0.014  0.4672  0.5556  0.6011
  282MOL0     C38816  10.336   4.211  -0.100 -0.1122 -0.0196 -0.1801
  282MOL0     C38817  10.428   4.122  -0.175 -0.5392  0.5137  0.6721
  282MOL0     C38818  10.506   4.203  -0.277 -0.3359 -0.1298 -0.1031
  282MOL0     C38819  10.604   4.118  -0.342  0.1285  0.2936 -0.0673
  282MOL0     C38820  10.683   4.203  -0.451  0.5827  0.1856  0.0027
  282MOL0     C38821  10.735   4.109  -0.559 -0.0392  0.1405  0.3599
  282MOL0     C38822  10.621   4.104  -0.666  0.6335 -0.5165 -0.8062
  282MOL0    Cl38823  10.682   4.028  -0.815 -0.0828 -0.4090 -0.5393
  282MOL0     C38824   9.877   4.052  -0.078 -0.1691 -0.3186  0.6682
  282MOL0     C38825   9.763   4.033  -0.006 -0.1964  0.4930  0.2448
  282MOL0     O38826   9.670   3.775   0.121 -0.1145  0.1827 -0.4227
  282MOL0     C38827   9.498   3.884   0.410  0.5117  1.3519  0.0489
  282MOL0     C38828   9.412   3.850   0.517  0.8611 -0.0785  0.6371
  282MOL0     N38829   9.186   3.159   0.795 -0.1408 -0.9091 -0.1476
  282MOL0     N38830   9.162   3.057   0.737  0.3240 -0.2389 -0.2711
  282MOL0     C38831   8.275   2.117   0.347  0.7786  0.2507  0.0347
  282MOL0     C38832   8.145   2.086   0.303 -0.1364  0.2028  0.4355
  282MOL0     C38833   7.723   2.038   0.192 -0.2238  0.0828 -0.4128
  282MOL0     C38834   7.639   2.111   0.275 -0.5056 -0.4489  0.4245
  282MOL0     C38835   7.505   2.099   0.261  0.3116  0.6395 -0.5520
  282MOL0     C38836   7.440   2.017   0.168 -0.1528 -0.6793  0.1509
  282MOL0     O38837   7.304   2.016   0.182 -0.3327 -0.2136 -0.6409
  282MOL0     C38838   7.235   1.914   0.113  0.1623  0.2015  0.4568
  282MOL0     C38839   7.090   1.929   0.136  0.0111  0.0189 -0.5562
  282MOL0     C38840   7.027   2.054   0.077 -0.6246 -0.2504 -0.5577
  282MOL0     C38841   6.866   2.033   0.089 -0.4112 -0.3940  0.8355
  282MOL0     C38842   6.818   1.928  -0.006  0.8912 -0.4811 -0.4486
  282MOL0     C38843   6.769   1.860  -0.097  0.7378 -0.3654  0.6257
  282MOL0     C38844   7.524   1.951   0.077 -0.0116 -0.0149  0.7086
  282MOL0     C38845   7.661   1.964   0.085  0.5342 -0.0431 -0.0024
  282MOL0     C38846   7.749   1.912  -0.020 -0.3372 -0.8520  0.0727
  282MOL0     H38847   8.044   2.393   0.188  0.1127  1.7664  2.9616
  282MOL0     H38848   8.266   2.445   0.246 -1.2630  0.7031 -0.6231
  282MOL0     H38849   8.470   2.432   0.455  1.8588  1.9068 -0.3669
  282MOL0     H38850   8.485   2.455   0.280  0.1991 -2.4052 -1.2043
  282MOL0     H38851   8.697   2.300   0.446  1.1618  0.3238  0.3759
  282MOL0     H38852   8.712   2.355   0.279  0.1473  1.1553  0.2603
  282MOL0     H38853   8.733   2.597   0.350  0.3665  1.0510  0.8276
  282MOL0     H38854   8.655   2.544   0.505 -2.7525  0.0857 -2.3656
  282MOL0     H38855   8.872   2.406   0.537  2.9025 -0.0100 -0.6512
  282MOL0     H38856   8.937   2.502   0.397  0.0512  1.4744 -0.4714
  282MOL0     H38857   8.981   2.608   0.644 -0.9786  0.7301  1.7062
  282MOL0     H38858   8.810   2.620   0.655 -0.6074  0.1729 -0.5208
  282MOL0     H38859   8.989   2.749   0.435  1.3218 -0.0036  1.8832
  282MOL0     H38860   8.821   2.793   0.476 -0.7124 -0.6703  0.2187
  282MOL0     H38861   9.065   2.820   0.653  1.3212  0.7603 -0.9013
  282MOL0     H38862   8.889   2.855   0.694 -0.0479 -2.9513 -0.3970
  282MOL0     H38863   9.064   2.987   0.494 -0.2267 -1.0632 -0.2958
  282MOL0     H38864   8.890   3.028   0.532 -0.2597 -0.3699  0.1925
  282MOL0     H38865   8.888   3.231   0.690  0.9724  2.5644 -0.6227
  282MOL0     H38866   9.114   3.375   0.951  2.1299 -1.6544  0.0002
  282MOL0     H38867   8.972   3.425   0.844 -1.5535 -3.9091  2.8904
  282MOL0     H38868   9.266   3.406   0.799 -0.1290  1.2448  1.4103
  282MOL0     H38869   9.164   3.473   0.665  4.2500 -0.9993 -1.6807
  282MOL0     H38870   9.101   3.662   0.824 -2.0103 -3.3493  0.6226
  282MOL0     H38871   9.228   3.609   0.938  0.5316 -4.1934 -0.7507
  282MOL0     H38872   9.310   3.783   0.803 -1.9684  1.1339 -1.4700
  282MOL0     H38873   9.396   3.639   0.744  0.1735  1.2683  3.1964
  282MOL0     H38874   9.320   3.547   0.427 -0.3390  0.6936  2.1678
  282MOL0     H38875   9.437   3.608   0.094  1.2943  0.3366  0.1078
  282MOL0     H38876   9.418   3.486   0.228  0.7800 -0.7095  1.1309
  282MOL0     H38877   9.582   3.540   0.179 -0.0851 -0.2244 -2.3611
  282MOL0     H38878   9.883   4.005   0.302  0.9343  3.6405  0.1702
  282MOL0     H38879  10.099   4.030   0.185 -0.4021 -4.6278 -0.3528
  282MOL0     H38880  10.190   4.215   0.059 -1.1603 -0.2941  0.6927
  282MOL0     H38881  10.273   4.061   0.042  0.3887  0.3999  0.4437
  282MOL0     H38882  10.280   4.269  -0.174 -1.4940 -0.8317  0.1834
  282MOL0     H38883  10.400   4.274  -0.038 -1.5204  2.3313 -0.9632
  282MOL0     H38884  10.365   4.047  -0.222  0.0323 -0.9957  2.2202
  282MOL0     H38885  10.499   4.069  -0.111  0.5299  0.0288 -0.8510
  282MOL0     H38886  10.565   4.283  -0.231  0.6901 -0.2906 -1.1137
  282MOL0     H38887  10.442   4.246  -0.355 -0.3775 -2.6475 -1.5664
  282MOL0     H38888  10.673   4.081  -0.265  0.5464 -0.0360 -0.5917
  282MOL0     H38889  10.554   4.031  -0.386  2.5256  0.2031 -2.8803
  282MOL0     H38890  10.777   4.229  -0.402  0.6599  1.0121 -0.5595
  282MOL0     H38891  10.644   4.299  -0.486  2.5155  0.9357 -0.2204
  282MOL0     H38892  10.767   4.013  -0.518  0.6386  0.5813  0.9110
  282MOL0     H38893  10.821   4.154  -0.610  1.0652 -1.2405  0.9274
  282MOL0     H38894  10.594   4.207  -0.691  1.3689  0.2135  1.1517
  282MOL0     H38895  10.535   4.053  -0.624 -1.1429  2.9995  0.2489
  282MOL0     H38896   9.869   4.044  -0.186  0.6030  3.2657  0.2232
  282MOL0     H38897   9.673   4.002  -0.057  1.7676 -1.6569 -2.2005
  282MOL0     H38898   9.536   3.986   0.407 -1.1244  2.0452  1.2606
  282MOL0     H38899   9.383   3.910   0.603 -1.0277  0.8423 -0.5911
  282MOL0     H38900   8.336   2.036   0.386 -1.0084 -1.3098 -0.2344
  282MOL0     H38901   8.111   1.985   0.325 -0.4193  0.4985  1.3911
  282MOL0     H38902   7.686   2.166   0.356 -2.8651 -2.2315  3.2564
  282MOL0     H38903   7.445   2.155   0.332  0.0010 -0.5117  0.1260
  282MOL0     H38904   7.251   1.921   0.005  0.9848 -0.6203  0.5124
  282MOL0     H38905   7.282   1.822   0.149  2.4457  1.7899  1.8016
  282MOL0     H38906   7.061   1.930   0.242 -3.1503 -0.0098 -1.3228
  282MOL0     H38907   7.056   1.841   0.081  0.5096  0.9070 -2.3286
  282MOL0     H38908   7.063   2.147   0.120  0.2110 -0.1361 -1.4862
  282MOL0     H38909   7.052   2.063  -0.029 -0.3958 -0.7148 -0.5481
  282MOL0     H38910   6.811   2.123   0.060 -1.3709 -0.9054  1.0190
  282MOL0     H38911   6.830   2.022   0.192 -0.8449  0.8807  0.8477
  282MOL0     H38912   6.716   1.814  -0.178 -1.5949  1.8316  0.7615
  282MOL0     H38913   7.465   1.891   0.008 -0.4189 -1.4332  2.2273
  282MOL0     H38914   7.829   1.981  -0.050  3.2353 -4.2187  1.0618
  282MOL0     H38915   7.810   1.832   0.022  0.1587 -0.8165 -0.5622
  282MOL0     H38916   7.700   1.878  -0.112  3.2045 -0.1575 -2.2584
  283MOL0     O38917  11.103   7.476   0.389  0.2246 -0.0406 -0.7876
  283MOL0     C38918  11.166   7.395   0.454  0.2199  0.6459 -0.8024
  283MOL0     O38919  11.303   7.396   0.471 -0.5411 -0.9469 -0.3415
  283MOL0     C38920  11.377   7.469   0.378  0.6297  0.3497 -0.0439
  283MOL0     C38921  11.372   7.439   0.241  0.0858  0.6806 -0.3907
  283MOL0     C38922  11.439   7.508   0.142 -0.3030 -0.4719 -0.0629
  283MOL0     C38923  11.533   7.606   0.182  0.3520 -0.2256  0.1574
  283MOL0     O38924  11.606   7.690   0.101  0.5013  0.4308  0.0449
  283MOL0     C38925  11.603   7.676  -0.038  0.9697  0.5160 -0.1869
  283MOL0     C38926  11.657   7.539  -0.098  0.6307 -0.2973  0.3247
  283MOL0     C38927  11.813   7.523  -0.096  0.2177 -0.8359  0.1623
  283MOL0     C38928  11.858   7.441  -0.216  0.4191 -0.6097 -0.1782
  283MOL0     C38929  12.001   7.473  -0.254 -0.3691  0.1166  0.1796
  283MOL0     C38930  12.066   7.361  -0.340  0.4347 -0.2919 -0.0104
  283MOL0     C38931  12.204   7.418  -0.390  0.5230 -0.0292 -0.2340
  283MOL0     C38932  12.274   7.316  -0.477 -0.5054 -0.9348 -0.3085
  283MOL0     N38933  12.414   7.319  -0.439 -0.0951 -0.3882  0.4227
  283MOL0     C38934  12.504   7.399  -0.496  0.4414 -0.1119 -0.2724
  283MOL0     C38935  12.626   7.360  -0.456  0.4166 -0.4065  0.1396
  283MOL0     C38936  12.751   7.406  -0.519  0.7242  0.1125 -0.5421
  283MOL0     C38937  12.869   7.422  -0.422  0.0726 -0.4741 -0.6118
  283MOL0     C38938  12.924   7.282  -0.387  0.1710 -0.3928 -0.6256
  283MOL0     C38939  13.038   7.301  -0.287 -0.3562 -0.6758  0.1738
  283MOL0     O38940  12.987   7.292  -0.156 -0.1832 -0.1089  0.1111
  283MOL0     C38941  13.053   7.363  -0.060  0.2865  0.0855 -0.9114
  283MOL0     C38942  13.182   7.406  -0.071 -0.4934 -0.1315  0.3303
  283MOL0     C38943  13.260   7.483   0.022 -0.6071  1.1387  0.3794
  283MOL0     C38944  13.409   7.521  -0.001  0.2260  0.2966 -0.2949
  283MOL0     C38945  13.179   7.529   0.134  0.5302  0.1275  1.2380
  283MOL0     C38946  13.246   7.604   0.235 -1.0034 -0.5864 -0.5523
  283MOL0     O38947  13.338   7.544   0.309  0.0189 -0.0107  0.9238
  283MOL0     C38948  13.436   7.625   0.357  0.2358 -0.8123  0.1137
  283MOL0     C38949  13.414   7.725   0.457  0.8014 -0.0650  0.0884
  283MOL0     C38950  13.516   7.809   0.497  0.2454 -0.4286  0.0957
  283MOL0     C38951  13.640   7.794   0.433  0.5913 -0.4556 -0.0777
  283MOL0     O38952  13.753   7.860   0.463 -0.1773  0.1082  0.1493
  283MOL0     C38953  13.756   7.941   0.586 -0.6114 -0.5379 -1.2015
  283MOL0     C38954  13.714   8.083   0.545  0.4437 -0.7070 -0.5649
  283MOL0     C38955  13.713   8.180   0.658  0.6755 -0.2197 -0.1103
  283MOL0     C38956  13.717   8.327   0.623  0.2667  0.0092  0.3336
  283MOL0     C38957  13.699   8.411   0.743  0.4698 -0.4889 -0.8277
  283MOL0     C38958  13.822   8.413   0.829 -0.5067  0.1490 -0.1005
  283MOL0     C38959  13.811   8.520   0.941 -0.3599 -0.4284  0.2250
  283MOL0     C38960  13.926   8.511   1.046  0.7559  0.5374 -0.3505
  283MOL0    Cl38961  14.068   8.549   0.951  0.2685  0.5320  0.3308
  283MOL0     C38962  13.664   7.681   0.356 -0.0954 -0.1372  0.5877
  283MOL0     C38963  13.562   7.605   0.308  0.3932 -0.2092 -0.2719
  283MOL0     O38964  13.215   7.724   0.240  0.4640 -0.5598 -0.7991
  283MOL0     C38965  13.048   7.478   0.160  0.9384  0.0319 -0.0801
  283MOL0     C38966  12.979   7.397   0.062  0.0287 -0.3854 -0.9463
  283MOL0     N38967  12.604   7.250  -0.374 -0.3888  0.1704  0.1031
  283MOL0     N38968  12.480   7.225  -0.360  0.4346  0.0963  0.0627
  283MOL0     C38969  11.561   7.624   0.324 -0.6523  0.5203  0.7194
  283MOL0     C38970  11.465   7.568   0.417  0.1196 -0.0387  0.1765
  283MOL0     C38971  11.101   7.289   0.533 -0.0693 -0.6460 -0.1264
  283MOL0     C38972  11.174   7.250   0.647 -0.1921 -0.1518 -0.5294
  283MOL0     C38973  11.122   7.161   0.734 -0.8332  0.0160  0.2858
  283MOL0     C38974  10.997   7.101   0.716 -0.2672  0.5293  0.0484
  283MOL0     O38975  10.953   7.002   0.799  0.1054 -0.2534  0.4159
  283MOL0     C38976  10.872   6.895   0.732  0.1332 -0.3676 -0.7537
  283MOL0     C38977  10.871   6.767   0.818 -0.6234  0.1016 -0.9649
  283MOL0     C38978  10.832   6.797   0.971  0.1358  0.2248  0.1976
  283MOL0     C38979  10.691   6.844   0.991  0.2475 -1.1789 -0.0946
  283MOL0     C38980  10.597   6.747   0.932 -0.3838  0.2669  0.1197
  283MOL0     C38981  10.512   6.665   0.893 -0.6828 -0.4982  0.7491
  283MOL0     C38982  10.930   7.136   0.598 -0.8321  0.1766 -0.5577
  283MOL0     C38983  10.974   7.231   0.510  0.4813  0.1525  0.4347
  283MOL0     C38984  10.887   7.251   0.393 -0.5592  0.4215  0.4135
  283MOL0     H38985  11.303   7.370   0.195 -1.3771  0.0489  2.5441
  283MOL0     H38986  11.421   7.485   0.038 -2.4825  0.4487  0.0386
  283MOL0     H38987  11.669   7.752  -0.081 -1.2540  1.6834 -1.6815
  283MOL0     H38988  11.504   7.695  -0.079  1.4378 -2.3080 -2.9433
  283MOL0     H38989  11.611   7.452  -0.051  0.0263 -0.0075  0.2735
  283MOL0     H38990  11.630   7.545  -0.204  3.2043  1.6485 -0.3322
  283MOL0     H38991  11.862   7.621  -0.101  1.9710 -1.7340 -1.5343
  283MOL0     H38992  11.842   7.486   0.003  1.8128  2.6832  1.1630
  283MOL0     H38993  11.837   7.335  -0.197 -0.7530 -0.3119  0.2463
  283MOL0     H38994  11.805   7.471  -0.306 -1.4553  2.7549  1.8451
  283MOL0     H38995  12.065   7.494  -0.168 -2.3681  3.0046  1.1273
  283MOL0     H38996  11.999   7.564  -0.314  0.3922 -1.4211 -2.2893
  283MOL0     H38997  12.081   7.276  -0.272  2.5119 -0.5766 -0.7490
  283MOL0     H38998  12.008   7.350  -0.432  2.8731  0.8785 -1.8147
  283MOL0     H38999  12.266   7.463  -0.312 -0.5226 -0.4293  0.8582
  283MOL0     H39000  12.182   7.500  -0.459 -2.0507 -0.1766  0.3045
  283MOL0     H39001  12.224   7.219  -0.467 -1.3828 -0.6645 -1.7475
  283MOL0     H39002  12.267   7.340  -0.583  1.0357 -1.9773 -0.6743
  283MOL0     H39003  12.475   7.479  -0.564 -0.0296 -1.7158 -2.0292
  283MOL0     H39004  12.729   7.504  -0.563  0.3294  0.3478  0.1680
  283MOL0     H39005  12.776   7.341  -0.603 -0.8132  0.2938 -1.1740
  283MOL0     H39006  12.944   7.481  -0.476  0.7698 -0.8321 -0.0421
  283MOL0     H39007  12.819   7.464  -0.334 -3.1448 -1.2660 -1.9186
  283MOL0     H39008  12.856   7.213  -0.337  0.8246  0.0382  0.9429
  283MOL0     H39009  12.970   7.238  -0.476 -1.3948  0.3370 -1.8453
  283MOL0     H39010  13.121   7.231  -0.299 -1.2247 -1.5269 -1.1945
  283MOL0     H39011  13.085   7.399  -0.299  0.8257 -1.5462 -3.6767
  283MOL0     H39012  13.241   7.371  -0.156 -1.8056  1.4314 -1.3185
  283MOL0     H39013  13.462   7.443   0.054 -0.0645  0.3917  0.1237
  283MOL0     H39014  13.435   7.620   0.038 -0.2461  0.9354 -1.5413
  283MOL0     H39015  13.438   7.536  -0.106 -0.6650 -1.1286 -0.7684
  283MOL0     H39016  13.313   7.739   0.495  1.6130 -0.6573  2.7284
  283MOL0     H39017  13.504   7.891   0.567 -2.2357  0.5067 -1.2960
  283MOL0     H39018  13.698   7.904   0.671  0.8639 -2.9282 -1.1312
  283MOL0     H39019  13.859   7.943   0.623 -0.8888 -0.7592 -0.4128
  283MOL0     H39020  13.794   8.108   0.474  1.0431 -1.1735 -0.0629
  283MOL0     H39021  13.614   8.080   0.501 -0.1789 -0.1066  0.7349
  283MOL0     H39022  13.800   8.163   0.722  0.0982 -0.9800  0.4900
  283MOL0     H39023  13.616   8.161   0.705 -1.2044  1.7011 -2.9161
  283MOL0     H39024  13.645   8.351   0.544  1.3028 -1.5471 -1.1689
  283MOL0     H39025  13.806   8.351   0.563 -1.1811  0.1550 -1.8675
  283MOL0     H39026  13.690   8.511   0.699  0.3528 -0.2280 -0.2346
  283MOL0     H39027  13.609   8.381   0.797  1.9411 -3.1477  0.3252
  283MOL0     H39028  13.906   8.431   0.760  0.7391 -1.7834  0.8180
  283MOL0     H39029  13.832   8.318   0.883 -2.1083  0.2505  0.4223
  283MOL0     H39030  13.719   8.494   0.995 -2.3852 -3.8660 -4.2079
  283MOL0     H39031  13.801   8.621   0.900  0.4214 -1.7345 -3.5631
  283MOL0     H39032  13.923   8.409   1.084  2.3843 -0.3317 -2.3469
  283MOL0     H39033  13.906   8.581   1.128 -1.0210  0.9656 -1.0906
  283MOL0     H39034  13.766   7.653   0.329  0.1541  3.7214 -3.7219
  283MOL0     H39035  13.577   7.532   0.230 -2.1392  0.3815 -1.4175
  283MOL0     H39036  13.004   7.493   0.259  3.3003  1.7663  0.8006
  283MOL0     H39037  12.875   7.368   0.070  0.1386 -0.6923 -0.5968
  283MOL0     H39038  11.634   7.698   0.358  1.1599 -0.3493 -1.0453
  283MOL0     H39039  11.463   7.598   0.521  1.2640 -3.2057  1.2349
  283MOL0     H39040  11.275   7.287   0.664  1.6368 -2.5065 -4.6528
  283MOL0     H39041  11.182   7.137   0.822 -2.3115  0.1104  1.3451
  283MOL0     H39042  10.776   6.937   0.702  0.3266 -0.4847 -1.5868
  283MOL0     H39043  10.914   6.871   0.633  0.6692 -2.5378 -0.0468
  283MOL0     H39044  10.965   6.713   0.802 -1.7211 -2.3742  0.3322
  283MOL0     H39045  10.799   6.693   0.783  0.4552 -1.5417  0.1332
  283MOL0     H39046  10.841   6.701   1.023 -0.3227  0.3151  0.4497
  283MOL0     H39047  10.900   6.869   1.018  1.1168 -1.4157  1.3724
  283MOL0     H39048  10.675   6.945   0.953  1.2545 -0.4616  1.2892
  283MOL0     H39049  10.661   6.845   1.096  0.9858  2.4757  0.2244
  283MOL0     H39050  10.450   6.585   0.857  2.6828 -3.6510  1.2735
  283MOL0     H39051  10.831   7.099   0.571 -0.8818 -0.0856 -0.0444
  283MOL0     H39052  10.782   7.259   0.419  0.0023  0.4759  2.8299
  283MOL0     H39053  10.922   7.338   0.336 -1.9017 -0.3943 -1.7796
  283MOL0     H39054  10.900   7.162   0.331 -0.9475  1.5034 -1.2908
  284MOL0     O39055   0.300   8.165   0.034 -1.0914 -0.1389  0.5375
  284MOL0     C39056   0.354   8.181   0.137 -0.2273  0.2879 -0.7002
  284MOL0     O39057   0.287   8.145   0.256 -0.0183 -1.0218  0.2940
  284MOL0     C39058   0.152   8.130   0.248  0.8636  0.9826 -0.0475
  284MOL0     C39059   0.102   8.006   0.212  0.1120 -0.2791  0.2033
  284MOL0     C39060  -0.033   7.989   0.208 -0.7680 -0.0364 -0.3456
  284MOL0     C39061  -0.115   8.100   0.240  0.1383 -0.0998 -0.5793
  284MOL0     O39062  -0.254   8.094   0.230  0.6642  0.0090  0.3479
  284MOL0     C39063  -0.325   7.997   0.152  0.1557 -0.3904  0.6202
  284MOL0     C39064  -0.460   8.064   0.117 -0.7576  0.1410  0.1601
  284MOL0     C39065  -0.543   8.070   0.244 -0.3929  0.3223  0.1053
  284MOL0     C39066  -0.691   8.104   0.202 -0.1197  0.1299 -0.4064
  284MOL0     C39067  -0.789   8.058   0.314  0.1006 -0.9265 -0.4653
  284MOL0     C39068  -0.787   7.904   0.340  0.3895 -1.0141 -0.1642
  284MOL0     C39069  -0.888   7.866   0.448  0.2418  0.1414 -0.5464
  284MOL0     C39070  -0.896   7.720   0.482  0.0167  0.0650 -0.2557
  284MOL0     N39071  -0.895   7.624   0.368  0.5930 -0.4804 -0.0359
  284MOL0     C39072  -0.776   7.580   0.316 -0.4192 -0.0991 -0.4184
  284MOL0     C39073  -0.818   7.504   0.208  0.1906 -0.1886 -0.1849
  284MOL0     C39074  -0.723   7.427   0.122 -0.4930 -1.1003  0.2206
  284MOL0     C39075  -0.752   7.423  -0.030 -0.4807  0.6704  0.1274
  284MOL0     C39076  -0.692   7.319  -0.106  0.0018 -0.4357 -0.5618
  284MOL0     C39077  -0.542   7.330  -0.133  1.0030  0.2132  0.6454
  284MOL0     O39078  -0.486   7.201  -0.155  0.7034  0.1611 -0.1417
  284MOL0     C39079  -0.448   7.133  -0.045  0.1884 -0.1835 -0.2337
  284MOL0     C39080  -0.487   7.005  -0.012  0.5298  1.0563 -0.1005
  284MOL0     C39081  -0.437   6.929   0.092  0.0702  0.7307  0.4203
  284MOL0     C39082  -0.475   6.779   0.093 -0.4246 -0.2707  1.0128
  284MOL0     C39083  -0.358   6.991   0.192  0.2161 -0.1513  0.7482
  284MOL0     C39084  -0.293   6.919   0.311  0.1210 -1.5585 -0.3926
  284MOL0     O39085  -0.221   7.000   0.395  0.1774  0.0324  0.6742
  284MOL0     C39086  -0.153   6.951   0.494 -0.4095  0.2029  0.0137
  284MOL0     C39087  -0.017   6.964   0.516 -0.9300 -0.0251  0.7447
  284MOL0     C39088   0.055   6.922   0.624  0.2514 -0.5488  0.3417
  284MOL0     C39089  -0.012   6.863   0.732 -0.2107  0.4321 -0.7554
  284MOL0     O39090   0.040   6.823   0.852 -0.0505 -0.1713  0.5527
  284MOL0     C39091   0.179   6.842   0.873 -0.0801 -0.6764 -0.3983
  284MOL0     C39092   0.222   6.762   0.996  0.5073 -0.1352 -0.2295
  284MOL0     C39093   0.154   6.812   1.122  0.6368  0.1616 -1.4508
  284MOL0     C39094   0.250   6.807   1.237 -0.2959  0.7725 -0.0257
  284MOL0     C39095   0.195   6.868   1.365  0.5491  0.5750  0.1550
  284MOL0     C39096   0.064   6.801   1.417  0.6095 -0.2331 -0.2572
  284MOL0     C39097   0.034   6.847   1.555 -0.1798  0.1098  0.2558
  284MOL0     C39098   0.017   7.001   1.563 -0.3914 -1.3625 -0.1452
  284MOL0    Cl39099  -0.124   7.079   1.484 -0.7184  0.1916  0.0663
  284MOL0     C39100  -0.150   6.838   0.717 -0.2251 -0.6865  0.6057
  284MOL0     C39101  -0.218   6.889   0.601  0.2910  0.0761 -0.7480
  284MOL0     O39102  -0.306   6.798   0.326 -0.2840  0.2474 -0.7183
  284MOL0     C39103  -0.324   7.126   0.169 -0.2651 -1.3045  0.0009
  284MOL0     C39104  -0.359   7.195   0.047 -1.0171  0.1889 -0.1745
  284MOL0     N39105  -0.958   7.500   0.203 -0.2862 -1.3652  0.1543
  284MOL0     N39106  -0.998   7.560   0.307 -0.5531 -0.1096  0.1923
  284MOL0     C39107  -0.070   8.221   0.282 -0.0131  0.0254  0.2016
  284MOL0     C39108   0.067   8.237   0.271  0.0645  0.1799 -0.2230
  284MOL0     C39109   0.491   8.255   0.145 -0.1961  0.7542 -0.4273
  284MOL0     C39110   0.537   8.321   0.259 -0.4015  0.4035 -0.3438
  284MOL0     C39111   0.658   8.379   0.263  1.1418  0.3173 -0.7052
  284MOL0     C39112   0.748   8.378   0.154  0.1921 -0.0695 -1.0962
  284MOL0     O39113   0.874   8.433   0.173  0.1646  0.2075  0.5826
  284MOL0     C39114   0.987   8.377   0.104 -0.0814  0.4192 -0.1343
  284MOL0     C39115   1.088   8.475   0.081  0.0369 -0.1807 -0.7352
  284MOL0     C39116   1.140   8.516   0.217 -0.5490  0.2977 -0.2341
  284MOL0     C39117   1.269   8.587   0.203  0.0858 -0.8276  0.5773
  284MOL0     C39118   1.256   8.714   0.126  0.3013  0.2196 -0.3590
  284MOL0     C39119   1.232   8.808   0.046  0.0327 -0.2731 -0.0916
  284MOL0     C39120   0.700   8.334   0.030  0.1693  0.2342 -0.9575
  284MOL0     C39121   0.576   8.263   0.032  1.0620 -0.7028  0.6525
  284MOL0     C39122   0.534   8.214  -0.104 -0.3354 -1.2139 -0.1460
  284MOL0     H39123   0.166   7.928   0.173  0.2190  0.9065 -2.1526
  284MOL0     H39124  -0.076   7.889   0.202 -4.2477  1.0937  2.2282
  284MOL0     H39125  -0.335   7.900   0.201  0.1925 -0.8396 -0.2450
  284MOL0     H39126  -0.264   7.969   0.065 -1.0403  0.6967 -0.6070
  284MOL0     H39127  -0.443   8.164   0.077 -0.6371 -0.2139 -0.6945
  284MOL0     H39128  -0.507   8.003   0.040  0.4836  1.3498 -1.6316
  284MOL0     H39129  -0.545   7.966   0.277 -2.3650  0.4165  0.3822
  284MOL0     H39130  -0.492   8.127   0.322  3.0725  1.7809 -2.9153
  284MOL0     H39131  -0.692   8.213   0.200 -0.4489  0.1720  0.9666
  284MOL0     H39132  -0.726   8.051   0.112 -2.0817  0.5136  0.0797
  284MOL0     H39133  -0.887   8.096   0.282  1.9048  1.7552 -3.4503
  284MOL0     H39134  -0.750   8.107   0.403 -1.6090 -0.4281  0.0492
  284MOL0     H39135  -0.784   7.839   0.252 -2.1198 -0.3681 -0.8004
  284MOL0     H39136  -0.692   7.878   0.386  0.1337 -1.3421  0.1822
  284MOL0     H39137  -0.987   7.895   0.410  1.0155  0.2473 -2.6137
  284MOL0     H39138  -0.847   7.915   0.536  1.4116  0.4844 -1.2634
  284MOL0     H39139  -0.808   7.699   0.543 -0.8478  1.4173  1.5424
  284MOL0     H39140  -0.986   7.706   0.543  1.7593 -1.6263  2.1409
  284MOL0     H39141  -0.676   7.593   0.357 -0.9383  0.3596  0.7417
  284MOL0     H39142  -0.720   7.326   0.166  2.4058 -0.0209  2.9058
  284MOL0     H39143  -0.623   7.464   0.144 -0.5618 -2.2008  2.7263
  284MOL0     H39144  -0.859   7.404  -0.025 -0.1804 -1.1810  0.3972
  284MOL0     H39145  -0.748   7.519  -0.083 -1.7531  0.9340  0.4771
  284MOL0     H39146  -0.700   7.229  -0.043 -0.8527  0.0063 -0.0129
  284MOL0     H39147  -0.750   7.294  -0.195 -3.0831 -0.4736  1.2987
  284MOL0     H39148  -0.534   7.395  -0.221 -0.5377  1.9872  1.7492
  284MOL0     H39149  -0.488   7.387  -0.057 -1.0700  0.6342  1.8726
  284MOL0     H39150  -0.549   6.957  -0.087 -1.0851  2.3999  0.3349
  284MOL0     H39151  -0.488   6.743   0.196 -0.7606 -1.5994  0.5334
  284MOL0     H39152  -0.391   6.721   0.052 -3.0672 -2.3443 -1.9913
  284MOL0     H39153  -0.566   6.750   0.039  0.2446  0.7918 -0.7491
  284MOL0     H39154   0.035   7.015   0.436 -0.4155  0.0439  1.1191
  284MOL0     H39155   0.163   6.931   0.623  0.2251  0.2528 -1.7921
  284MOL0     H39156   0.242   6.813   0.788 -0.5648 -1.3664 -0.5305
  284MOL0     H39157   0.197   6.949   0.886 -0.4997 -0.7952  1.4207
  284MOL0     H39158   0.189   6.658   0.995  0.7155 -0.1990 -0.6105
  284MOL0     H39159   0.331   6.768   1.008  0.3498 -0.0031  1.4503
  284MOL0     H39160   0.060   6.756   1.133  0.5388  0.6498  0.6443
  284MOL0     H39161   0.118   6.913   1.104 -1.0627 -0.6215 -2.8077
  284MOL0     H39162   0.344   6.856   1.207  2.0252 -0.1599  4.8092
  284MOL0     H39163   0.273   6.701   1.245 -1.4430  0.5941  1.2148
  284MOL0     H39164   0.271   6.872   1.444 -2.0473 -0.5548  2.8764
  284MOL0     H39165   0.180   6.975   1.347 -0.8256  0.5614  1.0788
  284MOL0     H39166   0.072   6.691   1.418 -0.1802 -0.2991  1.1782
  284MOL0     H39167  -0.025   6.820   1.357 -0.6356 -1.1029  1.2279
  284MOL0     H39168   0.126   6.823   1.610 -2.3168 -1.8678  3.3262
  284MOL0     H39169  -0.046   6.795   1.607  0.8805 -0.4919  1.3510
  284MOL0     H39170   0.106   7.056   1.530 -0.5716  0.1853  1.7318
  284MOL0     H39171   0.008   7.030   1.668  0.0267 -0.1836 -0.4185
  284MOL0     H39172  -0.212   6.792   0.793  0.6850 -1.1354  1.0937
  284MOL0     H39173  -0.325   6.882   0.592  0.4241 -3.9118 -0.7122
  284MOL0     H39174  -0.269   7.185   0.242  0.3646  0.7621 -2.0410
  284MOL0     H39175  -0.328   7.298   0.032  1.1658 -0.1719  1.3313
  284MOL0     H39176  -0.139   8.301   0.307 -0.8355  0.4913 -3.0367
  284MOL0     H39177   0.095   8.338   0.297  1.8224 -0.7352  1.6902
  284MOL0     H39178   0.472   8.331   0.345 -0.6091  0.9481 -0.5594
  284MOL0     H39179   0.684   8.428   0.356 -1.9926 -0.9163  1.0031
  284MOL0     H39180   1.028   8.289   0.153 -3.7208 -2.1341 -1.2189
  284MOL0     H39181   0.956   8.349   0.003 -1.1389  1.4380 -0.1190
  284MOL0     H39182   1.039   8.568   0.051 -1.1457 -0.1927  1.0079
  284MOL0     H39183   1.174   8.441   0.022  1.5785  0.5594  0.9906
  284MOL0     H39184   1.064   8.579   0.264 -2.7668 -1.4394 -1.2770
  284MOL0     H39185   1.155   8.427   0.279 -2.0496  0.2565  0.1094
  284MOL0     H39186   1.356   8.529   0.169  0.4804 -1.4069  2.4691
  284MOL0     H39187   1.307   8.611   0.303 -0.4055  1.4878  0.2613
  284MOL0     H39188   1.206   8.878  -0.030  0.5441  0.8574  0.7443
  284MOL0     H39189   0.755   8.346  -0.063  0.4669  1.5093 -0.6414
  284MOL0     H39190   0.515   8.107  -0.094 -0.6871 -1.4249 -2.4117
  284MOL0     H39191   0.448   8.273  -0.137  0.2699  0.8804  1.7748
  284MOL0     H39192   0.612   8.220  -0.181  0.5730  2.7254  0.8594
  285MOL0     O39193   8.529   8.444   9.178 -0.4062  0.0574  0.1353
  285MOL0     C39194   8.431   8.369   9.188  0.1520 -0.0242  0.1379
  285MOL0     O39195   8.434   8.229   9.197  0.1987  0.1701  0.5578
  285MOL0     C39196   8.554   8.172   9.188 -0.3963  0.9398 -0.1654
  285MOL0     C39197   8.608   8.139   9.066 -0.1005 -0.8641 -0.5653
  285MOL0     C39198   8.735   8.066   9.051  0.4223 -0.4658  0.1635
  285MOL0     C39199   8.784   8.011   9.165 -0.2559  0.0640 -0.7901
  285MOL0     O39200   8.901   7.946   9.164  0.7550  0.6233  0.4119
  285MOL0     C39201   8.905   7.827   9.072 -0.9616  0.5290 -0.0059
  285MOL0     C39202   9.032   7.746   9.111  0.5599 -0.1198  0.3389
  285MOL0     C39203   9.088   7.657   9.000  0.4416  1.1278  0.9715
  285MOL0     C39204   9.170   7.535   9.058 -0.2162 -0.5393  1.3483
  285MOL0     C39205   9.255   7.457   8.970 -0.2796  0.2122  0.0581
  285MOL0     C39206   9.167   7.374   8.880  0.6197 -0.4701  1.2170
  285MOL0     C39207   9.271   7.282   8.816  1.0046  0.4987  0.1707
  285MOL0     C39208   9.184   7.183   8.734  0.2589 -1.1507  0.3384
  285MOL0     N39209   9.261   7.114   8.634  0.3010 -0.1072 -0.1150
  285MOL0     C39210   9.224   7.078   8.507 -0.1334 -0.5246  0.3137
  285MOL0     C39211   9.317   6.992   8.463 -0.0896 -0.2653 -0.0094
  285MOL0     C39212   9.328   6.911   8.339  0.2365 -0.2934 -0.3558
  285MOL0     C39213   9.250   6.777   8.331 -0.1500 -0.0868  0.1560
  285MOL0     C39214   9.348   6.656   8.326  0.2412  0.7660  0.5743
  285MOL0     C39215   9.293   6.513   8.365 -0.0471  0.1193  0.3581
  285MOL0     O39216   9.372   6.407   8.311 -0.6242 -0.5704  0.0800
  285MOL0     C39217   9.481   6.360   8.386 -0.1671 -0.9460  0.2124
  285MOL0     C39218   9.544   6.250   8.337 -0.0826  0.6829 -0.5326
  285MOL0     C39219   9.667   6.195   8.392  0.7560  0.9401  0.6243
  285MOL0     C39220   9.732   6.084   8.308 -0.0289 -0.2048 -0.2151
  285MOL0     C39221   9.717   6.254   8.510  0.6311  0.0519  0.1881
  285MOL0     C39222   9.831   6.193   8.590  0.0762  0.1305  0.4562
  285MOL0     O39223   9.879   6.075   8.554 -0.3438  0.6635  0.3840
  285MOL0     C39224  10.004   6.036   8.596 -0.7867  0.1468  0.1799
  285MOL0     C39225  10.104   6.008   8.508  0.7039 -0.4596 -0.2538
  285MOL0     C39226  10.222   5.947   8.550 -0.2890  0.1602  0.0751
  285MOL0     C39227  10.241   5.914   8.684  0.4220 -0.3808 -0.6623
  285MOL0     O39228  10.350   5.853   8.737 -0.4776  0.0623 -0.1200
  285MOL0     C39229  10.464   5.849   8.652  0.5084 -0.6594 -0.7810
  285MOL0     C39230  10.589   5.812   8.734 -0.3527  0.2696  1.4586
  285MOL0     C39231  10.581   5.663   8.757 -0.4028 -1.1594 -0.0416
  285MOL0     C39232  10.678   5.639   8.874  0.2704 -0.2818  0.3229
  285MOL0     C39233  10.665   5.497   8.931 -0.7763 -1.3645  0.2979
  285MOL0     C39234  10.774   5.469   9.045 -0.5689 -0.0159  0.6154
  285MOL0     C39235  10.762   5.317   9.074 -0.0549  0.3200 -0.0333
  285MOL0     C39236  10.786   5.295   9.226  0.7622  0.2154 -0.4409
  285MOL0    Cl39237  10.916   5.376   9.301  0.3897  0.2299 -0.2573
  285MOL0     C39238  10.151   5.953   8.776  0.4197 -0.0197 -0.0917
  285MOL0     C39239  10.035   6.017   8.733  0.1847 -0.7929  0.2349
  285MOL0     O39240   9.867   6.258   8.689  0.7461 -0.2740 -0.1547
  285MOL0     C39241   9.661   6.385   8.560  0.3522  0.9227 -0.4885
  285MOL0     C39242   9.541   6.424   8.496 -0.2755 -0.1583  0.7822
  285MOL0     N39243   9.421   6.970   8.561 -0.5877 -0.4920 -0.5879
  285MOL0     N39244   9.387   7.059   8.652  0.6718  0.3849  1.0079
  285MOL0     C39245   8.725   8.044   9.297  0.2519  0.2166 -0.7553
  285MOL0     C39246   8.608   8.113   9.306 -0.4299  0.4185  0.2158
  285MOL0     C39247   8.302   8.425   9.183 -0.0279 -0.5253 -0.2607
  285MOL0     C39248   8.198   8.351   9.121 -0.9218 -0.2094  0.1953
  285MOL0     C39249   8.080   8.416   9.089 -0.4142  0.7641  1.0313
  285MOL0     C39250   8.047   8.544   9.135 -0.1452  0.8175  0.7785
  285MOL0     O39251   7.919   8.588   9.112 -0.7537 -0.0217  0.5754
  285MOL0     C39252   7.847   8.601   9.238 -0.8032 -0.4593  0.2161
  285MOL0     C39253   7.710   8.665   9.214 -0.1816  0.5273 -0.1022
  285MOL0     C39254   7.625   8.671   9.339  0.4488 -0.5660 -0.8924
  285MOL0     C39255   7.657   8.793   9.428 -0.9900 -0.9483 -0.7241
  285MOL0     C39256   7.781   8.769   9.508 -0.3664  0.7511 -0.1423
  285MOL0     C39257   7.893   8.755   9.557 -0.0731 -0.2529 -0.0748
  285MOL0     C39258   8.152   8.620   9.185 -0.1420 -0.2608 -0.2131
  285MOL0     C39259   8.271   8.562   9.205 -0.8169 -0.1085 -0.8644
  285MOL0     C39260   8.370   8.666   9.245  1.7465  0.6714 -0.7438
  285MOL0     H39261   8.553   8.172   8.978 -0.4079  2.4341  0.7324
  285MOL0     H39262   8.773   8.064   8.949  1.6219 -2.3841  0.5870
  285MOL0     H39263   8.920   7.872   8.973  1.4434 -0.5171 -0.1937
  285MOL0     H39264   8.818   7.762   9.081  0.7086 -1.4827  3.7703
  285MOL0     H39265   9.113   7.809   9.149  3.7852 -1.1175 -4.0528
  285MOL0     H39266   8.999   7.687   9.197 -1.9973  1.0283  0.2664
  285MOL0     H39267   9.002   7.614   8.948  0.7379  0.7607  0.7786
  285MOL0     H39268   9.150   7.722   8.938 -1.4513  1.9051 -0.1743
  285MOL0     H39269   9.233   7.586   9.131  0.6085  3.8613 -1.9987
  285MOL0     H39270   9.091   7.469   9.096 -0.6753  1.0770  3.3673
  285MOL0     H39271   9.310   7.389   9.036 -1.0125  0.2178  0.6838
  285MOL0     H39272   9.326   7.516   8.910 -0.0002 -1.9524 -1.9129
  285MOL0     H39273   9.102   7.303   8.933  0.0832 -1.7590 -1.0527
  285MOL0     H39274   9.115   7.436   8.806  3.6777  2.9919  1.6949
  285MOL0     H39275   9.337   7.233   8.888  2.1010  1.8287  0.1139
  285MOL0     H39276   9.331   7.343   8.747 -0.8944  3.2183  0.7807
  285MOL0     H39277   9.125   7.115   8.795 -1.6979 -0.8956 -1.1613
  285MOL0     H39278   9.115   7.240   8.670 -0.1735 -3.2380 -1.1786
  285MOL0     H39279   9.140   7.106   8.445  1.5419 -1.7619 -2.7789
  285MOL0     H39280   9.431   6.885   8.309 -0.4677 -3.0219 -0.7184
  285MOL0     H39281   9.295   6.966   8.251  1.0312 -0.1695 -0.5881
  285MOL0     H39282   9.191   6.768   8.423 -2.3914 -1.5599 -1.3318
  285MOL0     H39283   9.187   6.784   8.242  1.7609 -0.3713 -1.2968
  285MOL0     H39284   9.395   6.635   8.229  4.8408  0.0285  2.6932
  285MOL0     H39285   9.440   6.687   8.376  1.7483  1.0096 -2.1401
  285MOL0     H39286   9.283   6.502   8.474  1.8906  0.7056  0.6249
  285MOL0     H39287   9.194   6.511   8.318  1.7153  0.8754 -3.7422
  285MOL0     H39288   9.497   6.196   8.255 -1.8582 -0.9582  1.4881
  285MOL0     H39289   9.727   5.983   8.352  0.3115 -0.1201  0.0205
  285MOL0     H39290   9.840   6.101   8.310 -0.0022 -0.3479 -0.4465
  285MOL0     H39291   9.692   6.072   8.207  1.7616 -1.8322 -0.7807
  285MOL0     H39292  10.100   6.031   8.402  0.9472  1.2304  0.0775
  285MOL0     H39293  10.296   5.919   8.476  1.7757 -0.4511  2.2531
  285MOL0     H39294  10.450   5.776   8.572 -0.8911 -0.4398 -0.7526
  285MOL0     H39295  10.487   5.940   8.596  2.5075 -1.6534 -1.6940
  285MOL0     H39296  10.675   5.829   8.667 -1.6267 -0.6029 -0.4877
  285MOL0     H39297  10.610   5.871   8.823  1.0357  0.7720  0.8338
  285MOL0     H39298  10.614   5.606   8.669  3.1286  0.1495  0.2890
  285MOL0     H39299  10.482   5.638   8.797 -0.3391  0.1245  0.9767
  285MOL0     H39300  10.653   5.707   8.955  1.3627 -0.5319  0.8910
  285MOL0     H39301  10.780   5.668   8.847  0.4375 -0.1265  1.1212
  285MOL0     H39302  10.565   5.496   8.974 -1.6293  1.9477 -1.2302
  285MOL0     H39303  10.681   5.430   8.846  1.5255 -0.5714  0.0254
  285MOL0     H39304  10.749   5.534   9.130  1.0789  0.3992  0.8118
  285MOL0     H39305  10.874   5.489   9.006 -1.4331 -0.9837 -2.3597
  285MOL0     H39306  10.825   5.246   9.018 -3.2633 -0.6815 -2.6808
  285MOL0     H39307  10.663   5.283   9.043 -0.1889 -0.2071  0.9265
  285MOL0     H39308  10.802   5.188   9.241  0.3952  0.3895  1.4743
  285MOL0     H39309  10.690   5.328   9.268 -0.6104 -3.3201 -0.4446
  285MOL0     H39310  10.149   5.928   8.882 -0.6413  1.3088  0.2229
  285MOL0     H39311   9.949   6.033   8.797 -0.1500  3.1599 -0.9454
  285MOL0     H39312   9.708   6.444   8.638 -0.4318  2.9982 -1.5065
  285MOL0     H39313   9.499   6.514   8.539 -2.0372 -1.9176  2.9853
  285MOL0     H39314   8.761   8.008   9.393  1.7838  0.2531 -1.2977
  285MOL0     H39315   8.557   8.134   9.399 -1.4312  0.5731 -0.3509
  285MOL0     H39316   8.228   8.253   9.087  2.7001  1.0267 -0.5383
  285MOL0     H39317   8.006   8.364   9.028 -1.4682  4.0235 -0.7294
  285MOL0     H39318   7.834   8.500   9.278 -1.4534 -0.5827 -0.2856
  285MOL0     H39319   7.908   8.665   9.301 -0.4482 -1.1554  0.5940
  285MOL0     H39320   7.665   8.597   9.141  3.1491  0.1464 -2.0211
  285MOL0     H39321   7.708   8.762   9.162 -3.1211  1.3433  1.3179
  285MOL0     H39322   7.525   8.676   9.296  1.4939  1.7566 -3.3002
  285MOL0     H39323   7.630   8.580   9.400  0.3111  1.7129  2.8551
  285MOL0     H39324   7.569   8.816   9.490  0.0580 -3.2408  1.8356
  285MOL0     H39325   7.674   8.882   9.366  1.8214 -1.3911 -0.6937
  285MOL0     H39326   7.984   8.747   9.613 -0.8514  0.2179  1.3093
  285MOL0     H39327   8.124   8.721   9.217 -1.3688 -0.5489 -0.3258
  285MOL0     H39328   8.447   8.667   9.168  0.5099 -2.6390 -2.2147
  285MOL0     H39329   8.331   8.767   9.264 -0.0912  0.1507 -1.4576
  285MOL0     H39330   8.419   8.626   9.334 -0.7000 -1.2822 -0.1388
  286MOL0     O39331   0.879   7.207   1.570  0.0153  0.1508 -0.1047
  286MOL0     C39332   0.783   7.124   1.561 -0.9533 -0.5225 -0.5972
  286MOL0     O39333   0.799   6.996   1.540  0.5399 -1.2650  0.0496
  286MOL0     C39334   0.895   6.932   1.464 -0.4566  0.3590  0.7102
  286MOL0     C39335   0.900   6.793   1.460  1.1062  0.3609 -0.3204
  286MOL0     C39336   1.008   6.730   1.404 -0.0103  0.0160 -0.5676
  286MOL0     C39337   1.114   6.802   1.347 -0.9717  0.6477  0.6469
  286MOL0     O39338   1.238   6.742   1.320  0.1804  0.3264  0.2415
  286MOL0     C39339   1.243   6.594   1.311 -0.7396  0.2105 -0.3980
  286MOL0     C39340   1.380   6.553   1.250  1.2279 -0.0137  0.0311
  286MOL0     C39341   1.411   6.644   1.125  0.8415  0.5022 -0.2646
  286MOL0     C39342   1.530   6.584   1.050 -1.1207  0.0453 -0.2207
  286MOL0     C39343   1.580   6.687   0.956  0.2923  0.6489  0.1890
  286MOL0     C39344   1.660   6.810   1.007 -0.0904 -0.8927 -0.2829
  286MOL0     C39345   1.788   6.849   0.928  0.2414  0.0357 -0.0223
  286MOL0     C39346   1.839   6.994   0.956  1.3041  0.2703 -0.1295
  286MOL0     N39347   1.911   7.019   1.078 -0.1527  0.3046 -0.7786
  286MOL0     C39348   2.004   7.123   1.086 -0.6775  0.5589  0.0173
  286MOL0     C39349   2.036   7.122   1.222  1.1891 -0.5723 -0.0280
  286MOL0     C39350   2.137   7.213   1.297 -0.7186  0.4373 -0.7409
  286MOL0     C39351   2.239   7.273   1.198 -0.1962 -0.4429  0.2528
  286MOL0     C39352   2.302   7.393   1.270  1.0467 -0.0983 -0.4744
  286MOL0     C39353   2.420   7.469   1.202  0.1585  0.7192 -0.3850
  286MOL0     O39354   2.537   7.390   1.163 -0.0741 -0.6824  0.4417
  286MOL0     C39355   2.648   7.459   1.123  0.5893  0.1712  0.4630
  286MOL0     C39356   2.761   7.392   1.110 -0.8054 -0.2646 -0.2966
  286MOL0     C39357   2.877   7.452   1.058  0.1472 -0.1625  0.7576
  286MOL0     C39358   3.006   7.369   1.054 -0.0941  0.2099  0.2778
  286MOL0     C39359   2.880   7.591   1.027  0.2631  0.9223  0.1804
  286MOL0     C39360   3.001   7.674   0.987 -0.5915 -0.6913  0.2991
  286MOL0     O39361   2.979   7.794   0.931 -0.4600  0.3484  0.1062
  286MOL0     C39362   3.086   7.867   0.897 -0.0389 -0.4153 -0.1447
  286MOL0     C39363   3.138   7.855   0.769  0.4472  0.5332 -0.1308
  286MOL0     C39364   3.251   7.926   0.735 -0.2842  0.6245  0.5129
  286MOL0     C39365   3.304   8.014   0.823 -0.1719 -0.2219 -0.3879
  286MOL0     O39366   3.419   8.092   0.794  0.1894 -0.2371 -0.1957
  286MOL0     C39367   3.539   8.030   0.738  0.1657 -0.0977 -0.2973
  286MOL0     C39368   3.645   8.129   0.693  0.5943  0.0615  0.4259
  286MOL0     C39369   3.728   8.170   0.816  0.9072 -0.9207  0.1964
  286MOL0     C39370   3.847   8.259   0.786 -0.5852  0.1510  0.4772
  286MOL0     C39371   3.937   8.294   0.900 -0.4910  0.4997 -0.0830
  286MOL0     C39372   4.042   8.408   0.866  0.9390 -0.1552 -1.0677
  286MOL0     C39373   4.118   8.442   1.005  0.5504 -0.8489  0.0691
  286MOL0     C39374   4.192   8.580   0.998  0.1847  0.1225  0.0704
  286MOL0    Cl39375   4.086   8.721   1.072 -0.0085  0.2878  0.0067
  286MOL0     C39376   3.247   8.034   0.942 -0.3648 -0.8406 -0.1580
  286MOL0     C39377   3.136   7.970   0.984  0.1522 -0.2012  0.2893
  286MOL0     O39378   3.111   7.629   1.001  0.0359 -0.2907  0.2628
  286MOL0     C39379   2.756   7.655   1.052  0.4251  0.3956 -0.5654
  286MOL0     C39380   2.642   7.594   1.092  1.3091  0.1724 -0.4329
  286MOL0     N39381   1.970   7.021   1.296 -0.5119 -0.0266  0.2224
  286MOL0     N39382   1.898   6.962   1.208 -0.6338 -0.2484  0.0487
  286MOL0     C39383   1.102   6.939   1.341 -1.3571 -0.8939 -0.1439
  286MOL0     C39384   0.996   7.003   1.398  0.3890 -0.6582  0.0960
  286MOL0     C39385   0.650   7.162   1.582 -0.4928 -0.5607  0.1906
  286MOL0     C39386   0.555   7.060   1.589 -0.5747  0.3900 -0.0722
  286MOL0     C39387   0.423   7.086   1.619  0.1056 -0.4455 -0.4985
  286MOL0     C39388   0.380   7.213   1.644  0.5148 -0.5269  0.5140
  286MOL0     O39389   0.248   7.226   1.684  0.0692  0.1181 -0.2617
  286MOL0     C39390   0.205   7.348   1.747  0.4277  0.6006  0.8107
  286MOL0     C39391   0.121   7.303   1.864  0.4011  0.7907 -0.4130
  286MOL0     C39392   0.201   7.285   1.987  0.1178 -0.6470 -0.1749
  286MOL0     C39393   0.144   7.177   2.075 -0.5746  0.3738  0.3031
  286MOL0     C39394   0.021   7.216   2.136  0.7660  0.0680 -0.2141
  286MOL0     C39395  -0.078   7.250   2.201  0.5470 -0.2308 -0.3370
  286MOL0     C39396   0.469   7.314   1.620  0.8432  0.2206  0.4728
  286MOL0     C39397   0.609   7.290   1.603  0.1226 -0.6655  0.7341
  286MOL0     C39398   0.696   7.416   1.587 -0.3882  0.4953 -0.2960
  286MOL0     H39399   0.822   6.735   1.508  1.4414  2.4346  3.0598
  286MOL0     H39400   1.011   6.623   1.419  0.3486  0.1161  0.1384
  286MOL0     H39401   1.160   6.563   1.246 -2.3284  0.5513  1.3583
  286MOL0     H39402   1.233   6.547   1.410 -0.8073 -3.0320 -1.7980
  286MOL0     H39403   1.456   6.545   1.329  0.9500 -3.4214  0.0956
  286MOL0     H39404   1.369   6.447   1.225  0.2360 -0.1966  1.1637
  286MOL0     H39405   1.327   6.645   1.055 -0.3130 -2.6454  0.9056
  286MOL0     H39406   1.436   6.744   1.161  1.0837 -0.0851  1.2662
  286MOL0     H39407   1.613   6.574   1.120  0.3564  3.2612 -1.3513
  286MOL0     H39408   1.515   6.497   0.985 -0.0497 -0.3178 -0.0064
  286MOL0     H39409   1.497   6.723   0.895 -1.6260 -1.7773  1.2349
  286MOL0     H39410   1.651   6.632   0.893 -0.8845  1.5415 -2.0654
  286MOL0     H39411   1.599   6.899   1.025 -1.0519 -0.6513 -3.8782
  286MOL0     H39412   1.694   6.777   1.106 -1.3536 -2.2161 -0.2441
  286MOL0     H39413   1.763   6.846   0.821  1.8520  0.9067 -0.4659
  286MOL0     H39414   1.873   6.782   0.946 -0.7492 -1.1804  0.2413
  286MOL0     H39415   1.898   7.019   0.867 -1.9312  0.7714 -2.2824
  286MOL0     H39416   1.759   7.069   0.947  1.4473  0.4316 -0.0725
  286MOL0     H39417   2.028   7.193   1.006 -1.2985  1.2625  0.4243
  286MOL0     H39418   2.179   7.153   1.378  0.3172  0.5622 -1.1648
  286MOL0     H39419   2.085   7.298   1.343  1.5428  0.3528  2.2361
  286MOL0     H39420   2.318   7.204   1.167  0.7617  2.0929 -3.6139
  286MOL0     H39421   2.203   7.307   1.100 -0.8614  0.7955  0.9064
  286MOL0     H39422   2.230   7.469   1.304  4.2514  2.4429  1.2786
  286MOL0     H39423   2.329   7.364   1.372 -1.3631  0.0052  0.2532
  286MOL0     H39424   2.378   7.520   1.114  1.2640  2.0355 -0.1844
  286MOL0     H39425   2.443   7.553   1.268 -0.6098  1.3059 -0.8442
  286MOL0     H39426   2.758   7.285   1.130 -4.0238 -0.7839 -2.7318
  286MOL0     H39427   3.077   7.393   1.133  1.1625  0.8979 -1.0011
  286MOL0     H39428   3.056   7.379   0.957  4.5396 -0.5598  2.3480
  286MOL0     H39429   2.978   7.264   1.052 -3.8100  1.0663  0.7858
  286MOL0     H39430   3.087   7.782   0.707 -0.5262  1.8878 -0.9886
  286MOL0     H39431   3.306   7.922   0.642 -0.4861  1.2654  0.3630
  286MOL0     H39432   3.590   7.978   0.820  1.9770  1.0696 -0.6393
  286MOL0     H39433   3.521   7.958   0.658 -0.2472 -0.1376 -0.1749
  286MOL0     H39434   3.713   8.088   0.618  0.3495  3.2102 -1.7471
  286MOL0     H39435   3.596   8.221   0.657  0.7638 -0.3708 -0.9845
  286MOL0     H39436   3.761   8.076   0.862 -2.0833 -2.1722 -0.0277
  286MOL0     H39437   3.666   8.223   0.888  1.0021 -2.4874  1.5075
  286MOL0     H39438   3.793   8.351   0.761 -3.3889 -0.8215  2.4466
  286MOL0     H39439   3.902   8.222   0.699  0.7830 -0.5507  1.6165
  286MOL0     H39440   3.873   8.321   0.984 -1.9385  1.7642 -1.5254
  286MOL0     H39441   4.002   8.207   0.912  0.6286  0.6875 -3.6994
  286MOL0     H39442   3.993   8.497   0.826 -2.9031 -2.3039 -1.5895
  286MOL0     H39443   4.115   8.366   0.795  1.6600 -2.3238  0.8029
  286MOL0     H39444   4.199   8.371   1.026  2.2309  1.4172  1.7891
  286MOL0     H39445   4.054   8.445   1.094 -1.5196  2.4978 -1.3150
  286MOL0     H39446   4.246   8.595   0.904  2.8208  0.0148  1.4703
  286MOL0     H39447   4.274   8.572   1.070  0.4991 -1.1977 -0.4115
  286MOL0     H39448   3.286   8.109   1.011 -0.6982 -1.9863  1.3173
  286MOL0     H39449   3.082   7.992   1.075 -3.4480  0.1433 -1.7696
  286MOL0     H39450   2.752   7.760   1.024  2.5000  1.7219  3.4283
  286MOL0     H39451   2.555   7.660   1.089  1.3954  0.2557 -2.2475
  286MOL0     H39452   1.176   7.003   1.295 -1.2076 -1.4318 -0.6649
  286MOL0     H39453   0.993   7.111   1.391 -0.5638 -0.7193 -0.7091
  286MOL0     H39454   0.583   6.955   1.591 -1.5494  0.1319  0.4892
  286MOL0     H39455   0.344   7.011   1.623 -0.1840 -0.1197 -0.0115
  286MOL0     H39456   0.272   7.427   1.780  0.8795  1.4308 -1.8019
  286MOL0     H39457   0.137   7.387   1.670 -1.5957 -0.3625  2.0275
  286MOL0     H39458   0.066   7.210   1.845  0.9733  0.3624  0.0133
  286MOL0     H39459   0.037   7.372   1.878 -0.8385 -0.5689 -0.8945
  286MOL0     H39460   0.308   7.272   1.967  0.7033  2.6998  0.1229
  286MOL0     H39461   0.198   7.385   2.031 -1.1982 -0.6115 -0.3152
  286MOL0     H39462   0.220   7.154   2.150  1.7401 -0.5004 -2.1481
  286MOL0     H39463   0.136   7.084   2.018  3.7557  0.5827 -0.9267
  286MOL0     H39464  -0.179   7.264   2.234  0.1096 -0.0795 -1.6614
  286MOL0     H39465   0.434   7.415   1.640  0.2979 -0.0940  1.1774
  286MOL0     H39466   0.642   7.510   1.605 -0.2775  0.2541  1.5171
  286MOL0     H39467   0.773   7.413   1.665 -1.7383  1.9770  1.1560
  286MOL0     H39468   0.725   7.420   1.482 -1.3251 -0.8663 -0.6319
  287MOL0     O39469   6.234   8.380   2.624  0.8155 -0.5088 -0.3767
  287MOL0     C39470   6.141   8.347   2.548  0.3787 -0.3140  0.5699
  287MOL0     O39471   6.158   8.316   2.411 -0.7032 -0.4531  0.2491
  287MOL0     C39472   6.284   8.266   2.372  1.2475  0.2857 -1.2869
  287MOL0     C39473   6.366   8.182   2.452 -0.0390 -0.7941 -0.4329
  287MOL0     C39474   6.483   8.130   2.399 -0.6801 -0.0047  0.6991
  287MOL0     C39475   6.514   8.156   2.264 -0.5020 -0.0493 -0.2449
  287MOL0     O39476   6.629   8.098   2.221 -0.4972  0.4342  0.6445
  287MOL0     C39477   6.673   8.109   2.079 -0.2071  0.4854  0.5327
  287MOL0     C39478   6.789   8.008   2.063  0.7243 -0.5146  0.3766
  287MOL0     C39479   6.860   8.011   1.928 -0.4576 -0.1743  0.1749
  287MOL0     C39480   6.817   7.904   1.829 -0.2816 -0.0208 -0.2456
  287MOL0     C39481   6.825   7.936   1.681  0.0066 -0.3925 -0.4648
  287MOL0     C39482   6.815   7.810   1.591 -0.1904 -1.0967 -0.0031
  287MOL0     C39483   6.876   7.846   1.463 -0.6605 -0.3213  0.1916
  287MOL0     C39484   6.837   7.741   1.367  0.4215 -0.7631  0.5325
  287MOL0     N39485   6.881   7.762   1.228  0.5483  0.4604 -0.3683
  287MOL0     C39486   7.011   7.757   1.188 -0.0515  0.1496 -1.1848
  287MOL0     C39487   7.002   7.775   1.058 -0.4375  0.2681 -0.9901
  287MOL0     C39488   7.126   7.773   0.967 -0.1087 -0.4268  0.8223
  287MOL0     C39489   7.220   7.889   0.982 -0.0230  0.5282  0.3710
  287MOL0     C39490   7.154   8.022   0.942 -0.4754  0.0925 -0.8535
  287MOL0     C39491   7.245   8.134   0.935  0.2968  0.6864 -0.3188
  287MOL0     O39492   7.362   8.118   0.843  0.4583  0.6519  0.3345
  287MOL0     C39493   7.484   8.184   0.851  0.9607  0.1256 -0.2267
  287MOL0     C39494   7.578   8.172   0.750  0.1201 -0.4432  0.8438
  287MOL0     C39495   7.696   8.255   0.758  0.1158 -0.6009  0.7154
  287MOL0     C39496   7.785   8.243   0.635  0.1745  0.9904 -0.2519
  287MOL0     C39497   7.729   8.335   0.877  0.1458  0.2705 -0.3613
  287MOL0     C39498   7.858   8.407   0.889 -0.2648  0.0924 -0.2611
  287MOL0     O39499   7.959   8.359   0.824  0.2680 -0.1493  0.1756
  287MOL0     C39500   8.075   8.424   0.814 -0.1112 -0.7294  0.1351
  287MOL0     C39501   8.168   8.441   0.920 -0.7539  0.3089  0.6061
  287MOL0     C39502   8.295   8.499   0.891 -0.0171 -0.6342 -0.7735
  287MOL0     C39503   8.330   8.527   0.756 -0.7498 -0.1684 -0.6670
  287MOL0     O39504   8.458   8.562   0.703  0.2289  0.0772 -0.8121
  287MOL0     C39505   8.554   8.617   0.792 -0.3907  0.0236  0.1593
  287MOL0     C39506   8.697   8.604   0.734 -0.5670 -0.4902  0.1254
  287MOL0     C39507   8.733   8.703   0.627  0.7727  0.2064  0.5890
  287MOL0     C39508   8.700   8.650   0.485  0.0235  0.2686 -0.5898
  287MOL0     C39509   8.756   8.727   0.373  0.2697 -0.0989 -0.2597
  287MOL0     C39510   8.710   8.881   0.382  0.5134 -0.4949 -0.2634
  287MOL0     C39511   8.806   8.977   0.308 -0.3021  0.6482 -0.0968
  287MOL0     C39512   8.772   9.124   0.301 -1.2043  0.4421 -1.1248
  287MOL0    Cl39513   8.826   9.199   0.459  0.2538 -0.3944 -0.2237
  287MOL0     C39514   8.233   8.519   0.663 -0.4942  0.4649 -0.5592
  287MOL0     C39515   8.114   8.469   0.686 -0.1891 -0.8550  1.0223
  287MOL0     O39516   7.865   8.496   0.975  0.6407  0.7807 -0.2126
  287MOL0     C39517   7.630   8.343   0.969  0.2650 -0.0079  0.5810
  287MOL0     C39518   7.504   8.283   0.958 -1.0006  0.7833 -0.4469
  287MOL0     N39519   6.867   7.788   1.014  0.7940 -0.5403 -0.6501
  287MOL0     N39520   6.799   7.773   1.124  0.0897  0.3108 -0.2016
  287MOL0     C39521   6.428   8.226   2.186 -0.3456  0.5883  0.5577
  287MOL0     C39522   6.313   8.282   2.240 -0.6509  0.9716 -1.0751
  287MOL0     C39523   5.996   8.374   2.596 -1.4734  0.5577 -0.5003
  287MOL0     C39524   5.980   8.416   2.731  0.1301 -0.8231 -0.4639
  287MOL0     C39525   5.863   8.449   2.780 -0.4250 -0.2041  0.4737
  287MOL0     C39526   5.751   8.437   2.692  0.0699 -0.3649 -0.2123
  287MOL0     O39527   5.635   8.485   2.746 -0.2747  0.2475  0.6564
  287MOL0     C39528   5.497   8.493   2.704  0.4371  0.4557  0.6283
  287MOL0     C39529   5.420   8.360   2.703  0.1231  1.0147 -0.5852
  287MOL0     C39530   5.441   8.286   2.576 -0.0997  1.0111  0.6916
  287MOL0     C39531   5.338   8.175   2.551 -0.0443 -0.0441 -0.1382
  287MOL0     C39532   5.219   8.240   2.497  0.5642  0.0701 -0.1480
  287MOL0     C39533   5.123   8.294   2.442  0.0967  0.4622 -0.3256
  287MOL0     C39534   5.757   8.403   2.558  0.9062 -0.0079  0.2896
  287MOL0     C39535   5.884   8.362   2.510 -0.2937  0.1874 -0.0949
  287MOL0     C39536   5.887   8.325   2.364 -0.2549  0.2166  0.2679
  287MOL0     H39537   6.345   8.154   2.555 -1.2900 -0.3146 -0.5362
  287MOL0     H39538   6.553   8.067   2.454  2.8364  2.4038 -0.6325
  287MOL0     H39539   6.703   8.206   2.037 -1.0501  0.0746 -1.1273
  287MOL0     H39540   6.587   8.074   2.021 -0.0398  0.8925  0.0254
  287MOL0     H39541   6.860   8.013   2.145  1.4389  0.0595 -0.2529
  287MOL0     H39542   6.747   7.907   2.062 -0.7321  0.0621 -0.6105
  287MOL0     H39543   6.847   8.110   1.883 -2.1312  0.3553  1.7151
  287MOL0     H39544   6.968   8.000   1.942 -0.6377 -3.1252  0.0095
  287MOL0     H39545   6.871   7.811   1.846 -3.1200 -1.6628  0.2423
  287MOL0     H39546   6.713   7.878   1.847  0.2135 -2.8994 -1.0885
  287MOL0     H39547   6.913   8.000   1.671 -1.2976  1.9398  1.6278
  287MOL0     H39548   6.740   8.001   1.659 -0.1011 -0.4759 -0.3016
  287MOL0     H39549   6.858   7.716   1.627  1.2780 -1.5606 -2.6296
  287MOL0     H39550   6.708   7.793   1.577 -1.0133  3.8218 -1.4863
  287MOL0     H39551   6.985   7.853   1.466 -0.6450 -0.1665 -0.6489
  287MOL0     H39552   6.842   7.947   1.437 -2.1794 -1.0291 -0.6962
  287MOL0     H39553   6.888   7.653   1.407  0.6939 -0.2137  1.4407
  287MOL0     H39554   6.729   7.724   1.362 -0.1017  2.2386 -2.1923
  287MOL0     H39555   7.094   7.723   1.248 -1.5882  1.0039  1.5960
  287MOL0     H39556   7.090   7.776   0.863  1.3089 -0.9625  0.2908
  287MOL0     H39557   7.186   7.683   0.983  0.3535 -1.1274 -3.5234
  287MOL0     H39558   7.249   7.892   1.087  2.8607 -3.0526 -0.1248
  287MOL0     H39559   7.313   7.868   0.928 -0.5041  1.4974 -0.8849
  287MOL0     H39560   7.106   8.008   0.845 -1.4760 -1.2824 -0.2066
  287MOL0     H39561   7.081   8.050   1.019  1.0094  1.1998  0.2163
  287MOL0     H39562   7.185   8.225   0.921 -0.6642  0.4673  1.9017
  287MOL0     H39563   7.293   8.122   1.032 -1.1481 -0.9699  0.2455
  287MOL0     H39564   7.568   8.101   0.669  2.6481 -1.0086  0.9358
  287MOL0     H39565   7.877   8.193   0.665  0.1404  0.9663 -0.1889
  287MOL0     H39566   7.812   8.346   0.608  1.8359  0.6145 -0.1227
  287MOL0     H39567   7.741   8.180   0.556  0.3445  3.1738 -2.2046
  287MOL0     H39568   8.144   8.412   1.022 -0.3405 -1.9402  0.1167
  287MOL0     H39569   8.363   8.498   0.976 -1.9900  0.2086  0.8940
  287MOL0     H39570   8.532   8.723   0.804  2.7384  0.5825  2.1845
  287MOL0     H39571   8.550   8.576   0.894 -1.2624  1.7132  0.8380
  287MOL0     H39572   8.770   8.612   0.815 -1.9972  0.0667  1.4127
  287MOL0     H39573   8.702   8.500   0.699 -3.5267 -1.5389  2.4155
  287MOL0     H39574   8.839   8.729   0.626  0.5663  1.2233  2.0778
  287MOL0     H39575   8.666   8.787   0.648 -1.8324 -1.5458 -0.1117
  287MOL0     H39576   8.593   8.632   0.470  0.1930 -2.1298  0.6120
  287MOL0     H39577   8.749   8.552   0.491  1.8148  1.2112  1.8550
  287MOL0     H39578   8.864   8.718   0.389  0.3481  0.5930 -0.3422
  287MOL0     H39579   8.729   8.681   0.278 -3.7759  1.5052 -0.1127
  287MOL0     H39580   8.711   8.922   0.484  0.9235  0.0658 -0.4839
  287MOL0     H39581   8.607   8.900   0.351  0.6151  2.4999  0.8555
  287MOL0     H39582   8.818   8.942   0.205 -0.4633  0.6987 -0.1331
  287MOL0     H39583   8.905   8.968   0.353 -0.7719  1.4148  1.1215
  287MOL0     H39584   8.666   9.141   0.284 -1.8543 -2.8867 -1.1356
  287MOL0     H39585   8.827   9.168   0.217 -0.5056 -1.4886 -1.7362
  287MOL0     H39586   8.264   8.547   0.563  5.5412  1.1295  1.0646
  287MOL0     H39587   8.037   8.454   0.611 -0.2091 -1.8707  1.2403
  287MOL0     H39588   7.648   8.397   1.061  2.6924  0.5327 -0.1260
  287MOL0     H39589   7.427   8.300   1.033 -2.1257 -0.9005 -1.1506
  287MOL0     H39590   6.429   8.237   2.078 -2.5971 -2.1088  0.1459
  287MOL0     H39591   6.243   8.341   2.182  1.1297  3.1606 -1.1244
  287MOL0     H39592   6.076   8.419   2.783  0.6875  3.0375 -1.3972
  287MOL0     H39593   5.846   8.475   2.884  0.1483  0.3259  0.4428
  287MOL0     H39594   5.443   8.555   2.776 -1.3611 -1.1803  0.7680
  287MOL0     H39595   5.498   8.541   2.606  0.8620  0.0065  0.4112
  287MOL0     H39596   5.313   8.377   2.714 -0.5442 -2.9011  0.9074
  287MOL0     H39597   5.454   8.304   2.791  2.7852  1.1411 -1.4395
  287MOL0     H39598   5.441   8.348   2.486  0.3210 -3.6533 -2.9846
  287MOL0     H39599   5.535   8.230   2.571 -0.4781  0.4225 -0.2473
  287MOL0     H39600   5.309   8.121   2.641  0.1203  0.2795  0.1146
  287MOL0     H39601   5.382   8.099   2.487  1.1904  1.8626 -1.6838
  287MOL0     H39602   5.038   8.345   2.402  0.1066  1.4692  0.9126
  287MOL0     H39603   5.675   8.408   2.488  1.2772 -0.8393 -0.2221
  287MOL0     H39604   5.790   8.318   2.314 -0.2117 -0.1030  0.2293
  287MOL0     H39605   5.959   8.393   2.317  0.6059 -0.2077  0.9586
  287MOL0     H39606   5.916   8.221   2.348  0.4114  0.4113  0.1737
  288MOL0     O39607   1.813   2.125   0.126 -0.2164  0.4118 -0.0405
  288MOL0     C39608   1.799   2.241   0.084 -0.1796 -0.3019 -0.3451
  288MOL0     O39609   1.696   2.335   0.118 -0.4359  0.2129  0.6105
  288MOL0     C39610   1.577   2.290   0.172 -0.6713 -0.3319 -0.5496
  288MOL0     C39611   1.520   2.164   0.161 -0.1280  0.0902 -0.5523
  288MOL0     C39612   1.388   2.136   0.211 -0.3996  0.2854  0.4711
  288MOL0     C39613   1.317   2.236   0.272  0.9199 -0.2716  0.1895
  288MOL0     O39614   1.193   2.226   0.345 -0.5051 -0.5162  1.4515
  288MOL0     C39615   1.077   2.275   0.271 -0.5030  1.1339  0.7186
  288MOL0     C39616   1.058   2.179   0.147 -0.0322  0.2986  0.3326
  288MOL0     C39617   0.919   2.179   0.077 -0.4591 -0.6116  0.5044
  288MOL0     C39618   0.893   2.287  -0.034  0.0164  0.1437  0.1602
  288MOL0     C39619   0.743   2.287  -0.069 -0.7161  0.0826 -0.5392
  288MOL0     C39620   0.710   2.176  -0.171 -0.0411  0.0595 -0.0434
  288MOL0     C39621   0.560   2.167  -0.209  0.8720 -0.3687  0.2512
  288MOL0     C39622   0.538   2.051  -0.306 -0.2973  0.6397  0.4472
  288MOL0     N39623   0.395   2.046  -0.333  0.0868  0.5513 -0.3556
  288MOL0     C39624   0.338   2.085  -0.442  0.6566 -0.3124 -0.0803
  288MOL0     C39625   0.219   2.023  -0.448 -0.0108 -0.8287 -1.0798
  288MOL0     C39626   0.099   2.043  -0.532 -0.7694  0.4360 -0.1009
  288MOL0     C39627   0.116   2.141  -0.645  0.4508 -0.2395  0.1965
  288MOL0     C39628  -0.022   2.179  -0.700 -0.1806  0.5327 -0.0656
  288MOL0     C39629  -0.020   2.245  -0.834 -0.6950 -1.0702  0.0601
  288MOL0     O39630  -0.155   2.259  -0.876  1.0540  0.0581 -0.3927
  288MOL0     C39631  -0.185   2.315  -0.998  0.4159 -0.2953  0.0138
  288MOL0     C39632  -0.090   2.374  -1.080  0.5731 -0.7186  0.2670
  288MOL0     C39633  -0.120   2.450  -1.191  0.2032 -0.3524 -0.4145
  288MOL0     C39634  -0.004   2.523  -1.262 -0.0247  0.3777  0.7164
  288MOL0     C39635  -0.254   2.472  -1.226 -0.0387  0.1676 -0.0853
  288MOL0     C39636  -0.296   2.562  -1.327 -0.5608 -0.3169  0.5491
  288MOL0     O39637  -0.405   2.531  -1.395 -0.2291  0.7200 -0.2470
  288MOL0     C39638  -0.440   2.621  -1.495 -1.5407  2.0616  0.5940
  288MOL0     C39639  -0.364   2.619  -1.610  0.4232 -0.3209 -0.0454
  288MOL0     C39640  -0.376   2.715  -1.714  0.8486 -0.5110  0.0835
  288MOL0     C39641  -0.484   2.804  -1.699  0.5516  1.0896  0.4999
  288MOL0     O39642  -0.510   2.887  -1.799 -0.6588  0.1565  0.0789
  288MOL0     C39643  -0.401   2.960  -1.858  0.4349  0.1356  1.1278
  288MOL0     C39644  -0.422   2.968  -2.011 -0.2143  0.0844 -0.7109
  288MOL0     C39645  -0.423   2.826  -2.075 -0.0313  1.1511 -0.2789
  288MOL0     C39646  -0.398   2.833  -2.230 -0.0745  0.0634  0.0030
  288MOL0     C39647  -0.420   2.705  -2.304 -0.4125 -0.3693  0.0333
  288MOL0     C39648  -0.338   2.588  -2.253  0.3535  0.9151 -0.3695
  288MOL0     C39649  -0.347   2.467  -2.347 -0.2101 -1.4017 -0.0503
  288MOL0     C39650  -0.257   2.354  -2.297  0.1159  0.0181 -0.6854
  288MOL0    Cl39651  -0.092   2.396  -2.250 -0.2240 -0.0592  0.0245
  288MOL0     C39652  -0.568   2.795  -1.581 -0.2152  0.0915 -0.3936
  288MOL0     C39653  -0.547   2.702  -1.477  0.5118 -0.3118  0.6669
  288MOL0     O39654  -0.236   2.669  -1.330 -0.2261 -0.6599  0.4277
  288MOL0     C39655  -0.353   2.409  -1.142  0.4219  0.1543  0.6721
  288MOL0     C39656  -0.321   2.330  -1.027  0.4387 -0.2624 -0.7144
  288MOL0     N39657   0.213   1.948  -0.334  0.2575  0.7009 -0.0447
  288MOL0     N39658   0.318   1.954  -0.264 -0.0125  0.0429  0.1637
  288MOL0     C39659   1.370   2.362   0.274 -0.2350 -0.3907  0.6844
  288MOL0     C39660   1.494   2.388   0.217 -0.5899 -0.4975  0.2299
  288MOL0     C39661   1.918   2.300   0.004 -0.7673 -0.1005 -1.4814
  288MOL0     C39662   1.934   2.442   0.011 -0.0094 -0.2656 -0.1841
  288MOL0     C39663   2.046   2.500  -0.062  0.4375  0.1451  0.9682
  288MOL0     C39664   2.139   2.415  -0.138  0.6737 -0.9968 -0.0910
  288MOL0     O39665   2.251   2.463  -0.195 -0.5439  0.9879  1.1360
  288MOL0     C39666   2.304   2.594  -0.163  0.2976 -0.1640 -0.5348
  288MOL0     C39667   2.437   2.617  -0.232 -1.1491  0.2107 -0.3486
  288MOL0     C39668   2.419   2.652  -0.378  0.2239 -0.4053 -1.0343
  288MOL0     C39669   2.549   2.617  -0.454  0.9565  0.2633  0.6043
  288MOL0     C39670   2.513   2.631  -0.597 -0.0972  0.1762 -0.2532
  288MOL0     C39671   2.468   2.650  -0.704  0.1311  0.4295  0.3672
  288MOL0     C39672   2.116   2.285  -0.135 -0.3169  0.3744 -0.0745
  288MOL0     C39673   2.007   2.225  -0.065 -0.1199  0.4033  0.0671
  288MOL0     C39674   1.984   2.075  -0.084 -0.2904  0.3803 -0.8816
  288MOL0     H39675   1.568   2.084   0.105 -1.1021 -0.8187 -0.1188
  288MOL0     H39676   1.360   2.032   0.205  0.9022 -0.1652  1.7551
  288MOL0     H39677   1.099   2.380   0.249  2.4250  0.6305  0.8684
  288MOL0     H39678   0.986   2.270   0.331 -2.2295 -0.2171 -1.7869
  288MOL0     H39679   1.133   2.204   0.070  0.2349  2.4858  1.2254
  288MOL0     H39680   1.074   2.075   0.178 -2.4149 -0.2281 -0.0401
  288MOL0     H39681   0.899   2.083   0.028  0.6956  0.6066 -2.6316
  288MOL0     H39682   0.848   2.197   0.158 -1.0804 -0.3803 -0.0869
  288MOL0     H39683   0.929   2.386  -0.004  0.9461  0.1053 -0.7466
  288MOL0     H39684   0.947   2.276  -0.128  0.3908  1.7716  0.1446
  288MOL0     H39685   0.715   2.385  -0.110  0.7876 -0.3486 -2.7613
  288MOL0     H39686   0.677   2.275   0.017 -1.5357 -0.8404 -1.2628
  288MOL0     H39687   0.757   2.189  -0.268 -2.3143 -2.6888 -1.6986
  288MOL0     H39688   0.739   2.078  -0.130  1.9085  0.1949 -0.9962
  288MOL0     H39689   0.534   2.258  -0.263 -0.4213 -2.1404 -2.3308
  288MOL0     H39690   0.496   2.157  -0.121  0.8632 -2.4235  0.0742
  288MOL0     H39691   0.604   2.056  -0.393 -0.6129  2.9811  0.2655
  288MOL0     H39692   0.566   1.962  -0.249 -0.0735  1.7594  2.1767
  288MOL0     H39693   0.376   2.163  -0.508  1.7815 -1.8940 -1.3631
  288MOL0     H39694   0.017   2.076  -0.467 -1.1057 -1.8915  0.7646
  288MOL0     H39695   0.077   1.942  -0.566 -4.6364  2.1390 -3.4396
  288MOL0     H39696   0.170   2.231  -0.612 -0.3498 -0.0149  0.9201
  288MOL0     H39697   0.172   2.100  -0.730  1.3509 -1.5009  1.3609
  288MOL0     H39698  -0.069   2.083  -0.722 -0.1224  0.8175 -1.4828
  288MOL0     H39699  -0.070   2.246  -0.628 -1.9555  0.3090 -0.9890
  288MOL0     H39700   0.023   2.346  -0.837 -2.2141 -0.4046 -0.4609
  288MOL0     H39701   0.037   2.178  -0.899  0.9939  0.4724 -0.1481
  288MOL0     H39702   0.015   2.368  -1.050  0.4771  1.9177  1.4608
  288MOL0     H39703   0.096   2.478  -1.252  0.8407  1.6760 -1.3699
  288MOL0     H39704   0.004   2.628  -1.232 -1.5985  0.8983 -0.5609
  288MOL0     H39705  -0.024   2.517  -1.369 -1.1043 -0.2964  0.9514
  288MOL0     H39706  -0.277   2.557  -1.631 -0.2795 -0.5978 -2.4774
  288MOL0     H39707  -0.321   2.704  -1.806  2.2553  0.6312  0.7417
  288MOL0     H39708  -0.414   3.061  -1.818 -1.6514 -0.4383  2.0111
  288MOL0     H39709  -0.300   2.922  -1.840  0.7323  0.0132 -0.5976
  288MOL0     H39710  -0.518   3.019  -2.024  0.0374  0.4098 -1.2997
  288MOL0     H39711  -0.352   3.039  -2.055 -1.9895  2.4465  0.0739
  288MOL0     H39712  -0.518   2.775  -2.063  1.0050 -0.9396 -0.5865
  288MOL0     H39713  -0.348   2.761  -2.030 -0.2165 -0.8011 -2.5882
  288MOL0     H39714  -0.294   2.864  -2.236  0.0836  0.2987  2.6705
  288MOL0     H39715  -0.462   2.901  -2.287 -0.8701  0.1481  0.9555
  288MOL0     H39716  -0.525   2.681  -2.320  0.3709 -1.9063 -3.9033
  288MOL0     H39717  -0.398   2.734  -2.407 -4.2960 -1.7446 -1.3601
  288MOL0     H39718  -0.366   2.556  -2.153 -0.4051 -0.4483 -0.9941
  288MOL0     H39719  -0.235   2.626  -2.248  1.2593 -1.4163  0.0861
  288MOL0     H39720  -0.316   2.485  -2.450  3.5961 -0.5291  1.1130
  288MOL0     H39721  -0.447   2.423  -2.345 -1.3742  1.1041  1.8514
  288MOL0     H39722  -0.263   2.268  -2.365 -3.8695 -0.7311  0.3602
  288MOL0     H39723  -0.306   2.321  -2.205  2.3483 -2.6727 -0.3175
  288MOL0     H39724  -0.652   2.862  -1.571 -0.3240 -0.2345  1.0793
  288MOL0     H39725  -0.600   2.716  -1.383 -3.2600  2.0724 -1.5435
  288MOL0     H39726  -0.459   2.430  -1.151  0.2112 -1.5628 -5.4680
  288MOL0     H39727  -0.394   2.281  -0.964  1.0873 -1.6086 -0.9771
  288MOL0     H39728   1.311   2.437   0.326  0.2749 -1.0034  2.2071
  288MOL0     H39729   1.525   2.491   0.202  0.0093 -0.9726 -2.2932
  288MOL0     H39730   1.872   2.501   0.078  3.6289 -1.2159  4.5267
  288MOL0     H39731   2.063   2.606  -0.077  1.2040 -0.0782  0.1637
  288MOL0     H39732   2.227   2.669  -0.184 -1.5056 -1.2881  1.5473
  288MOL0     H39733   2.324   2.601  -0.055 -0.6644  0.7103 -0.3951
  288MOL0     H39734   2.490   2.522  -0.219 -2.3277 -0.2376  1.6280
  288MOL0     H39735   2.488   2.702  -0.185  1.9266 -1.0313 -1.1986
  288MOL0     H39736   2.329   2.609  -0.424 -1.1208  0.3512  0.7478
  288MOL0     H39737   2.418   2.761  -0.381 -0.3472 -0.3331  0.6305
  288MOL0     H39738   2.586   2.521  -0.417 -0.5885 -0.0480  1.4001
  288MOL0     H39739   2.631   2.686  -0.430 -1.8996  3.4766  1.9063
  288MOL0     H39740   2.429   2.693  -0.795 -0.6775 -2.5191 -0.8035
  288MOL0     H39741   2.189   2.232  -0.194  0.5083  2.0600 -0.6149
  288MOL0     H39742   2.013   2.009  -0.001 -2.6195  2.8250  2.1219
  288MOL0     H39743   1.881   2.056  -0.114 -0.0190 -3.4696  0.0659
  288MOL0     H39744   2.048   2.038  -0.165  0.0845  2.3914 -1.5703
  289MOL0     O39745  11.253   1.689   5.956  0.2236  0.1528  0.2541
  289MOL0     C39746  11.307   1.583   5.994  1.0105 -0.3932 -0.6178
  289MOL0     O39747  11.431   1.571   6.040 -0.0893  0.4682 -0.5637
  289MOL0     C39748  11.522   1.670   6.017  0.0060  0.3626  0.4440
  289MOL0     C39749  11.569   1.724   5.895  0.3509 -0.4599  0.7950
  289MOL0     C39750  11.682   1.807   5.888 -0.3612 -0.0683 -0.2577
  289MOL0     C39751  11.762   1.833   5.999 -0.0444  1.3260 -0.2759
  289MOL0     O39752  11.887   1.885   5.988  0.1467  0.3048 -0.4872
  289MOL0     C39753  11.937   1.954   6.100  0.3488 -0.1649  0.5180
  289MOL0     C39754  12.033   2.051   6.063 -0.1675 -0.4628 -0.0238
  289MOL0     C39755  12.107   2.117   6.173  0.0024  0.3987  0.1988
  289MOL0     C39756  12.201   2.224   6.122 -0.1085  0.5287 -0.3411
  289MOL0     C39757  12.275   2.293   6.240  0.1033 -0.1121 -0.8138
  289MOL0     C39758  12.372   2.394   6.184 -0.2707 -0.6896  0.3995
  289MOL0     C39759  12.448   2.488   6.280  0.1324  0.1102  0.3833
  289MOL0     C39760  12.567   2.568   6.216  0.2767  0.3205 -0.6633
  289MOL0     N39761  12.523   2.645   6.102  0.6872 -0.2123  0.4788
  289MOL0     C39762  12.412   2.724   6.096 -0.3994 -0.8622  0.3462
  289MOL0     C39763  12.386   2.743   5.971  0.6144 -0.5031  0.5622
  289MOL0     C39764  12.260   2.808   5.911  0.1567 -0.7966 -0.0272
  289MOL0     C39765  12.128   2.740   5.937  0.5294  0.0027 -0.8507
  289MOL0     C39766  12.018   2.784   5.842  0.2807 -0.5701  0.4651
  289MOL0     C39767  11.886   2.705   5.855  0.3846 -0.3355  0.2735
  289MOL0     O39768  11.788   2.768   5.762 -0.4021  0.4169 -0.1866
  289MOL0     C39769  11.656   2.724   5.759 -0.0230 -0.7171  0.4137
  289MOL0     C39770  11.566   2.809   5.693  0.1069  0.4722  0.4796
  289MOL0     C39771  11.431   2.765   5.663  0.0051 -0.0809 -0.2400
  289MOL0     C39772  11.346   2.864   5.591 -0.4148 -0.5643  0.5722
  289MOL0     C39773  11.374   2.642   5.721 -0.3717  0.7238  0.5419
  289MOL0     C39774  11.241   2.589   5.702  0.3365  0.4258  0.6876
  289MOL0     O39775  11.221   2.466   5.765  1.1159  0.0720 -0.3853
  289MOL0     C39776  11.110   2.394   5.728 -0.4033  0.6064 -0.2034
  289MOL0     C39777  11.115   2.286   5.635 -0.9122 -0.0446 -0.4577
  289MOL0     C39778  10.998   2.233   5.574 -1.0536 -0.0149  0.1379
  289MOL0     C39779  10.867   2.282   5.625 -0.7952  0.5446 -0.7797
  289MOL0     O39780  10.757   2.234   5.557 -0.5227 -0.4150  1.1264
  289MOL0     C39781  10.705   2.108   5.607  0.0307  0.6148  0.2972
  289MOL0     C39782  10.557   2.134   5.625  0.1388 -0.0424 -0.0296
  289MOL0     C39783  10.475   2.121   5.490  0.1966 -0.2466  0.0936
  289MOL0     C39784  10.328   2.061   5.514  1.2530  0.2718  0.0237
  289MOL0     C39785  10.251   2.044   5.382 -0.2423 -0.4094  0.5995
  289MOL0     C39786  10.108   2.039   5.427  0.6321  0.1468  0.2757
  289MOL0     C39787  10.018   2.056   5.294 -0.9505  0.8123  0.0968
  289MOL0     C39788  10.027   1.930   5.201  0.0845 -0.3774  0.0791
  289MOL0    Cl39789   9.928   1.969   5.053 -0.1328  0.0720 -0.0795
  289MOL0     C39790  10.863   2.376   5.729  0.2409 -0.6679 -0.1988
  289MOL0     C39791  10.985   2.437   5.780 -1.1328  0.2837 -0.5521
  289MOL0     O39792  11.144   2.641   5.641  0.1250  0.0893 -0.0449
  289MOL0     C39793  11.467   2.577   5.811 -0.0621  0.1235  1.0245
  289MOL0     C39794  11.601   2.619   5.830  0.2624 -0.1892 -0.4191
  289MOL0     N39795  12.478   2.683   5.896 -0.0656  0.1718 -0.5879
  289MOL0     N39796  12.561   2.618   5.978 -0.1080  0.4179 -0.3050
  289MOL0     C39797  11.714   1.778   6.124 -0.1870 -0.2283 -0.3889
  289MOL0     C39798  11.597   1.703   6.128 -0.3150 -0.3695  0.4977
  289MOL0     C39799  11.215   1.464   6.020  0.3373  0.3536  0.4152
  289MOL0     C39800  11.280   1.349   6.069  0.1085 -0.3399 -0.2660
  289MOL0     C39801  11.212   1.232   6.109  1.2467  0.2447 -0.1831
  289MOL0     C39802  11.074   1.217   6.087 -0.1316  0.4931  0.3278
  289MOL0     O39803  11.014   1.100   6.135 -0.1795 -0.1773  0.1596
  289MOL0     C39804  10.870   1.095   6.143  0.2814  0.0283 -0.6572
  289MOL0     C39805  10.825   1.173   6.264 -0.2340  0.0178  0.5689
  289MOL0     C39806  10.912   1.133   6.381  0.2141  0.0407 -0.5012
  289MOL0     C39807  10.836   1.153   6.516  0.8176  0.0259 -0.8085
  289MOL0     C39808  10.791   1.292   6.538 -0.1809 -0.1602 -0.0094
  289MOL0     C39809  10.774   1.414   6.548  0.1639  0.1569 -0.0605
  289MOL0     C39810  11.014   1.332   6.037  0.4039 -0.0401 -0.7242
  289MOL0     C39811  11.074   1.454   6.009 -0.0904 -0.3523 -0.5505
  289MOL0     C39812  10.996   1.561   5.951  0.2409 -0.6458  0.5596
  289MOL0     H39813  11.513   1.702   5.804 -0.8035  0.7841  1.1627
  289MOL0     H39814  11.705   1.847   5.790 -3.8201  0.9307 -0.8129
  289MOL0     H39815  11.982   1.868   6.151 -3.6074 -2.4962  0.4865
  289MOL0     H39816  11.861   1.991   6.170  2.4415 -0.3785  3.0383
  289MOL0     H39817  12.113   2.005   6.004  0.5493  1.6794 -0.8079
  289MOL0     H39818  11.978   2.120   5.998  0.2094 -1.4748 -1.4811
  289MOL0     H39819  12.040   2.139   6.256  0.3811 -1.3012  0.9958
  289MOL0     H39820  12.174   2.043   6.218  1.2523  0.4784 -1.4402
  289MOL0     H39821  12.285   2.192   6.058  3.3085  2.0442  3.0000
  289MOL0     H39822  12.146   2.300   6.066 -1.2304 -1.0483 -1.4648
  289MOL0     H39823  12.332   2.216   6.294  2.0433 -0.3818 -3.0691
  289MOL0     H39824  12.203   2.336   6.310  0.6298  0.4791 -0.6219
  289MOL0     H39825  12.444   2.338   6.124 -0.6730  1.7548 -2.6310
  289MOL0     H39826  12.311   2.453   6.114  1.1135 -0.5820 -0.7722
  289MOL0     H39827  12.487   2.432   6.365  0.9394 -1.4775 -0.9609
  289MOL0     H39828  12.370   2.557   6.314  0.2151  0.2849  0.2198
  289MOL0     H39829  12.598   2.639   6.293 -0.8351  2.7873 -2.3646
  289MOL0     H39830  12.647   2.499   6.187 -0.4704 -0.7718 -0.2268
  289MOL0     H39831  12.351   2.759   6.179 -0.2658  1.1853 -0.3612
  289MOL0     H39832  12.272   2.797   5.803 -0.4833  1.0092 -0.3129
  289MOL0     H39833  12.254   2.915   5.933 -2.6069 -0.7493 -0.6343
  289MOL0     H39834  12.137   2.633   5.919 -4.0593 -0.7541 -0.0085
  289MOL0     H39835  12.093   2.749   6.040  0.4847 -2.0145 -0.6646
  289MOL0     H39836  12.001   2.890   5.860  0.8843 -0.4979  0.6342
  289MOL0     H39837  12.058   2.783   5.740  0.1700 -0.0804  0.4143
  289MOL0     H39838  11.899   2.597   5.850 -1.6038 -0.5806 -2.1479
  289MOL0     H39839  11.840   2.721   5.953  0.4768 -1.9741  0.6077
  289MOL0     H39840  11.593   2.908   5.655 -0.7947  0.5375 -0.0069
  289MOL0     H39841  11.354   2.853   5.483  0.7585  0.3848  0.5411
  289MOL0     H39842  11.375   2.967   5.612  1.0880 -0.9072  0.3164
  289MOL0     H39843  11.241   2.848   5.619 -0.6331 -2.1486 -0.9742
  289MOL0     H39844  11.210   2.254   5.593 -1.7489 -0.8004 -1.8595
  289MOL0     H39845  10.990   2.159   5.496 -1.2445 -0.0707  0.2081
  289MOL0     H39846  10.712   2.023   5.538 -0.9152  0.5852  0.2322
  289MOL0     H39847  10.740   2.084   5.708 -4.2493 -1.8448  1.4532
  289MOL0     H39848  10.531   2.057   5.699 -0.9298 -1.4905 -1.8318
  289MOL0     H39849  10.532   2.234   5.660  0.1719  0.4803 -1.4556
  289MOL0     H39850  10.524   2.043   5.432  3.1362  0.6272  1.2251
  289MOL0     H39851  10.472   2.218   5.440 -0.3516  1.0952  2.5608
  289MOL0     H39852  10.272   2.139   5.567  1.9010  0.9436 -0.2641
  289MOL0     H39853  10.335   1.965   5.565  2.3542  0.4060  0.1417
  289MOL0     H39854  10.263   2.125   5.309  0.0352 -0.4436  0.6046
  289MOL0     H39855  10.275   1.949   5.334 -1.8528  0.2446 -1.6256
  289MOL0     H39856  10.084   2.127   5.486  0.9971  2.7069 -3.0694
  289MOL0     H39857  10.085   1.950   5.486  1.1058 -0.2718 -0.1548
  289MOL0     H39858  10.058   2.142   5.239 -4.1592  1.9247 -0.7934
  289MOL0     H39859   9.912   2.070   5.320 -1.9654 -2.3371 -1.6762
  289MOL0     H39860   9.970   1.853   5.255 -2.1843  1.4273  0.3798
  289MOL0     H39861  10.128   1.896   5.176  1.4039 -0.6269  4.6758
  289MOL0     H39862  10.765   2.420   5.744  0.3548 -1.2103  2.5206
  289MOL0     H39863  10.983   2.529   5.836  2.7031  0.4444 -0.3854
  289MOL0     H39864  11.442   2.482   5.858  1.0299  0.4716  2.3905
  289MOL0     H39865  11.677   2.558   5.879  1.0123  0.7376 -0.4019
  289MOL0     H39866  11.761   1.779   6.222  0.3089 -1.4621 -0.6055
  289MOL0     H39867  11.572   1.648   6.218 -1.8231 -0.8652 -0.1803
  289MOL0     H39868  11.387   1.341   6.084  0.0575  0.7249  0.8607
  289MOL0     H39869  11.263   1.144   6.146 -0.0382 -1.2544 -1.7523
  289MOL0     H39870  10.823   1.131   6.050 -0.0890 -0.5937 -0.7143
  289MOL0     H39871  10.834   0.993   6.160 -3.2080  1.3185  0.6465
  289MOL0     H39872  10.720   1.151   6.287 -0.1544 -0.3523  0.5859
  289MOL0     H39873  10.833   1.281   6.248 -0.9424 -0.1186 -0.8868
  289MOL0     H39874  10.939   1.027   6.373 -2.6997 -1.0162  1.8714
  289MOL0     H39875  11.007   1.187   6.379  1.6458 -2.3207  0.2949
  289MOL0     H39876  10.894   1.127   6.605 -2.9506  1.7901  2.4574
  289MOL0     H39877  10.751   1.086   6.505 -1.1910  1.8975  2.0795
  289MOL0     H39878  10.750   1.517   6.562 -1.4149  0.0579 -1.6031
  289MOL0     H39879  10.911   1.329   6.004 -0.0876 -0.7099  0.7658
  289MOL0     H39880  10.887   1.558   5.960 -0.0285 -1.6783 -2.0692
  289MOL0     H39881  11.030   1.656   5.992  1.8669 -1.1498  0.4487
  289MOL0     H39882  11.020   1.555   5.844 -2.7614 -2.9689 -0.1458
  290MOL0     O39883   1.214   3.050   9.969  0.0300  0.0328  0.6282
  290MOL0     C39884   1.231   3.018  10.090 -0.6815  0.4731  0.2496
  290MOL0     O39885   1.334   2.938  10.131  0.3931 -0.2629  0.1184
  290MOL0     C39886   1.405   2.862  10.045  0.5892  0.3327  0.6424
  290MOL0     C39887   1.370   2.816   9.913  0.4708 -0.6592  0.7370
  290MOL0     C39888   1.434   2.713   9.843 -1.0611 -0.1737  0.2522
  290MOL0     C39889   1.551   2.659   9.898  1.1314 -0.1638 -0.0752
  290MOL0     O39890   1.621   2.563   9.816  0.8191  0.3170  0.8518
  290MOL0     C39891   1.733   2.500   9.873 -0.6649  0.2389  0.5473
  290MOL0     C39892   1.810   2.421   9.762  0.2388  0.0296  0.8543
  290MOL0     C39893   1.879   2.290   9.798  0.0822  0.0200  0.9471
  290MOL0     C39894   1.984   2.311   9.905  0.0434  0.8742 -0.8197
  290MOL0     C39895   2.070   2.187   9.936  0.2508 -0.6894 -0.2496
  290MOL0     C39896   2.158   2.196  10.068  1.0825 -0.3007 -0.5874
  290MOL0     C39897   2.246   2.324  10.073  0.5070  0.6853 -0.0223
  290MOL0     C39898   2.342   2.359   9.962 -0.4398  0.0383  0.4244
  290MOL0     N39899   2.459   2.278   9.951  0.5175 -0.3235  0.3219
  290MOL0     C39900   2.467   2.141   9.939 -0.1577 -0.5157 -0.2813
  290MOL0     C39901   2.604   2.117   9.940  0.3424  0.1961 -0.0732
  290MOL0     C39902   2.655   1.977   9.932  0.8160 -0.1797  0.6536
  290MOL0     C39903   2.767   1.944   9.836 -0.6074 -0.5367  0.5374
  290MOL0     C39904   2.742   2.014   9.700  0.5777 -0.3899 -0.3757
  290MOL0     C39905   2.845   1.967   9.595  0.2490 -0.1398  0.7917
  290MOL0     O39906   2.796   1.860   9.509  0.2960  0.3738 -0.0293
  290MOL0     C39907   2.857   1.838   9.389 -0.2312 -0.4635 -0.4112
  290MOL0     C39908   2.791   1.753   9.303  0.0019  0.1007  0.1009
  290MOL0     C39909   2.851   1.701   9.182 -0.3926 -0.5819  0.0518
  290MOL0     C39910   2.772   1.600   9.105 -0.7591  1.1294 -0.4380
  290MOL0     C39911   2.977   1.758   9.146  0.3911  0.3860 -0.4989
  290MOL0     C39912   3.050   1.723   9.028 -1.0333 -0.6385 -0.8742
  290MOL0     O39913   2.977   1.719   8.909  0.4877  0.2594  0.3118
  290MOL0     C39914   3.020   1.667   8.796 -0.4358  0.2355 -0.0521
  290MOL0     C39915   3.109   1.741   8.724 -0.2779 -0.4928 -0.3997
  290MOL0     C39916   3.164   1.684   8.607  0.1941 -0.0664  0.0750
  290MOL0     C39917   3.114   1.565   8.552  0.8880  0.3296 -0.6092
  290MOL0     O39918   3.160   1.508   8.436 -0.6764 -0.1781  0.4843
  290MOL0     C39919   3.056   1.487   8.346  0.0848  0.0111  0.1107
  290MOL0     C39920   3.110   1.409   8.222  0.7731 -0.2957  0.2191
  290MOL0     C39921   3.003   1.398   8.110  0.3780  0.3749 -0.5924
  290MOL0     C39922   3.069   1.338   7.989  0.0132  0.5955 -0.3241
  290MOL0     C39923   3.011   1.394   7.863 -0.0942  0.5558  0.3477
  290MOL0     C39924   3.075   1.333   7.733  0.3652  0.8317  0.0003
  290MOL0     C39925   3.017   1.395   7.613 -0.2236  0.0745 -0.0804
  290MOL0     C39926   3.101   1.336   7.502  0.6932  0.4447  0.5673
  290MOL0    Cl39927   3.284   1.362   7.503 -0.0818 -0.1039  0.2653
  290MOL0     C39928   3.022   1.489   8.632  0.2858 -0.4369  0.9488
  290MOL0     C39929   2.980   1.540   8.756  0.3437  0.2298  0.1121
  290MOL0     O39930   3.173   1.705   9.039  0.1077 -0.1987 -0.6299
  290MOL0     C39931   3.035   1.857   9.227  0.2050  0.2107 -0.0881
  290MOL0     C39932   2.977   1.903   9.346  0.0594  0.5189  0.2502
  290MOL0     N39933   2.677   2.228   9.966  0.7101 -0.2455 -0.5447
  290MOL0     N39934   2.588   2.324   9.975  0.0304 -0.4767  0.2233
  290MOL0     C39935   1.598   2.710  10.017 -0.6766 -1.0371 -0.4467
  290MOL0     C39936   1.516   2.794  10.094 -0.9102 -0.3878 -0.5394
  290MOL0     C39937   1.160   3.093  10.185  0.2562 -0.4438  0.2067
  290MOL0     C39938   1.237   3.152  10.290 -0.5658  0.1190 -0.1163
  290MOL0     C39939   1.170   3.227  10.384 -0.2794 -1.1052 -0.0556
  290MOL0     C39940   1.033   3.234  10.402  0.2925  0.2750  0.3863
  290MOL0     O39941   0.990   3.313  10.507  0.6320  0.1867 -0.4710
  290MOL0     C39942   0.850   3.354  10.507 -0.0076  0.4690 -0.2115
  290MOL0     C39943   0.834   3.478  10.424  0.3942 -0.8028 -0.2898
  290MOL0     C39944   0.685   3.529  10.424  0.2554  0.1583  0.0623
  290MOL0     C39945   0.578   3.427  10.375  0.1997 -0.8041 -0.2206
  290MOL0     C39946   0.460   3.493  10.318  0.4268  0.5490  0.6242
  290MOL0     C39947   0.366   3.547  10.273  0.2208 -0.1955  0.5609
  290MOL0     C39948   0.960   3.157  10.311  1.1335  0.6193  0.7039
  290MOL0     C39949   1.021   3.096  10.195  0.0337 -0.2654  0.5477
  290MOL0     C39950   0.920   3.037  10.102 -0.0676 -1.0088  0.5443
  290MOL0     H39951   1.274   2.842   9.870  0.4463 -0.1367  1.0906
  290MOL0     H39952   1.401   2.677   9.746 -2.5914  0.9620  0.3051
  290MOL0     H39953   1.698   2.420   9.939  2.2317 -0.3205  1.5167
  290MOL0     H39954   1.808   2.563   9.921 -0.1287 -1.1794  1.6320
  290MOL0     H39955   1.737   2.401   9.683  0.3763  0.0458  0.7225
  290MOL0     H39956   1.890   2.479   9.714  0.4170  0.8648  2.0937
  290MOL0     H39957   1.807   2.220   9.842  0.6980  0.7240  3.2062
  290MOL0     H39958   1.910   2.246   9.702 -0.7761 -1.6180  1.3700
  290MOL0     H39959   2.047   2.397   9.881 -0.7446  1.3437 -1.2742
  290MOL0     H39960   1.926   2.325   9.997  0.8795 -3.4561  0.5950
  290MOL0     H39961   2.145   2.167   9.858  0.0576  0.3912 -0.7278
  290MOL0     H39962   2.004   2.100   9.936 -1.1834  0.2364 -3.9473
  290MOL0     H39963   2.079   2.193  10.143  2.0956 -0.1158  0.5081
  290MOL0     H39964   2.212   2.102  10.084 -1.3185 -1.7576 -0.5300
  290MOL0     H39965   2.316   2.300  10.154 -0.6283 -1.1249  0.4906
  290MOL0     H39966   2.189   2.413  10.100 -1.1487 -0.7782  1.6131
  290MOL0     H39967   2.298   2.329   9.867  0.5546  1.0033 -0.3654
  290MOL0     H39968   2.359   2.467   9.961 -2.2990  0.3755  1.5667
  290MOL0     H39969   2.383   2.072   9.936  1.2432 -2.5221  2.0205
  290MOL0     H39970   2.570   1.913   9.909 -0.1992  0.1739  3.0634
  290MOL0     H39971   2.687   1.929  10.025  0.7198  1.8950  1.8282
  290MOL0     H39972   2.846   1.991   9.894 -1.0555  0.6907  0.1808
  290MOL0     H39973   2.793   1.838   9.831  4.0283  0.3779  1.0058
  290MOL0     H39974   2.640   2.006   9.661 -0.2020  0.4887  1.3366
  290MOL0     H39975   2.742   2.122   9.718 -0.8131 -0.6038  1.3264
  290MOL0     H39976   2.853   2.055   9.531 -0.0682 -1.2952 -0.9087
  290MOL0     H39977   2.942   1.940   9.638 -0.8381 -1.7045  2.3992
  290MOL0     H39978   2.695   1.715   9.338  0.8490 -0.5507  1.8695
  290MOL0     H39979   2.839   1.561   9.028  1.9100  1.9265  1.3655
  290MOL0     H39980   2.688   1.635   9.044 -1.3592 -0.2131 -0.4042
  290MOL0     H39981   2.743   1.517   9.170  2.3705 -0.6002 -1.0439
  290MOL0     H39982   3.144   1.830   8.775 -0.6339 -0.9319  0.6269
  290MOL0     H39983   3.238   1.733   8.544 -1.3735  1.5996 -0.5644
  290MOL0     H39984   2.974   1.428   8.389 -0.1404 -1.4325 -2.1481
  290MOL0     H39985   3.009   1.579   8.308 -0.3390 -0.1045  0.3519
  290MOL0     H39986   3.196   1.465   8.183  0.9010  0.2626  1.2717
  290MOL0     H39987   3.146   1.309   8.248 -0.1587 -1.1544 -1.5695
  290MOL0     H39988   2.949   1.490   8.085 -0.3999 -0.0540 -0.5402
  290MOL0     H39989   2.924   1.327   8.137 -1.5325  1.9011 -1.8360
  290MOL0     H39990   3.037   1.233   7.990  0.0454  0.5016  3.1687
  290MOL0     H39991   3.176   1.356   7.994  0.2358 -0.4361 -0.9142
  290MOL0     H39992   2.903   1.376   7.861 -0.2291  1.3448  0.3251
  290MOL0     H39993   3.020   1.503   7.859 -1.3820  0.6430 -2.3002
  290MOL0     H39994   3.071   1.224   7.729 -3.7596  0.7628  1.2444
  290MOL0     H39995   3.180   1.360   7.742  1.4345 -1.2680 -4.0241
  290MOL0     H39996   3.027   1.504   7.610  1.5751  0.0051  1.4671
  290MOL0     H39997   2.914   1.364   7.593 -0.2999  0.0130  0.3999
  290MOL0     H39998   3.071   1.374   7.403  0.2540 -1.0512  0.0878
  290MOL0     H39999   3.067   1.232   7.498  1.7626  0.0465  1.4842
  290MOL0     H40000   2.971   1.401   8.595 -1.8755  0.8730  0.6513
  290MOL0     H40001   2.918   1.483   8.823 -0.2080  0.2941 -0.3373
  290MOL0     H40002   3.137   1.889   9.211  0.0466 -0.7417 -4.0650
  290MOL0     H40003   3.022   1.981   9.406  0.0753  3.1575 -2.8767
  290MOL0     H40004   1.695   2.677  10.054 -0.5278 -1.0587 -0.8499
  290MOL0     H40005   1.549   2.821  10.194  0.4236  1.8511 -1.5269
  290MOL0     H40006   1.345   3.151  10.295 -0.5411  1.4554  4.5546
  290MOL0     H40007   1.215   3.282  10.466  0.5403 -2.1037  0.1858
  290MOL0     H40008   0.786   3.272  10.473 -0.9423  0.4973  1.3869
  290MOL0     H40009   0.821   3.370  10.611  2.9420  0.6748  0.6669
  290MOL0     H40010   0.857   3.457  10.320 -1.1346 -1.4146 -0.5288
  290MOL0     H40011   0.895   3.557  10.470 -2.6596  0.9641  1.1057
  290MOL0     H40012   0.671   3.558  10.529  1.3247 -0.1628  0.3071
  290MOL0     H40013   0.680   3.618  10.362  0.7399 -0.0816 -0.3267
  290MOL0     H40014   0.552   3.368  10.464 -2.2739  1.5895  0.7774
  290MOL0     H40015   0.629   3.377  10.292 -0.3725  0.3758 -1.3114
  290MOL0     H40016   0.283   3.597  10.228  1.9322  1.5688 -0.8553
  290MOL0     H40017   0.852   3.148  10.320  1.2018 -0.6933  0.4328
  290MOL0     H40018   0.947   2.942  10.055 -1.5774 -1.2736  0.1695
  290MOL0     H40019   0.827   3.007  10.151 -1.4097  0.4044 -1.0202
  290MOL0     H40020   0.886   3.104  10.023  1.3101 -1.0188 -0.0955
  291MOL0     O40021   1.487   3.588   2.745 -0.2155  0.7403 -0.8379
  291MOL0     C40022   1.437   3.623   2.637 -0.5919  0.1578  0.4746
  291MOL0     O40023   1.307   3.660   2.607 -0.2980 -0.6204  0.3256
  291MOL0     C40024   1.201   3.659   2.692 -0.3055  0.0671 -0.6341
  291MOL0     C40025   1.078   3.709   2.627 -1.1558  0.4818 -0.1016
  291MOL0     C40026   0.963   3.708   2.704  0.8715 -0.2770 -0.7112
  291MOL0     C40027   0.951   3.653   2.831  0.0934 -1.0536 -0.3789
  291MOL0     O40028   0.845   3.657   2.915  0.0983  0.2755 -0.5356
  291MOL0     C40029   0.715   3.678   2.856 -0.4095  0.9824 -0.8624
  291MOL0     C40030   0.619   3.737   2.952 -0.2760 -1.0410 -0.2371
  291MOL0     C40031   0.568   3.637   3.055 -0.3562 -0.2511  1.0463
  291MOL0     C40032   0.423   3.612   3.037  0.3040 -0.8474 -0.7848
  291MOL0     C40033   0.368   3.496   3.117 -0.2467 -0.8899  0.2246
  291MOL0     C40034   0.403   3.361   3.071  0.3774  0.1478 -0.7836
  291MOL0     C40035   0.350   3.310   2.935  0.2646 -0.6751 -0.3573
  291MOL0     C40036   0.351   3.162   2.914  0.4632 -0.0751  0.6493
  291MOL0     N40037   0.321   3.139   2.773 -0.5348 -0.7031 -0.1590
  291MOL0     C40038   0.205   3.172   2.703 -0.5735  0.6793  0.8976
  291MOL0     C40039   0.218   3.119   2.579 -0.5861 -0.4041 -0.7895
  291MOL0     C40040   0.106   3.107   2.484 -0.2430  0.1086 -0.1253
  291MOL0     C40041   0.086   2.965   2.442  0.2192 -0.1574  0.4669
  291MOL0     C40042   0.138   2.930   2.306 -0.1447 -0.0555 -0.9008
  291MOL0     C40043   0.099   2.793   2.259  0.0777  0.0793  0.2991
  291MOL0     O40044   0.136   2.760   2.129  0.6976  0.8874  1.0453
  291MOL0     C40045   0.273   2.751   2.094  0.4241 -0.6878 -0.1592
  291MOL0     C40046   0.335   2.855   2.019 -0.5372  0.6011 -0.4817
  291MOL0     C40047   0.469   2.850   1.992 -0.5244  0.2974  0.7487
  291MOL0     C40048   0.533   2.970   1.917 -0.1116  0.3481 -0.2215
  291MOL0     C40049   0.541   2.725   2.010  0.0080  0.2271  0.0550
  291MOL0     C40050   0.676   2.697   1.963 -0.2229  0.8508 -0.2624
  291MOL0     O40051   0.736   2.593   2.040  0.2161  0.4171  0.3361
  291MOL0     C40052   0.881   2.589   2.035  0.7563 -0.6816  0.1005
  291MOL0     C40053   0.950   2.552   2.155  1.1087 -0.2758  0.1475
  291MOL0     C40054   1.086   2.544   2.164 -0.2874 -0.2990  0.4780
  291MOL0     C40055   1.162   2.556   2.053 -0.8434 -0.1947  0.4011
  291MOL0     O40056   1.289   2.529   2.079  0.2406  0.0353 -0.1442
  291MOL0     C40057   1.377   2.626   2.013  0.1141  0.1239  0.0575
  291MOL0     C40058   1.516   2.620   2.076  0.0142 -0.2522  0.8960
  291MOL0     C40059   1.594   2.492   2.058 -0.1523  0.1012 -0.5352
  291MOL0     C40060   1.734   2.498   2.130 -0.1370 -0.9899  0.6229
  291MOL0     C40061   1.801   2.372   2.095 -0.9868  1.1541 -0.3983
  291MOL0     C40062   1.949   2.384   2.140  1.5136 -0.9104  0.3398
  291MOL0     C40063   2.038   2.269   2.093  0.1850 -0.4404  0.1693
  291MOL0     C40064   2.186   2.305   2.094  0.3123  0.1880  0.5221
  291MOL0    Cl40065   2.222   2.380   2.252  0.2175  0.0776 -0.6426
  291MOL0     C40066   1.104   2.584   1.924  0.2033 -0.3650  0.5901
  291MOL0     C40067   0.965   2.600   1.921 -0.6887 -0.1120 -0.8337
  291MOL0     O40068   0.719   2.756   1.863  0.3717  0.0138 -0.0134
  291MOL0     C40069   0.475   2.624   2.086  0.5824 -0.0537  0.9817
  291MOL0     C40070   0.341   2.637   2.129  0.4211  0.9866  0.0619
  291MOL0     N40071   0.339   3.058   2.567  0.2386  0.3270 -0.0738
  291MOL0     N40072   0.391   3.057   2.686 -0.5471 -0.8004 -0.4241
  291MOL0     C40073   1.070   3.619   2.890  0.2787  0.5245 -0.2502
  291MOL0     C40074   1.198   3.619   2.826  0.2963 -0.1235  0.1505
  291MOL0     C40075   1.531   3.648   2.525  0.1626 -0.4366 -0.0393
  291MOL0     C40076   1.496   3.610   2.394  0.2158 -0.0181 -0.3046
  291MOL0     C40077   1.576   3.638   2.285  0.5673 -0.4622 -0.6325
  291MOL0     C40078   1.697   3.712   2.292 -0.0458  0.1096  0.7475
  291MOL0     O40079   1.765   3.735   2.175 -0.2733  0.4840 -0.0013
  291MOL0     C40080   1.890   3.807   2.189  0.2650  1.1178 -0.8912
  291MOL0     C40081   1.937   3.820   2.049 -0.3839  0.0020  0.3644
  291MOL0     C40082   1.837   3.894   1.950 -0.3528 -0.6400 -0.9813
  291MOL0     C40083   1.881   3.880   1.800  0.0932  0.2630  0.1620
  291MOL0     C40084   2.010   3.940   1.777  0.3104  0.7073 -0.1503
  291MOL0     C40085   2.120   3.986   1.750  1.2210 -0.3042  0.0447
  291MOL0     C40086   1.732   3.742   2.424  0.6006 -1.0791  0.4975
  291MOL0     C40087   1.658   3.710   2.541 -0.0353 -0.2404 -0.5451
  291MOL0     C40088   1.727   3.749   2.667 -0.1135  0.4054 -0.3762
  291MOL0     H40089   1.083   3.732   2.521  1.5550  0.5191 -0.0443
  291MOL0     H40090   0.878   3.745   2.647 -0.1955 -1.6850 -0.1098
  291MOL0     H40091   0.665   3.584   2.829 -2.3504  2.1146 -1.3771
  291MOL0     H40092   0.723   3.756   2.780  0.2689  1.1627 -0.6155
  291MOL0     H40093   0.662   3.824   3.003 -0.6812 -1.1783  0.3502
  291MOL0     H40094   0.532   3.777   2.899 -1.7983 -2.4878  1.0663
  291MOL0     H40095   0.630   3.547   3.061  0.8462  0.6182  2.1619
  291MOL0     H40096   0.577   3.674   3.157 -1.7086  1.3868  0.6185
  291MOL0     H40097   0.369   3.704   3.060  1.3973 -0.5911  0.9532
  291MOL0     H40098   0.410   3.595   2.929 -0.3230 -0.3781 -0.7834
  291MOL0     H40099   0.260   3.510   3.114 -0.2121 -0.7056 -0.2177
  291MOL0     H40100   0.401   3.521   3.219 -1.9012  2.3924  0.0986
  291MOL0     H40101   0.511   3.354   3.058  0.5307 -0.3307  0.6076
  291MOL0     H40102   0.361   3.295   3.147 -1.6261  3.1144  0.9012
  291MOL0     H40103   0.401   3.350   2.847 -0.2013 -2.4553 -1.4941
  291MOL0     H40104   0.252   3.354   2.913 -0.4722 -2.4309 -0.7644
  291MOL0     H40105   0.443   3.109   2.940 -0.2003 -1.3845  0.3990
  291MOL0     H40106   0.269   3.113   2.967  0.3240 -1.3320 -0.6825
  291MOL0     H40107   0.114   3.218   2.742  1.1152  3.2872  2.0446
  291MOL0     H40108   0.135   3.161   2.394  1.8240  1.1776  1.0929
  291MOL0     H40109   0.014   3.141   2.532  1.0821 -0.0537  2.7726
  291MOL0     H40110   0.120   2.893   2.517  1.7441  1.1005  1.0217
  291MOL0     H40111  -0.024   2.967   2.444  0.2349  1.5348  1.4951
  291MOL0     H40112   0.101   3.006   2.238 -0.2994 -0.0737 -0.8371
  291MOL0     H40113   0.247   2.927   2.312 -0.1997 -1.4076  0.3092
  291MOL0     H40114   0.141   2.718   2.327 -2.0679 -0.3760  1.1999
  291MOL0     H40115  -0.008   2.774   2.276  0.2230 -1.6659 -0.5157
  291MOL0     H40116   0.277   2.942   1.988 -2.7867 -0.5021  0.4944
  291MOL0     H40117   0.484   3.064   1.942  1.4190  1.1793 -0.2324
  291MOL0     H40118   0.541   2.953   1.809 -0.2269  0.5751 -0.2649
  291MOL0     H40119   0.636   2.989   1.948  0.9074 -1.5892 -2.1426
  291MOL0     H40120   0.885   2.543   2.242 -1.9982 -0.1307 -1.9731
  291MOL0     H40121   1.120   2.518   2.264 -0.6062 -3.9359 -0.2419
  291MOL0     H40122   1.383   2.585   1.912 -3.1903 -1.1542  0.2573
  291MOL0     H40123   1.337   2.727   2.023 -0.9093 -0.2187 -0.4575
  291MOL0     H40124   1.572   2.699   2.026 -1.8751  0.5540 -0.0279
  291MOL0     H40125   1.499   2.635   2.183 -0.2740 -0.9908  0.9599
  291MOL0     H40126   1.618   2.466   1.954  1.8717  1.4403 -0.4703
  291MOL0     H40127   1.538   2.411   2.106  0.4224 -0.1569 -0.2979
  291MOL0     H40128   1.714   2.516   2.236 -2.2952 -0.1966  0.1376
  291MOL0     H40129   1.792   2.587   2.102  2.6121 -2.1877  2.1171
  291MOL0     H40130   1.745   2.294   2.148  1.0666  1.2213  2.0723
  291MOL0     H40131   1.797   2.358   1.986  0.0703  0.8519 -0.4097
  291MOL0     H40132   1.953   2.409   2.246 -0.6745 -2.5268  0.8548
  291MOL0     H40133   2.001   2.461   2.080  0.5593  1.3430  2.2395
  291MOL0     H40134   2.020   2.235   1.991  1.7996  3.6773 -1.7114
  291MOL0     H40135   2.024   2.189   2.166 -0.3816  1.5075  2.3292
  291MOL0     H40136   2.206   2.358   2.001 -2.5283 -3.1646 -2.2616
  291MOL0     H40137   2.248   2.217   2.077 -2.0074 -1.6809  1.2789
  291MOL0     H40138   1.157   2.598   1.831 -0.0248  2.1189  0.7710
  291MOL0     H40139   0.917   2.606   1.824  0.0491 -1.3655 -1.2983
  291MOL0     H40140   0.514   2.527   2.116 -0.5446  0.3792  4.2257
  291MOL0     H40141   0.303   2.558   2.194  2.3300 -0.5348 -0.5605
  291MOL0     H40142   1.060   3.580   2.992 -0.1689 -0.7892 -0.7689
  291MOL0     H40143   1.280   3.575   2.881  0.2648 -1.9285 -1.1466
  291MOL0     H40144   1.403   3.562   2.364 -0.5275  2.0188 -1.5540
  291MOL0     H40145   1.541   3.593   2.193  3.5279 -2.3857 -0.9638
  291MOL0     H40146   1.882   3.901   2.244 -0.6010  0.1910  0.6393
  291MOL0     H40147   1.969   3.753   2.242 -1.5468  0.8596  1.7050
  291MOL0     H40148   1.945   3.718   2.011  2.4958  1.2341 -2.8419
  291MOL0     H40149   2.038   3.862   2.045  0.2804 -1.5047  0.8235
  291MOL0     H40150   1.734   3.864   1.971 -0.1061 -1.4765 -0.9399
  291MOL0     H40151   1.834   3.997   1.988  1.2267 -1.0066  0.2287
  291MOL0     H40152   1.804   3.913   1.729 -1.1996  0.0400  1.3963
  291MOL0     H40153   1.890   3.773   1.780  1.1444 -0.1149  2.4303
  291MOL0     H40154   2.220   4.024   1.737  0.1997  2.1364 -1.4966
  291MOL0     H40155   1.826   3.796   2.430 -0.1997  0.6657 -1.2931
  291MOL0     H40156   1.736   3.664   2.734 -1.0126 -0.9216 -1.8712
  291MOL0     H40157   1.829   3.783   2.649 -0.1263  0.1693 -0.9230
  291MOL0     H40158   1.669   3.829   2.715 -1.1803 -0.2599 -0.5153
  292MOL0     O40159   5.152   8.609   0.832 -0.6238 -0.6420 -0.1090
  292MOL0     C40160   5.063   8.632   0.908  0.9774  0.2910 -0.4003
  292MOL0     O40161   5.028   8.560   1.020 -0.0407  0.0993 -0.1064
  292MOL0     C40162   5.134   8.490   1.083 -0.1441 -0.1635  1.0983
  292MOL0     C40163   5.103   8.370   1.149  0.8729  0.5886  0.7742
  292MOL0     C40164   5.201   8.289   1.214  0.2330 -0.5307 -0.3095
  292MOL0     C40165   5.330   8.343   1.224 -0.4516  0.3540  0.5114
  292MOL0     O40166   5.439   8.275   1.265  0.3940 -0.2173  0.0639
  292MOL0     C40167   5.425   8.139   1.311 -0.0131  0.2194  0.6124
  292MOL0     C40168   5.454   8.042   1.189 -0.3283 -0.0343 -0.4322
  292MOL0     C40169   5.605   8.016   1.184 -0.4344 -0.3500  0.2635
  292MOL0     C40170   5.625   7.936   1.057 -0.0455 -0.2170  0.5239
  292MOL0     C40171   5.771   7.887   1.032 -0.8850 -0.2360  0.7496
  292MOL0     C40172   5.779   7.784   0.919  0.1767  0.3112  1.4446
  292MOL0     C40173   5.921   7.754   0.878  0.2164  0.3951 -0.4567
  292MOL0     C40174   5.914   7.663   0.754  0.0275  0.6671  0.0133
  292MOL0     N40175   5.805   7.556   0.741 -0.6799  0.1382  0.1664
  292MOL0     C40176   5.798   7.449   0.827  0.8648 -0.1817 -0.0852
  292MOL0     C40177   5.677   7.401   0.798 -0.3167  0.9791 -0.2238
  292MOL0     C40178   5.618   7.271   0.849 -0.1358  0.7750  0.7834
  292MOL0     C40179   5.632   7.149   0.750 -0.2113 -0.5025 -0.0339
  292MOL0     C40180   5.780   7.110   0.736  0.1986  0.0814  0.3822
  292MOL0     C40181   5.797   7.000   0.636 -0.7664 -0.3630  0.2832
  292MOL0     O40182   5.906   6.909   0.662 -0.3596  0.3412 -0.5353
  292MOL0     C40183   5.899   6.778   0.611 -0.2643  0.2331 -0.3583
  292MOL0     C40184   5.833   6.746   0.495 -0.7873 -0.1055  0.2187
  292MOL0     C40185   5.851   6.625   0.422  0.5037  0.9068 -0.8750
  292MOL0     C40186   5.764   6.610   0.299 -0.0853 -0.8851  0.4643
  292MOL0     C40187   5.917   6.520   0.482  0.3015 -0.3115  0.1119
  292MOL0     C40188   5.924   6.387   0.425 -0.4034 -0.2534  0.0974
  292MOL0     O40189   6.038   6.320   0.457  0.2932  0.1224 -0.5976
  292MOL0     C40190   6.070   6.201   0.397  0.9488 -0.4639 -0.7956
  292MOL0     C40191   6.069   6.081   0.461  0.2353  0.0579 -0.3672
  292MOL0     C40192   6.127   5.972   0.396 -0.3556 -0.8566 -0.9510
  292MOL0     C40193   6.176   5.981   0.270 -0.4656  0.1337  0.4860
  292MOL0     O40194   6.233   5.880   0.206  0.2280 -0.7606 -0.0536
  292MOL0     C40195   6.190   5.745   0.217 -0.6737  0.8110  0.6590
  292MOL0     C40196   6.239   5.660   0.108 -0.5867  1.0937  0.0882
  292MOL0     C40197   6.394   5.649   0.102  0.9052  0.3211  0.0166
  292MOL0     C40198   6.456   5.533   0.017 -0.3962 -0.5723  0.7026
  292MOL0     C40199   6.611   5.540   0.032  0.0858 -0.3622  0.9883
  292MOL0     C40200   6.663   5.502   0.170  0.2080 -0.0944  0.3472
  292MOL0     C40201   6.608   5.375   0.244 -0.2856  0.2580 -0.6527
  292MOL0     C40202   6.639   5.382   0.396 -0.1802 -0.3169 -0.2666
  292MOL0    Cl40203   6.609   5.222   0.473 -0.3648 -0.1181  0.2724
  292MOL0     C40204   6.177   6.100   0.205  0.0327 -0.1634  0.1712
  292MOL0     C40205   6.125   6.214   0.272 -0.2677 -0.0693  0.7098
  292MOL0     O40206   5.830   6.341   0.357  0.2488  0.2441  0.1759
  292MOL0     C40207   5.975   6.547   0.607 -0.0612  0.0532  0.3189
  292MOL0     C40208   5.976   6.675   0.673 -0.9277  0.0245  0.5382
  292MOL0     N40209   5.604   7.482   0.705 -0.2451  0.1632  0.0084
  292MOL0     N40210   5.687   7.573   0.668 -0.5427 -0.1732 -0.4469
  292MOL0     C40211   5.358   8.461   1.169  0.5379  0.3592 -0.5929
  292MOL0     C40212   5.263   8.540   1.099 -0.3215 -0.4735 -0.4092
  292MOL0     C40213   4.984   8.757   0.896  0.1359 -0.4715  1.0416
  292MOL0     C40214   4.864   8.774   0.969 -0.7195  0.1831 -0.4743
  292MOL0     C40215   4.805   8.898   0.978 -0.1734  0.7875 -0.6797
  292MOL0     C40216   4.861   9.021   0.922 -0.4025  0.9472  0.2186
  292MOL0     O40217   4.799   9.147   0.948  0.0072  1.0498  0.7260
  292MOL0     C40218   4.801   9.237   0.837  0.4313  0.3829 -0.6531
  292MOL0     C40219   4.684   9.334   0.835 -0.0920  0.7956  0.2595
  292MOL0     C40220   4.697   9.424   0.969 -0.4243 -1.1090  1.3026
  292MOL0     C40221   4.571   9.522   0.983 -0.5582 -0.5258  0.2027
  292MOL0     C40222   4.587   9.632   0.895 -0.2649  0.0212 -0.1983
  292MOL0     C40223   4.610   9.727   0.817  1.0644  0.6956  0.2967
  292MOL0     C40224   4.971   9.001   0.836  0.5016  0.8339 -0.4405
  292MOL0     C40225   5.029   8.872   0.820 -0.2334 -0.4210 -0.6240
  292MOL0     C40226   5.145   8.868   0.733 -0.6700  0.0448 -1.0531
  292MOL0     H40227   5.005   8.325   1.137  1.4247 -1.3694  2.8598
  292MOL0     H40228   5.165   8.191   1.243 -0.1558 -0.2822  0.0697
  292MOL0     H40229   5.325   8.103   1.339 -0.5977  1.4080  0.0765
  292MOL0     H40230   5.484   8.129   1.403 -1.9449  0.6020  1.9583
  292MOL0     H40231   5.404   7.945   1.189  2.4121 -1.5401 -1.3532
  292MOL0     H40232   5.418   8.097   1.101 -0.3305  1.6779  0.5947
  292MOL0     H40233   5.663   8.109   1.178 -1.5603  0.4368  1.1183
  292MOL0     H40234   5.635   7.959   1.272  0.1832 -0.0369  0.2598
  292MOL0     H40235   5.555   7.851   1.053  2.9146 -2.8045 -1.4485
  292MOL0     H40236   5.597   7.992   0.967  3.3700 -1.3803 -1.4601
  292MOL0     H40237   5.824   7.848   1.119 -0.3258 -0.7102  0.2112
  292MOL0     H40238   5.826   7.977   1.005  1.9782 -1.5914  1.5957
  292MOL0     H40239   5.726   7.693   0.949 -2.0713  0.9809 -0.1541
  292MOL0     H40240   5.727   7.837   0.838  1.6027 -0.5918 -0.1234
  292MOL0     H40241   5.969   7.695   0.958 -4.0737 -1.7808  0.8094
  292MOL0     H40242   5.973   7.848   0.860 -0.9630  1.1011 -0.2091
  292MOL0     H40243   5.908   7.725   0.664  1.4105  1.0134  0.1496
  292MOL0     H40244   6.010   7.610   0.751 -2.2701 -4.0223 -1.5513
  292MOL0     H40245   5.877   7.418   0.894  0.8979  1.0101  0.4409
  292MOL0     H40246   5.517   7.278   0.891 -0.7676  1.2751 -0.7647
  292MOL0     H40247   5.687   7.245   0.930  0.1502  1.6130  0.8199
  292MOL0     H40248   5.575   7.073   0.803  0.9980 -1.0430  0.5007
  292MOL0     H40249   5.590   7.180   0.653  2.0745  0.6073 -0.7533
  292MOL0     H40250   5.836   7.195   0.695 -1.1554 -1.0343 -4.5068
  292MOL0     H40251   5.816   7.073   0.832 -2.2918 -1.3972  0.8132
  292MOL0     H40252   5.702   6.948   0.623 -0.4076 -0.7121 -1.1718
  292MOL0     H40253   5.811   7.047   0.538 -3.9539 -0.6050 -0.4229
  292MOL0     H40254   5.773   6.827   0.453 -1.4867 -0.2125  0.9845
  292MOL0     H40255   5.827   6.593   0.212 -3.1371 -2.6577 -1.5877
  292MOL0     H40256   5.709   6.702   0.276 -2.5708 -2.1031  1.1074
  292MOL0     H40257   5.684   6.534   0.301 -0.2965 -1.2657 -5.2885
  292MOL0     H40258   6.046   6.079   0.567  0.8476  1.3833 -0.1967
  292MOL0     H40259   6.139   5.875   0.443  1.8941  0.0405  0.4766
  292MOL0     H40260   6.235   5.711   0.310 -2.2548 -0.4150  1.0227
  292MOL0     H40261   6.081   5.734   0.227 -0.5903 -1.1071 -0.1428
  292MOL0     H40262   6.200   5.559   0.125 -2.0119  0.7929 -3.8509
  292MOL0     H40263   6.191   5.689   0.014 -0.3576 -1.3290 -0.8403
  292MOL0     H40264   6.437   5.641   0.202  1.7455  3.8732  0.0526
  292MOL0     H40265   6.432   5.742   0.059 -1.6661  1.1750 -0.5921
  292MOL0     H40266   6.433   5.544  -0.090  3.3183  1.8891 -0.0323
  292MOL0     H40267   6.422   5.436   0.054  3.8485 -2.1100  1.2207
  292MOL0     H40268   6.653   5.478  -0.047  2.2038  1.5808  0.4981
  292MOL0     H40269   6.637   5.639  -0.004  0.9131 -1.0437 -0.3788
  292MOL0     H40270   6.660   5.593   0.230 -3.5162  0.1649 -0.0411
  292MOL0     H40271   6.768   5.481   0.147  0.2265  1.3312 -1.0073
  292MOL0     H40272   6.655   5.286   0.200 -3.5757 -1.1342 -1.6254
  292MOL0     H40273   6.499   5.375   0.236 -0.4402 -0.0223  1.0013
  292MOL0     H40274   6.581   5.469   0.431 -1.4247 -1.5220  0.8255
  292MOL0     H40275   6.741   5.417   0.411 -0.1960 -0.8316  1.2315
  292MOL0     H40276   6.220   6.108   0.106 -1.7088  0.9981 -0.5331
  292MOL0     H40277   6.139   6.316   0.236 -4.0020  0.8034  1.3658
  292MOL0     H40278   6.025   6.464   0.656 -1.3630 -1.2326 -0.4534
  292MOL0     H40279   6.026   6.683   0.768  1.6781 -3.4642 -0.3476
  292MOL0     H40280   5.460   8.495   1.181  0.4283  1.3576 -2.2965
  292MOL0     H40281   5.287   8.639   1.061 -0.3191 -0.1726  0.3490
  292MOL0     H40282   4.811   8.696   1.022 -2.0546  2.5137  1.8673
  292MOL0     H40283   4.715   8.906   1.039 -1.9846 -1.3391 -2.8332
  292MOL0     H40284   4.889   9.300   0.846 -0.8124  2.1222 -0.0588
  292MOL0     H40285   4.813   9.182   0.743  2.6311 -1.1693  0.4613
  292MOL0     H40286   4.592   9.275   0.830  0.5507 -0.1345 -2.4076
  292MOL0     H40287   4.692   9.394   0.744 -0.2610 -1.2297 -1.1578
  292MOL0     H40288   4.705   9.354   1.054  1.5642  0.8726  2.8666
  292MOL0     H40289   4.787   9.484   0.954 -0.2135 -1.9224 -1.1011
  292MOL0     H40290   4.563   9.554   1.088  0.8699 -2.1073  0.8394
  292MOL0     H40291   4.474   9.482   0.951  0.3335 -1.9140 -0.8591
  292MOL0     H40292   4.626   9.795   0.737  0.1710 -0.6353 -1.0742
  292MOL0     H40293   5.007   9.093   0.792 -1.3859  0.8888 -1.9906
  292MOL0     H40294   5.162   8.967   0.689 -0.1936  0.5287  0.1811
  292MOL0     H40295   5.239   8.840   0.780 -1.5891 -0.7102  0.4380
  292MOL0     H40296   5.127   8.803   0.647  1.3303 -1.7839 -0.1757
  293MOL0     O40297   4.382   1.779   9.462  0.2443  0.6473 -0.5310
  293MOL0     C40298   4.329   1.811   9.358  0.3655  0.6047  0.2420
  293MOL0     O40299   4.362   1.914   9.278 -0.1982 -0.3486  0.0090
  293MOL0     C40300   4.475   2.000   9.289 -0.8546  0.3128  0.6201
  293MOL0     C40301   4.484   2.105   9.193 -0.0954 -0.0223 -0.2379
  293MOL0     C40302   4.611   2.179   9.169  0.2953 -0.1510  0.5916
  293MOL0     C40303   4.714   2.144   9.254  0.0883 -0.1396  0.9649
  293MOL0     O40304   4.830   2.212   9.249  0.2620 -0.1303  0.1802
  293MOL0     C40305   4.869   2.283   9.122  0.0098 -0.2363 -0.6862
  293MOL0     C40306   4.896   2.186   9.006  0.4018 -0.6046 -0.7125
  293MOL0     C40307   5.006   2.094   9.053  0.5268  0.2237  0.4356
  293MOL0     C40308   5.043   2.002   8.932 -0.7092  0.1988 -0.7931
  293MOL0     C40309   5.072   2.055   8.786  0.1752 -0.9255  0.0628
  293MOL0     C40310   5.087   1.923   8.694  0.1389 -0.3059 -0.3983
  293MOL0     C40311   5.140   1.955   8.550  0.5747  0.0348 -0.9440
  293MOL0     C40312   5.125   1.831   8.452 -0.1736 -0.6138  1.0250
  293MOL0     N40313   4.984   1.806   8.415  0.0955  0.4780 -0.0337
  293MOL0     C40314   4.916   1.842   8.308 -0.0722  0.4360  0.5332
  293MOL0     C40315   4.788   1.788   8.331 -0.6445 -0.1583 -0.1801
  293MOL0     C40316   4.673   1.806   8.233  0.3084 -0.5349  0.1720
  293MOL0     C40317   4.586   1.933   8.262  0.2106 -0.9192 -1.1232
  293MOL0     C40318   4.468   1.948   8.170 -0.6151  0.8998 -0.4409
  293MOL0     C40319   4.387   2.061   8.225  0.4616  0.3010  0.8659
  293MOL0     O40320   4.319   2.017   8.338  0.0762  0.2490  0.9128
  293MOL0     C40321   4.228   2.111   8.398  0.0282  1.4471  0.1579
  293MOL0     C40322   4.100   2.073   8.426  0.4893 -0.1372 -0.5857
  293MOL0     C40323   4.001   2.154   8.491  0.0403 -0.1483 -0.2014
  293MOL0     C40324   3.862   2.094   8.521 -0.2552 -0.1315  1.4168
  293MOL0     C40325   4.039   2.282   8.521  0.4295 -0.8161  0.3387
  293MOL0     C40326   3.953   2.374   8.606  0.6085  0.3266  0.4894
  293MOL0     O40327   3.811   2.362   8.591  0.0167  0.1067 -1.1604
  293MOL0     C40328   3.739   2.421   8.687  0.0858 -0.0931  0.8657
  293MOL0     C40329   3.685   2.344   8.790 -0.6437 -0.3413  0.2296
  293MOL0     C40330   3.588   2.397   8.870 -0.0520 -0.1784 -1.4054
  293MOL0     C40331   3.556   2.530   8.867  0.8361 -0.7464 -0.4563
  293MOL0     O40332   3.445   2.578   8.942  0.3353  0.1444 -0.0083
  293MOL0     C40333   3.446   2.707   9.006 -0.2033 -0.0401  0.2633
  293MOL0     C40334   3.334   2.802   8.958 -0.9247 -0.2768  0.8030
  293MOL0     C40335   3.280   2.876   9.080 -0.6026 -0.2900 -0.7760
  293MOL0     C40336   3.161   2.974   9.055 -0.0200  0.0565 -0.3738
  293MOL0     C40337   3.150   3.069   9.180 -0.0742 -0.1519  0.5864
  293MOL0     C40338   3.060   3.189   9.143  0.3095 -0.3641 -0.4298
  293MOL0     C40339   3.093   3.302   9.235 -0.3388 -0.7638 -0.2878
  293MOL0     C40340   3.023   3.429   9.196 -0.0229  0.9427 -0.6802
  293MOL0    Cl40341   2.847   3.429   9.226  0.0868 -0.1649  0.1970
  293MOL0     C40342   3.615   2.614   8.766  0.2675  0.2268 -0.3472
  293MOL0     C40343   3.706   2.548   8.674  0.4265 -0.2033 -0.5302
  293MOL0     O40344   4.019   2.451   8.675  0.5523 -0.0757  0.5930
  293MOL0     C40345   4.158   2.328   8.474 -0.0953 -0.3827  1.0951
  293MOL0     C40346   4.257   2.243   8.418  0.2932 -0.4249 -1.2740
  293MOL0     N40347   4.791   1.735   8.460 -0.0156 -0.7606  0.2041
  293MOL0     N40348   4.906   1.739   8.501  0.0323  0.5931 -0.1800
  293MOL0     C40349   4.709   2.048   9.350  0.6006 -0.0420 -0.1314
  293MOL0     C40350   4.588   1.974   9.368 -0.9443  0.0645 -0.0248
  293MOL0     C40351   4.214   1.723   9.315  0.1306  0.3719  0.0015
  293MOL0     C40352   4.255   1.585   9.297  0.7812  0.2739 -0.5518
  293MOL0     C40353   4.156   1.493   9.258  0.2829  0.2754  1.2992
  293MOL0     C40354   4.017   1.530   9.232 -0.5086  0.5229 -0.5435
  293MOL0     O40355   3.910   1.458   9.195 -0.2470  0.1726  0.1745
  293MOL0     C40356   3.929   1.311   9.219  0.3938 -0.3844 -0.4921
  293MOL0     C40357   3.796   1.234   9.190  0.5220 -0.1354 -0.4117
  293MOL0     C40358   3.689   1.300   9.282  0.5127 -0.1128 -0.7792
  293MOL0     C40359   3.623   1.204   9.381  0.1640  0.0167  0.3483
  293MOL0     C40360   3.553   1.095   9.306 -0.1859 -0.0999 -1.2509
  293MOL0     C40361   3.509   1.001   9.247 -0.3506  0.7225  0.3247
  293MOL0     C40362   3.991   1.663   9.258  0.6662 -0.5146  0.2682
  293MOL0     C40363   4.084   1.760   9.303  0.0745  0.0526  0.4951
  293MOL0     C40364   4.033   1.897   9.333  0.9137  0.3080 -0.0830
  293MOL0     H40365   4.400   2.112   9.125 -1.7465  1.7826  1.8237
  293MOL0     H40366   4.613   2.262   9.100 -2.5322  0.3838  1.0218
  293MOL0     H40367   4.964   2.334   9.139  0.5832 -0.9725 -1.5567
  293MOL0     H40368   4.802   2.365   9.095  0.6151  1.6626  2.9146
  293MOL0     H40369   4.803   2.132   8.984 -1.6953  0.5948  3.9277
  293MOL0     H40370   4.924   2.248   8.920 -0.9836 -0.3945 -1.0356
  293MOL0     H40371   5.092   2.161   9.059  1.2274 -0.6634  0.4525
  293MOL0     H40372   4.992   2.035   9.144  2.4618 -1.0883 -0.0466
  293MOL0     H40373   5.127   1.940   8.962  0.1177  0.5247 -2.3331
  293MOL0     H40374   4.952   1.942   8.925 -1.7572  1.7962 -1.9419
  293MOL0     H40375   5.160   2.119   8.774 -0.5063  0.2801  1.2811
  293MOL0     H40376   4.989   2.100   8.729  0.8852 -0.7303 -0.8345
  293MOL0     H40377   5.147   1.843   8.738  1.0392  0.3298 -0.4136
  293MOL0     H40378   4.989   1.877   8.685  1.1004 -2.2254 -1.6696
  293MOL0     H40379   5.246   1.977   8.561  0.9994 -2.7016  2.1101
  293MOL0     H40380   5.092   2.042   8.504 -1.7293 -0.8970 -0.4343
  293MOL0     H40381   5.188   1.842   8.363  0.5956 -0.1312  1.6199
  293MOL0     H40382   5.163   1.751   8.516 -2.4387 -0.4461  2.6967
  293MOL0     H40383   4.954   1.898   8.223 -1.9180  1.0779  0.0906
  293MOL0     H40384   4.609   1.717   8.241 -0.5818  0.2388  2.4114
  293MOL0     H40385   4.724   1.805   8.136  1.8194  2.3973  0.8454
  293MOL0     H40386   4.543   1.933   8.362 -1.7410  3.6635 -1.7112
  293MOL0     H40387   4.647   2.023   8.252 -1.7689  1.0652  2.5530
  293MOL0     H40388   4.494   1.957   8.064  2.9803 -3.0683 -0.1475
  293MOL0     H40389   4.414   1.853   8.171  0.3451  0.3175 -1.8775
  293MOL0     H40390   4.449   2.149   8.241  1.5295 -0.4674  1.0383
  293MOL0     H40391   4.314   2.087   8.147 -0.0187 -2.0394  0.4644
  293MOL0     H40392   4.077   1.968   8.412 -0.3982  0.2029 -1.8765
  293MOL0     H40393   3.784   2.138   8.458  1.5710  0.7151 -0.3567
  293MOL0     H40394   3.842   2.107   8.628 -0.3964  4.3936  1.0011
  293MOL0     H40395   3.863   1.986   8.500 -0.5412  0.3335 -1.4274
  293MOL0     H40396   3.707   2.237   8.789  0.9402 -0.0435 -1.0445
  293MOL0     H40397   3.546   2.329   8.943 -0.8912  0.6341 -1.1066
  293MOL0     H40398   3.429   2.700   9.114  1.0433 -2.0005  0.3775
  293MOL0     H40399   3.543   2.756   8.995  0.5160 -1.3693  0.5258
  293MOL0     H40400   3.368   2.869   8.879 -0.3606 -1.7289 -0.2257
  293MOL0     H40401   3.256   2.737   8.917 -0.8406 -0.3411  0.7446
  293MOL0     H40402   3.356   2.929   9.138 -0.9859  0.2457 -0.7556
  293MOL0     H40403   3.242   2.806   9.156 -0.5523  0.6986  0.1822
  293MOL0     H40404   3.083   2.898   9.061  1.0696 -1.1398 -0.8865
  293MOL0     H40405   3.174   3.027   8.959  1.4677  0.5255  0.0621
  293MOL0     H40406   3.118   3.009   9.266 -0.5011  0.7018  1.0464
  293MOL0     H40407   3.248   3.109   9.210  1.2482 -1.3290 -1.9389
  293MOL0     H40408   2.955   3.159   9.156  0.5563 -0.2603  2.5267
  293MOL0     H40409   3.087   3.225   9.043  0.8140  0.2779 -0.0676
  293MOL0     H40410   3.199   3.325   9.234 -0.5312  0.2900  0.7742
  293MOL0     H40411   3.069   3.266   9.336 -1.2723 -2.2252 -1.0026
  293MOL0     H40412   3.031   3.441   9.088  1.2226 -0.2895 -0.7410
  293MOL0     H40413   3.065   3.514   9.252  1.2117  0.4207 -0.8031
  293MOL0     H40414   3.596   2.720   8.751  4.6697  0.8983 -3.2037
  293MOL0     H40415   3.745   2.594   8.584 -1.3594 -3.0435 -2.9180
  293MOL0     H40416   4.191   2.430   8.483 -0.2047 -0.4769  2.8697
  293MOL0     H40417   4.355   2.288   8.404  0.0470  0.4352 -0.3406
  293MOL0     H40418   4.796   2.039   9.414 -0.7319 -0.0611  1.7872
  293MOL0     H40419   4.570   1.902   9.447 -0.2411  0.2334  0.2936
  293MOL0     H40420   4.358   1.554   9.310  0.4888 -0.2674  0.5388
  293MOL0     H40421   4.176   1.388   9.236  1.0275  1.2101 -3.8507
  293MOL0     H40422   4.013   1.268   9.165  3.0889  1.8208  1.6374
  293MOL0     H40423   3.951   1.306   9.326 -0.0530  0.0446 -0.3757
  293MOL0     H40424   3.817   1.129   9.213 -1.6735 -0.2241  1.5768
  293MOL0     H40425   3.753   1.245   9.091 -1.6929  1.4540  0.6446
  293MOL0     H40426   3.718   1.391   9.335 -2.3517  0.1278  0.5286
  293MOL0     H40427   3.604   1.324   9.218  0.9254 -0.8383 -1.6175
  293MOL0     H40428   3.544   1.261   9.432  0.6743  2.1598 -1.1266
  293MOL0     H40429   3.700   1.171   9.451  1.8524  0.2250 -1.3627
  293MOL0     H40430   3.467   0.916   9.196 -0.0445 -0.5029  2.0171
  293MOL0     H40431   3.891   1.705   9.256 -0.5123 -2.9092  2.8810
  293MOL0     H40432   3.968   1.888   9.421  2.9607  0.5185  1.5311
  293MOL0     H40433   4.106   1.976   9.354 -0.3960  0.9599  2.4266
  293MOL0     H40434   3.968   1.933   9.253  2.6841  2.3734 -0.6888
  294MOL0     O40435   3.548   2.938   8.234 -0.5006  0.6450  0.4341
  294MOL0     C40436   3.589   2.994   8.331  0.9466 -0.1940 -0.0170
  294MOL0     O40437   3.725   3.005   8.364  1.3669 -0.0907  0.2684
  294MOL0     C40438   3.817   2.911   8.322  0.5684 -0.7671 -0.0636
  294MOL0     C40439   3.935   2.962   8.269  0.2233  0.7423 -0.2536
  294MOL0     C40440   4.037   2.880   8.228  0.3079  0.0849  0.2421
  294MOL0     C40441   4.028   2.742   8.234 -0.8580  0.1394 -0.2504
  294MOL0     O40442   4.128   2.659   8.180  0.1074  0.2687 -0.6106
  294MOL0     C40443   4.265   2.711   8.180  0.4778  0.1953  0.6200
  294MOL0     C40444   4.385   2.603   8.177  0.8620 -0.1551 -0.2617
  294MOL0     C40445   4.379   2.517   8.042  0.4269 -0.3843 -1.1004
  294MOL0     C40446   4.473   2.388   8.049 -0.9026 -0.6446  0.3172
  294MOL0     C40447   4.612   2.441   8.018  0.1379 -0.1385  0.1333
  294MOL0     C40448   4.707   2.323   8.001 -0.0607  0.4217  0.3323
  294MOL0     C40449   4.855   2.377   7.984  0.2860  0.1418 -0.3760
  294MOL0     C40450   4.950   2.269   7.955 -0.3001  0.0719  0.2060
  294MOL0     N40451   5.087   2.322   7.949  0.0127  0.0340  0.2199
  294MOL0     C40452   5.178   2.345   8.047  1.0254 -0.3736 -0.0492
  294MOL0     C40453   5.279   2.416   7.982  0.6783  0.2449  0.0013
  294MOL0     C40454   5.404   2.443   8.053  0.0230 -0.0527  0.4253
  294MOL0     C40455   5.528   2.403   7.969  0.4566  0.3258 -0.3615
  294MOL0     C40456   5.666   2.436   8.028  0.6428 -0.4498  0.0103
  294MOL0     C40457   5.767   2.352   7.964 -0.0209 -1.0570  0.0593
  294MOL0     O40458   5.900   2.408   7.978 -0.0769 -0.0092  0.3781
  294MOL0     C40459   5.995   2.370   8.068  0.2397 -0.3741  1.4511
  294MOL0     C40460   6.129   2.392   8.028 -0.1259 -0.1316  0.3768
  294MOL0     C40461   6.238   2.323   8.082  0.4714 -0.2485  1.3061
  294MOL0     C40462   6.368   2.372   8.024  0.2267  0.2933  0.2625
  294MOL0     C40463   6.218   2.238   8.190 -0.1201  0.3998 -0.4999
  294MOL0     C40464   6.324   2.157   8.253 -0.2244  0.6567 -0.6153
  294MOL0     O40465   6.325   2.147   8.394  0.1580 -0.5526  0.1361
  294MOL0     C40466   6.435   2.096   8.449 -0.7139  0.0418  0.0128
  294MOL0     C40467   6.534   2.186   8.497 -0.4736 -0.5204 -0.7045
  294MOL0     C40468   6.642   2.139   8.578  0.9812  0.7411 -0.1853
  294MOL0     C40469   6.647   2.002   8.609 -0.1953  0.2839 -0.0977
  294MOL0     O40470   6.757   1.970   8.686 -0.2314  0.5156 -0.0758
  294MOL0     C40471   6.768   1.841   8.743  0.0179  0.3621  0.1526
  294MOL0     C40472   6.911   1.791   8.721 -0.7390 -0.8318 -0.6826
  294MOL0     C40473   7.036   1.885   8.748 -0.6677  0.1012 -0.3034
  294MOL0     C40474   7.059   1.898   8.901  0.5807 -0.0884 -0.4260
  294MOL0     C40475   7.171   2.000   8.934 -0.7876  0.8114  0.3154
  294MOL0     C40476   7.224   1.976   9.073  0.1428 -0.1249 -0.2879
  294MOL0     C40477   7.303   1.850   9.077  0.2882  0.0782 -0.2925
  294MOL0     C40478   7.399   1.857   9.198  0.4706  1.0297  0.5999
  294MOL0    Cl40479   7.315   1.892   9.342  0.4110  0.1375 -0.3709
  294MOL0     C40480   6.542   1.922   8.571  0.0726  0.3723  0.3513
  294MOL0     C40481   6.443   1.972   8.489  0.0426  0.1806  0.2821
  294MOL0     O40482   6.401   2.100   8.177 -0.3143  0.2708 -0.0546
  294MOL0     C40483   6.083   2.220   8.228  0.1404 -0.0886 -1.0947
  294MOL0     C40484   5.972   2.280   8.174 -0.0047 -0.7446 -0.3521
  294MOL0     N40485   5.248   2.444   7.852 -0.5351 -0.1059 -0.5722
  294MOL0     N40486   5.139   2.373   7.834  0.2888 -0.5920 -0.3928
  294MOL0     C40487   3.905   2.685   8.274  0.0528 -0.5815  0.2597
  294MOL0     C40488   3.800   2.769   8.313 -0.0558 -0.5191  0.1875
  294MOL0     C40489   3.496   3.059   8.422 -0.2723 -0.3435  0.6196
  294MOL0     C40490   3.536   3.102   8.553  1.2294  0.2349  0.1548
  294MOL0     C40491   3.436   3.156   8.638  0.2462 -0.6128  0.2791
  294MOL0     C40492   3.309   3.179   8.602  0.9755  0.2521 -0.5814
  294MOL0     O40493   3.220   3.228   8.697  0.1611  0.8954 -0.1938
  294MOL0     C40494   3.086   3.258   8.646 -0.3399  0.0698 -0.6445
  294MOL0     C40495   3.004   3.303   8.767 -0.2254 -0.4097  0.1090
  294MOL0     C40496   2.852   3.310   8.723 -0.1371 -0.7944 -0.1574
  294MOL0     C40497   2.769   3.405   8.810  0.0830  0.3995 -0.2172
  294MOL0     C40498   2.819   3.544   8.823  0.4397 -0.5731 -1.0503
  294MOL0     C40499   2.877   3.650   8.820 -0.6003 -0.6616 -1.0181
  294MOL0     C40500   3.276   3.158   8.463  0.3603  0.7710 -0.1228
  294MOL0     C40501   3.369   3.104   8.367  0.6694  0.9333  0.1982
  294MOL0     C40502   3.337   3.117   8.217 -0.2361 -1.5182 -0.1072
  294MOL0     H40503   3.947   3.070   8.274  0.7002  0.7858 -1.7087
  294MOL0     H40504   4.128   2.920   8.186  1.2160 -1.0658  1.0557
  294MOL0     H40505   4.272   2.768   8.273 -3.2964  1.8253  0.0894
  294MOL0     H40506   4.283   2.780   8.097 -0.2401 -0.9140 -0.4883
  294MOL0     H40507   4.488   2.638   8.177  0.7154  0.3438  1.3377
  294MOL0     H40508   4.377   2.537   8.264  2.0208 -0.4176 -0.3383
  294MOL0     H40509   4.276   2.487   8.022 -0.4982  1.7613  0.0920
  294MOL0     H40510   4.404   2.582   7.958 -0.9284  0.8158 -0.6097
  294MOL0     H40511   4.479   2.335   8.145  0.9909 -2.0784 -0.5299
  294MOL0     H40512   4.446   2.311   7.977 -0.3767  0.4525 -1.0932
  294MOL0     H40513   4.627   2.507   8.105 -2.1274 -2.7614  2.7072
  294MOL0     H40514   4.614   2.492   7.922 -0.3414 -0.4251 -0.0276
  294MOL0     H40515   4.687   2.257   8.085 -4.7738  1.8164  0.5763
  294MOL0     H40516   4.688   2.262   7.912  3.4055  0.2496 -0.4327
  294MOL0     H40517   4.886   2.424   8.078  5.4253 -1.3343 -0.9853
  294MOL0     H40518   4.863   2.449   7.901  3.5753  0.3087 -0.0533
  294MOL0     H40519   4.953   2.200   8.040  1.8916 -0.0672  0.0711
  294MOL0     H40520   4.928   2.210   7.866 -0.6040 -0.6939  0.7666
  294MOL0     H40521   5.168   2.304   8.147  0.7741  0.4961  0.2884
  294MOL0     H40522   5.400   2.389   8.148  1.1448 -0.8602  0.0448
  294MOL0     H40523   5.412   2.551   8.066 -0.7443  0.1054 -0.2970
  294MOL0     H40524   5.537   2.295   7.949  1.5955  0.8411 -3.1251
  294MOL0     H40525   5.516   2.445   7.869 -2.9141 -0.6477 -0.4935
  294MOL0     H40526   5.681   2.540   7.999 -1.6614 -0.5053 -1.5891
  294MOL0     H40527   5.673   2.428   8.137  0.7546  1.1005  0.1396
  294MOL0     H40528   5.747   2.249   7.995  0.1130 -0.4951  2.2286
  294MOL0     H40529   5.749   2.347   7.857  1.9741  1.6362 -0.5165
  294MOL0     H40530   6.153   2.460   7.947  3.8997 -1.0916  0.5708
  294MOL0     H40531   6.427   2.284   7.997  0.3844 -1.2768  4.7464
  294MOL0     H40532   6.433   2.422   8.096 -2.0400  1.8293  1.3758
  294MOL0     H40533   6.357   2.432   7.934  0.4591  1.4143  0.9555
  294MOL0     H40534   6.517   2.291   8.476  0.6641  0.4159  2.4243
  294MOL0     H40535   6.725   2.200   8.612  1.9555 -0.0305 -1.1095
  294MOL0     H40536   6.743   1.835   8.850 -3.8887 -2.8531 -0.7088
  294MOL0     H40537   6.707   1.768   8.690  1.2135 -1.3622  1.0363
  294MOL0     H40538   6.923   1.700   8.780  1.9473  1.2156  2.2521
  294MOL0     H40539   6.915   1.766   8.615 -0.1401  2.6761 -1.6267
  294MOL0     H40540   7.027   1.981   8.696  0.7187  0.7249  0.5421
  294MOL0     H40541   7.131   1.838   8.718 -0.0425  0.0502  1.6023
  294MOL0     H40542   7.096   1.800   8.933  0.9217  0.9875  2.8513
  294MOL0     H40543   6.965   1.930   8.947  1.0113 -1.5421  1.6221
  294MOL0     H40544   7.252   1.980   8.862  2.5760 -1.2108  4.2052
  294MOL0     H40545   7.127   2.098   8.916 -0.4302  0.9220  0.0049
  294MOL0     H40546   7.156   1.968   9.158  2.0230 -0.3694  1.2821
  294MOL0     H40547   7.295   2.059   9.078 -1.8522  1.6097  0.8538
  294MOL0     H40548   7.364   1.827   8.989  1.1269 -0.7722  0.4896
  294MOL0     H40549   7.230   1.769   9.088 -1.8026  1.9288  0.2467
  294MOL0     H40550   7.476   1.935   9.190  2.3369 -0.9116 -1.7681
  294MOL0     H40551   7.447   1.759   9.205 -0.6141  0.5469  1.6569
  294MOL0     H40552   6.533   1.816   8.594 -0.3320  1.0550  4.0562
  294MOL0     H40553   6.357   1.917   8.452 -0.6134  1.7882 -0.7110
  294MOL0     H40554   6.071   2.146   8.307 -0.2406  0.3449 -0.7411
  294MOL0     H40555   5.875   2.253   8.215 -0.1015 -0.2769 -0.2570
  294MOL0     H40556   3.891   2.578   8.261 -0.2573 -0.6582  1.1934
  294MOL0     H40557   3.702   2.725   8.323 -0.0100 -0.8581 -0.6791
  294MOL0     H40558   3.636   3.075   8.586  0.2904 -0.7888  2.3699
  294MOL0     H40559   3.463   3.171   8.742  0.2670  0.7737  0.0922
  294MOL0     H40560   3.085   3.336   8.569  3.4289  1.4218  0.4662
  294MOL0     H40561   3.041   3.168   8.603 -1.7247 -0.9237  2.5824
  294MOL0     H40562   3.049   3.399   8.796 -2.4713  1.4049 -1.9606
  294MOL0     H40563   3.016   3.229   8.847 -1.3726  0.6474  1.3276
  294MOL0     H40564   2.845   3.343   8.619  1.7239  2.5517  0.6330
  294MOL0     H40565   2.814   3.209   8.739 -0.9112 -0.2618  1.5633
  294MOL0     H40566   2.773   3.359   8.909  0.7900  1.4198  0.2486
  294MOL0     H40567   2.667   3.400   8.772  0.2143 -3.3599 -0.4271
  294MOL0     H40568   2.922   3.747   8.808 -1.8516  0.1082  0.2389
  294MOL0     H40569   3.173   3.176   8.436 -0.8773  1.0324  4.0533
  294MOL0     H40570   3.251   3.173   8.181 -0.0561 -1.8604 -1.0988
  294MOL0     H40571   3.416   3.167   8.160 -2.8500  1.9622 -0.9854
  294MOL0     H40572   3.321   3.016   8.179  3.1922 -1.7434 -1.2619
  295MOL0     O40573   2.567   4.910  10.858 -0.4033 -0.1280 -0.3881
  295MOL0     C40574   2.645   4.844  10.931 -0.8698 -0.1280  0.0352
  295MOL0     O40575   2.660   4.853  11.070 -0.5881 -0.7081 -0.8684
  295MOL0     C40576   2.561   4.909  11.143 -0.2644 -0.9404  0.2529
  295MOL0     C40577   2.434   4.846  11.140 -0.2953 -0.5334  0.2571
  295MOL0     C40578   2.325   4.890  11.219  0.0119 -0.0493 -0.1991
  295MOL0     C40579   2.342   4.999  11.304  0.0546  0.5484  0.3248
  295MOL0     O40580   2.227   5.042  11.360  0.4041  0.6628 -0.4206
  295MOL0     C40581   2.228   5.112  11.482  0.6090  0.1451 -0.0116
  295MOL0     C40582   2.137   5.238  11.481 -0.5009 -1.2228  0.3941
  295MOL0     C40583   2.176   5.350  11.375 -0.2318 -0.5753  0.4342
  295MOL0     C40584   2.128   5.492  11.380  0.1210 -0.0322  0.1573
  295MOL0     C40585   1.969   5.496  11.376  0.2784  0.4578  0.6229
  295MOL0     C40586   1.907   5.626  11.425 -0.1106  0.0698  0.5426
  295MOL0     C40587   1.930   5.636  11.576 -0.0423 -0.0117  0.0921
  295MOL0     C40588   1.859   5.754  11.639  0.5742 -0.4522  0.7129
  295MOL0     N40589   1.712   5.733  11.643  0.3303 -0.2503 -0.1764
  295MOL0     C40590   1.622   5.824  11.593  0.0745  0.1411 -0.1279
  295MOL0     C40591   1.505   5.772  11.619 -0.0811  0.5676  0.0213
  295MOL0     C40592   1.379   5.837  11.593 -0.2150  0.1517 -0.5359
  295MOL0     C40593   1.313   5.856  11.735  0.6727  0.3556  1.0239
  295MOL0     C40594   1.288   6.005  11.765  0.9818 -0.6553 -0.8132
  295MOL0     C40595   1.212   6.032  11.891  0.0520  0.0310 -0.4685
  295MOL0     O40596   1.264   5.967  12.012  0.6640  0.5796 -0.0112
  295MOL0     C40597   1.166   5.927  12.111  0.3980 -0.1707 -0.9522
  295MOL0     C40598   1.025   5.952  12.114 -0.0039 -0.5681 -0.5026
  295MOL0     C40599   0.934   5.910  12.213 -0.6340 -0.4678  0.0377
  295MOL0     C40600   0.786   5.952  12.205  0.1355  0.4258  0.0721
  295MOL0     C40601   0.988   5.831  12.321  0.3415  0.1102  0.3720
  295MOL0     C40602   0.914   5.781  12.437  0.2242 -0.4266  0.5416
  295MOL0     O40603   0.780   5.769  12.414 -0.3491 -0.9196 -0.1654
  295MOL0     C40604   0.690   5.734  12.511 -0.2766 -0.1452  0.0825
  295MOL0     C40605   0.708   5.748  12.649 -0.1204 -0.6405  0.9934
  295MOL0     C40606   0.614   5.728  12.746  0.1412  0.6873 -0.5878
  295MOL0     C40607   0.486   5.687  12.711 -0.5289  0.6206 -0.9364
  295MOL0     O40608   0.388   5.647  12.801 -0.5143 -0.5725 -0.1883
  295MOL0     C40609   0.422   5.651  12.941  0.0570  0.1567 -1.1796
  295MOL0     C40610   0.337   5.559  13.024 -0.2806  0.5387 -0.6940
  295MOL0     C40611   0.199   5.624  13.058 -0.5531  0.1454  0.3055
  295MOL0     C40612   0.084   5.560  12.983 -0.6380 -0.3578 -0.8491
  295MOL0     C40613  -0.048   5.623  13.039  0.5385 -0.5457 -0.1946
  295MOL0     C40614  -0.109   5.527  13.151 -1.0670 -0.3555 -0.0080
  295MOL0     C40615  -0.251   5.556  13.194  0.8439 -0.1509  0.4189
  295MOL0     C40616  -0.297   5.698  13.239 -0.0095 -0.4204  0.2955
  295MOL0    Cl40617  -0.470   5.691  13.295  0.2001  0.5023  0.3688
  295MOL0     C40618   0.465   5.674  12.574  0.6401  0.7477  0.6580
  295MOL0     C40619   0.564   5.692  12.477  0.2702  0.4664 -0.0762
  295MOL0     O40620   0.975   5.765  12.548 -0.4238  0.2227  1.1135
  295MOL0     C40621   1.128   5.803  12.321  0.1482  0.2445 -0.5578
  295MOL0     C40622   1.209   5.847  12.220  0.1470 -0.0933 -0.9493
  295MOL0     N40623   1.531   5.634  11.672  0.0782 -0.8471 -0.0493
  295MOL0     N40624   1.658   5.619  11.688  0.3722  1.3531 -0.8914
  295MOL0     C40625   2.461   5.065  11.299 -0.1864 -0.0887 -0.1082
  295MOL0     C40626   2.571   5.015  11.229 -1.0314 -0.0744 -0.3644
  295MOL0     C40627   2.739   4.762  10.865 -0.1507  0.8969  0.5833
  295MOL0     C40628   2.870   4.744  10.921  0.4423  0.1110 -0.3368
  295MOL0     C40629   2.961   4.654  10.869  0.2213 -0.0446 -0.6765
  295MOL0     C40630   2.936   4.587  10.754 -0.5463 -0.2685  0.0563
  295MOL0     O40631   3.035   4.502  10.700  0.0729  0.0809 -0.2270
  295MOL0     C40632   3.041   4.489  10.562 -0.3414  0.6321  1.4134
  295MOL0     C40633   3.188   4.479  10.520  0.0104  0.5230 -0.6862
  295MOL0     C40634   3.203   4.465  10.365 -0.0160  0.0497 -0.0139
  295MOL0     C40635   3.349   4.425  10.317  0.0989 -0.3328 -0.4201
  295MOL0     C40636   3.372   4.454  10.181  0.7060 -0.1967 -0.1370
  295MOL0     C40637   3.386   4.483  10.060  0.1868 -0.1636 -0.3455
  295MOL0     C40638   2.805   4.595  10.697 -0.2566  0.0289  0.3167
  295MOL0     C40639   2.703   4.671  10.755  1.1288 -0.2256 -0.2308
  295MOL0     C40640   2.565   4.658  10.694 -0.8554  0.0736 -0.2609
  295MOL0     H40641   2.416   4.755  11.083 -1.3518 -1.0261  1.3231
  295MOL0     H40642   2.223   4.853  11.220  0.3755 -1.1830  2.3452
  295MOL0     H40643   2.326   5.153  11.510 -0.7072  3.3451  0.2809
  295MOL0     H40644   2.209   5.044  11.564 -1.0906  1.0092  0.3576
  295MOL0     H40645   2.032   5.216  11.462 -1.3340  1.9335  0.9250
  295MOL0     H40646   2.147   5.279  11.581 -0.6032  0.7369 -0.3586
  295MOL0     H40647   2.285   5.360  11.373 -0.3286  0.6139  0.6296
  295MOL0     H40648   2.135   5.303  11.286  0.4575  0.1503 -0.2773
  295MOL0     H40649   2.170   5.549  11.464 -0.3705  1.2524 -0.4527
  295MOL0     H40650   2.172   5.544  11.295  1.0835 -0.6367  0.2530
  295MOL0     H40651   1.926   5.414  11.435 -2.1769  0.5677 -0.8935
  295MOL0     H40652   1.940   5.481  11.272  0.2563  3.3158  0.1490
  295MOL0     H40653   1.964   5.709  11.383  1.9228 -0.8176  1.3823
  295MOL0     H40654   1.800   5.632  11.404  0.7286  2.4316 -4.6375
  295MOL0     H40655   2.037   5.644  11.597 -0.7562  2.8309  3.7345
  295MOL0     H40656   1.895   5.543  11.620  1.1060 -0.1370  0.7870
  295MOL0     H40657   1.888   5.772  11.743 -2.3692  2.9580  1.1322
  295MOL0     H40658   1.882   5.852  11.595 -0.4628  0.9376  3.0993
  295MOL0     H40659   1.629   5.914  11.533 -0.7085  0.6022  0.4463
  295MOL0     H40660   1.318   5.778  11.524 -0.2824 -0.3773 -0.0410
  295MOL0     H40661   1.393   5.932  11.541 -0.7364  0.4234 -0.1968
  295MOL0     H40662   1.225   5.791  11.743  1.7459 -1.2496  0.5117
  295MOL0     H40663   1.384   5.818  11.809  2.5461  1.6570 -0.0294
  295MOL0     H40664   1.385   6.054  11.771 -0.4399  2.2305  0.3739
  295MOL0     H40665   1.236   6.047  11.678  0.5094 -1.8379 -1.1348
  295MOL0     H40666   1.209   6.140  11.910 -0.7817 -0.0176 -0.2884
  295MOL0     H40667   1.108   6.003  11.876 -0.3040 -0.3450  2.1883
  295MOL0     H40668   0.967   5.993  12.031 -1.0507  0.1725  0.5705
  295MOL0     H40669   0.729   5.867  12.168 -1.2367  1.9804 -1.6119
  295MOL0     H40670   0.771   6.030  12.129  0.9778  1.7528  1.2025
  295MOL0     H40671   0.741   5.986  12.299 -0.0749  3.3506 -0.9726
  295MOL0     H40672   0.796   5.802  12.685  1.4163 -2.9321  0.8714
  295MOL0     H40673   0.642   5.741  12.851 -3.5425  1.0894  0.4941
  295MOL0     H40674   0.519   5.605  12.964 -0.3019 -0.3183 -0.6076
  295MOL0     H40675   0.419   5.754  12.978  0.4248  0.2488 -1.3926
  295MOL0     H40676   0.322   5.464  12.971 -1.3103 -0.0232  0.5637
  295MOL0     H40677   0.384   5.551  13.122  0.4912  1.6226 -0.9607
  295MOL0     H40678   0.191   5.729  13.031 -1.7147  0.1856  0.7253
  295MOL0     H40679   0.183   5.604  13.165 -0.7591  1.4965  0.5365
  295MOL0     H40680   0.087   5.451  12.989 -0.6880 -0.2865  3.4202
  295MOL0     H40681   0.112   5.590  12.881  1.9642  2.5307  0.5354
  295MOL0     H40682  -0.027   5.726  13.070  1.4972 -0.2754 -1.6441
  295MOL0     H40683  -0.124   5.641  12.962  1.2044 -0.2857 -0.8030
  295MOL0     H40684  -0.045   5.534  13.239 -0.1362  1.8843 -0.7768
  295MOL0     H40685  -0.098   5.423  13.119 -0.9791 -0.9743  1.9283
  295MOL0     H40686  -0.275   5.491  13.279 -3.8546  1.2326  0.3887
  295MOL0     H40687  -0.316   5.523  13.113  1.7690  2.3900 -1.4722
  295MOL0     H40688  -0.284   5.770  13.157 -1.5187  2.2151  2.2164
  295MOL0     H40689  -0.241   5.733  13.326 -1.0265 -0.1019  0.8399
  295MOL0     H40690   0.363   5.649  12.547  1.3920 -0.5667 -1.1134
  295MOL0     H40691   0.536   5.668  12.375  2.5396  0.0007 -0.6474
  295MOL0     H40692   1.180   5.762  12.408 -1.3494  0.4582  0.4624
  295MOL0     H40693   1.311   5.810  12.218  0.9355  1.9357 -1.1321
  295MOL0     H40694   2.469   5.157  11.356 -4.8852 -0.3600  1.4679
  295MOL0     H40695   2.663   5.071  11.231 -1.1308  0.0680  1.1405
  295MOL0     H40696   2.899   4.801  11.009 -1.7905 -0.1507  0.6273
  295MOL0     H40697   3.060   4.656  10.913 -0.1757  2.0845  0.2688
  295MOL0     H40698   2.984   4.400  10.533 -1.5231  2.3087 -2.0201
  295MOL0     H40699   2.999   4.576  10.511 -0.0620  0.8315  1.5205
  295MOL0     H40700   3.232   4.391  10.568 -0.3826  0.1710 -0.9572
  295MOL0     H40701   3.240   4.572  10.543 -1.5744  1.5077 -0.9372
  295MOL0     H40702   3.135   4.390  10.323 -1.1230  1.2767 -0.4767
  295MOL0     H40703   3.184   4.566  10.328 -2.0576  1.1585  3.6356
  295MOL0     H40704   3.375   4.320  10.333 -0.5574 -0.5183 -0.5277
  295MOL0     H40705   3.422   4.487  10.370 -1.6442  2.4121 -1.0238
  295MOL0     H40706   3.405   4.505   9.957 -1.9445 -0.9615 -0.9658
  295MOL0     H40707   2.780   4.543  10.605 -0.9520  0.1852  0.4080
  295MOL0     H40708   2.557   4.562  10.641 -2.1434  0.0364 -0.0532
  295MOL0     H40709   2.486   4.679  10.766 -0.1423 -2.4951  1.4141
  295MOL0     H40710   2.558   4.734  10.616 -1.2832 -1.2106 -1.5224
  296MOL0     O40711   2.533   2.286   7.739  0.0108 -0.7847  0.1779
  296MOL0     C40712   2.597   2.286   7.632  0.9725 -0.0815 -0.4433
  296MOL0     O40713   2.541   2.341   7.517  0.2103  0.3093 -0.4980
  296MOL0     C40714   2.410   2.398   7.522 -0.1001 -0.0172  0.4970
  296MOL0     C40715   2.301   2.327   7.573  0.1997  0.1617 -0.3383
  296MOL0     C40716   2.172   2.379   7.574  1.4547 -0.2365 -0.1839
  296MOL0     C40717   2.150   2.512   7.526  0.0336  0.9244 -0.2519
  296MOL0     O40718   2.021   2.562   7.525 -0.3060 -0.2460 -0.0158
  296MOL0     C40719   2.001   2.674   7.618 -0.0894 -0.2680 -0.0618
  296MOL0     C40720   1.869   2.752   7.573 -1.0326 -0.9219 -0.4516
  296MOL0     C40721   1.824   2.868   7.649  1.4626  0.7934  0.0558
  296MOL0     C40722   1.777   2.829   7.783 -0.0858  0.6517 -0.1529
  296MOL0     C40723   1.705   2.938   7.849 -0.8404 -0.0467  0.4832
  296MOL0     C40724   1.667   2.897   7.991 -0.1194 -0.1913  0.0456
  296MOL0     C40725   1.636   3.025   8.068 -0.4134 -0.0010  0.1224
  296MOL0     C40726   1.627   3.015   8.222 -0.3256  0.0897 -0.2392
  296MOL0     N40727   1.567   3.129   8.287 -0.9189 -0.8842 -0.7131
  296MOL0     C40728   1.577   3.261   8.258 -0.3160 -0.2620  0.4404
  296MOL0     C40729   1.487   3.328   8.330  0.6320  0.2550 -0.4694
  296MOL0     C40730   1.437   3.468   8.315 -0.0589 -0.1815  0.8243
  296MOL0     C40731   1.483   3.553   8.199  0.5449  0.0570  0.4522
  296MOL0     C40732   1.620   3.609   8.231 -0.7845  1.2703  0.9045
  296MOL0     C40733   1.704   3.615   8.094 -0.0760 -0.2782  0.3306
  296MOL0     O40734   1.833   3.674   8.125  0.3373  0.1538  0.6068
  296MOL0     C40735   1.928   3.667   8.025  0.8756 -0.5605 -0.2806
  296MOL0     C40736   2.050   3.694   8.077 -1.3051  0.0512 -0.6648
  296MOL0     C40737   2.170   3.666   8.000 -0.0599 -0.2465  0.5768
  296MOL0     C40738   2.286   3.688   8.082 -0.2594  0.0803  1.0428
  296MOL0     C40739   2.152   3.621   7.863 -0.1675  0.3242 -0.3889
  296MOL0     C40740   2.260   3.625   7.771 -0.8729  0.5109 -0.0996
  296MOL0     O40741   2.244   3.587   7.639  0.1851 -0.3051  0.8961
  296MOL0     C40742   2.351   3.593   7.549  0.8065  0.1467 -0.3101
  296MOL0     C40743   2.423   3.708   7.516 -0.4500 -0.5068 -1.2469
  296MOL0     C40744   2.534   3.695   7.432  0.0079 -1.1051  0.8293
  296MOL0     C40745   2.582   3.576   7.378  1.2029  0.3488  0.2435
  296MOL0     O40746   2.690   3.561   7.300  0.2578  0.1489  0.3662
  296MOL0     C40747   2.770   3.679   7.275 -0.0551 -0.2202  0.9411
  296MOL0     C40748   2.881   3.659   7.169 -0.2104  0.4585 -1.5484
  296MOL0     C40749   3.006   3.589   7.220 -0.2181  0.8081 -0.3794
  296MOL0     C40750   3.109   3.612   7.108 -0.3128 -0.0162  0.5950
  296MOL0     C40751   3.235   3.574   7.172 -0.2751 -0.8869  0.1451
  296MOL0     C40752   3.353   3.563   7.068  0.1175 -0.2639  0.0305
  296MOL0     C40753   3.486   3.508   7.131  0.5293 -0.3351 -0.3288
  296MOL0     C40754   3.549   3.604   7.219  0.6168  0.6165 -1.0901
  296MOL0    Cl40755   3.692   3.528   7.280  0.0135 -0.5288 -0.0778
  296MOL0     C40756   2.508   3.459   7.418  0.5178 -0.1495 -0.2345
  296MOL0     C40757   2.396   3.468   7.509  0.9687 -0.1713  0.4006
  296MOL0     O40758   2.372   3.667   7.813 -0.1941  0.0762 -0.4218
  296MOL0     C40759   2.024   3.600   7.810  0.2922 -0.8210 -0.1885
  296MOL0     C40760   1.908   3.629   7.891 -0.2615  0.0721  0.4437
  296MOL0     N40761   1.427   3.238   8.412  1.2690  0.1955  0.8912
  296MOL0     N40762   1.485   3.119   8.389  0.3494 -0.3677 -0.6640
  296MOL0     C40763   2.255   2.582   7.469 -0.4346  0.2895  0.3707
  296MOL0     C40764   2.388   2.529   7.475  0.7980  0.1619  0.3744
  296MOL0     C40765   2.734   2.235   7.623 -0.2820 -0.7850  0.0902
  296MOL0     C40766   2.796   2.237   7.494  0.1594 -0.0271 -0.9923
  296MOL0     C40767   2.923   2.202   7.464 -0.0209 -0.0186 -0.0880
  296MOL0     C40768   3.005   2.155   7.564  0.7478  0.2028 -0.1798
  296MOL0     O40769   3.115   2.088   7.524 -0.2957 -0.7508  0.1162
  296MOL0     C40770   3.199   2.013   7.617  0.1939 -0.3428  0.8487
  296MOL0     C40771   3.112   1.896   7.680  0.6399 -0.8105  0.3313
  296MOL0     C40772   3.190   1.801   7.771  0.5393  0.7508 -0.9682
  296MOL0     C40773   3.304   1.714   7.697 -0.1569 -0.3676  0.7395
  296MOL0     C40774   3.378   1.614   7.780  0.3130 -0.2602  0.2258
  296MOL0     C40775   3.443   1.529   7.830 -0.2725  0.7912 -0.5287
  296MOL0     C40776   2.954   2.175   7.697 -0.4059  0.3239 -0.6057
  296MOL0     C40777   2.818   2.206   7.730 -0.2757  0.8841  0.1866
  296MOL0     C40778   2.769   2.195   7.876  0.1401 -0.3632 -0.2451
  296MOL0     H40779   2.314   2.225   7.607 -2.1305 -0.5895 -1.4751
  296MOL0     H40780   2.100   2.313   7.622  2.1258  0.4648  1.9118
  296MOL0     H40781   2.094   2.731   7.614  0.2224 -0.8106 -0.8764
  296MOL0     H40782   1.989   2.631   7.718  4.1248 -0.0132  0.7428
  296MOL0     H40783   1.893   2.804   7.480  1.5865  1.8637  1.5924
  296MOL0     H40784   1.787   2.680   7.563 -0.4835 -1.8340  1.2397
  296MOL0     H40785   1.894   2.952   7.650 -0.5872  2.5741  0.8065
  296MOL0     H40786   1.744   2.921   7.597  3.0183  1.6025 -1.6302
  296MOL0     H40787   1.712   2.741   7.787 -2.0911  1.6691 -4.4607
  296MOL0     H40788   1.871   2.797   7.830 -2.0192 -1.6709  2.4657
  296MOL0     H40789   1.617   2.981   7.799  2.2427  3.2141 -2.7121
  296MOL0     H40790   1.781   3.016   7.854  1.4984 -2.2897  2.2528
  296MOL0     H40791   1.581   2.832   8.007  1.6445 -2.2534  1.9855
  296MOL0     H40792   1.757   2.860   8.042 -0.3890 -1.9835 -0.7021
  296MOL0     H40793   1.534   3.054   8.040 -0.9682  1.4515  3.1979
  296MOL0     H40794   1.703   3.104   8.032  3.8488 -2.9125  0.9291
  296MOL0     H40795   1.583   2.925   8.266  0.8239 -1.1720 -1.5607
  296MOL0     H40796   1.730   3.012   8.259  0.3725  0.2159 -2.0890
  296MOL0     H40797   1.645   3.293   8.180  0.0755 -1.6683  0.1775
  296MOL0     H40798   1.444   3.514   8.414 -1.1691  0.0731  0.7917
  296MOL0     H40799   1.331   3.455   8.296 -0.3165  3.1762 -0.7243
  296MOL0     H40800   1.477   3.499   8.104  2.1816 -0.0788  0.4016
  296MOL0     H40801   1.423   3.641   8.172  1.4236 -0.1348 -2.5189
  296MOL0     H40802   1.612   3.704   8.284 -0.6325  1.6890  0.1860
  296MOL0     H40803   1.681   3.543   8.293  1.2361  0.1183 -2.0735
  296MOL0     H40804   1.719   3.513   8.058 -2.1704 -0.5832  0.2198
  296MOL0     H40805   1.657   3.678   8.018 -0.5641 -1.1285 -0.0852
  296MOL0     H40806   2.058   3.731   8.178  1.7915 -1.8062 -0.0903
  296MOL0     H40807   2.362   3.610   8.076  0.4899  0.8955 -1.0498
  296MOL0     H40808   2.266   3.702   8.189  0.7020  0.3067  1.2045
  296MOL0     H40809   2.337   3.782   8.059  0.5289  0.4169  3.7345
  296MOL0     H40810   2.391   3.799   7.565 -2.1676 -2.8958  2.5773
  296MOL0     H40811   2.584   3.786   7.399 -4.5959  1.6621  0.7059
  296MOL0     H40812   2.712   3.762   7.233  2.7804  0.6510 -1.6713
  296MOL0     H40813   2.819   3.713   7.367 -0.8257 -0.6734  1.5285
  296MOL0     H40814   2.835   3.588   7.100 -2.0959 -1.4499  1.4396
  296MOL0     H40815   2.907   3.756   7.126  0.8846  3.0082  3.9651
  296MOL0     H40816   2.999   3.480   7.232  1.5056  0.7555  0.3651
  296MOL0     H40817   3.040   3.628   7.317  0.5196 -0.9290  0.0997
  296MOL0     H40818   3.110   3.718   7.082  0.8870  0.6865  3.1399
  296MOL0     H40819   3.089   3.553   7.018 -1.8652  0.3766  0.6591
  296MOL0     H40820   3.264   3.647   7.248  0.7541 -0.8772 -0.2354
  296MOL0     H40821   3.229   3.476   7.221  1.8253 -1.6005 -0.9053
  296MOL0     H40822   3.370   3.660   7.020 -0.8762 -0.8739 -1.6734
  296MOL0     H40823   3.322   3.490   6.992  0.7783  1.1802 -1.6935
  296MOL0     H40824   3.550   3.491   7.044  1.2717 -0.8335  0.3035
  296MOL0     H40825   3.469   3.411   7.179 -1.7252 -0.1737 -0.6883
  296MOL0     H40826   3.476   3.635   7.295  0.0748 -0.6053 -1.0987
  296MOL0     H40827   3.570   3.699   7.169 -1.0614  1.3881 -0.3998
  296MOL0     H40828   2.530   3.363   7.374 -0.8054  0.6470 -2.8204
  296MOL0     H40829   2.340   3.379   7.536  1.7394 -1.0071 -0.6955
  296MOL0     H40830   2.009   3.551   7.715  0.2558 -0.6525 -0.2706
  296MOL0     H40831   1.816   3.597   7.844 -0.2625  1.2230 -0.4107
  296MOL0     H40832   2.236   2.684   7.438  2.2578  0.8708  0.3480
  296MOL0     H40833   2.466   2.600   7.449  0.5945 -0.0108 -0.7636
  296MOL0     H40834   2.748   2.285   7.409  0.5749 -0.1508 -1.3019
  296MOL0     H40835   2.961   2.217   7.364  1.6319  0.4196  0.5638
  296MOL0     H40836   3.287   1.968   7.570 -1.2709 -1.3379 -1.0660
  296MOL0     H40837   3.228   2.094   7.685 -0.2768  0.1482  0.4813
  296MOL0     H40838   3.062   1.849   7.595 -2.9783  0.8362  1.3530
  296MOL0     H40839   3.029   1.930   7.743 -1.6812 -2.9546 -1.3672
  296MOL0     H40840   3.225   1.854   7.861  1.1773 -1.2073 -0.0232
  296MOL0     H40841   3.121   1.725   7.809  3.2654 -0.4685  2.0049
  296MOL0     H40842   3.377   1.790   7.667 -0.4590 -0.9161 -1.5795
  296MOL0     H40843   3.269   1.668   7.604  0.2270 -1.4312  1.1009
  296MOL0     H40844   3.505   1.448   7.863 -0.4086  0.1461 -1.8020
  296MOL0     H40845   3.017   2.156   7.783 -3.3711 -1.9379  1.2706
  296MOL0     H40846   2.677   2.136   7.875  0.7804 -1.4194  0.4439
  296MOL0     H40847   2.841   2.128   7.925  1.6682 -0.6098 -2.6773
  296MOL0     H40848   2.760   2.288   7.932 -3.7772  0.2771 -1.6664
  297MOL0     O40849   0.762   4.371   4.283  0.6708 -0.2361 -0.4837
  297MOL0     C40850   0.759   4.247   4.306  0.3584 -0.3331 -0.5906
  297MOL0     O40851   0.848   4.181   4.391 -0.0520  0.3087 -0.1597
  297MOL0     C40852   0.943   4.248   4.468 -0.5191 -0.1536  0.2720
  297MOL0     C40853   1.073   4.216   4.471  0.0302  0.3050 -1.3100
  297MOL0     C40854   1.156   4.274   4.563 -0.6525 -0.0784  0.2075
  297MOL0     C40855   1.105   4.366   4.652 -0.4974 -0.3560 -0.3293
  297MOL0     O40856   1.185   4.434   4.739  0.2650 -0.4895  0.6751
  297MOL0     C40857   1.307   4.374   4.786 -0.0768  0.0778  0.0413
  297MOL0     C40858   1.363   4.462   4.899 -0.0372 -0.0835  0.0410
  297MOL0     C40859   1.515   4.445   4.922  0.5445  0.1173 -0.2792
  297MOL0     C40860   1.588   4.565   4.992 -0.0837  0.0190  0.0926
  297MOL0     C40861   1.716   4.528   5.058 -0.0730  0.5901 -0.5055
  297MOL0     C40862   1.774   4.646   5.138  0.6456  0.6884  0.0169
  297MOL0     C40863   1.901   4.608   5.220 -0.2146 -0.0800 -0.0521
  297MOL0     C40864   1.992   4.496   5.167 -0.3591  0.5662 -0.2767
  297MOL0     N40865   2.111   4.478   5.254  0.3862 -0.5151  1.2862
  297MOL0     C40866   2.125   4.492   5.390 -0.6650 -0.6420 -0.4832
  297MOL0     C40867   2.260   4.465   5.411  0.2191  0.0967  0.3660
  297MOL0     C40868   2.342   4.472   5.539  0.0616 -0.5409  0.0289
  297MOL0     C40869   2.494   4.478   5.517 -0.4976  0.8576  0.0173
  297MOL0     C40870   2.563   4.471   5.651  0.2964  0.3011 -0.3631
  297MOL0     C40871   2.716   4.485   5.643  0.5855 -0.5790  0.0018
  297MOL0     O40872   2.750   4.348   5.637 -0.2542 -0.5314  0.0269
  297MOL0     C40873   2.880   4.313   5.616  0.2779  0.3226  0.2563
  297MOL0     C40874   2.909   4.174   5.642  0.6387  0.1936 -0.2107
  297MOL0     C40875   3.043   4.126   5.628  0.2159  0.3088  0.2317
  297MOL0     C40876   3.076   3.980   5.668 -0.0635  0.0279 -0.2424
  297MOL0     C40877   3.140   4.204   5.569 -0.1585 -0.1779  0.0999
  297MOL0     C40878   3.271   4.142   5.542  0.1667 -0.3910  0.3267
  297MOL0     O40879   3.276   4.027   5.475  0.0269 -0.4357  0.2747
  297MOL0     C40880   3.384   3.945   5.455  0.2871  0.2129 -0.0788
  297MOL0     C40881   3.353   3.811   5.422 -0.0507 -0.4646  1.3380
  297MOL0     C40882   3.455   3.714   5.413  0.6983  0.0040 -0.0122
  297MOL0     C40883   3.588   3.758   5.425  0.2615 -0.5651  0.1376
  297MOL0     O40884   3.698   3.677   5.415  0.1763  0.2297 -0.0048
  297MOL0     C40885   3.680   3.556   5.336 -0.8708  0.1546 -0.5599
  297MOL0     C40886   3.818   3.498   5.328 -0.0928 -0.5939  0.8735
  297MOL0     C40887   3.825   3.349   5.273  0.7281  0.3204  0.4948
  297MOL0     C40888   3.826   3.364   5.119  0.1302 -0.2242 -0.7281
  297MOL0     C40889   3.752   3.245   5.054  1.2032  0.5820 -0.3626
  297MOL0     C40890   3.797   3.109   5.115  0.3995  0.7185  0.8254
  297MOL0     C40891   3.944   3.081   5.101  1.2920  0.7462 -0.3052
  297MOL0     C40892   3.975   3.047   4.956  0.0651 -1.1501  0.7246
  297MOL0    Cl40893   4.155   3.023   4.952  0.2618  0.2584 -0.1447
  297MOL0     C40894   3.614   3.889   5.466  0.2577  0.4876 -0.0601
  297MOL0     C40895   3.512   3.982   5.476 -0.3161  0.7597  0.0965
  297MOL0     O40896   3.364   4.205   5.591 -0.1863 -0.0087  0.0918
  297MOL0     C40897   3.115   4.345   5.556 -0.0023  0.0497  0.1852
  297MOL0     C40898   2.985   4.397   5.578  0.6612 -0.2084  0.3107
  297MOL0     N40899   2.304   4.419   5.292  0.5596  0.3656 -0.4407
  297MOL0     N40900   2.220   4.425   5.199  0.3254 -0.7417  0.0195
  297MOL0     C40901   0.980   4.413   4.637  0.0748  0.0999 -0.0466
  297MOL0     C40902   0.887   4.344   4.549 -0.5612 -0.5784 -0.2796
  297MOL0     C40903   0.673   4.162   4.214  0.4767  0.3528  0.4484
  297MOL0     C40904   0.722   4.035   4.186  0.1264  0.8574  0.0918
  297MOL0     C40905   0.670   3.949   4.091  0.1519  0.9447 -0.0765
  297MOL0     C40906   0.552   3.984   4.029 -0.2372  1.0962 -0.0742
  297MOL0     O40907   0.485   3.903   3.947 -0.1833  0.1102 -0.5997
  297MOL0     C40908   0.519   3.762   3.924 -0.3136  0.2089 -0.1022
  297MOL0     C40909   0.607   3.734   3.799  0.2316  0.8541  0.1887
  297MOL0     C40910   0.627   3.578   3.785  0.3626 -0.6949  0.7133
  297MOL0     C40911   0.716   3.563   3.666  0.3116  0.1851  0.1693
  297MOL0     C40912   0.633   3.517   3.555 -0.1120 -1.1555  0.3834
  297MOL0     C40913   0.563   3.472   3.467  0.0341  0.3465 -0.5652
  297MOL0     C40914   0.498   4.111   4.060 -0.5739  0.0688 -0.0934
  297MOL0     C40915   0.553   4.198   4.157 -0.1078  0.4004 -0.0442
  297MOL0     C40916   0.464   4.321   4.184 -0.2135  0.6000  0.5594
  297MOL0     H40917   1.112   4.150   4.395  1.3880  0.3553 -0.6958
  297MOL0     H40918   1.262   4.263   4.546 -0.2863 -1.5434  2.8748
  297MOL0     H40919   1.376   4.388   4.703  2.6853  1.6513  2.4238
  297MOL0     H40920   1.300   4.274   4.829  0.2228  0.9986  2.3853
  297MOL0     H40921   1.345   4.566   4.869  1.6054  0.6672  1.4280
  297MOL0     H40922   1.294   4.442   4.981 -0.6556  0.9196 -0.2163
  297MOL0     H40923   1.541   4.354   4.976  2.5725 -0.0226 -1.3858
  297MOL0     H40924   1.569   4.432   4.828 -0.1542 -0.7190 -0.5764
  297MOL0     H40925   1.611   4.651   4.928  1.2015 -0.3238  0.0697
  297MOL0     H40926   1.513   4.598   5.065 -0.8838 -2.6542  0.5664
  297MOL0     H40927   1.778   4.495   4.974 -1.7089 -1.6802 -0.9137
  297MOL0     H40928   1.710   4.440   5.122 -0.9317  1.1117  0.1491
  297MOL0     H40929   1.799   4.733   5.078  1.4546  0.1679 -0.4193
  297MOL0     H40930   1.697   4.679   5.207  0.5736  0.6236 -0.0320
  297MOL0     H40931   1.862   4.570   5.315 -1.2704 -1.0482 -0.8398
  297MOL0     H40932   1.956   4.700   5.241 -1.0765  0.9131 -1.8149
  297MOL0     H40933   1.939   4.400   5.171  0.4320  0.1563  0.5366
  297MOL0     H40934   2.026   4.511   5.064 -0.4197 -1.0728 -0.5616
  297MOL0     H40935   2.045   4.504   5.463  0.0889 -0.2766  0.2974
  297MOL0     H40936   2.315   4.389   5.604 -0.1958 -0.3246  0.1997
  297MOL0     H40937   2.319   4.564   5.595 -0.9987 -1.2320  0.7735
  297MOL0     H40938   2.513   4.390   5.454 -3.9136  0.4084 -0.6199
  297MOL0     H40939   2.516   4.568   5.461  1.4093  0.7838  0.5876
  297MOL0     H40940   2.534   4.558   5.711 -1.2553 -1.7351  1.9943
  297MOL0     H40941   2.536   4.380   5.704  0.0580 -0.7522 -2.2178
  297MOL0     H40942   2.747   4.548   5.560 -0.0540 -0.5462 -0.2191
  297MOL0     H40943   2.761   4.532   5.731 -0.5959 -2.0459  1.4887
  297MOL0     H40944   2.833   4.108   5.682  0.9605  1.0414  1.9036
  297MOL0     H40945   2.998   3.936   5.731  1.3106 -0.6018  1.0966
  297MOL0     H40946   3.162   3.977   5.735 -0.3990  0.8467  0.2402
  297MOL0     H40947   3.093   3.910   5.586  0.2835  0.5486 -0.6145
  297MOL0     H40948   3.247   3.786   5.419 -0.2832  0.3105  2.4066
  297MOL0     H40949   3.423   3.613   5.388 -1.0829  0.7874 -1.1277
  297MOL0     H40950   3.607   3.491   5.384 -1.1523  0.4268 -0.6135
  297MOL0     H40951   3.643   3.582   5.237 -0.1598  0.2878 -0.7957
  297MOL0     H40952   3.872   3.570   5.266  1.4822  0.4698  3.3435
  297MOL0     H40953   3.865   3.499   5.427  1.7022  0.0557  0.0557
  297MOL0     H40954   3.733   3.299   5.305 -0.6000  1.2924 -1.5743
  297MOL0     H40955   3.910   3.292   5.309 -0.7740 -0.7960  2.4450
  297MOL0     H40956   3.933   3.363   5.097 -0.1581 -0.2527 -2.2621
  297MOL0     H40957   3.792   3.460   5.079  2.7163  0.9649 -0.2730
  297MOL0     H40958   3.643   3.250   5.067  1.2952  1.2860  0.2400
  297MOL0     H40959   3.757   3.240   4.945 -0.8173  0.5248 -0.4961
  297MOL0     H40960   3.744   3.021   5.078  0.8271 -0.2384  2.3697
  297MOL0     H40961   3.775   3.100   5.222 -0.2842 -0.9232  0.5851
  297MOL0     H40962   3.960   2.993   5.163  2.1597  0.3464 -1.0658
  297MOL0     H40963   3.996   3.168   5.140  0.0150  0.8612  1.2397
  297MOL0     H40964   3.947   3.136   4.899  2.6486 -0.8801 -0.2782
  297MOL0     H40965   3.921   2.961   4.916  0.8106 -0.4903 -1.9837
  297MOL0     H40966   3.711   3.936   5.482 -1.2686  3.9768 -0.2633
  297MOL0     H40967   3.550   4.080   5.503  2.0717  0.5100 -1.9923
  297MOL0     H40968   3.200   4.408   5.530  1.6742 -1.8325  0.7656
  297MOL0     H40969   2.953   4.500   5.579 -0.0145 -0.3312  3.5285
  297MOL0     H40970   0.952   4.503   4.692 -3.4121  1.5366 -3.6720
  297MOL0     H40971   0.783   4.374   4.548 -0.4130  0.1537  1.6663
  297MOL0     H40972   0.819   4.010   4.229  1.2731  4.7649  0.1617
  297MOL0     H40973   0.723   3.855   4.081  0.4524  0.7428  2.6288
  297MOL0     H40974   0.550   3.718   4.019 -1.3023  2.4134  1.3133
  297MOL0     H40975   0.428   3.706   3.901  1.2415 -2.9687  0.8909
  297MOL0     H40976   0.705   3.782   3.803 -0.1795  1.7270 -0.0297
  297MOL0     H40977   0.557   3.774   3.710  2.6871  0.0404 -1.6512
  297MOL0     H40978   0.680   3.545   3.875 -2.6211  1.5094  3.5443
  297MOL0     H40979   0.543   3.509   3.770  2.3179 -2.6618 -2.1731
  297MOL0     H40980   0.784   3.482   3.693  0.2302  0.4573  1.2014
  297MOL0     H40981   0.774   3.650   3.634  1.2117 -0.4207  0.1005
  297MOL0     H40982   0.498   3.425   3.396  2.5719 -0.5123 -2.4934
  297MOL0     H40983   0.410   4.132   4.001  0.5148 -1.2045 -2.2884
  297MOL0     H40984   0.356   4.299   4.185  0.1914 -1.5692  0.7946
  297MOL0     H40985   0.480   4.356   4.286  0.2242  2.9323 -0.2501
  297MOL0     H40986   0.485   4.397   4.108 -0.1387 -0.2106 -0.2391
  298MOL0     O40987   3.016   0.376   8.808  0.7849 -0.2283 -0.0643
  298MOL0     C40988   3.110   0.360   8.735  0.5374 -0.6514  0.3234
  298MOL0     O40989   3.101   0.350   8.601  0.4625  0.7627  0.5409
  298MOL0     C40990   2.989   0.396   8.530  0.9820  0.0269  0.3313
  298MOL0     C40991   3.011   0.376   8.391 -0.6352 -0.6734 -0.6374
  298MOL0     C40992   2.927   0.437   8.299  0.8496  0.1070  0.9705
  298MOL0     C40993   2.812   0.503   8.335  0.2808  0.8054  0.4966
  298MOL0     O40994   2.726   0.539   8.230 -0.8042  0.9040 -0.5409
  298MOL0     C40995   2.675   0.668   8.230 -0.9911  0.7712  0.0441
  298MOL0     C40996   2.681   0.738   8.095  0.5260  1.0897  0.0858
  298MOL0     C40997   2.825   0.755   8.037 -0.1694  0.5853 -0.7424
  298MOL0     C40998   2.829   0.827   7.902 -0.9247 -0.4972 -0.3959
  298MOL0     C40999   2.975   0.848   7.860  0.1733 -0.5951  0.0810
  298MOL0     C41000   3.014   0.724   7.776 -0.2108 -0.1089 -0.0780
  298MOL0     C41001   3.151   0.737   7.693 -0.2226  0.4582 -0.4100
  298MOL0     C41002   3.250   0.634   7.739 -0.1792 -0.9272  0.0247
  298MOL0     N41003   3.365   0.624   7.651 -0.1124 -0.3987  0.5556
  298MOL0     C41004   3.487   0.661   7.679 -0.8336  1.3558 -0.4461
  298MOL0     C41005   3.565   0.622   7.577 -0.4126 -0.4074 -0.0754
  298MOL0     C41006   3.716   0.640   7.578  0.1437 -0.1719  0.3755
  298MOL0     C41007   3.750   0.751   7.486  0.4511 -0.8869  0.1032
  298MOL0     C41008   3.694   0.741   7.334  0.4920  0.4311 -0.4209
  298MOL0     C41009   3.734   0.611   7.273 -0.5440 -0.4755 -0.8411
  298MOL0     O41010   3.718   0.617   7.137 -0.0865  0.6183 -0.2685
  298MOL0     C41011   3.790   0.531   7.052  0.8740 -0.7118 -0.3350
  298MOL0     C41012   3.795   0.554   6.914  0.2218 -0.6283 -0.0129
  298MOL0     C41013   3.877   0.475   6.828  0.0740  0.1961 -0.1972
  298MOL0     C41014   3.877   0.524   6.682 -0.3125  0.3601  0.8140
  298MOL0     C41015   3.953   0.364   6.877  0.0480 -0.4396 -0.2912
  298MOL0     C41016   4.040   0.276   6.791 -0.4307  0.8625 -0.0303
  298MOL0     O41017   4.123   0.182   6.860 -0.0874 -0.0162 -0.4689
  298MOL0     C41018   4.179   0.076   6.799  1.7875 -0.5376 -0.7162
  298MOL0     C41019   4.130   0.017   6.676 -0.2084  0.1294 -0.7059
  298MOL0     C41020   4.199  -0.093   6.620 -0.5077 -0.2037 -0.1062
  298MOL0     C41021   4.315  -0.140   6.691  0.4679  0.1599  0.8515
  298MOL0     O41022   4.396  -0.227   6.620  0.2764  0.2076 -0.5900
  298MOL0     C41023   4.343  -0.354   6.593  0.5110 -0.0384 -0.8402
  298MOL0     C41024   4.423  -0.425   6.478 -0.4252  0.1439 -0.4584
  298MOL0     C41025   4.578  -0.436   6.508  0.3752  0.3047 -0.2857
  298MOL0     C41026   4.650  -0.311   6.473  0.4608  0.4198 -0.0989
  298MOL0     C41027   4.793  -0.349   6.462  0.4056  0.4482 -0.4026
  298MOL0     C41028   4.884  -0.217   6.463  0.2101  0.1109 -0.6834
  298MOL0     C41029   4.872  -0.153   6.329  0.7239  0.0024 -0.0210
  298MOL0     C41030   4.931  -0.013   6.327 -0.1203  0.1965 -0.2077
  298MOL0    Cl41031   4.915   0.042   6.157  0.1540 -0.6333  0.3309
  298MOL0     C41032   4.351  -0.086   6.810 -0.5155  0.5870 -1.0934
  298MOL0     C41033   4.288   0.027   6.857 -0.6231  0.4885 -0.8416
  298MOL0     O41034   4.045   0.293   6.666  0.8902 -0.2152 -0.8021
  298MOL0     C41035   3.938   0.343   7.016 -0.9148 -0.3121 -0.6549
  298MOL0     C41036   3.859   0.418   7.101  0.4315 -0.5697  0.3429
  298MOL0     N41037   3.482   0.559   7.480 -0.1485 -1.1890 -0.4861
  298MOL0     N41038   3.362   0.541   7.535 -0.7099 -0.3665  0.4407
  298MOL0     C41039   2.778   0.507   8.465  0.3361 -0.8362 -0.5317
  298MOL0     C41040   2.867   0.471   8.567 -0.3403 -0.0592 -0.5159
  298MOL0     C41041   3.247   0.346   8.786 -0.1777  0.2451  0.4392
  298MOL0     C41042   3.354   0.402   8.712 -0.0397  0.4736  0.0416
  298MOL0     C41043   3.484   0.405   8.765 -0.6791 -0.5915 -0.4826
  298MOL0     C41044   3.513   0.350   8.889  0.6003  1.0771  0.0984
  298MOL0     O41045   3.637   0.337   8.951  0.2966 -0.6658  0.4251
  298MOL0     C41046   3.753   0.383   8.879  0.7653 -0.0020  0.6843
  298MOL0     C41047   3.890   0.358   8.938 -0.3211 -0.5401 -0.1087
  298MOL0     C41048   3.928   0.452   9.049  0.1921 -0.5221  0.4023
  298MOL0     C41049   4.030   0.411   9.150  0.3174  0.2588 -0.3760
  298MOL0     C41050   4.155   0.349   9.099  0.6256  0.6714  1.2860
  298MOL0     C41051   4.258   0.320   9.049  0.2870  0.1189  0.8409
  298MOL0     C41052   3.407   0.287   8.957 -0.3489  1.2821  0.0296
  298MOL0     C41053   3.273   0.286   8.913  0.5816  0.3794 -0.1575
  298MOL0     C41054   3.163   0.220   8.990 -0.8170 -0.8461  0.1739
  298MOL0     H41055   3.088   0.309   8.355 -0.5591 -0.9679  0.0543
  298MOL0     H41056   2.948   0.436   8.192  1.7281  1.3494  1.1067
  298MOL0     H41057   2.733   0.726   8.303  1.1182 -1.8720  0.6154
  298MOL0     H41058   2.572   0.664   8.264 -1.8050 -0.9459 -2.3200
  298MOL0     H41059   2.631   0.665   8.031 -1.6680 -0.2362  3.0937
  298MOL0     H41060   2.630   0.834   8.098 -1.8413 -0.1047  1.0090
  298MOL0     H41061   2.886   0.804   8.114 -0.2658  1.9634 -1.5211
  298MOL0     H41062   2.856   0.653   8.013 -1.2914  0.4510 -1.6749
  298MOL0     H41063   2.764   0.793   7.821  0.5629  1.2700 -2.4431
  298MOL0     H41064   2.798   0.927   7.933  0.3563 -0.4131  0.7147
  298MOL0     H41065   3.038   0.864   7.949 -1.7444 -0.1010  1.4123
  298MOL0     H41066   2.988   0.939   7.800 -3.7421  1.3819  1.8660
  298MOL0     H41067   3.005   0.632   7.835  1.4777 -1.1213 -1.2986
  298MOL0     H41068   2.941   0.724   7.694 -0.3941 -0.3246  0.0848
  298MOL0     H41069   3.199   0.835   7.706  0.7772 -0.2073  1.3066
  298MOL0     H41070   3.132   0.714   7.588 -0.3029 -0.6276 -0.1625
  298MOL0     H41071   3.286   0.641   7.842  0.2258 -1.6245 -0.0626
  298MOL0     H41072   3.198   0.538   7.734 -1.0723 -0.5781  1.7040
  298MOL0     H41073   3.522   0.699   7.775 -1.1937 -0.8795  0.6186
  298MOL0     H41074   3.769   0.550   7.546 -0.4107 -1.0344  1.7966
  298MOL0     H41075   3.745   0.669   7.679 -0.5683  1.3285  0.1775
  298MOL0     H41076   3.708   0.842   7.529  0.1023 -0.5821 -0.8755
  298MOL0     H41077   3.858   0.769   7.487  0.3738 -0.1335  2.7134
  298MOL0     H41078   3.585   0.746   7.325  0.6400  0.5373 -2.8972
  298MOL0     H41079   3.735   0.816   7.266 -0.7254 -0.3614 -2.1043
  298MOL0     H41080   3.840   0.597   7.298 -1.0742  0.6876  2.5863
  298MOL0     H41081   3.686   0.528   7.326  1.4398 -1.0069  0.2200
  298MOL0     H41082   3.715   0.623   6.891  0.8410  0.8752  2.0080
  298MOL0     H41083   3.841   0.453   6.607 -3.6903  3.4681 -0.8319
  298MOL0     H41084   3.979   0.544   6.649 -0.5515  1.1106  0.4983
  298MOL0     H41085   3.814   0.614   6.680 -0.0126  0.6055  1.8064
  298MOL0     H41086   4.041   0.049   6.623 -0.2310 -0.1133 -0.8171
  298MOL0     H41087   4.169  -0.144   6.530  1.3810  1.4942 -1.8044
  298MOL0     H41088   4.354  -0.416   6.683  0.5650  1.7971  0.4832
  298MOL0     H41089   4.239  -0.345   6.562  0.6893 -1.1025 -1.8224
  298MOL0     H41090   4.389  -0.526   6.457  0.0934 -0.2163  0.3521
  298MOL0     H41091   4.407  -0.372   6.384 -3.1137  0.4639  0.1116
  298MOL0     H41092   4.612  -0.522   6.448  0.9577  0.6760 -0.4963
  298MOL0     H41093   4.596  -0.465   6.612 -1.6639  0.2199  0.0864
  298MOL0     H41094   4.630  -0.236   6.550  2.0197 -2.0523  2.9465
  298MOL0     H41095   4.611  -0.275   6.378  0.0683  0.6729  0.1568
  298MOL0     H41096   4.810  -0.402   6.557 -1.1945 -0.8717 -0.8018
  298MOL0     H41097   4.810  -0.419   6.380 -1.3912 -1.0802  0.4263
  298MOL0     H41098   4.988  -0.246   6.485 -0.9364 -1.0025  4.7360
  298MOL0     H41099   4.843  -0.158   6.545 -2.4752 -2.2310 -0.2089
  298MOL0     H41100   4.765  -0.149   6.305  1.0897  0.9289 -1.6531
  298MOL0     H41101   4.925  -0.211   6.254  3.3281  0.9913  0.9510
  298MOL0     H41102   5.034  -0.007   6.363 -1.1469 -1.3950  3.5294
  298MOL0     H41103   4.877   0.042   6.405  1.2992 -3.7622  3.9550
  298MOL0     H41104   4.439  -0.132   6.855 -2.0413 -0.6860  0.6991
  298MOL0     H41105   4.319   0.082   6.945 -0.4541 -0.6605 -0.1529
  298MOL0     H41106   3.988   0.253   7.050  2.1389  0.9751 -1.4366
  298MOL0     H41107   3.840   0.397   7.206 -1.0961 -0.1623  0.1772
  298MOL0     H41108   2.683   0.547   8.498  0.8382  0.1868 -0.2856
  298MOL0     H41109   2.844   0.495   8.671 -0.4367  1.6300 -0.9001
  298MOL0     H41110   3.335   0.442   8.613  2.6518 -0.3208 -0.8826
  298MOL0     H41111   3.565   0.450   8.709 -0.2104  1.1367  1.4479
  298MOL0     H41112   3.751   0.334   8.781  0.7572  1.5488 -0.1330
  298MOL0     H41113   3.742   0.490   8.860 -1.0284 -0.5187 -1.6576
  298MOL0     H41114   3.968   0.375   8.863  0.3608 -1.3492  0.4036
  298MOL0     H41115   3.890   0.256   8.976  0.1233 -0.7622 -0.6996
  298MOL0     H41116   3.968   0.547   9.014 -0.3497  0.9113  3.3392
  298MOL0     H41117   3.833   0.474   9.098 -0.8836 -2.7025 -0.5327
  298MOL0     H41118   3.973   0.332   9.200  0.9199  0.3526  0.4706
  298MOL0     H41119   4.053   0.492   9.219  0.3639 -0.3274  0.3128
  298MOL0     H41120   4.346   0.300   8.991  0.9274  5.2668 -0.3681
  298MOL0     H41121   3.426   0.232   9.049  2.2605  3.6615  1.0523
  298MOL0     H41122   3.213   0.144   9.051  0.1304 -0.8955 -0.6417
  298MOL0     H41123   3.110   0.295   9.049  0.5020  0.4846 -0.2758
  298MOL0     H41124   3.100   0.165   8.919  1.0452 -0.0622 -2.2427
  299MOL0     O41125  11.069  11.225   2.180  0.6533 -0.6058 -0.7030
  299MOL0     C41126  11.079  11.110   2.177  0.6973  0.0328  0.0494
  299MOL0     O41127  11.169  11.039   2.254 -0.9096 -0.1067  0.2503
  299MOL0     C41128  11.249  11.118   2.343 -0.0285  0.0300  0.1683
  299MOL0     C41129  11.333  11.212   2.291 -1.3087  0.3004 -0.4139
  299MOL0     C41130  11.417  11.293   2.385 -0.2788  0.3622  0.5885
  299MOL0     C41131  11.407  11.276   2.526 -0.8927  0.1577  0.2415
  299MOL0     O41132  11.471  11.363   2.615 -0.1805  0.2379  0.0580
  299MOL0     C41133  11.557  11.473   2.573 -0.2167 -0.7814 -0.3013
  299MOL0     C41134  11.628  11.548   2.682 -0.2691 -0.1993 -0.1676
  299MOL0     C41135  11.696  11.665   2.613  0.3902  0.0529 -0.2304
  299MOL0     C41136  11.814  11.629   2.522  0.3865  0.6253  0.0976
  299MOL0     C41137  11.901  11.751   2.482  0.5698  0.4466  1.0033
  299MOL0     C41138  12.043  11.703   2.474  0.0034  0.8859  0.1042
  299MOL0     C41139  12.146  11.817   2.458 -0.9753  1.1324  0.1892
  299MOL0     C41140  12.177  11.888   2.582 -0.6744 -0.2856 -0.6468
  299MOL0     N41141  12.258  11.791   2.662  0.3923  0.8306 -0.6555
  299MOL0     C41142  12.210  11.711   2.764 -0.0662  0.3284  0.3299
  299MOL0     C41143  12.316  11.638   2.804  0.3418 -0.0745  0.3098
  299MOL0     C41144  12.305  11.531   2.910  0.4390 -0.3381 -0.6637
  299MOL0     C41145  12.267  11.395   2.851 -0.1843 -0.7510  0.0371
  299MOL0     C41146  12.112  11.379   2.861 -0.4826  0.2204  0.3185
  299MOL0     C41147  12.076  11.264   2.765 -0.2660 -0.4724  0.3421
  299MOL0     O41148  11.933  11.264   2.747  0.7909 -0.0615 -0.5299
  299MOL0     C41149  11.877  11.157   2.679 -0.1829  0.4915  0.5173
  299MOL0     C41150  11.892  11.017   2.712 -0.1171  0.1964  0.7507
  299MOL0     C41151  11.825  10.908   2.651 -0.0010 -0.3937  0.3150
  299MOL0     C41152  11.870  10.771   2.690 -0.6419  0.4895 -0.1913
  299MOL0     C41153  11.719  10.940   2.557  0.1994 -0.5441  0.0749
  299MOL0     C41154  11.662  10.843   2.466 -0.4964 -0.1552 -0.0796
  299MOL0     O41155  11.604  10.904   2.360  0.1971 -0.0323  1.1134
  299MOL0     C41156  11.544  10.823   2.270 -0.4798 -0.3273 -0.3949
  299MOL0     C41157  11.634  10.761   2.174  0.0496  0.7026  0.6928
  299MOL0     C41158  11.580  10.671   2.085 -0.4646  0.4269  0.9434
  299MOL0     C41159  11.447  10.642   2.077  0.2651 -0.3498  0.6996
  299MOL0     O41160  11.417  10.544   1.978  0.5159  0.0911  0.3251
  299MOL0     C41161  11.296  10.550   1.903  0.1436 -0.0078 -0.2969
  299MOL0     C41162  11.276  10.679   1.823 -0.5860 -0.5510  0.9862
  299MOL0     C41163  11.141  10.744   1.821  0.7092  0.3462 -0.2287
  299MOL0     C41164  11.113  10.808   1.686  0.1889 -0.0700 -0.5204
  299MOL0     C41165  11.032  10.739   1.594  0.1995 -0.1098  0.5057
  299MOL0     C41166  11.093  10.613   1.545 -0.7291  0.8190 -0.1692
  299MOL0     C41167  11.000  10.539   1.455  0.9993  0.1680  0.3907
  299MOL0     C41168  11.071  10.424   1.385  0.0438  0.0100  0.1678
  299MOL0    Cl41169  10.944  10.322   1.309 -0.0425  0.6378 -0.3433
  299MOL0     C41170  11.357  10.716   2.150  1.0393 -0.3176 -0.4612
  299MOL0     C41171  11.405  10.801   2.252 -0.1065 -0.5668 -0.2266
  299MOL0     O41172  11.656  10.723   2.504 -0.8929  0.2260  0.9635
  299MOL0     C41173  11.697  11.079   2.542  0.0335 -0.5098  0.4245
  299MOL0     C41174  11.782  11.189   2.591 -0.2984 -0.3156 -0.9136
  299MOL0     N41175  12.425  11.675   2.726  0.1620 -0.7014 -1.2346
  299MOL0     N41176  12.389  11.764   2.642  0.0671  0.1766 -0.3816
  299MOL0     C41177  11.322  11.177   2.581  0.0450  0.5546  0.6464
  299MOL0     C41178  11.243  11.105   2.484 -0.0206 -0.0248 -0.2610
  299MOL0     C41179  10.977  11.031   2.097 -1.3790  0.0633  0.2082
  299MOL0     C41180  10.928  10.908   2.135 -0.3828 -0.4421 -0.1166
  299MOL0     C41181  10.836  10.838   2.061  0.7624  0.0523  0.2111
  299MOL0     C41182  10.771  10.894   1.951  0.2237  0.3161  0.1796
  299MOL0     O41183  10.663  10.828   1.889 -0.2212 -0.0908  0.0514
  299MOL0     C41184  10.628  10.871   1.755  0.1268 -0.3088  0.5381
  299MOL0     C41185  10.574  10.758   1.675  0.6680  0.5294  0.6668
  299MOL0     C41186  10.559  10.795   1.525  0.1040  0.0194  0.3804
  299MOL0     C41187  10.684  10.800   1.440 -0.0422 -0.0824 -0.0679
  299MOL0     C41188  10.696  10.701   1.333 -0.4802  0.2610  0.0014
  299MOL0     C41189  10.737  10.621   1.249 -0.0261 -0.0049 -0.9312
  299MOL0     C41190  10.811  11.027   1.920 -0.3944 -0.1875  0.0455
  299MOL0     C41191  10.924  11.077   1.977 -0.1045  0.2666 -0.0802
  299MOL0     C41192  10.986  11.192   1.898  0.4968 -0.3815 -0.1093
  299MOL0     H41193  11.344  11.224   2.184  1.0271  1.4227 -0.0943
  299MOL0     H41194  11.482  11.370   2.346 -0.8186 -0.4452 -2.1961
  299MOL0     H41195  11.491  11.541   2.517 -1.1694 -0.3695  1.2671
  299MOL0     H41196  11.632  11.435   2.503  0.2466 -0.3545 -0.0379
  299MOL0     H41197  11.560  11.577   2.763  2.7887 -0.0490  2.5417
  299MOL0     H41198  11.701  11.479   2.724  2.1244  2.6303  0.6859
  299MOL0     H41199  11.626  11.729   2.559 -1.2692 -0.7160  0.9209
  299MOL0     H41200  11.729  11.722   2.701  1.6970 -1.2119  0.1427
  299MOL0     H41201  11.873  11.556   2.578  1.6300 -0.1332 -2.0670
  299MOL0     H41202  11.782  11.576   2.431 -0.7885 -0.5340  1.1506
  299MOL0     H41203  11.888  11.826   2.560 -1.3954  1.7541 -0.4602
  299MOL0     H41204  11.870  11.810   2.395 -0.1339 -0.7131  0.4450
  299MOL0     H41205  12.077  11.646   2.561  3.2270 -0.0865 -1.6039
  299MOL0     H41206  12.046  11.629   2.394 -1.2033 -1.9372  2.4818
  299MOL0     H41207  12.104  11.890   2.387 -0.1642  0.5444 -0.9310
  299MOL0     H41208  12.239  11.779   2.415 -1.0830  3.4397 -2.3897
  299MOL0     H41209  12.236  11.976   2.555 -0.4880  0.2261  1.2994
  299MOL0     H41210  12.097  11.919   2.649  0.0819 -0.8539  0.5425
  299MOL0     H41211  12.109  11.698   2.800  0.3425  0.0137  1.4172
  299MOL0     H41212  12.238  11.567   2.989 -3.4486  0.9059 -4.1512
  299MOL0     H41213  12.403  11.510   2.952  0.5133 -2.0069 -1.6055
  299MOL0     H41214  12.284  11.400   2.743 -0.0612 -2.6011 -0.0504
  299MOL0     H41215  12.317  11.309   2.897  0.0930 -0.2285  0.7387
  299MOL0     H41216  12.085  11.354   2.963  2.5358 -1.4910  0.8327
  299MOL0     H41217  12.067  11.473   2.829  0.0444  1.1702  2.2091
  299MOL0     H41218  12.125  11.278   2.668 -1.6192 -0.2020 -0.3179
  299MOL0     H41219  12.114  11.170   2.807  1.8388 -0.1282 -0.6660
  299MOL0     H41220  11.954  10.992   2.798 -2.1248 -2.9427  1.4380
  299MOL0     H41221  11.891  10.729   2.592  2.0576  1.0714  0.0572
  299MOL0     H41222  11.787  10.713   2.730  0.1893  0.1659  1.1463
  299MOL0     H41223  11.952  10.752   2.760  0.6380  0.9498 -1.5155
  299MOL0     H41224  11.740  10.779   2.182  0.4735 -1.5008  0.6708
  299MOL0     H41225  11.644  10.606   2.026  0.3189  1.7088  0.3234
  299MOL0     H41226  11.289  10.471   1.827  2.8189 -0.8965  0.2710
  299MOL0     H41227  11.209  10.530   1.967 -0.6317  2.7168 -0.3997
  299MOL0     H41228  11.347  10.752   1.862  0.0966 -0.9955  0.6036
  299MOL0     H41229  11.313  10.661   1.722  0.2805  0.9476  1.0175
  299MOL0     H41230  11.135  10.828   1.891 -1.4281  0.2679 -0.2290
  299MOL0     H41231  11.054  10.684   1.849  1.2287  0.5052  1.8390
  299MOL0     H41232  11.209  10.828   1.638  0.0987  0.6434 -0.4110
  299MOL0     H41233  11.054  10.899   1.697 -2.0183 -1.6429  1.8282
  299MOL0     H41234  10.925  10.733   1.617 -0.2692  3.0811 -0.2609
  299MOL0     H41235  11.043  10.804   1.507  2.2264 -0.8942  0.1244
  299MOL0     H41236  11.137  10.547   1.620  0.3723  2.0896  0.3393
  299MOL0     H41237  11.176  10.643   1.480 -1.1442  1.7692 -0.2758
  299MOL0     H41238  10.947  10.588   1.372  1.5580 -1.9685 -1.3260
  299MOL0     H41239  10.925  10.484   1.512 -1.0484  0.7071 -1.6021
  299MOL0     H41240  11.125  10.362   1.458 -0.9787 -1.3229 -0.1731
  299MOL0     H41241  11.142  10.445   1.305 -0.1805  0.2662  0.0341
  299MOL0     H41242  11.252  10.701   2.128  1.2882  0.2438 -2.1805
  299MOL0     H41243  11.344  10.853   2.326  2.0451 -1.5506  2.4091
  299MOL0     H41244  11.630  11.118   2.465 -2.3914 -1.9074  1.7218
  299MOL0     H41245  11.768  11.294   2.565  2.5074  0.4115  0.1395
  299MOL0     H41246  11.329  11.165   2.688 -0.2627 -0.6531  0.5472
  299MOL0     H41247  11.170  11.032   2.518  2.2200 -0.9124  3.0826
  299MOL0     H41248  10.980  10.877   2.226  5.2300  0.5428 -2.5351
  299MOL0     H41249  10.818  10.737   2.095  0.5096 -0.1636 -0.5499
  299MOL0     H41250  10.546  10.939   1.779 -0.3457 -0.8707  0.5412
  299MOL0     H41251  10.703  10.930   1.702  1.5175 -2.9553 -0.6325
  299MOL0     H41252  10.475  10.729   1.713  1.5007 -0.5534  2.0991
  299MOL0     H41253  10.639  10.670   1.683 -0.5428 -0.4889 -0.2395
  299MOL0     H41254  10.492  10.720   1.482 -0.4407 -0.8596  2.6519
  299MOL0     H41255  10.504  10.890   1.522 -0.5682 -0.3593  0.5273
  299MOL0     H41256  10.773  10.812   1.503 -0.1580 -0.6093  0.1975
  299MOL0     H41257  10.665  10.893   1.385  0.4264  1.0777  1.6538
  299MOL0     H41258  10.766  10.554   1.171 -2.7008  2.2839 -4.1979
  299MOL0     H41259  10.769  11.081   1.836  1.5412  1.9420  0.3500
  299MOL0     H41260  10.965  11.181   1.791  3.2676 -1.2362 -0.6498
  299MOL0     H41261  10.949  11.286   1.940  3.0390  0.8287 -0.3270
  299MOL0     H41262  11.094  11.185   1.915  0.5915 -0.8238 -0.8169
  300MOL0     O41263   5.860  11.104   4.686 -0.1274 -0.0808  0.2259
  300MOL0     C41264   5.773  11.062   4.612 -0.4799  0.0411  0.5506
  300MOL0     O41265   5.794  10.961   4.522  0.4929  0.3238  0.1184
  300MOL0     C41266   5.908  10.879   4.535  0.2803 -0.3276 -0.0976
  300MOL0     C41267   5.940  10.814   4.655 -0.8577  0.2557  0.0817
  300MOL0     C41268   6.066  10.753   4.671 -0.6319  0.0383  0.0863
  300MOL0     C41269   6.161  10.743   4.570  0.1371  0.0241  0.1206
  300MOL0     O41270   6.281  10.669   4.596 -0.0297 -0.0649  0.0514
  300MOL0     C41271   6.368  10.643   4.481  0.0276 -0.6948  1.0590
  300MOL0     C41272   6.482  10.578   4.542 -0.1023  0.1636 -0.4885
  300MOL0     C41273   6.593  10.569   4.436 -0.0291 -0.3770 -0.4204
  300MOL0     C41274   6.692  10.465   4.482 -0.6206 -0.0619 -0.1238
  300MOL0     C41275   6.817  10.471   4.384  0.4446  0.7053 -0.0162
  300MOL0     C41276   6.934  10.391   4.435 -1.1231  0.6238  0.4178
  300MOL0     C41277   7.052  10.396   4.344  0.0892  0.4155  0.0426
  300MOL0     C41278   7.030  10.321   4.216  0.0111 -0.5006 -0.4314
  300MOL0     N41279   7.163  10.316   4.154  0.0788  0.6329 -0.2620
  300MOL0     C41280   7.262  10.223   4.145  0.2259  0.5745 -0.1415
  300MOL0     C41281   7.339  10.270   4.045  0.4325 -1.0720 -0.8859
  300MOL0     C41282   7.458  10.204   3.989  0.1680  0.0286  0.1136
  300MOL0     C41283   7.435  10.120   3.856  0.3865 -0.8960  0.2209
  300MOL0     C41284   7.409  10.223   3.743 -0.2662 -0.0661 -0.1666
  300MOL0     C41285   7.385  10.152   3.617 -0.3916  0.4795  1.1642
  300MOL0     O41286   7.510  10.117   3.563 -0.0819  0.1755  0.0018
  300MOL0     C41287   7.491  10.075   3.434 -0.0309 -0.0785 -0.6779
  300MOL0     C41288   7.379  10.087   3.355  0.1190 -0.0384 -0.2907
  300MOL0     C41289   7.360  10.030   3.229  0.3278 -0.5006  0.4778
  300MOL0     C41290   7.236  10.064   3.141 -0.5131 -0.3697 -1.1641
  300MOL0     C41291   7.471   9.959   3.182 -1.3229  0.2884  0.0786
  300MOL0     C41292   7.474   9.890   3.049 -0.1192  0.4148  0.6180
  300MOL0     O41293   7.579   9.802   3.028  0.4507  0.0859 -0.5252
  300MOL0     C41294   7.580   9.700   2.934 -0.0493  0.4929  0.2346
  300MOL0     C41295   7.698   9.625   2.958  0.0625 -0.0095  0.3371
  300MOL0     C41296   7.730   9.516   2.881  0.3592  0.4106  0.1287
  300MOL0     C41297   7.629   9.473   2.793  0.5535  0.5461 -0.3265
  300MOL0     O41298   7.646   9.352   2.718  0.5914 -0.0963  1.1073
  300MOL0     C41299   7.605   9.236   2.788 -0.2832  0.5679  0.5181
  300MOL0     C41300   7.658   9.117   2.713 -1.1070  0.6607  0.3190
  300MOL0     C41301   7.624   8.985   2.777  0.3976  0.0236  0.1146
  300MOL0     C41302   7.671   8.871   2.697 -0.3114 -0.0687  0.2982
  300MOL0     C41303   7.660   8.752   2.788 -0.7822  0.7248  0.7670
  300MOL0     C41304   7.738   8.635   2.728  0.9149 -0.0358 -0.6403
  300MOL0     C41305   7.718   8.507   2.805  0.4891  0.5038 -0.6565
  300MOL0     C41306   7.835   8.410   2.778 -0.4787  0.4591  0.1963
  300MOL0    Cl41307   7.802   8.250   2.850 -0.2782  0.0541 -0.3034
  300MOL0     C41308   7.515   9.553   2.772 -0.8338 -0.2623  0.7098
  300MOL0     C41309   7.490   9.670   2.832 -0.1595 -0.2529 -0.1314
  300MOL0     O41310   7.386   9.911   2.965  0.0631 -0.3811 -0.1769
  300MOL0     C41311   7.587   9.944   3.259 -0.9303  0.6645 -0.2379
  300MOL0     C41312   7.601  10.012   3.379  0.2190  1.3114  0.5994
  300MOL0     N41313   7.294  10.388   3.997 -0.1004 -0.1592  0.3110
  300MOL0     N41314   7.193  10.411   4.068  1.0586  0.2963  0.3878
  300MOL0     C41315   6.120  10.808   4.453  0.0959  0.2010 -0.0697
  300MOL0     C41316   6.000  10.867   4.434 -0.0600 -0.0895 -0.5110
  300MOL0     C41317   5.648  11.134   4.608 -0.5101  0.8212 -0.0634
  300MOL0     C41318   5.570  11.125   4.497  0.2301  0.1032 -0.7251
  300MOL0     C41319   5.440  11.163   4.496 -0.3334  0.7047  0.4016
  300MOL0     C41320   5.390  11.251   4.586  0.0999 -0.4120 -0.3406
  300MOL0     O41321   5.270  11.324   4.580  0.6043 -0.4585 -0.0892
  300MOL0     C41322   5.187  11.285   4.475  0.4055  0.0509  1.3328
  300MOL0     C41323   5.034  11.334   4.480  0.5291  0.1626 -0.3317
  300MOL0     C41324   5.025  11.472   4.431 -0.2834  0.0793 -0.3267
  300MOL0     C41325   4.886  11.521   4.424  0.3549 -0.8279  0.4823
  300MOL0     C41326   4.871  11.662   4.398 -0.3239  0.2605 -0.6842
  300MOL0     C41327   4.855  11.777   4.379 -0.7458  0.1577  0.1051
  300MOL0     C41328   5.471  11.268   4.697 -0.2259 -0.8994 -0.8101
  300MOL0     C41329   5.593  11.200   4.719 -0.3413  0.3163  1.4092
  300MOL0     C41330   5.656  11.183   4.854 -0.3332 -0.4173 -0.6804
  300MOL0     H41331   5.862  10.821   4.731  0.4237  3.0109  1.3121
  300MOL0     H41332   6.088  10.713   4.769 -0.9090  3.7417  1.8348
  300MOL0     H41333   6.382  10.731   4.418 -2.2664 -1.6574 -0.9759
  300MOL0     H41334   6.308  10.570   4.426 -1.2876  0.5144  0.8274
  300MOL0     H41335   6.510  10.633   4.633  0.4209 -1.3060  0.2757
  300MOL0     H41336   6.454  10.481   4.585 -2.9407  1.7228  1.4375
  300MOL0     H41337   6.561  10.538   4.336 -0.0890 -4.1703  0.6138
  300MOL0     H41338   6.638  10.669   4.435 -0.1146 -0.3391 -0.4279
  300MOL0     H41339   6.729  10.494   4.581 -0.8260  2.1340 -0.6364
  300MOL0     H41340   6.649  10.365   4.488  1.2368 -0.9272 -0.5880
  300MOL0     H41341   6.829  10.579   4.367 -4.7086  1.2418 -2.1542
  300MOL0     H41342   6.792  10.428   4.286 -1.6413 -1.5259  1.3940
  300MOL0     H41343   6.958  10.434   4.533  0.6843 -0.1812  0.3639
  300MOL0     H41344   6.899  10.288   4.449 -0.6835 -0.1394 -3.2023
  300MOL0     H41345   7.120  10.342   4.409 -1.4427 -0.7585  0.7404
  300MOL0     H41346   7.076  10.499   4.315 -0.0844  0.3631 -0.2868
  300MOL0     H41347   6.991  10.220   4.230  2.2968 -1.2276  1.4954
  300MOL0     H41348   6.967  10.370   4.142 -1.0783 -3.1079 -1.3451
  300MOL0     H41349   7.275  10.134   4.206 -0.4131  0.1657 -0.5868
  300MOL0     H41350   7.489  10.136   4.069  1.9090  1.0193  0.3255
  300MOL0     H41351   7.535  10.279   3.969 -0.0626 -0.6190 -4.0750
  300MOL0     H41352   7.524  10.064   3.823  1.7485  0.8802  0.7019
  300MOL0     H41353   7.351  10.051   3.868  0.7645 -1.7838 -1.8048
  300MOL0     H41354   7.325  10.291   3.761 -1.6442 -1.2547 -1.8515
  300MOL0     H41355   7.499  10.283   3.727 -2.3861  3.1092 -1.2646
  300MOL0     H41356   7.326  10.060   3.623  0.7827 -0.4683 -0.7356
  300MOL0     H41357   7.327  10.223   3.557 -1.0616 -1.5214 -0.6979
  300MOL0     H41358   7.278  10.112   3.387  0.8741 -0.2010  2.4685
  300MOL0     H41359   7.162  10.118   3.201 -1.8456  0.5320 -3.4989
  300MOL0     H41360   7.191   9.971   3.105 -2.4268 -1.2368  2.8898
  300MOL0     H41361   7.267  10.137   3.065  5.0083  1.5717  2.2915
  300MOL0     H41362   7.770   9.669   3.026 -2.0792 -0.9412  3.4294
  300MOL0     H41363   7.822   9.458   2.887 -0.5006 -1.4026 -2.3957
  300MOL0     H41364   7.657   9.235   2.885  0.5910 -0.6993  0.0705
  300MOL0     H41365   7.496   9.241   2.792 -0.3731  4.5072 -1.8918
  300MOL0     H41366   7.610   9.119   2.615  0.0841 -0.1122 -0.3056
  300MOL0     H41367   7.767   9.125   2.703 -0.9639  3.2180  2.7210
  300MOL0     H41368   7.515   8.990   2.778  0.3552 -0.7554  0.6805
  300MOL0     H41369   7.672   8.977   2.875  1.2922 -0.7377 -0.3590
  300MOL0     H41370   7.772   8.885   2.657 -0.4731  2.0771  0.5019
  300MOL0     H41371   7.595   8.846   2.622 -2.1525 -0.7282  2.3118
  300MOL0     H41372   7.698   8.772   2.889 -2.3977 -0.4284  1.6582
  300MOL0     H41373   7.554   8.722   2.788 -0.4719 -1.0208 -3.4375
  300MOL0     H41374   7.843   8.660   2.707  1.8898 -0.6411  2.8783
  300MOL0     H41375   7.704   8.618   2.626  0.2051 -1.4545 -0.1967
  300MOL0     H41376   7.626   8.461   2.770  0.5177 -0.2854  0.2474
  300MOL0     H41377   7.705   8.528   2.912  0.8751  2.1074 -0.9050
  300MOL0     H41378   7.931   8.442   2.821  1.5007 -4.0543 -0.2617
  300MOL0     H41379   7.860   8.402   2.671 -1.5293 -3.7267  0.1053
  300MOL0     H41380   7.441   9.525   2.698 -2.9204  1.2977  2.1159
  300MOL0     H41381   7.413   9.740   2.802  1.1197  1.3347  0.1815
  300MOL0     H41382   7.673   9.886   3.225 -0.4903  2.0888 -1.6631
  300MOL0     H41383   7.697   9.997   3.427 -0.2398 -1.9774  0.6764
  300MOL0     H41384   6.190  10.813   4.370  2.3515  1.0520  1.7745
  300MOL0     H41385   5.953  10.909   4.345  0.5599  2.9804  0.4758
  300MOL0     H41386   5.607  11.074   4.408  0.7187 -0.2387 -0.3340
  300MOL0     H41387   5.387  11.140   4.404  1.2503  0.8039 -0.5827
  300MOL0     H41388   5.224  11.314   4.377 -0.4138  0.3693  1.1114
  300MOL0     H41389   5.184  11.175   4.478  0.8806  0.0029  0.2122
  300MOL0     H41390   5.002  11.341   4.585  0.2726  0.8363 -0.4461
  300MOL0     H41391   4.974  11.272   4.412 -1.5325  1.1153  0.5128
  300MOL0     H41392   5.089  11.528   4.500 -2.0089  0.1968  1.2535
  300MOL0     H41393   5.072  11.492   4.334  1.7248  2.4583  0.9977
  300MOL0     H41394   4.856  11.498   4.526  3.1759 -2.7284  0.9987
  300MOL0     H41395   4.825  11.457   4.359  0.3103 -1.3514  1.0291
  300MOL0     H41396   4.856  11.884   4.370 -0.2673  0.4447  2.6518
  300MOL0     H41397   5.430  11.317   4.785 -0.7261  1.0186 -2.0414
  300MOL0     H41398   5.587  11.195   4.938  2.5551  0.7718  1.7175
  300MOL0     H41399   5.671  11.075   4.853  1.9179 -0.1707 -2.6295
  300MOL0     H41400   5.743  11.248   4.871 -0.7281 -0.2952  1.0254
  301MOL0     O41401   9.350   2.327   9.865 -1.3045  0.5852 -0.2028
  301MOL0     C41402   9.351   2.243   9.779  0.2304 -0.2667  0.2192
  301MOL0     O41403   9.457   2.158   9.748  0.4879 -0.3229  1.2472
  301MOL0     C41404   9.577   2.171   9.830  0.6766 -0.0659 -0.4994
  301MOL0     C41405   9.687   2.251   9.785 -0.1009  0.4986  0.1403
  301MOL0     C41406   9.795   2.278   9.866  0.0666 -0.7109  0.5422
  301MOL0     C41407   9.807   2.224   9.994 -0.0069  0.4395  0.5661
  301MOL0     O41408   9.926   2.251  10.069 -0.0618 -0.0984  0.0064
  301MOL0     C41409  10.043   2.240  10.008  0.6929 -0.7375  0.1036
  301MOL0     C41410  10.161   2.222  10.102 -0.0636 -0.1827 -0.9180
  301MOL0     C41411  10.182   2.324  10.222  0.3870 -0.0810  0.2164
  301MOL0     C41412  10.197   2.472  10.178  0.0268 -0.2372  0.3367
  301MOL0     C41413  10.258   2.555  10.291 -0.3105 -1.3985  0.0060
  301MOL0     C41414  10.410   2.543  10.284  0.3190  0.4546 -0.1296
  301MOL0     C41415  10.471   2.586  10.416  0.1383 -0.1192  0.5974
  301MOL0     C41416  10.622   2.604  10.394  0.2905 -0.3454 -0.4738
  301MOL0     N41417  10.688   2.479  10.358 -0.1356 -0.9670  0.0194
  301MOL0     C41418  10.705   2.427  10.230 -0.2149 -0.2561 -1.0504
  301MOL0     C41419  10.769   2.310  10.255  0.1935 -0.1832  0.6855
  301MOL0     C41420  10.795   2.199  10.155  0.7879  0.9505  0.3425
  301MOL0     C41421  10.896   2.252  10.050  0.4021  0.3734 -0.5651
  301MOL0     C41422  10.910   2.161   9.930 -0.5826 -0.5103  0.6663
  301MOL0     C41423  11.022   2.200   9.836  0.3083 -1.0738  0.4489
  301MOL0     O41424  11.146   2.171   9.895  0.6843 -0.1555  0.0237
  301MOL0     C41425  11.265   2.235   9.854  0.9339  0.0698 -0.2081
  301MOL0     C41426  11.276   2.305   9.734 -0.0265 -0.6342  0.5784
  301MOL0     C41427  11.379   2.387   9.698  0.0215 -0.1705 -0.7239
  301MOL0     C41428  11.359   2.469   9.572  0.2046  0.2160 -0.3762
  301MOL0     C41429  11.490   2.389   9.784 -0.2679 -0.6309 -0.1463
  301MOL0     C41430  11.608   2.477   9.763 -0.1187  0.3905 -0.7330
  301MOL0     O41431  11.632   2.512   9.638  0.4472 -0.2490 -0.5939
  301MOL0     C41432  11.711   2.621   9.607 -0.1941  0.1678  0.4031
  301MOL0     C41433  11.840   2.638   9.638  0.4727 -0.3574  1.1143
  301MOL0     C41434  11.904   2.761   9.613  0.1287 -0.5285 -0.2955
  301MOL0     C41435  11.845   2.857   9.533  0.2267 -0.2110  0.8538
  301MOL0     O41436  11.896   2.979   9.497 -0.4165 -0.3311  0.2833
  301MOL0     C41437  12.031   3.005   9.536 -0.7277  0.4097  0.0039
  301MOL0     C41438  12.072   3.135   9.481  0.2102 -0.0011  0.3712
  301MOL0     C41439  12.220   3.178   9.503  0.7440 -0.5563  0.5036
  301MOL0     C41440  12.312   3.101   9.402 -0.1339 -0.2279  0.5158
  301MOL0     C41441  12.452   3.167   9.394  0.2286  0.1701  0.0373
  301MOL0     C41442  12.474   3.244   9.271  0.0433  0.8885 -0.4825
  301MOL0     C41443  12.579   3.347   9.263 -0.4577 -0.4721  0.3053
  301MOL0     C41444  12.603   3.375   9.115 -0.2376 -0.1884  0.1529
  301MOL0    Cl41445  12.738   3.496   9.093  0.1052  0.0173 -0.1025
  301MOL0     C41446  11.718   2.823   9.475  0.3835 -0.1631 -0.2732
  301MOL0     C41447  11.646   2.716   9.520  0.0407 -0.3120  0.4054
  301MOL0     O41448  11.682   2.498   9.861  0.3688  0.4011 -0.5906
  301MOL0     C41449  11.481   2.313   9.908  0.8850 -0.0674  0.2830
  301MOL0     C41450  11.372   2.236   9.936 -0.1216 -0.5124 -0.3873
  301MOL0     N41451  10.785   2.297  10.386  0.4239  0.4107  0.2466
  301MOL0     N41452  10.745   2.401  10.448 -0.3100 -0.4195  0.1035
  301MOL0     C41453   9.702   2.144  10.037 -0.1811 -0.4807 -1.0783
  301MOL0     C41454   9.590   2.122   9.961  0.9617  0.3825 -0.6596
  301MOL0     C41455   9.238   2.238   9.687 -0.1382  0.1161 -0.3493
  301MOL0     C41456   9.256   2.151   9.575 -0.1465 -0.0438 -0.7076
  301MOL0     C41457   9.147   2.126   9.486 -0.8027  0.3623 -0.7911
  301MOL0     C41458   9.031   2.199   9.485 -0.3638  0.5310  0.5420
  301MOL0     O41459   8.929   2.182   9.397  0.1775 -0.4404  0.1730
  301MOL0     C41460   8.944   2.084   9.285  0.1050 -0.3618  0.6106
  301MOL0     C41461   8.814   2.061   9.214 -0.3591  0.3187  0.0959
  301MOL0     C41462   8.841   1.966   9.094 -0.0033  0.0522  0.3328
  301MOL0     C41463   8.716   1.928   9.014  0.3995 -0.0062  0.5347
  301MOL0     C41464   8.738   1.825   8.912 -0.7724  0.4694  0.0915
  301MOL0     C41465   8.764   1.756   8.814  0.2444  0.0839 -0.0988
  301MOL0     C41466   9.011   2.278   9.599  1.0397 -0.5185  0.4593
  301MOL0     C41467   9.112   2.303   9.697  0.0616 -0.4162  0.1589
  301MOL0     C41468   9.065   2.387   9.825 -0.3594 -0.2806 -0.7925
  301MOL0     H41469   9.690   2.288   9.683 -1.2558  1.1425  0.3257
  301MOL0     H41470   9.877   2.333   9.822 -0.8004 -0.9300 -1.4531
  301MOL0     H41471  10.058   2.340   9.966  0.5228 -0.2108  1.2653
  301MOL0     H41472  10.053   2.164   9.930  2.5859 -2.1728  1.6455
  301MOL0     H41473  10.149   2.122  10.143 -0.6192  0.9428  1.8554
  301MOL0     H41474  10.255   2.222  10.046  0.1182 -0.7290 -0.6143
  301MOL0     H41475  10.101   2.312  10.294 -2.1537 -1.9499 -2.7142
  301MOL0     H41476  10.274   2.292  10.272 -0.3220  0.0331  1.6317
  301MOL0     H41477  10.255   2.497  10.090  1.4405 -1.2967  0.9298
  301MOL0     H41478  10.096   2.512  10.164 -0.2294  0.0627  2.5940
  301MOL0     H41479  10.226   2.523  10.391  2.3388  0.1022  1.4559
  301MOL0     H41480  10.226   2.658  10.272 -0.3160 -1.8691 -3.0947
  301MOL0     H41481  10.437   2.437  10.277 -1.0134  0.1909 -1.7455
  301MOL0     H41482  10.452   2.600  10.201  2.1692  2.7819  2.2284
  301MOL0     H41483  10.451   2.509  10.491 -2.5295  1.7943  1.9960
  301MOL0     H41484  10.430   2.676  10.462 -1.7986 -1.5528  1.8101
  301MOL0     H41485  10.652   2.680  10.322 -0.9363 -1.3595 -2.1260
  301MOL0     H41486  10.670   2.636  10.487  1.5412 -0.4638 -1.0589
  301MOL0     H41487  10.686   2.468  10.131  0.2609 -0.6858 -1.3218
  301MOL0     H41488  10.697   2.170  10.114  1.6623 -3.5681  0.8996
  301MOL0     H41489  10.835   2.110  10.205  0.5245  1.2080  1.0219
  301MOL0     H41490  10.871   2.351  10.012  0.4073 -0.3070 -2.4339
  301MOL0     H41491  10.999   2.258  10.086  0.4247 -1.6743 -0.1347
  301MOL0     H41492  10.950   2.069   9.974  2.7336 -0.5590 -1.9964
  301MOL0     H41493  10.817   2.148   9.874  0.4859 -0.4294 -1.2062
  301MOL0     H41494  11.015   2.131   9.751 -2.1575 -1.1066  0.6019
  301MOL0     H41495  11.013   2.307   9.816  0.2932 -1.2241 -0.3992
  301MOL0     H41496  11.194   2.315   9.664  0.7601  1.4814 -0.1295
  301MOL0     H41497  11.453   2.487   9.519  2.9094 -0.7559  3.6761
  301MOL0     H41498  11.305   2.562   9.593  0.0964 -0.2286  1.4845
  301MOL0     H41499  11.300   2.417   9.496  1.4102 -0.2469 -1.0177
  301MOL0     H41500  11.886   2.556   9.693  1.1523  0.1478  1.3087
  301MOL0     H41501  11.999   2.783   9.659 -0.6730 -0.3161  1.3503
  301MOL0     H41502  12.033   3.024   9.643  0.9778  0.5138 -0.0122
  301MOL0     H41503  12.102   2.926   9.508  1.5752  1.8410  1.4262
  301MOL0     H41504  12.036   3.144   9.377  0.3688 -2.3093  0.0694
  301MOL0     H41505  12.021   3.222   9.525  0.4915  0.3586 -0.0020
  301MOL0     H41506  12.251   3.155   9.606 -2.6198  1.3434  2.1049
  301MOL0     H41507  12.230   3.284   9.479 -1.0992 -0.3748  0.4413
  301MOL0     H41508  12.259   3.114   9.307 -1.4009 -2.5435  0.8247
  301MOL0     H41509  12.319   2.997   9.435 -0.0829 -0.6361 -0.7164
  301MOL0     H41510  12.472   3.234   9.478  0.2584 -1.2285  1.1939
  301MOL0     H41511  12.532   3.092   9.387  1.3802  1.4346 -0.6299
  301MOL0     H41512  12.378   3.297   9.269 -1.0437 -0.9412 -2.3706
  301MOL0     H41513  12.475   3.173   9.187 -1.4390  0.2973 -0.0416
  301MOL0     H41514  12.679   3.315   9.292  0.3734  1.2804 -0.4595
  301MOL0     H41515  12.557   3.442   9.313  0.3516 -0.4286  0.6016
  301MOL0     H41516  12.515   3.418   9.066 -1.1764 -1.9377  0.2457
  301MOL0     H41517  12.627   3.281   9.064  0.4222  0.7015 -1.2601
  301MOL0     H41518  11.676   2.887   9.398 -0.7535 -0.6219 -0.0535
  301MOL0     H41519  11.548   2.703   9.475  1.2723 -2.9923 -1.7882
  301MOL0     H41520  11.560   2.304   9.982  0.1587 -3.1346  0.8052
  301MOL0     H41521  11.374   2.185  10.033  2.6858  2.8843  1.5861
  301MOL0     H41522   9.715   2.114  10.141 -2.6461  0.1371 -0.5245
  301MOL0     H41523   9.503   2.071  10.001  0.3905  3.1062  1.9363
  301MOL0     H41524   9.346   2.091   9.566  0.4047  0.2569  1.8818
  301MOL0     H41525   9.165   2.048   9.412 -0.2608  0.4903 -0.7977
  301MOL0     H41526   9.021   2.119   9.215  0.1564 -2.0981 -0.2638
  301MOL0     H41527   8.974   1.995   9.341  0.5222 -2.0141 -2.0416
  301MOL0     H41528   8.782   2.160   9.180  2.1056  0.5922 -1.7381
  301MOL0     H41529   8.750   2.009   9.286  0.7527  1.5619  2.0689
  301MOL0     H41530   8.915   2.017   9.031  1.5965 -0.5918  1.6153
  301MOL0     H41531   8.890   1.879   9.138 -1.4524 -0.5985  0.7304
  301MOL0     H41532   8.683   2.017   8.960 -2.6261  0.7539  3.2848
  301MOL0     H41533   8.637   1.893   9.081 -0.9679  0.7356 -0.6227
  301MOL0     H41534   8.805   1.680   8.751  3.0106  0.4216  1.1642
  301MOL0     H41535   8.912   2.317   9.618 -0.4901 -3.5408 -0.6334
  301MOL0     H41536   9.066   2.493   9.796 -0.5352  0.1216  0.6052
  301MOL0     H41537   8.959   2.383   9.853 -0.2669  0.3091 -0.3292
  301MOL0     H41538   9.131   2.368   9.910  0.3664 -3.3745 -1.9143
  302MOL0     O41539   2.560  10.417  11.209  0.2398  0.0337  0.4149
  302MOL0     C41540   2.581  10.334  11.113 -0.9052 -0.3769 -0.4934
  302MOL0     O41541   2.550  10.202  11.113  0.1815  0.2777  0.2926
  302MOL0     C41542   2.515  10.138  11.227  0.4370 -0.1360 -0.5834
  302MOL0     C41543   2.417  10.175  11.325 -0.4866  0.4197 -0.6659
  302MOL0     C41544   2.386  10.089  11.433 -0.0541 -0.3634 -0.0347
  302MOL0     C41545   2.454   9.967  11.457  0.6161  0.7143  0.0768
  302MOL0     O41546   2.421   9.895  11.566  0.0882  0.4294 -0.1404
  302MOL0     C41547   2.502   9.773  11.592  0.4314 -0.1935 -0.6806
  302MOL0     C41548   2.448   9.677  11.705  0.4467  0.5852  0.2392
  302MOL0     C41549   2.550   9.559  11.727  0.5397  0.5633  0.3739
  302MOL0     C41550   2.536   9.442  11.627 -1.5451  0.1324  0.8408
  302MOL0     C41551   2.632   9.324  11.655  0.9700 -0.1855  0.5353
  302MOL0     C41552   2.613   9.223  11.544 -0.4961  0.1853  0.6261
  302MOL0     C41553   2.700   9.100  11.569  0.7887 -1.3878 -0.0458
  302MOL0     C41554   2.659   8.982  11.485 -0.2601  0.1455  0.4018
  302MOL0     N41555   2.720   8.853  11.517 -0.7083 -0.3313  0.5897
  302MOL0     C41556   2.774   8.803  11.635 -0.5978 -1.1222 -0.0852
  302MOL0     C41557   2.811   8.678  11.611 -0.2843 -0.1453 -0.3658
  302MOL0     C41558   2.844   8.575  11.720 -0.0158 -0.5126  0.1862
  302MOL0     C41559   2.989   8.540  11.732  0.4441 -0.3677 -1.5776
  302MOL0     C41560   3.004   8.447  11.856  0.6143 -0.0349  1.3509
  302MOL0     C41561   3.140   8.478  11.926  1.0038  0.3731  1.1167
  302MOL0     O41562   3.255   8.462  11.840 -0.1891 -0.4517  0.1991
  302MOL0     C41563   3.369   8.519  11.885 -0.1577  0.7886  0.4126
  302MOL0     C41564   3.395   8.578  12.014 -0.0186  0.8978 -0.1080
  302MOL0     C41565   3.521   8.617  12.057 -0.1989  0.0592 -0.7138
  302MOL0     C41566   3.535   8.675  12.202  0.2852  0.6196  1.1358
  302MOL0     C41567   3.627   8.608  11.963 -0.3643 -0.3101  0.0285
  302MOL0     C41568   3.768   8.632  12.001 -0.2069  0.9018  0.0738
  302MOL0     O41569   3.860   8.594  11.909 -0.3100  0.0583  0.1958
  302MOL0     C41570   3.988   8.619  11.932 -0.5549  0.1204 -0.6500
  302MOL0     C41571   4.070   8.535  12.006  0.3493 -0.5895  0.1491
  302MOL0     C41572   4.206   8.557  12.032 -0.0349 -1.0167 -0.6205
  302MOL0     C41573   4.268   8.677  11.982 -0.3000 -0.2855  0.0266
  302MOL0     O41574   4.401   8.697  12.017  0.3497 -0.1502  0.0287
  302MOL0     C41575   4.471   8.822  11.994  1.1396 -1.0286 -0.2546
  302MOL0     C41576   4.593   8.841  12.081 -0.2746 -0.5063 -0.2484
  302MOL0     C41577   4.691   8.960  12.046  0.4522  0.5371 -0.0537
  302MOL0     C41578   4.721   8.975  11.898 -0.2186 -0.6479  0.4159
  302MOL0     C41579   4.779   8.851  11.819  0.3643 -0.6065 -0.6277
  302MOL0     C41580   4.921   8.818  11.875 -0.3360 -0.5706  0.5402
  302MOL0     C41581   5.033   8.849  11.776  0.6010 -0.2352  0.3051
  302MOL0     C41582   5.006   8.815  11.626  0.5067  0.1239 -0.7066
  302MOL0    Cl41583   5.177   8.796  11.544 -0.6673 -0.2825  0.0264
  302MOL0     C41584   4.199   8.749  11.889 -0.4138 -0.3235  0.3511
  302MOL0     C41585   4.055   8.724  11.863 -0.6517  1.3351 -0.1015
  302MOL0     O41586   3.791   8.699  12.101  0.6001  0.5021 -1.1217
  302MOL0     C41587   3.594   8.566  11.833 -0.5193 -0.8262 -0.0552
  302MOL0     C41588   3.467   8.512  11.800 -0.7952 -0.3789 -0.0781
  302MOL0     N41589   2.792   8.649  11.481  0.7361 -0.6384 -0.1783
  302MOL0     N41590   2.736   8.751  11.426  0.3142 -0.1498  0.7017
  302MOL0     C41591   2.553   9.933  11.361 -1.0488  0.3551 -0.5341
  302MOL0     C41592   2.580  10.021  11.251  0.0343  0.2444 -0.5478
  302MOL0     C41593   2.676  10.374  11.006  0.0705  0.1175 -0.0877
  302MOL0     C41594   2.686  10.297  10.889 -0.1038 -0.2816 -0.9080
  302MOL0     C41595   2.780  10.327  10.784  0.1761  0.2152 -0.1620
  302MOL0     C41596   2.859  10.441  10.791  0.0473  0.3596 -0.5371
  302MOL0     O41597   2.926  10.465  10.674 -0.5156  0.2832 -0.5021
  302MOL0     C41598   2.998  10.593  10.661  0.1890  0.1500 -0.0648
  302MOL0     C41599   3.138  10.570  10.718  0.0172  0.3008 -0.7138
  302MOL0     C41600   3.228  10.678  10.658  0.4528 -0.0651 -0.2409
  302MOL0     C41601   3.380  10.640  10.677  0.9276  0.1476  0.6726
  302MOL0     C41602   3.462  10.763  10.682  1.1683 -0.5279 -0.5454
  302MOL0     C41603   3.524  10.868  10.698 -0.7183  0.0586 -0.3341
  302MOL0     C41604   2.853  10.521  10.909  0.6062 -0.3653  0.4559
  302MOL0     C41605   2.768  10.492  11.016 -0.1574  0.3802  0.3441
  302MOL0     C41606   2.761  10.589  11.130  0.6483 -0.3699  0.3992
  302MOL0     H41607   2.383  10.277  11.317 -0.8384  0.5466  1.7474
  302MOL0     H41608   2.306  10.136  11.489 -0.4659  1.1790 -1.8084
  302MOL0     H41609   2.600   9.798  11.632 -0.4047 -0.7385  1.8937
  302MOL0     H41610   2.514   9.719  11.498  1.9469 -0.3909 -0.3974
  302MOL0     H41611   2.426   9.737  11.794  0.5937  0.0438  0.6442
  302MOL0     H41612   2.349   9.633  11.687 -0.3496  2.2297  0.4248
  302MOL0     H41613   2.652   9.599  11.734  1.2179 -1.0114 -0.0868
  302MOL0     H41614   2.530   9.522  11.828  2.7568 -2.4078 -0.1380
  302MOL0     H41615   2.433   9.406  11.639 -1.8182  0.4505 -0.4140
  302MOL0     H41616   2.544   9.479  11.524 -1.2730  0.0503  0.8314
  302MOL0     H41617   2.614   9.287  11.756  0.9921 -1.3771  0.1290
  302MOL0     H41618   2.738   9.350  11.657  1.0706 -0.5797  2.2860
  302MOL0     H41619   2.506   9.198  11.540 -1.3345  2.9247  2.8321
  302MOL0     H41620   2.659   9.263  11.453  1.7455  0.0144  1.6260
  302MOL0     H41621   2.703   9.061  11.671  0.7183 -0.9918  0.1090
  302MOL0     H41622   2.804   9.128  11.550  0.6037 -0.1535  0.6582
  302MOL0     H41623   2.554   8.958  11.499  0.3980 -1.9706  2.2978
  302MOL0     H41624   2.678   9.003  11.379  0.8776 -0.3218  0.4923
  302MOL0     H41625   2.780   8.852  11.732 -2.2597 -0.0353 -0.4915
  302MOL0     H41626   2.795   8.479  11.703  0.2839 -0.2829 -2.2666
  302MOL0     H41627   2.804   8.618  11.813  1.4548  1.8920 -0.2110
  302MOL0     H41628   3.025   8.486  11.645 -0.5883 -2.4939 -0.7613
  302MOL0     H41629   3.040   8.637  11.737  0.0065 -0.1751 -0.5115
  302MOL0     H41630   2.923   8.456  11.929 -1.6088  1.9130 -1.1227
  302MOL0     H41631   3.003   8.343  11.823 -2.8550  0.2321  0.1393
  302MOL0     H41632   3.126   8.584  11.950  1.5509  0.9016 -0.7006
  302MOL0     H41633   3.150   8.415  12.015  3.3106 -0.1704  0.5342
  302MOL0     H41634   3.317   8.590  12.089  0.4285  0.6158  0.4126
  302MOL0     H41635   3.437   8.670  12.250 -0.1142 -0.5475  0.2559
  302MOL0     H41636   3.568   8.779  12.191 -0.8518  0.7829 -1.4023
  302MOL0     H41637   3.597   8.620  12.273 -1.4198  0.4882  2.5948
  302MOL0     H41638   4.032   8.450  12.062  2.4708 -1.7960 -0.0972
  302MOL0     H41639   4.276   8.498  12.090  0.2306 -1.3146 -1.2293
  302MOL0     H41640   4.502   8.816  11.889  1.6347  2.8665 -0.5071
  302MOL0     H41641   4.402   8.906  12.010  3.6050  1.1814 -0.3751
  302MOL0     H41642   4.558   8.866  12.182 -2.5485 -1.4918 -0.7338
  302MOL0     H41643   4.644   8.745  12.100 -0.1418 -0.1330  1.5004
  302MOL0     H41644   4.787   8.924  12.084  0.6213  0.0658 -0.8986
  302MOL0     H41645   4.662   9.047  12.105 -0.0897  0.0651  0.3912
  302MOL0     H41646   4.804   9.046  11.901 -0.6585 -0.1659  2.4699
  302MOL0     H41647   4.633   9.021  11.853  0.5913  0.0113 -0.5168
  302MOL0     H41648   4.706   8.771  11.831 -2.0931  1.6597  0.5360
  302MOL0     H41649   4.784   8.866  11.711 -0.4897  0.5148 -0.5305
  302MOL0     H41650   4.935   8.712  11.901  0.8032 -0.7627 -0.7658
  302MOL0     H41651   4.942   8.882  11.961 -0.2977  2.2529 -1.4491
  302MOL0     H41652   5.120   8.793  11.813  0.5350 -1.1403 -0.8710
  302MOL0     H41653   5.054   8.956  11.782  0.1513  0.0780 -2.6472
  302MOL0     H41654   4.938   8.882  11.572  0.2816  0.5528  0.0821
  302MOL0     H41655   4.972   8.712  11.634 -0.2251  0.4713  1.4294
  302MOL0     H41656   4.251   8.833  11.844 -0.5677 -1.3295 -1.8631
  302MOL0     H41657   4.003   8.808  11.819 -2.8350  0.3954  0.5853
  302MOL0     H41658   3.677   8.542  11.766  0.3808 -0.9279  1.0620
  302MOL0     H41659   3.452   8.455  11.708 -1.6659 -1.9857  1.0110
  302MOL0     H41660   2.633   9.860  11.370 -0.5627  1.1637  3.5289
  302MOL0     H41661   2.651   9.977  11.181 -1.1543  1.1590 -2.3886
  302MOL0     H41662   2.625  10.208  10.878  0.0580 -0.7264  1.2607
  302MOL0     H41663   2.787  10.261  10.699  0.1153 -0.8954  0.6718
  302MOL0     H41664   2.998  10.623  10.556 -1.2976  0.0363 -0.1158
  302MOL0     H41665   2.945  10.669  10.720 -0.8370 -0.0466 -0.7262
  302MOL0     H41666   3.169  10.470  10.688  3.0043 -0.5175  3.9716
  302MOL0     H41667   3.133  10.576  10.827  0.2836  0.5606 -0.7152
  302MOL0     H41668   3.220  10.683  10.549  1.0411 -2.6521 -0.4715
  302MOL0     H41669   3.191  10.770  10.704 -1.6039 -0.7703 -0.3470
  302MOL0     H41670   3.412  10.580  10.592 -1.7948  0.5860 -0.7798
  302MOL0     H41671   3.390  10.593  10.776 -2.6406  2.1848  2.1928
  302MOL0     H41672   3.587  10.952  10.720 -1.1530 -0.2180  2.2883
  302MOL0     H41673   2.896  10.620  10.906 -0.6734  0.2773  1.9263
  302MOL0     H41674   2.656  10.612  11.148  0.6398  1.0978 -1.2347
  302MOL0     H41675   2.809  10.544  11.218  0.3817 -4.1499 -1.1899
  302MOL0     H41676   2.821  10.675  11.099  1.3918 -1.4677 -1.4062
  303MOL0     O41677   7.343   4.591   3.263  0.3760 -0.6432 -0.8008
  303MOL0     C41678   7.286   4.577   3.372  0.1391  0.7003  0.3771
  303MOL0     O41679   7.338   4.503   3.471 -0.0736  0.4588 -0.6077
  303MOL0     C41680   7.452   4.434   3.442  0.0206  0.4049 -0.1964
  303MOL0     C41681   7.556   4.457   3.530 -0.1630  0.1296  0.1738
  303MOL0     C41682   7.679   4.384   3.519 -0.1346 -0.6348  0.0127
  303MOL0     C41683   7.695   4.291   3.413 -0.0773 -0.2451 -0.4902
  303MOL0     O41684   7.807   4.219   3.386  0.1906  0.2934 -0.1521
  303MOL0     C41685   7.916   4.220   3.476  0.1846  0.0827 -0.5090
  303MOL0     C41686   8.017   4.117   3.439  0.5274  0.0921 -0.1260
  303MOL0     C41687   7.956   3.974   3.458  0.3493 -0.7039  0.5491
  303MOL0     C41688   8.063   3.869   3.469 -0.6387  0.3257  0.1796
  303MOL0     C41689   8.100   3.829   3.616 -0.2072 -0.5621  0.1916
  303MOL0     C41690   8.147   3.679   3.631  0.4629  0.3440 -0.3228
  303MOL0     C41691   8.252   3.633   3.527 -0.2258 -1.2612  0.5833
  303MOL0     C41692   8.289   3.487   3.557 -0.3461  0.6228  0.1605
  303MOL0     N41693   8.412   3.473   3.632  0.0885  0.2855  0.1719
  303MOL0     C41694   8.536   3.522   3.592  0.5158  0.1427 -0.1302
  303MOL0     C41695   8.620   3.482   3.684 -0.0937  0.4213 -0.2470
  303MOL0     C41696   8.766   3.495   3.667  1.2047  0.0072 -0.6102
  303MOL0     C41697   8.815   3.627   3.729  0.9923  1.1679 -0.8315
  303MOL0     C41698   8.962   3.647   3.733  0.3781  0.1749 -1.1672
  303MOL0     C41699   9.034   3.617   3.605 -0.1589  0.0311  0.9088
  303MOL0     O41700   9.078   3.484   3.592  0.4474 -0.2701  0.5276
  303MOL0     C41701   9.206   3.440   3.643  0.0425  0.2348  0.2312
  303MOL0     C41702   9.251   3.316   3.606  0.0048  0.3775 -0.1735
  303MOL0     C41703   9.358   3.251   3.670 -0.1702 -0.1733  0.3299
  303MOL0     C41704   9.387   3.109   3.633  0.0320  0.3345 -0.5265
  303MOL0     C41705   9.433   3.323   3.771  0.5502 -0.4693  0.2694
  303MOL0     C41706   9.546   3.276   3.848 -0.1902  0.1419  0.2144
  303MOL0     O41707   9.613   3.362   3.932 -0.3894  0.5552  0.2504
  303MOL0     C41708   9.692   3.307   4.029 -0.4476 -0.5596  0.0293
  303MOL0     C41709   9.648   3.261   4.152  0.5561  0.4769 -0.4382
  303MOL0     C41710   9.728   3.197   4.242 -0.0282  0.0224 -0.9733
  303MOL0     C41711   9.864   3.173   4.215  1.0516  0.4811 -0.1527
  303MOL0     O41712   9.933   3.108   4.312 -1.1317  0.3470  0.0062
  303MOL0     C41713  10.073   3.075   4.300  0.2599  0.5931 -0.3422
  303MOL0     C41714  10.168   3.195   4.320 -0.0376 -0.2516  0.2455
  303MOL0     C41715  10.128   3.276   4.455  0.2422  1.2967  0.3212
  303MOL0     C41716  10.253   3.355   4.505  0.9611  0.2281  0.2441
  303MOL0     C41717  10.234   3.464   4.603  0.2539 -0.9527  0.3557
  303MOL0     C41718  10.183   3.588   4.535 -0.1353 -0.0388 -0.2985
  303MOL0     C41719  10.162   3.693   4.647  0.4852  0.7392  0.2296
  303MOL0     C41720  10.079   3.812   4.592  0.8925  0.0966 -0.3391
  303MOL0    Cl41721   9.909   3.759   4.570  0.0826 -0.6145 -0.0819
  303MOL0     C41722   9.911   3.205   4.087 -0.9774 -0.4558  0.3138
  303MOL0     C41723   9.830   3.282   3.998  0.1410 -0.5616 -0.4674
  303MOL0     O41724   9.560   3.153   3.840  0.8511 -0.5032 -0.2419
  303MOL0     C41725   9.388   3.457   3.800 -0.4537 -0.4132  0.0587
  303MOL0     C41726   9.276   3.506   3.741 -0.1751  0.2945  0.7997
  303MOL0     N41727   8.548   3.425   3.785  0.1295  0.0909 -0.2532
  303MOL0     N41728   8.425   3.419   3.752  0.0955  0.4673  0.3832
  303MOL0     C41729   7.585   4.268   3.330 -0.2491  0.1120 -0.6535
  303MOL0     C41730   7.459   4.320   3.355  1.2240 -0.6050 -0.5048
  303MOL0     C41731   7.150   4.617   3.392 -0.8596  0.1238 -0.7025
  303MOL0     C41732   7.127   4.647   3.527 -0.3077  0.7629  0.9840
  303MOL0     C41733   6.995   4.666   3.568  0.0251 -0.3609  0.2066
  303MOL0     C41734   6.891   4.667   3.478  0.0472  0.0209  0.3428
  303MOL0     O41735   6.757   4.675   3.512 -0.4716 -0.4305 -0.0997
  303MOL0     C41736   6.732   4.744   3.645 -0.4496 -0.3193 -0.4009
  303MOL0     C41737   6.584   4.808   3.639 -0.0830  0.7570  0.4818
  303MOL0     C41738   6.464   4.714   3.653 -0.1084 -0.5373  0.0239
  303MOL0     C41739   6.469   4.621   3.538 -0.3374  0.6159  0.4097
  303MOL0     C41740   6.333   4.559   3.521  0.3862  0.2499 -0.2887
  303MOL0     C41741   6.242   4.486   3.482  0.3322 -0.4877  0.4575
  303MOL0     C41742   6.912   4.642   3.349  0.3126  0.1045 -0.3590
  303MOL0     C41743   7.041   4.616   3.299  0.6987 -0.1253 -0.8791
  303MOL0     C41744   7.052   4.576   3.150 -0.1281 -0.8877 -0.3582
  303MOL0     H41745   7.545   4.542   3.597 -3.1861  0.6779 -0.8453
  303MOL0     H41746   7.768   4.413   3.574  0.3677 -0.0964 -1.0474
  303MOL0     H41747   7.882   4.205   3.579  3.2663 -0.0206  0.6157
  303MOL0     H41748   7.959   4.320   3.472  0.4503 -0.0120 -0.1402
  303MOL0     H41749   8.061   4.136   3.341 -1.6004  0.8319 -1.0062
  303MOL0     H41750   8.089   4.137   3.519 -0.0469  2.2975 -0.1028
  303MOL0     H41751   7.896   3.964   3.549  0.0283 -1.6607  0.2543
  303MOL0     H41752   7.893   3.956   3.370  1.0401  1.8107 -0.5236
  303MOL0     H41753   8.010   3.787   3.419 -0.1364 -1.1514  1.9708
  303MOL0     H41754   8.154   3.887   3.412  0.8648 -2.5653  1.4434
  303MOL0     H41755   8.012   3.846   3.679 -1.0167 -2.2811 -0.4017
  303MOL0     H41756   8.174   3.896   3.660 -0.7894 -0.0617  0.4369
  303MOL0     H41757   8.186   3.660   3.732 -1.0076  0.9825  0.4075
  303MOL0     H41758   8.061   3.612   3.619  0.7292  0.0475 -0.5834
  303MOL0     H41759   8.341   3.696   3.521 -0.1540 -1.4144 -0.0915
  303MOL0     H41760   8.203   3.642   3.429 -0.7877  0.8274  1.0005
  303MOL0     H41761   8.204   3.435   3.602 -1.2120  2.5248  0.8434
  303MOL0     H41762   8.305   3.435   3.463  0.7943 -1.1737  1.2821
  303MOL0     H41763   8.556   3.560   3.492 -0.6198 -0.6580 -0.6777
  303MOL0     H41764   8.791   3.489   3.560  0.7711  0.7239 -0.7554
  303MOL0     H41765   8.809   3.408   3.717  0.8534 -0.6819 -1.4666
  303MOL0     H41766   8.758   3.710   3.684  4.6854  3.3138 -1.9872
  303MOL0     H41767   8.781   3.623   3.833 -0.0213 -1.7237 -1.1799
  303MOL0     H41768   8.970   3.750   3.770 -1.5960  0.2546 -0.8249
  303MOL0     H41769   9.004   3.590   3.817 -0.8692  1.9831  0.7802
  303MOL0     H41770   8.965   3.637   3.521  0.1013 -1.3707  0.3363
  303MOL0     H41771   9.119   3.685   3.595 -2.5945  3.3165  0.8752
  303MOL0     H41772   9.203   3.253   3.531 -0.4064 -0.1948  0.5532
  303MOL0     H41773   9.482   3.098   3.581  0.4906 -0.1018  0.3857
  303MOL0     H41774   9.309   3.063   3.571 -2.1169  0.7669  1.7050
  303MOL0     H41775   9.389   3.046   3.722  0.5069  0.5337 -0.3974
  303MOL0     H41776   9.546   3.287   4.179  0.7378  0.1278  0.6335
  303MOL0     H41777   9.694   3.161   4.338 -0.6365 -0.1868 -1.2641
  303MOL0     H41778  10.097   3.005   4.381 -2.6626 -1.7911 -1.3214
  303MOL0     H41779  10.088   3.028   4.202  1.6045 -0.4744  0.3329
  303MOL0     H41780  10.273   3.165   4.316 -0.1015 -0.3839 -0.9299
  303MOL0     H41781  10.162   3.258   4.231  0.1505  1.5727  1.4663
  303MOL0     H41782  10.096   3.199   4.527  4.7466 -1.7601 -0.4654
  303MOL0     H41783  10.044   3.340   4.431 -1.6008 -1.6906 -1.9568
  303MOL0     H41784  10.326   3.382   4.428  1.1867  1.4418  0.8624
  303MOL0     H41785  10.310   3.279   4.560  1.1897 -0.4188 -0.8613
  303MOL0     H41786  10.171   3.436   4.688  1.8549 -3.4041  0.8260
  303MOL0     H41787  10.328   3.485   4.654  0.3185  3.3798 -1.1462
  303MOL0     H41788  10.082   3.577   4.495 -0.6862  0.0878  0.9903
  303MOL0     H41789  10.246   3.624   4.454  1.6701 -0.2964  0.9382
  303MOL0     H41790  10.262   3.730   4.673  1.8605 -0.6913 -2.6158
  303MOL0     H41791  10.104   3.652   4.731 -0.2075  1.0213 -0.1099
  303MOL0     H41792  10.124   3.844   4.498 -1.3003  0.4013 -1.3489
  303MOL0     H41793  10.074   3.901   4.655 -2.2811  0.9177 -1.5576
  303MOL0     H41794  10.015   3.205   4.058 -1.6633  0.3269 -2.4301
  303MOL0     H41795   9.861   3.329   3.905  1.4719  2.8603  1.5141
  303MOL0     H41796   9.440   3.518   3.873  2.2768 -0.6441 -1.5655
  303MOL0     H41797   9.251   3.608   3.770 -0.2810  0.5777 -0.2259
  303MOL0     H41798   7.629   4.210   3.249 -0.2444  2.0078 -2.0868
  303MOL0     H41799   7.375   4.302   3.289 -0.4971 -1.0999  1.7143
  303MOL0     H41800   7.189   4.629   3.614 -0.0301 -0.8691  0.4844
  303MOL0     H41801   6.962   4.674   3.671 -1.8063 -1.0433 -0.2893
  303MOL0     H41802   6.745   4.669   3.723  4.0663  1.5000  0.9330
  303MOL0     H41803   6.809   4.820   3.662  1.5901 -2.8890  3.0783
  303MOL0     H41804   6.576   4.858   3.542 -0.9010 -1.6025 -0.7401
  303MOL0     H41805   6.577   4.886   3.715 -1.3272  0.4749  0.6888
  303MOL0     H41806   6.459   4.666   3.751  0.7278  0.4176  0.5495
  303MOL0     H41807   6.380   4.783   3.644  0.2362  0.1487  1.7821
  303MOL0     H41808   6.536   4.539   3.565 -1.0842 -0.0754  0.2006
  303MOL0     H41809   6.505   4.667   3.445 -1.6666  0.0638 -0.4005
  303MOL0     H41810   6.169   4.414   3.451 -2.1974  0.7332  3.0939
  303MOL0     H41811   6.837   4.637   3.271  0.4845 -3.9076 -0.4338
  303MOL0     H41812   6.954   4.563   3.102 -0.5366  1.1476 -0.1557
  303MOL0     H41813   7.107   4.658   3.103 -1.1649  1.7880  2.7211
  303MOL0     H41814   7.119   4.492   3.132  1.6938 -0.0807  2.0862
  304MOL0     O41815   0.312   6.151   1.393 -0.0836 -0.6843 -0.8592
  304MOL0     C41816   0.240   6.226   1.460 -0.6796  0.0094 -0.3112
  304MOL0     O41817   0.222   6.359   1.433 -0.1044 -0.0356 -0.0759
  304MOL0     C41818   0.326   6.419   1.367  0.6540  0.3215 -0.6790
  304MOL0     C41819   0.448   6.463   1.429 -0.2475  0.2453 -0.4899
  304MOL0     C41820   0.558   6.487   1.359 -0.2995  0.0390  0.1525
  304MOL0     C41821   0.552   6.486   1.215  0.2587 -0.2504  0.5173
  304MOL0     O41822   0.650   6.543   1.131  0.3343  0.1757 -0.0129
  304MOL0     C41823   0.732   6.654   1.190  1.1698  0.9897 -0.3215
  304MOL0     C41824   0.810   6.748   1.093  0.7384 -1.6102 -0.4956
  304MOL0     C41825   0.916   6.679   0.994  0.4428  0.0745 -0.1569
  304MOL0     C41826   0.946   6.785   0.891 -0.3058 -0.2631 -0.3295
  304MOL0     C41827   1.072   6.761   0.816 -0.7360  0.6241 -0.2006
  304MOL0     C41828   1.121   6.865   0.709  0.0439  0.0669  0.1360
  304MOL0     C41829   1.277   6.874   0.721  0.1266  0.1998  0.0695
  304MOL0     C41830   1.321   6.989   0.648 -0.1250 -0.4401 -0.0279
  304MOL0     N41831   1.462   7.042   0.685 -0.0271  0.9269  0.2342
  304MOL0     C41832   1.497   7.163   0.735  0.1921  0.6775  0.1167
  304MOL0     C41833   1.630   7.181   0.725 -0.7362  0.0324  0.6463
  304MOL0     C41834   1.717   7.292   0.765  0.0934  0.1216  0.5618
  304MOL0     C41835   1.723   7.397   0.656 -0.3669 -0.5620 -1.1718
  304MOL0     C41836   1.749   7.535   0.717 -0.5263 -0.1932  0.3489
  304MOL0     C41837   1.898   7.561   0.759  0.0581 -0.2425 -0.4338
  304MOL0     O41838   1.895   7.672   0.850 -0.3978  0.5545  0.0073
  304MOL0     C41839   2.019   7.725   0.880  0.0190 -1.0255 -0.3027
  304MOL0     C41840   2.025   7.867   0.915 -0.0088  0.4568 -0.6765
  304MOL0     C41841   2.144   7.930   0.946  0.2695 -0.5165  0.9437
  304MOL0     C41842   2.132   8.084   0.965 -0.5046  0.4847 -0.3129
  304MOL0     C41843   2.266   7.860   0.939 -0.2755 -0.0723  0.8503
  304MOL0     C41844   2.406   7.920   0.972  0.1582 -0.1998  0.1000
  304MOL0     O41845   2.414   8.052   1.019 -0.7829 -0.0643  0.1213
  304MOL0     C41846   2.534   8.092   1.071  0.8493  0.5250 -1.1805
  304MOL0     C41847   2.615   8.193   1.023  0.0824 -1.2655 -0.3974
  304MOL0     C41848   2.739   8.230   1.086  0.4090  0.2517  0.1941
  304MOL0     C41849   2.791   8.170   1.196 -0.1248  0.1356 -1.1287
  304MOL0     O41850   2.915   8.226   1.246  0.0487 -0.1733  0.4271
  304MOL0     C41851   2.970   8.139   1.349  0.5297  0.9766 -0.1237
  304MOL0     C41852   3.120   8.175   1.393  0.6610  0.4380 -0.3299
  304MOL0     C41853   3.232   8.096   1.323 -0.1882  0.1560 -0.0769
  304MOL0     C41854   3.363   8.130   1.398 -1.0795  0.9387  0.0816
  304MOL0     C41855   3.474   8.034   1.352 -0.3489 -0.7981  0.8077
  304MOL0     C41856   3.612   8.064   1.420 -0.5079 -0.8609 -0.2224
  304MOL0     C41857   3.700   7.949   1.384  0.0681  0.1473  0.0361
  304MOL0     C41858   3.851   7.967   1.423  0.5687 -0.0137  1.2102
  304MOL0    Cl41859   3.926   7.822   1.328 -0.3414  0.1109  0.5956
  304MOL0     C41860   2.702   8.077   1.254 -0.2940  0.0142  0.0228
  304MOL0     C41861   2.575   8.041   1.197  0.0928  0.0716  0.0702
  304MOL0     O41862   2.497   7.842   0.945 -1.0452  0.2864 -0.4386
  304MOL0     C41863   2.265   7.725   0.906  0.6889  1.1394  0.0475
  304MOL0     C41864   2.138   7.658   0.880 -0.2941 -0.6705 -0.1346
  304MOL0     N41865   1.679   7.066   0.668  0.0840 -0.0821  0.8851
  304MOL0     N41866   1.578   6.987   0.637  0.6849 -0.4160 -0.1795
  304MOL0     C41867   0.425   6.468   1.152 -0.1760 -0.5413  0.0277
  304MOL0     C41868   0.324   6.417   1.225  0.3648 -0.5996 -0.7331
  304MOL0     C41869   0.145   6.153   1.552 -0.1161 -0.6370 -0.4436
  304MOL0     C41870   0.201   6.032   1.612 -0.3937  0.7206 -0.4543
  304MOL0     C41871   0.131   5.956   1.714 -0.1411  0.3204  0.5170
  304MOL0     C41872   0.004   5.998   1.742  0.8171 -0.1464 -0.4081
  304MOL0     O41873  -0.074   5.934   1.834  0.3377 -0.1878 -0.2974
  304MOL0     C41874  -0.023   5.893   1.961  0.0624  0.2827  0.4751
  304MOL0     C41875  -0.060   5.988   2.074  0.5612  0.3826 -1.4882
  304MOL0     C41876   0.026   5.952   2.204  0.6968  0.9245 -0.3414
  304MOL0     C41877   0.179   5.968   2.180  0.4562 -0.7468 -0.6942
  304MOL0     C41878   0.255   5.934   2.302  0.5188  0.7763 -0.3303
  304MOL0     C41879   0.301   5.926   2.416  0.5077  0.2425 -0.1461
  304MOL0     C41880  -0.054   6.108   1.679  1.3418  0.3456  0.3318
  304MOL0     C41881   0.008   6.192   1.582 -0.0524  0.0559  0.0324
  304MOL0     C41882  -0.057   6.308   1.516 -0.2328 -0.6511  0.7143
  304MOL0     H41883   0.460   6.457   1.537 -1.3508 -1.2628 -0.4130
  304MOL0     H41884   0.659   6.508   1.391 -0.4605 -0.1279  0.7775
  304MOL0     H41885   0.807   6.603   1.252  1.1689  1.3941  0.0117
  304MOL0     H41886   0.660   6.713   1.247  0.0311  0.0667 -0.7598
  304MOL0     H41887   0.726   6.802   1.048 -0.0008 -0.4256  2.0640
  304MOL0     H41888   0.858   6.826   1.153 -3.0434  0.4936  0.1134
  304MOL0     H41889   0.995   6.635   1.056 -0.2601  0.6469  1.1834
  304MOL0     H41890   0.885   6.590   0.938 -1.4934  1.3967 -1.3086
  304MOL0     H41891   0.857   6.795   0.828  0.1652 -0.1024 -0.9757
  304MOL0     H41892   0.958   6.879   0.944 -0.2620 -0.6303  0.3263
  304MOL0     H41893   1.067   6.668   0.760 -0.6209  1.1149 -1.0420
  304MOL0     H41894   1.150   6.755   0.893  1.4630 -1.5727 -2.4425
  304MOL0     H41895   1.097   6.843   0.605  1.3389 -0.1072 -0.1435
  304MOL0     H41896   1.063   6.955   0.732  0.1746 -0.1014  1.2061
  304MOL0     H41897   1.319   6.791   0.663  1.9336 -0.4288  2.1370
  304MOL0     H41898   1.313   6.874   0.825 -2.4966 -1.3847  1.0726
  304MOL0     H41899   1.325   6.967   0.541  1.2483  0.6819 -0.2358
  304MOL0     H41900   1.260   7.078   0.667  0.9034  0.4158 -0.6446
  304MOL0     H41901   1.428   7.234   0.780  0.0012  0.1538  0.6762
  304MOL0     H41902   1.819   7.259   0.787  0.8380 -0.6273 -3.3231
  304MOL0     H41903   1.667   7.333   0.853 -2.3118 -2.9738  0.8201
  304MOL0     H41904   1.803   7.367   0.587 -0.6106 -1.7661 -0.9536
  304MOL0     H41905   1.629   7.403   0.601 -0.3615  3.2004 -1.0112
  304MOL0     H41906   1.718   7.617   0.651  1.2539  1.1240  1.0566
  304MOL0     H41907   1.679   7.537   0.801 -0.6410  0.5290  0.2444
  304MOL0     H41908   1.948   7.474   0.802  2.7752 -0.3768 -3.4677
  304MOL0     H41909   1.956   7.577   0.668 -1.7377  0.9874 -1.4243
  304MOL0     H41910   1.927   7.914   0.909 -0.2669  0.3284  1.7675
  304MOL0     H41911   2.088   8.106   1.062 -0.2289 -2.1067  0.4623
  304MOL0     H41912   2.068   8.109   0.880  1.0709  0.4473 -1.5680
  304MOL0     H41913   2.225   8.141   0.956  0.3308 -1.1159 -2.7640
  304MOL0     H41914   2.584   8.237   0.929 -0.0704  0.5140  0.4533
  304MOL0     H41915   2.783   8.314   1.034 -1.7751 -1.1235 -4.4000
  304MOL0     H41916   2.908   8.140   1.439 -1.2134  0.0144 -1.2470
  304MOL0     H41917   2.976   8.041   1.300 -2.2730  1.8299 -2.4310
  304MOL0     H41918   3.122   8.283   1.380  2.8423  0.2543 -2.1453
  304MOL0     H41919   3.129   8.140   1.496 -1.2948 -1.5138 -0.7362
  304MOL0     H41920   3.229   8.137   1.222  0.0135  1.4187  0.4080
  304MOL0     H41921   3.219   7.988   1.330  1.5294 -0.1833 -1.4456
  304MOL0     H41922   3.354   8.111   1.506  1.0293  1.2500  0.3531
  304MOL0     H41923   3.394   8.233   1.378 -2.7547  1.2597 -1.0683
  304MOL0     H41924   3.442   7.930   1.364  0.3994 -0.8440  2.8533
  304MOL0     H41925   3.493   8.047   1.245 -0.1847  0.6144  0.9826
  304MOL0     H41926   3.605   8.085   1.527 -1.4906 -0.6566 -0.3122
  304MOL0     H41927   3.657   8.155   1.379  0.8858 -2.1293 -1.6481
  304MOL0     H41928   3.681   7.935   1.277 -1.0644  1.4501  0.0393
  304MOL0     H41929   3.662   7.856   1.430  0.2605 -0.5079 -1.1021
  304MOL0     H41930   3.871   7.945   1.528 -1.0256  0.2994  1.5983
  304MOL0     H41931   3.895   8.063   1.392  0.2700 -0.1946  0.1600
  304MOL0     H41932   2.723   8.032   1.350 -0.0737  1.1324  0.5233
  304MOL0     H41933   2.497   7.986   1.247 -0.6137  1.5759  0.7004
  304MOL0     H41934   2.345   7.653   0.899 -0.6350 -0.3985  0.0469
  304MOL0     H41935   2.153   7.552   0.866  3.5903 -0.2890 -0.1131
  304MOL0     H41936   0.430   6.471   1.043  3.6263  0.3192  0.0954
  304MOL0     H41937   0.243   6.378   1.164  0.8097  0.4908 -2.0824
  304MOL0     H41938   0.307   6.013   1.602 -0.5345 -0.9172  0.6591
  304MOL0     H41939   0.176   5.878   1.774 -2.2594 -2.4459 -1.2146
  304MOL0     H41940  -0.051   5.788   1.979 -1.8262  0.6559 -0.0792
  304MOL0     H41941   0.087   5.899   1.959  0.0307  1.7967  1.5947
  304MOL0     H41942  -0.165   5.971   2.100  0.1138  1.0902 -2.7607
  304MOL0     H41943  -0.042   6.093   2.051  1.8968  0.2848 -0.9941
  304MOL0     H41944  -0.012   6.016   2.283 -1.7790 -0.9978  0.1309
  304MOL0     H41945   0.009   5.852   2.243  0.4601  1.2492  0.3912
  304MOL0     H41946   0.197   6.075   2.166  3.5439 -1.0606  0.0935
  304MOL0     H41947   0.214   5.925   2.086 -0.0799  0.7892 -1.6294
  304MOL0     H41948   0.331   5.911   2.517  1.2735 -1.8493 -0.6354
  304MOL0     H41949  -0.157   6.141   1.695  0.5489  0.2560 -3.6172
  304MOL0     H41950  -0.158   6.322   1.558 -1.0750 -2.3130 -0.6474
  304MOL0     H41951  -0.005   6.402   1.539 -3.2020  1.7641 -1.4960
  304MOL0     H41952  -0.049   6.305   1.407  0.0289  0.0505  0.7102
  305MOL0     O41953   4.625  10.605   9.585 -0.2756  0.6231  0.2550
  305MOL0     C41954   4.596  10.509   9.658 -0.3500 -0.9113  0.4568
  305MOL0     O41955   4.687  10.408   9.686  0.0882 -0.3159  0.6823
  305MOL0     C41956   4.808  10.413   9.626 -0.8443  1.2744  0.6237
  305MOL0     C41957   4.897  10.517   9.635  0.4063  0.4352  0.2693
  305MOL0     C41958   5.034  10.501   9.616  0.0390 -0.0892 -0.2272
  305MOL0     C41959   5.078  10.380   9.573 -0.3867 -0.6017  0.3213
  305MOL0     O41960   5.215  10.375   9.557 -0.2422 -0.5334 -0.6738
  305MOL0     C41961   5.272  10.248   9.610  0.3596 -0.8259  0.4321
  305MOL0     C41962   5.422  10.253   9.636  0.1145 -0.1546  0.0073
  305MOL0     C41963   5.454  10.338   9.762  0.8890  0.1969  0.0436
  305MOL0     C41964   5.601  10.340   9.803  0.8068 -0.0789  0.7719
  305MOL0     C41965   5.630  10.414   9.934 -0.5025 -0.2332  0.0687
  305MOL0     C41966   5.775  10.456   9.959 -0.6815  1.2755 -0.4279
  305MOL0     C41967   5.792  10.570  10.069  0.4318  0.3207 -0.0768
  305MOL0     C41968   5.748  10.706  10.018  0.1165  0.5369  0.3218
  305MOL0     N41969   5.850  10.769   9.933 -0.2847  0.4166 -0.9194
  305MOL0     C41970   5.941  10.858   9.987  0.1498  0.4405 -0.0842
  305MOL0     C41971   6.022  10.882   9.882 -0.0390 -0.4807 -0.2947
  305MOL0     C41972   6.132  10.980   9.891 -0.0917 -0.0867  0.7181
  305MOL0     C41973   6.262  10.914   9.888 -0.6919 -0.4092  0.6028
  305MOL0     C41974   6.385  10.998   9.921  0.8438  0.0575 -0.0100
  305MOL0     C41975   6.411  11.019  10.068  0.3555  0.5755 -0.0046
  305MOL0     O41976   6.506  11.117  10.094 -0.0281 -0.1861 -0.5429
  305MOL0     C41977   6.638  11.086  10.098  0.5493  0.2870  0.5523
  305MOL0     C41978   6.728  11.195  10.082 -1.1100  0.4794 -0.4280
  305MOL0     C41979   6.866  11.166  10.082 -0.3223  0.2584 -1.0107
  305MOL0     C41980   6.962  11.280  10.054  0.1878 -0.3237  0.5291
  305MOL0     C41981   6.914  11.035  10.105 -1.5190 -0.1252 -0.9276
  305MOL0     C41982   7.055  10.990  10.116 -0.2835  0.3667 -0.1335
  305MOL0     O41983   7.161  11.073  10.093 -0.6153  0.0683 -0.2237
  305MOL0     C41984   7.289  11.042  10.132  0.6545  0.2258 -0.2574
  305MOL0     C41985   7.308  11.011  10.265 -0.4765  0.3839 -0.9868
  305MOL0     C41986   7.420  10.953  10.310  0.0238  0.3585 -1.0701
  305MOL0     C41987   7.521  10.932  10.226 -0.1036  0.4309 -0.5624
  305MOL0     O41988   7.637  10.876  10.277 -0.1859 -0.1543 -0.2180
  305MOL0     C41989   7.756  10.876  10.182  0.2697 -0.0038 -0.6141
  305MOL0     C41990   7.892  10.846  10.239  0.2000 -0.0126 -0.2774
  305MOL0     C41991   7.992  10.777  10.151  0.3304 -0.7756  0.1615
  305MOL0     C41992   7.955  10.646  10.107  0.5271  0.2277 -0.5092
  305MOL0     C41993   8.062  10.575  10.036  0.1370 -0.2250 -0.4840
  305MOL0     C41994   8.013  10.441   9.992 -0.1392 -0.4963  0.6277
  305MOL0     C41995   8.089  10.385   9.876 -0.7417 -0.2656 -0.4962
  305MOL0     C41996   8.194  10.288   9.918 -0.1024 -0.0641  0.7736
  305MOL0    Cl41997   8.120  10.122   9.941  0.7792  0.0060 -0.3188
  305MOL0     C41998   7.507  10.950  10.086  1.0762  0.0192  0.2767
  305MOL0     C41999   7.384  11.001  10.034  0.2613 -0.0591 -0.6791
  305MOL0     O42000   7.066  10.876  10.156  0.5690  0.3120  0.0663
  305MOL0     C42001   6.823  10.936  10.094 -0.3390  0.2677  0.1190
  305MOL0     C42002   6.690  10.957  10.084  0.7539  0.0382  0.1589
  305MOL0     N42003   5.977  10.810   9.765  0.3338  0.4709 -0.5069
  305MOL0     N42004   5.860  10.751   9.801 -0.1307 -0.3393  0.0436
  305MOL0     C42005   4.993  10.264   9.557  0.9443  1.3304  0.6973
  305MOL0     C42006   4.855  10.287   9.584  0.4097 -0.1826  0.1986
  305MOL0     C42007   4.479  10.515   9.745  0.4236 -0.0571  0.0319
  305MOL0     C42008   4.491  10.448   9.864  0.8353  0.4901 -0.5560
  305MOL0     C42009   4.402  10.464   9.968 -0.2715  0.6114 -0.2245
  305MOL0     C42010   4.293  10.554   9.948 -0.0003  0.0125 -1.2354
  305MOL0     O42011   4.204  10.579  10.051  0.1601  0.0250 -0.5353
  305MOL0     C42012   4.064  10.599  10.034  0.5328  0.2148  0.4154
  305MOL0     C42013   3.990  10.486   9.961 -0.3873  0.1806 -0.2963
  305MOL0     C42014   3.838  10.522   9.930  0.6241 -0.1192 -0.5088
  305MOL0     C42015   3.810  10.631   9.817 -0.0816 -0.1799 -0.3549
  305MOL0     C42016   3.850  10.594   9.676 -0.4321 -0.1379  0.3935
  305MOL0     C42017   3.887  10.590   9.555  0.1687 -0.2341 -0.0378
  305MOL0     C42018   4.269  10.600   9.820  0.0369  0.1397 -0.4686
  305MOL0     C42019   4.358  10.580   9.712 -0.2061 -1.0428 -0.7224
  305MOL0     C42020   4.341  10.662   9.583  0.7174 -0.5615  0.6406
  305MOL0     H42021   4.860  10.614   9.665  0.0424  0.5044 -0.3818
  305MOL0     H42022   5.098  10.583   9.646  0.3220  0.3913 -2.0887
  305MOL0     H42023   5.267  10.178   9.527  0.1789  0.1906 -0.4376
  305MOL0     H42024   5.211  10.205   9.690  1.3746 -2.6826  0.2586
  305MOL0     H42025   5.457  10.150   9.649  2.3092  0.3047 -1.6870
  305MOL0     H42026   5.475  10.286   9.547  3.1180 -0.6212  1.4811
  305MOL0     H42027   5.422  10.440   9.739  1.4468  0.1489 -1.0195
  305MOL0     H42028   5.390  10.298   9.841 -1.5169 -0.0210 -1.9177
  305MOL0     H42029   5.652  10.243   9.798  0.6676 -0.1005 -0.3945
  305MOL0     H42030   5.650  10.393   9.721  1.0151 -3.6015 -1.5747
  305MOL0     H42031   5.589  10.359  10.020  0.2912  1.3606  1.5206
  305MOL0     H42032   5.566  10.502   9.931  1.5954  1.4922  2.1177
  305MOL0     H42033   5.828  10.367   9.995 -3.6171 -0.0608  0.9396
  305MOL0     H42034   5.822  10.488   9.865 -1.8979  4.1500 -0.1563
  305MOL0     H42035   5.892  10.569  10.113  0.3709 -0.6794  0.0818
  305MOL0     H42036   5.737  10.549  10.161 -0.0323  3.7158  0.5517
  305MOL0     H42037   5.654  10.688   9.965 -0.3681  1.9251  0.6438
  305MOL0     H42038   5.708  10.763  10.103  0.0295  1.2381 -0.1784
  305MOL0     H42039   5.932  10.889  10.091  0.1405 -1.2423  0.4476
  305MOL0     H42040   6.125  11.063   9.961  0.2003 -0.0823  0.7432
  305MOL0     H42041   6.120  11.034   9.796  1.6142 -0.2640  0.3719
  305MOL0     H42042   6.265  10.834   9.963  1.4576 -1.2137 -0.2436
  305MOL0     H42043   6.292  10.850   9.803  3.9053 -0.6450  2.0968
  305MOL0     H42044   6.480  10.959   9.884  1.3206 -0.7913  1.9831
  305MOL0     H42045   6.376  11.094   9.869  1.3291 -0.2269 -0.6314
  305MOL0     H42046   6.321  11.057  10.116  0.6446  0.4643  0.6396
  305MOL0     H42047   6.427  10.923  10.117  2.1747  1.8951  2.1601
  305MOL0     H42048   6.701  11.295  10.051 -3.0854 -0.0617 -0.6262
  305MOL0     H42049   7.019  11.245   9.968 -1.7316 -1.4679 -0.3346
  305MOL0     H42050   7.035  11.303  10.132  2.7226  1.0954 -2.0821
  305MOL0     H42051   6.908  11.366  10.014 -2.4946 -3.2795 -2.7883
  305MOL0     H42052   7.225  11.024  10.333 -1.5012 -1.3464 -1.8104
  305MOL0     H42053   7.446  10.922  10.411  2.9428  0.3484 -1.7348
  305MOL0     H42054   7.738  10.815  10.093  0.5872 -1.6205  0.3900
  305MOL0     H42055   7.763  10.975  10.137 -1.7349 -0.8885 -3.1226
  305MOL0     H42056   7.937  10.941  10.269  0.5616  0.1773 -1.3809
  305MOL0     H42057   7.880  10.784  10.328  1.5535 -0.4811 -0.4018
  305MOL0     H42058   8.088  10.776  10.202  1.2055 -0.6288 -1.4322
  305MOL0     H42059   8.025  10.840  10.068 -2.3989  0.3642 -0.1787
  305MOL0     H42060   7.873  10.653  10.036  0.9406 -0.2611 -1.0456
  305MOL0     H42061   7.917  10.576  10.183 -3.1383  0.1477 -2.2033
  305MOL0     H42062   8.089  10.639   9.952  0.3665  2.3388  1.4217
  305MOL0     H42063   8.157  10.564  10.090 -1.4616  1.9369  3.1562
  305MOL0     H42064   7.905  10.445   9.970  0.3963  0.7467 -2.2105
  305MOL0     H42065   8.024  10.367  10.071  1.6603 -2.2024 -1.1134
  305MOL0     H42066   8.133  10.465   9.816 -1.9108 -0.0775 -1.1535
  305MOL0     H42067   8.019  10.349   9.799 -2.4460  0.3102  0.7044
  305MOL0     H42068   8.248  10.327  10.005  1.6925  0.3803 -0.4746
  305MOL0     H42069   8.264  10.277   9.834 -0.8062 -0.5212  0.2332
  305MOL0     H42070   7.571  10.912  10.008 -2.0663 -1.9633 -1.5706
  305MOL0     H42071   7.364  10.999   9.927 -4.0875  2.9295 -0.1917
  305MOL0     H42072   6.849  10.832  10.079 -4.7248 -1.0407  0.1641
  305MOL0     H42073   6.623  10.874  10.065  0.4825 -0.0840  1.5323
  305MOL0     H42074   5.038  10.175   9.514 -2.6712 -0.1486 -0.4531
  305MOL0     H42075   4.777  10.212   9.571  1.9829 -2.0395  0.9323
  305MOL0     H42076   4.588  10.410   9.893  1.9526  1.4240 -2.7635
  305MOL0     H42077   4.442  10.416  10.056  2.1245  0.6098 -1.2439
  305MOL0     H42078   4.022  10.611  10.134 -3.7974  1.2095 -1.2827
  305MOL0     H42079   4.053  10.690   9.974  1.8283 -1.2730 -2.2682
  305MOL0     H42080   4.002  10.390  10.011  1.0745  0.4446 -0.1115
  305MOL0     H42081   4.031  10.469   9.861 -0.3598 -0.2861 -0.2051
  305MOL0     H42082   3.793  10.427   9.901 -0.3997  0.8271 -2.1703
  305MOL0     H42083   3.787  10.559  10.020  0.9368  0.9378 -0.7517
  305MOL0     H42084   3.834  10.735   9.841  1.5636 -0.4669 -0.5934
  305MOL0     H42085   3.701  10.625   9.824  0.1005 -2.6743  3.8284
  305MOL0     H42086   3.935  10.580   9.460  0.9522 -2.1812  0.5259
  305MOL0     H42087   4.178  10.658   9.811 -0.5542 -0.8047 -0.6709
  305MOL0     H42088   4.373  10.607   9.494  2.0915  0.7509  0.2936
  305MOL0     H42089   4.237  10.695   9.583  0.6009 -0.5787  3.9718
  305MOL0     H42090   4.401  10.753   9.585  0.4867 -0.4150  1.1544
  306MOL0     O42091   9.416  10.244   8.907  0.0672  0.1458  0.5080
  306MOL0     C42092   9.385  10.314   9.001  0.5391  1.1647 -1.1036
  306MOL0     O42093   9.431  10.305   9.134  0.0099  0.3724  1.0234
  306MOL0     C42094   9.511  10.190   9.157 -0.5305  0.5013  0.0046
  306MOL0     C42095   9.639  10.199   9.205  1.0079  0.4061  0.1461
  306MOL0     C42096   9.718  10.084   9.230 -1.1549 -0.1046 -0.3937
  306MOL0     C42097   9.674   9.953   9.218  0.2358  0.5569 -0.0889
  306MOL0     O42098   9.741   9.832   9.243  0.1799  0.4031 -0.3399
  306MOL0     C42099   9.798   9.823   9.372  0.0880 -0.5927  0.3306
  306MOL0     C42100   9.838   9.677   9.386  0.0164  0.2691  0.2738
  306MOL0     C42101   9.862   9.644   9.534  0.4835 -0.4905 -0.1977
  306MOL0     C42102   9.942   9.749   9.618  0.6339 -0.2619  0.1908
  306MOL0     C42103   9.964   9.696   9.757 -0.1469 -0.0687 -0.7321
  306MOL0     C42104  10.058   9.572   9.767 -0.1846  0.1085 -0.4968
  306MOL0     C42105  10.179   9.576   9.673 -0.6216  0.8870 -0.8534
  306MOL0     C42106  10.261   9.446   9.679  0.2273  0.9521 -0.6355
  306MOL0     N42107  10.332   9.430   9.807 -0.0810  0.0144  0.0994
  306MOL0     C42108  10.395   9.526   9.885 -0.3805  0.6238 -0.3643
  306MOL0     C42109  10.421   9.460   9.997  0.4727 -0.1003 -0.4185
  306MOL0     C42110  10.471   9.532  10.124  0.4935  0.2879  0.7956
  306MOL0     C42111  10.586   9.631  10.090  0.4086  0.1624  0.6582
  306MOL0     C42112  10.717   9.557  10.060 -0.1301 -0.6950  0.0115
  306MOL0     C42113  10.789   9.507  10.185  0.3082  0.6415 -0.2465
  306MOL0     O42114  10.895   9.416  10.160 -0.0019 -0.0761  0.0066
  306MOL0     C42115  11.021   9.469  10.117  0.1748 -0.5849  0.7334
  306MOL0     C42116  11.117   9.375  10.100 -0.2828 -0.1005 -0.1860
  306MOL0     C42117  11.251   9.405  10.071 -0.7658 -0.8532  1.0214
  306MOL0     C42118  11.349   9.297  10.102 -1.0489  0.0047  1.2855
  306MOL0     C42119  11.284   9.544  10.048 -0.7223 -0.7018 -0.1377
  306MOL0     C42120  11.420   9.603  10.027  0.1646 -0.0860  1.1091
  306MOL0     O42121  11.435   9.728   9.990  0.5574  0.0795 -0.5364
  306MOL0     C42122  11.552   9.801   9.994 -0.2548 -0.0038  0.4039
  306MOL0     C42123  11.678   9.752   9.975 -0.2884  0.2066 -0.2266
  306MOL0     C42124  11.787   9.838   9.976  0.0387 -0.3058  0.5483
  306MOL0     C42125  11.776   9.971   9.978  0.5576  0.3378 -0.3470
  306MOL0     O42126  11.882  10.057   9.971 -0.2359  0.0625  0.4682
  306MOL0     C42127  12.010  10.019  10.020  0.4131  0.7294  0.4445
  306MOL0     C42128  12.097  10.141  10.032  0.1129 -0.1963 -0.7988
  306MOL0     C42129  12.245  10.109  10.063 -1.1902 -0.6639  0.1234
  306MOL0     C42130  12.326  10.254  10.069  0.1047  0.2951  0.7154
  306MOL0     C42131  12.484  10.240  10.070  0.1897 -0.2667 -0.8479
  306MOL0     C42132  12.551  10.377  10.081  0.6514 -0.1021  0.9661
  306MOL0     C42133  12.705  10.370  10.108  0.0487 -0.2258  0.2800
  306MOL0     C42134  12.768  10.507  10.152  0.5998  0.4437 -0.0091
  306MOL0    Cl42135  12.926  10.471  10.234  0.1292  0.1230 -0.2406
  306MOL0     C42136  11.645  10.031  10.000 -0.4700 -0.9159  0.5271
  306MOL0     C42137  11.539   9.943  10.001  1.1686 -0.3748 -0.6263
  306MOL0     O42138  11.511   9.525  10.032  0.1706  0.1557  0.2631
  306MOL0     C42139  11.180   9.637  10.052  1.0436 -0.8134  0.2220
  306MOL0     C42140  11.055   9.603  10.090  1.1214  0.8406 -0.1406
  306MOL0     N42141  10.391   9.326   9.990 -0.0105 -0.1929 -0.0273
  306MOL0     N42142  10.329   9.313   9.875 -0.1698 -0.0243  0.1544
  306MOL0     C42143   9.539   9.952   9.170 -0.2464 -0.6169  0.5245
  306MOL0     C42144   9.460  10.068   9.148  1.0124  0.4036  0.5932
  306MOL0     C42145   9.291  10.424   8.978  0.2826  0.1240  0.4414
  306MOL0     C42146   9.240  10.499   9.092 -0.3058 -0.2123 -0.4172
  306MOL0     C42147   9.150  10.606   9.082  1.1452  0.4024 -0.4544
  306MOL0     C42148   9.105  10.630   8.949  0.3708  0.8661 -0.5355
  306MOL0     O42149   9.018  10.729   8.921  0.0103 -0.0132 -0.6843
  306MOL0     C42150   8.936  10.772   9.025 -0.4785 -0.1608 -0.5311
  306MOL0     C42151   8.811  10.821   8.964  0.7857 -0.5396 -0.2480
  306MOL0     C42152   8.747  10.709   8.881 -0.2683  0.6487 -0.8557
  306MOL0     C42153   8.606  10.756   8.854 -0.1731  0.6380 -0.7673
  306MOL0     C42154   8.599  10.872   8.761  0.1536 -0.5088 -0.6475
  306MOL0     C42155   8.580  10.954   8.673  0.0555 -0.0045  0.1883
  306MOL0     C42156   9.161  10.571   8.841  0.4440 -0.4884 -0.1310
  306MOL0     C42157   9.253  10.466   8.853 -0.1544 -0.0635  0.1024
  306MOL0     C42158   9.302  10.410   8.715  1.0481 -0.9422 -0.4721
  306MOL0     H42159   9.681  10.298   9.223 -1.8641  1.4393  1.8637
  306MOL0     H42160   9.824  10.098   9.250 -0.6855 -1.0948 -2.0112
  306MOL0     H42161   9.726   9.848   9.450 -0.6743 -3.3068  0.5741
  306MOL0     H42162   9.892   9.880   9.374  0.5772 -1.4102  1.7668
  306MOL0     H42163   9.761   9.611   9.346 -0.5494 -0.0584  1.8350
  306MOL0     H42164   9.924   9.649   9.324 -1.0570 -1.7141 -0.4005
  306MOL0     H42165   9.767   9.632   9.588 -0.5028  1.7824 -1.3067
  306MOL0     H42166   9.908   9.545   9.547  2.1901  0.5319  2.3323
  306MOL0     H42167  10.042   9.763   9.577  0.4085  0.8777 -0.0173
  306MOL0     H42168   9.899   9.850   9.626  0.6448 -0.4008  3.1864
  306MOL0     H42169   9.869   9.676   9.808 -0.8013 -0.9451 -2.2076
  306MOL0     H42170  10.010   9.776   9.816  0.2086 -1.4655  0.9746
  306MOL0     H42171  10.088   9.563   9.872 -1.5778  3.2935  0.2926
  306MOL0     H42172   9.996   9.485   9.743 -0.9054  0.1454  1.0909
  306MOL0     H42173  10.234   9.668   9.698 -1.6097  1.1504  0.4957
  306MOL0     H42174  10.155   9.581   9.566 -0.4492  1.1527 -0.8809
  306MOL0     H42175  10.204   9.355   9.654  3.1726 -0.7693 -1.5892
  306MOL0     H42176  10.344   9.457   9.608  1.6822 -2.9670  0.2081
  306MOL0     H42177  10.394   9.634   9.877 -1.6618  0.7541  1.0110
  306MOL0     H42178  10.502   9.465  10.206  2.4306 -1.1050 -0.9645
  306MOL0     H42179  10.386   9.591  10.158 -0.1301 -0.5089  0.6598
  306MOL0     H42180  10.570   9.689   9.999  3.0637  0.6748  0.4397
  306MOL0     H42181  10.607   9.698  10.173  0.7476 -0.7508  1.3293
  306MOL0     H42182  10.706   9.471   9.993  1.2942 -2.2512  1.6549
  306MOL0     H42183  10.784   9.627  10.010 -0.7144  2.0549  2.7776
  306MOL0     H42184  10.828   9.590  10.245 -0.9960 -0.5055  2.3474
  306MOL0     H42185  10.717   9.454  10.248 -0.1433 -0.3378 -1.5427
  306MOL0     H42186  11.081   9.274  10.117  1.2404 -0.7600 -0.6708
  306MOL0     H42187  11.408   9.324  10.190  1.6989 -0.3952 -0.3363
  306MOL0     H42188  11.412   9.283  10.013 -0.6766  0.0821  1.5342
  306MOL0     H42189  11.290   9.208  10.127 -0.4949 -0.2544  1.6868
  306MOL0     H42190  11.693   9.646   9.991 -2.4449 -0.2468 -0.8382
  306MOL0     H42191  11.884   9.792   9.965  0.9037  0.9332  2.5087
  306MOL0     H42192  12.022   9.949  10.103 -0.9352 -3.1626 -2.3629
  306MOL0     H42193  12.051   9.952   9.945  0.6028  1.1052  0.2069
  306MOL0     H42194  12.094  10.196   9.938  1.5031 -0.7528 -1.1931
  306MOL0     H42195  12.054  10.200  10.114  0.6836  1.9507 -1.9478
  306MOL0     H42196  12.297  10.048   9.989  1.2907 -2.7340  3.2818
  306MOL0     H42197  12.258  10.048  10.153  0.7792 -1.4558 -0.6355
  306MOL0     H42198  12.296  10.320  10.151 -1.8491  0.9933 -0.5137
  306MOL0     H42199  12.294  10.302   9.977  0.1385  0.2168  0.6622
  306MOL0     H42200  12.504  10.192  10.166 -3.6236 -3.1996 -1.2471
  306MOL0     H42201  12.521  10.168   9.996  0.7364 -2.6508  1.5610
  306MOL0     H42202  12.498  10.437  10.155  1.1651  0.5568  0.8049
  306MOL0     H42203  12.529  10.433   9.990 -0.3060  1.3833  2.0750
  306MOL0     H42204  12.746  10.323  10.018 -0.4296 -0.8193  0.3570
  306MOL0     H42205  12.717  10.305  10.196  0.0210  2.5884  2.5098
  306MOL0     H42206  12.691  10.550  10.217 -1.5725 -3.4573  0.3214
  306MOL0     H42207  12.794  10.576  10.071  1.0448  2.9802  2.1576
  306MOL0     H42208  11.637  10.139   9.992  0.3539 -0.8158  0.9682
  306MOL0     H42209  11.438   9.981  10.016  0.5856 -1.8723 -0.5916
  306MOL0     H42210  11.199   9.743  10.045  0.7743 -0.7854 -0.1255
  306MOL0     H42211  10.977   9.677  10.100 -1.9668 -1.9919 -1.2095
  306MOL0     H42212   9.502   9.854   9.142 -1.2370  0.1247 -0.8794
  306MOL0     H42213   9.359  10.061   9.109  2.0756 -2.0612 -2.0453
  306MOL0     H42214   9.274  10.476   9.192 -0.4784 -0.1291 -0.3381
  306MOL0     H42215   9.124  10.657   9.174  3.0642  1.3128 -0.3668
  306MOL0     H42216   8.908  10.687   9.088 -2.2349  0.6198 -0.2074
  306MOL0     H42217   8.985  10.851   9.082 -0.8977  0.7740 -1.4292
  306MOL0     H42218   8.832  10.915   8.912 -2.5317 -0.8302 -2.4189
  306MOL0     H42219   8.735  10.840   9.041  0.9279 -0.0021 -0.2346
  306MOL0     H42220   8.799  10.679   8.790 -3.1777 -3.0648 -1.5322
  306MOL0     H42221   8.735  10.616   8.937  3.8750 -0.6266 -1.7777
  306MOL0     H42222   8.546  10.776   8.943 -0.2122  1.7993 -1.0263
  306MOL0     H42223   8.551  10.675   8.805 -0.5090 -0.8412  1.8830
  306MOL0     H42224   8.556  11.025   8.597  1.9187  0.1044 -0.3567
  306MOL0     H42225   9.123  10.611   8.748 -0.1879 -1.8679 -0.4919
  306MOL0     H42226   9.408  10.436   8.709  0.7317  0.5408 -0.0366
  306MOL0     H42227   9.280  10.304   8.703  0.5850 -1.1069  1.4306
  306MOL0     H42228   9.256  10.469   8.636 -0.0107  0.6154  1.2134
  307MOL0     O42229   4.558  10.443   8.079 -0.2509  0.1141 -0.2980
  307MOL0     C42230   4.454  10.420   8.023  0.5100 -1.0908  0.0489
  307MOL0     O42231   4.417  10.308   7.958 -0.8679 -0.0461 -0.2168
  307MOL0     C42232   4.520  10.218   7.943 -0.0114 -0.9444  0.1496
  307MOL0     C42233   4.497  10.083   7.980 -0.4944  0.4135 -0.9547
  307MOL0     C42234   4.586   9.981   7.956 -0.5261 -0.1535 -0.1192
  307MOL0     C42235   4.705  10.007   7.890  0.3006 -0.8332  0.1742
  307MOL0     O42236   4.788   9.902   7.871  0.2661  0.0683  0.3277
  307MOL0     C42237   4.922   9.942   7.848  0.3066 -0.0143  0.1581
  307MOL0     C42238   5.017   9.816   7.840  0.0077  1.0551 -0.8174
  307MOL0     C42239   5.011   9.750   7.976  0.0124 -0.1265 -0.0470
  307MOL0     C42240   5.144   9.666   7.994  0.6112  0.0105  0.4844
  307MOL0     C42241   5.144   9.607   8.135 -1.1870 -0.0362  0.2380
  307MOL0     C42242   5.234   9.477   8.149 -0.1510 -0.6258  0.5219
  307MOL0     C42243   5.369   9.504   8.094  0.3708  0.1167  0.4469
  307MOL0     C42244   5.382   9.423   7.968 -0.4858  0.4526 -0.1915
  307MOL0     N42245   5.505   9.440   7.892 -0.5532 -0.4049  0.0237
  307MOL0     C42246   5.522   9.547   7.801 -0.1988  0.4861 -0.6824
  307MOL0     C42247   5.650   9.541   7.762 -0.1114  0.5668  0.6456
  307MOL0     C42248   5.707   9.631   7.651  0.5778  0.0197 -0.1437
  307MOL0     C42249   5.817   9.567   7.573 -0.7407  0.4680  0.6299
  307MOL0     C42250   5.952   9.575   7.651 -0.4451 -0.3950  0.5043
  307MOL0     C42251   6.074   9.511   7.581  0.2668 -0.4256 -0.2903
  307MOL0     O42252   6.182   9.564   7.651  0.2420  0.0749  1.1332
  307MOL0     C42253   6.310   9.531   7.610 -0.1325 -0.7479  0.3571
  307MOL0     C42254   6.411   9.584   7.692 -0.1748 -0.1561 -0.3489
  307MOL0     C42255   6.552   9.575   7.651  0.2521 -0.4182  0.3825
  307MOL0     C42256   6.666   9.645   7.727  0.9258 -0.2233 -0.3172
  307MOL0     C42257   6.586   9.523   7.518 -0.4078  0.4189 -0.9117
  307MOL0     C42258   6.720   9.507   7.467 -0.2760 -0.3822 -0.7986
  307MOL0     O42259   6.748   9.568   7.354  0.8666  0.6029  0.3995
  307MOL0     C42260   6.871   9.533   7.300  1.1249 -0.1920  0.5298
  307MOL0     C42261   6.883   9.434   7.200 -0.6370  0.0311 -0.7354
  307MOL0     C42262   7.016   9.410   7.144  1.3464 -0.2650  0.1386
  307MOL0     C42263   7.134   9.458   7.204 -0.2697 -0.3952 -0.2590
  307MOL0     O42264   7.251   9.406   7.154  0.4676  0.2134 -0.5775
  307MOL0     C42265   7.373   9.435   7.219 -0.4902 -0.1590  0.0952
  307MOL0     C42266   7.488   9.351   7.148  0.8419  0.3568 -0.1947
  307MOL0     C42267   7.505   9.350   6.999 -0.1880  0.3266  0.1599
  307MOL0     C42268   7.611   9.254   6.940 -0.5053  0.0776  0.2984
  307MOL0     C42269   7.635   9.290   6.794  0.0742 -0.2991 -0.1335
  307MOL0     C42270   7.701   9.163   6.730 -0.0688  0.5463 -0.5093
  307MOL0     C42271   7.842   9.167   6.776 -0.7291 -0.4046  0.0966
  307MOL0     C42272   7.931   9.054   6.720 -0.1676 -0.9952 -0.5366
  307MOL0    Cl42273   7.862   8.892   6.759 -0.1459  0.6815 -0.1927
  307MOL0     C42274   7.120   9.564   7.301  0.6905  0.5920  0.9489
  307MOL0     C42275   6.988   9.600   7.349  0.6692 -0.0426  0.4198
  307MOL0     O42276   6.793   9.429   7.525 -0.5948  0.8720 -0.5027
  307MOL0     C42277   6.487   9.451   7.453  0.0827  0.5451  0.4035
  307MOL0     C42278   6.357   9.450   7.499  0.1523  0.8561  0.1832
  307MOL0     N42279   5.713   9.433   7.839 -0.3572  0.5889  0.1966
  307MOL0     N42280   5.627   9.380   7.919 -0.0413  1.3740  0.6499
  307MOL0     C42281   4.737  10.144   7.854  0.1600 -0.1443  0.3705
  307MOL0     C42282   4.643  10.249   7.874 -0.5194  0.1360 -0.1258
  307MOL0     C42283   4.345  10.530   8.032  0.4901  0.8174  0.8910
  307MOL0     C42284   4.224  10.494   7.964  0.7381 -0.2653 -0.4166
  307MOL0     C42285   4.119  10.589   7.962  0.0874  0.3242 -0.0749
  307MOL0     C42286   4.130  10.707   8.032  0.0534  0.2041 -0.4535
  307MOL0     O42287   4.038  10.813   8.046 -0.2875 -0.4470 -0.8009
  307MOL0     C42288   3.909  10.802   7.997  0.6248  0.0052  0.1655
  307MOL0     C42289   3.918  10.859   7.847 -0.2223 -0.2411 -0.0172
  307MOL0     C42290   3.784  10.856   7.778 -0.7703 -0.4721  0.4524
  307MOL0     C42291   3.783  10.951   7.657  0.3176 -0.2685 -0.5819
  307MOL0     C42292   3.906  10.964   7.579  0.2649  0.0741 -0.5597
  307MOL0     C42293   4.003  10.962   7.504  0.2114  0.3017  0.0200
  307MOL0     C42294   4.252  10.736   8.101  0.2407 -0.2000  0.7724
  307MOL0     C42295   4.356  10.643   8.109 -0.0611  0.0603  0.2694
  307MOL0     C42296   4.462  10.679   8.205 -0.1740 -0.6261 -0.6680
  307MOL0     H42297   4.406  10.070   8.037  1.4272  1.7754  2.8388
  307MOL0     H42298   4.566   9.877   7.979  0.3851 -0.0055  1.5015
  307MOL0     H42299   4.966  10.017   7.914  0.0398  0.4785 -0.2141
  307MOL0     H42300   4.921   9.983   7.747  0.6648 -1.3900 -0.4305
  307MOL0     H42301   4.989   9.736   7.771  0.7664 -0.4948  0.5966
  307MOL0     H42302   5.121   9.837   7.816 -0.1467  3.5915  0.2963
  307MOL0     H42303   4.998   9.824   8.055 -1.9977 -1.1308  0.6387
  307MOL0     H42304   4.923   9.685   7.978 -2.6766  3.2840  0.2526
  307MOL0     H42305   5.122   9.589   7.919  2.3160  1.6437 -1.7987
  307MOL0     H42306   5.234   9.727   7.984  1.3984 -1.0041  1.2280
  307MOL0     H42307   5.045   9.587   8.177 -0.9638  2.8034  2.4306
  307MOL0     H42308   5.189   9.676   8.207  0.9287 -2.4167  1.3502
  307MOL0     H42309   5.246   9.430   8.247  1.7714  0.0777  0.6683
  307MOL0     H42310   5.174   9.403   8.095 -3.8585  0.4532  2.8097
  307MOL0     H42311   5.441   9.469   8.168  0.8562 -1.7626 -0.8287
  307MOL0     H42312   5.392   9.610   8.084 -1.3312  0.3461 -1.9972
  307MOL0     H42313   5.378   9.319   8.000 -1.2040  0.8931  1.2145
  307MOL0     H42314   5.297   9.445   7.902 -0.0901  2.4255 -0.1235
  307MOL0     H42315   5.441   9.617   7.781 -0.3461  0.2417 -0.9399
  307MOL0     H42316   5.739   9.719   7.708  0.9150 -0.8041  0.9674
  307MOL0     H42317   5.633   9.681   7.587 -2.0568 -3.2085  0.1325
  307MOL0     H42318   5.797   9.461   7.554  1.5373  0.3042 -1.4123
  307MOL0     H42319   5.833   9.616   7.477 -1.0792  0.5953  0.6375
  307MOL0     H42320   5.976   9.680   7.669 -1.8661  0.0699 -0.1947
  307MOL0     H42321   5.939   9.539   7.754  0.0017  0.0943  0.7391
  307MOL0     H42322   6.071   9.402   7.578 -1.8315 -0.4153  0.1019
  307MOL0     H42323   6.084   9.546   7.478  1.0691 -3.7662 -1.4723
  307MOL0     H42324   6.387   9.623   7.790 -0.2982  1.5176 -1.0260
  307MOL0     H42325   6.674   9.744   7.680  3.6464 -1.6334 -3.1651
  307MOL0     H42326   6.764   9.598   7.733  1.3641  0.6057 -0.7184
  307MOL0     H42327   6.632   9.675   7.827 -2.2143 -0.2520 -1.2826
  307MOL0     H42328   6.798   9.386   7.153 -0.4607 -0.0018 -1.0203
  307MOL0     H42329   7.009   9.345   7.057 -1.6984  0.9816 -0.6667
  307MOL0     H42330   7.392   9.540   7.197  3.8003 -1.3867 -3.2787
  307MOL0     H42331   7.366   9.439   7.328 -1.7946 -0.1969  0.0367
  307MOL0     H42332   7.579   9.370   7.205  1.5157  1.1700 -1.4914
  307MOL0     H42333   7.460   9.246   7.164  2.3617 -1.0044 -4.8676
  307MOL0     H42334   7.526   9.454   6.975  0.6283 -0.4536 -2.8900
  307MOL0     H42335   7.410   9.322   6.951 -0.3264 -0.8568  1.0856
  307MOL0     H42336   7.571   9.153   6.946 -0.2136 -0.0385  0.2628
  307MOL0     H42337   7.705   9.248   6.995 -1.0366 -0.4019  1.1668
  307MOL0     H42338   7.539   9.293   6.741  2.2357  1.2354 -4.3672
  307MOL0     H42339   7.693   9.382   6.785 -0.8275  0.4960  1.6238
  307MOL0     H42340   7.699   9.165   6.621  0.3211 -2.4205 -0.6498
  307MOL0     H42341   7.651   9.067   6.746  2.8158 -0.6033  2.7776
  307MOL0     H42342   7.855   9.144   6.882 -0.1631 -1.3089 -0.1646
  307MOL0     H42343   7.879   9.270   6.764 -1.6869 -0.1972 -1.3433
  307MOL0     H42344   8.034   9.056   6.757  0.9790 -0.2526 -3.4601
  307MOL0     H42345   7.935   9.067   6.611  3.3956  0.4708 -0.3668
  307MOL0     H42346   7.211   9.613   7.331  1.1867  1.3416 -1.5729
  307MOL0     H42347   6.962   9.681   7.416 -1.4080 -0.1121 -0.2258
  307MOL0     H42348   6.516   9.388   7.369  0.7269 -0.2356  1.1869
  307MOL0     H42349   6.285   9.380   7.456 -1.6995  0.5846  3.3572
  307MOL0     H42350   4.838  10.157   7.815  0.4575  0.2942  1.2754
  307MOL0     H42351   4.663  10.350   7.839  2.8980 -0.2810  0.2419
  307MOL0     H42352   4.206  10.398   7.915 -0.3718 -0.7530  0.8621
  307MOL0     H42353   4.022  10.567   7.918  1.0091  1.1430 -2.7247
  307MOL0     H42354   3.877  10.698   8.006 -2.5721  0.9615  1.1886
  307MOL0     H42355   3.836  10.862   8.053  0.0696  2.5614 -2.9715
  307MOL0     H42356   3.988  10.794   7.794 -2.2337 -4.4590  1.9649
  307MOL0     H42357   3.952  10.963   7.849 -1.1082  0.0587  0.2830
  307MOL0     H42358   3.756  10.757   7.742 -0.7152 -0.3339  0.0245
  307MOL0     H42359   3.702  10.879   7.846  0.9054  0.4444  2.2778
  307MOL0     H42360   3.752  11.053   7.680  2.8267  1.2975 -3.4584
  307MOL0     H42361   3.705  10.915   7.588 -0.7675  1.3703 -0.2754
  307MOL0     H42362   4.088  10.947   7.440 -0.0078  0.2177 -0.2533
  307MOL0     H42363   4.262  10.827   8.159  0.2493 -0.6774  1.5349
  307MOL0     H42364   4.504  10.598   8.266 -0.0740  0.5594  0.9105
  307MOL0     H42365   4.547  10.720   8.150  1.1025 -0.6440  1.1816
  307MOL0     H42366   4.422  10.755   8.272 -0.0094  1.0953 -2.4282
  308MOL0     O42367   1.989   0.980   5.150 -0.3761 -0.2014 -0.3754
  308MOL0     C42368   1.989   0.883   5.086  0.2706 -0.1619  0.3134
  308MOL0     O42369   1.894   0.855   4.987  0.1624  0.4174 -0.7674
  308MOL0     C42370   1.793   0.932   4.953 -0.4810  0.2066  0.4784
  308MOL0     C42371   1.696   0.983   5.042  0.9364 -1.1454  0.8968
  308MOL0     C42372   1.610   1.080   4.993  1.5647 -0.4666  0.5039
  308MOL0     C42373   1.625   1.132   4.857  0.2317 -0.6449  0.2134
  308MOL0     O42374   1.538   1.217   4.796  0.3650  0.4508  0.0156
  308MOL0     C42375   1.433   1.279   4.865 -0.0868  0.5308  0.3736
  308MOL0     C42376   1.353   1.384   4.787 -0.1481  0.7261 -0.3561
  308MOL0     C42377   1.443   1.507   4.754  0.5612  0.5420  0.3858
  308MOL0     C42378   1.460   1.602   4.865 -0.5737  0.4524  0.1299
  308MOL0     C42379   1.607   1.654   4.869  1.4350  0.2779 -0.2855
  308MOL0     C42380   1.632   1.735   4.742 -0.3350 -0.3379  0.3594
  308MOL0     C42381   1.768   1.792   4.730 -0.6216  0.0806 -0.9198
  308MOL0     C42382   1.855   1.709   4.643  0.1827 -0.1110 -0.4177
  308MOL0     N42383   1.874   1.571   4.698 -0.1750 -0.7799  0.5548
  308MOL0     C42384   1.932   1.542   4.819  0.3118  0.5318  0.6220
  308MOL0     C42385   1.920   1.407   4.832 -0.5350 -1.9710  0.7912
  308MOL0     C42386   1.968   1.315   4.945 -0.5261 -0.2301  0.3196
  308MOL0     C42387   2.122   1.304   4.939  0.3647  0.1727  0.3917
  308MOL0     C42388   2.162   1.193   4.844  0.5076  0.6592  1.1862
  308MOL0     C42389   2.298   1.194   4.780  0.0314  0.0189 -0.1930
  308MOL0     O42390   2.399   1.209   4.875 -0.2038 -0.4339  0.7158
  308MOL0     C42391   2.528   1.208   4.832  0.5887  0.1815  0.0214
  308MOL0     C42392   2.631   1.198   4.936 -0.2924  1.0711  0.0166
  308MOL0     C42393   2.769   1.203   4.903 -0.4797  0.8654 -0.6500
  308MOL0     C42394   2.860   1.178   5.023 -0.1543 -0.3354  0.0475
  308MOL0     C42395   2.808   1.217   4.768 -0.0052  0.5921 -0.9842
  308MOL0     C42396   2.953   1.239   4.724 -0.4434 -0.7826 -0.3118
  308MOL0     O42397   2.985   1.183   4.601  0.1293 -0.3561  0.2400
  308MOL0     C42398   3.094   1.228   4.530  0.9443 -0.5059 -0.4767
  308MOL0     C42399   3.223   1.191   4.576  0.1593 -0.9743 -0.0150
  308MOL0     C42400   3.332   1.212   4.495  0.7379 -0.7623  0.1081
  308MOL0     C42401   3.317   1.279   4.373 -0.4343 -0.0181  0.3175
  308MOL0     O42402   3.426   1.324   4.298 -0.0420 -1.0532 -0.3660
  308MOL0     C42403   3.561   1.270   4.318 -0.0965 -0.1163  0.4144
  308MOL0     C42404   3.659   1.363   4.240 -0.5917 -0.6067  0.1795
  308MOL0     C42405   3.665   1.317   4.095  0.6047 -0.1957 -0.1872
  308MOL0     C42406   3.759   1.403   4.017  0.5160  0.1961 -0.8120
  308MOL0     C42407   3.737   1.378   3.862  0.5559  0.2829  0.8240
  308MOL0     C42408   3.833   1.462   3.769  0.6728 -0.2521 -0.2928
  308MOL0     C42409   3.797   1.439   3.622 -0.0929 -0.3374  0.4224
  308MOL0     C42410   3.910   1.497   3.535  0.0434 -0.5558 -0.0556
  308MOL0    Cl42411   3.848   1.537   3.374 -0.2434  0.3886  0.1639
  308MOL0     C42412   3.188   1.325   4.331 -0.0021 -1.0737 -0.0406
  308MOL0     C42413   3.074   1.294   4.412  0.1671 -0.0403 -0.2069
  308MOL0     O42414   3.030   1.309   4.787 -0.0159 -0.2106  0.4255
  308MOL0     C42415   2.708   1.229   4.674 -0.6776  0.1974 -0.5706
  308MOL0     C42416   2.573   1.218   4.697 -0.3851 -0.9629 -0.3918
  308MOL0     N42417   1.888   1.354   4.710  0.2608 -1.0186 -0.4003
  308MOL0     N42418   1.859   1.454   4.632 -0.1779 -0.4101 -0.4768
  308MOL0     C42419   1.717   1.084   4.772  0.3680  0.6999 -0.2554
  308MOL0     C42420   1.801   0.982   4.822  0.1575 -0.7641 -0.1349
  308MOL0     C42421   2.115   0.804   5.086  0.8139 -0.4663 -0.1648
  308MOL0     C42422   2.205   0.815   4.977  0.4636  0.5484  0.5102
  308MOL0     C42423   2.332   0.754   4.979  0.3678  0.6294  0.4921
  308MOL0     C42424   2.371   0.694   5.098 -0.3544  0.5331 -0.6441
  308MOL0     O42425   2.500   0.645   5.095 -0.1700  0.0073  0.3406
  308MOL0     C42426   2.596   0.710   5.175 -0.5045 -0.2639 -0.6511
  308MOL0     C42427   2.673   0.805   5.088 -0.4171 -0.2647  0.0901
  308MOL0     C42428   2.755   0.742   4.970 -0.7883  0.2713 -0.2825
  308MOL0     C42429   2.858   0.849   4.914  0.9360  0.5469 -0.0458
  308MOL0     C42430   2.942   0.800   4.805 -0.6728 -0.7884  0.2377
  308MOL0     C42431   3.007   0.754   4.712  0.2493  0.8610  0.1263
  308MOL0     C42432   2.281   0.683   5.206 -0.3058  0.2120 -0.1822
  308MOL0     C42433   2.154   0.743   5.200 -0.3504 -0.9200 -0.5852
  308MOL0     C42434   2.058   0.725   5.328 -0.0937  0.4467 -0.0985
  308MOL0     H42435   1.691   0.927   5.135  1.3124 -1.6021  0.6431
  308MOL0     H42436   1.544   1.133   5.060  0.1650  1.7043 -2.3478
  308MOL0     H42437   1.470   1.339   4.949  0.4212  1.9171 -0.7835
  308MOL0     H42438   1.356   1.213   4.906 -0.6528  0.0899 -1.3206
  308MOL0     H42439   1.330   1.334   4.693  0.3942  0.9466 -0.6142
  308MOL0     H42440   1.259   1.411   4.835 -1.6956 -2.9402 -0.9453
  308MOL0     H42441   1.536   1.465   4.714 -0.7076 -1.2359 -0.8708
  308MOL0     H42442   1.382   1.546   4.672 -1.1659 -0.9623  0.8804
  308MOL0     H42443   1.395   1.686   4.839  0.9923  1.6247 -0.1455
  308MOL0     H42444   1.432   1.556   4.960 -0.9806 -0.8657 -0.5970
  308MOL0     H42445   1.681   1.573   4.879  1.2795  0.2191  0.4606
  308MOL0     H42446   1.610   1.724   4.953  1.1790 -1.0788  0.9087
  308MOL0     H42447   1.611   1.668   4.658  0.3350  1.3786 -1.2430
  308MOL0     H42448   1.567   1.823   4.731  1.9027  1.4394  0.6630
  308MOL0     H42449   1.816   1.804   4.827 -1.4011 -2.7509 -0.0976
  308MOL0     H42450   1.763   1.893   4.688 -0.1503  1.2390  1.6497
  308MOL0     H42451   1.814   1.710   4.542 -2.0155  0.4365  0.4168
  308MOL0     H42452   1.951   1.761   4.643  0.4035 -0.4093 -3.0062
  308MOL0     H42453   1.966   1.616   4.891 -1.9769  2.9250 -0.5839
  308MOL0     H42454   1.930   1.213   4.938 -1.5749  0.0109  1.9295
  308MOL0     H42455   1.934   1.350   5.043  0.0615 -0.3354  0.5659
  308MOL0     H42456   2.169   1.400   4.915  1.6201 -0.8944 -1.8004
  308MOL0     H42457   2.155   1.291   5.043  1.3831  0.4650  0.1197
  308MOL0     H42458   2.154   1.100   4.901 -2.7060 -0.0201 -0.1384
  308MOL0     H42459   2.103   1.182   4.753  1.6142 -0.7926  0.6008
  308MOL0     H42460   2.311   1.093   4.740  0.7960 -0.4345  1.1356
  308MOL0     H42461   2.312   1.275   4.707  0.7849 -1.7539 -2.1155
  308MOL0     H42462   2.595   1.181   5.037 -0.3143 -1.7311 -0.3944
  308MOL0     H42463   2.927   1.261   5.045 -1.9889  1.0242  0.7519
  308MOL0     H42464   2.908   1.080   5.021 -0.7356 -0.6248 -0.2557
  308MOL0     H42465   2.787   1.175   5.105 -2.2297 -1.1830 -1.7316
  308MOL0     H42466   3.226   1.134   4.668 -0.6314 -0.9299  0.0434
  308MOL0     H42467   3.427   1.170   4.527  2.0884  1.2933 -0.9894
  308MOL0     H42468   3.585   1.284   4.424 -1.2472  2.4289  0.4202
  308MOL0     H42469   3.571   1.163   4.298 -0.8317 -0.8569  3.5646
  308MOL0     H42470   3.626   1.467   4.242 -1.5066 -0.8895  0.7241
  308MOL0     H42471   3.762   1.349   4.274 -0.3704  0.2057 -0.1307
  308MOL0     H42472   3.565   1.330   4.052 -0.1753 -4.4145 -0.1321
  308MOL0     H42473   3.690   1.210   4.097  1.0549 -0.0778  0.7337
  308MOL0     H42474   3.864   1.384   4.042  0.2054  0.2211  0.6313
  308MOL0     H42475   3.730   1.505   4.046  0.9864  0.7343 -2.1797
  308MOL0     H42476   3.758   1.272   3.843  1.0762  0.4714  0.3177
  308MOL0     H42477   3.631   1.387   3.835  1.0908  1.3259 -1.0989
  308MOL0     H42478   3.938   1.454   3.796  0.7292  2.8960  0.8637
  308MOL0     H42479   3.806   1.566   3.791 -2.8834 -1.5492  2.6636
  308MOL0     H42480   3.700   1.483   3.594  0.2693  0.9917  1.1608
  308MOL0     H42481   3.789   1.333   3.599 -0.8721 -0.4814  1.3001
  308MOL0     H42482   4.002   1.437   3.532  0.2003 -0.3177 -0.0383
  308MOL0     H42483   3.935   1.595   3.577  0.4353 -0.7433  0.1630
  308MOL0     H42484   3.169   1.381   4.240  1.6282 -1.7421 -0.8308
  308MOL0     H42485   2.975   1.324   4.379 -0.0824 -0.7168 -0.1068
  308MOL0     H42486   2.739   1.236   4.570  0.2987  1.0406 -0.2534
  308MOL0     H42487   2.497   1.218   4.620 -3.2037 -0.2362  2.1540
  308MOL0     H42488   1.725   1.110   4.668  0.4759  0.2744 -0.3582
  308MOL0     H42489   1.885   0.948   4.762  0.9868  3.2751 -1.5857
  308MOL0     H42490   2.170   0.885   4.903  0.4514 -0.5578 -0.5646
  308MOL0     H42491   2.409   0.767   4.904  2.5480  1.0075  2.6812
  308MOL0     H42492   2.562   0.774   5.257  0.9050 -2.2961  1.6149
  308MOL0     H42493   2.664   0.638   5.219 -0.1328  0.2678 -0.3470
  308MOL0     H42494   2.745   0.858   5.151 -0.4621 -0.6443  0.4611
  308MOL0     H42495   2.613   0.888   5.049 -1.2702 -0.6759  0.4926
  308MOL0     H42496   2.817   0.666   5.019  1.7256  2.7397  0.5956
  308MOL0     H42497   2.684   0.692   4.903 -0.2709 -0.1597 -0.5244
  308MOL0     H42498   2.919   0.883   4.998  1.6915 -0.6880 -0.0551
  308MOL0     H42499   2.807   0.939   4.879 -0.3742  0.0972  0.6396
  308MOL0     H42500   3.061   0.710   4.631  2.4604 -0.1522  2.0250
  308MOL0     H42501   2.312   0.639   5.300 -1.7470 -1.2348 -0.3333
  308MOL0     H42502   1.952   0.710   5.302  0.3335 -2.7331 -0.4165
  308MOL0     H42503   2.081   0.629   5.376 -2.0132  0.5253  1.0986
  308MOL0     H42504   2.056   0.809   5.398  2.2799  0.1105  0.4357
  309MOL0     O42505   1.170   3.954   7.280 -0.0531  0.1488  0.3871
  309MOL0     C42506   1.155   3.952   7.401  0.6888 -0.0172 -0.2290
  309MOL0     O42507   1.253   3.982   7.494 -0.4505 -0.7054  0.3551
  309MOL0     C42508   1.377   4.031   7.474 -0.3201  0.1382 -0.9312
  309MOL0     C42509   1.421   4.117   7.374  0.9149  0.9744  0.0323
  309MOL0     C42510   1.558   4.156   7.370 -0.0407  0.2634  0.0957
  309MOL0     C42511   1.647   4.103   7.459  0.1871  0.1449 -0.5959
  309MOL0     O42512   1.778   4.138   7.476 -0.7737  0.4481 -0.7539
  309MOL0     C42513   1.841   4.237   7.393 -0.0637  0.5270 -0.3379
  309MOL0     C42514   1.977   4.276   7.458 -0.1907 -0.4534 -0.3222
  309MOL0     C42515   2.075   4.350   7.370  0.6444 -0.1737  0.2297
  309MOL0     C42516   2.017   4.461   7.278 -0.4297 -0.0822  0.6455
  309MOL0     C42517   2.107   4.481   7.151  0.3810  0.3504 -0.9255
  309MOL0     C42518   2.246   4.539   7.187 -0.4360  0.9002 -0.1877
  309MOL0     C42519   2.336   4.557   7.063 -0.2892  0.3722 -0.4564
  309MOL0     C42520   2.381   4.420   7.007  0.2487 -0.7093  0.9130
  309MOL0     N42521   2.485   4.359   7.087 -0.0288  0.4306  0.1308
  309MOL0     C42522   2.613   4.326   7.040  0.5585 -0.8316  0.2395
  309MOL0     C42523   2.655   4.220   7.114 -1.2384  0.6856 -0.0752
  309MOL0     C42524   2.768   4.123   7.091  0.4790 -0.4969  0.3306
  309MOL0     C42525   2.899   4.181   7.140 -0.6567  0.5139  0.3093
  309MOL0     C42526   3.011   4.073   7.135 -1.0920  0.4102  0.9330
  309MOL0     C42527   3.115   4.102   7.240  0.7224  0.6188  0.2633
  309MOL0     O42528   3.191   4.218   7.219  0.8406  0.4435  0.2892
  309MOL0     C42529   3.286   4.241   7.307 -1.0705  0.2679 -0.5520
  309MOL0     C42530   3.407   4.164   7.308  0.4535  0.1351 -0.0493
  309MOL0     C42531   3.508   4.205   7.398 -0.4923 -0.2382  0.1762
  309MOL0     C42532   3.643   4.142   7.365  0.2659 -0.8583 -0.0311
  309MOL0     C42533   3.491   4.319   7.485 -0.3308 -0.0416  0.5785
  309MOL0     C42534   3.597   4.358   7.584  0.4093 -1.2330 -0.1504
  309MOL0     O42535   3.584   4.475   7.640 -0.1234  0.2173 -0.3222
  309MOL0     C42536   3.634   4.496   7.765  0.0501  0.3729 -0.6031
  309MOL0     C42537   3.754   4.575   7.788 -0.4632  1.0336 -0.5237
  309MOL0     C42538   3.783   4.618   7.920 -0.1500  0.1452  0.6641
  309MOL0     C42539   3.714   4.559   8.029  0.4318  0.2241 -0.0661
  309MOL0     O42540   3.769   4.574   8.151 -0.0371 -0.2207  0.6915
  309MOL0     C42541   3.689   4.550   8.270  1.0077  0.3008 -0.1030
  309MOL0     C42542   3.779   4.578   8.398  0.2729  0.2616 -0.6812
  309MOL0     C42543   3.694   4.533   8.512 -0.0434 -0.1333  0.4292
  309MOL0     C42544   3.753   4.585   8.647 -1.2263  0.9583  0.9069
  309MOL0     C42545   3.660   4.581   8.766  0.1644  0.2739  0.4119
  309MOL0     C42546   3.537   4.677   8.748 -0.4042  0.0622 -0.4009
  309MOL0     C42547   3.464   4.687   8.878 -0.2204  0.5891  0.3873
  309MOL0     C42548   3.309   4.698   8.852 -0.2941 -0.7956  0.0455
  309MOL0    Cl42549   3.203   4.731   8.994  0.2576  0.0067 -0.3687
  309MOL0     C42550   3.598   4.488   8.002  0.0758  0.1141  0.1230
  309MOL0     C42551   3.557   4.458   7.874 -0.6637  0.3328 -0.1023
  309MOL0     O42552   3.682   4.277   7.610  0.1225  0.1929 -0.2891
  309MOL0     C42553   3.365   4.384   7.479 -0.6449 -0.3192  0.5708
  309MOL0     C42554   3.272   4.347   7.391 -0.0631 -0.4137 -0.1775
  309MOL0     N42555   2.560   4.197   7.208 -0.0439 -0.2506  0.6466
  309MOL0     N42556   2.458   4.277   7.192  0.5149  0.1576 -0.8856
  309MOL0     C42557   1.609   4.005   7.553 -0.0062  0.8782 -0.0845
  309MOL0     C42558   1.469   3.973   7.564 -0.2186  0.6597 -1.0835
  309MOL0     C42559   1.020   3.904   7.450 -0.1535 -0.3293 -0.4136
  309MOL0     C42560   1.013   3.888   7.589  0.3589  0.4332 -0.6350
  309MOL0     C42561   0.894   3.848   7.648 -0.2334  0.7703 -0.0858
  309MOL0     C42562   0.784   3.823   7.581  0.1584  0.4498  0.4412
  309MOL0     O42563   0.669   3.777   7.652  0.2263  0.4491 -0.4171
  309MOL0     C42564   0.545   3.774   7.580 -1.4034 -0.1404  0.4705
  309MOL0     C42565   0.436   3.720   7.668 -0.0327 -0.0558  0.8428
  309MOL0     C42566   0.473   3.576   7.708 -0.6323  0.6639  0.4395
  309MOL0     C42567   0.352   3.505   7.777  0.1917 -0.3518  0.3826
  309MOL0     C42568   0.244   3.486   7.680  0.7630 -0.1592 -0.2010
  309MOL0     C42569   0.158   3.435   7.612 -0.3662  0.0738 -0.4070
  309MOL0     C42570   0.788   3.850   7.446 -0.6864 -0.4033  0.1883
  309MOL0     C42571   0.906   3.874   7.370  0.1334 -0.9520 -0.3606
  309MOL0     C42572   0.896   3.900   7.223 -0.0753  0.0935 -0.7019
  309MOL0     H42573   1.355   4.154   7.296 -2.6821 -2.2694  1.1899
  309MOL0     H42574   1.585   4.215   7.283  0.4932  2.0911  1.4536
  309MOL0     H42575   1.774   4.323   7.384 -0.7898 -0.2344 -3.2093
  309MOL0     H42576   1.855   4.189   7.296  2.3472 -0.7613  0.5674
  309MOL0     H42577   1.959   4.343   7.542 -1.4224  1.8441 -2.2978
  309MOL0     H42578   2.037   4.193   7.497 -1.0284 -0.9393 -0.0315
  309MOL0     H42579   2.161   4.385   7.429 -0.1439  0.4857  1.0211
  309MOL0     H42580   2.115   4.274   7.303 -0.6759 -1.6263  1.0210
  309MOL0     H42581   1.918   4.435   7.238 -0.4531  1.1685 -0.1942
  309MOL0     H42582   2.005   4.556   7.330 -0.3442  1.1270 -1.4209
  309MOL0     H42583   2.055   4.551   7.085 -0.4465 -0.2092 -0.8781
  309MOL0     H42584   2.103   4.383   7.104 -1.4331 -1.3992  2.4812
  309MOL0     H42585   2.231   4.636   7.234 -1.8740 -0.1557  1.6504
  309MOL0     H42586   2.299   4.488   7.267 -1.7359 -0.9264 -0.4360
  309MOL0     H42587   2.422   4.623   7.078 -1.9492  3.3564 -2.7169
  309MOL0     H42588   2.270   4.594   6.984 -0.0556 -2.6751 -2.2286
  309MOL0     H42589   2.293   4.355   7.006  0.1289 -0.5516  1.2555
  309MOL0     H42590   2.412   4.440   6.904 -0.6674  1.3009  0.9805
  309MOL0     H42591   2.668   4.379   6.963 -1.2492 -1.1421 -1.3461
  309MOL0     H42592   2.753   4.095   6.986 -0.8805  1.2392  0.0118
  309MOL0     H42593   2.756   4.029   7.147  0.1235 -0.9012 -0.4017
  309MOL0     H42594   2.933   4.270   7.086  2.3110 -1.4070 -1.2570
  309MOL0     H42595   2.885   4.210   7.245 -1.5365  3.1158 -0.4553
  309MOL0     H42596   2.977   3.976   7.174 -1.1129  0.5174  1.1822
  309MOL0     H42597   3.061   4.061   7.038 -2.3241 -2.4375  0.5493
  309MOL0     H42598   3.075   4.097   7.342  0.8294  0.4926  0.2984
  309MOL0     H42599   3.185   4.020   7.229 -0.6976 -0.4258 -1.9073
  309MOL0     H42600   3.417   4.075   7.246  1.2352  0.6302 -0.6510
  309MOL0     H42601   3.670   4.063   7.435  2.9262  0.2350  0.2785
  309MOL0     H42602   3.726   4.213   7.360  0.7449 -1.4419 -0.6105
  309MOL0     H42603   3.651   4.095   7.266  0.2027 -1.3356  0.1876
  309MOL0     H42604   3.813   4.610   7.703  1.8483 -1.0007  0.1258
  309MOL0     H42605   3.872   4.679   7.933  1.5090 -2.1762  0.8136
  309MOL0     H42606   3.601   4.612   8.281 -0.1144 -1.5899  2.4005
  309MOL0     H42607   3.647   4.449   8.277  2.5526 -0.3584  0.2298
  309MOL0     H42608   3.878   4.533   8.399  0.8852  1.5399 -1.3651
  309MOL0     H42609   3.794   4.686   8.404  0.2076  0.3695 -2.1231
  309MOL0     H42610   3.690   4.424   8.521  0.4029 -0.1547  0.3916
  309MOL0     H42611   3.588   4.556   8.498 -0.0934  0.3841  1.5961
  309MOL0     H42612   3.791   4.685   8.626  0.1472  0.0388 -1.4094
  309MOL0     H42613   3.839   4.520   8.668 -2.1290 -0.9340 -0.7872
  309MOL0     H42614   3.622   4.480   8.786  2.1186 -1.0620 -2.1490
  309MOL0     H42615   3.715   4.601   8.859 -0.9895 -1.6730  1.6043
  309MOL0     H42616   3.468   4.645   8.670 -1.6030 -0.6448  0.9109
  309MOL0     H42617   3.560   4.781   8.724 -1.0128  0.9273  2.3943
  309MOL0     H42618   3.493   4.764   8.950 -3.6810 -0.3520  3.0465
  309MOL0     H42619   3.484   4.597   8.937 -1.8237  0.0635  0.1690
  309MOL0     H42620   3.274   4.622   8.781 -1.8478 -0.7034  0.6697
  309MOL0     H42621   3.305   4.794   8.798 -3.2869  1.6636  4.0433
  309MOL0     H42622   3.542   4.444   8.084  0.4690 -1.0372 -0.1940
  309MOL0     H42623   3.458   4.420   7.849 -0.1780 -1.9105  1.1098
  309MOL0     H42624   3.353   4.480   7.529 -1.5865  0.0147 -0.2755
  309MOL0     H42625   3.179   4.403   7.381 -1.0643 -1.6221  1.7973
  309MOL0     H42626   1.682   3.953   7.615 -1.1057  0.7270  1.1346
  309MOL0     H42627   1.451   3.900   7.642  3.3527  0.1222 -0.6301
  309MOL0     H42628   1.099   3.920   7.649 -0.3391  1.7005 -0.2686
  309MOL0     H42629   0.884   3.834   7.755 -1.2975 -1.4323 -0.4275
  309MOL0     H42630   0.519   3.875   7.545 -0.9524 -0.0610  0.3545
  309MOL0     H42631   0.547   3.710   7.492 -1.3219 -0.0836  0.4306
  309MOL0     H42632   0.341   3.711   7.615  0.3456 -2.6426  0.4912
  309MOL0     H42633   0.418   3.785   7.755 -2.9258 -2.3550  2.1385
  309MOL0     H42634   0.515   3.517   7.625  0.9042  0.2188  1.4867
  309MOL0     H42635   0.560   3.586   7.773 -0.3932 -0.2533  0.2843
  309MOL0     H42636   0.330   3.575   7.858 -0.3929 -0.4892  0.3473
  309MOL0     H42637   0.370   3.407   7.822 -0.2657 -0.3300  0.6156
  309MOL0     H42638   0.079   3.382   7.563 -0.3829  1.1363 -1.5905
  309MOL0     H42639   0.699   3.830   7.387 -1.4896  0.4327  1.0826
  309MOL0     H42640   0.946   3.823   7.163 -2.6022 -0.7635 -1.8440
  309MOL0     H42641   0.790   3.892   7.196  0.3063  0.5275 -2.4964
  309MOL0     H42642   0.938   3.998   7.196 -0.2300  0.0312 -1.1879
  310MOL0     O42643   3.852   8.526   3.676 -0.2964  0.5822 -0.8011
  310MOL0     C42644   3.821   8.624   3.619 -0.1275 -0.1687 -0.0395
  310MOL0     O42645   3.758   8.731   3.671 -0.7389  0.0208 -0.0547
  310MOL0     C42646   3.737   8.747   3.808  0.3562 -0.1755 -0.0287
  310MOL0     C42647   3.650   8.851   3.822  0.0367 -0.8660 -0.3875
  310MOL0     C42648   3.611   8.880   3.953  0.8192  0.0300  0.1625
  310MOL0     C42649   3.657   8.809   4.072  1.1996  0.6775  0.1866
  310MOL0     O42650   3.621   8.854   4.198  0.1028  0.0821  0.2936
  310MOL0     C42651   3.600   8.761   4.299  0.1558  1.1501  1.2020
  310MOL0     C42652   3.608   8.831   4.422  0.9132  0.9262  0.2022
  310MOL0     C42653   3.613   8.729   4.546 -0.2930 -0.2962 -0.4300
  310MOL0     C42654   3.651   8.801   4.677 -0.8236  0.3699  0.1787
  310MOL0     C42655   3.786   8.873   4.677 -0.3262 -0.0970 -0.2242
  310MOL0     C42656   3.911   8.778   4.648 -0.5600 -0.0915 -0.5777
  310MOL0     C42657   4.044   8.818   4.707  0.1333 -0.4939  0.4328
  310MOL0     C42658   4.152   8.716   4.701 -0.0811 -0.3262 -0.5817
  310MOL0     N42659   4.132   8.604   4.795 -0.3443 -0.4849 -0.1951
  310MOL0     C42660   4.141   8.473   4.758 -0.5329 -0.7423 -0.0690
  310MOL0     C42661   4.154   8.418   4.876  0.0082  0.1010 -0.7814
  310MOL0     C42662   4.167   8.266   4.899 -0.4073  0.9451 -0.1990
  310MOL0     C42663   4.039   8.184   4.883  1.0983 -0.3811  1.0872
  310MOL0     C42664   4.020   8.051   4.961 -0.4980  0.3969  0.3429
  310MOL0     C42665   4.138   7.960   4.923 -0.3236 -0.3471 -1.1128
  310MOL0     O42666   4.264   7.994   4.982  0.0438 -0.6387 -0.0928
  310MOL0     C42667   4.371   7.912   4.960  0.1865  0.1599 -0.4799
  310MOL0     C42668   4.490   7.928   5.040  0.2734 -1.0997 -0.0961
  310MOL0     C42669   4.602   7.845   5.029  1.1156 -0.0823  0.1303
  310MOL0     C42670   4.718   7.859   5.128 -0.1169 -0.1792  0.4863
  310MOL0     C42671   4.595   7.739   4.930  0.6949  0.2355 -1.1121
  310MOL0     C42672   4.697   7.634   4.905 -1.0430  0.3114 -0.0590
  310MOL0     O42673   4.704   7.578   4.780  0.3336 -0.8646 -0.3993
  310MOL0     C42674   4.807   7.486   4.762  0.1960 -0.2296  0.3075
  310MOL0     C42675   4.941   7.525   4.765 -0.3715 -0.5601  0.4069
  310MOL0     C42676   5.041   7.434   4.727 -0.3959 -0.6166 -0.8650
  310MOL0     C42677   5.003   7.298   4.682  0.1607 -0.3295 -0.3670
  310MOL0     O42678   5.099   7.200   4.652  0.3169  0.2074 -0.2607
  310MOL0     C42679   5.226   7.223   4.712 -0.1479  0.0012  0.3670
  310MOL0     C42680   5.324   7.112   4.690 -0.6952 -0.6775 -0.0889
  310MOL0     C42681   5.266   6.976   4.714  0.5119 -0.3275  0.2574
  310MOL0     C42682   5.353   6.875   4.773 -0.1820 -0.6369 -1.1654
  310MOL0     C42683   5.303   6.736   4.752  0.8659  0.6128  0.1039
  310MOL0     C42684   5.325   6.677   4.611 -0.0524 -0.1231  0.2668
  310MOL0     C42685   5.486   6.683   4.590 -0.5495 -0.7220  0.5193
  310MOL0     C42686   5.535   6.560   4.510 -0.3800  0.1823  1.7166
  310MOL0    Cl42687   5.486   6.561   4.342 -0.1351 -0.2493 -0.2381
  310MOL0     C42688   4.867   7.265   4.675 -0.3472 -0.3524  0.0926
  310MOL0     C42689   4.773   7.356   4.733 -0.1811  0.2417  0.6168
  310MOL0     O42690   4.782   7.619   4.991 -0.1234 -0.1719 -0.0795
  310MOL0     C42691   4.479   7.728   4.844 -1.1607  0.0914 -0.5639
  310MOL0     C42692   4.368   7.808   4.863 -1.0513  1.0611 -0.8813
  310MOL0     N42693   4.141   8.507   4.984 -0.1554 -0.6469  0.8539
  310MOL0     N42694   4.110   8.620   4.930 -0.4182 -0.4697  0.1281
  310MOL0     C42695   3.748   8.703   4.053  0.4612 -0.0609 -0.1717
  310MOL0     C42696   3.785   8.678   3.921  0.3297 -0.0541  0.6250
  310MOL0     C42697   3.854   8.632   3.476  1.0405  0.4240  0.2163
  310MOL0     C42698   3.750   8.689   3.392  0.1051 -0.8354  0.3149
  310MOL0     C42699   3.782   8.735   3.264  0.2912 -0.4432  0.4025
  310MOL0     C42700   3.905   8.704   3.213 -0.9725  0.4588 -0.0803
  310MOL0     O42701   3.941   8.736   3.090 -0.0530 -0.4063 -0.4187
  310MOL0     C42702   3.984   8.876   3.067 -0.2399  0.2321 -0.3465
  310MOL0     C42703   4.006   8.913   2.919  0.1825  0.1958 -2.0103
  310MOL0     C42704   4.086   8.804   2.839  0.0061 -0.2060  0.0406
  310MOL0     C42705   4.163   8.864   2.730  0.4534 -0.6132 -0.1173
  310MOL0     C42706   4.226   8.768   2.644  0.6672 -0.4345 -0.1172
  310MOL0     C42707   4.272   8.694   2.566  0.5317  1.0972  0.0459
  310MOL0     C42708   4.000   8.626   3.280  0.4199 -0.7104  0.7772
  310MOL0     C42709   3.978   8.597   3.419  0.5382 -0.0056  0.0183
  310MOL0     C42710   4.083   8.515   3.490  0.0734 -0.1062 -0.2666
  310MOL0     H42711   3.605   8.903   3.739 -2.4435 -0.8429  0.8797
  310MOL0     H42712   3.542   8.960   3.977 -0.2375 -1.2194  1.5547
  310MOL0     H42713   3.685   8.692   4.304  1.1677  2.4611  3.7119
  310MOL0     H42714   3.500   8.718   4.290 -0.2805  2.5586 -1.8643
  310MOL0     H42715   3.710   8.872   4.419  2.3282 -2.3000  0.3147
  310MOL0     H42716   3.523   8.900   4.430 -1.5402 -1.6224 -1.9762
  310MOL0     H42717   3.520   8.676   4.569 -0.2171  0.2306  1.2120
  310MOL0     H42718   3.697   8.661   4.524 -0.9072 -1.1247 -0.2532
  310MOL0     H42719   3.572   8.871   4.707 -4.6268 -2.6361 -1.8723
  310MOL0     H42720   3.650   8.725   4.755  2.0115 -0.9838 -0.9640
  310MOL0     H42721   3.806   8.917   4.775  3.7563 -0.3843 -0.7628
  310MOL0     H42722   3.799   8.956   4.607  3.3862  0.0756  0.4481
  310MOL0     H42723   3.878   8.680   4.682  1.8520 -1.2984 -1.4691
  310MOL0     H42724   3.924   8.778   4.540  1.7831  2.3355 -0.4205
  310MOL0     H42725   4.020   8.857   4.806 -0.7290  1.0020 -0.3235
  310MOL0     H42726   4.093   8.910   4.674  0.2008  1.8068  5.8998
  310MOL0     H42727   4.153   8.682   4.597 -0.1263  0.1769 -0.7534
  310MOL0     H42728   4.246   8.764   4.731 -1.1274  1.5494 -0.1464
  310MOL0     H42729   4.142   8.416   4.666 -2.1757 -0.6573 -0.1549
  310MOL0     H42730   4.188   8.248   5.005  0.3263 -0.5868 -0.5698
  310MOL0     H42731   4.244   8.223   4.833 -0.6702 -0.7257  0.5430
  310MOL0     H42732   3.950   8.241   4.911 -0.2101 -1.9271  0.2900
  310MOL0     H42733   4.011   8.179   4.777 -2.1358  1.5383  1.7194
  310MOL0     H42734   4.023   8.071   5.069 -1.5239 -0.4216  0.5402
  310MOL0     H42735   3.933   7.987   4.944 -0.7240 -0.9581  5.0989
  310MOL0     H42736   4.119   7.859   4.960 -2.9179  0.7177  0.8538
  310MOL0     H42737   4.153   7.955   4.815  1.7246  1.3113 -0.9740
  310MOL0     H42738   4.499   8.012   5.108 -0.9351 -1.4085  0.4592
  310MOL0     H42739   4.702   7.775   5.196  1.8541 -0.3211  0.8465
  310MOL0     H42740   4.702   7.956   5.176 -3.2162  0.6406 -1.8759
  310MOL0     H42741   4.816   7.834   5.087 -0.3056  0.7844 -0.6029
  310MOL0     H42742   4.975   7.625   4.790 -0.8193 -0.4579  0.6063
  310MOL0     H42743   5.143   7.469   4.726  0.1228 -1.9611  0.7066
  310MOL0     H42744   5.267   7.308   4.656 -0.0585 -2.9673 -4.6558
  310MOL0     H42745   5.231   7.252   4.817  2.8002 -1.2092  0.6525
  310MOL0     H42746   5.366   7.107   4.590  1.6113  0.6834  0.7427
  310MOL0     H42747   5.413   7.116   4.753  0.0740 -0.8680 -1.1505
  310MOL0     H42748   5.216   6.944   4.622 -2.8829 -0.0857  1.8831
  310MOL0     H42749   5.186   6.993   4.787 -0.9706 -1.5406 -1.0191
  310MOL0     H42750   5.354   6.885   4.882  1.2525 -0.3974 -1.1733
  310MOL0     H42751   5.457   6.889   4.743 -0.3542 -0.1473 -1.5355
  310MOL0     H42752   5.331   6.664   4.830 -0.9280 -0.2314  0.0215
  310MOL0     H42753   5.194   6.726   4.760  1.0308 -1.6411  0.3579
  310MOL0     H42754   5.266   6.731   4.536  0.8685 -0.9532 -1.1118
  310MOL0     H42755   5.292   6.572   4.608  1.2745 -0.5475 -1.7009
  310MOL0     H42756   5.531   6.675   4.690  0.2832  1.6279  0.3853
  310MOL0     H42757   5.518   6.774   4.540 -0.7369 -0.7557  0.3366
  310MOL0     H42758   5.492   6.464   4.542  0.5333 -0.5368  0.8685
  310MOL0     H42759   5.644   6.553   4.514 -0.2309 -0.4934 -1.2492
  310MOL0     H42760   4.835   7.166   4.648 -0.6062 -0.3520  0.3899
  310MOL0     H42761   4.669   7.333   4.750 -1.1213  3.2413 -0.4192
  310MOL0     H42762   4.475   7.646   4.773 -1.9917 -2.4043  2.1752
  310MOL0     H42763   4.297   7.787   4.785 -1.8625 -0.3935  0.1958
  310MOL0     H42764   3.798   8.651   4.135  0.2580 -1.4424 -0.8920
  310MOL0     H42765   3.851   8.595   3.898  0.2314 -0.7817  2.6962
  310MOL0     H42766   3.646   8.714   3.411  0.4175  0.6093  0.1756
  310MOL0     H42767   3.726   8.789   3.189  1.1623  0.6300  0.5030
  310MOL0     H42768   3.920   8.948   3.118 -1.4941  0.1997 -1.8394
  310MOL0     H42769   4.080   8.888   3.119 -0.9914  1.2038  0.8539
  310MOL0     H42770   4.044   9.016   2.920 -0.8903  0.6470 -3.6789
  310MOL0     H42771   3.905   8.917   2.878 -1.3048 -1.3239  1.1505
  310MOL0     H42772   4.155   8.759   2.911  1.9491 -0.0843 -1.6612
  310MOL0     H42773   4.017   8.725   2.808 -0.2462 -0.7922  1.9679
  310MOL0     H42774   4.241   8.929   2.770  0.1399 -0.2388 -0.1098
  310MOL0     H42775   4.111   8.931   2.661 -0.2574  1.2543  2.1225
  310MOL0     H42776   4.310   8.631   2.489 -0.8060  0.7035 -0.3170
  310MOL0     H42777   4.091   8.605   3.224 -0.0817 -0.4563 -0.1628
  310MOL0     H42778   4.103   8.557   3.589 -2.3593  0.4232  0.0429
  310MOL0     H42779   4.043   8.415   3.506 -1.1224  0.3610 -0.2938
  310MOL0     H42780   4.172   8.512   3.425  2.0985 -1.2488  2.3762
  311MOL0     O42781   7.371   5.681   4.433 -0.4351  0.0971  0.8765
  311MOL0     C42782   7.302   5.584   4.391 -0.2522 -0.2296  0.1835
  311MOL0     O42783   7.322   5.525   4.277  0.3663  0.9424 -0.0653
  311MOL0     C42784   7.431   5.555   4.194  1.3791 -0.2552  0.6389
  311MOL0     C42785   7.407   5.550   4.054 -0.8350 -0.3039 -0.2524
  311MOL0     C42786   7.510   5.582   3.963  0.2121  0.1139 -0.1837
  311MOL0     C42787   7.637   5.611   4.006  0.3699 -0.7189 -1.2787
  311MOL0     O42788   7.747   5.635   3.928  0.4833 -0.3786 -0.3601
  311MOL0     C42789   7.724   5.659   3.793 -0.1183  0.2227 -0.0878
  311MOL0     C42790   7.732   5.522   3.720 -0.6474  0.6237 -0.4105
  311MOL0     C42791   7.697   5.545   3.574 -0.5571 -0.1465  0.3712
  311MOL0     C42792   7.832   5.569   3.506  0.0809 -0.1601  1.0928
  311MOL0     C42793   7.818   5.578   3.347  0.3273  0.3829  0.2069
  311MOL0     C42794   7.961   5.582   3.287 -1.3201 -0.2525  0.7180
  311MOL0     C42795   7.950   5.634   3.140  0.1177 -0.2285 -0.7101
  311MOL0     C42796   7.871   5.553   3.038  0.9838  1.1237 -0.3580
  311MOL0     N42797   7.950   5.439   2.989  0.7146 -0.4723 -0.5171
  311MOL0     C42798   8.005   5.446   2.858 -0.1139 -0.2515 -0.0850
  311MOL0     C42799   8.084   5.336   2.861 -0.3368  0.4780 -0.0272
  311MOL0     C42800   8.178   5.276   2.755  0.3830  0.2214  0.6545
  311MOL0     C42801   8.297   5.369   2.717 -0.1822 -0.0312  0.8184
  311MOL0     C42802   8.379   5.410   2.836 -1.2859  0.4017 -0.9796
  311MOL0     C42803   8.470   5.298   2.896 -0.1689 -0.8222 -0.5434
  311MOL0     O42804   8.557   5.371   2.989  0.2752  0.3353 -0.0635
  311MOL0     C42805   8.504   5.433   3.093 -0.3505 -0.1616  0.8203
  311MOL0     C42806   8.566   5.547   3.136 -0.0610  0.8851 -0.1486
  311MOL0     C42807   8.540   5.615   3.259 -0.4607 -0.5293  0.8943
  311MOL0     C42808   8.594   5.758   3.264  0.1413 -0.6490  0.1840
  311MOL0     C42809   8.444   5.556   3.345  0.2344  0.9896 -0.5615
  311MOL0     C42810   8.414   5.606   3.472  0.1494  0.0031 -0.3538
  311MOL0     O42811   8.293   5.576   3.517  0.4116  0.6603 -0.1044
  311MOL0     C42812   8.265   5.592   3.654  0.2015 -0.1356  0.8533
  311MOL0     C42813   8.353   5.557   3.752 -0.1980 -0.0596 -0.7662
  311MOL0     C42814   8.316   5.562   3.885  1.0257  0.9395 -0.1066
  311MOL0     C42815   8.189   5.610   3.926  0.8009 -0.3364 -0.0491
  311MOL0     O42816   8.155   5.603   4.062  0.4338  0.3456 -0.0079
  311MOL0     C42817   8.041   5.681   4.118 -0.8284  0.0057 -0.1350
  311MOL0     C42818   8.042   5.636   4.270  0.1858 -0.4400 -0.6512
  311MOL0     C42819   8.139   5.715   4.346 -0.4741  0.1276  0.2062
  311MOL0     C42820   8.101   5.867   4.353  0.4411 -0.0007  0.3521
  311MOL0     C42821   8.175   5.947   4.465  1.0357  0.5033 -0.1169
  311MOL0     C42822   8.145   5.918   4.610  0.4463  0.3934 -0.1628
  311MOL0     C42823   8.207   6.019   4.705 -0.0625  0.2186 -0.0389
  311MOL0     C42824   8.242   5.977   4.848 -0.8929  0.8662 -0.3376
  311MOL0    Cl42825   8.286   6.106   4.956  0.1302  0.0227 -0.2666
  311MOL0     C42826   8.098   5.636   3.827  0.3730 -0.8709 -0.3683
  311MOL0     C42827   8.137   5.622   3.690  0.1498  0.7455 -0.3974
  311MOL0     O42828   8.495   5.683   3.523  0.2378  0.2945  0.0462
  311MOL0     C42829   8.377   5.438   3.298  0.0460  0.2607 -0.1571
  311MOL0     C42830   8.400   5.380   3.169  0.4840 -0.5679  0.2636
  311MOL0     N42831   8.068   5.265   2.976 -0.6541 -1.0154 -0.3384
  311MOL0     N42832   7.993   5.335   3.052 -0.2690 -0.1668  0.5927
  311MOL0     C42833   7.661   5.614   4.139  0.1480 -0.5262  0.3475
  311MOL0     C42834   7.558   5.593   4.232 -0.1122 -1.3258 -0.3628
  311MOL0     C42835   7.185   5.542   4.472 -0.1479  0.6587  1.1077
  311MOL0     C42836   7.187   5.566   4.613  0.4307  0.1575 -0.4812
  311MOL0     C42837   7.085   5.533   4.700 -0.2708 -0.2662 -0.0061
  311MOL0     C42838   6.956   5.503   4.643 -0.4329  0.4465 -0.4700
  311MOL0     O42839   6.838   5.488   4.710  0.5417 -0.2133  0.1323
  311MOL0     C42840   6.785   5.619   4.761 -0.0603  0.0761  0.1393
  311MOL0     C42841   6.783   5.598   4.911 -0.2119  0.0367  0.2835
  311MOL0     C42842   6.672   5.499   4.952 -0.0559 -0.2073  0.5216
  311MOL0     C42843   6.629   5.524   5.100  0.3363 -0.3203 -0.3290
  311MOL0     C42844   6.527   5.422   5.140 -0.0630 -0.2129 -0.8085
  311MOL0     C42845   6.444   5.336   5.156  0.5875 -0.5624 -0.2815
  311MOL0     C42846   6.961   5.474   4.510  0.0143 -0.2827 -0.5200
  311MOL0     C42847   7.063   5.496   4.420 -0.3409 -0.5001  0.2701
  311MOL0     C42848   7.033   5.474   4.273  0.2856 -0.6674  1.4030
  311MOL0     H42849   7.311   5.512   4.020 -0.6644 -2.3073  1.3161
  311MOL0     H42850   7.481   5.567   3.859  0.8938 -2.2669 -0.0835
  311MOL0     H42851   7.806   5.723   3.758 -0.3269  1.6888  1.9445
  311MOL0     H42852   7.629   5.708   3.770  0.0938 -0.3252 -2.4254
  311MOL0     H42853   7.831   5.479   3.734  0.1383  2.0578 -1.3600
  311MOL0     H42854   7.650   5.461   3.761 -0.9695  1.5188  0.3327
  311MOL0     H42855   7.662   5.453   3.525 -1.7430  0.6856 -0.4053
  311MOL0     H42856   7.616   5.618   3.564 -3.6728 -3.2039  1.1124
  311MOL0     H42857   7.869   5.669   3.533  1.7801 -0.4533 -0.0291
  311MOL0     H42858   7.906   5.492   3.528  0.7774  0.3710  0.6688
  311MOL0     H42859   7.761   5.667   3.317 -0.7845  0.0429  1.2519
  311MOL0     H42860   7.773   5.487   3.305  3.0035 -0.7973 -0.3083
  311MOL0     H42861   8.039   5.643   3.335 -0.8385  0.1063 -0.4755
  311MOL0     H42862   8.010   5.484   3.291  1.1174  0.5221 -3.5626
  311MOL0     H42863   8.051   5.644   3.098  1.7385 -0.5824  2.7099
  311MOL0     H42864   7.893   5.727   3.140  0.2697 -0.1123 -2.1245
  311MOL0     H42865   7.775   5.514   3.072  1.8945  0.5980  1.7261
  311MOL0     H42866   7.844   5.611   2.949 -0.2768  0.1946 -0.6132
  311MOL0     H42867   8.005   5.526   2.784  1.6673  2.0136  2.1978
  311MOL0     H42868   8.124   5.242   2.666 -0.4212 -0.4375  1.3727
  311MOL0     H42869   8.216   5.177   2.783 -3.2184 -1.5120  0.0682
  311MOL0     H42870   8.365   5.314   2.652  0.5853  1.6538  0.1348
  311MOL0     H42871   8.266   5.457   2.659  1.2207  0.4880  0.8256
  311MOL0     H42872   8.454   5.483   2.804 -1.5468  0.7426 -0.8325
  311MOL0     H42873   8.317   5.456   2.914 -1.4991 -0.0240 -0.8937
  311MOL0     H42874   8.413   5.228   2.957  1.5502 -0.3020  1.8181
  311MOL0     H42875   8.527   5.237   2.826 -2.9854 -3.8864 -0.4086
  311MOL0     H42876   8.639   5.589   3.068 -0.3178  1.2903 -0.1744
  311MOL0     H42877   8.519   5.837   3.255  1.9490  0.9663 -5.2383
  311MOL0     H42878   8.669   5.784   3.189 -0.4271 -1.9047 -0.8605
  311MOL0     H42879   8.647   5.771   3.358 -0.1653 -1.7175  0.5158
  311MOL0     H42880   8.440   5.500   3.721  0.1578  1.3254 -2.4440
  311MOL0     H42881   8.382   5.523   3.961  2.5481  0.3961 -1.6345
  311MOL0     H42882   8.064   5.788   4.111  1.1841 -0.4808 -2.0950
  311MOL0     H42883   7.948   5.659   4.066  0.7663 -2.9302 -2.0298
  311MOL0     H42884   7.944   5.649   4.317  0.6117 -0.6996  0.3378
  311MOL0     H42885   8.075   5.532   4.281  1.4903 -0.1549 -1.6392
  311MOL0     H42886   8.232   5.728   4.289 -0.5756  0.5647  0.1310
  311MOL0     H42887   8.157   5.667   4.442  1.0226 -0.6904 -0.4563
  311MOL0     H42888   7.994   5.890   4.348 -0.5273 -3.2476  2.5685
  311MOL0     H42889   8.139   5.912   4.261  0.2246  0.1587  0.3406
  311MOL0     H42890   8.281   5.929   4.447  0.6568 -0.7659 -1.1833
  311MOL0     H42891   8.146   6.051   4.448  0.3226  0.5655  1.3430
  311MOL0     H42892   8.192   5.823   4.636  0.1383  0.8037  2.0581
  311MOL0     H42893   8.038   5.904   4.630  1.1424 -3.4799  1.7036
  311MOL0     H42894   8.132   6.097   4.720 -0.0227  0.3136 -0.3276
  311MOL0     H42895   8.297   6.060   4.659  0.1638  0.5389  0.6768
  311MOL0     H42896   8.333   5.916   4.850 -0.1803  1.9002  1.2695
  311MOL0     H42897   8.162   5.925   4.902  1.3464  0.1825  2.6365
  311MOL0     H42898   7.997   5.667   3.852  1.2061 -0.3728  2.9014
  311MOL0     H42899   8.062   5.642   3.614 -1.6017  0.2592  1.1166
  311MOL0     H42900   8.301   5.386   3.356  1.0856 -1.1943 -0.0473
  311MOL0     H42901   8.334   5.300   3.137  2.0507 -1.8458  0.1142
  311MOL0     H42902   7.764   5.630   4.170  0.9544 -1.5206 -1.6554
  311MOL0     H42903   7.587   5.612   4.335  1.3844  0.6894 -1.0951
  311MOL0     H42904   7.278   5.604   4.658  0.5409 -1.6179  0.8913
  311MOL0     H42905   7.092   5.548   4.808 -0.4147 -1.2474  0.1504
  311MOL0     H42906   6.852   5.702   4.738  1.6342 -1.1773  0.3266
  311MOL0     H42907   6.683   5.636   4.725 -0.9982 -3.0076  0.9881
  311MOL0     H42908   6.754   5.691   4.960  1.8408 -0.9383  3.6907
  311MOL0     H42909   6.884   5.571   4.942  0.5081  1.5010 -0.7032
  311MOL0     H42910   6.583   5.521   4.893 -0.7144  0.3558  1.6817
  311MOL0     H42911   6.704   5.396   4.931 -0.3163  0.0459 -1.2280
  311MOL0     H42912   6.576   5.620   5.105 -0.3972 -0.7169 -0.2678
  311MOL0     H42913   6.718   5.524   5.163  0.9074 -1.5556 -1.0941
  311MOL0     H42914   6.368   5.261   5.168  1.5642 -1.8252 -1.6066
  311MOL0     H42915   6.871   5.455   4.453  0.0631  2.5919 -1.7314
  311MOL0     H42916   6.937   5.424   4.255 -0.3575  0.6682  1.0352
  311MOL0     H42917   7.031   5.570   4.221  0.3262  0.6754  3.7683
  311MOL0     H42918   7.116   5.421   4.225  1.3711  0.2971  2.1605
  312MOL0     O42919   9.559   5.826   6.652 -0.3715 -0.1806  0.4152
  312MOL0     C42920   9.476   5.740   6.644 -0.7007  0.3035  0.4657
  312MOL0     O42921   9.494   5.618   6.583  0.0965 -0.0835 -0.2416
  312MOL0     C42922   9.626   5.593   6.535 -0.0422 -0.6578  0.0338
  312MOL0     C42923   9.685   5.641   6.419 -0.3889 -0.1150  0.5170
  312MOL0     C42924   9.805   5.597   6.372 -0.4528 -0.1734  0.2911
  312MOL0     C42925   9.880   5.513   6.450  0.6611  0.3756  0.2327
  312MOL0     O42926   9.994   5.468   6.386 -0.6966  0.0133 -0.5571
  312MOL0     C42927  10.035   5.326   6.409 -0.5749  0.6305  0.0380
  312MOL0     C42928  10.138   5.286   6.298 -0.2049 -0.0399 -0.6337
  312MOL0     C42929  10.182   5.134   6.314  0.1355  0.2163 -0.6041
  312MOL0     C42930  10.293   5.110   6.411  0.1373 -0.0021 -0.1269
  312MOL0     C42931  10.351   4.977   6.383  0.0401 -1.1078  0.2774
  312MOL0     C42932  10.465   4.944   6.484  0.0071 -0.0314  0.0798
  312MOL0     C42933  10.603   4.954   6.411  0.3340 -0.2168 -0.0901
  312MOL0     C42934  10.727   4.891   6.476  0.2816 -0.6674  0.3401
  312MOL0     N42935  10.772   4.968   6.600 -0.0318 -0.2876 -0.4686
  312MOL0     C42936  10.832   4.921   6.716  0.5617 -0.5987  0.3898
  312MOL0     C42937  10.841   5.032   6.791  0.2585 -0.0624 -0.1814
  312MOL0     C42938  10.909   5.032   6.926  0.7270 -0.7479 -0.0471
  312MOL0     C42939  11.041   5.095   6.905 -0.4883 -0.0509  0.1978
  312MOL0     C42940  11.115   5.100   7.040  0.6357 -0.1320  0.5125
  312MOL0     C42941  11.256   5.146   7.034  0.2645  0.4020 -1.0826
  312MOL0     O42942  11.306   5.088   7.154  0.8862 -0.1824  0.8780
  312MOL0     C42943  11.438   5.116   7.179  0.4777 -0.3163  0.3428
  312MOL0     C42944  11.494   5.063   7.297  0.0877  0.4467  0.1901
  312MOL0     C42945  11.637   5.083   7.324  0.2283  0.4572  0.2732
  312MOL0     C42946  11.704   5.005   7.440  0.3761 -0.2245  0.1818
  312MOL0     C42947  11.719   5.144   7.226 -0.1742  1.1576  0.2273
  312MOL0     C42948  11.864   5.134   7.227 -0.6073 -0.0415  0.4537
  312MOL0     O42949  11.935   5.251   7.210 -0.2416  0.5063 -0.4553
  312MOL0     C42950  12.076   5.260   7.228  0.3610 -0.2082 -0.1058
  312MOL0     C42951  12.178   5.163   7.235 -0.2129 -0.1054 -0.2434
  312MOL0     C42952  12.317   5.197   7.250  1.4146 -0.8565 -0.9200
  312MOL0     C42953  12.352   5.326   7.282  0.1881  0.7564 -0.4067
  312MOL0     O42954  12.484   5.347   7.319 -0.3733 -0.4080 -0.6702
  312MOL0     C42955  12.518   5.481   7.352 -0.5005 -0.0869 -0.2911
  312MOL0     C42956  12.670   5.469   7.384 -0.6555  0.2739 -0.4373
  312MOL0     C42957  12.697   5.413   7.531  0.2686  1.3271 -0.1191
  312MOL0     C42958  12.840   5.456   7.572 -0.1030  0.2043  0.3469
  312MOL0     C42959  12.882   5.387   7.702 -0.0973  0.6207 -0.0377
  312MOL0     C42960  13.013   5.447   7.752 -0.1803  0.4079  0.0342
  312MOL0     C42961  13.059   5.383   7.887  0.2840  0.0167 -0.4770
  312MOL0     C42962  13.007   5.457   8.008  1.0820 -0.6119  1.1063
  312MOL0    Cl42963  13.060   5.368   8.152  0.5348 -0.0072  0.3090
  312MOL0     C42964  12.254   5.428   7.284  0.7462  0.3663 -0.4693
  312MOL0     C42965  12.115   5.388   7.263 -0.6174 -0.9949 -0.7979
  312MOL0     O42966  11.919   5.031   7.248 -0.1817 -0.5505  0.1969
  312MOL0     C42967  11.665   5.204   7.120 -0.2907  0.0143  0.0462
  312MOL0     C42968  11.524   5.200   7.104  0.7499 -0.1989  1.1460
  312MOL0     N42969  10.796   5.141   6.717  0.2269  0.3298 -0.3467
  312MOL0     N42970  10.757   5.102   6.605  0.5955 -0.6230 -0.5532
  312MOL0     C42971   9.825   5.473   6.575 -0.6330  0.8296  0.3537
  312MOL0     C42972   9.703   5.516   6.618 -0.3987  0.6396  0.0126
  312MOL0     C42973   9.349   5.764   6.706 -0.3602 -0.2144  1.0231
  312MOL0     C42974   9.245   5.669   6.683  1.2324 -0.2817 -0.6691
  312MOL0     C42975   9.121   5.671   6.752 -0.2558 -0.0368  0.3149
  312MOL0     C42976   9.086   5.769   6.841 -0.6574 -0.1475  0.9672
  312MOL0     O42977   8.962   5.752   6.895 -0.2057  0.4803  0.8667
  312MOL0     C42978   8.871   5.866   6.874 -0.0005 -0.0408 -1.0554
  312MOL0     C42979   8.759   5.852   6.979  0.2814  0.8717  0.4179
  312MOL0     C42980   8.797   5.906   7.117  1.0041 -0.2263  0.5148
  312MOL0     C42981   8.667   5.935   7.196 -0.0052 -0.7417  0.0829
  312MOL0     C42982   8.603   5.806   7.227  0.0796  0.1952  0.6519
  312MOL0     C42983   8.538   5.716   7.270  0.4038 -0.6072  0.2374
  312MOL0     C42984   9.180   5.862   6.865 -0.4553  0.0502 -0.3169
  312MOL0     C42985   9.313   5.861   6.799  0.6826 -0.3787 -0.3528
  312MOL0     C42986   9.407   5.967   6.852 -0.9821  0.0959  0.5769
  312MOL0     H42987   9.620   5.717   6.378  1.5166  2.3336  1.7975
  312MOL0     H42988   9.839   5.629   6.274 -3.0160  2.7503  0.2126
  312MOL0     H42989   9.944   5.264   6.416 -0.6790  0.9688  3.6724
  312MOL0     H42990  10.085   5.308   6.505 -2.1424  0.4608  0.8608
  312MOL0     H42991  10.084   5.298   6.204 -0.9010 -1.9114 -0.5262
  312MOL0     H42992  10.226   5.350   6.310  0.4184 -1.2133  1.6907
  312MOL0     H42993  10.090   5.092   6.354 -0.8938  3.6519  1.0397
  312MOL0     H42994  10.196   5.086   6.216  0.1663 -0.0386 -0.4755
  312MOL0     H42995  10.374   5.183   6.404  3.2284 -3.2268 -1.1088
  312MOL0     H42996  10.254   5.114   6.513  2.2486 -1.2900  0.8082
  312MOL0     H42997  10.398   4.977   6.284  4.5425  1.1747  2.1490
  312MOL0     H42998  10.274   4.900   6.390 -0.9118 -0.3344 -1.0541
  312MOL0     H42999  10.461   5.020   6.563 -0.6048 -0.5932  0.6030
  312MOL0     H43000  10.444   4.843   6.520  1.2709 -0.3871 -0.1283
  312MOL0     H43001  10.628   5.060   6.400  1.3459 -0.2189  1.7441
  312MOL0     H43002  10.604   4.919   6.307  0.1808  1.7006 -0.7634
  312MOL0     H43003  10.698   4.791   6.509 -3.2203 -0.1861 -0.8724
  312MOL0     H43004  10.802   4.890   6.397  0.1600 -0.7928  0.2276
  312MOL0     H43005  10.872   4.822   6.733 -2.1967 -1.4407  2.6110
  312MOL0     H43006  10.919   4.931   6.967 -0.1865  0.3256  3.1231
  312MOL0     H43007  10.847   5.091   6.995  1.4040 -0.6011  0.4388
  312MOL0     H43008  11.106   5.042   6.835  1.3400  0.9175  1.0980
  312MOL0     H43009  11.025   5.199   6.878 -1.3186 -0.5671 -1.4413
  312MOL0     H43010  11.067   5.164   7.115  1.3755  1.2349 -0.1289
  312MOL0     H43011  11.122   4.995   7.070  1.2804 -0.1832  0.2119
  312MOL0     H43012  11.308   5.091   6.955  0.3596  0.1274 -0.8297
  312MOL0     H43013  11.273   5.254   7.032  0.0197  0.4994  0.9392
  312MOL0     H43014  11.439   4.992   7.357 -1.4957  3.5666  2.7257
  312MOL0     H43015  11.770   5.061   7.506  0.4439  0.0849 -0.1390
  312MOL0     H43016  11.758   4.920   7.397 -0.3489 -1.5899  1.8519
  312MOL0     H43017  11.623   4.973   7.505 -0.9085  2.3904  0.0084
  312MOL0     H43018  12.158   5.058   7.252 -1.0970  0.3310  1.8398
  312MOL0     H43019  12.396   5.122   7.249  2.0821 -0.1883 -0.3599
  312MOL0     H43020  12.509   5.549   7.267  0.1702  0.0444 -0.2674
  312MOL0     H43021  12.475   5.531   7.440 -1.7742 -0.6916 -0.5559
  312MOL0     H43022  12.735   5.412   7.317  0.5969  0.8372  0.2548
  312MOL0     H43023  12.712   5.570   7.382  1.7144 -0.6243  0.0975
  312MOL0     H43024  12.690   5.304   7.534  2.0054  1.1825 -0.3968
  312MOL0     H43025  12.626   5.461   7.599  1.3089 -0.0661  2.0544
  312MOL0     H43026  12.826   5.563   7.590 -2.0026  0.0196  0.2295
  312MOL0     H43027  12.912   5.423   7.497 -0.5312  0.5950 -0.2529
  312MOL0     H43028  12.807   5.404   7.780  0.5862  0.3295  0.6960
  312MOL0     H43029  12.905   5.282   7.682  2.7753  0.8855  1.2888
  312MOL0     H43030  12.991   5.553   7.767 -0.5852  0.5725 -1.6137
  312MOL0     H43031  13.087   5.442   7.672 -1.1903  0.9240 -0.9549
  312MOL0     H43032  13.168   5.378   7.885  0.3790  1.5229 -1.8774
  312MOL0     H43033  13.030   5.278   7.894 -0.3812  0.1441 -1.1341
  312MOL0     H43034  12.899   5.473   8.016  1.2659  1.1272  0.4953
  312MOL0     H43035  13.062   5.551   8.008  0.7066 -0.3282  3.6146
  312MOL0     H43036  12.279   5.530   7.309  1.7553 -0.0621  0.3392
  312MOL0     H43037  12.038   5.464   7.268  0.4872  0.0936  0.6152
  312MOL0     H43038  11.739   5.266   7.070 -3.3150  3.9991 -0.0821
  312MOL0     H43039  11.493   5.262   7.021  2.8175  0.4213  0.7741
  312MOL0     H43040   9.888   5.405   6.631 -0.5539  1.1697  0.6806
  312MOL0     H43041   9.661   5.481   6.712 -0.1912 -1.3077 -0.5798
  312MOL0     H43042   9.268   5.583   6.621  0.0786 -1.2141  0.1674
  312MOL0     H43043   9.050   5.589   6.745  0.4775 -0.5607 -1.5490
  312MOL0     H43044   8.916   5.963   6.898 -1.3747  1.2634 -3.3630
  312MOL0     H43045   8.830   5.876   6.773 -0.5953  2.6268 -0.6386
  312MOL0     H43046   8.726   5.748   6.988 -2.9340  1.8617  1.6039
  312MOL0     H43047   8.675   5.913   6.945 -1.1097 -0.5121  1.2267
  312MOL0     H43048   8.859   5.834   7.170 -0.5955 -1.9711  0.1219
  312MOL0     H43049   8.844   6.004   7.107  0.8388 -0.2317 -0.3687
  312MOL0     H43050   8.596   5.987   7.130  0.5304 -1.3695 -1.0158
  312MOL0     H43051   8.697   5.988   7.287 -1.0082  1.3020 -0.7069
  312MOL0     H43052   8.472   5.633   7.283  1.1319 -0.9890  1.7424
  312MOL0     H43053   9.164   5.929   6.949  1.3183  1.1272 -0.7745
  312MOL0     H43054   9.459   5.920   6.936 -0.4482 -2.5794 -1.1227
  312MOL0     H43055   9.477   6.005   6.777  0.1952  1.6455  2.3702
  312MOL0     H43056   9.351   6.050   6.895  1.6055  2.2571  0.0367
  313MOL0     O43057  10.054   3.405   5.825 -0.2033 -0.2697  0.1572
  313MOL0     C43058  10.159   3.353   5.794 -0.4788  0.8259  0.2652
  313MOL0     O43059  10.166   3.232   5.724 -1.0868 -0.2321 -0.0059
  313MOL0     C43060  10.044   3.178   5.704  0.6327 -0.8045 -0.2938
  313MOL0     C43061   9.988   3.103   5.800 -0.3207 -0.5443  0.1855
  313MOL0     C43062   9.869   3.035   5.788 -0.5147 -0.8398  0.1030
  313MOL0     C43063   9.800   3.041   5.666  0.4430  0.4911  0.4395
  313MOL0     O43064   9.682   2.989   5.629  0.4286 -0.0395  0.5517
  313MOL0     C43065   9.583   2.970   5.733 -1.0623 -0.8610  0.9559
  313MOL0     C43066   9.444   2.943   5.669 -0.2696 -0.3724  0.0127
  313MOL0     C43067   9.452   2.821   5.588 -0.2674  0.8100  0.5461
  313MOL0     C43068   9.340   2.785   5.495 -0.8141  0.7050  0.3230
  313MOL0     C43069   9.374   2.660   5.422  0.7311  0.3322 -0.3031
  313MOL0     C43070   9.467   2.675   5.297  0.0939  0.7090  0.4109
  313MOL0     C43071   9.427   2.784   5.201  0.4223 -0.0318  0.0581
  313MOL0     C43072   9.513   2.789   5.067 -0.6375  0.4360 -0.6025
  313MOL0     N43073   9.473   2.686   4.976 -0.9061  0.6412 -0.2609
  313MOL0     C43074   9.366   2.688   4.891  0.8400 -0.2425  0.9514
  313MOL0     C43075   9.379   2.583   4.809 -0.2257 -0.9301  0.0883
  313MOL0     C43076   9.290   2.553   4.692 -0.6223  0.2092 -0.0283
  313MOL0     C43077   9.249   2.407   4.690  0.0254  0.6984 -0.6911
  313MOL0     C43078   9.158   2.366   4.565  0.4576  0.9481 -0.3021
  313MOL0     C43079   9.231   2.319   4.440 -0.2767 -0.1838  0.0997
  313MOL0     O43080   9.272   2.448   4.383  0.7457 -0.4293 -0.2617
  313MOL0     C43081   9.194   2.495   4.277  0.9653 -0.1683  0.2240
  313MOL0     C43082   9.074   2.437   4.224 -0.0222 -0.9284  0.4700
  313MOL0     C43083   9.009   2.500   4.112 -0.0581  0.9099 -0.5505
  313MOL0     C43084   8.865   2.457   4.074 -1.3423 -0.2558  0.1650
  313MOL0     C43085   9.072   2.607   4.042 -0.3760  0.1921  0.8195
  313MOL0     C43086   9.033   2.666   3.913  0.2430  0.7612 -0.5053
  313MOL0     O43087   9.085   2.785   3.876 -0.4848 -0.6317 -0.3679
  313MOL0     C43088   9.040   2.849   3.767  0.3894  0.4073  0.3422
  313MOL0     C43089   9.018   2.985   3.767  0.3585 -0.7064 -0.1525
  313MOL0     C43090   8.979   3.052   3.649 -0.9812 -0.2960 -0.6167
  313MOL0     C43091   8.976   2.992   3.522 -0.2724 -1.0918  0.0687
  313MOL0     O43092   8.953   3.056   3.403  0.0238  0.5185  0.1280
  313MOL0     C43093   8.869   3.170   3.398 -0.0625 -0.7430 -0.4488
  313MOL0     C43094   8.823   3.202   3.253 -0.2505  0.7184  0.7448
  313MOL0     C43095   8.949   3.193   3.158  0.4278  0.0885 -0.1854
  313MOL0     C43096   8.898   3.187   3.011 -0.2499  0.4694  1.0159
  313MOL0     C43097   9.009   3.199   2.904  0.9581  0.2742 -0.2405
  313MOL0     C43098   8.953   3.166   2.761 -0.8137 -0.3313 -0.0586
  313MOL0     C43099   9.062   3.171   2.649  0.1867 -0.2019 -0.7368
  313MOL0     C43100   9.009   3.188   2.507  0.3954  0.3517 -0.1993
  313MOL0    Cl43101   8.894   3.049   2.501  0.2565 -0.1655 -0.4257
  313MOL0     C43102   9.006   2.854   3.520  0.9080 -0.1470 -0.1158
  313MOL0     C43103   9.028   2.781   3.640 -0.7187 -0.8419 -0.0391
  313MOL0     O43104   8.955   2.597   3.844 -0.9581  0.1038  0.1948
  313MOL0     C43105   9.187   2.667   4.106  0.0208  0.1116 -0.3457
  313MOL0     C43106   9.243   2.606   4.223  0.0414 -0.4523 -0.1276
  313MOL0     N43107   9.494   2.511   4.840  0.4752  0.5965 -0.0552
  313MOL0     N43108   9.554   2.570   4.942 -0.2397  0.2511 -0.5447
  313MOL0     C43109   9.860   3.109   5.562  0.2305 -1.5297 -0.1265
  313MOL0     C43110   9.985   3.178   5.574 -0.5162  0.5472 -0.8093
  313MOL0     C43111  10.288   3.420   5.839  0.6545  0.7073  0.1404
  313MOL0     C43112  10.396   3.337   5.849  0.5094 -0.0461  0.1767
  313MOL0     C43113  10.521   3.387   5.879 -1.0516  0.0263 -0.0723
  313MOL0     C43114  10.545   3.514   5.909  1.0008 -0.5189 -0.7172
  313MOL0     O43115  10.665   3.550   5.944  0.4162 -0.2723  0.5780
  313MOL0     C43116  10.683   3.671   6.024  0.1576  0.4583  0.5086
  313MOL0     C43117  10.824   3.659   6.073  0.3776  0.2449  0.0099
  313MOL0     C43118  10.840   3.735   6.201 -1.2268 -0.2789  0.6181
  313MOL0     C43119  10.972   3.819   6.205 -0.0906  0.0502  0.2151
  313MOL0     C43120  10.995   3.875   6.338 -0.0087 -0.0893  0.1458
  313MOL0     C43121  11.024   3.920   6.451  0.3183  0.4818  0.6890
  313MOL0     C43122  10.433   3.601   5.913 -0.2725  0.4928  0.8126
  313MOL0     C43123  10.305   3.551   5.887 -0.0974  0.6685 -0.2804
  313MOL0     C43124  10.178   3.635   5.898  0.8322 -0.2529  0.3025
  313MOL0     H43125  10.035   3.080   5.896 -0.5066  1.6454  0.8503
  313MOL0     H43126   9.838   2.976   5.874 -2.0340 -2.3081 -1.3578
  313MOL0     H43127   9.568   3.059   5.795 -3.3377 -2.7527  3.3541
  313MOL0     H43128   9.619   2.891   5.800  0.3964  0.3883  1.7307
  313MOL0     H43129   9.367   2.935   5.747  2.0304  1.8513  2.7241
  313MOL0     H43130   9.433   3.024   5.596  3.7078  0.3205 -0.0467
  313MOL0     H43131   9.539   2.839   5.524 -0.4761  3.5491  0.9326
  313MOL0     H43132   9.466   2.732   5.651  1.4001 -1.7805 -3.1314
  313MOL0     H43133   9.248   2.765   5.552 -2.2789  3.1078 -1.0101
  313MOL0     H43134   9.302   2.852   5.417 -1.1600 -2.9335 -2.9335
  313MOL0     H43135   9.280   2.614   5.392  1.5767 -0.0794 -2.4930
  313MOL0     H43136   9.424   2.585   5.483 -1.1810 -0.9228 -0.2030
  313MOL0     H43137   9.566   2.701   5.334  1.1309 -0.5167 -1.3068
  313MOL0     H43138   9.466   2.569   5.270  0.5743 -0.0246  2.9888
  313MOL0     H43139   9.448   2.883   5.241 -0.9364 -0.2533  1.3735
  313MOL0     H43140   9.320   2.779   5.178  0.9673 -1.0438 -2.6549
  313MOL0     H43141   9.510   2.887   5.019  2.1221  1.1177  0.4192
  313MOL0     H43142   9.618   2.775   5.095 -1.1176 -0.7152  0.7501
  313MOL0     H43143   9.303   2.775   4.879  1.2615 -0.0704 -0.1398
  313MOL0     H43144   9.345   2.590   4.605  1.4802  0.0934  1.1991
  313MOL0     H43145   9.196   2.605   4.714  0.0004  0.6807  1.6339
  313MOL0     H43146   9.337   2.345   4.708 -1.3727 -0.4054  3.2857
  313MOL0     H43147   9.191   2.394   4.781 -0.0099  0.1337 -0.7912
  313MOL0     H43148   9.093   2.287   4.604 -1.8340  2.1163 -1.6031
  313MOL0     H43149   9.086   2.446   4.550 -1.4117 -0.1264  2.1657
  313MOL0     H43150   9.321   2.265   4.471  0.0146 -0.2727 -0.8882
  313MOL0     H43151   9.163   2.255   4.384  0.1343 -2.5539  2.1341
  313MOL0     H43152   9.025   2.356   4.276 -0.9280 -0.7256 -0.0495
  313MOL0     H43153   8.813   2.397   4.149 -0.7299 -0.7672  0.1850
  313MOL0     H43154   8.876   2.398   3.983  0.4263 -1.0661  0.8682
  313MOL0     H43155   8.800   2.544   4.060  2.0052  2.7650  1.8549
  313MOL0     H43156   9.024   3.046   3.856  1.3451 -0.5860 -0.2925
  313MOL0     H43157   8.968   3.160   3.657  2.7536  0.2340 -0.8979
  313MOL0     H43158   8.780   3.162   3.461 -1.2658  1.1245 -1.7874
  313MOL0     H43159   8.924   3.259   3.431  0.7319 -0.8813 -1.3542
  313MOL0     H43160   8.755   3.125   3.216  2.6496 -1.6770  0.0187
  313MOL0     H43161   8.775   3.300   3.241 -0.8570  0.0386 -4.6869
  313MOL0     H43162   9.016   3.109   3.177 -0.9680 -0.9412  0.3359
  313MOL0     H43163   9.002   3.289   3.159 -0.6057  0.7991 -3.0203
  313MOL0     H43164   8.827   3.269   3.000  0.6098  1.1532  0.4756
  313MOL0     H43165   8.861   3.088   2.984  2.0307  0.5759 -3.3072
  313MOL0     H43166   9.042   3.303   2.897  0.7169  0.3139 -0.7851
  313MOL0     H43167   9.093   3.136   2.934 -0.3777 -1.2515  0.4601
  313MOL0     H43168   8.881   3.246   2.743 -1.8123 -1.1368  0.2415
  313MOL0     H43169   8.899   3.071   2.767 -0.6016 -0.3638  2.2404
  313MOL0     H43170   9.115   3.076   2.659 -3.0415 -2.1269 -0.5401
  313MOL0     H43171   9.132   3.255   2.663  1.6834 -1.3015 -1.4101
  313MOL0     H43172   9.093   3.174   2.439 -0.3138  2.1271 -1.5460
  313MOL0     H43173   8.972   3.289   2.487  1.9242  0.9715 -0.0441
  313MOL0     H43174   9.000   2.806   3.424  0.4363 -3.2232  1.3377
  313MOL0     H43175   9.045   2.674   3.639  0.9063 -0.6176  0.4943
  313MOL0     H43176   9.229   2.759   4.067 -0.2682  0.3111 -0.1853
  313MOL0     H43177   9.333   2.659   4.251  0.3751 -0.8704 -0.4040
  313MOL0     H43178   9.821   3.095   5.462 -0.9590  0.0518  0.0816
  313MOL0     H43179  10.037   3.227   5.493  5.2959 -1.3611  1.2505
  313MOL0     H43180  10.381   3.231   5.836 -3.6840  0.5761 -1.9917
  313MOL0     H43181  10.605   3.319   5.895 -2.7247 -1.5527  2.8070
  313MOL0     H43182  10.656   3.759   5.965 -1.7256 -0.6672 -0.4038
  313MOL0     H43183  10.607   3.672   6.104  0.8151 -2.3929  1.3062
  313MOL0     H43184  10.894   3.690   5.994 -0.0264 -0.3187 -0.5772
  313MOL0     H43185  10.841   3.553   6.093  0.9545  0.1321 -1.0075
  313MOL0     H43186  10.756   3.803   6.218  0.1423  1.3442  1.1163
  313MOL0     H43187  10.856   3.667   6.285  2.0838 -0.7315 -0.2439
  313MOL0     H43188  10.967   3.900   6.133 -0.2957 -0.4234 -0.3095
  313MOL0     H43189  11.050   3.748   6.178 -0.0216  0.0576  0.3895
  313MOL0     H43190  11.039   3.946   6.553  2.1563  4.6219 -0.4095
  313MOL0     H43191  10.446   3.704   5.945 -0.0861  0.2455  1.5465
  313MOL0     H43192  10.125   3.634   5.803 -1.4554  2.7031  1.3665
  313MOL0     H43193  10.111   3.595   5.975 -0.3042  0.7192 -0.1478
  313MOL0     H43194  10.207   3.735   5.933  2.7730 -0.2170 -1.2374
  314MOL0     O43195   4.038  10.279   7.051 -0.2731  0.6286 -0.0867
  314MOL0     C43196   3.977  10.359   6.982 -0.5403  0.7226  0.6500
  314MOL0     O43197   4.015  10.489   6.954 -0.5649 -0.3348 -0.5392
  314MOL0     C43198   4.139  10.519   7.002 -1.0587 -0.2454  0.0698
  314MOL0     C43199   4.266  10.472   6.958 -0.1395  0.3087  0.4461
  314MOL0     C43200   4.382  10.512   7.022 -0.3410  0.7923  0.0462
  314MOL0     C43201   4.372  10.620   7.113 -0.8561  0.5584  0.8643
  314MOL0     O43202   4.491  10.680   7.155 -0.2206 -0.0903 -0.1210
  314MOL0     C43203   4.516  10.632   7.289  0.3055  0.7802  0.5205
  314MOL0     C43204   4.667  10.599   7.300 -0.6553  0.4800 -0.3874
  314MOL0     C43205   4.768  10.722   7.279  0.6252  0.9360  0.1661
  314MOL0     C43206   4.907  10.670   7.314 -0.0590  0.4803  0.7128
  314MOL0     C43207   5.018  10.782   7.324 -0.2320  0.9066 -0.4823
  314MOL0     C43208   5.155  10.732   7.377  0.1033 -0.4909  0.1372
  314MOL0     C43209   5.264  10.847   7.359  1.3124  0.4604  0.2946
  314MOL0     C43210   5.389  10.825   7.444 -0.2046 -0.1872 -0.6763
  314MOL0     N43211   5.371  10.863   7.582  0.0485 -0.3763  0.0168
  314MOL0     C43212   5.408  10.978   7.641 -0.9229  0.3658 -0.6399
  314MOL0     C43213   5.399  10.962   7.773  0.0579 -0.0892 -0.7978
  314MOL0     C43214   5.421  11.070   7.877 -0.2076 -0.4515 -0.5766
  314MOL0     C43215   5.572  11.100   7.896  0.3074 -0.0795 -0.2860
  314MOL0     C43216   5.651  10.967   7.934  0.0820  0.1436  0.2268
  314MOL0     C43217   5.797  10.980   7.959 -0.3098 -0.2271  0.1965
  314MOL0     O43218   5.848  11.005   7.830 -0.2778 -0.3124  0.2131
  314MOL0     C43219   5.982  11.036   7.814 -0.1658 -0.0912 -0.5025
  314MOL0     C43220   6.030  11.065   7.686 -0.3708  0.3966 -0.1490
  314MOL0     C43221   6.156  11.105   7.648 -0.4160 -0.1385 -0.4543
  314MOL0     C43222   6.179  11.125   7.499  0.6795 -0.3932  0.6151
  314MOL0     C43223   6.255  11.120   7.745  1.6316  0.7102 -0.1212
  314MOL0     C43224   6.393  11.169   7.728 -0.2553 -0.3142  0.4823
  314MOL0     O43225   6.470  11.143   7.830 -0.3220 -0.1750 -0.2503
  314MOL0     C43226   6.602  11.170   7.836  0.2335  0.4286 -0.5152
  314MOL0     C43227   6.657  11.293   7.800  0.2214  0.5845  0.1859
  314MOL0     C43228   6.792  11.319   7.822 -0.2919  0.0742 -0.7884
  314MOL0     C43229   6.881  11.215   7.875 -0.7346  1.4293 -0.3985
  314MOL0     O43230   7.017  11.219   7.878  0.2056 -0.7806 -0.1320
  314MOL0     C43231   7.084  11.314   7.792 -0.5752  0.7699  0.9412
  314MOL0     C43232   7.249  11.309   7.800  0.1226  0.0296 -0.3872
  314MOL0     C43233   7.303  11.169   7.802  0.7439  0.8410 -1.1218
  314MOL0     C43234   7.454  11.171   7.832 -0.1168  0.4848  0.1119
  314MOL0     C43235   7.509  11.029   7.842  0.1071  0.0860  0.2557
  314MOL0     C43236   7.655  11.036   7.899 -0.2469  0.5173  0.2876
  314MOL0     C43237   7.738  10.903   7.892  0.7562 -0.2851  0.2505
  314MOL0     C43238   7.881  10.925   7.946 -0.9153 -0.0197 -0.7037
  314MOL0    Cl43239   7.991  11.012   7.834  0.0416 -0.1599 -0.2871
  314MOL0     C43240   6.828  11.089   7.903 -0.6932  0.4055 -0.4087
  314MOL0     C43241   6.688  11.070   7.883 -0.8537 -0.3446  0.1299
  314MOL0     O43242   6.422  11.232   7.631 -0.1062  0.2709  0.8885
  314MOL0     C43243   6.207  11.105   7.880  0.3772 -0.5748 -0.5051
  314MOL0     C43244   6.073  11.064   7.909 -0.7451 -0.6352 -0.3162
  314MOL0     N43245   5.358  10.832   7.791 -0.4946 -0.9411  0.2878
  314MOL0     N43246   5.346  10.775   7.678 -0.0524  0.0257 -0.0473
  314MOL0     C43247   4.258  10.683   7.146  0.3233  0.2844  0.4891
  314MOL0     C43248   4.141  10.628   7.089  0.4595  0.5579  0.4316
  314MOL0     C43249   3.845  10.316   6.927  0.0950 -0.1701  0.2097
  314MOL0     C43250   3.776  10.414   6.854  0.2881  0.6977  1.7437
  314MOL0     C43251   3.656  10.385   6.781  0.0448  0.2464  0.2203
  314MOL0     C43252   3.604  10.254   6.781 -0.6420  0.5681 -0.4704
  314MOL0     O43253   3.477  10.232   6.735 -0.8598  0.1198  0.3562
  314MOL0     C43254   3.428  10.097   6.719 -0.9079  1.0696 -0.0110
  314MOL0     C43255   3.485   9.996   6.609  0.1164  1.0401 -0.3729
  314MOL0     C43256   3.415   9.861   6.615  0.1304  0.2325  0.4640
  314MOL0     C43257   3.452   9.769   6.499  0.1671 -0.1929  0.5537
  314MOL0     C43258   3.391   9.816   6.372 -0.1787 -0.4896 -0.2353
  314MOL0     C43259   3.352   9.856   6.267 -0.7768 -0.2170 -0.2915
  314MOL0     C43260   3.672  10.162   6.857 -0.8364 -0.2997  0.0265
  314MOL0     C43261   3.790  10.188   6.938  0.0628 -0.4023 -0.0543
  314MOL0     C43262   3.830  10.073   7.018 -0.5728 -0.2615 -0.6181
  314MOL0     H43263   4.270  10.385   6.892 -1.3748 -1.8297  2.9907
  314MOL0     H43264   4.481  10.475   6.996 -1.6690 -2.6307 -0.7746
  314MOL0     H43265   4.455  10.549   7.323 -0.4611  1.1195  0.0177
  314MOL0     H43266   4.493  10.716   7.355  0.3745  0.0180  1.5273
  314MOL0     H43267   4.689  10.570   7.403  0.6615  1.5323 -0.3532
  314MOL0     H43268   4.693  10.514   7.236 -1.0404 -1.0520  1.4069
  314MOL0     H43269   4.770  10.751   7.173 -1.5772 -3.3239 -1.2644
  314MOL0     H43270   4.735  10.807   7.339 -1.7929 -0.5821  1.0875
  314MOL0     H43271   4.907  10.629   7.416  1.3081 -0.3256  0.4096
  314MOL0     H43272   4.944  10.590   7.249  2.3548  1.0800  1.2374
  314MOL0     H43273   4.995  10.863   7.393  3.2951 -0.1882  2.2559
  314MOL0     H43274   5.025  10.822   7.222 -1.5014  0.2320 -0.8576
  314MOL0     H43275   5.142  10.709   7.483 -1.1344 -0.5268 -0.0012
  314MOL0     H43276   5.186  10.644   7.321  4.0973  1.9950 -2.0397
  314MOL0     H43277   5.209  10.941   7.374 -1.1639 -0.9214  0.3898
  314MOL0     H43278   5.289  10.867   7.254 -2.7931  5.2110 -0.1593
  314MOL0     H43279   5.423  10.722   7.429  0.4114 -0.0514 -0.2752
  314MOL0     H43280   5.469  10.893   7.413  0.4977 -0.0444  1.3191
  314MOL0     H43281   5.433  11.073   7.595  0.6863  0.3463  0.1478
  314MOL0     H43282   5.391  11.030   7.974  4.5309 -0.9678  0.9471
  314MOL0     H43283   5.368  11.164   7.860  4.7029  2.7970 -0.1948
  314MOL0     H43284   5.607  11.144   7.802  1.0621  3.1668  1.4124
  314MOL0     H43285   5.580  11.174   7.975 -0.6701 -0.5271  0.2594
  314MOL0     H43286   5.606  10.933   8.027 -0.0802 -1.9019 -0.5610
  314MOL0     H43287   5.637  10.888   7.860 -2.4959  0.8376 -0.1223
  314MOL0     H43288   5.824  11.052   8.038 -0.5233 -2.5535  2.5309
  314MOL0     H43289   5.834  10.882   7.989 -1.3265 -0.7638 -0.2675
  314MOL0     H43290   5.962  11.043   7.604  0.2558  0.9204 -0.8286
  314MOL0     H43291   6.284  11.105   7.473 -0.5392 -5.0449 -1.7585
  314MOL0     H43292   6.135  11.222   7.475 -0.6901 -0.2054  3.4730
  314MOL0     H43293   6.132  11.046   7.439 -0.1274 -0.3192  1.1350
  314MOL0     H43294   6.589  11.362   7.751 -0.6421 -0.5993 -0.3488
  314MOL0     H43295   6.835  11.417   7.802  0.4126 -0.0696 -0.0425
  314MOL0     H43296   7.058  11.288   7.689  0.6919 -0.2839  0.8710
  314MOL0     H43297   7.042  11.413   7.811 -1.3079  1.5684 -3.6323
  314MOL0     H43298   7.290  11.365   7.716 -0.7713 -2.7527 -2.8566
  314MOL0     H43299   7.274  11.354   7.897 -2.1054  0.0688  0.2370
  314MOL0     H43300   7.289  11.123   7.703 -0.6815  0.9492 -0.9857
  314MOL0     H43301   7.265  11.097   7.875  0.7605  1.3536 -0.6070
  314MOL0     H43302   7.470  11.215   7.931 -0.5183  0.9733 -0.0346
  314MOL0     H43303   7.512  11.225   7.756  0.3272 -0.6299 -0.3603
  314MOL0     H43304   7.454  10.969   7.915  1.0684  0.1995  1.0925
  314MOL0     H43305   7.514  10.980   7.744 -1.6110  1.7394 -0.7211
  314MOL0     H43306   7.652  11.062   8.006  1.5710 -0.8075  0.7124
  314MOL0     H43307   7.707  11.108   7.837 -3.7890  1.1824 -2.2017
  314MOL0     H43308   7.732  10.849   7.797 -1.1998  1.5376 -0.7365
  314MOL0     H43309   7.683  10.842   7.963  5.8734 -1.1908  4.0656
  314MOL0     H43310   7.921  10.829   7.979  1.3317  0.5559 -1.6002
  314MOL0     H43311   7.869  10.993   8.030  0.4115  5.2599 -4.2913
  314MOL0     H43312   6.896  11.009   7.931  0.9372  1.3373 -1.5490
  314MOL0     H43313   6.656  10.971   7.914  0.4544 -0.5229  0.9786
  314MOL0     H43314   6.258  11.152   7.963 -1.3291  3.5600 -1.5507
  314MOL0     H43315   6.038  11.065   8.012  0.0038 -1.8178 -0.0321
  314MOL0     H43316   4.252  10.772   7.208 -1.1345  2.5247 -2.6046
  314MOL0     H43317   4.048  10.683   7.100  1.7128  2.2745  4.1150
  314MOL0     H43318   3.806  10.518   6.851  0.2756  0.7664  3.2188
  314MOL0     H43319   3.599  10.467   6.738  2.8209  0.5101 -3.3590
  314MOL0     H43320   3.437  10.050   6.817  0.8381  1.1529 -0.0966
  314MOL0     H43321   3.319  10.102   6.706 -1.1672 -2.6288 -0.3852
  314MOL0     H43322   3.593   9.989   6.627  0.0565  2.2931  0.6517
  314MOL0     H43323   3.452  10.040   6.515 -3.9296 -0.9733 -0.1055
  314MOL0     H43324   3.448   9.822   6.711  1.0496 -1.8592 -0.6286
  314MOL0     H43325   3.306   9.867   6.626  0.3504  2.0215  2.1840
  314MOL0     H43326   3.436   9.664   6.528  2.5681 -0.9720 -0.6269
  314MOL0     H43327   3.560   9.769   6.481  0.3080 -1.2293  1.2896
  314MOL0     H43328   3.340   9.894   6.167 -1.4002 -1.2996 -0.6456
  314MOL0     H43329   3.630  10.066   6.883 -2.2381  0.8840  2.4938
  314MOL0     H43330   3.752  10.000   7.043 -4.1099  2.8773 -1.5573
  314MOL0     H43331   3.922  10.024   6.985  0.9992  0.9647  1.6540
  314MOL0     H43332   3.843  10.107   7.121  1.5533 -1.9780 -0.2470
  315MOL0     O43333   5.805   5.296   7.312 -0.7292 -0.0631 -0.3861
  315MOL0     C43334   5.793   5.316   7.433 -0.1199 -0.0779 -0.5583
  315MOL0     O43335   5.885   5.380   7.516 -0.5686 -0.4536  0.6234
  315MOL0     C43336   5.979   5.462   7.458  0.5500 -0.2171 -0.2945
  315MOL0     C43337   6.097   5.400   7.431 -0.6104 -0.2168 -0.1270
  315MOL0     C43338   6.204   5.468   7.368  0.3790 -0.1236  0.3827
  315MOL0     C43339   6.179   5.600   7.321  0.6735  0.1552  0.4812
  315MOL0     O43340   6.277   5.658   7.245  0.8823 -0.0414  0.0190
  315MOL0     C43341   6.255   5.784   7.177 -0.2305 -0.0947 -0.3099
  315MOL0     C43342   6.334   5.804   7.050 -0.2400  0.7632  0.2921
  315MOL0     C43343   6.317   5.953   7.008 -0.3043  0.3393 -0.6969
  315MOL0     C43344   6.421   5.990   6.898  0.4685  0.5423 -0.8581
  315MOL0     C43345   6.386   6.126   6.837  0.2956  0.1176 -0.3540
  315MOL0     C43346   6.508   6.194   6.785 -0.1964  0.8695  0.4487
  315MOL0     C43347   6.525   6.352   6.785  0.0532  0.9740 -0.8253
  315MOL0     C43348   6.401   6.402   6.710 -0.6137  0.1311 -0.9964
  315MOL0     N43349   6.288   6.409   6.804  0.1589  0.5550  0.1492
  315MOL0     C43350   6.160   6.373   6.760 -0.1698 -0.7720 -0.7073
  315MOL0     C43351   6.071   6.433   6.843 -0.3654 -0.9371 -0.1019
  315MOL0     C43352   5.922   6.424   6.813  0.5154 -0.0783  0.5341
  315MOL0     C43353   5.884   6.517   6.697  0.6722 -0.6547 -0.8029
  315MOL0     C43354   5.906   6.454   6.561 -0.0215  0.1437  0.6280
  315MOL0     C43355   5.841   6.548   6.456  0.1077 -0.2288  0.3141
  315MOL0     O43356   5.907   6.671   6.439  0.1707 -0.0664  0.3517
  315MOL0     C43357   6.008   6.695   6.358  0.2767  0.2894  0.5515
  315MOL0     C43358   6.035   6.623   6.230  0.9776  0.0787 -0.4567
  315MOL0     C43359   6.142   6.651   6.142  0.0942 -1.4065  0.9875
  315MOL0     C43360   6.171   6.551   6.031  0.3828 -0.1635  0.0882
  315MOL0     C43361   6.221   6.764   6.169  1.2785  0.1167 -0.4217
  315MOL0     C43362   6.333   6.823   6.097  0.1551  0.3077  0.1969
  315MOL0     O43363   6.424   6.899   6.164 -0.3770 -0.0958  0.6996
  315MOL0     C43364   6.559   6.913   6.120 -0.0648  0.1293  0.4903
  315MOL0     C43365   6.660   6.841   6.171  0.7236 -0.0557 -0.2016
  315MOL0     C43366   6.784   6.868   6.127  0.2668  0.0744  0.4567
  315MOL0     C43367   6.820   6.964   6.031  1.0695 -0.0847  0.4581
  315MOL0     O43368   6.952   6.973   5.997  0.9100 -0.6315 -0.7860
  315MOL0     C43369   6.981   7.104   5.947  0.2777  0.3696  0.4486
  315MOL0     C43370   7.136   7.120   5.938  0.6776 -0.0041 -0.2108
  315MOL0     C43371   7.212   7.085   6.072 -0.0561  0.5413  0.0621
  315MOL0     C43372   7.359   7.121   6.057  0.5709 -0.3421  1.4329
  315MOL0     C43373   7.457   7.098   6.180 -0.4361 -0.6409 -0.2975
  315MOL0     C43374   7.500   6.952   6.191 -0.6099  0.1284 -0.4403
  315MOL0     C43375   7.573   6.932   6.318 -0.6970  0.2713 -0.2584
  315MOL0     C43376   7.642   6.794   6.332 -0.3068  0.1599 -0.2185
  315MOL0    Cl43377   7.783   6.776   6.232  0.0219  0.2686 -0.1894
  315MOL0     C43378   6.708   7.030   5.967  0.5405 -0.1575  0.4547
  315MOL0     C43379   6.576   7.001   6.013 -0.5694  0.0867  0.4614
  315MOL0     O43380   6.341   6.810   5.972  1.2655 -0.5727  0.3505
  315MOL0     C43381   6.183   6.838   6.276 -0.2342 -0.1833  0.2975
  315MOL0     C43382   6.088   6.804   6.377 -0.0618  0.1144 -0.4472
  315MOL0     N43383   6.151   6.502   6.939 -0.6773 -0.9820  0.8149
  315MOL0     N43384   6.279   6.481   6.915  0.7138  0.1877  0.3830
  315MOL0     C43385   6.055   5.657   7.345  0.1525 -0.2992  0.0367
  315MOL0     C43386   5.952   5.592   7.405 -0.3811  0.4690 -1.0089
  315MOL0     C43387   5.685   5.231   7.493 -0.9047  0.4134  0.4764
  315MOL0     C43388   5.571   5.305   7.524 -0.2083  0.2049 -0.5299
  315MOL0     C43389   5.484   5.248   7.613 -0.3866 -0.4002  0.6293
  315MOL0     C43390   5.500   5.119   7.664 -0.2797  0.1519 -0.3612
  315MOL0     O43391   5.417   5.049   7.750  0.2324 -0.3968 -0.4896
  315MOL0     C43392   5.284   5.099   7.762  0.4080  0.7943  0.2308
  315MOL0     C43393   5.200   4.987   7.824  0.8621 -0.2924 -0.6636
  315MOL0     C43394   5.066   5.041   7.878 -0.0675 -0.2416 -0.1470
  315MOL0     C43395   4.981   5.094   7.750  0.0406 -0.3399 -0.4452
  315MOL0     C43396   4.846   5.147   7.781 -0.1505  0.3579  0.0306
  315MOL0     C43397   4.748   5.217   7.806 -0.4240  0.2124 -0.6740
  315MOL0     C43398   5.610   5.042   7.611 -0.2484 -0.6131  0.6097
  315MOL0     C43399   5.705   5.099   7.533 -0.4989  0.3052  0.2154
  315MOL0     C43400   5.834   5.026   7.507  0.0340  0.8605  0.4269
  315MOL0     H43401   6.102   5.296   7.460 -0.7113  0.2942  1.8425
  315MOL0     H43402   6.295   5.410   7.353 -0.5724 -1.6243  0.2705
  315MOL0     H43403   6.263   5.869   7.245 -0.0383  0.0372 -0.4933
  315MOL0     H43404   6.149   5.784   7.148 -0.7255  1.7461  1.2820
  315MOL0     H43405   6.438   5.775   7.071 -0.6460 -2.4070 -1.4464
  315MOL0     H43406   6.302   5.732   6.974  3.2778 -0.9238  0.1677
  315MOL0     H43407   6.214   5.963   6.971 -0.4234  1.0836 -0.1794
  315MOL0     H43408   6.323   6.028   7.087  1.1112 -0.2810 -0.1896
  315MOL0     H43409   6.516   5.983   6.951  1.5371 -1.2864 -2.8460
  315MOL0     H43410   6.443   5.908   6.828  0.3188 -0.4579  0.2347
  315MOL0     H43411   6.341   6.191   6.913  3.6759 -2.3562  4.2315
  315MOL0     H43412   6.311   6.106   6.760  0.0018  0.2886 -0.1159
  315MOL0     H43413   6.593   6.167   6.848  0.4184  1.4646 -0.1109
  315MOL0     H43414   6.517   6.152   6.684 -2.6048 -0.2542  0.6260
  315MOL0     H43415   6.620   6.389   6.745  1.1862 -0.0268  0.7828
  315MOL0     H43416   6.517   6.390   6.887  1.6058  0.7023 -0.5715
  315MOL0     H43417   6.412   6.509   6.692  1.3070  0.3056  0.8843
  315MOL0     H43418   6.390   6.328   6.629  1.3868 -3.3805  1.6692
  315MOL0     H43419   6.143   6.327   6.663 -1.0175  0.5506 -1.2027
  315MOL0     H43420   5.872   6.454   6.906  0.8322 -1.1227  1.0740
  315MOL0     H43421   5.895   6.319   6.796 -2.3417  0.9021 -1.5592
  315MOL0     H43422   5.778   6.538   6.714  1.2920  1.7518  0.6863
  315MOL0     H43423   5.938   6.612   6.712  1.6020 -1.4856  1.6518
  315MOL0     H43424   6.007   6.427   6.529 -1.5282 -0.5433 -4.4117
  315MOL0     H43425   5.847   6.362   6.565  0.4493 -0.2082 -0.2294
  315MOL0     H43426   5.839   6.491   6.363  0.6222 -2.5393  1.6359
  315MOL0     H43427   5.737   6.575   6.476  0.2181  0.9098 -0.5414
  315MOL0     H43428   5.967   6.542   6.202  0.6791  0.2609 -0.2610
  315MOL0     H43429   6.106   6.558   5.943  0.7117 -0.5710 -0.1917
  315MOL0     H43430   6.155   6.452   6.076  0.5356 -0.9530 -1.5076
  315MOL0     H43431   6.277   6.556   6.006  0.3477 -1.8645 -0.5399
  315MOL0     H43432   6.646   6.761   6.244  1.4836 -2.0383 -2.1254
  315MOL0     H43433   6.861   6.803   6.168  1.0671  1.3760  1.0944
  315MOL0     H43434   6.945   7.112   5.844 -0.7676  0.1536  0.7891
  315MOL0     H43435   6.931   7.177   6.010 -2.6311 -2.8607  2.2064
  315MOL0     H43436   7.183   7.057   5.862 -1.2803 -0.9022 -0.7330
  315MOL0     H43437   7.163   7.222   5.907  1.1398 -0.3941 -1.1367
  315MOL0     H43438   7.205   6.979   6.099  1.2045  0.1684 -0.9905
  315MOL0     H43439   7.162   7.139   6.153 -1.1476  0.6595 -0.6723
  315MOL0     H43440   7.358   7.228   6.035  0.3463 -0.8400 -1.3525
  315MOL0     H43441   7.390   7.076   5.963 -0.2656 -0.9737  1.4470
  315MOL0     H43442   7.545   7.162   6.166 -1.3806  1.0509  1.1141
  315MOL0     H43443   7.399   7.145   6.260  0.6540 -0.4860  0.4195
  315MOL0     H43444   7.571   6.937   6.109  1.1367  0.3501  0.9537
  315MOL0     H43445   7.421   6.877   6.181  0.6545 -1.4554  0.8689
  315MOL0     H43446   7.510   6.941   6.406  0.5398  1.2449  0.5634
  315MOL0     H43447   7.650   7.010   6.318 -0.5773  0.1874 -1.8466
  315MOL0     H43448   7.578   6.711   6.302 -0.2488  0.2246 -0.5251
  315MOL0     H43449   7.676   6.780   6.436  1.0900 -0.7408 -0.7577
  315MOL0     H43450   6.716   7.105   5.889  2.2878 -1.1333 -0.3720
  315MOL0     H43451   6.483   7.045   5.980 -0.2547  3.0569  3.1173
  315MOL0     H43452   6.227   6.931   6.311 -3.8171  2.4841 -1.5903
  315MOL0     H43453   6.060   6.858   6.466  0.8354 -0.9135  0.4864
  315MOL0     H43454   6.048   5.761   7.316  3.3361  0.2850  0.9017
  315MOL0     H43455   5.863   5.650   7.427 -1.2046 -1.1862  0.2745
  315MOL0     H43456   5.565   5.406   7.485  0.0688 -1.0298 -4.1387
  315MOL0     H43457   5.401   5.310   7.645 -1.2326 -1.6324  0.9211
  315MOL0     H43458   5.294   5.183   7.831  1.0701  1.6242 -0.8336
  315MOL0     H43459   5.237   5.141   7.673  0.1169 -0.5504 -0.2804
  315MOL0     H43460   5.259   4.940   7.903 -1.0048 -1.1004  0.2852
  315MOL0     H43461   5.181   4.907   7.752 -0.0905  0.4805 -1.3071
  315MOL0     H43462   5.014   4.955   7.922  1.0541 -0.5103  0.7104
  315MOL0     H43463   5.083   5.119   7.952  0.4840 -1.1047  0.6534
  315MOL0     H43464   4.961   5.003   7.693  0.2843  0.1227 -1.2806
  315MOL0     H43465   5.027   5.169   7.685 -1.6432  0.2930 -0.9539
  315MOL0     H43466   4.666   5.278   7.838  0.7963  1.0756  0.9285
  315MOL0     H43467   5.619   4.939   7.646 -1.4326 -0.6927  0.7526
  315MOL0     H43468   5.915   5.090   7.545 -1.7660  0.9980  4.5309
  315MOL0     H43469   5.852   4.929   7.555 -1.6595  0.3322  0.0386
  315MOL0     H43470   5.828   4.999   7.401 -0.8764 -2.6486  1.2722
  316MOL0     O43471  11.210  10.800   0.419 -0.1622 -0.4478  0.6081
  316MOL0     C43472  11.189  10.690   0.365 -0.0648 -0.6489  0.8248
  316MOL0     O43473  11.078  10.619   0.374  0.5446 -0.0186  0.7530
  316MOL0     C43474  10.980  10.654   0.463  0.8671 -0.0519  0.1660
  316MOL0     C43475  11.007  10.681   0.602  0.0467  0.1432 -0.2593
  316MOL0     C43476  10.907  10.716   0.694  0.3761  0.0546  0.4019
  316MOL0     C43477  10.777  10.726   0.643 -1.2852 -0.3728 -0.3618
  316MOL0     O43478  10.671  10.778   0.719 -0.0440 -0.7201  0.3784
  316MOL0     C43479  10.654  10.917   0.731 -0.1366  1.0392  0.7161
  316MOL0     C43480  10.510  10.944   0.789 -1.7828 -0.3786  0.4389
  316MOL0     C43481  10.499  10.906   0.937  0.3456  0.0388  0.1877
  316MOL0     C43482  10.358  10.957   0.986 -0.2540 -0.0076  0.0645
  316MOL0     C43483  10.340  10.938   1.137 -0.6898 -0.0499  0.4785
  316MOL0     C43484  10.239  11.021   1.202  0.5844 -0.7995  0.6926
  316MOL0     C43485  10.225  11.011   1.354 -0.7676  1.0047 -0.1122
  316MOL0     C43486  10.163  10.879   1.396  0.3399  0.1759  0.3403
  316MOL0     N43487  10.124  10.871   1.539  0.2402 -0.0834  0.0045
  316MOL0     C43488  10.006  10.856   1.605 -0.3097  0.3412  0.3712
  316MOL0     C43489  10.045  10.839   1.733  0.6101  0.8052  0.6634
  316MOL0     C43490   9.952  10.798   1.845 -0.2846  0.5411  0.3024
  316MOL0     C43491   9.884  10.662   1.828 -0.2947  0.0918 -0.0778
  316MOL0     C43492   9.794  10.624   1.947 -0.6575 -0.2938  0.3778
  316MOL0     C43493   9.736  10.487   1.927  0.4700 -0.0510 -0.6425
  316MOL0     O43494   9.713  10.430   2.055 -0.1425  0.1695  0.2797
  316MOL0     C43495   9.604  10.444   2.131 -0.2334 -0.2130  0.0924
  316MOL0     C43496   9.478  10.461   2.067  0.5207  1.2082 -0.0121
  316MOL0     C43497   9.356  10.470   2.137 -0.6526  0.3835 -0.3035
  316MOL0     C43498   9.227  10.511   2.067  0.0215  0.0457  0.2004
  316MOL0     C43499   9.360  10.460   2.282  0.3308  0.9804 -0.1981
  316MOL0     C43500   9.246  10.462   2.372 -0.1980  0.8139  0.5488
  316MOL0     O43501   9.255  10.373   2.475  0.3444  0.3492  0.0698
  316MOL0     C43502   9.157  10.345   2.557  0.3434  0.7219  0.0924
  316MOL0     C43503   9.150  10.223   2.624 -1.3079 -0.6305 -0.3873
  316MOL0     C43504   9.059  10.194   2.725 -0.5309  0.5758 -0.3983
  316MOL0     C43505   8.962  10.285   2.755 -0.5970 -0.5391  0.2780
  316MOL0     O43506   8.864  10.263   2.852 -0.9071 -0.5514  0.1755
  316MOL0     C43507   8.803  10.132   2.854  0.2582  0.2172  1.1381
  316MOL0     C43508   8.657  10.139   2.897 -0.0017  0.0166 -0.4952
  316MOL0     C43509   8.584  10.264   2.840  0.1271  0.9711  0.4107
  316MOL0     C43510   8.552  10.245   2.687  0.1428  0.0466 -1.0283
  316MOL0     C43511   8.486  10.360   2.611 -0.5260  0.6752 -0.4728
  316MOL0     C43512   8.367  10.428   2.697  0.0915  0.0454  0.1453
  316MOL0     C43513   8.243  10.351   2.707  1.0479  0.4928 -0.4801
  316MOL0     C43514   8.114  10.430   2.754 -0.9615 -0.7372  0.3903
  316MOL0    Cl43515   8.115  10.492   2.919  0.3523 -0.3710 -0.7553
  316MOL0     C43516   8.958  10.412   2.685  0.6196  0.2619  0.1604
  316MOL0     C43517   9.052  10.440   2.586  0.0352  0.6027 -0.0393
  316MOL0     O43518   9.156  10.538   2.347 -0.2120  1.4127 -0.5436
  316MOL0     C43519   9.492  10.442   2.335 -0.4188 -0.0508 -0.5166
  316MOL0     C43520   9.612  10.436   2.269  0.6384  0.1786 -0.3642
  316MOL0     N43521  10.183  10.829   1.749  1.2434 -0.2113 -0.7319
  316MOL0     N43522  10.226  10.841   1.629 -0.0264  0.1072  0.2982
  316MOL0     C43523  10.748  10.691   0.508  0.1783 -0.7750 -1.2410
  316MOL0     C43524  10.846  10.666   0.415 -0.6862 -0.2852 -0.4037
  316MOL0     C43525  11.298  10.621   0.296 -0.6605  0.0258  0.6922
  316MOL0     C43526  11.266  10.557   0.174 -0.1472 -0.4025 -0.1643
  316MOL0     C43527  11.363  10.500   0.091 -0.2969  0.0989  0.0874
  316MOL0     C43528  11.498  10.506   0.131  0.0898  0.0345 -0.0777
  316MOL0     O43529  11.603  10.443   0.065 -0.3405  0.1677 -0.1729
  316MOL0     C43530  11.570  10.317   0.008 -0.9320 -0.2730  0.8676
  316MOL0     C43531  11.527  10.199   0.098  0.6122 -0.6108  0.3116
  316MOL0     C43532  11.622  10.174   0.214  0.5276 -0.4577  0.0860
  316MOL0     C43533  11.766  10.136   0.171  0.0771 -0.4302  0.2087
  316MOL0     C43534  11.831  10.070   0.289 -0.2124 -0.1739  0.6237
  316MOL0     C43535  11.902  10.038   0.382  0.8329 -0.3634  0.8189
  316MOL0     C43536  11.528  10.582   0.245 -1.0092  0.4698 -1.0840
  316MOL0     C43537  11.435  10.627   0.335 -0.8318  0.3034  0.4569
  316MOL0     C43538  11.483  10.716   0.452  0.8484  0.0236  0.8994
  316MOL0     H43539  11.104  10.669   0.649 -0.7807 -0.2666  1.4259
  316MOL0     H43540  10.903  10.733   0.801  1.8513  1.1063  0.3091
  316MOL0     H43541  10.670  10.963   0.633 -0.3162 -0.6791 -0.1595
  316MOL0     H43542  10.730  10.959   0.798  1.1449 -2.4150  1.6323
  316MOL0     H43543  10.502  11.053   0.781  0.9289 -0.0514  0.9583
  316MOL0     H43544  10.438  10.895   0.723 -0.5832 -1.2907 -0.2248
  316MOL0     H43545  10.503  10.796   0.931  2.1715  0.1337 -1.0679
  316MOL0     H43546  10.571  10.944   1.010  0.4015 -1.0675  0.7323
  316MOL0     H43547  10.335  11.060   0.960 -0.0205 -0.0573 -0.3597
  316MOL0     H43548  10.290  10.891   0.932 -0.2458 -0.3523  0.4669
  316MOL0     H43549  10.438  10.954   1.184 -1.6448  1.7872  2.0154
  316MOL0     H43550  10.329  10.832   1.161  2.0585 -0.8991 -1.4999
  316MOL0     H43551  10.268  11.125   1.185 -2.0050  0.0312  0.9828
  316MOL0     H43552  10.142  11.012   1.153 -0.3154  0.5786  2.1254
  316MOL0     H43553  10.163  11.092   1.395 -0.8607  1.2611 -0.7404
  316MOL0     H43554  10.319  11.031   1.407 -0.5853 -0.6135  0.2179
  316MOL0     H43555  10.072  10.878   1.336 -0.0173  0.7651  0.8615
  316MOL0     H43556  10.226  10.797   1.361  1.6414  1.6680 -0.9963
  316MOL0     H43557   9.906  10.837   1.569 -1.4882 -3.7811  4.6885
  316MOL0     H43558   9.878  10.877   1.862  0.3643  1.2746 -0.2140
  316MOL0     H43559  10.020  10.790   1.931 -0.0218  0.7294  0.1145
  316MOL0     H43560   9.822  10.668   1.738  0.2118  0.2766 -0.4131
  316MOL0     H43561   9.961  10.586   1.813  0.5985  1.2579 -1.5987
  316MOL0     H43562   9.859  10.630   2.035  0.8917  1.0919 -0.8188
  316MOL0     H43563   9.718  10.702   1.955  1.9303  2.3396  0.6313
  316MOL0     H43564   9.651  10.499   1.859  1.3351  2.8692 -1.3812
  316MOL0     H43565   9.792  10.407   1.877 -3.0199 -1.6130 -2.3839
  316MOL0     H43566   9.469  10.457   1.959 -0.0679 -3.7633 -0.0211
  316MOL0     H43567   9.249  10.510   1.960  3.9636  1.3147  0.8502
  316MOL0     H43568   9.196  10.612   2.094  1.0340 -0.1931  2.4467
  316MOL0     H43569   9.145  10.440   2.077 -1.7223  1.8101 -0.8583
  316MOL0     H43570   9.232  10.154   2.608 -1.2250 -0.4605 -0.7114
  316MOL0     H43571   9.046  10.104   2.784 -0.1004  0.4940 -0.4249
  316MOL0     H43572   8.791  10.090   2.754 -1.8216 -2.0227  2.2156
  316MOL0     H43573   8.859  10.063   2.917 -1.6960 -0.1418  2.5752
  316MOL0     H43574   8.592  10.055   2.871 -2.0652  0.8546  1.6106
  316MOL0     H43575   8.648  10.163   3.003 -0.2532 -1.9686 -0.0479
  316MOL0     H43576   8.650  10.350   2.854  3.0802 -1.1854  0.7716
  316MOL0     H43577   8.488  10.273   2.892 -1.4406 -3.3949 -1.3077
  316MOL0     H43578   8.475  10.168   2.694 -0.8049  1.0870  1.3389
  316MOL0     H43579   8.642  10.222   2.629  1.2797  2.0862 -0.1957
  316MOL0     H43580   8.563  10.434   2.590  0.2184 -0.1745 -0.7902
  316MOL0     H43581   8.445  10.329   2.515 -0.8367 -1.8997  0.4079
  316MOL0     H43582   8.340  10.520   2.644  0.1007 -0.5402 -0.8995
  316MOL0     H43583   8.405  10.464   2.793  0.7334  0.0427 -0.0982
  316MOL0     H43584   8.254  10.272   2.783 -0.7764 -1.0466 -1.7209
  316MOL0     H43585   8.227  10.306   2.609 -0.4914 -0.6226  0.2366
  316MOL0     H43586   8.032  10.359   2.745  0.1411 -1.8949 -1.1560
  316MOL0     H43587   8.102  10.517   2.688 -1.6764 -0.2937  1.0881
  316MOL0     H43588   8.889  10.494   2.696  3.6118  2.8678  0.8697
  316MOL0     H43589   9.043  10.536   2.537  0.0869  0.2247 -0.7926
  316MOL0     H43590   9.492  10.420   2.441 -3.2508 -0.0737 -0.4562
  316MOL0     H43591   9.710  10.424   2.313  1.3860  0.8605 -1.7541
  316MOL0     H43592  10.645  10.704   0.475 -1.3862 -3.0839  2.1484
  316MOL0     H43593  10.821  10.635   0.314 -2.3642 -0.9520  0.1696
  316MOL0     H43594  11.162  10.560   0.143 -0.0574  0.4815 -0.4079
  316MOL0     H43595  11.325  10.466  -0.005  1.2290  2.2727 -1.3990
  316MOL0     H43596  11.510  10.339  -0.081  0.1902  2.2274  0.6228
  316MOL0     H43597  11.669  10.282  -0.023 -1.0270 -1.2061  1.6103
  316MOL0     H43598  11.527  10.116   0.027 -0.2335  0.3970 -0.9109
  316MOL0     H43599  11.428  10.233   0.131  0.6845  1.7422 -1.6384
  316MOL0     H43600  11.636  10.270   0.264  1.0488 -0.3579 -0.2493
  316MOL0     H43601  11.575  10.103   0.283 -0.9519 -0.6412 -1.0439
  316MOL0     H43602  11.816  10.230   0.144 -0.9451  0.3729  1.0147
  316MOL0     H43603  11.770  10.067   0.086  0.2222 -0.4225  0.2093
  316MOL0     H43604  11.968  10.013   0.463  3.0628  2.4700  0.0381
  316MOL0     H43605  11.632  10.601   0.269 -1.1331 -1.3256  1.3082
  316MOL0     H43606  11.414  10.712   0.536 -0.1697 -1.1989  0.0435
  316MOL0     H43607  11.583  10.682   0.480  0.4306 -2.9005 -0.6784
  316MOL0     H43608  11.473  10.818   0.414 -2.8497 -0.6066 -0.2559
  317MOL0     O43609  11.210   6.990   6.389 -0.0626  0.0416  0.4378
  317MOL0     C43610  11.130   7.077   6.424  0.1345  0.7496  0.0909
  317MOL0     O43611  11.165   7.182   6.497  0.2561  0.3233  0.4830
  317MOL0     C43612  11.282   7.179   6.567  0.5716  0.3134 -0.8077
  317MOL0     C43613  11.279   7.142   6.702 -0.3941 -1.0353 -0.7473
  317MOL0     C43614  11.402   7.126   6.775  0.4483 -0.5940  0.3229
  317MOL0     C43615  11.524   7.145   6.710  0.0093  0.0571  0.5002
  317MOL0     O43616  11.648   7.130   6.772 -0.2800  0.2400 -0.0184
  317MOL0     C43617  11.674   7.232   6.866 -0.1497 -0.9029  0.0223
  317MOL0     C43618  11.808   7.212   6.935 -0.7754 -0.7213  0.8452
  317MOL0     C43619  11.796   7.124   7.064 -1.0467 -0.7030  0.4163
  317MOL0     C43620  11.928   7.097   7.132 -0.4455  0.2299  0.2286
  317MOL0     C43621  11.932   6.992   7.251  0.4736 -0.4391  0.3794
  317MOL0     C43622  11.828   7.038   7.352 -0.5619 -0.6201 -0.5425
  317MOL0     C43623  11.855   6.991   7.500  0.1194 -0.3184 -0.2307
  317MOL0     C43624  11.965   7.083   7.578 -0.6650  0.6292  0.2151
  317MOL0     N43625  11.901   7.197   7.638  0.6007 -1.1493  0.2233
  317MOL0     C43626  11.796   7.274   7.590  0.3858 -0.2838 -0.3226
  317MOL0     C43627  11.792   7.385   7.673  0.1022  0.0334  0.1670
  317MOL0     C43628  11.684   7.489   7.675  0.9603 -0.0105 -0.2895
  317MOL0     C43629  11.618   7.519   7.810 -0.1362  0.3858  0.0490
  317MOL0     C43630  11.702   7.619   7.891  0.9521  0.2171 -1.0275
  317MOL0     C43631  11.678   7.602   8.041 -1.1422 -0.6542 -0.5013
  317MOL0     O43632  11.799   7.652   8.093  0.1744 -0.0757 -0.4003
  317MOL0     C43633  11.827   7.635   8.225 -0.0890  0.3561 -0.1079
  317MOL0     C43634  11.736   7.600   8.323  0.0705 -0.3646 -0.3909
  317MOL0     C43635  11.771   7.597   8.458 -0.2493  0.2801  0.5149
  317MOL0     C43636  11.668   7.567   8.560  0.2303 -0.4169 -0.1272
  317MOL0     C43637  11.908   7.616   8.499 -0.0742 -0.7974 -0.4288
  317MOL0     C43638  11.966   7.615   8.645 -0.0982  0.2353  0.6379
  317MOL0     O43639  11.895   7.540   8.735  0.1122 -0.5027  0.6219
  317MOL0     C43640  11.940   7.533   8.860 -0.0118  0.0577 -0.4804
  317MOL0     C43641  12.002   7.412   8.909 -0.1050 -0.7515  0.3172
  317MOL0     C43642  12.065   7.403   9.033  0.1801 -0.2884  0.1428
  317MOL0     C43643  12.067   7.513   9.122  0.3581 -0.3547  1.4194
  317MOL0     O43644  12.131   7.508   9.239  0.1852 -0.4317 -0.0099
  317MOL0     C43645  12.057   7.547   9.356 -0.3334  0.7694 -0.0054
  317MOL0     C43646  11.986   7.432   9.430 -0.5833  0.0649 -0.0707
  317MOL0     C43647  12.070   7.319   9.471 -0.6133  0.8176  1.0790
  317MOL0     C43648  12.070   7.209   9.362  0.2456 -0.9358 -1.4894
  317MOL0     C43649  12.130   7.076   9.411  0.3263  0.8077 -0.5854
  317MOL0     C43650  12.097   6.962   9.315 -0.0665  0.4045  0.2688
  317MOL0     C43651  12.137   6.828   9.375 -0.0004  0.4159  0.8114
  317MOL0     C43652  12.024   6.729   9.405  0.5761 -1.2228  0.1620
  317MOL0    Cl43653  11.923   6.787   9.541  0.3078  0.0019 -0.2917
  317MOL0     C43654  12.005   7.628   9.075  0.0181 -0.6570 -0.2612
  317MOL0     C43655  11.953   7.642   8.943  0.6542  0.2797  0.2963
  317MOL0     O43656  12.068   7.669   8.675  0.2451 -0.1519 -0.0635
  317MOL0     C43657  11.998   7.650   8.398 -0.5226  0.5281  0.4590
  317MOL0     C43658  11.960   7.661   8.264  1.0176  0.0035 -0.3656
  317MOL0     N43659  11.899   7.376   7.759 -0.4211 -0.5197 -0.2531
  317MOL0     N43660  11.961   7.263   7.738  0.8735 -0.0455 -0.6594
  317MOL0     C43661  11.528   7.193   6.576  0.5489 -0.4473  0.3448
  317MOL0     C43662  11.407   7.219   6.509 -0.5412  0.4643 -0.2476
  317MOL0     C43663  10.989   7.052   6.381 -0.1666 -1.0281 -0.4698
  317MOL0     C43664  10.961   6.959   6.279 -0.0470 -0.3523  0.3149
  317MOL0     C43665  10.832   6.938   6.233  0.1777 -0.6049  0.3044
  317MOL0     C43666  10.733   7.008   6.288  0.1758 -0.0401  0.4067
  317MOL0     O43667  10.603   7.002   6.250 -0.5222  0.2900 -0.3159
  317MOL0     C43668  10.569   6.957   6.117 -0.4178  0.3238 -0.4395
  317MOL0     C43669  10.426   6.999   6.077 -0.9229 -0.2760  0.5482
  317MOL0     C43670  10.326   6.947   6.173  0.2844  1.8092 -0.8176
  317MOL0     C43671  10.182   6.998   6.144  0.0389  0.5007 -0.2813
  317MOL0     C43672  10.139   6.943   6.013 -0.0713  0.5986 -0.1048
  317MOL0     C43673  10.114   6.900   5.901 -0.0600  0.1907  0.6354
  317MOL0     C43674  10.749   7.090   6.397  0.8519 -0.6886  0.6467
  317MOL0     C43675  10.877   7.122   6.437  0.0167  0.6595  0.1454
  317MOL0     C43676  10.891   7.224   6.530  0.5854  0.0081 -0.0021
  317MOL0     H43677  11.182   7.132   6.750 -1.0120  1.8082 -1.2501
  317MOL0     H43678  11.406   7.106   6.882  2.7344  1.7663  0.8046
  317MOL0     H43679  11.604   7.243   6.949  0.3074  0.7971  0.2088
  317MOL0     H43680  11.680   7.324   6.808 -2.4441 -1.7413 -1.6875
  317MOL0     H43681  11.884   7.167   6.871  0.0944 -1.8173  2.5815
  317MOL0     H43682  11.844   7.314   6.955 -4.4074  0.3614  2.9068
  317MOL0     H43683  11.742   7.195   7.128 -0.7081  0.8726 -0.9646
  317MOL0     H43684  11.744   7.029   7.048 -0.7650 -1.0694  1.5617
  317MOL0     H43685  11.996   7.050   7.061 -1.6066 -0.8529 -0.1969
  317MOL0     H43686  11.972   7.192   7.166 -2.7917  2.2805 -2.0791
  317MOL0     H43687  12.028   6.996   7.305 -1.0198 -1.7582  3.3442
  317MOL0     H43688  11.915   6.887   7.228 -1.3365 -0.0770 -0.0540
  317MOL0     H43689  11.835   7.147   7.355  3.2305 -0.7767  0.4255
  317MOL0     H43690  11.729   7.001   7.323  0.1887 -2.7382 -0.5934
  317MOL0     H43691  11.901   6.892   7.504  2.9673  0.9096  3.3822
  317MOL0     H43692  11.758   6.994   7.551 -0.6509  2.8917 -1.6224
  317MOL0     H43693  12.017   7.022   7.652  2.3939  0.2853 -2.0427
  317MOL0     H43694  12.048   7.116   7.516  1.9355 -4.7325  0.2691
  317MOL0     H43695  11.723   7.244   7.516 -1.6915 -1.2956  1.9694
  317MOL0     H43696  11.601   7.457   7.611 -0.9087  0.9349  1.5509
  317MOL0     H43697  11.738   7.576   7.637  3.4866 -0.9664  0.8792
  317MOL0     H43698  11.517   7.553   7.785 -0.0995  0.1032 -0.5013
  317MOL0     H43699  11.617   7.427   7.869 -3.1504 -1.1354 -2.0747
  317MOL0     H43700  11.810   7.616   7.873  1.5642  2.2243  1.6701
  317MOL0     H43701  11.674   7.723   7.876  1.0447  0.6859  1.5339
  317MOL0     H43702  11.590   7.659   8.072 -1.4382 -0.4874 -1.5956
  317MOL0     H43703  11.660   7.498   8.071  0.2117 -0.9157 -0.5516
  317MOL0     H43704  11.637   7.574   8.286 -0.2513  0.9108 -0.4985
  317MOL0     H43705  11.684   7.470   8.606 -1.9349 -0.5541  0.4071
  317MOL0     H43706  11.563   7.578   8.532  0.1189 -3.3849 -1.2435
  317MOL0     H43707  11.695   7.641   8.636 -0.5397 -0.5890  0.3223
  317MOL0     H43708  11.993   7.337   8.831 -0.4783  0.4737 -0.8610
  317MOL0     H43709  12.101   7.313   9.081  3.1176  1.7499  2.1215
  317MOL0     H43710  12.136   7.592   9.417  0.9887  1.9790 -2.4388
  317MOL0     H43711  11.982   7.621   9.329  0.2233  0.9521 -1.1071
  317MOL0     H43712  11.953   7.482   9.522  0.4021  0.0014  0.3307
  317MOL0     H43713  11.893   7.404   9.380 -1.4447  0.5393  1.2054
  317MOL0     H43714  12.032   7.269   9.560 -1.1146  0.6061  0.7489
  317MOL0     H43715  12.169   7.364   9.488 -0.2999  0.9503 -0.8143
  317MOL0     H43716  12.124   7.243   9.274 -0.4666 -1.0688 -1.9849
  317MOL0     H43717  11.966   7.197   9.332 -0.2223  2.2788 -1.4982
  317MOL0     H43718  12.237   7.077   9.431  0.1624 -1.9336  0.8575
  317MOL0     H43719  12.088   7.053   9.509  1.7360  0.0354 -0.1354
  317MOL0     H43720  12.138   6.974   9.215  3.0644  1.4976  1.5629
  317MOL0     H43721  11.990   6.951   9.294 -0.1460 -3.0407  1.7799
  317MOL0     H43722  12.187   6.849   9.470 -2.2575  0.7084  2.0031
  317MOL0     H43723  12.210   6.777   9.311 -1.4377 -2.2101  1.1149
  317MOL0     H43724  12.062   6.627   9.419  1.2882 -0.8138  1.3412
  317MOL0     H43725  11.961   6.730   9.316  0.6121  1.2427  0.0931
  317MOL0     H43726  12.011   7.707   9.149  0.2468 -0.0490 -0.9134
  317MOL0     H43727  11.914   7.737   8.908 -0.9754 -0.5148 -0.1641
  317MOL0     H43728  12.103   7.663   8.422 -0.4261 -1.2870  1.1521
  317MOL0     H43729  12.031   7.693   8.188 -1.4015 -1.8145 -3.6881
  317MOL0     H43730  11.628   7.208   6.536  0.5996  0.8198  0.8929
  317MOL0     H43731  11.417   7.257   6.408  0.6907 -0.6642 -0.5762
  317MOL0     H43732  11.033   6.890   6.236 -1.1246 -1.7370  0.6434
  317MOL0     H43733  10.812   6.872   6.150 -2.0296 -0.0127  0.3043
  317MOL0     H43734  10.636   7.008   6.047 -0.6509 -0.0458 -0.9443
  317MOL0     H43735  10.589   6.852   6.095  1.1168  0.9220 -2.1956
  317MOL0     H43736  10.397   6.964   5.977 -1.4412  3.3931 -0.7409
  317MOL0     H43737  10.424   7.109   6.078 -2.0225 -0.2847  1.7339
  317MOL0     H43738  10.322   6.838   6.172 -0.7202  1.8380 -1.4233
  317MOL0     H43739  10.336   6.983   6.275 -1.9459  1.6677 -0.4946
  317MOL0     H43740  10.183   7.107   6.143  1.7520  0.5445 -3.0642
  317MOL0     H43741  10.118   6.955   6.222 -0.8587 -1.2579 -1.9025
  317MOL0     H43742  10.102   6.870   5.799 -0.8060 -0.3591  0.8792
  317MOL0     H43743  10.668   7.156   6.425  0.9680  0.2763 -1.1243
  317MOL0     H43744  10.954   7.308   6.499 -2.6317  2.2479 -1.0556
  317MOL0     H43745  10.800   7.279   6.556 -0.2612 -1.5491  0.4562
  317MOL0     H43746  10.931   7.189   6.626  0.7797 -3.8273 -1.3181
  318MOL0     O43747   5.211   8.929   6.382 -0.2548 -0.2231  0.5218
  318MOL0     C43748   5.162   8.938   6.493  0.2214  0.2026 -0.3208
  318MOL0     O43749   5.226   8.971   6.614 -0.3566 -0.3348 -0.2210
  318MOL0     C43750   5.363   8.974   6.599 -0.0374 -0.6839 -0.2191
  318MOL0     C43751   5.425   8.874   6.675 -1.0394 -0.3717 -0.7224
  318MOL0     C43752   5.569   8.883   6.693 -0.4373  0.2589  1.0692
  318MOL0     C43753   5.644   8.985   6.624 -0.4495 -0.5143 -0.3083
  318MOL0     O43754   5.780   8.995   6.628  0.0104  0.2468 -0.2431
  318MOL0     C43755   5.846   8.909   6.709  0.0736 -0.0482 -0.2134
  318MOL0     C43756   5.988   8.956   6.731  0.9755 -0.7111 -0.8548
  318MOL0     C43757   6.074   8.958   6.611 -0.0879 -0.3700 -0.3191
  318MOL0     C43758   6.125   8.820   6.577  0.2956 -0.0684 -0.1415
  318MOL0     C43759   6.223   8.810   6.457 -0.7327  0.4385  0.7489
  318MOL0     C43760   6.353   8.881   6.467 -0.1805  0.2011 -0.1520
  318MOL0     C43761   6.437   8.891   6.333 -0.0374 -0.0613  0.1156
  318MOL0     C43762   6.465   8.746   6.279  0.1697  0.3566 -0.0658
  318MOL0     N43763   6.550   8.662   6.368 -0.4806  0.4127  0.4391
  318MOL0     C43764   6.675   8.680   6.411 -0.2540 -0.0916 -0.3111
  318MOL0     C43765   6.707   8.576   6.489  0.5448  0.8041  0.1226
  318MOL0     C43766   6.834   8.541   6.550 -0.7888  0.2207  0.3974
  318MOL0     C43767   6.892   8.407   6.482  0.8994  0.6302  0.4119
  318MOL0     C43768   7.039   8.378   6.507  0.3395 -0.2297  0.1068
  318MOL0     C43769   7.101   8.257   6.439  0.1365  0.4308 -0.2381
  318MOL0     O43770   7.224   8.223   6.509  0.0769 -0.5398 -0.3339
  318MOL0     C43771   7.322   8.158   6.449  0.4168  0.3142  0.1942
  318MOL0     C43772   7.446   8.155   6.517  0.7939 -0.8509 -0.1201
  318MOL0     C43773   7.546   8.069   6.475  0.0039 -0.2312 -0.8459
  318MOL0     C43774   7.677   8.082   6.545 -0.4896 -0.0111  0.8247
  318MOL0     C43775   7.526   7.992   6.359  0.2668  0.3390  0.3123
  318MOL0     C43776   7.620   7.886   6.316 -0.8352  0.1972  0.6251
  318MOL0     O43777   7.609   7.838   6.189 -0.5807 -0.4158  0.5449
  318MOL0     C43778   7.723   7.799   6.121 -0.0509 -0.1787  0.1910
  318MOL0     C43779   7.714   7.697   6.031  0.7440  0.3380  0.2392
  318MOL0     C43780   7.828   7.651   5.955  0.5694  0.3752 -0.3164
  318MOL0     C43781   7.961   7.704   5.982  0.1693  0.2920  0.7988
  318MOL0     O43782   8.077   7.677   5.919  0.6949  0.4113 -0.1117
  318MOL0     C43783   8.082   7.583   5.817 -0.3158 -0.0962 -0.4249
  318MOL0     C43784   8.093   7.450   5.883 -1.1586 -0.2638 -0.5493
  318MOL0     C43785   8.227   7.419   5.950  1.0829 -0.2884  0.2529
  318MOL0     C43786   8.311   7.341   5.845  0.0950  0.8110  0.4756
  318MOL0     C43787   8.442   7.303   5.906 -0.7130 -0.4995 -0.6550
  318MOL0     C43788   8.540   7.232   5.819 -0.3829  0.2118  1.0885
  318MOL0     C43789   8.670   7.196   5.876 -0.7938  0.1048 -0.0566
  318MOL0     C43790   8.741   7.104   5.777 -0.3713 -0.8029 -0.0348
  318MOL0    Cl43791   8.757   7.186   5.616 -0.6300  0.0858 -0.4046
  318MOL0     C43792   7.962   7.820   6.058  0.6975 -0.0637 -0.0609
  318MOL0     C43793   7.849   7.861   6.127  0.3522  0.2896 -0.9653
  318MOL0     O43794   7.708   7.836   6.394  0.2081 -0.3260  0.1222
  318MOL0     C43795   7.410   8.002   6.284  0.0972  0.1392 -0.9158
  318MOL0     C43796   7.310   8.096   6.330 -0.5892  0.2526 -0.7574
  318MOL0     N43797   6.590   8.503   6.503  0.0178 -0.1730 -0.1020
  318MOL0     N43798   6.507   8.546   6.426  1.1860 -0.1368 -0.2334
  318MOL0     C43799   5.574   9.079   6.545 -0.1859 -0.9863  0.3597
  318MOL0     C43800   5.433   9.079   6.538  0.3936  0.0993 -0.4209
  318MOL0     C43801   5.021   8.882   6.518 -0.5664  0.0787 -1.2888
  318MOL0     C43802   4.996   8.817   6.644 -0.3529  0.8171  0.1454
  318MOL0     C43803   4.885   8.732   6.656 -1.4030 -0.5884 -0.7577
  318MOL0     C43804   4.796   8.707   6.560 -0.5614  0.5728 -0.0438
  318MOL0     O43805   4.689   8.620   6.568  0.1532 -0.2786  0.2466
  318MOL0     C43806   4.648   8.561   6.687  0.0835 -0.3016  0.4597
  318MOL0     C43807   4.506   8.525   6.702  0.8734 -0.0623 -0.8719
  318MOL0     C43808   4.435   8.489   6.575 -0.4323 -0.1028 -0.3619
  318MOL0     C43809   4.297   8.441   6.601 -0.3606 -0.1402 -0.9279
  318MOL0     C43810   4.225   8.409   6.477  0.0459 -0.2780  0.6816
  318MOL0     C43811   4.165   8.364   6.382 -0.5274 -0.0207  0.1500
  318MOL0     C43812   4.816   8.773   6.443 -0.1811  0.6464  0.0328
  318MOL0     C43813   4.926   8.857   6.415  0.7517 -0.6549 -0.1478
  318MOL0     C43814   4.927   8.937   6.288 -0.0187 -0.0319 -0.2488
  318MOL0     H43815   5.374   8.795   6.729 -0.2571  0.6904  1.7161
  318MOL0     H43816   5.624   8.806   6.746 -1.8746 -0.1647  2.0156
  318MOL0     H43817   5.834   8.807   6.671  1.0928  0.7713 -2.9456
  318MOL0     H43818   5.798   8.926   6.806 -1.1789  2.5937 -1.2111
  318MOL0     H43819   5.994   9.061   6.761  1.9366 -1.0054  0.0327
  318MOL0     H43820   6.035   8.905   6.815 -0.8622 -0.8748  0.1042
  318MOL0     H43821   6.023   8.985   6.517 -2.3086  1.5853  1.3335
  318MOL0     H43822   6.156   9.029   6.621  0.7662 -1.3429 -0.1516
  318MOL0     H43823   6.182   8.790   6.664 -0.3505  3.8378  1.8776
  318MOL0     H43824   6.042   8.751   6.560 -0.7169  1.3677 -1.2741
  318MOL0     H43825   6.174   8.848   6.367  1.9155  0.1130 -0.9250
  318MOL0     H43826   6.244   8.704   6.443  0.4916  0.2764  3.2741
  318MOL0     H43827   6.336   8.980   6.512 -1.7591 -0.6932  1.3680
  318MOL0     H43828   6.411   8.838   6.549 -2.4799  0.3990  1.6926
  318MOL0     H43829   6.527   8.952   6.347 -0.0198  0.0650 -0.4950
  318MOL0     H43830   6.384   8.954   6.261 -1.0166  0.4575  1.2665
  318MOL0     H43831   6.370   8.694   6.265  0.8824 -1.6070  1.8967
  318MOL0     H43832   6.509   8.743   6.179 -1.6762 -1.5702 -0.8873
  318MOL0     H43833   6.733   8.770   6.390 -0.4122  0.2958  0.8516
  318MOL0     H43834   6.829   8.520   6.658 -0.0538 -1.1365  0.1885
  318MOL0     H43835   6.904   8.623   6.535  0.1018 -0.3177  1.4807
  318MOL0     H43836   6.834   8.326   6.528 -0.5655  1.1597 -0.4245
  318MOL0     H43837   6.872   8.413   6.375 -1.5556 -1.0784  0.6780
  318MOL0     H43838   7.085   8.472   6.480 -0.4454  0.1759  0.1437
  318MOL0     H43839   7.058   8.366   6.615 -0.1574  3.6431  0.7579
  318MOL0     H43840   7.036   8.169   6.437  2.5831 -1.4619 -2.1127
  318MOL0     H43841   7.139   8.289   6.342  0.1122 -0.6731 -0.6248
  318MOL0     H43842   7.470   8.203   6.611  0.5649  0.5937 -0.7790
  318MOL0     H43843   7.709   7.998   6.607  0.5061 -2.3858 -2.6231
  318MOL0     H43844   7.684   8.168   6.612  1.3173  1.2153 -0.8249
  318MOL0     H43845   7.757   8.103   6.474  0.6617 -0.7253  1.8625
  318MOL0     H43846   7.620   7.645   6.021  2.2434 -2.4230 -0.6096
  318MOL0     H43847   7.820   7.581   5.872  0.0055 -0.5577  0.5032
  318MOL0     H43848   7.988   7.590   5.761 -0.4790  0.8064 -0.0625
  318MOL0     H43849   8.161   7.618   5.751 -0.6319  0.6666 -0.4061
  318MOL0     H43850   8.013   7.437   5.956  0.2577 -0.2798  1.0653
  318MOL0     H43851   8.077   7.375   5.806  1.1398 -1.0204 -0.3712
  318MOL0     H43852   8.210   7.357   6.038  1.5170 -1.0038 -0.1516
  318MOL0     H43853   8.271   7.513   5.984 -0.8450  1.0725 -0.8215
  318MOL0     H43854   8.326   7.394   5.750  0.6756 -2.3264 -1.3300
  318MOL0     H43855   8.257   7.251   5.814  2.2134 -0.0327 -1.0242
  318MOL0     H43856   8.489   7.395   5.943 -1.0142 -0.6577  0.1247
  318MOL0     H43857   8.418   7.237   5.989  2.3362 -0.2023  0.5918
  318MOL0     H43858   8.539   7.304   5.738 -2.3071 -1.8449 -0.8473
  318MOL0     H43859   8.497   7.135   5.792  0.7992 -0.3703  1.2473
  318MOL0     H43860   8.657   7.142   5.970  0.4898  1.4196  0.9173
  318MOL0     H43861   8.724   7.289   5.899 -0.4852  0.2066 -1.1209
  318MOL0     H43862   8.702   7.001   5.773 -0.1001 -0.9091  0.0195
  318MOL0     H43863   8.844   7.086   5.808 -0.4165 -0.3043  0.4205
  318MOL0     H43864   8.052   7.880   6.063 -0.8972  2.5582 -0.9524
  318MOL0     H43865   7.863   7.952   6.184 -3.0892  0.0676  0.5018
  318MOL0     H43866   7.390   7.948   6.191 -2.3984 -1.0891  0.2440
  318MOL0     H43867   7.220   8.093   6.269 -1.0345  1.8521 -0.2186
  318MOL0     H43868   5.627   9.159   6.495  0.5795 -2.7163 -1.7628
  318MOL0     H43869   5.387   9.160   6.482 -0.6257  1.5651  2.3752
  318MOL0     H43870   5.074   8.821   6.719  1.9750  3.9613 -2.1760
  318MOL0     H43871   4.882   8.680   6.752 -1.1071  1.3482  0.3631
  318MOL0     H43872   4.697   8.464   6.688 -1.1201 -0.9316  0.1420
  318MOL0     H43873   4.682   8.615   6.776 -2.4385  3.6777 -0.7283
  318MOL0     H43874   4.455   8.612   6.747 -0.2774 -1.7583  1.3122
  318MOL0     H43875   4.487   8.440   6.768 -0.0721  0.3865 -0.5289
  318MOL0     H43876   4.440   8.571   6.503  0.3495 -1.8924 -2.4217
  318MOL0     H43877   4.497   8.410   6.534  0.0907 -0.0808  0.3497
  318MOL0     H43878   4.237   8.517   6.653 -2.4003 -1.9869 -0.4702
  318MOL0     H43879   4.290   8.350   6.661 -0.7670  1.0691  0.9542
  318MOL0     H43880   4.113   8.332   6.294  2.1524  1.0024 -1.9782
  318MOL0     H43881   4.743   8.764   6.364 -2.6115  1.3960  2.0712
  318MOL0     H43882   4.961   8.890   6.196  1.6228  0.1426  0.2347
  318MOL0     H43883   4.827   8.978   6.271  0.1124  2.3267  3.4199
  318MOL0     H43884   4.984   9.028   6.311 -0.8988 -0.1301  2.7652
  319MOL0     O43885  10.257   8.219   8.144  0.1393  0.4276  0.1193
  319MOL0     C43886  10.304   8.162   8.043  0.0957  0.6595 -0.0635
  319MOL0     O43887  10.224   8.081   7.956  0.3107 -0.2350 -0.4814
  319MOL0     C43888  10.098   8.052   7.986  0.4400 -0.2714  0.2801
  319MOL0     C43889  10.049   8.029   8.111  0.0603 -0.1416 -0.6876
  319MOL0     C43890   9.915   8.009   8.145 -0.2505 -0.0590 -0.2394
  319MOL0     C43891   9.819   8.005   8.042  0.5308  0.1604 -0.3691
  319MOL0     O43892   9.684   7.993   8.055 -0.1186  0.3186  0.0446
  319MOL0     C43893   9.611   8.095   8.126  0.0285 -0.1477  0.1252
  319MOL0     C43894   9.475   8.045   8.178  0.6553  0.0538  0.4082
  319MOL0     C43895   9.350   8.054   8.089 -0.0726  0.3333 -0.0537
  319MOL0     C43896   9.225   7.975   8.118  0.5337  0.6052 -0.1789
  319MOL0     C43897   9.180   7.995   8.261 -0.3853 -0.5267  0.8365
  319MOL0     C43898   9.036   7.920   8.273  1.5975  0.0491 -1.1594
  319MOL0     C43899   8.946   7.980   8.383  0.7831 -0.0831  1.0354
  319MOL0     C43900   8.899   8.130   8.346  0.8807 -0.2029  0.2984
  319MOL0     N43901   8.820   8.118   8.215  0.4578 -0.4216  1.0714
  319MOL0     C43902   8.885   8.144   8.091  0.8176  0.5100 -0.3806
  319MOL0     C43903   8.787   8.152   7.998 -0.1376 -0.1342  0.0037
  319MOL0     C43904   8.813   8.170   7.851 -0.4906 -0.3416  0.9933
  319MOL0     C43905   8.926   8.266   7.828 -0.4227 -0.2370 -0.8310
  319MOL0     C43906   8.937   8.313   7.672  0.7199  0.2510 -0.1600
  319MOL0     C43907   8.996   8.213   7.574  0.1870 -0.2559  0.2992
  319MOL0     O43908   9.129   8.208   7.618  0.5343  0.3771  0.6916
  319MOL0     C43909   9.209   8.106   7.574 -0.5117  0.1220 -0.4705
  319MOL0     C43910   9.333   8.105   7.633  0.3814 -1.4342 -0.2957
  319MOL0     C43911   9.427   8.009   7.597 -0.1436  0.2679  0.6405
  319MOL0     C43912   9.561   8.022   7.647  0.3791 -0.3464  0.8386
  319MOL0     C43913   9.384   7.892   7.523 -0.1089  0.3896 -0.0282
  319MOL0     C43914   9.462   7.769   7.519 -0.2784  0.6660  0.2531
  319MOL0     O43915   9.429   7.672   7.421 -0.1045  0.1487 -0.6554
  319MOL0     C43916   9.511   7.571   7.399  0.2613  0.8519 -0.1623
  319MOL0     C43917   9.523   7.467   7.493  0.0414  0.0935  0.4875
  319MOL0     C43918   9.601   7.355   7.465  0.3636 -0.7157 -0.1427
  319MOL0     C43919   9.682   7.356   7.348 -0.3613 -0.0235  0.0397
  319MOL0     O43920   9.771   7.244   7.331  0.3581  0.1685 -0.1687
  319MOL0     C43921   9.823   7.219   7.202  0.0367 -1.2359 -0.2723
  319MOL0     C43922   9.830   7.069   7.179  0.2453 -0.6551  0.2485
  319MOL0     C43923   9.926   7.009   7.282 -0.2932 -0.7480  0.1518
  319MOL0     C43924   9.989   6.885   7.203 -0.4238 -0.0333 -0.9121
  319MOL0     C43925  10.090   6.821   7.289  0.2581  0.3670  0.5061
  319MOL0     C43926  10.112   6.680   7.230  0.5898  0.1447  0.3268
  319MOL0     C43927  10.225   6.613   7.298  0.3798  0.2636  0.2443
  319MOL0     C43928  10.267   6.481   7.221  0.7685 -0.0646  0.7467
  319MOL0    Cl43929  10.124   6.364   7.242 -0.1190  0.3759 -0.0533
  319MOL0     C43930   9.673   7.467   7.255  0.2614 -0.8047  0.4382
  319MOL0     C43931   9.585   7.577   7.290 -0.4249  0.3531 -0.6105
  319MOL0     O43932   9.544   7.743   7.608  0.1260 -0.4722  0.1594
  319MOL0     C43933   9.269   7.897   7.453  0.5655  0.0125  0.5816
  319MOL0     C43934   9.185   8.003   7.478 -0.3630 -0.7254  0.3912
  319MOL0     N43935   8.664   8.151   8.062 -0.1163  0.1489 -1.0412
  319MOL0     N43936   8.686   8.130   8.190  0.5108  0.4734 -0.2182
  319MOL0     C43937   9.860   8.033   7.916  0.4498 -0.7518  0.4015
  319MOL0     C43938  10.002   8.052   7.887  0.2642  1.0291  0.8022
  319MOL0     C43939  10.444   8.190   8.002 -0.0595  0.7206  0.4940
  319MOL0     C43940  10.482   8.169   7.867 -0.0405 -0.3172 -0.2697
  319MOL0     C43941  10.611   8.190   7.823  0.6836 -0.9484 -0.0292
  319MOL0     C43942  10.711   8.251   7.898  0.7310 -0.4605  0.1232
  319MOL0     O43943  10.834   8.257   7.847 -0.2737 -0.5050 -0.3463
  319MOL0     C43944  10.863   8.386   7.785  1.0103 -0.0293  0.4947
  319MOL0     C43945  10.978   8.367   7.687 -0.3287 -1.2793 -0.2954
  319MOL0     C43946  11.086   8.269   7.730  0.0352  0.4430 -0.9538
  319MOL0     C43947  11.205   8.298   7.649 -0.0562 -0.4063  0.1663
  319MOL0     C43948  11.314   8.205   7.662 -0.5569  0.9134 -0.1643
  319MOL0     C43949  11.400   8.122   7.682 -0.2822 -0.4822  0.1689
  319MOL0     C43950  10.682   8.273   8.025 -0.4547  0.3435  0.0066
  319MOL0     C43951  10.550   8.240   8.090 -0.4347 -0.5151  0.4297
  319MOL0     C43952  10.539   8.264   8.240  0.4453 -0.2003 -0.4237
  319MOL0     H43953  10.116   8.024   8.196  1.9592  3.0701 -1.8137
  319MOL0     H43954   9.883   7.998   8.248  1.6280  2.3954  0.7280
  319MOL0     H43955   9.597   8.183   8.063  2.0418 -1.7337 -2.7882
  319MOL0     H43956   9.679   8.129   8.205  1.8965  1.1361 -1.8930
  319MOL0     H43957   9.475   7.939   8.205 -1.6022 -0.5336 -1.5993
  319MOL0     H43958   9.470   8.098   8.273  4.0331  1.1940  0.1046
  319MOL0     H43959   9.334   8.162   8.077  1.2097  0.5244 -0.2078
  319MOL0     H43960   9.383   8.023   7.989  3.6951  0.4796  0.9618
  319MOL0     H43961   9.148   8.008   8.048  0.5332  0.0627 -0.4332
  319MOL0     H43962   9.246   7.869   8.104 -1.7088 -0.0172  0.6899
  319MOL0     H43963   9.167   8.102   8.280 -2.9149 -0.5415 -0.4384
  319MOL0     H43964   9.260   7.958   8.326 -1.2761 -1.0510  1.6583
  319MOL0     H43965   8.996   7.906   8.172  2.3210 -0.1545 -1.4287
  319MOL0     H43966   9.049   7.819   8.312  1.5952  0.2802 -0.5565
  319MOL0     H43967   9.005   7.975   8.475 -0.7995  0.4103  2.1282
  319MOL0     H43968   8.855   7.921   8.400  1.4631 -0.9485  1.7232
  319MOL0     H43969   8.819   8.158   8.414 -0.9942 -1.7965 -1.1217
  319MOL0     H43970   8.974   8.209   8.341  1.0260 -0.3351  0.3352
  319MOL0     H43971   8.993   8.140   8.084  1.1532  4.3648  0.3847
  319MOL0     H43972   8.721   8.207   7.805  0.4007  1.4705  0.5589
  319MOL0     H43973   8.838   8.069   7.819  0.3107 -0.1033  0.8576
  319MOL0     H43974   8.897   8.351   7.890 -0.1311  1.0547 -2.3879
  319MOL0     H43975   9.022   8.229   7.865 -0.5012 -1.5394 -1.8735
  319MOL0     H43976   8.836   8.329   7.632  0.8520 -1.8087 -1.4260
  319MOL0     H43977   8.993   8.406   7.680 -0.3352  0.8698  0.3635
  319MOL0     H43978   8.946   8.116   7.577 -1.0618  0.1982 -2.6696
  319MOL0     H43979   9.012   8.237   7.469 -2.7101 -2.3733 -0.7413
  319MOL0     H43980   9.365   8.184   7.699 -1.3730  0.1525 -1.2486
  319MOL0     H43981   9.631   7.952   7.601  1.1155  1.1474 -0.3792
  319MOL0     H43982   9.544   8.015   7.755 -2.8972  0.0600  0.4419
  319MOL0     H43983   9.609   8.119   7.628 -0.1919 -0.4009 -1.1787
  319MOL0     H43984   9.477   7.483   7.589  1.3579 -1.2067  1.3746
  319MOL0     H43985   9.597   7.269   7.531 -0.3969  0.9036  2.0419
  319MOL0     H43986   9.756   7.262   7.127  2.4630  3.4512 -0.0593
  319MOL0     H43987   9.920   7.262   7.178  0.1372 -1.1097  0.3362
  319MOL0     H43988   9.732   7.025   7.200  0.6448 -2.1180 -0.7665
  319MOL0     H43989   9.849   7.040   7.074  0.8072  4.5436 -1.3445
  319MOL0     H43990   9.874   6.974   7.372 -1.8500  0.3224 -0.2881
  319MOL0     H43991  10.007   7.076   7.310  0.2535 -1.5942  0.6517
  319MOL0     H43992  10.038   6.921   7.112  1.5299  2.0651  0.8747
  319MOL0     H43993   9.915   6.809   7.175  0.4712 -1.8997  1.4961
  319MOL0     H43994  10.182   6.879   7.294  0.2717  0.2852  1.2762
  319MOL0     H43995  10.056   6.803   7.391 -0.4238  0.4518  0.2999
  319MOL0     H43996  10.145   6.688   7.126  1.2302 -2.9827  0.1880
  319MOL0     H43997  10.025   6.614   7.231  0.3837  0.3833 -0.6575
  319MOL0     H43998  10.189   6.602   7.401 -0.0366  3.1691  0.4661
  319MOL0     H43999  10.313   6.676   7.310 -0.1888  1.7501 -2.6279
  319MOL0     H44000  10.362   6.438   7.255 -0.0168 -0.7258  2.2063
  319MOL0     H44001  10.285   6.508   7.117  2.6379  0.4248  1.1645
  319MOL0     H44002   9.725   7.468   7.159 -4.5753 -3.6545 -2.6552
  319MOL0     H44003   9.574   7.664   7.225  1.4242  1.8026  0.9143
  319MOL0     H44004   9.237   7.817   7.388  2.3964  0.4923 -1.0134
  319MOL0     H44005   9.090   8.008   7.426 -0.0832  3.1881 -0.0946
  319MOL0     H44006   9.790   8.014   7.836 -2.7685 -4.6247  3.7171
  319MOL0     H44007  10.035   8.079   7.787 -0.0970 -0.0450  0.3724
  319MOL0     H44008  10.420   8.116   7.794 -0.6083 -2.1628  1.4704
  319MOL0     H44009  10.646   8.146   7.730  0.9319  1.1316 -0.9878
  319MOL0     H44010  10.774   8.424   7.735  0.5611  1.9735  2.6447
  319MOL0     H44011  10.881   8.462   7.861  0.1889 -0.0056  0.6820
  319MOL0     H44012  11.013   8.469   7.667 -0.0500 -1.5187 -1.0694
  319MOL0     H44013  10.935   8.333   7.592 -0.0967  0.1516 -0.9341
  319MOL0     H44014  11.106   8.272   7.837  1.0263 -2.3872 -0.9993
  319MOL0     H44015  11.052   8.166   7.718 -0.0553  0.4958 -1.1532
  319MOL0     H44016  11.249   8.398   7.659  0.8994 -0.7186 -0.6217
  319MOL0     H44017  11.157   8.291   7.551 -0.6426 -4.2536  0.5650
  319MOL0     H44018  11.472   8.050   7.716 -1.2427 -1.0338  1.1194
  319MOL0     H44019  10.772   8.283   8.084 -0.2707  1.8534 -0.5119
  319MOL0     H44020  10.453   8.327   8.268  0.8967  0.7737 -1.1626
  319MOL0     H44021  10.544   8.167   8.291 -0.7261  0.4401  1.0163
  319MOL0     H44022  10.630   8.313   8.275 -2.1411  4.3105  0.8856
  320MOL0     O44023  10.176   3.350   2.823 -0.4568 -0.6545 -1.0086
  320MOL0     C44024  10.284   3.369   2.774 -0.5513  0.3628  0.1578
  320MOL0     O44025  10.404   3.341   2.828 -0.2445 -0.2579  0.9609
  320MOL0     C44026  10.420   3.264   2.945 -0.0651  0.0868  0.2931
  320MOL0     C44027  10.534   3.290   3.030 -0.5063 -0.1509 -0.2139
  320MOL0     C44028  10.547   3.222   3.154 -0.2505  0.5356  0.3858
  320MOL0     C44029  10.452   3.137   3.205 -0.2890 -0.8113  0.4376
  320MOL0     O44030  10.477   3.076   3.328 -0.5732 -0.2814  0.3123
  320MOL0     C44031  10.363   3.025   3.409 -0.0005  0.8996  0.1213
  320MOL0     C44032  10.335   2.873   3.412  0.4690  1.2542 -0.1370
  320MOL0     C44033  10.211   2.833   3.479 -0.6293  0.0564 -0.3401
  320MOL0     C44034  10.191   2.679   3.478  0.9343 -0.1134  0.3500
  320MOL0     C44035  10.313   2.608   3.532  0.7990  0.0681 -0.7100
  320MOL0     C44036  10.271   2.476   3.601 -0.1991 -0.1368 -0.3577
  320MOL0     C44037  10.389   2.414   3.666 -0.2001  0.1928 -1.4410
  320MOL0     C44038  10.385   2.259   3.646 -0.8733 -0.5453 -0.8232
  320MOL0     N44039  10.485   2.189   3.727 -0.5731 -0.1056 -0.1333
  320MOL0     C44040  10.607   2.135   3.684 -0.1325  0.3526 -0.3625
  320MOL0     C44041  10.653   2.060   3.790  0.5293  0.4232  0.9057
  320MOL0     C44042  10.779   1.979   3.790  0.1387  0.1718  0.0321
  320MOL0     C44043  10.787   1.874   3.899  0.1164 -0.1522 -0.4694
  320MOL0     C44044  10.840   1.923   4.034  0.0367  0.0878 -0.9440
  320MOL0     C44045  10.978   1.982   4.029  0.0370 -0.2106 -0.0454
  320MOL0     O44046  11.071   1.879   3.994 -0.0075 -0.2732 -0.1226
  320MOL0     C44047  11.082   1.771   4.074 -0.2181 -0.2806  0.3431
  320MOL0     C44048  11.043   1.650   4.018 -0.0344  0.7818 -0.0885
  320MOL0     C44049  11.050   1.537   4.102 -0.2761  0.1421 -0.7117
  320MOL0     C44050  11.012   1.407   4.034 -0.3118 -0.2099  0.5511
  320MOL0     C44051  11.100   1.543   4.239  0.3477 -0.4949 -0.8262
  320MOL0     C44052  11.130   1.421   4.321 -0.1129 -0.0426 -0.0871
  320MOL0     O44053  11.213   1.325   4.268  0.9393 -0.5266  0.3863
  320MOL0     C44054  11.223   1.191   4.310  0.4029  0.6571  1.1526
  320MOL0     C44055  11.188   1.152   4.437 -0.2116 -0.7280  1.0356
  320MOL0     C44056  11.189   1.020   4.460 -0.4208  0.1811 -0.2387
  320MOL0     C44057  11.215   0.920   4.364  0.6943 -0.2871 -0.8380
  320MOL0     O44058  11.220   0.791   4.412  0.0770 -0.1119  0.0516
  320MOL0     C44059  11.123   0.703   4.354  0.9625 -0.2801  0.1422
  320MOL0     C44060  11.117   0.564   4.416  0.3080  0.3123  0.3706
  320MOL0     C44061  11.101   0.551   4.569  0.4379 -0.5829  0.3391
  320MOL0     C44062  11.042   0.414   4.609 -1.0354 -0.2979 -0.0657
  320MOL0     C44063  11.063   0.389   4.766 -0.5543 -0.9661  0.7861
  320MOL0     C44064  11.015   0.245   4.789 -0.6086  0.5336  0.0916
  320MOL0     C44065  11.050   0.192   4.930 -0.1185  0.8806 -0.0754
  320MOL0     C44066  11.025   0.293   5.040  0.4131  1.0219 -0.2494
  320MOL0    Cl44067  10.867   0.363   5.048  0.0483  0.1510  0.3479
  320MOL0     C44068  11.246   0.961   4.242  0.2118 -0.3118  1.5128
  320MOL0     C44069  11.261   1.095   4.219  0.0720  0.1020 -0.3354
  320MOL0     O44070  11.076   1.409   4.431 -0.0644  0.2855  0.5703
  320MOL0     C44071  11.132   1.670   4.286 -1.1018 -0.3961 -0.1936
  320MOL0     C44072  11.127   1.781   4.208 -0.7902 -0.1170 -0.3637
  320MOL0     N44073  10.574   2.094   3.897  0.7546 -0.0624  0.1109
  320MOL0     N44074  10.466   2.152   3.858  0.4307 -0.6598 -0.5011
  320MOL0     C44075  10.349   3.105   3.117 -0.3416  0.1937 -0.3684
  320MOL0     C44076  10.321   3.172   2.999  0.3606 -0.5307  0.2223
  320MOL0     C44077  10.286   3.425   2.642  0.1327  0.3412  0.4287
  320MOL0     C44078  10.169   3.502   2.609 -0.0917  0.1496 -0.0375
  320MOL0     C44079  10.158   3.574   2.488 -0.8287  1.2072  0.7926
  320MOL0     C44080  10.253   3.549   2.393  1.2587 -0.1689 -0.4920
  320MOL0     O44081  10.222   3.603   2.263 -0.6217  0.1104  1.0458
  320MOL0     C44082  10.313   3.587   2.148 -0.4129 -0.9278 -0.5150
  320MOL0     C44083  10.324   3.718   2.071  0.7151  0.0875  0.3252
  320MOL0     C44084  10.404   3.701   1.944 -0.1456  0.2144 -0.1250
  320MOL0     C44085  10.413   3.826   1.861 -0.3142 -0.9568 -0.0102
  320MOL0     C44086  10.288   3.867   1.788 -0.7322  0.2507  0.7524
  320MOL0     C44087  10.199   3.883   1.710  0.3737 -0.3481 -1.5519
  320MOL0     C44088  10.375   3.478   2.420 -0.2224  0.0058  0.6577
  320MOL0     C44089  10.398   3.416   2.546  0.6374 -0.6812 -0.4096
  320MOL0     C44090  10.540   3.363   2.572 -0.5787  0.1739 -0.3972
  320MOL0     H44091  10.615   3.353   2.996  2.0864 -2.1650  1.7646
  320MOL0     H44092  10.639   3.220   3.212 -0.9381 -1.4514  1.5014
  320MOL0     H44093  10.273   3.081   3.379 -1.0290  1.5464  3.8281
  320MOL0     H44094  10.377   3.057   3.513  2.1144 -1.3277  0.6071
  320MOL0     H44095  10.340   2.844   3.307  0.1970  1.1857 -0.1315
  320MOL0     H44096  10.417   2.823   3.465 -1.3175 -1.1825  0.5633
  320MOL0     H44097  10.208   2.865   3.584 -1.8385 -1.3876  0.1031
  320MOL0     H44098  10.123   2.875   3.429 -0.0129  0.3262 -1.2084
  320MOL0     H44099  10.099   2.649   3.530  0.6843 -0.4549 -0.2816
  320MOL0     H44100  10.174   2.655   3.373 -1.1105  3.1665 -0.2161
  320MOL0     H44101  10.356   2.678   3.605  2.1205  2.0663 -3.2232
  320MOL0     H44102  10.380   2.595   3.447  2.5579  2.9925  0.1075
  320MOL0     H44103  10.189   2.496   3.670  0.9960 -0.3561  1.1669
  320MOL0     H44104  10.239   2.413   3.518  1.6423  0.8149 -1.8765
  320MOL0     H44105  10.387   2.448   3.770 -0.2658 -1.6123 -0.8252
  320MOL0     H44106  10.480   2.463   3.629 -1.2565  3.5622  0.0482
  320MOL0     H44107  10.284   2.217   3.653 -0.3732 -1.6023  1.0344
  320MOL0     H44108  10.407   2.247   3.540  1.2141 -3.1684 -0.2023
  320MOL0     H44109  10.657   2.149   3.589 -2.3010  2.1756 -1.3434
  320MOL0     H44110  10.854   2.059   3.799 -1.1160  1.4913 -0.6911
  320MOL0     H44111  10.804   1.931   3.695  1.0398 -1.7356  1.1768
  320MOL0     H44112  10.685   1.834   3.900 -0.4006  1.1116  0.8786
  320MOL0     H44113  10.852   1.792   3.866 -0.5662 -0.8425 -0.1433
  320MOL0     H44114  10.769   1.999   4.068 -0.1695 -0.8822  0.9092
  320MOL0     H44115  10.838   1.839   4.104  0.1285  1.9129  1.3493
  320MOL0     H44116  10.989   2.063   3.955  2.9928  0.4507  0.9511
  320MOL0     H44117  10.992   2.022   4.130 -1.8050  0.8045 -0.1570
  320MOL0     H44118  11.004   1.635   3.918 -0.6279  0.6512  0.1550
  320MOL0     H44119  10.903   1.405   4.046 -0.4797  0.3376 -0.7099
  320MOL0     H44120  11.054   1.314   4.073 -2.0697 -1.4352 -0.3230
  320MOL0     H44121  11.027   1.414   3.926 -0.8490  1.7608  0.5497
  320MOL0     H44122  11.150   1.212   4.519 -3.3524 -3.0751  1.4974
  320MOL0     H44123  11.161   0.995   4.562 -1.2722 -2.3294 -1.0168
  320MOL0     H44124  11.033   0.761   4.379  1.1394 -0.0991  0.3628
  320MOL0     H44125  11.130   0.692   4.246 -1.1762  1.8415 -0.3081
  320MOL0     H44126  11.028   0.516   4.375 -2.5424  3.2452  2.5569
  320MOL0     H44127  11.212   0.531   4.374  0.8657  3.5866 -1.3065
  320MOL0     H44128  11.033   0.627   4.607 -1.2160 -1.1977 -1.2456
  320MOL0     H44129  11.199   0.568   4.615 -0.6779  1.5304  2.1073
  320MOL0     H44130  11.095   0.335   4.556  2.4790  2.8672 -1.7409
  320MOL0     H44131  10.939   0.428   4.573 -0.4660  1.9900 -0.9648
  320MOL0     H44132  11.170   0.392   4.788 -0.4283 -2.9236  0.5868
  320MOL0     H44133  11.004   0.468   4.814 -0.1058  0.3652 -0.7643
  320MOL0     H44134  11.062   0.181   4.714 -1.6276 -1.0549  0.7465
  320MOL0     H44135  10.906   0.246   4.780 -0.8019 -1.2850  1.6320
  320MOL0     H44136  11.155   0.161   4.932 -0.3870 -0.2104 -1.4509
  320MOL0     H44137  10.993   0.101   4.952 -0.8363  0.9804 -1.4149
  320MOL0     H44138  11.095   0.378   5.041  1.0962  0.5620 -2.8679
  320MOL0     H44139  11.040   0.246   5.138 -0.6934  2.3272  0.5839
  320MOL0     H44140  11.260   0.890   4.161  0.2377  0.3452  0.9331
  320MOL0     H44141  11.296   1.141   4.127 -2.2420  1.1712 -0.7549
  320MOL0     H44142  11.150   1.681   4.392 -2.1621 -1.8324  0.1660
  320MOL0     H44143  11.141   1.883   4.241  2.2165 -0.9075  1.1338
  320MOL0     H44144  10.301   3.012   3.145  1.6479 -1.1166 -1.1072
  320MOL0     H44145  10.229   3.143   2.950 -1.1562 -0.6151  2.9073
  320MOL0     H44146  10.087   3.517   2.679 -0.8971 -2.6559 -0.2389
  320MOL0     H44147  10.065   3.619   2.456 -1.2112 -0.4744 -0.6262
  320MOL0     H44148  10.410   3.542   2.172 -0.0696 -0.2253 -0.5492
  320MOL0     H44149  10.266   3.512   2.084  0.3265 -0.3096 -1.8236
  320MOL0     H44150  10.384   3.788   2.129  2.0003 -0.2155 -0.5771
  320MOL0     H44151  10.222   3.756   2.059  1.2177  2.0515  1.7679
  320MOL0     H44152  10.503   3.672   1.981  1.0027  2.1319 -1.4781
  320MOL0     H44153  10.357   3.622   1.885  3.4560 -0.6430 -2.2185
  320MOL0     H44154  10.488   3.811   1.784 -2.6034 -0.3180 -2.5317
  320MOL0     H44155  10.448   3.902   1.933 -2.0235 -1.9208  1.9576
  320MOL0     H44156  10.126   3.884   1.632 -0.4063 -0.5807 -0.8480
  320MOL0     H44157  10.453   3.466   2.346 -0.0466  1.8794  0.5070
  320MOL0     H44158  10.604   3.418   2.502 -0.0966 -0.3994 -0.4135
  320MOL0     H44159  10.567   3.377   2.677 -5.2460  0.0952  1.0205
  320MOL0     H44160  10.542   3.256   2.549  3.2386  0.1559 -0.5891
  321MOL0     O44161   1.877   6.944  10.257  0.3978  0.3384 -0.4717
  321MOL0     C44162   1.788   6.964  10.177  0.3976 -0.4620 -0.8983
  321MOL0     O44163   1.793   7.023  10.056  0.0500 -0.4399  0.4746
  321MOL0     C44164   1.911   7.075  10.001  0.0912  0.6817 -0.1160
  321MOL0     C44165   1.906   7.183   9.904 -0.3511  0.3362 -1.5470
  321MOL0     C44166   2.020   7.225   9.837 -0.4340 -0.7951  1.1040
  321MOL0     C44167   2.141   7.155   9.861 -0.1022 -0.7203 -0.5096
  321MOL0     O44168   2.259   7.189   9.807 -0.3614  0.1155 -0.0651
  321MOL0     C44169   2.278   7.303   9.721 -0.2730 -0.6051 -0.4765
  321MOL0     C44170   2.384   7.270   9.616 -0.0990 -0.4413 -0.5628
  321MOL0     C44171   2.527   7.242   9.665 -0.8428  0.2158 -0.2259
  321MOL0     C44172   2.615   7.215   9.546 -0.0628 -0.0395  0.2070
  321MOL0     C44173   2.753   7.177   9.588  0.5918  0.3025 -0.1504
  321MOL0     C44174   2.848   7.174   9.465  0.9936 -0.0055 -0.5459
  321MOL0     C44175   2.978   7.107   9.478 -0.4543 -0.9371  1.0422
  321MOL0     C44176   3.055   7.101   9.346  0.0126 -0.4266 -0.0660
  321MOL0     N44177   3.170   7.014   9.347  0.0872 -1.0329  0.1512
  321MOL0     C44178   3.240   6.969   9.456  0.9448  0.0416  0.2163
  321MOL0     C44179   3.353   6.919   9.405 -0.0051  0.4504  0.3227
  321MOL0     C44180   3.470   6.862   9.486  0.1965  0.2783  0.4844
  321MOL0     C44181   3.463   6.720   9.528 -0.1298 -0.1580 -0.5944
  321MOL0     C44182   3.597   6.671   9.591  0.2299 -0.8454  0.3784
  321MOL0     C44183   3.581   6.531   9.650 -0.1648  0.4535  0.3848
  321MOL0     O44184   3.539   6.434   9.554  0.2206 -0.0497  0.1017
  321MOL0     C44185   3.620   6.331   9.515  0.0490 -0.6266  0.3236
  321MOL0     C44186   3.551   6.221   9.472  0.3194 -0.0293 -0.3405
  321MOL0     C44187   3.616   6.113   9.408  0.2848 -0.0597 -0.6119
  321MOL0     C44188   3.535   6.004   9.353  0.7355 -0.2767  1.2534
  321MOL0     C44189   3.761   6.117   9.396  0.2028 -0.4821 -0.0033
  321MOL0     C44190   3.847   6.007   9.330 -0.1522 -0.3867  0.3364
  321MOL0     O44191   3.981   6.027   9.328 -0.8074 -0.3863 -0.3057
  321MOL0     C44192   4.064   5.932   9.276  0.0001 -0.0542  0.3150
  321MOL0     C44193   4.139   5.856   9.370  0.7565 -0.6751 -0.0549
  321MOL0     C44194   4.219   5.759   9.317 -0.2177  0.6765 -0.0703
  321MOL0     C44195   4.217   5.732   9.179  0.4392 -0.5888  0.6496
  321MOL0     O44196   4.297   5.649   9.113 -0.4602  0.2545 -0.1188
  321MOL0     C44197   4.343   5.529   9.172 -0.6268 -0.0970 -0.5034
  321MOL0     C44198   4.401   5.414   9.088  0.5087 -0.8329 -0.0380
  321MOL0     C44199   4.297   5.337   9.019  0.3302  0.4246 -0.3891
  321MOL0     C44200   4.352   5.220   8.946 -0.3653 -0.4143  0.1531
  321MOL0     C44201   4.295   5.088   8.978  0.6625  1.0920 -0.4800
  321MOL0     C44202   4.371   4.972   8.906  0.2208  0.1820 -0.3924
  321MOL0     C44203   4.504   4.946   8.967 -0.8518 -0.4838  0.5213
  321MOL0     C44204   4.582   4.847   8.881  0.9738  0.5032  0.2168
  321MOL0    Cl44205   4.743   4.818   8.958 -0.0943 -0.0455 -0.1029
  321MOL0     C44206   4.130   5.806   9.094 -0.5063  0.0317 -0.1634
  321MOL0     C44207   4.053   5.902   9.141  0.7562  0.0326 -0.0903
  321MOL0     O44208   3.793   5.901   9.294  0.1617  0.5479  0.3849
  321MOL0     C44209   3.825   6.230   9.444  0.9577 -0.0718 -0.2499
  321MOL0     C44210   3.755   6.341   9.495 -0.5783 -0.9497 -1.2350
  321MOL0     N44211   3.357   6.943   9.275  0.2530  0.3799  0.3272
  321MOL0     N44212   3.243   6.998   9.232  0.0202 -0.0929 -0.0962
  321MOL0     C44213   2.150   7.046   9.939 -0.4102  0.0432 -0.1754
  321MOL0     C44214   2.033   7.002  10.010  0.0912  0.7443  0.5469
  321MOL0     C44215   1.651   6.920  10.221  0.0171 -0.1767 -1.0211
  321MOL0     C44216   1.634   6.794  10.285 -0.3783 -1.0573 -0.6954
  321MOL0     C44217   1.508   6.751  10.327 -0.3025  0.4784  0.6162
  321MOL0     C44218   1.398   6.830  10.307  0.6289  0.3060 -0.6089
  321MOL0     O44219   1.276   6.779  10.350 -0.1669  0.3660 -0.2863
  321MOL0     C44220   1.178   6.877  10.385  0.0445 -0.5450  0.1518
  321MOL0     C44221   1.066   6.807  10.459 -0.4079  0.0018 -1.2224
  321MOL0     C44222   0.984   6.715  10.372 -0.4401 -0.2503 -0.8387
  321MOL0     C44223   0.845   6.785  10.338  0.2782 -0.5900 -0.2165
  321MOL0     C44224   0.852   6.880  10.233  0.6501  0.0290  0.9336
  321MOL0     C44225   0.848   6.960  10.144 -0.4057 -0.5920 -0.0134
  321MOL0     C44226   1.413   6.954  10.251  0.3348 -0.7499 -0.1431
  321MOL0     C44227   1.536   6.997  10.202 -0.4409  0.7747  0.9587
  321MOL0     C44228   1.541   7.138  10.155  0.5994 -0.5094 -0.3629
  321MOL0     H44229   1.812   7.219   9.863 -1.0443  1.3440  0.7477
  321MOL0     H44230   2.000   7.305   9.768  1.1947 -0.3456  1.0996
  321MOL0     H44231   2.304   7.389   9.783  0.5169 -1.0356 -0.1894
  321MOL0     H44232   2.183   7.325   9.672 -0.6730  0.7350  0.8274
  321MOL0     H44233   2.343   7.187   9.558 -1.0414  0.4216 -1.1774
  321MOL0     H44234   2.384   7.357   9.550 -4.1354  0.1574 -0.0520
  321MOL0     H44235   2.568   7.332   9.710  3.8157 -2.1898  0.9981
  321MOL0     H44236   2.521   7.158   9.735 -0.3648 -0.9047 -1.4886
  321MOL0     H44237   2.566   7.149   9.474  2.6386  0.8453 -2.7065
  321MOL0     H44238   2.629   7.316   9.504  1.7088  1.6838  4.3503
  321MOL0     H44239   2.752   7.077   9.632  3.4009  0.1617 -0.2775
  321MOL0     H44240   2.788   7.246   9.665  2.3810  1.9403 -2.2868
  321MOL0     H44241   2.801   7.114   9.386 -0.4241 -0.6984  0.7740
  321MOL0     H44242   2.861   7.276   9.428  2.2237  0.4476  1.0347
  321MOL0     H44243   2.959   7.001   9.502  0.1381 -0.5951  3.2853
  321MOL0     H44244   3.031   7.161   9.557 -0.7483 -1.2013  1.4281
  321MOL0     H44245   2.994   7.075   9.259 -1.1412  0.6581  0.3834
  321MOL0     H44246   3.081   7.208   9.339 -2.5647  0.4160  1.7325
  321MOL0     H44247   3.217   6.982   9.561 -1.2455  0.1221 -0.2336
  321MOL0     H44248   3.505   6.919   9.572  1.0258  0.1910  0.2111
  321MOL0     H44249   3.554   6.866   9.416 -1.2828  0.5046 -1.3920
  321MOL0     H44250   3.384   6.718   9.604 -0.6426 -1.3519 -1.1487
  321MOL0     H44251   3.430   6.658   9.444  1.1697  0.6506 -1.7474
  321MOL0     H44252   3.660   6.676   9.502  0.3916  1.8701  0.5739
  321MOL0     H44253   3.629   6.742   9.668 -0.2332  0.4315 -0.5750
  321MOL0     H44254   3.679   6.510   9.693 -0.5974  2.0071  2.2240
  321MOL0     H44255   3.505   6.545   9.727  1.4187  2.9938  1.6008
  321MOL0     H44256   3.444   6.230   9.487  0.2717 -0.1312 -0.6008
  321MOL0     H44257   3.561   5.904   9.391 -3.9158 -0.8444  3.5868
  321MOL0     H44258   3.546   6.015   9.245 -2.1473 -2.1053  0.6771
  321MOL0     H44259   3.428   6.014   9.372  1.1981 -0.7081  4.9304
  321MOL0     H44260   4.151   5.884   9.474 -2.1027  1.2038 -0.1228
  321MOL0     H44261   4.288   5.703   9.378  2.0006  1.4048 -1.7985
  321MOL0     H44262   4.420   5.551   9.246 -0.5722 -0.7990 -0.3484
  321MOL0     H44263   4.260   5.493   9.233 -1.2363  2.9625  0.6685
  321MOL0     H44264   4.473   5.449   9.014  0.3445  1.9990  1.0202
  321MOL0     H44265   4.457   5.350   9.157 -0.3869  1.1298  2.7171
  321MOL0     H44266   4.227   5.392   8.956 -0.6979 -2.7405 -2.2338
  321MOL0     H44267   4.232   5.296   9.098 -1.3711  2.1967 -0.7935
  321MOL0     H44268   4.459   5.214   8.966 -0.3812  0.9737  0.7851
  321MOL0     H44269   4.354   5.239   8.839  2.6999 -0.2052  0.1515
  321MOL0     H44270   4.279   5.070   9.085  3.1954 -1.0282 -0.3309
  321MOL0     H44271   4.191   5.087   8.946  0.3543  2.0033  0.4176
  321MOL0     H44272   4.373   4.995   8.799 -0.5657  0.9594 -0.2569
  321MOL0     H44273   4.312   4.880   8.910  2.8255 -1.6072 -0.5311
  321MOL0     H44274   4.488   4.912   9.070  1.2987  0.4255  1.2097
  321MOL0     H44275   4.567   5.035   8.971 -3.5137  1.5367  0.9282
  321MOL0     H44276   4.578   4.864   8.773 -1.8973 -1.2476 -0.0585
  321MOL0     H44277   4.531   4.750   8.877  2.7362 -0.4883  0.4973
  321MOL0     H44278   4.140   5.789   8.987  2.6031  0.5745 -0.0547
  321MOL0     H44279   3.969   5.951   9.093 -1.1713 -3.5657 -0.7566
  321MOL0     H44280   3.933   6.240   9.435  1.0964 -1.7883 -0.8636
  321MOL0     H44281   3.804   6.435   9.519 -1.6571 -0.9997  1.4744
  321MOL0     H44282   2.242   6.990   9.948 -0.5006  0.2244  2.6596
  321MOL0     H44283   2.040   6.914  10.073 -1.0751  1.7956  2.2292
  321MOL0     H44284   1.724   6.735  10.305  0.1924 -0.9837 -2.8621
  321MOL0     H44285   1.498   6.660  10.386 -0.1242  1.2531  1.8852
  321MOL0     H44286   1.230   6.954  10.444  1.4074 -0.6353 -0.8841
  321MOL0     H44287   1.132   6.934  10.304 -3.5668 -0.9517  1.7280
  321MOL0     H44288   1.001   6.876  10.514  0.4070 -0.5689  0.4943
  321MOL0     H44289   1.113   6.757  10.544 -1.0232  2.8749  0.9916
  321MOL0     H44290   1.042   6.680  10.286  0.0325 -3.1106  0.5308
  321MOL0     H44291   0.967   6.622  10.427 -0.3791 -0.4801 -1.2059
  321MOL0     H44292   0.811   6.835  10.429  2.6127  2.4961 -0.9182
  321MOL0     H44293   0.774   6.707  10.306 -0.3891 -0.0170 -0.1681
  321MOL0     H44294   0.856   7.022  10.057  0.2214 -1.2729 -0.4556
  321MOL0     H44295   1.331   7.021  10.226  1.5450  0.2168 -1.7485
  321MOL0     H44296   1.606   7.202  10.215  0.1459 -0.4956  0.1255
  321MOL0     H44297   1.572   7.131  10.050  2.6626 -2.1588  0.2701
  321MOL0     H44298   1.441   7.182  10.159 -0.9578 -3.8282  2.5046
  322MOL0     O44299   1.190   3.072  10.768  0.1088  0.3024  0.4146
  322MOL0     C44300   1.070   3.054  10.794 -0.1474  0.2815 -0.1802
  322MOL0     O44301   1.008   2.938  10.778 -0.2626  0.0757 -0.5621
  322MOL0     C44302   1.040   2.845  10.682 -0.3577  0.2024  0.0736
  322MOL0     C44303   1.088   2.885  10.553 -0.8247 -0.9404 -0.4599
  322MOL0     C44304   1.113   2.791  10.451 -0.6402 -0.8082  0.1163
  322MOL0     C44305   1.091   2.660  10.473  0.3976  0.2524  0.6500
  322MOL0     O44306   1.097   2.564  10.376  0.1020  0.2080  0.0789
  322MOL0     C44307   1.173   2.587  10.261  0.6920 -1.0103  0.3662
  322MOL0     C44308   1.249   2.459  10.208 -0.3796  0.8244 -0.0785
  322MOL0     C44309   1.359   2.411  10.297 -0.1558  0.6816  0.4410
  322MOL0     C44310   1.478   2.341  10.221  0.1717  0.0542 -0.3466
  322MOL0     C44311   1.582   2.276  10.310  0.9652  0.3138  0.4197
  322MOL0     C44312   1.691   2.362  10.374  0.8078 -0.0249  0.1357
  322MOL0     C44313   1.773   2.438  10.280 -0.2015  0.2109 -0.8288
  322MOL0     C44314   1.912   2.482  10.348 -0.1033  0.1772  1.1223
  322MOL0     N44315   1.981   2.582  10.266 -0.5932  0.4194  0.2162
  322MOL0     C44316   2.025   2.694  10.324  0.0240  0.3180 -0.2434
  322MOL0     C44317   2.090   2.756  10.226 -0.3150 -1.2396 -0.4718
  322MOL0     C44318   2.167   2.888  10.239 -0.0902  1.1819 -0.3952
  322MOL0     C44319   2.061   2.990  10.238 -0.1704 -0.5883 -0.1133
  322MOL0     C44320   2.113   3.134  10.267 -0.1694 -1.0026 -0.2222
  322MOL0     C44321   2.193   3.152  10.401  0.2633  0.6422 -1.1236
  322MOL0     O44322   2.247   3.278  10.422 -0.3482 -0.1043 -0.0760
  322MOL0     C44323   2.312   3.308  10.539  0.3370 -0.0745 -0.2557
  322MOL0     C44324   2.349   3.207  10.629  0.0087 -0.3768 -0.3432
  322MOL0     C44325   2.425   3.235  10.742 -0.9590 -0.0556 -0.9164
  322MOL0     C44326   2.473   3.126  10.832  0.0735  0.3498  0.0681
  322MOL0     C44327   2.458   3.374  10.776 -0.4399  0.7996  0.4754
  322MOL0     C44328   2.522   3.429  10.898  0.0701  0.7639  0.4693
  322MOL0     O44329   2.600   3.551  10.881  0.7479 -0.4984 -0.0135
  322MOL0     C44330   2.680   3.581  10.984 -0.0467 -0.5075  0.2415
  322MOL0     C44331   2.657   3.696  11.062 -0.7218  0.1019 -0.1733
  322MOL0     C44332   2.754   3.738  11.157  1.6122 -0.6007  0.0101
  322MOL0     C44333   2.862   3.658  11.188 -0.2781 -0.2894 -0.6860
  322MOL0     O44334   2.948   3.704  11.278 -0.3864 -0.1722  0.4123
  322MOL0     C44335   3.027   3.608  11.351 -0.0898  0.7125 -0.2415
  322MOL0     C44336   3.082   3.659  11.493  0.6830 -0.3694 -0.3561
  322MOL0     C44337   3.186   3.770  11.476 -0.4286  0.6668 -0.1706
  322MOL0     C44338   3.286   3.780  11.601  0.7944 -0.3087  0.5943
  322MOL0     C44339   3.370   3.910  11.592  0.2414  0.0792 -0.3056
  322MOL0     C44340   3.438   3.933  11.720 -0.5459  0.1371 -1.3814
  322MOL0     C44341   3.589   3.911  11.719 -0.0789  1.3413 -0.1950
  322MOL0     C44342   3.646   3.912  11.858  0.0920 -0.3684 -0.7326
  322MOL0    Cl44343   3.590   3.763  11.935 -0.5038  0.0222  0.4370
  322MOL0     C44344   2.878   3.535  11.122 -0.3513  0.2554  0.2033
  322MOL0     C44345   2.798   3.506  11.013  0.4896  0.0109  0.4980
  322MOL0     O44346   2.493   3.375  11.004  0.3455  0.5825 -0.0285
  322MOL0     C44347   2.415   3.478  10.678 -0.0124  0.2017 -0.3770
  322MOL0     C44348   2.347   3.444  10.561 -0.2230  0.2986  0.1650
  322MOL0     N44349   2.053   2.699  10.109 -0.0789  0.3803 -0.7864
  322MOL0     N44350   1.990   2.594  10.135 -0.0066  0.9545 -0.0890
  322MOL0     C44351   1.043   2.616  10.596  0.2135  0.0553 -0.3861
  322MOL0     C44352   1.013   2.708  10.695 -0.7138 -0.1241  0.2346
  322MOL0     C44353   1.003   3.162  10.870 -0.4206 -0.7055 -0.2461
  322MOL0     C44354   0.894   3.128  10.946  0.0984  0.2305 -0.0808
  322MOL0     C44355   0.809   3.218  11.012  0.2970  0.5664  0.5114
  322MOL0     C44356   0.842   3.350  11.006  0.2519 -0.2551 -0.1855
  322MOL0     O44357   0.751   3.444  11.061  0.1585  0.5769  0.1182
  322MOL0     C44358   0.621   3.393  11.091 -0.1528 -0.0915  0.1126
  322MOL0     C44359   0.543   3.504  11.171 -0.2623  0.0374 -0.2006
  322MOL0     C44360   0.607   3.528  11.306 -0.9802 -0.6359  0.0095
  322MOL0     C44361   0.614   3.411  11.395  0.1122 -0.6219 -0.0581
  322MOL0     C44362   0.488   3.351  11.427 -0.2684  0.2010  1.1516
  322MOL0     C44363   0.381   3.299  11.453  0.4487 -0.5515 -0.1691
  322MOL0     C44364   0.962   3.390  10.957  0.8357  0.1284  0.9490
  322MOL0     C44365   1.040   3.303  10.877  0.1754 -0.4105 -0.1613
  322MOL0     C44366   1.154   3.373  10.801 -0.0908 -0.1175  0.7887
  322MOL0     H44367   1.111   2.985  10.517 -1.9557 -0.0601  1.1301
  322MOL0     H44368   1.152   2.828  10.357  0.6267  1.6109  1.4808
  322MOL0     H44369   1.250   2.664  10.271 -0.8982  0.7290 -0.3198
  322MOL0     H44370   1.101   2.618  10.184 -0.3194 -3.5263  0.2075
  322MOL0     H44371   1.170   2.383  10.207 -0.2310  0.6064  1.6263
  322MOL0     H44372   1.275   2.473  10.103  1.8882 -1.3801  0.0909
  322MOL0     H44373   1.403   2.492  10.358  0.3861  1.0009 -0.3538
  322MOL0     H44374   1.326   2.340  10.373  0.4233 -0.2147 -0.1302
  322MOL0     H44375   1.435   2.266  10.155  0.3308  0.1381 -0.5481
  322MOL0     H44376   1.531   2.413  10.158  0.5500 -1.4642 -1.8363
  322MOL0     H44377   1.633   2.204  10.245 -0.2269 -0.7159  0.5821
  322MOL0     H44378   1.539   2.220  10.394 -1.0698  0.4093 -0.5079
  322MOL0     H44379   1.631   2.429  10.437 -0.2258  0.7723 -1.6481
  322MOL0     H44380   1.760   2.301  10.434  2.0704  0.7809 -0.4576
  322MOL0     H44381   1.718   2.527  10.247  0.4184  1.0683  0.3816
  322MOL0     H44382   1.788   2.374  10.192  0.0656 -4.6075  2.3310
  322MOL0     H44383   1.903   2.528  10.447 -2.0348  1.7224  0.2788
  322MOL0     H44384   1.973   2.391  10.355 -1.2892 -0.7690 -0.2906
  322MOL0     H44385   2.022   2.729  10.427  0.8835  0.0528 -0.1179
  322MOL0     H44386   2.240   2.895  10.158  1.4522  0.1169  0.8347
  322MOL0     H44387   2.223   2.875  10.332  0.4956  2.2684 -0.5902
  322MOL0     H44388   2.005   2.976  10.146 -0.5390 -2.7227  0.3868
  322MOL0     H44389   1.994   2.966  10.321  2.1528  1.2196  2.4625
  322MOL0     H44390   2.186   3.160  10.190  1.4123  0.1279  1.5830
  322MOL0     H44391   2.033   3.208  10.273  1.8218  1.2596 -0.3054
  322MOL0     H44392   2.133   3.111  10.483  1.2940  0.4726 -0.4466
  322MOL0     H44393   2.271   3.078  10.381  1.3230  1.0926  1.0935
  322MOL0     H44394   2.327   3.101  10.624  1.8676 -1.1428  3.8676
  322MOL0     H44395   2.470   3.036  10.769 -2.9079  0.9049 -0.7342
  322MOL0     H44396   2.404   3.118  10.916  0.7166 -0.0237  0.5728
  322MOL0     H44397   2.578   3.128  10.864 -0.2059  0.4445  0.9842
  322MOL0     H44398   2.574   3.764  11.046  0.8562  2.1525 -0.0821
  322MOL0     H44399   2.741   3.840  11.191  1.5608 -0.4319 -0.5049
  322MOL0     H44400   2.970   3.519  11.379 -0.6002  1.8025  2.6448
  322MOL0     H44401   3.112   3.586  11.286  1.4892 -0.4663  2.0773
  322MOL0     H44402   2.995   3.693  11.550 -0.1597 -2.9565  0.0597
  322MOL0     H44403   3.128   3.576  11.548  0.7277 -1.9926 -2.7137
  322MOL0     H44404   3.130   3.864  11.466 -0.6134  0.4558 -1.1911
  322MOL0     H44405   3.250   3.753  11.389 -0.8129  1.7545 -0.6851
  322MOL0     H44406   3.357   3.697  11.603 -0.4429 -1.4016  1.1162
  322MOL0     H44407   3.220   3.786  11.689 -2.0731 -1.1170 -1.3489
  322MOL0     H44408   3.433   3.907  11.503 -0.4349 -0.5140 -0.7833
  322MOL0     H44409   3.319   4.004  11.570  2.1979  1.4721  0.7652
  322MOL0     H44410   3.392   3.863  11.791  2.8400 -0.4537  0.4444
  322MOL0     H44411   3.411   4.035  11.749  1.9786  0.5435 -0.1685
  322MOL0     H44412   3.635   3.982  11.649 -1.0332 -0.5261 -2.8801
  322MOL0     H44413   3.611   3.808  11.689  2.5551  2.1250 -1.2611
  322MOL0     H44414   3.624   4.001  11.917  2.2954 -1.5952  2.2364
  322MOL0     H44415   3.756   3.910  11.853  0.2948  0.8063  1.6825
  322MOL0     H44416   2.961   3.466  11.139  0.2635  0.0662 -2.9680
  322MOL0     H44417   2.825   3.418  10.955 -2.8460  0.6346 -2.3468
  322MOL0     H44418   2.420   3.585  10.698 -2.6277 -0.0233  2.2766
  322MOL0     H44419   2.319   3.534  10.507  1.9712  1.0170  0.0966
  322MOL0     H44420   1.028   2.511  10.618  0.8973  0.2725  1.2291
  322MOL0     H44421   0.992   2.675  10.796  1.0866  0.6752  0.9058
  322MOL0     H44422   0.861   3.026  10.957 -2.5854  1.0864  0.4867
  322MOL0     H44423   0.721   3.170  11.054  0.2971 -1.0759 -1.2538
  322MOL0     H44424   0.570   3.367  10.998 -0.7616 -0.3091  0.5032
  322MOL0     H44425   0.632   3.312  11.164  2.5277  0.2081  0.1530
  322MOL0     H44426   0.437   3.476  11.181  0.0828 -1.1248  0.4824
  322MOL0     H44427   0.548   3.599  11.119 -1.7115  1.0210  1.3419
  322MOL0     H44428   0.704   3.576  11.287 -1.0162 -1.2100 -1.7802
  322MOL0     H44429   0.547   3.599  11.364  1.7996  0.9848  1.1408
  322MOL0     H44430   0.644   3.451  11.492 -1.1793 -1.0848  0.5587
  322MOL0     H44431   0.687   3.337  11.361 -0.2130 -1.5382  1.1438
  322MOL0     H44432   0.294   3.248  11.490  1.4001 -1.7639  0.4664
  322MOL0     H44433   0.974   3.497  10.972  2.6962 -0.2814  2.8615
  322MOL0     H44434   1.210   3.434  10.872 -1.7538  2.9830 -0.3787
  322MOL0     H44435   1.231   3.309  10.756  4.1877  4.2179  1.1406
  322MOL0     H44436   1.109   3.440  10.727 -0.6088 -1.1149  0.1766
  323MOL0     O44437   6.748  10.022   6.222 -0.3669 -0.1763 -0.2678
  323MOL0     C44438   6.834  10.017   6.135 -0.5418  0.4913  0.0331
  323MOL0     O44439   6.908   9.911   6.103 -0.2309  0.0416 -1.2905
  323MOL0     C44440   6.862   9.795   6.161  0.9451  0.3520  0.5723
  323MOL0     C44441   6.940   9.738   6.264 -0.6641  0.2862 -0.4313
  323MOL0     C44442   6.909   9.616   6.313 -0.7761 -0.3200  0.5553
  323MOL0     C44443   6.788   9.558   6.281 -0.1695  0.4616 -0.1353
  323MOL0     O44444   6.764   9.444   6.345  0.5399 -0.3465 -0.1794
  323MOL0     C44445   6.698   9.339   6.273 -0.1248  0.8734  0.1045
  323MOL0     C44446   6.792   9.214   6.257  0.3747 -0.2619  0.4720
  323MOL0     C44447   6.916   9.258   6.178 -0.6195 -0.9016  0.5690
  323MOL0     C44448   6.891   9.299   6.033  0.4126 -0.6413 -1.2980
  323MOL0     C44449   7.026   9.304   5.959  0.1275 -0.9245  0.1905
  323MOL0     C44450   7.114   9.434   6.005  1.4950  0.6289  0.0437
  323MOL0     C44451   7.258   9.411   5.969 -0.4744 -0.6047  0.3109
  323MOL0     C44452   7.291   9.378   5.819 -0.4876  0.4994 -0.1030
  323MOL0     N44453   7.411   9.427   5.768  0.3003  0.9519 -0.6907
  323MOL0     C44454   7.528   9.368   5.811 -0.3059  0.7458 -0.2613
  323MOL0     C44455   7.629   9.437   5.746  0.7147  0.5422 -0.0363
  323MOL0     C44456   7.773   9.381   5.714 -0.4520  0.2052 -0.5022
  323MOL0     C44457   7.892   9.441   5.796  0.5264 -0.2923 -0.0135
  323MOL0     C44458   7.892   9.370   5.930  0.5850 -0.1367  0.0042
  323MOL0     C44459   7.979   9.461   6.035 -0.3012  0.4019  0.0937
  323MOL0     O44460   7.915   9.593   6.059  0.0073 -0.3238 -0.1654
  323MOL0     C44461   7.802   9.593   6.137  0.5437  0.8991 -0.8383
  323MOL0     C44462   7.803   9.527   6.255 -0.5963 -0.9663 -0.2097
  323MOL0     C44463   7.685   9.525   6.332  0.6965  0.1278 -0.2940
  323MOL0     C44464   7.687   9.423   6.443  0.1361  0.4497 -0.1742
  323MOL0     C44465   7.566   9.577   6.284 -0.5970 -0.6265  0.6890
  323MOL0     C44466   7.437   9.566   6.353 -0.2915  0.0478  0.1988
  323MOL0     O44467   7.445   9.578   6.494  0.9804  0.7870  0.8104
  323MOL0     C44468   7.324   9.619   6.548  0.3915  1.5090 -0.2798
  323MOL0     C44469   7.234   9.713   6.501  0.5325 -0.2101 -0.5296
  323MOL0     C44470   7.125   9.755   6.583 -0.2767  0.5313 -0.1597
  323MOL0     C44471   7.094   9.696   6.711 -0.5070 -0.4322  0.4839
  323MOL0     O44472   6.975   9.735   6.773  0.0104 -0.1810 -0.8259
  323MOL0     C44473   6.966   9.738   6.915  0.2950  0.0521  0.3861
  323MOL0     C44474   6.976   9.880   6.966  0.3047 -0.1755 -0.2639
  323MOL0     C44475   6.956   9.884   7.122 -0.3301 -0.0400  0.6993
  323MOL0     C44476   6.855   9.992   7.161  0.2593 -1.5634 -0.1490
  323MOL0     C44477   6.798   9.969   7.305 -0.3092 -0.5283  0.4803
  323MOL0     C44478   6.905   9.991   7.413  0.0720 -0.1520  0.5645
  323MOL0     C44479   6.859   9.931   7.541 -0.3707  0.2018 -0.1016
  323MOL0     C44480   6.977   9.927   7.647 -0.9399 -0.0961 -1.1513
  323MOL0    Cl44481   6.892   9.936   7.807 -0.4817 -0.1284 -0.2569
  323MOL0     C44482   7.176   9.594   6.750  0.1939  0.0567  0.4060
  323MOL0     C44483   7.294   9.557   6.676  0.2729  0.6735  0.2615
  323MOL0     O44484   7.327   9.545   6.290 -0.0638  0.0198  0.2319
  323MOL0     C44485   7.571   9.649   6.161 -0.1520 -0.1306  1.5157
  323MOL0     C44486   7.693   9.652   6.086  0.3226  0.2075 -0.0255
  323MOL0     N44487   7.569   9.546   5.672  0.6118  0.1234  0.2231
  323MOL0     N44488   7.436   9.537   5.691  0.2363 -0.9373  0.2209
  323MOL0     C44489   6.706   9.617   6.188 -0.1212 -0.3921 -0.6517
  323MOL0     C44490   6.745   9.730   6.126 -0.4618  0.6817  0.3610
  323MOL0     C44491   6.848  10.134   6.037 -0.1329 -0.0642  0.3922
  323MOL0     C44492   6.942  10.114   5.931  0.1292  0.3781 -0.7541
  323MOL0     C44493   6.965  10.218   5.843 -0.5670 -0.9007 -0.3715
  323MOL0     C44494   6.896  10.344   5.848  0.4171 -0.5679  0.6271
  323MOL0     O44495   6.937  10.446   5.767  0.1073  0.4114  0.1526
  323MOL0     C44496   6.867  10.568   5.777  0.0125  0.0454 -0.3045
  323MOL0     C44497   6.918  10.657   5.665  0.7766 -0.0126 -0.6271
  323MOL0     C44498   6.906  10.596   5.522 -0.0554 -0.1371 -0.0853
  323MOL0     C44499   6.766  10.634   5.478 -0.8424  0.9567 -0.1301
  323MOL0     C44500   6.728  10.544   5.359 -0.8877 -1.0220 -0.7400
  323MOL0     C44501   6.685  10.500   5.254 -0.7325 -0.1401 -0.4857
  323MOL0     C44502   6.807  10.359   5.954 -0.7951 -0.4933  0.6584
  323MOL0     C44503   6.781  10.259   6.048  0.8878  0.0948 -0.4363
  323MOL0     C44504   6.682  10.294   6.165  0.2944  0.3526  0.1038
  323MOL0     H44505   7.033   9.779   6.303 -0.4318 -0.2394 -0.4273
  323MOL0     H44506   6.975   9.572   6.387 -1.8827  0.3145  1.9658
  323MOL0     H44507   6.669   9.373   6.173  2.7271 -0.3220 -1.2533
  323MOL0     H44508   6.612   9.310   6.334 -0.8232 -1.3033 -1.7491
  323MOL0     H44509   6.813   9.168   6.354 -2.7749 -1.3926  0.7390
  323MOL0     H44510   6.735   9.139   6.202  0.1720 -0.0045  0.3268
  323MOL0     H44511   6.963   9.339   6.234  0.4934 -0.4605 -0.9332
  323MOL0     H44512   6.994   9.182   6.177 -0.8833 -1.1872 -0.7193
  323MOL0     H44513   6.820   9.231   5.984  0.5933 -1.5113 -0.3944
  323MOL0     H44514   6.842   9.396   6.038  1.6640 -0.0437  0.9945
  323MOL0     H44515   7.012   9.307   5.850 -0.0759  0.6790  0.2399
  323MOL0     H44516   7.088   9.215   5.976  1.9574  0.3821  0.7573
  323MOL0     H44517   7.075   9.524   5.957 -1.2939 -1.1541 -1.3151
  323MOL0     H44518   7.118   9.448   6.113 -0.9099 -0.0374  0.2743
  323MOL0     H44519   7.301   9.332   6.032  3.0148  2.7895  2.6459
  323MOL0     H44520   7.314   9.500   5.998  1.5910 -1.1377 -1.7538
  323MOL0     H44521   7.283   9.270   5.805  0.0464  0.2940  1.0812
  323MOL0     H44522   7.214   9.423   5.755 -0.2754  0.1520 -0.6099
  323MOL0     H44523   7.534   9.272   5.862 -1.6386 -0.6767 -2.6182
  323MOL0     H44524   7.791   9.401   5.608 -2.8779  0.9527 -0.8289
  323MOL0     H44525   7.770   9.272   5.724 -2.1536  0.2330 -0.3745
  323MOL0     H44526   7.982   9.416   5.739  0.9151 -0.4291  0.6532
  323MOL0     H44527   7.875   9.549   5.808  0.2943 -0.5226  2.0917
  323MOL0     H44528   7.792   9.380   5.975 -0.0739 -2.2388 -0.8707
  323MOL0     H44529   7.913   9.263   5.927 -0.8539 -0.4939  1.0904
  323MOL0     H44530   7.981   9.400   6.126 -2.8553  0.0452 -0.0130
  323MOL0     H44531   8.080   9.470   5.995 -2.2181  0.2737 -5.7478
  323MOL0     H44532   7.891   9.482   6.300  0.6040  2.3193  1.0257
  323MOL0     H44533   7.680   9.476   6.539 -0.8558  0.5649 -0.2992
  323MOL0     H44534   7.781   9.371   6.461 -1.0438 -1.1154  1.9388
  323MOL0     H44535   7.605   9.351   6.439 -0.8888  1.5900 -0.2441
  323MOL0     H44536   7.244   9.763   6.405 -0.3063  0.6472 -0.1861
  323MOL0     H44537   7.063   9.839   6.551 -0.4990 -0.2070 -1.7321
  323MOL0     H44538   6.877   9.684   6.949 -0.4586 -0.8043 -2.6296
  323MOL0     H44539   7.044   9.684   6.969  1.8019  2.2339  0.5004
  323MOL0     H44540   7.079   9.912   6.949  0.8634 -1.9808 -0.5093
  323MOL0     H44541   6.907   9.948   6.915 -2.5734 -2.4094  0.4062
  323MOL0     H44542   7.055   9.900   7.167 -0.3419  0.1933  0.6451
  323MOL0     H44543   6.914   9.797   7.173 -1.1830  1.3482  2.4685
  323MOL0     H44544   6.772   9.997   7.090  1.4480 -0.4542 -1.5500
  323MOL0     H44545   6.892  10.095   7.156 -1.8849 -0.7926 -1.3536
  323MOL0     H44546   6.706  10.027   7.321 -0.5432 -0.7285 -0.0987
  323MOL0     H44547   6.773   9.862   7.307  0.5666 -0.7971 -1.3319
  323MOL0     H44548   6.910  10.100   7.414  0.8897 -0.0483 -3.0374
  323MOL0     H44549   6.999   9.941   7.387 -0.2433 -0.4542 -0.0002
  323MOL0     H44550   6.818   9.830   7.536 -1.6763  0.4863  2.6573
  323MOL0     H44551   6.776   9.999   7.560 -1.2396  0.2924 -3.5805
  323MOL0     H44552   7.062   9.996   7.642 -0.7489  0.0305  1.8401
  323MOL0     H44553   7.012   9.825   7.629 -0.2159 -0.1193  0.2571
  323MOL0     H44554   7.155   9.536   6.838 -1.7319 -0.3234 -0.2571
  323MOL0     H44555   7.362   9.482   6.715 -1.9786 -1.9629 -0.5125
  323MOL0     H44556   7.483   9.688   6.111  0.1061 -1.5344 -0.1464
  323MOL0     H44557   7.712   9.697   5.990  1.0564  0.1253  0.0728
  323MOL0     H44558   6.608   9.577   6.161 -0.2283  0.5851 -1.8122
  323MOL0     H44559   6.665   9.778   6.072 -0.4202  0.5424  0.1750
  323MOL0     H44560   7.000  10.023   5.918 -0.6519 -0.3422  0.5414
  323MOL0     H44561   7.045  10.215   5.770  0.4121  2.8191  0.3337
  323MOL0     H44562   6.761  10.556   5.756  0.2679  0.6202 -2.1404
  323MOL0     H44563   6.882  10.619   5.872 -0.0797 -1.2225  0.4055
  323MOL0     H44564   7.025  10.655   5.692  1.6453  0.9980 -3.5940
  323MOL0     H44565   6.861  10.749   5.679  0.4742 -0.6218  3.1103
  323MOL0     H44566   6.968  10.644   5.445 -2.5162 -0.4921 -2.4189
  323MOL0     H44567   6.928  10.489   5.523 -1.8877 -0.5372  0.1194
  323MOL0     H44568   6.772  10.742   5.463  1.9893  1.0955  1.3524
  323MOL0     H44569   6.698  10.608   5.559  3.2147 -1.4330  2.8927
  323MOL0     H44570   6.656  10.481   5.152 -0.1776  0.0840 -0.6866
  323MOL0     H44571   6.744  10.448   5.956 -1.6072 -1.0791  1.7874
  323MOL0     H44572   6.654  10.399   6.152  1.5438  0.4986 -1.7982
  323MOL0     H44573   6.593  10.231   6.151 -0.4571  1.8810 -2.9323
  323MOL0     H44574   6.730  10.276   6.262 -0.1303  1.2612  0.4915
  324MOL0     O44575   7.304   3.866   4.222 -0.5957 -0.5454 -0.4652
  324MOL0     C44576   7.299   3.991   4.203 -0.2165 -0.0441  0.2406
  324MOL0     O44577   7.188   4.056   4.159 -0.2912 -0.3269 -0.1448
  324MOL0     C44578   7.085   3.970   4.122  0.1003 -0.0802 -0.2032
  324MOL0     C44579   7.066   3.948   3.987  0.1288  1.4778  0.3194
  324MOL0     C44580   6.947   3.890   3.938  0.7191  1.0952 -0.8899
  324MOL0     C44581   6.848   3.854   4.028 -0.3397  0.6232  1.4138
  324MOL0     O44582   6.732   3.832   3.964  0.8982  0.5419  0.1443
  324MOL0     C44583   6.614   3.850   4.035  0.6569 -0.3162  0.1464
  324MOL0     C44584   6.505   3.890   3.942  1.6348  0.3450 -1.0948
  324MOL0     C44585   6.549   4.011   3.851  0.1702 -0.8787 -0.2850
  324MOL0     C44586   6.437   4.038   3.754  0.1052  0.0273  0.7192
  324MOL0     C44587   6.323   4.102   3.826 -1.0509 -0.1821 -0.3540
  324MOL0     C44588   6.225   4.172   3.745 -0.0387 -0.3968 -0.7634
  324MOL0     C44589   6.149   4.285   3.830  0.2956 -0.4088 -0.2498
  324MOL0     C44590   6.063   4.222   3.937 -0.3000  0.5285 -0.6426
  324MOL0     N44591   6.129   4.192   4.068  0.3408 -0.3007 -0.1213
  324MOL0     C44592   6.204   4.277   4.141  0.4008 -0.8736 -0.7265
  324MOL0     C44593   6.263   4.193   4.227 -0.3436  0.0095  1.5442
  324MOL0     C44594   6.389   4.229   4.308  0.9892  0.8035 -0.5750
  324MOL0     C44595   6.516   4.176   4.255 -0.3468  0.0263 -0.1410
  324MOL0     C44596   6.628   4.218   4.347 -0.9842 -0.0824 -0.1756
  324MOL0     C44597   6.751   4.150   4.290  0.5488  0.6061 -0.2363
  324MOL0     O44598   6.831   4.251   4.238  0.5957 -0.2917 -0.7063
  324MOL0     C44599   6.920   4.307   4.331 -0.7442  1.0279  0.1803
  324MOL0     C44600   6.908   4.302   4.473 -0.3979  0.6577  0.3875
  324MOL0     C44601   7.008   4.353   4.559 -0.3178 -0.9020  0.8012
  324MOL0     C44602   7.006   4.323   4.709  0.2214 -0.2299 -0.6388
  324MOL0     C44603   7.111   4.434   4.506 -0.7651 -0.0902 -1.0371
  324MOL0     C44604   7.209   4.504   4.586  0.3717  0.1691  0.6521
  324MOL0     O44605   7.322   4.534   4.517 -0.0943 -0.2986  0.2798
  324MOL0     C44606   7.417   4.606   4.578  0.1533  0.9186 -0.4361
  324MOL0     C44607   7.392   4.748   4.598  0.6518  1.3927 -0.7284
  324MOL0     C44608   7.491   4.829   4.648  0.4986  0.2760  0.6017
  324MOL0     C44609   7.618   4.771   4.676  0.1833 -0.3845  0.4022
  324MOL0     O44610   7.702   4.864   4.733 -0.9542 -0.2580  0.1974
  324MOL0     C44611   7.843   4.853   4.726 -0.2541  0.6793 -0.5601
  324MOL0     C44612   7.897   4.934   4.834 -0.1749  0.1217  0.3086
  324MOL0     C44613   8.051   4.930   4.834 -0.7456  0.5964  0.2000
  324MOL0     C44614   8.106   4.787   4.848  0.5934 -0.4041 -0.8761
  324MOL0     C44615   8.252   4.780   4.874 -0.5325  0.1635 -0.5042
  324MOL0     C44616   8.344   4.826   4.763  0.3358 -0.9619 -0.7455
  324MOL0     C44617   8.315   4.780   4.625  0.1382 -0.3266 -0.4554
  324MOL0     C44618   8.450   4.777   4.541  0.5234 -1.2081 -0.4554
  324MOL0    Cl44619   8.405   4.774   4.365 -0.0985  0.1358 -0.5579
  324MOL0     C44620   7.640   4.637   4.649 -0.4766 -0.1290  0.0415
  324MOL0     C44621   7.543   4.557   4.594  0.2929  0.2920 -0.0127
  324MOL0     O44622   7.184   4.544   4.701 -0.5476 -0.7933  0.4297
  324MOL0     C44623   7.124   4.439   4.366  0.0570  0.5502 -0.0281
  324MOL0     C44624   7.034   4.374   4.283 -0.6507  0.0711  1.2388
  324MOL0     N44625   6.208   4.068   4.221 -0.7898  1.1961  0.3588
  324MOL0     N44626   6.122   4.071   4.125 -0.2923  0.3240  0.5177
  324MOL0     C44627   6.863   3.878   4.165 -1.2443  0.3206 -0.4402
  324MOL0     C44628   6.981   3.932   4.217 -0.6247  1.0267  0.7477
  324MOL0     C44629   7.406   4.081   4.232  0.1302  0.2132 -0.6774
  324MOL0     C44630   7.371   4.194   4.305 -0.1307 -0.0220  0.0189
  324MOL0     C44631   7.473   4.294   4.321 -0.4330  0.8378 -0.2432
  324MOL0     C44632   7.604   4.283   4.271 -0.0311 -0.0381 -0.1256
  324MOL0     O44633   7.697   4.387   4.282  0.4616  0.6120  0.0906
  324MOL0     C44634   7.836   4.377   4.275 -0.2553  0.3632  0.0287
  324MOL0     C44635   7.892   4.469   4.164 -0.4275  0.4436 -0.5414
  324MOL0     C44636   8.038   4.498   4.181 -0.7110 -0.2908 -0.0794
  324MOL0     C44637   8.067   4.635   4.108  0.0974 -0.0519  0.1335
  324MOL0     C44638   8.208   4.635   4.065  0.3521  0.5205  0.3877
  324MOL0     C44639   8.322   4.638   4.023 -0.1457  0.5076  0.0861
  324MOL0     C44640   7.633   4.164   4.215  0.5789 -0.3557 -0.3803
  324MOL0     C44641   7.542   4.059   4.190 -0.1173 -0.7951 -0.4178
  324MOL0     C44642   7.591   3.941   4.113  0.4276 -0.4379 -0.2880
  324MOL0     H44643   7.145   3.962   3.914  0.6704  2.6726  1.1035
  324MOL0     H44644   6.944   3.879   3.830  0.6887 -0.1544 -0.7713
  324MOL0     H44645   6.623   3.924   4.115 -3.5850  1.3191 -0.6046
  324MOL0     H44646   6.587   3.751   4.073 -0.2555 -0.4490 -0.7991
  324MOL0     H44647   6.496   3.810   3.868  0.1103 -0.7302  0.2164
  324MOL0     H44648   6.415   3.888   4.003  4.1836  2.3900  3.1959
  324MOL0     H44649   6.581   4.098   3.910  1.1353 -2.2766  1.3382
  324MOL0     H44650   6.632   3.982   3.786  0.1500  0.5270 -0.9873
  324MOL0     H44651   6.474   4.109   3.680 -1.1305 -0.4215 -0.3801
  324MOL0     H44652   6.413   3.952   3.691  1.7304  0.5874 -0.7318
  324MOL0     H44653   6.364   4.182   3.889 -1.8229  0.5552 -0.7597
  324MOL0     H44654   6.268   4.023   3.878  0.9888 -0.3054  1.8010
  324MOL0     H44655   6.263   4.217   3.653  1.6199  2.4000  1.1720
  324MOL0     H44656   6.149   4.100   3.712 -0.5747 -0.1808 -0.0314
  324MOL0     H44657   6.082   4.338   3.761  0.6321 -0.0772 -0.3189
  324MOL0     H44658   6.221   4.351   3.878 -0.0947 -0.2417  0.1130
  324MOL0     H44659   5.976   4.282   3.965 -1.3462 -2.9817  5.5221
  324MOL0     H44660   6.019   4.131   3.897 -0.2504 -0.0524  0.5735
  324MOL0     H44661   6.220   4.384   4.128 -2.6075 -0.4163 -1.3216
  324MOL0     H44662   6.377   4.189   4.409  1.6562  1.5268 -0.1947
  324MOL0     H44663   6.394   4.339   4.307 -1.1092  0.9506 -1.9597
  324MOL0     H44664   6.511   4.072   4.222  0.9810  0.8587 -3.4311
  324MOL0     H44665   6.535   4.233   4.163  1.7034 -0.8819 -0.3225
  324MOL0     H44666   6.627   4.328   4.355  0.9941 -0.1442  1.9569
  324MOL0     H44667   6.606   4.169   4.442  1.2184  0.1343  0.5034
  324MOL0     H44668   6.799   4.080   4.360  1.9467 -0.2631 -1.9944
  324MOL0     H44669   6.735   4.077   4.210  2.8050 -1.4596  1.0610
  324MOL0     H44670   6.833   4.243   4.526  2.5723 -2.6322  1.3203
  324MOL0     H44671   6.968   4.418   4.748 -0.0049 -0.5237 -0.1496
  324MOL0     H44672   7.102   4.299   4.755 -0.4397 -0.9814  0.3714
  324MOL0     H44673   6.946   4.240   4.746 -1.2600 -0.1027 -2.5815
  324MOL0     H44674   7.290   4.784   4.591  0.4800  1.7922  2.2905
  324MOL0     H44675   7.488   4.937   4.662  0.0560  0.8012 -2.6498
  324MOL0     H44676   7.866   4.748   4.746  1.4935  1.4940  2.3009
  324MOL0     H44677   7.885   4.879   4.629  0.1175  0.0252 -0.5811
  324MOL0     H44678   7.873   5.040   4.820  3.5523  0.8582 -2.2380
  324MOL0     H44679   7.863   4.903   4.933 -1.6949 -0.6732 -0.4376
  324MOL0     H44680   8.084   4.994   4.916  2.3636  2.1663 -2.0620
  324MOL0     H44681   8.084   4.972   4.738 -2.2123  0.9061 -0.1896
  324MOL0     H44682   8.084   4.728   4.759 -2.9535  0.3522 -0.6609
  324MOL0     H44683   8.053   4.738   4.931  1.3228 -2.4573 -1.5801
  324MOL0     H44684   8.278   4.838   4.963 -1.3427  0.8520 -0.7074
  324MOL0     H44685   8.270   4.674   4.895 -2.2759 -0.2517 -0.9279
  324MOL0     H44686   8.448   4.812   4.791  0.8176  0.6840 -1.6072
  324MOL0     H44687   8.334   4.935   4.764  0.5593 -0.7940  3.7183
  324MOL0     H44688   8.247   4.848   4.572 -2.0569 -0.8795  1.4634
  324MOL0     H44689   8.271   4.679   4.626 -1.2820  0.2676  0.2288
  324MOL0     H44690   8.515   4.696   4.574 -0.9664 -2.2371  0.0553
  324MOL0     H44691   8.510   4.865   4.562 -3.6216  1.1798  2.9152
  324MOL0     H44692   7.741   4.602   4.669  0.0172  1.1616 -0.0418
  324MOL0     H44693   7.570   4.455   4.565  3.6693  1.0898 -0.1538
  324MOL0     H44694   7.197   4.499   4.313  0.3883  1.6149  1.5464
  324MOL0     H44695   7.050   4.367   4.175  0.9384  0.2870  1.4262
  324MOL0     H44696   6.783   3.852   4.234 -1.1069 -0.8085 -0.6963
  324MOL0     H44697   6.990   3.951   4.324 -0.0937  2.3599  0.4865
  324MOL0     H44698   7.266   4.210   4.329 -0.4581  1.0302 -1.9478
  324MOL0     H44699   7.442   4.381   4.377 -0.9487 -0.1202  1.0237
  324MOL0     H44700   7.872   4.399   4.376  1.1016 -0.6602 -0.2100
  324MOL0     H44701   7.863   4.272   4.261  0.3488  0.4530  0.5388
  324MOL0     H44702   7.842   4.564   4.185 -0.3350 -0.1054  2.8451
  324MOL0     H44703   7.868   4.434   4.063 -3.3616  0.7862 -0.0596
  324MOL0     H44704   8.084   4.507   4.281  2.1863  5.1585 -1.4886
  324MOL0     H44705   8.091   4.415   4.133 -2.8254 -0.8645 -1.5382
  324MOL0     H44706   8.048   4.729   4.160 -2.2022  0.5244 -1.5641
  324MOL0     H44707   8.003   4.636   4.019  1.9516  0.4893 -1.2466
  324MOL0     H44708   8.418   4.658   3.979 -0.9814  0.3522 -1.9249
  324MOL0     H44709   7.733   4.158   4.174  0.3412 -2.8900 -0.7414
  324MOL0     H44710   7.696   3.922   4.137  0.5305  1.3128  0.8724
  324MOL0     H44711   7.546   3.853   4.160  1.5758 -0.3634  1.0010
  324MOL0     H44712   7.578   3.939   4.004  0.8783 -1.8920 -0.3269
  325MOL0     O44713   9.841   7.986   3.653 -0.7076 -1.3632 -0.5514
  325MOL0     C44714   9.764   7.999   3.557 -0.5055  0.2662  0.5839
  325MOL0     O44715   9.802   8.004   3.428 -0.4779  0.8540  0.3399
  325MOL0     C44716   9.937   7.962   3.394 -0.0450  0.8420  0.3718
  325MOL0     C44717  10.026   8.059   3.351 -0.4051 -0.6219  0.1295
  325MOL0     C44718  10.152   8.024   3.309 -0.9517  0.4773 -0.1236
  325MOL0     C44719  10.201   7.887   3.331  0.1678 -0.4122  0.0427
  325MOL0     O44720  10.330   7.846   3.317  0.1461  0.0608  0.4450
  325MOL0     C44721  10.433   7.938   3.310 -0.8993 -0.1331  0.1622
  325MOL0     C44722  10.560   7.854   3.324  1.1664  0.4040 -0.2897
  325MOL0     C44723  10.694   7.943   3.350  0.6351 -0.0655 -0.3659
  325MOL0     C44724  10.823   7.864   3.352 -0.2229 -0.8788 -0.4220
  325MOL0     C44725  10.808   7.745   3.449 -0.3395  0.6901 -1.1326
  325MOL0     C44726  10.936   7.665   3.477  0.1500 -0.7316  0.1517
  325MOL0     C44727  11.011   7.629   3.349 -0.0526 -0.6440 -0.5081
  325MOL0     C44728  11.127   7.523   3.379 -0.6640  0.0030  0.0019
  325MOL0     N44729  11.259   7.585   3.400 -0.3893 -0.0295  0.3250
  325MOL0     C44730  11.285   7.703   3.465  0.7856  0.0378 -0.1834
  325MOL0     C44731  11.420   7.699   3.477  0.0224 -0.4074 -0.5997
  325MOL0     C44732  11.505   7.815   3.531 -0.6250 -0.6082  0.7198
  325MOL0     C44733  11.535   7.801   3.684 -0.3576  0.1770  0.6185
  325MOL0     C44734  11.645   7.893   3.735  0.1060  0.1996 -0.2665
  325MOL0     C44735  11.791   7.847   3.684 -0.4750  0.4774 -0.1443
  325MOL0     O44736  11.893   7.953   3.706  0.0701  0.6508  0.0926
  325MOL0     C44737  12.015   7.950   3.632  0.0026  0.5587 -0.7905
  325MOL0     C44738  12.065   7.831   3.571  0.6061  0.3295 -0.0830
  325MOL0     C44739  12.174   7.825   3.483 -1.0872 -0.0395  0.1733
  325MOL0     C44740  12.210   7.699   3.407 -0.5178  0.5089 -0.3494
  325MOL0     C44741  12.247   7.949   3.475  0.6291  0.5512  0.3660
  325MOL0     C44742  12.361   7.979   3.380 -0.0748 -0.4982  0.2063
  325MOL0     O44743  12.341   7.934   3.251  1.0041  0.0304  0.4542
  325MOL0     C44744  12.438   7.959   3.154  0.2515 -1.2112  0.0442
  325MOL0     C44745  12.394   7.992   3.021 -0.9608  0.6438 -0.6153
  325MOL0     C44746  12.489   8.012   2.920 -0.6343  0.6621 -0.1163
  325MOL0     C44747  12.629   7.986   2.936  0.2360  0.4327  0.1287
  325MOL0     O44748  12.713   8.019   2.828  0.4652  0.7014 -0.7260
  325MOL0     C44749  12.801   8.119   2.873 -0.2601 -0.1412  0.0237
  325MOL0     C44750  12.857   8.184   2.745 -0.4576 -0.0174 -0.5856
  325MOL0     C44751  12.964   8.106   2.667 -1.0854  0.0719  0.2445
  325MOL0     C44752  12.941   7.961   2.634  0.0124 -0.9431 -0.4304
  325MOL0     C44753  13.070   7.912   2.569 -0.7627  0.7197 -0.7503
  325MOL0     C44754  13.047   7.791   2.473 -0.0277  0.0839  0.2795
  325MOL0     C44755  13.180   7.731   2.430  0.3318 -0.0206  0.2742
  325MOL0     C44756  13.155   7.602   2.348  0.2439  0.0967 -0.7796
  325MOL0    Cl44757  13.304   7.550   2.260  0.3513  0.2788  0.3983
  325MOL0     C44758  12.669   7.950   3.072 -0.3155  0.3744 -0.4953
  325MOL0     C44759  12.577   7.938   3.176  0.5006 -0.1009  0.1910
  325MOL0     O44760  12.443   8.070   3.410  0.1035 -0.0515 -0.2177
  325MOL0     C44761  12.213   8.060   3.556  0.0686 -0.4799 -0.1731
  325MOL0     C44762  12.098   8.059   3.627 -0.3588  0.5311  0.1321
  325MOL0     N44763  11.477   7.586   3.425 -0.1370  0.3714  0.7744
  325MOL0     N44764  11.377   7.516   3.368 -0.2078 -0.0158 -0.6251
  325MOL0     C44765  10.108   7.794   3.372 -0.7032  0.1682 -0.4242
  325MOL0     C44766   9.977   7.831   3.405 -0.7519  0.4293 -0.9458
  325MOL0     C44767   9.610   8.035   3.577  0.1322 -0.6779  0.4346
  325MOL0     C44768   9.532   8.064   3.461  0.0094 -0.7534  0.5474
  325MOL0     C44769   9.395   8.086   3.467  1.3524 -0.0089 -0.0555
  325MOL0     C44770   9.330   8.084   3.590 -0.5839 -0.5209  0.2927
  325MOL0     O44771   9.194   8.114   3.578 -0.1320 -0.2786  1.2858
  325MOL0     C44772   9.137   8.174   3.696  0.1586  0.4347  0.8647
  325MOL0     C44773   9.024   8.255   3.644 -0.2190 -0.2642  0.6437
  325MOL0     C44774   8.909   8.162   3.609  0.4182  0.0112  0.0668
  325MOL0     C44775   8.789   8.234   3.538  0.0379 -0.1440 -0.2570
  325MOL0     C44776   8.690   8.142   3.485  0.7543  0.2055  0.0603
  325MOL0     C44777   8.600   8.076   3.443  0.6834  0.4136  0.1031
  325MOL0     C44778   9.405   8.063   3.711 -0.3879 -0.2936 -0.3029
  325MOL0     C44779   9.545   8.030   3.701  0.3698 -0.1810 -0.2109
  325MOL0     C44780   9.609   8.019   3.840 -0.6466  0.6715  0.1732
  325MOL0     H44781   9.991   8.161   3.364 -0.4785 -0.5739 -0.4023
  325MOL0     H44782  10.214   8.102   3.267 -0.9226 -0.6420 -2.2736
  325MOL0     H44783  10.415   8.016   3.385 -1.2937  2.1009 -2.1080
  325MOL0     H44784  10.441   7.986   3.212 -2.0364  0.9552  0.5826
  325MOL0     H44785  10.552   7.776   3.400  4.2985 -0.6926 -0.9417
  325MOL0     H44786  10.565   7.819   3.220 -0.9418  1.5842 -0.8652
  325MOL0     H44787  10.696   8.016   3.268 -1.8275 -2.7789 -3.1346
  325MOL0     H44788  10.680   7.987   3.449 -1.9569  0.3163 -0.8258
  325MOL0     H44789  10.840   7.837   3.247 -1.2374 -1.2131 -0.5172
  325MOL0     H44790  10.910   7.922   3.382 -0.0157 -0.5548 -1.5846
  325MOL0     H44791  10.735   7.669   3.419 -0.1452  0.1937 -0.3500
  325MOL0     H44792  10.767   7.788   3.541 -2.3748 -3.2927  0.0457
  325MOL0     H44793  10.989   7.733   3.544 -3.2265  1.9538  0.3968
  325MOL0     H44794  10.914   7.578   3.541 -3.3071 -0.7154 -0.8050
  325MOL0     H44795  11.062   7.718   3.312  0.4883 -0.7160  0.0381
  325MOL0     H44796  10.945   7.582   3.275 -0.9192  0.2825 -0.3456
  325MOL0     H44797  11.111   7.462   3.469 -0.3819 -0.9584 -0.5870
  325MOL0     H44798  11.122   7.459   3.291 -2.1126  0.5638 -0.3669
  325MOL0     H44799  11.217   7.769   3.518  3.2270  1.2750  1.6151
  325MOL0     H44800  11.442   7.902   3.507 -0.7564 -0.9373 -0.1384
  325MOL0     H44801  11.595   7.829   3.471 -0.3259 -0.3132  1.2239
  325MOL0     H44802  11.439   7.804   3.736  0.6802 -2.4158  2.9460
  325MOL0     H44803  11.569   7.698   3.699  1.0746  0.6794  0.9409
  325MOL0     H44804  11.628   7.993   3.694  3.7996  0.6861 -0.8975
  325MOL0     H44805  11.633   7.905   3.843  2.2574  3.5981 -0.2548
  325MOL0     H44806  11.827   7.763   3.745 -0.7083 -0.6937 -1.5485
  325MOL0     H44807  11.795   7.819   3.578  3.0767  0.1690 -0.0264
  325MOL0     H44808  12.000   7.745   3.565 -1.8899  2.1032  0.1001
  325MOL0     H44809  12.189   7.613   3.472  1.3537  0.3772  0.1435
  325MOL0     H44810  12.312   7.700   3.368  0.0789 -0.1823  1.1232
  325MOL0     H44811  12.160   7.686   3.311 -0.6159 -1.9116 -0.0382
  325MOL0     H44812  12.286   8.003   3.014 -0.9328  0.5262 -1.3233
  325MOL0     H44813  12.446   8.051   2.828 -1.1703  0.9277  0.2423
  325MOL0     H44814  12.747   8.202   2.918 -0.0350 -1.1132  2.2365
  325MOL0     H44815  12.880   8.077   2.936 -1.6905 -3.2744 -0.0702
  325MOL0     H44816  12.771   8.205   2.682  0.3076 -2.5089 -2.5934
  325MOL0     H44817  12.901   8.278   2.782 -1.3220  0.1450  0.0729
  325MOL0     H44818  13.060   8.116   2.718 -1.8775 -0.4012  1.8895
  325MOL0     H44819  12.991   8.168   2.581  0.4011  2.0270  2.0120
  325MOL0     H44820  12.855   7.963   2.567 -1.4858 -0.3895  1.4343
  325MOL0     H44821  12.924   7.912   2.730  2.0873  1.8707  1.5819
  325MOL0     H44822  13.113   7.981   2.497 -1.3801 -2.1093 -4.0782
  325MOL0     H44823  13.152   7.905   2.641 -0.3074  1.2658 -1.2121
  325MOL0     H44824  12.989   7.825   2.387 -1.8217  0.1001  1.4436
  325MOL0     H44825  12.996   7.718   2.537 -0.7777  0.2166 -0.1571
  325MOL0     H44826  13.234   7.703   2.521  2.1789 -0.6930 -0.9936
  325MOL0     H44827  13.233   7.802   2.366 -1.0143  0.2592 -0.5688
  325MOL0     H44828  13.090   7.645   2.272  0.2026  1.8717  0.2151
  325MOL0     H44829  13.100   7.516   2.387  1.3738 -1.2123 -1.9538
  325MOL0     H44830  12.775   7.939   3.091  0.0152  2.3838 -0.9387
  325MOL0     H44831  12.607   7.915   3.278 -1.3671 -0.4582  0.6921
  325MOL0     H44832  12.272   8.151   3.553 -1.2120  0.3785 -0.3601
  325MOL0     H44833  12.074   8.155   3.672  0.4705  0.9745 -0.3524
  325MOL0     H44834  10.134   7.689   3.374 -0.2558  0.2682 -0.8064
  325MOL0     H44835   9.913   7.752   3.442 -0.4940 -0.3581 -2.1346
  325MOL0     H44836   9.583   8.066   3.365 -1.8274  0.4003 -0.4785
  325MOL0     H44837   9.327   8.116   3.388  1.1882 -1.4080 -0.4610
  325MOL0     H44838   9.102   8.101   3.770 -1.7956  0.3143 -0.1074
  325MOL0     H44839   9.207   8.230   3.758  0.6742 -2.6324  3.3394
  325MOL0     H44840   9.057   8.318   3.561 -2.2219  1.7779  1.2880
  325MOL0     H44841   8.991   8.323   3.723 -1.0802 -1.3744  1.2668
  325MOL0     H44842   8.943   8.084   3.540 -2.8826 -0.8968 -0.7244
  325MOL0     H44843   8.859   8.101   3.684 -2.5487 -1.1485 -2.6182
  325MOL0     H44844   8.820   8.300   3.457 -0.5335  1.4412  0.7709
  325MOL0     H44845   8.743   8.304   3.609  0.1902 -1.4872  1.2285
  325MOL0     H44846   8.510   8.024   3.415  0.0840 -0.4485  3.3078
  325MOL0     H44847   9.355   8.065   3.808  1.2722  0.9688  0.5949
  325MOL0     H44848   9.550   8.080   3.908 -0.9557  0.7928 -0.1973
  325MOL0     H44849   9.619   7.917   3.878  2.2994  0.4939 -0.7969
  325MOL0     H44850   9.708   8.066   3.846 -0.5738  0.8317 -1.5971
  326MOL0     O44851   3.342   9.788   8.049  0.4429 -0.9774  0.6433
  326MOL0     C44852   3.403   9.777   7.945 -0.6503  0.7063  1.0210
  326MOL0     O44853   3.349   9.765   7.816  0.5084  0.3800 -0.1569
  326MOL0     C44854   3.221   9.731   7.813  0.5374 -0.8684  0.1394
  326MOL0     C44855   3.110   9.797   7.872  0.4106 -0.4137  0.1380
  326MOL0     C44856   2.975   9.752   7.856 -0.1756  0.4437 -0.1831
  326MOL0     C44857   2.955   9.632   7.780 -0.1645  1.1339 -0.9151
  326MOL0     O44858   2.823   9.604   7.754 -0.4459  0.0627  0.0766
  326MOL0     C44859   2.787   9.587   7.619  0.6047 -0.8219 -0.2160
  326MOL0     C44860   2.714   9.459   7.604  0.0968  0.0267  0.1534
  326MOL0     C44861   2.790   9.329   7.644 -0.7532  0.6308 -0.0323
  326MOL0     C44862   2.686   9.219   7.648 -0.0017  0.0454  0.2790
  326MOL0     C44863   2.759   9.091   7.698 -0.2107  0.5303 -0.3449
  326MOL0     C44864   2.778   9.082   7.851 -0.2621  0.0546  0.5263
  326MOL0     C44865   2.849   8.956   7.906  0.7540 -0.6577 -0.0280
  326MOL0     C44866   2.847   8.958   8.061 -0.7629 -0.0898  0.6220
  326MOL0     N44867   2.911   8.840   8.112 -0.0553 -0.0624 -0.6660
  326MOL0     C44868   3.045   8.818   8.092  0.1011  0.1018  0.8117
  326MOL0     C44869   3.075   8.708   8.168  0.0992  0.6399  0.2651
  326MOL0     C44870   3.216   8.647   8.189  0.2149 -0.8081  0.3117
  326MOL0     C44871   3.227   8.530   8.091  0.1858 -0.0802  1.3759
  326MOL0     C44872   3.352   8.445   8.121  0.0402  0.1703 -0.1365
  326MOL0     C44873   3.373   8.331   8.017 -0.4958 -1.1465 -0.0817
  326MOL0     O44874   3.509   8.298   8.016 -0.3267  0.4686  0.2210
  326MOL0     C44875   3.581   8.266   7.907 -0.4821 -0.7015 -0.0900
  326MOL0     C44876   3.514   8.216   7.800  0.4070 -0.1749  0.8555
  326MOL0     C44877   3.582   8.172   7.687  0.2011  0.0736  0.2828
  326MOL0     C44878   3.493   8.131   7.573 -0.5923  0.0872  0.1491
  326MOL0     C44879   3.722   8.160   7.683 -0.1069 -1.2019  0.4379
  326MOL0     C44880   3.796   8.101   7.561  0.6108  0.7712 -1.1495
  326MOL0     O44881   3.931   8.143   7.529  0.4164  0.3630 -0.1669
  326MOL0     C44882   4.016   8.040   7.516 -0.1414 -0.0061 -0.2804
  326MOL0     C44883   4.114   8.055   7.412 -0.1340  0.5234 -0.1550
  326MOL0     C44884   4.186   7.946   7.369  0.1463  0.0387 -1.5138
  326MOL0     C44885   4.180   7.826   7.426 -0.9548 -0.3787  0.1316
  326MOL0     O44886   4.248   7.723   7.364 -0.2967 -0.4425 -0.3581
  326MOL0     C44887   4.325   7.633   7.456 -0.3112  0.6369 -0.4217
  326MOL0     C44888   4.426   7.553   7.367 -0.5811 -0.2640  0.0791
  326MOL0     C44889   4.544   7.643   7.313  0.3425  0.2790 -0.1174
  326MOL0     C44890   4.645   7.670   7.434  0.2766 -0.1682  0.1813
  326MOL0     C44891   4.763   7.757   7.397 -0.0752  0.0499  1.3373
  326MOL0     C44892   4.722   7.898   7.348  1.3653  0.3648 -0.2363
  326MOL0     C44893   4.626   7.957   7.454  0.3132 -0.7193  0.2050
  326MOL0     C44894   4.624   8.112   7.455  0.1594 -0.6001 -0.9858
  326MOL0    Cl44895   4.796   8.173   7.478 -0.4155  0.2901  0.1077
  326MOL0     C44896   4.095   7.810   7.539 -0.6781 -1.5157 -0.3378
  326MOL0     C44897   4.014   7.914   7.592  0.6947 -0.6463 -0.4803
  326MOL0     O44898   3.740   8.017   7.498 -0.1879 -0.0353  0.0521
  326MOL0     C44899   3.787   8.200   7.805 -0.2879  0.1906  0.4898
  326MOL0     C44900   3.714   8.244   7.914  0.4488 -0.0160 -0.0729
  326MOL0     N44901   2.950   8.660   8.205 -0.2561  0.0523  0.5525
  326MOL0     N44902   2.854   8.746   8.184 -0.2939 -0.9044 -0.4382
  326MOL0     C44903   3.062   9.565   7.722 -0.5564 -0.9590 -0.4141
  326MOL0     C44904   3.195   9.608   7.740 -1.0605  0.7116 -0.2248
  326MOL0     C44905   3.564   9.785   7.945  0.8277 -0.8947  0.8027
  326MOL0     C44906   3.629   9.823   7.827  0.1222  0.1636 -0.0173
  326MOL0     C44907   3.762   9.805   7.816  0.4307 -0.0643 -0.2190
  326MOL0     C44908   3.844   9.767   7.925 -0.1333  0.5260 -1.0183
  326MOL0     O44909   3.984   9.746   7.924  0.6676 -0.6706  0.3125
  326MOL0     C44910   4.057   9.774   7.801 -0.1469  0.2063 -0.8333
  326MOL0     C44911   4.213   9.775   7.822 -0.2518  0.7970  0.0482
  326MOL0     C44912   4.293   9.809   7.697 -0.1194  0.0027  0.3047
  326MOL0     C44913   4.257   9.716   7.583 -0.3993  0.5783  0.1300
  326MOL0     C44914   4.286   9.574   7.611 -0.7062  0.4563  0.4490
  326MOL0     C44915   4.315   9.462   7.648 -0.5854  0.5904 -0.2280
  326MOL0     C44916   3.783   9.748   8.048 -1.0693 -0.0092  0.2516
  326MOL0     C44917   3.644   9.737   8.056 -0.0650 -0.8790 -0.2973
  326MOL0     C44918   3.579   9.674   8.180  1.2067 -0.5685  0.2289
  326MOL0     H44919   3.129   9.888   7.928  1.6111  0.7017 -1.9341
  326MOL0     H44920   2.886   9.796   7.900 -0.4005 -0.3516  0.1833
  326MOL0     H44921   2.866   9.603   7.546  2.3062  0.3318  1.7417
  326MOL0     H44922   2.718   9.667   7.592  1.3164  0.0962  0.5886
  326MOL0     H44923   2.628   9.458   7.671  0.2900  1.2826  0.4421
  326MOL0     H44924   2.690   9.444   7.498  0.7134 -0.8693  0.1234
  326MOL0     H44925   2.875   9.313   7.577 -1.5656  0.6175 -1.0860
  326MOL0     H44926   2.830   9.344   7.745  2.0372  2.3221 -1.2538
  326MOL0     H44927   2.606   9.238   7.720 -1.0831 -3.4102  0.1689
  326MOL0     H44928   2.653   9.209   7.544 -1.6661  1.5619  0.6018
  326MOL0     H44929   2.861   9.086   7.657  0.4213  0.8610  1.1419
  326MOL0     H44930   2.688   9.014   7.667 -2.3708  4.1189 -5.9328
  326MOL0     H44931   2.829   9.170   7.891 -0.7631  0.3364  0.5564
  326MOL0     H44932   2.678   9.085   7.895 -0.6584 -0.3085 -0.3214
  326MOL0     H44933   2.948   8.959   7.860  1.4249 -0.1741  1.4001
  326MOL0     H44934   2.793   8.867   7.874 -0.9968 -0.3688  1.9831
  326MOL0     H44935   2.901   9.046   8.097 -1.6025  0.3731  0.7895
  326MOL0     H44936   2.745   8.973   8.099 -0.0716  2.5570  1.6689
  326MOL0     H44937   3.122   8.880   8.047  0.2591 -0.0810  0.8272
  326MOL0     H44938   3.226   8.621   8.295 -1.7839 -3.9047 -0.1304
  326MOL0     H44939   3.294   8.716   8.158  1.5170 -1.9620  0.9058
  326MOL0     H44940   3.134   8.474   8.077  0.5669  0.1380 -3.8400
  326MOL0     H44941   3.248   8.579   7.996 -2.9161  1.0821  1.2073
  326MOL0     H44942   3.441   8.506   8.137 -1.3809  2.1420  0.6696
  326MOL0     H44943   3.343   8.405   8.222 -3.5580 -0.5805 -0.6162
  326MOL0     H44944   3.314   8.243   8.045  1.5728 -1.8779  2.3610
  326MOL0     H44945   3.342   8.376   7.922 -0.2559  1.3628  0.9617
  326MOL0     H44946   3.406   8.215   7.803  0.3795 -2.7493  3.9754
  326MOL0     H44947   3.501   8.022   7.573  0.9291  0.1756 -0.0945
  326MOL0     H44948   3.538   8.167   7.480 -0.1269  1.0748  0.7416
  326MOL0     H44949   3.391   8.170   7.578 -0.6333  0.0978 -0.6403
  326MOL0     H44950   4.137   8.151   7.367  0.6847 -0.0229 -0.9412
  326MOL0     H44951   4.267   7.955   7.298  0.4017  0.3430 -1.1873
  326MOL0     H44952   4.379   7.700   7.523  0.3224  4.1000 -3.9758
  326MOL0     H44953   4.279   7.551   7.511 -2.2229  0.1517 -2.5958
  326MOL0     H44954   4.476   7.476   7.426  3.6752  1.9765 -0.1932
  326MOL0     H44955   4.377   7.514   7.278  1.1817 -2.4009 -0.0415
  326MOL0     H44956   4.496   7.735   7.279 -0.0242  1.3178  2.9196
  326MOL0     H44957   4.608   7.593   7.240  0.5118 -3.4356  2.3072
  326MOL0     H44958   4.681   7.574   7.471 -0.5684  0.2396  2.1635
  326MOL0     H44959   4.596   7.709   7.524  1.7419  2.5080 -0.0642
  326MOL0     H44960   4.821   7.763   7.490 -0.6593  4.1301  1.6136
  326MOL0     H44961   4.820   7.710   7.316  1.9423 -0.4977  2.9890
  326MOL0     H44962   4.669   7.894   7.252  1.2405 -0.0794 -0.1527
  326MOL0     H44963   4.807   7.964   7.328  0.2688  2.6707  2.1562
  326MOL0     H44964   4.651   7.924   7.555  2.4414  0.1313  0.0169
  326MOL0     H44965   4.521   7.928   7.448 -0.4050  1.1432  2.5117
  326MOL0     H44966   4.562   8.154   7.534  1.6456 -0.8455  0.3568
  326MOL0     H44967   4.588   8.142   7.356  2.8246  2.9600 -1.0772
  326MOL0     H44968   4.085   7.708   7.575 -1.3285 -1.6144 -0.7787
  326MOL0     H44969   3.952   7.912   7.681  0.1659  1.0683 -0.7810
  326MOL0     H44970   3.895   8.204   7.812 -0.2220 -1.4627  0.9232
  326MOL0     H44971   3.762   8.257   8.011 -1.1822  0.0527  0.7693
  326MOL0     H44972   3.057   9.477   7.659  1.7128 -1.6975  0.3194
  326MOL0     H44973   3.275   9.559   7.685 -2.3179 -0.9870 -0.6431
  326MOL0     H44974   3.582   9.857   7.736 -1.0442  1.7431  1.1269
  326MOL0     H44975   3.795   9.821   7.714 -1.3293 -0.0306 -0.8176
  326MOL0     H44976   4.019   9.693   7.739 -0.5323  0.1252 -0.4997
  326MOL0     H44977   4.025   9.863   7.747 -2.5826 -0.8296 -1.2246
  326MOL0     H44978   4.237   9.672   7.851  0.0977  0.5901 -0.9374
  326MOL0     H44979   4.233   9.840   7.907 -1.8692  0.0933  1.0275
  326MOL0     H44980   4.265   9.908   7.660  3.5068  0.4378 -1.6879
  326MOL0     H44981   4.400   9.815   7.719  0.0621 -0.5952 -0.3622
  326MOL0     H44982   4.302   9.747   7.488 -0.2966 -0.1442 -0.0651
  326MOL0     H44983   4.149   9.715   7.569 -0.6631 -2.1391  1.7228
  326MOL0     H44984   4.330   9.362   7.683 -2.8597  0.2716  0.0209
  326MOL0     H44985   3.844   9.727   8.135  0.2746 -0.7490 -0.8407
  326MOL0     H44986   3.660   9.646   8.248  0.2343 -0.3416  1.5048
  326MOL0     H44987   3.520   9.750   8.231  1.5677  1.4756 -2.1685
  326MOL0     H44988   3.525   9.582   8.155 -0.6315 -0.0718  2.1060
  327MOL0     O44989   3.237   2.026   5.378 -0.4908 -0.2464 -0.4307
  327MOL0     C44990   3.258   2.003   5.264  0.1378 -0.1186 -0.8034
  327MOL0     O44991   3.377   1.975   5.207  0.9668  0.3596 -0.1659
  327MOL0     C44992   3.502   1.977   5.272 -0.0700  0.9058  0.7286
  327MOL0     C44993   3.619   1.965   5.194  0.6808  0.7280 -0.6980
  327MOL0     C44994   3.740   1.963   5.247 -0.4877  0.2530  0.0737
  327MOL0     C44995   3.755   1.994   5.382 -0.1324  0.3375  0.0649
  327MOL0     O44996   3.878   1.989   5.451  0.4768  0.7878 -0.3392
  327MOL0     C44997   4.000   1.990   5.376  0.3196 -0.0401  0.1787
  327MOL0     C44998   4.017   2.130   5.317  0.4085  0.8788 -0.5591
  327MOL0     C44999   4.155   2.141   5.257 -0.3193 -0.1977 -0.7577
  327MOL0     C45000   4.199   2.278   5.247  0.8199  0.4081  0.5025
  327MOL0     C45001   4.346   2.285   5.201  0.3079  0.9961  0.0045
  327MOL0     C45002   4.387   2.417   5.158  0.6155 -0.6512 -0.4167
  327MOL0     C45003   4.529   2.404   5.098  0.8543  0.3498 -0.3017
  327MOL0     C45004   4.524   2.402   4.943 -0.6889  0.4240 -0.0852
  327MOL0     N45005   4.649   2.456   4.889 -0.4316  0.1761  0.4619
  327MOL0     C45006   4.763   2.385   4.855 -0.6464  0.4791  1.2113
  327MOL0     C45007   4.833   2.475   4.787 -0.1205  0.2526 -0.5060
  327MOL0     C45008   4.965   2.441   4.730  0.5957  0.0760 -0.0093
  327MOL0     C45009   5.082   2.493   4.808 -0.8129 -0.1682 -0.2468
  327MOL0     C45010   5.215   2.451   4.729  0.7909 -0.3376 -0.2419
  327MOL0     C45011   5.343   2.489   4.803  0.2178 -0.2885 -0.1733
  327MOL0     O45012   5.371   2.632   4.805  0.1936  0.0447 -0.1316
  327MOL0     C45013   5.485   2.672   4.869  0.3772 -0.4955  0.3534
  327MOL0     C45014   5.505   2.813   4.880 -0.1133  1.7328 -0.3219
  327MOL0     C45015   5.639   2.860   4.910 -0.0693  0.1870 -0.3797
  327MOL0     C45016   5.653   3.013   4.922 -0.1466 -0.5775 -0.2519
  327MOL0     C45017   5.744   2.771   4.928 -0.0928 -0.3575  0.4547
  327MOL0     C45018   5.886   2.822   4.936  0.0715 -0.4609  0.4356
  327MOL0     O45019   5.913   2.956   4.906 -0.2910  0.1059  0.6112
  327MOL0     C45020   6.031   3.009   4.936 -0.4571 -0.6891 -0.0381
  327MOL0     C45021   6.098   2.997   5.054 -0.5738 -0.7141 -0.7593
  327MOL0     C45022   6.227   3.053   5.074  0.0060 -0.1045  0.3935
  327MOL0     C45023   6.298   3.121   4.970 -0.4269 -0.4160  0.0949
  327MOL0     O45024   6.411   3.199   4.975  0.0662 -0.8431  0.6148
  327MOL0     C45025   6.517   3.137   5.051 -0.7613 -0.4210  0.0942
  327MOL0     C45026   6.622   3.244   5.079  0.5662 -0.4481 -1.3253
  327MOL0     C45027   6.694   3.293   4.948  0.3304  0.0002 -1.1026
  327MOL0     C45028   6.768   3.178   4.874 -0.0094 -0.0487  0.0463
  327MOL0     C45029   6.857   3.242   4.765 -0.1639  0.4148 -0.2168
  327MOL0     C45030   6.998   3.271   4.816 -0.4748  0.0143  0.5819
  327MOL0     C45031   7.052   3.378   4.721  0.0265 -0.1998  0.1037
  327MOL0     C45032   7.190   3.419   4.769  0.1997  0.2691 -0.2795
  327MOL0    Cl45033   7.175   3.492   4.925 -0.3195  0.0995 -0.2689
  327MOL0     C45034   6.220   3.135   4.852 -0.0366 -0.2354 -0.7171
  327MOL0     C45035   6.091   3.083   4.834  0.6341  0.7883  0.7544
  327MOL0     O45036   5.966   2.733   4.958  0.0790 -0.7672  0.4384
  327MOL0     C45037   5.716   2.629   4.931 -0.1568 -0.1648  0.4339
  327MOL0     C45038   5.588   2.582   4.901 -0.1392  0.4898 -0.1059
  327MOL0     N45039   4.769   2.594   4.777  0.2215  0.7177 -0.5953
  327MOL0     N45040   4.665   2.583   4.844  0.5098 -0.1661  0.7462
  327MOL0     C45041   3.650   2.033   5.465  0.7884 -0.1310  0.9330
  327MOL0     C45042   3.518   2.016   5.407 -0.4598 -0.4922  0.3749
  327MOL0     C45043   3.134   2.023   5.184 -0.2264  0.8161  0.2932
  327MOL0     C45044   3.014   1.983   5.231  0.9591 -0.0439 -0.1761
  327MOL0     C45045   2.892   1.994   5.162  0.4265  0.0561 -0.0470
  327MOL0     C45046   2.891   2.039   5.031  0.2377 -1.8485 -0.5241
  327MOL0     O45047   2.773   2.029   4.963 -0.1615 -0.2658 -0.0313
  327MOL0     C45048   2.778   2.021   4.818  0.7828  0.5300 -0.4700
  327MOL0     C45049   2.734   1.886   4.758  0.4747  0.1240  0.1640
  327MOL0     C45050   2.828   1.776   4.790  0.2453  0.1702  1.1885
  327MOL0     C45051   2.765   1.650   4.735 -0.3051 -0.0712 -0.5309
  327MOL0     C45052   2.767   1.629   4.591 -0.6553 -0.5484 -0.1335
  327MOL0     C45053   2.777   1.605   4.473 -0.4115 -0.7184 -0.6333
  327MOL0     C45054   3.011   2.090   4.979 -0.0201  0.0855  0.1158
  327MOL0     C45055   3.133   2.074   5.052 -0.2847 -0.3515 -0.7207
  327MOL0     C45056   3.254   2.096   4.981 -0.0108  0.5769  0.0947
  327MOL0     H45057   3.606   1.941   5.089 -1.2771 -0.0809 -0.3120
  327MOL0     H45058   3.823   1.943   5.180  0.0461 -0.4896  0.9432
  327MOL0     H45059   4.007   1.903   5.310  0.0799 -3.6286  4.4530
  327MOL0     H45060   4.084   1.982   5.446  1.6737  2.7407 -0.9556
  327MOL0     H45061   3.940   2.152   5.242 -1.6644 -1.5902  0.6850
  327MOL0     H45062   3.989   2.205   5.392 -3.0082  0.3205 -1.1109
  327MOL0     H45063   4.225   2.079   5.314  0.5964 -0.9605 -2.6359
  327MOL0     H45064   4.149   2.097   5.157 -2.0130 -2.1109  0.1124
  327MOL0     H45065   4.135   2.322   5.170  0.5479  1.3830  1.2665
  327MOL0     H45066   4.192   2.327   5.344 -1.5623  2.1621 -0.4575
  327MOL0     H45067   4.360   2.221   5.113 -1.4093  0.1978  0.2524
  327MOL0     H45068   4.412   2.244   5.278 -1.4151 -2.1995 -0.0496
  327MOL0     H45069   4.316   2.460   5.087  1.4590  1.2761 -0.1652
  327MOL0     H45070   4.390   2.490   5.239  1.4526  0.1923 -1.1925
  327MOL0     H45071   4.578   2.310   5.123  0.5929 -0.5779 -2.9421
  327MOL0     H45072   4.598   2.484   5.127 -0.7366  1.6304  0.1190
  327MOL0     H45073   4.522   2.301   4.901  1.2892  1.0529 -1.8375
  327MOL0     H45074   4.440   2.462   4.907 -2.1708  0.6089  3.2868
  327MOL0     H45075   4.784   2.279   4.859  2.1645  1.0105  2.5176
  327MOL0     H45076   4.971   2.468   4.624  2.5193  0.4163  0.1492
  327MOL0     H45077   4.975   2.332   4.728  1.9082  0.1643 -2.4499
  327MOL0     H45078   5.078   2.602   4.803  1.2231 -0.0171  0.6833
  327MOL0     H45079   5.081   2.441   4.904  0.6017 -0.0570 -0.1625
  327MOL0     H45080   5.230   2.343   4.719 -0.2602 -0.5051 -0.1409
  327MOL0     H45081   5.218   2.492   4.628  2.9352 -0.0492 -0.1011
  327MOL0     H45082   5.345   2.462   4.909  0.4005 -0.0579 -0.1186
  327MOL0     H45083   5.423   2.431   4.756  2.2232  0.4181  2.1553
  327MOL0     H45084   5.420   2.879   4.869 -0.6259  0.8649 -2.0157
  327MOL0     H45085   5.696   3.066   4.836  2.1458  0.5912  1.4801
  327MOL0     H45086   5.713   3.042   5.009  0.4889  2.4987 -1.5717
  327MOL0     H45087   5.555   3.057   4.941 -0.3703  0.9260 -4.0011
  327MOL0     H45088   6.062   2.936   5.137  0.4591 -1.1514 -0.6130
  327MOL0     H45089   6.274   3.052   5.171  0.4855 -0.6815  0.1600
  327MOL0     H45090   6.476   3.091   5.142 -0.5628 -0.2168  0.2864
  327MOL0     H45091   6.571   3.054   5.005  1.4448  0.4604  0.9617
  327MOL0     H45092   6.576   3.324   5.138 -1.7176 -2.0554 -0.7665
  327MOL0     H45093   6.707   3.209   5.138  0.9068  2.6340  0.2394
  327MOL0     H45094   6.775   3.365   4.967  2.2097 -2.2135 -0.1323
  327MOL0     H45095   6.623   3.343   4.882  1.0537 -0.8020 -2.5299
  327MOL0     H45096   6.692   3.114   4.829 -3.1057  1.3850  2.8230
  327MOL0     H45097   6.831   3.123   4.945 -0.2943 -0.0153  0.3274
  327MOL0     H45098   6.875   3.174   4.681 -0.8945  1.1854 -1.0144
  327MOL0     H45099   6.810   3.334   4.730 -2.0870 -0.4988 -0.1573
  327MOL0     H45100   7.063   3.184   4.808  3.4589  2.5808  1.7351
  327MOL0     H45101   6.996   3.300   4.921  0.5098  1.6956  0.1718
  327MOL0     H45102   6.989   3.467   4.723  3.3331  2.3227  0.5406
  327MOL0     H45103   7.054   3.355   4.614  0.8801 -0.7042  0.2151
  327MOL0     H45104   7.228   3.498   4.704  2.0448 -0.5140 -0.1960
  327MOL0     H45105   7.258   3.334   4.770 -3.9805 -3.5017 -2.2964
  327MOL0     H45106   6.260   3.188   4.765 -1.2335 -3.8477 -3.7473
  327MOL0     H45107   6.034   3.108   4.745 -1.1558 -3.6276  0.4215
  327MOL0     H45108   5.792   2.553   4.944 -0.4286 -1.0744 -2.6465
  327MOL0     H45109   5.575   2.476   4.885 -0.1092  0.5653 -0.6423
  327MOL0     H45110   3.671   2.061   5.567  2.8494  3.8979 -0.4102
  327MOL0     H45111   3.447   2.049   5.482 -0.8483  0.2370 -0.2968
  327MOL0     H45112   3.013   1.923   5.321 -1.6062  0.2274  0.0435
  327MOL0     H45113   2.798   1.948   5.192  0.7023 -0.7945 -0.4398
  327MOL0     H45114   2.722   2.108   4.782  3.1984  1.6366 -1.7508
  327MOL0     H45115   2.880   2.036   4.781  1.2685 -3.3734 -1.1314
  327MOL0     H45116   2.729   1.902   4.650 -1.5265 -2.4121 -0.2228
  327MOL0     H45117   2.637   1.866   4.805 -0.0707  1.2950 -0.4121
  327MOL0     H45118   2.926   1.790   4.743  0.2995  0.1388  1.2897
  327MOL0     H45119   2.841   1.766   4.899  2.6278  1.0091  1.0473
  327MOL0     H45120   2.664   1.646   4.774  0.2556  0.7976  1.0736
  327MOL0     H45121   2.810   1.557   4.772 -0.1290 -0.2827 -1.2522
  327MOL0     H45122   2.779   1.575   4.370 -1.4018 -2.7468 -0.1030
  327MOL0     H45123   3.009   2.150   4.888 -1.0376  3.5658  2.2605
  327MOL0     H45124   3.236   2.118   4.875 -1.2223 -0.3233  0.0956
  327MOL0     H45125   3.322   2.173   5.019  0.2311 -0.1995  1.3102
  327MOL0     H45126   3.308   2.001   4.971  0.1826  0.4956  1.6465
  328MOL0     O45127   0.025   3.975   6.879  0.2166 -0.5644  0.1050
  328MOL0     C45128   0.013   4.095   6.850  0.0525 -1.2661  0.1429
  328MOL0     O45129  -0.103   4.152   6.820 -0.4433  0.0223  0.0714
  328MOL0     C45130  -0.219   4.085   6.830  0.7212  0.0420 -0.7596
  328MOL0     C45131  -0.233   3.956   6.768  0.8333 -0.1792  0.8514
  328MOL0     C45132  -0.348   3.878   6.775  0.0488 -0.2464  0.9235
  328MOL0     C45133  -0.456   3.929   6.839  0.9199  0.6344 -0.1093
  328MOL0     O45134  -0.575   3.857   6.846 -0.2409 -0.5890 -0.3813
  328MOL0     C45135  -0.709   3.927   6.870 -1.4591  0.4485  0.0951
  328MOL0     C45136  -0.819   3.852   6.799  0.4348 -0.0768  0.8868
  328MOL0     C45137  -0.810   3.905   6.656 -0.4648 -0.1207  0.1617
  328MOL0     C45138  -0.917   3.834   6.574  0.8913  0.0361 -0.2043
  328MOL0     C45139  -0.879   3.694   6.524 -0.9305 -0.1854 -0.5921
  328MOL0     C45140  -0.977   3.650   6.420  0.3267 -0.0047 -0.4237
  328MOL0     C45141  -0.943   3.509   6.381  0.1443 -0.5409  0.1956
  328MOL0     C45142  -1.027   3.464   6.261  0.6768 -0.6183  0.2441
  328MOL0     N45143  -1.172   3.467   6.277  0.0348 -1.0229 -0.3338
  328MOL0     C45144  -1.257   3.385   6.208  0.5439  0.1135  0.1472
  328MOL0     C45145  -1.378   3.438   6.221 -0.4506  0.5674 -0.8918
  328MOL0     C45146  -1.496   3.374   6.158 -0.0702  0.3766 -0.1489
  328MOL0     C45147  -1.550   3.251   6.246 -0.2469 -0.6620 -0.3695
  328MOL0     C45148  -1.640   3.166   6.160  0.3356  0.1153  0.6658
  328MOL0     C45149  -1.775   3.235   6.153 -0.5353  0.9998  0.0703
  328MOL0     O45150  -1.861   3.158   6.062  0.4111 -0.1278  0.3739
  328MOL0     C45151  -1.992   3.198   6.057  0.1026 -0.3136 -0.3528
  328MOL0     C45152  -2.083   3.112   5.997  1.2345 -0.2924  0.1726
  328MOL0     C45153  -2.218   3.149   5.981  0.6524  0.4294 -0.1759
  328MOL0     C45154  -2.312   3.043   5.921  0.1098  0.2646 -0.4079
  328MOL0     C45155  -2.262   3.279   6.012 -0.0393 -0.0527 -0.1135
  328MOL0     C45156  -2.404   3.323   5.999 -0.2289  0.4847 -0.1546
  328MOL0     O45157  -2.433   3.430   6.072 -0.5527 -0.1670  0.0616
  328MOL0     C45158  -2.558   3.476   6.104  0.4487 -0.2185 -0.0700
  328MOL0     C45159  -2.556   3.591   6.179  0.3159  0.1521  0.7721
  328MOL0     C45160  -2.674   3.665   6.220 -0.3272 -0.6311 -0.7806
  328MOL0     C45161  -2.798   3.603   6.194 -0.7023  0.4953  0.3369
  328MOL0     O45162  -2.923   3.639   6.246  0.0704  0.6506 -0.1491
  328MOL0     C45163  -2.930   3.772   6.304 -0.6444 -0.4855 -0.4322
  328MOL0     C45164  -3.019   3.776   6.428 -0.8593 -0.2455 -0.2839
  328MOL0     C45165  -2.998   3.906   6.505 -0.6361  0.4178  0.8639
  328MOL0     C45166  -3.053   3.890   6.639  0.6401 -0.4235  0.0274
  328MOL0     C45167  -3.055   4.014   6.723  0.2307  0.7282 -0.8502
  328MOL0     C45168  -3.139   3.991   6.849 -0.3324 -0.0703  0.2132
  328MOL0     C45169  -3.104   4.103   6.941 -0.3728 -0.5408  0.5062
  328MOL0     C45170  -3.177   4.101   7.069 -1.0903  0.7898  0.4485
  328MOL0    Cl45171  -3.352   4.127   7.042  0.5993 -0.0676  0.0056
  328MOL0     C45172  -2.803   3.484   6.123 -1.0124 -0.0319 -0.3563
  328MOL0     C45173  -2.681   3.417   6.079  0.6423 -0.2471 -0.0472
  328MOL0     O45174  -2.472   3.270   5.911  0.7163  0.3404 -0.7966
  328MOL0     C45175  -2.174   3.350   6.093  0.3598 -0.4446  0.8083
  328MOL0     C45176  -2.047   3.310   6.119 -0.1182  0.4157 -0.2463
  328MOL0     N45177  -1.370   3.564   6.279  0.0691  0.2394  0.2493
  328MOL0     N45178  -1.251   3.572   6.322  0.4087 -0.1118  0.4223
  328MOL0     C45179  -0.442   4.049   6.903 -1.0316  0.2112  0.4858
  328MOL0     C45180  -0.329   4.133   6.896  0.7145 -0.7120 -0.1357
  328MOL0     C45181   0.140   4.180   6.836  0.5912  0.2385 -0.6581
  328MOL0     C45182   0.257   4.118   6.800  0.1176  0.4723  0.0188
  328MOL0     C45183   0.374   4.189   6.783  0.4698 -0.8042  0.0176
  328MOL0     C45184   0.388   4.316   6.823 -0.6564  1.0051  0.2619
  328MOL0     O45185   0.513   4.384   6.809  0.7289 -0.0491  0.2933
  328MOL0     C45186   0.514   4.487   6.711 -0.0239  0.6004 -0.2739
  328MOL0     C45187   0.499   4.440   6.570 -0.0145  0.2064  0.2499
  328MOL0     C45188   0.352   4.441   6.523 -0.4653 -0.3932  0.6187
  328MOL0     C45189   0.307   4.561   6.438 -0.7292 -0.1023 -0.7939
  328MOL0     C45190   0.170   4.544   6.404 -0.6191 -0.8667  0.7197
  328MOL0     C45191   0.059   4.527   6.363 -0.1108  0.0350 -0.6853
  328MOL0     C45192   0.282   4.380   6.869  1.4061  0.1027 -0.7650
  328MOL0     C45193   0.151   4.323   6.869  0.3224  0.4113  0.4581
  328MOL0     C45194   0.031   4.403   6.908 -0.8473  0.4369 -0.5322
  328MOL0     H45195  -0.146   3.914   6.717 -2.0300 -5.0294 -0.6975
  328MOL0     H45196  -0.361   3.785   6.720 -1.4129  0.6763 -0.3786
  328MOL0     H45197  -0.703   4.033   6.847 -1.8445  0.1818 -1.2952
  328MOL0     H45198  -0.726   3.927   6.978 -3.1000 -0.6694 -0.1299
  328MOL0     H45199  -0.812   3.743   6.802 -0.9720 -0.1597  2.8571
  328MOL0     H45200  -0.919   3.870   6.840  0.0054 -0.6871  0.1230
  328MOL0     H45201  -0.830   4.013   6.653 -3.2242 -0.5652  0.4725
  328MOL0     H45202  -0.713   3.883   6.610 -1.5083 -2.7379 -0.9786
  328MOL0     H45203  -1.004   3.841   6.640  3.4188 -0.5920  3.4809
  328MOL0     H45204  -0.928   3.891   6.481  0.6754 -3.1286 -2.2431
  328MOL0     H45205  -0.876   3.625   6.609 -2.7041  0.5981  0.1420
  328MOL0     H45206  -0.777   3.686   6.484 -0.4166  1.9959  0.1754
  328MOL0     H45207  -1.078   3.663   6.460  0.7718  2.0100  0.1394
  328MOL0     H45208  -0.966   3.727   6.343  2.1603  3.2635  2.8229
  328MOL0     H45209  -0.955   3.429   6.454 -3.3336 -1.3224 -1.0178
  328MOL0     H45210  -0.834   3.516   6.367  0.7518 -1.5429  3.5669
  328MOL0     H45211  -1.011   3.528   6.174 -1.3373  1.4073  1.2494
  328MOL0     H45212  -0.996   3.360   6.246  0.6178 -0.7501  1.0151
  328MOL0     H45213  -1.219   3.293   6.165  0.7670 -1.6597  3.7618
  328MOL0     H45214  -1.468   3.338   6.059  3.0709 -0.5032  0.9161
  328MOL0     H45215  -1.574   3.450   6.146  3.0163  3.7167 -0.8612
  328MOL0     H45216  -1.456   3.200   6.271  0.8988  1.6343  0.2723
  328MOL0     H45217  -1.593   3.289   6.340  1.1013  0.7016 -0.2784
  328MOL0     H45218  -1.604   3.158   6.056  0.6392  0.5732  0.7317
  328MOL0     H45219  -1.646   3.066   6.203  0.7036 -0.7116 -1.1082
  328MOL0     H45220  -1.817   3.234   6.253  1.6978 -1.7303  1.1167
  328MOL0     H45221  -1.754   3.336   6.116  1.3907  0.9474  0.9159
  328MOL0     H45222  -2.047   3.016   5.962  0.6810  0.1144 -1.6057
  328MOL0     H45223  -2.405   3.034   5.977  1.3006  1.6402  1.9940
  328MOL0     H45224  -2.262   2.946   5.925 -1.3227 -0.5755 -1.8541
  328MOL0     H45225  -2.319   3.078   5.818  2.4018  1.7057 -0.1651
  328MOL0     H45226  -2.458   3.630   6.207  0.3795  0.9170 -0.4803
  328MOL0     H45227  -2.657   3.762   6.265  1.5426 -1.2874  0.0329
  328MOL0     H45228  -2.834   3.800   6.347  0.6576 -0.4019 -3.1623
  328MOL0     H45229  -2.958   3.844   6.227  0.0859  1.4090  1.0071
  328MOL0     H45230  -3.124   3.762   6.399 -1.0940 -0.5474  0.6819
  328MOL0     H45231  -2.994   3.694   6.495 -0.6437 -1.1041 -1.3893
  328MOL0     H45232  -3.054   3.979   6.446  0.9974 -0.4068 -1.9164
  328MOL0     H45233  -2.891   3.931   6.511 -0.5955  0.0552  1.7824
  328MOL0     H45234  -3.001   3.811   6.695  0.8195  0.8334  1.7035
  328MOL0     H45235  -3.152   3.843   6.636  0.7827 -0.7312  0.0324
  328MOL0     H45236  -2.952   4.037   6.751  0.5648  0.7565 -2.0320
  328MOL0     H45237  -3.086   4.098   6.660  1.9652 -0.7470 -3.8734
  328MOL0     H45238  -3.107   3.897   6.896 -0.3858 -0.7516 -1.0711
  328MOL0     H45239  -3.245   3.986   6.826 -0.8056 -2.1560  2.3977
  328MOL0     H45240  -3.116   4.197   6.886 -2.0135 -1.0585 -0.0697
  328MOL0     H45241  -2.998   4.085   6.964  0.0657 -0.6509 -1.3902
  328MOL0     H45242  -3.143   4.175   7.141 -0.9249  0.2891  0.8914
  328MOL0     H45243  -3.155   4.011   7.127 -2.5265  0.8209  1.0850
  328MOL0     H45244  -2.899   3.445   6.092 -1.6589  1.0612  0.2252
  328MOL0     H45245  -2.679   3.318   6.034  2.1066 -0.0717 -0.4408
  328MOL0     H45246  -2.192   3.442   6.146 -0.0852 -0.7425  1.1868
  328MOL0     H45247  -1.988   3.370   6.188  0.6307  1.3119 -1.6034
  328MOL0     H45248  -0.529   4.076   6.962 -1.6155 -3.5688  1.6517
  328MOL0     H45249  -0.320   4.236   6.929 -1.8493  0.1112 -1.7040
  328MOL0     H45250   0.258   4.010   6.798  0.6592  0.3709  2.7199
  328MOL0     H45251   0.463   4.143   6.742  1.5555  0.7852  0.4863
  328MOL0     H45252   0.440   4.563   6.737 -0.0065  0.8654 -1.0001
  328MOL0     H45253   0.607   4.544   6.716 -0.5767  1.4362  1.2337
  328MOL0     H45254   0.531   4.336   6.557 -4.2245 -1.3641  0.7094
  328MOL0     H45255   0.554   4.503   6.500 -1.7940  0.0723 -1.3670
  328MOL0     H45256   0.347   4.354   6.456  0.6989  0.3383 -0.4689
  328MOL0     H45257   0.287   4.431   6.610  0.5051 -3.5422  1.1088
  328MOL0     H45258   0.374   4.568   6.352 -1.3457  1.1615 -1.1971
  328MOL0     H45259   0.329   4.647   6.503 -0.0643 -0.5827 -0.3698
  328MOL0     H45260  -0.039   4.511   6.322 -0.0477 -0.4595 -0.6469
  328MOL0     H45261   0.290   4.480   6.910  0.1610  0.0109 -0.2525
  328MOL0     H45262  -0.031   4.412   6.818 -0.3026 -2.3774 -1.3290
  328MOL0     H45263  -0.036   4.354   6.979 -0.4127 -1.9699 -1.6454
  328MOL0     H45264   0.066   4.500   6.942  1.2465 -0.6382  0.6236
  329MOL0     O45265   9.335   2.104   4.239  0.1299  0.5173  0.7594
  329MOL0     C45266   9.441   2.084   4.177  0.4976  0.1287  0.4032
  329MOL0     O45267   9.465   1.991   4.086 -0.4354  0.1844  0.0384
  329MOL0     C45268   9.371   1.899   4.047 -0.7756 -0.2949 -0.7245
  329MOL0     C45269   9.383   1.773   4.101  0.7561 -0.4191  0.4607
  329MOL0     C45270   9.278   1.683   4.079 -0.2998  0.0616  0.6477
  329MOL0     C45271   9.162   1.714   4.004  0.0523 -0.1149 -0.2571
  329MOL0     O45272   9.059   1.618   3.996 -0.5958 -0.4631  0.4486
  329MOL0     C45273   8.936   1.652   3.919 -0.0766 -0.3068  0.5121
  329MOL0     C45274   8.855   1.525   3.914  0.5991  0.2233  1.0388
  329MOL0     C45275   8.798   1.493   4.051  0.0687  0.3952  0.1088
  329MOL0     C45276   8.719   1.364   4.040  0.3722  0.1509  1.0182
  329MOL0     C45277   8.647   1.340   4.180  0.3509 -0.4256  0.3128
  329MOL0     C45278   8.585   1.194   4.190 -0.0382 -0.2205 -0.2982
  329MOL0     C45279   8.498   1.194   4.318  0.4391  0.0080 -0.9180
  329MOL0     C45280   8.372   1.276   4.329  0.4373 -0.1017 -0.2587
  329MOL0     N45281   8.334   1.314   4.464 -0.0738  0.2133  0.0033
  329MOL0     C45282   8.300   1.229   4.562  0.3649  0.3540  0.4629
  329MOL0     C45283   8.254   1.305   4.656 -0.0486  0.8507  0.5274
  329MOL0     C45284   8.172   1.264   4.771 -0.2518 -0.7212  0.5393
  329MOL0     C45285   8.263   1.241   4.894 -0.2483  0.2623 -0.2305
  329MOL0     C45286   8.393   1.162   4.871  0.0223 -0.4708 -0.4128
  329MOL0     C45287   8.486   1.186   4.990 -0.2266  0.3734 -0.2179
  329MOL0     O45288   8.611   1.114   4.967  0.1674 -0.9037 -0.4315
  329MOL0     C45289   8.703   1.105   5.073 -0.8606  0.4691 -0.2592
  329MOL0     C45290   8.826   1.043   5.041  0.4387 -0.6433  0.1345
  329MOL0     C45291   8.920   1.006   5.138  0.0070  0.2582  0.6467
  329MOL0     C45292   9.037   0.940   5.077 -0.0069  0.3273 -0.8077
  329MOL0     C45293   8.899   1.050   5.267  0.3818  0.3876 -0.0842
  329MOL0     C45294   8.984   1.008   5.387 -1.3761  0.4329 -0.5341
  329MOL0     O45295   9.114   0.975   5.352  0.8500  0.3034  0.2093
  329MOL0     C45296   9.216   0.967   5.436  0.0161 -0.2083  0.2418
  329MOL0     C45297   9.222   0.951   5.576 -0.7758  0.5031 -0.3255
  329MOL0     C45298   9.347   0.957   5.643 -0.8800  0.5233 -0.1033
  329MOL0     C45299   9.467   0.955   5.567  0.7834  0.4151 -0.7814
  329MOL0     O45300   9.584   0.935   5.646  0.4969 -0.6557 -0.0374
  329MOL0     C45301   9.711   0.985   5.614  0.8552 -0.0241 -0.1333
  329MOL0     C45302   9.808   0.972   5.736 -0.3217 -0.1145  0.2696
  329MOL0     C45303   9.941   1.016   5.696 -0.6804  0.3669 -0.7362
  329MOL0     C45304  10.044   0.973   5.802  0.0066  0.5498  0.5807
  329MOL0     C45305  10.171   1.047   5.771 -0.8668  0.0602 -0.0856
  329MOL0     C45306  10.275   1.028   5.877 -0.4101 -1.0299  0.1240
  329MOL0     C45307  10.403   1.113   5.849  0.3555  0.2974  0.0429
  329MOL0     C45308  10.495   1.129   5.964 -0.4036  0.4973  0.3429
  329MOL0    Cl45309  10.542   0.964   6.023 -0.4097 -0.1657 -0.0025
  329MOL0     C45310   9.464   0.995   5.425  0.3649 -0.2257 -0.3283
  329MOL0     C45311   9.340   0.995   5.362  1.1933  0.2472 -0.7421
  329MOL0     O45312   8.942   1.015   5.502 -1.0519 -0.1187  0.4815
  329MOL0     C45313   8.785   1.121   5.301  0.2865  0.6961  0.2405
  329MOL0     C45314   8.684   1.150   5.206 -0.3176  0.0319  0.3724
  329MOL0     N45315   8.292   1.433   4.618  0.5766 -0.7065  0.4823
  329MOL0     N45316   8.328   1.441   4.499 -0.8691  0.0352 -0.4621
  329MOL0     C45317   9.158   1.844   3.947  0.9439 -0.2171 -0.9833
  329MOL0     C45318   9.267   1.924   3.962  0.3399  0.0810 -0.5174
  329MOL0     C45319   9.548   2.175   4.197 -0.6842  0.5871 -0.9246
  329MOL0     C45320   9.515   2.310   4.198  0.3768  0.3916  0.9599
  329MOL0     C45321   9.611   2.411   4.214  0.2738  0.0748 -0.7598
  329MOL0     C45322   9.746   2.381   4.223  0.5325 -0.4417  0.3068
  329MOL0     O45323   9.831   2.484   4.218 -0.3136 -0.0815  0.2657
  329MOL0     C45324   9.971   2.457   4.236 -0.4942  0.3511  0.8784
  329MOL0     C45325  10.031   2.596   4.235  0.4102  0.3513  0.0120
  329MOL0     C45326  10.183   2.602   4.201 -0.4502  0.1747 -0.1264
  329MOL0     C45327  10.191   2.625   4.056 -0.5514 -0.0358 -0.1068
  329MOL0     C45328  10.172   2.762   4.025  0.2683  0.2930  0.4721
  329MOL0     C45329  10.150   2.877   3.990  0.3695  0.0641 -0.8286
  329MOL0     C45330   9.775   2.248   4.222 -0.7195 -0.9013  0.2177
  329MOL0     C45331   9.687   2.144   4.212 -0.6486  0.1469  0.5708
  329MOL0     C45332   9.735   2.007   4.215 -0.4731  0.4726 -0.3357
  329MOL0     H45333   9.465   1.741   4.165  0.1546 -2.1955  0.3904
  329MOL0     H45334   9.278   1.582   4.120 -0.5545  0.5998  2.0274
  329MOL0     H45335   8.965   1.687   3.820  0.1813  0.8827  0.9984
  329MOL0     H45336   8.876   1.730   3.967 -1.1461  0.9429 -2.6130
  329MOL0     H45337   8.774   1.541   3.842  0.1025  2.1411  1.9543
  329MOL0     H45338   8.911   1.437   3.879  1.4512  0.7620  1.0223
  329MOL0     H45339   8.881   1.478   4.120  2.0440 -0.4226 -2.3011
  329MOL0     H45340   8.731   1.575   4.077  0.6285  1.2714 -1.0889
  329MOL0     H45341   8.645   1.366   3.959 -0.9309 -0.1845  2.1716
  329MOL0     H45342   8.795   1.286   4.029  0.8021  0.3760  2.1808
  329MOL0     H45343   8.577   1.423   4.189 -0.7302 -1.4269  1.5256
  329MOL0     H45344   8.728   1.340   4.254  1.6520 -0.0750 -1.0683
  329MOL0     H45345   8.526   1.183   4.098 -1.2817  0.6802  0.3705
  329MOL0     H45346   8.668   1.123   4.193 -0.8806 -1.1856  1.7126
  329MOL0     H45347   8.558   1.231   4.402 -2.9931  1.9303  0.9019
  329MOL0     H45348   8.477   1.088   4.332 -1.4765 -0.0358 -3.5295
  329MOL0     H45349   8.370   1.359   4.258  0.3765  1.8989  1.9524
  329MOL0     H45350   8.288   1.213   4.297 -1.1865  1.2335  1.1663
  329MOL0     H45351   8.281   1.123   4.549  4.1880 -0.6264  1.6789
  329MOL0     H45352   8.117   1.173   4.745 -1.0982 -0.0846  0.0345
  329MOL0     H45353   8.096   1.340   4.787  0.1863  0.6633 -2.9839
  329MOL0     H45354   8.287   1.340   4.935 -0.7088  0.8217 -1.2836
  329MOL0     H45355   8.206   1.186   4.969 -3.2671  2.3603 -0.7987
  329MOL0     H45356   8.369   1.056   4.859  1.8553 -0.8796 -0.7410
  329MOL0     H45357   8.451   1.202   4.788  0.1576 -0.1080 -0.1462
  329MOL0     H45358   8.507   1.293   4.998  0.0667  0.3369 -0.4715
  329MOL0     H45359   8.444   1.153   5.085 -0.1853 -0.4977 -0.4899
  329MOL0     H45360   8.826   1.010   4.938  1.6937 -2.0694  0.5508
  329MOL0     H45361   9.124   1.005   5.082  2.2672 -2.6076  2.8524
  329MOL0     H45362   9.013   0.906   4.975 -0.4264  3.4457 -1.8636
  329MOL0     H45363   9.053   0.852   5.139  1.3631  1.9508  1.2666
  329MOL0     H45364   9.128   0.942   5.629 -0.2048  2.1154  1.0524
  329MOL0     H45365   9.357   0.940   5.750 -1.3596  0.9778  0.0171
  329MOL0     H45366   9.751   0.924   5.532 -1.4859 -3.1680  0.8665
  329MOL0     H45367   9.709   1.091   5.588  2.7400  0.3437  0.9944
  329MOL0     H45368   9.772   1.046   5.808 -0.1981  1.0578 -0.8324
  329MOL0     H45369   9.795   0.867   5.763 -3.6383 -0.3127 -1.5096
  329MOL0     H45370   9.947   1.123   5.673  1.1432  0.3376 -0.5491
  329MOL0     H45371   9.971   0.961   5.606 -2.2620  1.4820 -1.9884
  329MOL0     H45372  10.054   0.865   5.801  0.9059  0.5875 -2.3125
  329MOL0     H45373   9.996   1.004   5.896 -0.6073  2.0088 -0.1730
  329MOL0     H45374  10.211   1.006   5.678 -0.1796 -0.1635  0.3019
  329MOL0     H45375  10.150   1.152   5.752  2.1514  0.3413 -2.5180
  329MOL0     H45376  10.298   0.922   5.886 -2.3871 -1.5162 -0.1630
  329MOL0     H45377  10.243   1.060   5.977 -1.5123 -1.3046 -0.1211
  329MOL0     H45378  10.360   1.211   5.822  1.0273  0.6520  0.2392
  329MOL0     H45379  10.451   1.068   5.762 -2.3073 -2.1558 -0.2946
  329MOL0     H45380  10.447   1.187   6.044 -0.0455 -0.3203  1.1598
  329MOL0     H45381  10.584   1.183   5.931 -1.1093  0.5731 -1.5713
  329MOL0     H45382   9.556   1.005   5.370  1.4775 -2.4319  0.9838
  329MOL0     H45383   9.337   1.025   5.257  1.9553  0.5210 -0.6955
  329MOL0     H45384   8.768   1.142   5.406 -0.2214 -1.1518  0.5722
  329MOL0     H45385   8.583   1.174   5.239 -1.0459 -1.1591 -0.8771
  329MOL0     H45386   9.073   1.877   3.890  0.6767 -1.6848 -1.4807
  329MOL0     H45387   9.260   2.022   3.918  1.0853  1.2421  1.7988
  329MOL0     H45388   9.414   2.350   4.191  0.3596  0.2179  0.1741
  329MOL0     H45389   9.586   2.517   4.205  1.6095  0.3201 -1.9648
  329MOL0     H45390   9.984   2.406   4.331 -3.7994  0.8656  1.7216
  329MOL0     H45391  10.004   2.407   4.144 -1.6667 -0.6379  0.9751
  329MOL0     H45392  10.009   2.643   4.331  0.5113  0.5886 -0.0780
  329MOL0     H45393   9.976   2.656   4.162  0.3097  0.1113 -0.1109
  329MOL0     H45394  10.234   2.669   4.270  0.4888  1.3101 -1.8466
  329MOL0     H45395  10.231   2.507   4.225  1.0377  0.6783 -0.9679
  329MOL0     H45396  10.121   2.562   4.001 -1.3697  2.7745 -2.5247
  329MOL0     H45397  10.290   2.603   4.014 -1.3296  0.0035 -2.0597
  329MOL0     H45398  10.119   2.971   3.950 -3.1792 -0.7274 -0.2726
  329MOL0     H45399   9.875   2.206   4.216 -0.3110  0.1593 -0.8665
  329MOL0     H45400   9.730   1.974   4.111  2.2038 -0.7960 -0.1469
  329MOL0     H45401   9.837   1.999   4.254 -0.2807  1.1996 -0.6770
  329MOL0     H45402   9.676   1.941   4.279  1.2660  0.5968  1.5120
  330MOL0     O45403   2.221   8.332   4.577  0.6447 -0.2465 -0.1838
  330MOL0     C45404   2.238   8.205   4.577 -0.5159 -0.7631  0.4604
  330MOL0     O45405   2.160   8.117   4.640  0.6349  0.2694 -0.4269
  330MOL0     C45406   2.052   8.146   4.729 -0.1899 -0.0053  0.0891
  330MOL0     C45407   1.971   8.268   4.723  0.2735  0.2728 -0.0488
  330MOL0     C45408   1.868   8.273   4.811  0.2999  0.3490 -0.2141
  330MOL0     C45409   1.832   8.179   4.904 -0.0397 -0.1040  0.3306
  330MOL0     O45410   1.737   8.211   4.996  0.3237  0.3752 -0.1883
  330MOL0     C45411   1.662   8.105   5.044 -0.0065 -0.5366  0.8358
  330MOL0     C45412   1.541   8.177   5.095 -0.3839  0.4337  0.2609
  330MOL0     C45413   1.437   8.082   5.157  0.2705 -0.4227  0.4014
  330MOL0     C45414   1.296   8.146   5.204 -0.1817 -0.2120 -0.2832
  330MOL0     C45415   1.233   8.076   5.328 -1.1666 -0.2218 -0.6571
  330MOL0     C45416   1.086   8.101   5.340 -0.8385 -0.4934  0.2003
  330MOL0     C45417   1.041   8.247   5.337 -0.5524  0.3840  0.1166
  330MOL0     C45418   0.884   8.254   5.371 -0.3269  0.9243  0.0407
  330MOL0     N45419   0.834   8.393   5.379 -0.1535  0.6820 -0.8411
  330MOL0     C45420   0.760   8.444   5.477  0.7072 -0.5151 -0.5191
  330MOL0     C45421   0.759   8.578   5.448 -0.1225  0.2100  0.2653
  330MOL0     C45422   0.698   8.683   5.535  0.4932  0.8255 -0.0065
  330MOL0     C45423   0.548   8.659   5.546 -0.2966 -0.0672  0.5735
  330MOL0     C45424   0.471   8.785   5.571 -0.1529 -0.0731  0.3118
  330MOL0     C45425   0.321   8.772   5.564  0.0213  0.6357  0.2362
  330MOL0     O45426   0.278   8.786   5.427  0.4643 -0.4836 -0.1815
  330MOL0     C45427   0.146   8.781   5.394 -0.3904  0.6083  0.2046
  330MOL0     C45428   0.064   8.668   5.421  0.0547  0.0425  0.6647
  330MOL0     C45429  -0.069   8.662   5.380  0.6451  0.6199 -0.4281
  330MOL0     C45430  -0.131   8.514   5.395  0.3893 -0.4301  0.4917
  330MOL0     C45431  -0.122   8.772   5.308 -0.3554  1.1060 -0.1908
  330MOL0     C45432  -0.256   8.781   5.248  0.4490  0.1589 -0.2236
  330MOL0     O45433  -0.281   8.894   5.176 -0.0442  0.0145 -0.8440
  330MOL0     C45434  -0.400   8.897   5.112  0.9558 -0.1768  0.0847
  330MOL0     C45435  -0.426   8.818   4.999 -0.3834 -0.1847  0.9622
  330MOL0     C45436  -0.559   8.791   4.947 -0.8776 -0.0868 -1.1443
  330MOL0     C45437  -0.661   8.867   4.998  0.5989  0.1526  0.0425
  330MOL0     O45438  -0.794   8.848   4.956  0.8704 -0.0838  0.2204
  330MOL0     C45439  -0.810   8.818   4.813  0.8867  0.7975 -0.0384
  330MOL0     C45440  -0.924   8.901   4.748 -0.1034 -0.7191  0.2326
  330MOL0     C45441  -1.010   8.815   4.652 -0.6008 -0.5002 -0.3601
  330MOL0     C45442  -1.125   8.895   4.600 -0.1424 -0.4894  0.1675
  330MOL0     C45443  -1.231   8.812   4.518 -1.5245  0.2633 -0.1003
  330MOL0     C45444  -1.353   8.892   4.478 -0.8616  0.5470 -0.4715
  330MOL0     C45445  -1.475   8.804   4.441 -0.6436  0.0542  0.2167
  330MOL0     C45446  -1.585   8.898   4.415  0.0200 -0.1078  0.2130
  330MOL0    Cl45447  -1.733   8.822   4.371  0.4575  0.3399  0.2528
  330MOL0     C45448  -0.642   8.954   5.105 -0.2114 -0.5363  0.3079
  330MOL0     C45449  -0.517   8.973   5.159 -0.7524  0.1996 -1.3039
  330MOL0     O45450  -0.335   8.693   5.275  0.3185 -0.5204  0.3991
  330MOL0     C45451  -0.037   8.876   5.271 -0.1239  0.3576  0.2416
  330MOL0     C45452   0.095   8.880   5.315 -0.9072 -0.0373  0.5673
  330MOL0     N45453   0.824   8.604   5.321  0.2217  0.2047 -0.2091
  330MOL0     N45454   0.867   8.491   5.287  0.5624 -0.2803  0.1926
  330MOL0     C45455   1.907   8.060   4.911  0.6406  0.1200  0.2016
  330MOL0     C45456   2.018   8.047   4.821  0.4019 -0.3625 -0.1030
  330MOL0     C45457   2.353   8.152   4.492 -1.1028  0.7566  0.0360
  330MOL0     C45458   2.389   8.017   4.508 -0.3937  0.6840  0.4030
  330MOL0     C45459   2.494   7.958   4.426 -0.4115 -0.3914  0.6167
  330MOL0     C45460   2.581   8.042   4.342  0.0275  0.0714  0.2468
  330MOL0     O45461   2.699   8.005   4.272  0.3608  0.1079 -0.1638
  330MOL0     C45462   2.746   7.876   4.274  0.3781  0.7100 -0.3605
  330MOL0     C45463   2.855   7.843   4.170  0.3474 -0.5968  0.1094
  330MOL0     C45464   2.989   7.914   4.207 -0.3619  0.2927 -0.4728
  330MOL0     C45465   3.006   8.062   4.171  0.1115  0.0934  0.5462
  330MOL0     C45466   3.146   8.113   4.161 -0.8597 -0.6002 -0.8134
  330MOL0     C45467   3.258   8.175   4.177 -0.3715  0.0872  0.3451
  330MOL0     C45468   2.549   8.178   4.349 -0.3432  0.5721  0.4108
  330MOL0     C45469   2.437   8.233   4.415 -1.5691 -0.1175  0.6595
  330MOL0     C45470   2.436   8.377   4.397  0.3076  0.4746  0.5961
  330MOL0     H45471   1.993   8.348   4.654  0.1202  0.2524 -0.1205
  330MOL0     H45472   1.804   8.361   4.806 -0.0908  0.0859  0.1025
  330MOL0     H45473   1.709   8.050   5.126  1.4303  1.7907  1.6669
  330MOL0     H45474   1.632   8.031   4.969 -1.0487 -1.9646  2.6026
  330MOL0     H45475   1.572   8.251   5.169 -2.8798  0.2331  1.5852
  330MOL0     H45476   1.496   8.232   5.012  3.7369 -2.1455 -4.2450
  330MOL0     H45477   1.413   7.995   5.097  2.4171  1.2724 -3.2423
  330MOL0     H45478   1.488   8.055   5.250  2.9885  3.7206  0.3750
  330MOL0     H45479   1.304   8.251   5.230  1.7982 -0.1984 -0.7852
  330MOL0     H45480   1.224   8.152   5.122 -0.1753  0.1764 -0.2588
  330MOL0     H45481   1.294   8.115   5.411 -0.7225 -0.7252 -0.7398
  330MOL0     H45482   1.242   7.968   5.317 -1.8249 -0.3382 -0.0874
  330MOL0     H45483   1.031   8.051   5.259 -2.1885 -3.0120  2.5346
  330MOL0     H45484   1.058   8.057   5.436  1.4954 -2.5319  0.0506
  330MOL0     H45485   1.044   8.283   5.234  2.3134  2.8527  0.9176
  330MOL0     H45486   1.105   8.315   5.393 -0.0552  2.6598 -2.9751
  330MOL0     H45487   0.835   8.198   5.291 -2.2280 -1.1721  2.5166
  330MOL0     H45488   0.867   8.198   5.463 -2.3873 -0.9941 -1.4118
  330MOL0     H45489   0.714   8.388   5.558  3.7135 -1.2266  0.8208
  330MOL0     H45490   0.724   8.784   5.504  0.9607  1.7600  3.0886
  330MOL0     H45491   0.723   8.667   5.640 -0.5483  0.8668  0.2509
  330MOL0     H45492   0.504   8.624   5.452  2.3796  1.2593 -1.3471
  330MOL0     H45493   0.529   8.588   5.626  0.2525  1.0486  1.7386
  330MOL0     H45494   0.486   8.812   5.676  0.1959 -0.6796  0.4248
  330MOL0     H45495   0.514   8.860   5.505  1.3972 -1.6171 -0.5204
  330MOL0     H45496   0.280   8.684   5.615 -0.1991  0.3239 -0.4729
  330MOL0     H45497   0.274   8.855   5.620  0.0683  0.0038  1.2394
  330MOL0     H45498   0.104   8.584   5.476  1.4454  1.0527  1.2657
  330MOL0     H45499  -0.073   8.451   5.463  1.6240 -0.3774 -0.4804
  330MOL0     H45500  -0.141   8.472   5.294  1.3040  1.8723 -0.6227
  330MOL0     H45501  -0.236   8.519   5.425 -0.2771 -1.8903 -1.3762
  330MOL0     H45502  -0.332   8.782   4.957 -0.2166  1.1104  0.1337
  330MOL0     H45503  -0.562   8.715   4.870 -1.2859  0.3669 -1.5885
  330MOL0     H45504  -0.717   8.827   4.757  1.1147 -1.3044 -0.0594
  330MOL0     H45505  -0.826   8.710   4.809  1.8373  0.6462  0.0291
  330MOL0     H45506  -1.003   8.929   4.817 -2.0557 -1.4261 -1.6012
  330MOL0     H45507  -0.877   8.987   4.699 -1.4082  0.3408  0.7846
  330MOL0     H45508  -1.046   8.723   4.700  0.1017 -2.1853 -2.8750
  330MOL0     H45509  -0.948   8.775   4.571 -0.5093 -1.4918  0.1815
  330MOL0     H45510  -1.088   8.974   4.534  0.4082 -1.2996 -0.5231
  330MOL0     H45511  -1.176   8.946   4.682 -1.4322  1.2059 -1.6088
  330MOL0     H45512  -1.177   8.768   4.435 -1.8908  1.6758 -1.1291
  330MOL0     H45513  -1.264   8.730   4.583  2.0761 -0.6641  0.7816
  330MOL0     H45514  -1.327   8.961   4.397  0.9015 -0.2176 -0.6191
  330MOL0     H45515  -1.387   8.948   4.565  0.6994 -1.1803  1.3658
  330MOL0     H45516  -1.497   8.732   4.521 -0.1367  0.2364  0.5280
  330MOL0     H45517  -1.453   8.747   4.350  0.4137 -0.0301  0.5085
  330MOL0     H45518  -1.561   8.970   4.336  2.6930 -0.0240  1.0088
  330MOL0     H45519  -1.598   8.957   4.506  0.7997  1.1368 -0.4545
  330MOL0     H45520  -0.720   9.015   5.149  1.5192  1.0979  1.2351
  330MOL0     H45521  -0.483   9.044   5.234 -0.4827  0.4855 -1.6923
  330MOL0     H45522  -0.053   8.956   5.200  3.6968  0.8433 -0.3183
  330MOL0     H45523   0.155   8.957   5.268  2.5803 -3.2780 -0.8238
  330MOL0     H45524   1.886   7.975   4.975  1.7190 -1.3271 -1.2746
  330MOL0     H45525   2.082   7.959   4.825 -0.1177 -0.7092  1.1880
  330MOL0     H45526   2.323   7.953   4.566 -0.0664  0.5342  0.6123
  330MOL0     H45527   2.495   7.850   4.428 -1.7454 -0.5184 -1.8356
  330MOL0     H45528   2.774   7.840   4.373  1.1024  1.3680 -0.3179
  330MOL0     H45529   2.657   7.822   4.240 -0.3251  2.3521 -1.2638
  330MOL0     H45530   2.826   7.882   4.073 -0.4218  0.4554  0.7430
  330MOL0     H45531   2.865   7.735   4.156 -0.6374 -0.9188  1.6620
  330MOL0     H45532   3.010   7.891   4.312  1.6316 -0.1985 -0.9372
  330MOL0     H45533   3.079   7.863   4.170 -0.9587 -1.7935  0.7848
  330MOL0     H45534   2.953   8.126   4.242 -0.5474 -0.1239  0.2475
  330MOL0     H45535   2.961   8.090   4.075  1.2249  2.5750  0.6530
  330MOL0     H45536   3.351   8.224   4.196  0.2781 -1.5354  1.6210
  330MOL0     H45537   2.605   8.245   4.285 -3.3052  1.0397 -1.8975
  330MOL0     H45538   2.440   8.432   4.492 -3.4781 -0.1538  1.2869
  330MOL0     H45539   2.508   8.410   4.322 -0.5082 -3.4324 -2.1827
  330MOL0     H45540   2.336   8.395   4.356  0.5075  0.4829  0.1041
  331MOL0     O45541   8.096   3.014   1.185 -0.6580  0.1114  0.5466
  331MOL0     C45542   8.133   3.042   1.069  0.5860 -0.4092 -0.2012
  331MOL0     O45543   8.048   3.066   0.970  0.1347  0.3044 -0.0577
  331MOL0     C45544   7.926   2.997   0.971  0.5568 -0.0793  0.0662
  331MOL0     C45545   7.806   3.069   0.950 -0.0720 -0.5035  0.6305
  331MOL0     C45546   7.687   3.002   0.917  0.8602 -0.2213 -0.2216
  331MOL0     C45547   7.679   2.862   0.906 -0.1312  0.0015 -0.2467
  331MOL0     O45548   7.573   2.784   0.875 -0.0584  0.5996  0.0203
  331MOL0     C45549   7.450   2.848   0.850 -0.4176  0.0192  0.4620
  331MOL0     C45550   7.365   2.731   0.811 -0.7018 -0.0405 -0.7813
  331MOL0     C45551   7.330   2.638   0.932 -0.3414  0.3520  0.1620
  331MOL0     C45552   7.261   2.500   0.893  0.6523 -0.0773  0.0668
  331MOL0     C45553   7.119   2.528   0.850 -0.9898 -0.6677  0.2831
  331MOL0     C45554   7.016   2.544   0.964 -0.5637  0.4082  0.2630
  331MOL0     C45555   6.868   2.511   0.931  0.5041 -0.4818 -0.0243
  331MOL0     C45556   6.790   2.621   0.856 -0.2540  0.3214 -0.4718
  331MOL0     N45557   6.763   2.738   0.937  0.2525  0.7253 -0.7879
  331MOL0     C45558   6.734   2.736   1.075  0.6061 -0.2090  0.3309
  331MOL0     C45559   6.714   2.868   1.111 -0.3302 -0.3636 -0.0645
  331MOL0     C45560   6.671   2.904   1.253 -1.2895 -0.2571 -0.2482
  331MOL0     C45561   6.559   2.811   1.297  0.6617 -0.0818 -1.0115
  331MOL0     C45562   6.499   2.862   1.426  0.9155 -0.1332 -0.3149
  331MOL0     C45563   6.419   2.993   1.402 -0.5028 -0.2928 -1.0162
  331MOL0     O45564   6.331   2.987   1.293  0.3328 -0.2912  0.4618
  331MOL0     C45565   6.214   2.909   1.306 -0.1517 -0.2746  0.2956
  331MOL0     C45566   6.167   2.819   1.410 -0.4310 -0.1463  0.0763
  331MOL0     C45567   6.039   2.747   1.399  0.2416 -0.2994 -0.5680
  331MOL0     C45568   6.018   2.649   1.516  0.3093 -0.2024 -0.0525
  331MOL0     C45569   5.951   2.773   1.292 -0.1140  0.3893  0.8467
  331MOL0     C45570   5.817   2.716   1.279  0.0750  0.5801  0.0525
  331MOL0     O45571   5.773   2.660   1.159 -0.5306  0.1337  0.0876
  331MOL0     C45572   5.655   2.585   1.169 -0.1041 -0.5107  0.4611
  331MOL0     C45573   5.668   2.447   1.157 -0.0770  1.2198 -0.2147
  331MOL0     C45574   5.557   2.357   1.173  0.3556 -1.1455  0.1278
  331MOL0     C45575   5.430   2.416   1.187  0.1904 -0.1682  0.4533
  331MOL0     O45576   5.314   2.348   1.191 -0.1623 -0.2385  0.6275
  331MOL0     C45577   5.299   2.215   1.248 -0.0765  0.0409 -0.1189
  331MOL0     C45578   5.364   2.208   1.390  0.1053  0.0043  0.1265
  331MOL0     C45579   5.335   2.078   1.468 -0.2876 -0.7712  0.0331
  331MOL0     C45580   5.408   2.058   1.605  0.5631  0.2265 -0.6261
  331MOL0     C45581   5.346   1.952   1.702  0.0097 -0.1021  0.3022
  331MOL0     C45582   5.436   1.947   1.829  0.1109 -0.1985  0.0037
  331MOL0     C45583   5.366   1.853   1.929  0.3693  0.4933  0.5874
  331MOL0     C45584   5.447   1.839   2.058  0.8866  0.1474  1.1341
  331MOL0    Cl45585   5.370   1.701   2.149 -0.2363  0.4489  0.2963
  331MOL0     C45586   5.412   2.559   1.183 -0.1966 -0.7411  0.0349
  331MOL0     C45587   5.523   2.644   1.176 -0.4732 -0.6629  0.6829
  331MOL0     O45588   5.747   2.724   1.381  0.2125 -0.3229 -0.1113
  331MOL0     C45589   6.000   2.849   1.185 -0.5981  0.2962  0.2127
  331MOL0     C45590   6.121   2.920   1.200 -0.5525  0.4097 -0.4455
  331MOL0     N45591   6.735   2.947   1.002  0.3698 -1.0904 -0.4944
  331MOL0     N45592   6.758   2.868   0.898  0.4112 -0.6229  0.4899
  331MOL0     C45593   7.791   2.790   0.933  0.8382  0.4504  0.9823
  331MOL0     C45594   7.910   2.860   0.965 -0.0594  0.3247 -0.1263
  331MOL0     C45595   8.281   3.067   1.043  0.0208 -0.2412 -0.1657
  331MOL0     C45596   8.316   3.113   0.918 -0.0880  0.8218  0.7013
  331MOL0     C45597   8.448   3.139   0.888  0.4770  1.2933 -0.0990
  331MOL0     C45598   8.548   3.116   0.980 -0.2568 -1.0858  0.0600
  331MOL0     O45599   8.674   3.170   0.948 -0.0336  0.4724  0.4770
  331MOL0     C45600   8.790   3.102   1.003  0.0098  0.5508  0.0474
  331MOL0     C45601   8.806   3.173   1.146  0.6341  0.1482  0.0702
  331MOL0     C45602   8.892   3.095   1.247  0.3457 -0.1161 -0.1415
  331MOL0     C45603   8.912   3.171   1.379 -0.0541  0.1349  0.6543
  331MOL0     C45604   8.790   3.213   1.438  0.1715  0.8039  0.0907
  331MOL0     C45605   8.711   3.269   1.514 -0.2509  0.4688  0.0495
  331MOL0     C45606   8.517   3.042   1.093 -0.6250  0.8142  0.3323
  331MOL0     C45607   8.381   3.014   1.127 -0.5577  0.5373  0.4833
  331MOL0     C45608   8.355   2.929   1.254  1.0729  0.5165  0.0890
  331MOL0     H45609   7.808   3.177   0.939  0.0984 -0.5096  0.5999
  331MOL0     H45610   7.596   3.060   0.905  0.6333 -0.0879  1.8075
  331MOL0     H45611   7.453   2.912   0.762 -0.5628 -0.6678 -0.0450
  331MOL0     H45612   7.404   2.895   0.938  2.2772  1.1058  1.3927
  331MOL0     H45613   7.276   2.779   0.770  0.5289  2.9698 -0.1600
  331MOL0     H45614   7.423   2.684   0.731  2.1900 -1.4178  1.9388
  331MOL0     H45615   7.425   2.619   0.982 -0.5633 -1.9724 -0.1775
  331MOL0     H45616   7.268   2.695   1.002 -0.3337  1.5322 -0.7549
  331MOL0     H45617   7.326   2.453   0.818 -2.1987 -1.8459 -1.4962
  331MOL0     H45618   7.253   2.435   0.981 -3.1197 -3.0151 -2.1231
  331MOL0     H45619   7.090   2.434   0.803 -2.9916 -1.2940  2.5757
  331MOL0     H45620   7.109   2.608   0.776  1.3586 -0.6548 -0.1011
  331MOL0     H45621   7.048   2.482   1.047 -4.4637 -1.0727  0.9004
  331MOL0     H45622   7.035   2.640   1.013 -0.7682 -0.0715  1.3143
  331MOL0     H45623   6.814   2.493   1.024 -0.1658  1.6678  0.0487
  331MOL0     H45624   6.860   2.421   0.868 -3.0434  0.5171 -1.2254
  331MOL0     H45625   6.853   2.652   0.772  2.6341 -0.5170  1.2670
  331MOL0     H45626   6.696   2.575   0.822  0.7166 -2.6164  0.5473
  331MOL0     H45627   6.724   2.651   1.142  0.5561  1.7247  2.9140
  331MOL0     H45628   6.657   3.012   1.261  3.1859  0.4257  1.0414
  331MOL0     H45629   6.751   2.889   1.325 -1.3450 -0.9487 -0.3234
  331MOL0     H45630   6.486   2.790   1.219 -1.2478  0.6991  0.4916
  331MOL0     H45631   6.611   2.721   1.330 -0.7214 -0.1160  1.2545
  331MOL0     H45632   6.437   2.783   1.469 -0.6371  1.1782 -0.0532
  331MOL0     H45633   6.580   2.881   1.498  1.0988  2.1161 -1.0265
  331MOL0     H45634   6.360   3.004   1.493 -0.7011 -2.6199 -0.8224
  331MOL0     H45635   6.492   3.074   1.397  0.1421 -0.6408  1.5334
  331MOL0     H45636   6.238   2.806   1.491 -0.1725 -2.4487 -0.4487
  331MOL0     H45637   5.970   2.699   1.601  3.6043  2.5366  0.4343
  331MOL0     H45638   6.113   2.611   1.555 -0.5582  1.5064  4.4153
  331MOL0     H45639   5.959   2.564   1.483 -0.9422  1.0608 -1.1775
  331MOL0     H45640   5.763   2.395   1.155  0.2152  1.6240 -4.0104
  331MOL0     H45641   5.562   2.249   1.161 -0.5651 -1.4286  1.9121
  331MOL0     H45642   5.196   2.185   1.265  0.0456  0.7545  2.2091
  331MOL0     H45643   5.354   2.146   1.183  3.0408 -0.1987  2.4969
  331MOL0     H45644   5.472   2.229   1.389 -0.2724  2.2852  0.4206
  331MOL0     H45645   5.331   2.290   1.455  0.8379 -0.4807  1.1546
  331MOL0     H45646   5.342   1.981   1.418 -3.0515 -0.7468 -0.5679
  331MOL0     H45647   5.227   2.077   1.488 -0.7313 -3.3230 -1.9141
  331MOL0     H45648   5.406   2.153   1.659 -0.2231  0.0530 -0.3268
  331MOL0     H45649   5.509   2.024   1.582 -0.8919 -4.0935 -1.6039
  331MOL0     H45650   5.238   1.960   1.717 -0.0054 -1.6327  1.2997
  331MOL0     H45651   5.344   1.851   1.659  0.5254  1.5160 -4.0201
  331MOL0     H45652   5.434   2.046   1.876 -1.2832 -0.2488  0.1107
  331MOL0     H45653   5.542   1.922   1.821 -0.3278 -1.7164 -1.4572
  331MOL0     H45654   5.366   1.751   1.889  1.6649  0.7720 -0.1752
  331MOL0     H45655   5.259   1.874   1.941 -0.3206 -0.0798 -3.4017
  331MOL0     H45656   5.450   1.926   2.125  1.7772  1.1450 -0.1368
  331MOL0     H45657   5.550   1.814   2.033  2.2916  4.5031  1.6921
  331MOL0     H45658   5.312   2.602   1.179  0.1474  0.0762 -0.0337
  331MOL0     H45659   5.518   2.753   1.176  0.6077 -0.5123  3.8911
  331MOL0     H45660   5.931   2.865   1.103 -0.9609  0.6199  0.5742
  331MOL0     H45661   6.158   2.990   1.126  1.5537 -0.1885 -0.0349
  331MOL0     H45662   7.791   2.681   0.927 -1.8939  0.4416 -3.9911
  331MOL0     H45663   7.993   2.796   0.995 -1.6251 -0.7623  2.2134
  331MOL0     H45664   8.246   3.145   0.841  1.1936 -0.8371 -1.2402
  331MOL0     H45665   8.463   3.154   0.781 -1.4781 -0.5685 -0.6956
  331MOL0     H45666   8.779   2.993   1.012  0.2501  0.5891  0.9619
  331MOL0     H45667   8.887   3.116   0.954  0.2346  0.3986  0.4439
  331MOL0     H45668   8.708   3.192   1.191  0.5084 -0.5965  0.1211
  331MOL0     H45669   8.847   3.271   1.119 -0.2611  1.1915  2.2644
  331MOL0     H45670   8.849   2.995   1.261 -0.7395  0.2969 -0.4180
  331MOL0     H45671   8.995   3.079   1.213  1.3385  0.5338  2.3340
  331MOL0     H45672   8.979   3.254   1.354  1.0210 -0.5787  1.0958
  331MOL0     H45673   8.965   3.103   1.446  0.0010  0.4701  0.9525
  331MOL0     H45674   8.641   3.310   1.584  0.9240  0.4592  1.2472
  331MOL0     H45675   8.589   2.994   1.159 -0.4386  0.2565 -0.2604
  331MOL0     H45676   8.270   2.975   1.306 -1.5107 -1.6654 -1.8769
  331MOL0     H45677   8.328   2.830   1.217  0.1194  1.9764 -3.4913
  331MOL0     H45678   8.444   2.933   1.318  1.6956  3.3220 -0.8034
  332MOL0     O45679   4.002   6.977   6.797 -0.3453 -0.3444 -0.4143
  332MOL0     C45680   3.961   6.914   6.698 -0.0017  0.9562 -0.4069
  332MOL0     O45681   4.027   6.872   6.586 -0.3929 -0.0593  0.0762
  332MOL0     C45682   4.148   6.931   6.581  0.3566 -0.3786  0.8465
  332MOL0     C45683   4.152   7.056   6.519  0.2495  0.2430 -0.9072
  332MOL0     C45684   4.273   7.135   6.536  0.0711  0.0598  0.0074
  332MOL0     C45685   4.389   7.079   6.600  0.2399 -0.4554 -0.1303
  332MOL0     O45686   4.497   7.160   6.604  0.3402 -0.0465  1.1047
  332MOL0     C45687   4.625   7.097   6.627 -0.1417  0.8609  0.2017
  332MOL0     C45688   4.749   7.188   6.592 -0.3917 -0.0410 -0.4499
  332MOL0     C45689   4.737   7.254   6.455  0.8068 -0.2162 -0.9641
  332MOL0     C45690   4.723   7.150   6.352  0.0391  0.7540  0.4264
  332MOL0     C45691   4.699   7.210   6.218  0.5501  0.2017 -0.3308
  332MOL0     C45692   4.678   7.118   6.095  0.1440  0.9058  0.8343
  332MOL0     C45693   4.576   7.006   6.115 -0.4327 -0.2859  0.9655
  332MOL0     C45694   4.437   7.049   6.153 -0.5688 -0.2388 -0.8770
  332MOL0     N45695   4.355   6.931   6.174  0.1413  0.3206  0.8419
  332MOL0     C45696   4.333   6.852   6.281 -0.0822 -0.1046 -1.2294
  332MOL0     C45697   4.276   6.739   6.247  0.5428 -0.8796 -0.4626
  332MOL0     C45698   4.213   6.638   6.329  0.3135  0.8048 -0.1544
  332MOL0     C45699   4.285   6.505   6.305  0.2733  0.2374 -0.1940
  332MOL0     C45700   4.426   6.514   6.361 -0.7514  0.3273  0.0436
  332MOL0     C45701   4.495   6.385   6.330 -0.3610 -0.6802 -0.1537
  332MOL0     O45702   4.624   6.400   6.390  0.4193 -0.1993  0.6264
  332MOL0     C45703   4.727   6.442   6.321 -0.2975 -0.3571  0.1630
  332MOL0     C45704   4.718   6.516   6.203 -0.4087  0.0907  0.4224
  332MOL0     C45705   4.827   6.576   6.144 -0.3159 -0.5001 -1.2286
  332MOL0     C45706   4.808   6.694   6.049  0.7178 -0.1178  0.2817
  332MOL0     C45707   4.957   6.529   6.190 -0.2973  0.0888 -0.3191
  332MOL0     C45708   5.081   6.581   6.137  0.8474  0.0127 -0.5093
  332MOL0     O45709   5.082   6.718   6.106  0.9742  0.4730 -0.2238
  332MOL0     C45710   5.185   6.764   6.032 -1.1440  0.7088  0.5806
  332MOL0     C45711   5.304   6.815   6.086  0.5072 -0.8689 -0.8305
  332MOL0     C45712   5.403   6.880   6.010  0.2356  1.0278  0.9187
  332MOL0     C45713   5.389   6.884   5.871 -0.6628 -0.9489  0.1572
  332MOL0     O45714   5.480   6.932   5.786  0.8524 -0.2967  0.4093
  332MOL0     C45715   5.547   7.049   5.828 -0.8175  0.4276 -0.0550
  332MOL0     C45716   5.654   7.088   5.722  0.2011  0.2294  0.2833
  332MOL0     C45717   5.598   7.149   5.599  0.4862 -0.0748 -0.0923
  332MOL0     C45718   5.601   7.032   5.491 -0.0340 -1.4500 -0.0697
  332MOL0     C45719   5.546   7.077   5.360 -0.5956 -0.1836  0.6346
  332MOL0     C45720   5.547   6.977   5.243  1.2679  0.0263 -1.0011
  332MOL0     C45721   5.685   6.933   5.217 -0.1361  0.9810  0.0876
  332MOL0     C45722   5.704   6.873   5.079  0.6100 -0.2783 -0.3936
  332MOL0    Cl45723   5.572   6.752   5.039 -0.1293 -0.2175  0.0414
  332MOL0     C45724   5.264   6.842   5.817  0.7024  0.2036 -0.5777
  332MOL0     C45725   5.161   6.781   5.891  0.8227 -0.4036 -0.2331
  332MOL0     O45726   5.176   6.507   6.132 -0.0745 -0.0124 -0.3517
  332MOL0     C45727   4.963   6.443   6.296  0.3138  0.2541 -0.1844
  332MOL0     C45728   4.848   6.406   6.364  0.4118 -0.7194 -0.3075
  332MOL0     N45729   4.254   6.751   6.104 -0.9325  0.1172 -0.6886
  332MOL0     N45730   4.298   6.869   6.066 -0.9046  0.9169 -0.4067
  332MOL0     C45731   4.386   6.945   6.643  0.2342  0.1583 -0.2761
  332MOL0     C45732   4.262   6.873   6.638  0.5093  0.1555 -0.9297
  332MOL0     C45733   3.818   6.875   6.690 -0.6873  0.8466  1.3063
  332MOL0     C45734   3.784   6.739   6.677 -0.3379  0.0839 -0.1409
  332MOL0     C45735   3.654   6.697   6.673  0.4379  0.4192  0.1374
  332MOL0     C45736   3.562   6.796   6.703 -0.4358  0.2988 -0.5668
  332MOL0     O45737   3.431   6.772   6.735 -0.6504  0.4176 -0.0571
  332MOL0     C45738   3.371   6.679   6.647  0.1322 -0.2554  0.2406
  332MOL0     C45739   3.356   6.536   6.703  0.5269 -1.1834 -0.0579
  332MOL0     C45740   3.280   6.541   6.838 -0.5168  0.6988 -0.0911
  332MOL0     C45741   3.298   6.412   6.917  0.3435  0.1935 -1.2069
  332MOL0     C45742   3.249   6.415   7.060 -0.6385 -1.1656 -0.5218
  332MOL0     C45743   3.196   6.403   7.176 -0.5926 -1.0524 -0.7532
  332MOL0     C45744   3.597   6.928   6.724 -0.1283 -0.4142  0.0838
  332MOL0     C45745   3.730   6.980   6.705  0.5980 -0.3326 -0.8178
  332MOL0     C45746   3.758   7.129   6.716  0.0160  0.2302 -0.6014
  332MOL0     H45747   4.056   7.091   6.480 -0.0677  2.0641  1.2848
  332MOL0     H45748   4.280   7.236   6.496  0.3338  0.7945  1.8363
  332MOL0     H45749   4.628   7.006   6.566 -0.6774  0.4951  0.7091
  332MOL0     H45750   4.624   7.071   6.734 -1.2813  1.8433  0.4561
  332MOL0     H45751   4.757   7.268   6.666 -0.3950  0.2228 -0.7303
  332MOL0     H45752   4.844   7.135   6.598 -0.2078  0.3970  0.7094
  332MOL0     H45753   4.651   7.322   6.462  3.0070  2.5781  1.2341
  332MOL0     H45754   4.826   7.309   6.426  1.1648 -1.6202 -2.7103
  332MOL0     H45755   4.809   7.083   6.359 -0.6664 -0.6303 -2.6537
  332MOL0     H45756   4.642   7.077   6.362  0.7733 -0.6321 -2.6969
  332MOL0     H45757   4.773   7.289   6.200  1.6364 -1.0799 -1.7268
  332MOL0     H45758   4.603   7.262   6.227  0.8503  0.9425 -1.1677
  332MOL0     H45759   4.645   7.178   6.010 -0.2450 -0.5416 -0.0528
  332MOL0     H45760   4.774   7.077   6.061 -0.1507  1.1512 -0.3211
  332MOL0     H45761   4.610   6.952   6.204  0.9424  2.3339  2.1314
  332MOL0     H45762   4.576   6.938   6.029  1.8468 -0.0354  0.7194
  332MOL0     H45763   4.437   7.116   6.240  1.1875 -0.9100 -0.3181
  332MOL0     H45764   4.392   7.107   6.073  1.5201  1.1578 -1.1082
  332MOL0     H45765   4.349   6.886   6.383 -0.7422 -2.9753 -0.0740
  332MOL0     H45766   4.107   6.622   6.305  0.6737 -1.6060 -0.3087
  332MOL0     H45767   4.207   6.674   6.432  1.0171  0.2692  0.0776
  332MOL0     H45768   4.226   6.427   6.354  1.2680  0.8330  2.1073
  332MOL0     H45769   4.291   6.489   6.197 -3.3853  0.9847 -0.6371
  332MOL0     H45770   4.478   6.590   6.304 -0.0285 -0.0394  0.2051
  332MOL0     H45771   4.428   6.529   6.470 -1.4586  1.0575 -0.0348
  332MOL0     H45772   4.449   6.304   6.388  0.5472 -1.5460 -0.6074
  332MOL0     H45773   4.498   6.341   6.230  1.7982 -2.2782  0.5340
  332MOL0     H45774   4.620   6.547   6.168  0.6919  2.8644 -0.5136
  332MOL0     H45775   4.854   6.672   5.952  1.3773 -0.9011  0.7560
  332MOL0     H45776   4.849   6.785   6.094  0.7363 -1.4741  3.2381
  332MOL0     H45777   4.702   6.707   6.026  0.2695 -3.6921 -0.2533
  332MOL0     H45778   5.322   6.815   6.193  0.7247 -2.0730 -0.8572
  332MOL0     H45779   5.487   6.929   6.059  1.6920  1.0838 -1.4178
  332MOL0     H45780   5.486   7.140   5.829 -1.0096  0.3385 -1.3317
  332MOL0     H45781   5.591   7.030   5.926 -1.8293  0.6854  0.4601
  332MOL0     H45782   5.711   7.174   5.759 -1.3195  1.4646 -0.1473
  332MOL0     H45783   5.728   7.012   5.693 -0.9418 -0.4306 -0.9666
  332MOL0     H45784   5.645   7.243   5.569  1.1253 -1.1985 -2.9555
  332MOL0     H45785   5.495   7.177   5.620  0.6892 -0.1433  1.0735
  332MOL0     H45786   5.544   6.946   5.529  0.6224  0.0875  5.1938
  332MOL0     H45787   5.704   7.000   5.472  1.4534  3.4005 -1.6541
  332MOL0     H45788   5.444   7.118   5.367 -0.4083  1.2179 -2.8775
  332MOL0     H45789   5.603   7.165   5.330 -0.2732 -1.4857 -3.0043
  332MOL0     H45790   5.514   7.033   5.155 -1.8491  0.3174  0.2086
  332MOL0     H45791   5.469   6.901   5.248 -0.0548  1.4092  2.6376
  332MOL0     H45792   5.714   6.856   5.289  1.1976  0.8428 -0.5612
  332MOL0     H45793   5.750   7.019   5.236  1.6193 -0.3325  0.2294
  332MOL0     H45794   5.797   6.816   5.083  0.2844 -0.8652 -0.9530
  332MOL0     H45795   5.718   6.951   5.003  0.8131  0.4923  0.4197
  332MOL0     H45796   5.243   6.865   5.713 -3.5641  3.7914  0.7103
  332MOL0     H45797   5.068   6.755   5.842 -0.1158  3.5159 -0.8879
  332MOL0     H45798   5.057   6.412   6.340 -0.5076  0.9784  2.2140
  332MOL0     H45799   4.839   6.347   6.454 -1.6298 -0.1912 -0.1282
  332MOL0     H45800   4.478   6.901   6.680  0.6245 -0.0283 -1.4375
  332MOL0     H45801   4.244   6.772   6.671  0.2908  0.2011 -0.9051
  332MOL0     H45802   3.852   6.661   6.644 -1.4668 -1.8191  1.7409
  332MOL0     H45803   3.618   6.598   6.650  0.8642  0.1119  0.7625
  332MOL0     H45804   3.270   6.716   6.630 -0.0635 -0.9639 -0.1713
  332MOL0     H45805   3.414   6.658   6.548 -2.8701  0.5113 -1.3415
  332MOL0     H45806   3.457   6.495   6.716 -0.1606 -3.0756 -0.3450
  332MOL0     H45807   3.297   6.465   6.645 -0.8070  1.2664 -1.8613
  332MOL0     H45808   3.316   6.625   6.899  1.6730  1.8395 -2.6985
  332MOL0     H45809   3.173   6.556   6.827 -1.2365 -1.0135  3.3227
  332MOL0     H45810   3.405   6.389   6.925  0.2066 -0.6140 -1.6413
  332MOL0     H45811   3.252   6.326   6.869  0.5795 -0.6082 -0.0596
  332MOL0     H45812   3.156   6.392   7.274 -1.8714  1.1820 -0.9462
  332MOL0     H45813   3.522   7.004   6.746  0.9462  0.2222  1.7889
  332MOL0     H45814   3.816   7.159   6.628  0.1531 -0.0117 -0.5945
  332MOL0     H45815   3.666   7.187   6.712 -0.6077 -0.5288  1.5037
  332MOL0     H45816   3.818   7.144   6.806  0.2094 -1.9257 -0.3258
  333MOL0     O45817   3.903   9.709   6.775 -0.0472  0.0713  0.0725
  333MOL0     C45818   3.864   9.752   6.667 -0.4718 -0.0064 -0.3037
  333MOL0     O45819   3.887   9.878   6.622 -0.5528 -0.0037  0.8335
  333MOL0     C45820   4.008   9.935   6.660 -0.2065 -0.1499 -0.0750
  333MOL0     C45821   4.014  10.066   6.694  0.9336 -0.9406 -0.1432
  333MOL0     C45822   4.133  10.134   6.741  0.0145  0.5721  0.0344
  333MOL0     C45823   4.250  10.057   6.747 -0.5929 -0.0133  0.8357
  333MOL0     O45824   4.350  10.127   6.811 -0.5940 -0.1243  0.7319
  333MOL0     C45825   4.487  10.088   6.807 -0.4568  0.3766  0.4346
  333MOL0     C45826   4.590  10.182   6.876 -0.3461 -0.1009  0.5404
  333MOL0     C45827   4.569  10.192   7.030  0.2703  0.2723  0.0091
  333MOL0     C45828   4.690  10.253   7.087 -0.3724 -0.2031 -0.1217
  333MOL0     C45829   4.686  10.230   7.244  0.7037 -0.0505  0.0035
  333MOL0     C45830   4.811  10.286   7.322  0.4177  0.8011  0.5696
  333MOL0     C45831   4.795  10.296   7.475  0.2803 -0.6452  0.7088
  333MOL0     C45832   4.922  10.341   7.534  0.0651 -0.3105 -0.1613
  333MOL0     N45833   5.050  10.271   7.496 -0.5649  0.2146 -0.4327
  333MOL0     C45834   5.139  10.291   7.391  0.3020 -1.0850 -0.2414
  333MOL0     C45835   5.248  10.206   7.414  0.2934 -0.2152  0.0234
  333MOL0     C45836   5.374  10.228   7.328  0.0984 -0.3445 -0.1933
  333MOL0     C45837   5.502  10.223   7.421 -0.6143 -0.6020 -0.1710
  333MOL0     C45838   5.497  10.354   7.508  0.1816  0.6818  0.1428
  333MOL0     C45839   5.613  10.390   7.594 -0.1047  0.4407  0.0603
  333MOL0     O45840   5.705  10.479   7.534 -0.5375  0.4788  0.5066
  333MOL0     C45841   5.811  10.509   7.613 -0.3837 -0.2734 -0.0928
  333MOL0     C45842   5.919  10.419   7.637  0.6832  0.2165 -0.5431
  333MOL0     C45843   6.018  10.452   7.725 -1.6631 -0.0025 -0.1646
  333MOL0     C45844   6.123  10.347   7.738  0.2231 -0.0502 -0.1451
  333MOL0     C45845   6.010  10.573   7.798  0.6357 -1.1610 -0.5428
  333MOL0     C45846   6.102  10.617   7.908 -0.2734 -0.2060 -0.1151
  333MOL0     O45847   6.091  10.742   7.961 -0.5699  0.7734  0.7296
  333MOL0     C45848   6.163  10.771   8.083 -0.0128  0.5770 -0.0497
  333MOL0     C45849   6.303  10.801   8.079  0.4174 -0.4081 -0.0720
  333MOL0     C45850   6.356  10.818   8.208  0.2874  0.2117 -0.0085
  333MOL0     C45851   6.286  10.809   8.333  0.5044 -1.0786 -0.1179
  333MOL0     O45852   6.363  10.805   8.440 -0.0355  0.3798 -0.1483
  333MOL0     C45853   6.360  10.933   8.502  0.4559  0.4923  0.1227
  333MOL0     C45854   6.466  10.948   8.603 -1.0376 -0.0242  1.1788
  333MOL0     C45855   6.464  11.097   8.658 -0.2825 -0.6399 -0.7039
  333MOL0     C45856   6.578  11.129   8.759  0.6620 -0.3300 -1.1146
  333MOL0     C45857   6.711  11.162   8.690  0.2581 -0.2883 -1.0420
  333MOL0     C45858   6.825  11.205   8.788 -0.0347 -0.2029  0.0698
  333MOL0     C45859   6.793  11.320   8.886 -0.2046  0.0311  0.9072
  333MOL0     C45860   6.926  11.365   8.949 -0.2833  0.1448  0.0643
  333MOL0    Cl45861   7.055  11.404   8.832 -0.0524 -0.0142  0.3917
  333MOL0     C45862   6.148  10.771   8.336 -0.1878  0.0697  1.0839
  333MOL0     C45863   6.095  10.750   8.208 -0.4271  0.1079  0.0798
  333MOL0     O45864   6.180  10.529   7.941 -0.7264 -0.0693  0.6848
  333MOL0     C45865   5.901  10.663   7.769 -0.3016  0.3630  0.2923
  333MOL0     C45866   5.808  10.639   7.672 -0.3398  0.6858  0.7457
  333MOL0     N45867   5.217  10.131   7.525  0.2033 -0.4581 -0.1194
  333MOL0     N45868   5.101  10.171   7.572  0.4998  0.1080 -0.4253
  333MOL0     C45869   4.254   9.918   6.721 -0.2512  0.8423  0.1347
  333MOL0     C45870   4.136   9.857   6.671 -0.6869 -0.3919  0.6939
  333MOL0     C45871   3.799   9.654   6.576  0.5119 -0.1673 -0.2830
  333MOL0     C45872   3.820   9.675   6.441 -0.4614 -0.3369 -0.2992
  333MOL0     C45873   3.758   9.596   6.355  0.8146  0.5366  0.1028
  333MOL0     C45874   3.668   9.485   6.383 -0.1352  0.0506 -0.2452
  333MOL0     O45875   3.622   9.391   6.296 -0.1892 -0.7741 -0.6172
  333MOL0     C45876   3.514   9.304   6.326  0.5418 -0.0269  0.1819
  333MOL0     C45877   3.376   9.372   6.350  0.2648 -0.3568 -0.7754
  333MOL0     C45878   3.346   9.446   6.226  0.4495  0.3151  0.7494
  333MOL0     C45879   3.194   9.488   6.214 -0.1327 -0.8865 -0.9653
  333MOL0     C45880   3.103   9.380   6.183  0.1160  0.7294  0.2242
  333MOL0     C45881   3.042   9.281   6.148  0.6910  1.1002 -1.1525
  333MOL0     C45882   3.655   9.468   6.527 -0.2401  0.7994  0.7007
  333MOL0     C45883   3.708   9.555   6.621 -0.0533  0.5928 -1.2138
  333MOL0     C45884   3.676   9.533   6.767 -0.3660  0.3887 -0.3834
  333MOL0     H45885   3.922  10.123   6.686  0.5709 -0.9846  2.7471
  333MOL0     H45886   4.136  10.241   6.762 -0.6786  0.5506  0.2505
  333MOL0     H45887   4.525  10.070   6.706 -0.0600 -0.3540  0.7107
  333MOL0     H45888   4.493   9.998   6.868 -0.0819  1.3641  1.9052
  333MOL0     H45889   4.677  10.118   6.856  0.1000  1.2404 -2.3740
  333MOL0     H45890   4.579  10.276   6.822  0.1036  0.3435  1.2004
  333MOL0     H45891   4.479  10.251   7.049  1.3142  1.5127  1.3882
  333MOL0     H45892   4.560  10.089   7.068  0.2252 -0.6120 -2.2668
  333MOL0     H45893   4.784  10.208   7.053  1.1572  0.2995  3.0887
  333MOL0     H45894   4.694  10.360   7.068  0.1707 -0.0276  0.9438
  333MOL0     H45895   4.671  10.126   7.274 -1.7223  0.1817 -0.2003
  333MOL0     H45896   4.599  10.281   7.286 -0.7126 -3.2011  1.2583
  333MOL0     H45897   4.887  10.215   7.290  0.1668  0.5129  0.6122
  333MOL0     H45898   4.841  10.376   7.267  2.2407 -1.1334 -1.8243
  333MOL0     H45899   4.788  10.193   7.510  0.9070 -1.4208 -1.2989
  333MOL0     H45900   4.712  10.360   7.505  0.2955 -1.1391  1.8432
  333MOL0     H45901   4.925  10.449   7.516 -2.3299  0.1931  1.8755
  333MOL0     H45902   4.916  10.327   7.642  1.2849 -0.4665 -0.1078
  333MOL0     H45903   5.133  10.371   7.318  2.9712 -2.4176 -2.0757
  333MOL0     H45904   5.372  10.323   7.275  1.6132  0.5190  1.2464
  333MOL0     H45905   5.391  10.142   7.261  4.0833 -0.9071  1.3111
  333MOL0     H45906   5.504  10.137   7.488  0.8967 -1.3024 -1.0789
  333MOL0     H45907   5.597  10.214   7.369 -0.2904  1.0964  0.0429
  333MOL0     H45908   5.475  10.438   7.441  0.3722  1.4410  1.0036
  333MOL0     H45909   5.415  10.344   7.579  2.8473  2.6986  3.8560
  333MOL0     H45910   5.580  10.432   7.689 -0.8399 -1.8732  0.9083
  333MOL0     H45911   5.671  10.305   7.631 -0.0205 -0.2367 -1.5402
  333MOL0     H45912   5.916  10.319   7.594 -0.1950  0.4693 -1.0908
  333MOL0     H45913   6.124  10.273   7.657  0.2201  0.3647 -0.5333
  333MOL0     H45914   6.123  10.298   7.836  0.2284  1.4821  0.6409
  333MOL0     H45915   6.214  10.402   7.713  0.3356 -0.4897 -0.7456
  333MOL0     H45916   6.369  10.794   7.993  0.0907 -1.7614 -0.2440
  333MOL0     H45917   6.464  10.828   8.216  0.1075  1.1445  2.1492
  333MOL0     H45918   6.384  11.015   8.434 -3.1799  4.7973  3.4086
  333MOL0     H45919   6.265  10.974   8.536 -0.2221  0.1604 -1.3023
  333MOL0     H45920   6.460  10.882   8.690 -0.4688  0.0455  1.2762
  333MOL0     H45921   6.555  10.923   8.544 -1.2493 -0.0043  0.8502
  333MOL0     H45922   6.373  11.102   8.719  0.6414 -1.3496  0.7690
  333MOL0     H45923   6.477  11.175   8.582 -1.3018  0.0005 -0.2561
  333MOL0     H45924   6.584  11.047   8.831 -0.4487  2.2943  2.2529
  333MOL0     H45925   6.563  11.218   8.821  0.5471 -1.5281  0.6695
  333MOL0     H45926   6.751  11.075   8.637 -1.0878 -1.3084 -0.4578
  333MOL0     H45927   6.686  11.244   8.622 -3.9148 -0.5347 -0.0814
  333MOL0     H45928   6.906  11.241   8.724  0.7806 -0.9168  0.6659
  333MOL0     H45929   6.849  11.110   8.836 -0.3688 -1.8941 -2.9074
  333MOL0     H45930   6.723  11.276   8.958 -1.5933 -2.4408 -1.7642
  333MOL0     H45931   6.743  11.397   8.827  1.2428 -0.2466 -0.7575
  333MOL0     H45932   6.964  11.284   9.011 -4.3912 -2.1034 -0.0106
  333MOL0     H45933   6.911  11.459   9.004  0.8167 -0.6547  1.8072
  333MOL0     H45934   6.084  10.734   8.415 -1.4943 -3.2822 -1.2919
  333MOL0     H45935   5.999  10.700   8.203  0.1139 -1.2459  1.9287
  333MOL0     H45936   5.896  10.755   7.827 -1.4379  1.1445 -0.9952
  333MOL0     H45937   5.740  10.724   7.668 -0.2311  0.8428  1.8448
  333MOL0     H45938   4.337   9.853   6.747 -1.2016 -0.6577 -0.4780
  333MOL0     H45939   4.132   9.752   6.644 -1.9303  0.1759 -1.6180
  333MOL0     H45940   3.882   9.757   6.404 -0.6698 -0.6748 -1.4256
  333MOL0     H45941   3.778   9.607   6.249  0.6069 -0.0644  0.0003
  333MOL0     H45942   3.507   9.238   6.239  0.7759  0.7948 -0.4805
  333MOL0     H45943   3.539   9.249   6.417 -0.6000  1.4166  1.4246
  333MOL0     H45944   3.393   9.439   6.435  2.1043 -1.3107 -0.3397
  333MOL0     H45945   3.297   9.303   6.382  1.0956 -0.5888  0.9046
  333MOL0     H45946   3.415   9.530   6.217  1.1161 -0.3489 -0.7186
  333MOL0     H45947   3.365   9.388   6.135 -0.9403  0.0814  0.5902
  333MOL0     H45948   3.194   9.570   6.141  1.3783 -0.0709 -0.1007
  333MOL0     H45949   3.157   9.527   6.309 -3.7164 -0.4486 -2.3684
  333MOL0     H45950   2.999   9.185   6.127  2.1299  0.1826 -0.0343
  333MOL0     H45951   3.589   9.390   6.565 -0.1701  0.4894  0.1984
  333MOL0     H45952   3.687   9.618   6.835  1.1384 -2.0903  2.7720
  333MOL0     H45953   3.576   9.489   6.769 -1.0710  1.7479  4.2540
  333MOL0     H45954   3.739   9.458   6.817 -1.9994 -1.2889 -0.7463
  334MOL0     O45955   1.942   9.089  11.120  0.3806  0.0657  0.1426
  334MOL0     C45956   2.008   9.088  11.012  0.3403  1.0257 -0.9445
  334MOL0     O45957   2.044   9.198  10.934  0.2005 -0.7059 -0.4439
  334MOL0     C45958   1.973   9.318  10.959 -0.2171  0.3430 -0.7396
  334MOL0     C45959   2.043   9.434  11.005  0.6311  0.8152 -0.5186
  334MOL0     C45960   1.969   9.549  11.026  0.1214 -0.3868 -1.0643
  334MOL0     C45961   1.834   9.560  10.992  0.4570 -0.1433  0.0433
  334MOL0     O45962   1.773   9.674  11.011 -0.2075 -0.1378 -0.1270
  334MOL0     C45963   1.806   9.774  10.921 -0.5172  0.0180 -0.2199
  334MOL0     C45964   1.688   9.785  10.821 -0.2158 -0.2768 -0.7800
  334MOL0     C45965   1.559   9.830  10.879  0.5887 -0.6414  0.0975
  334MOL0     C45966   1.560   9.971  10.947 -0.3389  0.3306 -0.9232
  334MOL0     C45967   1.552  10.099  10.855 -0.1477 -0.0369 -0.0583
  334MOL0     C45968   1.692  10.162  10.832  0.5051 -0.1247  0.1734
  334MOL0     C45969   1.756  10.205  10.967 -0.1802  0.4057 -0.5945
  334MOL0     C45970   1.874  10.311  10.951  0.1443 -0.7833 -0.8079
  334MOL0     N45971   1.977  10.266  10.862 -0.9088 -0.2630  1.2919
  334MOL0     C45972   1.993  10.305  10.726 -0.0187  0.4940 -0.2328
  334MOL0     C45973   2.092  10.227  10.681 -0.4676  0.1328 -0.0046
  334MOL0     C45974   2.140  10.224  10.542 -0.1599 -0.7430 -0.3163
  334MOL0     C45975   2.211  10.356  10.504 -0.0876 -0.4702  0.7631
  334MOL0     C45976   2.283  10.347  10.372  0.1639  0.0962  0.1401
  334MOL0     C45977   2.310  10.485  10.319 -0.0139  0.3524 -0.2488
  334MOL0     O45978   2.209  10.533  10.235  0.1180 -0.2668  0.3139
  334MOL0     C45979   2.215  10.667  10.197  0.1944 -0.6208 -0.7705
  334MOL0     C45980   2.327  10.754  10.205 -0.2132  1.0154  0.0830
  334MOL0     C45981   2.318  10.892  10.166  1.2466  0.0830 -0.4443
  334MOL0     C45982   2.438  10.987  10.180 -0.1177 -0.6116  0.5256
  334MOL0     C45983   2.202  10.943  10.106  0.3459  0.2328 -0.0323
  334MOL0     C45984   2.181  11.076  10.057 -0.6953 -0.4074  0.6877
  334MOL0     O45985   2.120  11.085   9.936 -0.4139 -0.0168  0.1027
  334MOL0     C45986   2.066  11.201   9.895  0.2038 -0.0613 -0.0368
  334MOL0     C45987   2.083  11.231   9.755  0.2363 -0.1818 -1.0010
  334MOL0     C45988   2.017  11.342   9.709 -0.2745  0.2759 -1.3051
  334MOL0     C45989   1.927  11.420   9.795 -0.3372  0.1370  0.4199
  334MOL0     O45990   1.838  11.525   9.757 -1.0709 -0.0453  0.0007
  334MOL0     C45991   1.831  11.565   9.616  0.4815 -0.2451  0.1180
  334MOL0     C45992   1.723  11.673   9.604  0.7685  0.3276 -0.7383
  334MOL0     C45993   1.700  11.715   9.454 -0.4958 -1.0427  0.7101
  334MOL0     C45994   1.820  11.799   9.403  0.2538  0.3437  0.5988
  334MOL0     C45995   1.839  11.934   9.472  1.2241  0.2420 -0.1613
  334MOL0     C45996   1.945  12.021   9.413  0.9426  0.6693  0.9379
  334MOL0     C45997   1.948  12.163   9.468 -0.2029  0.4087 -0.5092
  334MOL0     C45998   2.022  12.276   9.390  0.1854 -0.5410 -0.3676
  334MOL0    Cl45999   1.943  12.304   9.231 -0.0777  0.0929 -0.2621
  334MOL0     C46000   1.902  11.377   9.925  0.7857 -0.0589  0.0390
  334MOL0     C46001   1.978  11.269   9.983 -0.8744 -0.7513 -0.8591
  334MOL0     O46002   2.219  11.171  10.126 -0.2358  0.0085 -0.5388
  334MOL0     C46003   2.090  10.861  10.108  0.0463  0.0467  0.4919
  334MOL0     C46004   2.099  10.729  10.145 -0.3796  0.8382 -0.2856
  334MOL0     N46005   2.142  10.151  10.777 -0.3766  0.4308 -0.6062
  334MOL0     N46006   2.066  10.163  10.877 -0.0635 -0.0035 -0.1175
  334MOL0     C46007   1.764   9.442  10.954  0.1346 -0.2669 -0.0943
  334MOL0     C46008   1.837   9.325  10.929 -0.1174  0.5837  0.1473
  334MOL0     C46009   2.039   8.961  10.944 -0.1523 -0.0182  0.8005
  334MOL0     C46010   2.105   8.970  10.811  0.0817  0.2195 -0.0926
  334MOL0     C46011   2.099   8.859  10.729 -0.0745  0.0440  0.2016
  334MOL0     C46012   2.048   8.737  10.769  0.1684  0.8866  0.0961
  334MOL0     O46013   2.057   8.636  10.672  0.3473  0.1069  0.0593
  334MOL0     C46014   1.977   8.515  10.684  0.5683 -0.0990  0.1504
  334MOL0     C46015   1.827   8.535  10.686  0.1239  0.3991  0.0373
  334MOL0     C46016   1.776   8.592  10.555  0.4239  0.7646 -0.7423
  334MOL0     C46017   1.757   8.499  10.435  0.4971  0.9701 -0.5712
  334MOL0     C46018   1.700   8.578  10.330  0.8571  0.0433  1.3349
  334MOL0     C46019   1.647   8.649  10.244  0.1837 -0.8403 -0.3333
  334MOL0     C46020   2.007   8.723  10.903 -0.6388 -0.1141 -0.1460
  334MOL0     C46021   2.003   8.830  11.001 -0.4569 -0.4560  0.8962
  334MOL0     C46022   1.943   8.797  11.136 -0.6772 -0.9350 -0.5766
  334MOL0     H46023   2.148   9.438  11.032  0.1062  1.5466  1.6495
  334MOL0     H46024   2.017   9.639  11.063  0.4365 -1.2564  0.7631
  334MOL0     H46025   1.897   9.750  10.865  0.6885 -0.6939  1.9244
  334MOL0     H46026   1.830   9.866  10.977  0.6811 -1.0067  1.0241
  334MOL0     H46027   1.713   9.866  10.752 -0.5815  1.7554  1.3383
  334MOL0     H46028   1.671   9.693  10.764  2.0304 -0.3708 -1.4229
  334MOL0     H46029   1.491   9.839  10.794  2.8545 -0.1547 -1.7582
  334MOL0     H46030   1.533   9.754  10.953  3.4160 -0.1616  1.7444
  334MOL0     H46031   1.480   9.988  11.020  0.8648  0.1503  0.4919
  334MOL0     H46032   1.645   9.979  11.016  0.5568 -1.2794 -1.7816
  334MOL0     H46033   1.484  10.170  10.903  0.1612  1.0118 -1.1140
  334MOL0     H46034   1.512  10.075  10.756 -2.2881  1.8355  0.2641
  334MOL0     H46035   1.763  10.095  10.782 -1.2432 -1.9887  0.0470
  334MOL0     H46036   1.673  10.253  10.775 -1.3385  0.8633  2.2394
  334MOL0     H46037   1.800  10.115  11.011  1.1584 -0.3277 -3.2106
  334MOL0     H46038   1.676  10.248  11.028 -0.1361 -1.1747  0.6242
  334MOL0     H46039   1.826  10.401  10.913 -3.1211 -1.5862  1.0471
  334MOL0     H46040   1.902  10.337  11.053  0.0622  3.8916 -1.7480
  334MOL0     H46041   1.935  10.378  10.669  2.2598  0.3691 -2.9267
  334MOL0     H46042   2.061  10.192  10.473  1.8455 -1.7416 -2.2710
  334MOL0     H46043   2.221  10.151  10.532  1.0095  0.3451  0.7323
  334MOL0     H46044   2.129  10.428  10.492 -1.7147 -2.1612  1.2188
  334MOL0     H46045   2.276  10.384  10.587  1.2124 -1.1512  0.0089
  334MOL0     H46046   2.377  10.294  10.391  1.8020  3.1332  1.2087
  334MOL0     H46047   2.227  10.283  10.304 -0.7536  0.3705  0.6230
  334MOL0     H46048   2.324  10.548  10.407  0.8173 -2.6715  1.9215
  334MOL0     H46049   2.404  10.475  10.264  0.4359 -0.5125  0.6562
  334MOL0     H46050   2.419  10.728  10.257 -1.0479 -0.4732  0.8927
  334MOL0     H46051   2.532  10.931  10.187  0.8754  0.7728 -1.0556
  334MOL0     H46052   2.427  11.044  10.272  2.3979  1.8390 -0.5323
  334MOL0     H46053   2.447  11.058  10.097  1.2727 -0.9529  0.3474
  334MOL0     H46054   2.148  11.167   9.698 -0.6026 -1.7464 -0.2617
  334MOL0     H46055   2.031  11.359   9.602  1.8420  0.1280 -1.1043
  334MOL0     H46056   1.928  11.600   9.580 -0.8070  3.1754 -0.4520
  334MOL0     H46057   1.811  11.474   9.558  3.5985 -0.3500 -0.9528
  334MOL0     H46058   1.632  11.629   9.645 -0.0887  4.1309  1.9156
  334MOL0     H46059   1.743  11.760   9.667 -0.0841  0.3935 -0.5508
  334MOL0     H46060   1.613  11.782   9.453  0.0898 -0.2311  1.7702
  334MOL0     H46061   1.682  11.629   9.389  1.2159 -0.8890 -0.0292
  334MOL0     H46062   1.805  11.809   9.295  1.3470 -0.8851  0.2972
  334MOL0     H46063   1.918  11.749   9.410  1.1528  1.8880 -0.4020
  334MOL0     H46064   1.737  11.975   9.467  1.1530  0.4490  2.0169
  334MOL0     H46065   1.859  11.921   9.579 -2.2863 -2.2012  0.3814
  334MOL0     H46066   1.910  12.029   9.310 -1.0326 -2.4466  1.2292
  334MOL0     H46067   2.037  11.967   9.437  0.9352  0.3053  0.1901
  334MOL0     H46068   1.989  12.161   9.570 -2.0708 -3.7163  0.3663
  334MOL0     H46069   1.849  12.209   9.477  0.6753  2.2831  0.2842
  334MOL0     H46070   2.125  12.248   9.370 -0.4221 -2.1118 -1.5280
  334MOL0     H46071   2.026  12.368   9.448  1.7994 -2.1000  2.1710
  334MOL0     H46072   1.828  11.425   9.988  0.8558 -0.9203  0.8062
  334MOL0     H46073   1.972  11.242  10.088 -1.1100  2.7854  0.1525
  334MOL0     H46074   1.992  10.898  10.080  0.5482  1.3053  0.3470
  334MOL0     H46075   2.008  10.670  10.142  0.8428 -1.3498  2.0088
  334MOL0     H46076   1.658   9.453  10.935  0.1783  1.2209  0.3879
  334MOL0     H46077   1.776   9.245  10.889  0.0017  0.1545  0.7932
  334MOL0     H46078   2.133   9.066  10.771  0.6411 -1.0288 -2.9695
  334MOL0     H46079   2.132   8.870  10.626  0.4202 -1.9206  0.1191
  334MOL0     H46080   1.999   8.455  10.596  4.4153 -0.7657  1.3843
  334MOL0     H46081   2.014   8.460  10.771 -2.1675 -3.0498 -0.3637
  334MOL0     H46082   1.794   8.596  10.771 -3.5307 -3.8706  2.1458
  334MOL0     H46083   1.787   8.436  10.710 -0.7442  0.6794 -0.2346
  334MOL0     H46084   1.681   8.642  10.576  0.6281  0.2198  1.7348
  334MOL0     H46085   1.837   8.680  10.532  2.0875 -0.3370 -0.6814
  334MOL0     H46086   1.696   8.410  10.453 -2.8134  2.8547 -1.7538
  334MOL0     H46087   1.852   8.469  10.390 -1.5435 -0.6279 -4.2147
  334MOL0     H46088   1.596   8.713  10.174 -1.0094  1.2919  2.2617
  334MOL0     H46089   1.988   8.623  10.938  1.4582  0.2166  2.1839
  334MOL0     H46090   1.994   8.704  11.161 -0.9586 -0.6218  1.2935
  334MOL0     H46091   1.960   8.867  11.218 -0.0361 -2.2907  0.4839
  334MOL0     H46092   1.835   8.782  11.131 -0.6923 -1.6678  1.2798
  335MOL0     O46093   0.019   4.482   1.089 -0.0940 -0.1743  0.0886
  335MOL0     C46094   0.094   4.412   1.016  0.0559  0.2435  0.2913
  335MOL0     O46095   0.109   4.419   0.880  0.3569 -0.4961 -0.1688
  335MOL0     C46096   0.023   4.506   0.830  1.0022 -0.3914  0.3559
  335MOL0     C46097  -0.096   4.465   0.777  0.7782  0.0137  0.5040
  335MOL0     C46098  -0.169   4.566   0.697 -0.3716  0.1611  0.1669
  335MOL0     C46099  -0.106   4.700   0.680  0.4973 -0.3325 -0.6480
  335MOL0     O46100  -0.189   4.792   0.643  0.7751 -0.2200 -0.4237
  335MOL0     C46101  -0.159   4.855   0.513 -0.8436  0.5221 -0.2493
  335MOL0     C46102  -0.278   4.935   0.455  0.1651 -0.0732 -0.5004
  335MOL0     C46103  -0.230   5.054   0.370 -0.6526 -0.3576 -0.1446
  335MOL0     C46104  -0.342   5.126   0.289  0.0543 -0.3875 -0.9671
  335MOL0     C46105  -0.470   5.146   0.380 -0.1561  0.0425 -0.6620
  335MOL0     C46106  -0.597   5.174   0.295  0.1866 -0.0682 -0.1551
  335MOL0     C46107  -0.572   5.250   0.165  0.7083 -0.7806  0.6736
  335MOL0     C46108  -0.543   5.403   0.188  0.4873  0.8105  0.3269
  335MOL0     N46109  -0.678   5.467   0.224 -0.9110 -0.2780  0.1664
  335MOL0     C46110  -0.702   5.534   0.344  0.0744 -0.0094  0.4678
  335MOL0     C46111  -0.820   5.593   0.326  0.4049 -0.3080  0.1848
  335MOL0     C46112  -0.882   5.687   0.426  0.4264 -0.6729  0.2055
  335MOL0     C46113  -0.965   5.602   0.527  0.3733 -0.2179  0.0806
  335MOL0     C46114  -0.875   5.516   0.622  0.7132  0.6768 -0.3885
  335MOL0     C46115  -0.962   5.436   0.714  0.6388  0.1898  0.4165
  335MOL0     O46116  -1.040   5.519   0.803  0.1719  0.1625 -0.1275
  335MOL0     C46117  -1.014   5.522   0.939  0.5486  0.7358 -0.5002
  335MOL0     C46118  -1.103   5.599   1.009  0.0712  0.1719 -0.9618
  335MOL0     C46119  -1.097   5.614   1.156  0.1324  0.3497  1.0620
  335MOL0     C46120  -1.200   5.700   1.219  0.1573  0.1679  0.3513
  335MOL0     C46121  -0.995   5.559   1.224  0.0951 -0.1194  0.1417
  335MOL0     C46122  -0.982   5.571   1.373 -0.1364 -0.1053 -0.2109
  335MOL0     O46123  -0.911   5.469   1.427  0.4117  0.0240 -0.3768
  335MOL0     C46124  -0.871   5.473   1.560 -0.0119  0.3510  0.3831
  335MOL0     C46125  -0.960   5.505   1.672  0.0344 -0.3923 -0.1416
  335MOL0     C46126  -0.921   5.498   1.806  0.6935 -0.3379  0.5718
  335MOL0     C46127  -0.781   5.488   1.836  0.2192  0.7616 -0.5267
  335MOL0     O46128  -0.727   5.514   1.961  0.1634  0.1051  0.3304
  335MOL0     C46129  -0.802   5.469   2.081 -0.4411 -0.0789  0.5543
  335MOL0     C46130  -0.702   5.487   2.199  0.4556  0.0995  0.9187
  335MOL0     C46131  -0.748   5.622   2.259 -0.7506 -0.1003 -0.2802
  335MOL0     C46132  -0.631   5.687   2.324 -0.1190 -0.6072  0.2096
  335MOL0     C46133  -0.665   5.833   2.363  0.0343  0.4850  0.8500
  335MOL0     C46134  -0.555   5.900   2.429  0.0565  0.4066 -0.6329
  335MOL0     C46135  -0.508   5.838   2.560 -0.6703 -1.4845 -0.1889
  335MOL0     C46136  -0.415   5.926   2.651  0.4480 -0.1403  0.3199
  335MOL0    Cl46137  -0.395   5.835   2.806  0.0526 -0.1257  0.1174
  335MOL0     C46138  -0.694   5.464   1.737  0.6857  0.3018  0.4325
  335MOL0     C46139  -0.733   5.455   1.602 -0.1644  0.4984  0.8157
  335MOL0     O46140  -1.013   5.680   1.430  0.3489 -0.0405  0.0649
  335MOL0     C46141  -0.899   5.484   1.144  0.0092  0.6367  0.0573
  335MOL0     C46142  -0.910   5.463   1.009  0.1838  0.2864  0.3787
  335MOL0     N46143  -0.860   5.568   0.190 -0.2782  0.0176  0.5197
  335MOL0     N46144  -0.782   5.489   0.135 -1.3450 -0.5980  0.3193
  335MOL0     C46145   0.012   4.739   0.741 -0.6073  0.3914 -0.1537
  335MOL0     C46146   0.081   4.636   0.816  0.0454 -0.4942  0.7703
  335MOL0     C46147   0.165   4.298   1.091  0.2590  0.1567 -0.0206
  335MOL0     C46148   0.093   4.227   1.188  0.3108 -0.6897 -0.6601
  335MOL0     C46149   0.146   4.109   1.252  0.1595 -0.2086  0.3707
  335MOL0     C46150   0.264   4.058   1.212 -0.4208  0.0159 -0.5089
  335MOL0     O46151   0.309   3.951   1.290  0.0954  1.1204 -0.0124
  335MOL0     C46152   0.435   3.885   1.263  0.5112 -0.3158  0.1823
  335MOL0     C46153   0.440   3.782   1.374  0.5798 -0.4397  0.5201
  335MOL0     C46154   0.555   3.685   1.355 -0.1103 -0.5254 -1.8865
  335MOL0     C46155   0.618   3.658   1.499  0.1839 -0.2081 -0.3805
  335MOL0     C46156   0.752   3.588   1.507  0.6273  0.5844  0.2215
  335MOL0     C46157   0.843   3.514   1.531  0.0815  0.7547 -0.2827
  335MOL0     C46158   0.341   4.135   1.124  0.4678 -0.3764  0.3625
  335MOL0     C46159   0.295   4.249   1.064  0.8533 -0.7572 -0.5931
  335MOL0     C46160   0.380   4.297   0.952  0.0619 -0.1138 -0.6699
  335MOL0     H46161  -0.134   4.364   0.789  1.8140 -0.5694 -0.8276
  335MOL0     H46162  -0.264   4.535   0.655 -0.5804  0.3869  0.4700
  335MOL0     H46163  -0.131   4.785   0.434  1.2435 -0.5912  1.3636
  335MOL0     H46164  -0.069   4.916   0.530 -0.5604  0.4051 -1.2368
  335MOL0     H46165  -0.351   4.879   0.395 -1.2001  0.4134  0.6545
  335MOL0     H46166  -0.324   4.981   0.543  2.3023  1.3781 -0.0570
  335MOL0     H46167  -0.183   5.130   0.433 -1.8866  1.3454 -1.1931
  335MOL0     H46168  -0.165   5.007   0.296 -1.8604 -2.0375 -0.1961
  335MOL0     H46169  -0.302   5.223   0.261 -0.0859 -0.0209  0.0687
  335MOL0     H46170  -0.369   5.071   0.198 -1.7780  3.5172 -2.9910
  335MOL0     H46171  -0.451   5.240   0.432  0.4715 -0.3852 -0.1027
  335MOL0     H46172  -0.492   5.063   0.447  1.8787 -1.4321 -1.6872
  335MOL0     H46173  -0.640   5.075   0.273 -1.4437  0.5277  0.2195
  335MOL0     H46174  -0.672   5.230   0.352 -2.1515 -0.8541 -2.2344
  335MOL0     H46175  -0.661   5.248   0.102  1.4206 -1.6767 -0.3478
  335MOL0     H46176  -0.496   5.206   0.100 -1.7423 -1.6764 -1.7769
  335MOL0     H46177  -0.463   5.423   0.260  0.7409  0.7695  0.0593
  335MOL0     H46178  -0.498   5.450   0.100  0.7098 -0.0784 -0.0496
  335MOL0     H46179  -0.635   5.549   0.428 -0.0087 -1.2586  0.7758
  335MOL0     H46180  -0.942   5.764   0.377 -2.2512 -1.2043  2.3964
  335MOL0     H46181  -0.803   5.737   0.482  0.8092 -0.7550 -0.2605
  335MOL0     H46182  -1.038   5.669   0.575  0.8345 -0.2259  0.8055
  335MOL0     H46183  -1.026   5.534   0.467  0.4277  0.8904 -1.2857
  335MOL0     H46184  -0.805   5.445   0.578 -0.6482 -0.7782 -0.2943
  335MOL0     H46185  -0.820   5.582   0.690 -0.0056 -0.6384  1.5440
  335MOL0     H46186  -1.032   5.386   0.646 -2.0584  4.6242 -0.4446
  335MOL0     H46187  -0.903   5.359   0.765  0.3911 -1.8471 -2.1600
  335MOL0     H46188  -1.178   5.645   0.945  0.5432  1.3149 -0.7184
  335MOL0     H46189  -1.256   5.636   1.288 -1.2929  0.1726 -0.7571
  335MOL0     H46190  -1.281   5.746   1.160  0.9230 -1.1030 -1.7995
  335MOL0     H46191  -1.144   5.783   1.262 -0.4183  0.4524  0.5647
  335MOL0     H46192  -1.064   5.529   1.656  0.1780  0.4733  0.1856
  335MOL0     H46193  -1.001   5.502   1.880 -1.1862 -0.9791 -1.3411
  335MOL0     H46194  -0.900   5.512   2.103 -0.1302  1.2545 -0.4759
  335MOL0     H46195  -0.810   5.360   2.081 -1.3440 -0.0229  0.5086
  335MOL0     H46196  -0.697   5.406   2.273 -0.4974 -0.7389  0.0801
  335MOL0     H46197  -0.601   5.483   2.157  0.0751 -1.1542  0.0631
  335MOL0     H46198  -0.826   5.606   2.334  0.3407  0.3969  0.9934
  335MOL0     H46199  -0.790   5.688   2.183 -2.5780  0.5057  1.1735
  335MOL0     H46200  -0.549   5.686   2.252  1.2652  0.2778  1.6945
  335MOL0     H46201  -0.601   5.627   2.411 -0.8374 -2.4570 -0.7640
  335MOL0     H46202  -0.689   5.889   2.272 -1.1790 -3.2012 -1.3146
  335MOL0     H46203  -0.760   5.831   2.418  0.0998  0.9888  0.9912
  335MOL0     H46204  -0.555   6.009   2.438  0.1980  0.3766 -0.2396
  335MOL0     H46205  -0.470   5.893   2.361 -0.6984 -3.1884 -1.4347
  335MOL0     H46206  -0.457   5.743   2.539  1.3589 -1.0195  2.2095
  335MOL0     H46207  -0.598   5.818   2.619 -1.6732  0.2316 -1.0634
  335MOL0     H46208  -0.455   6.026   2.669  0.7760  0.1268 -0.4019
  335MOL0     H46209  -0.318   5.933   2.600  0.0784 -0.6681 -0.4897
  335MOL0     H46210  -0.586   5.463   1.751  1.6770 -1.2781 -4.9395
  335MOL0     H46211  -0.657   5.453   1.524 -0.8070  1.8061  0.1236
  335MOL0     H46212  -0.821   5.429   1.197 -1.5182  0.4530  2.2696
  335MOL0     H46213  -0.833   5.413   0.950 -1.6691 -0.5825 -1.4411
  335MOL0     H46214   0.054   4.838   0.734  0.6571 -0.0039  1.2631
  335MOL0     H46215   0.182   4.665   0.845  0.4739 -1.1117 -0.0526
  335MOL0     H46216  -0.006   4.259   1.221  0.4897 -2.0823  1.4482
  335MOL0     H46217   0.084   4.060   1.327  0.2174 -0.0546  0.5198
  335MOL0     H46218   0.438   3.863   1.156  0.2811 -0.1059  0.1333
  335MOL0     H46219   0.518   3.955   1.281 -0.8414  0.9228  1.9535
  335MOL0     H46220   0.351   3.717   1.371  1.9838 -2.4468 -2.2664
  335MOL0     H46221   0.432   3.838   1.467 -3.3968  0.7138 -0.3135
  335MOL0     H46222   0.525   3.586   1.319 -0.9252 -2.2583  2.7441
  335MOL0     H46223   0.632   3.726   1.289  2.0985  0.0501  0.8481
  335MOL0     H46224   0.552   3.589   1.551  0.9959 -1.5889 -1.1116
  335MOL0     H46225   0.635   3.749   1.558  4.7470 -1.7999  1.1724
  335MOL0     H46226   0.937   3.463   1.538 -0.3684 -0.5141 -2.4809
  335MOL0     H46227   0.438   4.102   1.086 -0.7527 -4.3784  0.2343
  335MOL0     H46228   0.384   4.406   0.961  3.3075 -0.3177  3.1248
  335MOL0     H46229   0.485   4.266   0.958  0.7435  2.1066  0.1551
  335MOL0     H46230   0.334   4.263   0.859 -3.2223  3.7609 -0.7621
  336MOL0     O46231   8.144   2.574   5.703  0.1744 -0.0758  0.1922
  336MOL0     C46232   8.062   2.481   5.681  0.3216  0.1068 -1.3961
  336MOL0     O46233   8.089   2.354   5.724  0.3737 -0.4719  0.9169
  336MOL0     C46234   8.216   2.322   5.771 -0.3959  0.3685 -0.1146
  336MOL0     C46235   8.252   2.185   5.750  0.2966  0.1118  0.1364
  336MOL0     C46236   8.378   2.139   5.787  0.1231  0.1499 -0.6174
  336MOL0     C46237   8.457   2.217   5.873 -0.0945 -0.1295  0.5060
  336MOL0     O46238   8.562   2.168   5.932  0.5036  0.6180 -0.3773
  336MOL0     C46239   8.543   2.147   6.071 -0.4764 -0.4062  0.9302
  336MOL0     C46240   8.637   2.030   6.106  0.9924 -0.4007  0.1614
  336MOL0     C46241   8.684   2.025   6.259 -0.1631  0.1265 -0.3054
  336MOL0     C46242   8.556   2.023   6.351 -0.1335 -0.0301  0.4825
  336MOL0     C46243   8.597   1.971   6.489  0.5353  0.6276 -0.9008
  336MOL0     C46244   8.693   2.056   6.573  0.2945  0.2650  0.0293
  336MOL0     C46245   8.706   1.999   6.714 -0.6601 -0.6500  0.6233
  336MOL0     C46246   8.814   1.897   6.713 -0.4858  0.4651  0.2242
  336MOL0     N46247   8.951   1.958   6.701  0.3442 -0.1682  0.1559
  336MOL0     C46248   9.017   2.028   6.800 -0.1303  0.5823 -0.0821
  336MOL0     C46249   9.135   2.061   6.748  1.2181  0.3373 -0.0013
  336MOL0     C46250   9.237   2.142   6.817  0.0981  0.5019  0.4178
  336MOL0     C46251   9.371   2.093   6.765  0.0411  0.5314 -0.8226
  336MOL0     C46252   9.478   2.177   6.833  1.0169 -1.1660 -0.1850
  336MOL0     C46253   9.613   2.107   6.839 -0.0957 -0.3638 -0.2213
  336MOL0     O46254   9.711   2.205   6.879  0.2621 -0.4742  1.3419
  336MOL0     C46255   9.754   2.210   7.011  0.2389  0.3632  0.6314
  336MOL0     C46256   9.754   2.333   7.080  0.0988 -0.0772 -0.1823
  336MOL0     C46257   9.795   2.339   7.212 -0.5451 -0.4991  1.1520
  336MOL0     C46258   9.815   2.482   7.280  0.0899  0.5228  0.1993
  336MOL0     C46259   9.818   2.222   7.281  0.2917  0.6347  0.4606
  336MOL0     C46260   9.868   2.218   7.420  0.5886 -0.0470 -0.4476
  336MOL0     O46261   9.940   2.113   7.454 -0.4489  0.0124 -0.2386
  336MOL0     C46262  10.019   2.115   7.568 -0.4276 -0.7237  0.5635
  336MOL0     C46263  10.109   2.219   7.605  0.2459 -0.3573  0.1392
  336MOL0     C46264  10.177   2.215   7.731 -0.4797  0.4268  0.0967
  336MOL0     C46265  10.159   2.109   7.819  0.5368 -0.1481 -0.1455
  336MOL0     O46266  10.234   2.094   7.936  0.0667  0.0786  0.2194
  336MOL0     C46267  10.258   2.220   8.013 -0.1183  0.0920  1.2113
  336MOL0     C46268  10.317   2.196   8.150  0.0055  0.6991  0.7432
  336MOL0     C46269  10.316   2.327   8.220 -0.2494 -0.4823  0.5503
  336MOL0     C46270  10.388   2.329   8.354  0.1427 -0.0774  0.6079
  336MOL0     C46271  10.544   2.315   8.353 -0.2721  0.2725 -0.2899
  336MOL0     C46272  10.626   2.387   8.246  0.5293  0.0092 -0.2521
  336MOL0     C46273  10.776   2.367   8.252 -0.5235 -0.2358 -0.1961
  336MOL0     C46274  10.844   2.390   8.120  0.3842 -0.8697 -0.2690
  336MOL0    Cl46275  10.792   2.543   8.037  0.0737 -0.4981 -0.4166
  336MOL0     C46276  10.090   2.005   7.769  0.3438 -0.3292  0.3791
  336MOL0     C46277  10.013   2.005   7.649 -1.1042 -0.2919  1.9279
  336MOL0     O46278   9.830   2.302   7.503  0.2305 -0.2678  0.0633
  336MOL0     C46279   9.826   2.100   7.204  0.0659  1.0681 -0.0372
  336MOL0     C46280   9.808   2.091   7.070 -0.1763 -0.5766 -0.4753
  336MOL0     N46281   9.124   2.015   6.621  1.0227 -0.2537  0.0982
  336MOL0     N46282   9.023   1.948   6.588 -0.2707  0.1069  0.3102
  336MOL0     C46283   8.415   2.348   5.897 -0.7602  0.0546 -0.5925
  336MOL0     C46284   8.294   2.400   5.859  0.1059  0.0214  0.1290
  336MOL0     C46285   7.934   2.515   5.600  1.1691 -0.4681  0.0768
  336MOL0     C46286   7.808   2.474   5.654  1.2293  0.1483 -0.5332
  336MOL0     C46287   7.681   2.503   5.600  0.2246  0.7352 -0.0216
  336MOL0     C46288   7.666   2.560   5.475 -0.8765 -0.0164  0.6652
  336MOL0     O46289   7.547   2.576   5.418 -0.3390  0.1584 -0.7290
  336MOL0     C46290   7.527   2.577   5.278  1.3627  0.0719 -1.1931
  336MOL0     C46291   7.376   2.573   5.269 -0.1045  0.2017 -0.3240
  336MOL0     C46292   7.295   2.686   5.312 -0.4981  0.2585 -0.8650
  336MOL0     C46293   7.135   2.661   5.291 -0.8214  0.0600 -1.0474
  336MOL0     C46294   7.087   2.674   5.159 -0.3059 -0.7210 -0.9879
  336MOL0     C46295   7.048   2.679   5.042  0.7930 -0.5792  0.4073
  336MOL0     C46296   7.786   2.600   5.424 -0.1700  0.0112  0.6793
  336MOL0     C46297   7.916   2.581   5.477 -0.2059 -0.3439  0.3135
  336MOL0     C46298   8.029   2.649   5.410  0.0470  0.3410  0.8762
  336MOL0     H46299   8.186   2.116   5.698  2.1329 -0.3890 -1.6547
  336MOL0     H46300   8.413   2.039   5.763  0.1252 -0.3784  1.3458
  336MOL0     H46301   8.436   2.135   6.092 -0.5240 -0.2138  0.7924
  336MOL0     H46302   8.578   2.236   6.125  1.9597 -0.8506  0.2085
  336MOL0     H46303   8.588   1.940   6.067  0.5679 -0.0398 -0.1430
  336MOL0     H46304   8.732   2.028   6.052  0.5704  0.6931 -0.6483
  336MOL0     H46305   8.758   1.946   6.278  0.3615  0.8102  0.6180
  336MOL0     H46306   8.744   2.113   6.287  1.4497 -0.6903 -1.0859
  336MOL0     H46307   8.523   2.126   6.371  0.8131  0.1155  1.4166
  336MOL0     H46308   8.476   1.963   6.308  0.0244 -1.3634  1.9372
  336MOL0     H46309   8.648   1.875   6.479  0.8008  0.7230 -0.5020
  336MOL0     H46310   8.513   1.965   6.559 -0.3919 -1.6999 -2.1231
  336MOL0     H46311   8.789   2.074   6.523  1.9366 -1.1993  2.4961
  336MOL0     H46312   8.658   2.159   6.584  2.5902  1.2411 -1.0538
  336MOL0     H46313   8.606   1.958   6.735 -1.7486  0.9051 -1.2304
  336MOL0     H46314   8.739   2.080   6.780  3.4072  2.0359 -4.0484
  336MOL0     H46315   8.823   1.830   6.799  1.9711 -0.3972 -0.5962
  336MOL0     H46316   8.794   1.830   6.628 -1.9203  3.2220 -1.7549
  336MOL0     H46317   8.991   2.031   6.905  0.1910 -1.1779  0.0821
  336MOL0     H46318   9.225   2.127   6.925 -1.0424  2.1157  0.5532
  336MOL0     H46319   9.241   2.248   6.790 -2.0804  0.6592  0.5595
  336MOL0     H46320   9.394   1.993   6.805  2.2923  2.3388  2.9736
  336MOL0     H46321   9.388   2.106   6.658  1.5199 -2.6824 -1.1222
  336MOL0     H46322   9.488   2.276   6.789  1.8611  0.7059  3.7998
  336MOL0     H46323   9.449   2.197   6.937  0.5143 -0.3024 -0.4791
  336MOL0     H46324   9.609   2.011   6.892 -1.1077 -0.6248 -0.7460
  336MOL0     H46325   9.637   2.085   6.734 -0.6705  1.0688 -0.6782
  336MOL0     H46326   9.737   2.431   7.035 -0.1400 -0.9085 -1.9982
  336MOL0     H46327   9.908   2.486   7.337  0.0867 -0.6063  0.3157
  336MOL0     H46328   9.732   2.499   7.349 -1.2900  1.5459 -1.6271
  336MOL0     H46329   9.813   2.562   7.206  0.3259  0.0968 -0.2797
  336MOL0     H46330  10.125   2.300   7.534 -1.8212  0.6325  0.7100
  336MOL0     H46331  10.245   2.292   7.768  1.3404 -1.3384  0.6312
  336MOL0     H46332  10.321   2.293   7.962 -0.5852 -1.5770 -1.9934
  336MOL0     H46333  10.155   2.253   8.031 -1.2403 -1.9711 -0.9056
  336MOL0     H46334  10.253   2.125   8.202 -2.2167  2.5847  0.7145
  336MOL0     H46335  10.419   2.157   8.138 -0.7060 -0.5327 -2.0963
  336MOL0     H46336  10.214   2.361   8.238 -1.2467 -3.1438  0.3312
  336MOL0     H46337  10.364   2.398   8.152  0.3372 -0.5391  0.8993
  336MOL0     H46338  10.334   2.264   8.424  1.3768  1.6474  3.3847
  336MOL0     H46339  10.367   2.431   8.390  0.0431  0.6197 -1.3373
  336MOL0     H46340  10.585   2.353   8.448 -1.3518  2.3990 -0.6348
  336MOL0     H46341  10.567   2.208   8.347 -0.8965  0.2160 -2.1804
  336MOL0     H46342  10.600   2.494   8.244 -0.3225 -0.1823  0.2492
  336MOL0     H46343  10.588   2.347   8.151 -1.8082 -0.4853  0.8277
  336MOL0     H46344  10.782   2.263   8.284 -2.3842 -0.4317 -0.4009
  336MOL0     H46345  10.824   2.428   8.329  0.5164 -1.6521  0.3230
  336MOL0     H46346  10.821   2.312   8.047  1.0099  0.1240 -1.5835
  336MOL0     H46347  10.952   2.401   8.129  0.2363  2.1389 -0.8158
  336MOL0     H46348  10.101   1.908   7.818  3.5866 -1.5097 -2.2505
  336MOL0     H46349   9.949   1.920   7.628 -2.2651  1.1310 -0.7394
  336MOL0     H46350   9.841   2.000   7.244 -1.3351  1.1593  0.7693
  336MOL0     H46351   9.811   1.991   7.029 -1.6866 -0.2906 -1.3709
  336MOL0     H46352   8.487   2.407   5.952  2.3398 -0.5329 -3.6355
  336MOL0     H46353   8.257   2.494   5.897  1.7186  0.8336 -0.2290
  336MOL0     H46354   7.814   2.423   5.750 -0.4061  0.8710 -0.0133
  336MOL0     H46355   7.584   2.491   5.648 -0.5165  3.3445 -0.7304
  336MOL0     H46356   7.571   2.669   5.237  0.1701  2.5199  2.5459
  336MOL0     H46357   7.582   2.492   5.237  2.8405  0.9669 -1.1466
  336MOL0     H46358   7.338   2.486   5.324  0.6989 -0.1900 -0.3791
  336MOL0     H46359   7.353   2.549   5.164 -2.0465  3.2549 -0.7289
  336MOL0     H46360   7.319   2.705   5.417 -1.9020 -1.0789 -0.2729
  336MOL0     H46361   7.337   2.775   5.264  1.9357 -0.8355 -0.9530
  336MOL0     H46362   7.076   2.714   5.366 -1.5505 -2.4193  0.2242
  336MOL0     H46363   7.125   2.557   5.322  0.4387  0.5427  1.1937
  336MOL0     H46364   7.006   2.669   4.944  0.4015 -2.7696  0.7500
  336MOL0     H46365   7.784   2.658   5.332 -2.2134  0.8824  1.2356
  336MOL0     H46366   8.012   2.718   5.327  0.5166 -0.0914  0.4096
  336MOL0     H46367   8.071   2.713   5.487 -3.8665  2.9674  1.1178
  336MOL0     H46368   8.107   2.581   5.373 -0.8806  1.0747 -2.8113
  337MOL0     O46369   1.998   6.699   3.347  0.0492 -0.2162  0.5307
  337MOL0     C46370   1.921   6.752   3.271  0.5585 -0.2906  0.8587
  337MOL0     O46371   1.954   6.774   3.140  0.6343 -0.1246  0.3739
  337MOL0     C46372   2.072   6.728   3.103 -0.6706 -0.5702 -0.3323
  337MOL0     C46373   2.184   6.811   3.134  0.2565  0.1412 -0.3504
  337MOL0     C46374   2.316   6.764   3.110  0.4299 -0.9543  0.2427
  337MOL0     C46375   2.338   6.641   3.055  0.4125  0.0188  0.6135
  337MOL0     O46376   2.461   6.607   3.022 -0.5975  0.4305 -1.0586
  337MOL0     C46377   2.487   6.468   3.061 -0.3795  0.3705 -0.8593
  337MOL0     C46378   2.635   6.455   3.062 -0.0803  0.3279 -0.6456
  337MOL0     C46379   2.674   6.313   3.052 -0.8499 -0.9158  0.2160
  337MOL0     C46380   2.624   6.224   3.166 -0.0656  0.7095 -0.2895
  337MOL0     C46381   2.737   6.142   3.233  0.3693  0.4566 -0.2224
  337MOL0     C46382   2.800   6.045   3.132  0.5948 -0.6265  0.1985
  337MOL0     C46383   2.932   5.993   3.185  0.4662  0.0670 -0.2927
  337MOL0     C46384   2.927   5.940   3.331 -0.7744 -0.0584 -0.7296
  337MOL0     N46385   3.058   5.882   3.370  0.5408 -0.2201 -0.2143
  337MOL0     C46386   3.167   5.929   3.424 -0.4409 -0.2350 -0.2720
  337MOL0     C46387   3.256   5.828   3.445  0.7218  0.7358  0.5166
  337MOL0     C46388   3.398   5.831   3.495  0.1976  0.3173  0.5124
  337MOL0     C46389   3.468   5.706   3.434  0.1453  0.4858 -0.1629
  337MOL0     C46390   3.618   5.710   3.458 -0.4454  0.1916  0.3638
  337MOL0     C46391   3.690   5.821   3.375 -0.2081  0.0126 -0.3736
  337MOL0     O46392   3.820   5.816   3.425 -0.0665 -0.1616  0.0047
  337MOL0     C46393   3.916   5.854   3.332 -0.0288 -1.2572  0.2457
  337MOL0     C46394   3.904   5.958   3.236 -0.9107  0.5181  0.2030
  337MOL0     C46395   4.012   5.983   3.148  0.0718 -0.9502  0.0420
  337MOL0     C46396   4.003   6.097   3.056 -0.3768 -0.1171 -0.0191
  337MOL0     C46397   4.139   5.922   3.170 -0.5478 -0.0059 -0.7070
  337MOL0     C46398   4.257   5.947   3.091  0.5195 -0.9474 -0.2464
  337MOL0     O46399   4.241   5.924   2.962  0.2177 -0.6905  0.6698
  337MOL0     C46400   4.339   5.970   2.878  0.1266  0.4143  0.3396
  337MOL0     C46401   4.465   5.921   2.875  0.4528  1.2862 -0.0290
  337MOL0     C46402   4.569   5.971   2.792  0.7099  0.4539  0.6911
  337MOL0     C46403   4.548   6.088   2.724 -0.1076 -0.9388 -0.3583
  337MOL0     O46404   4.644   6.152   2.647 -0.1981  0.8919  0.2062
  337MOL0     C46405   4.679   6.288   2.679 -0.2260 -0.7856  0.6094
  337MOL0     C46406   4.771   6.346   2.573  0.5378 -0.0759 -0.8613
  337MOL0     C46407   4.846   6.470   2.608 -0.5277  0.2580  0.0594
  337MOL0     C46408   4.961   6.499   2.507 -0.4794  0.7238 -0.0796
  337MOL0     C46409   5.037   6.630   2.539  0.5514  0.2277 -0.7427
  337MOL0     C46410   4.950   6.748   2.566  0.4940  0.3864  0.5438
  337MOL0     C46411   4.863   6.771   2.444 -1.2441 -0.2379 -0.7506
  337MOL0     C46412   4.774   6.897   2.455  0.1428 -0.3021  0.6486
  337MOL0    Cl46413   4.786   6.977   2.290 -0.2918  0.3459 -0.3211
  337MOL0     C46414   4.424   6.139   2.729  0.2604  0.5091  0.0208
  337MOL0     C46415   4.315   6.078   2.793 -0.6965 -0.7250 -0.0951
  337MOL0     O46416   4.361   5.975   3.150 -0.1398 -0.2279 -0.0533
  337MOL0     C46417   4.142   5.823   3.273 -0.6802 -0.1218  0.4289
  337MOL0     C46418   4.035   5.790   3.347 -0.0332 -0.5429 -0.1825
  337MOL0     N46419   3.188   5.715   3.401 -0.1170 -0.6743 -0.1227
  337MOL0     N46420   3.075   5.749   3.359  1.0665  0.1903 -0.2595
  337MOL0     C46421   2.227   6.564   3.020 -0.2343  0.2824 -0.0815
  337MOL0     C46422   2.098   6.609   3.046  0.5620  0.0516 -0.7706
  337MOL0     C46423   1.803   6.825   3.318  0.0006  0.5202 -0.1081
  337MOL0     C46424   1.771   6.953   3.266  0.1465 -0.4099  0.4679
  337MOL0     C46425   1.655   7.029   3.320 -0.0559  1.4449 -0.0457
  337MOL0     C46426   1.583   6.983   3.428 -0.6127  0.1121 -0.4875
  337MOL0     O46427   1.467   7.056   3.463  0.1494 -1.1270 -0.6709
  337MOL0     C46428   1.384   7.016   3.576  0.1537 -0.0485 -0.7319
  337MOL0     C46429   1.341   7.135   3.669 -1.1375  1.1976 -0.5874
  337MOL0     C46430   1.471   7.212   3.705  0.0942  0.2925  0.5597
  337MOL0     C46431   1.449   7.318   3.819  1.1273  0.0776  0.6510
  337MOL0     C46432   1.397   7.443   3.748  0.1235 -0.1217 -0.4306
  337MOL0     C46433   1.323   7.534   3.713 -0.1937 -0.5796  0.1734
  337MOL0     C46434   1.606   6.849   3.469 -0.8657  0.4956 -0.8883
  337MOL0     C46435   1.716   6.770   3.417  0.2885 -0.3970  0.0494
  337MOL0     C46436   1.717   6.621   3.459 -0.5135  0.2963 -0.1338
  337MOL0     H46437   2.159   6.908   3.176 -1.7962 -1.7389  3.2362
  337MOL0     H46438   2.404   6.825   3.132 -0.3237  0.0929  0.4357
  337MOL0     H46439   2.448   6.391   2.993  0.1349  0.9176 -1.7976
  337MOL0     H46440   2.454   6.436   3.160  1.0292 -2.5479 -1.2141
  337MOL0     H46441   2.692   6.502   2.982 -0.5047 -3.5809 -3.5498
  337MOL0     H46442   2.669   6.509   3.151 -0.8104 -0.0380 -0.1347
  337MOL0     H46443   2.645   6.272   2.955 -1.2368 -1.3710  0.5215
  337MOL0     H46444   2.783   6.318   3.058 -0.8679  0.6119 -0.0894
  337MOL0     H46445   2.586   6.287   3.247  0.1771 -0.3384  0.6477
  337MOL0     H46446   2.554   6.160   3.112 -0.8034  1.7420 -0.6054
  337MOL0     H46447   2.712   6.096   3.328  2.5134  1.8019  1.0914
  337MOL0     H46448   2.805   6.224   3.260  1.8574 -1.0382  0.6957
  337MOL0     H46449   2.734   5.962   3.106 -1.6032  0.8997  0.5699
  337MOL0     H46450   2.830   6.100   3.042  2.2523 -0.4084  0.8616
  337MOL0     H46451   3.004   6.074   3.177  0.2814  0.2676  0.0626
  337MOL0     H46452   2.974   5.922   3.113  0.5954  1.3281 -1.4892
  337MOL0     H46453   2.913   6.029   3.394 -2.4498 -0.2932 -0.7333
  337MOL0     H46454   2.849   5.871   3.362 -0.8651  1.3009  2.3862
  337MOL0     H46455   3.188   6.034   3.442  0.1795 -0.1425 -1.4806
  337MOL0     H46456   3.413   5.829   3.603 -1.6567 -0.6973  0.7765
  337MOL0     H46457   3.431   5.926   3.451 -3.2785  1.8222  0.8798
  337MOL0     H46458   3.443   5.609   3.478  1.2539 -0.2034 -0.9814
  337MOL0     H46459   3.443   5.696   3.328 -0.1377 -0.3910 -0.0229
  337MOL0     H46460   3.632   5.728   3.565  1.5990 -0.1597  0.1979
  337MOL0     H46461   3.673   5.617   3.442  1.5099  1.5933 -1.5698
  337MOL0     H46462   3.700   5.799   3.269  0.4462 -3.9610  0.3568
  337MOL0     H46463   3.648   5.921   3.387  0.8654  0.2841  1.5695
  337MOL0     H46464   3.809   6.009   3.222 -0.9033  0.2114 -1.0162
  337MOL0     H46465   4.077   6.173   3.081 -1.0784 -0.3009  2.9076
  337MOL0     H46466   3.901   6.137   3.052 -0.2345  0.1641 -1.2081
  337MOL0     H46467   4.030   6.053   2.959  3.7373 -1.1781  1.4006
  337MOL0     H46468   4.488   5.834   2.936  0.6493  1.1561 -0.2857
  337MOL0     H46469   4.656   5.908   2.779 -2.4451 -4.6470  1.6306
  337MOL0     H46470   4.589   6.351   2.685 -0.2613 -0.7961  0.1842
  337MOL0     H46471   4.736   6.281   2.772  4.0003 -0.5666 -1.7639
  337MOL0     H46472   4.836   6.266   2.537  0.6522 -0.0348 -0.7470
  337MOL0     H46473   4.721   6.376   2.480 -4.7201  0.5509  1.7817
  337MOL0     H46474   4.885   6.452   2.709 -2.2268 -0.4445  0.6343
  337MOL0     H46475   4.767   6.546   2.600 -2.4916 -1.8211 -1.5632
  337MOL0     H46476   4.902   6.509   2.415 -0.6874  1.6530  0.1446
  337MOL0     H46477   5.023   6.410   2.493 -2.2819 -1.0946  2.4073
  337MOL0     H46478   5.115   6.622   2.615  0.6613  2.6878 -0.5439
  337MOL0     H46479   5.102   6.652   2.454 -0.8684  4.9180 -0.8567
  337MOL0     H46480   5.018   6.833   2.580  1.4732 -0.3839  0.5851
  337MOL0     H46481   4.900   6.731   2.662  0.3044  0.6325  0.4901
  337MOL0     H46482   4.790   6.690   2.430 -0.2606 -0.8228 -2.9867
  337MOL0     H46483   4.923   6.768   2.353  1.5485 -2.6310  1.0035
  337MOL0     H46484   4.806   6.961   2.538 -0.8452 -3.2237  3.5037
  337MOL0     H46485   4.670   6.871   2.475  0.1376 -0.2228  0.7231
  337MOL0     H46486   4.413   6.238   2.686  3.5671  1.4077  1.0266
  337MOL0     H46487   4.221   6.133   2.791 -1.0026 -1.2195  0.4576
  337MOL0     H46488   4.240   5.782   3.293 -0.2317  1.7337  2.4234
  337MOL0     H46489   4.041   5.723   3.432  0.3397  0.9238  1.0004
  337MOL0     H46490   2.245   6.469   2.971 -1.2671 -0.1249  0.3007
  337MOL0     H46491   2.015   6.543   3.023  2.2023 -2.1946 -0.5890
  337MOL0     H46492   1.823   6.985   3.176 -0.1749 -0.9897  0.0592
  337MOL0     H46493   1.620   7.125   3.285 -1.5048  0.4832 -1.3591
  337MOL0     H46494   1.291   6.972   3.539  0.5264  0.9580 -3.0186
  337MOL0     H46495   1.417   6.931   3.635  1.1409  0.7656 -0.0801
  337MOL0     H46496   1.301   7.088   3.759 -0.0031 -0.1896 -0.7847
  337MOL0     H46497   1.270   7.205   3.623 -0.7029  1.2179 -1.2475
  337MOL0     H46498   1.547   7.140   3.739  0.5200  0.3887 -0.1762
  337MOL0     H46499   1.508   7.261   3.615  1.2171  2.9830  2.3446
  337MOL0     H46500   1.548   7.331   3.864  0.0820 -0.4589  3.2772
  337MOL0     H46501   1.377   7.271   3.886 -1.6896  0.3529 -1.9272
  337MOL0     H46502   1.273   7.623   3.682  0.2864  0.2941  1.7628
  337MOL0     H46503   1.531   6.790   3.522  1.3255 -2.6852 -1.0353
  337MOL0     H46504   1.811   6.601   3.511 -1.1256  1.1919  1.3710
  337MOL0     H46505   1.633   6.605   3.526 -0.6498  2.5979  0.3251
  337MOL0     H46506   1.705   6.560   3.368  0.9059 -1.9495  1.0735
  338MOL0     O46507   2.623   9.002   5.844  0.4850  0.2533 -0.3310
  338MOL0     C46508   2.660   9.093   5.910  0.1688 -0.2137 -0.1842
  338MOL0     O46509   2.790   9.139   5.911  0.3506 -0.6106  0.0320
  338MOL0     C46510   2.868   9.109   5.799 -0.5709  0.5743 -0.5736
  338MOL0     C46511   2.966   9.215   5.777  0.2340 -0.5321 -0.0580
  338MOL0     C46512   3.042   9.221   5.656  0.1704 -0.1662 -0.1306
  338MOL0     C46513   3.045   9.114   5.574 -0.1350  0.3337  0.7519
  338MOL0     O46514   3.137   9.113   5.479  0.4590  0.9909  0.3050
  338MOL0     C46515   3.164   8.981   5.427 -0.5896  0.5037 -0.2271
  338MOL0     C46516   3.294   8.991   5.351  0.5440 -0.3111  0.2855
  338MOL0     C46517   3.415   9.043   5.437 -0.6486  0.1071 -0.0784
  338MOL0     C46518   3.537   9.117   5.367  0.2954 -0.5206  0.1982
  338MOL0     C46519   3.658   9.128   5.461 -0.4018  0.1063  0.2756
  338MOL0     C46520   3.773   9.197   5.383 -0.0824  0.7647  0.1984
  338MOL0     C46521   3.904   9.243   5.456  0.2024  0.0436 -0.2271
  338MOL0     C46522   4.012   9.297   5.357 -0.3832  0.7573 -0.2753
  338MOL0     N46523   4.148   9.283   5.416 -0.1006 -0.4746  0.9252
  338MOL0     C46524   4.263   9.294   5.339 -0.6711  0.4703 -0.0908
  338MOL0     C46525   4.362   9.258   5.431 -1.0081 -0.5507 -0.2228
  338MOL0     C46526   4.511   9.237   5.399 -0.2393 -0.5317  0.1855
  338MOL0     C46527   4.573   9.107   5.461 -0.4630 -0.4955  0.1433
  338MOL0     C46528   4.483   8.984   5.435  0.2754 -0.5294 -0.1127
  338MOL0     C46529   4.529   8.852   5.489  0.3287  0.3670 -0.7473
  338MOL0     O46530   4.662   8.824   5.446 -0.8826  0.5020 -0.4674
  338MOL0     C46531   4.764   8.842   5.539 -0.0164 -0.0029 -0.6875
  338MOL0     C46532   4.758   8.924   5.655  0.5889 -1.2517 -0.5965
  338MOL0     C46533   4.869   8.947   5.733  1.2346 -0.4560 -0.4183
  338MOL0     C46534   4.833   9.031   5.866  0.3112 -0.0807  0.5496
  338MOL0     C46535   4.994   8.890   5.701  0.2941 -0.0339  0.9516
  338MOL0     C46536   5.117   8.929   5.771  0.9617  0.1640 -0.2822
  338MOL0     O46537   5.221   8.847   5.767  0.1573 -0.2712 -0.4342
  338MOL0     C46538   5.329   8.871   5.846 -0.7878  0.9327  0.4025
  338MOL0     C46539   5.320   8.895   5.981 -1.1220 -0.3429 -0.3311
  338MOL0     C46540   5.430   8.931   6.063 -0.2146  0.0907 -0.1393
  338MOL0     C46541   5.562   8.934   6.008 -0.0448  0.1970 -0.4495
  338MOL0     O46542   5.674   8.970   6.085 -0.1533  1.0789  0.1486
  338MOL0     C46543   5.669   9.097   6.153  0.4061  0.3220 -0.3726
  338MOL0     C46544   5.799   9.101   6.235  0.0353 -0.0617  0.2816
  338MOL0     C46545   5.937   9.067   6.167  0.0734  0.8015 -0.1124
  338MOL0     C46546   5.959   9.166   6.051  0.4302  0.7600 -0.9248
  338MOL0     C46547   6.069   9.113   5.953 -1.1859  0.3559  0.2687
  338MOL0     C46548   6.216   9.120   6.009 -0.3052  0.4597 -0.1416
  338MOL0     C46549   6.299   9.039   5.898 -0.5539 -0.4549  0.6281
  338MOL0     C46550   6.451   9.062   5.899  0.8553 -0.4067 -0.6393
  338MOL0    Cl46551   6.518   8.901   5.873  0.0837 -0.5251 -0.1371
  338MOL0     C46552   5.573   8.887   5.882 -0.8974  0.0490  0.1848
  338MOL0     C46553   5.461   8.856   5.802  0.2171 -0.6486  0.4971
  338MOL0     O46554   5.121   9.044   5.816 -0.6952  0.4037  0.2722
  338MOL0     C46555   4.993   8.804   5.594  0.6265 -0.2673 -0.1745
  338MOL0     C46556   4.881   8.781   5.514 -1.2311  0.8452  0.2162
  338MOL0     N46557   4.307   9.252   5.553 -0.1108  0.3742  0.0446
  338MOL0     N46558   4.179   9.257   5.541  0.2476  0.2960  0.1539
  338MOL0     C46559   2.958   9.011   5.594  0.6525  0.0302 -0.9094
  338MOL0     C46560   2.870   9.003   5.713 -0.3485  0.5203 -0.2121
  338MOL0     C46561   2.581   9.159   6.020  0.2339 -0.0774 -0.4914
  338MOL0     C46562   2.635   9.277   6.080 -0.5227 -0.3710 -0.3883
  338MOL0     C46563   2.561   9.349   6.180  0.8194 -0.2063 -0.7929
  338MOL0     C46564   2.443   9.299   6.231  0.2654 -0.3708 -0.1999
  338MOL0     O46565   2.354   9.375   6.301  0.6751 -0.3292  0.3152
  338MOL0     C46566   2.380   9.522   6.316 -0.3540  0.4260 -0.6925
  338MOL0     C46567   2.283   9.569   6.420 -0.7984 -0.8184 -0.9278
  338MOL0     C46568   2.140   9.541   6.394  0.4462 -0.3900  0.8290
  338MOL0     C46569   2.044   9.567   6.519  0.2192 -0.8633 -0.2494
  338MOL0     C46570   2.068   9.478   6.627 -0.2218 -0.1154 -0.3694
  338MOL0     C46571   2.105   9.406   6.718  0.5206 -0.1020  0.5961
  338MOL0     C46572   2.405   9.169   6.189 -0.2958 -0.7019 -0.4507
  338MOL0     C46573   2.470   9.096   6.092 -0.2829 -0.3741  0.4736
  338MOL0     C46574   2.436   8.946   6.086 -0.3574  1.3027  0.7542
  338MOL0     H46575   2.976   9.291   5.854  0.0531  0.0343 -0.5839
  338MOL0     H46576   3.108   9.305   5.638  0.0420  0.8826  3.5008
  338MOL0     H46577   3.086   8.950   5.357 -0.3839  0.1251 -0.2893
  338MOL0     H46578   3.183   8.912   5.510  0.0271  0.4688 -0.3914
  338MOL0     H46579   3.321   8.897   5.301  2.5807 -0.3535  1.3452
  338MOL0     H46580   3.264   9.060   5.272 -1.8037  0.3150  1.6469
  338MOL0     H46581   3.364   9.124   5.490 -2.0923  1.1631 -2.8629
  338MOL0     H46582   3.445   8.962   5.504  4.1875  2.3729  0.9595
  338MOL0     H46583   3.563   9.057   5.280 -1.7068 -0.1823 -0.6793
  338MOL0     H46584   3.512   9.213   5.321  2.6067 -0.2957 -0.7590
  338MOL0     H46585   3.690   9.029   5.494 -1.5145  0.0754  1.3299
  338MOL0     H46586   3.608   9.184   5.541 -3.0162  1.2241 -1.9751
  338MOL0     H46587   3.788   9.128   5.300 -0.4195  1.8872 -0.8288
  338MOL0     H46588   3.728   9.276   5.321 -0.9188  0.8372  0.8751
  338MOL0     H46589   3.942   9.156   5.510 -0.6338  1.5005  2.9242
  338MOL0     H46590   3.874   9.323   5.524  0.5790  0.4050 -0.4766
  338MOL0     H46591   4.001   9.245   5.262 -1.0353 -1.6651  1.0355
  338MOL0     H46592   3.998   9.405   5.345 -2.2010  0.6537  0.4591
  338MOL0     H46593   4.271   9.315   5.232  3.5114 -0.0230 -0.0402
  338MOL0     H46594   4.554   9.331   5.435  0.3956 -0.1196 -1.5666
  338MOL0     H46595   4.526   9.223   5.292  2.2217 -3.0613  0.7539
  338MOL0     H46596   4.672   9.087   5.418  0.2871  2.2247  0.4329
  338MOL0     H46597   4.585   9.141   5.564  2.7670 -2.4676  0.5768
  338MOL0     H46598   4.390   9.003   5.490 -0.2988 -0.3676 -1.1246
  338MOL0     H46599   4.469   8.974   5.327 -3.5523 -1.7233  0.3288
  338MOL0     H46600   4.503   8.858   5.595 -0.7288  0.8032 -1.0216
  338MOL0     H46601   4.473   8.763   5.457 -0.6425  0.4102  0.7124
  338MOL0     H46602   4.667   8.981   5.675  1.0265 -0.9975  0.7255
  338MOL0     H46603   4.844   8.963   5.951 -2.9418 -1.5040 -0.0231
  338MOL0     H46604   4.727   9.055   5.869 -0.2686 -1.6560 -2.6767
  338MOL0     H46605   4.891   9.123   5.876  0.4690  0.4096 -3.2921
  338MOL0     H46606   5.221   8.895   6.026 -0.7769 -3.6872  0.6708
  338MOL0     H46607   5.421   8.956   6.168 -4.9710  3.0158 -0.9231
  338MOL0     H46608   5.663   9.179   6.080  0.1284 -0.2323 -0.9858
  338MOL0     H46609   5.578   9.113   6.210  1.0818  1.2084  0.4990
  338MOL0     H46610   5.803   9.198   6.284 -2.4329  0.9570 -1.3004
  338MOL0     H46611   5.785   9.015   6.301  1.3571 -1.4190 -1.1206
  338MOL0     H46612   5.941   8.962   6.138  1.4225  0.0979  2.2944
  338MOL0     H46613   6.021   9.073   6.237  1.7948  0.7266 -2.0817
  338MOL0     H46614   5.975   9.268   6.087 -3.2173  1.1285  0.0214
  338MOL0     H46615   5.870   9.193   5.994  0.3581 -1.4389 -1.9771
  338MOL0     H46616   6.042   9.012   5.923 -1.6794 -0.0897  2.1004
  338MOL0     H46617   6.066   9.180   5.867  0.3109 -0.7965 -0.7104
  338MOL0     H46618   6.235   9.065   6.102 -5.5370 -2.4310 -0.4082
  338MOL0     H46619   6.253   9.222   6.024  1.6795 -0.0677 -1.1268
  338MOL0     H46620   6.257   9.065   5.800  2.0808  1.5180 -0.0831
  338MOL0     H46621   6.278   8.934   5.919 -1.4790 -0.4696 -0.2539
  338MOL0     H46622   6.491   9.093   5.996  0.4090  0.9148 -0.8642
  338MOL0     H46623   6.480   9.134   5.822 -0.8607  0.7116 -0.2884
  338MOL0     H46624   5.671   8.870   5.839 -0.4313  1.0155  0.8112
  338MOL0     H46625   5.491   8.834   5.700  0.5987  1.0381  0.2086
  338MOL0     H46626   5.084   8.748   5.575  0.6719  0.3476 -1.9478
  338MOL0     H46627   4.893   8.727   5.421 -2.1351  1.1388 -0.0830
  338MOL0     H46628   2.960   8.924   5.529  0.9033 -0.9974  0.4275
  338MOL0     H46629   2.805   8.917   5.718  0.2759  0.0885  0.5724
  338MOL0     H46630   2.729   9.310   6.036 -0.5989  0.2403 -0.1144
  338MOL0     H46631   2.598   9.449   6.200  2.5114 -0.2718 -3.2288
  338MOL0     H46632   2.480   9.549   6.351  0.6096 -0.8660 -2.3114
  338MOL0     H46633   2.358   9.583   6.228 -1.1136 -0.9484 -1.4918
  338MOL0     H46634   2.297   9.678   6.424 -0.0637 -0.9359  1.7995
  338MOL0     H46635   2.313   9.524   6.515 -0.1464  0.4081 -0.5196
  338MOL0     H46636   2.103   9.596   6.308 -1.8249 -0.8040  1.4720
  338MOL0     H46637   2.136   9.432   6.380  2.0411 -0.2128 -1.6529
  338MOL0     H46638   1.937   9.558   6.498 -0.2047 -2.0176  2.0779
  338MOL0     H46639   2.062   9.667   6.560 -0.3041 -0.9750  0.2684
  338MOL0     H46640   2.124   9.336   6.797  0.9261 -0.7042 -0.0298
  338MOL0     H46641   2.319   9.140   6.248  0.8622  0.7073  2.1107
  338MOL0     H46642   2.392   8.942   5.986 -0.9089  0.5007  1.0174
  338MOL0     H46643   2.526   8.886   6.072 -1.0172  0.2940  0.6555
  338MOL0     H46644   2.378   8.909   6.172 -2.9380  2.6823 -0.2908
  339MOL0     O46645   7.600  11.269   0.992 -0.5368  0.0984  0.8763
  339MOL0     C46646   7.527  11.201   1.062  0.1207 -0.4260 -0.1671
  339MOL0     O46647   7.573  11.096   1.134 -0.2054  0.7352  0.2797
  339MOL0     C46648   7.707  11.066   1.119  0.9039 -0.4902  0.2205
  339MOL0     C46649   7.744  10.985   1.009 -0.4609 -0.0991 -0.1262
  339MOL0     C46650   7.876  10.944   0.999  0.4751 -0.6691  0.5273
  339MOL0     C46651   7.969  10.974   1.101 -0.3972  0.1839 -0.3126
  339MOL0     O46652   8.100  10.931   1.104 -0.3825  0.4448 -0.1222
  339MOL0     C46653   8.120  10.800   1.056  0.0806  0.3371  0.0082
  339MOL0     C46654   8.255  10.751   1.107  0.4840 -0.0633  0.4041
  339MOL0     C46655   8.374  10.823   1.053  0.0944 -0.0918  0.1469
  339MOL0     C46656   8.496  10.798   1.136 -0.1540 -0.7420  0.7823
  339MOL0     C46657   8.613  10.877   1.068 -0.1931  0.5655  0.0474
  339MOL0     C46658   8.744  10.855   1.141 -0.5232  0.0764 -0.6207
  339MOL0     C46659   8.866  10.915   1.075  0.6371 -0.0191  0.6983
  339MOL0     C46660   9.001  10.859   1.125  0.4948  0.0553  0.6344
  339MOL0     N46661   9.110  10.934   1.057  0.4983 -0.2814  0.2683
  339MOL0     C46662   9.120  11.076   1.042 -0.4023  0.2449 -0.0673
  339MOL0     C46663   9.241  11.087   0.976  0.3881  0.1929  0.3955
  339MOL0     C46664   9.306  11.220   0.936  0.0510 -0.3035  0.1709
  339MOL0     C46665   9.198  11.315   0.886  0.3002 -0.0760 -0.0892
  339MOL0     C46666   9.104  11.252   0.772  0.9348  0.1886  0.5630
  339MOL0     C46667   9.185  11.215   0.641 -0.2834 -0.7385  0.2186
  339MOL0     O46668   9.268  11.323   0.619 -0.0666  0.4034  0.9509
  339MOL0     C46669   9.394  11.302   0.561  0.1205  0.0303 -0.2656
  339MOL0     C46670   9.433  11.404   0.486  0.1663  1.0628  0.0781
  339MOL0     C46671   9.562  11.412   0.431  0.9343  0.0117  0.3338
  339MOL0     C46672   9.595  11.546   0.360 -0.0991  0.0085  0.2899
  339MOL0     C46673   9.642  11.298   0.439 -0.1686  0.5830  0.6052
  339MOL0     C46674   9.779  11.288   0.387  0.2273  0.3613  0.9059
  339MOL0     O46675   9.813  11.368   0.286  0.2221 -1.0697  0.1116
  339MOL0     C46676   9.947  11.362   0.256  0.3365  0.0066 -0.2453
  339MOL0     C46677   9.996  11.261   0.176  0.1683  0.0586  0.1272
  339MOL0     C46678  10.135  11.254   0.143 -0.3034  0.1951 -0.3805
  339MOL0     C46679  10.213  11.369   0.173 -0.2752  0.1995 -0.1091
  339MOL0     O46680  10.352  11.368   0.161  0.5879 -0.2318 -1.1038
  339MOL0     C46681  10.399  11.277   0.058 -0.2498  0.9798 -0.2029
  339MOL0     C46682  10.542  11.312   0.029 -0.0093 -0.9142  0.2529
  339MOL0     C46683  10.612  11.215  -0.059 -0.1218 -0.7633  0.2520
  339MOL0     C46684  10.719  11.280  -0.157  0.4605 -0.2132  0.0921
  339MOL0     C46685  10.789  11.168  -0.239 -0.2513  0.0345 -0.1734
  339MOL0     C46686  10.686  11.062  -0.298 -0.4722  0.5754  1.0738
  339MOL0     C46687  10.760  10.944  -0.364  0.2116  0.2924 -0.0507
  339MOL0     C46688  10.664  10.850  -0.436 -0.2507  0.0989 -0.5312
  339MOL0    Cl46689  10.580  10.917  -0.578 -0.2338 -0.2937  0.2949
  339MOL0     C46690  10.151  11.480   0.235 -0.5371 -0.5410  0.1321
  339MOL0     C46691  10.021  11.480   0.282  0.1401  0.0517 -0.6445
  339MOL0     O46692   9.851  11.209   0.443 -0.1345 -0.3535 -0.6199
  339MOL0     C46693   9.591  11.193   0.511 -0.7592  0.2943  0.6596
  339MOL0     C46694   9.469  11.185   0.573  0.1157  0.4888 -0.1626
  339MOL0     N46695   9.281  10.962   0.938  0.0147 -0.4647 -0.2572
  339MOL0     N46696   9.202  10.873   0.980 -0.5618 -0.2696 -0.1369
  339MOL0     C46697   7.932  11.057   1.205 -0.2251  0.2043  0.3187
  339MOL0     C46698   7.802  11.101   1.215  0.9310 -0.9070  0.3301
  339MOL0     C46699   7.375  11.214   1.054 -0.8030 -0.4196  0.4950
  339MOL0     C46700   7.321  11.275   0.936 -0.6452 -0.2761 -0.0752
  339MOL0     C46701   7.185  11.308   0.928  0.2752  0.5008 -0.3976
  339MOL0     C46702   7.103  11.288   1.039 -0.1029 -0.0412 -0.2968
  339MOL0     O46703   6.971  11.308   1.039  0.4480 -0.0380  0.5135
  339MOL0     C46704   6.916  11.414   0.961  0.2689 -0.0927  0.8465
  339MOL0     C46705   6.761  11.416   0.964 -0.7130  0.6874 -0.5188
  339MOL0     C46706   6.699  11.551   0.962  0.0655  0.3993  0.5844
  339MOL0     C46707   6.552  11.546   0.978  0.6525 -0.1072 -1.0861
  339MOL0     C46708   6.500  11.662   1.052 -0.5029  0.6555 -0.1135
  339MOL0     C46709   6.503  11.770   1.121  1.3000  0.3539  0.4435
  339MOL0     C46710   7.154  11.226   1.149 -0.6827  0.9971  0.1556
  339MOL0     C46711   7.290  11.177   1.155 -0.2520 -0.5750 -0.9342
  339MOL0     C46712   7.331  11.114   1.284 -0.8457 -0.0145  0.0601
  339MOL0     H46713   7.677  10.966   0.926  0.8620  1.6896 -1.6773
  339MOL0     H46714   7.910  10.887   0.913  0.9381 -1.9711  1.5442
  339MOL0     H46715   8.141  10.813   0.950  0.5584 -1.3916 -0.1399
  339MOL0     H46716   8.042  10.731   1.089  1.0528  0.1521  2.0700
  339MOL0     H46717   8.267  10.761   1.215  1.8510  0.0201  0.2592
  339MOL0     H46718   8.270  10.646   1.080  1.8204 -0.0497  1.0523
  339MOL0     H46719   8.387  10.781   0.953  0.4361 -0.6592  0.4226
  339MOL0     H46720   8.356  10.930   1.053  2.8610  0.4626  0.4700
  339MOL0     H46721   8.474  10.839   1.235 -2.6451  0.6135 -0.2432
  339MOL0     H46722   8.522  10.692   1.142 -0.6060 -0.8340  1.1581
  339MOL0     H46723   8.583  10.982   1.067 -2.9591 -0.1168  1.0557
  339MOL0     H46724   8.618  10.849   0.962 -2.7484 -0.0140 -0.0074
  339MOL0     H46725   8.730  10.890   1.244 -1.8659 -1.4286 -0.2582
  339MOL0     H46726   8.765  10.748   1.149  0.9595 -0.0399 -4.0614
  339MOL0     H46727   8.867  11.023   1.093  0.2430 -0.0562  0.9493
  339MOL0     H46728   8.851  10.895   0.968  2.3408 -1.9314  0.7688
  339MOL0     H46729   9.002  10.879   1.233  1.9140 -0.5495  0.7502
  339MOL0     H46730   9.015  10.751   1.113 -0.3502 -0.0044  0.1213
  339MOL0     H46731   9.049  11.154   1.069 -0.3664 -0.8172  3.7586
  339MOL0     H46732   9.380  11.201   0.858  0.5637 -4.7495  1.4669
  339MOL0     H46733   9.358  11.266   1.020  2.4342  2.3258 -2.5337
  339MOL0     H46734   9.138  11.341   0.973  0.4483  1.1330 -0.3359
  339MOL0     H46735   9.235  11.408   0.841 -0.3832 -0.1410 -0.8189
  339MOL0     H46736   9.049  11.163   0.806  0.2943  0.3467 -0.0265
  339MOL0     H46737   9.032  11.329   0.743  0.4620 -0.1297  0.8717
  339MOL0     H46738   9.252  11.129   0.653  2.3094  0.6177 -2.9209
  339MOL0     H46739   9.122  11.198   0.553  1.3927 -1.8580 -0.8333
  339MOL0     H46740   9.372  11.492   0.469 -1.7829  0.0025  1.2408
  339MOL0     H46741   9.513  11.618   0.371 -1.9606 -1.8006 -1.0216
  339MOL0     H46742   9.614  11.529   0.254 -2.9703 -0.9001 -0.1791
  339MOL0     H46743   9.682  11.593   0.407  0.0222  1.3797 -1.2538
  339MOL0     H46744   9.929  11.177   0.156 -1.6030  0.9354  1.9646
  339MOL0     H46745  10.157  11.158   0.098 -0.0625 -1.0379  2.2280
  339MOL0     H46746  10.390  11.174   0.095 -1.3517  0.1148 -2.7043
  339MOL0     H46747  10.350  11.292  -0.038 -2.0571 -0.3719  0.4429
  339MOL0     H46748  10.528  11.401  -0.032  1.4921 -0.0257  1.1412
  339MOL0     H46749  10.603  11.330   0.118  1.5648 -1.6640 -0.6406
  339MOL0     H46750  10.537  11.154  -0.110 -0.5761  1.1146 -1.4596
  339MOL0     H46751  10.668  11.140  -0.002  0.0230 -1.3970 -0.7089
  339MOL0     H46752  10.792  11.348  -0.112  1.6924 -0.7403 -1.0400
  339MOL0     H46753  10.662  11.343  -0.227 -1.5549  0.8115  2.5100
  339MOL0     H46754  10.848  11.220  -0.316  0.5088 -3.8957 -2.5428
  339MOL0     H46755  10.858  11.115  -0.173 -0.9491 -0.0548  0.4933
  339MOL0     H46756  10.623  11.112  -0.372  2.1645 -0.2969 -2.0446
  339MOL0     H46757  10.639  11.013  -0.213 -2.8857  2.3197  0.8539
  339MOL0     H46758  10.808  10.891  -0.281  2.5100  3.6607  0.9742
  339MOL0     H46759  10.830  10.973  -0.443  0.4155 -2.3155 -0.9240
  339MOL0     H46760  10.596  10.810  -0.360 -0.6029 -0.7569 -1.2827
  339MOL0     H46761  10.727  10.764  -0.460 -1.3018 -2.0715  3.5272
  339MOL0     H46762  10.218  11.564   0.251 -0.4553 -0.0648 -2.3435
  339MOL0     H46763   9.983  11.565   0.338 -0.7239 -1.9521  2.0309
  339MOL0     H46764   9.657  11.107   0.516 -0.9575  0.0642 -0.4388
  339MOL0     H46765   9.445  11.097   0.633 -0.4793  1.6616  1.4038
  339MOL0     H46766   7.994  11.084   1.290 -2.0509  2.2842  1.0767
  339MOL0     H46767   7.778  11.151   1.308  0.6663 -0.6265  0.1098
  339MOL0     H46768   7.387  11.308   0.856  1.8610 -0.5382  1.7574
  339MOL0     H46769   7.148  11.354   0.837  0.9823  3.3489  0.6180
  339MOL0     H46770   6.966  11.506   0.993 -0.2492  0.1769  0.8848
  339MOL0     H46771   6.943  11.399   0.856  0.5662  1.8271  0.6078
  339MOL0     H46772   6.730  11.351   1.047  0.1295 -0.4324 -1.0575
  339MOL0     H46773   6.718  11.366   0.877 -1.2912  3.8646 -2.2002
  339MOL0     H46774   6.727  11.613   1.047 -2.1490  3.3392 -0.6423
  339MOL0     H46775   6.736  11.605   0.875  0.6185  0.2443  0.7179
  339MOL0     H46776   6.528  11.461   1.042 -1.9490  0.8479 -0.6554
  339MOL0     H46777   6.501  11.542   0.881 -2.1098  0.7066  0.2158
  339MOL0     H46778   6.496  11.867   1.164  0.8487  0.2775  0.5450
  339MOL0     H46779   7.077  11.202   1.222 -1.1868 -3.0563 -1.4617
  339MOL0     H46780   7.420  11.164   1.322  0.5947 -2.0320 -0.4687
  339MOL0     H46781   7.248  11.120   1.355 -0.6235  2.6599  0.2065
  339MOL0     H46782   7.358  11.008   1.277 -1.3665 -0.2715  1.6436
  340MOL0     O46783   5.218   7.100   6.523  0.2826 -0.9700 -0.7398
  340MOL0     C46784   5.192   7.073   6.409 -0.2215  0.1718 -0.0523
  340MOL0     O46785   5.106   6.979   6.374  0.2601 -0.7737  0.1878
  340MOL0     C46786   5.036   6.897   6.466  0.8532 -0.1903  1.0096
  340MOL0     C46787   5.037   6.896   6.608 -0.3193  0.4409 -0.5311
  340MOL0     C46788   4.955   6.816   6.679  0.3589  0.1299  0.0638
  340MOL0     C46789   4.848   6.752   6.621 -0.4276 -0.1109  0.5675
  340MOL0     O46790   4.754   6.697   6.703  0.1768  0.4020 -0.9053
  340MOL0     C46791   4.627   6.648   6.647  0.9719 -0.4526 -0.1361
  340MOL0     C46792   4.530   6.586   6.740  0.5782  0.6944  0.2724
  340MOL0     C46793   4.594   6.478   6.826 -0.0647  0.2746  0.3985
  340MOL0     C46794   4.507   6.436   6.951  0.5760 -0.2574  0.1074
  340MOL0     C46795   4.588   6.331   7.023 -0.4842  0.3039 -0.1438
  340MOL0     C46796   4.501   6.261   7.128  1.3100  0.0871 -0.4540
  340MOL0     C46797   4.587   6.173   7.220 -0.3473  0.2098 -0.3729
  340MOL0     C46798   4.645   6.233   7.346 -0.1435 -0.3169 -0.1703
  340MOL0     N46799   4.558   6.224   7.466 -0.6071 -0.1313 -0.0249
  340MOL0     C46800   4.445   6.301   7.502 -0.5935  0.0098  0.3467
  340MOL0     C46801   4.397   6.248   7.614  0.3220 -0.8136  0.1507
  340MOL0     C46802   4.287   6.317   7.691 -0.2067 -0.3440 -0.4395
  340MOL0     C46803   4.154   6.355   7.621 -0.4052 -0.5068  0.4539
  340MOL0     C46804   4.108   6.243   7.536  0.2217  0.1394 -0.0310
  340MOL0     C46805   3.993   6.305   7.457  0.1034  0.3728  0.1251
  340MOL0     O46806   3.919   6.216   7.380  0.1654  1.2391 -0.0921
  340MOL0     C46807   3.932   6.194   7.246 -0.2420  0.1905 -0.5833
  340MOL0     C46808   3.925   6.062   7.199  0.6111  0.2706 -0.0615
  340MOL0     C46809   3.951   6.034   7.071 -0.8303 -0.0806 -0.0167
  340MOL0     C46810   3.942   5.895   7.017  0.3961 -0.0473 -0.0558
  340MOL0     C46811   4.005   6.130   6.981 -0.3778  0.1449 -0.4271
  340MOL0     C46812   4.049   6.093   6.842  0.6054  0.8586 -0.1890
  340MOL0     O46813   4.179   6.145   6.820  1.1141  0.4463  0.3485
  340MOL0     C46814   4.257   6.107   6.720  0.3341  0.5505 -0.2279
  340MOL0     C46815   4.373   6.183   6.708  0.6090  0.2530  0.3884
  340MOL0     C46816   4.469   6.160   6.607  0.4671  0.2006  0.2797
  340MOL0     C46817   4.456   6.054   6.526 -0.3340  0.8812  0.2617
  340MOL0     O46818   4.547   6.041   6.425 -0.5422 -0.1434 -0.3673
  340MOL0     C46819   4.540   5.950   6.315  0.6907  0.1145 -0.0801
  340MOL0     C46820   4.621   6.017   6.210 -0.2548  0.8162 -0.0330
  340MOL0     C46821   4.775   6.031   6.258  0.4662  0.0067  0.2977
  340MOL0     C46822   4.861   6.096   6.152  0.2218  0.0473 -0.2629
  340MOL0     C46823   5.005   6.109   6.197 -0.2734 -0.1177  0.7894
  340MOL0     C46824   5.083   6.141   6.074 -0.4334  0.2173 -0.7360
  340MOL0     C46825   5.234   6.150   6.107  0.5249  0.7109 -0.2507
  340MOL0     C46826   5.322   6.178   5.985 -0.1541  0.6879  0.4658
  340MOL0    Cl46827   5.268   6.058   5.843  0.6577 -0.2477 -0.2928
  340MOL0     C46828   4.347   5.978   6.533 -0.0069  0.2302 -0.1110
  340MOL0     C46829   4.244   6.006   6.626  0.1861  0.4294 -0.0639
  340MOL0     O46830   3.970   6.045   6.759 -0.6621  0.3346  0.0205
  340MOL0     C46831   4.026   6.257   7.039  0.3808 -0.1133  0.9468
  340MOL0     C46832   3.984   6.290   7.162  0.5855 -0.3503  0.0063
  340MOL0     N46833   4.457   6.131   7.632 -0.1773 -0.3645  0.3336
  340MOL0     N46834   4.558   6.114   7.552 -0.2109 -1.0459  0.5202
  340MOL0     C46835   4.836   6.761   6.486 -0.1116  0.2683 -0.2772
  340MOL0     C46836   4.924   6.828   6.408 -0.6932  0.8406 -0.7560
  340MOL0     C46837   5.249   7.157   6.299 -0.2897  1.0255 -0.6205
  340MOL0     C46838   5.385   7.199   6.313  0.2577  0.1646  0.0884
  340MOL0     C46839   5.463   7.250   6.219 -0.0863  0.1439 -0.6332
  340MOL0     C46840   5.408   7.275   6.096  0.3835 -0.0970  0.0561
  340MOL0     O46841   5.489   7.342   6.009 -0.4882 -0.0873 -0.4279
  340MOL0     C46842   5.436   7.426   5.901  0.6360 -0.4267 -0.1662
  340MOL0     C46843   5.541   7.450   5.791 -0.9913 -0.1889 -0.2059
  340MOL0     C46844   5.511   7.582   5.709  0.1943 -0.3641 -1.0205
  340MOL0     C46845   5.587   7.588   5.569 -0.8101 -0.0275  0.0135
  340MOL0     C46846   5.535   7.505   5.464 -0.5304 -0.5997 -0.2469
  340MOL0     C46847   5.480   7.433   5.388 -0.4307  0.3172 -0.2045
  340MOL0     C46848   5.269   7.245   6.065 -0.4127 -0.3326 -0.7435
  340MOL0     C46849   5.191   7.187   6.170  0.1957  0.3890  0.1434
  340MOL0     C46850   5.050   7.142   6.139  0.5248  0.1261 -0.2349
  340MOL0     H46851   5.107   6.959   6.663 -0.7671 -0.4432  1.1171
  340MOL0     H46852   4.969   6.821   6.786 -0.8183  0.0888  0.2294
  340MOL0     H46853   4.653   6.570   6.574  2.5962 -0.9669  0.9290
  340MOL0     H46854   4.578   6.728   6.592  1.0122 -0.5154 -0.2647
  340MOL0     H46855   4.488   6.659   6.810 -1.0426 -0.2792  0.3762
  340MOL0     H46856   4.450   6.545   6.678  0.8919  2.1655 -1.1467
  340MOL0     H46857   4.612   6.399   6.753 -1.3566  1.1653 -0.9273
  340MOL0     H46858   4.690   6.512   6.866 -0.5458  1.3911  0.6428
  340MOL0     H46859   4.492   6.518   7.021 -3.7253 -0.3773 -0.4386
  340MOL0     H46860   4.405   6.404   6.927 -0.4934  0.1633  3.5444
  340MOL0     H46861   4.664   6.391   7.073 -2.8458  3.2096  0.2385
  340MOL0     H46862   4.627   6.247   6.965  2.0061 -2.4411  4.8305
  340MOL0     H46863   4.442   6.327   7.192  3.9766 -0.8656  3.3590
  340MOL0     H46864   4.434   6.199   7.068  1.1174  0.0626 -0.2142
  340MOL0     H46865   4.667   6.127   7.163 -3.2834 -1.4997 -3.5254
  340MOL0     H46866   4.512   6.098   7.246 -1.1550  1.3078  0.5497
  340MOL0     H46867   4.732   6.169   7.367 -0.3870 -1.1910 -1.6228
  340MOL0     H46868   4.684   6.335   7.343  3.7470 -1.5171  2.3645
  340MOL0     H46869   4.413   6.395   7.458  0.7544  0.9994  1.3798
  340MOL0     H46870   4.329   6.403   7.743  0.7284 -1.1664  0.2161
  340MOL0     H46871   4.250   6.256   7.775 -2.3948  2.6818  0.9772
  340MOL0     H46872   4.081   6.380   7.698  2.2180  0.3187  2.8343
  340MOL0     H46873   4.176   6.439   7.554 -1.0337 -0.5484  0.1812
  340MOL0     H46874   4.184   6.223   7.459  0.7489  0.5413  0.3801
  340MOL0     H46875   4.078   6.152   7.588 -0.1106 -0.2179 -0.8175
  340MOL0     H46876   3.924   6.351   7.528 -2.0296  0.2060 -1.7328
  340MOL0     H46877   4.030   6.390   7.399 -2.1348  1.5560  0.3509
  340MOL0     H46878   3.894   5.988   7.272  4.3043  1.0472  2.5669
  340MOL0     H46879   4.011   5.871   6.936 -0.1882  0.1894 -0.6334
  340MOL0     H46880   3.843   5.864   6.981  0.8823 -3.7501  1.3057
  340MOL0     H46881   3.965   5.826   7.099 -2.4662  0.1221  1.0164
  340MOL0     H46882   4.382   6.268   6.774  0.5443 -1.3483  2.5738
  340MOL0     H46883   4.551   6.225   6.579 -0.6297  1.8890  0.8396
  340MOL0     H46884   4.600   5.863   6.339  0.9214 -0.8095 -3.4192
  340MOL0     H46885   4.437   5.934   6.281  0.4389 -0.7226  1.0254
  340MOL0     H46886   4.616   5.953   6.121 -1.1622  0.7809  0.0414
  340MOL0     H46887   4.568   6.108   6.181 -0.0181  1.2015  0.7333
  340MOL0     H46888   4.811   5.931   6.280  2.1477  0.6726  0.7227
  340MOL0     H46889   4.785   6.098   6.344  0.1137 -1.3125  1.4022
  340MOL0     H46890   4.819   6.196   6.138  1.9629  0.7737 -0.5455
  340MOL0     H46891   4.836   6.048   6.057  2.1891  1.7109 -1.7090
  340MOL0     H46892   5.013   6.195   6.265 -2.7008  3.9845 -3.4701
  340MOL0     H46893   5.040   6.015   6.240  1.1180 -0.2350 -0.5239
  340MOL0     H46894   5.045   6.233   6.030  1.2298  1.3194  0.0090
  340MOL0     H46895   5.080   6.059   6.001  2.3392 -1.0013  0.3535
  340MOL0     H46896   5.261   6.056   6.155  2.4193  2.1919  1.8321
  340MOL0     H46897   5.251   6.226   6.184 -0.3102 -2.1907  3.0284
  340MOL0     H46898   5.426   6.168   6.016 -0.4240  0.6444  1.4033
  340MOL0     H46899   5.313   6.284   5.958  1.2405  0.9055  0.7785
  340MOL0     H46900   4.335   5.894   6.465 -1.8001 -0.0136  0.4409
  340MOL0     H46901   4.160   5.938   6.622  1.5689 -1.6930  3.0680
  340MOL0     H46902   4.078   6.329   6.975 -0.9099  1.3501  1.4622
  340MOL0     H46903   4.008   6.388   7.202  0.0569 -0.6956  1.2108
  340MOL0     H46904   4.755   6.705   6.440  0.8608 -2.0065  0.6368
  340MOL0     H46905   4.893   6.827   6.304 -1.1834 -0.1417 -0.6077
  340MOL0     H46906   5.440   7.166   6.400 -0.9920 -0.3870  0.7053
  340MOL0     H46907   5.570   7.271   6.225 -0.4810  2.3398 -0.6249
  340MOL0     H46908   5.350   7.379   5.852  1.2578 -0.2649 -1.4341
  340MOL0     H46909   5.401   7.525   5.933 -1.6171  0.0634 -3.5720
  340MOL0     H46910   5.535   7.361   5.728 -0.3101  0.1499 -0.7661
  340MOL0     H46911   5.635   7.476   5.841 -0.5220 -1.9310 -0.1266
  340MOL0     H46912   5.403   7.596   5.700  0.2884  1.0766 -0.0643
  340MOL0     H46913   5.542   7.665   5.773 -1.5714 -0.4946  0.0629
  340MOL0     H46914   5.693   7.566   5.582 -0.9278 -3.2394 -3.0028
  340MOL0     H46915   5.582   7.695   5.546  0.0292  0.2399  0.9901
  340MOL0     H46916   5.437   7.375   5.309  1.3436 -0.7926 -0.4223
  340MOL0     H46917   5.222   7.254   5.968 -0.8338 -1.1742 -0.6293
  340MOL0     H46918   4.989   7.146   6.230 -1.4775  0.7514 -1.5370
  340MOL0     H46919   4.999   7.201   6.062  1.3822 -0.3091 -1.1537
  340MOL0     H46920   5.067   7.043   6.097  2.5330  0.3701 -0.1257
  341MOL0     O46921   7.198   5.902  10.396 -0.0783 -0.5140 -0.1952
  341MOL0     C46922   7.197   5.795  10.459 -0.3591 -0.2867  0.7683
  341MOL0     O46923   7.198   5.781  10.591  0.4211  0.0086 -0.5015
  341MOL0     C46924   7.242   5.889  10.664  0.2522  0.5960  1.2129
  341MOL0     C46925   7.164   6.001  10.688  0.3960 -0.9640 -0.2059
  341MOL0     C46926   7.218   6.108  10.762  0.1759  0.5341  0.6848
  341MOL0     C46927   7.343   6.100  10.818  0.6675  0.5911  0.5780
  341MOL0     O46928   7.391   6.191  10.902 -0.1532 -0.3142  0.0045
  341MOL0     C46929   7.353   6.330  10.869 -0.0600 -0.0927 -0.9273
  341MOL0     C46930   7.463   6.422  10.921 -0.4126  0.3634 -0.3109
  341MOL0     C46931   7.603   6.413  10.857 -0.0813 -0.4774  0.1903
  341MOL0     C46932   7.670   6.556  10.872  0.6699  0.3102  0.3548
  341MOL0     C46933   7.822   6.549  10.868 -0.9023  0.2244 -0.6275
  341MOL0     C46934   7.883   6.519  11.005  0.3256  0.1932  0.5297
  341MOL0     C46935   8.028   6.547  10.987  0.3699 -0.4558 -0.4964
  341MOL0     C46936   8.105   6.457  10.886  0.0184  0.3238  0.1514
  341MOL0     N46937   8.249   6.471  10.878  0.0956  0.5407  0.1458
  341MOL0     C46938   8.318   6.584  10.919  0.3615 -0.9426 -0.5631
  341MOL0     C46939   8.444   6.556  10.879  0.1231 -0.3639  0.0708
  341MOL0     C46940   8.561   6.634  10.932 -0.0746  0.4214 -0.7153
  341MOL0     C46941   8.599   6.590  11.078  0.0056 -0.5260  0.4568
  341MOL0     C46942   8.641   6.453  11.090 -0.5877  0.2967 -0.0593
  341MOL0     C46943   8.783   6.422  11.052 -0.8369  0.3696 -0.0745
  341MOL0     O46944   8.877   6.447  11.157 -0.1970 -0.1123  0.7646
  341MOL0     C46945   9.002   6.408  11.129 -0.3084  0.5137  0.0552
  341MOL0     C46946   9.031   6.276  11.118 -0.3753 -0.1369 -0.6070
  341MOL0     C46947   9.160   6.225  11.094 -0.8977 -0.6379  0.1346
  341MOL0     C46948   9.186   6.077  11.099  0.7056  0.1173  0.2945
  341MOL0     C46949   9.264   6.322  11.060  0.4842  0.0362 -0.4690
  341MOL0     C46950   9.401   6.301  11.000  0.6231 -0.1482 -0.1751
  341MOL0     O46951   9.454   6.394  10.932 -0.1062  1.2088  0.1193
  341MOL0     C46952   9.562   6.368  10.853 -0.4153  0.2795 -0.1397
  341MOL0     C46953   9.677   6.448  10.857 -0.2832 -0.9394 -0.2758
  341MOL0     C46954   9.792   6.421  10.779  0.2423 -0.2569 -0.8944
  341MOL0     C46955   9.785   6.313  10.676 -0.4150 -0.0261 -0.4724
  341MOL0     O46956   9.885   6.298  10.590  0.2646  0.3198  0.4088
  341MOL0     C46957  10.013   6.363  10.611  0.2988  0.7085  0.0402
  341MOL0     C46958  10.111   6.281  10.529  0.0090 -1.4497 -0.3787
  341MOL0     C46959  10.145   6.154  10.609 -0.1044 -0.0614  0.6008
  341MOL0     C46960  10.242   6.063  10.536  0.4863  0.2084  0.9011
  341MOL0     C46961  10.244   5.926  10.602 -1.0592  0.5910  0.3518
  341MOL0     C46962  10.360   5.835  10.554  0.3423 -0.3306  0.3251
  341MOL0     C46963  10.321   5.743  10.450  0.2774  0.5043 -0.3694
  341MOL0     C46964  10.437   5.668  10.379  0.2454 -0.4827 -0.7452
  341MOL0    Cl46965  10.545   5.566  10.489 -0.5832 -0.1194  0.2754
  341MOL0     C46966   9.662   6.257  10.658 -0.4210 -0.6611  0.0912
  341MOL0     C46967   9.555   6.276  10.744 -0.4265 -0.5302  0.0090
  341MOL0     O46968   9.446   6.193  11.013  0.7786  0.7852  0.3760
  341MOL0     C46969   9.234   6.456  11.081  0.1936 -0.3872 -0.1966
  341MOL0     C46970   9.104   6.498  11.113 -0.3403  0.1883  0.5348
  341MOL0     N46971   8.441   6.443  10.799  0.2686 -0.0357 -0.7152
  341MOL0     N46972   8.325   6.392  10.804  0.5565  0.2630  0.4430
  341MOL0     C46973   7.422   5.988  10.785 -0.1445  0.9200 -0.3562
  341MOL0     C46974   7.370   5.877  10.717 -0.0928 -1.1576  0.0504
  341MOL0     C46975   7.153   5.677  10.382 -0.3770  0.0029  0.1421
  341MOL0     C46976   7.225   5.560  10.415  0.1720  0.0572 -0.9717
  341MOL0     C46977   7.212   5.440  10.351 -0.0858 -0.6250 -0.3360
  341MOL0     C46978   7.127   5.439  10.239  0.1669  0.8965 -0.3973
  341MOL0     O46979   7.106   5.325  10.157  0.3750  0.1647  0.5140
  341MOL0     C46980   7.180   5.205  10.180 -0.8380  0.1805 -0.6226
  341MOL0     C46981   7.174   5.096  10.083 -0.4824 -0.2400  1.1063
  341MOL0     C46982   7.035   5.043  10.037 -1.3047  0.5400  0.6821
  341MOL0     C46983   6.962   4.966  10.152 -0.0263 -0.5567  0.4448
  341MOL0     C46984   7.041   4.873  10.231 -1.7437  0.7908  0.4429
  341MOL0     C46985   7.119   4.792  10.280 -0.0689  0.2995  0.4738
  341MOL0     C46986   7.059   5.555  10.196  0.9220 -0.6407  0.5268
  341MOL0     C46987   7.080   5.679  10.265  0.5423 -0.1801  0.0109
  341MOL0     C46988   7.012   5.803  10.214 -0.5952 -0.3231  0.0706
  341MOL0     H46989   7.067   6.014  10.641  0.3595 -1.9397 -0.4199
  341MOL0     H46990   7.150   6.187  10.794 -0.4450 -0.0843  0.9098
  341MOL0     H46991   7.257   6.346  10.919  1.0739  1.5216  0.8691
  341MOL0     H46992   7.340   6.343  10.762  0.6346 -2.0031 -1.2888
  341MOL0     H46993   7.438   6.526  10.901 -0.8591 -0.1378 -2.6633
  341MOL0     H46994   7.471   6.404  11.028 -1.0044 -0.3075 -0.3719
  341MOL0     H46995   7.665   6.343  10.912  0.4503  1.6041  2.3823
  341MOL0     H46996   7.606   6.402  10.748  0.9099  0.9730  0.0423
  341MOL0     H46997   7.626   6.619  10.794  0.3786 -0.0720  0.2021
  341MOL0     H46998   7.631   6.597  10.965 -0.9058 -1.0586  0.3556
  341MOL0     H46999   7.843   6.653  10.841 -0.1046  0.4113  0.6656
  341MOL0     H47000   7.858   6.485  10.787  1.2643  0.0073  0.4502
  341MOL0     H47001   7.842   6.587  11.080 -0.9860  0.6909 -0.5839
  341MOL0     H47002   7.860   6.416  11.034  0.4043  0.1389  0.4025
  341MOL0     H47003   8.071   6.528  11.086 -0.1292 -0.2775 -0.2375
  341MOL0     H47004   8.042   6.652  10.959 -0.9584 -0.4553 -1.2303
  341MOL0     H47005   8.076   6.355  10.912  1.7555 -0.0837  0.5791
  341MOL0     H47006   8.059   6.479  10.789 -1.3571  4.4177  1.4950
  341MOL0     H47007   8.280   6.662  10.985 -3.1901 -2.5234 -0.5404
  341MOL0     H47008   8.551   6.742  10.917 -0.7746  0.2325 -1.6999
  341MOL0     H47009   8.645   6.596  10.873  0.3481  0.3566 -0.0724
  341MOL0     H47010   8.686   6.651  11.101 -1.5407  1.6630  0.8026
  341MOL0     H47011   8.511   6.623  11.134 -0.4847 -0.3248 -0.4076
  341MOL0     H47012   8.625   6.423  11.194 -1.4547 -1.1451 -0.5678
  341MOL0     H47013   8.569   6.390  11.037 -0.6804  1.2310 -1.0804
  341MOL0     H47014   8.784   6.319  11.016 -3.7527 -0.5998  2.2290
  341MOL0     H47015   8.805   6.478  10.961 -1.8664 -1.0892 -1.2589
  341MOL0     H47016   8.950   6.204  11.121  0.2806 -0.8516  0.4261
  341MOL0     H47017   9.092   6.035  11.138  0.1118 -0.3051 -1.4864
  341MOL0     H47018   9.266   6.048  11.168  0.2707  0.7017  1.0604
  341MOL0     H47019   9.198   6.036  10.998  1.3500 -0.0058  0.4153
  341MOL0     H47020   9.679   6.529  10.929 -1.4451 -0.1554 -1.0847
  341MOL0     H47021   9.880   6.480  10.801  0.8825 -2.3383  2.8080
  341MOL0     H47022  10.009   6.466  10.573  2.1991  0.4326 -0.9959
  341MOL0     H47023  10.040   6.348  10.716 -1.3993 -1.3430  0.2523
  341MOL0     H47024  10.061   6.248  10.437 -0.7008 -0.7200 -0.2647
  341MOL0     H47025  10.194   6.348  10.507 -2.3248  2.2329  1.0325
  341MOL0     H47026  10.050   6.104  10.632  0.4371 -1.3355  0.1371
  341MOL0     H47027  10.197   6.180  10.702 -0.5940 -1.7759  1.4000
  341MOL0     H47028  10.338   6.115  10.544  1.0085 -0.6829  0.4816
  341MOL0     H47029  10.210   6.050  10.432 -0.2211  1.6816  0.9015
  341MOL0     H47030  10.277   5.945  10.704  1.7964 -0.9192 -0.1645
  341MOL0     H47031  10.145   5.882  10.593 -1.3465  1.3326 -0.2081
  341MOL0     H47032  10.404   5.776  10.635 -0.7072  1.9660  2.6952
  341MOL0     H47033  10.432   5.899  10.501 -1.4936  1.1366 -0.5125
  341MOL0     H47034  10.264   5.797  10.374  1.3045 -0.1949 -1.6742
  341MOL0     H47035  10.246   5.676  10.493 -2.2827  3.8766  0.8916
  341MOL0     H47036  10.506   5.742  10.337 -0.6309  0.5120 -0.4707
  341MOL0     H47037  10.397   5.612  10.295 -0.5675  0.4438 -0.9949
  341MOL0     H47038   9.652   6.187  10.576  0.6277 -0.1071 -0.5315
  341MOL0     H47039   9.463   6.220  10.729  0.8185 -2.4182 -1.1244
  341MOL0     H47040   9.306   6.534  11.058  0.8868 -1.1407 -0.6153
  341MOL0     H47041   9.080   6.603  11.122  0.6042  0.5540 -0.8097
  341MOL0     H47042   7.527   5.991  10.813  0.9702 -0.7719 -3.7687
  341MOL0     H47043   7.427   5.791  10.684  0.3989 -1.4457  1.5556
  341MOL0     H47044   7.278   5.560  10.509 -0.0912 -3.0265 -0.7059
  341MOL0     H47045   7.287   5.365  10.376  2.5137  1.9298  0.0756
  341MOL0     H47046   7.285   5.236  10.177 -1.1368  1.3709  0.2864
  341MOL0     H47047   7.166   5.163  10.281  0.4829 -1.5211 -1.0913
  341MOL0     H47048   7.236   5.010  10.110 -1.7195 -1.7858 -0.6785
  341MOL0     H47049   7.224   5.135   9.994 -2.7345  1.5806  0.5499
  341MOL0     H47050   6.975   5.116   9.982  1.4121  1.3811 -1.3803
  341MOL0     H47051   7.073   4.977   9.958  1.7413  3.2056 -0.2993
  341MOL0     H47052   6.889   4.897  10.109 -1.3778  0.0262  1.7032
  341MOL0     H47053   6.891   5.022  10.214 -0.4113 -2.4643  1.8204
  341MOL0     H47054   7.185   4.725  10.331 -0.2956  0.4540  0.9758
  341MOL0     H47055   7.002   5.564  10.104  0.1948  1.1603  1.0983
  341MOL0     H47056   6.949   5.790  10.125 -1.8282  2.4644  0.4422
  341MOL0     H47057   6.967   5.870  10.288 -0.2674  0.5282 -0.4802
  341MOL0     H47058   7.096   5.858  10.170  2.4663 -4.2843  0.3830
  342MOL0     O47059   8.946   9.508  11.234 -0.2352  0.3295  0.0952
  342MOL0     C47060   8.897   9.550  11.132  0.5163  1.0253 -0.6612
  342MOL0     O47061   8.903   9.680  11.091  0.2252 -0.3876  0.1885
  342MOL0     C47062   9.003   9.765  11.134 -0.2579 -0.0689 -0.3241
  342MOL0     C47063   8.973   9.901  11.159 -0.1832 -0.4404 -0.0744
  342MOL0     C47064   9.078   9.988  11.187 -0.1959  0.4274 -0.6940
  342MOL0     C47065   9.201   9.939  11.218 -0.2179 -1.1757  0.0847
  342MOL0     O47066   9.278  10.035  11.276 -0.2265  0.2461  0.0657
  342MOL0     C47067   9.418  10.020  11.297 -1.5649  0.3860  0.0058
  342MOL0     C47068   9.509  10.008  11.164 -0.1453 -0.1274 -0.2815
  342MOL0     C47069   9.658   9.988  11.204  0.2425 -0.1672  0.2351
  342MOL0     C47070   9.734  10.117  11.251 -0.5282 -0.2959 -0.0237
  342MOL0     C47071   9.881  10.107  11.226 -0.2619 -0.2671 -1.2630
  342MOL0     C47072   9.933   9.985  11.296 -0.2843  0.3278 -0.5920
  342MOL0     C47073  10.088   9.985  11.290 -0.3154  0.8785 -0.4844
  342MOL0     C47074  10.162   9.855  11.325  0.5114 -0.1899 -0.4954
  342MOL0     N47075  10.145   9.833  11.470  0.0807 -0.3417 -0.0701
  342MOL0     C47076  10.145   9.922  11.587  0.8494  0.9419  1.0774
  342MOL0     C47077  10.147   9.836  11.691  0.4040  0.5178 -0.4876
  342MOL0     C47078  10.135   9.865  11.837 -1.0351  0.9406  0.4280
  342MOL0     C47079  10.273   9.873  11.895 -0.7299 -0.3023 -0.5755
  342MOL0     C47080  10.352   9.999  11.856  0.7368 -0.1877  0.3469
  342MOL0     C47081  10.470  10.020  11.941  0.3868  0.6515  0.1305
  342MOL0     O47082  10.527  10.155  11.916 -0.8003  0.2597  0.0727
  342MOL0     C47083  10.667  10.170  11.907 -0.0588 -0.2625  0.3648
  342MOL0     C47084  10.712  10.246  11.803 -0.4686 -0.4046 -0.1574
  342MOL0     C47085  10.852  10.254  11.776 -0.2936  0.6323  0.8820
  342MOL0     C47086  10.882  10.334  11.655 -0.1720 -0.8117 -0.5723
  342MOL0     C47087  10.946  10.206  11.871  0.1497  0.1992 -0.0744
  342MOL0     C47088  11.097  10.218  11.863 -0.3956  0.8563  0.0173
  342MOL0     O47089  11.174  10.164  11.962 -0.2114 -0.6426  0.2794
  342MOL0     C47090  11.313  10.175  11.974 -0.1181 -0.5840  0.6394
  342MOL0     C47091  11.382  10.293  11.936 -0.5938 -0.5872 -0.1117
  342MOL0     C47092  11.514  10.308  11.955 -0.2285  0.6431 -0.4882
  342MOL0     C47093  11.591  10.196  11.996  0.4542  0.0776  0.5111
  342MOL0     O47094  11.722  10.202  12.024 -0.5652  0.5733 -0.0496
  342MOL0     C47095  11.782  10.325  12.066  0.0530 -1.8491  0.6334
  342MOL0     C47096  11.859  10.408  11.958  0.3059 -0.0289  0.0955
  342MOL0     C47097  11.885  10.546  12.003  0.6286 -0.0465 -0.5758
  342MOL0     C47098  11.965  10.630  11.904 -0.0134  0.3152  0.7718
  342MOL0     C47099  11.884  10.747  11.860  0.2426  0.0743 -0.1287
  342MOL0     C47100  11.969  10.842  11.773 -0.3920 -0.0772  0.5269
  342MOL0     C47101  12.079  10.902  11.859  0.2620 -0.5013 -0.4292
  342MOL0     C47102  12.129  11.030  11.788 -0.7782  0.0559 -0.0585
  342MOL0    Cl47103  12.223  11.106  11.911  0.1305 -0.2931  0.1116
  342MOL0     C47104  11.528  10.082  12.038  0.4731  0.3482  0.8556
  342MOL0     C47105  11.385  10.063  12.017 -0.3252 -0.6248 -0.0540
  342MOL0     O47106  11.148  10.266  11.764 -0.2139  0.2747 -0.6799
  342MOL0     C47107  10.894  10.133  11.980 -1.2048  0.1691  0.1186
  342MOL0     C47108  10.759  10.109  11.989  0.2762  0.1970  0.7595
  342MOL0     N47109  10.153   9.706  11.646  0.0180  0.1811 -0.5024
  342MOL0     N47110  10.157   9.706  11.521 -1.3973  0.5596  0.2603
  342MOL0     C47111   9.233   9.806  11.201  0.8299 -0.1808  0.2492
  342MOL0     C47112   9.134   9.720  11.159  0.4013 -0.1040  0.2976
  342MOL0     C47113   8.820   9.460  11.034  0.2031  0.5483 -0.3808
  342MOL0     C47114   8.805   9.496  10.906 -0.0016 -0.2814  0.4496
  342MOL0     C47115   8.721   9.429  10.818 -0.3386  0.9077 -0.7571
  342MOL0     C47116   8.657   9.305  10.858 -0.6258  0.0929  0.4239
  342MOL0     O47117   8.580   9.224  10.768 -0.1953 -0.0349  0.1031
  342MOL0     C47118   8.471   9.287  10.694 -0.5067  0.0132 -0.2052
  342MOL0     C47119   8.343   9.208  10.712 -0.2648  0.2181  1.0442
  342MOL0     C47120   8.232   9.259  10.621  0.5537  0.2001 -0.3000
  342MOL0     C47121   8.115   9.310  10.699  0.2373 -0.5834  0.2095
  342MOL0     C47122   8.143   9.440  10.763 -0.7257 -1.4286  1.2825
  342MOL0     C47123   8.155   9.553  10.811 -0.4402  0.3633  0.1774
  342MOL0     C47124   8.693   9.255  10.985  0.4690 -0.5339  0.0689
  342MOL0     C47125   8.781   9.327  11.068  0.5275  0.2749  0.3317
  342MOL0     C47126   8.811   9.243  11.195  0.4823 -0.1794  0.3337
  342MOL0     H47127   8.874   9.943  11.143 -0.1020 -0.0436  0.4223
  342MOL0     H47128   9.079  10.096  11.200  0.6987  0.4151 -0.6136
  342MOL0     H47129   9.440   9.927  11.350  2.2256  1.3530  0.4264
  342MOL0     H47130   9.449  10.104  11.360  0.1531 -0.7136  0.7155
  342MOL0     H47131   9.468   9.930  11.100 -0.5860  0.7327 -1.0601
  342MOL0     H47132   9.502  10.107  11.119 -1.1420  0.3335  0.8504
  342MOL0     H47133   9.669   9.916  11.285  0.1497 -0.8632 -0.3576
  342MOL0     H47134   9.704   9.938  11.118  0.6733 -0.3126  0.5501
  342MOL0     H47135   9.697  10.185  11.174 -0.7398 -1.6920 -1.1889
  342MOL0     H47136   9.713  10.154  11.352 -0.3968  0.0297 -0.1153
  342MOL0     H47137   9.924  10.199  11.268 -1.5259  0.2238 -1.0081
  342MOL0     H47138   9.906  10.096  11.120  1.5616 -0.3556 -0.8589
  342MOL0     H47139   9.911   9.991  11.403  2.1125  1.2399 -0.0883
  342MOL0     H47140   9.894   9.893  11.252  1.4934 -0.7890  0.0371
  342MOL0     H47141  10.121  10.061  11.362  0.5287  0.4702 -0.4366
  342MOL0     H47142  10.113  10.012  11.187 -3.1650 -0.2873 -1.5820
  342MOL0     H47143  10.123   9.776  11.260 -0.8940  0.5448 -0.5888
  342MOL0     H47144  10.266   9.853  11.292 -0.2198 -3.3853 -3.1515
  342MOL0     H47145  10.145  10.031  11.588  1.1390  0.9421  1.7605
  342MOL0     H47146  10.089   9.774  11.876  0.2346 -0.5770 -1.4103
  342MOL0     H47147  10.069   9.950  11.858 -2.3918 -0.1839  0.8287
  342MOL0     H47148  10.265   9.866  12.003  3.1327  0.4826 -0.1099
  342MOL0     H47149  10.323   9.779  11.869 -0.6247 -0.7315  1.0718
  342MOL0     H47150  10.382   9.994  11.751  0.1798 -0.8998  0.2075
  342MOL0     H47151  10.276  10.077  11.870  0.3781 -0.5518  0.4505
  342MOL0     H47152  10.445  10.018  12.047  0.1528  3.1399  0.1978
  342MOL0     H47153  10.543   9.941  11.923 -0.3055 -0.2927  1.3510
  342MOL0     H47154  10.644  10.299  11.737  0.4258 -1.4346 -1.9950
  342MOL0     H47155  10.921  10.278  11.569 -1.3227 -1.1482 -0.8873
  342MOL0     H47156  10.945  10.421  11.679 -0.9756  0.2079 -1.9798
  342MOL0     H47157  10.788  10.381  11.625  1.1850  1.8136 -1.0441
  342MOL0     H47158  11.307  10.371  11.924 -0.8937 -1.1529 -2.5000
  342MOL0     H47159  11.561  10.406  11.956  0.5607  0.3585  3.2407
  342MOL0     H47160  11.713  10.386  12.125 -2.0437 -1.3336 -2.1416
  342MOL0     H47161  11.858  10.307  12.143  0.6977  2.6503  1.3642
  342MOL0     H47162  11.950  10.357  11.925 -0.8244  0.1161 -3.6847
  342MOL0     H47163  11.806  10.424  11.864 -0.2083  0.5427  0.4731
  342MOL0     H47164  11.945  10.544  12.094  1.1482 -1.1737 -0.9197
  342MOL0     H47165  11.791  10.593  12.035  1.2704  0.6589  0.3082
  342MOL0     H47166  11.986  10.576  11.811 -1.2994 -2.0815  1.7918
  342MOL0     H47167  12.046  10.669  11.966  0.1767  0.9185  0.1593
  342MOL0     H47168  11.798  10.718  11.800 -0.6682  1.0023  0.6929
  342MOL0     H47169  11.843  10.798  11.948 -2.4076  0.7035 -1.6442
  342MOL0     H47170  11.899  10.909  11.722 -0.6200 -0.3593  0.4611
  342MOL0     H47171  12.022  10.790  11.693  1.5325 -1.9196  2.8363
  342MOL0     H47172  12.163  10.838  11.885  2.8040  1.9242 -2.0359
  342MOL0     H47173  12.041  10.937  11.955 -0.6265 -1.1901 -0.5162
  342MOL0     H47174  12.053  11.099  11.750 -1.0270 -0.4529 -0.5174
  342MOL0     H47175  12.190  10.991  11.705 -4.4823 -1.1832 -2.5026
  342MOL0     H47176  11.591  10.002  12.077 -1.3202 -0.6348  1.8630
  342MOL0     H47177  11.347   9.967  12.050 -3.5459  0.4387 -0.3683
  342MOL0     H47178  10.967  10.094  12.051 -0.2760 -0.8926 -1.3404
  342MOL0     H47179  10.711  10.048  12.065 -1.5271  0.7273  0.0887
  342MOL0     H47180   9.332   9.763  11.209  2.4299  3.4777  3.4027
  342MOL0     H47181   9.173   9.621  11.136  1.7468 -0.4840  3.5533
  342MOL0     H47182   8.855   9.581  10.862 -2.4451  0.1646 -1.6882
  342MOL0     H47183   8.712   9.460  10.715 -1.7309  2.1893 -0.2731
  342MOL0     H47184   8.460   9.390  10.728 -2.9594  0.2568 -1.4798
  342MOL0     H47185   8.506   9.288  10.590  3.2472 -2.9259  0.8135
  342MOL0     H47186   8.298   9.209  10.812 -0.2902 -1.8276  1.1064
  342MOL0     H47187   8.366   9.102  10.695 -2.1076 -0.5373  2.8259
  342MOL0     H47188   8.273   9.342  10.564  0.7647  0.5748  0.3883
  342MOL0     H47189   8.192   9.177  10.561 -1.6593  1.0656 -0.0909
  342MOL0     H47190   8.080   9.234  10.769  2.6896 -1.0358  1.0602
  342MOL0     H47191   8.027   9.328  10.637 -1.3279  1.6973  2.8669
  342MOL0     H47192   8.176   9.650  10.851 -1.0567  1.0964 -1.2217
  342MOL0     H47193   8.654   9.155  11.003  1.3497 -0.8205  0.4407
  342MOL0     H47194   8.879   9.163  11.164 -0.0524  0.0976 -1.6914
  342MOL0     H47195   8.854   9.301  11.277 -0.7379  1.0978  0.1074
  342MOL0     H47196   8.718   9.200  11.235 -0.1754  3.3357  3.1431
  343MOL0     O47197   0.212   6.857   2.913  0.2438  0.0157 -0.1203
  343MOL0     C47198   0.142   6.782   2.852 -0.0002 -0.1707  0.0637
  343MOL0     O47199   0.181   6.665   2.804 -1.4796  0.5783  0.8622
  343MOL0     C47200   0.299   6.616   2.847  0.5023  1.5870  0.1392
  343MOL0     C47201   0.301   6.512   2.943 -0.1545  0.4312  0.5693
  343MOL0     C47202   0.420   6.458   2.977 -0.2853  0.7992  0.1045
  343MOL0     C47203   0.538   6.497   2.911 -0.1469 -0.6586  0.2435
  343MOL0     O47204   0.651   6.418   2.937  0.2372  0.0523 -0.4856
  343MOL0     C47205   0.771   6.474   2.896  0.3488  0.0489 -0.2230
  343MOL0     C47206   0.873   6.368   2.943 -0.6032  0.0777 -0.2610
  343MOL0     C47207   0.989   6.359   2.846  0.3526 -0.8256  0.2419
  343MOL0     C47208   1.090   6.267   2.895 -0.6053 -0.7492 -0.8381
  343MOL0     C47209   1.185   6.221   2.792  0.2817 -0.2516  0.1879
  343MOL0     C47210   1.285   6.329   2.769 -0.2008  0.1247  0.6394
  343MOL0     C47211   1.405   6.275   2.692  0.6037  0.0191 -0.2938
  343MOL0     C47212   1.524   6.378   2.685 -0.0251  0.0390 -0.0256
  343MOL0     N47213   1.496   6.476   2.585  0.4196  0.6215 -0.3151
  343MOL0     C47214   1.523   6.448   2.453  0.5581 -0.7526  0.1238
  343MOL0     C47215   1.457   6.562   2.399 -0.9618  0.5991  0.1689
  343MOL0     C47216   1.435   6.603   2.250  0.2429  0.2446  0.1073
  343MOL0     C47217   1.567   6.592   2.167  0.1761  0.0105 -0.4481
  343MOL0     C47218   1.682   6.696   2.209  0.5024 -0.3575  0.0207
  343MOL0     C47219   1.813   6.645   2.145  0.0057 -0.2507 -0.2023
  343MOL0     O47220   1.808   6.629   2.004  0.5741 -0.6982  0.4497
  343MOL0     C47221   1.898   6.544   1.950 -0.2766 -0.3442 -0.0788
  343MOL0     C47222   1.861   6.410   1.913 -0.7303  0.1537 -0.5159
  343MOL0     C47223   1.958   6.312   1.866 -0.1606 -0.9279 -0.7754
  343MOL0     C47224   1.899   6.176   1.848  0.4403  0.6437  0.5034
  343MOL0     C47225   2.087   6.357   1.837 -0.1914 -0.3413  0.4700
  343MOL0     C47226   2.182   6.268   1.785 -0.5311  0.9560 -0.4808
  343MOL0     O47227   2.265   6.321   1.696  0.2833  0.0452 -0.2356
  343MOL0     C47228   2.359   6.250   1.631  0.0927  0.3137  0.4354
  343MOL0     C47229   2.437   6.141   1.672  0.9490 -1.2940  0.0242
  343MOL0     C47230   2.525   6.071   1.589  0.8519 -0.4915  0.2654
  343MOL0     C47231   2.541   6.115   1.458  0.5275 -0.4654  0.5847
  343MOL0     O47232   2.614   6.035   1.377 -0.2056 -0.0467  0.1195
  343MOL0     C47233   2.677   6.085   1.253  0.1427 -1.0342  0.0435
  343MOL0     C47234   2.770   5.981   1.193  0.1333 -0.9475 -0.5065
  343MOL0     C47235   2.691   5.858   1.150 -0.0330  0.4645 -0.2843
  343MOL0     C47236   2.774   5.740   1.125  0.0005 -0.4026 -0.4255
  343MOL0     C47237   2.683   5.630   1.066  1.1698  0.5129 -0.4287
  343MOL0     C47238   2.762   5.533   0.977  0.4368 -0.6180 -0.3595
  343MOL0     C47239   2.791   5.409   1.055 -0.0422  0.7118  0.3125
  343MOL0     C47240   2.868   5.299   0.980  0.5871 -0.2661  1.1241
  343MOL0    Cl47241   2.972   5.366   0.862 -0.0601 -0.3389 -0.1966
  343MOL0     C47242   2.476   6.230   1.413 -0.0116  1.5761 -0.4961
  343MOL0     C47243   2.393   6.294   1.500  0.0989 -0.0118  0.1240
  343MOL0     O47244   2.201   6.161   1.846 -0.4704 -0.5367  0.5647
  343MOL0     C47245   2.119   6.499   1.858  0.4131 -0.1161 -0.1578
  343MOL0     C47246   2.028   6.589   1.915  0.2807  0.8898 -0.0313
  343MOL0     N47247   1.421   6.648   2.503  0.5971 -0.2799  0.5887
  343MOL0     N47248   1.425   6.588   2.614  0.8634  0.5763  0.3078
  343MOL0     C47249   0.533   6.599   2.817 -0.1523 -0.4444 -0.9000
  343MOL0     C47250   0.408   6.656   2.782 -0.5875 -0.4967  0.0024
  343MOL0     C47251   0.005   6.823   2.820  0.5691  0.5164 -0.7114
  343MOL0     C47252  -0.034   6.943   2.881 -0.5698 -1.3952  0.2220
  343MOL0     C47253  -0.161   6.992   2.872  0.0354  0.1239  0.4372
  343MOL0     C47254  -0.251   6.933   2.779  0.4666 -0.8511  0.1333
  343MOL0     O47255  -0.369   7.004   2.764  0.1036  0.6689 -0.4683
  343MOL0     C47256  -0.463   6.958   2.667 -0.6174  1.1234  1.0387
  343MOL0     C47257  -0.577   7.053   2.643  0.0176  0.0653  0.2092
  343MOL0     C47258  -0.708   6.983   2.593  0.7050  1.4442 -0.5910
  343MOL0     C47259  -0.834   7.065   2.614  0.3316 -0.1155 -0.8276
  343MOL0     C47260  -0.888   7.048   2.751  0.2567 -0.3780  0.4743
  343MOL0     C47261  -0.945   7.012   2.849  0.6516 -0.6184  0.3694
  343MOL0     C47262  -0.214   6.810   2.721  0.5841 -0.1798 -0.7146
  343MOL0     C47263  -0.089   6.755   2.745  0.3270 -0.6701  0.1293
  343MOL0     C47264  -0.070   6.617   2.695  0.3862  0.0687 -0.0226
  343MOL0     H47265   0.216   6.470   2.995  1.3304 -2.6188  0.8071
  343MOL0     H47266   0.427   6.395   3.065 -0.3688  0.0950 -0.3813
  343MOL0     H47267   0.790   6.572   2.940  3.9491 -1.1960  1.3918
  343MOL0     H47268   0.775   6.482   2.787 -1.9533 -0.3606 -0.3791
  343MOL0     H47269   0.910   6.393   3.043 -2.0002  1.7560 -0.1227
  343MOL0     H47270   0.826   6.269   2.940  0.6668 -0.5919  0.8353
  343MOL0     H47271   0.957   6.319   2.749  1.4661 -1.9674  0.3121
  343MOL0     H47272   1.016   6.465   2.845 -0.1812 -0.6875  0.0712
  343MOL0     H47273   1.148   6.316   2.974 -0.4590 -0.5566 -1.0654
  343MOL0     H47274   1.042   6.174   2.930 -1.2854  0.9681  3.4134
  343MOL0     H47275   1.128   6.191   2.703  0.5775  0.0848 -0.1184
  343MOL0     H47276   1.239   6.133   2.828 -1.4384  0.1841  4.3162
  343MOL0     H47277   1.234   6.405   2.710  2.4773 -1.1465 -3.8547
  343MOL0     H47278   1.317   6.388   2.856 -0.1818  0.9158  0.1004
  343MOL0     H47279   1.371   6.250   2.591  0.9507 -2.4713  0.1340
  343MOL0     H47280   1.437   6.182   2.740  1.7242 -0.3590 -1.7022
  343MOL0     H47281   1.542   6.423   2.783  0.6222  1.4057 -0.7412
  343MOL0     H47282   1.617   6.320   2.674  0.0660  0.1300  0.2475
  343MOL0     H47283   1.573   6.363   2.409  0.3821  0.5463 -2.8450
  343MOL0     H47284   1.391   6.703   2.248 -0.9306 -0.2558 -0.0013
  343MOL0     H47285   1.364   6.529   2.212  0.4708  0.1369 -0.1112
  343MOL0     H47286   1.614   6.493   2.174 -0.3876 -0.3112 -1.0784
  343MOL0     H47287   1.539   6.619   2.065 -1.4030  4.6693  0.9433
  343MOL0     H47288   1.657   6.798   2.178  0.5359 -0.3015  0.1707
  343MOL0     H47289   1.691   6.704   2.318 -0.2953  1.3230 -0.0078
  343MOL0     H47290   1.895   6.709   2.179 -0.7417  0.9667 -0.6269
  343MOL0     H47291   1.845   6.543   2.168  1.5922 -0.8794 -4.3381
  343MOL0     H47292   1.758   6.380   1.926 -0.7322  1.0328  2.4064
  343MOL0     H47293   1.792   6.171   1.869 -0.7901 -3.3217 -4.6126
  343MOL0     H47294   1.954   6.098   1.902  0.7235 -0.3559 -1.1469
  343MOL0     H47295   1.900   6.148   1.742 -1.1913 -1.2684  0.9431
  343MOL0     H47296   2.413   6.105   1.772 -2.1565 -0.8133 -0.4557
  343MOL0     H47297   2.578   5.983   1.624  0.0222 -1.4723 -0.8692
  343MOL0     H47298   2.589   6.100   1.189  1.1069  1.6404 -0.7972
  343MOL0     H47299   2.731   6.178   1.272 -1.0200 -0.3558  0.1494
  343MOL0     H47300   2.817   6.026   1.106  0.7143  1.5149  0.9683
  343MOL0     H47301   2.849   5.947   1.260  0.8721 -0.5947 -1.1877
  343MOL0     H47302   2.629   5.879   1.062 -2.1956  0.8132  1.2541
  343MOL0     H47303   2.617   5.831   1.226 -1.0740 -0.3998 -1.5448
  343MOL0     H47304   2.813   5.700   1.218 -1.9870  1.8087  1.4987
  343MOL0     H47305   2.863   5.766   1.066 -0.6730 -0.1385 -1.3483
  343MOL0     H47306   2.636   5.582   1.152 -0.3512 -2.1125 -2.5574
  343MOL0     H47307   2.599   5.671   1.008  1.2882 -0.5402 -1.3708
  343MOL0     H47308   2.846   5.584   0.931 -1.0538  2.7682  0.3317
  343MOL0     H47309   2.707   5.500   0.889 -0.2008  1.7421 -0.9147
  343MOL0     H47310   2.701   5.356   1.087  0.9173 -0.6831  0.7585
  343MOL0     H47311   2.853   5.448   1.136 -1.0295  1.5380  0.6939
  343MOL0     H47312   2.806   5.228   0.925 -0.3410 -0.0730  1.8979
  343MOL0     H47313   2.930   5.246   1.053 -0.1381 -1.8594  0.6220
  343MOL0     H47314   2.481   6.276   1.315 -0.7029 -0.2573 -1.4453
  343MOL0     H47315   2.349   6.382   1.454 -1.4934 -0.7829  0.0927
  343MOL0     H47316   2.218   6.533   1.828  0.4398  0.7417  0.8480
  343MOL0     H47317   2.056   6.694   1.918  0.5620  0.8500 -0.9065
  343MOL0     H47318   0.618   6.646   2.768  0.3202 -1.3987 -1.0050
  343MOL0     H47319   0.410   6.726   2.699  3.1052 -1.3422 -0.8040
  343MOL0     H47320   0.039   6.987   2.948  2.2799 -3.7933 -1.0817
  343MOL0     H47321  -0.204   7.073   2.930  0.7126  0.1260  0.9418
  343MOL0     H47322  -0.412   6.931   2.574 -2.7821 -0.9128  0.3424
  343MOL0     H47323  -0.499   6.863   2.705  0.9261  0.6848  1.4684
  343MOL0     H47324  -0.546   7.116   2.558  3.1478 -2.0936 -0.4291
  343MOL0     H47325  -0.599   7.118   2.728  0.1156 -0.0040  0.2879
  343MOL0     H47326  -0.697   6.968   2.485 -0.0211  0.2621 -0.5264
  343MOL0     H47327  -0.717   6.884   2.639  2.1133  1.3738 -0.4164
  343MOL0     H47328  -0.897   7.019   2.538 -0.6834 -1.3037  0.6586
  343MOL0     H47329  -0.791   7.164   2.594  2.1821 -1.1053 -2.0588
  343MOL0     H47330  -0.982   6.956   2.932  2.0485 -2.4828 -0.1935
  343MOL0     H47331  -0.283   6.759   2.654 -1.3892  0.9249  0.3814
  343MOL0     H47332   0.020   6.604   2.633 -0.1098 -1.2631 -0.4881
  343MOL0     H47333  -0.062   6.551   2.782 -1.5374 -0.0607  0.0819
  343MOL0     H47334  -0.154   6.588   2.632 -1.4503  4.0271  0.2738
  344MOL0     O47335   8.890   0.306   8.744 -0.7056 -0.0678 -0.2812
  344MOL0     C47336   8.808   0.388   8.711  0.0789 -0.1605 -0.1087
  344MOL0     O47337   8.801   0.516   8.753  0.2722  0.1127  1.7905
  344MOL0     C47338   8.912   0.569   8.820 -0.3312 -0.4180  0.7086
  344MOL0     C47339   8.909   0.599   8.955 -0.0789 -1.2923 -0.0467
  344MOL0     C47340   9.025   0.628   9.022 -0.4109 -0.1199  0.9750
  344MOL0     C47341   9.144   0.647   8.954  0.1757 -0.0019  0.6837
  344MOL0     O47342   9.247   0.677   9.034  0.0125  0.1481  0.6289
  344MOL0     C47343   9.348   0.577   9.045 -0.1556  0.1535 -0.0855
  344MOL0     C47344   9.440   0.592   9.169  0.3374  0.1383  0.0908
  344MOL0     C47345   9.533   0.705   9.155 -0.6258 -0.0278 -0.0289
  344MOL0     C47346   9.629   0.722   9.275  0.1980  0.6429  0.0711
  344MOL0     C47347   9.748   0.629   9.286  0.0222  0.3320 -0.4591
  344MOL0     C47348   9.865   0.641   9.177 -0.0506  0.2340 -1.4385
  344MOL0     C47349   9.921   0.787   9.150  0.8244 -0.4274  0.1048
  344MOL0     C47350  10.056   0.796   9.083  0.4079 -0.5293 -0.3333
  344MOL0     N47351  10.053   0.748   8.942  0.1856  0.8040 -0.1277
  344MOL0     C47352   9.959   0.785   8.844  0.7987  0.0949 -0.0252
  344MOL0     C47353  10.025   0.759   8.728  0.4940  0.0087 -0.1763
  344MOL0     C47354   9.975   0.791   8.594  0.5607 -1.0057 -0.4214
  344MOL0     C47355   9.829   0.753   8.563  1.2349 -0.0849 -0.0217
  344MOL0     C47356   9.793   0.829   8.436  0.0945  1.1632  0.5354
  344MOL0     C47357   9.650   0.794   8.388 -0.6984  0.1853 -0.5089
  344MOL0     O47358   9.629   0.802   8.245  0.1036 -0.1286 -0.4215
  344MOL0     C47359   9.642   0.918   8.180  0.3884  0.1395  0.3499
  344MOL0     C47360   9.743   0.929   8.086  1.3200 -0.2661 -0.2201
  344MOL0     C47361   9.744   1.048   8.008 -0.3555 -0.5558  0.0869
  344MOL0     C47362   9.840   1.057   7.901 -0.5197  0.6377 -0.6491
  344MOL0     C47363   9.644   1.153   8.024 -1.3236 -0.4904  0.0156
  344MOL0     C47364   9.622   1.275   7.942 -0.0015  0.0928 -0.0175
  344MOL0     O47365   9.698   1.292   7.831  0.4459  0.5217 -0.3507
  344MOL0     C47366   9.683   1.416   7.766  0.5803 -0.4143  0.9579
  344MOL0     C47367   9.604   1.454   7.657 -0.7508  0.0415  0.2119
  344MOL0     C47368   9.610   1.587   7.604 -0.3703  0.5482 -0.5105
  344MOL0     C47369   9.686   1.693   7.664  0.3342 -0.1111  0.6844
  344MOL0     O47370   9.685   1.819   7.615 -0.2090 -0.2071  0.0730
  344MOL0     C47371   9.565   1.891   7.635 -0.5592 -0.0119  0.9790
  344MOL0     C47372   9.530   1.971   7.511  0.9212 -0.1670  0.0578
  344MOL0     C47373   9.501   1.877   7.395 -1.2341  0.6468  1.2365
  344MOL0     C47374   9.418   1.956   7.300 -0.4048 -0.0494  0.9319
  344MOL0     C47375   9.398   1.860   7.165  0.7378  0.0774  0.7098
  344MOL0     C47376   9.285   1.764   7.190  0.5006 -0.3126 -0.1429
  344MOL0     C47377   9.151   1.827   7.141 -0.3211  0.8513 -0.8635
  344MOL0     C47378   9.040   1.724   7.161  0.0081 -0.7869  0.0137
  344MOL0    Cl47379   8.887   1.802   7.130  0.0396 -0.1026 -0.2973
  344MOL0     C47380   9.757   1.660   7.774 -0.2322 -0.3194  0.0303
  344MOL0     C47381   9.760   1.524   7.820 -0.2424  0.0627 -0.9182
  344MOL0     O47382   9.538   1.353   7.980 -0.2235 -0.5200  0.2923
  344MOL0     C47383   9.553   1.126   8.122  0.3651 -0.4087  0.0987
  344MOL0     C47384   9.550   1.010   8.199  0.2703 -0.1317  0.0423
  344MOL0     N47385  10.157   0.721   8.758  0.7073 -0.0393  0.2789
  344MOL0     N47386  10.166   0.707   8.885 -0.4220 -0.1708  0.1721
  344MOL0     C47387   9.153   0.626   8.815 -0.7095  0.0897 -0.8548
  344MOL0     C47388   9.033   0.588   8.748 -1.5343 -0.0270  0.2196
  344MOL0     C47389   8.683   0.347   8.631 -0.7598 -0.3439 -0.5994
  344MOL0     C47390   8.568   0.416   8.649  0.7679 -0.6099 -0.3577
  344MOL0     C47391   8.448   0.373   8.588 -0.4587  0.6684 -0.5748
  344MOL0     C47392   8.441   0.254   8.513 -0.0163 -0.6489  0.6238
  344MOL0     O47393   8.320   0.217   8.459 -0.4777  0.1510 -0.1602
  344MOL0     C47394   8.314   0.146   8.334 -0.8574 -0.2104  0.4076
  344MOL0     C47395   8.173   0.148   8.285 -0.6861 -0.1012 -0.4171
  344MOL0     C47396   8.116   0.278   8.251 -0.0903 -0.3233 -0.4480
  344MOL0     C47397   8.110   0.382   8.370  0.5605  0.7522 -0.5687
  344MOL0     C47398   8.020   0.340   8.483  0.5402  0.2895 -0.1298
  344MOL0     C47399   7.944   0.319   8.574  1.0507  1.5252 -0.5989
  344MOL0     C47400   8.562   0.181   8.498 -0.2298 -0.4751 -0.2439
  344MOL0     C47401   8.683   0.235   8.544 -0.2552 -0.3333  0.2957
  344MOL0     C47402   8.808   0.160   8.507  0.0822  0.7883 -0.2389
  344MOL0     H47403   8.816   0.592   9.012  0.3667 -3.8819  0.5085
  344MOL0     H47404   9.021   0.647   9.129 -0.9666  1.4221  0.7054
  344MOL0     H47405   9.414   0.562   8.959  0.8321 -0.2470  0.7214
  344MOL0     H47406   9.291   0.484   9.049  0.0067 -0.1186 -2.4355
  344MOL0     H47407   9.377   0.592   9.260 -2.7867 -2.2029 -1.8475
  344MOL0     H47408   9.501   0.502   9.169  1.2926  0.7754 -0.0433
  344MOL0     H47409   9.601   0.699   9.069 -0.5326 -2.2636  0.1411
  344MOL0     H47410   9.480   0.800   9.152  1.4724  1.2544  0.9176
  344MOL0     H47411   9.654   0.828   9.269 -3.4147  1.7279  1.3594
  344MOL0     H47412   9.570   0.719   9.367  0.5579  1.1255  0.3170
  344MOL0     H47413   9.719   0.523   9.291  1.5093 -0.0702  0.0375
  344MOL0     H47414   9.801   0.647   9.380  2.9709 -2.8817 -1.3077
  344MOL0     H47415   9.946   0.575   9.207  0.6518  1.5237 -0.4022
  344MOL0     H47416   9.823   0.595   9.087  0.2922  0.7466 -1.8646
  344MOL0     H47417   9.930   0.840   9.245  0.9976  0.0946 -0.2043
  344MOL0     H47418   9.852   0.840   9.083  0.4943 -1.2765 -0.2445
  344MOL0     H47419  10.085   0.901   9.092  1.6733 -0.9957  1.4069
  344MOL0     H47420  10.121   0.734   9.145  4.4427  4.1922  0.7569
  344MOL0     H47421   9.859   0.826   8.852  0.2752 -1.5077  4.5172
  344MOL0     H47422  10.043   0.747   8.520  3.4824 -0.7167  1.8898
  344MOL0     H47423   9.981   0.899   8.580  0.7955 -0.8535  0.7713
  344MOL0     H47424   9.832   0.647   8.540  0.4187 -0.4866  1.5474
  344MOL0     H47425   9.773   0.761   8.657  0.7365 -0.8352 -0.2523
  344MOL0     H47426   9.783   0.937   8.446  3.3068  2.0147 -3.0152
  344MOL0     H47427   9.867   0.810   8.357  1.2205 -0.0504  1.8249
  344MOL0     H47428   9.619   0.694   8.418  0.2154 -0.2557 -1.0054
  344MOL0     H47429   9.581   0.868   8.430  0.8757  0.3747  1.9551
  344MOL0     H47430   9.810   0.845   8.071 -0.4748 -1.4372 -2.4274
  344MOL0     H47431   9.886   1.156   7.906 -0.8688  0.8030 -0.6693
  344MOL0     H47432   9.780   1.028   7.814  1.1120 -2.4196 -0.8618
  344MOL0     H47433   9.926   0.991   7.904  2.5890  4.3632  0.5477
  344MOL0     H47434   9.541   1.384   7.603  0.9935  1.0926 -3.5149
  344MOL0     H47435   9.537   1.616   7.529 -0.5414 -1.2182 -1.0738
  344MOL0     H47436   9.474   1.833   7.654 -0.3553 -0.9489 -0.6820
  344MOL0     H47437   9.573   1.968   7.712 -2.6659  0.3492  0.8803
  344MOL0     H47438   9.436   2.025   7.528  1.1008 -0.2072  1.2018
  344MOL0     H47439   9.605   2.043   7.479 -0.9911  2.0665  0.3471
  344MOL0     H47440   9.451   1.786   7.429  1.2430  0.2460  4.3067
  344MOL0     H47441   9.595   1.844   7.350 -0.5774  4.4033 -0.5415
  344MOL0     H47442   9.481   2.035   7.258  1.6729 -2.0344  0.0631
  344MOL0     H47443   9.317   1.988   7.326 -2.0566 -3.0165 -1.2338
  344MOL0     H47444   9.373   1.911   7.072  1.2106 -1.5188 -0.3336
  344MOL0     H47445   9.491   1.804   7.151  0.9017  0.1461  1.4700
  344MOL0     H47446   9.271   1.755   7.298 -0.5815 -3.8602 -0.4584
  344MOL0     H47447   9.310   1.661   7.161  2.2341 -1.0896  3.4495
  344MOL0     H47448   9.156   1.868   7.040  1.1559  0.8863 -0.8007
  344MOL0     H47449   9.132   1.911   7.209 -0.3017 -2.7236  4.1373
  344MOL0     H47450   9.042   1.674   7.258  1.7087 -0.6616  0.0720
  344MOL0     H47451   9.044   1.636   7.096  3.3226 -0.0723 -0.9201
  344MOL0     H47452   9.797   1.740   7.835  0.5127 -0.6747  0.0262
  344MOL0     H47453   9.799   1.514   7.921 -2.3036  0.4477 -0.0483
  344MOL0     H47454   9.476   1.200   8.141 -1.3371 -1.9195 -0.5822
  344MOL0     H47455   9.469   1.003   8.271  0.1507  0.0425 -0.0779
  344MOL0     H47456   9.246   0.628   8.758  1.0091 -1.5109  1.7120
  344MOL0     H47457   9.031   0.573   8.641 -0.4584 -2.8543  0.5374
  344MOL0     H47458   8.566   0.508   8.707 -0.1484 -0.4437 -0.6461
  344MOL0     H47459   8.355   0.427   8.595  0.9364  3.0590  1.4279
  344MOL0     H47460   8.383   0.197   8.266 -1.1017  0.7546  0.8519
  344MOL0     H47461   8.345   0.042   8.327  0.1132  0.0092  1.2580
  344MOL0     H47462   8.094   0.115   8.354 -1.9808  3.6049  0.1236
  344MOL0     H47463   8.170   0.086   8.195  3.5703 -1.2442  0.0084
  344MOL0     H47464   8.166   0.321   8.163 -1.6085  0.7365 -0.8227
  344MOL0     H47465   8.011   0.272   8.223 -0.7249 -2.1149  1.9895
  344MOL0     H47466   8.061   0.469   8.325 -3.1343 -0.9015 -0.0907
  344MOL0     H47467   8.210   0.411   8.406 -0.0265  1.5305  0.5224
  344MOL0     H47468   7.866   0.294   8.643 -1.5801  0.7420 -3.6157
  344MOL0     H47469   8.564   0.093   8.434  2.0474 -1.7314  1.4485
  344MOL0     H47470   8.820   0.084   8.585 -1.0095 -0.5717 -1.3415
  344MOL0     H47471   8.804   0.107   8.412  0.4242 -0.4221  0.4064
  344MOL0     H47472   8.894   0.227   8.497 -0.0271  1.2605  1.5441
  345MOL0     O47473   3.453   8.965   6.682 -0.2156  0.2141 -0.4212
  345MOL0     C47474   3.523   8.865   6.674 -0.2250 -0.9139  0.5857
  345MOL0     O47475   3.637   8.850   6.731 -0.8296 -0.5182 -0.4398
  345MOL0     C47476   3.682   8.962   6.798 -1.0909 -0.3159  0.2677
  345MOL0     C47477   3.654   8.968   6.936 -0.5693  0.1287 -0.6733
  345MOL0     C47478   3.710   9.075   7.018 -0.6501 -0.0198 -0.2073
  345MOL0     C47479   3.801   9.174   6.958 -0.4548 -0.0323  0.4538
  345MOL0     O47480   3.864   9.275   7.035 -0.1493  0.4136  0.4174
  345MOL0     C47481   3.786   9.319   7.143 -1.0503  1.2355  0.4124
  345MOL0     C47482   3.861   9.423   7.227 -0.1509 -1.3796 -0.1706
  345MOL0     C47483   4.014   9.406   7.242  0.0430 -0.8931 -0.4527
  345MOL0     C47484   4.044   9.337   7.381  0.1727  0.2102  0.2298
  345MOL0     C47485   4.001   9.190   7.380 -0.3228  0.6212  0.3841
  345MOL0     C47486   4.071   9.097   7.259  0.5899 -0.2133 -0.0321
  345MOL0     C47487   4.125   8.958   7.301 -0.7540  0.7231  0.1115
  345MOL0     C47488   4.262   8.963   7.368  0.0263  0.1339 -0.3365
  345MOL0     N47489   4.307   8.848   7.447  0.7437 -0.3272 -0.0619
  345MOL0     C47490   4.369   8.738   7.384  0.7769  0.1949 -0.9368
  345MOL0     C47491   4.402   8.672   7.498  0.2274  0.1688  0.1371
  345MOL0     C47492   4.479   8.547   7.487  0.1572 -0.0930 -1.2409
  345MOL0     C47493   4.625   8.570   7.536  0.5085  0.2819  0.0764
  345MOL0     C47494   4.689   8.682   7.443  0.3844 -0.4926  0.7452
  345MOL0     C47495   4.830   8.641   7.402 -0.2111 -0.2549  0.3535
  345MOL0     O47496   4.932   8.635   7.512 -0.2549  0.3720  0.1453
  345MOL0     C47497   5.064   8.600   7.501 -0.4021 -0.3803 -0.6548
  345MOL0     C47498   5.115   8.560   7.380 -0.1362  0.6398 -0.2581
  345MOL0     C47499   5.243   8.523   7.348 -0.6995 -1.2531  0.2687
  345MOL0     C47500   5.264   8.494   7.212 -0.5713  0.3413  0.5880
  345MOL0     C47501   5.349   8.540   7.449  0.0556 -0.3236 -0.1603
  345MOL0     C47502   5.485   8.499   7.431 -0.7242  0.1937 -0.2552
  345MOL0     O47503   5.513   8.371   7.375 -0.2218 -0.6813  0.2939
  345MOL0     C47504   5.646   8.344   7.359 -0.7642 -0.2355  0.6436
  345MOL0     C47505   5.731   8.399   7.263  0.5490 -0.2579  0.2622
  345MOL0     C47506   5.867   8.391   7.280  0.4462  0.6265 -1.1004
  345MOL0     C47507   5.919   8.312   7.385  0.4351  0.2987  0.5682
  345MOL0     O47508   6.051   8.322   7.397 -0.1673 -0.0724  0.2306
  345MOL0     C47509   6.122   8.230   7.484 -0.0032  0.5106 -0.0381
  345MOL0     C47510   6.269   8.219   7.425  0.3880 -1.1747  0.6835
  345MOL0     C47511   6.345   8.119   7.500 -0.8928  0.4318 -0.1804
  345MOL0     C47512   6.495   8.115   7.447  0.8186 -0.2423 -0.3660
  345MOL0     C47513   6.568   7.983   7.488 -0.2888 -0.4470 -0.6343
  345MOL0     C47514   6.712   7.971   7.442  0.5141 -0.1334  0.0240
  345MOL0     C47515   6.782   7.840   7.493  0.0240 -0.2466 -0.1689
  345MOL0     C47516   6.894   7.806   7.404 -0.1064 -0.7405  0.2049
  345MOL0    Cl47517   6.957   7.660   7.477  0.3450 -0.0383 -0.6515
  345MOL0     C47518   5.831   8.232   7.463  1.1558 -0.5643 -0.1724
  345MOL0     C47519   5.694   8.251   7.449 -0.4074  0.1102 -0.8875
  345MOL0     O47520   5.566   8.573   7.480  0.4092 -0.1045 -0.0450
  345MOL0     C47521   5.296   8.596   7.572  0.4404 -0.5278  0.4190
  345MOL0     C47522   5.162   8.631   7.593 -0.4301 -0.6594 -1.1198
  345MOL0     N47523   4.368   8.733   7.618  0.3293  0.0635 -0.7872
  345MOL0     N47524   4.318   8.848   7.579  0.3338 -0.6412 -0.2751
  345MOL0     C47525   3.817   9.156   6.819 -0.7309 -0.4751 -0.4643
  345MOL0     C47526   3.763   9.059   6.736 -0.8087  0.5240 -1.5275
  345MOL0     C47527   3.481   8.756   6.586  0.3263 -0.7757 -0.0733
  345MOL0     C47528   3.471   8.632   6.638 -0.4485  0.9197  0.1811
  345MOL0     C47529   3.427   8.532   6.554 -0.6760 -0.3481  0.0678
  345MOL0     C47530   3.392   8.552   6.420 -0.5026 -0.6337 -0.8893
  345MOL0     O47531   3.333   8.448   6.352  0.1441  0.0733 -0.5029
  345MOL0     C47532   3.361   8.447   6.221  0.1315 -0.1494 -0.3400
  345MOL0     C47533   3.298   8.322   6.159 -0.0441 -0.0027 -0.2521
  345MOL0     C47534   3.349   8.303   6.011  0.0244  0.3625 -1.1904
  345MOL0     C47535   3.279   8.182   5.937 -0.4087 -0.4572  0.4530
  345MOL0     C47536   3.295   8.057   6.012 -0.5864 -0.5985  0.4281
  345MOL0     C47537   3.313   7.962   6.078 -0.6453  0.0883  0.2939
  345MOL0     C47538   3.426   8.682   6.362  0.6938  0.2478  0.2351
  345MOL0     C47539   3.464   8.785   6.450  0.0110  0.2552  0.5857
  345MOL0     C47540   3.501   8.933   6.398  0.3538  0.6579  1.0342
  345MOL0     H47541   3.587   8.888   6.966 -2.9539  1.8231 -1.1865
  345MOL0     H47542   3.695   9.068   7.125  1.2835  0.3942  0.1252
  345MOL0     H47543   3.774   9.236   7.212  2.4106  1.4902  1.4860
  345MOL0     H47544   3.691   9.352   7.099 -1.3269 -1.2738 -1.0416
  345MOL0     H47545   3.837   9.525   7.195 -1.1412 -0.5058  3.0066
  345MOL0     H47546   3.825   9.419   7.331  2.2127  0.9206  0.8441
  345MOL0     H47547   4.062   9.349   7.161  1.1747  1.3229 -1.4399
  345MOL0     H47548   4.060   9.505   7.249  0.8930 -1.3934  2.9601
  345MOL0     H47549   4.153   9.340   7.388  0.1885 -1.3922  0.9394
  345MOL0     H47550   4.007   9.394   7.467 -2.3121 -1.4702  0.3759
  345MOL0     H47551   3.893   9.177   7.371 -0.3880  1.8083 -0.8086
  345MOL0     H47552   4.028   9.143   7.475  0.1654 -0.5669 -0.3206
  345MOL0     H47553   4.004   9.089   7.173  1.1696 -1.0902 -0.4234
  345MOL0     H47554   4.152   9.151   7.210 -1.6009  3.3314 -0.0537
  345MOL0     H47555   4.125   8.890   7.216  0.7373  0.3458  0.3909
  345MOL0     H47556   4.051   8.925   7.375 -0.6909  0.0377 -0.1334
  345MOL0     H47557   4.342   8.994   7.300 -1.0014  3.6759 -0.1295
  345MOL0     H47558   4.270   9.048   7.436  0.7453  2.9846 -3.6886
  345MOL0     H47559   4.387   8.730   7.277  0.3559 -1.2498 -0.9229
  345MOL0     H47560   4.481   8.519   7.381  0.9861  2.3909 -1.9535
  345MOL0     H47561   4.427   8.466   7.538 -2.2898  1.5468 -0.9383
  345MOL0     H47562   4.627   8.602   7.641  0.6832 -3.0252  1.1869
  345MOL0     H47563   4.681   8.477   7.547 -2.1870 -1.4144  0.5565
  345MOL0     H47564   4.631   8.709   7.354  4.4093  0.3615 -1.8554
  345MOL0     H47565   4.703   8.772   7.503 -1.9931  0.3521  0.1476
  345MOL0     H47566   4.824   8.539   7.362  1.9924 -0.9161  1.5665
  345MOL0     H47567   4.856   8.708   7.319  1.9735 -1.2676  0.1340
  345MOL0     H47568   5.045   8.546   7.298 -1.0920 -0.5971  0.7319
  345MOL0     H47569   5.227   8.392   7.195  0.5808  0.3151 -2.2814
  345MOL0     H47570   5.369   8.496   7.184 -1.1786  1.1788 -1.8311
  345MOL0     H47571   5.213   8.556   7.138  1.7745  1.2517 -0.3371
  345MOL0     H47572   5.689   8.460   7.184  2.1938  0.2116 -0.2797
  345MOL0     H47573   5.926   8.454   7.213 -0.1686  0.3925 -1.8780
  345MOL0     H47574   6.125   8.272   7.585  0.4659 -0.0232  0.1741
  345MOL0     H47575   6.084   8.128   7.477 -1.6862  1.0851  0.2871
  345MOL0     H47576   6.262   8.195   7.319 -4.8066  2.0352 -0.0483
  345MOL0     H47577   6.324   8.313   7.422  0.4461 -1.1676  1.5150
  345MOL0     H47578   6.297   8.021   7.498 -1.9700  0.8198  2.6610
  345MOL0     H47579   6.357   8.160   7.601  0.3020 -1.0816  0.3365
  345MOL0     H47580   6.540   8.210   7.477 -0.7286  0.1003  1.0316
  345MOL0     H47581   6.487   8.108   7.338  1.0997 -4.1703 -0.2949
  345MOL0     H47582   6.568   7.981   7.598  0.4599  2.3112 -0.4985
  345MOL0     H47583   6.510   7.894   7.462 -1.9372  0.7309 -1.2118
  345MOL0     H47584   6.768   8.060   7.474  0.9249  0.9702 -3.3328
  345MOL0     H47585   6.709   7.980   7.333 -1.3493  0.4510  0.0853
  345MOL0     H47586   6.716   7.753   7.485  1.3420 -1.6879  3.1429
  345MOL0     H47587   6.812   7.842   7.598  3.6667  1.2845 -1.0750
  345MOL0     H47588   6.971   7.883   7.393 -2.2105  1.3107 -1.0890
  345MOL0     H47589   6.867   7.781   7.301  1.2425 -0.2072 -0.3057
  345MOL0     H47590   5.875   8.158   7.530  2.2241 -0.2267 -0.4845
  345MOL0     H47591   5.633   8.195   7.519  2.0981  0.6972  2.0170
  345MOL0     H47592   5.372   8.616   7.647 -0.1951 -0.6134  1.0962
  345MOL0     H47593   5.146   8.671   7.693 -0.3846  2.4996 -2.2823
  345MOL0     H47594   3.878   9.238   6.781 -3.0099  1.7611  0.3532
  345MOL0     H47595   3.790   9.050   6.631 -0.2717 -2.0787 -1.2253
  345MOL0     H47596   3.474   8.611   6.744  0.3439  3.1297  0.6480
  345MOL0     H47597   3.405   8.435   6.599  0.4580 -0.1056  1.1908
  345MOL0     H47598   3.305   8.526   6.169 -3.5299 -1.7073  0.9042
  345MOL0     H47599   3.467   8.449   6.195  0.0320  1.4285 -0.7511
  345MOL0     H47600   3.189   8.334   6.160 -0.3918 -2.3058 -1.6436
  345MOL0     H47601   3.313   8.234   6.221  2.3481 -0.3032 -1.1512
  345MOL0     H47602   3.313   8.389   5.954  0.3261 -0.7581 -3.1738
  345MOL0     H47603   3.458   8.296   6.006  0.0995 -2.2675  1.2789
  345MOL0     H47604   3.322   8.168   5.837 -1.2986 -0.3915  0.0472
  345MOL0     H47605   3.173   8.203   5.918 -0.1147  1.4011  0.6681
  345MOL0     H47606   3.333   7.868   6.126 -1.6464 -0.0279  0.5109
  345MOL0     H47607   3.409   8.702   6.257  1.3605  0.4611  0.1671
  345MOL0     H47608   3.537   8.933   6.295 -2.8411  0.0222 -0.1803
  345MOL0     H47609   3.412   8.996   6.401 -0.0471  0.4134 -2.3629
  345MOL0     H47610   3.587   8.970   6.455  1.0536 -2.9018  2.5265
  346MOL0     O47611   4.879   5.079   9.572 -0.6433  0.1197 -0.3993
  346MOL0     C47612   4.786   5.161   9.603 -0.6708  0.0180 -0.1786
  346MOL0     O47613   4.803   5.269   9.676  0.3504 -0.1411  0.2286
  346MOL0     C47614   4.912   5.279   9.753  0.4301 -0.0779 -0.2593
  346MOL0     C47615   5.035   5.304   9.702  0.1493 -0.8022 -0.8699
  346MOL0     C47616   5.151   5.289   9.776  0.1977  0.2007  0.0718
  346MOL0     C47617   5.135   5.285   9.921  0.7252 -0.2447  0.5097
  346MOL0     O47618   5.245   5.283  10.003  0.1529 -0.0808  0.9580
  346MOL0     C47619   5.374   5.257   9.946  0.2469  0.5091  0.0301
  346MOL0     C47620   5.474   5.216  10.053 -0.2568 -0.8329 -0.2118
  346MOL0     C47621   5.489   5.333  10.149  0.9284  0.2957 -0.4049
  346MOL0     C47622   5.578   5.312  10.267 -0.0801  0.0930 -0.3435
  346MOL0     C47623   5.580   5.439  10.354  0.4706 -0.5503  1.2313
  346MOL0     C47624   5.678   5.427  10.467  0.1525 -0.6657 -0.9320
  346MOL0     C47625   5.679   5.556  10.565 -0.1187  1.0125 -0.0871
  346MOL0     C47626   5.552   5.555  10.657 -0.3494  0.4757  0.6941
  346MOL0     N47627   5.594   5.614  10.788  0.7884  0.2135  0.6070
  346MOL0     C47628   5.531   5.723  10.854 -0.5711 -0.4348 -0.0232
  346MOL0     C47629   5.579   5.715  10.983  0.2839  0.5138  0.0531
  346MOL0     C47630   5.538   5.788  11.115 -0.2078  0.2884  0.2123
  346MOL0     C47631   5.649   5.881  11.165 -0.3243 -0.9490 -0.2234
  346MOL0     C47632   5.658   6.012  11.086 -0.3875 -0.1180 -0.4591
  346MOL0     C47633   5.804   6.039  11.029  0.7470 -0.5654  0.6443
  346MOL0     O47634   5.827   5.980  10.906  0.0337 -0.5777 -0.5228
  346MOL0     C47635   5.954   5.927  10.890  0.3750  0.5664 -1.2108
  346MOL0     C47636   6.060   6.013  10.881  0.6670 -0.5073  0.7208
  346MOL0     C47637   6.193   5.964  10.867 -0.0618 -0.2272 -0.3536
  346MOL0     C47638   6.288   6.064  10.838 -0.9376 -0.5631 -0.4675
  346MOL0     C47639   6.214   5.825  10.881  0.1977  0.3106 -0.5614
  346MOL0     C47640   6.343   5.760  10.879  1.1615  0.0914  0.5605
  346MOL0     O47641   6.339   5.632  10.839 -0.5889  1.0909  1.1087
  346MOL0     C47642   6.450   5.563  10.877 -0.2237  0.6478 -0.2530
  346MOL0     C47643   6.535   5.511  10.775 -0.6567  1.2275 -0.6875
  346MOL0     C47644   6.646   5.430  10.814  0.5222  0.4124  1.0511
  346MOL0     C47645   6.669   5.402  10.947  0.6410  0.1844 -0.3459
  346MOL0     O47646   6.776   5.324  10.949 -0.2341 -0.5566  0.1865
  346MOL0     C47647   6.827   5.295  11.080 -0.0028 -0.5246 -0.9095
  346MOL0     C47648   6.749   5.173  11.135  0.8282 -0.3512  0.8079
  346MOL0     C47649   6.745   5.048  11.038  0.2901  0.4043  0.2267
  346MOL0     C47650   6.663   4.939  11.099  0.2085  0.2593 -0.3879
  346MOL0     C47651   6.651   4.829  10.988  0.3224 -0.0760  0.1704
  346MOL0     C47652   6.573   4.711  11.038  0.4959 -0.8666  0.2150
  346MOL0     C47653   6.525   4.598  10.942  0.5635 -0.2278 -0.0603
  346MOL0     C47654   6.634   4.547  10.852  0.0253 -0.1681  0.7337
  346MOL0    Cl47655   6.773   4.488  10.936  0.2542  0.0059  0.2273
  346MOL0     C47656   6.583   5.458  11.048 -0.4055 -0.8608 -0.0386
  346MOL0     C47657   6.471   5.537  11.019  0.6483  0.5760 -0.7574
  346MOL0     O47658   6.439   5.825  10.916 -0.1846  0.5340  0.1241
  346MOL0     C47659   6.100   5.739  10.898  0.4814 -0.3141 -0.0153
  346MOL0     C47660   5.971   5.789  10.899  0.1195 -0.2797  0.0974
  346MOL0     N47661   5.674   5.608  11.000  0.9211 -0.2671 -0.2257
  346MOL0     N47662   5.679   5.550  10.883  0.2766  0.4507 -0.4394
  346MOL0     C47663   5.003   5.269   9.983 -0.2557  0.0712  0.4637
  346MOL0     C47664   4.896   5.264   9.893  0.6220 -0.5522  0.0722
  346MOL0     C47665   4.658   5.146   9.533 -0.0108  0.2751  0.0194
  346MOL0     C47666   4.561   5.246   9.570  0.7671 -0.5773  0.1650
  346MOL0     C47667   4.444   5.257   9.501  0.3369  0.6248 -0.1234
  346MOL0     C47668   4.409   5.182   9.393  0.0100  0.4548  0.4373
  346MOL0     O47669   4.281   5.177   9.351  0.5367  0.2624 -0.8566
  346MOL0     C47670   4.173   5.135   9.439 -0.4317 -0.7314 -0.5623
  346MOL0     C47671   4.089   5.038   9.355  0.1981  0.3936  0.7734
  346MOL0     C47672   3.990   4.941   9.424  0.7071  0.4608 -0.3702
  346MOL0     C47673   3.883   4.879   9.321 -0.6528 -0.0168  0.0489
  346MOL0     C47674   3.944   4.829   9.199 -0.3900 -0.3354  0.1019
  346MOL0     C47675   3.984   4.787   9.093 -0.1183 -0.0703  0.5224
  346MOL0     C47676   4.505   5.089   9.351 -0.5243 -0.0124  0.3162
  346MOL0     C47677   4.628   5.077   9.413 -0.3488 -0.3133 -0.4813
  346MOL0     C47678   4.721   4.983   9.339 -0.6485  0.5654 -0.0749
  346MOL0     H47679   5.042   5.339   9.599  0.1932  0.4471 -0.4553
  346MOL0     H47680   5.247   5.281   9.726 -0.3257  0.4067 -0.9920
  346MOL0     H47681   5.424   5.337   9.890 -0.2320  0.1494 -0.9430
  346MOL0     H47682   5.363   5.176   9.874  2.7851 -0.3390  0.4991
  346MOL0     H47683   5.439   5.132  10.114  3.0985 -1.3218  1.2756
  346MOL0     H47684   5.570   5.193  10.006  0.6754  0.9735  0.7063
  346MOL0     H47685   5.520   5.414  10.083 -1.0908  0.4090 -1.2914
  346MOL0     H47686   5.397   5.381  10.184  0.2085  1.6865 -3.8431
  346MOL0     H47687   5.544   5.221  10.318 -1.2572  0.5931 -0.2119
  346MOL0     H47688   5.682   5.294  10.240  0.3869  0.0756  1.3758
  346MOL0     H47689   5.479   5.455  10.393  0.6607 -0.4451  1.6925
  346MOL0     H47690   5.606   5.526  10.293  1.2421 -1.3209  0.4349
  346MOL0     H47691   5.654   5.336  10.524 -0.3057  0.1067  0.1480
  346MOL0     H47692   5.781   5.414  10.431  1.9468 -2.2198  3.9033
  346MOL0     H47693   5.685   5.649  10.508 -2.8276  1.0866 -0.3980
  346MOL0     H47694   5.769   5.533  10.623  0.3811 -2.2283 -1.9013
  346MOL0     H47695   5.479   5.618  10.605 -2.1097 -0.7395  1.5964
  346MOL0     H47696   5.516   5.453  10.675 -0.1211  0.3178  0.2785
  346MOL0     H47697   5.447   5.785  10.824  0.4498 -0.1913 -2.6209
  346MOL0     H47698   5.513   5.710  11.189 -1.1818 -1.0288 -1.4252
  346MOL0     H47699   5.438   5.828  11.097  0.9259  1.8037 -3.4727
  346MOL0     H47700   5.626   5.905  11.269 -1.1279  0.3053 -0.6717
  346MOL0     H47701   5.745   5.832  11.148  0.2339  1.0604 -4.1353
  346MOL0     H47702   5.593   6.006  10.999 -1.4044  1.7242  0.1249
  346MOL0     H47703   5.634   6.098  11.150  0.9478  0.0125 -0.0781
  346MOL0     H47704   5.812   6.146  11.007  2.5392 -0.0630  3.3523
  346MOL0     H47705   5.879   6.018  11.105  3.0065  0.0764 -1.2896
  346MOL0     H47706   6.038   6.119  10.877 -1.0930 -0.8463 -3.5238
  346MOL0     H47707   6.344   6.039  10.748  0.0696 -0.9806  0.2559
  346MOL0     H47708   6.356   6.085  10.921  0.7212 -0.2518 -1.8468
  346MOL0     H47709   6.234   6.154  10.808 -0.6440 -0.4216 -0.5668
  346MOL0     H47710   6.503   5.527  10.672  0.2705 -1.0205 -1.3793
  346MOL0     H47711   6.710   5.394  10.734  0.4008 -2.3172  2.0715
  346MOL0     H47712   6.934   5.274  11.076 -0.5209 -3.6170 -1.1632
  346MOL0     H47713   6.819   5.375  11.154  0.0196 -0.0721 -1.3949
  346MOL0     H47714   6.804   5.122  11.216  0.7114 -2.1751 -0.1978
  346MOL0     H47715   6.652   5.215  11.162  0.9063  2.9659 -3.1352
  346MOL0     H47716   6.846   5.019  11.008  0.5257  4.0977 -3.3924
  346MOL0     H47717   6.695   5.076  10.945 -1.3369  0.2096  1.0125
  346MOL0     H47718   6.571   4.973  11.146  1.1198  0.4822  1.3053
  346MOL0     H47719   6.724   4.902  11.182 -0.1070 -0.1626 -0.3377
  346MOL0     H47720   6.607   4.883  10.904  0.4739 -2.7137 -1.7154
  346MOL0     H47721   6.747   4.796  10.948  0.0599  1.5277 -1.9015
  346MOL0     H47722   6.482   4.759  11.076  1.6174  0.1492  1.7163
  346MOL0     H47723   6.619   4.660  11.123 -0.2690 -0.8749  0.6393
  346MOL0     H47724   6.436   4.636  10.889  1.3950  3.0870  0.6563
  346MOL0     H47725   6.496   4.511  11.002  2.0851 -1.5269 -1.1386
  346MOL0     H47726   6.655   4.640  10.799 -0.4582  1.6572  3.5254
  346MOL0     H47727   6.600   4.478  10.774  0.3223  1.2644 -0.7125
  346MOL0     H47728   6.598   5.438  11.154  1.4917 -1.5542 -0.3995
  346MOL0     H47729   6.409   5.581  11.096 -1.9518  0.0211 -2.4029
  346MOL0     H47730   6.115   5.631  10.901  0.1583 -0.3280  2.0854
  346MOL0     H47731   5.884   5.724  10.912 -2.0923  2.6732  1.1991
  346MOL0     H47732   4.986   5.255  10.089 -1.7271 -3.4089 -0.1118
  346MOL0     H47733   4.795   5.250   9.930  0.1009 -2.3618 -1.8683
  346MOL0     H47734   4.569   5.307   9.660  2.7874 -1.2651  0.4951
  346MOL0     H47735   4.375   5.321   9.555  1.4938  1.2225  0.7137
  346MOL0     H47736   4.213   5.088   9.530 -0.4611 -1.5553 -0.9615
  346MOL0     H47737   4.113   5.217   9.479  3.0345  1.0080  1.6214
  346MOL0     H47738   4.152   4.965   9.304 -0.9778 -1.0524  1.3086
  346MOL0     H47739   4.031   5.102   9.288  0.6716 -1.2769 -1.3390
  346MOL0     H47740   4.043   4.851   9.457  0.3263  0.3727  0.0115
  346MOL0     H47741   3.942   4.988   9.510 -0.5897  0.7835 -1.2376
  346MOL0     H47742   3.809   4.957   9.301 -2.2996 -2.0084 -2.3799
  346MOL0     H47743   3.839   4.797   9.378  1.6114 -0.3253  1.4697
  346MOL0     H47744   3.998   4.746   8.995 -1.5898  1.4557 -0.3863
  346MOL0     H47745   4.493   5.017   9.271 -4.7815  0.7445  0.0667
  346MOL0     H47746   4.792   5.048   9.287 -0.8161  1.5992  0.9375
  346MOL0     H47747   4.776   4.917   9.408 -1.3865  1.0112  0.9643
  346MOL0     H47748   4.688   4.921   9.255  0.3668  2.0794 -1.6639
  347MOL0     O47749  10.375   3.499   1.581 -0.5764  0.0283 -0.5148
  347MOL0     C47750  10.290   3.469   1.500  0.0586  0.5024 -0.1500
  347MOL0     O47751  10.313   3.459   1.368 -0.1150  0.2422 -0.0260
  347MOL0     C47752  10.436   3.486   1.310 -0.4926 -1.1373  0.6641
  347MOL0     C47753  10.471   3.426   1.186  0.2366 -0.1344  0.2146
  347MOL0     C47754  10.587   3.469   1.112  0.0997  0.4853 -0.0108
  347MOL0     C47755  10.677   3.566   1.166 -0.0514  0.4311  0.6881
  347MOL0     O47756  10.788   3.613   1.099  0.8075 -0.2307 -0.4569
  347MOL0     C47757  10.833   3.537   0.985 -0.1696  0.5072  1.2043
  347MOL0     C47758  10.960   3.596   0.917  0.5439  0.4157 -0.2348
  347MOL0     C47759  11.087   3.517   0.972  0.3433  0.5676  0.3143
  347MOL0     C47760  11.121   3.555   1.122  0.3312 -1.1885 -1.1992
  347MOL0     C47761  11.235   3.489   1.194 -0.0618 -0.4415 -0.2910
  347MOL0     C47762  11.257   3.511   1.344 -0.5232  0.7838 -0.6537
  347MOL0     C47763  11.316   3.384   1.406  0.2494  0.0431  0.5986
  347MOL0     C47764  11.452   3.341   1.344 -0.6564 -0.6780  0.9113
  347MOL0     N47765  11.567   3.394   1.420 -1.0343 -0.1017 -0.8998
  347MOL0     C47766  11.597   3.350   1.544 -0.1986  0.7284 -0.3668
  347MOL0     C47767  11.724   3.394   1.557  0.7119  0.3131 -0.0522
  347MOL0     C47768  11.795   3.390   1.691 -0.2567  0.4208  0.0721
  347MOL0     C47769  11.938   3.336   1.689  0.0047  0.1017  0.9713
  347MOL0     C47770  12.009   3.345   1.825  0.5136  0.2832  0.3951
  347MOL0     C47771  12.051   3.486   1.853 -0.2692 -0.5605  0.5288
  347MOL0     O47772  11.940   3.549   1.931  0.3327  0.9947 -0.7411
  347MOL0     C47773  11.970   3.655   2.016  0.7418  0.1574  0.7558
  347MOL0     C47774  12.067   3.741   1.983  0.1193  0.3339  0.4689
  347MOL0     C47775  12.115   3.844   2.064  0.1304  0.0754  0.1666
  347MOL0     C47776  12.221   3.942   2.016  0.9803  0.4739 -0.4796
  347MOL0     C47777  12.064   3.855   2.197  0.0289  0.0735  0.3588
  347MOL0     C47778  12.107   3.965   2.301 -0.3877  0.2860 -0.6043
  347MOL0     O47779  12.057   3.948   2.426  0.0931 -0.3475 -0.5051
  347MOL0     C47780  12.129   4.002   2.534  0.1491  0.3578  0.5776
  347MOL0     C47781  12.271   4.004   2.536  0.2967  0.3174 -0.7887
  347MOL0     C47782  12.338   4.050   2.657 -0.4383  0.0791  0.2417
  347MOL0     C47783  12.266   4.097   2.769  0.8776 -0.2790  0.1692
  347MOL0     O47784  12.322   4.136   2.889  0.3894  0.1178 -0.3149
  347MOL0     C47785  12.457   4.092   2.919  0.0516 -0.2547  0.2896
  347MOL0     C47786  12.484   4.088   3.072 -0.2141 -0.1053  0.4023
  347MOL0     C47787  12.439   3.959   3.129 -0.0777  1.0968  0.4659
  347MOL0     C47788  12.474   3.920   3.278  0.5857 -0.0712  0.5502
  347MOL0     C47789  12.387   3.806   3.326  0.1246  0.5881 -0.3074
  347MOL0     C47790  12.442   3.667   3.261 -0.5763 -0.6729  0.2016
  347MOL0     C47791  12.371   3.549   3.323 -0.6999 -0.3201  0.2490
  347MOL0     C47792  12.436   3.421   3.275 -0.2664  0.9179  0.1908
  347MOL0    Cl47793  12.368   3.282   3.368  0.0198 -0.5104  0.0790
  347MOL0     C47794  12.126   4.091   2.766 -0.1010  0.4855 -0.0710
  347MOL0     C47795  12.058   4.041   2.648 -0.2470 -0.5375 -0.2609
  347MOL0     O47796  12.190   4.051   2.269 -0.0250  0.2852 -0.3496
  347MOL0     C47797  11.964   3.756   2.234 -0.4015 -0.0107 -0.3109
  347MOL0     C47798  11.910   3.662   2.147  0.1916  0.4284  0.2396
  347MOL0     N47799  11.766   3.460   1.442  0.0161  0.4935 -0.1428
  347MOL0     N47800  11.674   3.460   1.358 -0.3150  0.4360  0.6533
  347MOL0     C47801  10.632   3.636   1.278  0.0894 -0.0204  0.8083
  347MOL0     C47802  10.520   3.586   1.349 -0.2905 -0.2127 -0.1748
  347MOL0     C47803  10.167   3.432   1.565 -0.3398 -0.2294  0.4683
  347MOL0     C47804  10.080   3.537   1.615 -0.8937 -0.7692 -0.3308
  347MOL0     C47805   9.959   3.510   1.678 -0.2678 -0.2186  0.2137
  347MOL0     C47806   9.917   3.381   1.690  0.3097 -0.3450 -0.3220
  347MOL0     O47807   9.792   3.341   1.727  0.4060 -0.5003  0.6514
  347MOL0     C47808   9.684   3.428   1.762 -0.1903  0.4535 -0.1050
  347MOL0     C47809   9.589   3.342   1.844  0.8668 -0.5719 -0.9958
  347MOL0     C47810   9.437   3.372   1.807 -0.0972  0.4657 -0.1644
  347MOL0     C47811   9.397   3.334   1.663 -0.2817 -0.1386 -0.9513
  347MOL0     C47812   9.459   3.217   1.610 -0.4076 -0.2310  0.3571
  347MOL0     C47813   9.522   3.120   1.570 -0.6859 -0.0246  0.2119
  347MOL0     C47814   9.998   3.284   1.643 -0.0955  0.6486  0.5795
  347MOL0     C47815  10.120   3.298   1.577 -0.7547 -0.1240 -0.8688
  347MOL0     C47816  10.206   3.178   1.553  0.0719 -0.0440 -0.1182
  347MOL0     H47817  10.417   3.341   1.144  0.4854 -0.2016  0.0295
  347MOL0     H47818  10.612   3.416   1.021 -1.6712 -0.2500 -0.1277
  347MOL0     H47819  10.759   3.531   0.905  2.8284  0.1173 -1.7581
  347MOL0     H47820  10.842   3.432   1.015 -0.7170 -0.5459 -1.9838
  347MOL0     H47821  10.961   3.593   0.808  1.6010  0.8588 -0.2433
  347MOL0     H47822  10.973   3.703   0.932  0.0954  0.8604 -2.6233
  347MOL0     H47823  11.069   3.410   0.977  2.7147  0.1497  2.9648
  347MOL0     H47824  11.165   3.533   0.896  0.0447 -1.8418 -0.5726
  347MOL0     H47825  11.152   3.660   1.117  0.0286 -1.0284 -0.0280
  347MOL0     H47826  11.028   3.541   1.178 -0.2439 -1.1737 -2.1340
  347MOL0     H47827  11.333   3.517   1.152  0.3763 -4.5433 -2.5526
  347MOL0     H47828  11.228   3.383   1.169 -1.4066 -0.1251 -1.3786
  347MOL0     H47829  11.320   3.599   1.361  1.3240 -0.5980 -0.0289
  347MOL0     H47830  11.162   3.540   1.392 -0.6985  0.8483 -1.0391
  347MOL0     H47831  11.236   3.310   1.402 -2.3695  2.7180 -0.4948
  347MOL0     H47832  11.335   3.397   1.513  0.6738  0.3680  0.4888
  347MOL0     H47833  11.442   3.234   1.364  0.9656 -1.0279 -0.0183
  347MOL0     H47834  11.467   3.365   1.238  0.2520  1.0284  1.4032
  347MOL0     H47835  11.537   3.309   1.624  1.0984 -0.3590  0.0740
  347MOL0     H47836  11.733   3.343   1.768  0.0790  0.0704  0.1321
  347MOL0     H47837  11.782   3.494   1.721 -3.6132  0.2051 -0.1650
  347MOL0     H47838  11.941   3.230   1.661 -0.2159  0.0622  1.0923
  347MOL0     H47839  11.997   3.380   1.608 -0.3193 -1.8250 -0.3907
  347MOL0     H47840  11.940   3.319   1.906  0.2377  6.1259  2.4893
  347MOL0     H47841  12.086   3.268   1.835 -0.6826 -0.8168  1.5675
  347MOL0     H47842  12.144   3.505   1.908  0.6209 -0.2066 -1.0084
  347MOL0     H47843  12.068   3.536   1.757  5.2544 -1.2247  0.8017
  347MOL0     H47844  12.100   3.727   1.880 -1.9767 -1.8251  0.0100
  347MOL0     H47845  12.173   4.041   2.021  1.4911  0.7162 -0.3596
  347MOL0     H47846  12.250   3.922   1.912  2.3789  1.5058 -0.3166
  347MOL0     H47847  12.314   3.952   2.072  1.0966  1.6745 -0.8650
  347MOL0     H47848  12.326   3.965   2.451  1.8430  2.3505 -0.8052
  347MOL0     H47849  12.446   4.043   2.667 -0.5988 -0.4566  1.7812
  347MOL0     H47850  12.470   3.991   2.878 -2.2905 -0.0404 -1.1909
  347MOL0     H47851  12.530   4.165   2.882 -2.1603  1.4000 -1.0889
  347MOL0     H47852  12.591   4.099   3.096  0.2411  0.5582 -1.7251
  347MOL0     H47853  12.428   4.175   3.108  2.4060  1.9175 -0.0238
  347MOL0     H47854  12.476   3.881   3.063 -1.5169  0.7077  0.0825
  347MOL0     H47855  12.330   3.959   3.116 -0.1539  1.5548  1.0472
  347MOL0     H47856  12.456   4.008   3.341  1.8148  0.7370 -0.1947
  347MOL0     H47857  12.581   3.898   3.286  0.8763  0.2023 -1.9475
  347MOL0     H47858  12.405   3.805   3.434 -1.7481 -0.7168  0.0425
  347MOL0     H47859  12.281   3.822   3.304 -0.2477 -1.2750 -0.0133
  347MOL0     H47860  12.551   3.668   3.273 -0.1241  0.9198 -2.9252
  347MOL0     H47861  12.413   3.677   3.156  0.3235  1.3156  0.0876
  347MOL0     H47862  12.264   3.545   3.300 -1.1068  0.6062  1.8287
  347MOL0     H47863  12.404   3.564   3.426  1.2224 -0.9972 -0.2121
  347MOL0     H47864  12.545   3.424   3.286 -0.2024 -1.4613  0.6641
  347MOL0     H47865  12.434   3.398   3.168  1.8406  0.8912  0.1073
  347MOL0     H47866  12.070   4.117   2.855 -2.8287 -2.8057 -0.6016
  347MOL0     H47867  11.951   4.024   2.636 -0.2978 -0.2059 -0.2740
  347MOL0     H47868  11.932   3.756   2.338 -1.9337  3.6391 -0.6518
  347MOL0     H47869  11.829   3.597   2.178  0.9607  0.3475  2.1589
  347MOL0     H47870  10.676   3.730   1.309 -1.0198  0.3454  1.3007
  347MOL0     H47871  10.491   3.650   1.432 -0.3367 -1.7393  1.0341
  347MOL0     H47872  10.111   3.640   1.598 -2.6770 -0.3591 -1.3942
  347MOL0     H47873   9.893   3.590   1.712 -0.6175 -0.9552  1.3271
  347MOL0     H47874   9.706   3.506   1.836 -1.1474 -1.0843  1.8872
  347MOL0     H47875   9.629   3.468   1.676  0.7283  0.3420 -0.7561
  347MOL0     H47876   9.605   3.357   1.951  0.4444 -0.0102 -1.0074
  347MOL0     H47877   9.604   3.234   1.836 -1.5689 -0.9830 -0.9512
  347MOL0     H47878   9.384   3.306   1.877 -0.2538  2.0754  1.3229
  347MOL0     H47879   9.413   3.475   1.835  3.4841  1.1804  0.7158
  347MOL0     H47880   9.425   3.420   1.601  0.6447 -0.8063 -1.4937
  347MOL0     H47881   9.288   3.328   1.667 -0.3647  1.4282  0.0587
  347MOL0     H47882   9.584   3.047   1.521 -0.5083  0.8599 -0.9330
  347MOL0     H47883   9.952   3.186   1.645  1.0854  0.0763  1.9840
  347MOL0     H47884  10.306   3.206   1.588 -0.8134  1.1508  1.5699
  347MOL0     H47885  10.180   3.099   1.624  0.1738  2.4988  2.9440
  347MOL0     H47886  10.180   3.144   1.452 -1.9954  1.8900 -0.2938
  348MOL0     O47887   1.806   3.650   4.633  1.1164 -0.2400 -0.2509
  348MOL0     C47888   1.838   3.642   4.752 -0.4744 -1.1443  0.7905
  348MOL0     O47889   1.939   3.724   4.805  0.3984 -0.0480  0.3075
  348MOL0     C47890   2.046   3.747   4.716 -0.4325  0.1065  0.0178
  348MOL0     C47891   2.029   3.811   4.590  0.3316  0.0945 -0.1533
  348MOL0     C47892   2.140   3.843   4.516  0.1202  0.5806  0.1665
  348MOL0     C47893   2.268   3.809   4.553 -0.9947  0.0596 -1.2008
  348MOL0     O47894   2.365   3.864   4.473  0.3763 -0.3287 -0.2675
  348MOL0     C47895   2.497   3.828   4.504 -0.2383 -0.2973 -0.1292
  348MOL0     C47896   2.591   3.928   4.429 -0.5594  0.0778 -0.4958
  348MOL0     C47897   2.730   3.858   4.405 -1.4426 -0.0528  0.3724
  348MOL0     C47898   2.820   3.939   4.308 -0.1477 -0.5190  0.8129
  348MOL0     C47899   2.957   3.869   4.323  0.8292 -0.1441  0.6901
  348MOL0     C47900   3.079   3.947   4.265 -0.2652  1.0419 -0.4553
  348MOL0     C47901   3.205   3.933   4.345 -0.1876  0.8415 -0.3012
  348MOL0     C47902   3.281   3.797   4.336 -0.7238 -0.4566  0.2501
  348MOL0     N47903   3.398   3.784   4.430 -0.4246 -0.6498  0.0052
  348MOL0     C47904   3.507   3.861   4.422  0.4915  0.2482 -0.7112
  348MOL0     C47905   3.577   3.829   4.531  0.4829  0.2630 -0.7816
  348MOL0     C47906   3.698   3.907   4.580 -0.1469 -0.6793  0.5367
  348MOL0     C47907   3.678   4.041   4.636  0.8717 -1.8194  0.4625
  348MOL0     C47908   3.573   4.060   4.741  0.3287 -0.5277 -0.9111
  348MOL0     C47909   3.587   3.962   4.858 -0.5684 -1.4063  0.1880
  348MOL0     O47910   3.505   4.003   4.970  0.2196  0.0317 -0.5355
  348MOL0     C47911   3.374   3.963   4.986  0.3323 -0.3937  0.2887
  348MOL0     C47912   3.290   3.906   4.888 -0.2646 -0.7266 -0.4778
  348MOL0     C47913   3.163   3.873   4.922  0.7001 -0.2253  0.1786
  348MOL0     C47914   3.083   3.806   4.818  0.1070 -1.2173  0.2683
  348MOL0     C47915   3.122   3.871   5.056 -0.2017 -0.1287  0.4866
  348MOL0     C47916   2.992   3.816   5.102  0.5167 -0.5293  0.2366
  348MOL0     O47917   2.876   3.827   5.019  0.2349  0.6411  0.4340
  348MOL0     C47918   2.744   3.809   5.060  0.3544  0.0518  0.6772
  348MOL0     C47919   2.641   3.806   4.962  0.4600  0.3256 -1.3488
  348MOL0     C47920   2.511   3.779   5.003  0.5133 -0.5851  0.5255
  348MOL0     C47921   2.477   3.765   5.138  0.2150  0.0709 -0.1154
  348MOL0     O47922   2.346   3.740   5.165  0.1670  0.2146  0.4876
  348MOL0     C47923   2.307   3.672   5.287 -0.1280  0.2045 -0.1147
  348MOL0     C47924   2.158   3.622   5.285 -0.4492 -1.3264  1.2632
  348MOL0     C47925   2.060   3.722   5.215  0.6462 -0.4127  0.0399
  348MOL0     C47926   1.907   3.682   5.251 -0.7132  0.0628 -0.0336
  348MOL0     C47927   1.812   3.765   5.175  0.6030 -0.4575  0.1775
  348MOL0     C47928   1.668   3.747   5.234 -0.0124  0.2722 -0.3518
  348MOL0     C47929   1.564   3.814   5.145  0.3013 -0.4723 -0.5587
  348MOL0     C47930   1.436   3.859   5.230  0.1919 -0.6875 -0.0620
  348MOL0    Cl47931   1.324   3.721   5.279 -0.1977  0.5255 -0.1922
  348MOL0     C47932   2.577   3.764   5.234 -0.1001  0.5566 -0.2602
  348MOL0     C47933   2.709   3.777   5.195  0.2611  0.0318 -1.0781
  348MOL0     O47934   2.994   3.769   5.213 -0.6935  0.2504 -1.1252
  348MOL0     C47935   3.207   3.934   5.154  0.6647  0.6675  0.0376
  348MOL0     C47936   3.323   3.988   5.114  0.3393 -0.8027  0.1384
  348MOL0     N47937   3.504   3.737   4.610 -0.5225 -0.1771 -0.2041
  348MOL0     N47938   3.402   3.704   4.537  0.4736  0.5172  0.3289
  348MOL0     C47939   2.286   3.753   4.689 -0.8555 -0.3147 -0.0106
  348MOL0     C47940   2.173   3.720   4.770  0.2534 -0.7236 -0.8524
  348MOL0     C47941   1.749   3.558   4.833 -0.0011 -0.4941  0.2257
  348MOL0     C47942   1.612   3.549   4.801 -0.4046 -0.3898 -0.3262
  348MOL0     C47943   1.529   3.471   4.883 -0.0159  1.0810  0.6038
  348MOL0     C47944   1.582   3.391   4.983  0.3518  0.9011 -0.6320
  348MOL0     O47945   1.514   3.309   5.070 -0.2832  0.3392  0.0813
  348MOL0     C47946   1.410   3.220   5.013  0.2339 -0.0061 -0.3376
  348MOL0     C47947   1.348   3.130   5.126 -0.2665 -0.1708  0.5622
  348MOL0     C47948   1.222   3.190   5.202 -0.2726  0.9441 -0.1474
  348MOL0     C47949   1.168   3.102   5.318  0.0914 -0.4267 -0.0481
  348MOL0     C47950   1.064   3.178   5.384 -0.2095  0.7436  0.0359
  348MOL0     C47951   0.982   3.249   5.440  0.0557 -0.2215  0.2765
  348MOL0     C47952   1.718   3.400   5.015 -0.1633  0.9005 -0.9646
  348MOL0     C47953   1.805   3.476   4.938  0.7406  0.0965 -0.7550
  348MOL0     C47954   1.953   3.463   4.963  0.4879  0.0678  0.2046
  348MOL0     H47955   1.931   3.843   4.553  1.4238  1.6568 -1.8875
  348MOL0     H47956   2.127   3.900   4.425 -0.2689  3.1049  1.7006
  348MOL0     H47957   2.522   3.726   4.471 -0.8707 -1.2079  2.0648
  348MOL0     H47958   2.523   3.841   4.609  1.0695 -1.1137 -0.3391
  348MOL0     H47959   2.557   3.951   4.327  2.2195  2.8661 -0.9480
  348MOL0     H47960   2.590   4.022   4.485 -1.9535 -0.5047  0.5200
  348MOL0     H47961   2.780   3.854   4.502 -1.3462  0.4556  0.3469
  348MOL0     H47962   2.718   3.756   4.367  2.2971 -1.3758  2.2220
  348MOL0     H47963   2.780   3.941   4.206  0.3462  0.3947  0.6248
  348MOL0     H47964   2.833   4.039   4.350  0.0803 -1.0465  2.0363
  348MOL0     H47965   2.944   3.773   4.272 -0.1697  1.7831 -3.0637
  348MOL0     H47966   2.988   3.846   4.425  2.3116 -0.4564  0.1928
  348MOL0     H47967   3.107   3.914   4.165  3.1061  0.6222  0.5296
  348MOL0     H47968   3.059   4.055   4.268  0.1006  1.1445 -1.3260
  348MOL0     H47969   3.193   3.956   4.451  0.5626 -2.4420  0.6223
  348MOL0     H47970   3.281   4.002   4.307  1.2161  0.1482  1.1093
  348MOL0     H47971   3.204   3.721   4.350 -0.3946 -0.4742  2.2425
  348MOL0     H47972   3.315   3.808   4.232 -2.9855  3.5434 -0.2840
  348MOL0     H47973   3.541   3.947   4.365  2.2257  1.2393  1.6574
  348MOL0     H47974   3.762   3.912   4.491  0.7347  3.2542  1.2069
  348MOL0     H47975   3.748   3.847   4.657 -2.0596 -0.2918  2.1465
  348MOL0     H47976   3.772   4.087   4.670  0.9552 -0.4605 -1.4639
  348MOL0     H47977   3.657   4.106   4.551  0.2860  0.3260  2.1362
  348MOL0     H47978   3.587   4.164   4.773  1.4919 -1.4914  2.0540
  348MOL0     H47979   3.472   4.047   4.702  0.7949  0.1554 -2.4238
  348MOL0     H47980   3.559   3.864   4.819 -0.4010 -1.5923  0.5336
  348MOL0     H47981   3.691   3.948   4.889 -1.0893 -1.5734  1.9598
  348MOL0     H47982   3.330   3.891   4.788 -0.1332  0.4940 -0.6243
  348MOL0     H47983   3.133   3.820   4.722 -0.7173 -0.2535 -0.0405
  348MOL0     H47984   2.985   3.854   4.818 -0.2084 -1.8053  1.5496
  348MOL0     H47985   3.058   3.702   4.839  0.5117 -1.6892 -1.4366
  348MOL0     H47986   2.676   3.814   4.860  3.6900  3.1769 -0.1773
  348MOL0     H47987   2.430   3.773   4.932  0.2806  1.3452  0.5532
  348MOL0     H47988   2.369   3.582   5.291 -1.3030 -0.6547 -0.5626
  348MOL0     H47989   2.320   3.730   5.379  1.2619 -1.5187  0.8374
  348MOL0     H47990   2.153   3.523   5.238  0.9435 -1.2976  1.0168
  348MOL0     H47991   2.124   3.607   5.388 -0.9951 -2.6668  0.9074
  348MOL0     H47992   2.071   3.712   5.106 -0.5860  1.5674 -0.3137
  348MOL0     H47993   2.078   3.825   5.248  3.6604 -0.8466  0.0210
  348MOL0     H47994   1.895   3.698   5.358 -0.7940 -0.2462  0.0055
  348MOL0     H47995   1.890   3.575   5.239  0.3929 -0.6493  3.5610
  348MOL0     H47996   1.830   3.873   5.184 -3.2577  0.2059  2.2310
  348MOL0     H47997   1.805   3.722   5.074 -0.2911 -0.9947  0.4553
  348MOL0     H47998   1.678   3.786   5.336  1.0318 -0.1056 -0.3034
  348MOL0     H47999   1.646   3.641   5.250  2.6048 -0.3397 -0.4921
  348MOL0     H48000   1.536   3.745   5.065  0.1676  0.4461 -1.3311
  348MOL0     H48001   1.601   3.900   5.087 -4.0942  2.6472  0.6993
  348MOL0     H48002   1.376   3.922   5.163 -0.9748  0.0804  1.6093
  348MOL0     H48003   1.472   3.912   5.319  0.2823  0.6301 -0.8566
  348MOL0     H48004   2.560   3.749   5.340 -1.6199  1.7079 -0.2935
  348MOL0     H48005   2.786   3.779   5.272  0.2787 -0.4127 -1.0805
  348MOL0     H48006   3.178   3.962   5.255 -0.1849  4.5802 -1.1200
  348MOL0     H48007   3.381   4.039   5.190 -0.8480 -0.2386  0.6854
  348MOL0     H48008   2.378   3.727   4.741 -0.8241 -1.5021 -0.6218
  348MOL0     H48009   2.181   3.701   4.877 -1.7348 -2.3380 -0.9485
  348MOL0     H48010   1.574   3.604   4.716  0.4933  0.0528 -0.4571
  348MOL0     H48011   1.425   3.477   4.853  0.0848 -0.0395 -0.0452
  348MOL0     H48012   1.334   3.261   4.945  0.5450 -0.0757 -0.7287
  348MOL0     H48013   1.469   3.161   4.943 -0.6132  0.1934 -1.2502
  348MOL0     H48014   1.417   3.113   5.209 -1.8125  0.7448  2.1133
  348MOL0     H48015   1.330   3.033   5.079  2.3056 -1.1445  1.4326
  348MOL0     H48016   1.249   3.289   5.237  1.8450 -0.3978  2.3041
  348MOL0     H48017   1.144   3.191   5.125 -0.5240  1.0134  0.1074
  348MOL0     H48018   1.246   3.079   5.392  0.9223 -2.8114 -1.5557
  348MOL0     H48019   1.128   3.008   5.278  1.2946 -1.2521  0.6207
  348MOL0     H48020   0.907   3.322   5.462  0.1545  0.8787 -2.5490
  348MOL0     H48021   1.771   3.340   5.089  1.3835  1.8384 -1.2772
  348MOL0     H48022   1.979   3.361   4.993 -0.2355  0.0925  0.9248
  348MOL0     H48023   2.012   3.472   4.871  0.6616 -6.0678 -0.6927
  348MOL0     H48024   1.997   3.537   5.031 -0.5792  1.5792 -0.6860
  349MOL0     O48025   6.990   3.957   9.031  0.2340  0.4725 -0.3774
  349MOL0     C48026   6.976   3.841   8.994  0.3958  0.1089  1.0777
  349MOL0     O48027   7.074   3.749   8.992  0.2123  0.4286  0.0066
  349MOL0     C48028   7.180   3.759   9.076 -0.5278  0.4897  1.1770
  349MOL0     C48029   7.177   3.806   9.210  0.1915  0.4650  0.7133
  349MOL0     C48030   7.287   3.814   9.289  0.5743 -0.7222 -0.4113
  349MOL0     C48031   7.411   3.773   9.236  0.3396 -0.0874  0.0312
  349MOL0     O48032   7.516   3.794   9.322 -0.2506 -0.7904 -0.0839
  349MOL0     C48033   7.650   3.827   9.252  0.0317 -0.3211 -0.2949
  349MOL0     C48034   7.750   3.854   9.371  0.3589 -0.4187 -0.1283
  349MOL0     C48035   7.898   3.873   9.316  0.5020  0.4858  0.0260
  349MOL0     C48036   7.984   3.756   9.360  0.4273 -0.7519  0.6245
  349MOL0     C48037   8.123   3.728   9.294 -0.4202 -0.8413  0.7449
  349MOL0     C48038   8.193   3.602   9.368  0.0898 -0.2874  0.3510
  349MOL0     C48039   8.335   3.567   9.315 -0.5401  0.3505 -1.0089
  349MOL0     C48040   8.373   3.439   9.383 -1.3114  0.2015 -0.1646
  349MOL0     N48041   8.510   3.390   9.342 -0.2968 -0.2579  0.5629
  349MOL0     C48042   8.583   3.294   9.409  0.3801  0.1597 -1.0631
  349MOL0     C48043   8.643   3.223   9.315  0.5071  0.5350  1.4300
  349MOL0     C48044   8.715   3.088   9.340 -0.0737 -0.5556  0.3542
  349MOL0     C48045   8.859   3.110   9.394  0.6497 -0.4027 -0.3856
  349MOL0     C48046   8.954   3.002   9.339  0.0951 -0.1104 -0.3635
  349MOL0     C48047   9.097   3.006   9.401  0.2451  0.0326 -0.1679
  349MOL0     O48048   9.133   2.891   9.479 -0.2181 -0.5364 -0.5143
  349MOL0     C48049   9.271   2.856   9.501 -1.0053  0.3298  0.3187
  349MOL0     C48050   9.296   2.721   9.541 -0.9371 -0.7105  0.1389
  349MOL0     C48051   9.427   2.679   9.579 -0.2139  0.4048 -0.0860
  349MOL0     C48052   9.450   2.538   9.615 -0.2842  0.8553 -0.7174
  349MOL0     C48053   9.528   2.773   9.578  0.1074 -0.4658 -0.0046
  349MOL0     C48054   9.674   2.750   9.614 -0.1152  0.4376 -0.2200
  349MOL0     O48055   9.721   2.619   9.649 -0.0379 -0.4480 -1.0044
  349MOL0     C48056   9.845   2.607   9.701 -0.2142  0.7879 -0.1388
  349MOL0     C48057   9.935   2.535   9.618  0.6082  0.0454  0.4984
  349MOL0     C48058  10.068   2.537   9.658 -0.2737  0.5585 -0.8372
  349MOL0     C48059  10.097   2.579   9.794 -0.3738  0.1055 -0.0273
  349MOL0     O48060  10.226   2.562   9.850  0.7991  0.0834 -0.0588
  349MOL0     C48061  10.337   2.543   9.765  0.8623 -0.5865 -0.9758
  349MOL0     C48062  10.448   2.582   9.853 -0.7646 -0.0257  0.3973
  349MOL0     C48063  10.579   2.535   9.793  0.4289  0.6054  0.5773
  349MOL0     C48064  10.615   2.618   9.665  0.4252 -0.1327 -0.2743
  349MOL0     C48065  10.753   2.579   9.608  0.6670  0.3063 -0.5348
  349MOL0     C48066  10.746   2.451   9.524  0.0786  0.1146 -0.0668
  349MOL0     C48067  10.758   2.319   9.597 -0.0929  0.5575  0.1316
  349MOL0     C48068  10.681   2.211   9.526 -0.9144 -0.5738 -0.3827
  349MOL0    Cl48069  10.517   2.234   9.568  0.0045  0.2528  0.1651
  349MOL0     C48070  10.009   2.654   9.873  0.2479 -0.3105  0.3771
  349MOL0     C48071   9.879   2.660   9.820 -0.0588  0.1053 -0.6463
  349MOL0     O48072   9.749   2.843   9.618  0.2156 -0.4134 -0.1254
  349MOL0     C48073   9.495   2.904   9.534 -0.1490 -0.2755  0.3095
  349MOL0     C48074   9.374   2.952   9.501  0.1998 -0.0964  0.4661
  349MOL0     N48075   8.630   3.285   9.190 -0.2413  0.2098  0.0442
  349MOL0     N48076   8.543   3.379   9.207  1.0523  1.1735 -0.1114
  349MOL0     C48077   7.419   3.716   9.102  0.4055 -0.3839  0.0864
  349MOL0     C48078   7.305   3.711   9.025  0.2687 -0.7166 -1.0389
  349MOL0     C48079   6.848   3.798   8.927 -0.3761 -0.4729 -1.0034
  349MOL0     C48080   6.844   3.676   8.854  0.1034  0.5751 -0.0659
  349MOL0     C48081   6.724   3.630   8.794  0.4175  0.1609 -0.0026
  349MOL0     C48082   6.607   3.709   8.826 -0.5425  0.3695  0.4515
  349MOL0     O48083   6.484   3.664   8.787 -0.1576  0.1963  0.1993
  349MOL0     C48084   6.420   3.563   8.874  0.4367 -0.3915  1.3996
  349MOL0     C48085   6.274   3.604   8.890 -0.6453  0.1794 -0.2422
  349MOL0     C48086   6.199   3.610   8.756  0.2570  0.1772 -0.3144
  349MOL0     C48087   6.044   3.607   8.771  0.3638  0.1598  0.3051
  349MOL0     C48088   5.970   3.659   8.648 -0.1434  0.7679 -0.7908
  349MOL0     C48089   5.898   3.702   8.553  0.9018  0.3786 -0.4441
  349MOL0     C48090   6.606   3.815   8.912 -0.1317 -0.0024  0.3406
  349MOL0     C48091   6.729   3.856   8.962  0.3473 -0.4069  0.3123
  349MOL0     C48092   6.706   3.976   9.050 -0.0400 -0.1778 -0.1068
  349MOL0     H48093   7.081   3.844   9.244 -1.5575 -2.1729 -0.8719
  349MOL0     H48094   7.294   3.858   9.388  1.6954  0.1252 -0.8386
  349MOL0     H48095   7.638   3.915   9.187  1.6559 -0.8949 -1.4510
  349MOL0     H48096   7.700   3.746   9.199  0.5478  0.1726 -0.5767
  349MOL0     H48097   7.709   3.942   9.420 -0.8886  1.1022 -3.5733
  349MOL0     H48098   7.744   3.775   9.446  2.4869 -0.7923 -0.2963
  349MOL0     H48099   7.907   3.891   9.209  2.0928 -1.8320 -0.3071
  349MOL0     H48100   7.937   3.963   9.366 -0.7710  1.1120 -0.0574
  349MOL0     H48101   7.992   3.760   9.469  1.8094 -2.8153  0.6598
  349MOL0     H48102   7.929   3.663   9.342 -1.4614 -0.2280  3.1683
  349MOL0     H48103   8.178   3.822   9.304  0.5482 -0.7287 -3.7004
  349MOL0     H48104   8.114   3.698   9.189 -2.2180  0.6695  0.4281
  349MOL0     H48105   8.195   3.643   9.470 -2.1042  0.6338  0.0763
  349MOL0     H48106   8.118   3.523   9.362 -0.3190  0.1904 -1.3944
  349MOL0     H48107   8.405   3.647   9.340  1.1553 -1.1120 -0.8604
  349MOL0     H48108   8.345   3.573   9.206  0.0477  2.2932 -0.8899
  349MOL0     H48109   8.356   3.447   9.490  0.4201 -0.0545  0.1627
  349MOL0     H48110   8.311   3.361   9.338 -0.7535  0.9935 -2.4890
  349MOL0     H48111   8.576   3.263   9.513  2.1780  3.1708  0.0819
  349MOL0     H48112   8.720   3.024   9.251  1.1008 -0.2563  0.1802
  349MOL0     H48113   8.656   3.033   9.414  2.0863 -2.6902  0.6218
  349MOL0     H48114   8.891   3.211   9.367 -0.1177 -0.1142 -0.2540
  349MOL0     H48115   8.866   3.110   9.503  2.5662  2.3521 -0.3950
  349MOL0     H48116   8.908   2.905   9.361 -1.5027  0.8963  1.0120
  349MOL0     H48117   8.968   3.001   9.231  2.2613 -0.6015 -0.1286
  349MOL0     H48118   9.163   3.020   9.315 -2.1949  1.2903 -1.9514
  349MOL0     H48119   9.108   3.102   9.452 -2.0297  0.5316 -0.5204
  349MOL0     H48120   9.216   2.648   9.545  0.4136 -2.2174  1.5530
  349MOL0     H48121   9.360   2.478   9.600  0.6458 -0.5987 -0.6678
  349MOL0     H48122   9.474   2.526   9.721 -0.0374  2.1146 -0.6165
  349MOL0     H48123   9.517   2.482   9.549  3.6467  0.0509  3.4462
  349MOL0     H48124   9.901   2.485   9.528 -0.8483  2.1391 -0.1883
  349MOL0     H48125  10.149   2.490   9.605  1.3545  3.7484 -1.4297
  349MOL0     H48126  10.351   2.438   9.736 -0.5245 -0.2874 -2.9028
  349MOL0     H48127  10.327   2.605   9.676 -0.7909  0.9943  0.2289
  349MOL0     H48128  10.442   2.691   9.866 -1.6123  0.1870 -1.5158
  349MOL0     H48129  10.434   2.538   9.952 -1.1471  1.5158  1.0614
  349MOL0     H48130  10.570   2.427   9.781 -0.6432  0.8456 -1.0700
  349MOL0     H48131  10.658   2.549   9.868 -0.1355  0.3298  1.2336
  349MOL0     H48132  10.621   2.725   9.684 -2.7943 -0.0705  1.0748
  349MOL0     H48133  10.542   2.600   9.584 -2.8911  3.1526  1.6577
  349MOL0     H48134  10.795   2.668   9.559  0.6995 -0.8244 -2.6938
  349MOL0     H48135  10.825   2.564   9.689 -0.7356 -1.3561  0.4654
  349MOL0     H48136  10.827   2.455   9.450 -0.1660 -0.1952 -0.3521
  349MOL0     H48137  10.656   2.455   9.462  0.2852  2.3638 -0.2812
  349MOL0     H48138  10.712   2.320   9.696 -0.9567 -2.1778 -0.1676
  349MOL0     H48139  10.863   2.287   9.602 -0.9953 -2.6489  1.2976
  349MOL0     H48140  10.707   2.111   9.561 -0.2347 -0.3166 -0.1457
  349MOL0     H48141  10.705   2.228   9.420  0.6781 -1.3380 -0.1723
  349MOL0     H48142  10.040   2.694   9.969 -0.2718 -1.4511  1.0373
  349MOL0     H48143   9.808   2.705   9.889 -0.6415 -0.9173 -0.5668
  349MOL0     H48144   9.585   2.964   9.523 -0.7994  0.8819  1.0823
  349MOL0     H48145   9.367   3.055   9.467  0.5493  1.7783  5.2798
  349MOL0     H48146   7.514   3.676   9.068 -1.0503 -4.1408  0.0369
  349MOL0     H48147   7.302   3.673   8.923 -0.0867  1.0940 -1.7454
  349MOL0     H48148   6.936   3.618   8.852  0.5394  1.2203 -2.3923
  349MOL0     H48149   6.712   3.536   8.741 -0.2459  1.5816 -2.5695
  349MOL0     H48150   6.441   3.463   8.834 -0.7344 -0.1682  0.1801
  349MOL0     H48151   6.456   3.556   8.978  0.5059 -2.5689  1.2766
  349MOL0     H48152   6.254   3.693   8.950  1.2422  0.1123  0.5580
  349MOL0     H48153   6.220   3.522   8.939 -0.6197  0.1380 -0.2817
  349MOL0     H48154   6.226   3.701   8.701 -0.9925  1.1498  0.6202
  349MOL0     H48155   6.233   3.522   8.701  0.1398  0.1934 -0.4112
  349MOL0     H48156   6.020   3.670   8.858  1.8726 -2.5534  2.8467
  349MOL0     H48157   6.014   3.507   8.803 -0.3589  0.9126  2.1690
  349MOL0     H48158   5.827   3.744   8.484  1.0374 -1.8134 -2.0271
  349MOL0     H48159   6.510   3.847   8.951  0.0076  0.0542  0.6347
  349MOL0     H48160   6.772   3.972   9.138  1.8993 -4.0015 -1.4849
  349MOL0     H48161   6.720   4.067   8.993  0.2212  0.1364  0.4489
  349MOL0     H48162   6.606   3.993   9.093 -0.1392  0.4355 -0.5758
  350MOL0     O48163   1.335  11.266   9.940  0.1973 -0.2063 -0.3451
  350MOL0     C48164   1.459  11.271   9.954 -0.2389 -0.0462 -0.0390
  350MOL0     O48165   1.531  11.385   9.975 -0.1402  0.1192  0.5314
  350MOL0     C48166   1.460  11.502   9.985  0.4930  1.1427 -0.3507
  350MOL0     C48167   1.514  11.612   9.917 -0.6578  0.7829 -0.9325
  350MOL0     C48168   1.463  11.743   9.919 -0.4088 -0.0717  0.4653
  350MOL0     C48169   1.344  11.772   9.999  0.4970  0.4058  0.5755
  350MOL0     O48170   1.308  11.910  10.020 -0.4507  0.4222  0.2990
  350MOL0     C48171   1.218  11.943  10.123 -0.1375  0.5763  0.0635
  350MOL0     C48172   1.087  11.961  10.043  0.7816 -0.7822 -0.0953
  350MOL0     C48173   0.994  12.031  10.146  0.6685 -0.2874 -0.0174
  350MOL0     C48174   0.865  12.082  10.077 -0.0495  0.2711 -0.6900
  350MOL0     C48175   0.882  12.221  10.023 -0.7429 -0.5903  0.2513
  350MOL0     C48176   0.756  12.256   9.937 -0.4512  0.0655 -0.0163
  350MOL0     C48177   0.769  12.394   9.869  0.8244  0.7398  1.0332
  350MOL0     C48178   0.665  12.394   9.753 -0.5344  0.6484 -0.4941
  350MOL0     N48179   0.537  12.414   9.808  0.6170 -0.3882 -0.3000
  350MOL0     C48180   0.458  12.303   9.832 -0.4497  0.1267  0.0234
  350MOL0     C48181   0.356  12.365   9.886  0.1007  0.2406  0.3902
  350MOL0     C48182   0.245  12.294   9.960 -0.7841  0.3337  0.1399
  350MOL0     C48183   0.277  12.151   9.999 -1.2641 -0.5575  0.6769
  350MOL0     C48184   0.177  12.081  10.097 -0.7400  0.0238  0.2227
  350MOL0     C48185   0.171  11.930  10.080 -0.2723  0.1325  0.6752
  350MOL0     O48186   0.293  11.861  10.076 -0.2098  0.6213  0.3442
  350MOL0     C48187   0.370  11.876  10.191  1.1783 -0.6166  0.4754
  350MOL0     C48188   0.335  11.887  10.323 -0.7162  0.4325 -0.5583
  350MOL0     C48189   0.424  11.905  10.430  0.2307  0.3908 -0.5367
  350MOL0     C48190   0.375  11.902  10.576 -0.2171 -0.3202  0.2583
  350MOL0     C48191   0.561  11.909  10.397 -0.2511  0.4438 -0.0713
  350MOL0     C48192   0.685  11.922  10.498  0.3305 -0.2521  0.1028
  350MOL0     O48193   0.655  11.879  10.625  0.1700  0.2275  0.1652
  350MOL0     C48194   0.744  11.925  10.717  0.3778 -0.1218  0.5436
  350MOL0     C48195   0.789  12.054  10.727  0.2336  0.6153 -0.3521
  350MOL0     C48196   0.866  12.110  10.833 -0.3388  0.4629  0.1767
  350MOL0     C48197   0.893  12.028  10.944  0.2614 -0.3723  0.6773
  350MOL0     O48198   0.968  12.067  11.044 -0.6022 -0.3902 -0.0398
  350MOL0     C48199   0.972  12.205  11.083 -0.1337 -0.5167 -0.2605
  350MOL0     C48200   1.101  12.279  11.061 -0.7607  0.6686  0.2469
  350MOL0     C48201   1.108  12.430  11.105  0.1103  0.1941 -0.4496
  350MOL0     C48202   1.253  12.484  11.078 -0.8796  0.1034 -0.2096
  350MOL0     C48203   1.272  12.629  11.056 -0.8071  0.4823 -0.7402
  350MOL0     C48204   1.233  12.708  11.180  0.3844  0.4663  0.0854
  350MOL0     C48205   1.307  12.847  11.179  0.1631  0.2203  0.5934
  350MOL0     C48206   1.270  12.910  11.311  0.4299  0.7061 -0.1344
  350MOL0    Cl48207   1.362  13.067  11.321 -0.0682 -0.1090  0.1264
  350MOL0     C48208   0.861  11.893  10.942  0.9265 -0.6817 -0.1287
  350MOL0     C48209   0.779  11.843  10.833 -0.4886 -0.2032 -0.4087
  350MOL0     O48210   0.796  11.959  10.456  0.0197  1.0637 -0.0541
  350MOL0     C48211   0.600  11.893  10.258 -0.2262 -0.8965 -0.2346
  350MOL0     C48212   0.503  11.882  10.152  0.0853 -0.3285  0.1368
  350MOL0     N48213   0.371  12.499   9.900 -0.3544 -0.8199  0.5334
  350MOL0     N48214   0.482  12.534   9.843 -0.4896  0.4174 -0.5376
  350MOL0     C48215   1.291  11.662  10.070 -0.1087  0.5055  0.6410
  350MOL0     C48216   1.340  11.525  10.060  0.6369 -0.3227  0.1411
  350MOL0     C48217   1.525  11.144   9.937 -0.3108 -0.5272  0.1198
  350MOL0     C48218   1.643  11.118  10.020 -0.2511 -0.8952  0.0885
  350MOL0     C48219   1.724  10.995  10.019  0.1810 -0.9254  0.5409
  350MOL0     C48220   1.674  10.887   9.939 -0.0010 -0.2831  0.5261
  350MOL0     O48221   1.738  10.770   9.949  0.1442  0.2061  0.3066
  350MOL0     C48222   1.698  10.645   9.889 -0.2364  0.4007 -0.3489
  350MOL0     C48223   1.734  10.537   9.996 -0.5555  0.1210  0.5411
  350MOL0     C48224   1.682  10.394   9.957  0.5258 -0.6640  0.2213
  350MOL0     C48225   1.730  10.289  10.052 -0.4640  0.2518  0.0371
  350MOL0     C48226   1.874  10.275  10.048  0.1059 -0.4844  0.2614
  350MOL0     C48227   1.993  10.264  10.070 -0.3506 -0.1476  0.2835
  350MOL0     C48228   1.556  10.908   9.862  0.3116  0.3981  0.3973
  350MOL0     C48229   1.483  11.032   9.861  0.5738 -0.1696  0.6619
  350MOL0     C48230   1.379  11.037   9.753 -0.0952  0.4835  0.2316
  350MOL0     H48231   1.613  11.602   9.873  0.1858  1.3714  0.7583
  350MOL0     H48232   1.523  11.826   9.883  0.9440 -0.5496  1.5101
  350MOL0     H48233   1.253  12.034  10.173  1.8630  0.3771 -0.8664
  350MOL0     H48234   1.210  11.866  10.200  3.9113 -1.8927 -1.6747
  350MOL0     H48235   1.101  12.028   9.957  0.3757  1.3711  1.4173
  350MOL0     H48236   1.053  11.862  10.014 -2.4076  0.0091  0.5969
  350MOL0     H48237   0.962  11.957  10.220  0.7133 -2.3334 -1.9717
  350MOL0     H48238   1.040  12.114  10.201 -2.2695 -0.2578  2.6996
  350MOL0     H48239   0.829  12.014  10.000  0.0608 -1.7184  0.9297
  350MOL0     H48240   0.785  12.088  10.151  0.1585 -0.6035 -0.3892
  350MOL0     H48241   0.972  12.210   9.962 -0.1097 -0.4020  1.1240
  350MOL0     H48242   0.913  12.302  10.091  2.7697  0.2498 -2.1008
  350MOL0     H48243   0.746  12.179   9.860 -0.3880 -3.1257  2.9325
  350MOL0     H48244   0.664  12.259   9.997 -0.9534 -0.6796 -0.7185
  350MOL0     H48245   0.864  12.397   9.815  0.6761  0.8726  0.7797
  350MOL0     H48246   0.770  12.475   9.943  1.8931  1.6620  0.0617
  350MOL0     H48247   0.687  12.485   9.697 -0.0684  2.1319  1.9584
  350MOL0     H48248   0.667  12.306   9.688 -0.6974 -1.3382  2.0102
  350MOL0     H48249   0.473  12.197   9.811 -0.8508  0.4597 -2.2023
  350MOL0     H48250   0.158  12.303   9.895  0.8610  1.1863 -2.0640
  350MOL0     H48251   0.224  12.353  10.049  0.4678  1.2028 -0.1129
  350MOL0     H48252   0.292  12.079   9.917  0.5079 -0.4632  0.8651
  350MOL0     H48253   0.380  12.156  10.035  0.4635  2.2170 -3.7403
  350MOL0     H48254   0.193  12.114  10.200 -0.1565  2.1383 -0.4893
  350MOL0     H48255   0.073  12.110  10.082 -1.3439 -2.0590  0.1201
  350MOL0     H48256   0.104  11.884  10.153  0.6542 -1.8534  0.3146
  350MOL0     H48257   0.125  11.919   9.981 -0.7388  4.2009  0.2614
  350MOL0     H48258   0.232  11.868  10.353  0.5122 -0.9882  3.5525
  350MOL0     H48259   0.424  11.982  10.633  0.2927 -1.0181  0.8221
  350MOL0     H48260   0.381  11.805  10.627  0.8896 -0.7396 -0.6257
  350MOL0     H48261   0.268  11.923  10.578  0.1058  1.5662 -0.5784
  350MOL0     H48262   0.759  12.121  10.647 -3.0882 -0.6377 -0.2898
  350MOL0     H48263   0.906  12.211  10.831  0.5309  0.2616  3.2712
  350MOL0     H48264   0.887  12.264  11.049 -0.1450 -0.2167  0.2922
  350MOL0     H48265   0.956  12.208  11.191 -1.0342 -3.8025 -0.1946
  350MOL0     H48266   1.179  12.225  11.115 -0.0156  0.1444 -1.3047
  350MOL0     H48267   1.113  12.260  10.954 -4.1329  1.4014 -0.3792
  350MOL0     H48268   1.069  12.437  11.207 -0.6077  1.6533 -0.8022
  350MOL0     H48269   1.041  12.493  11.046 -0.3462 -2.2816 -2.7973
  350MOL0     H48270   1.294  12.432  10.991  1.3055 -0.3507  1.0158
  350MOL0     H48271   1.320  12.464  11.162  1.3538  0.1666 -1.8781
  350MOL0     H48272   1.372  12.659  11.026 -0.8084 -0.7619 -2.0740
  350MOL0     H48273   1.202  12.655  10.976 -2.7097  0.6460  0.8854
  350MOL0     H48274   1.269  12.657  11.270 -2.0743  0.6958  1.2900
  350MOL0     H48275   1.125  12.725  11.182  0.4024  0.6811 -0.5241
  350MOL0     H48276   1.282  12.903  11.089  0.1779 -0.0467  0.4215
  350MOL0     H48277   1.415  12.827  11.180  0.5383  1.6945 -2.2443
  350MOL0     H48278   1.301  12.836  11.385 -0.0469 -0.3537 -0.9705
  350MOL0     H48279   1.162  12.930  11.316  0.0850 -1.0649  0.1910
  350MOL0     H48280   0.891  11.840  11.031 -0.1828 -0.6858  0.2554
  350MOL0     H48281   0.742  11.742  10.819 -0.5305 -0.1988 -0.3327
  350MOL0     H48282   0.707  11.889  10.240  0.9455  0.7869  4.7748
  350MOL0     H48283   0.534  11.881  10.048  3.8119  2.5712  1.0200
  350MOL0     H48284   1.209  11.675  10.139  1.9180  0.5654  3.2010
  350MOL0     H48285   1.284  11.451  10.117 -1.8207  3.7409  3.5803
  350MOL0     H48286   1.659  11.204  10.084 -0.9516  0.1504 -1.1259
  350MOL0     H48287   1.816  10.992  10.076  1.0756  1.9205 -0.5140
  350MOL0     H48288   1.592  10.623   9.872  0.1969 -1.3413 -1.0544
  350MOL0     H48289   1.748  10.625   9.794 -1.5209  1.0190 -1.1796
  350MOL0     H48290   1.704  10.558  10.099  1.4400 -2.5251  1.7667
  350MOL0     H48291   1.843  10.539   9.989 -0.6585  0.7068 -2.0805
  350MOL0     H48292   1.574  10.395   9.970  0.7127  2.4195  2.9311
  350MOL0     H48293   1.713  10.373   9.854  2.0723  2.5464 -0.1125
  350MOL0     H48294   1.678  10.194  10.039  1.1461 -0.2104 -4.8661
  350MOL0     H48295   1.701  10.326  10.151  0.8187  1.6451 -0.0778
  350MOL0     H48296   2.099  10.251  10.080  0.0151  1.1940 -1.3330
  350MOL0     H48297   1.515  10.820   9.813  3.3007 -0.6453 -0.4324
  350MOL0     H48298   1.281  11.046   9.801  0.2724 -0.6109  1.2500
  350MOL0     H48299   1.392  11.112   9.675 -0.9476  0.4610  0.0599
  350MOL0     H48300   1.382  10.941   9.700 -1.2781  1.1966 -1.1807
  351MOL0     O48301   5.495   0.917   0.819 -0.0303 -0.0308 -0.1675
  351MOL0     C48302   5.471   1.025   0.869  0.4365  0.1733 -0.3656
  351MOL0     O48303   5.467   1.146   0.812  1.0643 -0.4197  0.9475
  351MOL0     C48304   5.501   1.156   0.682  0.9957  0.6651  0.5425
  351MOL0     C48305   5.415   1.099   0.577 -0.3485 -0.1239  0.4838
  351MOL0     C48306   5.463   1.087   0.446 -0.2797  0.2851  1.0509
  351MOL0     C48307   5.586   1.129   0.405 -0.0293 -0.8305 -0.6531
  351MOL0     O48308   5.643   1.122   0.280  0.4961 -0.2474  0.2094
  351MOL0     C48309   5.603   1.015   0.189  0.4108  0.0263 -0.0862
  351MOL0     C48310   5.687   1.021   0.064 -0.1106  0.3209  0.4718
  351MOL0     C48311   5.830   0.971   0.086 -0.0808 -0.5699  0.1929
  351MOL0     C48312   5.917   0.992  -0.033  0.7238  0.4104 -0.3760
  351MOL0     C48313   6.068   1.000  -0.004 -0.2334 -0.0630  1.3344
  351MOL0     C48314   6.144   1.025  -0.138  0.5085 -0.1700 -0.5543
  351MOL0     C48315   6.220   0.909  -0.202 -0.1413 -0.3185 -0.2046
  351MOL0     C48316   6.116   0.821  -0.275 -0.4855 -1.0530 -0.2636
  351MOL0     N48317   6.194   0.697  -0.302  0.0215 -0.4236  0.0970
  351MOL0     C48318   6.185   0.566  -0.256  0.4001  0.4080  0.0961
  351MOL0     C48319   6.291   0.505  -0.313 -0.5004  1.4337 -0.4376
  351MOL0     C48320   6.335   0.362  -0.302  0.4754  0.0039 -0.2622
  351MOL0     C48321   6.488   0.343  -0.345 -0.1509  0.2787  0.9392
  351MOL0     C48322   6.521   0.197  -0.381 -0.7803  0.0997  0.3653
  351MOL0     C48323   6.470   0.083  -0.286 -0.0846  1.0611 -0.2633
  351MOL0     O48324   6.527  -0.041  -0.344  0.2217 -0.3919 -0.5734
  351MOL0     C48325   6.654  -0.088  -0.323 -0.7825 -0.3956 -0.1509
  351MOL0     C48326   6.689  -0.206  -0.381 -0.1555 -0.0590  0.4020
  351MOL0     C48327   6.817  -0.252  -0.375  0.0026 -0.4036 -0.3365
  351MOL0     C48328   6.840  -0.384  -0.440 -0.1277  0.6144  0.3294
  351MOL0     C48329   6.917  -0.185  -0.295 -0.6185  0.8325 -0.2114
  351MOL0     C48330   7.068  -0.212  -0.319 -0.0949 -1.0694  0.7933
  351MOL0     O48331   7.149  -0.099  -0.315 -0.5465 -0.6439 -0.5373
  351MOL0     C48332   7.284  -0.106  -0.339  0.5411  0.0550 -0.0929
  351MOL0     C48333   7.368  -0.037  -0.255 -0.1074  0.1972  0.5116
  351MOL0     C48334   7.503  -0.044  -0.278  0.1414 -0.2269 -0.5004
  351MOL0     C48335   7.558  -0.104  -0.398 -0.0693  0.3577  0.4217
  351MOL0     O48336   7.691  -0.082  -0.427  0.4005  0.1286  0.4371
  351MOL0     C48337   7.731   0.053  -0.394  0.0905  0.0162 -0.4246
  351MOL0     C48338   7.848   0.110  -0.479 -0.5319 -0.5108 -0.7201
  351MOL0     C48339   7.923   0.229  -0.418 -0.0276  0.0730  0.4806
  351MOL0     C48340   7.853   0.358  -0.363  0.4697 -0.4167 -0.3510
  351MOL0     C48341   7.793   0.437  -0.481 -1.4029  0.4789 -0.2384
  351MOL0     C48342   7.694   0.546  -0.426  1.5812  0.3043 -0.5621
  351MOL0     C48343   7.624   0.625  -0.541  0.2476  0.0062 -0.1008
  351MOL0     C48344   7.564   0.751  -0.483 -0.6830 -0.2394 -0.2055
  351MOL0    Cl48345   7.385   0.748  -0.460  0.0269  0.0236  0.0886
  351MOL0     C48346   7.467  -0.158  -0.498  0.2863  0.0026 -0.1339
  351MOL0     C48347   7.330  -0.165  -0.457 -0.2657 -0.1294 -0.7371
  351MOL0     O48348   7.115  -0.325  -0.342  0.5303  0.2619 -0.1585
  351MOL0     C48349   6.879  -0.072  -0.232 -0.4009 -0.7957  0.1472
  351MOL0     C48350   6.751  -0.023  -0.246  0.3386 -0.0648 -0.1291
  351MOL0     N48351   6.358   0.591  -0.395  0.1375 -0.3011  0.2579
  351MOL0     N48352   6.300   0.697  -0.386  0.5244 -0.1415  0.5040
  351MOL0     C48353   5.670   1.193   0.505  0.2428 -0.2799 -0.6214
  351MOL0     C48354   5.626   1.208   0.644  0.3776 -0.1163  0.9425
  351MOL0     C48355   5.454   1.027   1.017 -0.3567 -0.2152 -0.2546
  351MOL0     C48356   5.433   1.155   1.072 -0.2312  0.8269 -0.1753
  351MOL0     C48357   5.409   1.177   1.209 -0.0131 -0.2957  1.1346
  351MOL0     C48358   5.394   1.065   1.297  0.7553  0.9409  0.1626
  351MOL0     O48359   5.384   1.073   1.436 -0.8887  0.1506  0.2720
  351MOL0     C48360   5.387   1.210   1.493  0.1691  0.6813 -0.1054
  351MOL0     C48361   5.397   1.187   1.646 -0.2430  0.5277 -0.5704
  351MOL0     C48362   5.277   1.112   1.707  0.1375 -0.6234  0.0716
  351MOL0     C48363   5.285   1.087   1.857 -0.6590 -0.6082  0.6142
  351MOL0     C48364   5.228   1.200   1.934  0.0467 -0.0262 -0.4806
  351MOL0     C48365   5.178   1.283   2.004  0.1874  0.3484  0.3845
  351MOL0     C48366   5.396   0.936   1.241 -0.1716 -0.2166 -0.7546
  351MOL0     C48367   5.434   0.920   1.103  0.2487 -1.0102  0.5402
  351MOL0     C48368   5.436   0.775   1.040  0.3035 -0.5284  0.2396
  351MOL0     H48369   5.332   1.039   0.613 -3.5793  2.2554 -2.3202
  351MOL0     H48370   5.394   1.039   0.377 -0.8880  3.6851 -0.9638
  351MOL0     H48371   5.499   1.037   0.163 -0.3406 -0.8620  2.0028
  351MOL0     H48372   5.608   0.917   0.237  0.7048  0.5852  1.0407
  351MOL0     H48373   5.645   0.956  -0.013 -0.8887  2.0155 -0.6004
  351MOL0     H48374   5.673   1.117   0.013  1.1112  0.7379  0.8800
  351MOL0     H48375   5.877   1.030   0.165  0.6184 -2.8963  1.5912
  351MOL0     H48376   5.824   0.865   0.110 -6.6640 -0.1822  2.1884
  351MOL0     H48377   5.903   0.908  -0.102  0.2195  1.0879 -1.1226
  351MOL0     H48378   5.885   1.086  -0.079  1.1698  1.3440  1.1492
  351MOL0     H48379   6.107   0.903   0.029  1.0019 -1.3783 -3.2035
  351MOL0     H48380   6.094   1.083   0.062 -0.1107  1.8464 -0.9872
  351MOL0     H48381   6.073   1.067  -0.210 -0.7628 -1.6526 -0.2199
  351MOL0     H48382   6.215   1.107  -0.123  4.3679 -2.7509 -2.8705
  351MOL0     H48383   6.271   0.848  -0.127  3.2607  1.1366 -1.1326
  351MOL0     H48384   6.294   0.939  -0.276  0.6762  1.6064  1.3077
  351MOL0     H48385   6.040   0.799  -0.200 -1.1417  2.5345  0.3243
  351MOL0     H48386   6.076   0.874  -0.362  1.0793  1.8865  0.6425
  351MOL0     H48387   6.118   0.526  -0.182  2.2315 -2.3680  0.4218
  351MOL0     H48388   6.258   0.310  -0.360 -2.2837  2.3870  0.9692
  351MOL0     H48389   6.322   0.322  -0.201  1.8746 -0.8099 -0.3896
  351MOL0     H48390   6.505   0.406  -0.432 -1.6822 -1.3324 -0.5944
  351MOL0     H48391   6.561   0.379  -0.271 -0.1293  1.4223  0.3734
  351MOL0     H48392   6.467   0.174  -0.474 -1.6960  0.4447  0.8001
  351MOL0     H48393   6.628   0.189  -0.402 -1.3854 -2.1668 -2.3412
  351MOL0     H48394   6.509   0.108  -0.186  1.7484  0.1262 -0.6894
  351MOL0     H48395   6.362   0.071  -0.283  0.1051 -1.1989 -0.9385
  351MOL0     H48396   6.610  -0.252  -0.439  0.8434 -1.6459  0.2310
  351MOL0     H48397   6.757  -0.412  -0.505  0.0870 -2.2599  1.1541
  351MOL0     H48398   6.828  -0.461  -0.363  1.4618  0.4972  0.5091
  351MOL0     H48399   6.936  -0.382  -0.492 -0.1590 -1.2001  0.1387
  351MOL0     H48400   7.339   0.011  -0.163  2.2330  0.6133  1.0755
  351MOL0     H48401   7.568   0.005  -0.207  1.5767 -0.1458 -1.8150
  351MOL0     H48402   7.643   0.116  -0.408 -0.3989  0.0125  2.1923
  351MOL0     H48403   7.759   0.053  -0.288  1.1199  2.8482 -0.5968
  351MOL0     H48404   7.921   0.029  -0.490  0.2394 -0.4527  2.8013
  351MOL0     H48405   7.810   0.136  -0.578 -0.3210 -1.9683 -1.2190
  351MOL0     H48406   7.997   0.271  -0.488 -1.2238 -2.8789 -2.7970
  351MOL0     H48407   7.989   0.189  -0.340  3.5736 -1.4832 -3.0095
  351MOL0     H48408   7.928   0.414  -0.306  2.0293 -3.2749  0.6220
  351MOL0     H48409   7.772   0.333  -0.294 -0.8841 -1.3394 -2.1851
  351MOL0     H48410   7.873   0.484  -0.539 -0.0704 -1.8175 -0.3595
  351MOL0     H48411   7.739   0.367  -0.546 -0.3204 -0.2054 -0.4264
  351MOL0     H48412   7.754   0.604  -0.356  0.3648 -2.9926  3.6331
  351MOL0     H48413   7.618   0.502  -0.362  2.1405  0.2600  0.0832
  351MOL0     H48414   7.549   0.559  -0.584 -0.7011  2.5191 -2.6097
  351MOL0     H48415   7.685   0.649  -0.628 -0.6035 -0.4314 -0.8256
  351MOL0     H48416   7.590   0.836  -0.547  3.2719 -1.6254 -0.6749
  351MOL0     H48417   7.598   0.786  -0.385 -0.1241  0.2177 -0.5536
  351MOL0     H48418   7.500  -0.191  -0.596  0.8450 -1.5436  0.5431
  351MOL0     H48419   7.270  -0.218  -0.530  1.6532 -0.3043 -2.2760
  351MOL0     H48420   6.955  -0.027  -0.169 -0.8087  0.1961 -0.0602
  351MOL0     H48421   6.738   0.077  -0.205 -0.7062 -0.5909  0.8967
  351MOL0     H48422   5.771   1.228   0.486  0.3725  0.0777  0.6972
  351MOL0     H48423   5.694   1.255   0.715  0.8475  0.2234  0.2732
  351MOL0     H48424   5.438   1.247   1.014  1.3708  1.4951  0.9450
  351MOL0     H48425   5.405   1.281   1.237  0.2953 -0.2268  0.9307
  351MOL0     H48426   5.478   1.256   1.455  0.7259 -1.8789 -2.2051
  351MOL0     H48427   5.303   1.274   1.465 -0.9307 -0.0595  1.3735
  351MOL0     H48428   5.414   1.287   1.688 -1.4234  1.1595 -1.5524
  351MOL0     H48429   5.487   1.130   1.672 -0.9698 -0.0237  0.8364
  351MOL0     H48430   5.193   1.179   1.686  0.5906 -0.5836 -1.7328
  351MOL0     H48431   5.259   1.017   1.657 -0.6834 -0.5217  0.1571
  351MOL0     H48432   5.387   1.064   1.889 -0.4469  1.9778  2.0864
  351MOL0     H48433   5.224   1.000   1.886 -1.1038 -0.3485  0.4606
  351MOL0     H48434   5.137   1.360   2.065  1.1629 -0.0715  1.6038
  351MOL0     H48435   5.369   0.848   1.298 -2.1810 -0.8519 -2.5560
  351MOL0     H48436   5.539   0.750   1.013  0.0192 -0.4928 -0.9054
  351MOL0     H48437   5.389   0.704   1.108 -1.5809 -0.3426 -0.8041
  351MOL0     H48438   5.378   0.762   0.948  2.8648 -0.4312 -1.5032
  352MOL0     O48439   9.444   2.557   2.676 -0.1944  0.2308  0.3514
  352MOL0     C48440   9.437   2.639   2.772 -0.7624  0.4832  0.5756
  352MOL0     O48441   9.454   2.609   2.900  0.2556 -0.1169 -0.9018
  352MOL0     C48442   9.496   2.483   2.938 -0.0156  0.0540  0.8115
  352MOL0     C48443   9.424   2.368   2.897 -0.4069 -0.5655 -0.3238
  352MOL0     C48444   9.467   2.240   2.939  0.6411 -0.0994 -0.1991
  352MOL0     C48445   9.582   2.226   3.017 -0.2681  0.0635 -0.1064
  352MOL0     O48446   9.641   2.103   3.037  0.3916 -0.0593  0.7164
  352MOL0     C48447   9.632   2.000   2.929 -0.3709 -0.1731 -0.0177
  352MOL0     C48448   9.758   1.914   2.934 -0.8802  0.2476  0.2484
  352MOL0     C48449   9.875   1.991   2.867  0.3124  0.5610  0.3818
  352MOL0     C48450   9.995   1.906   2.861  0.0402  0.5072  1.1181
  352MOL0     C48451  10.107   1.990   2.797 -0.8590 -0.3645 -0.0872
  352MOL0     C48452  10.236   1.903   2.801  0.4142 -0.1977 -0.0875
  352MOL0     C48453  10.360   1.999   2.767  0.9053 -0.7303  0.1382
  352MOL0     C48454  10.483   1.916   2.739  0.4737  0.0961 -0.1639
  352MOL0     N48455  10.593   2.012   2.719 -0.2163 -0.9185 -0.0202
  352MOL0     C48456  10.678   2.063   2.813  0.7328  0.2112  0.2846
  352MOL0     C48457  10.760   2.149   2.746 -0.2923  0.0982  0.3729
  352MOL0     C48458  10.868   2.230   2.797  1.0895  0.6251  0.4943
  352MOL0     C48459  10.998   2.153   2.834  1.3338  0.1579  0.5263
  352MOL0     C48460  11.091   2.225   2.927  0.3159 -1.4414  0.1910
  352MOL0     C48461  11.191   2.127   2.982  0.3084  0.2301  0.7032
  352MOL0     O48462  11.266   2.064   2.876  0.9495 -0.2619 -0.4683
  352MOL0     C48463  11.338   2.149   2.796 -0.6290  0.4507  0.2509
  352MOL0     C48464  11.314   2.153   2.662 -0.6167 -0.2857 -0.3245
  352MOL0     C48465  11.391   2.226   2.569  0.0415  1.2506  0.1800
  352MOL0     C48466  11.358   2.220   2.420  0.5524  0.0184 -0.3659
  352MOL0     C48467  11.494   2.295   2.615 -0.8555 -0.5582  0.0164
  352MOL0     C48468  11.585   2.384   2.534 -0.3626  0.4639 -0.2304
  352MOL0     O48469  11.718   2.355   2.532  0.7723 -0.1194  1.1062
  352MOL0     C48470  11.808   2.446   2.473 -0.5373  0.1395 -0.2071
  352MOL0     C48471  11.799   2.586   2.496  0.0998  0.6425 -0.1783
  352MOL0     C48472  11.901   2.669   2.452  0.8645 -0.8040 -0.3199
  352MOL0     C48473  12.020   2.627   2.402  0.4542 -0.6482 -0.1255
  352MOL0     O48474  12.132   2.696   2.361 -0.1583 -0.3571 -0.6395
  352MOL0     C48475  12.149   2.827   2.403  0.8292 -0.0947  1.5015
  352MOL0     C48476  12.090   2.921   2.295  0.8790 -0.4414 -0.6739
  352MOL0     C48477  12.107   3.071   2.345  0.6189  0.3241  0.1063
  352MOL0     C48478  12.024   3.164   2.249 -0.4820 -0.4175  0.8178
  352MOL0     C48479  11.996   3.306   2.307 -1.3036  0.2513 -0.5053
  352MOL0     C48480  12.123   3.384   2.352  0.5162  0.1715 -0.1536
  352MOL0     C48481  12.223   3.428   2.244  0.1372 -0.2170  0.1623
  352MOL0     C48482  12.345   3.492   2.318 -1.2167 -0.0666 -0.7061
  352MOL0    Cl48483  12.315   3.670   2.353  0.2897  0.5489 -0.1971
  352MOL0     C48484  12.030   2.489   2.378 -0.0077  0.3104  0.1186
  352MOL0     C48485  11.930   2.401   2.417 -0.7295 -0.2314  0.2496
  352MOL0     O48486  11.531   2.470   2.462  0.3167 -1.2207  0.1302
  352MOL0     C48487  11.529   2.294   2.754 -0.0830  0.0858 -0.6872
  352MOL0     C48488  11.453   2.215   2.839  0.0666  0.6216  0.1160
  352MOL0     N48489  10.726   2.133   2.614  0.9308  0.0269  0.0574
  352MOL0     N48490  10.621   2.067   2.598 -0.1850  0.1521 -0.4258
  352MOL0     C48491   9.640   2.339   3.067 -0.4916 -0.3892 -0.7312
  352MOL0     C48492   9.605   2.469   3.028  0.8539  0.0018  0.7478
  352MOL0     C48493   9.411   2.783   2.746 -0.2196  0.1518  1.1154
  352MOL0     C48494   9.437   2.869   2.845  0.0838  0.1992  0.2761
  352MOL0     C48495   9.435   3.003   2.836 -0.1244 -1.5149  0.5057
  352MOL0     C48496   9.390   3.063   2.722  0.0563 -0.3446  0.5620
  352MOL0     O48497   9.370   3.197   2.702 -0.0019 -0.2044  0.2517
  352MOL0     C48498   9.373   3.290   2.810  0.0190  0.0152  0.0138
  352MOL0     C48499   9.380   3.429   2.751 -0.3549  1.4636  0.4877
  352MOL0     C48500   9.368   3.522   2.869  0.7886 -0.5014  0.7610
  352MOL0     C48501   9.373   3.667   2.828 -0.0900 -0.8742 -0.7983
  352MOL0     C48502   9.326   3.752   2.941  0.4563  0.5479 -0.1064
  352MOL0     C48503   9.281   3.828   3.020  0.2109 -1.1143  0.5040
  352MOL0     C48504   9.355   2.979   2.614  0.4738 -0.2708  0.6934
  352MOL0     C48505   9.365   2.842   2.621 -1.1874 -0.1255  0.2903
  352MOL0     C48506   9.309   2.765   2.508  0.1991 -0.6970  0.8722
  352MOL0     H48507   9.331   2.371   2.841 -0.6480  0.2243  0.1068
  352MOL0     H48508   9.413   2.152   2.907 -1.4357  0.6639  1.0146
  352MOL0     H48509   9.621   2.050   2.832 -0.9313 -1.4066 -0.6195
  352MOL0     H48510   9.542   1.940   2.947  0.0965 -0.5351  1.2107
  352MOL0     H48511   9.779   1.895   3.039  5.0812  0.7492 -0.5046
  352MOL0     H48512   9.755   1.815   2.888  6.0867 -0.0254 -0.8217
  352MOL0     H48513   9.841   2.009   2.765  0.9554  0.3214  0.1186
  352MOL0     H48514   9.904   2.084   2.917  1.9577 -0.1139  0.7363
  352MOL0     H48515  10.021   1.873   2.962  1.3992  0.6703  0.8334
  352MOL0     H48516   9.980   1.826   2.787 -0.6492  1.5215  0.1186
  352MOL0     H48517  10.118   2.081   2.856  0.1881 -0.4267 -0.1801
  352MOL0     H48518  10.085   2.030   2.697  0.1446  2.2288  0.6687
  352MOL0     H48519  10.247   1.861   2.902  0.8484 -2.8473 -1.1546
  352MOL0     H48520  10.223   1.823   2.728  0.7872 -1.4707  1.1964
  352MOL0     H48521  10.386   2.068   2.847  2.6285  1.6225 -2.2593
  352MOL0     H48522  10.328   2.059   2.681 -0.1653  2.1573  2.4096
  352MOL0     H48523  10.497   1.842   2.819  0.0739 -1.8247 -1.7889
  352MOL0     H48524  10.453   1.855   2.653  0.8895  2.2688 -1.9516
  352MOL0     H48525  10.681   2.048   2.920  0.9224 -0.1732  0.2299
  352MOL0     H48526  10.839   2.277   2.891  3.3732 -0.2057  1.7044
  352MOL0     H48527  10.878   2.302   2.716 -0.1555  0.5297  0.2321
  352MOL0     H48528  10.964   2.059   2.879  2.8223  0.4931  2.5051
  352MOL0     H48529  11.055   2.127   2.745  2.6050  0.6171  1.1865
  352MOL0     H48530  11.140   2.309   2.878 -0.5064 -0.2361  1.3718
  352MOL0     H48531  11.025   2.267   3.003  0.2041 -1.7582  0.2729
  352MOL0     H48532  11.265   2.173   3.049 -2.3687  4.1287  1.3187
  352MOL0     H48533  11.140   2.044   3.030  1.4807  0.0987  1.7775
  352MOL0     H48534  11.231   2.100   2.617 -0.7841 -0.1347 -0.1943
  352MOL0     H48535  11.452   2.181   2.379 -0.9654 -2.3085 -1.8490
  352MOL0     H48536  11.333   2.320   2.384 -1.8965  0.0663  1.2449
  352MOL0     H48537  11.269   2.159   2.399  0.0679  0.6529 -0.1873
  352MOL0     H48538  11.707   2.630   2.533 -2.2408  0.5449 -4.9770
  352MOL0     H48539  11.878   2.771   2.483 -0.5661 -2.0768  3.2689
  352MOL0     H48540  12.099   2.843   2.499 -0.3355  0.2744  0.8546
  352MOL0     H48541  12.254   2.856   2.406  1.5207 -2.1331 -0.3842
  352MOL0     H48542  12.141   2.903   2.200  3.0955  1.1904  0.1256
  352MOL0     H48543  11.983   2.898   2.294  1.0382 -1.9199  2.6036
  352MOL0     H48544  12.212   3.101   2.334  0.5561  0.9243  1.0282
  352MOL0     H48545  12.060   3.081   2.443 -2.8772 -1.3441 -1.1914
  352MOL0     H48546  11.928   3.120   2.221  1.0893 -3.0513 -0.8194
  352MOL0     H48547  12.092   3.183   2.165  0.1747  0.5392  1.5441
  352MOL0     H48548  11.946   3.362   2.227  0.9899  1.1914 -1.3508
  352MOL0     H48549  11.917   3.306   2.383 -0.5800  0.6060  0.2487
  352MOL0     H48550  12.174   3.329   2.432 -0.8505  1.0091  1.3471
  352MOL0     H48551  12.092   3.476   2.402  1.4242  0.0559  0.6575
  352MOL0     H48552  12.178   3.496   2.170  2.9866 -0.6160 -2.1332
  352MOL0     H48553  12.248   3.334   2.193  1.3291 -0.5729  1.3534
  352MOL0     H48554  12.433   3.474   2.254 -0.3284 -2.2054  0.9776
  352MOL0     H48555  12.389   3.429   2.396  2.9257  3.4806  0.1824
  352MOL0     H48556  12.121   2.445   2.339  1.4706  1.9919  1.5148
  352MOL0     H48557  11.938   2.294   2.401 -4.3875 -0.8642  1.6078
  352MOL0     H48558  11.626   2.329   2.788  1.2553 -2.0234 -2.0909
  352MOL0     H48559  11.498   2.198   2.936  0.2372  0.9238  0.0906
  352MOL0     H48560   9.729   2.328   3.129 -0.9399 -1.8432 -0.3270
  352MOL0     H48561   9.662   2.555   3.061 -0.9899  0.5338  2.7886
  352MOL0     H48562   9.459   2.843   2.948  0.8024 -1.2667 -0.2227
  352MOL0     H48563   9.460   3.059   2.925 -0.7142 -2.6855  1.4435
  352MOL0     H48564   9.280   3.275   2.864  1.2404 -3.8466  1.3919
  352MOL0     H48565   9.453   3.275   2.883 -0.9572  2.4945  1.7099
  352MOL0     H48566   9.300   3.456   2.681 -0.2419 -0.5947 -0.5060
  352MOL0     H48567   9.475   3.439   2.697 -1.7289  0.9016 -2.2264
  352MOL0     H48568   9.271   3.496   2.913  0.3627  0.0872  0.2029
  352MOL0     H48569   9.456   3.507   2.931  0.9093 -2.2512  0.1998
  352MOL0     H48570   9.308   3.689   2.743 -0.0747 -0.3522 -0.6746
  352MOL0     H48571   9.472   3.701   2.797  0.0193  0.0295  0.4857
  352MOL0     H48572   9.234   3.902   3.082  0.7503 -0.3466  0.0116
  352MOL0     H48573   9.317   3.022   2.521  1.0626 -0.9031  0.1549
  352MOL0     H48574   9.201   2.753   2.525 -1.0623  0.9971 -4.1958
  352MOL0     H48575   9.318   2.809   2.408  0.7005 -1.9925  0.3203
  352MOL0     H48576   9.363   2.671   2.492 -0.7124 -1.0665 -0.2272
  353MOL0     O48577   5.759   1.768   3.139 -0.1043 -0.0061 -0.4096
  353MOL0     C48578   5.662   1.714   3.087  0.2627  0.3669  0.1810
  353MOL0     O48579   5.666   1.591   3.036  0.4378 -0.2631 -0.1604
  353MOL0     C48580   5.784   1.549   2.976 -0.1080 -0.0842 -0.5814
  353MOL0     C48581   5.860   1.631   2.895  0.6392 -0.5654  0.3678
  353MOL0     C48582   5.994   1.601   2.868  0.9876  0.3367 -0.4060
  353MOL0     C48583   6.046   1.483   2.904  0.5311  0.7605  0.2629
  353MOL0     O48584   6.177   1.448   2.886 -0.1471 -0.0091  0.1621
  353MOL0     C48585   6.279   1.554   2.894 -0.0400  0.1888 -0.7709
  353MOL0     C48586   6.429   1.518   2.882 -0.0895 -0.2119 -0.1045
  353MOL0     C48587   6.471   1.394   2.959  0.8779  0.2265 -0.1206
  353MOL0     C48588   6.616   1.358   2.929 -0.0197 -0.4699  0.1497
  353MOL0     C48589   6.657   1.226   2.974 -0.0618  0.9573  0.7455
  353MOL0     C48590   6.768   1.154   2.881 -0.3348 -0.0954 -0.9163
  353MOL0     C48591   6.895   1.236   2.868 -0.9716  0.0258  0.0699
  353MOL0     C48592   7.017   1.150   2.819  0.6620 -0.5207  0.7522
  353MOL0     N48593   7.144   1.230   2.842 -0.0959 -0.1489  0.1676
  353MOL0     C48594   7.234   1.235   2.730  0.2482  0.2166 -0.5773
  353MOL0     C48595   7.352   1.279   2.783  0.0604 -0.0473 -0.5559
  353MOL0     C48596   7.487   1.314   2.720 -0.0112  0.0501  0.2765
  353MOL0     C48597   7.602   1.329   2.818  0.0146 -0.2742 -0.0557
  353MOL0     C48598   7.735   1.377   2.753 -0.2381  0.0083 -0.9422
  353MOL0     C48599   7.855   1.361   2.843  0.1857  0.1226  0.7992
  353MOL0     O48600   7.985   1.381   2.783  0.5378  0.3483 -0.3816
  353MOL0     C48601   8.088   1.314   2.845 -0.3840  0.7282  0.7444
  353MOL0     C48602   8.179   1.246   2.766  0.3277  0.2186  0.6594
  353MOL0     C48603   8.293   1.183   2.820 -0.0016  0.6622  0.4223
  353MOL0     C48604   8.392   1.134   2.715 -0.0982  0.1585 -0.2305
  353MOL0     C48605   8.315   1.180   2.958 -0.0550 -0.3931 -0.0786
  353MOL0     C48606   8.445   1.132   3.019  0.3678  1.0883 -0.8244
  353MOL0     O48607   8.562   1.100   2.953  0.2348 -0.0504  0.2303
  353MOL0     C48608   8.673   1.054   3.019  0.1091  0.0597  0.2852
  353MOL0     C48609   8.748   0.952   2.958 -0.1562  0.2100 -0.4491
  353MOL0     C48610   8.870   0.910   3.005  0.4098  0.0103  0.5418
  353MOL0     C48611   8.922   0.964   3.120 -0.7860 -0.3837 -0.3734
  353MOL0     O48612   9.042   0.910   3.153 -0.0612 -0.1057  0.0713
  353MOL0     C48613   9.096   0.942   3.285 -0.7167  0.5428  0.1377
  353MOL0     C48614   9.214   0.841   3.314  0.4454  0.3131  0.1611
  353MOL0     C48615   9.245   0.842   3.456  0.3421 -0.3098 -1.1115
  353MOL0     C48616   9.373   0.767   3.494 -0.7441  0.0671  0.8500
  353MOL0     C48617   9.389   0.730   3.641  0.7363  0.3263 -0.4010
  353MOL0     C48618   9.390   0.840   3.756 -0.4712 -0.3675 -0.2606
  353MOL0     C48619   9.515   0.938   3.748 -0.0004  1.2938  0.2425
  353MOL0     C48620   9.499   1.048   3.846 -0.2303  0.2370 -0.5162
  353MOL0    Cl48621   9.391   1.171   3.771 -0.5479 -0.2017 -0.2509
  353MOL0     C48622   8.844   1.058   3.193 -0.7804  0.1940  0.5870
  353MOL0     C48623   8.725   1.107   3.130  0.7553 -0.3852  0.0875
  353MOL0     O48624   8.430   1.121   3.139 -0.1048 -0.4691  0.0522
  353MOL0     C48625   8.219   1.239   3.036  0.5540  0.1942  0.9846
  353MOL0     C48626   8.113   1.300   2.977  0.5645  0.2103  0.0987
  353MOL0     N48627   7.335   1.289   2.922  0.3393 -0.6712  0.9430
  353MOL0     N48628   7.209   1.263   2.953  0.4663  0.0444 -0.5573
  353MOL0     C48629   5.959   1.387   2.970  0.0879  0.5520 -0.5339
  353MOL0     C48630   5.829   1.423   3.016  0.0829  0.9426  0.0333
  353MOL0     C48631   5.537   1.778   3.075  0.9642 -0.1056 -0.1430
  353MOL0     C48632   5.424   1.715   3.131  0.5167  0.2666  0.8967
  353MOL0     C48633   5.299   1.780   3.122  0.3820 -0.1709  0.4980
  353MOL0     C48634   5.290   1.901   3.054  0.0029 -0.6607 -0.3098
  353MOL0     O48635   5.164   1.953   3.028  0.2303  0.3516  0.0610
  353MOL0     C48636   5.128   1.955   2.881  1.8508  0.0226 -0.0575
  353MOL0     C48637   5.061   1.821   2.850  1.1673 -0.3494 -0.3446
  353MOL0     C48638   4.924   1.818   2.918  0.3490  0.1312 -0.2834
  353MOL0     C48639   4.826   1.707   2.875 -0.4263  0.6218  0.6844
  353MOL0     C48640   4.778   1.738   2.737  0.1316 -0.6259 -0.4841
  353MOL0     C48641   4.754   1.776   2.626  1.0369 -0.5051 -0.1731
  353MOL0     C48642   5.398   1.964   3.002 -0.6621 -0.0560  0.1719
  353MOL0     C48643   5.524   1.904   3.012  0.1565 -0.8551  0.3994
  353MOL0     C48644   5.642   1.963   2.944  1.1348 -0.2578 -0.2700
  353MOL0     H48645   5.819   1.725   2.860  0.3336 -0.2778  1.4419
  353MOL0     H48646   6.056   1.672   2.814  0.8139  0.2809 -0.6771
  353MOL0     H48647   6.282   1.598   2.995  1.4872  0.3239 -0.8573
  353MOL0     H48648   6.257   1.639   2.828  0.1797 -0.1371 -1.2671
  353MOL0     H48649   6.446   1.498   2.776 -2.4439  1.2360 -0.8391
  353MOL0     H48650   6.501   1.594   2.914 -1.0036  2.7994 -4.2409
  353MOL0     H48651   6.462   1.408   3.067 -1.2775  3.2064 -0.5728
  353MOL0     H48652   6.408   1.315   2.918  0.3420 -0.7424  2.3884
  353MOL0     H48653   6.623   1.369   2.820 -1.1320 -1.0845  0.0044
  353MOL0     H48654   6.676   1.433   2.982 -0.9166  0.6894 -0.4403
  353MOL0     H48655   6.568   1.165   2.957  1.2298 -0.7573 -0.2554
  353MOL0     H48656   6.680   1.234   3.080 -0.6584  2.3291  0.7933
  353MOL0     H48657   6.792   1.061   2.934  0.1271  1.9012  2.6250
  353MOL0     H48658   6.725   1.144   2.781 -0.7994  0.0570 -0.7348
  353MOL0     H48659   6.917   1.270   2.970  0.2842  0.5488 -0.3619
  353MOL0     H48660   6.877   1.325   2.806  1.9564 -0.4563 -1.6530
  353MOL0     H48661   7.032   1.060   2.879  2.6408 -0.9754 -0.3236
  353MOL0     H48662   7.002   1.121   2.715  0.0785 -2.5143  1.3554
  353MOL0     H48663   7.218   1.220   2.624 -3.5501 -3.3586  0.2434
  353MOL0     H48664   7.469   1.413   2.676  0.8521  0.6777  1.2695
  353MOL0     H48665   7.527   1.244   2.646  2.1013 -0.7126  2.0354
  353MOL0     H48666   7.578   1.381   2.912  0.0203  1.9602 -1.2367
  353MOL0     H48667   7.626   1.225   2.844  0.1336  0.1088  1.4724
  353MOL0     H48668   7.757   1.320   2.662  0.6118 -0.1879 -0.6221
  353MOL0     H48669   7.721   1.483   2.727 -3.6787 -0.2436 -0.5590
  353MOL0     H48670   7.840   1.424   2.932 -1.7130  2.1056 -0.8003
  353MOL0     H48671   7.843   1.257   2.872 -3.1187 -0.2794 -1.5144
  353MOL0     H48672   8.161   1.251   2.659 -0.0341 -2.3582  0.5320
  353MOL0     H48673   8.357   1.031   2.705 -0.1351 -0.1318  2.3246
  353MOL0     H48674   8.496   1.157   2.741  0.1525 -0.9742 -0.2043
  353MOL0     H48675   8.380   1.182   2.617  2.2691  1.3186 -0.0515
  353MOL0     H48676   8.705   0.902   2.871 -1.3239  0.8812 -0.2717
  353MOL0     H48677   8.921   0.841   2.939 -0.2164  1.9691 -2.1915
  353MOL0     H48678   9.134   1.044   3.293  0.9025 -0.1594  2.6745
  353MOL0     H48679   9.015   0.935   3.359  0.6828 -1.3890  1.5878
  353MOL0     H48680   9.179   0.743   3.280  0.0443  0.1490  1.0127
  353MOL0     H48681   9.307   0.873   3.266  1.2988 -0.6429  1.1200
  353MOL0     H48682   9.160   0.795   3.505 -0.6231  0.8582 -1.5977
  353MOL0     H48683   9.252   0.944   3.496 -0.4949 -0.8605  0.4952
  353MOL0     H48684   9.460   0.825   3.461 -0.6336 -0.3922  0.3106
  353MOL0     H48685   9.371   0.682   3.425 -0.4405 -0.8417  1.9253
  353MOL0     H48686   9.297   0.679   3.672  1.0307  0.4323  0.7179
  353MOL0     H48687   9.472   0.662   3.661  1.7829  1.9502  1.0740
  353MOL0     H48688   9.381   0.786   3.850 -0.0125 -0.3256 -0.1907
  353MOL0     H48689   9.305   0.909   3.753 -0.2287 -0.0517  0.0530
  353MOL0     H48690   9.548   0.971   3.649  0.6146  0.3964  0.1306
  353MOL0     H48691   9.599   0.876   3.782  1.7984  2.0403 -2.5232
  353MOL0     H48692   9.601   1.088   3.849  0.4788 -1.5587  1.2433
  353MOL0     H48693   9.473   1.016   3.947 -0.1127 -2.3920 -1.2612
  353MOL0     H48694   8.885   1.106   3.282  0.3913 -1.8661  1.2265
  353MOL0     H48695   8.668   1.183   3.183  1.4338 -0.5173  1.0374
  353MOL0     H48696   8.224   1.233   3.144  0.6651 -5.6406  0.9448
  353MOL0     H48697   8.048   1.349   3.049 -1.5115 -1.9070 -0.2113
  353MOL0     H48698   5.995   1.285   2.983  0.4807  0.6983 -0.4571
  353MOL0     H48699   5.768   1.356   3.076  1.8634 -1.1867 -0.4099
  353MOL0     H48700   5.429   1.613   3.168 -3.4932 -1.7070 -3.0407
  353MOL0     H48701   5.205   1.740   3.158  0.5861  1.1412  2.6460
  353MOL0     H48702   5.069   2.045   2.858  0.6440 -1.5701 -4.0070
  353MOL0     H48703   5.213   1.970   2.814 -0.7702  3.2299 -3.0762
  353MOL0     H48704   5.116   1.736   2.892  1.1923  1.1754  2.9971
  353MOL0     H48705   5.040   1.821   2.743 -0.9484 -0.1654  0.0299
  353MOL0     H48706   4.945   1.818   3.026  2.9864  1.7821 -0.6797
  353MOL0     H48707   4.869   1.911   2.905 -1.4847 -0.6966  1.1873
  353MOL0     H48708   4.740   1.699   2.943  2.4833 -1.1270  4.5179
  353MOL0     H48709   4.874   1.609   2.873  0.2823  0.9636  0.6891
  353MOL0     H48710   4.745   1.810   2.524  1.0294  0.5321  0.1634
  353MOL0     H48711   5.383   2.059   2.952  1.8761  1.1113  1.4410
  353MOL0     H48712   5.723   1.975   3.016  0.9076 -2.7156  0.4871
  353MOL0     H48713   5.681   1.899   2.864  0.3381 -3.4774  1.7396
  353MOL0     H48714   5.610   2.058   2.900 -1.1686 -1.6479 -1.8139
  354MOL0     O48715   2.057   1.639   9.163  0.2667 -0.2409 -0.6261
  354MOL0     C48716   1.966   1.713   9.164 -0.7630 -0.1284  0.7000
  354MOL0     O48717   1.888   1.739   9.279 -0.6735  0.0686  0.2615
  354MOL0     C48718   1.901   1.663   9.392 -0.1386 -0.3117 -1.2779
  354MOL0     C48719   1.786   1.612   9.449 -0.0609 -0.0639 -0.0537
  354MOL0     C48720   1.789   1.531   9.561 -0.1597  0.3040  0.0593
  354MOL0     C48721   1.907   1.504   9.626  0.6920 -0.2299 -0.8496
  354MOL0     O48722   1.905   1.429   9.740 -0.1952 -0.5261 -0.3908
  354MOL0     C48723   1.959   1.493   9.855 -0.4174 -0.0458 -0.9577
  354MOL0     C48724   2.019   1.384   9.950 -0.4477  0.4996  0.6302
  354MOL0     C48725   2.022   1.434  10.095  0.6544  0.4480  0.1506
  354MOL0     C48726   2.097   1.349  10.188  0.1395 -0.4413 -0.6747
  354MOL0     C48727   2.125   1.409  10.330  0.5548 -1.2144 -0.1515
  354MOL0     C48728   2.245   1.349  10.412 -0.5298  0.5034 -0.4904
  354MOL0     C48729   2.244   1.197  10.418  0.3807 -0.5521  1.1523
  354MOL0     C48730   2.347   1.158  10.524 -0.1146 -0.3890 -0.2498
  354MOL0     N48731   2.484   1.157  10.477 -0.1853 -0.1145  0.6393
  354MOL0     C48732   2.588   1.200  10.557 -0.2429 -0.5720  0.3467
  354MOL0     C48733   2.696   1.141  10.488 -0.4882  0.3567  0.3520
  354MOL0     C48734   2.838   1.140  10.531  0.1085  0.2036  0.1620
  354MOL0     C48735   2.842   1.064  10.664 -0.4038 -0.5652 -0.1084
  354MOL0     C48736   2.789   0.922  10.682 -0.5416 -0.2760  0.1234
  354MOL0     C48737   2.848   0.816  10.575  0.1071 -0.4399 -0.8287
  354MOL0     O48738   2.980   0.790  10.616  0.3622 -0.5036 -0.1099
  354MOL0     C48739   3.057   0.691  10.555 -0.1220  0.2903 -0.3025
  354MOL0     C48740   3.178   0.641  10.606 -0.0425  0.6882  0.0977
  354MOL0     C48741   3.258   0.534  10.554  1.0243 -0.6505 -0.3759
  354MOL0     C48742   3.384   0.490  10.617 -1.1137  0.2436  0.1667
  354MOL0     C48743   3.205   0.471  10.438  0.6515 -0.1433  0.1479
  354MOL0     C48744   3.272   0.362  10.364 -0.5931  1.5076 -0.8273
  354MOL0     O48745   3.270   0.359  10.227  0.1239 -0.1871 -0.1148
  354MOL0     C48746   3.334   0.265  10.155 -0.0503  0.0202  0.7638
  354MOL0     C48747   3.368   0.132  10.187 -0.4883  1.0215  0.5371
  354MOL0     C48748   3.433   0.051  10.088 -0.1499 -0.1354  0.2389
  354MOL0     C48749   3.453   0.096   9.960 -0.6185  1.1104  0.2867
  354MOL0     O48750   3.536   0.016   9.885 -0.0586 -0.0493 -0.4236
  354MOL0     C48751   3.499  -0.119   9.845 -0.2101  1.5014  0.6470
  354MOL0     C48752   3.634  -0.186   9.817 -0.9173 -0.3059  0.4542
  354MOL0     C48753   3.700  -0.155   9.693 -0.1085  0.8458  0.3926
  354MOL0     C48754   3.739  -0.010   9.680 -0.3129 -0.5583  0.5676
  354MOL0     C48755   3.834   0.022   9.559  0.0778 -0.0597  0.3147
  354MOL0     C48756   3.765  -0.011   9.427  0.1739  0.4914 -1.1851
  354MOL0     C48757   3.840   0.055   9.315  0.2548  0.4373 -0.4287
  354MOL0     C48758   3.770   0.031   9.184 -0.5092  0.0647  0.2968
  354MOL0    Cl48759   3.763  -0.143   9.123  0.0440 -0.0914 -0.3608
  354MOL0     C48760   3.399   0.218   9.920 -0.8909  0.2175  0.1249
  354MOL0     C48761   3.341   0.291  10.019 -0.7725 -0.3358  0.2149
  354MOL0     O48762   3.310   0.269  10.438 -0.4689  0.3948 -0.2380
  354MOL0     C48763   3.084   0.512  10.380  0.5000  1.0386 -0.2766
  354MOL0     C48764   3.012   0.613  10.442 -0.1084 -0.1113  0.0113
  354MOL0     N48765   2.661   1.080  10.372  0.1949 -0.8645  0.1007
  354MOL0     N48766   2.535   1.095  10.365 -0.2179  0.0868 -0.6615
  354MOL0     C48767   2.022   1.560   9.572 -0.0732  0.2474 -0.8362
  354MOL0     C48768   2.023   1.648   9.463  0.3775  0.6050 -0.2177
  354MOL0     C48769   1.945   1.806   9.054 -0.4282 -0.9944 -0.3876
  354MOL0     C48770   1.916   1.943   9.076  0.0776  0.4875 -0.1236
  354MOL0     C48771   1.918   2.035   8.974  0.0428 -0.1964 -0.4722
  354MOL0     C48772   1.962   1.996   8.840 -0.4804 -0.3481 -0.6665
  354MOL0     O48773   1.975   2.092   8.740 -0.5523 -0.2575  0.0374
  354MOL0     C48774   2.062   2.059   8.622  0.1493 -0.9155  0.0437
  354MOL0     C48775   2.093   2.202   8.568  0.9176 -0.0372  0.0570
  354MOL0     C48776   1.969   2.251   8.494  0.9239  0.2117  0.1638
  354MOL0     C48777   1.997   2.355   8.379 -0.5741 -0.6890  0.1572
  354MOL0     C48778   2.097   2.464   8.414 -0.0963  0.0296  0.0255
  354MOL0     C48779   2.188   2.537   8.448  1.0418  0.3712  0.3207
  354MOL0     C48780   1.977   1.860   8.819  0.2773  0.2011 -0.3223
  354MOL0     C48781   1.961   1.767   8.924 -0.2116 -0.9954  1.2075
  354MOL0     C48782   1.984   1.623   8.879 -0.1514  0.5415  0.5031
  354MOL0     H48783   1.694   1.645   9.401 -1.1871 -1.5143  1.0005
  354MOL0     H48784   1.700   1.493   9.611 -1.0545  3.1615  0.8556
  354MOL0     H48785   1.877   1.550   9.900 -0.8611 -1.0041 -0.5280
  354MOL0     H48786   2.040   1.562   9.832  0.4633 -1.3345 -1.8404
  354MOL0     H48787   1.954   1.296   9.939 -0.9158  1.0818 -1.7468
  354MOL0     H48788   2.117   1.345   9.921 -1.2808  0.0275 -1.7775
  354MOL0     H48789   2.065   1.535  10.098  3.0729 -0.3859 -2.1192
  354MOL0     H48790   1.921   1.438  10.137 -0.0415 -0.2403 -1.3858
  354MOL0     H48791   2.035   1.261  10.209  1.2760 -1.0797  0.1100
  354MOL0     H48792   2.196   1.324  10.148 -0.5274 -2.0846 -1.4080
  354MOL0     H48793   2.036   1.389  10.390  0.1193 -1.7520 -0.9610
  354MOL0     H48794   2.150   1.513  10.310  1.0305 -1.3395 -0.2323
  354MOL0     H48795   2.342   1.379  10.370  1.2664 -2.8699  0.8466
  354MOL0     H48796   2.232   1.405  10.505  1.5692 -0.4696  0.4582
  354MOL0     H48797   2.264   1.149  10.322  1.6389  3.8198 -1.0597
  354MOL0     H48798   2.151   1.159  10.460  0.8788 -0.0970  2.7223
  354MOL0     H48799   2.341   1.228  10.608  1.8263 -1.6636  1.0335
  354MOL0     H48800   2.304   1.067  10.566 -0.7549 -0.3061 -0.7109
  354MOL0     H48801   2.581   1.242  10.657 -3.9960 -0.0872  0.0169
  354MOL0     H48802   2.876   1.237  10.563  3.2656 -0.4831 -1.1288
  354MOL0     H48803   2.903   1.102  10.452 -3.0819 -0.3122 -2.3926
  354MOL0     H48804   2.943   1.056  10.706 -0.0148 -1.5594 -1.2062
  354MOL0     H48805   2.782   1.134  10.723 -0.9313  0.4000 -1.7244
  354MOL0     H48806   2.786   0.890  10.787  3.0741 -0.4256  0.2931
  354MOL0     H48807   2.684   0.918  10.651 -0.1716  1.3001 -1.5050
  354MOL0     H48808   2.785   0.729  10.595 -1.9534  1.7241  3.1682
  354MOL0     H48809   2.846   0.848  10.471 -1.4641 -1.1616 -1.0475
  354MOL0     H48810   3.224   0.664  10.702  1.2180 -3.7987  0.8032
  354MOL0     H48811   3.418   0.552  10.702 -1.1100  1.4699 -0.6990
  354MOL0     H48812   3.462   0.500  10.541  0.3649 -2.0123  1.2731
  354MOL0     H48813   3.377   0.383  10.636  0.5316 -1.0097 -4.7939
  354MOL0     H48814   3.335   0.087  10.279  1.9831 -0.0189  0.9981
  354MOL0     H48815   3.463  -0.045  10.131 -0.7847 -0.5391 -0.2140
  354MOL0     H48816   3.448  -0.177   9.923  1.7608  1.3461  1.8819
  354MOL0     H48817   3.443  -0.115   9.751 -0.7903 -1.0445  0.8084
  354MOL0     H48818   3.694  -0.157   9.905  1.1111 -0.7565 -0.7105
  354MOL0     H48819   3.616  -0.294   9.826 -2.4108 -0.2277 -1.1763
  354MOL0     H48820   3.638  -0.190   9.610 -2.2996  2.3286  1.3351
  354MOL0     H48821   3.789  -0.218   9.681  0.0176  1.3013 -1.4382
  354MOL0     H48822   3.792   0.025   9.769  0.2786 -1.1160  0.4404
  354MOL0     H48823   3.655   0.060   9.674  0.6493  0.7969  2.0219
  354MOL0     H48824   3.867   0.127   9.558  1.5915 -0.4078 -3.4356
  354MOL0     H48825   3.923  -0.040   9.544 -0.6814 -0.7121 -1.7742
  354MOL0     H48826   3.663   0.028   9.430 -0.3301 -0.5191 -3.3122
  354MOL0     H48827   3.767  -0.120   9.413  2.2866  0.1603  0.9506
  354MOL0     H48828   3.945   0.025   9.313 -0.0055 -1.2976  3.3360
  354MOL0     H48829   3.831   0.163   9.331  2.5580  0.9371 -1.9167
  354MOL0     H48830   3.806   0.095   9.103  3.1366 -0.2330  1.4817
  354MOL0     H48831   3.666   0.059   9.204 -0.4560  0.1689  0.4306
  354MOL0     H48832   3.420   0.254   9.820 -0.8173  0.0789  0.0894
  354MOL0     H48833   3.302   0.387   9.986 -1.2651 -1.3115 -2.1740
  354MOL0     H48834   3.046   0.467  10.289  0.8938  2.4249 -1.1605
  354MOL0     H48835   2.915   0.633  10.399 -0.9447 -2.6518  0.5380
  354MOL0     H48836   2.104   1.520   9.630 -0.7214  1.2286  0.8250
  354MOL0     H48837   2.114   1.696   9.427  0.1791  0.0114 -1.5822
  354MOL0     H48838   1.911   1.981   9.178  0.9954  1.1928 -0.3250
  354MOL0     H48839   1.891   2.140   8.981 -1.4004 -0.5020 -1.1583
  354MOL0     H48840   2.156   2.007   8.645  0.7993 -0.4678 -1.4523
  354MOL0     H48841   2.009   1.997   8.549  2.5734 -1.3967 -1.4259
  354MOL0     H48842   2.181   2.196   8.503  1.9138 -2.5446  1.4979
  354MOL0     H48843   2.113   2.275   8.646 -1.5673 -1.0209  1.7212
  354MOL0     H48844   1.923   2.164   8.445 -1.1790  0.4802  1.5360
  354MOL0     H48845   1.901   2.296   8.566  1.2900  0.6828  0.2134
  354MOL0     H48846   1.906   2.402   8.342 -0.0093 -2.1467 -3.4670
  354MOL0     H48847   2.032   2.301   8.290  0.4854 -0.2171  0.2652
  354MOL0     H48848   2.267   2.602   8.479  1.5207  1.9210 -3.5084
  354MOL0     H48849   1.984   1.836   8.713  0.7772 -0.8702 -0.0660
  354MOL0     H48850   2.090   1.611   8.857 -1.0030 -3.3522 -2.7978
  354MOL0     H48851   1.943   1.545   8.944  4.4096 -0.1491  2.9790
  354MOL0     H48852   1.935   1.605   8.782 -1.1021  0.8705  0.9079
  355MOL0     O48853   9.943   1.661   8.549 -0.2629 -0.0607 -0.3555
  355MOL0     C48854   9.855   1.694   8.473 -0.3401  1.0052 -0.0134
  355MOL0     O48855   9.840   1.641   8.351 -0.6164 -0.4277  0.5918
  355MOL0     C48856   9.926   1.542   8.320  0.1956  0.1066 -0.5392
  355MOL0     C48857   9.891   1.404   8.338 -0.5837 -0.0207  0.1873
  355MOL0     C48858   9.973   1.307   8.288 -0.4512 -0.3121  0.2640
  355MOL0     C48859  10.093   1.335   8.224  0.4075  0.4082  0.6009
  355MOL0     O48860  10.182   1.242   8.173 -0.1539  0.3953 -0.0539
  355MOL0     C48861  10.132   1.114   8.127  0.2817  0.1734  0.0486
  355MOL0     C48862  10.155   1.011   8.235  0.2550 -0.1908 -0.2053
  355MOL0     C48863  10.176   0.873   8.171 -0.3349 -0.5153  0.1899
  355MOL0     C48864  10.240   0.775   8.284 -0.0420 -0.5516  0.3349
  355MOL0     C48865  10.304   0.653   8.214  0.2932  0.5588 -0.5850
  355MOL0     C48866  10.376   0.562   8.321 -0.0925  0.2730 -0.4485
  355MOL0     C48867  10.461   0.631   8.439  1.3269  0.5306  0.0143
  355MOL0     C48868  10.541   0.531   8.526 -0.2782  0.2624 -0.4875
  355MOL0     N48869  10.673   0.488   8.478 -0.4790 -0.5910  0.1902
  355MOL0     C48870  10.779   0.576   8.456 -0.3007 -0.1470  0.6405
  355MOL0     C48871  10.881   0.492   8.403  0.5961 -0.9207 -0.2490
  355MOL0     C48872  11.025   0.528   8.378 -0.2552 -0.9202 -0.6279
  355MOL0     C48873  11.116   0.536   8.495  0.3175  0.4460  0.1859
  355MOL0     C48874  11.089   0.677   8.573  0.1530  0.1236  0.1396
  355MOL0     C48875  11.172   0.671   8.707  0.3264 -0.6938  0.7389
  355MOL0     O48876  11.309   0.657   8.686  0.3610 -0.0903 -0.3491
  355MOL0     C48877  11.401   0.677   8.783 -0.5583  0.2479  0.5038
  355MOL0     C48878  11.366   0.690   8.915 -0.1427 -0.2298 -1.4501
  355MOL0     C48879  11.466   0.716   9.012 -0.4727  0.4567  0.0058
  355MOL0     C48880  11.422   0.714   9.147 -0.1996  0.6936  0.1346
  355MOL0     C48881  11.605   0.731   8.973  0.9150  0.5395  0.0205
  355MOL0     C48882  11.711   0.778   9.066  0.3407 -0.2779 -0.6185
  355MOL0     O48883  11.815   0.829   9.000 -1.1315 -0.1656 -0.3667
  355MOL0     C48884  11.923   0.877   9.070 -1.1804 -0.2491  0.3652
  355MOL0     C48885  11.921   1.008   9.108 -0.2338 -0.3667  0.3264
  355MOL0     C48886  12.036   1.067   9.161 -0.8651  0.2190 -0.7145
  355MOL0     C48887  12.151   0.982   9.185  0.4360 -1.0548  0.2047
  355MOL0     O48888  12.256   1.018   9.259 -0.3770 -0.8224  0.1469
  355MOL0     C48889  12.264   1.148   9.317 -0.6919  0.6215  0.3986
  355MOL0     C48890  12.411   1.158   9.358 -1.0643  0.4109 -0.3056
  355MOL0     C48891  12.453   1.058   9.473 -0.8720 -0.3675  0.6671
  355MOL0     C48892  12.608   1.066   9.497 -0.3150 -0.7048  0.4217
  355MOL0     C48893  12.656   0.961   9.594 -0.7916  0.3373 -0.3057
  355MOL0     C48894  12.806   0.973   9.635 -0.1217  0.1312 -0.0528
  355MOL0     C48895  12.911   0.987   9.513 -0.9165 -0.6640 -0.4401
  355MOL0     C48896  13.052   0.978   9.567 -0.4893  0.0091  0.7588
  355MOL0    Cl48897  13.169   1.063   9.460 -0.2550 -0.7616 -0.2573
  355MOL0     C48898  12.148   0.849   9.145 -0.2783  0.6247 -0.3410
  355MOL0     C48899  12.038   0.799   9.080 -0.1937 -0.1147 -0.4633
  355MOL0     O48900  11.698   0.767   9.188 -0.2328 -0.2148 -0.4672
  355MOL0     C48901  11.633   0.713   8.835  0.2439  0.3142 -0.3054
  355MOL0     C48902  11.537   0.676   8.740  0.6908  0.7088 -0.1793
  355MOL0     N48903  10.832   0.361   8.411 -1.3398 -0.7676  0.2446
  355MOL0     N48904  10.715   0.355   8.471  0.6079  0.0363  0.3675
  355MOL0     C48905  10.135   1.472   8.207  0.2128 -0.7416  0.0261
  355MOL0     C48906  10.047   1.575   8.257  0.6738  0.1022  0.2673
  355MOL0     C48907   9.764   1.803   8.511  0.1866 -0.4731 -0.1409
  355MOL0     C48908   9.715   1.897   8.416 -0.2935 -0.3193  0.1570
  355MOL0     C48909   9.648   2.017   8.456 -0.4130 -0.0128  0.6703
  355MOL0     C48910   9.613   2.035   8.588  0.0054  0.3473 -0.1399
  355MOL0     O48911   9.555   2.148   8.648  1.2065 -0.1254  0.1242
  355MOL0     C48912   9.507   2.245   8.558 -0.0989  0.7734 -0.2203
  355MOL0     C48913   9.420   2.350   8.629 -0.7485 -0.7051 -0.1949
  355MOL0     C48914   9.487   2.452   8.720  0.3700  0.6962 -0.5603
  355MOL0     C48915   9.563   2.564   8.657 -0.5856  0.2432 -0.2403
  355MOL0     C48916   9.474   2.655   8.580  0.5757  0.1215 -0.9747
  355MOL0     C48917   9.383   2.699   8.520 -0.8081 -0.0110 -0.2287
  355MOL0     C48918   9.645   1.929   8.680  0.2613  0.2102 -0.3210
  355MOL0     C48919   9.711   1.816   8.644  0.4352 -0.9403 -0.4764
  355MOL0     C48920   9.740   1.712   8.743 -0.3051 -0.0707 -0.3476
  355MOL0     H48921   9.804   1.371   8.392  0.3281 -0.3207  1.5240
  355MOL0     H48922   9.949   1.201   8.288  0.0503 -0.4283  0.5260
  355MOL0     H48923  10.192   1.085   8.040 -0.0094 -0.9340  0.2029
  355MOL0     H48924  10.025   1.124   8.106  0.7040 -0.7127 -3.0766
  355MOL0     H48925  10.247   1.042   8.286 -1.9442  2.2201  2.7337
  355MOL0     H48926  10.074   1.011   8.309  1.0501  1.8601  0.7622
  355MOL0     H48927  10.072   0.845   8.150 -1.1820  0.8141  2.2204
  355MOL0     H48928  10.234   0.874   8.078 -0.9317  1.0388 -0.1987
  355MOL0     H48929  10.320   0.834   8.330  0.3112 -0.2111 -0.6749
  355MOL0     H48930  10.168   0.731   8.353 -1.2254 -0.7847 -1.0035
  355MOL0     H48931  10.375   0.686   8.138 -0.7818  2.3184 -0.8791
  355MOL0     H48932  10.235   0.595   8.152 -0.4395  2.3760 -1.5532
  355MOL0     H48933  10.305   0.513   8.388  1.4937  1.3546  2.1975
  355MOL0     H48934  10.435   0.483   8.273 -0.2604  0.0239 -0.2505
  355MOL0     H48935  10.401   0.688   8.509  2.0877  2.2549 -0.6808
  355MOL0     H48936  10.532   0.702   8.395 -0.9441  2.3587 -0.8499
  355MOL0     H48937  10.555   0.580   8.623  0.6282 -1.8241  0.4958
  355MOL0     H48938  10.493   0.434   8.538  0.3585 -0.3568 -2.5847
  355MOL0     H48939  10.777   0.685   8.461  0.4213 -0.1608  1.4322
  355MOL0     H48940  11.030   0.625   8.327 -0.1408 -0.5381  0.0957
  355MOL0     H48941  11.072   0.460   8.307  0.0147  2.3628 -3.9039
  355MOL0     H48942  11.109   0.447   8.559  0.9109  0.3705  0.1533
  355MOL0     H48943  11.225   0.534   8.479  0.3617 -1.5302  0.4816
  355MOL0     H48944  11.116   0.760   8.508 -3.7910  0.8252 -0.9016
  355MOL0     H48945  10.983   0.680   8.601  1.1164  0.2571  4.4714
  355MOL0     H48946  11.151   0.763   8.761 -2.7655 -1.5272  1.1889
  355MOL0     H48947  11.134   0.587   8.766  0.1793 -0.8710  0.3987
  355MOL0     H48948  11.266   0.664   8.949 -1.3143 -0.9170 -5.0113
  355MOL0     H48949  11.488   0.653   9.210 -3.6055  0.4293  3.8667
  355MOL0     H48950  11.323   0.672   9.165 -1.2327  3.3691  1.3706
  355MOL0     H48951  11.442   0.816   9.182 -0.3975  1.1351 -1.0144
  355MOL0     H48952  11.833   1.067   9.086  1.5381  1.6881 -1.6386
  355MOL0     H48953  12.041   1.175   9.178 -0.9424 -0.0705  1.5022
  355MOL0     H48954  12.238   1.232   9.252 -1.7410 -0.1531 -0.2034
  355MOL0     H48955  12.192   1.144   9.399 -0.4087 -1.0890  0.6081
  355MOL0     H48956  12.468   1.145   9.265  1.9941  0.5210  1.4256
  355MOL0     H48957  12.433   1.253   9.406  0.5830  0.0665 -0.3166
  355MOL0     H48958  12.433   0.958   9.434  3.6612 -0.2929 -2.7048
  355MOL0     H48959  12.393   1.072   9.563 -1.8464 -0.5152  0.0579
  355MOL0     H48960  12.634   1.165   9.537  0.6015 -1.0582  0.7432
  355MOL0     H48961  12.649   1.054   9.396 -0.1783 -1.0374  0.5154
  355MOL0     H48962  12.600   0.966   9.687  0.1357  0.0570  0.2829
  355MOL0     H48963  12.629   0.865   9.549 -1.6491  0.0898  0.7015
  355MOL0     H48964  12.835   0.895   9.705 -2.6252  0.6803  1.7311
  355MOL0     H48965  12.812   1.071   9.682  3.2201 -0.0801  0.2001
  355MOL0     H48966  12.894   1.086   9.470 -1.2949 -0.4160  0.2581
  355MOL0     H48967  12.896   0.919   9.429  2.1096  1.1937 -2.6896
  355MOL0     H48968  13.082   0.873   9.573  1.5668  0.4566 -0.5017
  355MOL0     H48969  13.060   1.022   9.667  0.1358 -0.0094  0.7211
  355MOL0     H48970  12.236   0.792   9.174 -1.6951  0.0508  3.3421
  355MOL0     H48971  12.044   0.697   9.041  0.7662 -2.2832  4.5562
  355MOL0     H48972  11.737   0.737   8.812  0.3541  0.1203 -0.0100
  355MOL0     H48973  11.563   0.659   8.636 -1.9866  0.4690 -0.8895
  355MOL0     H48974  10.222   1.502   8.149 -1.5289 -0.5727 -2.6706
  355MOL0     H48975  10.090   1.671   8.231  2.5476 -0.9107 -0.5125
  355MOL0     H48976   9.738   1.875   8.312  2.4345 -2.4052  1.0702
  355MOL0     H48977   9.632   2.090   8.377 -0.0163 -1.7138 -1.0496
  355MOL0     H48978   9.591   2.289   8.503  0.7163 -0.8697 -0.3464
  355MOL0     H48979   9.432   2.195   8.496 -2.2033  0.0449  2.6870
  355MOL0     H48980   9.343   2.296   8.684  0.8695 -0.9163  1.9956
  355MOL0     H48981   9.371   2.417   8.558  1.1331  1.0028  0.0265
  355MOL0     H48982   9.422   2.506   8.789  0.2572 -2.2859  1.8822
  355MOL0     H48983   9.550   2.407   8.797  0.0637  0.4136 -0.4770
  355MOL0     H48984   9.639   2.526   8.588  0.0345  1.5199 -0.2695
  355MOL0     H48985   9.624   2.615   8.731  0.1728 -1.1574  0.1420
  355MOL0     H48986   9.299   2.732   8.463  1.4233  0.0303 -3.7492
  355MOL0     H48987   9.622   1.940   8.786  4.8372 -0.8685  1.0178
  355MOL0     H48988   9.845   1.705   8.775 -0.8616  0.6677  1.7789
  355MOL0     H48989   9.688   1.739   8.836 -0.6126  1.1345 -0.8539
  355MOL0     H48990   9.704   1.613   8.716  2.7746 -2.1502  2.2947
  356MOL0     O48991   6.874   6.670   8.003 -0.2721 -0.6723 -0.4709
  356MOL0     C48992   6.885   6.673   8.127 -0.1764  0.9884 -0.5401
  356MOL0     O48993   6.795   6.740   8.206 -0.3134 -0.7231 -0.1218
  356MOL0     C48994   6.706   6.822   8.147  0.1578 -0.9235  0.3334
  356MOL0     C48995   6.575   6.778   8.123 -0.7364 -0.2045 -0.1247
  356MOL0     C48996   6.485   6.868   8.070 -0.6253 -0.1779 -0.6126
  356MOL0     C48997   6.512   6.998   8.046  0.6599  0.2437  0.2481
  356MOL0     O48998   6.416   7.081   7.993  0.3665 -0.3674 -0.0300
  356MOL0     C48999   6.465   7.167   7.887 -0.6386 -0.3747  1.1652
  356MOL0     C49000   6.346   7.246   7.836 -0.3590  0.3541  0.3081
  356MOL0     C49001   6.263   7.154   7.750 -0.2292  0.9770  0.3775
  356MOL0     C49002   6.167   7.221   7.656 -0.4153 -0.6827  0.4934
  356MOL0     C49003   6.064   7.312   7.737 -0.2717  0.2724  0.7909
  356MOL0     C49004   5.950   7.343   7.641  0.7842  0.1779  0.8499
  356MOL0     C49005   5.832   7.401   7.712 -0.0795  0.1927 -0.0837
  356MOL0     C49006   5.852   7.554   7.749 -0.0455  0.6698  0.6905
  356MOL0     N49007   5.922   7.574   7.877 -0.2196  0.1773  0.5887
  356MOL0     C49008   5.982   7.692   7.922 -0.3914  0.6662  0.2624
  356MOL0     C49009   6.021   7.665   8.052  0.1088 -0.1537  1.0354
  356MOL0     C49010   6.068   7.762   8.150 -0.2192 -0.4916  0.1542
  356MOL0     C49011   6.208   7.809   8.104 -0.7220 -0.0327  0.3077
  356MOL0     C49012   6.266   7.885   8.220  0.1621  0.7364  0.0467
  356MOL0     C49013   6.397   7.954   8.204  0.1071  1.0135 -0.9947
  356MOL0     O49014   6.497   7.857   8.153  0.2646  0.5972  0.1417
  356MOL0     C49015   6.628   7.903   8.132  0.3326 -0.0396 -0.1264
  356MOL0     C49016   6.678   8.019   8.190 -0.7677 -0.3646 -0.1366
  356MOL0     C49017   6.814   8.061   8.171 -0.2607  0.6387 -0.0978
  356MOL0     C49018   6.859   8.188   8.230  0.4700  0.4753  0.0685
  356MOL0     C49019   6.900   7.970   8.091  0.2713  0.1684 -0.5589
  356MOL0     C49020   7.043   8.001   8.060  0.7705  0.0490 -0.7592
  356MOL0     O49021   7.129   7.895   8.035  0.6691  0.9690  0.1052
  356MOL0     C49022   7.258   7.932   7.995 -0.8284 -1.0718  1.3778
  356MOL0     C49023   7.295   8.037   7.907  0.6684 -0.6813  0.0105
  356MOL0     C49024   7.424   8.075   7.891 -0.0077 -0.7659 -0.5810
  356MOL0     C49025   7.528   8.006   7.966  0.1537  0.6838  0.0191
  356MOL0     O49026   7.657   8.036   7.935  0.2360 -0.2809 -0.9641
  356MOL0     C49027   7.739   8.092   8.040  0.2361  0.2517  0.2202
  356MOL0     C49028   7.876   8.107   7.983 -0.9359 -0.3264  0.5426
  356MOL0     C49029   7.898   8.228   7.893  0.4406 -0.9382  0.7624
  356MOL0     C49030   8.023   8.200   7.803  0.3956  0.6966  0.8369
  356MOL0     C49031   8.026   8.303   7.692  0.3056  0.1485  0.3631
  356MOL0     C49032   8.137   8.282   7.594 -0.1953 -0.6880 -0.0550
  356MOL0     C49033   8.154   8.397   7.502 -0.1680 -0.7103  0.0921
  356MOL0     C49034   8.264   8.378   7.385  0.8806  0.5333 -0.6547
  356MOL0    Cl49035   8.423   8.423   7.439  0.1631 -0.6608  0.0315
  356MOL0     C49036   7.497   7.904   8.047 -0.2683 -0.8404 -0.2435
  356MOL0     C49037   7.361   7.864   8.067 -0.4235 -0.1531  0.2328
  356MOL0     O49038   7.075   8.123   8.065  0.7022 -0.0436  0.3389
  356MOL0     C49039   6.845   7.857   8.036  0.9300  0.2555  0.2041
  356MOL0     C49040   6.703   7.826   8.038 -0.2436 -1.0663 -0.2625
  356MOL0     N49041   6.000   7.527   8.069 -0.0469 -0.4987  0.0473
  356MOL0     N49042   5.918   7.486   7.979  0.0939  0.7333  0.3681
  356MOL0     C49043   6.632   7.052   8.084  0.0691  0.1818  0.4911
  356MOL0     C49044   6.731   6.962   8.126  0.0783 -0.1811  0.5323
  356MOL0     C49045   7.001   6.603   8.195 -0.3188  0.8585  0.6586
  356MOL0     C49046   6.980   6.546   8.331 -0.0243 -0.6347  0.1496
  356MOL0     C49047   7.088   6.486   8.397  0.7161  0.4542  0.5641
  356MOL0     C49048   7.213   6.459   8.330  0.5049 -0.8662 -0.3561
  356MOL0     O49049   7.311   6.397   8.404  0.0715  0.1712 -0.1615
  356MOL0     C49050   7.442   6.462   8.397 -1.0928 -0.5738  0.0617
  356MOL0     C49051   7.433   6.602   8.454  0.0980  0.2391  0.7754
  356MOL0     C49052   7.380   6.595   8.600 -0.2009  0.1374 -0.0425
  356MOL0     C49053   7.347   6.749   8.639 -0.2254  0.5205  0.9859
  356MOL0     C49054   7.475   6.814   8.684 -0.0622  0.1011  1.1810
  356MOL0     C49055   7.585   6.867   8.714 -0.0660 -0.0417  0.6544
  356MOL0     C49056   7.229   6.501   8.199 -1.0510 -0.6506  0.2606
  356MOL0     C49057   7.127   6.573   8.129 -0.1200  0.4674  0.9916
  356MOL0     C49058   7.148   6.615   7.983 -0.4855  0.1666  0.5006
  356MOL0     H49059   6.551   6.673   8.139  2.4800 -1.1012 -0.6097
  356MOL0     H49060   6.382   6.839   8.052 -0.7338 -0.1698 -0.0090
  356MOL0     H49061   6.503   7.106   7.804 -3.9117  0.3198 -1.0172
  356MOL0     H49062   6.543   7.238   7.916 -0.1856  2.1484 -4.7661
  356MOL0     H49063   6.289   7.303   7.909 -0.4741  0.7343 -0.0748
  356MOL0     H49064   6.383   7.329   7.774  1.9102 -0.7934  0.0100
  356MOL0     H49065   6.329   7.102   7.679 -2.4285  1.0510 -1.8876
  356MOL0     H49066   6.213   7.079   7.811 -1.0665  1.1534 -0.0756
  356MOL0     H49067   6.225   7.277   7.582  1.0562 -0.5251  1.7148
  356MOL0     H49068   6.120   7.135   7.607 -0.7712 -1.1728  1.6770
  356MOL0     H49069   6.106   7.407   7.770 -2.9353  1.0830  2.1094
  356MOL0     H49070   6.020   7.262   7.825 -3.3379 -0.6316 -1.0883
  356MOL0     H49071   5.984   7.405   7.557 -0.3636 -1.1042 -0.6314
  356MOL0     H49072   5.914   7.248   7.600  0.5054  0.4914  0.3560
  356MOL0     H49073   5.812   7.328   7.790  1.6519 -3.4512 -2.7699
  356MOL0     H49074   5.747   7.412   7.643 -0.2125  1.1045  0.2138
  356MOL0     H49075   5.908   7.607   7.671 -0.4972  1.7198  1.0509
  356MOL0     H49076   5.752   7.599   7.757 -0.0427  0.7688  0.2348
  356MOL0     H49077   6.004   7.782   7.865  3.3408  0.3005  0.8940
  356MOL0     H49078   6.072   7.721   8.251 -1.7449  4.1985  2.4057
  356MOL0     H49079   5.998   7.846   8.144 -0.3863 -0.6533 -0.1674
  356MOL0     H49080   6.268   7.718   8.110  0.0826  0.5402  1.2128
  356MOL0     H49081   6.207   7.867   8.011  0.0429 -1.2634 -0.4880
  356MOL0     H49082   6.198   7.960   8.261  1.1266  1.5844  0.1557
  356MOL0     H49083   6.287   7.809   8.296  1.2340 -0.0626 -0.9981
  356MOL0     H49084   6.392   8.037   8.133 -1.8626  1.7517 -0.0621
  356MOL0     H49085   6.429   8.009   8.292 -2.7963  0.0926  0.7660
  356MOL0     H49086   6.617   8.069   8.265 -0.1797  0.0334  0.0857
  356MOL0     H49087   6.946   8.176   8.294 -0.0205  1.3518  0.9268
  356MOL0     H49088   6.784   8.242   8.288  0.5494  1.1167 -0.4064
  356MOL0     H49089   6.880   8.250   8.141 -0.2614  1.1863  0.3775
  356MOL0     H49090   7.224   8.093   7.847 -0.6484 -0.3637  1.8111
  356MOL0     H49091   7.456   8.150   7.820  0.1206 -0.0401  0.2286
  356MOL0     H49092   7.684   8.173   8.088 -0.3761 -1.0960  1.9083
  356MOL0     H49093   7.749   8.012   8.114 -1.5880  0.1858  0.4297
  356MOL0     H49094   7.951   8.120   8.061 -2.1171  1.3738  1.4653
  356MOL0     H49095   7.900   8.015   7.928  0.7126  0.8881 -0.8934
  356MOL0     H49096   7.919   8.314   7.956  1.6608  0.2820 -1.2046
  356MOL0     H49097   7.805   8.241   7.838  1.1169  0.3727 -0.1299
  356MOL0     H49098   8.020   8.105   7.750 -0.6245  0.6639  0.9274
  356MOL0     H49099   8.118   8.213   7.855  1.6322 -1.6271 -0.6846
  356MOL0     H49100   7.931   8.291   7.639  0.9261  1.4675 -1.1221
  356MOL0     H49101   8.034   8.402   7.735  0.4863 -0.0813  0.8586
  356MOL0     H49102   8.116   8.202   7.522 -1.2180  1.9286 -2.8935
  356MOL0     H49103   8.234   8.267   7.644  0.5793  0.1480 -1.2364
  356MOL0     H49104   8.189   8.484   7.559  1.6897 -0.3421 -1.4951
  356MOL0     H49105   8.058   8.411   7.452  0.1941  1.4241 -0.1196
  356MOL0     H49106   8.236   8.438   7.299  1.4138  1.8743  0.0812
  356MOL0     H49107   8.268   8.270   7.366 -1.6300 -0.1183  1.7851
  356MOL0     H49108   7.569   7.844   8.100 -0.4784  0.2569  1.3386
  356MOL0     H49109   7.342   7.788   8.142 -0.1368  0.5501  1.0274
  356MOL0     H49110   6.908   7.782   7.988 -0.8198  1.0283 -3.6945
  356MOL0     H49111   6.654   7.742   7.989 -1.9579  1.1925 -2.6756
  356MOL0     H49112   6.647   7.159   8.076  4.5145 -0.4159 -3.4646
  356MOL0     H49113   6.828   7.005   8.150  0.6068 -0.8793 -0.3007
  356MOL0     H49114   6.884   6.550   8.382  0.4171  1.9310  0.9151
  356MOL0     H49115   7.081   6.452   8.500 -0.3275 -0.2666  0.2675
  356MOL0     H49116   7.506   6.392   8.453 -0.5583  0.8637  1.3088
  356MOL0     H49117   7.492   6.462   8.300  2.1459 -1.4110  1.5873
  356MOL0     H49118   7.367   6.653   8.383  0.5195 -0.3962 -0.0897
  356MOL0     H49119   7.526   6.660   8.442  0.5723  0.1233  3.3871
  356MOL0     H49120   7.288   6.537   8.597 -0.0291 -0.3280  2.0901
  356MOL0     H49121   7.439   6.541   8.674 -1.8218  0.4699  1.5459
  356MOL0     H49122   7.276   6.744   8.722 -0.8586 -0.1728  0.4124
  356MOL0     H49123   7.290   6.798   8.560  1.1560  0.0595 -0.3365
  356MOL0     H49124   7.682   6.900   8.746 -1.4415  2.6057  2.4710
  356MOL0     H49125   7.320   6.471   8.148 -1.2946 -0.5229 -0.2526
  356MOL0     H49126   7.107   6.534   7.922  1.2141 -2.0094  2.0644
  356MOL0     H49127   7.114   6.717   7.965  0.9279  0.7705  1.0808
  356MOL0     H49128   7.254   6.631   7.959 -0.6589  0.4791 -0.0618
  357MOL0     O49129   5.826   3.940   5.857  0.7129  0.6217 -0.2515
  357MOL0     C49130   5.772   3.933   5.965 -0.0290  0.1417  0.1393
  357MOL0     O49131   5.781   3.828   6.046 -0.0460  0.0527 -0.7842
  357MOL0     C49132   5.839   3.712   6.006 -0.3516 -0.7668  0.3368
  357MOL0     C49133   5.765   3.591   6.002  0.6457  0.4771  0.0568
  357MOL0     C49134   5.820   3.472   5.951 -0.3561  0.4199  0.7353
  357MOL0     C49135   5.949   3.472   5.907 -1.1364  0.2601 -0.1787
  357MOL0     O49136   5.989   3.344   5.874 -0.5855  0.1481  0.5947
  357MOL0     C49137   6.131   3.322   5.850 -1.0132  0.1409 -0.3871
  357MOL0     C49138   6.141   3.172   5.813 -0.7313 -0.4312 -0.2722
  357MOL0     C49139   6.271   3.139   5.757 -0.3164 -0.2262  0.1578
  357MOL0     C49140   6.373   3.110   5.873  0.4181 -0.1481 -0.6041
  357MOL0     C49141   6.509   3.130   5.832 -0.8694 -0.0162  0.7903
  357MOL0     C49142   6.592   3.023   5.746  0.2691 -0.3566  0.5985
  357MOL0     C49143   6.743   3.051   5.755  0.5073  0.1567  0.6738
  357MOL0     C49144   6.829   2.941   5.701  0.6018 -0.9308  0.3617
  357MOL0     N49145   6.977   2.969   5.708 -0.5360  0.3971  0.1646
  357MOL0     C49146   7.044   3.080   5.659 -1.5614 -0.3985 -0.3475
  357MOL0     C49147   7.175   3.045   5.659 -0.5494  1.1272  0.6006
  357MOL0     C49148   7.281   3.115   5.586 -0.0713  0.7132  0.6197
  357MOL0     C49149   7.383   3.007   5.536  0.0640  0.6009  0.4515
  357MOL0     C49150   7.509   3.058   5.467  0.4972 -0.6961 -0.4207
  357MOL0     C49151   7.597   2.946   5.440 -0.8639 -0.1139  0.8192
  357MOL0     O49152   7.725   2.972   5.378 -0.0099  0.0946  0.4861
  357MOL0     C49153   7.814   3.022   5.467 -0.3483  0.6236 -0.1962
  357MOL0     C49154   7.864   2.962   5.587  0.9204  0.9848  1.1335
  357MOL0     C49155   7.955   3.033   5.671 -0.2931 -0.2507  0.7973
  357MOL0     C49156   8.019   2.965   5.789  0.7631 -0.2510  0.0932
  357MOL0     C49157   8.002   3.159   5.626 -0.3606 -0.2582 -0.4614
  357MOL0     C49158   8.111   3.226   5.704  1.1055  1.0306  0.0392
  357MOL0     O49159   8.189   3.297   5.619  0.1538  0.2516 -0.7768
  357MOL0     C49160   8.304   3.350   5.669 -0.4902  0.1104  0.0417
  357MOL0     C49161   8.432   3.299   5.640 -0.1219 -0.4642  0.2436
  357MOL0     C49162   8.550   3.355   5.677  0.7876  0.9771  0.3069
  357MOL0     C49163   8.547   3.471   5.758 -0.2570  0.1479 -0.8574
  357MOL0     O49164   8.666   3.544   5.767 -0.5430 -0.4367 -0.0535
  357MOL0     C49165   8.672   3.677   5.814  0.0437  1.1537 -0.4880
  357MOL0     C49166   8.643   3.768   5.699  0.7536 -0.9654 -0.0130
  357MOL0     C49167   8.762   3.803   5.601 -1.0053 -0.0726  0.2253
  357MOL0     C49168   8.791   3.673   5.527  0.1097 -0.5078 -0.9776
  357MOL0     C49169   8.915   3.685   5.435  0.1465  0.8919 -0.1109
  357MOL0     C49170   8.980   3.549   5.419  0.1436  0.6820 -0.3743
  357MOL0     C49171   9.050   3.496   5.546 -0.4474 -0.0073 -0.5585
  357MOL0     C49172   9.149   3.598   5.603  0.2213 -0.2570 -0.6102
  357MOL0    Cl49173   9.210   3.548   5.756 -0.3954  0.0520 -0.0777
  357MOL0     C49174   8.426   3.530   5.798  0.4102 -0.7475 -0.5212
  357MOL0     C49175   8.299   3.472   5.751 -0.0514  0.8554  0.3793
  357MOL0     O49176   8.114   3.232   5.826 -0.3716 -0.3453  0.6108
  357MOL0     C49177   7.961   3.212   5.500  0.7050  0.0776  0.4552
  357MOL0     C49178   7.870   3.141   5.419  0.8903  0.3306  0.0742
  357MOL0     N49179   7.180   2.922   5.712 -1.1486  0.2754 -0.3123
  357MOL0     N49180   7.063   2.870   5.743  0.1773 -0.0529 -0.0519
  357MOL0     C49181   6.025   3.591   5.900 -0.2602 -0.7802  0.0193
  357MOL0     C49182   5.972   3.710   5.954 -0.2795 -0.4946 -0.4840
  357MOL0     C49183   5.679   4.049   6.000 -0.4777 -0.3874 -0.3331
  357MOL0     C49184   5.693   4.169   5.926 -0.4242 -0.0441  0.0306
  357MOL0     C49185   5.621   4.283   5.952  0.5987 -0.0030 -0.7186
  357MOL0     C49186   5.534   4.278   6.062  0.9304 -0.2637 -0.2727
  357MOL0     O49187   5.485   4.399   6.101  0.2184 -0.0194 -0.0994
  357MOL0     C49188   5.395   4.408   6.209  0.4616 -1.1540 -0.1498
  357MOL0     C49189   5.253   4.376   6.162  0.3696 -0.9536 -0.1750
  357MOL0     C49190   5.148   4.377   6.278 -0.7445  0.0529  0.3044
  357MOL0     C49191   5.016   4.408   6.214 -0.0382  0.0942 -0.9283
  357MOL0     C49192   4.910   4.393   6.313  0.3192  0.9119 -0.0732
  357MOL0     C49193   4.833   4.391   6.410 -0.0197 -0.5196 -0.3296
  357MOL0     C49194   5.506   4.162   6.133  0.1013 -0.3512  0.2015
  357MOL0     C49195   5.582   4.049   6.106 -0.0087  0.6982  0.2117
  357MOL0     C49196   5.556   3.938   6.201 -0.7462  0.0939  0.7330
  357MOL0     H49197   5.667   3.590   6.048 -0.8333 -5.7667 -2.2837
  357MOL0     H49198   5.769   3.377   5.953 -1.9510  1.2456  0.4704
  357MOL0     H49199   6.190   3.351   5.938 -0.4109  0.4437 -0.8813
  357MOL0     H49200   6.163   3.384   5.766 -3.2026  1.4623 -0.3125
  357MOL0     H49201   6.121   3.112   5.903 -0.4809  3.7875  2.9049
  357MOL0     H49202   6.066   3.158   5.735 -0.0606 -0.4613 -0.9208
  357MOL0     H49203   6.262   3.047   5.697  0.4407 -0.6221  0.6392
  357MOL0     H49204   6.315   3.210   5.687  4.4061 -1.9945  0.9365
  357MOL0     H49205   6.352   3.173   5.960  0.7144  2.2252 -2.1531
  357MOL0     H49206   6.358   3.011   5.917 -2.5672  0.8647  0.9156
  357MOL0     H49207   6.573   3.152   5.919 -1.5497  1.3811  0.9712
  357MOL0     H49208   6.519   3.222   5.773  2.7049 -0.9791 -0.3767
  357MOL0     H49209   6.571   2.929   5.798  2.0611 -0.5660  1.0115
  357MOL0     H49210   6.555   3.013   5.644 -1.4154  0.6194  1.0636
  357MOL0     H49211   6.775   3.065   5.858 -2.0588  1.2289  1.4158
  357MOL0     H49212   6.762   3.146   5.704 -2.2891  0.5123  0.1460
  357MOL0     H49213   6.809   2.838   5.729  2.5417 -1.5752 -0.4490
  357MOL0     H49214   6.816   2.940   5.592  2.5408 -0.7836  0.0871
  357MOL0     H49215   7.004   3.169   5.612 -0.1800  2.6199  3.6685
  357MOL0     H49216   7.329   3.173   5.665 -0.7320  1.3641  0.5501
  357MOL0     H49217   7.245   3.180   5.506  1.3367 -0.5896 -1.1635
  357MOL0     H49218   7.438   2.955   5.615  2.3380  0.3762 -1.1722
  357MOL0     H49219   7.337   2.938   5.465  0.8371  0.6076 -0.0757
  357MOL0     H49220   7.473   3.112   5.379 -2.3355 -0.6757  0.6645
  357MOL0     H49221   7.550   3.121   5.547  0.3004  0.1740 -0.9923
  357MOL0     H49222   7.620   2.888   5.530  3.2253 -0.8564 -0.5261
  357MOL0     H49223   7.548   2.874   5.374  1.4076 -0.2212 -0.8429
  357MOL0     H49224   7.837   2.863   5.623  1.5859  0.7467  1.0059
  357MOL0     H49225   8.125   2.982   5.811  0.1094 -0.8036  4.7589
  357MOL0     H49226   8.004   2.857   5.788  3.6355 -0.7859  1.8192
  357MOL0     H49227   7.970   3.001   5.880  1.1217 -0.1569  0.2534
  357MOL0     H49228   8.436   3.199   5.598  2.9671  0.1091 -1.1603
  357MOL0     H49229   8.643   3.304   5.652  0.6521 -0.5179  2.5740
  357MOL0     H49230   8.604   3.697   5.896 -0.8179 -2.1337 -0.3038
  357MOL0     H49231   8.776   3.695   5.844  1.1216 -2.8798 -1.1902
  357MOL0     H49232   8.551   3.750   5.644 -1.5477  1.3932  2.7297
  357MOL0     H49233   8.622   3.854   5.764 -1.3763 -1.1344 -0.4060
  357MOL0     H49234   8.852   3.829   5.657  0.3290 -0.9440 -1.4230
  357MOL0     H49235   8.743   3.884   5.530  0.3029 -1.7998 -2.2214
  357MOL0     H49236   8.699   3.640   5.479 -0.3352 -0.9255  0.1277
  357MOL0     H49237   8.814   3.595   5.600 -1.0991  0.4557  0.4955
  357MOL0     H49238   8.876   3.719   5.339 -1.2730 -0.1325  0.0702
  357MOL0     H49239   8.991   3.758   5.464  2.5575 -0.3573 -2.8948
  357MOL0     H49240   9.047   3.552   5.332  0.4207  1.0308 -0.1470
  357MOL0     H49241   8.902   3.474   5.405  1.2057 -0.6137  0.4436
  357MOL0     H49242   9.102   3.409   5.503  2.5534  1.6740 -0.5723
  357MOL0     H49243   8.984   3.463   5.626  0.0798 -4.5708 -1.7011
  357MOL0     H49244   9.110   3.700   5.600 -0.5305 -0.5257 -0.0889
  357MOL0     H49245   9.236   3.597   5.536  1.3042  2.6570  0.5797
  357MOL0     H49246   8.411   3.623   5.853 -0.5572 -1.0365 -0.2842
  357MOL0     H49247   8.204   3.511   5.785  0.3059  1.6321  0.5055
  357MOL0     H49248   8.008   3.301   5.459  2.2410 -1.0295 -0.3237
  357MOL0     H49249   7.843   3.184   5.323  0.3809  1.1536  0.5802
  357MOL0     H49250   6.126   3.593   5.861 -0.7711 -0.3257 -1.3320
  357MOL0     H49251   6.034   3.800   5.952 -0.6859 -0.1304  1.5034
  357MOL0     H49252   5.768   4.181   5.849 -0.3681 -0.5066  0.0090
  357MOL0     H49253   5.649   4.371   5.896 -2.1594  1.8135  0.5360
  357MOL0     H49254   5.424   4.343   6.291  0.6705  1.2316  1.7785
  357MOL0     H49255   5.393   4.506   6.259  0.8125 -2.3153  2.2500
  357MOL0     H49256   5.242   4.279   6.112 -0.7225  0.1352 -2.1122
  357MOL0     H49257   5.232   4.454   6.089 -0.0919 -0.2460  0.6880
  357MOL0     H49258   5.138   4.282   6.332 -1.0115 -1.7137 -2.5890
  357MOL0     H49259   5.166   4.452   6.355  2.7730  0.9783 -1.2496
  357MOL0     H49260   4.993   4.337   6.134 -0.0948  0.9118 -1.6450
  357MOL0     H49261   5.012   4.514   6.189 -1.8351  1.1134  2.8023
  357MOL0     H49262   4.773   4.401   6.498 -0.0831 -2.5002 -0.1130
  357MOL0     H49263   5.440   4.158   6.218  0.5340 -2.0873  0.4859
  357MOL0     H49264   5.454   3.936   6.239 -0.6349 -0.3013  1.0345
  357MOL0     H49265   5.571   3.840   6.155 -1.0818  0.7711 -0.8509
  357MOL0     H49266   5.624   3.944   6.287 -1.5955  0.9273  1.3638
  358MOL0     O49267   5.346   2.787   9.924 -0.1856  0.2491  0.3164
  358MOL0     C49268   5.447   2.724   9.903 -0.1211  0.3286  0.1875
  358MOL0     O49269   5.447   2.592   9.858 -0.0125 -0.1572 -0.2907
  358MOL0     C49270   5.329   2.524   9.850  0.0213 -0.4231  0.0333
  358MOL0     C49271   5.244   2.503   9.962 -0.3092  0.4292  1.2154
  358MOL0     C49272   5.134   2.420   9.961  0.0002  0.0218 -0.0105
  358MOL0     C49273   5.103   2.346   9.844  0.3005  0.8446  0.3813
  358MOL0     O49274   5.001   2.252   9.838  0.6667 -0.0718 -0.0525
  358MOL0     C49275   4.912   2.234   9.942 -0.1386 -0.3461 -0.0987
  358MOL0     C49276   4.793   2.143   9.894 -0.9366 -0.4244 -1.4786
  358MOL0     C49277   4.710   2.197   9.790  0.6589  0.1650  0.5465
  358MOL0     C49278   4.574   2.128   9.767 -0.1616 -0.3989  0.7397
  358MOL0     C49279   4.488   2.219   9.667 -0.0395  0.2456  0.3235
  358MOL0     C49280   4.341   2.165   9.652 -0.1610 -0.8324 -0.4226
  358MOL0     C49281   4.258   2.283   9.588  0.0667 -0.7090  0.1830
  358MOL0     C49282   4.110   2.251   9.603 -1.0493 -0.0297  0.0306
  358MOL0     N49283   4.052   2.339   9.702  0.5969 -1.0058 -0.6026
  358MOL0     C49284   4.062   2.318   9.836  0.3050 -0.8380 -0.0418
  358MOL0     C49285   3.997   2.415   9.898  0.1023 -0.6262  0.3765
  358MOL0     C49286   3.967   2.460  10.040  0.5335  0.2079 -0.1346
  358MOL0     C49287   3.928   2.339  10.119  0.0924 -0.6302 -0.6487
  358MOL0     C49288   3.850   2.395  10.239 -0.5165 -0.1946 -0.9108
  358MOL0     C49289   3.808   2.280  10.326 -0.9316 -0.0915  0.0757
  358MOL0     O49290   3.707   2.201  10.255 -0.0397  0.6035 -0.5232
  358MOL0     C49291   3.652   2.089  10.315 -1.4684 -0.0236 -0.1052
  358MOL0     C49292   3.549   2.036  10.244  0.8685  0.0490 -0.1385
  358MOL0     C49293   3.494   1.906  10.282  0.1750  0.1292  0.2273
  358MOL0     C49294   3.380   1.860  10.199  0.4225 -0.3336 -0.5238
  358MOL0     C49295   3.548   1.842  10.397 -0.1942  0.2697  0.1142
  358MOL0     C49296   3.507   1.709  10.442  0.0778  0.9509 -0.9308
  358MOL0     O49297   3.607   1.628  10.492  0.2263  0.9786  0.2232
  358MOL0     C49298   3.574   1.539  10.594 -0.6229 -0.2656  0.8111
  358MOL0     C49299   3.647   1.417  10.605 -0.9225 -0.6271 -0.3297
  358MOL0     C49300   3.618   1.321  10.709 -0.3775 -0.4570 -0.7167
  358MOL0     C49301   3.517   1.345  10.807 -0.4265 -0.4991 -0.3887
  358MOL0     O49302   3.475   1.254  10.901 -0.1515 -0.8788  0.0429
  358MOL0     C49303   3.574   1.170  10.955 -0.2134  0.4697  0.6031
  358MOL0     C49304   3.516   1.144  11.098 -0.3151 -0.5314  0.6906
  358MOL0     C49305   3.620   1.083  11.191  0.4136  0.3085  0.0742
  358MOL0     C49306   3.710   0.984  11.131  0.8470  0.4243  0.1842
  358MOL0     C49307   3.800   0.912  11.238 -0.1350 -0.4365  1.0472
  358MOL0     C49308   3.722   0.811  11.321 -0.2482  0.2180 -0.3648
  358MOL0     C49309   3.794   0.781  11.452 -0.9599  1.0354 -1.0144
  358MOL0     C49310   3.708   0.707  11.555  0.0195  0.5290  0.4893
  358MOL0    Cl49311   3.663   0.534  11.507  0.4551  0.5553 -0.2732
  358MOL0     C49312   3.453   1.469  10.802 -0.1089 -0.4714  0.3811
  358MOL0     C49313   3.481   1.566  10.699 -0.0853  0.6242  0.1664
  358MOL0     O49314   3.385   1.676  10.450 -0.2373 -0.2029  0.1768
  358MOL0     C49315   3.653   1.902  10.468  0.3374  0.3524 -1.0377
  358MOL0     C49316   3.699   2.031  10.432 -0.3081  0.2655  0.7080
  358MOL0     N49317   3.936   2.481   9.799 -0.9659 -0.2854  0.5885
  358MOL0     N49318   3.968   2.448   9.684  0.2450  0.1361 -0.4846
  358MOL0     C49319   5.185   2.366   9.730  0.8094  0.3394 -0.3074
  358MOL0     C49320   5.294   2.453   9.741  0.1944 -0.0677  0.9236
  358MOL0     C49321   5.570   2.796   9.907 -0.6146 -0.5936 -1.0269
  358MOL0     C49322   5.668   2.742   9.819 -0.0755 -0.5134 -0.0768
  358MOL0     C49323   5.802   2.798   9.815  0.1553 -0.8002 -0.0912
  358MOL0     C49324   5.826   2.916   9.876 -0.5251 -0.2849 -0.5537
  358MOL0     O49325   5.931   3.000   9.852 -0.8780 -0.1309  0.0508
  358MOL0     C49326   6.056   2.962   9.791  0.5343 -0.7421 -1.0770
  358MOL0     C49327   6.134   2.881   9.892 -0.0428  0.4365  0.3734
  358MOL0     C49328   6.283   2.882   9.873  0.3762 -0.2593  0.5327
  358MOL0     C49329   6.359   2.813   9.985 -0.8602 -0.3368  0.2816
  358MOL0     C49330   6.500   2.854   9.988 -1.5939  0.2698  0.0785
  358MOL0     C49331   6.618   2.891   9.976  0.2268 -0.1943  0.5775
  358MOL0     C49332   5.737   2.970   9.956 -0.3664 -0.4428 -0.5951
  358MOL0     C49333   5.604   2.915   9.975 -0.1834 -0.4889  0.0122
  358MOL0     C49334   5.530   2.968  10.095  0.9979  0.3391  0.2010
  358MOL0     H49335   5.255   2.539  10.064 -0.3236  1.3701  0.8949
  358MOL0     H49336   5.072   2.415  10.050 -3.1884  1.9091 -1.9564
  358MOL0     H49337   4.862   2.325   9.977  1.7055  0.3213  0.9562
  358MOL0     H49338   4.962   2.187  10.028 -0.3748  2.7933  1.9513
  358MOL0     H49339   4.839   2.050   9.859 -1.0981 -1.6368  1.2991
  358MOL0     H49340   4.724   2.129   9.977 -0.7194 -1.0712 -1.4023
  358MOL0     H49341   4.683   2.299   9.819  2.4896  1.1708 -1.0214
  358MOL0     H49342   4.766   2.203   9.696  0.9242 -1.2749  0.5820
  358MOL0     H49343   4.590   2.030   9.722  1.2971 -1.3013  3.0559
  358MOL0     H49344   4.520   2.119   9.862  1.1710  2.1406  1.8502
  358MOL0     H49345   4.538   2.227   9.570 -0.6258 -0.5890 -0.0603
  358MOL0     H49346   4.485   2.319   9.712  0.2469  1.3950 -2.0250
  358MOL0     H49347   4.336   2.074   9.592 -1.1184 -0.3993 -1.0157
  358MOL0     H49348   4.305   2.142   9.753 -3.7931 -0.3723 -1.4930
  358MOL0     H49349   4.277   2.268   9.481  1.0487 -2.0979  0.5237
  358MOL0     H49350   4.283   2.381   9.628  0.6224 -1.1568  0.9786
  358MOL0     H49351   4.063   2.247   9.505 -0.8323 -1.7866 -0.0358
  358MOL0     H49352   4.108   2.145   9.631 -3.6108 -0.8872 -2.8054
  358MOL0     H49353   4.124   2.238   9.876 -0.9324 -3.2581 -2.6331
  358MOL0     H49354   3.883   2.529  10.033 -1.2662 -1.4909  2.7086
  358MOL0     H49355   4.056   2.512  10.076  3.9285 -3.4124 -2.4207
  358MOL0     H49356   3.866   2.265  10.068 -1.8622 -1.4709  2.6894
  358MOL0     H49357   4.015   2.279  10.146 -1.2523 -2.9384 -1.2026
  358MOL0     H49358   3.923   2.464  10.283  0.3858 -1.6308 -0.1131
  358MOL0     H49359   3.756   2.446  10.213 -1.4274  1.0282  3.8437
  358MOL0     H49360   3.894   2.214  10.345 -0.4377  0.2865 -0.8149
  358MOL0     H49361   3.777   2.307  10.428  2.4090 -3.6398  2.3315
  358MOL0     H49362   3.510   2.089  10.157  0.4175 -0.9934 -0.5888
  358MOL0     H49363   3.300   1.931  10.179 -0.9929 -1.3619  1.2215
  358MOL0     H49364   3.327   1.782  10.255 -3.3925  2.7112  0.5361
  358MOL0     H49365   3.404   1.832  10.096  3.5521  1.6191 -0.4584
  358MOL0     H49366   3.710   1.388  10.522  2.6684  0.2286  1.8998
  358MOL0     H49367   3.647   1.217  10.706 -0.2080 -0.4901  1.1205
  358MOL0     H49368   3.569   1.077  10.899 -0.3403  0.7793  0.0993
  358MOL0     H49369   3.674   1.214  10.958  0.2881 -0.4594 -1.2040
  358MOL0     H49370   3.480   1.239  11.139 -1.2344 -0.8775  0.7149
  358MOL0     H49371   3.429   1.079  11.096 -0.9268  0.2738  0.4768
  358MOL0     H49372   3.575   1.043  11.282  0.2982 -3.8392 -1.5912
  358MOL0     H49373   3.686   1.167  11.216 -0.0237  0.9179 -0.7641
  358MOL0     H49374   3.780   1.028  11.060  1.7535 -1.6640 -0.2937
  358MOL0     H49375   3.644   0.914  11.078 -1.1718  0.6838  2.2156
  358MOL0     H49376   3.873   0.866  11.170 -1.5752 -1.4568  0.1466
  358MOL0     H49377   3.848   0.989  11.299 -1.2978  2.3305 -1.3082
  358MOL0     H49378   3.716   0.718  11.262  1.1583 -1.5156  2.0508
  358MOL0     H49379   3.622   0.852  11.341  0.4141  1.8684 -0.3144
  358MOL0     H49380   3.815   0.883  11.487  0.2732  0.4996 -0.1162
  358MOL0     H49381   3.895   0.741  11.437  1.7948  5.9762  1.8069
  358MOL0     H49382   3.623   0.775  11.567 -0.3673 -0.2207  2.4181
  358MOL0     H49383   3.761   0.713  11.651  0.1307  1.7897  0.3644
  358MOL0     H49384   3.374   1.506  10.867 -1.4992  1.5940 -2.2643
  358MOL0     H49385   3.427   1.660  10.701 -0.1063  0.6401 -0.9180
  358MOL0     H49386   3.699   1.837  10.542  1.5823  0.8920 -1.3117
  358MOL0     H49387   3.786   2.077  10.478  1.4286 -0.0303 -2.0766
  358MOL0     H49388   5.169   2.322   9.632 -1.0667  1.5351 -0.5939
  358MOL0     H49389   5.359   2.459   9.654 -1.4224  2.2906 -0.2413
  358MOL0     H49390   5.647   2.660   9.751  2.5610 -1.0012 -0.4308
  358MOL0     H49391   5.884   2.755   9.759  0.6578  2.1309 -1.8249
  358MOL0     H49392   6.054   2.911   9.694  0.9111  0.8838 -1.9826
  358MOL0     H49393   6.102   3.062   9.787 -0.7143 -0.0983  0.0562
  358MOL0     H49394   6.097   2.778   9.886  0.0916  0.4619 -3.3834
  358MOL0     H49395   6.116   2.932   9.987 -0.8552 -0.0948  0.5158
  358MOL0     H49396   6.312   2.836   9.778  0.6133  0.9255  0.0190
  358MOL0     H49397   6.318   2.985   9.871  1.1276 -0.4104  2.7697
  358MOL0     H49398   6.355   2.709   9.954  0.6311  0.0359 -1.3163
  358MOL0     H49399   6.313   2.827  10.084 -0.2709  1.4458  0.3524
  358MOL0     H49400   6.720   2.916   9.958  0.8040 -3.2956 -1.2331
  358MOL0     H49401   5.766   3.061  10.007  1.9135 -1.3089 -0.2242
  358MOL0     H49402   5.593   2.960  10.184  0.6472 -1.5570  0.3140
  358MOL0     H49403   5.492   3.069  10.079 -4.7578 -1.7378 -1.7863
  358MOL0     H49404   5.436   2.916  10.117  0.3409  0.8809 -1.2429
  359MOL0     O49405  10.706   6.610  10.909 -0.0872  0.0275  0.3125
  359MOL0     C49406  10.663   6.534  10.998  0.1357 -0.6352 -0.5182
  359MOL0     O49407  10.721   6.426  11.051  0.0716  0.9550 -0.0325
  359MOL0     C49408  10.852   6.386  11.023 -0.4220 -0.4462 -0.3340
  359MOL0     C49409  10.862   6.257  10.976 -0.4253  1.1863  0.1009
  359MOL0     C49410  10.976   6.213  10.910  0.8866 -0.2421 -0.2112
  359MOL0     C49411  11.095   6.290  10.907  0.6845  0.5864 -0.2738
  359MOL0     O49412  11.215   6.237  10.853  0.4410  0.2087 -0.1278
  359MOL0     C49413  11.233   6.098  10.838 -0.2968  0.2352 -0.3341
  359MOL0     C49414  11.376   6.080  10.789  0.1393  0.5319 -0.6029
  359MOL0     C49415  11.456   6.041  10.915 -0.2197  0.4617  1.7441
  359MOL0     C49416  11.610   6.043  10.893 -0.7774  0.0725 -0.3571
  359MOL0     C49417  11.672   6.006  11.023 -1.3060 -0.4662 -0.0982
  359MOL0     C49418  11.808   6.074  11.053 -1.5947  0.5112 -0.6667
  359MOL0     C49419  11.798   6.216  11.096 -0.2614 -0.8386  0.6238
  359MOL0     C49420  11.914   6.298  11.056 -1.3235  0.5653 -0.3174
  359MOL0     N49421  12.036   6.227  11.088  0.3018  0.5237 -0.1552
  359MOL0     C49422  12.108   6.136  11.013  0.2615  0.8747  0.5486
  359MOL0     C49423  12.207   6.094  11.102  0.4143  1.0801  0.1297
  359MOL0     C49424  12.327   6.008  11.074  0.0498 -0.5527 -0.2128
  359MOL0     C49425  12.423   6.068  10.971 -1.3938  0.7169 -0.6848
  359MOL0     C49426  12.539   5.965  10.972 -0.6322 -0.3950  0.2122
  359MOL0     C49427  12.661   6.017  10.884  0.7702 -0.0596  0.1351
  359MOL0     O49428  12.756   5.913  10.873 -0.1104  0.5605  0.2616
  359MOL0     C49429  12.881   5.937  10.819 -0.0405  0.5207 -0.5095
  359MOL0     C49430  12.977   5.837  10.812  0.1910  0.0204  1.2576
  359MOL0     C49431  13.110   5.860  10.777  0.2836 -0.3020  0.2973
  359MOL0     C49432  13.201   5.743  10.770  0.4562  0.2070 -0.3326
  359MOL0     C49433  13.155   5.987  10.740 -0.0990  0.2951 -0.1731
  359MOL0     C49434  13.296   6.023  10.694  0.2944  0.4861  0.6143
  359MOL0     O49435  13.339   6.146  10.707  0.0769  0.0161 -0.1760
  359MOL0     C49436  13.473   6.170  10.699  0.3114 -0.2062  0.1287
  359MOL0     C49437  13.566   6.130  10.792 -0.0722 -0.4678 -0.4973
  359MOL0     C49438  13.701   6.159  10.777  0.1632 -0.1389  0.1614
  359MOL0     C49439  13.746   6.232  10.669 -0.0727 -1.0265  0.2867
  359MOL0     O49440  13.877   6.241  10.629 -0.6144  0.1168  0.2001
  359MOL0     C49441  13.988   6.183  10.704 -0.6059 -0.1517  0.1971
  359MOL0     C49442  14.121   6.200  10.630  0.0127  0.3001  0.8146
  359MOL0     C49443  14.223   6.097  10.693  0.3162  0.3241 -0.0871
  359MOL0     C49444  14.359   6.167  10.729  0.3472  0.1420  0.4020
  359MOL0     C49445  14.446   6.197  10.607  1.1032 -0.2472  0.3883
  359MOL0     C49446  14.503   6.341  10.623 -0.9025 -0.1121  0.3212
  359MOL0     C49447  14.586   6.355  10.756  0.2567  0.3325 -0.3497
  359MOL0     C49448  14.671   6.476  10.761 -0.2916  1.0116  0.2377
  359MOL0    Cl49449  14.573   6.614  10.770 -0.2093  0.3634  0.1448
  359MOL0     C49450  13.648   6.279  10.575  0.4981  0.1821 -0.3649
  359MOL0     C49451  13.509   6.247  10.595 -0.4689 -0.0970 -1.1879
  359MOL0     O49452  13.361   5.939  10.626  0.4039 -0.3682 -0.1291
  359MOL0     C49453  13.051   6.080  10.736 -0.2952  0.0762  0.9602
  359MOL0     C49454  12.920   6.061  10.762 -0.4065  0.2040  0.1390
  359MOL0     N49455  12.179   6.139  11.227  0.3905  0.0152  0.2454
  359MOL0     N49456  12.094   6.237  11.215 -0.1863 -0.3692 -0.1663
  359MOL0     C49457  11.081   6.423  10.947 -0.3840 -0.0146 -0.1582
  359MOL0     C49458  10.963   6.472  11.007  0.5946 -1.0266  0.1575
  359MOL0     C49459  10.539   6.578  11.073  0.5100  0.5369 -0.3634
  359MOL0     C49460  10.458   6.472  11.117 -0.3114  0.5944 -0.1882
  359MOL0     C49461  10.336   6.507  11.190  0.0655 -0.5951 -0.4910
  359MOL0     C49462  10.301   6.637  11.221  0.4082 -0.6719 -0.0352
  359MOL0     O49463  10.179   6.680  11.276  0.0212  0.4697  0.2228
  359MOL0     C49464  10.069   6.587  11.283  0.1056  0.4082  1.3247
  359MOL0     C49465   9.942   6.660  11.319 -0.0826 -0.8814  0.2658
  359MOL0     C49466   9.819   6.571  11.340  0.3598  0.2484 -0.2094
  359MOL0     C49467   9.718   6.569  11.226  0.6733 -0.1673  0.2411
  359MOL0     C49468   9.611   6.483  11.273 -0.0693  0.1219  0.4818
  359MOL0     C49469   9.522   6.418  11.336 -0.3348 -0.2610 -0.0774
  359MOL0     C49470  10.390   6.743  11.173  0.4165  0.8547  0.0932
  359MOL0     C49471  10.505   6.709  11.106 -0.8801  0.1114 -0.3752
  359MOL0     C49472  10.595   6.825  11.080  0.0000  0.1912  0.7143
  359MOL0     H49473  10.773   6.197  10.964  1.3625 -2.1921  2.1771
  359MOL0     H49474  10.976   6.111  10.872  0.2266 -0.5774  0.6578
  359MOL0     H49475  11.161   6.067  10.762 -0.9052 -2.0838  1.0579
  359MOL0     H49476  11.206   6.046  10.931  1.5140  2.7379  1.7239
  359MOL0     H49477  11.394   6.002  10.715  1.6023  0.3443 -0.0732
  359MOL0     H49478  11.422   6.170  10.746  1.5307 -0.3648 -1.0665
  359MOL0     H49479  11.428   6.120  10.985 -0.7026  0.4960  1.5153
  359MOL0     H49480  11.423   5.940  10.941  0.2944 -1.1407 -2.8318
  359MOL0     H49481  11.646   5.982  10.809  1.1989  1.8265 -0.8513
  359MOL0     H49482  11.631   6.145  10.860 -2.3402 -0.1743 -2.3195
  359MOL0     H49483  11.695   5.899  11.020  4.4156  0.3362  1.8991
  359MOL0     H49484  11.607   6.027  11.108  0.0250  0.3691  0.7521
  359MOL0     H49485  11.858   6.019  11.133 -1.3375 -0.9591 -1.8071
  359MOL0     H49486  11.870   6.070  10.963 -0.5675  0.4426  0.0321
  359MOL0     H49487  11.797   6.217  11.205 -1.6093  0.1962  0.6408
  359MOL0     H49488  11.707   6.268  11.064 -1.0629 -0.9397  2.6065
  359MOL0     H49489  11.914   6.318  10.949  2.2410 -0.6171 -0.6896
  359MOL0     H49490  11.915   6.396  11.106  0.6608  0.8815 -0.8823
  359MOL0     H49491  12.109   6.124  10.905  0.0754 -1.9896  0.7680
  359MOL0     H49492  12.301   5.904  11.054 -0.6420 -0.4410  0.0865
  359MOL0     H49493  12.377   5.997  11.171  1.8616 -0.1836 -1.0446
  359MOL0     H49494  12.377   6.057  10.872 -3.0148 -2.4274  0.2913
  359MOL0     H49495  12.447   6.164  11.017 -3.1369  0.1242  1.6159
  359MOL0     H49496  12.568   5.939  11.074  0.1235  1.4514  0.4985
  359MOL0     H49497  12.503   5.884  10.908  0.1618  0.6738 -1.6572
  359MOL0     H49498  12.619   6.043  10.786  0.8716  3.3326  0.8686
  359MOL0     H49499  12.707   6.112  10.914  0.2131  0.8280 -1.6510
  359MOL0     H49500  12.933   5.741  10.838 -2.1139  0.1239 -1.7390
  359MOL0     H49501  13.221   5.720  10.664 -0.4869 -1.1450 -0.2529
  359MOL0     H49502  13.158   5.654  10.817  0.4671  0.9534  1.1199
  359MOL0     H49503  13.294   5.756  10.825 -0.8794 -0.1918  2.1623
  359MOL0     H49504  13.537   6.070  10.878  1.6958  1.2864  1.4270
  359MOL0     H49505  13.761   6.111  10.853 -0.8320  1.3962  2.0252
  359MOL0     H49506  13.993   6.243  10.795  2.3901  2.4341 -1.4679
  359MOL0     H49507  13.960   6.080  10.729  0.7097 -0.4730  0.4382
  359MOL0     H49508  14.103   6.182  10.524 -1.3206 -0.3198  1.1196
  359MOL0     H49509  14.162   6.301  10.642  0.6404  0.0891  0.4751
  359MOL0     H49510  14.232   6.013  10.623  0.6021  0.0281  0.3029
  359MOL0     H49511  14.182   6.051  10.783 -0.4390  3.0847  1.0632
  359MOL0     H49512  14.409   6.097  10.796  0.5562 -0.2802 -0.1881
  359MOL0     H49513  14.339   6.255  10.791  2.6409  1.8776 -1.1314
  359MOL0     H49514  14.524   6.120  10.598 -0.0390 -1.2997 -0.9886
  359MOL0     H49515  14.378   6.186  10.522  0.5096 -1.3652  0.9924
  359MOL0     H49516  14.416   6.404  10.643  0.0131  0.1525  4.2626
  359MOL0     H49517  14.557   6.373  10.533 -2.1728 -2.4063 -1.3849
  359MOL0     H49518  14.648   6.266  10.769 -0.2782  0.0993  0.7340
  359MOL0     H49519  14.513   6.349  10.837  0.5342 -0.3444 -0.1421
  359MOL0     H49520  14.732   6.488  10.671 -3.4847  0.0595 -2.2655
  359MOL0     H49521  14.732   6.461  10.850 -1.7842 -2.2182  0.8475
  359MOL0     H49522  13.675   6.350  10.497 -0.5215  1.1783  0.1621
  359MOL0     H49523  13.437   6.284  10.523  0.6678  0.5092 -2.0384
  359MOL0     H49524  13.076   6.176  10.693  0.4166  0.7387  2.7859
  359MOL0     H49525  12.840   6.122  10.721 -2.0155  0.4852  3.3702
  359MOL0     H49526  11.168   6.488  10.946 -0.8629  0.7311  1.8141
  359MOL0     H49527  10.970   6.572  11.050 -0.3472  0.2239 -2.4032
  359MOL0     H49528  10.485   6.367  11.108 -2.0531  0.1400 -0.4468
  359MOL0     H49529  10.285   6.419  11.228 -0.8032 -0.3367 -1.0385
  359MOL0     H49530  10.058   6.544  11.183 -0.6869  2.7696  0.3361
  359MOL0     H49531  10.106   6.506  11.347  2.2548 -0.9243 -1.4054
  359MOL0     H49532   9.910   6.733  11.244 -0.9556  0.3185  1.7458
  359MOL0     H49533   9.962   6.714  11.412  3.3811 -0.0999 -0.7721
  359MOL0     H49534   9.847   6.469  11.371  1.1998 -0.8009 -3.9110
  359MOL0     H49535   9.772   6.612  11.430  1.7580 -1.1890  1.2597
  359MOL0     H49536   9.760   6.542  11.128  3.7508  0.2236  1.3367
  359MOL0     H49537   9.683   6.671  11.207  3.0125  0.4888 -0.9436
  359MOL0     H49538   9.434   6.363  11.359 -1.2580  1.0489 -0.3701
  359MOL0     H49539  10.355   6.841  11.202 -3.0159 -0.7561  2.1048
  359MOL0     H49540  10.579   6.870  10.982  1.6469 -1.9777 -0.6796
  359MOL0     H49541  10.577   6.896  11.161  1.1629  1.0021  0.2964
  359MOL0     H49542  10.701   6.795  11.083 -0.4477 -1.4790  0.8769
  360MOL0     O49543   1.044   8.528   3.909  0.0976  0.1226  0.2039
  360MOL0     C49544   1.026   8.512   3.788  0.4543  0.0233  0.1369
  360MOL0     O49545   0.911   8.537   3.721 -0.2913  0.2471  0.4548
  360MOL0     C49546   0.804   8.583   3.796  0.3582 -0.2692  0.2309
  360MOL0     C49547   0.720   8.497   3.861 -0.2915 -0.0672  0.2373
  360MOL0     C49548   0.611   8.545   3.925  0.5338  0.2127  0.2951
  360MOL0     C49549   0.597   8.673   3.963  0.1203 -0.6228  0.0582
  360MOL0     O49550   0.485   8.703   4.041 -0.4280  0.7461  0.3038
  360MOL0     C49551   0.467   8.844   4.063  0.0704  0.7845  1.1001
  360MOL0     C49552   0.333   8.863   4.123 -0.1356 -0.6520 -0.5073
  360MOL0     C49553   0.292   9.016   4.143 -0.1166  0.0104  0.0197
  360MOL0     C49554   0.284   9.102   4.021 -0.3309 -0.4224 -0.1845
  360MOL0     C49555   0.181   9.040   3.924  0.1929 -0.0740 -0.1495
  360MOL0     C49556   0.152   9.120   3.804 -0.6784  0.0940 -0.5655
  360MOL0     C49557   0.039   9.055   3.719  0.7237 -0.4612  0.0225
  360MOL0     C49558  -0.014   9.144   3.606  0.2348  0.4145 -0.4835
  360MOL0     N49559   0.100   9.177   3.521  0.2103 -0.6557  0.5498
  360MOL0     C49560   0.180   9.087   3.448  0.5003  0.3569  0.2913
  360MOL0     C49561   0.288   9.150   3.408 -0.4832 -0.2548 -0.2040
  360MOL0     C49562   0.399   9.079   3.343 -0.7577 -0.8483 -1.0483
  360MOL0     C49563   0.387   9.122   3.197  0.5481 -0.6211  0.0290
  360MOL0     C49564   0.478   9.021   3.105 -1.1508 -0.5898  0.3285
  360MOL0     C49565   0.565   9.102   2.998 -0.6713  0.4919 -0.0692
  360MOL0     O49566   0.639   9.014   2.913 -0.4587  0.4700  0.0004
  360MOL0     C49567   0.716   9.057   2.805  0.9862  0.0041 -0.1226
  360MOL0     C49568   0.782   8.960   2.737 -0.3724 -0.1290 -0.1905
  360MOL0     C49569   0.867   8.988   2.627  0.4650  0.1305  0.1734
  360MOL0     C49570   0.938   8.864   2.576 -0.5806  0.5168  0.1172
  360MOL0     C49571   0.877   9.119   2.580  0.2762 -0.9213 -0.1242
  360MOL0     C49572   0.948   9.163   2.456  0.4391  0.1628 -0.5359
  360MOL0     O49573   0.954   9.299   2.438 -0.4001  0.3209  0.0237
  360MOL0     C49574   1.039   9.337   2.342 -0.3841  0.2258  0.6554
  360MOL0     C49575   1.174   9.364   2.370 -0.8657  0.2979  0.6261
  360MOL0     C49576   1.266   9.413   2.280  0.2081 -0.0977  0.1124
  360MOL0     C49577   1.230   9.437   2.148 -0.9620 -0.1179  0.0744
  360MOL0     O49578   1.320   9.477   2.048  0.5510 -0.3824 -0.6065
  360MOL0     C49579   1.283   9.612   2.007  0.7978  0.6046  0.4685
  360MOL0     C49580   1.302   9.653   1.860  0.7475  0.4538  0.2435
  360MOL0     C49581   1.165   9.656   1.793 -0.5745 -0.7006 -0.7886
  360MOL0     C49582   1.174   9.700   1.646  0.5349  0.1691  0.0980
  360MOL0     C49583   1.046   9.692   1.572 -0.3408 -0.3526 -0.0902
  360MOL0     C49584   0.941   9.797   1.623  0.5589  0.3082 -0.0477
  360MOL0     C49585   0.816   9.781   1.543 -0.4581  0.2022 -0.8039
  360MOL0     C49586   0.698   9.842   1.600 -0.0273 -0.2896 -1.0201
  360MOL0    Cl49587   0.731  10.010   1.660  0.1115 -0.0249 -0.3092
  360MOL0     C49588   1.087   9.421   2.115  0.0457 -0.4433 -0.5558
  360MOL0     C49589   1.003   9.369   2.209  0.1447  0.2345 -0.7610
  360MOL0     O49590   1.012   9.081   2.387  0.6528  0.1424 -0.0102
  360MOL0     C49591   0.805   9.220   2.656 -0.8826 -0.2859  0.0356
  360MOL0     C49592   0.731   9.189   2.767 -0.5062 -0.8303  0.0163
  360MOL0     N49593   0.284   9.279   3.463 -0.2302  0.0564  0.7068
  360MOL0     N49594   0.173   9.292   3.530 -0.1530  0.2799 -0.1212
  360MOL0     C49595   0.690   8.765   3.916 -0.8409  0.0092  0.4832
  360MOL0     C49596   0.795   8.726   3.824 -0.0429 -0.5835  0.0953
  360MOL0     C49597   1.147   8.474   3.709  0.3635 -0.5592  0.0586
  360MOL0     C49598   1.234   8.386   3.767 -0.9981  0.3387  0.5967
  360MOL0     C49599   1.348   8.333   3.698  0.2297  0.6790 -0.8215
  360MOL0     C49600   1.370   8.376   3.570  0.0419 -0.3674 -0.3959
  360MOL0     O49601   1.480   8.320   3.511 -0.2021  0.5071 -0.8653
  360MOL0     C49602   1.475   8.330   3.363 -0.6074 -0.2177  0.4092
  360MOL0     C49603   1.538   8.201   3.316 -0.5745 -0.9541 -0.8775
  360MOL0     C49604   1.684   8.180   3.325 -0.4984 -0.1473  1.4237
  360MOL0     C49605   1.762   8.293   3.252 -0.2416  0.6623  0.3125
  360MOL0     C49606   1.906   8.286   3.259 -0.7044 -0.1855 -0.6676
  360MOL0     C49607   2.023   8.278   3.270  0.3646  0.3693  0.2176
  360MOL0     C49608   1.289   8.471   3.507 -0.6922 -0.4022  1.6010
  360MOL0     C49609   1.176   8.516   3.579  0.5961 -0.1047  0.7053
  360MOL0     C49610   1.085   8.619   3.510 -0.8326  0.0675 -0.4047
  360MOL0     H49611   0.733   8.394   3.828 -3.6376 -1.0652  1.5703
  360MOL0     H49612   0.543   8.471   3.965 -1.0612  1.4481 -0.0324
  360MOL0     H49613   0.456   8.884   3.962 -3.1222  3.3683  2.3217
  360MOL0     H49614   0.555   8.875   4.121 -0.6660  0.3205  2.5165
  360MOL0     H49615   0.273   8.794   4.063  1.5803 -2.7274  0.0629
  360MOL0     H49616   0.333   8.817   4.222  1.1254  1.2867  0.4691
  360MOL0     H49617   0.192   9.009   4.186  0.5395 -2.3509  1.3172
  360MOL0     H49618   0.359   9.071   4.209 -1.4885  1.9964 -0.1558
  360MOL0     H49619   0.262   9.208   4.039 -0.7751  0.1774 -3.5520
  360MOL0     H49620   0.377   9.110   3.963  0.1031  2.3049  0.7444
  360MOL0     H49621   0.084   9.028   3.973 -0.4100  0.1155 -1.2454
  360MOL0     H49622   0.211   8.940   3.891  0.1728 -0.5031  1.0921
  360MOL0     H49623   0.118   9.220   3.834 -1.8470 -0.8426  1.5026
  360MOL0     H49624   0.243   9.123   3.743  1.7169  2.0178  2.7190
  360MOL0     H49625  -0.043   9.039   3.790  1.8002  0.4367  1.5496
  360MOL0     H49626   0.073   8.958   3.681  0.0597  0.0781 -2.0402
  360MOL0     H49627  -0.095   9.100   3.548 -0.4795 -1.5973  1.8718
  360MOL0     H49628  -0.059   9.234   3.649  0.7802 -0.1216  1.2838
  360MOL0     H49629   0.157   8.982   3.435  0.5361  0.5115 -1.2984
  360MOL0     H49630   0.392   8.971   3.359 -1.0485 -0.5033  1.7080
  360MOL0     H49631   0.491   9.118   3.386  0.2206 -3.6033 -0.4623
  360MOL0     H49632   0.283   9.120   3.163  1.1553  2.8790 -2.6745
  360MOL0     H49633   0.405   9.230   3.188 -2.4404 -0.0417  0.0934
  360MOL0     H49634   0.534   8.951   3.168 -1.8142 -1.1053  0.3642
  360MOL0     H49635   0.406   8.953   3.059 -2.5591  0.8564  0.3165
  360MOL0     H49636   0.510   9.176   2.939  2.1308  0.7736 -2.5648
  360MOL0     H49637   0.644   9.160   3.046  1.0097 -1.4354 -0.3537
  360MOL0     H49638   0.755   8.859   2.767  1.6196 -0.8543 -0.6329
  360MOL0     H49639   0.882   8.815   2.496 -0.7974  0.5272  0.2621
  360MOL0     H49640   0.970   8.791   2.651  1.7920 -1.2631 -2.4301
  360MOL0     H49641   1.033   8.904   2.539 -1.0425  0.1853 -1.5049
  360MOL0     H49642   1.224   9.351   2.466  1.5190 -0.4063 -0.6266
  360MOL0     H49643   1.368   9.438   2.309  0.1291  1.7394 -1.0263
  360MOL0     H49644   1.181   9.634   2.040 -2.0298 -5.5212 -2.6419
  360MOL0     H49645   1.344   9.684   2.063  0.7103 -0.1018  1.4987
  360MOL0     H49646   1.351   9.750   1.848  1.1594 -0.0164 -2.5327
  360MOL0     H49647   1.372   9.584   1.810  1.3120 -0.0402  1.6735
  360MOL0     H49648   1.102   9.729   1.844  0.3582 -0.1714 -0.3744
  360MOL0     H49649   1.118   9.557   1.797 -0.7230 -0.5840  1.1907
  360MOL0     H49650   1.243   9.636   1.590  0.4166  1.4854 -1.6584
  360MOL0     H49651   1.216   9.801   1.638  0.4442  0.1774 -0.2740
  360MOL0     H49652   1.077   9.719   1.471  1.9200 -0.3540  0.5443
  360MOL0     H49653   1.006   9.591   1.575  1.5146 -1.1370 -0.4093
  360MOL0     H49654   0.983   9.898   1.628  3.0823 -0.6518 -0.2537
  360MOL0     H49655   0.920   9.776   1.729  1.9281  1.0854  0.4088
  360MOL0     H49656   0.804   9.674   1.526  1.9019 -0.2679  0.0810
  360MOL0     H49657   0.845   9.825   1.447 -1.8718  0.4393 -1.1482
  360MOL0     H49658   0.684   9.789   1.695 -0.6280  2.5721  0.5965
  360MOL0     H49659   0.605   9.823   1.547 -0.5334 -2.1839  0.4141
  360MOL0     H49660   1.041   9.443   2.019 -3.2492 -3.0565  0.1960
  360MOL0     H49661   0.903   9.341   2.176  0.4019 -3.2173  0.9465
  360MOL0     H49662   0.813   9.325   2.628  1.3479 -0.5958 -0.7416
  360MOL0     H49663   0.679   9.278   2.803 -0.9403 -0.9606 -0.2718
  360MOL0     H49664   0.683   8.871   3.935 -0.9869 -0.4215  3.1496
  360MOL0     H49665   0.860   8.801   3.779 -0.1548 -0.2574  0.4735
  360MOL0     H49666   1.220   8.371   3.873 -0.2044  1.5952  0.9057
  360MOL0     H49667   1.411   8.253   3.737 -1.1451 -0.8027 -1.5037
  360MOL0     H49668   1.377   8.324   3.314  0.2086  1.1046 -1.5344
  360MOL0     H49669   1.526   8.416   3.319  0.7088 -2.0457 -1.8413
  360MOL0     H49670   1.516   8.201   3.209  0.5176  0.2711 -1.1164
  360MOL0     H49671   1.486   8.120   3.369 -0.6722 -1.0050 -1.0492
  360MOL0     H49672   1.721   8.169   3.428  2.0113 -2.6429  0.4180
  360MOL0     H49673   1.700   8.081   3.281 -0.7363 -0.5971  2.3064
  360MOL0     H49674   1.735   8.378   3.315 -0.8842 -0.9920  2.3808
  360MOL0     H49675   1.724   8.302   3.150 -0.7716 -1.5374  0.2654
  360MOL0     H49676   2.128   8.299   3.275  0.1674  1.2934  0.8618
  360MOL0     H49677   1.297   8.506   3.404  0.7087 -1.7525  1.2185
  360MOL0     H49678   1.146   8.673   3.437  0.0347  0.3047  0.4760
  360MOL0     H49679   1.000   8.571   3.460 -1.3288  2.7979 -2.3659
  360MOL0     H49680   1.054   8.701   3.576  0.6237 -0.1262  0.5653
  361MOL0     O49681   2.268   1.070   8.800 -0.0135  0.4813  0.0871
  361MOL0     C49682   2.193   1.170   8.821  0.0242  0.2503  1.3307
  361MOL0     O49683   2.242   1.295   8.835 -0.6529 -0.2790  0.2674
  361MOL0     C49684   2.373   1.303   8.863 -0.1863  0.6308  0.2033
  361MOL0     C49685   2.460   1.288   8.762 -0.6705  0.2954  0.6207
  361MOL0     C49686   2.598   1.287   8.792 -0.7860 -0.8646  0.6169
  361MOL0     C49687   2.652   1.295   8.919 -0.3461 -0.4031  0.3733
  361MOL0     O49688   2.786   1.270   8.936  0.2253 -0.4706 -0.3025
  361MOL0     C49689   2.831   1.219   9.060  0.1429  0.3599  0.9502
  361MOL0     C49690   2.981   1.171   9.071  0.6108  0.6407 -0.0075
  361MOL0     C49691   3.078   1.262   9.002  0.3024  0.9049  0.3349
  361MOL0     C49692   3.219   1.204   9.035  0.0131 -0.1709  0.3350
  361MOL0     C49693   3.330   1.268   8.941  0.4693  0.2251 -1.1025
  361MOL0     C49694   3.363   1.421   8.970  0.4676 -0.2944 -0.1322
  361MOL0     C49695   3.498   1.459   8.897  0.1478 -0.2620  0.0669
  361MOL0     C49696   3.514   1.606   8.903 -1.5448 -0.5393  0.0128
  361MOL0     N49697   3.650   1.633   8.848  1.0700 -0.0671 -0.4549
  361MOL0     C49698   3.762   1.639   8.930  0.7273 -0.3819 -0.2437
  361MOL0     C49699   3.856   1.707   8.860 -0.3859  0.2509 -0.2870
  361MOL0     C49700   3.990   1.742   8.908 -1.0263  0.6589  0.8090
  361MOL0     C49701   4.011   1.896   8.898  0.8421 -0.2095  0.2877
  361MOL0     C49702   3.888   1.972   8.964 -0.3335  0.4291 -0.2398
  361MOL0     C49703   3.908   2.129   8.984 -0.1556 -0.5672  0.2840
  361MOL0     O49704   3.992   2.172   9.087 -0.2222 -0.6456 -0.4505
  361MOL0     C49705   4.056   2.295   9.074  0.2275  0.6323 -0.3166
  361MOL0     C49706   4.177   2.307   9.141 -0.3951 -0.1310  0.7651
  361MOL0     C49707   4.236   2.432   9.143  0.3362 -0.2856 -0.4159
  361MOL0     C49708   4.363   2.434   9.213 -0.0924 -0.3871  0.7448
  361MOL0     C49709   4.183   2.550   9.083  0.6500  0.4537  0.9383
  361MOL0     C49710   4.229   2.682   9.091 -0.5763 -0.8163  0.0618
  361MOL0     O49711   4.181   2.778   9.000 -0.1864 -1.0009  0.1729
  361MOL0     C49712   4.205   2.907   9.035 -0.2529 -0.1652  0.9286
  361MOL0     C49713   4.321   2.974   9.005 -0.1866 -0.4939 -0.6145
  361MOL0     C49714   4.346   3.099   9.049 -0.1323 -0.4311  0.0957
  361MOL0     C49715   4.251   3.165   9.125 -0.4302  0.1326 -0.0125
  361MOL0     O49716   4.286   3.293   9.170 -0.4067  0.1840  0.2712
  361MOL0     C49717   4.185   3.399   9.176 -1.0276  0.4936 -0.1680
  361MOL0     C49718   4.234   3.518   9.092  0.0478 -0.9947  1.3621
  361MOL0     C49719   4.315   3.621   9.167 -0.1362  0.2200 -0.1490
  361MOL0     C49720   4.346   3.747   9.079 -0.0757 -0.2561  0.8980
  361MOL0     C49721   4.464   3.821   9.153 -0.2681  0.7164 -0.2671
  361MOL0     C49722   4.395   3.909   9.257  0.0195 -0.2942  0.0119
  361MOL0     C49723   4.486   4.000   9.340 -0.3792 -0.2271  0.0685
  361MOL0     C49724   4.400   4.106   9.412  0.4584  1.1263  0.6080
  361MOL0    Cl49725   4.488   4.236   9.477  0.2524  0.3804 -0.1718
  361MOL0     C49726   4.129   3.099   9.165  0.7245  0.7981 -0.4326
  361MOL0     C49727   4.103   2.972   9.110  0.2370 -0.1021  1.0080
  361MOL0     O49728   4.313   2.709   9.177  0.4252  0.4905 -0.7910
  361MOL0     C49729   4.064   2.523   9.007 -0.5765 -0.0788 -0.0905
  361MOL0     C49730   3.997   2.403   9.011 -0.4582  0.0148 -0.7824
  361MOL0     N49731   3.802   1.736   8.733  0.0590 -0.1099  0.8695
  361MOL0     N49732   3.680   1.687   8.731 -0.6158 -0.2895  1.1972
  361MOL0     C49733   2.562   1.322   9.018  0.9882  0.8068 -0.4207
  361MOL0     C49734   2.419   1.327   8.995 -0.0597 -0.3649  0.2229
  361MOL0     C49735   2.044   1.153   8.813 -0.5529  1.3075 -0.3163
  361MOL0     C49736   1.966   1.268   8.803  0.3140  1.1492 -0.3801
  361MOL0     C49737   1.828   1.262   8.800  0.3832  0.3588  0.1004
  361MOL0     C49738   1.763   1.141   8.791 -0.2194  0.0059 -0.1334
  361MOL0     O49739   1.625   1.142   8.776  0.2503  0.2954  0.1952
  361MOL0     C49740   1.554   1.015   8.764  0.4375 -0.3507  0.2999
  361MOL0     C49741   1.494   0.964   8.890  0.2969 -0.6815 -0.1152
  361MOL0     C49742   1.404   1.061   8.966  0.0376 -0.0420  0.5671
  361MOL0     C49743   1.323   0.994   9.085 -0.4550  0.3004 -0.9724
  361MOL0     C49744   1.194   0.943   9.053  0.8682 -0.4689  0.6239
  361MOL0     C49745   1.081   0.891   9.036 -0.2219 -0.1025  0.3400
  361MOL0     C49746   1.834   1.019   8.804  0.5677 -0.7328  0.0183
  361MOL0     C49747   1.975   1.028   8.818  0.2465  1.1365 -0.3789
  361MOL0     C49748   2.051   0.896   8.845  0.0751  0.5371 -0.8137
  361MOL0     H49749   2.425   1.263   8.662  4.1429 -1.0187 -0.9742
  361MOL0     H49750   2.667   1.259   8.712 -2.1550  0.1362 -0.9875
  361MOL0     H49751   2.774   1.132   9.095  2.8680 -1.4948  1.0588
  361MOL0     H49752   2.815   1.289   9.142 -0.8780 -0.2418  1.2891
  361MOL0     H49753   3.002   1.183   9.178 -0.3061  2.5197 -0.0091
  361MOL0     H49754   2.986   1.063   9.051  1.2459  0.3472  1.5831
  361MOL0     H49755   3.068   1.252   8.894 -0.2239  0.9515  0.3777
  361MOL0     H49756   3.061   1.369   9.016 -1.0780  0.6806  0.5834
  361MOL0     H49757   3.251   1.218   9.139  0.2031 -2.5490  0.6524
  361MOL0     H49758   3.225   1.097   9.010 -1.3750  0.1434 -1.5428
  361MOL0     H49759   3.293   1.269   8.838 -0.6532  0.7866 -0.7163
  361MOL0     H49760   3.419   1.205   8.954  0.3232  0.3708  0.9334
  361MOL0     H49761   3.278   1.483   8.939  1.6066  2.2653  1.4882
  361MOL0     H49762   3.372   1.430   9.079  2.2184 -0.7608 -0.2088
  361MOL0     H49763   3.494   1.426   8.793  0.9569  0.7117 -0.2873
  361MOL0     H49764   3.582   1.421   8.956 -0.1197 -0.1202  0.5495
  361MOL0     H49765   3.429   1.653   8.852  0.0605  1.2179 -1.1605
  361MOL0     H49766   3.521   1.648   9.003 -0.2885  1.4935 -0.8823
  361MOL0     H49767   3.763   1.599   9.031 -4.4636 -2.1878 -0.6133
  361MOL0     H49768   4.071   1.692   8.854 -0.7097  2.5511 -0.5463
  361MOL0     H49769   4.005   1.707   9.010 -2.2700 -0.2333  0.7136
  361MOL0     H49770   4.096   1.929   8.957  1.7572 -0.6443 -0.7570
  361MOL0     H49771   4.032   1.937   8.799  0.2967  1.9715  1.0108
  361MOL0     H49772   3.799   1.977   8.899  1.8798 -0.4219 -3.5815
  361MOL0     H49773   3.871   1.923   9.060 -0.5281  2.6438  0.9274
  361MOL0     H49774   3.927   2.177   8.888 -2.4778 -0.6529 -0.2753
  361MOL0     H49775   3.804   2.156   9.007  0.0183 -0.1843  0.6309
  361MOL0     H49776   4.224   2.222   9.190  1.6154  1.7290  2.2480
  361MOL0     H49777   4.362   2.506   9.296  3.1960 -0.2356  0.7560
  361MOL0     H49778   4.444   2.461   9.145 -0.8520 -0.8735 -0.3902
  361MOL0     H49779   4.390   2.341   9.263  3.4044 -0.4679 -1.0137
  361MOL0     H49780   4.394   2.919   8.946  0.2717  0.2687 -0.7678
  361MOL0     H49781   4.435   3.156   9.025 -0.6815  0.5638  0.3982
  361MOL0     H49782   4.086   3.361   9.148  0.0834 -2.4905 -0.4421
  361MOL0     H49783   4.174   3.437   9.278 -0.7945  2.9094 -0.9874
  361MOL0     H49784   4.292   3.483   9.007  2.7263  0.5665  2.4118
  361MOL0     H49785   4.144   3.572   9.062  1.1202 -0.7116 -1.6421
  361MOL0     H49786   4.392   3.560   9.213 -0.5561  1.0631  1.7722
  361MOL0     H49787   4.249   3.666   9.242  2.0242 -2.0426  3.3458
  361MOL0     H49788   4.258   3.810   9.066 -0.2693 -0.7402 -0.3554
  361MOL0     H49789   4.382   3.717   8.980  2.8477 -1.2038  2.1341
  361MOL0     H49790   4.536   3.753   9.199 -1.4334 -2.6133 -2.9115
  361MOL0     H49791   4.525   3.872   9.077  0.8465 -2.1125 -1.4244
  361MOL0     H49792   4.351   3.846   9.333  1.4795 -2.2168 -0.6437
  361MOL0     H49793   4.319   3.965   9.202  0.9751  1.7257  0.6266
  361MOL0     H49794   4.566   4.045   9.280  0.9359  0.6970  2.4083
  361MOL0     H49795   4.526   3.925   9.409 -1.2975 -1.5452 -0.7893
  361MOL0     H49796   4.348   4.050   9.490  0.3855  0.7796  0.3143
  361MOL0     H49797   4.325   4.152   9.348 -1.3546 -0.1900  1.7071
  361MOL0     H49798   4.065   3.151   9.234  0.9074  1.0475 -0.4517
  361MOL0     H49799   4.011   2.917   9.128  1.1180 -2.6409 -1.4020
  361MOL0     H49800   4.030   2.609   8.951  0.7611 -0.6646 -1.9460
  361MOL0     H49801   3.902   2.388   8.961  0.8916 -1.1720 -3.1367
  361MOL0     H49802   2.593   1.332   9.121 -0.7948 -4.4231  0.9549
  361MOL0     H49803   2.346   1.342   9.073  0.6427  0.3706  0.7577
  361MOL0     H49804   2.024   1.360   8.801  2.8884 -0.2301  2.3230
  361MOL0     H49805   1.780   1.359   8.791 -0.3430 -0.0512 -0.5655
  361MOL0     H49806   1.465   1.025   8.701 -0.3216 -1.9287  1.0837
  361MOL0     H49807   1.606   0.929   8.722 -3.4316 -0.7504 -4.5573
  361MOL0     H49808   1.571   0.916   8.951 -1.1962 -1.4663  1.1849
  361MOL0     H49809   1.420   0.887   8.870  1.1356 -2.0746  1.8575
  361MOL0     H49810   1.458   1.139   9.021  1.4959 -0.0943 -0.7382
  361MOL0     H49811   1.332   1.107   8.897 -2.3925 -2.6213  1.1927
  361MOL0     H49812   1.305   1.053   9.175  2.9248 -3.6088  2.7202
  361MOL0     H49813   1.392   0.918   9.124 -0.7820 -0.1964 -1.3576
  361MOL0     H49814   0.985   0.844   9.033  0.6354 -2.0700  1.2197
  361MOL0     H49815   1.784   0.923   8.801  1.0765 -1.0002  0.0036
  361MOL0     H49816   2.088   0.897   8.948 -3.0709  3.2422  0.4829
  361MOL0     H49817   1.987   0.807   8.839  0.9041 -0.0352 -1.2726
  361MOL0     H49818   2.126   0.871   8.771  1.2217 -2.5559  1.2003
  362MOL0     O49819   5.878   5.282   9.368 -0.0008 -0.3091  0.1154
  362MOL0     C49820   5.822   5.306   9.257  0.0022 -0.5423 -0.1609
  362MOL0     O49821   5.700   5.359   9.240 -0.4182  0.3058  0.1278
  362MOL0     C49822   5.622   5.381   9.345  0.9169 -0.4694 -0.2801
  362MOL0     C49823   5.666   5.478   9.440 -0.0119  0.0703  0.0057
  362MOL0     C49824   5.581   5.509   9.540 -0.2608 -0.1619  0.1849
  362MOL0     C49825   5.445   5.459   9.554 -0.7175 -0.2198 -0.0496
  362MOL0     O49826   5.359   5.494   9.657  0.1853  0.1895 -0.1275
  362MOL0     C49827   5.388   5.612   9.736 -1.1402  1.1292 -0.4106
  362MOL0     C49828   5.283   5.655   9.844 -0.7253 -0.4173 -0.6348
  362MOL0     C49829   5.157   5.691   9.767  0.2822 -0.5591 -0.0105
  362MOL0     C49830   5.032   5.655   9.849  0.5488 -1.0143 -0.1346
  362MOL0     C49831   4.907   5.734   9.793 -0.3999 -0.0405  0.1723
  362MOL0     C49832   4.775   5.715   9.869 -0.2931 -0.5251  0.2917
  362MOL0     C49833   4.735   5.570   9.902  0.7320  0.0313  0.6080
  362MOL0     C49834   4.595   5.571   9.954  0.9491 -0.4034 -0.8822
  362MOL0     N49835   4.556   5.434   9.985  0.7027 -0.2426 -0.5002
  362MOL0     C49836   4.474   5.399  10.086 -0.2852 -0.1054 -0.3420
  362MOL0     C49837   4.425   5.278  10.051  0.8706  0.5213  1.1826
  362MOL0     C49838   4.326   5.196  10.127  0.8916  1.1045 -0.4050
  362MOL0     C49839   4.180   5.263  10.109  0.2123  0.0762 -0.3858
  362MOL0     C49840   4.072   5.169  10.167 -0.8017 -0.2804 -0.1629
  362MOL0     C49841   3.937   5.242  10.138 -0.7905  1.0087  0.8722
  362MOL0     O49842   3.833   5.146  10.173 -0.0669 -0.7646 -0.1845
  362MOL0     C49843   3.764   5.195  10.282 -0.1058 -0.8212 -0.1108
  362MOL0     C49844   3.788   5.150  10.419  0.2311 -0.0021  0.9498
  362MOL0     C49845   3.710   5.190  10.524  0.0113  0.5487  0.6592
  362MOL0     C49846   3.709   5.094  10.643  0.5052 -0.5146  0.6083
  362MOL0     C49847   3.613   5.297  10.499 -0.0339 -0.6318  0.4973
  362MOL0     C49848   3.540   5.375  10.605  0.4686  1.1572  0.3046
  362MOL0     O49849   3.442   5.457  10.556  0.1897 -0.0180  0.1867
  362MOL0     C49850   3.344   5.496  10.649 -0.5536  0.8403 -0.6141
  362MOL0     C49851   3.279   5.621  10.635  0.1102  0.0964  0.2854
  362MOL0     C49852   3.190   5.665  10.733 -0.5991 -0.0566  0.3875
  362MOL0     C49853   3.143   5.589  10.835  0.3179  0.3635  0.1164
  362MOL0     O49854   3.049   5.650  10.916  0.2717  0.4424 -0.2535
  362MOL0     C49855   2.942   5.562  10.926 -0.0433 -0.6603 -0.4092
  362MOL0     C49856   2.815   5.615  10.990 -0.1442  0.0055 -0.7034
  362MOL0     C49857   2.788   5.754  10.939 -0.2264 -0.5808  0.0501
  362MOL0     C49858   2.648   5.797  10.976  0.5783 -0.4810  0.5841
  362MOL0     C49859   2.620   5.810  11.119 -0.5569  0.9464 -0.1865
  362MOL0     C49860   2.482   5.864  11.146  0.9129  0.0321 -0.0471
  362MOL0     C49861   2.361   5.773  11.086  0.0203  0.1692 -0.5419
  362MOL0     C49862   2.234   5.858  11.105 -0.0818  0.3046 -1.2178
  362MOL0    Cl49863   2.110   5.750  11.057  0.1042  0.6171  0.5742
  362MOL0     C49864   3.205   5.454  10.847 -0.2559 -0.9926 -0.0822
  362MOL0     C49865   3.304   5.415  10.758 -0.1537  0.5883 -0.4966
  362MOL0     O49866   3.579   5.371  10.721  0.1292  0.2969 -0.1778
  362MOL0     C49867   3.609   5.359  10.373  0.5430  0.4638  0.5133
  362MOL0     C49868   3.667   5.296  10.265 -0.9783  1.0871 -0.3617
  362MOL0     N49869   4.474   5.249   9.927 -0.1046  0.0962 -0.1298
  362MOL0     N49870   4.556   5.340   9.892  1.0848 -0.6890  0.1577
  362MOL0     C49871   5.405   5.360   9.467 -0.1298 -0.7030  0.4594
  362MOL0     C49872   5.488   5.328   9.356  0.1754 -0.7259  1.0546
  362MOL0     C49873   5.901   5.270   9.142 -0.1894  0.5341  0.4040
  362MOL0     C49874   5.847   5.213   9.029  0.7192  0.7003  0.0875
  362MOL0     C49875   5.915   5.197   8.910  0.1785  0.3899  0.0088
  362MOL0     C49876   6.051   5.230   8.900 -0.0692 -0.3025  0.6239
  362MOL0     O49877   6.120   5.210   8.783 -0.2112 -0.2756  0.4110
  362MOL0     C49878   6.213   5.309   8.724 -0.5625  0.0741 -0.9315
  362MOL0     C49879   6.347   5.246   8.674 -0.4963 -1.0619 -0.3850
  362MOL0     C49880   6.411   5.161   8.784 -0.1478  0.0020  0.0124
  362MOL0     C49881   6.471   5.236   8.899  0.2693  0.3372 -0.0115
  362MOL0     C49882   6.603   5.309   8.863  0.2588  0.6963 -0.5653
  362MOL0     C49883   6.705   5.379   8.846 -0.8215  0.4301  1.0355
  362MOL0     C49884   6.104   5.283   9.016 -1.1577 -0.4891  0.3511
  362MOL0     C49885   6.037   5.313   9.132  0.2757 -0.1257  0.4752
  362MOL0     C49886   6.109   5.384   9.241 -0.1007 -0.7388  0.6687
  362MOL0     H49887   5.768   5.511   9.430 -0.0065  0.7840  2.0375
  362MOL0     H49888   5.620   5.582   9.609 -0.8275 -0.6071  1.0011
  362MOL0     H49889   5.404   5.704   9.678  1.1723  1.0541 -0.0105
  362MOL0     H49890   5.484   5.587   9.783 -1.9898 -3.5320 -0.6516
  362MOL0     H49891   5.274   5.572   9.914  0.4107  0.6671  0.8550
  362MOL0     H49892   5.320   5.741   9.901  0.0359 -0.2856 -1.3022
  362MOL0     H49893   5.151   5.797   9.740 -4.0272 -0.2720  1.3245
  362MOL0     H49894   5.144   5.625   9.681  1.6544 -1.1798  0.2354
  362MOL0     H49895   5.027   5.546   9.857 -1.1714 -0.9768 -0.3199
  362MOL0     H49896   5.052   5.691   9.950  0.6620 -0.9542 -0.1777
  362MOL0     H49897   4.896   5.707   9.688 -0.2103 -0.0650  0.1587
  362MOL0     H49898   4.923   5.842   9.795 -1.7032  0.1653  0.7022
  362MOL0     H49899   4.786   5.764   9.966  2.3730  3.8143 -1.8497
  362MOL0     H49900   4.699   5.775   9.818  1.2775  1.0503 -0.2948
  362MOL0     H49901   4.801   5.515   9.971 -0.0264 -2.4251 -0.5294
  362MOL0     H49902   4.747   5.504   9.816  1.6484  0.6333  0.2565
  362MOL0     H49903   4.599   5.640  10.038  0.0021  0.3033 -1.3922
  362MOL0     H49904   4.529   5.620   9.882 -2.3686 -1.9763  0.8744
  362MOL0     H49905   4.451   5.459  10.174 -0.2800  1.1823 -1.1905
  362MOL0     H49906   4.351   5.188  10.233 -0.1302 -0.8190 -0.2546
  362MOL0     H49907   4.317   5.097  10.082 -0.5132  0.0657  1.9454
  362MOL0     H49908   4.178   5.347  10.179  2.2063 -1.6037  1.8590
  362MOL0     H49909   4.155   5.282  10.004 -0.1315 -2.0497 -0.7413
  362MOL0     H49910   4.074   5.068  10.125  1.8410 -1.1657  1.8528
  362MOL0     H49911   4.083   5.168  10.276  0.0569 -1.6470 -0.2510
  362MOL0     H49912   3.942   5.337  10.192  0.9010  0.7176  1.2775
  362MOL0     H49913   3.922   5.261  10.032 -0.8488 -2.3895  0.1759
  362MOL0     H49914   3.856   5.066  10.433 -1.5481 -1.1668  3.5485
  362MOL0     H49915   3.735   4.992  10.613 -3.2378 -2.6358  3.6443
  362MOL0     H49916   3.605   5.078  10.672  1.4328 -2.7938  3.0499
  362MOL0     H49917   3.768   5.122  10.730 -0.2802  0.4535  0.8551
  362MOL0     H49918   3.300   5.680  10.547 -2.9680  1.5004  0.3865
  362MOL0     H49919   3.162   5.768  10.711  0.7491  1.0154  3.1274
  362MOL0     H49920   2.904   5.518  10.834 -2.7610  0.4414  0.1053
  362MOL0     H49921   2.986   5.482  10.987 -0.9983  0.9912  2.6906
  362MOL0     H49922   2.726   5.553  10.976 -0.1219 -0.3594  0.5631
  362MOL0     H49923   2.827   5.639  11.097 -0.8822  0.7979 -0.7831
  362MOL0     H49924   2.813   5.777  10.835  1.0876  2.2330  0.8885
  362MOL0     H49925   2.856   5.822  10.991 -1.5806  0.3711  0.6298
  362MOL0     H49926   2.577   5.745  10.911  2.5249  0.4030 -2.4910
  362MOL0     H49927   2.650   5.902  10.944  0.4540 -0.7962 -0.4987
  362MOL0     H49928   2.623   5.713  11.169  2.0411  1.8995  1.7632
  362MOL0     H49929   2.697   5.881  11.153  0.8372  0.1559 -1.5731
  362MOL0     H49930   2.464   5.958  11.092 -0.7865  0.5921  1.3941
  362MOL0     H49931   2.473   5.882  11.253  0.0598  0.9091 -0.2432
  362MOL0     H49932   2.345   5.680  11.141  0.3326 -0.4420 -1.4484
  362MOL0     H49933   2.374   5.750  10.979  0.6395 -1.2772 -0.1893
  362MOL0     H49934   2.238   5.946  11.041  2.1659  0.4715 -0.9152
  362MOL0     H49935   2.222   5.885  11.210  2.1802 -1.8456 -0.2934
  362MOL0     H49936   3.175   5.381  10.922  1.2203 -2.2307 -0.6267
  362MOL0     H49937   3.359   5.325  10.782 -0.2620  0.2922 -1.3294
  362MOL0     H49938   3.551   5.448  10.353  1.1620  0.8739  0.5433
  362MOL0     H49939   3.647   5.321  10.161 -0.8506  1.4900 -0.2913
  362MOL0     H49940   5.311   5.306   9.476 -0.2560 -0.4610  0.6261
  362MOL0     H49941   5.452   5.263   9.277  0.3459  0.8754 -0.3938
  362MOL0     H49942   5.747   5.170   9.025  1.2570 -0.5981  0.3163
  362MOL0     H49943   5.876   5.151   8.820  0.1303 -0.7656  0.5887
  362MOL0     H49944   6.170   5.338   8.628  2.0676  2.0499 -1.6228
  362MOL0     H49945   6.246   5.398   8.778  2.2053 -0.7491 -1.1218
  362MOL0     H49946   6.414   5.328   8.647 -0.5824 -1.5690 -2.2846
  362MOL0     H49947   6.328   5.184   8.586 -0.3625 -1.6276 -0.0169
  362MOL0     H49948   6.350   5.081   8.827  1.3991  1.3091  5.3557
  362MOL0     H49949   6.499   5.117   8.736 -1.2204 -0.3467 -1.7124
  362MOL0     H49950   6.476   5.180   8.993 -0.4853 -1.6270 -1.0875
  362MOL0     H49951   6.401   5.314   8.930  0.4554  0.0007  1.3098
  362MOL0     H49952   6.793   5.438   8.831  1.0851 -2.0094  2.0835
  362MOL0     H49953   6.211   5.301   9.018 -1.1573 -0.2645 -0.8723
  362MOL0     H49954   6.044   5.461   9.283 -2.2636 -2.8249  1.4277
  362MOL0     H49955   6.136   5.320   9.326 -2.7788 -2.4734  0.3275
  362MOL0     H49956   6.194   5.443   9.206 -1.7952  2.2870  1.2925
  363MOL0     O49957  11.447   9.142   8.997  0.9275 -0.0917  0.4456
  363MOL0     C49958  11.350   9.160   8.924  0.1346  0.2103  0.5189
  363MOL0     O49959  11.338   9.123   8.792  0.0323  0.0281 -0.0377
  363MOL0     C49960  11.447   9.077   8.725 -0.4951 -1.2501 -0.2376
  363MOL0     C49961  11.453   9.121   8.595 -0.0714  0.0316  0.7195
  363MOL0     C49962  11.562   9.087   8.518 -0.7267  0.0323  0.9983
  363MOL0     C49963  11.666   9.004   8.564  0.1158  0.3293  0.0171
  363MOL0     O49964  11.770   8.976   8.479  0.2487 -0.0108  0.5110
  363MOL0     C49965  11.874   8.884   8.523 -0.1621  0.0861  0.1918
  363MOL0     C49966  11.992   8.879   8.418 -0.3187 -0.9349 -0.4922
  363MOL0     C49967  11.946   8.812   8.299  0.2003  0.4916 -0.4161
  363MOL0     C49968  12.038   8.819   8.184  0.1689 -0.8463  0.7164
  363MOL0     C49969  12.036   8.957   8.114  0.0135 -0.5921  0.2337
  363MOL0     C49970  12.158   8.984   8.025  0.0386  0.3839 -0.0634
  363MOL0     C49971  12.175   8.882   7.914  0.5592  0.6780  1.1350
  363MOL0     C49972  12.258   8.929   7.795 -0.5902  0.0810  0.4195
  363MOL0     N49973  12.187   9.029   7.711  0.5262  0.6131  1.2449
  363MOL0     C49974  12.199   9.162   7.718 -0.4569 -0.0559 -0.6624
  363MOL0     C49975  12.123   9.208   7.617  0.3045 -0.6031  0.7092
  363MOL0     C49976  12.111   9.355   7.581  0.8901 -0.0289 -0.5931
  363MOL0     C49977  11.984   9.405   7.504 -0.1686  0.2932  0.7267
  363MOL0     C49978  11.858   9.417   7.586  0.3644 -0.3902 -0.1223
  363MOL0     C49979  11.871   9.505   7.706 -0.0790 -0.9378 -0.3389
  363MOL0     O49980  11.940   9.629   7.690 -0.3918  0.2102  0.0739
  363MOL0     C49981  11.881   9.739   7.644  0.3146  1.4860  1.1119
  363MOL0     C49982  11.748   9.741   7.603 -0.6107 -0.1579  0.2011
  363MOL0     C49983  11.684   9.860   7.562  0.7743 -0.5662  1.3682
  363MOL0     C49984  11.536   9.870   7.510 -0.0123 -0.5834  0.4316
  363MOL0     C49985  11.760   9.984   7.558  0.0644 -0.4012 -0.3289
  363MOL0     C49986  11.710  10.123   7.530 -1.4292 -0.9498  0.2941
  363MOL0     O49987  11.587  10.146   7.482  0.4826  0.3316  0.7507
  363MOL0     C49988  11.522  10.268   7.468 -0.5622  0.6002  0.3898
  363MOL0     C49989  11.565  10.378   7.545  0.3815 -0.0671  0.5292
  363MOL0     C49990  11.498  10.496   7.503  0.6422  0.0826 -1.3363
  363MOL0     C49991  11.390  10.509   7.414 -1.0328 -0.1518  0.3568
  363MOL0     O49992  11.341  10.634   7.396 -0.0574  0.5734  0.1138
  363MOL0     C49993  11.235  10.654   7.306 -0.0093  0.2364 -0.4691
  363MOL0     C49994  11.204  10.801   7.319 -0.0426  0.1612 -0.4521
  363MOL0     C49995  11.092  10.855   7.238  0.2754 -0.2206 -0.2410
  363MOL0     C49996  11.057  11.002   7.272  0.5176  0.1278 -0.1784
  363MOL0     C49997  10.953  11.061   7.176  0.0773  0.3403  0.0659
  363MOL0     C49998  10.812  10.999   7.197 -0.1049  0.0697  0.2732
  363MOL0     C49999  10.708  11.015   7.083 -0.1483 -0.7167 -0.3056
  363MOL0     C50000  10.699  11.152   7.011  0.0885  0.3760 -0.1432
  363MOL0    Cl50001  10.587  11.120   6.873 -0.0853  0.2276 -0.0947
  363MOL0     C50002  11.347  10.389   7.359 -0.8980  0.6881  0.0433
  363MOL0     C50003  11.416  10.269   7.380 -0.2024  0.5203 -0.3293
  363MOL0     O50004  11.786  10.212   7.564 -0.1425 -0.1938  0.1245
  363MOL0     C50005  11.897   9.974   7.599 -0.7867 -0.8476  0.0437
  363MOL0     C50006  11.958   9.859   7.638 -0.5062  0.7292  0.0311
  363MOL0     N50007  12.061   9.103   7.556 -1.3461  0.0821 -0.1115
  363MOL0     N50008  12.104   8.994   7.609  0.0930 -0.7046 -0.4497
  363MOL0     C50009  11.655   8.949   8.700 -0.3400 -0.7492  0.5185
  363MOL0     C50010  11.543   8.988   8.776  0.1026  0.1104 -0.2349
  363MOL0     C50011  11.230   9.213   8.994 -0.4727  0.5411 -0.4525
  363MOL0     C50012  11.260   9.282   9.115  0.1342  0.6279 -0.4711
  363MOL0     C50013  11.159   9.337   9.187  0.1481  0.1033 -0.1962
  363MOL0     C50014  11.028   9.349   9.133 -0.1072 -0.9090  0.5901
  363MOL0     O50015  10.945   9.437   9.195 -0.4921 -0.6372  0.4842
  363MOL0     C50016  10.812   9.434   9.156 -0.6609  0.0976  0.2061
  363MOL0     C50017  10.736   9.553   9.221  0.6895 -0.8186 -0.3981
  363MOL0     C50018  10.608   9.595   9.145  0.1240 -0.2991  1.1542
  363MOL0     C50019  10.638   9.651   9.010  0.0017  0.8271 -0.2447
  363MOL0     C50020  10.745   9.748   9.002 -1.0051  0.5639  0.8099
  363MOL0     C50021  10.820   9.835   8.972  0.0992 -0.1742  0.3945
  363MOL0     C50022  10.997   9.279   9.014 -0.6330  1.1958 -0.0105
  363MOL0     C50023  11.093   9.208   8.949 -0.3266  0.6496  0.5459
  363MOL0     C50024  11.054   9.147   8.811 -0.3699 -0.1464 -0.8525
  363MOL0     H50025  11.382   9.193   8.556  2.2423  2.6550  0.9682
  363MOL0     H50026  11.578   9.122   8.416  1.6568 -2.1582  0.4953
  363MOL0     H50027  11.826   8.786   8.535  1.9065 -1.1602 -1.1033
  363MOL0     H50028  11.909   8.914   8.621 -1.7321 -0.7282  1.0493
  363MOL0     H50029  12.014   8.985   8.403  0.5254 -0.9720  0.3409
  363MOL0     H50030  12.078   8.818   8.448  0.2921 -0.1418 -0.5947
  363MOL0     H50031  11.915   8.709   8.319  3.2869 -0.6342 -1.0058
  363MOL0     H50032  11.853   8.857   8.262 -0.5825 -0.7966 -0.0527
  363MOL0     H50033  12.138   8.803   8.225  0.0308  2.1394  2.5060
  363MOL0     H50034  12.020   8.747   8.104 -1.1592  0.0235  0.2109
  363MOL0     H50035  12.043   9.039   8.186 -2.4096 -0.3434  0.2490
  363MOL0     H50036  11.946   8.972   8.054  0.1959 -0.7466 -0.0820
  363MOL0     H50037  12.133   9.085   7.990 -0.6585  0.1917 -0.1134
  363MOL0     H50038  12.247   8.994   8.089  0.2552  1.0627 -0.4515
  363MOL0     H50039  12.076   8.846   7.882  0.3593  2.1454 -0.0233
  363MOL0     H50040  12.231   8.795   7.950 -0.7618 -0.6053  0.2426
  363MOL0     H50041  12.348   8.975   7.836 -0.8228  2.3447 -1.4264
  363MOL0     H50042  12.272   8.836   7.739 -0.8343  0.2801  0.0218
  363MOL0     H50043  12.244   9.219   7.799 -1.9297 -0.8025  0.7444
  363MOL0     H50044  12.199   9.376   7.520  1.6556 -2.1817 -0.2956
  363MOL0     H50045  12.134   9.422   7.665 -0.2887 -0.7628  0.3534
  363MOL0     H50046  12.018   9.496   7.453  3.8998 -2.4780 -2.1525
  363MOL0     H50047  11.968   9.327   7.429  2.5644  0.3690 -0.0473
  363MOL0     H50048  11.782   9.470   7.528 -0.2619 -1.9950 -0.8341
  363MOL0     H50049  11.829   9.319   7.626 -1.1167  0.0556 -0.0642
  363MOL0     H50050  11.774   9.513   7.757  0.5872 -1.3950  1.0703
  363MOL0     H50051  11.944   9.467   7.779 -1.3610 -0.0816  1.4695
  363MOL0     H50052  11.682   9.656   7.617 -0.8216  0.3116  2.5659
  363MOL0     H50053  11.472   9.946   7.556  2.5472  1.9295  0.1869
  363MOL0     H50054  11.499   9.768   7.518  0.6659 -0.7914  1.0740
  363MOL0     H50055  11.534   9.896   7.404 -1.0848 -0.9475  0.3617
  363MOL0     H50056  11.648  10.378   7.615  0.7608  3.0136  0.2401
  363MOL0     H50057  11.524  10.582   7.565  0.8968  0.1071 -1.4770
  363MOL0     H50058  11.268  10.630   7.204  0.5581 -0.7020 -0.0838
  363MOL0     H50059  11.149  10.589   7.328  2.0135 -2.7190 -0.6635
  363MOL0     H50060  11.170  10.810   7.423 -2.4663  1.6099 -1.3136
  363MOL0     H50061  11.303  10.848   7.317  2.3101 -4.2439 -1.7337
  363MOL0     H50062  11.004  10.791   7.250  1.2574 -1.1529  2.6315
  363MOL0     H50063  11.129  10.846   7.135  2.8206 -1.0615  0.6745
  363MOL0     H50064  11.148  11.060   7.290  0.9024 -0.5785  0.2073
  363MOL0     H50065  11.019  11.000   7.374  0.5862 -2.3292 -0.1438
  363MOL0     H50066  10.927  11.166   7.190  0.9174  0.3334  2.0540
  363MOL0     H50067  10.990  11.045   7.074  1.9586  0.4276  0.6998
  363MOL0     H50068  10.771  11.029   7.294 -0.8139 -1.2625  0.4194
  363MOL0     H50069  10.821  10.891   7.215 -1.2102 -0.4222 -1.7988
  363MOL0     H50070  10.612  10.982   7.125  1.1128 -2.6854  1.2428
  363MOL0     H50071  10.745  10.947   7.006  0.9329  0.9572 -1.3392
  363MOL0     H50072  10.797  11.178   6.972  0.7405 -2.0093 -0.2290
  363MOL0     H50073  10.652  11.229   7.073 -1.2635  0.3443 -1.0882
  363MOL0     H50074  11.272  10.386   7.281 -2.9211 -1.6943  1.8971
  363MOL0     H50075  11.383  10.176   7.335  0.9854  0.4722 -1.1512
  363MOL0     H50076  11.963  10.059   7.610 -0.5253 -1.0448  0.0099
  363MOL0     H50077  12.058   9.860   7.680 -0.5997 -1.9556  0.4410
  363MOL0     H50078  11.711   8.870   8.749 -0.9469  0.0252  2.5808
  363MOL0     H50079  11.534   8.944   8.875  2.4331 -1.1378 -0.5043
  363MOL0     H50080  11.354   9.277   9.169 -1.3333 -3.7676  2.1418
  363MOL0     H50081  11.191   9.386   9.279 -0.6410  0.4099 -0.0826
  363MOL0     H50082  10.806   9.454   9.049  0.0588 -0.2898  0.0877
  363MOL0     H50083  10.766   9.337   9.177 -1.2470  0.4451  0.5511
  363MOL0     H50084  10.800   9.642   9.223 -1.6317  1.0139  2.8897
  363MOL0     H50085  10.716   9.529   9.326 -1.5831 -2.6761 -1.1699
  363MOL0     H50086  10.545   9.506   9.135 -1.1626  0.7320 -0.5348
  363MOL0     H50087  10.553   9.672   9.200 -1.2317 -0.1929 -0.2589
  363MOL0     H50088  10.547   9.700   8.977 -0.5508 -0.2292 -0.3425
  363MOL0     H50089  10.664   9.567   8.945  0.3341  0.2836  0.5653
  363MOL0     H50090  10.886   9.915   8.948  1.5400 -0.7177  2.2904
  363MOL0     H50091  10.895   9.271   8.977 -1.1262 -1.3714  1.6466
  363MOL0     H50092  11.074   9.218   8.731 -0.8071  1.7299  0.6123
  363MOL0     H50093  11.100   9.048   8.799 -0.5613 -0.2546 -0.7151
  363MOL0     H50094  10.947   9.124   8.811 -0.2089 -1.5428  2.5016
  364MOL0     O50095   8.590   6.273   7.115 -0.1129  0.7405  0.2757
  364MOL0     C50096   8.625   6.384   7.067  0.3405  0.0888  0.2713
  364MOL0     O50097   8.749   6.424   7.054 -0.0805 -0.1803  0.2422
  364MOL0     C50098   8.858   6.341   7.071 -1.3219 -0.1032 -0.3871
  364MOL0     C50099   8.933   6.299   6.962  0.3838  0.0135  0.3397
  364MOL0     C50100   9.045   6.221   6.978  0.1003  0.1867  0.0650
  364MOL0     C50101   9.086   6.187   7.105 -0.7406 -0.5713 -0.4519
  364MOL0     O50102   9.200   6.112   7.121 -0.2269  0.9879  0.3173
  364MOL0     C50103   9.293   6.146   7.224  0.3601 -0.9145 -0.0656
  364MOL0     C50104   9.400   6.033   7.228 -0.4079 -0.6280 -0.4523
  364MOL0     C50105   9.508   6.059   7.329  0.1420  0.2506 -0.4481
  364MOL0     C50106   9.634   5.974   7.328  0.3190 -0.2452 -1.1284
  364MOL0     C50107   9.731   6.019   7.217 -0.2834  0.1317  0.6093
  364MOL0     C50108   9.831   5.919   7.181 -0.7897  0.0608  0.3444
  364MOL0     C50109   9.923   5.879   7.299  0.1082 -0.3829 -0.0987
  364MOL0     C50110  10.046   5.801   7.256  0.2784  0.1287 -0.0494
  364MOL0     N50111  10.088   5.711   7.370 -0.4583  0.4981  0.0866
  364MOL0     C50112  10.166   5.760   7.464  0.4008 -0.5197  0.5710
  364MOL0     C50113  10.173   5.650   7.547  0.4798 -0.4145  0.0073
  364MOL0     C50114  10.243   5.636   7.687 -0.7007  0.0769  0.7940
  364MOL0     C50115  10.363   5.528   7.683 -0.2281  0.2944 -0.0390
  364MOL0     C50116  10.369   5.454   7.825  0.0936  0.0040  0.4142
  364MOL0     C50117  10.297   5.315   7.825 -0.4956  0.1033 -0.3947
  364MOL0     O50118  10.319   5.225   7.716 -0.0732 -0.2291  0.0709
  364MOL0     C50119  10.454   5.192   7.684 -0.1265 -0.3655 -0.2046
  364MOL0     C50120  10.494   5.152   7.557  0.0738 -0.8121 -0.0296
  364MOL0     C50121  10.628   5.123   7.526 -0.0310 -0.0991  0.1466
  364MOL0     C50122  10.645   5.065   7.392 -0.2296  0.1706 -0.2325
  364MOL0     C50123  10.737   5.142   7.622  0.5511 -0.3039  0.9925
  364MOL0     C50124  10.878   5.132   7.609  0.6615  0.0885  1.1388
  364MOL0     O50125  10.949   5.101   7.724  0.2569  0.6565 -0.4607
  364MOL0     C50126  11.084   5.120   7.718  0.0002 -0.4904  0.4724
  364MOL0     C50127  11.133   5.241   7.756  0.3535  0.0668  0.1817
  364MOL0     C50128  11.267   5.271   7.767 -0.2227 -0.0282  1.2441
  364MOL0     C50129  11.368   5.178   7.721  0.2971  0.4149  1.0403
  364MOL0     O50130  11.504   5.204   7.707  0.0799 -0.0983 -0.1717
  364MOL0     C50131  11.560   5.317   7.765 -0.6357 -0.2775 -0.7954
  364MOL0     C50132  11.710   5.317   7.730 -0.6673 -0.3051  0.4069
  364MOL0     C50133  11.779   5.188   7.778  0.2307 -0.0117  0.2112
  364MOL0     C50134  11.930   5.206   7.797 -0.5580 -0.6296  0.2490
  364MOL0     C50135  12.009   5.210   7.663 -0.1198 -0.1103 -0.3709
  364MOL0     C50136  12.153   5.261   7.677 -0.1349 -0.0205  0.6468
  364MOL0     C50137  12.173   5.389   7.763 -0.2054 -0.5438  0.0892
  364MOL0     C50138  12.254   5.472   7.673  0.5346  1.0429  0.4187
  364MOL0    Cl50139  12.274   5.623   7.744 -0.0848 -0.3781  0.6161
  364MOL0     C50140  11.315   5.049   7.689  0.0239  0.6729  0.2648
  364MOL0     C50141  11.178   5.016   7.681  0.1285 -0.5433  1.0001
  364MOL0     O50142  10.920   5.150   7.498  0.0091 -0.5674 -0.4648
  364MOL0     C50143  10.687   5.177   7.752  0.0025 -0.6174 -0.3983
  364MOL0     C50144  10.559   5.202   7.779  0.1320 -0.8237 -0.1468
  364MOL0     N50145  10.107   5.544   7.489 -0.9768 -0.4280  0.7818
  364MOL0     N50146  10.072   5.577   7.374 -0.4030  0.7797  0.0202
  364MOL0     C50147   9.009   6.225   7.218 -0.1536 -0.6263 -0.0643
  364MOL0     C50148   8.902   6.302   7.195 -0.5577  0.0465 -0.3672
  364MOL0     C50149   8.518   6.472   7.024  0.2035 -1.4378 -0.6600
  364MOL0     C50150   8.537   6.537   6.901  0.2169  0.6235 -0.3588
  364MOL0     C50151   8.442   6.618   6.846 -0.4673  0.0226  0.7949
  364MOL0     C50152   8.315   6.640   6.902 -0.7684 -0.6767  0.1569
  364MOL0     O50153   8.212   6.719   6.852 -0.0214  0.3608 -0.0874
  364MOL0     C50154   8.233   6.800   6.737 -0.3221  0.3603 -0.0168
  364MOL0     C50155   8.115   6.883   6.691 -0.2122  0.2549 -0.6450
  364MOL0     C50156   8.134   6.948   6.555 -0.1562 -0.2589 -0.9283
  364MOL0     C50157   8.026   7.054   6.518  0.6225 -0.1056  0.3553
  364MOL0     C50158   7.892   7.033   6.569 -0.4006 -0.9252  0.2301
  364MOL0     C50159   7.773   7.017   6.584  0.5906 -0.2727 -0.1848
  364MOL0     C50160   8.289   6.569   7.018  0.6797 -0.0815 -0.2851
  364MOL0     C50161   8.391   6.492   7.078 -0.6221 -0.0011 -0.2203
  364MOL0     C50162   8.350   6.426   7.207 -0.1412  0.3242 -0.2173
  364MOL0     H50163   8.908   6.316   6.857 -1.3613  2.9574  1.1228
  364MOL0     H50164   9.100   6.177   6.895 -1.3148 -2.1926  0.3119
  364MOL0     H50165   9.260   6.146   7.328  1.8266 -1.0564  0.4256
  364MOL0     H50166   9.348   6.239   7.203  0.5272 -0.2786  2.7914
  364MOL0     H50167   9.348   5.942   7.260 -5.4065  2.1209  0.2238
  364MOL0     H50168   9.446   6.024   7.129  0.4383  0.7549 -0.2084
  364MOL0     H50169   9.534   6.165   7.318  0.6178  0.2036  0.1682
  364MOL0     H50170   9.448   6.054   7.420  0.5516  0.1058 -0.1853
  364MOL0     H50171   9.691   5.968   7.421  2.2055  0.0184 -2.2201
  364MOL0     H50172   9.595   5.873   7.308 -2.9033  0.6196  0.0928
  364MOL0     H50173   9.787   6.112   7.234  2.4214 -1.1717 -0.5115
  364MOL0     H50174   9.666   6.033   7.130  1.3204  1.9958 -0.3869
  364MOL0     H50175   9.784   5.829   7.140 -2.3905  0.2033  1.7834
  364MOL0     H50176   9.889   5.952   7.094 -0.9475  2.0492  0.9460
  364MOL0     H50177   9.862   5.810   7.358 -1.8194  0.0413 -1.4955
  364MOL0     H50178   9.954   5.968   7.354  1.4624 -0.7399 -0.2435
  364MOL0     H50179  10.019   5.744   7.167  1.0424  0.5809 -0.5862
  364MOL0     H50180  10.125   5.869   7.221 -1.3663  2.7904  1.1686
  364MOL0     H50181  10.212   5.857   7.476 -2.6252  1.3462 -1.5130
  364MOL0     H50182  10.168   5.600   7.758 -1.2448 -2.4582 -0.9385
  364MOL0     H50183  10.274   5.739   7.710 -2.7550  3.0004 -6.5484
  364MOL0     H50184  10.367   5.457   7.600  2.3106 -0.1395  0.3610
  364MOL0     H50185  10.462   5.574   7.690  0.5061 -1.2510  0.2195
  364MOL0     H50186  10.471   5.431   7.859  0.1125  1.1223  1.1613
  364MOL0     H50187  10.325   5.516   7.903  0.2065  1.3227 -0.5457
  364MOL0     H50188  10.332   5.263   7.915 -2.7663 -1.2674 -0.2133
  364MOL0     H50189  10.188   5.329   7.831 -0.6864 -1.4230  0.5957
  364MOL0     H50190  10.418   5.116   7.488  0.0873 -4.0492  1.4523
  364MOL0     H50191  10.746   5.035   7.361  0.8500  1.1495  2.0605
  364MOL0     H50192  10.605   5.138   7.321  1.9042  1.5524 -0.1059
  364MOL0     H50193  10.588   4.972   7.384  1.7006 -1.2583  1.5525
  364MOL0     H50194  11.071   5.319   7.799  1.9639  0.0872  2.7129
  364MOL0     H50195  11.292   5.372   7.800  0.4032  0.8214 -1.5614
  364MOL0     H50196  11.513   5.407   7.725  0.7407  0.9899  0.3383
  364MOL0     H50197  11.555   5.313   7.874 -1.2581 -2.5260 -0.8585
  364MOL0     H50198  11.726   5.332   7.623 -0.5656 -1.0256  0.3180
  364MOL0     H50199  11.764   5.398   7.780  2.0777 -0.5070 -1.9935
  364MOL0     H50200  11.760   5.109   7.704  1.5007 -0.6988  0.5949
  364MOL0     H50201  11.728   5.160   7.870 -0.1222 -0.5059 -0.1249
  364MOL0     H50202  11.971   5.122   7.853 -0.7808  1.6018  4.0889
  364MOL0     H50203  11.954   5.294   7.857  0.2567  2.7001 -4.3255
  364MOL0     H50204  12.016   5.119   7.603  1.8059  0.7077 -1.4791
  364MOL0     H50205  11.958   5.283   7.600  0.9261  0.3994 -0.6516
  364MOL0     H50206  12.185   5.273   7.574 -1.3484  0.5172  0.3119
  364MOL0     H50207  12.214   5.187   7.728  1.4784  0.8074 -0.0209
  364MOL0     H50208  12.228   5.363   7.854 -0.7622  0.3256  0.6794
  364MOL0     H50209  12.085   5.447   7.791  0.2980  1.7485 -2.5967
  364MOL0     H50210  12.199   5.476   7.578 -2.0393 -0.9215  1.7191
  364MOL0     H50211  12.352   5.427   7.655  1.2623  2.1794  1.3200
  364MOL0     H50212  11.382   4.971   7.655 -1.9632 -2.1538  2.3747
  364MOL0     H50213  11.148   4.920   7.640 -0.8585  0.4218 -0.6614
  364MOL0     H50214  10.757   5.190   7.834  0.8903  0.3441 -1.2799
  364MOL0     H50215  10.538   5.229   7.882 -4.9989  0.6902 -1.2941
  364MOL0     H50216   9.034   6.188   7.317 -0.3511  2.2880  1.1857
  364MOL0     H50217   8.848   6.331   7.285  1.3434  1.1754  0.4624
  364MOL0     H50218   8.627   6.528   6.842  0.5157 -2.2460  0.3420
  364MOL0     H50219   8.469   6.685   6.765  0.2740  0.8172  1.6595
  364MOL0     H50220   8.312   6.871   6.759 -2.6032  2.4756  2.0100
  364MOL0     H50221   8.265   6.734   6.655  2.0188 -0.0543  1.1579
  364MOL0     H50222   8.097   6.958   6.769 -0.8362  0.5781 -1.0939
  364MOL0     H50223   8.022   6.828   6.679 -0.2424 -0.2239  1.3810
  364MOL0     H50224   8.232   6.997   6.553  0.1041 -0.2997  3.0733
  364MOL0     H50225   8.138   6.877   6.471 -0.9703  1.2043 -2.2436
  364MOL0     H50226   8.015   7.047   6.409 -1.5528 -1.6355  0.6300
  364MOL0     H50227   8.066   7.150   6.553 -0.2598 -0.0732  1.3064
  364MOL0     H50228   7.670   6.989   6.591  0.2480  1.3150  3.0607
  364MOL0     H50229   8.195   6.578   7.072  1.2493 -1.5436  1.0456
  364MOL0     H50230   8.306   6.329   7.182  1.1391 -0.9388  2.0621
  364MOL0     H50231   8.437   6.425   7.273  0.0304  0.7825 -0.4324
  364MOL0     H50232   8.263   6.473   7.254 -0.9686 -3.3577  2.4322
  365MOL0     O50233  10.716  11.299   9.674 -0.1482  0.3818  0.1109
  365MOL0     C50234  10.822  11.240   9.679 -1.0494  0.7108  0.5571
  365MOL0     O50235  10.861  11.142   9.590  0.2011 -0.1519 -0.2725
  365MOL0     C50236  10.761  11.083   9.513  0.0080 -0.0941 -0.3736
  365MOL0     C50237  10.706  11.148   9.404 -0.7724 -0.1044  0.4636
  365MOL0     C50238  10.581  11.112   9.356 -0.4678  0.2415  0.3758
  365MOL0     C50239  10.525  10.989   9.406  0.3415  0.4590  1.3404
  365MOL0     O50240  10.404  10.945   9.352 -0.3206 -0.6235  0.0401
  365MOL0     C50241  10.349  10.819   9.386  0.1902 -0.0641  0.8823
  365MOL0     C50242  10.221  10.787   9.310  0.7406  0.1171 -0.1609
  365MOL0     C50243  10.193  10.648   9.262  0.1444 -0.4697 -0.7001
  365MOL0     C50244  10.102  10.574   9.368 -0.3493 -0.3285  0.1096
  365MOL0     C50245  10.072  10.436   9.318  0.5193  0.9896  1.2861
  365MOL0     C50246  10.014  10.333   9.415 -0.3424 -0.2074  0.1666
  365MOL0     C50247   9.922  10.388   9.515  1.0459  0.5834 -0.2752
  365MOL0     C50248   9.871  10.285   9.605  0.3399  0.4834 -0.4567
  365MOL0     N50249   9.978  10.235   9.699  0.1523  0.6119  0.4834
  365MOL0     C50250  10.031  10.305   9.799  0.1678  0.2594  0.4256
  365MOL0     C50251  10.109  10.213   9.869 -0.7404  0.3602  1.2146
  365MOL0     C50252  10.197  10.242   9.986 -0.3801  0.3332  0.9541
  365MOL0     C50253  10.131  10.199  10.114  0.6057 -1.0233 -0.0865
  365MOL0     C50254  10.072  10.059  10.116  0.9817  0.2294 -0.5951
  365MOL0     C50255  10.007  10.015  10.244  0.4858  0.1771 -0.7404
  365MOL0     O50256   9.889  10.078  10.270  0.3684 -0.4129  0.1983
  365MOL0     C50257   9.855  10.114  10.399  0.2024 -0.0594  0.6375
  365MOL0     C50258   9.938  10.140  10.504  0.2329  0.0065  0.3825
  365MOL0     C50259   9.889  10.164  10.638  0.6751  0.3922 -0.3657
  365MOL0     C50260   9.996  10.180  10.736  0.0791  0.2537 -1.0244
  365MOL0     C50261   9.745  10.171  10.651  0.1074 -0.3832  0.4637
  365MOL0     C50262   9.676  10.191  10.779  0.0258 -0.2041 -0.7337
  365MOL0     O50263   9.562  10.122  10.786  0.3171 -0.0038 -0.3021
  365MOL0     C50264   9.450  10.190  10.838 -0.5947 -0.0836 -0.8187
  365MOL0     C50265   9.443  10.335  10.838 -0.1489 -0.2402 -0.3767
  365MOL0     C50266   9.330  10.399  10.896 -0.4085  0.5411  0.5649
  365MOL0     C50267   9.216  10.322  10.930  0.3201  0.5555  0.5426
  365MOL0     O50268   9.101  10.371  10.974 -0.3462  0.1650 -0.2300
  365MOL0     C50269   9.056  10.500  10.916 -1.0813 -0.8453  0.5294
  365MOL0     C50270   8.922  10.526  10.973 -0.6070 -0.2838 -0.5497
  365MOL0     C50271   8.823  10.406  10.953 -0.7355  0.3276  0.1552
  365MOL0     C50272   8.677  10.451  10.954  0.9330  0.3361 -0.1275
  365MOL0     C50273   8.588  10.340  10.896  0.6744  0.2309 -0.1889
  365MOL0     C50274   8.439  10.368  10.933  0.3242 -0.0217 -0.7057
  365MOL0     C50275   8.339  10.258  10.886 -0.6712 -0.2122 -0.5352
  365MOL0     C50276   8.368  10.214  10.746 -0.1846 -0.4792  0.6415
  365MOL0    Cl50277   8.234  10.124  10.669  0.2029 -0.5699  0.3776
  365MOL0     C50278   9.227  10.180  10.918  0.0922 -1.3648 -0.5344
  365MOL0     C50279   9.346  10.123  10.881 -0.1878 -0.2860 -0.7021
  365MOL0     O50280   9.732  10.251  10.875  0.1060  0.0075  0.3551
  365MOL0     C50281   9.665  10.159  10.538 -0.7801  0.2406  0.0351
  365MOL0     C50282   9.720  10.131  10.420  0.6344  0.3403  0.7756
  365MOL0     N50283  10.104  10.090   9.796 -0.8229  0.1916  0.2943
  365MOL0     N50284  10.022  10.105   9.696  0.1305 -0.3043 -0.2864
  365MOL0     C50285  10.587  10.919   9.504 -0.7141  0.0411  0.0903
  365MOL0     C50286  10.704  10.965   9.562  0.3333 -0.9057  0.6769
  365MOL0     C50287  10.917  11.255   9.792 -0.1636  0.1539  0.5391
  365MOL0     C50288  11.020  11.165   9.799 -0.8825 -0.9116 -0.1326
  365MOL0     C50289  11.122  11.182   9.895  1.0802 -0.3966 -0.8546
  365MOL0     C50290  11.124  11.292   9.975 -0.0922 -0.3746 -0.6008
  365MOL0     O50291  11.227  11.297  10.070 -0.3686 -1.4645  0.2646
  365MOL0     C50292  11.247  11.393  10.175 -0.3545  0.4120  0.0077
  365MOL0     C50293  11.380  11.352  10.245  0.4558  0.0922 -0.6143
  365MOL0     C50294  11.405  11.425  10.374 -0.2729  0.3631  0.3961
  365MOL0     C50295  11.463  11.566  10.337  0.8344 -0.1020 -0.2131
  365MOL0     C50296  11.521  11.626  10.450 -0.8653  0.2372 -0.4782
  365MOL0     C50297  11.565  11.678  10.553 -0.3461 -0.1886 -0.0758
  365MOL0     C50298  11.023  11.383   9.975  0.0872  0.3807 -0.0549
  365MOL0     C50299  10.920  11.368   9.887  0.7862 -1.0675  0.0299
  365MOL0     C50300  10.811  11.478   9.889  0.0481  0.0075  0.7473
  365MOL0     H50301  10.755  11.235   9.360 -1.5321  0.8619  1.4714
  365MOL0     H50302  10.524  11.170   9.284  2.1279 -0.4332 -2.3924
  365MOL0     H50303  10.338  10.806   9.494  2.6301 -1.5329  1.0502
  365MOL0     H50304  10.419  10.746   9.344 -2.8017 -1.3872 -2.3249
  365MOL0     H50305  10.135  10.826   9.365  0.6150  0.9778 -0.9317
  365MOL0     H50306  10.206  10.831   9.211 -1.3548 -1.0346 -0.4102
  365MOL0     H50307  10.134  10.640   9.171  1.2503  0.2563 -1.5058
  365MOL0     H50308  10.289  10.596   9.252 -0.9395 -2.6332 -0.5045
  365MOL0     H50309  10.143  10.571   9.469 -0.5794  2.8731  0.3782
  365MOL0     H50310  10.010  10.631   9.382  1.4619  2.5458  1.1155
  365MOL0     H50311  10.157  10.389   9.267 -0.6996 -3.5011  2.9423
  365MOL0     H50312  10.004  10.441   9.233 -0.1233  1.5425  1.8270
  365MOL0     H50313   9.972  10.253   9.354  0.5692 -1.0963  0.6644
  365MOL0     H50314  10.102  10.291   9.466  0.7613  0.7093 -0.9213
  365MOL0     H50315   9.837  10.438   9.468  0.7838 -0.2724 -0.7342
  365MOL0     H50316   9.978  10.457   9.578 -0.7793  0.9638  1.0147
  365MOL0     H50317   9.783  10.319   9.660 -0.8040 -2.3706 -0.3758
  365MOL0     H50318   9.827  10.203   9.548  1.0842 -1.0613  1.1205
  365MOL0     H50319  10.016  10.412   9.810  0.1144  1.1773 -5.2485
  365MOL0     H50320  10.231  10.346   9.984 -0.2033  0.2648  0.1961
  365MOL0     H50321  10.275  10.166   9.974 -0.6848  0.1340  0.1318
  365MOL0     H50322  10.211  10.199  10.189  0.1792 -1.5727  0.3797
  365MOL0     H50323  10.063  10.281  10.141  2.2969  0.7583 -0.9762
  365MOL0     H50324   9.992  10.039  10.044 -0.0890 -0.4687  0.7509
  365MOL0     H50325  10.149   9.985  10.092 -0.2590 -1.4886  0.5132
  365MOL0     H50326   9.982   9.909  10.234 -0.5285  0.3282  0.0990
  365MOL0     H50327  10.074  10.029  10.329 -1.0618 -0.8894  0.7095
  365MOL0     H50328  10.046  10.137  10.491  0.2223  0.4816  0.1601
  365MOL0     H50329   9.963  10.141  10.833 -0.0563  0.7691 -0.8584
  365MOL0     H50330  10.039  10.280  10.731  0.8932  0.0129  0.3410
  365MOL0     H50331  10.079  10.114  10.711  0.9213 -0.2411  2.4721
  365MOL0     H50332   9.526  10.398  10.808 -0.6969  0.7748  0.1934
  365MOL0     H50333   9.331  10.505  10.916 -0.4836  0.5606  0.4698
  365MOL0     H50334   9.130  10.575  10.946  2.6103 -3.1147 -2.0474
  365MOL0     H50335   9.042  10.495  10.808  0.9093  0.5980  0.1329
  365MOL0     H50336   8.936  10.528  11.081  0.5633  0.9220 -0.6885
  365MOL0     H50337   8.886  10.622  10.934  0.0528  0.1326 -0.1563
  365MOL0     H50338   8.848  10.335  11.032  0.0940  2.2351  1.6807
  365MOL0     H50339   8.839  10.355  10.857  0.7127  2.3903 -0.7747
  365MOL0     H50340   8.666  10.538  10.889  0.6606  1.0048  0.7995
  365MOL0     H50341   8.634  10.476  11.052 -0.5860 -0.6224 -0.5117
  365MOL0     H50342   8.602  10.349  10.788 -0.0116  3.4698 -0.1056
  365MOL0     H50343   8.622  10.243  10.932  2.1885  0.2111 -1.5753
  365MOL0     H50344   8.409  10.467  10.895 -0.5359  0.5446  1.2972
  365MOL0     H50345   8.425  10.371  11.042  2.9180  0.2721 -0.3366
  365MOL0     H50346   8.233  10.281  10.902 -0.5657  0.5565 -0.8714
  365MOL0     H50347   8.364  10.170  10.945 -2.3079  0.9611  2.1099
  365MOL0     H50348   8.466  10.165  10.743 -0.6631 -1.4244 -0.4985
  365MOL0     H50349   8.385  10.297  10.676  1.5459 -0.3542  1.1584
  365MOL0     H50350   9.136  10.123  10.934 -0.9656  0.5314  0.5924
  365MOL0     H50351   9.341  10.015  10.870  2.4239 -0.3768 -1.6811
  365MOL0     H50352   9.559  10.163  10.558 -0.5524  2.1057  1.1122
  365MOL0     H50353   9.649  10.107  10.342  0.5940 -1.4758  1.3098
  365MOL0     H50354  10.545  10.834   9.556  4.3897 -2.0598  1.3700
  365MOL0     H50355  10.737  10.925   9.657 -0.9051 -3.1021  0.2544
  365MOL0     H50356  11.033  11.074   9.742  2.3097 -1.2890  1.0107
  365MOL0     H50357  11.205  11.113   9.901  0.6609 -0.9541 -1.4658
  365MOL0     H50358  11.262  11.493  10.133  0.5547 -0.0277 -0.7417
  365MOL0     H50359  11.157  11.383  10.237  0.0802 -0.9537  0.4511
  365MOL0     H50360  11.467  11.364  10.181  0.5616  2.0595 -0.1779
  365MOL0     H50361  11.364  11.246  10.268  1.7036 -0.4741 -2.1949
  365MOL0     H50362  11.313  11.436  10.431  0.3741  2.8541  1.0901
  365MOL0     H50363  11.480  11.369  10.431 -0.8903 -0.7623  0.1257
  365MOL0     H50364  11.374  11.627  10.319 -0.9252 -1.0079  4.1448
  365MOL0     H50365  11.538  11.562  10.258  0.7113  1.3602 -0.4424
  365MOL0     H50366  11.606  11.717  10.643 -1.8309 -0.2659  0.6653
  365MOL0     H50367  11.024  11.475  10.033 -4.0697  0.2429  0.5203
  365MOL0     H50368  10.709  11.442   9.874  0.3813 -0.9241  0.6663
  365MOL0     H50369  10.818  11.528   9.987 -0.3068  1.6921 -0.0458
  365MOL0     H50370  10.823  11.542   9.801 -0.4372 -1.4837 -0.4394
  366MOL0     O50371   5.957   8.686   8.838  0.2694  0.2794 -0.2678
  366MOL0     C50372   5.954   8.565   8.828 -0.7811  0.1638 -0.8904
  366MOL0     O50373   6.071   8.490   8.808 -0.1637  0.2572 -0.8040
  366MOL0     C50374   6.195   8.541   8.823  0.0343  0.2938 -0.5683
  366MOL0     C50375   6.225   8.653   8.899  0.2264 -0.1585  0.3801
  366MOL0     C50376   6.358   8.685   8.927 -0.6820  0.1343  0.2872
  366MOL0     C50377   6.460   8.610   8.886  0.1686  0.0397  0.9740
  366MOL0     O50378   6.588   8.654   8.906 -0.4820 -0.3127 -0.1947
  366MOL0     C50379   6.685   8.633   8.796 -0.3606 -0.3269 -0.4287
  366MOL0     C50380   6.774   8.756   8.807  0.9743  0.1239  0.2860
  366MOL0     C50381   6.899   8.715   8.734  0.0490  0.2561 -0.3355
  366MOL0     C50382   7.012   8.805   8.783  1.3846  0.2132 -0.0653
  366MOL0     C50383   7.141   8.788   8.693 -0.1136  0.4135 -0.2215
  366MOL0     C50384   7.187   8.635   8.705 -0.4982  0.0686 -0.2668
  366MOL0     C50385   7.341   8.624   8.669  0.0335 -0.0657 -0.6753
  366MOL0     C50386   7.398   8.482   8.658  0.2381 -0.7047  0.0545
  366MOL0     N50387   7.542   8.474   8.645  0.2941 -0.0661 -0.0706
  366MOL0     C50388   7.630   8.442   8.750  0.0549 -0.8622  0.1813
  366MOL0     C50389   7.751   8.465   8.699  0.3506 -0.6943  0.7419
  366MOL0     C50390   7.886   8.436   8.774  0.5972  0.8498  0.2506
  366MOL0     C50391   7.971   8.315   8.725  0.1093  0.0274 -0.2450
  366MOL0     C50392   7.935   8.182   8.787  0.3937 -0.5823 -0.9867
  366MOL0     C50393   8.028   8.068   8.759 -1.2895  0.4270 -0.4338
  366MOL0     O50394   8.159   8.098   8.810  0.6737 -0.0569  0.4295
  366MOL0     C50395   8.254   8.018   8.763 -0.9114 -0.2916  0.2990
  366MOL0     C50396   8.370   8.082   8.723 -0.6813 -0.5726  1.2358
  366MOL0     C50397   8.494   8.027   8.701  0.7402  0.4411  0.2167
  366MOL0     C50398   8.600   8.110   8.654 -0.9215 -0.7591  0.2649
  366MOL0     C50399   8.505   7.882   8.725 -0.5307 -0.3279 -0.3036
  366MOL0     C50400   8.630   7.803   8.706 -0.2113  0.4145  0.2510
  366MOL0     O50401   8.622   7.673   8.737  0.3302 -0.0883  0.6323
  366MOL0     C50402   8.685   7.590   8.644 -0.2718 -0.2055  0.7661
  366MOL0     C50403   8.754   7.480   8.694  0.8034  1.4089  0.5576
  366MOL0     C50404   8.829   7.391   8.610  0.2937 -0.2203 -0.0089
  366MOL0     C50405   8.821   7.404   8.463 -0.3868 -0.1459 -0.2427
  366MOL0     O50406   8.892   7.316   8.381  0.5231  0.2932  0.2636
  366MOL0     C50407   8.937   7.366   8.250 -0.0974  0.9013  0.9659
  366MOL0     C50408   9.082   7.351   8.217  0.6012  0.1834  0.6853
  366MOL0     C50409   9.172   7.430   8.310 -0.6402  0.6787 -0.4244
  366MOL0     C50410   9.322   7.426   8.282 -0.2492  0.3213 -0.2701
  366MOL0     C50411   9.389   7.303   8.342  0.7085 -1.0334 -0.0280
  366MOL0     C50412   9.527   7.300   8.293 -0.3710 -0.3275  0.1152
  366MOL0     C50413   9.590   7.163   8.299  0.5713  0.3611  0.3587
  366MOL0     C50414   9.735   7.150   8.243 -0.5494  0.0293 -0.2622
  366MOL0    Cl50415   9.769   6.975   8.229 -0.1259 -0.1452 -0.5556
  366MOL0     C50416   8.745   7.519   8.422 -0.5687  0.1519  0.0959
  366MOL0     C50417   8.674   7.602   8.507 -1.1121  0.5206  0.5093
  366MOL0     O50418   8.739   7.848   8.675  0.2303 -1.4529 -0.0782
  366MOL0     C50419   8.384   7.816   8.752  0.1353  0.1851  0.6572
  366MOL0     C50420   8.260   7.883   8.783 -0.1042  0.5896  0.1574
  366MOL0     N50421   7.734   8.523   8.575 -0.2208 -0.7919  0.2616
  366MOL0     N50422   7.611   8.519   8.540  0.8964 -0.3156  0.0251
  366MOL0     C50423   6.435   8.498   8.800  0.0049  0.2531 -0.2037
  366MOL0     C50424   6.300   8.463   8.777 -0.7464  0.2468  0.0964
  366MOL0     C50425   5.836   8.483   8.822  0.1315  1.1963 -0.0462
  366MOL0     C50426   5.841   8.348   8.783 -0.4346  0.6788 -0.9954
  366MOL0     C50427   5.729   8.256   8.776 -0.5185 -0.2925 -0.1871
  366MOL0     C50428   5.602   8.304   8.804  0.2118 -0.0932  0.6914
  366MOL0     O50429   5.479   8.242   8.808 -0.0137  0.1342  0.3355
  366MOL0     C50430   5.428   8.202   8.674  0.2419 -1.1682 -0.3009
  366MOL0     C50431   5.487   8.069   8.632 -0.6505  0.7634  1.1439
  366MOL0     C50432   5.387   7.966   8.619 -0.2574 -0.5462 -0.0117
  366MOL0     C50433   5.445   7.851   8.546  0.2862  0.0030  0.1367
  366MOL0     C50434   5.345   7.752   8.521 -0.1995  0.3183  0.0163
  366MOL0     C50435   5.268   7.665   8.484 -0.4392  0.1336 -0.2143
  366MOL0     C50436   5.587   8.438   8.852 -0.3886  0.2226 -1.0128
  366MOL0     C50437   5.708   8.525   8.863  0.5580 -0.4575 -0.3567
  366MOL0     C50438   5.679   8.663   8.918  0.8786 -1.1377  0.0417
  366MOL0     H50439   6.163   8.732   8.941  0.4051 -0.2014  0.7336
  366MOL0     H50440   6.374   8.779   8.978  0.4329  0.8184 -1.2295
  366MOL0     H50441   6.641   8.626   8.696 -1.1579 -2.4415  0.0280
  366MOL0     H50442   6.744   8.544   8.818 -0.1962 -0.0601  0.2301
  366MOL0     H50443   6.730   8.843   8.757 -1.2152 -1.2415 -0.2756
  366MOL0     H50444   6.776   8.788   8.911  0.0729  3.0327 -0.4872
  366MOL0     H50445   6.924   8.610   8.751  0.7598  0.3887 -0.5091
  366MOL0     H50446   6.897   8.728   8.626 -1.8005 -0.4465 -0.4188
  366MOL0     H50447   6.978   8.909   8.787 -1.6967 -0.4355 -3.9209
  366MOL0     H50448   7.041   8.773   8.883 -0.3454 -1.2106  0.0370
  366MOL0     H50449   7.216   8.857   8.733  0.3201  1.1763 -2.2137
  366MOL0     H50450   7.119   8.813   8.589 -1.1178  1.0799  0.1296
  366MOL0     H50451   7.173   8.599   8.807  3.0517 -0.4825  0.1565
  366MOL0     H50452   7.129   8.570   8.637 -1.9425 -1.0188  1.8962
  366MOL0     H50453   7.402   8.692   8.729  1.5736 -0.8169 -1.3339
  366MOL0     H50454   7.356   8.662   8.568  1.3307 -1.0389 -0.8728
  366MOL0     H50455   7.374   8.418   8.743  2.3756 -1.4315  0.1869
  366MOL0     H50456   7.360   8.446   8.562 -0.7266 -1.0172  0.5496
  366MOL0     H50457   7.599   8.405   8.847 -0.6247 -2.0324 -0.4542
  366MOL0     H50458   7.869   8.426   8.882  1.7438 -3.0595  0.2261
  366MOL0     H50459   7.949   8.524   8.756 -0.1987  1.5160  0.6380
  366MOL0     H50460   7.967   8.306   8.616  0.9459  1.0478 -0.3800
  366MOL0     H50461   8.074   8.347   8.744  0.2322 -1.4643  2.0665
  366MOL0     H50462   7.924   8.191   8.896 -2.7604 -1.9896 -1.0897
  366MOL0     H50463   7.836   8.148   8.755 -0.3137  0.4978 -0.0534
  366MOL0     H50464   7.994   7.986   8.822  0.5519  2.0182  2.9050
  366MOL0     H50465   8.049   8.041   8.655  0.9396 -0.6660  0.2395
  366MOL0     H50466   8.362   8.191   8.728  0.3060 -0.1251 -3.0404
  366MOL0     H50467   8.661   8.121   8.745 -1.4574  0.2353  0.5245
  366MOL0     H50468   8.556   8.207   8.628  0.8418  0.3164  1.0596
  366MOL0     H50469   8.662   8.059   8.579 -1.3045 -0.6479 -0.1303
  366MOL0     H50470   8.766   7.462   8.800  2.4957  0.4794  0.2411
  366MOL0     H50471   8.897   7.320   8.657  0.0038 -1.5831 -1.5532
  366MOL0     H50472   8.884   7.306   8.175  2.0979 -0.0108  0.0799
  366MOL0     H50473   8.914   7.472   8.241 -1.8445  0.4620 -0.1894
  366MOL0     H50474   9.110   7.246   8.210 -2.8081 -0.7444 -1.2642
  366MOL0     H50475   9.098   7.382   8.113 -1.3532 -2.4556 -0.5012
  366MOL0     H50476   9.166   7.394   8.413  0.5613 -1.1283 -0.9401
  366MOL0     H50477   9.139   7.534   8.301  2.4244  1.7032 -0.8233
  366MOL0     H50478   9.382   7.509   8.318  1.7037 -0.3023 -1.8846
  366MOL0     H50479   9.331   7.436   8.173 -1.1445  2.3514 -0.2065
  366MOL0     H50480   9.387   7.319   8.450 -0.2957  0.5462 -0.2480
  366MOL0     H50481   9.330   7.219   8.306 -0.8996 -0.9135  2.1640
  366MOL0     H50482   9.599   7.366   8.340 -0.4141  0.8038 -1.3261
  366MOL0     H50483   9.524   7.330   8.188  0.5386  0.5405  0.3216
  366MOL0     H50484   9.522   7.090   8.255 -2.7055  2.8902  0.8688
  366MOL0     H50485   9.595   7.136   8.405 -1.0600 -1.5844 -0.0071
  366MOL0     H50486   9.811   7.197   8.306 -0.7207 -0.1824  0.1022
  366MOL0     H50487   9.734   7.201   8.146 -0.8647  1.5498  0.5206
  366MOL0     H50488   8.740   7.547   8.317  1.7612 -1.6114 -0.5840
  366MOL0     H50489   8.624   7.686   8.461 -0.7920  2.7124  3.8086
  366MOL0     H50490   8.379   7.708   8.759  5.4188 -0.3598 -0.4234
  366MOL0     H50491   8.183   7.821   8.826 -1.4084  0.1250 -2.6323
  366MOL0     H50492   6.518   8.443   8.757  0.1199  0.2058  0.0723
  366MOL0     H50493   6.269   8.382   8.712  1.1337 -0.5341  0.1071
  366MOL0     H50494   5.932   8.309   8.738 -1.3385  0.4566 -2.6780
  366MOL0     H50495   5.744   8.150   8.756  4.5780  0.6417 -2.9959
  366MOL0     H50496   5.320   8.211   8.666  0.2946 -0.4155 -0.2727
  366MOL0     H50497   5.471   8.272   8.601  2.4676  0.0439  1.9961
  366MOL0     H50498   5.562   8.041   8.706  1.0600  0.1376 -0.7222
  366MOL0     H50499   5.546   8.080   8.540  1.0752  0.1282  2.1190
  366MOL0     H50500   5.352   7.955   8.722 -1.3014  1.0495 -0.1568
  366MOL0     H50501   5.302   7.995   8.556  0.8501  1.3746 -0.7239
  366MOL0     H50502   5.528   7.797   8.591  1.5300 -0.9182 -3.0263
  366MOL0     H50503   5.483   7.887   8.451 -0.6618  1.5541  0.3172
  366MOL0     H50504   5.185   7.615   8.438  0.9237 -0.6903 -1.9241
  366MOL0     H50505   5.496   8.483   8.890  0.7431 -0.4916  3.0207
  366MOL0     H50506   5.687   8.666   9.028  0.0155 -4.9224  0.3429
  366MOL0     H50507   5.745   8.743   8.883  2.0639 -0.5410  3.2713
  366MOL0     H50508   5.575   8.695   8.903  1.2743 -0.7775 -2.1191
  367MOL0     O50509   3.287   4.660   0.530  0.0885 -0.3622  0.4281
  367MOL0     C50510   3.263   4.783   0.554  0.7723  0.1977  0.5207
  367MOL0     O50511   3.342   4.886   0.497  0.1769  0.2381 -0.0931
  367MOL0     C50512   3.480   4.882   0.505  0.7490 -0.3015 -0.2867
  367MOL0     C50513   3.555   4.820   0.609 -0.4790 -0.1098  0.2578
  367MOL0     C50514   3.701   4.824   0.603 -0.3087  0.1549  0.6485
  367MOL0     C50515   3.770   4.894   0.506 -0.8297  0.1101  0.3837
  367MOL0     O50516   3.905   4.903   0.511  0.9509  0.7636  0.0452
  367MOL0     C50517   3.961   4.798   0.444  0.1879  1.1030  0.8597
  367MOL0     C50518   4.113   4.772   0.481 -0.0415 -0.3481  0.2748
  367MOL0     C50519   4.205   4.885   0.439  0.4013 -0.8708  0.7082
  367MOL0     C50520   4.176   4.968   0.309  0.4141  0.2753  0.1017
  367MOL0     C50521   4.296   5.051   0.275 -0.0879  0.6441 -0.1910
  367MOL0     C50522   4.259   5.119   0.143 -0.1208  0.8113 -0.8439
  367MOL0     C50523   4.361   5.221   0.100 -0.0747 -0.1460 -0.3574
  367MOL0     C50524   4.334   5.271  -0.044 -0.4897  0.3119 -0.3850
  367MOL0     N50525   4.451   5.339  -0.107 -0.7102 -0.1121  0.4977
  367MOL0     C50526   4.560   5.274  -0.148  0.0124 -0.3693  0.3710
  367MOL0     C50527   4.620   5.365  -0.241 -1.2021  0.6540 -0.1266
  367MOL0     C50528   4.734   5.334  -0.341 -0.0561  0.2146  0.0601
  367MOL0     C50529   4.862   5.298  -0.269 -1.1928 -0.0945  0.9411
  367MOL0     C50530   4.952   5.421  -0.215  0.2489  0.3945  0.4211
  367MOL0     C50531   4.952   5.552  -0.295 -0.4336 -0.7310 -0.0693
  367MOL0     O50532   5.065   5.628  -0.245  0.0929  0.7430 -0.4377
  367MOL0     C50533   5.079   5.761  -0.265  0.7933  0.2247  0.1280
  367MOL0     C50534   5.171   5.836  -0.185  0.0962  1.0225 -0.3250
  367MOL0     C50535   5.198   5.974  -0.206  0.2910  0.0016 -0.0652
  367MOL0     C50536   5.318   6.043  -0.140  0.5855  0.3711  0.3728
  367MOL0     C50537   5.115   6.047  -0.290 -0.3991 -0.6662  0.4658
  367MOL0     C50538   5.121   6.201  -0.319 -0.6894  0.2175  0.4224
  367MOL0     O50539   5.046   6.256  -0.423 -0.3018 -0.4616  0.2534
  367MOL0     C50540   5.076   6.380  -0.463  0.5117  0.0535  0.5298
  367MOL0     C50541   5.187   6.400  -0.556 -0.0188 -0.5433 -0.2180
  367MOL0     C50542   5.226   6.529  -0.599  1.2367  0.3053  0.0127
  367MOL0     C50543   5.159   6.640  -0.553  0.6213 -0.9598  0.7626
  367MOL0     O50544   5.199   6.762  -0.612  0.1332 -0.3379  0.2166
  367MOL0     C50545   5.101   6.856  -0.667  0.5470  0.0661 -0.7045
  367MOL0     C50546   5.179   6.981  -0.703  0.0364  0.2379  0.1240
  367MOL0     C50547   5.277   6.968  -0.828 -0.8563 -0.3084 -0.9963
  367MOL0     C50548   5.294   7.095  -0.907  0.0165  0.7921  0.0425
  367MOL0     C50549   5.388   7.085  -1.031 -1.1081 -0.4065 -0.2035
  367MOL0     C50550   5.402   7.218  -1.105  1.0189  0.3464 -0.3197
  367MOL0     C50551   5.505   7.218  -1.217 -0.8143 -0.8458  1.2988
  367MOL0     C50552   5.497   7.099  -1.306 -0.3557  0.2116 -0.6809
  367MOL0    Cl50553   5.608   7.122  -1.445  0.1594 -0.3191  0.1268
  367MOL0     C50554   5.052   6.625  -0.462 -0.1005  0.8239  0.6692
  367MOL0     C50555   5.012   6.492  -0.419  0.2726  0.7129 -0.2994
  367MOL0     O50556   5.208   6.270  -0.264  0.0949  0.4607 -0.2416
  367MOL0     C50557   5.009   5.976  -0.345 -0.1379  0.3183 -0.3237
  367MOL0     C50558   5.000   5.838  -0.349  0.3964 -0.3599 -0.4648
  367MOL0     N50559   4.550   5.479  -0.246  0.0517 -0.1237  1.2299
  367MOL0     N50560   4.454   5.463  -0.159  0.3490 -0.2354  0.8944
  367MOL0     C50561   3.691   4.963   0.413 -0.2475 -0.4338  0.3385
  367MOL0     C50562   3.551   4.956   0.409 -0.0921 -0.3995  0.5427
  367MOL0     C50563   3.137   4.813   0.622 -0.3126 -0.2649  0.5459
  367MOL0     C50564   3.094   4.948   0.615  0.1994  0.1319 -0.1411
  367MOL0     C50565   2.976   4.988   0.667 -0.3747  0.1172 -0.6825
  367MOL0     C50566   2.897   4.897   0.729  0.4185  0.0530  0.2630
  367MOL0     O50567   2.773   4.946   0.760  0.5439  0.1104 -0.5142
  367MOL0     C50568   2.685   4.855   0.819 -0.4073 -0.3726  0.3988
  367MOL0     C50569   2.558   4.931   0.864  0.0913 -0.0537 -0.6765
  367MOL0     C50570   2.451   4.825   0.883 -0.1921 -0.1002  0.0151
  367MOL0     C50571   2.331   4.861   0.966  0.3427 -0.7250  0.5733
  367MOL0     C50572   2.258   4.738   1.007 -0.8192  0.2266 -0.7970
  367MOL0     C50573   2.188   4.640   1.021 -0.1258  0.2025  0.3821
  367MOL0     C50574   2.932   4.767   0.736 -0.1852  0.8755  0.3439
  367MOL0     C50575   3.053   4.720   0.690 -0.3825 -0.5018 -0.0687
  367MOL0     C50576   3.085   4.579   0.722 -0.5694 -0.4375 -0.3413
  367MOL0     H50577   3.502   4.772   0.690  2.6225  1.8886  3.7824
  367MOL0     H50578   3.747   4.771   0.685 -2.3676 -2.2125  0.4009
  367MOL0     H50579   3.949   4.798   0.336  2.7275 -0.6927  0.4926
  367MOL0     H50580   3.911   4.707   0.479 -3.6813  2.0274 -1.6101
  367MOL0     H50581   4.109   4.763   0.590 -1.5230 -0.6022  0.2238
  367MOL0     H50582   4.140   4.679   0.431  1.1737  1.2270 -2.2403
  367MOL0     H50583   4.207   4.953   0.525 -0.1721  0.0577  0.0147
  367MOL0     H50584   4.306   4.843   0.440  1.3799  1.3495  0.9808
  367MOL0     H50585   4.164   4.895   0.229 -0.1447  0.3474  0.1201
  367MOL0     H50586   4.094   5.040   0.318  1.3183  1.1234  2.2294
  367MOL0     H50587   4.384   4.986   0.272  0.1379  0.9449 -0.1753
  367MOL0     H50588   4.320   5.122   0.355 -1.1757  0.2837  0.4671
  367MOL0     H50589   4.249   5.043   0.065 -0.5723  1.9060 -1.8778
  367MOL0     H50590   4.166   5.175   0.158 -0.0993  0.2337  2.0425
  367MOL0     H50591   4.464   5.186   0.110  0.0269  0.1812 -0.2508
  367MOL0     H50592   4.343   5.302   0.171 -2.9625 -0.5843 -0.4809
  367MOL0     H50593   4.311   5.181  -0.102 -2.4222 -0.0540  0.8516
  367MOL0     H50594   4.242   5.330  -0.051 -0.3938  0.6642  1.0489
  367MOL0     H50595   4.590   5.169  -0.144  3.1290  0.2975 -1.8556
  367MOL0     H50596   4.768   5.416  -0.404  1.2164 -1.1238 -1.0771
  367MOL0     H50597   4.699   5.257  -0.410 -2.5224 -0.8084  2.2864
  367MOL0     H50598   4.834   5.238  -0.182 -1.6709 -0.7978  0.3071
  367MOL0     H50599   4.918   5.241  -0.343 -2.2807 -0.2613  0.2211
  367MOL0     H50600   4.921   5.457  -0.116 -1.5123 -0.0435  0.0602
  367MOL0     H50601   5.055   5.386  -0.203 -0.5215 -1.2730  3.0442
  367MOL0     H50602   4.967   5.532  -0.402  0.8161 -0.5657  0.0605
  367MOL0     H50603   4.856   5.603  -0.288 -0.2927 -0.4362 -0.2310
  367MOL0     H50604   5.229   5.778  -0.114  0.6605 -1.5965 -2.7288
  367MOL0     H50605   5.376   5.955  -0.111 -0.9452 -1.7458 -2.4121
  367MOL0     H50606   5.293   6.099  -0.050 -3.0409 -0.1245 -0.1643
  367MOL0     H50607   5.384   6.092  -0.212  1.3813 -1.4874 -0.2458
  367MOL0     H50608   5.228   6.308  -0.596 -2.0658 -1.2593 -0.8194
  367MOL0     H50609   5.313   6.531  -0.664  1.3189  1.1869  0.1383
  367MOL0     H50610   5.043   6.809  -0.746  0.4594 -0.9207 -0.0697
  367MOL0     H50611   5.037   6.882  -0.583 -1.3547 -0.7563 -1.8472
  367MOL0     H50612   5.105   7.061  -0.714 -0.6343 -0.6155 -2.1250
  367MOL0     H50613   5.237   7.019  -0.619  0.4229  2.9394 -1.2633
  367MOL0     H50614   5.235   6.884  -0.884 -0.3526 -0.6540 -0.8722
  367MOL0     H50615   5.372   6.926  -0.791 -1.1468  0.1854  0.3929
  367MOL0     H50616   5.338   7.165  -0.835  1.4480  0.5582 -0.5626
  367MOL0     H50617   5.193   7.109  -0.946  0.7493  0.5064 -2.0945
  367MOL0     H50618   5.484   7.055  -0.988 -0.6403  0.9355 -0.2739
  367MOL0     H50619   5.360   7.008  -1.104 -0.7154 -3.3416  2.4703
  367MOL0     H50620   5.430   7.299  -1.036  0.3257 -1.1146  1.7807
  367MOL0     H50621   5.300   7.234  -1.139  1.2063 -2.1252 -2.3168
  367MOL0     H50622   5.605   7.218  -1.175  1.1707  3.3315 -2.5101
  367MOL0     H50623   5.498   7.306  -1.282 -0.7536 -1.2425  0.7497
  367MOL0     H50624   5.394   7.087  -1.342 -0.1009 -1.2666 -0.9667
  367MOL0     H50625   5.525   7.006  -1.257  0.7178  1.6786  1.6631
  367MOL0     H50626   4.978   6.703  -0.447 -0.3978  0.8729 -0.8517
  367MOL0     H50627   4.919   6.476  -0.366 -0.2435  0.5765 -1.2176
  367MOL0     H50628   4.934   6.026  -0.406 -0.4921  1.4180  0.9687
  367MOL0     H50629   4.926   5.787  -0.411  0.7605 -0.3239 -0.9360
  367MOL0     H50630   3.741   5.028   0.341 -1.2406 -1.3663 -1.2616
  367MOL0     H50631   3.487   5.008   0.339  1.5866 -0.3595 -1.0454
  367MOL0     H50632   3.159   5.030   0.585  1.3768 -1.2035 -1.4061
  367MOL0     H50633   2.950   5.093   0.666 -1.8830 -0.2114  0.4222
  367MOL0     H50634   2.661   4.788   0.736 -2.0371 -1.9278  2.0131
  367MOL0     H50635   2.725   4.805   0.908  0.6465  0.0406  0.1726
  367MOL0     H50636   2.524   4.995   0.782 -1.2300  0.4640  0.2250
  367MOL0     H50637   2.573   4.983   0.960 -0.9412  0.6455 -0.8703
  367MOL0     H50638   2.409   4.797   0.786 -1.4652 -2.4455  1.1446
  367MOL0     H50639   2.498   4.735   0.925  3.0948  0.5471 -1.9740
  367MOL0     H50640   2.253   4.914   0.911  2.8289  1.5391 -0.9876
  367MOL0     H50641   2.358   4.923   1.052  2.7870 -1.5053  0.4494
  367MOL0     H50642   2.132   4.550   1.036 -0.2094 -0.5221 -3.4090
  367MOL0     H50643   2.861   4.695   0.776  0.1911  0.1665 -0.2247
  367MOL0     H50644   3.045   4.505   0.652 -1.9938  1.0844 -1.2243
  367MOL0     H50645   3.192   4.561   0.731 -0.2975  1.1849 -0.1485
  367MOL0     H50646   3.037   4.557   0.818  1.8287 -0.9114  0.7985
  368MOL0     O50647   1.129   4.881   0.540 -0.6338 -0.5961 -0.2804
  368MOL0     C50648   1.050   4.928   0.623 -0.0646  0.3691 -0.2078
  368MOL0     O50649   0.918   4.943   0.609 -0.0130 -0.0956  0.0241
  368MOL0     C50650   0.853   4.895   0.493 -0.2837  0.2513  0.4098
  368MOL0     C50651   0.709   4.903   0.495  0.8134  0.3309 -0.2719
  368MOL0     C50652   0.634   4.865   0.382 -0.8745  0.6504  0.1191
  368MOL0     C50653   0.685   4.824   0.260 -0.1972 -0.0488  1.0018
  368MOL0     O50654   0.599   4.808   0.151  0.5852  0.5806  0.0252
  368MOL0     C50655   0.646   4.784   0.021  0.1745 -0.0721  0.6622
  368MOL0     C50656   0.535   4.842  -0.074  0.2784  0.7515  0.1761
  368MOL0     C50657   0.495   4.984  -0.060  0.1833  0.7808 -1.0467
  368MOL0     C50658   0.351   5.002  -0.092  0.0444  0.3642  0.3331
  368MOL0     C50659   0.318   5.007  -0.244  0.3563 -1.0348 -0.1085
  368MOL0     C50660   0.339   4.877  -0.316 -0.5200 -0.2215 -0.3950
  368MOL0     C50661   0.255   4.863  -0.443 -0.3256  0.1092  0.1389
  368MOL0     C50662   0.282   4.987  -0.543 -0.1059 -0.6976  0.2185
  368MOL0     N50663   0.423   4.986  -0.592  1.0136 -0.7031 -0.7212
  368MOL0     C50664   0.486   4.877  -0.653 -0.6971 -0.1040  0.4708
  368MOL0     C50665   0.602   4.940  -0.697 -0.2598  0.9023 -0.1504
  368MOL0     C50666   0.692   4.891  -0.814 -0.2178 -0.1336 -1.0169
  368MOL0     C50667   0.615   4.882  -0.943 -0.3915  0.5383  0.0106
  368MOL0     C50668   0.714   4.849  -1.056  0.0055 -1.0616  0.9186
  368MOL0     C50669   0.648   4.911  -1.186  0.5882 -0.1535 -0.1096
  368MOL0     O50670   0.512   4.880  -1.209 -0.1621 -0.2014 -0.8452
  368MOL0     C50671   0.460   4.887  -1.338 -0.4011 -0.0223  0.0124
  368MOL0     C50672   0.377   4.782  -1.372 -0.1987  0.5326  1.4033
  368MOL0     C50673   0.335   4.767  -1.509  0.0688  0.4159  0.2304
  368MOL0     C50674   0.248   4.645  -1.543  0.3219 -0.8028 -1.0906
  368MOL0     C50675   0.373   4.863  -1.603 -0.8009  0.0634  0.4385
  368MOL0     C50676   0.332   4.866  -1.750 -0.3092 -0.2204 -0.2167
  368MOL0     O50677   0.201   4.832  -1.788  1.1690  0.2581  0.5102
  368MOL0     C50678   0.167   4.830  -1.919  0.5294 -1.0883  0.0945
  368MOL0     C50679   0.044   4.890  -1.956  0.1509 -0.7136 -0.8007
  368MOL0     C50680  -0.004   4.872  -2.085 -0.0241  0.2697 -0.3846
  368MOL0     C50681   0.071   4.816  -2.183  0.0091 -0.5082 -0.4349
  368MOL0     O50682   0.032   4.800  -2.315  0.0917 -0.2665  1.0010
  368MOL0     C50683   0.119   4.846  -2.429  0.3124 -0.2262 -0.9201
  368MOL0     C50684   0.020   4.874  -2.536 -0.0169  0.2288  0.2538
  368MOL0     C50685   0.079   4.930  -2.673 -0.8851 -0.7488  0.3605
  368MOL0     C50686  -0.036   4.956  -2.784 -0.0753  0.8814  0.2256
  368MOL0     C50687  -0.040   5.106  -2.802  0.8836  0.2093 -0.6683
  368MOL0     C50688  -0.134   5.149  -2.911  0.8430 -0.2800 -0.1429
  368MOL0     C50689  -0.287   5.117  -2.878 -0.2431  0.2740  0.2921
  368MOL0     C50690  -0.348   5.208  -2.776  0.0166 -0.1980 -0.5903
  368MOL0    Cl50691  -0.522   5.167  -2.729  0.0933 -0.2612 -0.2011
  368MOL0     C50692   0.195   4.764  -2.146 -0.3595 -0.1199  0.8384
  368MOL0     C50693   0.240   4.761  -2.009  0.2480 -0.7229  0.3661
  368MOL0     O50694   0.419   4.904  -1.828 -0.0749  0.5565 -0.6833
  368MOL0     C50695   0.448   4.975  -1.560  0.2189 -0.6433  0.2253
  368MOL0     C50696   0.494   4.983  -1.429 -0.7696 -0.2658  0.1498
  368MOL0     N50697   0.623   5.060  -0.626  0.0555  0.1439  0.6006
  368MOL0     N50698   0.510   5.084  -0.567 -0.0362 -0.8279  0.1628
  368MOL0     C50699   0.827   4.817   0.249 -0.1108  0.1363 -1.4072
  368MOL0     C50700   0.903   4.848   0.362  0.5525  0.5413 -0.2324
  368MOL0     C50701   1.103   4.947   0.760 -0.3733 -0.1527  0.4475
  368MOL0     C50702   1.012   4.930   0.863 -0.3720  0.2368  0.2121
  368MOL0     C50703   1.051   4.940   0.989  1.3324 -0.0053 -0.1028
  368MOL0     C50704   1.178   4.964   1.030  0.7569 -0.3571  0.3120
  368MOL0     O50705   1.206   4.967   1.162  0.2006 -0.2345 -0.3623
  368MOL0     C50706   1.344   4.986   1.202 -0.4690  0.2908 -0.4097
  368MOL0     C50707   1.345   4.979   1.353 -0.0801  0.3972 -0.1949
  368MOL0     C50708   1.495   4.984   1.411  0.2586 -0.1668  0.6513
  368MOL0     C50709   1.566   5.118   1.428 -0.2028 -0.3072  0.8802
  368MOL0     C50710   1.479   5.222   1.486 -0.1472 -0.8282  0.3443
  368MOL0     C50711   1.419   5.316   1.524 -0.0184  0.8854 -0.0521
  368MOL0     C50712   1.273   4.983   0.930 -0.2689 -0.4932  0.9942
  368MOL0     C50713   1.235   4.986   0.792 -0.3284 -0.1350  0.2502
  368MOL0     C50714   1.337   5.019   0.680 -0.3981  0.1369 -0.1878
  368MOL0     H50715   0.644   4.925   0.579 -1.2151  2.7565 -2.3236
  368MOL0     H50716   0.527   4.850   0.394 -0.5177 -1.4430  1.0333
  368MOL0     H50717   0.651   4.676   0.007  1.5438  0.0354  0.2464
  368MOL0     H50718   0.740   4.838   0.007  0.9007 -0.9485  1.9490
  368MOL0     H50719   0.575   4.821  -0.174 -1.1762  0.9927 -0.4802
  368MOL0     H50720   0.446   4.779  -0.067  0.2524  0.7488 -0.1605
  368MOL0     H50721   0.500   5.008   0.046 -1.1923 -1.2399 -0.4567
  368MOL0     H50722   0.562   5.048  -0.118  1.8326 -2.7200 -3.3629
  368MOL0     H50723   0.284   4.923  -0.055 -1.8057  0.3486 -2.6898
  368MOL0     H50724   0.327   5.094  -0.039  1.5617  0.8597  0.2009
  368MOL0     H50725   0.373   5.088  -0.292 -2.5060  1.0753 -0.0991
  368MOL0     H50726   0.213   5.035  -0.256  0.1832 -1.7079 -0.1982
  368MOL0     H50727   0.446   4.862  -0.333  0.5510  2.5353  2.7487
  368MOL0     H50728   0.308   4.798  -0.246  0.6241  0.8531  1.4192
  368MOL0     H50729   0.148   4.862  -0.421 -0.0124 -0.3199  1.7578
  368MOL0     H50730   0.270   4.767  -0.492 -0.1686 -0.2632  0.9172
  368MOL0     H50731   0.217   4.971  -0.629 -0.3038  0.8278  0.0570
  368MOL0     H50732   0.248   5.083  -0.505  0.6136 -0.7467  1.0112
  368MOL0     H50733   0.441   4.794  -0.707 -2.1147  0.0110  1.4223
  368MOL0     H50734   0.728   4.792  -0.784  0.1816  0.5789  1.0316
  368MOL0     H50735   0.780   4.956  -0.811 -0.6458  0.4331  1.4255
  368MOL0     H50736   0.529   4.814  -0.942 -1.7047  2.0122 -2.4646
  368MOL0     H50737   0.575   4.983  -0.954  0.1149  0.7821  0.3689
  368MOL0     H50738   0.805   4.909  -1.051 -0.3129 -0.0242 -2.8364
  368MOL0     H50739   0.715   4.741  -1.076 -1.6427 -0.8135 -0.8304
  368MOL0     H50740   0.661   5.018  -1.172  4.5328 -0.7490  2.5229
  368MOL0     H50741   0.710   4.881  -1.272  2.4071 -0.7581  1.3292
  368MOL0     H50742   0.343   4.712  -1.296 -0.5018  0.8052  1.5207
  368MOL0     H50743   0.158   4.680  -1.594  1.0299  4.3199  0.5646
  368MOL0     H50744   0.222   4.592  -1.450 -0.5097  2.1098  0.4492
  368MOL0     H50745   0.306   4.580  -1.609  0.4155 -3.2456  1.1974
  368MOL0     H50746  -0.009   4.954  -1.886  0.6692 -0.1930 -0.8768
  368MOL0     H50747  -0.094   4.913  -2.130 -1.6697 -2.6600 -0.0555
  368MOL0     H50748   0.159   4.941  -2.391 -4.7475  0.7286  3.0237
  368MOL0     H50749   0.202   4.775  -2.443  2.9334  2.3443  0.4614
  368MOL0     H50750  -0.037   4.783  -2.557  1.4397 -0.7582  0.4767
  368MOL0     H50751  -0.041   4.952  -2.490 -2.4801 -1.1586 -0.4720
  368MOL0     H50752   0.139   4.854  -2.724 -0.3302 -0.9908  1.3634
  368MOL0     H50753   0.141   5.020  -2.678 -2.4477  0.3491 -3.5356
  368MOL0     H50754  -0.133   4.918  -2.750 -2.7674  1.9326 -5.2129
  368MOL0     H50755  -0.004   4.905  -2.874  2.6141  2.6267  0.0665
  368MOL0     H50756  -0.063   5.157  -2.708  2.1445  3.1311 -1.8522
  368MOL0     H50757   0.054   5.144  -2.842  0.1353 -0.2357 -3.0075
  368MOL0     H50758  -0.109   5.092  -3.001 -1.4623 -1.0483 -0.3572
  368MOL0     H50759  -0.119   5.256  -2.925  0.8994 -0.0906  1.1812
  368MOL0     H50760  -0.288   5.017  -2.835 -1.8012 -0.4427 -1.2903
  368MOL0     H50761  -0.332   5.111  -2.977  2.2602  0.7125 -0.9693
  368MOL0     H50762  -0.353   5.309  -2.818 -1.8604  0.4300  0.9749
  368MOL0     H50763  -0.283   5.201  -2.688 -2.2351  1.0409  1.3259
  368MOL0     H50764   0.266   4.717  -2.213 -0.6053  0.4848  0.1401
  368MOL0     H50765   0.334   4.717  -1.977  0.5508  1.2569  2.4644
  368MOL0     H50766   0.477   5.054  -1.628  0.1094 -0.0380  0.8668
  368MOL0     H50767   0.544   5.073  -1.395  0.5071 -0.9000 -0.0246
  368MOL0     H50768   0.874   4.790   0.155  1.0174 -2.4971 -0.1881
  368MOL0     H50769   1.011   4.853   0.352  0.5584  2.2906  0.3270
  368MOL0     H50770   0.912   4.895   0.842 -1.0785  0.8012  2.3265
  368MOL0     H50771   0.979   4.917   1.068  2.4067  0.5281  1.0639
  368MOL0     H50772   1.413   4.909   1.167  2.1585 -0.2106  4.9505
  368MOL0     H50773   1.372   5.086   1.167 -0.7158  0.6930  0.5172
  368MOL0     H50774   1.304   4.878   1.368 -1.2218  0.8675 -0.0523
  368MOL0     H50775   1.278   5.054   1.397 -2.4755 -2.4238  1.3648
  368MOL0     H50776   1.500   4.939   1.510  3.3723  1.1197  1.1977
  368MOL0     H50777   1.546   4.918   1.340 -1.0810 -0.1813 -0.3400
  368MOL0     H50778   1.599   5.158   1.332 -2.3081  0.0897  0.2642
  368MOL0     H50779   1.641   5.099   1.505 -1.2189  1.0319  2.2710
  368MOL0     H50780   1.354   5.393   1.562 -1.0640  0.4173 -0.8136
  368MOL0     H50781   1.378   5.003   0.947  0.3299 -2.0764 -0.4720
  368MOL0     H50782   1.393   4.937   0.633 -0.0030  2.0127 -3.2453
  368MOL0     H50783   1.283   5.069   0.600  3.2064  2.8629 -1.1577
  368MOL0     H50784   1.409   5.098   0.700 -0.8103  0.9323 -1.7506
  369MOL0     O50785   0.041   6.712   8.359 -0.2220  0.0702  0.3369
  369MOL0     C50786   0.080   6.649   8.256  1.0010 -0.3125  0.3114
  369MOL0     O50787   0.004   6.555   8.189  0.2743  0.3976 -0.0322
  369MOL0     C50788  -0.113   6.511   8.242  0.5461 -0.1570 -0.4326
  369MOL0     C50789  -0.242   6.542   8.189 -0.4464 -0.6524 -0.1429
  369MOL0     C50790  -0.363   6.482   8.239 -0.1741  0.3695  0.0667
  369MOL0     C50791  -0.362   6.413   8.362 -0.2967 -0.2010  0.7197
  369MOL0     O50792  -0.471   6.367   8.426 -0.1431 -0.6330 -0.2616
  369MOL0     C50793  -0.602   6.421   8.384 -0.2761  0.3334 -0.5169
  369MOL0     C50794  -0.663   6.364   8.262  1.3495  0.2510 -0.5258
  369MOL0     C50795  -0.765   6.461   8.194  0.2651 -0.4126 -0.6265
  369MOL0     C50796  -0.870   6.394   8.116 -0.5390  0.5620 -0.3371
  369MOL0     C50797  -0.947   6.503   8.034 -0.5434  0.0662 -0.2617
  369MOL0     C50798  -1.042   6.427   7.935  0.7007  0.7817 -0.6307
  369MOL0     C50799  -1.121   6.512   7.843 -0.1806  0.5166 -0.2031
  369MOL0     C50800  -1.238   6.447   7.772  0.0663 -0.0451  0.0968
  369MOL0     N50801  -1.344   6.397   7.865  0.0406  0.5225 -0.1960
  369MOL0     C50802  -1.388   6.457   7.981 -1.0170 -0.0225  0.9891
  369MOL0     C50803  -1.472   6.373   8.037  0.6379  0.4264 -0.0830
  369MOL0     C50804  -1.539   6.405   8.170 -0.6438  0.5414  1.0436
  369MOL0     C50805  -1.687   6.407   8.136 -0.1435  0.5415  0.1128
  369MOL0     C50806  -1.732   6.498   8.025 -0.9276 -0.8171  0.2273
  369MOL0     C50807  -1.875   6.530   8.045  0.0500 -0.4208  0.4920
  369MOL0     O50808  -1.910   6.591   7.922  0.2816  0.3612  0.0464
  369MOL0     C50809  -2.046   6.584   7.881 -0.7065  0.4654  0.6664
  369MOL0     C50810  -2.155   6.525   7.955  0.0121  0.3871  1.1659
  369MOL0     C50811  -2.287   6.532   7.904  0.4574  0.4512  0.0526
  369MOL0     C50812  -2.396   6.452   7.983 -0.3425  0.5513 -0.4187
  369MOL0     C50813  -2.308   6.602   7.788  1.2378  0.6269 -0.5227
  369MOL0     C50814  -2.446   6.618   7.731 -0.4065  0.0850 -0.7525
  369MOL0     O50815  -2.519   6.501   7.735 -0.4778  0.3445 -1.2961
  369MOL0     C50816  -2.651   6.503   7.708  0.2282  0.7576  0.4259
  369MOL0     C50817  -2.733   6.488   7.816  0.0448  0.6873 -0.4723
  369MOL0     C50818  -2.872   6.501   7.808 -1.4167 -0.0668 -0.0899
  369MOL0     C50819  -2.936   6.519   7.682 -0.0154 -0.4787 -0.8336
  369MOL0     O50820  -3.068   6.523   7.689  0.3440  0.8487  0.9403
  369MOL0     C50821  -3.137   6.525   7.561 -0.1176  0.8758 -0.2835
  369MOL0     C50822  -3.288   6.550   7.580 -0.5152 -0.4229 -0.1063
  369MOL0     C50823  -3.363   6.439   7.650  0.8852 -0.4416  0.3848
  369MOL0     C50824  -3.515   6.463   7.608  0.5505  0.2095  0.2590
  369MOL0     C50825  -3.611   6.360   7.667  0.2340 -0.2253 -0.4158
  369MOL0     C50826  -3.646   6.385   7.820  0.2562 -0.4510  0.7119
  369MOL0     C50827  -3.788   6.442   7.843 -0.1292 -0.1984 -0.1662
  369MOL0     C50828  -3.794   6.521   7.974 -0.4596 -0.2089  0.0523
  369MOL0    Cl50829  -3.921   6.637   7.999  0.1128 -0.2890  0.2475
  369MOL0     C50830  -2.852   6.523   7.567  0.1983  0.2617  0.3633
  369MOL0     C50831  -2.712   6.514   7.579 -0.4912 -0.6470  0.1747
  369MOL0     O50832  -2.486   6.733   7.699 -0.3812 -0.2623 -0.2594
  369MOL0     C50833  -2.201   6.665   7.723  0.3247  0.5558  0.9326
  369MOL0     C50834  -2.069   6.651   7.763  0.1578 -0.5298 -0.2575
  369MOL0     N50835  -1.492   6.256   7.957 -0.1557 -0.3989  0.7847
  369MOL0     N50836  -1.409   6.282   7.855 -0.6558  0.5002 -0.1895
  369MOL0     C50837  -0.236   6.391   8.424 -1.1253  1.0411  0.2508
  369MOL0     C50838  -0.113   6.438   8.362  0.5578 -1.0151  0.2433
  369MOL0     C50839   0.228   6.656   8.227 -0.3807 -0.5210  0.1106
  369MOL0     C50840   0.300   6.769   8.278 -0.2109 -0.3471  0.3827
  369MOL0     C50841   0.438   6.790   8.240 -0.5372 -0.2696 -0.4818
  369MOL0     C50842   0.504   6.697   8.165 -0.5178  0.6043  0.3403
  369MOL0     O50843   0.640   6.705   8.135 -1.4582 -0.5688 -0.3084
  369MOL0     C50844   0.667   6.686   8.001  0.6874  0.8229 -1.0500
  369MOL0     C50845   0.768   6.792   7.947  0.2102  0.5640  0.0532
  369MOL0     C50846   0.700   6.928   7.921  0.2487  0.4553  0.1282
  369MOL0     C50847   0.772   7.026   7.833 -0.7609 -0.0041  0.1986
  369MOL0     C50848   0.805   6.990   7.693 -0.3562 -0.3731  0.0338
  369MOL0     C50849   0.847   6.953   7.583  0.3393  0.8151 -0.2845
  369MOL0     C50850   0.434   6.580   8.122 -0.6124  0.2439 -0.0767
  369MOL0     C50851   0.303   6.558   8.154 -0.4445 -0.2945 -1.5214
  369MOL0     C50852   0.246   6.425   8.117  0.7465  1.1080  0.2066
  369MOL0     H50853  -0.237   6.610   8.104  3.6169  2.6338  2.3524
  369MOL0     H50854  -0.453   6.509   8.186 -0.1621 -0.3212 -0.3229
  369MOL0     H50855  -0.600   6.530   8.373 -2.7432  0.7219  1.9605
  369MOL0     H50856  -0.665   6.401   8.471  2.2550 -1.3208  1.0662
  369MOL0     H50857  -0.597   6.327   8.183  1.5848 -1.5596  0.4818
  369MOL0     H50858  -0.725   6.283   8.299  0.4569  0.9741 -0.3931
  369MOL0     H50859  -0.801   6.531   8.270  3.8166 -1.1293  1.9508
  369MOL0     H50860  -0.702   6.526   8.133 -1.1618  1.9081  0.2193
  369MOL0     H50861  -0.811   6.322   8.059  0.6958 -0.3794  2.0177
  369MOL0     H50862  -0.940   6.348   8.186  1.8713 -0.9948  1.1712
  369MOL0     H50863  -0.878   6.570   7.983 -0.7835 -1.2324 -2.4367
  369MOL0     H50864  -1.001   6.555   8.113 -0.8615 -1.7968  0.8109
  369MOL0     H50865  -0.972   6.369   7.875 -0.8131 -1.3300 -0.4742
  369MOL0     H50866  -1.103   6.361   7.998  2.8790 -2.7079 -1.9043
  369MOL0     H50867  -1.050   6.531   7.761  0.5802 -0.8477  0.1131
  369MOL0     H50868  -1.150   6.603   7.895 -2.6093 -0.9830  1.2295
  369MOL0     H50869  -1.283   6.518   7.702 -2.5027 -0.2907  1.3670
  369MOL0     H50870  -1.201   6.360   7.716  1.3568 -0.0642  0.9681
  369MOL0     H50871  -1.362   6.553   8.025  0.0012 -0.7187  1.9859
  369MOL0     H50872  -1.506   6.507   8.193  0.2432  1.3541 -3.0413
  369MOL0     H50873  -1.511   6.325   8.239 -1.8123  1.8139  3.0877
  369MOL0     H50874  -1.714   6.304   8.109  1.3643  0.0379  0.4242
  369MOL0     H50875  -1.735   6.449   8.225  1.5423  2.8242  0.0160
  369MOL0     H50876  -1.681   6.594   8.042 -2.0334  0.0472 -1.1045
  369MOL0     H50877  -1.707   6.464   7.924 -0.8815  2.5096 -1.0208
  369MOL0     H50878  -1.934   6.440   8.067  0.5777 -0.5122  1.6117
  369MOL0     H50879  -1.891   6.597   8.130 -0.0797  0.0020  0.1373
  369MOL0     H50880  -2.132   6.471   8.046  1.6496 -1.7214 -0.3552
  369MOL0     H50881  -2.481   6.516   8.008  1.3153  1.8752  2.3369
  369MOL0     H50882  -2.355   6.409   8.076 -0.7699  0.3122 -0.3382
  369MOL0     H50883  -2.419   6.367   7.918  1.1898 -0.7802  0.6683
  369MOL0     H50884  -2.702   6.461   7.917  3.3500  2.5101 -0.8387
  369MOL0     H50885  -2.930   6.483   7.898  0.4180 -0.9030  0.9903
  369MOL0     H50886  -3.100   6.593   7.484  1.8021  1.1660  0.8353
  369MOL0     H50887  -3.129   6.423   7.521 -0.8930  0.6537  0.1122
  369MOL0     H50888  -3.307   6.641   7.637 -0.4119  0.6124 -1.6663
  369MOL0     H50889  -3.340   6.552   7.483  1.3752 -0.2848 -1.1652
  369MOL0     H50890  -3.352   6.465   7.756 -2.4110  1.4045  0.3967
  369MOL0     H50891  -3.326   6.339   7.630 -0.8140 -0.6216 -2.3460
  369MOL0     H50892  -3.528   6.466   7.499  2.7645  0.5558 -0.0327
  369MOL0     H50893  -3.542   6.562   7.645 -3.7087 -0.9095  0.6184
  369MOL0     H50894  -3.700   6.346   7.606 -0.6136 -0.6175  0.8726
  369MOL0     H50895  -3.557   6.265   7.665 -0.0154 -0.5066  2.2745
  369MOL0     H50896  -3.568   6.444   7.870  0.8212 -1.2449  0.7927
  369MOL0     H50897  -3.638   6.292   7.877  1.5605 -1.1886 -0.5743
  369MOL0     H50898  -3.867   6.366   7.836  0.2521 -0.5730 -0.4892
  369MOL0     H50899  -3.811   6.523   7.773  0.7554 -2.1640 -2.9207
  369MOL0     H50900  -3.703   6.579   7.957 -1.5875  1.8909  0.8113
  369MOL0     H50901  -3.781   6.458   8.062 -3.3416 -1.1384 -0.0900
  369MOL0     H50902  -2.911   6.542   7.478 -0.2334  1.0533  0.8058
  369MOL0     H50903  -2.640   6.541   7.503 -0.8307 -0.4966 -0.0959
  369MOL0     H50904  -2.223   6.725   7.635  0.9537  0.6379  0.8254
  369MOL0     H50905  -1.982   6.702   7.723 -0.0686  0.8720  0.9094
  369MOL0     H50906  -0.239   6.315   8.501  1.2195  1.2373  0.6064
  369MOL0     H50907  -0.024   6.417   8.421  2.2318 -0.2887 -1.9029
  369MOL0     H50908   0.252   6.844   8.341 -1.2431 -0.4416 -0.2720
  369MOL0     H50909   0.491   6.878   8.274  1.5608 -1.2253 -1.1176
  369MOL0     H50910   0.708   6.587   7.983  0.7157  0.8926 -1.3844
  369MOL0     H50911   0.578   6.699   7.938 -0.3641  0.6384  0.3543
  369MOL0     H50912   0.819   6.765   7.854  1.6791  1.8757  0.4481
  369MOL0     H50913   0.839   6.797   8.030  1.0475 -0.6818 -0.5463
  369MOL0     H50914   0.597   6.920   7.884  0.7674 -0.6099 -1.1767
  369MOL0     H50915   0.684   6.986   8.012 -1.2737 -2.9893  2.2542
  369MOL0     H50916   0.862   7.064   7.884 -1.7697 -0.7761  2.7254
  369MOL0     H50917   0.705   7.112   7.822 -1.8837 -0.8464  0.2803
  369MOL0     H50918   0.881   6.927   7.485  0.7371  1.3670 -0.2999
  369MOL0     H50919   0.491   6.510   8.063  1.6048  0.8618  1.2316
  369MOL0     H50920   0.318   6.348   8.088 -1.2534 -1.0280  0.6875
  369MOL0     H50921   0.178   6.376   8.187 -1.3529  0.4748 -2.1217
  369MOL0     H50922   0.186   6.442   8.028  2.4652  2.3928 -0.7701
  370MOL0     O50923   2.309  10.727   0.239 -0.1760  0.9529 -0.6281
  370MOL0     C50924   2.385  10.806   0.187 -0.0792  0.1942 -0.0495
  370MOL0     O50925   2.491  10.775   0.109 -0.5952  0.1642  0.1208
  370MOL0     C50926   2.543  10.650   0.138 -0.0184  0.8096  0.0327
  370MOL0     C50927   2.595  10.615   0.267  0.0887 -0.0067  1.2874
  370MOL0     C50928   2.656  10.492   0.285  0.6767  0.3386  0.4035
  370MOL0     C50929   2.677  10.411   0.174  0.1094  0.0911 -0.7572
  370MOL0     O50930   2.741  10.293   0.196 -0.2603  0.2917  0.7371
  370MOL0     C50931   2.758  10.196   0.095 -0.4625  0.8183  0.1728
  370MOL0     C50932   2.878  10.247   0.017 -0.0201  0.3255  0.2349
  370MOL0     C50933   2.894  10.175  -0.116  0.9859 -0.8126 -0.1917
  370MOL0     C50934   3.020  10.218  -0.179 -0.4650 -0.2906  0.5589
  370MOL0     C50935   3.044  10.162  -0.323 -0.0464  1.5791 -0.2828
  370MOL0     C50936   3.062  10.012  -0.339 -0.7527 -0.3758 -0.6986
  370MOL0     C50937   3.078   9.979  -0.491 -0.9522  0.6590  0.6522
  370MOL0     C50938   2.956   9.988  -0.579 -0.2579  0.8903  0.1703
  370MOL0     N50939   2.881   9.863  -0.561  0.6985 -0.0719  0.6625
  370MOL0     C50940   2.911   9.733  -0.601  0.3216 -0.0283 -0.6745
  370MOL0     C50941   2.819   9.653  -0.548  0.9419  0.1129  0.3894
  370MOL0     C50942   2.812   9.502  -0.563 -0.2238 -0.8613  0.5888
  370MOL0     C50943   2.858   9.441  -0.427 -0.5633 -0.8345 -0.7029
  370MOL0     C50944   3.003   9.484  -0.399 -0.3774  0.1486 -0.5793
  370MOL0     C50945   3.070   9.404  -0.296 -0.1787 -0.5942  0.1394
  370MOL0     O50946   3.035   9.465  -0.167  0.3052  0.3057 -0.4691
  370MOL0     C50947   3.061   9.406  -0.046  0.0293 -1.1006  0.3051
  370MOL0     C50948   3.015   9.477   0.063 -0.2060  0.1390  0.4728
  370MOL0     C50949   3.033   9.417   0.185  0.2322  0.1167  0.2143
  370MOL0     C50950   2.957   9.485   0.305 -0.2488  0.4354  0.5716
  370MOL0     C50951   3.113   9.298   0.213 -0.3841  0.2410  0.5496
  370MOL0     C50952   3.144   9.238   0.350  0.3885 -0.3028  0.5871
  370MOL0     O50953   3.168   9.108   0.347 -0.1398  1.0507  0.6599
  370MOL0     C50954   3.156   9.031   0.456 -0.9533 -0.3823  0.1589
  370MOL0     C50955   3.253   9.012   0.557 -0.0467 -0.1823 -0.0667
  370MOL0     C50956   3.226   8.922   0.661  0.8353 -0.0038  0.3359
  370MOL0     C50957   3.127   8.827   0.654  0.4516 -0.7877  0.1691
  370MOL0     O50958   3.102   8.735   0.753 -0.1005 -0.3972  0.7108
  370MOL0     C50959   3.024   8.780   0.855  0.1112 -0.3215 -0.2849
  370MOL0     C50960   2.950   8.672   0.939 -0.1152 -0.2107  0.1114
  370MOL0     C50961   3.031   8.596   1.039  1.1258  0.0658  0.1668
  370MOL0     C50962   3.141   8.523   0.968  0.2608 -0.0061  0.6644
  370MOL0     C50963   3.220   8.430   1.066  0.6433  0.7340 -0.5173
  370MOL0     C50964   3.296   8.500   1.177 -0.1778  0.0665  0.5216
  370MOL0     C50965   3.426   8.539   1.123 -0.3539 -0.7530  0.0352
  370MOL0     C50966   3.504   8.626   1.232 -0.0438  0.3049 -0.1152
  370MOL0    Cl50967   3.687   8.634   1.207  0.1510  0.0950 -0.0248
  370MOL0     C50968   3.045   8.828   0.540 -0.5240  0.2847  0.3549
  370MOL0     C50969   3.062   8.931   0.444  0.5987 -0.4956  0.6262
  370MOL0     O50970   3.116   9.302   0.452 -0.4105  0.0143  1.0337
  370MOL0     C50971   3.161   9.232   0.097  0.5071 -0.1620 -0.6352
  370MOL0     C50972   3.133   9.284  -0.032 -0.3049  0.7633 -0.5285
  370MOL0     N50973   2.730   9.733  -0.471 -0.6164  1.3563 -0.3175
  370MOL0     N50974   2.770   9.854  -0.477 -0.5227 -0.8992  0.2515
  370MOL0     C50975   2.637  10.456   0.045 -0.5054 -0.1755 -0.3600
  370MOL0     C50976   2.574  10.569   0.030  0.3597 -0.4667 -0.1378
  370MOL0     C50977   2.344  10.950   0.190 -0.7173  0.1100 -0.0807
  370MOL0     C50978   2.415  11.039   0.100  0.5108  0.1310 -0.6644
  370MOL0     C50979   2.389  11.173   0.099 -0.7239  0.7361  0.2482
  370MOL0     C50980   2.288  11.238   0.173  0.0796 -0.3707  0.6700
  370MOL0     O50981   2.266  11.376   0.161 -0.3698  0.4341 -0.5505
  370MOL0     C50982   2.315  11.438   0.048 -0.2956  0.1242  0.9119
  370MOL0     C50983   2.267  11.586   0.044  0.5934  0.3699 -0.8827
  370MOL0     C50984   2.303  11.648  -0.091  0.2851  0.0328  0.3354
  370MOL0     C50985   2.234  11.789  -0.083 -0.0074  1.3304  0.4608
  370MOL0     C50986   2.213  11.823  -0.224  1.5087  0.0678  0.2352
  370MOL0     C50987   2.209  11.836  -0.344  1.4048  0.7661 -0.3246
  370MOL0     C50988   2.216  11.144   0.259 -0.2555 -0.4615  0.4854
  370MOL0     C50989   2.247  11.008   0.271 -0.3767  0.7869 -0.0933
  370MOL0     C50990   2.152  10.939   0.367 -0.4631  0.0350 -0.5590
  370MOL0     H50991   2.579  10.686   0.348 -0.5452  0.0942  1.0832
  370MOL0     H50992   2.702  10.456   0.376  0.7011 -0.6194  0.0240
  370MOL0     H50993   2.670  10.195   0.031 -1.0222 -0.0377  0.9190
  370MOL0     H50994   2.784  10.096   0.132  0.6588  0.0120 -2.5273
  370MOL0     H50995   2.862  10.355   0.008  2.6546  0.7491 -0.4701
  370MOL0     H50996   2.956  10.210   0.084 -1.2966 -1.7573  0.6435
  370MOL0     H50997   2.888  10.066  -0.106  1.4813 -0.6515  2.6932
  370MOL0     H50998   2.811  10.216  -0.173 -0.1404  2.4299  3.3462
  370MOL0     H50999   3.033  10.326  -0.171 -1.5485 -0.1964  1.2823
  370MOL0     H51000   3.100  10.179  -0.115  0.5215  1.2676  0.3475
  370MOL0     H51001   3.133  10.215  -0.361  0.7691  0.3538 -0.1390
  370MOL0     H51002   2.951  10.185  -0.376 -1.1760  0.3123  1.0759
  370MOL0     H51003   3.158   9.983  -0.296  0.5833  2.8995 -1.1548
  370MOL0     H51004   2.979   9.957  -0.295  2.2991 -3.4501  1.7217
  370MOL0     H51005   3.114   9.876  -0.497  0.1788  0.8457  3.1224
  370MOL0     H51006   3.160  10.037  -0.536  1.0380 -0.6052  2.4814
  370MOL0     H51007   2.899  10.077  -0.553 -2.1801 -0.9083  2.7612
  370MOL0     H51008   2.995   9.992  -0.681  0.8858 -1.9759  0.3823
  370MOL0     H51009   2.999   9.717  -0.663  1.1605  1.7067  0.0080
  370MOL0     H51010   2.895   9.474  -0.628  0.5007 -0.3341  1.2674
  370MOL0     H51011   2.712   9.467  -0.591 -1.2095 -0.9596  3.7419
  370MOL0     H51012   2.793   9.481  -0.348  1.9619  1.9519  0.1392
  370MOL0     H51013   2.855   9.332  -0.429  1.2022 -1.1302  3.1753
  370MOL0     H51014   3.067   9.484  -0.488 -2.7500  0.0468 -2.3778
  370MOL0     H51015   2.994   9.586  -0.361  1.9941  0.4672 -0.6956
  370MOL0     H51016   3.043   9.300  -0.315 -1.5175  0.0815 -2.1008
  370MOL0     H51017   3.175   9.400  -0.326 -0.1058 -0.2093  0.3423
  370MOL0     H51018   2.969   9.576   0.056 -0.8257 -0.1777 -0.0457
  370MOL0     H51019   3.027   9.513   0.385  0.2521  1.8150 -0.3261
  370MOL0     H51020   2.879   9.414   0.334  2.0788 -1.7662  1.8350
  370MOL0     H51021   2.927   9.579   0.258  2.2802 -0.0986 -2.4441
  370MOL0     H51022   3.338   9.078   0.572 -0.2306  0.7988 -2.8891
  370MOL0     H51023   3.289   8.928   0.749  1.7511  0.3891 -0.3274
  370MOL0     H51024   3.084   8.825   0.934 -0.1560 -3.4289  1.8813
  370MOL0     H51025   2.947   8.847   0.815 -0.9716 -1.1647  0.3095
  370MOL0     H51026   2.869   8.712   1.000 -0.2360 -0.7013  0.2753
  370MOL0     H51027   2.908   8.596   0.873 -0.0587  2.2299 -2.9985
  370MOL0     H51028   2.968   8.529   1.098 -0.5557  0.8698 -0.6514
  370MOL0     H51029   3.073   8.660   1.118  0.0964  0.3822  0.4672
  370MOL0     H51030   3.213   8.585   0.915 -0.5584  0.5782  0.2036
  370MOL0     H51031   3.094   8.460   0.892 -1.6855  0.0143  1.7744
  370MOL0     H51032   3.146   8.363   1.111 -0.0646  0.9968 -1.2550
  370MOL0     H51033   3.286   8.367   1.006 -0.2709 -2.2918  1.4374
  370MOL0     H51034   3.293   8.446   1.272  0.9395 -0.4459  0.2795
  370MOL0     H51035   3.246   8.592   1.208 -1.4166 -0.8824  1.4333
  370MOL0     H51036   3.416   8.611   1.040 -1.2111  0.6855  1.3411
  370MOL0     H51037   3.497   8.459   1.098  0.0759 -0.2976 -0.2387
  370MOL0     H51038   3.487   8.568   1.323  3.0084 -3.0977 -1.4343
  370MOL0     H51039   3.460   8.725   1.221  0.8170  0.4133 -4.0366
  370MOL0     H51040   2.957   8.764   0.545 -0.2390 -0.1951 -0.5867
  370MOL0     H51041   3.002   8.939   0.354  2.3972 -2.7116 -0.8974
  370MOL0     H51042   3.228   9.148   0.110 -1.0356 -1.8049 -2.6518
  370MOL0     H51043   3.162   9.238  -0.126  2.0447  2.4345 -0.7132
  370MOL0     H51044   2.646  10.400  -0.048 -1.1269  2.2908 -2.0038
  370MOL0     H51045   2.549  10.606  -0.069  0.0332  2.5642  0.9647
  370MOL0     H51046   2.502  11.009   0.043  1.9442  1.9835  0.4065
  370MOL0     H51047   2.466  11.233   0.052 -0.7487  0.5686 -0.0083
  370MOL0     H51048   2.424  11.437   0.050 -0.2992 -1.5679  2.1709
  370MOL0     H51049   2.274  11.375  -0.032 -2.7279  0.1749  2.0338
  370MOL0     H51050   2.303  11.642   0.130  2.3337 -2.4443  0.3710
  370MOL0     H51051   2.158  11.584   0.056  0.4910  0.3765 -1.7497
  370MOL0     H51052   2.410  11.646  -0.112  0.2699 -1.2470  0.2578
  370MOL0     H51053   2.254  11.592  -0.172 -0.1832  2.8638 -1.4920
  370MOL0     H51054   2.294  11.867  -0.036  1.6693  0.9514 -0.9639
  370MOL0     H51055   2.131  11.787  -0.046 -0.8073 -2.3995 -1.4794
  370MOL0     H51056   2.226  11.840  -0.450  1.0700 -2.4776 -0.6034
  370MOL0     H51057   2.146  11.183   0.332  2.1745 -1.1183  3.3246
  370MOL0     H51058   2.139  11.010   0.450 -3.8276  2.8362 -3.1442
  370MOL0     H51059   2.048  10.931   0.334 -1.1983  1.0538  1.3468
  370MOL0     H51060   2.190  10.843   0.404 -1.9385  0.1273  1.3857
  371MOL0     O51061   4.335   1.103   1.857 -0.3074 -0.0673  0.5972
  371MOL0     C51062   4.363   1.224   1.825 -0.3241  0.5242  0.0206
  371MOL0     O51063   4.494   1.267   1.816  0.5518 -0.8639  0.4289
  371MOL0     C51064   4.588   1.228   1.906  0.7865  0.0428  0.5199
  371MOL0     C51065   4.554   1.164   2.034  0.0688  0.6273  1.1891
  371MOL0     C51066   4.650   1.103   2.116 -0.3365  0.2793 -0.6015
  371MOL0     C51067   4.784   1.121   2.077  0.5355  0.0189  0.0796
  371MOL0     O51068   4.891   1.073   2.152 -0.1116 -0.2420  0.1943
  371MOL0     C51069   4.864   1.000   2.271  0.0204 -0.7426  0.3099
  371MOL0     C51070   4.988   0.996   2.352 -0.2197  0.0109 -0.3816
  371MOL0     C51071   5.097   0.920   2.275 -1.3738  0.1147 -0.0376
  371MOL0     C51072   5.237   0.941   2.343 -0.2002 -0.4806 -0.6637
  371MOL0     C51073   5.301   1.076   2.299  0.3559 -0.3540 -0.6598
  371MOL0     C51074   5.430   1.063   2.211 -0.4445 -0.2861  0.4641
  371MOL0     C51075   5.498   1.199   2.202 -0.2533  1.0756 -0.2794
  371MOL0     C51076   5.624   1.185   2.112 -0.8229 -0.1263  0.0875
  371MOL0     N51077   5.738   1.124   2.181 -0.0988 -0.3216  0.6185
  371MOL0     C51078   5.819   1.192   2.262 -0.1556 -0.3581 -0.7986
  371MOL0     C51079   5.927   1.110   2.289  0.2722 -0.2618  0.0972
  371MOL0     C51080   6.042   1.156   2.375  0.4546 -0.3104 -0.2518
  371MOL0     C51081   6.134   1.260   2.309  0.4125 -0.6455 -0.6141
  371MOL0     C51082   6.226   1.187   2.209 -0.8363 -0.5503 -0.1049
  371MOL0     C51083   6.316   1.292   2.145  0.6228  0.4317  0.3346
  371MOL0     O51084   6.248   1.416   2.123 -0.5177 -0.2302 -0.4461
  371MOL0     C51085   6.312   1.520   2.073 -0.2729 -0.1372  0.2193
  371MOL0     C51086   6.249   1.647   2.093 -0.3357  1.2461  0.0997
  371MOL0     C51087   6.318   1.762   2.054  0.4928 -0.7051 -0.7469
  371MOL0     C51088   6.249   1.897   2.097  0.2283  0.3076  0.1419
  371MOL0     C51089   6.436   1.763   1.980  0.3353 -0.3821  0.7238
  371MOL0     C51090   6.508   1.875   1.924 -0.7216 -0.1011  0.9537
  371MOL0     O51091   6.576   1.843   1.806 -0.1663  0.6952  0.6012
  371MOL0     C51092   6.689   1.907   1.757  0.7761 -0.4661 -0.1581
  371MOL0     C51093   6.771   1.985   1.832 -0.5966  0.9570 -0.0624
  371MOL0     C51094   6.878   2.041   1.772  0.9079  0.7634  1.4068
  371MOL0     C51095   6.892   2.042   1.630 -0.5444  0.2781 -0.7217
  371MOL0     O51096   6.997   2.107   1.566 -0.2898  0.2208 -0.1227
  371MOL0     C51097   7.062   2.220   1.636 -0.0665  0.2806 -0.3314
  371MOL0     C51098   7.111   2.321   1.526  0.0440  0.0130  0.5060
  371MOL0     C51099   7.249   2.281   1.472  0.7242  0.5956  0.0151
  371MOL0     C51100   7.368   2.329   1.557 -0.1630 -0.8030  0.2155
  371MOL0     C51101   7.502   2.300   1.481  0.1911 -0.3895 -0.0772
  371MOL0     C51102   7.526   2.149   1.465 -0.0482 -0.1821 -0.4908
  371MOL0     C51103   7.658   2.102   1.396  0.5158 -0.0641  0.1845
  371MOL0     C51104   7.779   2.182   1.435 -0.1153 -0.2982  1.2751
  371MOL0    Cl51105   7.828   2.148   1.601  0.6034 -0.1803 -0.0620
  371MOL0     C51106   6.804   1.964   1.556 -0.7851  0.4902 -0.8846
  371MOL0     C51107   6.706   1.897   1.622  0.0666  0.6324  0.4142
  371MOL0     O51108   6.501   1.985   1.969 -0.0375 -0.0136 -0.3890
  371MOL0     C51109   6.483   1.640   1.952  0.1502 -0.0721  0.4065
  371MOL0     C51110   6.418   1.517   1.982 -1.0365  0.2455 -0.2307
  371MOL0     N51111   5.904   0.995   2.212 -0.1403 -0.2910 -0.1551
  371MOL0     N51112   5.797   1.014   2.143  1.2117  0.5173  0.7641
  371MOL0     C51113   4.823   1.195   1.966  0.0173 -0.0975  0.1991
  371MOL0     C51114   4.721   1.237   1.877  0.8083 -0.0680  0.7249
  371MOL0     C51115   4.248   1.304   1.778  1.1984 -0.4127 -0.4678
  371MOL0     C51116   4.138   1.239   1.733  0.0919  0.2588  0.3268
  371MOL0     C51117   4.026   1.299   1.683  0.9877 -0.5777 -0.5354
  371MOL0     C51118   4.012   1.433   1.692  0.4570 -0.2529 -1.0697
  371MOL0     O51119   3.891   1.484   1.651  0.1465 -0.6294 -0.2313
  371MOL0     C51120   3.880   1.629   1.639 -0.1692 -0.1349  0.5461
  371MOL0     C51121   3.869   1.690   1.783  0.6894 -0.1541 -0.4927
  371MOL0     C51122   3.882   1.836   1.789  0.0814  0.8686  0.2662
  371MOL0     C51123   4.018   1.887   1.743  0.7849 -0.4193 -0.0298
  371MOL0     C51124   4.026   1.941   1.614  0.4018  0.3308  0.3373
  371MOL0     C51125   4.040   1.999   1.508  0.7181 -0.5296 -1.2180
  371MOL0     C51126   4.123   1.511   1.747  0.1996 -0.3038 -0.6643
  371MOL0     C51127   4.241   1.444   1.790 -0.3804  0.3961 -0.2550
  371MOL0     C51128   4.362   1.527   1.830 -0.6007 -0.1709 -0.0465
  371MOL0     H51129   4.450   1.176   2.061 -0.2130  2.1917 -0.3683
  371MOL0     H51130   4.621   1.049   2.205  0.7561  0.4076 -0.1554
  371MOL0     H51131   4.809   0.907   2.253 -1.7673  0.1468  0.9139
  371MOL0     H51132   4.803   1.057   2.341  1.8839 -1.2025  2.4232
  371MOL0     H51133   5.022   1.099   2.366 -0.3261  0.2132 -1.5234
  371MOL0     H51134   4.959   0.949   2.446 -0.7133 -0.8706 -0.9558
  371MOL0     H51135   5.064   0.816   2.273 -2.7067  0.5283 -0.7889
  371MOL0     H51136   5.109   0.952   2.171 -1.5869  1.0825  0.2301
  371MOL0     H51137   5.215   0.932   2.449 -0.0872  0.7001 -0.5278
  371MOL0     H51138   5.306   0.861   2.315 -0.7251 -0.4315 -2.2143
  371MOL0     H51139   5.333   1.136   2.385  3.7294 -0.6386 -1.5775
  371MOL0     H51140   5.226   1.129   2.240 -0.2768 -0.4742  0.0330
  371MOL0     H51141   5.498   1.006   2.275  1.0725 -0.0038 -0.8451
  371MOL0     H51142   5.426   1.011   2.115 -1.0040  0.9110 -0.1755
  371MOL0     H51143   5.528   1.237   2.300 -0.9445 -3.0624  1.7236
  371MOL0     H51144   5.425   1.258   2.146 -0.0932  0.7417 -0.8505
  371MOL0     H51145   5.595   1.125   2.025  1.7043 -0.5617 -0.5323
  371MOL0     H51146   5.648   1.287   2.083  3.0512 -0.7999  0.3726
  371MOL0     H51147   5.817   1.295   2.298  1.9332 -1.0764  1.7158
  371MOL0     H51148   6.104   1.070   2.402  1.3928 -0.1310 -1.7375
  371MOL0     H51149   5.994   1.193   2.465 -4.0935 -5.2358 -0.1502
  371MOL0     H51150   6.075   1.343   2.269  0.7473 -1.0961 -2.0928
  371MOL0     H51151   6.192   1.302   2.392  0.2127 -1.1745 -0.2018
  371MOL0     H51152   6.279   1.101   2.250  1.1766  0.5180 -0.3445
  371MOL0     H51153   6.159   1.143   2.134 -1.8381 -0.7002  0.8516
  371MOL0     H51154   6.404   1.320   2.204  1.9829  0.3498 -1.5613
  371MOL0     H51155   6.349   1.249   2.050 -2.2827 -0.7032 -0.2724
  371MOL0     H51156   6.162   1.650   2.156 -0.8491 -0.0993 -0.5112
  371MOL0     H51157   6.253   1.970   2.016  0.2203  2.1820  1.7381
  371MOL0     H51158   6.312   1.946   2.172  0.4323  1.5982 -0.8379
  371MOL0     H51159   6.147   1.886   2.136  0.8780 -2.1839  1.3482
  371MOL0     H51160   6.765   1.988   1.940  0.3404 -2.2006  0.1879
  371MOL0     H51161   6.947   2.093   1.837  1.3648  1.0232  0.7315
  371MOL0     H51162   6.988   2.262   1.705 -1.3581 -1.9895 -0.2366
  371MOL0     H51163   7.150   2.204   1.698 -0.9024 -1.0868  0.5541
  371MOL0     H51164   7.038   2.323   1.444 -1.7888  2.2958  2.0695
  371MOL0     H51165   7.109   2.418   1.575 -0.3693  0.5497 -0.5369
  371MOL0     H51166   7.256   2.333   1.375 -0.7731  0.8521  0.0169
  371MOL0     H51167   7.250   2.172   1.475  2.7609  0.6092  2.1400
  371MOL0     H51168   7.369   2.278   1.654 -0.2722 -3.1616 -0.9698
  371MOL0     H51169   7.365   2.436   1.583  0.8583 -0.7392  0.0914
  371MOL0     H51170   7.525   2.338   1.381  2.2651 -1.0163  0.1301
  371MOL0     H51171   7.585   2.327   1.546  1.6007 -1.6778 -1.2725
  371MOL0     H51172   7.450   2.107   1.398  0.1326 -0.4759 -0.5154
  371MOL0     H51173   7.520   2.104   1.565  2.0535  4.3098  1.9102
  371MOL0     H51174   7.645   2.111   1.288 -0.2012 -0.1047  0.2604
  371MOL0     H51175   7.676   1.995   1.407 -2.3479 -1.1552 -3.3871
  371MOL0     H51176   7.765   2.289   1.413 -0.7605 -0.6948 -0.4055
  371MOL0     H51177   7.852   2.135   1.369 -2.2568 -1.9605 -0.0324
  371MOL0     H51178   6.817   1.958   1.449  1.0699 -2.1284 -0.6047
  371MOL0     H51179   6.636   1.839   1.562  1.1164 -0.7366  0.4372
  371MOL0     H51180   6.586   1.636   1.917  1.0712  4.2315  2.0586
  371MOL0     H51181   6.459   1.419   1.963 -2.9295 -0.8647  1.0850
  371MOL0     H51182   4.931   1.205   1.960  0.2890 -2.9060 -0.5932
  371MOL0     H51183   4.746   1.288   1.784 -0.8806  1.6003  1.1328
  371MOL0     H51184   4.123   1.132   1.718 -0.8296  0.5958 -1.3622
  371MOL0     H51185   3.936   1.244   1.657  1.5384 -0.9362 -1.7848
  371MOL0     H51186   3.966   1.664   1.581  0.9582 -2.9468  0.3316
  371MOL0     H51187   3.791   1.642   1.577  0.4517  3.1357  0.1485
  371MOL0     H51188   3.938   1.644   1.855  0.5982 -1.6961 -1.3615
  371MOL0     H51189   3.770   1.671   1.826  1.1103 -1.1237  0.0822
  371MOL0     H51190   3.805   1.879   1.723  0.2352 -1.8198 -1.8325
  371MOL0     H51191   3.869   1.871   1.892  1.3139  0.0786  0.7045
  371MOL0     H51192   4.100   1.818   1.761  0.2870 -1.0450 -0.1459
  371MOL0     H51193   4.032   1.979   1.801 -3.4688 -0.8932  2.1074
  371MOL0     H51194   4.032   2.062   1.421  0.9148  1.5205  0.1790
  371MOL0     H51195   4.124   1.618   1.762  1.4397 -0.5896  1.6548
  371MOL0     H51196   4.442   1.526   1.756  0.7745 -3.2102  1.3093
  371MOL0     H51197   4.341   1.633   1.846  5.1722  1.2271  0.4717
  371MOL0     H51198   4.405   1.496   1.926 -3.7538  1.8608  2.2369
  372MOL0     O51199   9.812   1.019  10.971  0.1709 -0.0202 -0.0609
  372MOL0     C51200   9.775   1.110  11.052 -0.5111 -0.0120  0.2921
  372MOL0     O51201   9.862   1.203  11.101  0.1784 -0.3079 -0.1180
  372MOL0     C51202   9.994   1.175  11.081  0.1817 -0.1812 -0.0867
  372MOL0     C51203  10.080   1.109  11.167 -0.6961 -0.3167 -0.1140
  372MOL0     C51204  10.216   1.092  11.134 -0.0094  0.0624 -0.5418
  372MOL0     C51205  10.266   1.140  11.013  0.4865 -0.2760  0.5210
  372MOL0     O51206  10.390   1.118  10.974  0.0293 -0.3147  0.0791
  372MOL0     C51207  10.452   1.010  11.040 -0.2750  0.2138 -0.3525
  372MOL0     C51208  10.589   0.986  10.982  0.7348  0.3605  0.0602
  372MOL0     C51209  10.686   1.098  11.021  0.0445  0.4724 -0.5362
  372MOL0     C51210  10.825   1.051  11.013 -0.1174  0.8092  0.0657
  372MOL0     C51211  10.872   0.948  11.118 -0.0521  0.3573  0.0335
  372MOL0     C51212  10.823   0.981  11.267 -1.0169  0.4455  0.0136
  372MOL0     C51213  10.880   0.882  11.363 -0.2144 -0.1144 -0.0629
  372MOL0     C51214  10.850   0.727  11.349 -0.4267 -1.3216 -0.1294
  372MOL0     N51215  10.708   0.705  11.345  0.1107 -0.3455  0.0324
  372MOL0     C51216  10.624   0.702  11.454  0.1086 -1.0732 -0.0515
  372MOL0     C51217  10.497   0.704  11.398  0.4121 -0.3794 -0.9163
  372MOL0     C51218  10.364   0.692  11.476  0.1471 -0.5755 -0.6602
  372MOL0     C51219  10.306   0.835  11.507  1.6951  0.5004 -0.0928
  372MOL0     C51220  10.177   0.819  11.586  0.2439  0.2791  0.2010
  372MOL0     C51221  10.168   0.941  11.670  1.1073 -0.0427 -0.1004
  372MOL0     O51222  10.153   1.049  11.585  0.1445 -0.1867  0.5597
  372MOL0     C51223  10.184   1.169  11.647  0.5199 -0.7055  0.1387
  372MOL0     C51224  10.195   1.194  11.789 -0.0369 -0.1496 -0.1343
  372MOL0     C51225  10.198   1.313  11.852  0.9231 -0.3235  0.6326
  372MOL0     C51226  10.225   1.311  11.999  0.2732 -0.5386 -0.0163
  372MOL0     C51227  10.167   1.426  11.776 -0.1638 -0.1602 -0.4207
  372MOL0     C51228  10.142   1.559  11.843 -0.1412  0.3675 -0.9879
  372MOL0     O51229  10.166   1.659  11.757  0.0375  0.0853  0.4240
  372MOL0     C51230  10.129   1.789  11.779  0.7394 -0.1029  0.1242
  372MOL0     C51231   9.989   1.824  11.764  0.5153  0.5608  0.1043
  372MOL0     C51232   9.954   1.961  11.774  0.0155 -1.1491  0.3732
  372MOL0     C51233  10.052   2.055  11.781 -0.4026 -0.1235 -0.8630
  372MOL0     O51234  10.008   2.186  11.783 -0.3117  0.4505 -0.1175
  372MOL0     C51235   9.910   2.221  11.681 -0.1439 -0.2317 -0.4048
  372MOL0     C51236   9.981   2.274  11.565  0.1429 -0.3359 -0.0278
  372MOL0     C51237  10.061   2.406  11.584 -0.2435  0.3147 -0.8864
  372MOL0     C51238   9.990   2.527  11.659 -0.3152 -0.6733 -1.0317
  372MOL0     C51239  10.064   2.662  11.628  0.0894  0.2995  0.0652
  372MOL0     C51240   9.980   2.788  11.667 -0.8582 -0.6752  0.0399
  372MOL0     C51241  10.002   2.819  11.809 -0.3685  0.0460 -0.2567
  372MOL0     C51242   9.933   2.939  11.863 -1.0835 -0.3037 -0.8187
  372MOL0    Cl51243   9.945   3.079  11.759 -0.3567  0.2451 -0.0733
  372MOL0     C51244  10.186   2.022  11.793  0.3489 -0.3370 -0.2411
  372MOL0     C51245  10.222   1.890  11.794  0.6583 -0.0715 -0.4194
  372MOL0     O51246  10.091   1.576  11.953  0.0515  0.2239 -0.8708
  372MOL0     C51247  10.164   1.409  11.632  1.5780 -0.7658  0.1758
  372MOL0     C51248  10.178   1.285  11.566  0.1157  0.3345  0.9214
  372MOL0     N51249  10.505   0.703  11.263 -0.5090 -0.5628 -0.3902
  372MOL0     N51250  10.630   0.707  11.234 -0.5639  0.7558 -0.0392
  372MOL0     C51251  10.176   1.206  10.931 -0.5370  0.4607 -0.1379
  372MOL0     C51252  10.043   1.220  10.963 -0.6325 -0.3600 -0.7822
  372MOL0     C51253   9.625   1.130  11.066 -0.6045 -0.0858 -0.0136
  372MOL0     C51254   9.547   1.014  11.068  0.2594  0.0184 -0.1594
  372MOL0     C51255   9.410   1.017  11.074  0.4917 -0.7316 -1.0558
  372MOL0     C51256   9.341   1.134  11.094 -1.5018 -0.4261 -0.5340
  372MOL0     O51257   9.209   1.135  11.130 -0.0159 -0.5394  0.4878
  372MOL0     C51258   9.122   1.089  11.028  0.6206  0.5117 -0.6027
  372MOL0     C51259   9.012   1.044  11.124 -0.3603 -1.4009 -0.2219
  372MOL0     C51260   8.893   1.153  11.143 -0.3449  0.3149  0.6994
  372MOL0     C51261   8.821   1.146  11.283  0.3092  0.5206  0.2345
  372MOL0     C51262   8.911   1.197  11.386  0.0368 -0.2962 -0.5282
  372MOL0     C51263   8.982   1.256  11.474 -0.2100  0.1159 -0.7239
  372MOL0     C51264   9.413   1.253  11.106 -0.2182  0.2002 -0.5217
  372MOL0     C51265   9.556   1.256  11.084 -0.4329  0.8024  0.3781
  372MOL0     C51266   9.619   1.389  11.064 -0.6762 -0.0729  0.2911
  372MOL0     H51267  10.040   1.072  11.261 -0.1871 -2.9278 -0.8663
  372MOL0     H51268  10.267   1.029  11.207  1.9690  1.1004 -0.9348
  372MOL0     H51269  10.392   0.922  11.017  0.0057  0.1320 -0.7860
  372MOL0     H51270  10.464   1.021  11.148 -1.1696 -2.1591  0.0551
  372MOL0     H51271  10.623   0.891  11.022 -0.8999 -0.6273 -0.7986
  372MOL0     H51272  10.583   0.981  10.873 -1.9533 -2.9952  0.1985
  372MOL0     H51273  10.670   1.188  10.961  0.7500  1.7872  1.1721
  372MOL0     H51274  10.661   1.113  11.127 -0.0724 -0.3820 -0.4372
  372MOL0     H51275  10.849   1.023  10.910  1.2031 -2.7949  1.1976
  372MOL0     H51276  10.889   1.138  11.025 -1.7184  1.8938  1.2426
  372MOL0     H51277  10.981   0.947  11.113 -0.0171  1.9248 -0.1814
  372MOL0     H51278  10.840   0.852  11.077 -0.6344  0.8276 -0.6446
  372MOL0     H51279  10.830   1.082  11.307 -2.1328  0.4172  0.2960
  372MOL0     H51280  10.716   0.961  11.269 -1.2646  1.7048  2.2901
  372MOL0     H51281  10.838   0.913  11.459 -1.2111 -1.7130  0.0572
  372MOL0     H51282  10.989   0.884  11.360 -0.1795 -0.3916  0.8510
  372MOL0     H51283  10.910   0.696  11.263  4.1919  0.7067  1.9960
  372MOL0     H51284  10.889   0.672  11.435 -2.2432  0.6005  2.0687
  372MOL0     H51285  10.644   0.707  11.561 -0.2658  5.9186  0.0893
  372MOL0     H51286  10.380   0.634  11.568  0.1770 -1.0431 -0.9548
  372MOL0     H51287  10.290   0.633  11.420 -3.5267  0.4054  2.7220
  372MOL0     H51288  10.385   0.896  11.553 -0.0361  2.9221 -0.1641
  372MOL0     H51289  10.277   0.872  11.409  0.2462 -1.2750 -0.3825
  372MOL0     H51290  10.088   0.800  11.524  0.0407 -3.7794  1.4758
  372MOL0     H51291  10.183   0.727  11.644 -0.7950 -1.2696 -2.0227
  372MOL0     H51292  10.085   0.933  11.741  0.9083 -0.5367 -0.3848
  372MOL0     H51293  10.262   0.937  11.727  0.0748 -0.1346  1.6486
  372MOL0     H51294  10.200   1.110  11.857 -0.7207 -1.4317 -1.6089
  372MOL0     H51295  10.135   1.355  12.044  0.5590  2.0390 -1.8016
  372MOL0     H51296  10.303   1.385  12.016  2.7069 -2.7143 -0.9541
  372MOL0     H51297  10.256   1.215  12.043  2.6578 -0.4885 -1.4204
  372MOL0     H51298   9.922   1.744  11.735  0.3911 -0.1878  2.2826
  372MOL0     H51299   9.849   1.987  11.761  0.7251  0.8886 -2.0177
  372MOL0     H51300   9.839   2.143  11.652  2.2648 -1.7303 -2.7422
  372MOL0     H51301   9.855   2.309  11.717  2.6757  1.4645  0.0459
  372MOL0     H51302  10.047   2.195  11.527  0.6879 -0.6041  1.4137
  372MOL0     H51303   9.911   2.295  11.484  3.0933  0.3752 -2.6189
  372MOL0     H51304  10.091   2.448  11.488 -0.5540  0.6639 -0.8351
  372MOL0     H51305  10.148   2.370  11.642 -1.8854 -1.7059  0.4694
  372MOL0     H51306   9.982   2.509  11.767  2.4735  0.9315 -0.4618
  372MOL0     H51307   9.890   2.532  11.615  0.6334  0.5407 -3.2006
  372MOL0     H51308  10.156   2.658  11.687  0.6138 -0.6536 -0.7931
  372MOL0     H51309  10.097   2.668  11.524 -2.4218 -1.1349 -0.8926
  372MOL0     H51310   9.877   2.758  11.643 -1.1593  0.4948 -0.1836
  372MOL0     H51311  10.011   2.875  11.609  1.5997 -2.4375 -1.4757
  372MOL0     H51312  10.107   2.849  11.814 -0.8300  1.9518 -1.0630
  372MOL0     H51313   9.969   2.737  11.873  2.2992 -0.6255  0.3560
  372MOL0     H51314   9.991   2.964  11.952  1.6676 -0.7695 -2.3440
  372MOL0     H51315   9.829   2.913  11.883 -0.4887 -3.6282 -1.5400
  372MOL0     H51316  10.262   2.100  11.788 -0.4266  0.3733 -2.1475
  372MOL0     H51317  10.326   1.862  11.804 -0.0573 -2.1660  2.9125
  372MOL0     H51318  10.145   1.498  11.574  3.6417 -0.6018 -0.3056
  372MOL0     H51319  10.147   1.277  11.462  2.0996 -1.1829  0.3786
  372MOL0     H51320  10.204   1.260  10.841 -1.9786  1.2714 -0.1315
  372MOL0     H51321   9.979   1.278  10.897 -1.1987  1.3599  1.2045
  372MOL0     H51322   9.590   0.914  11.068 -3.5242 -1.8113 -1.3536
  372MOL0     H51323   9.349   0.927  11.076 -2.2859  1.0463  0.2389
  372MOL0     H51324   9.091   1.162  10.952  0.0191  0.9194  0.0159
  372MOL0     H51325   9.167   1.005  10.975  1.9042 -0.2060  1.5079
  372MOL0     H51326   9.042   1.021  11.226 -1.7701 -2.3020  0.0201
  372MOL0     H51327   8.957   0.958  11.084 -2.7631 -0.4112  0.7722
  372MOL0     H51328   8.939   1.252  11.130  0.4468  0.2535  2.7219
  372MOL0     H51329   8.818   1.143  11.064 -1.9735 -1.7137  2.3836
  372MOL0     H51330   8.793   1.043  11.309  1.5424 -0.5426 -2.3370
  372MOL0     H51331   8.730   1.207  11.273 -0.0139 -0.2491 -2.1172
  372MOL0     H51332   9.047   1.305  11.545  0.7079 -2.8353  0.6346
  372MOL0     H51333   9.357   1.343  11.128 -1.3067 -0.8670  1.3985
  372MOL0     H51334   9.556   1.444  10.994 -1.5296 -1.4117 -0.0327
  372MOL0     H51335   9.619   1.449  11.156 -2.5389  0.3952  0.0156
  372MOL0     H51336   9.720   1.397  11.024  0.3073 -0.0702  2.5977
  373MOL0     O51337  10.239   2.687  10.689 -0.4509 -0.6379  0.4949
  373MOL0     C51338  10.205   2.614  10.784  0.1413  0.0440  0.0257
  373MOL0     O51339  10.294   2.556  10.873 -0.4732 -0.2610 -0.9299
  373MOL0     C51340  10.429   2.577  10.845  0.0521 -0.2883  0.9553
  373MOL0     C51341  10.481   2.710  10.865  0.1075  0.4557 -0.3369
  373MOL0     C51342  10.613   2.742  10.859  0.0584  0.1012  0.4766
  373MOL0     C51343  10.705   2.637  10.826  0.5823 -1.0171 -0.5302
  373MOL0     O51344  10.839   2.674  10.815  0.4933  0.1922  0.6107
  373MOL0     C51345  10.922   2.615  10.918 -0.3453 -0.5064 -0.7004
  373MOL0     C51346  11.029   2.529  10.856 -0.2196  0.9189  0.2992
  373MOL0     C51347  11.126   2.456  10.954  0.9716  0.2132 -0.0018
  373MOL0     C51348  11.219   2.559  11.020 -0.1852  0.1009 -0.3803
  373MOL0     C51349  11.271   2.528  11.164  0.0926 -0.3059  0.1599
  373MOL0     C51350  11.394   2.439  11.152  0.9150  0.2327 -0.1752
  373MOL0     C51351  11.428   2.381  11.280  0.0164 -0.6721  0.5383
  373MOL0     C51352  11.535   2.279  11.240 -0.3338 -0.0810 -0.1293
  373MOL0     N51353  11.597   2.236  11.373 -0.8969 -0.5484 -0.3420
  373MOL0     C51354  11.552   2.135  11.450  0.6383 -0.0999  0.4978
  373MOL0     C51355  11.632   2.132  11.554 -1.0798 -0.3797 -0.1207
  373MOL0     C51356  11.616   2.037  11.675  0.8992 -0.1417  0.9680
  373MOL0     C51357  11.740   2.026  11.766  0.8485  0.9962 -0.1782
  373MOL0     C51358  11.729   1.907  11.856  0.3667  0.7789  0.8879
  373MOL0     C51359  11.845   1.896  11.953  0.2157  0.0897 -0.2681
  373MOL0     O51360  11.972   1.926  11.886  0.0072  0.3285  0.3010
  373MOL0     C51361  12.058   2.003  11.954 -0.1003  0.5381 -0.3786
  373MOL0     C51362  12.031   2.135  11.969 -0.1747 -0.0785 -0.4597
  373MOL0     C51363  12.123   2.229  12.020 -0.5729  0.4372  0.6857
  373MOL0     C51364  12.081   2.378  12.044  0.9655 -0.1138  1.0118
  373MOL0     C51365  12.247   2.179  12.055  0.0805 -0.4417  0.0350
  373MOL0     C51366  12.355   2.261  12.100  0.4308 -0.4978 -0.1787
  373MOL0     O51367  12.465   2.196  12.149 -0.8824  0.1676  0.4294
  373MOL0     C51368  12.569   2.261  12.212 -0.1849 -0.4278  0.5192
  373MOL0     C51369  12.599   2.258  12.343  0.1181  0.1312 -0.0091
  373MOL0     C51370  12.699   2.334  12.402  0.3889 -0.3044  0.6577
  373MOL0     C51371  12.774   2.419  12.321  0.0821  0.7006  0.4901
  373MOL0     O51372  12.863   2.506  12.368 -0.0849  0.5202  0.0164
  373MOL0     C51373  12.949   2.452  12.460 -0.3474 -0.6610  0.8004
  373MOL0     C51374  13.044   2.561  12.505  0.1448 -1.0835  0.3715
  373MOL0     C51375  13.144   2.501  12.603  0.5887 -0.5235  0.2417
  373MOL0     C51376  13.261   2.594  12.627 -0.1513 -0.2642  0.3205
  373MOL0     C51377  13.226   2.724  12.700 -0.7016  0.2939  0.1169
  373MOL0     C51378  13.350   2.787  12.763 -0.0252  0.1469  0.3888
  373MOL0     C51379  13.328   2.900  12.853 -0.0265 -1.3344  0.3800
  373MOL0     C51380  13.452   2.953  12.916 -0.0435  0.1767 -0.4405
  373MOL0    Cl51381  13.403   3.076  13.037 -0.2671 -0.1204  0.0369
  373MOL0     C51382  12.748   2.428  12.190 -0.7901 -0.1300  0.5525
  373MOL0     C51383  12.648   2.349  12.133  1.0695 -0.5350  0.2309
  373MOL0     O51384  12.346   2.386  12.086  0.0599 -0.5627  0.5524
  373MOL0     C51385  12.271   2.044  12.040  0.0586 -0.2777 -0.0029
  373MOL0     C51386  12.176   1.955  11.996 -1.2290 -0.0660  0.7480
  373MOL0     N51387  11.718   2.237  11.545 -0.2504 -0.3801 -0.7538
  373MOL0     N51388  11.706   2.295  11.433 -1.2093 -0.5238 -0.3731
  373MOL0     C51389  10.655   2.505  10.803 -0.4675 -0.4721  0.0189
  373MOL0     C51390  10.522   2.476  10.808  0.6893  0.6158 -1.2102
  373MOL0     C51391  10.053   2.591  10.802  0.2210  0.3558  0.0243
  373MOL0     C51392  10.016   2.504  10.903 -1.1101  0.4704  0.1731
  373MOL0     C51393   9.882   2.469  10.936 -0.7292 -0.8892 -0.7589
  373MOL0     C51394   9.784   2.544  10.880 -0.5603 -0.2638  0.3241
  373MOL0     O51395   9.659   2.511  10.915  0.4267  0.4055  0.8323
  373MOL0     C51396   9.557   2.613  10.884 -0.1548  0.0713  1.0622
  373MOL0     C51397   9.437   2.598  10.978  0.1398  0.0268  0.7219
  373MOL0     C51398   9.466   2.618  11.122  0.5250 -0.6458  0.7152
  373MOL0     C51399   9.389   2.743  11.181  0.1693  0.2282  0.2843
  373MOL0     C51400   9.440   2.858  11.112 -1.1620 -0.4456  0.6358
  373MOL0     C51401   9.489   2.952  11.047 -0.1087 -0.2649 -1.0587
  373MOL0     C51402   9.818   2.645  10.786  0.1036  0.0122 -0.7278
  373MOL0     C51403   9.945   2.672  10.747  1.7221  0.0736 -0.1682
  373MOL0     C51404   9.965   2.785  10.650 -0.6676 -0.2381  1.2801
  373MOL0     H51405  10.403   2.774  10.905 -0.3850  0.1280 -0.7494
  373MOL0     H51406  10.634   2.848  10.871 -1.4394  0.3815  0.7958
  373MOL0     H51407  10.873   2.576  11.008 -1.8028 -0.0667 -1.2750
  373MOL0     H51408  10.970   2.707  10.952  0.1429 -1.3916  1.1162
  373MOL0     H51409  10.971   2.457  10.797  1.6423 -0.0968 -0.3755
  373MOL0     H51410  11.076   2.589  10.778 -1.5579  0.7820 -0.6474
  373MOL0     H51411  11.071   2.405  11.033 -0.0952 -1.9311 -1.9955
  373MOL0     H51412  11.188   2.393  10.889 -1.4781 -0.1950 -2.0912
  373MOL0     H51413  11.306   2.584  10.959 -0.2614 -1.1429 -1.0232
  373MOL0     H51414  11.161   2.652  11.032 -0.7685 -0.5587  2.8974
  373MOL0     H51415  11.204   2.472  11.229  1.6312 -2.5325 -0.0625
  373MOL0     H51416  11.302   2.623  11.209  0.4403 -0.4773  0.2850
  373MOL0     H51417  11.363   2.358  11.086 -2.6967  0.0115  1.5915
  373MOL0     H51418  11.479   2.496  11.113  2.0575  0.5769  2.5355
  373MOL0     H51419  11.342   2.326  11.320  0.5434 -3.2688 -1.5790
  373MOL0     H51420  11.477   2.458  11.340 -0.4103  1.1398 -1.3454
  373MOL0     H51421  11.488   2.193  11.192  1.1159 -0.7306 -0.4441
  373MOL0     H51422  11.623   2.319  11.188  1.8520 -0.9976  2.5853
  373MOL0     H51423  11.476   2.060  11.432 -0.0181  0.5167  0.6109
  373MOL0     H51424  11.576   1.945  11.633 -1.7256  1.7386 -0.9574
  373MOL0     H51425  11.529   2.072  11.731  0.4583 -1.9289  1.4736
  373MOL0     H51426  11.831   2.009  11.707  0.4817 -1.0946 -0.2173
  373MOL0     H51427  11.739   2.111  11.834 -4.0391  0.0902  1.2746
  373MOL0     H51428  11.636   1.915  11.912 -0.2171  0.3001  0.0196
  373MOL0     H51429  11.710   1.823  11.787 -1.6247  2.1251 -0.3044
  373MOL0     H51430  11.824   1.961  12.039 -0.4707 -1.4942  0.8208
  373MOL0     H51431  11.866   1.796  11.991  1.6513 -0.6830 -2.8932
  373MOL0     H51432  11.928   2.155  11.939  0.0993 -1.1797 -2.3313
  373MOL0     H51433  12.090   2.422  12.144 -1.5658  0.7160  0.9567
  373MOL0     H51434  11.975   2.392  12.020  1.3847  0.5716 -0.5824
  373MOL0     H51435  12.118   2.434  11.958 -1.9055 -0.3285 -0.4851
  373MOL0     H51436  12.529   2.200  12.402 -1.5224 -1.8133 -3.5954
  373MOL0     H51437  12.720   2.345  12.508  1.2485 -0.9333  0.5643
  373MOL0     H51438  12.898   2.435  12.556 -0.5941 -0.8539  0.6359
  373MOL0     H51439  13.005   2.369  12.415 -4.4021 -1.1123 -4.3030
  373MOL0     H51440  13.096   2.605  12.420  1.2832 -4.5251 -0.9220
  373MOL0     H51441  12.980   2.631  12.558 -0.0513 -2.2638  1.7633
  373MOL0     H51442  13.190   2.413  12.556  2.5061  1.6798 -2.3205
  373MOL0     H51443  13.099   2.472  12.698 -0.5361 -5.1798 -1.4432
  373MOL0     H51444  13.325   2.613  12.541  1.1588 -2.2704  0.7725
  373MOL0     H51445  13.335   2.544  12.691 -1.0027 -1.0313  0.7414
  373MOL0     H51446  13.182   2.793  12.627 -1.4874 -0.0744  0.2252
  373MOL0     H51447  13.149   2.690  12.769  0.9150 -3.7276  0.2195
  373MOL0     H51448  13.423   2.808  12.683  0.1938 -0.0650  0.5312
  373MOL0     H51449  13.384   2.708  12.830 -1.7349 -0.0785  1.0316
  373MOL0     H51450  13.252   2.870  12.925  1.2585 -1.2026  1.8612
  373MOL0     H51451  13.273   2.974  12.795  1.1388 -1.3346 -0.7742
  373MOL0     H51452  13.521   2.997  12.844 -0.3952 -2.1180 -2.3072
  373MOL0     H51453  13.496   2.871  12.973 -1.2360 -2.3665 -2.9414
  373MOL0     H51454  12.809   2.492  12.127 -0.8015  1.3373  1.9595
  373MOL0     H51455  12.626   2.370  12.029 -3.8189  0.4759  1.2378
  373MOL0     H51456  12.369   2.001  12.059  1.1941  1.1011 -2.3096
  373MOL0     H51457  12.197   1.850  11.975 -2.2609  0.0570 -1.1155
  373MOL0     H51458  10.720   2.420  10.781 -0.7514 -1.3329  2.1906
  373MOL0     H51459  10.473   2.380  10.799 -1.2018  0.6860  4.5715
  373MOL0     H51460  10.095   2.440  10.940 -0.1892  1.7153  0.4430
  373MOL0     H51461   9.856   2.388  11.004  3.0855 -0.7391  1.1483
  373MOL0     H51462   9.598   2.713  10.902  1.1140 -1.0653  5.9639
  373MOL0     H51463   9.525   2.588  10.782  2.8989 -0.9162  0.2523
  373MOL0     H51464   9.386   2.502  10.966 -1.7130  1.0367  0.1342
  373MOL0     H51465   9.363   2.669  10.941  1.5725  0.6359 -1.1565
  373MOL0     H51466   9.438   2.533  11.186 -0.3679  1.5237  3.3970
  373MOL0     H51467   9.574   2.633  11.132  0.6544  0.6573 -1.8377
  373MOL0     H51468   9.404   2.755  11.289  0.6165 -0.3268  0.2869
  373MOL0     H51469   9.286   2.732  11.149  0.3135  0.9415 -0.4684
  373MOL0     H51470   9.514   3.045  11.000 -0.4932  0.3826 -0.0004
  373MOL0     H51471   9.738   2.700  10.737 -2.3384 -1.5573  1.1863
  373MOL0     H51472   9.873   2.843  10.649 -0.1252  0.6879  2.3868
  373MOL0     H51473  10.043   2.853  10.685  0.9377 -0.8826 -0.7868
  373MOL0     H51474   9.987   2.750  10.549 -1.6125 -0.3685  1.1128
  374MOL0     O51475   5.025   3.627   1.644  0.4137  0.4401 -0.1173
  374MOL0     C51476   5.141   3.635   1.620  0.8018  0.1058 -0.1108
  374MOL0     O51477   5.192   3.664   1.502  0.1015  0.1377 -0.1292
  374MOL0     C51478   5.102   3.677   1.398  0.3024  0.5667 -0.2342
  374MOL0     C51479   5.120   3.796   1.326  0.1883 -0.3601  0.4977
  374MOL0     C51480   5.039   3.822   1.214  0.5542  0.3474  0.4772
  374MOL0     C51481   4.953   3.720   1.168 -0.5820  0.6796 -0.4676
  374MOL0     O51482   4.877   3.737   1.055  0.3040 -0.4304 -0.2679
  374MOL0     C51483   4.839   3.874   1.026 -0.3552  0.1528  0.2412
  374MOL0     C51484   4.737   3.881   0.916 -0.2682 -0.3782  0.0043
  374MOL0     C51485   4.720   4.019   0.862  0.0664  0.3997  0.1018
  374MOL0     C51486   4.628   4.029   0.745  0.6255 -0.1400  0.9728
  374MOL0     C51487   4.636   4.157   0.662 -1.0318  0.3328 -0.5206
  374MOL0     C51488   4.627   4.285   0.746 -0.2040  0.3310 -0.2145
  374MOL0     C51489   4.747   4.378   0.722  0.5055 -0.6235  0.3098
  374MOL0     C51490   4.778   4.480   0.836 -0.1218  0.7714  0.1995
  374MOL0     N51491   4.896   4.556   0.801 -0.4091 -1.3192 -0.0811
  374MOL0     C51492   5.022   4.532   0.840  0.1708 -0.1456 -0.1574
  374MOL0     C51493   5.086   4.650   0.834 -0.9909 -0.1924  0.3924
  374MOL0     C51494   5.234   4.674   0.852 -0.0329  0.5756 -0.3405
  374MOL0     C51495   5.285   4.627   0.987 -0.0205 -0.5236 -0.0211
  374MOL0     C51496   5.245   4.722   1.098 -0.6476 -1.4227 -0.2804
  374MOL0     C51497   5.292   4.678   1.230 -0.4474  0.6538 -1.2337
  374MOL0     O51498   5.420   4.746   1.254 -0.0916 -0.0598  0.2172
  374MOL0     C51499   5.497   4.714   1.366  0.2812 -0.6105  1.0684
  374MOL0     C51500   5.465   4.618   1.461 -1.0296  0.2071  0.3853
  374MOL0     C51501   5.552   4.583   1.566  0.6284 -0.0571 -0.4323
  374MOL0     C51502   5.544   4.453   1.643  0.2194  0.7857  0.8465
  374MOL0     C51503   5.671   4.660   1.588 -0.2182  0.5989 -0.1580
  374MOL0     C51504   5.770   4.648   1.701 -0.0622 -0.1225 -0.6621
  374MOL0     O51505   5.890   4.693   1.677 -0.1632 -0.3760 -0.4065
  374MOL0     C51506   5.971   4.721   1.785  0.6955  0.0398 -0.5164
  374MOL0     C51507   6.015   4.852   1.788  0.2059  0.3237 -0.1684
  374MOL0     C51508   6.087   4.907   1.891  0.0622 -0.2379  0.6755
  374MOL0     C51509   6.138   4.819   1.993 -0.7932 -0.5538  1.4318
  374MOL0     O51510   6.206   4.879   2.090 -0.2288  0.0457  0.1737
  374MOL0     C51511   6.275   4.798   2.184 -0.1723  0.2649 -1.0821
  374MOL0     C51512   6.338   4.873   2.307  0.6767  0.6857 -0.1349
  374MOL0     C51513   6.465   4.947   2.276 -0.8661  0.2471 -0.0340
  374MOL0     C51514   6.459   5.057   2.174 -0.2961 -1.0031 -0.3911
  374MOL0     C51515   6.356   5.170   2.216  0.0445  0.1768 -0.4539
  374MOL0     C51516   6.380   5.295   2.114 -0.5130  0.4091  0.2126
  374MOL0     C51517   6.332   5.422   2.185 -0.2485 -0.0603 -0.2124
  374MOL0     C51518   6.442   5.491   2.266  1.2320  0.2585  1.1504
  374MOL0    Cl51519   6.393   5.668   2.300  0.4146 -0.2758 -0.4051
  374MOL0     C51520   6.110   4.680   1.981 -0.0825  1.0197 -0.1661
  374MOL0     C51521   6.030   4.640   1.880 -0.4707  0.0740 -0.6817
  374MOL0     O51522   5.733   4.617   1.820 -0.0686 -0.3243 -0.7451
  374MOL0     C51523   5.703   4.751   1.485  0.4774  1.0598  0.3003
  374MOL0     C51524   5.615   4.782   1.381  0.2034 -0.0284 -0.8401
  374MOL0     N51525   5.003   4.748   0.799 -0.0010 -0.1596  0.2062
  374MOL0     N51526   4.889   4.688   0.764 -0.6086 -0.1081 -0.3080
  374MOL0     C51527   4.945   3.607   1.233  0.2921  0.3441 -0.3766
  374MOL0     C51528   5.018   3.577   1.350  0.2769 -0.9653  0.5958
  374MOL0     C51529   5.232   3.649   1.740  0.6591  1.6619 -0.0917
  374MOL0     C51530   5.326   3.749   1.735 -0.6225  0.4125 -0.3326
  374MOL0     C51531   5.422   3.756   1.839  0.9351 -0.4925 -0.3907
  374MOL0     C51532   5.418   3.675   1.956 -0.2224 -0.5878  0.5081
  374MOL0     O51533   5.507   3.680   2.062 -0.0457 -0.2470 -0.7376
  374MOL0     C51534   5.635   3.753   2.052 -0.1749  0.2118  0.4609
  374MOL0     C51535   5.749   3.653   1.994  0.5928 -0.1522  0.2880
  374MOL0     C51536   5.699   3.569   1.875 -0.2616 -0.0812  0.7753
  374MOL0     C51537   5.809   3.501   1.794  0.3763 -0.0314  0.5609
  374MOL0     C51538   5.896   3.410   1.862 -1.0689  0.0358 -0.1436
  374MOL0     C51539   5.970   3.348   1.935 -0.0627 -0.3821  0.3711
  374MOL0     C51540   5.314   3.585   1.960  1.2876 -0.4559 -0.4290
  374MOL0     C51541   5.226   3.566   1.855 -0.7049 -0.5386 -0.6860
  374MOL0     C51542   5.115   3.471   1.888  0.1639  0.4125  0.1920
  374MOL0     H51543   5.190   3.870   1.363  1.0432 -0.4778 -0.8207
  374MOL0     H51544   5.043   3.922   1.170 -2.5751 -0.3917 -1.9222
  374MOL0     H51545   4.937   3.915   0.999  2.4616 -3.9419  3.1168
  374MOL0     H51546   4.806   3.924   1.118  2.2013  0.3011  1.1478
  374MOL0     H51547   4.777   3.819   0.835 -2.1162 -0.7159 -0.7047
  374MOL0     H51548   4.642   3.834   0.942  0.3472 -1.0427  1.1277
  374MOL0     H51549   4.682   4.084   0.941 -0.5451  1.7380 -1.2324
  374MOL0     H51550   4.820   4.049   0.828 -0.1176 -1.7796 -2.8016
  374MOL0     H51551   4.650   3.960   0.663  1.3496  1.7928 -0.5444
  374MOL0     H51552   4.523   4.022   0.775 -0.3662  3.0437 -1.1813
  374MOL0     H51553   4.555   4.161   0.589 -2.3334 -0.1381  0.8663
  374MOL0     H51554   4.732   4.155   0.608 -1.6616 -1.2799 -1.6360
  374MOL0     H51555   4.537   4.337   0.711 -0.6622 -0.0448  0.3809
  374MOL0     H51556   4.611   4.270   0.853 -1.0606  2.0623 -0.0549
  374MOL0     H51557   4.732   4.441   0.634  0.0011 -2.3885 -0.9149
  374MOL0     H51558   4.837   4.318   0.710  0.8712  0.1219 -0.8222
  374MOL0     H51559   4.697   4.548   0.861 -0.0923 -0.2158  3.3887
  374MOL0     H51560   4.805   4.413   0.919  3.4543  2.7216  0.8450
  374MOL0     H51561   5.069   4.434   0.852  0.4677 -0.0535 -0.5504
  374MOL0     H51562   5.266   4.776   0.834  0.4919  0.0776 -2.5133
  374MOL0     H51563   5.277   4.608   0.776  0.1048  0.7028 -0.3715
  374MOL0     H51564   5.243   4.530   1.016 -2.7829  0.9666  1.3809
  374MOL0     H51565   5.394   4.628   0.987  0.0290 -1.4523 -2.1888
  374MOL0     H51566   5.271   4.827   1.084 -2.5339 -0.7974  0.5038
  374MOL0     H51567   5.136   4.730   1.110 -0.5038 -0.5152  0.6168
  374MOL0     H51568   5.214   4.689   1.307  1.3634  0.1603  0.7901
  374MOL0     H51569   5.322   4.573   1.227 -1.3317  0.2464  1.3055
  374MOL0     H51570   5.370   4.566   1.449 -1.0537  0.0008  1.3967
  374MOL0     H51571   5.618   4.377   1.616  0.7359  0.8660  1.9755
  374MOL0     H51572   5.447   4.405   1.624 -0.0881  0.8457  2.1429
  374MOL0     H51573   5.553   4.465   1.751 -1.8387  1.9543  0.9330
  374MOL0     H51574   5.989   4.916   1.704  2.9111 -1.4679 -2.5788
  374MOL0     H51575   6.097   5.013   1.909  4.2504 -0.2993 -0.2361
  374MOL0     H51576   6.216   4.714   2.221  3.0188 -1.3331  0.7966
  374MOL0     H51577   6.357   4.746   2.135 -2.7295 -3.8827 -1.4302
  374MOL0     H51578   6.256   4.933   2.345  0.1885  1.2002 -1.8954
  374MOL0     H51579   6.360   4.794   2.379 -1.3355 -0.9836 -1.2181
  374MOL0     H51580   6.547   4.880   2.247 -0.9630 -1.1476  2.5836
  374MOL0     H51581   6.502   4.990   2.370  1.9825 -1.4515 -0.2414
  374MOL0     H51582   6.436   5.017   2.075  0.2550 -3.4033  0.3813
  374MOL0     H51583   6.558   5.103   2.168 -0.7349 -0.0168 -0.2506
  374MOL0     H51584   6.253   5.139   2.197 -0.8749  2.4664  0.3938
  374MOL0     H51585   6.377   5.194   2.320  1.0088  0.2332 -0.6471
  374MOL0     H51586   6.317   5.279   2.025  0.3480 -1.1179 -0.1474
  374MOL0     H51587   6.486   5.305   2.089 -0.9284 -1.2400 -2.7566
  374MOL0     H51588   6.240   5.411   2.243 -0.3477  2.3785  0.1832
  374MOL0     H51589   6.298   5.502   2.119  1.4418 -1.1247 -2.5042
  374MOL0     H51590   6.532   5.499   2.205  0.7234 -1.5740  0.0901
  374MOL0     H51591   6.480   5.435   2.352  1.0357  0.8556  1.6369
  374MOL0     H51592   6.152   4.613   2.055  0.0227  1.4133  0.1296
  374MOL0     H51593   6.024   4.531   1.879  3.2107 -0.3292  1.7711
  374MOL0     H51594   5.798   4.804   1.491  1.7832 -1.2963  3.5808
  374MOL0     H51595   5.628   4.866   1.314 -1.1886 -0.6478 -1.9609
  374MOL0     H51596   4.866   3.542   1.196  0.5405 -0.5904  0.6546
  374MOL0     H51597   5.025   3.486   1.408  0.2000 -0.3516  1.6074
  374MOL0     H51598   5.334   3.824   1.657  0.7026 -1.1011 -1.7315
  374MOL0     H51599   5.484   3.845   1.835  2.0040 -1.2168 -0.3943
  374MOL0     H51600   5.610   3.842   1.993  0.7841  0.8219  0.9370
  374MOL0     H51601   5.671   3.792   2.147  0.9297 -0.5417  0.3709
  374MOL0     H51602   5.773   3.578   2.069  0.6032 -0.1197  0.3169
  374MOL0     H51603   5.836   3.713   1.964 -0.1383  0.7882 -0.0167
  374MOL0     H51604   5.621   3.499   1.908  0.4548 -0.7977  1.0057
  374MOL0     H51605   5.659   3.636   1.799  3.1375  1.5818  0.2719
  374MOL0     H51606   5.877   3.577   1.754  0.0053  0.6443  1.1883
  374MOL0     H51607   5.761   3.440   1.717  3.3266  0.4516 -1.8584
  374MOL0     H51608   6.040   3.307   2.005  0.2686  0.8074  0.7607
  374MOL0     H51609   5.305   3.521   2.047 -2.3154 -1.6796 -1.5190
  374MOL0     H51610   5.068   3.440   1.794  1.3423  0.5187 -0.4444
  374MOL0     H51611   5.154   3.381   1.937  2.0733  0.5219 -1.0371
  374MOL0     H51612   5.043   3.518   1.955 -0.3668  0.2189 -0.2327
  375MOL0     O51613   5.391   8.654  11.010  0.0091  0.0553  0.1957
  375MOL0     C51614   5.292   8.623  10.945  0.3474 -0.6312  0.0350
  375MOL0     O51615   5.294   8.623  10.810 -0.1986 -0.1701 -0.1900
  375MOL0     C51616   5.413   8.623  10.743 -0.4283  0.3887  0.2160
  375MOL0     C51617   5.504   8.515  10.762 -0.3051 -0.2743 -0.7570
  375MOL0     C51618   5.622   8.512  10.693 -0.0439 -0.6751 -0.1639
  375MOL0     C51619   5.655   8.613  10.600 -0.4905 -0.3554  0.2931
  375MOL0     O51620   5.761   8.605  10.511 -0.1081  0.8080  0.2356
  375MOL0     C51621   5.854   8.494  10.529 -0.3577 -0.5142  0.7234
  375MOL0     C51622   5.959   8.512  10.413 -0.0316  0.1389 -0.5208
  375MOL0     C51623   6.062   8.399  10.414  0.6777 -0.1272  0.3702
  375MOL0     C51624   6.187   8.434  10.483  0.2193  0.3468 -0.5968
  375MOL0     C51625   6.288   8.319  10.467  1.0233 -0.4575  0.7197
  375MOL0     C51626   6.381   8.298  10.584  0.5726  1.3003  0.0390
  375MOL0     C51627   6.456   8.167  10.579  0.1756  0.0625  0.2579
  375MOL0     C51628   6.591   8.167  10.510 -0.6312 -0.5484  0.1243
  375MOL0     N51629   6.666   8.045  10.511 -0.4892  0.2431  0.0412
  375MOL0     C51630   6.640   7.923  10.449 -0.5132 -0.1689  0.0646
  375MOL0     C51631   6.734   7.834  10.501 -0.1980 -0.0512 -0.6967
  375MOL0     C51632   6.748   7.681  10.457 -0.0982 -0.5065  0.6886
  375MOL0     C51633   6.658   7.602  10.555  0.7499  0.2944 -0.3276
  375MOL0     C51634   6.690   7.454  10.566 -0.5115 -0.3785 -0.1832
  375MOL0     C51635   6.592   7.372  10.479 -0.1246 -0.5869 -0.0547
  375MOL0     O51636   6.584   7.418  10.340  0.5496  0.3080  0.0489
  375MOL0     C51637   6.663   7.363  10.248 -0.4385  0.7045  0.1329
  375MOL0     C51638   6.797   7.339  10.267 -0.6975 -0.0607  0.1079
  375MOL0     C51639   6.874   7.267  10.174  0.6173 -0.2802  0.3715
  375MOL0     C51640   7.021   7.267  10.200  0.3427  0.0542 -0.1025
  375MOL0     C51641   6.811   7.216  10.057 -0.6359 -0.1725 -0.5767
  375MOL0     C51642   6.878   7.146   9.954  0.2356 -0.1405  0.2835
  375MOL0     O51643   6.978   7.068   9.992 -0.8151 -0.9081 -0.2653
  375MOL0     C51644   7.043   6.991   9.895  0.2391  0.0682  0.0564
  375MOL0     C51645   6.981   6.879   9.829 -0.2984 -0.3577  0.1611
  375MOL0     C51646   7.060   6.795   9.754  0.6430  0.1484  0.3963
  375MOL0     C51647   7.192   6.817   9.734  0.0915 -0.1638  0.3812
  375MOL0     O51648   7.276   6.742   9.654  0.0805 -0.6306  0.2670
  375MOL0     C51649   7.235   6.612   9.627  1.7585 -0.1266  0.3278
  375MOL0     C51650   7.326   6.560   9.519  0.7523 -0.9687 -0.3403
  375MOL0     C51651   7.478   6.553   9.565  0.7699 -0.4342 -0.6691
  375MOL0     C51652   7.539   6.466   9.446  0.2012 -0.2606 -1.2747
  375MOL0     C51653   7.692   6.467   9.445 -0.3171  0.0037 -0.1079
  375MOL0     C51654   7.747   6.591   9.368 -0.3684 -0.2442 -0.5034
  375MOL0     C51655   7.740   6.592   9.208 -0.0861 -0.1904  0.1041
  375MOL0     C51656   7.863   6.644   9.127 -0.4216 -0.4359  0.2314
  375MOL0    Cl51657   7.998   6.515   9.122  0.2124 -0.4556 -0.2992
  375MOL0     C51658   7.247   6.927   9.790  0.2365  0.0023  0.0436
  375MOL0     C51659   7.173   7.020   9.867 -0.9189  0.3343  0.3854
  375MOL0     O51660   6.845   7.169   9.839  0.9999  0.4483 -0.2442
  375MOL0     C51661   6.679   7.256  10.029 -0.4828  0.3659  0.4238
  375MOL0     C51662   6.611   7.335  10.127 -0.1803 -0.2780 -0.1874
  375MOL0     N51663   6.814   7.902  10.586 -0.4580  0.2602  0.6690
  375MOL0     N51664   6.778   8.033  10.587 -0.3616  0.7038 -0.3821
  375MOL0     C51665   5.565   8.716  10.565  0.4140 -0.7302 -0.2872
  375MOL0     C51666   5.448   8.723  10.646 -0.6827  0.1669 -0.0148
  375MOL0     C51667   5.159   8.605  11.009  0.0470  0.1805  0.4441
  375MOL0     C51668   5.041   8.612  10.929  0.3137 -0.0545 -0.5746
  375MOL0     C51669   4.914   8.613  10.985 -0.2608  0.1870  0.0140
  375MOL0     C51670   4.888   8.607  11.119 -0.0077 -0.5540 -0.3913
  375MOL0     O51671   4.759   8.590  11.158  0.2804 -0.0732  0.1514
  375MOL0     C51672   4.669   8.701  11.129 -1.1598 -0.6685 -0.0458
  375MOL0     C51673   4.540   8.652  11.067  0.0236  0.1496 -0.3256
  375MOL0     C51674   4.494   8.515  11.122 -0.2050  0.3942  0.3631
  375MOL0     C51675   4.346   8.486  11.105  0.4463  1.3707 -0.3716
  375MOL0     C51676   4.334   8.361  11.022 -0.0280  1.4674 -0.0582
  375MOL0     C51677   4.328   8.237  10.982  0.0742 -0.8303 -1.4609
  375MOL0     C51678   5.003   8.606  11.200 -0.6799  0.4821 -1.2353
  375MOL0     C51679   5.132   8.602  11.150 -0.6486  0.7097  0.7179
  375MOL0     C51680   5.241   8.569  11.250 -0.1054 -1.0407 -0.2051
  375MOL0     H51681   5.471   8.440  10.832  2.5319  0.4856  1.5785
  375MOL0     H51682   5.688   8.428  10.714 -0.0782 -1.2851 -2.2463
  375MOL0     H51683   5.803   8.398  10.526 -0.1547 -0.6459  1.3259
  375MOL0     H51684   5.905   8.496  10.626 -0.0926 -1.0830  0.5987
  375MOL0     H51685   5.910   8.502  10.315  1.0103  0.8607 -1.1353
  375MOL0     H51686   6.007   8.610  10.413 -2.2744  1.3484 -2.0031
  375MOL0     H51687   6.011   8.314  10.460  0.9176  0.7969  2.5113
  375MOL0     H51688   6.100   8.385  10.313  1.8573 -1.8196  1.0043
  375MOL0     H51689   6.232   8.532  10.462  1.5682  0.0135  0.5721
  375MOL0     H51690   6.161   8.435  10.589  3.3898 -4.1836  0.5009
  375MOL0     H51691   6.353   8.333  10.380 -0.0811  0.6847  0.0354
  375MOL0     H51692   6.232   8.229  10.443 -0.8556  0.5924  0.9803
  375MOL0     H51693   6.455   8.378  10.599  1.8238 -0.0129  1.2659
  375MOL0     H51694   6.327   8.303  10.679 -0.5398  2.1851 -0.6112
  375MOL0     H51695   6.383   8.100  10.532  0.9924 -1.8206  1.5376
  375MOL0     H51696   6.492   8.128  10.675  3.6592 -1.2231 -1.4436
  375MOL0     H51697   6.580   8.192  10.405 -0.3718 -1.7636 -0.2066
  375MOL0     H51698   6.652   8.240  10.564 -0.8539 -0.6974  0.5883
  375MOL0     H51699   6.563   7.914  10.373  1.1275  1.9355 -1.9901
  375MOL0     H51700   6.852   7.650  10.470 -0.5151 -2.1306  0.4157
  375MOL0     H51701   6.711   7.664  10.355 -2.7881  0.0199  1.4767
  375MOL0     H51702   6.674   7.649  10.653 -0.9911  2.2740 -0.9128
  375MOL0     H51703   6.551   7.613  10.534  0.1310  2.0514  2.8984
  375MOL0     H51704   6.797   7.432  10.565 -0.1740  1.1661 -0.4324
  375MOL0     H51705   6.672   7.443  10.673 -3.9075 -0.6694 -0.6812
  375MOL0     H51706   6.628   7.269  10.489  4.2612  0.8209  0.8990
  375MOL0     H51707   6.495   7.382  10.528 -0.7137 -0.1176 -1.2799
  375MOL0     H51708   6.850   7.366  10.358  0.2509  2.9961 -1.2275
  375MOL0     H51709   7.050   7.288  10.303  0.0101 -0.7202  0.1603
  375MOL0     H51710   7.067   7.337  10.130  2.6007 -1.6836 -0.4545
  375MOL0     H51711   7.066   7.169  10.183 -0.2488 -0.2294 -0.0904
  375MOL0     H51712   6.874   6.859   9.822 -0.4167  0.6752 -1.6741
  375MOL0     H51713   7.007   6.710   9.712 -1.7464  1.3591  0.7896
  375MOL0     H51714   7.240   6.549   9.716 -0.8988 -0.3477  0.3918
  375MOL0     H51715   7.130   6.596   9.600  1.9481 -2.9430  0.9057
  375MOL0     H51716   7.286   6.461   9.495  0.8373 -0.1742 -4.5174
  375MOL0     H51717   7.324   6.613   9.423  1.5328  0.7601  0.5510
  375MOL0     H51718   7.490   6.514   9.666 -0.6197  1.6759  0.3822
  375MOL0     H51719   7.523   6.652   9.573  1.9510 -1.0251  0.2046
  375MOL0     H51720   7.499   6.498   9.349 -2.2798  0.6327 -0.0405
  375MOL0     H51721   7.514   6.361   9.465  1.6772 -1.0189 -3.1833
  375MOL0     H51722   7.740   6.479   9.542  3.7169 -0.5710 -1.8257
  375MOL0     H51723   7.733   6.374   9.402  1.1206  1.4439 -2.0265
  375MOL0     H51724   7.855   6.580   9.386 -0.5624 -1.3567  0.0814
  375MOL0     H51725   7.720   6.679   9.426 -0.4994 -0.0402 -0.8700
  375MOL0     H51726   7.656   6.651   9.170  0.0267 -1.8262 -2.9986
  375MOL0     H51727   7.717   6.493   9.167 -0.8841  0.5544 -1.3268
  375MOL0     H51728   7.898   6.738   9.172 -3.5984  0.2393  1.5771
  375MOL0     H51729   7.827   6.655   9.024 -1.9399 -0.8334  0.6936
  375MOL0     H51730   7.352   6.944   9.770  0.2444 -0.4443 -0.3248
  375MOL0     H51731   7.227   7.105   9.908 -1.4001  1.5036 -1.3239
  375MOL0     H51732   6.641   7.233   9.930  2.0363  0.9827 -0.7741
  375MOL0     H51733   6.503   7.351  10.122 -0.0555  0.4459 -0.6956
  375MOL0     H51734   5.597   8.784  10.487 -0.0606 -0.5390 -0.3194
  375MOL0     H51735   5.379   8.806  10.634 -1.2047 -0.3249 -0.4027
  375MOL0     H51736   5.049   8.629  10.823 -0.5838 -0.9731 -0.8053
  375MOL0     H51737   4.834   8.606  10.912 -0.9011  1.0882  0.6113
  375MOL0     H51738   4.646   8.748  11.225  0.6977 -1.8939  1.0556
  375MOL0     H51739   4.721   8.771  11.063  1.6674 -0.9250  1.7505
  375MOL0     H51740   4.560   8.647  10.960  0.3651  1.9629 -0.3653
  375MOL0     H51741   4.465   8.728  11.091  2.7114  3.2067 -1.0038
  375MOL0     H51742   4.548   8.444  11.060 -0.7148  1.1449 -0.9871
  375MOL0     H51743   4.512   8.501  11.229 -0.4413  1.5579  0.5674
  375MOL0     H51744   4.292   8.564  11.050  0.2956  0.8326 -1.0058
  375MOL0     H51745   4.288   8.482  11.197 -0.9124 -2.8089 -1.2028
  375MOL0     H51746   4.336   8.138  10.942 -0.8220 -1.0772 -1.0582
  375MOL0     H51747   5.000   8.590  11.307  2.9793  0.4153 -1.0320
  375MOL0     H51748   5.260   8.670  11.287  0.3278 -0.7043 -1.3131
  375MOL0     H51749   5.202   8.517  11.339 -2.7873  2.4256  0.8760
  375MOL0     H51750   5.328   8.517  11.211  0.3382 -1.6008  1.4461
  376MOL0     O51751   5.622   1.520   1.100 -1.2505 -0.0944  0.6863
  376MOL0     C51752   5.715   1.606   1.099  0.5672  0.5730  0.0587
  376MOL0     O51753   5.687   1.744   1.125  0.9763  0.4388  0.7566
  376MOL0     C51754   5.547   1.768   1.129  0.5962 -0.5249  0.6272
  376MOL0     C51755   5.486   1.830   1.016  0.5297  0.6392 -0.1501
  376MOL0     C51756   5.351   1.849   1.020  0.9896  0.1051 -0.5397
  376MOL0     C51757   5.265   1.812   1.121  0.5715 -0.4641  0.6809
  376MOL0     O51758   5.122   1.829   1.098 -1.2456  0.4265 -0.0752
  376MOL0     C51759   5.029   1.822   1.206 -1.0608 -0.0283  0.0816
  376MOL0     C51760   4.888   1.835   1.153 -0.4488 -0.7854  0.7259
  376MOL0     C51761   4.872   1.958   1.064 -0.5315  0.8715  0.8226
  376MOL0     C51762   4.727   2.001   1.042  0.9043  0.9361 -0.0024
  376MOL0     C51763   4.622   1.888   1.007 -0.3341  0.0047 -0.3479
  376MOL0     C51764   4.641   1.835   0.859  0.5238 -0.0620 -0.1958
  376MOL0     C51765   4.513   1.756   0.813  0.4748 -0.4770  0.0116
  376MOL0     C51766   4.538   1.705   0.679 -1.5512  0.0435 -0.3095
  376MOL0     N51767   4.636   1.598   0.670 -0.5703  0.5516 -0.8338
  376MOL0     C51768   4.605   1.469   0.652 -0.1680 -0.8387  0.3057
  376MOL0     C51769   4.722   1.397   0.631  0.3924  1.5541 -0.6772
  376MOL0     C51770   4.736   1.243   0.614  0.0124 -0.3679  0.2276
  376MOL0     C51771   4.651   1.169   0.511  0.1063 -0.3854 -0.8136
  376MOL0     C51772   4.633   1.022   0.564 -0.0074 -0.5852  0.0421
  376MOL0     C51773   4.514   0.955   0.490 -0.2026  0.3040 -1.3211
  376MOL0     O51774   4.402   1.024   0.548 -0.1925  0.6452 -0.4977
  376MOL0     C51775   4.276   1.023   0.495 -0.5716  0.9535  0.4677
  376MOL0     C51776   4.233   0.925   0.405 -0.6485 -0.3408 -0.1307
  376MOL0     C51777   4.102   0.921   0.363  0.2425 -0.2786  0.0261
  376MOL0     C51778   4.058   0.809   0.276  0.6882 -0.0253  0.3436
  376MOL0     C51779   4.015   1.026   0.400 -0.1098  0.4165  0.8586
  376MOL0     C51780   3.876   1.030   0.361  0.4419 -0.2906  0.0963
  376MOL0     O51781   3.837   1.146   0.299 -0.0684 -0.8391 -0.0430
  376MOL0     C51782   3.700   1.161   0.266  0.3391 -0.6304  0.3684
  376MOL0     C51783   3.623   1.248   0.346 -0.0112  1.0422 -0.4464
  376MOL0     C51784   3.493   1.281   0.313  0.2253  0.0868 -0.9382
  376MOL0     C51785   3.439   1.246   0.186  0.5925  0.2919 -1.0191
  376MOL0     O51786   3.322   1.300   0.140 -0.5202 -0.0553  0.0340
  376MOL0     C51787   3.218   1.206   0.132 -0.9143  0.0267  0.1695
  376MOL0     C51788   3.192   1.177  -0.013 -1.0209 -0.0511 -1.3985
  376MOL0     C51789   3.160   1.297  -0.094  0.0643 -0.8401  0.9167
  376MOL0     C51790   3.123   1.262  -0.238 -0.2149 -0.0320 -0.2736
  376MOL0     C51791   2.992   1.190  -0.254  0.5902 -0.9192 -1.1412
  376MOL0     C51792   2.976   1.151  -0.404  1.7924  0.0904  0.2028
  376MOL0     C51793   2.842   1.210  -0.464  0.2798  0.5788 -0.3071
  376MOL0     C51794   2.851   1.363  -0.486  0.7468 -0.0136 -0.8493
  376MOL0    Cl51795   2.953   1.394  -0.625 -0.0878  0.1064  0.6863
  376MOL0     C51796   3.524   1.167   0.105 -0.2049 -0.5401 -0.1479
  376MOL0     C51797   3.652   1.131   0.139  0.2475  0.4293 -0.7052
  376MOL0     O51798   3.818   0.927   0.366  0.2933  0.7576  0.6370
  376MOL0     C51799   4.065   1.119   0.486 -1.1842  0.5467 -0.6457
  376MOL0     C51800   4.191   1.118   0.532 -0.3680 -0.4690 -0.2452
  376MOL0     N51801   4.823   1.487   0.620  0.6066  0.2803  1.3874
  376MOL0     N51802   4.771   1.610   0.643  0.7815 -0.2807  0.0358
  376MOL0     C51803   5.327   1.776   1.239 -1.0040 -0.0335  0.0510
  376MOL0     C51804   5.464   1.752   1.236  0.0420  0.2878  0.0874
  376MOL0     C51805   5.851   1.555   1.068 -0.5423 -0.3477 -0.0463
  376MOL0     C51806   5.958   1.648   1.084  0.5658 -0.1753 -0.1482
  376MOL0     C51807   6.092   1.616   1.053  0.7077 -0.0927 -0.4354
  376MOL0     C51808   6.118   1.487   1.010  0.6680 -0.3298 -0.0270
  376MOL0     O51809   6.242   1.440   0.975 -1.1941  0.2841 -0.1177
  376MOL0     C51810   6.358   1.528   0.971  0.0969  0.7647 -0.2115
  376MOL0     C51811   6.476   1.435   0.913 -0.5762 -0.5119 -0.2931
  376MOL0     C51812   6.467   1.430   0.752  0.6925  0.1014 -0.5737
  376MOL0     C51813   6.591   1.360   0.680  0.4015 -1.0609 -0.3030
  376MOL0     C51814   6.580   1.216   0.699  0.0842  0.0683  0.5992
  376MOL0     C51815   6.561   1.097   0.702  0.7852 -0.2650  0.2017
  376MOL0     C51816   6.011   1.394   0.993  0.2432 -0.4412 -0.4698
  376MOL0     C51817   5.878   1.426   1.009  1.7866  0.6131  0.3540
  376MOL0     C51818   5.775   1.319   0.986  0.0424 -0.4446 -0.7169
  376MOL0     H51819   5.532   1.875   0.928 -2.1086  3.4606 -0.2593
  376MOL0     H51820   5.299   1.887   0.933 -0.6078 -2.1894 -0.6633
  376MOL0     H51821   5.050   1.886   1.292 -0.1196 -0.6520  0.3318
  376MOL0     H51822   5.028   1.721   1.247 -1.1858 -0.6183 -1.2980
  376MOL0     H51823   4.866   1.753   1.083 -1.1510  0.5047 -0.6119
  376MOL0     H51824   4.812   1.837   1.231  0.1688 -0.1390  1.3233
  376MOL0     H51825   4.934   2.035   1.112  5.0860 -0.8385 -2.6280
  376MOL0     H51826   4.917   1.937   0.967 -1.1897 -1.8931  1.0483
  376MOL0     H51827   4.690   2.043   1.136 -2.3761 -0.3402 -0.5857
  376MOL0     H51828   4.724   2.084   0.971 -3.3971  0.5641 -0.5031
  376MOL0     H51829   4.517   1.915   1.018 -0.9543 -2.2798 -0.0087
  376MOL0     H51830   4.632   1.806   1.079  0.2755  1.2833  1.0874
  376MOL0     H51831   4.657   1.914   0.785  0.7342 -0.1123 -0.2039
  376MOL0     H51832   4.733   1.777   0.849  0.2963  0.0297 -5.8477
  376MOL0     H51833   4.429   1.826   0.818  0.9180  0.0017  2.4016
  376MOL0     H51834   4.481   1.677   0.881 -2.1692 -0.5970 -1.2744
  376MOL0     H51835   4.444   1.667   0.637 -0.2948  0.2967 -3.7199
  376MOL0     H51836   4.576   1.783   0.613 -4.1534  1.9185  0.2639
  376MOL0     H51837   4.507   1.424   0.666 -0.8348  0.3882 -0.2823
  376MOL0     H51838   4.710   1.200   0.711 -0.3115 -1.4852 -0.3384
  376MOL0     H51839   4.840   1.221   0.587  0.4530  0.6720  1.0242
  376MOL0     H51840   4.556   1.221   0.493  0.5528 -0.0449 -2.3380
  376MOL0     H51841   4.679   1.155   0.406 -4.6070 -2.6199 -2.0864
  376MOL0     H51842   4.722   0.967   0.533  0.8710  1.0765 -0.5476
  376MOL0     H51843   4.627   1.015   0.673  2.3493  2.6153  0.5061
  376MOL0     H51844   4.520   0.961   0.381 -0.0392 -0.6300 -1.3701
  376MOL0     H51845   4.516   0.849   0.516  0.3177  0.7937  0.7806
  376MOL0     H51846   4.287   0.838   0.367 -4.0406 -1.9148 -1.8235
  376MOL0     H51847   3.970   0.839   0.219  0.1446 -2.4244 -0.1933
  376MOL0     H51848   4.022   0.724   0.334 -2.9936 -0.0041 -1.6182
  376MOL0     H51849   4.143   0.784   0.212  0.6374  2.3574 -0.7729
  376MOL0     H51850   3.660   1.293   0.438 -0.1132 -2.0403  1.2559
  376MOL0     H51851   3.438   1.345   0.382  1.0684  0.7454 -0.8715
  376MOL0     H51852   3.237   1.120   0.197  0.0715  0.3047  0.2611
  376MOL0     H51853   3.130   1.255   0.174 -0.4117  0.9719  0.1547
  376MOL0     H51854   3.275   1.119  -0.056 -3.2496 -2.7367 -2.4169
  376MOL0     H51855   3.101   1.117  -0.016 -0.3619 -1.0661 -2.1279
  376MOL0     H51856   3.235   1.377  -0.099  0.4936 -1.3305 -2.3115
  376MOL0     H51857   3.086   1.360  -0.044  0.7625 -0.3868  1.4094
  376MOL0     H51858   3.213   1.216  -0.282 -0.0095 -1.5619  1.6217
  376MOL0     H51859   3.110   1.352  -0.299  1.2932  0.5554  0.2215
  376MOL0     H51860   2.991   1.095  -0.200  0.1965  0.0063  0.5348
  376MOL0     H51861   2.915   1.259  -0.219  3.0372  2.5714 -2.1936
  376MOL0     H51862   2.963   1.043  -0.404 -1.4204  0.3467 -1.0426
  376MOL0     H51863   3.058   1.195  -0.461  0.7554  2.4309  0.3954
  376MOL0     H51864   2.768   1.190  -0.386  0.6667  1.5611  0.3268
  376MOL0     H51865   2.809   1.167  -0.559  0.6321  3.0300 -1.6119
  376MOL0     H51866   2.882   1.427  -0.403  0.4196 -2.6936  1.4882
  376MOL0     H51867   2.752   1.400  -0.516  0.3173  1.0607  1.6344
  376MOL0     H51868   3.497   1.153   0.001  2.6533  3.9590 -1.7698
  376MOL0     H51869   3.712   1.086   0.061  2.0524  1.0736  0.2459
  376MOL0     H51870   4.001   1.200   0.520  0.4984  2.2635 -1.3944
  376MOL0     H51871   4.233   1.191   0.601 -0.4356  0.8443 -1.5434
  376MOL0     H51872   5.267   1.748   1.326  1.4200  0.1700  1.8878
  376MOL0     H51873   5.505   1.717   1.330  0.4051  1.3716  0.3478
  376MOL0     H51874   5.940   1.747   1.126  4.0974  0.1680  0.8805
  376MOL0     H51875   6.170   1.691   1.053  0.4743  0.1530 -0.7276
  376MOL0     H51876   6.333   1.622   0.920 -1.9664  0.7479  0.6753
  376MOL0     H51877   6.376   1.548   1.077  2.3204 -3.4546  0.4023
  376MOL0     H51878   6.468   1.332   0.950 -0.5608 -1.8564 -3.6521
  376MOL0     H51879   6.573   1.473   0.947 -0.7048 -2.2587  2.3800
  376MOL0     H51880   6.375   1.372   0.739  2.2744 -2.9667  0.8897
  376MOL0     H51881   6.452   1.532   0.715  0.3953 -0.7541 -3.0396
  376MOL0     H51882   6.674   1.402   0.737 -2.2441  1.7043  1.7954
  376MOL0     H51883   6.580   1.397   0.578  1.5312 -2.6044 -1.0349
  376MOL0     H51884   6.549   0.991   0.709 -1.8442  0.0141  0.9824
  376MOL0     H51885   6.021   1.295   0.950  0.5407 -0.3839 -0.5293
  376MOL0     H51886   5.754   1.276   1.085 -1.1076  1.9190  0.1305
  376MOL0     H51887   5.682   1.351   0.939 -0.9540  0.5696  1.7432
  376MOL0     H51888   5.816   1.240   0.922  1.8125  0.0953 -0.2778
  377MOL0     O51889   0.082   8.399   9.556 -0.2976  0.4906 -0.5225
  377MOL0     C51890   0.021   8.293   9.558  0.4709 -0.6231  0.1007
  377MOL0     O51891   0.040   8.195   9.652  0.5946 -0.0937  0.2157
  377MOL0     C51892   0.154   8.191   9.727  0.0635 -0.4914  0.2743
  377MOL0     C51893   0.290   8.184   9.669  0.4532  0.3670  0.7170
  377MOL0     C51894   0.406   8.202   9.746  0.4721  0.3630 -0.0336
  377MOL0     C51895   0.395   8.200   9.886 -0.0168 -0.2916 -0.5394
  377MOL0     O51896   0.511   8.213   9.962 -0.7020  0.1480  0.5129
  377MOL0     C51897   0.508   8.262  10.097  0.3927 -0.5697 -1.0054
  377MOL0     C51898   0.664   8.263  10.132  0.1334 -0.4888  0.3684
  377MOL0     C51899   0.694   8.343  10.261  0.0156 -0.1190 -0.9578
  377MOL0     C51900   0.840   8.387  10.245 -0.0376 -0.0879 -0.3958
  377MOL0     C51901   0.904   8.420  10.382  0.5896 -0.7087 -0.7584
  377MOL0     C51902   0.950   8.292  10.448 -0.2550  0.0244  0.1921
  377MOL0     C51903   0.953   8.315  10.600 -0.4474  0.5308 -0.2406
  377MOL0     C51904   0.853   8.225  10.658 -0.1515 -0.2082 -0.3876
  377MOL0     N51905   0.709   8.270  10.647 -0.4138  0.6063  0.0041
  377MOL0     C51906   0.604   8.184  10.635  0.1710 -0.7139  0.9879
  377MOL0     C51907   0.497   8.263  10.644 -0.2745 -0.4886 -0.0739
  377MOL0     C51908   0.362   8.218  10.599 -0.3919 -0.7192  0.7090
  377MOL0     C51909   0.246   8.316  10.654 -0.1460 -0.1006  0.2301
  377MOL0     C51910   0.241   8.308  10.807 -0.2701 -0.2831  0.9097
  377MOL0     C51911   0.116   8.369  10.863 -0.6589  1.0366 -0.2529
  377MOL0     O51912   0.117   8.375  11.004  0.0099 -0.0222 -0.0535
  377MOL0     C51913   0.013   8.422  11.068  0.4808 -0.5950 -0.6507
  377MOL0     C51914   0.008   8.405  11.208  0.2760 -0.3224  0.5090
  377MOL0     C51915  -0.103   8.443  11.284 -0.2111 -0.0366 -0.0270
  377MOL0     C51916  -0.098   8.408  11.426  0.2113 -0.5140  0.3049
  377MOL0     C51917  -0.219   8.496  11.223  0.0864  0.1357  0.0395
  377MOL0     C51918  -0.340   8.545  11.302  0.5066  0.6101 -0.7158
  377MOL0     O51919  -0.453   8.487  11.271 -0.5803  0.0011 -1.3155
  377MOL0     C51920  -0.567   8.493  11.343  0.1852  0.0047 -0.2813
  377MOL0     C51921  -0.688   8.541  11.296 -0.3143  0.1942  0.3594
  377MOL0     C51922  -0.801   8.543  11.371 -0.2070 -0.1382 -0.2775
  377MOL0     C51923  -0.799   8.494  11.504  0.4208  0.0888  0.8009
  377MOL0     O51924  -0.910   8.501  11.579  0.4555  0.5026 -0.3834
  377MOL0     C51925  -0.968   8.373  11.612  0.2705  0.5414  0.2363
  377MOL0     C51926  -1.119   8.362  11.576  0.6090  0.0050  0.2211
  377MOL0     C51927  -1.171   8.216  11.583  0.2565 -0.3994  0.1960
  377MOL0     C51928  -1.191   8.144  11.717 -0.6293  0.3668  0.1721
  377MOL0     C51929  -1.265   8.010  11.711 -0.3722 -0.6432  0.0764
  377MOL0     C51930  -1.309   7.946  11.842  0.2596 -0.5886  0.3218
  377MOL0     C51931  -1.411   8.024  11.913 -0.0215 -0.0827  0.5586
  377MOL0     C51932  -1.460   7.976  12.056 -0.2268 -0.2802 -0.0514
  377MOL0    Cl51933  -1.521   7.807  12.038  0.2036 -0.0082  0.1352
  377MOL0     C51934  -0.680   8.451  11.560  0.0949 -0.3239 -0.3716
  377MOL0     C51935  -0.567   8.436  11.474  0.5305  0.1308 -0.6003
  377MOL0     O51936  -0.318   8.617  11.403  0.1288  0.6081  1.0513
  377MOL0     C51937  -0.220   8.512  11.081 -0.2899 -0.6263 -0.3120
  377MOL0     C51938  -0.112   8.464  11.006  0.9343  0.2866 -0.1567
  377MOL0     N51939   0.530   8.397  10.673  0.0028  0.5880 -0.5933
  377MOL0     N51940   0.658   8.393  10.671 -0.2310  0.3224  0.4664
  377MOL0     C51941   0.266   8.189   9.944  0.0661 -0.1524 -0.3803
  377MOL0     C51942   0.148   8.186   9.864 -0.1376  0.7809 -0.5675
  377MOL0     C51943  -0.050   8.254   9.437  0.8531 -1.0674  0.2104
  377MOL0     C51944   0.019   8.195   9.327 -0.5420  0.2409 -0.6978
  377MOL0     C51945  -0.050   8.141   9.215  0.0569  1.0490  0.5716
  377MOL0     C51946  -0.190   8.127   9.208 -0.5383 -0.4889 -1.3690
  377MOL0     O51947  -0.260   8.081   9.095  0.0231  0.0074 -0.4331
  377MOL0     C51948  -0.187   8.022   8.993 -0.1500 -0.9924 -0.2753
  377MOL0     C51949  -0.164   7.874   9.019 -0.6153  0.1407  0.4027
  377MOL0     C51950  -0.130   7.774   8.901  0.1776  0.1895 -0.2794
  377MOL0     C51951  -0.034   7.822   8.790 -0.7178 -0.2640  0.3542
  377MOL0     C51952   0.080   7.875   8.872 -0.5739 -0.0752  0.8135
  377MOL0     C51953   0.167   7.904   8.953  0.7928  0.2049 -0.3409
  377MOL0     C51954  -0.260   8.179   9.320 -1.1474 -0.3224 -0.5625
  377MOL0     C51955  -0.196   8.245   9.431 -0.3993 -0.3037 -0.4340
  377MOL0     C51956  -0.270   8.276   9.552 -0.9444 -0.5933  0.7120
  377MOL0     H51957   0.294   8.184   9.561  3.3372  2.9226  0.6976
  377MOL0     H51958   0.503   8.196   9.699 -0.5673  2.8637 -2.8462
  377MOL0     H51959   0.454   8.197  10.166  2.4290  2.0194  3.4593
  377MOL0     H51960   0.470   8.363  10.117 -2.7331 -1.7405 -0.4665
  377MOL0     H51961   0.700   8.160  10.147 -0.6622 -0.6085  1.6655
  377MOL0     H51962   0.709   8.301  10.041  1.2999  0.2000  1.2011
  377MOL0     H51963   0.637   8.435  10.276  0.3896 -0.2843  2.0988
  377MOL0     H51964   0.666   8.288  10.351 -0.8661  3.1107  0.9084
  377MOL0     H51965   0.911   8.323  10.191  2.6398 -0.0122  2.7365
  377MOL0     H51966   0.850   8.485  10.198 -0.0146 -0.1792 -0.5852
  377MOL0     H51967   0.838   8.481  10.444 -0.3164 -1.6768 -0.7533
  377MOL0     H51968   0.993   8.481  10.366  2.6390 -3.4102 -0.4869
  377MOL0     H51969   0.885   8.210  10.416 -0.9578  0.7124 -0.1831
  377MOL0     H51970   1.049   8.277  10.404 -0.1431  0.5257  0.2703
  377MOL0     H51971   0.943   8.419  10.635 -3.0005 -0.4366  2.2919
  377MOL0     H51972   1.049   8.290  10.646  0.5211 -1.1875 -2.9459
  377MOL0     H51973   0.862   8.127  10.610  1.3475 -1.7075  2.6420
  377MOL0     H51974   0.877   8.210  10.764  0.8727  2.0297 -0.2411
  377MOL0     H51975   0.601   8.084  10.595 -1.8993 -0.4199  0.2884
  377MOL0     H51976   0.339   8.114  10.626  2.6835 -1.5593  0.4776
  377MOL0     H51977   0.364   8.220  10.489  1.4636 -0.5865  0.7094
  377MOL0     H51978   0.255   8.421  10.624 -0.4324  0.6010  2.4173
  377MOL0     H51979   0.152   8.278  10.613  1.0240  0.0791 -2.8814
  377MOL0     H51980   0.248   8.203  10.836 -1.1847 -1.1534 -1.7730
  377MOL0     H51981   0.327   8.362  10.850  1.8615 -1.5463 -1.4964
  377MOL0     H51982   0.112   8.472  10.828 -3.0640  0.0028 -3.6223
  377MOL0     H51983   0.032   8.315  10.818  0.1822  0.1324 -0.7738
  377MOL0     H51984   0.100   8.373  11.257  3.1038  3.9224 -1.4319
  377MOL0     H51985  -0.190   8.374  11.475 -0.3347  0.1297 -0.2599
  377MOL0     H51986  -0.065   8.495  11.483 -0.1125  0.2501 -0.6595
  377MOL0     H51987  -0.020   8.333  11.443  0.8553  0.3908  1.5063
  377MOL0     H51988  -0.698   8.569  11.192  0.1383 -2.0292 -0.3419
  377MOL0     H51989  -0.896   8.580  11.334 -0.1826 -1.1400 -1.4072
  377MOL0     H51990  -0.909   8.298  11.560 -1.1846  1.0452 -2.2933
  377MOL0     H51991  -0.960   8.353  11.719 -1.2146  0.2118  0.3106
  377MOL0     H51992  -1.180   8.420  11.646 -0.4458 -0.5997 -0.1774
  377MOL0     H51993  -1.133   8.385  11.470  1.3100  2.2874  0.5762
  377MOL0     H51994  -1.100   8.155  11.527 -0.3269 -2.2973  1.4664
  377MOL0     H51995  -1.269   8.212  11.534 -0.7479 -1.5231  2.1858
  377MOL0     H51996  -1.257   8.203  11.781  0.0130  0.2983  0.9162
  377MOL0     H51997  -1.094   8.132  11.766 -1.8561  0.6170  2.8251
  377MOL0     H51998  -1.354   8.016  11.647  0.9141 -1.4145 -1.8936
  377MOL0     H51999  -1.201   7.938  11.659 -0.6847 -1.9316  1.4039
  377MOL0     H52000  -1.214   7.918  11.889 -0.2008 -4.2135 -0.5601
  377MOL0     H52001  -1.342   7.845  11.815  0.2127 -0.1615 -1.2823
  377MOL0     H52002  -1.496   8.037  11.845  1.0923  1.9488 -0.5133
  377MOL0     H52003  -1.374   8.121  11.947 -1.5170 -0.2987  3.0248
  377MOL0     H52004  -1.536   8.048  12.085  0.3769  0.3252  0.0552
  377MOL0     H52005  -1.378   7.990  12.127  2.3829 -1.5420 -2.6039
  377MOL0     H52006  -0.677   8.436  11.667 -2.0242  2.5412  0.1884
  377MOL0     H52007  -0.477   8.394  11.516 -1.3419 -1.8809  1.7385
  377MOL0     H52008  -0.306   8.561  11.036 -1.4781 -0.3197  2.0797
  377MOL0     H52009  -0.114   8.454  10.898  2.5344  1.4885 -0.3346
  377MOL0     H52010   0.261   8.198  10.052  1.3714 -2.7800 -0.0312
  377MOL0     H52011   0.054   8.185   9.918  1.0163 -1.3853  1.6109
  377MOL0     H52012   0.127   8.196   9.316 -0.5562 -0.3453 -0.9089
  377MOL0     H52013  -0.004   8.089   9.131 -0.8576 -1.1632  1.3643
  377MOL0     H52014  -0.245   8.028   8.900 -0.7957  0.7876  0.2083
  377MOL0     H52015  -0.093   8.069   8.964 -0.6918 -0.3645 -1.0638
  377MOL0     H52016  -0.255   7.836   9.066 -0.9213 -2.7781 -2.1827
  377MOL0     H52017  -0.081   7.871   9.090  0.3930  2.0978 -0.6107
  377MOL0     H52018  -0.100   7.681   8.950 -3.0864 -2.7698 -3.3073
  377MOL0     H52019  -0.228   7.744   8.861  1.5276 -2.9726 -1.5426
  377MOL0     H52020  -0.079   7.912   8.747  0.4145 -0.1989 -0.7606
  377MOL0     H52021  -0.000   7.750   8.715  1.4897  1.6264 -0.5821
  377MOL0     H52022   0.241   7.928   9.027 -0.0378  1.5077  0.1188
  377MOL0     H52023  -0.368   8.168   9.325 -1.1796 -0.4525 -1.4028
  377MOL0     H52024  -0.258   8.203   9.632  0.2071  0.9591  2.0260
  377MOL0     H52025  -0.235   8.374   9.587 -0.5129 -0.0376 -1.1638
  377MOL0     H52026  -0.376   8.290   9.525 -0.4444  1.2587 -0.5207
  378MOL0     O52027   0.818   5.306   3.267  0.0403 -0.6090 -0.1587
  378MOL0     C52028   0.773   5.390   3.347  0.8864 -0.0499  0.7282
  378MOL0     O52029   0.846   5.460   3.435 -0.5086  0.0019 -0.9262
  378MOL0     C52030   0.985   5.472   3.428  0.1262  0.4353 -0.2285
  378MOL0     C52031   1.059   5.490   3.544 -0.6829  0.1919  0.6186
  378MOL0     C52032   1.200   5.493   3.535 -0.4169 -0.3011 -0.3398
  378MOL0     C52033   1.262   5.477   3.416 -0.9174 -0.5466 -0.3421
  378MOL0     O52034   1.397   5.441   3.407 -0.0954 -0.3744  0.2126
  378MOL0     C52035   1.484   5.502   3.503 -0.7557  0.0926  0.4141
  378MOL0     C52036   1.606   5.546   3.419 -0.5051  0.7820 -0.2471
  378MOL0     C52037   1.702   5.631   3.504  0.3354  0.0319 -0.5191
  378MOL0     C52038   1.791   5.734   3.425  0.8572 -0.2140  1.1668
  378MOL0     C52039   1.887   5.811   3.512 -0.7179 -0.5122 -0.1390
  378MOL0     C52040   1.992   5.719   3.575  0.0955  0.1316 -0.7359
  378MOL0     C52041   2.130   5.780   3.557 -1.0467 -0.8035  0.6505
  378MOL0     C52042   2.235   5.687   3.595 -0.1301 -0.2659 -0.8066
  378MOL0     N52043   2.361   5.753   3.569  0.2399  0.1424  0.2099
  378MOL0     C52044   2.432   5.841   3.649 -0.3214  0.4717  1.3229
  378MOL0     C52045   2.552   5.853   3.585 -0.6473 -0.2619 -0.4606
  378MOL0     C52046   2.679   5.921   3.636 -0.0444 -0.7157  0.2066
  378MOL0     C52047   2.783   5.821   3.690 -0.2425 -0.2169 -0.0144
  378MOL0     C52048   2.908   5.910   3.726  0.4255 -0.1156 -0.1505
  378MOL0     C52049   3.023   5.815   3.761  0.4104  0.1255  0.5957
  378MOL0     O52050   3.126   5.891   3.821  0.2272 -0.2169  0.2055
  378MOL0     C52051   3.244   5.829   3.854  0.6012 -0.2158  0.0788
  378MOL0     C52052   3.270   5.695   3.847 -0.2839 -0.2643 -0.5556
  378MOL0     C52053   3.400   5.643   3.880  1.0597 -0.4106 -0.1710
  378MOL0     C52054   3.424   5.491   3.872 -0.1852 -1.5472 -0.0030
  378MOL0     C52055   3.504   5.736   3.900 -0.4319 -1.0911 -0.0521
  378MOL0     C52056   3.643   5.695   3.919 -0.1494 -0.3679  0.2067
  378MOL0     O52057   3.746   5.759   3.850  0.1428  0.4414 -0.8047
  378MOL0     C52058   3.872   5.781   3.897  0.1038  0.8034 -0.6164
  378MOL0     C52059   3.963   5.828   3.804 -0.1695  0.3468 -0.6497
  378MOL0     C52060   4.089   5.875   3.836  0.1418  1.0405  0.1191
  378MOL0     C52061   4.125   5.872   3.973  0.3275  0.4924 -0.8271
  378MOL0     O52062   4.248   5.913   4.020  0.2217 -0.4958 -0.4670
  378MOL0     C52063   4.298   6.030   3.950  0.4891  0.4390  0.0580
  378MOL0     C52064   4.403   6.072   4.054 -0.2643  0.7259  0.3010
  378MOL0     C52065   4.503   5.951   4.099  0.6890 -0.6650  0.7104
  378MOL0     C52066   4.654   6.010   4.104  0.3498 -0.5589 -0.1434
  378MOL0     C52067   4.741   5.884   4.091 -0.4867  0.7420 -0.6392
  378MOL0     C52068   4.891   5.915   4.093  0.6532  0.1217 -0.3268
  378MOL0     C52069   4.996   5.798   4.061 -0.0717 -0.1110 -0.0457
  378MOL0     C52070   5.141   5.865   4.059  0.2861  0.0682  0.5326
  378MOL0    Cl52071   5.153   5.957   3.912 -0.3356 -0.2075 -0.0958
  378MOL0     C52072   4.039   5.804   4.066 -0.2309  0.1622 -0.2242
  378MOL0     C52073   3.907   5.773   4.034 -0.8458 -0.4591 -0.3795
  378MOL0     O52074   3.655   5.624   4.024  0.0358 -0.1340 -0.3051
  378MOL0     C52075   3.479   5.874   3.913 -0.2429 -0.0523 -0.4552
  378MOL0     C52076   3.348   5.922   3.899  1.2677 -0.2968 -0.0709
  378MOL0     N52077   2.565   5.750   3.487  0.0322 -0.0359  0.1983
  378MOL0     N52078   2.446   5.702   3.476  0.6340  0.3071 -0.1261
  378MOL0     C52079   1.190   5.459   3.305 -0.1451 -0.0890 -0.3613
  378MOL0     C52080   1.050   5.463   3.312  0.0017 -0.1572  0.3589
  378MOL0     C52081   0.627   5.408   3.350 -0.6743  0.6188  0.1667
  378MOL0     C52082   0.547   5.303   3.310  0.2640 -0.2084  0.5028
  378MOL0     C52083   0.401   5.306   3.323  0.1251  0.2984 -0.0291
  378MOL0     C52084   0.340   5.420   3.365  0.7859  0.0953  0.4085
  378MOL0     O52085   0.197   5.421   3.375  0.5899 -0.6431 -0.3425
  378MOL0     C52086   0.119   5.405   3.255  0.2148 -0.5913  0.2179
  378MOL0     C52087  -0.003   5.493   3.259  0.0549 -0.2515  0.1414
  378MOL0     C52088  -0.109   5.425   3.346 -0.0735 -0.0132  0.4045
  378MOL0     C52089  -0.242   5.501   3.359 -0.5293  0.8307 -1.0225
  378MOL0     C52090  -0.243   5.624   3.438 -0.2251  0.7090  0.7178
  378MOL0     C52091  -0.251   5.727   3.497 -0.3061 -1.0459  0.4165
  378MOL0     C52092   0.425   5.526   3.410  1.5655 -0.1024 -0.5018
  378MOL0     C52093   0.566   5.526   3.398 -0.1455  0.3634  0.7997
  378MOL0     C52094   0.641   5.648   3.458  0.4174  1.2602 -0.3138
  378MOL0     H52095   1.005   5.492   3.638  2.3163  0.1329  2.4854
  378MOL0     H52096   1.255   5.500   3.628 -0.8310  1.0580 -0.1860
  378MOL0     H52097   1.506   5.434   3.586  0.8325 -1.4592 -1.1633
  378MOL0     H52098   1.434   5.584   3.555 -0.8647  1.9505 -2.4346
  378MOL0     H52099   1.663   5.459   3.386 -1.7901 -0.5081  0.7936
  378MOL0     H52100   1.576   5.602   3.330  0.1619  1.5837  0.0218
  378MOL0     H52101   1.653   5.687   3.584  3.2390  0.3206  1.2124
  378MOL0     H52102   1.775   5.567   3.553  1.3011  2.0363  0.7859
  378MOL0     H52103   1.837   5.676   3.345  3.4201  4.2448 -0.9400
  378MOL0     H52104   1.718   5.799   3.377  0.5199 -1.4773 -0.0855
  378MOL0     H52105   1.837   5.866   3.592 -1.6842 -0.8315 -0.5138
  378MOL0     H52106   1.930   5.883   3.441 -0.6789 -0.7150 -0.3207
  378MOL0     H52107   1.976   5.713   3.683  0.0389  0.9183 -0.6920
  378MOL0     H52108   1.988   5.620   3.528 -4.3072  0.3850 -1.3161
  378MOL0     H52109   2.148   5.863   3.626 -2.3541 -1.2425  1.5869
  378MOL0     H52110   2.144   5.812   3.454  1.3168  1.6627  1.6210
  378MOL0     H52111   2.218   5.671   3.702 -1.0957  1.6325 -0.6357
  378MOL0     H52112   2.234   5.588   3.549 -1.0043 -0.4921 -0.3245
  378MOL0     H52113   2.388   5.895   3.732 -0.6812 -1.5892  2.5245
  378MOL0     H52114   2.655   6.002   3.705  0.9007 -1.4876  1.4739
  378MOL0     H52115   2.730   5.969   3.552  4.7179 -0.9462  2.6337
  378MOL0     H52116   2.738   5.766   3.773 -0.3896 -1.1557 -0.6947
  378MOL0     H52117   2.798   5.744   3.613  0.2318  0.8489 -1.0066
  378MOL0     H52118   2.932   5.973   3.640 -1.1963 -0.2054 -0.7095
  378MOL0     H52119   2.882   5.964   3.818 -3.1256 -1.3514 -0.2749
  378MOL0     H52120   2.989   5.740   3.833  1.1640 -0.0330  0.7831
  378MOL0     H52121   3.067   5.763   3.675 -2.3600 -1.9402  0.2745
  378MOL0     H52122   3.192   5.623   3.821 -1.7505  0.5085  1.4967
  378MOL0     H52123   3.333   5.433   3.853  0.8506 -2.5945 -2.1143
  378MOL0     H52124   3.466   5.450   3.965  0.9321  0.1101  0.2657
  378MOL0     H52125   3.491   5.478   3.787 -0.0967  3.8437 -1.1157
  378MOL0     H52126   3.954   5.828   3.696  3.9773 -1.7064 -1.1886
  378MOL0     H52127   4.151   5.916   3.757  2.6526 -1.7473  0.5080
  378MOL0     H52128   4.351   6.007   3.857 -0.1971 -2.5591  0.3067
  378MOL0     H52129   4.229   6.109   3.922  0.1609 -0.2226 -1.0858
  378MOL0     H52130   4.448   6.161   4.010 -3.4797  2.1986 -0.3524
  378MOL0     H52131   4.346   6.103   4.141 -1.0818 -3.2504  1.4001
  378MOL0     H52132   4.499   5.865   4.031  2.7328  0.8495 -1.5296
  378MOL0     H52133   4.468   5.910   4.194  0.3285  0.0953  0.9134
  378MOL0     H52134   4.669   6.057   4.202 -0.9442 -1.8533  0.7177
  378MOL0     H52135   4.657   6.080   4.020 -2.6804 -1.7873 -1.4116
  378MOL0     H52136   4.734   5.820   4.179  1.9443  2.0472  0.5799
  378MOL0     H52137   4.712   5.825   4.003 -1.0269 -1.8772  1.1732
  378MOL0     H52138   4.917   5.947   4.195 -0.7338 -2.4599  0.9374
  378MOL0     H52139   4.911   5.999   4.026  1.7207  0.0728 -0.0960
  378MOL0     H52140   4.976   5.745   3.967  2.9366 -0.3496 -0.6292
  378MOL0     H52141   4.994   5.721   4.138 -0.9877  0.6464  0.7226
  378MOL0     H52142   5.217   5.786   4.062 -0.7394 -0.9305  0.7168
  378MOL0     H52143   5.166   5.920   4.151  0.1394 -2.6154  2.2929
  378MOL0     H52144   4.065   5.794   4.171 -1.3330 -0.7206 -0.0205
  378MOL0     H52145   3.837   5.746   4.112 -2.9635  0.0122 -2.0085
  378MOL0     H52146   3.552   5.952   3.931  0.0976 -0.2068 -1.1251
  378MOL0     H52147   3.324   6.027   3.903 -1.7268 -0.7294 -2.7676
  378MOL0     H52148   1.239   5.451   3.209  0.3113  1.4850 -0.3023
  378MOL0     H52149   0.999   5.460   3.216  2.3591  2.8969 -1.1558
  378MOL0     H52150   0.601   5.212   3.285  1.1476  0.8872 -1.8356
  378MOL0     H52151   0.341   5.217   3.309  0.3334  0.1111  0.2546
  378MOL0     H52152   0.187   5.450   3.182  0.2733  3.0445  2.2910
  378MOL0     H52153   0.104   5.296   3.249  0.1034 -0.5103 -1.7975
  378MOL0     H52154  -0.045   5.498   3.159  1.3631 -1.0094 -0.4730
  378MOL0     H52155   0.033   5.590   3.293 -2.2838  1.3249 -1.5773
  378MOL0     H52156  -0.137   5.334   3.292 -0.8370  1.2212 -1.3833
  378MOL0     H52157  -0.070   5.415   3.448 -2.5464  1.5753  1.5986
  378MOL0     H52158  -0.322   5.435   3.396  0.1103  1.1005  0.9679
  378MOL0     H52159  -0.277   5.531   3.260 -1.4173  0.8828 -0.7002
  378MOL0     H52160  -0.257   5.824   3.541  2.6000 -1.4709  2.0342
  378MOL0     H52161   0.371   5.609   3.453  2.3907  0.1390  0.0816
  378MOL0     H52162   0.746   5.660   3.432  1.2389 -0.0325  2.0567
  378MOL0     H52163   0.579   5.737   3.442 -1.9605  0.3222  2.5492
  378MOL0     H52164   0.645   5.632   3.566  0.8842 -0.4805 -0.5639
  379MOL0     O52165  11.165   9.512   2.280 -0.5173  0.0027  0.1309
  379MOL0     C52166  11.101   9.448   2.352  0.6255  0.1589 -0.0830
  379MOL0     O52167  11.145   9.352   2.437 -0.2325 -0.2900 -0.4905
  379MOL0     C52168  11.258   9.272   2.407 -0.1357  0.7932 -0.3517
  379MOL0     C52169  11.306   9.184   2.509  0.3025 -0.1031 -0.4602
  379MOL0     C52170  11.417   9.106   2.480 -0.8032  0.3999 -1.1240
  379MOL0     C52171  11.480   9.102   2.353  0.0008  0.5255 -0.0225
  379MOL0     O52172  11.600   9.031   2.353  0.8097  0.6112 -0.4942
  379MOL0     C52173  11.672   9.010   2.233 -0.4563 -0.7613  0.3932
  379MOL0     C52174  11.606   8.893   2.157 -0.7675 -1.1756  0.5784
  379MOL0     C52175  11.700   8.818   2.069 -0.4346 -0.3816  0.4734
  379MOL0     C52176  11.782   8.919   1.976  0.7803  0.4766 -0.3396
  379MOL0     C52177  11.882   8.837   1.890  0.5851  0.5987  0.1077
  379MOL0     C52178  12.000   8.786   1.973  0.0320  0.2764 -0.0647
  379MOL0     C52179  12.116   8.746   1.873 -0.6767  0.2695 -1.6129
  379MOL0     C52180  12.073   8.640   1.773 -0.3109  0.3181  0.4605
  379MOL0     N52181  12.185   8.582   1.698 -0.0678  0.2223  0.0750
  379MOL0     C52182  12.264   8.654   1.607  0.4190 -0.0007  0.8600
  379MOL0     C52183  12.363   8.564   1.576 -0.2863 -0.2764 -0.2822
  379MOL0     C52184  12.492   8.601   1.492 -0.5970  0.5769 -0.0410
  379MOL0     C52185  12.584   8.695   1.575 -0.0519  0.7823  0.3623
  379MOL0     C52186  12.681   8.594   1.652  1.2371  0.0081 -0.3151
  379MOL0     C52187  12.796   8.661   1.721  0.9785  0.4348 -0.3966
  379MOL0     O52188  12.879   8.730   1.628 -0.4129  0.3480  0.0209
  379MOL0     C52189  13.006   8.766   1.667  0.7768  0.1447  0.3998
  379MOL0     C52190  13.066   8.837   1.570 -0.0538  0.4945  0.9579
  379MOL0     C52191  13.190   8.905   1.582  0.3785 -0.4416  0.4488
  379MOL0     C52192  13.247   8.960   1.454 -0.2625 -1.2697 -0.7031
  379MOL0     C52193  13.255   8.898   1.709  0.2903  0.1752 -0.6832
  379MOL0     C52194  13.387   8.962   1.747 -1.3326  1.0816 -0.3189
  379MOL0     O52195  13.440   8.934   1.873  0.3446  0.5119 -0.4283
  379MOL0     C52196  13.575   8.953   1.887  0.0916  0.4405 -0.4350
  379MOL0     C52197  13.617   9.029   1.997  0.3636 -0.2943 -0.2426
  379MOL0     C52198  13.749   9.036   2.039 -1.2124 -0.1498  1.2151
  379MOL0     C52199  13.846   8.972   1.957  0.5232  0.2485  0.7416
  379MOL0     O52200  13.978   8.971   1.986 -0.1683 -0.1508 -0.6216
  379MOL0     C52201  14.027   9.017   2.115 -0.0031  0.1204 -0.1122
  379MOL0     C52202  14.074   9.167   2.098  0.6376 -1.2028  0.5059
  379MOL0     C52203  14.197   9.167   2.003  0.9698 -0.3065 -0.6195
  379MOL0     C52204  14.249   9.312   1.983  0.2917 -0.9287 -0.1354
  379MOL0     C52205  14.162   9.403   1.893 -0.2714 -0.1606 -0.7919
  379MOL0     C52206  14.175   9.356   1.752 -0.5566 -0.9211  0.3542
  379MOL0     C52207  14.099   9.432   1.646 -0.3475  0.3745  0.3085
  379MOL0     C52208  14.152   9.565   1.595 -1.1244  0.3483  0.2304
  379MOL0    Cl52209  14.073   9.705   1.690 -0.1120 -0.2506  0.2023
  379MOL0     C52210  13.803   8.909   1.835  0.3761 -0.0670 -1.1443
  379MOL0     C52211  13.670   8.904   1.803 -0.0877 -0.7393  0.2535
  379MOL0     O52212  13.449   9.028   1.662 -0.3444  0.5264 -0.2312
  379MOL0     C52213  13.189   8.824   1.806  0.2145  0.2268 -0.7800
  379MOL0     C52214  13.064   8.761   1.792  0.1534 -0.0277 -0.1756
  379MOL0     N52215  12.339   8.435   1.637  0.7182 -0.5585 -0.1209
  379MOL0     N52216  12.231   8.447   1.715  0.7629  0.6024 -0.2502
  379MOL0     C52217  11.420   9.176   2.247 -0.0136  0.1087  0.6380
  379MOL0     C52218  11.306   9.258   2.272  0.1050 -0.9070  0.3613
  379MOL0     C52219  10.958   9.492   2.372 -0.0508  0.4401  0.8244
  379MOL0     C52220  10.885   9.458   2.489 -0.2052  1.0376  0.4078
  379MOL0     C52221  10.755   9.505   2.509  0.0788  0.1918  0.2797
  379MOL0     C52222  10.693   9.572   2.413  0.6499 -0.0825  0.1992
  379MOL0     O52223  10.562   9.597   2.441 -0.1342  0.3091  0.9169
  379MOL0     C52224  10.478   9.603   2.330  0.3731 -0.1202  0.3151
  379MOL0     C52225  10.332   9.631   2.373 -0.2610  0.6276 -0.4164
  379MOL0     C52226  10.315   9.743   2.473 -0.4284  0.3740 -0.2047
  379MOL0     C52227  10.169   9.758   2.517 -0.2975 -0.5885 -0.2462
  379MOL0     C52228  10.076   9.789   2.407 -0.7362 -0.0942 -0.2392
  379MOL0     C52229   9.997   9.817   2.321 -0.1805 -0.1679  0.3530
  379MOL0     C52230  10.756   9.608   2.293 -0.3252  0.7851 -0.0181
  379MOL0     C52231  10.886   9.576   2.271 -0.2200 -0.1849  0.1285
  379MOL0     C52232  10.942   9.624   2.140 -0.0003  0.4564  0.1405
  379MOL0     H52233  11.263   9.184   2.609  2.1278  0.6346  0.3591
  379MOL0     H52234  11.460   9.053   2.565 -2.7300  1.2266  0.4494
  379MOL0     H52235  11.768   8.969   2.267 -0.0359 -0.9990 -1.0448
  379MOL0     H52236  11.685   9.106   2.183 -1.6565 -0.3168  0.8940
  379MOL0     H52237  11.559   8.822   2.226  0.8801 -0.8637  2.1140
  379MOL0     H52238  11.532   8.937   2.091 -0.1982 -2.5770 -1.0836
  379MOL0     H52239  11.769   8.774   2.142  0.6699  1.9749  0.9486
  379MOL0     H52240  11.644   8.748   2.007  1.7030  0.1428 -2.2443
  379MOL0     H52241  11.704   8.966   1.915  0.2923  0.3095  0.1471
  379MOL0     H52242  11.838   8.992   2.034 -2.5754  1.0711  2.4660
  379MOL0     H52243  11.921   8.904   1.813  0.7344  2.1732  1.4827
  379MOL0     H52244  11.828   8.756   1.841  0.6292  0.5676  0.1119
  379MOL0     H52245  12.036   8.869   2.035 -2.9999 -0.2895  2.7010
  379MOL0     H52246  11.977   8.706   2.044  0.8886 -0.2409 -0.3458
  379MOL0     H52247  12.202   8.717   1.933  0.3446  2.2050 -2.0718
  379MOL0     H52248  12.157   8.839   1.832 -0.1188  1.2762  1.0310
  379MOL0     H52249  12.021   8.561   1.829  0.9279 -0.4644  0.5438
  379MOL0     H52250  11.997   8.671   1.702 -0.6252  1.9419  1.4524
  379MOL0     H52251  12.262   8.759   1.580 -0.6529 -0.5514 -1.3894
  379MOL0     H52252  12.464   8.642   1.394 -2.6010 -1.5958 -0.4913
  379MOL0     H52253  12.546   8.512   1.460 -3.3874 -0.7243 -1.5654
  379MOL0     H52254  12.630   8.769   1.510 -0.0353  1.8826  1.5888
  379MOL0     H52255  12.519   8.749   1.644 -0.7821  1.2007 -0.6388
  379MOL0     H52256  12.610   8.547   1.721  1.0413 -0.8667 -1.0895
  379MOL0     H52257  12.720   8.515   1.587  0.2020 -1.4214  0.7169
  379MOL0     H52258  12.757   8.736   1.791  4.2355  1.2672  0.7311
  379MOL0     H52259  12.857   8.595   1.783  0.0740 -0.1753 -0.1451
  379MOL0     H52260  13.014   8.833   1.475  1.0296 -1.1507  0.3927
  379MOL0     H52261  13.347   8.917   1.447  0.1863 -0.4552  0.3768
  379MOL0     H52262  13.271   9.066   1.448 -0.3488 -0.9958  2.3341
  379MOL0     H52263  13.185   8.940   1.366 -0.3604  2.1337 -1.5365
  379MOL0     H52264  13.550   9.093   2.054  1.9367  1.4736 -0.2876
  379MOL0     H52265  13.770   9.094   2.128  2.3080  1.1396 -0.2987
  379MOL0     H52266  13.964   8.986   2.198  2.0762  0.0424  1.5326
  379MOL0     H52267  14.116   8.956   2.134 -1.0327 -1.1661  0.8051
  379MOL0     H52268  13.996   9.233   2.060  0.9851 -2.2531 -2.2737
  379MOL0     H52269  14.089   9.207   2.198  1.3293  0.7645 -0.3335
  379MOL0     H52270  14.179   9.113   1.910  1.8427 -2.5748  0.4500
  379MOL0     H52271  14.281   9.112   2.045  2.2238  0.7717 -1.6345
  379MOL0     H52272  14.347   9.317   1.935 -0.3608  3.2622 -1.4361
  379MOL0     H52273  14.256   9.356   2.083 -0.1911 -0.9589 -0.0873
  379MOL0     H52274  14.056   9.388   1.910 -0.0745 -0.1446  0.5062
  379MOL0     H52275  14.181   9.511   1.895  1.5409 -0.4542  0.3957
  379MOL0     H52276  14.151   9.250   1.736  2.7040 -2.1282  2.3752
  379MOL0     H52277  14.279   9.364   1.718  0.0525 -0.3178  2.2160
  379MOL0     H52278  14.000   9.456   1.687 -0.8673  2.5555 -1.9440
  379MOL0     H52279  14.103   9.361   1.564  0.9135  0.5223  0.2246
  379MOL0     H52280  14.128   9.573   1.489  0.9619 -0.4986 -0.3696
  379MOL0     H52281  14.260   9.568   1.612 -0.9565 -1.8803 -0.0254
  379MOL0     H52282  13.883   8.867   1.775 -0.1772 -1.9878 -0.6190
  379MOL0     H52283  13.647   8.852   1.710 -0.9920 -1.1343  0.6854
  379MOL0     H52284  13.239   8.823   1.903 -1.7044 -1.7471  0.2847
  379MOL0     H52285  13.035   8.713   1.885  1.1497  0.2196  0.2833
  379MOL0     H52286  11.450   9.161   2.143 -1.8908 -0.2007  0.1087
  379MOL0     H52287  11.266   9.320   2.192  1.1115 -0.3624  0.2525
  379MOL0     H52288  10.937   9.405   2.568 -0.3868  0.7042  0.3036
  379MOL0     H52289  10.700   9.491   2.601  0.9579 -1.0306  0.6410
  379MOL0     H52290  10.499   9.692   2.269  1.0573 -0.7390 -0.3829
  379MOL0     H52291  10.495   9.511   2.272  1.6262 -0.3319  0.9824
  379MOL0     H52292  10.305   9.536   2.421  0.4487 -1.2160 -3.4104
  379MOL0     H52293  10.276   9.658   2.283  2.5437  1.0553 -2.1566
  379MOL0     H52294  10.364   9.702   2.561  1.3305  0.5354 -1.0597
  379MOL0     H52295  10.349   9.843   2.445 -1.9192  1.8303  2.7729
  379MOL0     H52296  10.161   9.845   2.583  0.1509 -1.4291  0.9562
  379MOL0     H52297  10.132   9.667   2.565 -0.5452 -0.1577  0.3870
  379MOL0     H52298   9.928   9.841   2.243  0.5008  0.7828  0.0261
  379MOL0     H52299  10.707   9.674   2.222  0.8739  0.4442 -1.1926
  379MOL0     H52300  10.873   9.675   2.072  0.4566 -2.5476 -2.9112
  379MOL0     H52301  11.030   9.685   2.161  0.3867 -0.5793  1.7312
  379MOL0     H52302  10.980   9.538   2.084  0.0433  0.1260  0.6697
  380MOL0     O52303   2.497   6.529   6.694  0.6270 -0.9858  0.2611
  380MOL0     C52304   2.402   6.608   6.674  0.4296  0.8154 -0.6366
  380MOL0     O52305   2.410   6.743   6.692  0.3921  0.5885 -0.8509
  380MOL0     C52306   2.529   6.804   6.738 -0.0521  0.5499 -0.7363
  380MOL0     C52307   2.616   6.756   6.842 -0.3290 -0.6948  0.9929
  380MOL0     C52308   2.734   6.831   6.868 -0.2554  0.9953  0.5560
  380MOL0     C52309   2.770   6.949   6.791  0.2836  0.1514 -0.0447
  380MOL0     O52310   2.884   7.031   6.799 -0.4279  0.1114 -0.1612
  380MOL0     C52311   2.972   6.998   6.906 -0.1066 -0.1370  1.1112
  380MOL0     C52312   3.068   6.887   6.863 -0.0821 -0.0181 -0.2967
  380MOL0     C52313   3.172   6.866   6.965  0.6262  0.7102 -0.6337
  380MOL0     C52314   3.147   6.763   7.080  0.2492 -0.1613  1.0867
  380MOL0     C52315   3.275   6.767   7.167  0.0215 -0.1886 -0.6887
  380MOL0     C52316   3.279   6.890   7.278 -0.3604 -0.5617  0.2726
  380MOL0     C52317   3.408   6.867   7.366  0.6565 -0.1686 -0.6775
  380MOL0     C52318   3.422   6.991   7.465  0.1547  0.3362  0.1757
  380MOL0     N52319   3.519   6.962   7.568 -0.0484 -0.1369 -0.0070
  380MOL0     C52320   3.555   6.834   7.614 -0.2658  0.6288  0.0289
  380MOL0     C52321   3.641   6.857   7.715  0.2285  1.1947 -0.2558
  380MOL0     C52322   3.718   6.745   7.788  0.3428 -0.5160 -0.1369
  380MOL0     C52323   3.634   6.690   7.903 -0.0469 -0.3943  0.2657
  380MOL0     C52324   3.613   6.799   8.007 -0.4922 -0.4183  0.4375
  380MOL0     C52325   3.532   6.739   8.124 -0.3757  0.2753  0.4363
  380MOL0     O52326   3.612   6.646   8.215  0.0762  0.0488  0.6317
  380MOL0     C52327   3.711   6.708   8.289  0.5066  0.2509 -0.3520
  380MOL0     C52328   3.846   6.697   8.249  0.3929 -0.8053 -0.7059
  380MOL0     C52329   3.951   6.773   8.314  0.4190 -0.1642 -0.2323
  380MOL0     C52330   4.084   6.769   8.261 -0.6807 -0.6466  1.0727
  380MOL0     C52331   3.917   6.862   8.421 -0.6911 -0.0967 -0.4302
  380MOL0     C52332   4.019   6.942   8.488  0.2726  0.0587 -0.3644
  380MOL0     O52333   4.005   6.941   8.627  0.6807 -0.1241  0.0974
  380MOL0     C52334   4.106   7.002   8.702  0.0399 -0.7195  1.0406
  380MOL0     C52335   4.083   7.131   8.759  0.0102  0.7547 -1.2009
  380MOL0     C52336   4.189   7.192   8.829 -0.1274 -0.1255  0.9865
  380MOL0     C52337   4.305   7.119   8.852 -0.0378  0.8304 -1.3567
  380MOL0     O52338   4.402   7.168   8.930  0.0304  0.0443 -0.4476
  380MOL0     C52339   4.527   7.173   8.863 -0.0415  0.7239 -0.1113
  380MOL0     C52340   4.639   7.237   8.956 -0.2700 -0.1917 -0.4838
  380MOL0     C52341   4.601   7.383   8.991 -1.3267 -0.3218  0.0845
  380MOL0     C52342   4.610   7.477   8.867 -0.2047 -0.4790  0.4433
  380MOL0     C52343   4.594   7.625   8.893  0.6109 -0.6320  0.3592
  380MOL0     C52344   4.467   7.652   8.964  0.3333  0.0994  0.1005
  380MOL0     C52345   4.424   7.804   8.944 -0.3612 -0.2881 -1.2246
  380MOL0     C52346   4.525   7.909   8.982  0.2424 -0.4886  0.2221
  380MOL0    Cl52347   4.643   7.870   9.105  0.6361  0.0234  0.2827
  380MOL0     C52348   4.319   6.981   8.804  0.1512 -0.2304  0.7135
  380MOL0     C52349   4.214   6.930   8.728 -0.3450 -0.0653 -0.1167
  380MOL0     O52350   4.119   6.989   8.424 -0.1158  0.1198 -0.2731
  380MOL0     C52351   3.780   6.877   8.457  0.3263  0.0094 -0.1532
  380MOL0     C52352   3.680   6.789   8.394 -0.1298  1.2607  0.1446
  380MOL0     N52353   3.642   6.993   7.741 -0.0782  0.1223 -0.8672
  380MOL0     N52354   3.577   7.057   7.646 -0.0832  0.6005  0.1733
  380MOL0     C52355   2.683   6.989   6.686 -0.1898  0.3945  0.3905
  380MOL0     C52356   2.567   6.914   6.657  0.0068 -0.5195  1.0572
  380MOL0     C52357   2.266   6.569   6.632  0.5111 -0.1322  0.0125
  380MOL0     C52358   2.177   6.669   6.602  0.6946  0.1460 -0.7099
  380MOL0     C52359   2.046   6.647   6.569  0.5660  0.0758  0.0270
  380MOL0     C52360   1.998   6.521   6.553  0.8589  0.5326  0.0323
  380MOL0     O52361   1.871   6.507   6.499  0.1677 -0.5551  0.1342
  380MOL0     C52362   1.819   6.390   6.444 -0.1117 -0.0705 -0.4726
  380MOL0     C52363   1.858   6.376   6.285  0.0099  0.7864 -0.3797
  380MOL0     C52364   1.879   6.231   6.243 -0.6929  0.0423  0.7880
  380MOL0     C52365   2.005   6.171   6.311  0.3595 -0.0488  0.0635
  380MOL0     C52366   2.039   6.040   6.253  0.4677 -0.2105  0.0764
  380MOL0     C52367   2.070   5.921   6.244 -0.1450 -0.8594  0.4623
  380MOL0     C52368   2.086   6.415   6.585 -0.0693 -0.7397  0.0986
  380MOL0     C52369   2.222   6.437   6.613 -0.0417  0.0699  0.1795
  380MOL0     C52370   2.297   6.314   6.636 -0.6896  0.1604  0.4760
  380MOL0     H52371   2.595   6.663   6.894  3.3153 -3.0872 -1.4194
  380MOL0     H52372   2.802   6.795   6.945  0.2156  0.7712  0.0437
  380MOL0     H52373   2.919   6.951   6.989 -1.3603  0.4525  0.6700
  380MOL0     H52374   3.020   7.092   6.933 -2.7388  1.8765 -0.7042
  380MOL0     H52375   3.019   6.791   6.848 -2.7018  1.4451 -1.7365
  380MOL0     H52376   3.117   6.913   6.769 -0.4893 -0.5435 -0.6578
  380MOL0     H52377   3.263   6.835   6.913  2.6976  0.0887  2.9804
  380MOL0     H52378   3.197   6.960   7.016  2.4615 -1.3738  2.6548
  380MOL0     H52379   3.055   6.778   7.137 -0.9455 -0.2985 -0.7127
  380MOL0     H52380   3.135   6.663   7.039 -0.1613 -0.5147  2.0284
  380MOL0     H52381   3.362   6.774   7.101 -0.6051  1.4916 -1.3908
  380MOL0     H52382   3.281   6.677   7.229 -2.2074  0.0463 -0.0435
  380MOL0     H52383   3.280   6.987   7.228  0.7574 -0.2846  0.8198
  380MOL0     H52384   3.195   6.884   7.348 -1.3061 -0.5609 -0.8132
  380MOL0     H52385   3.495   6.865   7.299  2.2890 -0.7438  1.3755
  380MOL0     H52386   3.399   6.772   7.419 -3.1933 -0.3701 -1.4030
  380MOL0     H52387   3.430   7.090   7.420  2.0929  0.4350  0.6636
  380MOL0     H52388   3.325   6.983   7.515  0.5396 -0.6821  0.7834
  380MOL0     H52389   3.534   6.732   7.584  0.3715 -0.4077  2.8082
  380MOL0     H52390   3.819   6.773   7.819  0.1820 -2.4879  2.4649
  380MOL0     H52391   3.723   6.672   7.706 -1.6415  1.4431 -2.1280
  380MOL0     H52392   3.536   6.663   7.862 -0.1845  1.4760 -0.7603
  380MOL0     H52393   3.678   6.605   7.957 -2.4427 -1.3817  0.8174
  380MOL0     H52394   3.703   6.847   8.048 -0.1010 -1.5962  1.0050
  380MOL0     H52395   3.556   6.884   7.968 -3.7962 -3.4249 -1.7736
  380MOL0     H52396   3.500   6.817   8.194  0.8132  1.4617 -0.3011
  380MOL0     H52397   3.448   6.677   8.091 -1.1437  1.0372  0.9201
  380MOL0     H52398   3.873   6.641   8.160  3.3579 -0.4127 -0.1454
  380MOL0     H52399   4.118   6.869   8.235 -1.0776 -0.9479 -0.7393
  380MOL0     H52400   4.092   6.715   8.166  1.4522  0.1898  0.7264
  380MOL0     H52401   4.154   6.734   8.337 -0.1300  1.9214  1.8338
  380MOL0     H52402   3.996   7.191   8.735  2.4451  4.2957 -1.9450
  380MOL0     H52403   4.180   7.290   8.877 -0.0945 -1.8648  4.9497
  380MOL0     H52404   4.571   7.073   8.854  0.8927  1.0591  0.5547
  380MOL0     H52405   4.524   7.222   8.765  1.1760 -0.5052 -0.8106
  380MOL0     H52406   4.640   7.175   9.046  1.2296 -1.2252 -1.1798
  380MOL0     H52407   4.742   7.228   8.921 -0.5238 -4.3985 -0.6095
  380MOL0     H52408   4.677   7.411   9.064  1.4354 -1.4459 -2.1632
  380MOL0     H52409   4.498   7.383   9.028 -1.2230 -0.3820  0.3786
  380MOL0     H52410   4.536   7.442   8.795  0.9758 -2.2896  0.0301
  380MOL0     H52411   4.705   7.465   8.814 -1.1342 -0.0109 -1.4089
  380MOL0     H52412   4.685   7.665   8.940  0.1788 -0.6569  1.2336
  380MOL0     H52413   4.593   7.674   8.796  0.2854 -0.5192  0.4202
  380MOL0     H52414   4.481   7.627   9.070  0.7034 -0.1091  0.0038
  380MOL0     H52415   4.387   7.588   8.925  0.7586  1.6417 -3.6420
  380MOL0     H52416   4.328   7.822   8.994  0.6963 -1.1539  1.2499
  380MOL0     H52417   4.408   7.826   8.838  1.5552  1.5198 -1.2065
  380MOL0     H52418   4.464   7.990   9.025 -4.2819 -3.0337 -0.7419
  380MOL0     H52419   4.575   7.961   8.900 -0.2682  2.2717  1.5040
  380MOL0     H52420   4.405   6.915   8.816  1.1533  0.3646 -2.1616
  380MOL0     H52421   4.206   6.828   8.693  0.2764 -0.3118  0.4323
  380MOL0     H52422   3.753   6.956   8.526  0.5799  1.3518 -1.5457
  380MOL0     H52423   3.573   6.792   8.412  0.2962 -0.3540  3.7718
  380MOL0     H52424   2.696   7.074   6.619 -2.5612 -0.8032 -1.7443
  380MOL0     H52425   2.513   6.939   6.567  4.5960 -0.4552 -2.0219
  380MOL0     H52426   2.198   6.775   6.618  2.6188  0.0261 -2.0144
  380MOL0     H52427   1.984   6.734   6.547 -2.2455 -1.9447 -0.6093
  380MOL0     H52428   1.858   6.306   6.502 -0.2675  0.7132  0.8174
  380MOL0     H52429   1.711   6.389   6.463 -0.4275 -2.1669 -1.9814
  380MOL0     H52430   1.951   6.430   6.265 -1.1824  2.0187 -3.0534
  380MOL0     H52431   1.775   6.418   6.227 -0.7223 -0.8088 -0.5463
  380MOL0     H52432   1.792   6.172   6.273 -0.1239 -0.4502  1.4931
  380MOL0     H52433   1.896   6.233   6.135 -0.8943  0.5288  0.7657
  380MOL0     H52434   1.980   6.149   6.415 -2.6156 -1.4647 -0.8362
  380MOL0     H52435   2.095   6.233   6.302  1.2967 -1.5790 -1.9407
  380MOL0     H52436   2.093   5.817   6.233 -3.5933 -1.6089 -1.2525
  380MOL0     H52437   2.046   6.314   6.578 -1.6534 -0.1536  0.1923
  380MOL0     H52438   2.278   6.282   6.739 -0.4099 -3.1694 -0.3874
  380MOL0     H52439   2.255   6.236   6.572  0.9509  0.1625 -0.6391
  380MOL0     H52440   2.405   6.318   6.621 -0.6423 -0.9787  0.4357
  381MOL0     O52441   4.412   2.364   3.146  0.8121  0.3491 -1.3058
  381MOL0     C52442   4.381   2.471   3.106  0.0072 -0.1657 -0.0255
  381MOL0     O52443   4.373   2.588   3.184 -0.3244  0.2128  0.2282
  381MOL0     C52444   4.401   2.596   3.319  0.3783  0.8316 -0.3225
  381MOL0     C52445   4.336   2.507   3.404 -0.0961  0.0831 -0.4975
  381MOL0     C52446   4.347   2.529   3.545 -0.2176  0.5405 -0.3700
  381MOL0     C52447   4.445   2.628   3.600  0.0159 -0.4113  0.0900
  381MOL0     O52448   4.472   2.632   3.738  0.9916  0.5229 -0.4647
  381MOL0     C52449   4.490   2.761   3.801  0.1692  0.1902  0.0766
  381MOL0     C52450   4.482   2.744   3.961  0.3268 -0.2901 -0.0877
  381MOL0     C52451   4.601   2.684   4.010 -0.0629 -0.5479 -0.2654
  381MOL0     C52452   4.609   2.702   4.161  0.8574 -0.4920 -0.0252
  381MOL0     C52453   4.734   2.626   4.207 -0.4400 -0.2706  0.4638
  381MOL0     C52454   4.870   2.700   4.178  0.9765 -0.1850  0.3658
  381MOL0     C52455   4.992   2.597   4.188  0.7000 -0.3788 -0.1715
  381MOL0     C52456   5.017   2.560   4.327 -0.2487  0.0339 -0.2572
  381MOL0     N52457   5.065   2.668   4.414  1.5508  0.4264 -0.0967
  381MOL0     C52458   4.988   2.737   4.506 -0.4302  0.3849  0.2731
  381MOL0     C52459   5.072   2.825   4.556 -0.5760  0.3063  1.0733
  381MOL0     C52460   5.023   2.929   4.659 -0.0304  0.1824 -0.3832
  381MOL0     C52461   5.144   3.025   4.700 -0.1725 -0.4569  0.5820
  381MOL0     C52462   5.165   3.135   4.587 -0.0925 -0.2841  1.0642
  381MOL0     C52463   5.297   3.221   4.602  0.0468  0.1649  0.1945
  381MOL0     O52464   5.300   3.267   4.729 -0.3294 -0.3369  0.3795
  381MOL0     C52465   5.415   3.330   4.763 -0.2709  0.2833  0.5991
  381MOL0     C52466   5.418   3.366   4.898  0.7498  0.4426  1.0684
  381MOL0     C52467   5.536   3.424   4.949  0.4567  0.8625 -0.7177
  381MOL0     C52468   5.531   3.446   5.099  0.1574  0.0417 -0.6330
  381MOL0     C52469   5.650   3.434   4.877 -0.4780  0.1247 -0.8988
  381MOL0     C52470   5.780   3.481   4.930 -0.5290 -0.2535  0.3357
  381MOL0     O52471   5.890   3.410   4.887  0.4378 -0.1662 -0.2429
  381MOL0     C52472   6.008   3.435   4.958 -0.3769  0.0130 -0.5188
  381MOL0     C52473   6.103   3.517   4.892  0.5131  1.0290  0.1476
  381MOL0     C52474   6.227   3.542   4.957 -0.1195 -0.1267 -0.6680
  381MOL0     C52475   6.266   3.485   5.080 -0.8048 -0.1078  0.9503
  381MOL0     O52476   6.385   3.512   5.143 -0.2898  0.1444  0.0285
  381MOL0     C52477   6.419   3.650   5.131  0.2615 -0.8751  0.3306
  381MOL0     C52478   6.493   3.698   5.262  0.3386 -1.2977  0.9597
  381MOL0     C52479   6.652   3.694   5.252 -0.3243  0.1921  0.0822
  381MOL0     C52480   6.711   3.839   5.226 -0.1580  0.0702  0.4837
  381MOL0     C52481   6.853   3.831   5.152  0.7486 -0.7299 -0.5169
  381MOL0     C52482   6.952   3.747   5.231  0.7066  0.0558  0.2139
  381MOL0     C52483   7.093   3.798   5.237 -0.2073 -1.2874 -0.0448
  381MOL0     C52484   7.108   3.924   5.314 -0.1206 -0.5577 -0.4196
  381MOL0    Cl52485   7.283   3.972   5.294 -0.3616  0.2583  0.0270
  381MOL0     C52486   6.175   3.397   5.136  0.2182 -1.0260  0.3797
  381MOL0     C52487   6.055   3.365   5.074  0.2721  0.1496  0.2943
  381MOL0     O52488   5.784   3.580   4.997 -0.7518  0.2633 -0.1139
  381MOL0     C52489   5.643   3.402   4.738 -0.7732 -0.2637 -0.4924
  381MOL0     C52490   5.522   3.349   4.681 -1.1089 -0.3885  0.0748
  381MOL0     N52491   5.192   2.820   4.489 -0.2679  0.1108  0.4689
  381MOL0     N52492   5.193   2.717   4.409  0.1460 -0.1580 -0.2379
  381MOL0     C52493   4.511   2.710   3.505  0.5118  0.2201 -0.5649
  381MOL0     C52494   4.489   2.695   3.367 -0.0979 -0.5653  0.2184
  381MOL0     C52495   4.346   2.492   2.967 -0.1411 -0.2524  0.2827
  381MOL0     C52496   4.256   2.401   2.910  0.0403  0.4654  0.1567
  381MOL0     C52497   4.226   2.407   2.767 -0.0080 -0.4512 -0.0637
  381MOL0     C52498   4.290   2.504   2.689  0.7978  0.3329  0.9839
  381MOL0     O52499   4.275   2.504   2.554 -0.4847  0.5035 -0.0028
  381MOL0     C52500   4.404   2.509   2.473 -0.4889 -0.1003  0.4438
  381MOL0     C52501   4.402   2.404   2.365  0.5276 -0.0567 -0.2392
  381MOL0     C52502   4.538   2.384   2.306  0.5316  0.5777 -1.1630
  381MOL0     C52503   4.527   2.272   2.191  0.2285  0.4463 -0.2160
  381MOL0     C52504   4.659   2.263   2.124  0.9274 -0.7607  0.2864
  381MOL0     C52505   4.763   2.254   2.060  0.7852 -0.1951  0.2344
  381MOL0     C52506   4.375   2.597   2.754 -0.6054  0.3209 -0.6156
  381MOL0     C52507   4.394   2.602   2.885 -0.4772 -0.2981 -0.3089
  381MOL0     C52508   4.476   2.724   2.938 -0.2915  0.1662  0.0739
  381MOL0     H52509   4.276   2.422   3.374  1.2897 -1.4473  0.8574
  381MOL0     H52510   4.310   2.456   3.617  2.3453  0.2067  0.7165
  381MOL0     H52511   4.406   2.825   3.771  0.1025  0.3731  0.6483
  381MOL0     H52512   4.583   2.804   3.763  0.2822  0.8066  1.0128
  381MOL0     H52513   4.448   2.841   4.000 -0.5709 -0.8518  0.5755
  381MOL0     H52514   4.396   2.676   3.970  0.3047 -0.0749  1.6267
  381MOL0     H52515   4.591   2.576   3.995 -0.3175 -0.2531 -2.5425
  381MOL0     H52516   4.692   2.718   3.959  1.3672 -1.2013  1.6967
  381MOL0     H52517   4.606   2.806   4.197  0.1952 -1.9420  4.8207
  381MOL0     H52518   4.523   2.652   4.208  1.1489 -3.9886 -2.7816
  381MOL0     H52519   4.734   2.525   4.166 -0.3071 -0.4464  0.8888
  381MOL0     H52520   4.726   2.627   4.317 -0.2604  0.0474  0.4747
  381MOL0     H52521   4.879   2.754   4.083 -0.2766  0.6198  0.6691
  381MOL0     H52522   4.879   2.786   4.246 -2.1843  0.3490  0.2768
  381MOL0     H52523   5.088   2.633   4.149  1.1507  0.3765  1.5354
  381MOL0     H52524   4.960   2.507   4.136  0.6098 -0.2569 -0.3303
  381MOL0     H52525   4.923   2.532   4.375 -0.4606  3.8503  1.9624
  381MOL0     H52526   5.088   2.477   4.333 -2.2309 -1.7409 -0.2319
  381MOL0     H52527   4.883   2.734   4.535 -0.4510  1.6387  0.3600
  381MOL0     H52528   4.980   2.885   4.749 -0.3923 -0.7023 -0.9729
  381MOL0     H52529   4.950   2.993   4.609  0.2145  2.7936  2.3168
  381MOL0     H52530   5.123   3.075   4.795 -1.5286 -0.1349  0.1301
  381MOL0     H52531   5.237   2.970   4.718  0.6617  0.5378 -0.5747
  381MOL0     H52532   5.162   3.089   4.488 -0.0134  4.7669 -1.5969
  381MOL0     H52533   5.092   3.216   4.597  1.3711  1.2291 -0.0617
  381MOL0     H52534   5.387   3.165   4.573  2.1790  1.8612  3.0168
  381MOL0     H52535   5.285   3.298   4.525 -0.3493  0.3161  0.4025
  381MOL0     H52536   5.320   3.349   4.942 -1.0843  0.5850 -2.6038
  381MOL0     H52537   5.438   3.407   5.142  0.3532  0.3482  0.0920
  381MOL0     H52538   5.558   3.548   5.127  4.3620 -1.2544  0.8525
  381MOL0     H52539   5.610   3.393   5.153  1.0265  1.8088 -0.1004
  381MOL0     H52540   6.081   3.577   4.804  0.2053 -0.9191 -1.1512
  381MOL0     H52541   6.295   3.611   4.909 -0.2729  0.0467 -0.6403
  381MOL0     H52542   6.491   3.661   5.049 -2.2172 -2.2918 -2.2033
  381MOL0     H52543   6.331   3.712   5.120 -1.5945 -3.6081 -1.5222
  381MOL0     H52544   6.463   3.803   5.265 -1.0702 -1.5685 -1.2904
  381MOL0     H52545   6.455   3.665   5.359  0.1873 -1.6324  0.7908
  381MOL0     H52546   6.676   3.623   5.173  1.3187  3.1350 -2.2910
  381MOL0     H52547   6.696   3.660   5.346 -0.3317  2.1469  0.8577
  381MOL0     H52548   6.710   3.894   5.321 -1.3899  0.6922  0.1334
  381MOL0     H52549   6.638   3.896   5.168 -1.4764 -1.8326  0.2132
  381MOL0     H52550   6.835   3.784   5.054  1.2818 -0.8887 -0.5437
  381MOL0     H52551   6.891   3.933   5.149 -0.0842 -0.4028 -0.2432
  381MOL0     H52552   6.956   3.650   5.181  2.6176  0.0104  0.4011
  381MOL0     H52553   6.916   3.744   5.334 -4.0006 -0.5504 -1.2299
  381MOL0     H52554   7.140   3.803   5.138  0.7020 -2.2332  0.3284
  381MOL0     H52555   7.165   3.729   5.280 -1.8639 -2.2169  1.3832
  381MOL0     H52556   7.076   3.927   5.418 -2.5057 -1.6492 -1.0610
  381MOL0     H52557   7.057   4.012   5.272  1.1530 -0.1151 -1.1020
  381MOL0     H52558   6.194   3.348   5.230 -1.2902 -1.2255  0.6094
  381MOL0     H52559   6.002   3.283   5.121  1.6155  0.6247  2.8174
  381MOL0     H52560   5.735   3.424   4.685 -1.8093  3.5705 -0.9884
  381MOL0     H52561   5.545   3.320   4.579  4.3955 -1.0113  1.1911
  381MOL0     H52562   4.587   2.774   3.549  3.2854 -2.8598 -0.4912
  381MOL0     H52563   4.525   2.774   3.302 -2.9428  2.5641  2.1038
  381MOL0     H52564   4.204   2.318   2.958 -0.0740 -0.8812 -2.1053
  381MOL0     H52565   4.172   2.328   2.716  1.0282 -1.0257 -0.2975
  381MOL0     H52566   4.422   2.601   2.417 -1.4949 -0.3387 -0.3150
  381MOL0     H52567   4.491   2.481   2.532 -0.4118 -1.8865 -0.4537
  381MOL0     H52568   4.327   2.435   2.292  1.4950  0.7280 -0.9268
  381MOL0     H52569   4.380   2.309   2.413 -0.5674 -0.4645 -1.4958
  381MOL0     H52570   4.575   2.480   2.266  1.5840  0.8095  0.3033
  381MOL0     H52571   4.617   2.358   2.377  0.7751  4.2542  0.1360
  381MOL0     H52572   4.459   2.296   2.108  1.4349 -1.3933 -1.8430
  381MOL0     H52573   4.492   2.175   2.228  0.0559  0.9211  0.9047
  381MOL0     H52574   4.865   2.250   2.027  0.3383 -0.2659 -1.2145
  381MOL0     H52575   4.437   2.664   2.696 -2.6189 -0.2394 -3.6394
  381MOL0     H52576   4.508   2.797   2.863 -0.8857  0.6343  0.2704
  381MOL0     H52577   4.414   2.781   3.008 -0.0045  1.6235 -0.8184
  381MOL0     H52578   4.568   2.687   2.984  0.0656 -0.0740 -0.8174
  382MOL0     O52579   4.482   6.831  10.828  0.8055  0.0967 -0.0701
  382MOL0     C52580   4.576   6.870  10.757  0.2099  0.0617  0.8074
  382MOL0     O52581   4.587   6.990  10.687  0.4367 -0.1296  0.2125
  382MOL0     C52582   4.483   7.074  10.677 -0.0804  0.0085 -0.7846
  382MOL0     C52583   4.478   7.206  10.723  0.3894  0.5295  0.3053
  382MOL0     C52584   4.363   7.283  10.699 -0.2107 -0.6959 -0.3232
  382MOL0     C52585   4.254   7.238  10.630 -0.2434 -0.2386  0.3895
  382MOL0     O52586   4.135   7.311  10.607 -0.2363 -0.2198  0.5412
  382MOL0     C52587   4.128   7.446  10.641  0.4126  0.0814  0.4283
  382MOL0     C52588   3.992   7.513  10.665  0.0852 -0.3736 -0.8170
  382MOL0     C52589   3.921   7.447  10.786  0.1978  0.1073  0.3547
  382MOL0     C52590   3.773   7.486  10.783  0.6116 -0.2657 -0.4348
  382MOL0     C52591   3.675   7.429  10.899 -0.2664  0.1544 -0.1129
  382MOL0     C52592   3.626   7.534  11.001  0.9812 -0.6222 -0.8693
  382MOL0     C52593   3.725   7.570  11.110  0.1231 -0.4985 -0.5554
  382MOL0     C52594   3.733   7.722  11.134  0.7568 -0.7847 -0.3881
  382MOL0     N52595   3.614   7.761  11.214  0.1410  0.1031  0.4259
  382MOL0     C52596   3.489   7.796  11.173 -0.5391 -0.1764  0.4808
  382MOL0     C52597   3.411   7.818  11.284 -0.2310 -0.3933 -0.6802
  382MOL0     C52598   3.262   7.846  11.287  0.0021 -0.5209 -0.2803
  382MOL0     C52599   3.173   7.721  11.265  0.3396 -1.2272 -0.0605
  382MOL0     C52600   3.029   7.757  11.315  0.6288  0.6227 -0.4095
  382MOL0     C52601   2.934   7.638  11.290  0.1219 -0.2762  0.4998
  382MOL0     O52602   2.811   7.657  11.367 -0.1250  0.3214 -0.2404
  382MOL0     C52603   2.710   7.568  11.366  0.1013 -1.0466 -0.2732
  382MOL0     C52604   2.688   7.475  11.267 -0.1839  0.3494 -0.4128
  382MOL0     C52605   2.569   7.402  11.249 -0.1009  0.5797  0.4283
  382MOL0     C52606   2.565   7.291  11.142  0.5159 -0.0148  0.9358
  382MOL0     C52607   2.472   7.405  11.349  0.8548  0.1993 -0.6654
  382MOL0     C52608   2.347   7.314  11.353  0.7366  1.3228 -0.2145
  382MOL0     O52609   2.334   7.208  11.266  1.0709  0.2288  0.0044
  382MOL0     C52610   2.239   7.109  11.288  0.5648 -0.3924 -0.5998
  382MOL0     C52611   2.206   7.021  11.182  0.9482  0.1891 -0.0708
  382MOL0     C52612   2.109   6.922  11.190  0.0314 -0.9799 -0.9716
  382MOL0     C52613   2.042   6.905  11.311 -0.1325 -0.8995 -0.0014
  382MOL0     O52614   1.954   6.803  11.330  0.1588  0.5966 -0.0138
  382MOL0     C52615   1.943   6.688  11.249  0.6456 -0.5582 -0.1630
  382MOL0     C52616   1.821   6.674  11.155  0.2808 -1.0202 -0.0408
  382MOL0     C52617   1.694   6.759  11.202  1.0663 -0.0559 -0.2484
  382MOL0     C52618   1.582   6.726  11.111 -0.0435  0.5126 -0.4819
  382MOL0     C52619   1.447   6.799  11.141  0.3431 -0.1154  0.0428
  382MOL0     C52620   1.358   6.734  11.248  0.3026  0.6351 -0.4595
  382MOL0     C52621   1.213   6.782  11.254  0.3219 -0.2752 -0.1630
  382MOL0     C52622   1.159   6.762  11.392  0.1267 -0.2806  1.3827
  382MOL0    Cl52623   0.983   6.813  11.405 -0.3627  0.1491  0.4723
  382MOL0     C52624   2.067   7.000  11.410 -0.2415  0.7543 -0.0863
  382MOL0     C52625   2.166   7.089  11.408  0.9628  0.7402  0.2949
  382MOL0     O52626   2.255   7.361  11.417 -0.0611 -0.4478  0.5096
  382MOL0     C52627   2.492   7.495  11.459 -0.0373  0.5768 -0.0764
  382MOL0     C52628   2.600   7.579  11.461  0.4300  0.1977 -1.0222
  382MOL0     N52629   3.498   7.796  11.384 -0.6743  0.4257  0.7857
  382MOL0     N52630   3.615   7.768  11.345  0.4890  0.1172 -0.1064
  382MOL0     C52631   4.264   7.101  10.573  0.3778 -0.1531 -0.4258
  382MOL0     C52632   4.379   7.027  10.599 -0.2850  0.0200  0.2022
  382MOL0     C52633   4.681   6.774  10.726  0.7440 -0.1588  0.1285
  382MOL0     C52634   4.775   6.798  10.619  0.1304  0.2018 -0.3749
  382MOL0     C52635   4.852   6.689  10.577 -0.1020 -0.2788 -0.4396
  382MOL0     C52636   4.852   6.559  10.650  0.1432  0.2985 -0.2197
  382MOL0     O52637   4.934   6.451  10.622  0.4204 -0.3668  0.6935
  382MOL0     C52638   5.009   6.452  10.503 -0.0570  0.7466 -0.4399
  382MOL0     C52639   5.139   6.527  10.505 -0.1849 -0.3731  0.9540
  382MOL0     C52640   5.211   6.526  10.366 -0.4326 -0.6954 -0.9725
  382MOL0     C52641   5.356   6.589  10.390  0.1828 -0.1456 -0.2462
  382MOL0     C52642   5.418   6.649  10.271  0.2954 -0.3192  0.2396
  382MOL0     C52643   5.459   6.717  10.178 -0.5579 -0.3832  0.2913
  382MOL0     C52644   4.772   6.547  10.771 -0.0427  0.5816  0.7169
  382MOL0     C52645   4.682   6.652  10.806  0.0967 -0.5679 -0.3961
  382MOL0     C52646   4.610   6.622  10.933 -0.8232  0.3750 -0.1485
  382MOL0     H52647   4.558   7.257  10.774 -0.2528  1.4238  0.4405
  382MOL0     H52648   4.365   7.380  10.749 -0.0814 -0.3357 -1.0087
  382MOL0     H52649   4.188   7.511  10.576 -1.1157  0.1340 -0.9593
  382MOL0     H52650   4.169   7.451  10.743 -0.2335  0.4644  0.6793
  382MOL0     H52651   4.010   7.621  10.674  3.2929 -0.5595 -3.2170
  382MOL0     H52652   3.926   7.494  10.579 -1.1740  0.8254 -0.1680
  382MOL0     H52653   3.926   7.338  10.780 -0.2516  0.0002  1.5270
  382MOL0     H52654   3.967   7.482  10.879  2.4258 -0.5397 -0.4539
  382MOL0     H52655   3.756   7.594  10.779  0.7587 -0.0268  2.8421
  382MOL0     H52656   3.741   7.445  10.686  0.8245  2.1204 -1.5764
  382MOL0     H52657   3.727   7.363  10.969  3.1158  4.1155  1.5273
  382MOL0     H52658   3.581   7.381  10.867 -1.9229 -0.4245  4.7843
  382MOL0     H52659   3.603   7.621  10.938  1.1201  0.2509  0.2635
  382MOL0     H52660   3.526   7.504  11.033  2.4601 -3.4660  1.5480
  382MOL0     H52661   3.827   7.531  11.097 -0.4514 -1.9064 -1.1321
  382MOL0     H52662   3.696   7.510  11.196  0.4980 -0.7374 -0.5893
  382MOL0     H52663   3.826   7.747  11.186  1.0060 -0.6950 -0.8761
  382MOL0     H52664   3.740   7.771  11.037  0.1371  1.7997  0.7579
  382MOL0     H52665   3.457   7.791  11.069  0.6002 -0.5463  0.1308
  382MOL0     H52666   3.237   7.924  11.214  1.1578  2.2362  2.0822
  382MOL0     H52667   3.242   7.891  11.384  0.0245 -0.6656 -0.2087
  382MOL0     H52668   3.173   7.697  11.158  3.1894 -1.9272  0.0070
  382MOL0     H52669   3.222   7.637  11.315  1.8957 -0.2976  0.0313
  382MOL0     H52670   3.035   7.760  11.424  1.3127 -1.0846 -0.3759
  382MOL0     H52671   2.970   7.846  11.291  1.2091  1.0338 -0.3148
  382MOL0     H52672   2.917   7.623  11.183 -1.8031 -3.1868  1.1008
  382MOL0     H52673   2.977   7.543  11.324 -0.1747 -0.5408  0.1457
  382MOL0     H52674   2.750   7.468  11.179 -2.6015 -1.5525 -2.1163
  382MOL0     H52675   2.574   7.188  11.176 -0.0426 -1.1069 -1.9470
  382MOL0     H52676   2.646   7.309  11.071 -0.2949  1.5682  0.3498
  382MOL0     H52677   2.468   7.311  11.096 -0.0232 -1.6159  1.3342
  382MOL0     H52678   2.248   7.031  11.082 -0.8624  0.2728 -0.8656
  382MOL0     H52679   2.100   6.848  11.111  0.5829 -0.3581 -1.6285
  382MOL0     H52680   2.032   6.669  11.190 -0.2742  2.8779 -2.9744
  382MOL0     H52681   1.933   6.597  11.310 -0.0725 -1.0786 -1.0256
  382MOL0     H52682   1.848   6.703  11.053  1.1264 -2.2016 -0.1757
  382MOL0     H52683   1.794   6.568  11.150 -1.6209 -0.5473 -3.0426
  382MOL0     H52684   1.721   6.865  11.196  1.8010 -0.3057 -1.9950
  382MOL0     H52685   1.661   6.735  11.304 -5.3537 -1.0570 -2.0911
  382MOL0     H52686   1.566   6.618  11.116 -0.9389  0.6844  1.0117
  382MOL0     H52687   1.613   6.760  11.012  0.3004 -1.0028 -0.9074
  382MOL0     H52688   1.468   6.902  11.171  1.1001 -0.9105  2.5267
  382MOL0     H52689   1.389   6.809  11.049  3.4235  1.9327 -1.8274
  382MOL0     H52690   1.411   6.744  11.343  0.9191 -0.5632 -0.6598
  382MOL0     H52691   1.343   6.627  11.233  1.1981  0.3121  0.7692
  382MOL0     H52692   1.153   6.729  11.180 -0.5063 -1.1827  1.1188
  382MOL0     H52693   1.209   6.890  11.240  0.9414  0.0802  1.9695
  382MOL0     H52694   1.214   6.825  11.462  0.2365  4.6873 -2.5973
  382MOL0     H52695   1.158   6.654  11.411 -0.3901 -0.1390  2.2035
  382MOL0     H52696   2.018   6.976  11.504  1.8707 -1.1027  0.6158
  382MOL0     H52697   2.178   7.151  11.497 -3.8605 -1.4484  2.8570
  382MOL0     H52698   2.422   7.501  11.542 -3.0753  2.9779 -2.5634
  382MOL0     H52699   2.614   7.647  11.544  0.3492 -1.3221  0.2822
  382MOL0     H52700   4.174   7.071  10.522  0.0884 -1.0701  0.6069
  382MOL0     H52701   4.398   6.927  10.559  2.8563 -0.0890  1.7109
  382MOL0     H52702   4.764   6.883  10.553  1.8320  0.2768 -0.6146
  382MOL0     H52703   4.916   6.705  10.491  1.1053  1.6975  0.7454
  382MOL0     H52704   5.039   6.353  10.468 -0.0147  0.6517 -0.1398
  382MOL0     H52705   4.958   6.511  10.426  1.8524  1.7936 -0.9546
  382MOL0     H52706   5.204   6.481  10.580 -0.0112 -3.5123 -0.9668
  382MOL0     H52707   5.112   6.629  10.536 -0.1191 -0.8864  2.8370
  382MOL0     H52708   5.217   6.424  10.327  0.5049 -1.1764  0.3511
  382MOL0     H52709   5.151   6.585  10.297  1.5216  0.2250 -1.9523
  382MOL0     H52710   5.420   6.513  10.437  0.8094  0.5827  0.1062
  382MOL0     H52711   5.355   6.669  10.464  0.3856  1.5149 -1.9675
  382MOL0     H52712   5.485   6.789  10.104  0.0968  1.0390  1.8262
  382MOL0     H52713   4.782   6.447  10.811  0.0637  1.1506  2.1488
  382MOL0     H52714   4.629   6.522  10.973 -0.1621  1.5326  2.6352
  382MOL0     H52715   4.638   6.690  11.013 -1.2646  0.5901 -0.1755
  382MOL0     H52716   4.502   6.637  10.932 -0.9212  1.8846  5.3177
  383MOL0     O52717   3.386   5.097   5.237  0.8840 -0.3756 -0.8075
  383MOL0     C52718   3.442   5.137   5.140 -0.6058  0.0588  0.4901
  383MOL0     O52719   3.581   5.126   5.115 -0.5366  0.0222 -0.0706
  383MOL0     C52720   3.660   5.111   5.224  0.5322 -0.1584  0.4947
  383MOL0     C52721   3.710   5.222   5.288  0.6729  0.5227  0.2582
  383MOL0     C52722   3.789   5.208   5.399  0.0909 -0.1381  0.5318
  383MOL0     C52723   3.817   5.082   5.457  0.2286 -0.5111 -1.2890
  383MOL0     O52724   3.891   5.066   5.574  0.6596 -0.0760 -0.2136
  383MOL0     C52725   3.961   5.174   5.628 -0.3680 -0.4669 -1.3430
  383MOL0     C52726   4.049   5.127   5.748  0.9759 -0.3243 -0.5227
  383MOL0     C52727   4.173   5.055   5.692  0.4125 -0.1016  0.2902
  383MOL0     C52728   4.276   5.011   5.807 -0.9747  0.2528 -0.8333
  383MOL0     C52729   4.401   4.943   5.751  0.1032 -0.2072 -0.2303
  383MOL0     C52730   4.470   4.998   5.623  0.1831 -0.1534  0.3104
  383MOL0     C52731   4.603   4.907   5.617  0.4604  0.4255 -0.3168
  383MOL0     C52732   4.709   4.968   5.699 -0.3638  0.7215 -0.2669
  383MOL0     N52733   4.837   4.901   5.660  0.3892  0.2803 -0.9816
  383MOL0     C52734   4.920   4.930   5.552  1.0008  0.2791  0.8220
  383MOL0     C52735   5.026   4.845   5.560 -0.5482  0.1556 -0.1338
  383MOL0     C52736   5.142   4.846   5.468  0.2504  0.0331  0.1931
  383MOL0     C52737   5.222   4.976   5.479  0.6595  0.2579 -0.2550
  383MOL0     C52738   5.358   4.960   5.399 -0.5659 -0.4848  0.5805
  383MOL0     C52739   5.437   4.830   5.429  0.4958  0.0587 -0.8344
  383MOL0     O52740   5.462   4.818   5.573  0.4227 -0.5094 -0.6709
  383MOL0     C52741   5.572   4.883   5.621 -0.1565  0.5266 -0.2121
  383MOL0     C52742   5.696   4.845   5.582  0.3540  0.9976  1.1298
  383MOL0     C52743   5.812   4.911   5.633  0.4550  0.4108 -0.2187
  383MOL0     C52744   5.939   4.865   5.564 -0.7158  0.5979 -0.3877
  383MOL0     C52745   5.797   5.003   5.737  0.0463  0.0613  0.0638
  383MOL0     C52746   5.918   5.067   5.789 -0.1181 -0.3272  0.3454
  383MOL0     O52747   6.033   4.988   5.813  0.0124 -0.3447  0.4036
  383MOL0     C52748   6.157   5.042   5.841  1.1111 -0.1361 -0.2688
  383MOL0     C52749   6.229   5.123   5.751 -0.5677  0.9078 -0.7656
  383MOL0     C52750   6.358   5.165   5.799  0.3886  0.4583  0.0056
  383MOL0     C52751   6.411   5.127   5.922  0.5276 -0.0511  0.3988
  383MOL0     O52752   6.535   5.168   5.952  0.7904  0.3024 -0.3348
  383MOL0     C52753   6.612   5.109   6.053 -0.2707 -0.5255  0.4634
  383MOL0     C52754   6.677   4.983   6.002 -0.1908  0.4518  0.6014
  383MOL0     C52755   6.735   4.999   5.860  0.0556  0.5517 -1.0717
  383MOL0     C52756   6.844   5.104   5.861  0.4065  0.6442  0.4174
  383MOL0     C52757   6.962   5.081   5.769 -0.0072 -0.0877  0.2017
  383MOL0     C52758   7.067   5.185   5.771  0.1466 -0.6654  1.2398
  383MOL0     C52759   7.126   5.217   5.900  0.4738 -0.8020 -0.9345
  383MOL0     C52760   7.230   5.119   5.953 -0.0085 -0.2111  0.2122
  383MOL0    Cl52761   7.391   5.133   5.872 -0.2246  0.6121  0.4690
  383MOL0     C52762   6.333   5.051   6.009 -0.0317  0.3962 -0.5624
  383MOL0     C52763   6.209   5.016   5.969  0.2000 -1.0531  0.3080
  383MOL0     O52764   5.907   5.192   5.809  0.8920 -0.3274  0.0624
  383MOL0     C52765   5.668   5.053   5.760  0.3053  0.4468 -1.7483
  383MOL0     C52766   5.549   4.990   5.705 -0.8012 -0.6086 -0.4087
  383MOL0     N52767   5.013   4.786   5.681 -0.5609  0.4629 -0.2555
  383MOL0     N52768   4.895   4.810   5.739 -1.2838 -0.6392 -0.1144
  383MOL0     C52769   3.762   4.976   5.392 -0.5506  0.7096 -0.2044
  383MOL0     C52770   3.678   4.983   5.274 -0.2793  0.6923 -0.1558
  383MOL0     C52771   3.377   5.219   5.035  0.4113 -0.8972 -0.7753
  383MOL0     C52772   3.440   5.239   4.910 -0.7373  0.1371 -0.4519
  383MOL0     C52773   3.388   5.319   4.809  0.3948  0.5118  0.3957
  383MOL0     C52774   3.270   5.393   4.843  0.2318  0.3595  0.0191
  383MOL0     O52775   3.217   5.490   4.754 -0.5035  0.4055 -0.0324
  383MOL0     C52776   3.259   5.500   4.620  0.7279 -0.1462  0.8591
  383MOL0     C52777   3.197   5.385   4.526  0.1526 -0.1387  0.4305
  383MOL0     C52778   3.098   5.439   4.419 -0.4659 -0.0945  0.3526
  383MOL0     C52779   3.166   5.507   4.301  0.4187 -0.7597 -0.0535
  383MOL0     C52780   3.068   5.549   4.210 -0.4317 -0.3676 -0.0352
  383MOL0     C52781   2.973   5.576   4.137 -0.1073  0.5252  0.4669
  383MOL0     C52782   3.209   5.376   4.971 -0.1823  0.3300  0.8735
  383MOL0     C52783   3.266   5.298   5.067 -0.2358  0.4102 -0.0991
  383MOL0     C52784   3.190   5.306   5.195 -0.1211 -0.4008  0.3817
  383MOL0     H52785   3.671   5.320   5.261 -0.0446 -0.2039 -1.4603
  383MOL0     H52786   3.820   5.294   5.458 -1.9451  2.5666 -2.0735
  383MOL0     H52787   3.881   5.235   5.671  0.2390 -1.5742  1.5833
  383MOL0     H52788   4.019   5.221   5.548 -1.5048  0.0624 -1.8774
  383MOL0     H52789   4.068   5.215   5.811  0.8812  0.1239 -1.1136
  383MOL0     H52790   3.995   5.052   5.806  0.2274 -2.0582 -3.2939
  383MOL0     H52791   4.135   4.977   5.626 -1.5794  2.0576 -1.2941
  383MOL0     H52792   4.233   5.127   5.636 -0.6242  0.9039  0.4253
  383MOL0     H52793   4.308   5.098   5.865 -2.6327  2.0401 -2.4357
  383MOL0     H52794   4.232   4.946   5.884 -2.0669  2.4502  0.4971
  383MOL0     H52795   4.369   4.842   5.722 -1.3449  0.5960 -1.6525
  383MOL0     H52796   4.469   4.951   5.836 -2.4334  0.1864  1.9080
  383MOL0     H52797   4.401   4.982   5.539 -0.0825 -2.4984  0.9061
  383MOL0     H52798   4.489   5.106   5.619  0.4795 -0.1313  1.6247
  383MOL0     H52799   4.642   4.902   5.514 -0.1514 -1.3845 -0.4949
  383MOL0     H52800   4.589   4.805   5.654  3.6766  0.0380  0.1410
  383MOL0     H52801   4.703   5.076   5.680 -2.1955  0.7644  0.3766
  383MOL0     H52802   4.692   4.940   5.803 -0.6614  1.7237 -0.0384
  383MOL0     H52803   4.905   4.996   5.468 -3.0670  0.8278  1.7779
  383MOL0     H52804   5.113   4.844   5.363  0.4110  0.8593  0.1209
  383MOL0     H52805   5.210   4.766   5.500  1.3049  0.3506 -1.1684
  383MOL0     H52806   5.168   5.065   5.448 -3.8040 -1.8764  0.5894
  383MOL0     H52807   5.247   4.985   5.585  1.5898 -0.3899 -0.3972
  383MOL0     H52808   5.345   4.968   5.291  1.6047 -1.7362  0.1676
  383MOL0     H52809   5.413   5.051   5.423 -3.2963  1.6010 -0.5698
  383MOL0     H52810   5.384   4.740   5.397 -2.2072  1.1324  0.4111
  383MOL0     H52811   5.527   4.818   5.367  0.3858 -1.2468 -0.7658
  383MOL0     H52812   5.701   4.759   5.515  0.2752  1.3968  0.5994
  383MOL0     H52813   6.007   4.944   5.530  1.6880 -2.3546 -3.1595
  383MOL0     H52814   5.914   4.811   5.472  1.1004 -0.7439 -0.1416
  383MOL0     H52815   6.001   4.809   5.634  2.0782  4.3925  0.5021
  383MOL0     H52816   6.177   5.156   5.662  1.0095 -0.3510 -2.2282
  383MOL0     H52817   6.414   5.230   5.732 -0.3099 -1.8135 -3.0220
  383MOL0     H52818   6.692   5.182   6.069  0.3656 -0.0137 -3.7727
  383MOL0     H52819   6.561   5.092   6.148 -0.0269 -0.5513  0.5907
  383MOL0     H52820   6.744   4.953   6.082  1.1560 -0.3972 -0.8037
  383MOL0     H52821   6.607   4.899   5.999 -0.1112  0.4050 -0.2026
  383MOL0     H52822   6.658   5.023   5.787 -2.5447  0.4341  1.4837
  383MOL0     H52823   6.783   4.906   5.825  0.3337  0.3710 -0.2293
  383MOL0     H52824   6.883   5.122   5.962  3.2831 -0.1151 -0.4831
  383MOL0     H52825   6.792   5.187   5.812 -0.0313 -0.5929 -1.3056
  383MOL0     H52826   6.994   4.978   5.787 -0.8242 -0.7657 -1.9543
  383MOL0     H52827   6.932   5.088   5.664  2.8009  1.7337 -0.5768
  383MOL0     H52828   7.035   5.279   5.725 -2.5545 -1.2745  1.6963
  383MOL0     H52829   7.146   5.157   5.701  0.3991  2.8657 -0.0734
  383MOL0     H52830   7.057   5.223   5.985  2.3235 -2.5769  0.7978
  383MOL0     H52831   7.173   5.314   5.886  1.0129 -0.6995  1.2300
  383MOL0     H52832   7.201   5.015   5.941  0.5286 -0.1292 -2.2517
  383MOL0     H52833   7.245   5.138   6.060  0.4942  0.2323  0.0717
  383MOL0     H52834   6.371   5.012   6.103 -1.6932  0.6438  0.2458
  383MOL0     H52835   6.150   4.959   6.040  0.0667 -0.3325  0.7843
  383MOL0     H52836   5.650   5.128   5.837  0.0887 -1.9978  0.7384
  383MOL0     H52837   5.453   5.030   5.737  0.3940  0.1171  2.5728
  383MOL0     H52838   3.779   4.877   5.432 -2.5505  0.3863 -0.0513
  383MOL0     H52839   3.632   4.896   5.227  0.4878 -0.3270  0.9226
  383MOL0     H52840   3.533   5.192   4.882  0.3865  1.9004  0.1670
  383MOL0     H52841   3.433   5.337   4.712 -0.2896 -0.9051 -0.2152
  383MOL0     H52842   3.221   5.593   4.576  0.8192 -1.7293 -2.9577
  383MOL0     H52843   3.369   5.498   4.618  0.7331 -0.0507 -0.9896
  383MOL0     H52844   3.149   5.307   4.586  0.6803 -0.7400  0.0791
  383MOL0     H52845   3.280   5.332   4.479  0.7790  0.6372  0.6378
  383MOL0     H52846   3.052   5.347   4.381 -3.4195  2.6545 -3.4980
  383MOL0     H52847   3.019   5.506   4.454  0.6820  1.9732 -0.8011
  383MOL0     H52848   3.241   5.445   4.251 -1.7838 -1.3380 -2.9334
  383MOL0     H52849   3.208   5.596   4.349  1.9211 -0.5468 -1.6452
  383MOL0     H52850   2.887   5.607   4.081  0.2215  1.3923  0.4259
  383MOL0     H52851   3.120   5.437   4.980  0.5355  1.4511  0.6346
  383MOL0     H52852   3.144   5.209   5.218 -1.1959 -0.4528 -1.7867
  383MOL0     H52853   3.253   5.332   5.281 -2.2472 -0.1529  1.9303
  383MOL0     H52854   3.110   5.379   5.187  0.5296  0.1035 -2.2533
  384MOL0     O52855   5.657   3.929   2.905 -0.6181  0.2275  0.2292
  384MOL0     C52856   5.561   3.999   2.894 -0.1997  0.2992  0.1208
  384MOL0     O52857   5.526   4.052   2.776 -0.4979 -0.4303  0.3846
  384MOL0     C52858   5.598   4.024   2.667 -0.3762  0.3794 -0.5612
  384MOL0     C52859   5.538   4.000   2.547 -0.0385  0.6726  0.0515
  384MOL0     C52860   5.617   3.968   2.435  0.3473 -0.2719 -0.9040
  384MOL0     C52861   5.761   3.964   2.433  0.0946 -0.3125 -0.4939
  384MOL0     O52862   5.811   3.927   2.314  0.0845  0.3041  0.4630
  384MOL0     C52863   5.956   3.915   2.317  0.3623  0.0077 -0.3220
  384MOL0     C52864   6.023   3.870   2.185 -0.7019  0.1125 -0.4029
  384MOL0     C52865   6.036   3.720   2.177 -0.2142 -0.1842 -0.2758
  384MOL0     C52866   6.146   3.663   2.256 -0.7061 -0.5622 -0.1027
  384MOL0     C52867   6.123   3.514   2.266 -0.6668  0.2021 -0.4659
  384MOL0     C52868   6.076   3.481   2.405  0.3300  0.4001 -0.4686
  384MOL0     C52869   6.180   3.510   2.515  0.0385 -0.3509  0.0215
  384MOL0     C52870   6.298   3.408   2.526 -0.2495 -0.4544  0.1650
  384MOL0     N52871   6.366   3.446   2.659 -0.5912 -0.3104 -0.4999
  384MOL0     C52872   6.330   3.401   2.783  0.3231 -0.2503 -0.2557
  384MOL0     C52873   6.377   3.496   2.867 -0.0111  0.0537  0.1544
  384MOL0     C52874   6.358   3.469   3.016 -0.4768  0.5218 -0.1986
  384MOL0     C52875   6.454   3.547   3.112 -0.5221 -0.1962  0.0948
  384MOL0     C52876   6.398   3.686   3.143 -0.1163 -0.4520 -0.2841
  384MOL0     C52877   6.444   3.727   3.287 -0.0341 -0.4799 -0.5701
  384MOL0     O52878   6.397   3.642   3.397 -0.5086  0.9806  0.1246
  384MOL0     C52879   6.488   3.601   3.493 -0.8750  0.4394  0.6878
  384MOL0     C52880   6.490   3.466   3.527 -0.3189 -0.0393  1.0620
  384MOL0     C52881   6.570   3.406   3.629  0.9233 -1.0913  0.2110
  384MOL0     C52882   6.568   3.255   3.641 -0.3862 -0.7852  0.2562
  384MOL0     C52883   6.659   3.495   3.708 -0.1932  0.1708 -0.0485
  384MOL0     C52884   6.751   3.455   3.820  1.0423  0.6500 -0.1563
  384MOL0     O52885   6.837   3.555   3.853 -0.6622 -0.2743  0.3282
  384MOL0     C52886   6.917   3.525   3.967  0.4005  0.7499  0.0124
  384MOL0     C52887   7.045   3.468   3.958  0.6552  0.3781  0.4383
  384MOL0     C52888   7.115   3.443   4.070 -0.8910  0.0947 -0.0425
  384MOL0     C52889   7.055   3.467   4.192 -0.2737 -0.3097 -0.7296
  384MOL0     O52890   7.123   3.459   4.313  1.5237  0.7030  0.2144
  384MOL0     C52891   7.175   3.577   4.374  0.0141  0.2541 -0.3069
  384MOL0     C52892   7.332   3.540   4.385 -0.0335 -1.0464 -0.3905
  384MOL0     C52893   7.417   3.648   4.453  0.0634 -0.0521  0.3645
  384MOL0     C52894   7.561   3.604   4.480 -0.6728  0.1123  0.4014
  384MOL0     C52895   7.637   3.723   4.522 -0.8343 -0.0190  0.1924
  384MOL0     C52896   7.792   3.708   4.541  1.1316  0.1404 -0.7102
  384MOL0     C52897   7.881   3.677   4.421  0.9545  0.7521 -0.3132
  384MOL0     C52898   7.843   3.761   4.307  0.2955 -0.0664 -0.3683
  384MOL0    Cl52899   7.879   3.936   4.349  0.3189 -0.2179  0.2696
  384MOL0     C52900   6.924   3.516   4.200 -0.3837  0.1882 -0.4431
  384MOL0     C52901   6.858   3.547   4.091  0.9619  0.4995 -0.4231
  384MOL0     O52902   6.750   3.336   3.861 -0.2205  0.2401 -0.4689
  384MOL0     C52903   6.657   3.631   3.673  0.1311 -0.2573 -1.5507
  384MOL0     C52904   6.574   3.674   3.569  0.1849  0.2104 -0.7014
  384MOL0     N52905   6.466   3.574   2.795  0.4106 -0.4598 -0.0815
  384MOL0     N52906   6.450   3.545   2.671 -0.5791 -0.5607  1.1262
  384MOL0     C52907   5.822   3.996   2.556 -0.1063 -0.2211  0.6587
  384MOL0     C52908   5.737   4.035   2.663 -1.6083 -1.0154  0.0385
  384MOL0     C52909   5.463   4.026   2.998  0.3887 -0.2714  0.0743
  384MOL0     C52910   5.373   4.138   2.980 -0.3999 -0.4624 -0.3076
  384MOL0     C52911   5.280   4.178   3.075 -0.2809 -0.7281  0.5838
  384MOL0     C52912   5.284   4.123   3.202  0.3209 -0.1928  0.0659
  384MOL0     O52913   5.200   4.175   3.298 -0.3242 -0.6460  0.6688
  384MOL0     C52914   5.204   4.152   3.445 -0.6346  0.1543 -0.4670
  384MOL0     C52915   5.087   4.219   3.505  0.4430 -0.0237  0.2625
  384MOL0     C52916   4.960   4.130   3.492 -0.2701 -1.1871  0.9566
  384MOL0     C52917   4.842   4.200   3.550  0.0509  0.1282  0.1647
  384MOL0     C52918   4.743   4.094   3.567  0.2955 -1.3764  0.2285
  384MOL0     C52919   4.676   3.995   3.583 -0.5101 -0.2249 -0.0539
  384MOL0     C52920   5.386   4.032   3.227  0.3052  1.1039  0.3486
  384MOL0     C52921   5.471   3.972   3.127  0.1591  0.0948 -0.3870
  384MOL0     C52922   5.553   3.851   3.164  0.3849 -0.5349 -0.5550
  384MOL0     H52923   5.434   3.970   2.541  0.3907 -0.9941  0.2657
  384MOL0     H52924   5.572   3.931   2.343  1.4107 -1.9684 -0.7746
  384MOL0     H52925   5.988   3.845   2.394 -2.1623 -2.2386 -1.1862
  384MOL0     H52926   5.995   4.014   2.345  1.6359 -1.3977  3.4230
  384MOL0     H52927   5.961   3.906   2.102 -3.3451 -3.1276 -0.0825
  384MOL0     H52928   6.119   3.922   2.178 -1.7004  2.8764  3.3219
  384MOL0     H52929   5.938   3.677   2.200  1.5987 -4.4581  0.4455
  384MOL0     H52930   6.052   3.695   2.072 -0.4599 -2.5576  0.1976
  384MOL0     H52931   6.240   3.675   2.201 -0.0160  0.5368  1.2375
  384MOL0     H52932   6.139   3.724   2.346 -1.4086  2.3136 -1.9715
  384MOL0     H52933   6.207   3.450   2.236  0.4836  0.4162  2.0007
  384MOL0     H52934   6.040   3.476   2.207  0.1963  2.2090 -3.1566
  384MOL0     H52935   5.985   3.541   2.422 -0.4975 -0.7629 -0.7036
  384MOL0     H52936   6.034   3.382   2.423  1.2170  0.2522  0.9614
  384MOL0     H52937   6.127   3.518   2.609  1.0495  1.9104  0.4480
  384MOL0     H52938   6.236   3.602   2.497  0.1135 -0.1593  1.1695
  384MOL0     H52939   6.274   3.301   2.532 -2.4409 -0.1714 -1.9514
  384MOL0     H52940   6.362   3.432   2.441  0.0577  0.0180  0.5252
  384MOL0     H52941   6.267   3.314   2.803 -0.4906  0.5581  0.8318
  384MOL0     H52942   6.376   3.363   3.039  0.5743  0.9167  0.9162
  384MOL0     H52943   6.253   3.487   3.042 -0.6989 -2.1695  1.0735
  384MOL0     H52944   6.473   3.484   3.199 -1.1697 -1.1921 -0.4606
  384MOL0     H52945   6.551   3.563   3.064 -0.3851 -2.6061 -0.5487
  384MOL0     H52946   6.441   3.750   3.066  1.4321 -0.3777  0.5937
  384MOL0     H52947   6.290   3.703   3.144 -0.0769 -0.1456 -1.1028
  384MOL0     H52948   6.553   3.736   3.289 -0.1403  1.8970 -1.6442
  384MOL0     H52949   6.419   3.833   3.302  0.8179  0.1861 -3.3033
  384MOL0     H52950   6.430   3.399   3.467  0.0215  0.3922  0.2049
  384MOL0     H52951   6.519   3.221   3.733  0.2964  0.5175  1.1265
  384MOL0     H52952   6.672   3.222   3.652  0.0512  1.1278  2.7799
  384MOL0     H52953   6.519   3.211   3.554  2.3671  1.0433 -2.3998
  384MOL0     H52954   7.085   3.451   3.859 -0.0103  1.1999  0.0184
  384MOL0     H52955   7.210   3.393   4.055 -1.4860 -0.2580 -3.6496
  384MOL0     H52956   7.162   3.671   4.318 -0.7788  0.6318  0.4859
  384MOL0     H52957   7.130   3.601   4.471 -0.6623  2.1713 -1.0329
  384MOL0     H52958   7.340   3.450   4.446  0.7116 -1.0964 -0.5525
  384MOL0     H52959   7.365   3.522   4.282  0.5748 -0.6903 -0.2651
  384MOL0     H52960   7.367   3.666   4.549  3.2404 -0.1646  2.1879
  384MOL0     H52961   7.420   3.745   4.403  3.1820  0.6577  1.6662
  384MOL0     H52962   7.609   3.562   4.391 -1.3315  0.5837 -0.1968
  384MOL0     H52963   7.559   3.526   4.556 -0.8814 -0.3563 -0.0793
  384MOL0     H52964   7.623   3.798   4.444 -3.8875 -1.3768 -0.6760
  384MOL0     H52965   7.596   3.769   4.612 -0.9420  2.1241 -0.8822
  384MOL0     H52966   7.796   3.633   4.621 -1.9526  2.0057  1.4340
  384MOL0     H52967   7.839   3.790   4.596  1.7112  0.7540 -2.0856
  384MOL0     H52968   7.871   3.570   4.398  1.2926  0.6950 -0.2053
  384MOL0     H52969   7.986   3.692   4.447  0.8795 -0.7688  1.0472
  384MOL0     H52970   7.739   3.752   4.273  0.2508  2.6351 -1.1626
  384MOL0     H52971   7.898   3.733   4.217 -3.1403  1.3030 -3.1058
  384MOL0     H52972   6.867   3.529   4.291  1.1882  0.8826  0.4848
  384MOL0     H52973   6.757   3.585   4.104  0.5791  0.4195 -2.8249
  384MOL0     H52974   6.720   3.698   3.731 -3.2268  0.4430  1.6627
  384MOL0     H52975   6.577   3.782   3.553 -1.6806  0.6594  1.4457
  384MOL0     H52976   5.929   4.000   2.573 -0.2381 -3.2589  3.1394
  384MOL0     H52977   5.800   4.065   2.747 -2.6393  0.8804  0.1845
  384MOL0     H52978   5.360   4.183   2.882  1.3403 -1.0406 -0.8554
  384MOL0     H52979   5.207   4.253   3.044  1.6339  0.7824 -0.5225
  384MOL0     H52980   5.198   4.046   3.475 -3.7798  0.8771  2.0476
  384MOL0     H52981   5.298   4.193   3.482 -1.3899  3.2880 -1.7143
  384MOL0     H52982   5.057   4.313   3.458 -0.3754 -1.2911 -1.8767
  384MOL0     H52983   5.109   4.234   3.611  1.6492 -1.1004  0.1750
  384MOL0     H52984   4.947   4.119   3.384 -2.5648 -0.8103  1.1503
  384MOL0     H52985   4.997   4.037   3.536  0.8594 -0.6712  1.1607
  384MOL0     H52986   4.807   4.280   3.484  1.1348 -1.4683 -2.5189
  384MOL0     H52987   4.869   4.244   3.647  1.8004 -1.1884  0.3245
  384MOL0     H52988   4.613   3.909   3.590 -0.8913 -0.0071 -0.7177
  384MOL0     H52989   5.412   3.985   3.322  4.5198  1.3126 -0.4862
  384MOL0     H52990   5.533   3.818   3.267  1.6829  1.1782  0.2921
  384MOL0     H52991   5.537   3.768   3.094  1.1746 -1.0750 -0.1020
  384MOL0     H52992   5.658   3.879   3.169  0.4809 -1.0509  0.9028
  385MOL0     O52993   5.989   0.368   7.121 -0.5531 -1.0418 -0.5222
  385MOL0     C52994   6.013   0.359   7.243  0.4064 -1.3525  0.2516
  385MOL0     O52995   6.133   0.367   7.302 -0.0448  0.0291  0.1151
  385MOL0     C52996   6.246   0.408   7.232  0.5716  0.0487  0.3740
  385MOL0     C52997   6.245   0.507   7.135  0.8940  0.9749 -0.3496
  385MOL0     C52998   6.368   0.554   7.086  0.5559 -0.6839  0.1300
  385MOL0     C52999   6.490   0.505   7.139  0.7671  0.5978  0.5055
  385MOL0     O53000   6.610   0.540   7.092  0.0037 -0.4755  0.4455
  385MOL0     C53001   6.656   0.673   7.058  0.2223  0.5251 -0.1587
  385MOL0     C53002   6.656   0.760   7.183  0.2939 -0.2271  1.3045
  385MOL0     C53003   6.751   0.704   7.288  0.4389  0.4001 -0.6211
  385MOL0     C53004   6.849   0.807   7.342 -0.0121 -0.1931 -0.5860
  385MOL0     C53005   6.896   0.781   7.491  0.0280 -0.8142  0.6014
  385MOL0     C53006   6.993   0.670   7.502  0.5394  0.0301 -0.2581
  385MOL0     C53007   7.018   0.624   7.642 -0.3133 -0.4066  0.6134
  385MOL0     C53008   7.075   0.731   7.736 -0.0383 -0.2449  0.0105
  385MOL0     N53009   7.154   0.677   7.856 -0.7819  0.9998 -0.1778
  385MOL0     C53010   7.288   0.647   7.858 -0.3544  0.1123  0.5195
  385MOL0     C53011   7.316   0.617   7.987 -0.3128  1.0634 -0.7631
  385MOL0     C53012   7.455   0.569   8.045 -0.5288 -0.6459  0.7490
  385MOL0     C53013   7.459   0.422   8.091  0.7593  0.6042 -0.0909
  385MOL0     C53014   7.601   0.367   8.125 -0.6148 -0.0277  0.0915
  385MOL0     C53015   7.644   0.420   8.267  0.4727 -0.0469  0.0823
  385MOL0     O53016   7.557   0.355   8.355  0.3936 -0.6954 -0.7836
  385MOL0     C53017   7.597   0.238   8.420 -0.8887 -0.0947 -0.0551
  385MOL0     C53018   7.528   0.195   8.523 -0.3938 -0.5743 -0.5272
  385MOL0     C53019   7.537   0.068   8.584  0.6286 -1.0335 -0.1529
  385MOL0     C53020   7.428   0.037   8.681  0.2944  0.0519  0.6836
  385MOL0     C53021   7.654  -0.003   8.550 -0.2004  0.1431  0.3967
  385MOL0     C53022   7.674  -0.146   8.600 -0.0108 -0.2113  0.7325
  385MOL0     O53023   7.563  -0.212   8.655 -0.3025 -0.1671  0.2168
  385MOL0     C53024   7.585  -0.319   8.733  0.3127  0.0067 -0.1047
  385MOL0     C53025   7.589  -0.290   8.869 -0.1941 -0.1390 -0.7643
  385MOL0     C53026   7.616  -0.394   8.967  0.7621 -0.1729 -0.0528
  385MOL0     C53027   7.618  -0.530   8.922  0.1575 -0.8588 -0.3829
  385MOL0     O53028   7.626  -0.630   9.015 -0.0029  0.1517  0.1367
  385MOL0     C53029   7.762  -0.670   9.038  0.4256  0.2430 -0.2810
  385MOL0     C53030   7.762  -0.744   9.168  0.0698  0.8335  0.7917
  385MOL0     C53031   7.710  -0.895   9.140  0.2987 -0.4640 -0.1956
  385MOL0     C53032   7.723  -0.972   9.273 -0.1950  0.2725 -0.1582
  385MOL0     C53033   7.594  -0.996   9.351 -0.1162 -0.0653 -0.0628
  385MOL0     C53034   7.531  -0.863   9.392 -0.0664 -0.7754  0.3391
  385MOL0     C53035   7.396  -0.888   9.453 -0.7558  0.1230 -0.3315
  385MOL0     C53036   7.312  -0.753   9.459 -0.9371 -0.4577 -0.2776
  385MOL0    Cl53037   7.381  -0.628   9.569  0.1649  0.0603 -0.3309
  385MOL0     C53038   7.603  -0.557   8.788 -0.1462  0.4653 -0.3450
  385MOL0     C53039   7.589  -0.454   8.695  0.6947 -0.0964 -0.0765
  385MOL0     O53040   7.787  -0.181   8.599 -0.5700  0.3213 -0.3593
  385MOL0     C53041   7.741   0.045   8.452 -1.0689  0.1368  0.3975
  385MOL0     C53042   7.712   0.165   8.386 -0.0541 -0.6186 -0.2721
  385MOL0     N53043   7.202   0.624   8.067  0.2937 -0.3169  0.4050
  385MOL0     N53044   7.110   0.666   7.989  0.0294 -0.0821  0.5993
  385MOL0     C53045   6.488   0.421   7.242  1.3298  0.2576  0.2417
  385MOL0     C53046   6.369   0.367   7.292  0.3485 -0.7092 -0.5345
  385MOL0     C53047   5.889   0.348   7.323  0.8168  0.9110  0.6883
  385MOL0     C53048   5.754   0.334   7.253 -0.7741  0.9330 -0.2169
  385MOL0     C53049   5.640   0.316   7.332  0.3899  0.9244  0.2437
  385MOL0     C53050   5.644   0.316   7.472  0.7000 -0.5991  0.3770
  385MOL0     O53051   5.536   0.297   7.552 -0.3070  0.0682  0.0711
  385MOL0     C53052   5.404   0.311   7.502  0.2478 -0.1139  0.1486
  385MOL0     C53053   5.315   0.268   7.611 -0.1295  0.8550 -0.3798
  385MOL0     C53054   5.279   0.124   7.586  0.1457  0.1790 -0.7850
  385MOL0     C53055   5.183   0.071   7.704 -0.0286  0.0919  0.8384
  385MOL0     C53056   5.160  -0.071   7.696 -0.6369  1.0563 -0.3931
  385MOL0     C53057   5.144  -0.195   7.695  0.3199  1.0861  1.1722
  385MOL0     C53058   5.765   0.339   7.540  0.2478  0.0010  0.0850
  385MOL0     C53059   5.888   0.351   7.466  1.3298 -0.0659  0.3101
  385MOL0     C53060   6.005   0.398   7.553  0.4442  0.3119 -0.2968
  385MOL0     H53061   6.152   0.534   7.086 -2.1421 -2.4668  2.8761
  385MOL0     H53062   6.359   0.633   7.012  0.2725 -0.3267  0.5410
  385MOL0     H53063   6.594   0.717   6.980 -0.1657 -0.0459 -0.1816
  385MOL0     H53064   6.752   0.663   7.008  0.3300 -2.4863  0.4474
  385MOL0     H53065   6.697   0.856   7.150 -2.4979  0.1448 -1.5324
  385MOL0     H53066   6.558   0.779   7.228  0.6549  0.0009  2.0180
  385MOL0     H53067   6.698   0.652   7.369 -0.1241  0.6378 -0.8319
  385MOL0     H53068   6.803   0.618   7.244 -1.5204 -2.6841  2.5506
  385MOL0     H53069   6.941   0.813   7.283  2.4179 -0.4198  2.8487
  385MOL0     H53070   6.797   0.903   7.335 -0.9817 -0.5510  1.1047
  385MOL0     H53071   6.814   0.766   7.561  0.5051  2.4675  2.0581
  385MOL0     H53072   6.946   0.870   7.532 -1.3090  0.5629 -0.6432
  385MOL0     H53073   6.957   0.583   7.447  1.2141  0.6676 -1.7579
  385MOL0     H53074   7.088   0.698   7.457  0.6380 -1.0691 -0.7592
  385MOL0     H53075   7.079   0.533   7.634 -1.1544 -0.8111 -2.9315
  385MOL0     H53076   6.922   0.584   7.676 -0.4337 -0.6723 -0.0214
  385MOL0     H53077   7.142   0.793   7.677 -1.0313 -0.9830 -1.9799
  385MOL0     H53078   6.986   0.784   7.774 -1.5141 -1.9412 -0.9057
  385MOL0     H53079   7.347   0.657   7.768 -2.1402 -0.6055 -0.7742
  385MOL0     H53080   7.477   0.637   8.128  1.2915  1.6146 -1.3873
  385MOL0     H53081   7.528   0.593   7.967 -1.2635  3.0868  0.9989
  385MOL0     H53082   7.396   0.415   8.180  1.0576 -2.4472 -0.0168
  385MOL0     H53083   7.421   0.358   8.011 -3.7945  3.3691 -0.4944
  385MOL0     H53084   7.606   0.258   8.137  3.8448  0.1379  1.7683
  385MOL0     H53085   7.675   0.405   8.053 -0.1432  0.5146  0.8498
  385MOL0     H53086   7.750   0.399   8.285  0.4821 -0.3578 -0.3433
  385MOL0     H53087   7.620   0.527   8.272  0.1419  0.0072 -2.0023
  385MOL0     H53088   7.444   0.251   8.563  2.6673  2.2973  2.4658
  385MOL0     H53089   7.396   0.122   8.741 -0.3359 -0.8533  1.6740
  385MOL0     H53090   7.447  -0.046   8.750  0.5409  0.2687  0.8781
  385MOL0     H53091   7.343   0.008   8.619 -0.7914 -2.9799  3.2651
  385MOL0     H53092   7.574  -0.192   8.913 -0.1314 -0.4981  0.0746
  385MOL0     H53093   7.607  -0.364   9.071 -1.4715 -1.2764  0.1369
  385MOL0     H53094   7.783  -0.743   8.960 -0.7493 -1.8055  1.2156
  385MOL0     H53095   7.832  -0.587   9.049 -0.0592  0.3098  4.0393
  385MOL0     H53096   7.867  -0.758   9.195  0.1162 -0.2066  0.1476
  385MOL0     H53097   7.710  -0.689   9.247 -0.9569  0.5688  0.3222
  385MOL0     H53098   7.772  -0.939   9.061 -2.6502 -1.4114 -2.1643
  385MOL0     H53099   7.609  -0.893   9.098 -0.6691  0.6031  1.9912
  385MOL0     H53100   7.810  -0.949   9.336  0.8183 -0.9182 -1.0738
  385MOL0     H53101   7.746  -1.074   9.241 -2.5167 -0.7082  1.0272
  385MOL0     H53102   7.525  -1.065   9.302  0.5983 -0.4576 -0.5403
  385MOL0     H53103   7.607  -1.050   9.445 -2.4803  1.0630  1.0063
  385MOL0     H53104   7.519  -0.797   9.305  0.8747  1.3689  1.7626
  385MOL0     H53105   7.597  -0.808   9.460  2.3350  1.2006 -3.2627
  385MOL0     H53106   7.422  -0.911   9.557 -0.2807  1.3356 -0.1577
  385MOL0     H53107   7.334  -0.964   9.404 -1.8407  1.2423 -0.7581
  385MOL0     H53108   7.213  -0.754   9.506 -0.1401  1.4239  1.6149
  385MOL0     H53109   7.296  -0.714   9.357  0.8592 -0.7858 -0.7219
  385MOL0     H53110   7.611  -0.659   8.750  1.1100 -0.2307  1.6346
  385MOL0     H53111   7.578  -0.470   8.589  0.4561  3.0450 -0.6193
  385MOL0     H53112   7.828  -0.015   8.426 -1.9902 -0.1395 -2.4294
  385MOL0     H53113   7.775   0.201   8.306  1.4292  2.5260  2.0899
  385MOL0     H53114   6.575   0.373   7.286 -1.1006 -1.5218  3.4835
  385MOL0     H53115   6.378   0.298   7.375  1.0953 -1.7989 -1.4844
  385MOL0     H53116   5.755   0.316   7.146 -2.0098 -0.6768 -0.0055
  385MOL0     H53117   5.548   0.285   7.283  0.2104 -1.2089  1.7784
  385MOL0     H53118   5.387   0.419   7.496 -1.6988 -0.3631  0.6356
  385MOL0     H53119   5.380   0.268   7.405  0.2805  0.5443 -0.1585
  385MOL0     H53120   5.227   0.330   7.593  0.9956  3.1366  1.3306
  385MOL0     H53121   5.359   0.287   7.710  2.3574 -0.7695 -1.0824
  385MOL0     H53122   5.223   0.112   7.493  1.5661  0.2440 -1.6693
  385MOL0     H53123   5.370   0.065   7.594 -1.0931 -1.6307  0.9413
  385MOL0     H53124   5.088   0.125   7.710  1.3751  3.1086 -1.1868
  385MOL0     H53125   5.229   0.104   7.798  1.0156 -1.3670  0.8717
  385MOL0     H53126   5.127  -0.300   7.700 -2.0283  1.2610 -1.2275
  385MOL0     H53127   5.768   0.352   7.648  1.6939 -1.9694  0.3346
  385MOL0     H53128   6.034   0.493   7.508  0.5289  0.8527  0.8491
  385MOL0     H53129   5.988   0.414   7.660  1.0257 -2.3004  0.2575
  385MOL0     H53130   6.085   0.324   7.548 -0.1470 -0.5944  2.1477
  386MOL0     O53131   9.693   3.071   8.056 -0.3264 -0.3722  0.5597
  386MOL0     C53132   9.614   3.122   7.980  0.1124  0.7471 -0.0095
  386MOL0     O53133   9.657   3.180   7.866  0.3072 -0.2210  0.1267
  386MOL0     C53134   9.788   3.168   7.836  0.4485  0.0640  0.2345
  386MOL0     C53135   9.858   3.055   7.827  0.0686  0.5226  0.6219
  386MOL0     C53136   9.994   3.052   7.791  0.0217 -0.6453  0.3382
  386MOL0     C53137  10.052   3.175   7.735  0.3157 -0.6211 -0.1397
  386MOL0     O53138  10.188   3.183   7.692  0.3743  0.4166  0.2615
  386MOL0     C53139  10.275   3.086   7.744 -0.5668 -0.6158 -0.1074
  386MOL0     C53140  10.415   3.139   7.710 -1.0557  0.4411 -0.6895
  386MOL0     C53141  10.535   3.049   7.743  0.0665  0.4760  0.3029
  386MOL0     C53142  10.546   3.059   7.899  0.6023 -0.6824  0.3500
  386MOL0     C53143  10.647   2.967   7.953 -0.1913  0.9803  0.4751
  386MOL0     C53144  10.792   3.001   7.902  0.1582 -0.0248  0.0206
  386MOL0     C53145  10.899   2.892   7.930 -0.5853 -0.1173 -0.8483
  386MOL0     C53146  10.933   2.912   8.070  0.0921  0.5135 -0.3060
  386MOL0     N53147  11.027   2.803   8.119  0.2639  0.0728 -0.3445
  386MOL0     C53148  11.116   2.727   8.045 -0.1592 -0.1098  0.2090
  386MOL0     C53149  11.174   2.638   8.144 -0.4138 -0.5084  0.2340
  386MOL0     C53150  11.282   2.547   8.111  0.1437 -0.1274 -0.2464
  386MOL0     C53151  11.283   2.483   7.980  0.6187  0.1056  0.2154
  386MOL0     C53152  11.382   2.369   7.956 -0.6686  0.7298 -0.6391
  386MOL0     C53153  11.329   2.271   7.851 -0.4399 -0.1369  0.0553
  386MOL0     O53154  11.307   2.342   7.727 -1.1516 -0.2804 -0.2448
  386MOL0     C53155  11.181   2.388   7.703  0.2154 -0.4716 -0.4202
  386MOL0     C53156  11.073   2.305   7.714 -0.4404 -0.0093  0.1309
  386MOL0     C53157  10.945   2.347   7.691  0.1466  0.7058 -0.0764
  386MOL0     C53158  10.837   2.233   7.701  0.0860  0.2060 -0.0205
  386MOL0     C53159  10.924   2.484   7.662  0.3721 -0.9126  0.3003
  386MOL0     C53160  10.791   2.547   7.638  0.0319 -0.1783  0.3096
  386MOL0     O53161  10.696   2.460   7.589  0.6157  0.2318  0.4410
  386MOL0     C53162  10.567   2.499   7.586 -0.5297  0.0656 -0.9654
  386MOL0     C53163  10.493   2.437   7.492  0.3907 -0.3437 -0.6058
  386MOL0     C53164  10.354   2.447   7.490 -0.7263  0.0077  0.5629
  386MOL0     C53165  10.297   2.535   7.578  0.3770 -0.1059 -1.6118
  386MOL0     O53166  10.162   2.539   7.571 -0.6093 -0.6944  0.0737
  386MOL0     C53167  10.087   2.644   7.638 -0.0038  0.1966 -0.7282
  386MOL0     C53168  10.007   2.571   7.751  0.3720 -0.2152 -0.5587
  386MOL0     C53169   9.880   2.636   7.803  0.4366  0.2145 -0.6786
  386MOL0     C53170   9.775   2.621   7.704  0.8223 -1.0265  0.2691
  386MOL0     C53171   9.644   2.678   7.761 -0.0575  0.5830 -0.9012
  386MOL0     C53172   9.528   2.640   7.670 -0.2837 -0.1544 -0.2023
  386MOL0     C53173   9.416   2.734   7.689 -0.8578 -0.8166  0.7464
  386MOL0     C53174   9.312   2.701   7.584  0.1729 -0.7206 -0.3527
  386MOL0    Cl53175   9.374   2.741   7.418  0.1020  0.2662  0.4813
  386MOL0     C53176  10.375   2.611   7.677  0.6246  0.4765  0.1050
  386MOL0     C53177  10.510   2.591   7.679  0.5501 -0.3627 -0.8547
  386MOL0     O53178  10.769   2.667   7.654 -0.6200 -0.0348 -0.6062
  386MOL0     C53179  11.035   2.570   7.656 -0.3383 -0.7166 -0.3564
  386MOL0     C53180  11.164   2.522   7.673  0.3869  0.5856 -0.4006
  386MOL0     N53181  11.111   2.662   8.268  0.0065 -0.5012 -0.2331
  386MOL0     N53182  11.034   2.768   8.249 -0.2007  0.5917  0.1694
  386MOL0     C53183   9.965   3.288   7.726  0.1479  1.8103  0.9222
  386MOL0     C53184   9.842   3.291   7.786 -0.7633  0.1425  0.8407
  386MOL0     C53185   9.468   3.126   8.003  0.6241  0.3466  0.2445
  386MOL0     C53186   9.382   3.181   7.904  0.3514  0.1961 -0.2037
  386MOL0     C53187   9.245   3.184   7.908 -0.1021 -0.4393 -0.7835
  386MOL0     C53188   9.183   3.135   8.025 -0.1720 -0.4372 -0.3794
  386MOL0     O53189   9.049   3.141   8.068 -0.0544 -0.2451  0.2194
  386MOL0     C53190   8.969   3.239   7.995 -0.7056 -0.2226  0.3015
  386MOL0     C53191   8.831   3.234   8.053  0.6424 -0.0299  0.8308
  386MOL0     C53192   8.733   3.314   7.963  1.2589 -0.0756  1.0866
  386MOL0     C53193   8.589   3.337   8.028  0.2142  0.0124  0.3754
  386MOL0     C53194   8.496   3.226   8.054  0.3575  0.5282 -0.7388
  386MOL0     C53195   8.438   3.121   8.075  0.3240  0.1547 -0.2378
  386MOL0     C53196   9.263   3.081   8.120 -0.2714  0.7788 -0.0925
  386MOL0     C53197   9.405   3.084   8.121 -0.4087  0.6346 -0.1443
  386MOL0     C53198   9.473   3.015   8.236  0.5034  1.3741 -0.4450
  386MOL0     H53199   9.818   2.970   7.880  1.2803 -0.7119 -0.3749
  386MOL0     H53200  10.052   2.963   7.812  1.9953 -0.1317 -2.3833
  386MOL0     H53201  10.255   2.993   7.690  4.0265 -0.1930 -3.1432
  386MOL0     H53202  10.263   3.068   7.851  0.4855 -0.9857 -0.0352
  386MOL0     H53203  10.427   3.150   7.602 -5.2399 -0.0556 -1.3761
  386MOL0     H53204  10.432   3.241   7.745 -0.9130 -0.0760  0.8275
  386MOL0     H53205  10.517   2.946   7.713  0.4412 -0.1927  2.2434
  386MOL0     H53206  10.625   3.093   7.699  0.8032 -1.3741 -0.1032
  386MOL0     H53207  10.584   3.161   7.915 -0.8058  0.1020 -0.9761
  386MOL0     H53208  10.453   3.062   7.956  2.3041 -3.1157  3.5648
  386MOL0     H53209  10.619   2.869   7.914  0.6467  0.6722  0.6402
  386MOL0     H53210  10.650   2.967   8.063  0.3834  0.5527  0.4616
  386MOL0     H53211  10.789   3.006   7.793  0.0320 -0.8634 -0.0202
  386MOL0     H53212  10.825   3.098   7.938 -0.5984 -0.0298  0.7486
  386MOL0     H53213  10.987   2.910   7.867 -1.0690 -0.8129 -1.7472
  386MOL0     H53214  10.868   2.790   7.907 -0.9856  0.0697 -1.1702
  386MOL0     H53215  10.973   3.010   8.099 -1.6607  0.7465  1.5637
  386MOL0     H53216  10.846   2.911   8.136  0.4926 -2.5999  0.3510
  386MOL0     H53217  11.152   2.736   7.944  1.1265 -0.4968  0.6173
  386MOL0     H53218  11.293   2.480   8.196 -2.4798  0.1075  0.3592
  386MOL0     H53219  11.369   2.613   8.106  1.2911 -1.6661 -2.3376
  386MOL0     H53220  11.189   2.430   7.966  0.8645  0.2257 -2.5071
  386MOL0     H53221  11.281   2.560   7.903 -1.5421 -0.6881 -0.5775
  386MOL0     H53222  11.480   2.407   7.927 -0.0613  0.4643  0.9401
  386MOL0     H53223  11.389   2.311   8.048  0.1801 -1.4043 -1.9846
  386MOL0     H53224  11.394   2.185   7.833 -0.6417 -0.0620 -1.0494
  386MOL0     H53225  11.240   2.229   7.900 -0.8668  1.7978  1.0601
  386MOL0     H53226  11.091   2.199   7.730  3.6385  0.3553 -0.7897
  386MOL0     H53227  10.871   2.139   7.744 -0.3605 -0.1080 -0.3424
  386MOL0     H53228  10.790   2.210   7.604 -2.8971 -3.8228  2.0522
  386MOL0     H53229  10.757   2.261   7.771 -0.7654 -4.9375  1.5171
  386MOL0     H53230  10.546   2.385   7.413  1.1365 -3.9321  1.9617
  386MOL0     H53231  10.304   2.386   7.416 -0.8746  1.2566 -0.3971
  386MOL0     H53232  10.143   2.723   7.689 -1.0504 -0.1275  0.9919
  386MOL0     H53233  10.024   2.689   7.561  0.2863  2.1775  0.1534
  386MOL0     H53234   9.977   2.471   7.718 -1.6423 -0.2997  1.2803
  386MOL0     H53235  10.079   2.556   7.832  3.4343 -0.4967 -3.1344
  386MOL0     H53236   9.903   2.740   7.828 -0.5839  0.1233  0.7643
  386MOL0     H53237   9.862   2.596   7.904  0.2094  4.0205  0.9435
  386MOL0     H53238   9.767   2.515   7.679  0.2314 -1.4723  2.1946
  386MOL0     H53239   9.798   2.688   7.621 -1.6348  3.5894  2.8866
  386MOL0     H53240   9.629   2.633   7.860  3.3360 -2.8369 -1.6988
  386MOL0     H53241   9.655   2.786   7.761 -0.8089  0.6666 -1.2343
  386MOL0     H53242   9.507   2.535   7.692  0.8038 -0.2497  0.4666
  386MOL0     H53243   9.563   2.643   7.566 -2.0229  2.9489 -0.8352
  386MOL0     H53244   9.444   2.839   7.678  1.8949 -1.4257  1.0393
  386MOL0     H53245   9.373   2.717   7.788  0.5360  0.9223  1.7106
  386MOL0     H53246   9.222   2.761   7.602 -1.2287 -3.1244  1.0524
  386MOL0     H53247   9.279   2.597   7.587  2.2606 -1.4596 -1.2173
  386MOL0     H53248  10.325   2.660   7.760 -0.2292  1.2461 -0.8363
  386MOL0     H53249  10.549   2.642   7.767 -3.0583 -1.6134  1.7381
  386MOL0     H53250  11.029   2.678   7.641  6.3415  0.8696  3.8790
  386MOL0     H53251  11.255   2.582   7.671  1.4821 -0.9102  1.3742
  386MOL0     H53252  10.007   3.377   7.680 -1.2345  2.2475  0.4422
  386MOL0     H53253   9.789   3.385   7.790  0.2880  0.7164  1.6660
  386MOL0     H53254   9.428   3.226   7.817  0.6789 -1.9448 -1.2219
  386MOL0     H53255   9.184   3.237   7.836 -0.7213 -0.2664 -0.1393
  386MOL0     H53256   9.017   3.336   8.007 -0.6233  0.0755 -1.9511
  386MOL0     H53257   8.962   3.213   7.888  0.1248  0.0594  0.1723
  386MOL0     H53258   8.838   3.281   8.151 -0.4548 -4.2895  3.2270
  386MOL0     H53259   8.796   3.137   8.090  1.5038 -0.0586  1.5993
  386MOL0     H53260   8.778   3.412   7.945  2.8315 -0.3571  3.0955
  386MOL0     H53261   8.719   3.257   7.871  1.2542 -0.7600  1.5075
  386MOL0     H53262   8.542   3.407   7.959 -2.0039 -2.2112 -0.5051
  386MOL0     H53263   8.605   3.392   8.122 -2.6402  2.8319 -0.6103
  386MOL0     H53264   8.401   3.022   8.090  1.5083 -0.1122  1.1217
  386MOL0     H53265   9.222   3.046   8.215 -0.2022 -3.3418 -1.3755
  386MOL0     H53266   9.392   2.974   8.298 -1.6426 -2.1827 -4.9557
  386MOL0     H53267   9.542   2.933   8.214 -0.5017 -0.2128  1.8554
  386MOL0     H53268   9.528   3.091   8.291 -2.4470  0.8780  3.7024
  387MOL0     O53269   5.533   8.524   6.690 -0.7994 -0.0522 -0.1009
  387MOL0     C53270   5.504   8.541   6.810 -0.6873  0.2654 -0.4155
  387MOL0     O53271   5.384   8.530   6.867  0.2453  0.0884 -0.4559
  387MOL0     C53272   5.288   8.465   6.789 -0.6533 -0.7162 -0.0044
  387MOL0     C53273   5.235   8.345   6.836  0.0074 -0.1691  0.3736
  387MOL0     C53274   5.126   8.288   6.771  0.1901 -0.3255 -0.0512
  387MOL0     C53275   5.073   8.350   6.653  0.7090 -0.0298 -0.5820
  387MOL0     O53276   4.967   8.287   6.592  0.1425 -0.0718  0.8763
  387MOL0     C53277   4.909   8.328   6.470 -0.8997 -0.3849  0.2877
  387MOL0     C53278   4.767   8.270   6.446  0.6257  0.3911  0.1863
  387MOL0     C53279   4.697   8.348   6.332 -0.0031 -0.3225  0.5832
  387MOL0     C53280   4.567   8.284   6.288  0.7945  0.7474  0.1167
  387MOL0     C53281   4.498   8.361   6.174  0.8327  0.3044  0.8378
  387MOL0     C53282   4.576   8.322   6.039  0.0085 -0.2257  0.1531
  387MOL0     C53283   4.498   8.372   5.922 -0.0041 -0.0964  0.5142
  387MOL0     C53284   4.529   8.311   5.787 -1.2842 -0.6125 -0.2538
  387MOL0     N53285   4.421   8.319   5.694 -1.3234  0.8853 -0.3008
  387MOL0     C53286   4.362   8.208   5.631 -0.0918 -0.3209 -0.7240
  387MOL0     C53287   4.288   8.254   5.526 -0.1074  0.5163 -0.7072
  387MOL0     C53288   4.187   8.167   5.457 -0.2697 -0.7125 -1.0630
  387MOL0     C53289   4.049   8.232   5.451  0.3173 -0.4010  0.8676
  387MOL0     C53290   3.999   8.284   5.589 -0.4433  0.1036  1.0256
  387MOL0     C53291   3.863   8.350   5.568  0.6987 -0.4472 -0.2709
  387MOL0     O53292   3.758   8.250   5.561 -0.3547  0.3578 -0.1136
  387MOL0     C53293   3.657   8.250   5.473 -0.3238 -0.1640 -0.7319
  387MOL0     C53294   3.548   8.172   5.521 -0.1742  0.4392 -0.0589
  387MOL0     C53295   3.431   8.162   5.449  0.7194 -0.3092 -0.1907
  387MOL0     C53296   3.314   8.094   5.516  0.8538  0.4708  0.2224
  387MOL0     C53297   3.420   8.217   5.323 -0.1959  0.2363 -0.6127
  387MOL0     C53298   3.301   8.200   5.237 -1.3278  0.8942 -0.2426
  387MOL0     O53299   3.261   8.319   5.177  0.6688 -0.0318 -0.9636
  387MOL0     C53300   3.147   8.312   5.107 -0.0152 -0.4577  0.0904
  387MOL0     C53301   3.031   8.249   5.151 -0.6324  0.6266 -0.5209
  387MOL0     C53302   2.910   8.259   5.084  1.0071 -0.2002 -0.3146
  387MOL0     C53303   2.891   8.333   4.966 -0.7346  0.1550  0.0939
  387MOL0     O53304   2.767   8.358   4.903  0.3904 -0.2652  0.6281
  387MOL0     C53305   2.697   8.240   4.866 -1.0481 -0.4619 -0.0302
  387MOL0     C53306   2.576   8.293   4.783 -0.1512  0.5097 -0.2712
  387MOL0     C53307   2.462   8.380   4.848 -0.5199 -0.8315  0.3138
  387MOL0     C53308   2.355   8.296   4.918 -0.8789 -0.4027  0.1343
  387MOL0     C53309   2.249   8.396   4.961  0.0792 -0.3494 -0.2520
  387MOL0     C53310   2.176   8.349   5.083 -0.5182 -0.5034 -0.4863
  387MOL0     C53311   2.051   8.443   5.099  1.0407  1.0952 -0.1591
  387MOL0     C53312   1.988   8.421   5.233 -0.4050 -0.0467 -0.3160
  387MOL0    Cl53313   1.906   8.265   5.256 -0.0040  0.2626  0.2181
  387MOL0     C53314   3.006   8.388   4.915 -0.2672  0.6643 -0.3144
  387MOL0     C53315   3.125   8.387   4.982  0.3735  0.1970 -0.5963
  387MOL0     O53316   3.258   8.085   5.218  1.1858 -0.2889  1.0364
  387MOL0     C53317   3.525   8.309   5.288  0.6493  0.0358  0.0524
  387MOL0     C53318   3.640   8.325   5.362  0.1283 -0.4349  0.5373
  387MOL0     N53319   4.313   8.384   5.518 -0.3773 -0.6080  0.5455
  387MOL0     N53320   4.399   8.422   5.616  0.7117 -0.2436 -0.4540
  387MOL0     C53321   5.133   8.470   6.608  0.4174  0.8194  0.4940
  387MOL0     C53322   5.238   8.525   6.671  0.1714 -0.5817 -0.0721
  387MOL0     C53323   5.613   8.595   6.899  0.3366  0.1783 -1.1717
  387MOL0     C53324   5.568   8.662   7.016 -0.0814 -0.2451 -0.6718
  387MOL0     C53325   5.658   8.715   7.104 -0.6785  0.0807 -0.2748
  387MOL0     C53326   5.796   8.688   7.094 -0.5304  0.1723 -0.1210
  387MOL0     O53327   5.890   8.724   7.194 -0.2101  0.4329 -0.2276
  387MOL0     C53328   5.843   8.728   7.327  1.1401 -0.2808 -0.4021
  387MOL0     C53329   5.867   8.868   7.386 -0.5940 -0.3838 -0.0517
  387MOL0     C53330   5.811   8.874   7.521 -0.0318 -0.5755 -0.6588
  387MOL0     C53331   5.696   8.977   7.526  0.2076 -0.6933 -0.8501
  387MOL0     C53332   5.576   8.924   7.448 -0.1057  0.3990 -0.4764
  387MOL0     C53333   5.468   8.877   7.418 -0.6262  0.3362  0.4906
  387MOL0     C53334   5.840   8.611   6.976 -0.0693 -0.2684  1.0773
  387MOL0     C53335   5.754   8.567   6.878 -0.3982 -0.3377 -0.7049
  387MOL0     C53336   5.809   8.503   6.745  0.1992  0.4463 -0.0680
  387MOL0     H53337   5.274   8.317   6.934 -0.2913 -0.1279  0.5061
  387MOL0     H53338   5.084   8.192   6.798 -0.2405  0.1669  1.1303
  387MOL0     H53339   4.972   8.300   6.386 -2.2658 -0.9178 -0.5953
  387MOL0     H53340   4.907   8.436   6.454  2.0573 -0.3216 -0.2459
  387MOL0     H53341   4.782   8.165   6.422 -0.6181  0.1331  0.4794
  387MOL0     H53342   4.703   8.271   6.535 -0.6648 -0.4998 -0.6968
  387MOL0     H53343   4.665   8.448   6.362 -3.9825 -1.2158 -0.0781
  387MOL0     H53344   4.780   8.357   6.260  2.7579  0.4711  3.6297
  387MOL0     H53345   4.588   8.180   6.261 -3.6698 -0.4476  0.4481
  387MOL0     H53346   4.504   8.276   6.377  0.9116  0.4077  0.1715
  387MOL0     H53347   4.503   8.469   6.191  0.2384  0.1460  2.1047
  387MOL0     H53348   4.395   8.329   6.159  0.8457  1.2245 -1.6333
  387MOL0     H53349   4.675   8.368   6.033 -0.0178 -0.3196 -2.6083
  387MOL0     H53350   4.578   8.212   6.042 -1.4972 -0.4158 -2.4776
  387MOL0     H53351   4.512   8.481   5.915  1.8841 -0.3979 -0.8978
  387MOL0     H53352   4.390   8.358   5.938 -0.0916 -0.4047 -0.2995
  387MOL0     H53353   4.608   8.370   5.740 -0.1611 -0.8142  1.3353
  387MOL0     H53354   4.561   8.206   5.790  0.8998  0.0040 -0.7363
  387MOL0     H53355   4.349   8.108   5.673 -2.1967  0.7318  1.3958
  387MOL0     H53356   4.186   8.071   5.509  1.9934  0.0771  0.5718
  387MOL0     H53357   4.219   8.158   5.353  2.6096 -0.3282 -0.2833
  387MOL0     H53358   4.064   8.320   5.387 -0.1349  0.9558  2.5642
  387MOL0     H53359   3.982   8.157   5.407  0.7589  0.0090 -0.5681
  387MOL0     H53360   4.010   8.209   5.667  0.7943 -2.1212 -1.1444
  387MOL0     H53361   4.073   8.361   5.615 -0.1805  1.3688 -2.8406
  387MOL0     H53362   3.849   8.420   5.651 -1.4436 -1.4257  0.2856
  387MOL0     H53363   3.866   8.416   5.481 -0.8770 -0.2522 -0.2087
  387MOL0     H53364   3.556   8.120   5.616 -0.8339  0.2119 -0.1199
  387MOL0     H53365   3.340   8.056   5.615 -0.0520 -0.5466  0.0804
  387MOL0     H53366   3.279   8.003   5.467 -1.1709 -0.7992  3.6877
  387MOL0     H53367   3.223   8.154   5.525 -1.8750 -3.1926 -0.5514
  387MOL0     H53368   3.028   8.201   5.248  0.3354  1.4553 -0.0563
  387MOL0     H53369   2.814   8.218   5.112  1.7284 -2.4305 -0.9404
  387MOL0     H53370   2.748   8.166   4.804 -1.8073 -0.7302 -0.3384
  387MOL0     H53371   2.660   8.200   4.961  0.4836  1.3282  1.4158
  387MOL0     H53372   2.621   8.348   4.700  0.5912  2.8846  1.5844
  387MOL0     H53373   2.531   8.205   4.737  1.5460  0.1680 -1.3558
  387MOL0     H53374   2.424   8.432   4.759 -0.0034  0.1415  0.6514
  387MOL0     H53375   2.506   8.450   4.920  2.9202 -0.5615 -1.8596
  387MOL0     H53376   2.408   8.259   5.007 -0.8852  2.2727  1.3481
  387MOL0     H53377   2.311   8.227   4.847  1.3202 -0.8175 -0.9045
  387MOL0     H53378   2.282   8.497   4.989  0.4324 -1.0953  2.2782
  387MOL0     H53379   2.190   8.410   4.870  0.7776 -1.8822 -0.9543
  387MOL0     H53380   2.232   8.361   5.176 -2.8892  0.3525  0.9205
  387MOL0     H53381   2.156   8.241   5.084 -0.7158 -0.4733  1.2349
  387MOL0     H53382   1.972   8.422   5.027  1.0015 -0.2077  0.2327
  387MOL0     H53383   2.087   8.546   5.095  2.4596  0.5891 -1.3984
  387MOL0     H53384   1.910   8.494   5.257  0.0722  1.2408 -2.3810
  387MOL0     H53385   2.056   8.440   5.316 -1.9939  1.0119  0.8062
  387MOL0     H53386   3.006   8.447   4.824 -0.2137  1.6764  0.3142
  387MOL0     H53387   3.204   8.442   4.931  0.8179  0.9990  0.8663
  387MOL0     H53388   3.525   8.361   5.193  4.2195  1.5917  0.7419
  387MOL0     H53389   3.720   8.392   5.332 -0.7438  0.9334  1.1766
  387MOL0     H53390   5.101   8.521   6.517  0.4397  0.4646  0.2867
  387MOL0     H53391   5.266   8.624   6.634 -1.4573 -0.0313  0.0833
  387MOL0     H53392   5.463   8.670   7.042  0.4216  0.2913  1.4106
  387MOL0     H53393   5.611   8.759   7.191 -0.9326 -3.4340  1.5123
  387MOL0     H53394   5.735   8.708   7.331  0.5391  1.5171 -3.6186
  387MOL0     H53395   5.897   8.648   7.378  2.8914 -0.9930 -3.1092
  387MOL0     H53396   5.829   8.944   7.315  0.4349  0.2237  0.0346
  387MOL0     H53397   5.975   8.881   7.390  0.0915 -4.7456  0.3546
  387MOL0     H53398   5.763   8.777   7.541 -2.5020 -0.5940 -5.1367
  387MOL0     H53399   5.888   8.900   7.593 -1.2006 -0.2016  0.5046
  387MOL0     H53400   5.730   9.071   7.481  1.8312 -0.1498  1.3239
  387MOL0     H53401   5.670   8.989   7.631  1.7591  0.0970 -0.5169
  387MOL0     H53402   5.372   8.833   7.401 -0.2124 -0.2432 -0.4282
  387MOL0     H53403   5.941   8.576   6.958 -0.2978 -1.5583  2.1349
  387MOL0     H53404   5.781   8.398   6.757 -0.0684  0.5126 -0.1245
  387MOL0     H53405   5.763   8.548   6.657 -1.9615 -3.4366 -1.1769
  387MOL0     H53406   5.917   8.520   6.741 -0.1631  3.3932  0.7577
  388MOL0     O53407   7.246   3.856   2.498  0.7506  0.8201  0.1252
  388MOL0     C53408   7.254   3.940   2.582 -0.3176 -0.5175  0.1330
  388MOL0     O53409   7.370   3.967   2.648 -0.3541  0.9293  0.2389
  388MOL0     C53410   7.493   3.903   2.614 -0.4996 -0.1694  0.1064
  388MOL0     C53411   7.512   3.770   2.572 -0.2234 -0.4340  1.0390
  388MOL0     C53412   7.637   3.712   2.542 -0.5824 -0.2223 -0.4004
  388MOL0     C53413   7.757   3.790   2.563  0.3608 -0.5680 -0.3703
  388MOL0     O53414   7.882   3.734   2.564 -0.3801  0.1584 -0.7374
  388MOL0     C53415   7.926   3.657   2.451 -0.1414 -0.4915 -0.1141
  388MOL0     C53416   8.075   3.615   2.462  0.3825 -0.7931  0.0173
  388MOL0     C53417   8.120   3.505   2.359 -0.1134  0.0120 -0.6687
  388MOL0     C53418   8.237   3.555   2.280 -0.4837 -0.9502 -0.0487
  388MOL0     C53419   8.379   3.592   2.357 -0.0357 -1.3789  1.1156
  388MOL0     C53420   8.465   3.670   2.261 -1.5783  0.8368  0.6482
  388MOL0     C53421   8.623   3.654   2.296 -0.1064 -0.1763 -0.1148
  388MOL0     C53422   8.685   3.519   2.260 -0.2241  0.2805 -0.3816
  388MOL0     N53423   8.835   3.509   2.265  0.2875 -0.6786  0.0171
  388MOL0     C53424   8.908   3.469   2.159  0.3828  0.2636  0.3487
  388MOL0     C53425   9.037   3.488   2.193  0.4259  0.6774  0.7280
  388MOL0     C53426   9.161   3.462   2.113 -0.0556 -1.1504 -0.2128
  388MOL0     C53427   9.287   3.441   2.194  0.3679 -0.8519  0.8306
  388MOL0     C53428   9.329   3.561   2.285 -0.1423 -0.0785 -0.0831
  388MOL0     C53429   9.310   3.694   2.219  1.0260  0.1654 -0.2056
  388MOL0     O53430   9.367   3.706   2.084  0.9547 -0.6407  0.0291
  388MOL0     C53431   9.374   3.834   2.040  0.2492  0.8874 -0.7403
  388MOL0     C53432   9.460   3.932   2.099 -0.7372  0.1889  1.0644
  388MOL0     C53433   9.467   4.060   2.042 -1.0746 -0.8894 -0.7262
  388MOL0     C53434   9.580   4.148   2.097  0.3513  0.2024 -0.1275
  388MOL0     C53435   9.383   4.103   1.941  0.1309 -0.1442  0.0515
  388MOL0     C53436   9.384   4.238   1.876  0.9644 -0.1023  0.0374
  388MOL0     O53437   9.413   4.349   1.965 -0.0461 -0.7423 -0.0410
  388MOL0     C53438   9.415   4.487   1.926  1.0784  1.0247 -0.2688
  388MOL0     C53439   9.396   4.541   1.799  0.1037 -0.6775 -0.6868
  388MOL0     C53440   9.412   4.677   1.770 -0.6574 -0.7992  0.3653
  388MOL0     C53441   9.434   4.771   1.868  0.1163  0.7333 -1.3502
  388MOL0     O53442   9.445   4.907   1.850 -0.0898 -0.5598 -0.4214
  388MOL0     C53443   9.403   4.962   1.728  0.5695 -1.0978  1.0322
  388MOL0     C53444   9.330   5.092   1.759 -0.0139  0.1458 -0.7586
  388MOL0     C53445   9.291   5.171   1.634  0.4684 -0.1165  0.5092
  388MOL0     C53446   9.273   5.324   1.668  0.2455  0.2786 -0.7228
  388MOL0     C53447   9.192   5.406   1.575  0.6776 -0.8921  0.7463
  388MOL0     C53448   9.279   5.412   1.446 -0.0328 -0.2151  0.0261
  388MOL0     C53449   9.199   5.499   1.341 -0.9790  0.1713  0.5424
  388MOL0     C53450   9.288   5.549   1.218  0.8499  1.0610 -0.1762
  388MOL0    Cl53451   9.172   5.643   1.111 -0.0035  0.2936  0.1060
  388MOL0     C53452   9.443   4.722   1.997 -0.1874  0.0225  0.4845
  388MOL0     C53453   9.433   4.581   2.026  0.5667 -0.4399 -0.2209
  388MOL0     O53454   9.345   4.244   1.761 -0.1503  0.2255  0.5043
  388MOL0     C53455   9.294   4.011   1.888 -0.0216  0.2584  0.0494
  388MOL0     C53456   9.289   3.879   1.935 -0.2245  0.9298 -0.1301
  388MOL0     N53457   9.035   3.519   2.330 -0.1207  0.0699 -0.0594
  388MOL0     N53458   8.916   3.526   2.377 -0.3392 -0.8180 -0.2400
  388MOL0     C53459   7.748   3.926   2.607 -0.2981 -0.4397  0.3398
  388MOL0     C53460   7.614   3.980   2.629 -0.3499  1.0655  0.1482
  388MOL0     C53461   7.136   4.036   2.621 -0.2686 -0.4006  0.6758
  388MOL0     C53462   7.147   4.107   2.736  0.3068  0.0356 -0.3325
  388MOL0     C53463   7.044   4.191   2.781  0.9607 -0.0328  0.3044
  388MOL0     C53464   6.928   4.206   2.702 -0.2741 -0.0095  0.3490
  388MOL0     O53465   6.826   4.282   2.758 -0.4683 -0.3380 -0.4235
  388MOL0     C53466   6.706   4.308   2.684  0.4664  0.5556  0.2714
  388MOL0     C53467   6.612   4.396   2.778  0.6274  0.6739  0.0581
  388MOL0     C53468   6.683   4.528   2.803  0.1055 -0.1803 -1.0219
  388MOL0     C53469   6.593   4.641   2.871  0.5548 -0.3227  0.6480
  388MOL0     C53470   6.564   4.596   3.009  0.1916 -0.4454 -0.1738
  388MOL0     C53471   6.535   4.559   3.120 -0.8928 -0.2923  0.2120
  388MOL0     C53472   6.927   4.137   2.579  0.0465  0.7969  0.1747
  388MOL0     C53473   7.024   4.048   2.542 -0.8432  0.5695  0.5543
  388MOL0     C53474   6.990   3.983   2.407 -0.7680 -0.3040 -0.0362
  388MOL0     H53475   7.432   3.697   2.559  0.8123 -1.1721 -1.9375
  388MOL0     H53476   7.633   3.609   2.509  2.4177  0.2899 -2.8606
  388MOL0     H53477   7.901   3.712   2.360  0.8506  0.3680  0.1175
  388MOL0     H53478   7.871   3.563   2.437  0.0596 -0.4096 -1.5825
  388MOL0     H53479   8.130   3.710   2.461 -1.9925  0.6515  0.8238
  388MOL0     H53480   8.083   3.559   2.556 -0.1240  0.6078  0.9273
  388MOL0     H53481   8.148   3.414   2.412 -0.0986 -1.3392 -2.8561
  388MOL0     H53482   8.035   3.466   2.303 -1.5693 -2.2038  2.7726
  388MOL0     H53483   8.272   3.494   2.196 -1.9972 -0.9367 -0.7254
  388MOL0     H53484   8.198   3.639   2.221 -0.0582 -0.2514  0.6549
  388MOL0     H53485   8.414   3.491   2.377 -1.7749 -1.8230  2.2214
  388MOL0     H53486   8.373   3.640   2.456 -1.9769 -0.8576  0.7901
  388MOL0     H53487   8.448   3.637   2.159  0.3581  3.0735 -0.5000
  388MOL0     H53488   8.447   3.778   2.266  1.9448  1.5443  0.8777
  388MOL0     H53489   8.629   3.647   2.405 -1.8228 -1.2266 -0.0481
  388MOL0     H53490   8.685   3.737   2.261 -0.6471  0.0926 -0.4409
  388MOL0     H53491   8.638   3.445   2.325 -1.1631 -1.5428 -2.9577
  388MOL0     H53492   8.651   3.491   2.160  1.0128 -1.2509 -0.4124
  388MOL0     H53493   8.868   3.427   2.068  0.6681  1.4017 -0.3288
  388MOL0     H53494   9.181   3.539   2.037 -0.3095 -2.0909 -1.2701
  388MOL0     H53495   9.140   3.368   2.060 -3.7012 -0.7138  0.2206
  388MOL0     H53496   9.280   3.358   2.265  1.1714 -1.0284  0.7124
  388MOL0     H53497   9.370   3.412   2.129  2.0261  1.4394  1.7798
  388MOL0     H53498   9.294   3.550   2.388  0.8096  1.5503  0.4555
  388MOL0     H53499   9.437   3.551   2.296  0.3992  2.6431 -1.8479
  388MOL0     H53500   9.201   3.692   2.213  0.9123 -2.5696  1.1233
  388MOL0     H53501   9.344   3.774   2.285 -0.6815  0.1156  0.7801
  388MOL0     H53502   9.530   3.896   2.175  2.5130  1.8755 -0.9041
  388MOL0     H53503   9.535   4.229   2.156  0.9069  1.0621 -0.8499
  388MOL0     H53504   9.653   4.181   2.023 -0.0585 -0.2440 -0.7401
  388MOL0     H53505   9.642   4.091   2.167 -1.3289 -1.3394  0.1821
  388MOL0     H53506   9.369   4.484   1.711 -1.1665 -1.3835  0.1110
  388MOL0     H53507   9.403   4.702   1.665  3.5970 -1.4499 -0.3160
  388MOL0     H53508   9.489   4.981   1.664 -0.3353 -2.2795 -0.6266
  388MOL0     H53509   9.342   4.892   1.670 -1.3934 -1.5497  3.4861
  388MOL0     H53510   9.239   5.061   1.812 -0.0362  2.0216  0.4103
  388MOL0     H53511   9.392   5.147   1.831 -1.1494 -0.9521  1.1519
  388MOL0     H53512   9.197   5.132   1.596 -0.0322  1.7656 -0.2830
  388MOL0     H53513   9.355   5.164   1.545 -1.2204  1.1821 -0.8687
  388MOL0     H53514   9.371   5.372   1.672  0.2773  0.2959 -1.5755
  388MOL0     H53515   9.236   5.330   1.770  0.8545 -4.5675  0.0225
  388MOL0     H53516   9.096   5.359   1.551  0.2951 -0.0708  0.6322
  388MOL0     H53517   9.186   5.510   1.609  2.1676 -0.5913  0.1890
  388MOL0     H53518   9.313   5.318   1.401 -1.1560  0.5830 -2.7028
  388MOL0     H53519   9.376   5.461   1.461  0.9900 -1.7903 -1.1227
  388MOL0     H53520   9.148   5.582   1.390  0.5687  1.3536  0.2278
  388MOL0     H53521   9.119   5.443   1.293 -2.2726  2.3395  0.0817
  388MOL0     H53522   9.327   5.466   1.158 -1.5045 -0.2096 -0.0776
  388MOL0     H53523   9.370   5.609   1.260 -0.2918  1.0666  2.2515
  388MOL0     H53524   9.441   4.797   2.076 -2.0201  1.8463 -1.1885
  388MOL0     H53525   9.441   4.558   2.132 -3.1521  2.0463  0.8020
  388MOL0     H53526   9.222   4.043   1.813  0.5315  2.8486  0.5188
  388MOL0     H53527   9.215   3.815   1.887 -0.7709  0.5526  1.1683
  388MOL0     H53528   7.836   3.984   2.632 -0.1602 -1.1615  1.6514
  388MOL0     H53529   7.628   4.083   2.662  1.9762  0.7750  0.2483
  388MOL0     H53530   7.239   4.105   2.793 -1.4427 -1.7593  2.7109
  388MOL0     H53531   7.046   4.235   2.879  0.4805  2.0676 -0.5783
  388MOL0     H53532   6.721   4.353   2.586  0.7762 -4.5857 -2.4212
  388MOL0     H53533   6.656   4.213   2.663  0.8662  0.6012 -0.9404
  388MOL0     H53534   6.589   4.347   2.873 -2.1965  2.0963  0.2126
  388MOL0     H53535   6.516   4.417   2.730  0.6691 -1.4025 -1.0175
  388MOL0     H53536   6.781   4.523   2.851 -0.9337  1.7958  1.5289
  388MOL0     H53537   6.717   4.568   2.707  1.5126  1.0557 -0.0656
  388MOL0     H53538   6.501   4.654   2.814  1.8975  2.5683 -1.1018
  388MOL0     H53539   6.645   4.738   2.868  2.0072 -1.0320  1.5030
  388MOL0     H53540   6.518   4.535   3.223  1.4850 -0.2216  0.6683
  388MOL0     H53541   6.851   4.156   2.505  0.1908 -1.2575 -0.5678
  388MOL0     H53542   6.975   4.062   2.333  0.8112 -1.0194 -1.1623
  388MOL0     H53543   7.067   3.913   2.372 -1.6967 -1.0282 -0.6852
  388MOL0     H53544   6.900   3.921   2.415 -0.3286 -0.7512  1.9086
  389MOL0     O53545   9.784   2.721   3.214 -0.2235 -0.1059 -0.6393
  389MOL0     C53546   9.684   2.716   3.293 -0.0310  0.1802  0.3275
  389MOL0     O53547   9.646   2.608   3.373  0.2486 -0.1514 -0.3235
  389MOL0     C53548   9.733   2.497   3.374 -0.2005  0.1469 -1.2512
  389MOL0     C53549   9.875   2.513   3.388 -0.3940 -0.3657 -0.1237
  389MOL0     C53550   9.951   2.388   3.384  0.1012  0.6965 -0.3535
  389MOL0     C53551   9.886   2.264   3.371 -0.6165 -0.1069 -0.5763
  389MOL0     O53552   9.949   2.142   3.360 -0.3749  0.4351  0.3301
  389MOL0     C53553   9.983   2.092   3.224  0.2956 -0.0207  0.3961
  389MOL0     C53554  10.104   2.001   3.237  0.3896 -0.3659  0.3462
  389MOL0     C53555  10.234   2.082   3.282 -0.2252 -0.1790 -0.1763
  389MOL0     C53556  10.367   2.004   3.246 -0.2406 -1.6645 -0.0934
  389MOL0     C53557  10.497   2.078   3.304 -0.2781 -0.3971  0.3504
  389MOL0     C53558  10.624   2.042   3.228  0.8375 -0.2397  0.0172
  389MOL0     C53559  10.752   2.106   3.280  0.0151 -0.6931  0.6253
  389MOL0     C53560  10.875   2.104   3.180 -0.3344  0.6550 -0.5558
  389MOL0     N53561  10.926   1.967   3.163 -0.2918  0.0945  0.1519
  389MOL0     C53562  11.022   1.917   3.243 -0.2276  0.4994 -0.4727
  389MOL0     C53563  11.029   1.786   3.214 -0.2803  0.7282 -0.6180
  389MOL0     C53564  11.113   1.692   3.279  0.6425 -0.2156  0.0207
  389MOL0     C53565  11.258   1.749   3.286  0.1615 -0.8359 -0.3707
  389MOL0     C53566  11.318   1.776   3.148  0.1041 -0.3560  0.2314
  389MOL0     C53567  11.466   1.823   3.160  0.5971  0.1491 -1.1475
  389MOL0     O53568  11.482   1.967   3.184  0.6836  0.3535 -0.8196
  389MOL0     C53569  11.601   1.998   3.243 -0.3069 -1.0710  0.8173
  389MOL0     C53570  11.614   2.077   3.361 -0.0248 -0.2391 -0.1054
  389MOL0     C53571  11.747   2.119   3.405 -0.3762  0.8009  0.4356
  389MOL0     C53572  11.751   2.187   3.547  0.2708 -0.1800 -0.2620
  389MOL0     C53573  11.859   2.083   3.334  0.5321  0.0020  0.8335
  389MOL0     C53574  12.006   2.124   3.371 -0.2243  0.2092  1.0014
  389MOL0     O53575  12.108   2.054   3.319 -0.2854  0.8497  0.1714
  389MOL0     C53576  12.242   2.067   3.355 -0.3574 -0.2209 -0.3732
  389MOL0     C53577  12.326   1.957   3.325 -0.2182 -0.0504  0.3007
  389MOL0     C53578  12.465   1.968   3.315 -0.0983  0.1837 -0.1371
  389MOL0     C53579  12.536   2.091   3.323 -0.3526  0.5846  0.4760
  389MOL0     O53580  12.672   2.082   3.322  0.4347 -0.2424 -0.5655
  389MOL0     C53581  12.745   2.193   3.302 -0.0605  0.3223 -0.4738
  389MOL0     C53582  12.877   2.136   3.267 -0.4133 -0.3604 -0.2858
  389MOL0     C53583  12.941   2.068   3.391 -0.7975 -0.0255  0.6220
  389MOL0     C53584  13.086   2.013   3.367 -0.6536 -0.5003 -0.1506
  389MOL0     C53585  13.165   1.995   3.495  0.4886 -0.2190  0.0131
  389MOL0     C53586  13.297   1.920   3.466  0.7715 -0.6728 -0.1840
  389MOL0     C53587  13.367   1.886   3.604  0.3579 -0.4674  0.1024
  389MOL0     C53588  13.468   1.770   3.592  0.4221 -0.5632  0.9538
  389MOL0    Cl53589  13.583   1.789   3.445  0.2290 -0.0716 -0.1473
  389MOL0     C53590  12.458   2.197   3.373  0.0582  0.3905 -1.2145
  389MOL0     C53591  12.313   2.184   3.389 -0.1392  0.1679  0.6287
  389MOL0     O53592  12.017   2.238   3.418 -0.4025 -0.1193 -0.8079
  389MOL0     C53593  11.842   2.019   3.211 -1.1880  0.1215  0.2663
  389MOL0     C53594  11.715   1.981   3.158  0.1295 -0.7043  0.4291
  389MOL0     N53595  10.937   1.765   3.113 -0.1566  0.2274 -0.2035
  389MOL0     N53596  10.863   1.870   3.094 -0.0458 -0.6040 -0.5842
  389MOL0     C53597   9.747   2.259   3.377  0.1166  0.3459  0.7338
  389MOL0     C53598   9.669   2.377   3.381  0.0719  0.6733 -0.2186
  389MOL0     C53599   9.591   2.835   3.274  0.1660 -0.4297  0.5987
  389MOL0     C53600   9.620   2.946   3.189  0.1834  0.5622 -0.2963
  389MOL0     C53601   9.541   3.057   3.187 -0.0330 -0.7384 -0.4150
  389MOL0     C53602   9.418   3.066   3.254  0.1659  0.1356 -0.0863
  389MOL0     O53603   9.328   3.162   3.247 -0.1419 -1.0646 -0.7239
  389MOL0     C53604   9.355   3.297   3.191  0.2596 -0.5084 -0.1191
  389MOL0     C53605   9.429   3.385   3.291 -0.3165 -0.0419 -0.2802
  389MOL0     C53606   9.396   3.530   3.269 -0.6479 -0.4907 -0.7287
  389MOL0     C53607   9.471   3.634   3.371  0.8998  0.2579  0.0318
  389MOL0     C53608   9.374   3.747   3.383 -0.0447  0.1548 -0.2943
  389MOL0     C53609   9.298   3.846   3.394  1.3165  0.3775  0.3641
  389MOL0     C53610   9.385   2.950   3.318 -0.6043  0.2880 -0.0435
  389MOL0     C53611   9.467   2.841   3.339 -0.4822  0.3831 -0.2138
  389MOL0     C53612   9.407   2.740   3.426 -0.1558  0.2356  0.1926
  389MOL0     H53613   9.904   2.618   3.396 -1.8368 -0.0946  3.8517
  389MOL0     H53614  10.060   2.391   3.379  0.2042 -0.6217  0.5474
  389MOL0     H53615  10.027   2.164   3.155  1.3881 -1.2645 -0.2556
  389MOL0     H53616   9.897   2.035   3.188 -1.3158  0.2512  3.4918
  389MOL0     H53617  10.088   1.913   3.301 -1.7173 -0.9328 -0.8674
  389MOL0     H53618  10.139   1.966   3.140  1.6379 -0.0554  0.6765
  389MOL0     H53619  10.245   2.186   3.249 -0.1212  1.1578  3.6318
  389MOL0     H53620  10.228   2.104   3.389 -0.3022 -0.9143 -0.0267
  389MOL0     H53621  10.364   1.907   3.296 -0.1875 -2.0325 -0.7963
  389MOL0     H53622  10.363   2.005   3.137 -4.4479 -1.7919 -0.0912
  389MOL0     H53623  10.516   2.037   3.404  2.9221 -0.0081  0.0071
  389MOL0     H53624  10.485   2.185   3.319 -0.2227 -0.5719  1.8238
  389MOL0     H53625  10.625   1.934   3.210  0.1908 -0.2681  0.1022
  389MOL0     H53626  10.598   2.083   3.129 -1.5954 -0.1803  0.5981
  389MOL0     H53627  10.792   2.061   3.371  2.8608 -0.7256 -0.5177
  389MOL0     H53628  10.735   2.209   3.311  1.4305  0.6328 -2.4916
  389MOL0     H53629  10.829   2.118   3.082 -0.7464 -4.0805 -1.2782
  389MOL0     H53630  10.949   2.183   3.192 -0.4527  0.4513  2.0707
  389MOL0     H53631  11.075   1.976   3.318  1.0207 -0.2754 -0.7065
  389MOL0     H53632  11.112   1.598   3.223 -2.0680  0.5860 -1.4412
  389MOL0     H53633  11.079   1.669   3.381 -1.8505 -0.3659 -0.7916
  389MOL0     H53634  11.249   1.829   3.360 -0.7221 -2.0938  0.9465
  389MOL0     H53635  11.321   1.670   3.328  0.7176 -0.0792  0.2649
  389MOL0     H53636  11.318   1.686   3.087  1.3006 -0.2429  0.0253
  389MOL0     H53637  11.252   1.845   3.095 -0.6225  1.0720  2.7907
  389MOL0     H53638  11.524   1.774   3.239  0.7133  0.8183 -0.8161
  389MOL0     H53639  11.520   1.792   3.070 -1.0294 -2.7655 -1.2556
  389MOL0     H53640  11.518   2.093   3.409 -0.9268 -1.1781 -1.5113
  389MOL0     H53641  11.733   2.292   3.522 -0.0321 -0.3302 -0.6926
  389MOL0     H53642  11.845   2.169   3.601 -1.2484 -2.3471  1.8657
  389MOL0     H53643  11.670   2.157   3.613  2.4233 -0.5403  2.4119
  389MOL0     H53644  12.278   1.862   3.301  0.6542  0.5204 -4.8823
  389MOL0     H53645  12.516   1.874   3.300 -3.8406 -2.0038 -0.5247
  389MOL0     H53646  12.702   2.249   3.218 -0.6262  2.0158  0.8825
  389MOL0     H53647  12.752   2.262   3.387  2.5860  1.1430 -1.2474
  389MOL0     H53648  12.867   2.077   3.175 -0.8886 -2.5330  1.0874
  389MOL0     H53649  12.946   2.218   3.244  0.3166 -1.3413 -1.7049
  389MOL0     H53650  12.880   1.980   3.412 -2.5070  0.2176 -2.7058
  389MOL0     H53651  12.942   2.132   3.479 -0.7069 -0.4292  0.9218
  389MOL0     H53652  13.141   2.082   3.302  2.0971 -2.6907 -0.3491
  389MOL0     H53653  13.070   1.916   3.320  1.8123 -2.1172  2.0653
  389MOL0     H53654  13.176   2.091   3.546 -1.7285 -0.7621  1.6514
  389MOL0     H53655  13.105   1.937   3.565 -0.1874 -2.0453 -1.9900
  389MOL0     H53656  13.369   1.974   3.403 -0.0965  1.7237  0.7726
  389MOL0     H53657  13.267   1.829   3.415 -1.0544 -0.3050  0.1907
  389MOL0     H53658  13.287   1.869   3.677  0.8612 -2.5836  0.2223
  389MOL0     H53659  13.423   1.971   3.644  2.0449 -1.6783  0.4734
  389MOL0     H53660  13.401   1.684   3.582 -0.0770 -0.2198  1.2832
  389MOL0     H53661  13.522   1.755   3.686  1.6712  3.5107  1.0534
  389MOL0     H53662  12.505   2.287   3.413  0.5231 -0.3203 -0.1416
  389MOL0     H53663  12.262   2.279   3.406 -1.4404 -0.7171  2.0179
  389MOL0     H53664  11.936   2.013   3.158 -0.5023 -1.4895  1.5954
  389MOL0     H53665  11.700   1.941   3.059 -0.4921 -1.4596  0.8138
  389MOL0     H53666   9.705   2.159   3.368 -0.7533  0.5665  2.0773
  389MOL0     H53667   9.563   2.360   3.396  0.4734 -1.7091  0.3347
  389MOL0     H53668   9.721   2.958   3.152  0.4167  2.0636  0.7261
  389MOL0     H53669   9.580   3.150   3.148  3.1770 -0.9721  1.7900
  389MOL0     H53670   9.418   3.289   3.102 -3.1974 -0.4004 -2.7557
  389MOL0     H53671   9.258   3.338   3.164 -1.2756 -3.5007  0.4457
  389MOL0     H53672   9.535   3.366   3.271 -0.2674  0.0348 -0.0918
  389MOL0     H53673   9.409   3.347   3.391  1.4152 -0.4974 -0.0706
  389MOL0     H53674   9.420   3.559   3.166  1.9228 -0.8239 -0.2699
  389MOL0     H53675   9.288   3.548   3.273 -0.6786 -0.9191  0.9104
  389MOL0     H53676   9.567   3.670   3.332  0.8554 -0.2411 -0.5674
  389MOL0     H53677   9.501   3.592   3.468  0.9123  1.9612  0.7911
  389MOL0     H53678   9.230   3.927   3.406 -2.3343 -2.4997  1.1188
  389MOL0     H53679   9.288   2.940   3.367 -1.6516  0.2376 -2.0258
  389MOL0     H53680   9.477   2.723   3.509 -1.6864  0.9689  1.6747
  389MOL0     H53681   9.311   2.773   3.466 -0.3036  0.5018 -0.3724
  389MOL0     H53682   9.395   2.643   3.376  2.5594 -0.4963  0.7725
  390MOL0     O53683   7.451   6.377   9.093  0.5083  0.3277  0.0718
  390MOL0     C53684   7.333   6.398   9.126 -0.9134 -0.7566  0.3379
  390MOL0     O53685   7.247   6.309   9.169  0.3098  0.0932  0.9908
  390MOL0     C53686   7.280   6.186   9.213 -0.3809  0.2875 -0.0455
  390MOL0     C53687   7.276   6.071   9.143  0.3073  0.6334 -0.3369
  390MOL0     C53688   7.298   5.946   9.206  0.3072  0.3201  0.2648
  390MOL0     C53689   7.345   5.950   9.346  0.1271  0.2718  0.3753
  390MOL0     O53690   7.386   5.855   9.433  0.1677 -0.0392 -0.5954
  390MOL0     C53691   7.451   5.747   9.370 -0.4912 -0.3086  0.1784
  390MOL0     C53692   7.462   5.640   9.476  0.1981 -0.0066  0.4675
  390MOL0     C53693   7.560   5.540   9.436 -0.1636  0.3433 -0.9582
  390MOL0     C53694   7.569   5.425   9.544  0.0349  0.4525  0.2301
  390MOL0     C53695   7.678   5.321   9.510 -0.1831 -0.1348  0.0398
  390MOL0     C53696   7.701   5.227   9.627 -0.1312  0.2167 -0.3915
  390MOL0     C53697   7.795   5.102   9.600  0.0094 -1.5575 -1.1498
  390MOL0     C53698   7.835   5.038   9.732  0.3850  0.4209 -0.1679
  390MOL0     N53699   7.928   4.929   9.712  0.4180  1.3171 -0.0206
  390MOL0     C53700   7.992   4.873   9.808  0.5101 -0.7492  0.0154
  390MOL0     C53701   8.081   4.783   9.753 -0.0762 -0.0676  0.2201
  390MOL0     C53702   8.182   4.700   9.828 -0.1223  0.3620  0.1697
  390MOL0     C53703   8.316   4.770   9.836  0.0788 -0.4373  0.8001
  390MOL0     C53704   8.401   4.702   9.723 -0.1046 -0.4501 -0.6051
  390MOL0     C53705   8.538   4.766   9.712 -0.0243  0.4201  0.6015
  390MOL0     O53706   8.614   4.726   9.827  0.6501 -0.1135 -0.5039
  390MOL0     C53707   8.733   4.671   9.803 -0.3277 -0.3037 -0.1061
  390MOL0     C53708   8.839   4.736   9.858 -0.3147  0.2517 -0.8855
  390MOL0     C53709   8.969   4.692   9.857 -0.3419  0.4896  0.4127
  390MOL0     C53710   9.065   4.784   9.927  0.3093  0.5993 -0.5786
  390MOL0     C53711   9.003   4.573   9.787  0.6738  0.1159 -0.3787
  390MOL0     C53712   9.140   4.518   9.785 -0.0547 -0.3985 -0.1510
  390MOL0     O53713   9.179   4.468   9.662 -0.1130  0.0931 -0.3400
  390MOL0     C53714   9.304   4.415   9.660  0.0217  0.3168  0.3764
  390MOL0     C53715   9.330   4.287   9.715  0.4255 -0.1048  0.2649
  390MOL0     C53716   9.452   4.220   9.706 -0.1010  0.5246 -0.5576
  390MOL0     C53717   9.556   4.288   9.632  1.0973  0.9588 -0.2599
  390MOL0     O53718   9.668   4.212   9.618  0.0938 -0.1675 -1.2192
  390MOL0     C53719   9.792   4.284   9.582 -0.1372 -0.1213 -0.3769
  390MOL0     C53720   9.927   4.206   9.576  0.7346  0.2007  0.4506
  390MOL0     C53721   9.920   4.086   9.479  0.7175  0.5835  0.2790
  390MOL0     C53722  10.057   4.011   9.479  0.0475 -0.7514  0.0645
  390MOL0     C53723  10.046   3.886   9.403 -0.5471 -0.1989  0.1273
  390MOL0     C53724  10.180   3.818   9.400  0.7038  0.1624  0.2793
  390MOL0     C53725  10.185   3.719   9.288  0.9309 -0.1843 -0.3620
  390MOL0     C53726  10.321   3.662   9.284 -0.3757  0.2443  0.2081
  390MOL0    Cl53727  10.358   3.576   9.436  0.0830 -0.6464 -0.7038
  390MOL0     C53728   9.535   4.411   9.580  0.2667 -1.1498  1.3026
  390MOL0     C53729   9.414   4.474   9.592  0.6176  0.0933  0.3051
  390MOL0     O53730   9.207   4.523   9.886 -0.2794  0.2924  0.0274
  390MOL0     C53731   8.893   4.508   9.724 -0.7410 -0.4104  0.1221
  390MOL0     C53732   8.763   4.553   9.733 -0.3975 -0.4262  0.3134
  390MOL0     N53733   8.063   4.783   9.614  0.0466 -0.2762 -0.6706
  390MOL0     N53734   7.972   4.874   9.599 -0.6700  0.1086 -0.3354
  390MOL0     C53735   7.341   6.069   9.416  1.1084  1.5285 -0.2146
  390MOL0     C53736   7.309   6.188   9.350  0.2011  1.2192  0.1476
  390MOL0     C53737   7.290   6.533   9.084  0.1382  0.7064  0.0761
  390MOL0     C53738   7.377   6.622   9.023  0.3173 -0.5363  0.2871
  390MOL0     C53739   7.347   6.758   8.997 -0.0484 -0.5306 -0.3614
  390MOL0     C53740   7.225   6.808   9.018  0.0998  0.3190 -1.1431
  390MOL0     O53741   7.199   6.940   8.982 -0.2894 -0.0028  0.0432
  390MOL0     C53742   7.098   7.013   9.056  0.2961  0.3953  0.3922
  390MOL0     C53743   6.972   7.019   8.967 -0.2659  0.4373  0.3993
  390MOL0     C53744   6.861   7.085   9.054  0.4288  0.1468  1.5296
  390MOL0     C53745   6.720   7.061   9.002  0.3479  0.3463 -0.1308
  390MOL0     C53746   6.695   6.919   8.990  0.8082  0.7552  0.1587
  390MOL0     C53747   6.677   6.797   8.968 -0.4910 -0.6467  0.1550
  390MOL0     C53748   7.132   6.726   9.085  0.0760  0.6018  0.1567
  390MOL0     C53749   7.162   6.593   9.113 -0.1793  0.2042  0.0469
  390MOL0     C53750   7.055   6.518   9.179  0.3517  0.3531 -0.0400
  390MOL0     H53751   7.244   6.077   9.040 -1.5578 -0.4489  0.1165
  390MOL0     H53752   7.291   5.847   9.163 -0.5210  0.0818  0.9221
  390MOL0     H53753   7.550   5.775   9.334 -0.7544  1.5925  0.8259
  390MOL0     H53754   7.387   5.701   9.295  0.2985 -2.3868  0.6964
  390MOL0     H53755   7.480   5.668   9.580 -1.2540 -1.4267  1.1489
  390MOL0     H53756   7.360   5.601   9.483 -0.5762  2.1076  1.8231
  390MOL0     H53757   7.517   5.506   9.341 -0.2756  0.8226 -1.0818
  390MOL0     H53758   7.657   5.589   9.422 -0.8761  1.7385 -1.1384
  390MOL0     H53759   7.593   5.476   9.638 -1.8729 -0.6127  1.3565
  390MOL0     H53760   7.475   5.372   9.562  1.2923 -1.0455  2.8985
  390MOL0     H53761   7.770   5.379   9.495 -0.8392  0.6965 -0.9350
  390MOL0     H53762   7.665   5.279   9.409  2.6862  1.7694 -1.2853
  390MOL0     H53763   7.749   5.292   9.701 -0.9108  2.2775 -1.6109
  390MOL0     H53764   7.609   5.176   9.659  1.5354 -2.5301  0.2899
  390MOL0     H53765   7.882   5.147   9.552 -0.1041 -0.9855 -0.8355
  390MOL0     H53766   7.745   5.032   9.533 -1.3644 -2.5488  0.7868
  390MOL0     H53767   7.893   5.119   9.778 -1.4432  1.0451  1.1742
  390MOL0     H53768   7.749   5.014   9.795  1.0118 -0.1848  0.4719
  390MOL0     H53769   7.967   4.886   9.913 -3.8167  0.8954 -1.0293
  390MOL0     H53770   8.182   4.607   9.771  0.6542  2.6520 -4.0427
  390MOL0     H53771   8.153   4.684   9.932 -3.3558  0.5215 -0.6020
  390MOL0     H53772   8.313   4.879   9.826  0.0984 -0.4198  0.9722
  390MOL0     H53773   8.349   4.766   9.940  1.2671  2.8622  0.6475
  390MOL0     H53774   8.417   4.598   9.754 -0.9607 -0.5235 -0.3829
  390MOL0     H53775   8.348   4.703   9.627  0.0459 -0.4201 -0.6876
  390MOL0     H53776   8.585   4.727   9.622  1.1999  1.9305  0.5486
  390MOL0     H53777   8.543   4.874   9.692  2.7821 -0.0273 -1.7266
  390MOL0     H53778   8.820   4.823   9.920 -4.0569 -0.8107 -0.2991
  390MOL0     H53779   9.150   4.806   9.861  0.6272 -1.5593 -0.9770
  390MOL0     H53780   9.098   4.728  10.015  2.0525  1.8127 -0.4009
  390MOL0     H53781   9.021   4.875   9.967 -1.7662 -1.4870  2.2856
  390MOL0     H53782   9.253   4.253   9.784 -0.4414 -0.4168 -0.8201
  390MOL0     H53783   9.478   4.125   9.753 -0.2908 -0.8678 -3.0460
  390MOL0     H53784   9.790   4.331   9.484  3.1968  0.9909 -0.0368
  390MOL0     H53785   9.798   4.367   9.653 -1.7433 -1.4893  1.4780
  390MOL0     H53786   9.999   4.281   9.544  0.1373  0.2781 -0.7684
  390MOL0     H53787   9.966   4.169   9.672  0.5966  0.7696  0.7276
  390MOL0     H53788   9.904   4.119   9.376 -1.1833  2.4036  1.0877
  390MOL0     H53789   9.837   4.024   9.513  0.5800  0.2264 -0.6864
  390MOL0     H53790  10.089   3.990   9.582 -1.6546 -0.5021  0.6821
  390MOL0     H53791  10.127   4.078   9.428 -0.2468 -1.8296 -1.8220
  390MOL0     H53792   9.982   3.828   9.470 -2.3055  3.6145  2.0770
  390MOL0     H53793  10.002   3.898   9.303  0.9392  0.9818 -0.4386
  390MOL0     H53794  10.195   3.766   9.495 -0.2567 -3.7211 -1.4931
  390MOL0     H53795  10.251   3.896   9.371 -1.4120  1.5935 -1.4227
  390MOL0     H53796  10.156   3.764   9.192  2.0280  3.2743  0.7709
  390MOL0     H53797  10.119   3.635   9.309  2.2588 -0.6397  2.3619
  390MOL0     H53798  10.390   3.747   9.272  0.2722 -0.4352 -1.0628
  390MOL0     H53799  10.329   3.588   9.204 -0.2131  0.0147  0.4335
  390MOL0     H53800   9.615   4.449   9.517  0.0069 -0.2419  1.5082
  390MOL0     H53801   9.415   4.575   9.553  3.3443  0.4755  1.1934
  390MOL0     H53802   8.916   4.414   9.674  0.5339  1.3718 -2.9243
  390MOL0     H53803   8.683   4.499   9.684  0.3420 -1.2738  0.0098
  390MOL0     H53804   7.369   6.068   9.521  1.6196  1.0943 -0.3502
  390MOL0     H53805   7.325   6.285   9.397 -0.2418  1.0041  0.7551
  390MOL0     H53806   7.472   6.586   8.987  0.3638  1.4540 -1.7668
  390MOL0     H53807   7.408   6.831   8.945 -1.9885  0.7502 -0.9643
  390MOL0     H53808   7.083   6.975   9.158 -2.4000  2.8923  1.0982
  390MOL0     H53809   7.145   7.112   9.065  1.3522 -0.1431  0.9965
  390MOL0     H53810   6.942   6.918   8.936  1.2954 -0.6061  2.1044
  390MOL0     H53811   7.000   7.068   8.874 -1.1662  1.2224  0.5263
  390MOL0     H53812   6.862   7.049   9.157  1.3115  1.2241  1.9217
  390MOL0     H53813   6.879   7.191   9.072  0.5425  0.6745 -1.2630
  390MOL0     H53814   6.712   7.112   8.906  1.9064  2.1255  0.6280
  390MOL0     H53815   6.657   7.118   9.071 -0.2167 -1.5723  1.0192
  390MOL0     H53816   6.637   6.700   8.947 -2.4593 -0.0560  0.9248
  390MOL0     H53817   7.030   6.750   9.114 -0.2187 -1.9479  1.4653
  390MOL0     H53818   7.094   6.495   9.279  1.9118  1.0073 -0.4614
  390MOL0     H53819   6.965   6.578   9.191  0.6255  1.1295 -1.6364
  390MOL0     H53820   7.022   6.422   9.138 -4.1876  1.0698  1.3803
  391MOL0     O53821   8.043   7.378   2.748  0.0258  0.2537  0.9662
  391MOL0     C53822   7.976   7.428   2.658 -0.6709  0.0743 -0.3699
  391MOL0     O53823   8.008   7.553   2.601  0.0394  0.1373 -0.3434
  391MOL0     C53824   8.103   7.630   2.660 -0.2994 -0.5686  0.7556
  391MOL0     C53825   8.108   7.662   2.797  1.0087 -0.1038 -1.0868
  391MOL0     C53826   8.210   7.738   2.845  0.0755  0.6035  0.0469
  391MOL0     C53827   8.324   7.759   2.764  0.2714  0.3596 -0.4327
  391MOL0     O53828   8.437   7.826   2.807  0.1465  0.2179  0.3125
  391MOL0     C53829   8.515   7.762   2.904 -0.4595  0.6057  0.0591
  391MOL0     C53830   8.642   7.849   2.914  0.9569 -0.5278 -1.0845
  391MOL0     C53831   8.753   7.799   3.015 -0.4173  0.5059 -0.0012
  391MOL0     C53832   8.870   7.901   3.002 -0.2958  0.8971  0.1942
  391MOL0     C53833   8.984   7.859   3.102  0.3645  0.3710  0.2417
  391MOL0     C53834   9.108   7.944   3.068 -0.2923 -0.2543  0.2251
  391MOL0     C53835   9.213   7.948   3.191 -0.0783 -0.2120  0.4166
  391MOL0     C53836   9.328   7.840   3.199 -0.4903 -0.0996 -0.4017
  391MOL0     N53837   9.423   7.831   3.086  0.3634 -0.3533  0.6740
  391MOL0     C53838   9.561   7.857   3.112  0.0666 -0.0214  0.4097
  391MOL0     C53839   9.631   7.843   2.994 -0.4775 -0.6029  0.8180
  391MOL0     C53840   9.773   7.870   2.984  0.9126  0.5065 -0.0087
  391MOL0     C53841   9.865   7.760   3.036 -0.2673  0.1381 -0.2206
  391MOL0     C53842  10.012   7.799   3.018  0.1903  0.2093  0.1881
  391MOL0     C53843  10.121   7.685   3.004  0.2978  0.2966  0.1237
  391MOL0     O53844  10.240   7.760   2.988 -0.5699 -0.1397  0.2429
  391MOL0     C53845  10.350   7.700   2.938  0.9593  0.2518 -0.0709
  391MOL0     C53846  10.362   7.563   2.922 -1.0082  0.2803  0.6551
  391MOL0     C53847  10.489   7.503   2.894 -0.0009  0.1496  0.0130
  391MOL0     C53848  10.496   7.361   2.875  0.4571 -0.0788  0.0389
  391MOL0     C53849  10.602   7.583   2.882 -0.0643 -0.5249 -0.3647
  391MOL0     C53850  10.748   7.547   2.856  0.1415  0.8398 -0.0643
  391MOL0     O53851  10.832   7.587   2.952 -0.5627 -0.9533  0.0197
  391MOL0     C53852  10.956   7.526   2.966 -0.4153  0.2270  0.3108
  391MOL0     C53853  11.074   7.605   2.987  0.6569  0.4822  0.1243
  391MOL0     C53854  11.197   7.548   2.996 -0.4302  0.3764  0.5349
  391MOL0     C53855  11.218   7.410   2.965 -0.3935  0.5947  0.1804
  391MOL0     O53856  11.334   7.341   2.952  0.0951 -0.7884 -0.4486
  391MOL0     C53857  11.455   7.397   3.004  0.7423 -0.7626  0.4307
  391MOL0     C53858  11.567   7.292   2.997  0.4015 -0.2080  0.4403
  391MOL0     C53859  11.696   7.359   3.023 -1.1829 -0.3485 -0.4030
  391MOL0     C53860  11.707   7.418   3.160  0.3029  0.7842 -0.3394
  391MOL0     C53861  11.849   7.429   3.214  1.0236 -0.3711 -0.5245
  391MOL0     C53862  11.849   7.492   3.356 -0.1642  0.6667  0.5211
  391MOL0     C53863  11.808   7.382   3.446  0.1041  1.2554  0.0436
  391MOL0     C53864  11.784   7.431   3.588 -0.0905 -0.1719  0.7327
  391MOL0    Cl53865  11.941   7.512   3.636  0.0099 -0.2057  0.0617
  391MOL0     C53866  11.105   7.334   2.948  0.3384  1.2306  0.1317
  391MOL0     C53867  10.980   7.388   2.948 -0.0641  0.0142 -0.2050
  391MOL0     O53868  10.780   7.505   2.745  0.1014  0.0286  0.3393
  391MOL0     C53869  10.584   7.723   2.889  0.3716  0.2832 -0.0140
  391MOL0     C53870  10.457   7.778   2.920  0.1336 -0.1777 -1.1103
  391MOL0     N53871   9.538   7.820   2.891  0.2455 -0.0017  0.7950
  391MOL0     N53872   9.418   7.802   2.953 -0.2449  0.3764  0.3200
  391MOL0     C53873   8.320   7.734   2.630  0.6668 -0.2318  0.1654
  391MOL0     C53874   8.213   7.666   2.576  0.4964 -0.1591  0.4560
  391MOL0     C53875   7.858   7.359   2.597 -0.5459 -0.8723 -0.9955
  391MOL0     C53876   7.814   7.246   2.660  0.9062  0.2388 -0.1717
  391MOL0     C53877   7.695   7.182   2.614  0.2865  1.1051 -0.8364
  391MOL0     C53878   7.624   7.228   2.500 -0.3366  0.0677  1.2588
  391MOL0     O53879   7.521   7.164   2.441 -0.3344 -0.4082 -0.7889
  391MOL0     C53880   7.454   7.072   2.532  0.3408  0.7179  0.4607
  391MOL0     C53881   7.310   7.041   2.484 -0.1385 -0.8684  0.3066
  391MOL0     C53882   7.225   7.163   2.505  0.7402  0.1946  0.8702
  391MOL0     C53883   7.114   7.140   2.599  0.7369  0.4989 -0.1794
  391MOL0     C53884   6.990   7.079   2.551 -0.0039 -0.5634  0.8610
  391MOL0     C53885   6.887   7.027   2.516  0.3246  0.1711 -0.7456
  391MOL0     C53886   7.676   7.331   2.430 -0.4015 -1.0634 -0.4285
  391MOL0     C53887   7.792   7.404   2.480 -0.6912  0.0378  0.1887
  391MOL0     C53888   7.826   7.525   2.398 -0.4909 -0.7336 -0.4171
  391MOL0     H53889   8.027   7.619   2.855  2.6640 -0.2911  1.2340
  391MOL0     H53890   8.201   7.766   2.950 -2.9595 -2.3191  0.7303
  391MOL0     H53891   8.544   7.666   2.862 -0.4550  1.4964 -2.1095
  391MOL0     H53892   8.469   7.750   3.002  0.4558 -0.8253  0.3451
  391MOL0     H53893   8.684   7.876   2.816 -1.9905 -0.2341 -2.3848
  391MOL0     H53894   8.599   7.944   2.948  1.8247 -0.2627 -0.6892
  391MOL0     H53895   8.719   7.795   3.118 -0.7702  0.8266 -0.1022
  391MOL0     H53896   8.786   7.700   2.981 -0.4711 -0.2439  2.0305
  391MOL0     H53897   8.913   7.895   2.902  1.5295  0.2830  0.9596
  391MOL0     H53898   8.837   8.003   3.020  1.8861  1.9910 -1.5790
  391MOL0     H53899   9.007   7.752   3.094 -1.9834 -0.1498 -0.1624
  391MOL0     H53900   8.948   7.875   3.204  2.8357 -0.3597  1.3146
  391MOL0     H53901   9.147   7.909   2.972  2.6266 -1.0133  1.6045
  391MOL0     H53902   9.069   8.044   3.046 -2.0183 -1.1870 -1.2855
  391MOL0     H53903   9.152   7.933   3.280 -0.3465  1.4011  0.5372
  391MOL0     H53904   9.265   8.043   3.173 -2.0634  0.7068 -0.7572
  391MOL0     H53905   9.386   7.867   3.288  1.4001  0.6395 -1.8059
  391MOL0     H53906   9.267   7.749   3.207 -1.3779  0.0815 -3.6324
  391MOL0     H53907   9.598   7.893   3.208  0.8724 -0.0063  0.1024
  391MOL0     H53908   9.791   7.957   3.047  0.3459  0.8936 -0.3759
  391MOL0     H53909   9.797   7.898   2.881  1.9546 -2.9959 -0.8835
  391MOL0     H53910   9.848   7.730   3.140  1.3758  0.7752  0.2822
  391MOL0     H53911   9.844   7.670   2.978 -0.1817 -0.1424  0.1765
  391MOL0     H53912  10.023   7.857   2.926 -0.1380 -1.7136 -1.1328
  391MOL0     H53913  10.039   7.862   3.102 -1.0185  0.9192  0.0524
  391MOL0     H53914  10.130   7.635   3.101  0.2438 -0.2191 -0.1355
  391MOL0     H53915  10.092   7.608   2.932  1.6792 -2.0315  1.8913
  391MOL0     H53916  10.284   7.494   2.952 -1.3265  1.1562  1.9477
  391MOL0     H53917  10.589   7.316   2.911  0.3593  0.1298  0.5600
  391MOL0     H53918  10.502   7.340   2.768  1.4283  1.6465 -0.2853
  391MOL0     H53919  10.412   7.319   2.930  0.1513  0.2599 -0.1700
  391MOL0     H53920  11.060   7.711   3.010 -0.9140  0.0774  1.1906
  391MOL0     H53921  11.275   7.617   3.026 -1.4213  1.2002  1.2846
  391MOL0     H53922  11.483   7.491   2.956 -2.3752 -0.6215 -1.3841
  391MOL0     H53923  11.428   7.407   3.109 -1.7571  1.0986 -0.2641
  391MOL0     H53924  11.535   7.220   3.074  0.4116  1.9978  2.6426
  391MOL0     H53925  11.556   7.245   2.899  0.0556  1.9749 -0.6290
  391MOL0     H53926  11.723   7.441   2.956 -0.5585 -1.6320 -1.7700
  391MOL0     H53927  11.772   7.282   3.009  1.1587  1.5462  1.0873
  391MOL0     H53928  11.658   7.348   3.228 -0.9538  0.9203 -1.0838
  391MOL0     H53929  11.652   7.511   3.172  1.8584  1.8026 -0.7889
  391MOL0     H53930  11.895   7.329   3.217 -1.5255 -1.6620 -1.6480
  391MOL0     H53931  11.899   7.485   3.134 -2.3225 -1.3685 -3.5798
  391MOL0     H53932  11.784   7.579   3.367 -0.5910  0.4971 -0.4866
  391MOL0     H53933  11.948   7.526   3.385 -0.3865  1.0980  0.7870
  391MOL0     H53934  11.879   7.299   3.437 -1.5022 -0.4914  2.3094
  391MOL0     H53935  11.710   7.344   3.416  0.4805  0.0146  0.3455
  391MOL0     H53936  11.758   7.346   3.653 -1.8546  0.8989  1.4811
  391MOL0     H53937  11.705   7.506   3.581 -1.8678 -2.1151 -2.7390
  391MOL0     H53938  11.120   7.228   2.933 -0.5684  0.6120  2.9842
  391MOL0     H53939  10.890   7.329   2.939 -0.3002 -0.0554  2.0265
  391MOL0     H53940  10.660   7.798   2.871 -1.0915  1.3481 -2.1249
  391MOL0     H53941  10.445   7.886   2.920  1.7283  0.0427 -2.9616
  391MOL0     H53942   8.410   7.762   2.577  0.7239  0.4890  0.6177
  391MOL0     H53943   8.203   7.649   2.470  0.1217  1.8919  0.1263
  391MOL0     H53944   7.873   7.210   2.744  0.4125 -0.6146 -0.1733
  391MOL0     H53945   7.678   7.083   2.653 -0.1886  1.0900 -1.0796
  391MOL0     H53946   7.501   6.974   2.541 -0.1319  0.4388 -0.0765
  391MOL0     H53947   7.446   7.109   2.635 -0.4488  1.1364  0.2601
  391MOL0     H53948   7.279   6.953   2.540 -2.2413  0.0593  0.7239
  391MOL0     H53949   7.322   7.016   2.378  3.6071  0.4489  0.3008
  391MOL0     H53950   7.292   7.240   2.543  2.1841 -0.5461 -0.1034
  391MOL0     H53951   7.183   7.196   2.409  0.5328  4.9546  2.3352
  391MOL0     H53952   7.070   7.231   2.641  0.2302 -0.3178  1.1104
  391MOL0     H53953   7.158   7.086   2.683 -2.0114  2.0288  2.4499
  391MOL0     H53954   6.792   6.982   2.492  0.5954  0.2969 -2.1494
  391MOL0     H53955   7.624   7.354   2.337  0.2596 -0.6972 -0.7205
  391MOL0     H53956   7.934   7.532   2.381 -0.6612  2.1900 -0.6719
  391MOL0     H53957   7.772   7.537   2.303 -1.5220  2.1392  0.4544
  391MOL0     H53958   7.800   7.610   2.460  3.8301 -0.1518  0.8843
  392MOL0     O53959   6.274   0.962   6.976  0.6276  0.2390  0.3831
  392MOL0     C53960   6.364   0.918   6.917  0.3153  0.0421  0.2282
  392MOL0     O53961   6.492   0.950   6.942 -0.2571 -0.0328  0.3181
  392MOL0     C53962   6.539   1.043   7.037 -0.3060 -0.3553  0.1014
  392MOL0     C53963   6.676   1.086   7.021 -0.8704  0.6806 -0.1832
  392MOL0     C53964   6.740   1.176   7.112  0.2110  0.8613 -0.7361
  392MOL0     C53965   6.660   1.220   7.226  0.2241  0.3837  0.5885
  392MOL0     O53966   6.713   1.301   7.320 -0.9778  0.1967 -0.3282
  392MOL0     C53967   6.822   1.387   7.290  0.0511  0.5723  0.0459
  392MOL0     C53968   6.815   1.505   7.394  0.2932 -0.0566 -0.2324
  392MOL0     C53969   6.865   1.642   7.344 -0.5772 -0.1064 -0.2935
  392MOL0     C53970   7.008   1.641   7.284 -1.3283  0.0863 -0.4223
  392MOL0     C53971   7.124   1.591   7.375 -0.1971  1.1759  0.3010
  392MOL0     C53972   7.255   1.649   7.324  0.2698  0.7332  0.1918
  392MOL0     C53973   7.291   1.777   7.399  0.1957 -0.0289  0.5117
  392MOL0     C53974   7.285   1.763   7.554  0.0427 -0.0566  0.7080
  392MOL0     N53975   7.371   1.658   7.604 -0.7502  0.2138 -0.4071
  392MOL0     C53976   7.511   1.664   7.598 -0.0743 -0.2422  0.0570
  392MOL0     C53977   7.547   1.572   7.695  0.0714 -0.5155  0.0772
  392MOL0     C53978   7.692   1.535   7.725 -0.1420  0.0199 -0.0163
  392MOL0     C53979   7.705   1.432   7.841  1.6630 -0.0985 -0.9480
  392MOL0     C53980   7.845   1.401   7.870 -0.3325  0.3629  0.7870
  392MOL0     C53981   7.868   1.314   8.000 -0.1458 -0.5513  0.2898
  392MOL0     O53982   7.873   1.175   7.976  0.2088 -0.3116  0.0796
  392MOL0     C53983   7.887   1.098   8.090 -0.5543 -0.7056 -0.2074
  392MOL0     C53984   7.839   0.969   8.081 -0.5370 -0.1566 -0.1316
  392MOL0     C53985   7.864   0.868   8.181 -0.0197 -0.2846 -0.5791
  392MOL0     C53986   7.809   0.736   8.148 -0.5431 -0.3949  0.1157
  392MOL0     C53987   7.949   0.900   8.298  0.1751 -0.1645  0.3175
  392MOL0     C53988   7.992   0.802   8.395 -1.0498  0.0264 -0.9673
  392MOL0     O53989   8.117   0.819   8.435 -0.4662 -0.4053 -0.8835
  392MOL0     C53990   8.163   0.768   8.554  0.6941 -0.8289  0.0358
  392MOL0     C53991   8.104   0.682   8.644 -0.4738  0.3355 -0.3589
  392MOL0     C53992   8.181   0.619   8.750 -0.5122 -0.3835  0.0725
  392MOL0     C53993   8.311   0.661   8.771 -0.4393  0.6097  0.0306
  392MOL0     O53994   8.397   0.622   8.877 -0.1607  0.2285  0.0325
  392MOL0     C53995   8.357   0.491   8.924 -0.6406  0.0438 -0.1621
  392MOL0     C53996   8.463   0.449   9.029 -0.4082 -0.0316 -0.5195
  392MOL0     C53997   8.441   0.314   9.100  1.0248  0.7618  0.2382
  392MOL0     C53998   8.482   0.190   9.007 -0.9968  0.2538  0.6098
  392MOL0     C53999   8.483   0.050   9.080 -0.4123  0.6243  0.0243
  392MOL0     C54000   8.545  -0.056   8.975  0.1464 -1.3500 -0.5749
  392MOL0     C54001   8.702  -0.029   8.974  0.6958  0.1527 -0.2193
  392MOL0     C54002   8.777  -0.157   8.951 -0.7961 -0.1704  0.2260
  392MOL0    Cl54003   8.763  -0.270   9.099 -0.3452 -0.2626  0.0180
  392MOL0     C54004   8.362   0.774   8.695 -0.5703  0.4138 -0.9392
  392MOL0     C54005   8.287   0.820   8.582 -0.2431  0.4463  0.6181
  392MOL0     O54006   7.918   0.705   8.431  0.1533 -0.6063  0.6149
  392MOL0     C54007   7.979   1.036   8.314 -0.8405 -0.0864  0.1800
  392MOL0     C54008   7.958   1.129   8.210  0.4110  0.4476  0.4841
  392MOL0     N54009   7.434   1.524   7.756 -0.4315  0.6513  0.3638
  392MOL0     N54010   7.335   1.572   7.700  0.2911 -0.5875 -0.3634
  392MOL0     C54011   6.524   1.193   7.223  0.6036  0.1258  0.5864
  392MOL0     C54012   6.459   1.104   7.136 -0.3690  0.0542 -0.0982
  392MOL0     C54013   6.348   0.853   6.785  0.1585  0.8096  0.6586
  392MOL0     C54014   6.455   0.852   6.703 -1.0098 -0.3010 -0.5014
  392MOL0     C54015   6.440   0.795   6.579  0.3897  0.4113 -0.0938
  392MOL0     C54016   6.324   0.729   6.534 -1.1754  0.1783 -0.2680
  392MOL0     O54017   6.297   0.695   6.401 -0.2521 -0.3502  0.0939
  392MOL0     C54018   6.234   0.570   6.368 -0.8683  0.1008  0.2428
  392MOL0     C54019   6.109   0.615   6.295 -0.4164 -0.2525 -0.6555
  392MOL0     C54020   6.013   0.501   6.245  0.3381  0.1692 -0.1990
  392MOL0     C54021   5.901   0.562   6.164  0.3196  0.7497  0.0339
  392MOL0     C54022   5.784   0.471   6.147  0.7604  0.2431 -1.0087
  392MOL0     C54023   5.690   0.396   6.132  0.2007 -0.8237 -0.4182
  392MOL0     C54024   6.219   0.722   6.624  0.5234  0.1817 -1.0977
  392MOL0     C54025   6.227   0.791   6.747 -0.3718 -0.7008  0.1292
  392MOL0     C54026   6.109   0.779   6.843  0.6406  0.5324 -0.0950
  392MOL0     H54027   6.732   1.037   6.943 -0.6805  1.7326 -0.7282
  392MOL0     H54028   6.848   1.186   7.114  0.3574 -0.5077 -0.3412
  392MOL0     H54029   6.812   1.424   7.187  1.4279  0.1591 -0.2690
  392MOL0     H54030   6.918   1.335   7.298 -0.5240 -0.4736  0.4135
  392MOL0     H54031   6.714   1.515   7.435 -1.8117  2.4636 -5.2816
  392MOL0     H54032   6.888   1.489   7.475 -0.2459 -0.9258  0.0934
  392MOL0     H54033   6.794   1.682   7.270 -0.7605  2.7616  1.2865
  392MOL0     H54034   6.862   1.712   7.428 -3.0272  0.3329 -0.6633
  392MOL0     H54035   7.008   1.581   7.193 -3.1718 -0.8125  0.1190
  392MOL0     H54036   7.026   1.748   7.270 -3.8902  0.4678 -1.3169
  392MOL0     H54037   7.124   1.481   7.370 -3.3997  1.0979 -0.7048
  392MOL0     H54038   7.099   1.611   7.480  0.9162  1.1014  0.5860
  392MOL0     H54039   7.332   1.572   7.340  0.3109  1.0687  1.8600
  392MOL0     H54040   7.252   1.669   7.217  2.6793 -1.9981 -0.5257
  392MOL0     H54041   7.234   1.861   7.357 -2.4275 -2.5826 -1.3951
  392MOL0     H54042   7.395   1.791   7.366  0.0426 -2.3883 -1.2113
  392MOL0     H54043   7.326   1.858   7.592  0.1102 -0.2896  1.2245
  392MOL0     H54044   7.181   1.756   7.588 -1.7898  2.0321 -3.7127
  392MOL0     H54045   7.567   1.733   7.536 -0.9850  0.8963  0.4731
  392MOL0     H54046   7.759   1.616   7.754  2.2497 -1.2511 -1.6467
  392MOL0     H54047   7.731   1.485   7.636 -1.4570  1.1667 -1.2935
  392MOL0     H54048   7.664   1.480   7.930  4.5159 -1.4100  1.2145
  392MOL0     H54049   7.648   1.342   7.815  1.2400 -0.4218  0.9735
  392MOL0     H54050   7.891   1.346   7.788 -1.4482 -0.7952  0.8960
  392MOL0     H54051   7.884   1.502   7.888 -1.5557  0.4682  3.4128
  392MOL0     H54052   7.962   1.344   8.047  0.2790  1.7502 -1.7912
  392MOL0     H54053   7.790   1.335   8.074  0.2456 -0.7940  0.7710
  392MOL0     H54054   7.772   0.935   8.002 -2.4265 -0.4197  1.4985
  392MOL0     H54055   7.728   0.709   8.217 -0.7854  2.3240  1.0025
  392MOL0     H54056   7.894   0.666   8.155  0.0698 -0.5073 -4.8304
  392MOL0     H54057   7.768   0.722   8.048  2.4325 -3.7890 -0.8817
  392MOL0     H54058   7.999   0.655   8.650 -0.4839  0.4087 -0.1964
  392MOL0     H54059   8.130   0.544   8.810  1.6657 -0.6852  1.6776
  392MOL0     H54060   8.256   0.487   8.966 -2.0214  1.6165 -3.0370
  392MOL0     H54061   8.364   0.426   8.837 -0.3064 -2.3811  1.5820
  392MOL0     H54062   8.564   0.456   8.987 -1.0223 -1.5808 -2.3675
  392MOL0     H54063   8.462   0.525   9.108  2.0533  0.1642 -0.5788
  392MOL0     H54064   8.336   0.312   9.130  0.3292  2.9753 -1.7212
  392MOL0     H54065   8.509   0.321   9.186 -0.1533  1.2627  1.1513
  392MOL0     H54066   8.586   0.201   8.975  0.2985 -2.4952  3.2977
  392MOL0     H54067   8.423   0.190   8.915  0.1838  2.0596 -0.1908
  392MOL0     H54068   8.536   0.044   9.176  1.0391 -1.8682 -0.8387
  392MOL0     H54069   8.378   0.026   9.102 -0.3835  1.6472  1.3960
  392MOL0     H54070   8.498  -0.042   8.877 -0.8133 -1.3884 -0.1304
  392MOL0     H54071   8.524  -0.156   9.014 -0.8147 -1.3677 -1.1125
  392MOL0     H54072   8.734   0.035   9.057  3.3977 -0.4854 -0.6800
  392MOL0     H54073   8.724   0.040   8.892  1.9375  2.3013  1.7806
  392MOL0     H54074   8.885  -0.147   8.934 -0.6942 -0.3327  0.7597
  392MOL0     H54075   8.726  -0.206   8.867  1.0935 -1.3541 -0.2988
  392MOL0     H54076   8.458   0.816   8.725 -0.7217 -0.4441  0.8577
  392MOL0     H54077   8.322   0.902   8.520  2.3288 -1.1895 -0.2362
  392MOL0     H54078   8.033   1.068   8.403  1.7530  2.3415 -2.0585
  392MOL0     H54079   8.003   1.226   8.226  2.0412 -0.0847 -0.6474
  392MOL0     H54080   6.465   1.231   7.305  1.1318  1.5011  0.3477
  392MOL0     H54081   6.354   1.084   7.151 -0.8310  1.6597 -1.0147
  392MOL0     H54082   6.552   0.898   6.715 -0.8302 -0.1881 -2.1017
  392MOL0     H54083   6.519   0.793   6.505 -0.2718 -1.8218 -0.8124
  392MOL0     H54084   6.290   0.511   6.295  1.1143  0.0666  1.7250
  392MOL0     H54085   6.201   0.521   6.461  3.2000  1.1458  2.4873
  392MOL0     H54086   6.134   0.682   6.212  1.8313  0.4918  0.5297
  392MOL0     H54087   6.057   0.680   6.365  0.0733  2.2189 -2.4240
  392MOL0     H54088   6.064   0.424   6.185 -2.3376 -2.8718  1.1203
  392MOL0     H54089   5.976   0.452   6.336  1.9814 -0.5060  0.1516
  392MOL0     H54090   5.925   0.583   6.060  2.2784  2.1044  0.7066
  392MOL0     H54091   5.873   0.655   6.214 -1.2367  0.2484  0.1465
  392MOL0     H54092   5.611   0.329   6.104  0.6321 -0.5189 -2.5271
  392MOL0     H54093   6.128   0.668   6.600 -0.1126 -0.5039  2.3475
  392MOL0     H54094   6.147   0.724   6.930 -2.7493 -1.8017  0.1119
  392MOL0     H54095   6.069   0.878   6.864 -0.4103  0.6463 -2.3456
  392MOL0     H54096   6.027   0.723   6.797  0.4252 -0.7881  1.7598
  393MOL0     O54097   9.691   7.690   3.509  0.1531 -0.4449  0.0547
  393MOL0     C54098   9.620   7.622   3.584  0.4430  0.3609  0.8480
  393MOL0     O54099   9.648   7.589   3.717  0.1258  0.5476  0.6703
  393MOL0     C54100   9.781   7.558   3.735 -0.4163 -0.5788  0.9683
  393MOL0     C54101   9.811   7.422   3.746  0.2680 -0.2375  0.0593
  393MOL0     C54102   9.938   7.379   3.771  0.4214  0.5711  0.0554
  393MOL0     C54103  10.043   7.468   3.771 -1.2097 -0.1854 -0.4826
  393MOL0     O54104  10.166   7.409   3.787  0.0926  0.0561 -0.5587
  393MOL0     C54105  10.277   7.479   3.856  0.9879 -1.0309 -1.0593
  393MOL0     C54106  10.391   7.513   3.754 -0.6594  0.3299  0.2211
  393MOL0     C54107  10.469   7.394   3.704  0.8760  0.1314  1.4743
  393MOL0     C54108  10.608   7.439   3.637 -0.0599  0.4464  0.1743
  393MOL0     C54109  10.687   7.309   3.595  0.6435 -0.7600  1.1174
  393MOL0     C54110  10.744   7.220   3.712 -0.0768  0.1595 -0.8745
  393MOL0     C54111  10.821   7.096   3.670 -0.3251  0.5482  0.2398
  393MOL0     C54112  10.839   7.001   3.780 -0.1806 -0.6249  0.5031
  393MOL0     N54113  10.722   6.983   3.870  0.2413 -0.1941  0.4780
  393MOL0     C54114  10.626   6.881   3.855 -0.1349  0.1912  0.4948
  393MOL0     C54115  10.564   6.868   3.979 -0.0738  0.2698  0.4245
  393MOL0     C54116  10.489   6.753   4.029 -0.3948  0.2379 -0.4280
  393MOL0     C54117  10.570   6.630   4.053 -0.0163 -0.0727  0.4241
  393MOL0     C54118  10.483   6.497   4.061 -0.8595 -0.4227 -0.0059
  393MOL0     C54119  10.563   6.368   4.096 -0.1497  0.1608 -0.1052
  393MOL0     O54120  10.685   6.350   4.024 -0.0787  0.1289  0.2758
  393MOL0     C54121  10.702   6.252   3.928 -0.4154  0.4361 -0.3338
  393MOL0     C54122  10.834   6.232   3.897  0.3685 -0.2357  0.5509
  393MOL0     C54123  10.877   6.125   3.815  1.1549 -1.2228 -0.1060
  393MOL0     C54124  11.031   6.122   3.801  0.1040  0.4565 -0.2517
  393MOL0     C54125  10.781   6.055   3.747 -0.4996 -0.0545  0.0349
  393MOL0     C54126  10.816   5.940   3.654  0.3050 -0.1567 -1.1493
  393MOL0     O54127  10.717   5.880   3.591  0.4812 -0.1463 -0.5022
  393MOL0     C54128  10.755   5.800   3.490 -0.9593 -0.7700  0.1464
  393MOL0     C54129  10.717   5.665   3.493 -0.3195  0.3392 -0.3188
  393MOL0     C54130  10.737   5.580   3.388 -0.3374  0.1193  0.8657
  393MOL0     C54131  10.815   5.620   3.275 -0.1886  0.2583 -0.1205
  393MOL0     O54132  10.864   5.538   3.178 -0.1776 -0.2316 -0.4499
  393MOL0     C54133  10.846   5.399   3.184 -0.5501  0.4994  0.2414
  393MOL0     C54134  10.915   5.330   3.068  0.2379 -0.5825 -0.7358
  393MOL0     C54135  11.064   5.330   3.093 -0.0241  0.2373  0.2753
  393MOL0     C54136  11.134   5.218   3.007 -0.2185 -0.8219 -0.2154
  393MOL0     C54137  11.281   5.242   3.006  0.6234 -0.9174  1.0997
  393MOL0     C54138  11.350   5.109   2.976 -0.7288  0.4459  0.4733
  393MOL0     C54139  11.499   5.099   2.989 -0.8284 -0.4902  0.4086
  393MOL0     C54140  11.579   5.158   2.871  0.0840 -0.0799  0.3296
  393MOL0    Cl54141  11.570   5.337   2.875 -0.1965  0.1618 -0.0356
  393MOL0     C54142  10.864   5.748   3.271 -0.4844 -0.0660 -0.5735
  393MOL0     C54143  10.823   5.840   3.371 -0.7688  0.7380  0.4943
  393MOL0     O54144  10.939   5.910   3.655 -0.0034  0.0414 -0.0776
  393MOL0     C54145  10.646   6.075   3.789 -0.5986 -0.5686  0.1996
  393MOL0     C54146  10.603   6.169   3.879  0.1001 -1.0999 -0.5211
  393MOL0     N54147  10.613   6.968   4.058 -0.1860  0.3002  0.2179
  393MOL0     N54148  10.704   7.035   3.996  0.3729  0.4302  0.8393
  393MOL0     C54149  10.023   7.599   3.754 -0.1443 -0.5529 -0.6495
  393MOL0     C54150   9.891   7.649   3.735  0.0215  0.1383  0.1643
  393MOL0     C54151   9.485   7.594   3.541 -0.6748  0.0423 -0.0351
  393MOL0     C54152   9.392   7.697   3.560 -0.0661  0.3046 -0.0568
  393MOL0     C54153   9.264   7.687   3.516  0.0045 -0.5027  0.5430
  393MOL0     C54154   9.231   7.580   3.446  0.1796  0.7763 -0.3153
  393MOL0     O54155   9.113   7.555   3.400  0.3770 -0.4182  0.1603
  393MOL0     C54156   9.026   7.499   3.501  0.5057 -0.3750  0.2058
  393MOL0     C54157   8.897   7.501   3.439  0.3542 -0.3268  0.1749
  393MOL0     C54158   8.832   7.646   3.435  0.6503  0.3202 -0.2677
  393MOL0     C54159   8.681   7.641   3.412 -0.3233  0.8603  0.3385
  393MOL0     C54160   8.655   7.569   3.287 -0.1442 -0.2780  0.6711
  393MOL0     C54161   8.626   7.528   3.174  0.2220  0.3721  0.1271
  393MOL0     C54162   9.322   7.480   3.422  0.4055 -0.2308 -0.6695
  393MOL0     C54163   9.452   7.484   3.476 -1.3973 -0.1478  0.1944
  393MOL0     C54164   9.550   7.375   3.448 -0.5121 -0.4212  0.2639
  393MOL0     H54165   9.745   7.336   3.742 -1.8399  0.9832  3.7975
  393MOL0     H54166   9.956   7.272   3.774 -3.5753 -0.2637  0.1155
  393MOL0     H54167  10.318   7.414   3.934 -2.4644 -0.6501  1.2443
  393MOL0     H54168  10.258   7.571   3.912  0.5883 -0.2186 -2.4638
  393MOL0     H54169  10.331   7.566   3.679 -0.1384  0.2640 -0.2442
  393MOL0     H54170  10.458   7.592   3.790 -0.7497 -1.4112  4.7921
  393MOL0     H54171  10.504   7.334   3.788 -1.9327 -0.7843  2.0796
  393MOL0     H54172  10.405   7.335   3.638  2.3661 -0.3703  0.4194
  393MOL0     H54173  10.588   7.488   3.542  0.8261 -2.4641 -1.6654
  393MOL0     H54174  10.673   7.503   3.698  1.5820 -2.2195  1.4591
  393MOL0     H54175  10.769   7.347   3.534 -0.0040 -0.0207  0.6981
  393MOL0     H54176  10.625   7.246   3.530 -0.3381  0.2173  1.0872
  393MOL0     H54177  10.824   7.265   3.773 -0.7608 -0.4502  0.5248
  393MOL0     H54178  10.657   7.190   3.771  2.3504 -3.7024  1.2311
  393MOL0     H54179  10.913   7.123   3.616 -2.4918 -0.0464 -4.2501
  393MOL0     H54180  10.765   7.040   3.594 -1.7881  1.5221  0.5729
  393MOL0     H54181  10.886   6.906   3.753 -0.5108 -0.5318 -0.4406
  393MOL0     H54182  10.916   7.037   3.849 -0.4521  0.6522  0.1643
  393MOL0     H54183  10.625   6.812   3.770 -2.3063  1.0514 -0.2696
  393MOL0     H54184  10.411   6.724   3.958  0.0407  1.7167 -1.5580
  393MOL0     H54185  10.443   6.780   4.124 -0.8370  0.4051 -0.6848
  393MOL0     H54186  10.647   6.637   3.976  1.4376  2.2763  1.9782
  393MOL0     H54187  10.608   6.640   4.155 -0.9171 -1.2564  0.9012
  393MOL0     H54188  10.403   6.510   4.135  1.2203 -0.8295  2.4685
  393MOL0     H54189  10.456   6.463   3.961  0.3366 -0.0715 -0.4705
  393MOL0     H54190  10.580   6.383   4.203 -2.2185 -1.4196  0.5069
  393MOL0     H54191  10.490   6.287   4.088  0.0709  0.0560 -1.2196
  393MOL0     H54192  10.895   6.307   3.947 -2.0525  1.5790  0.9544
  393MOL0     H54193  11.066   6.192   3.877 -1.5668  1.9138 -0.7494
  393MOL0     H54194  11.056   6.166   3.704 -4.4312  0.5243 -1.5972
  393MOL0     H54195  11.079   6.026   3.826 -0.7333  0.2043  0.4333
  393MOL0     H54196  10.665   5.639   3.585  0.3497  1.3407  0.3561
  393MOL0     H54197  10.700   5.478   3.402  2.1192 -0.6119  2.6193
  393MOL0     H54198  10.890   5.362   3.277  1.3431  0.6601 -0.5495
  393MOL0     H54199  10.739   5.379   3.182 -0.8282  1.9064  0.1802
  393MOL0     H54200  10.883   5.225   3.061  1.9697 -1.1237 -1.1145
  393MOL0     H54201  10.877   5.382   2.980  0.9433 -1.6166 -1.6771
  393MOL0     H54202  11.079   5.319   3.200  2.0151  1.3672  0.1564
  393MOL0     H54203  11.108   5.428   3.072 -0.0053  0.1080 -0.3162
  393MOL0     H54204  11.109   5.219   2.900  0.7202 -0.5874 -0.4400
  393MOL0     H54205  11.103   5.127   3.059 -1.4436  0.3625  1.2503
  393MOL0     H54206  11.309   5.321   2.937 -3.3050 -0.6191 -0.3861
  393MOL0     H54207  11.310   5.269   3.108 -0.4739  0.0635  1.1742
  393MOL0     H54208  11.328   5.055   2.883  0.6531 -3.9299  2.3894
  393MOL0     H54209  11.319   5.039   3.054  0.3075  1.0670  1.4771
  393MOL0     H54210  11.531   4.995   3.000 -1.5220 -0.9158 -1.2736
  393MOL0     H54211  11.535   5.152   3.077  1.0036  0.5473 -0.8900
  393MOL0     H54212  11.537   5.127   2.775  1.0859 -1.3991  0.2769
  393MOL0     H54213  11.678   5.111   2.872 -1.4945 -3.7941 -0.7089
  393MOL0     H54214  10.933   5.785   3.196 -1.0239  0.0043 -1.0402
  393MOL0     H54215  10.876   5.930   3.343  0.6042  0.0916  0.9200
  393MOL0     H54216  10.562   6.021   3.746 -1.2592  1.1802 -0.8090
  393MOL0     H54217  10.500   6.183   3.908  0.1264 -1.0908 -0.4329
  393MOL0     H54218  10.109   7.663   3.734 -1.5565  1.4161 -0.6675
  393MOL0     H54219   9.867   7.754   3.722 -0.0711  0.0183 -0.7166
  393MOL0     H54220   9.417   7.791   3.609 -3.0545 -0.2942  2.9363
  393MOL0     H54221   9.190   7.766   3.521 -0.6052 -1.0979  1.0826
  393MOL0     H54222   9.046   7.396   3.532  0.4363 -1.6512 -3.5082
  393MOL0     H54223   9.031   7.561   3.591 -1.0907 -2.5622  1.9503
  393MOL0     H54224   8.831   7.426   3.483 -0.3599  0.0092 -0.2983
  393MOL0     H54225   8.906   7.484   3.331  1.0742 -0.6593  0.2858
  393MOL0     H54226   8.840   7.693   3.533 -0.3536  2.6022 -1.2068
  393MOL0     H54227   8.883   7.708   3.361  1.9111 -1.1501 -0.6954
  393MOL0     H54228   8.647   7.744   3.399 -0.2970  0.7898 -0.3226
  393MOL0     H54229   8.625   7.586   3.488  1.8129 -1.5617  0.3075
  393MOL0     H54230   8.589   7.490   3.081  1.3382  0.2852 -0.2870
  393MOL0     H54231   9.295   7.387   3.372  2.5304 -0.8961 -0.6739
  393MOL0     H54232   9.560   7.357   3.341 -0.1570 -1.3082  0.4364
  393MOL0     H54233   9.651   7.397   3.484 -1.2020 -0.2115  2.2030
  393MOL0     H54234   9.511   7.287   3.500 -1.9798 -0.2510 -0.5021
  394MOL0     O54235   1.712  10.867   4.577 -0.4689 -0.5582 -0.6033
  394MOL0     C54236   1.812  10.893   4.517 -0.2807 -0.3991  1.1313
  394MOL0     O54237   1.875  11.014   4.510 -1.1467 -0.2683 -0.3575
  394MOL0     C54238   1.789  11.125   4.531  0.0364 -0.0909  0.5014
  394MOL0     C54239   1.782  11.196   4.656 -0.8329 -0.5890  0.3865
  394MOL0     C54240   1.705  11.315   4.666 -0.3828 -0.2311 -0.8707
  394MOL0     C54241   1.651  11.372   4.552  0.9316 -0.2208  0.4419
  394MOL0     O54242   1.594  11.501   4.577 -0.2765  1.1037  0.5345
  394MOL0     C54243   1.518  11.557   4.472  0.1919  0.8771 -0.9717
  394MOL0     C54244   1.446  11.685   4.516 -0.0243  1.0582  0.3813
  394MOL0     C54245   1.348  11.685   4.631 -0.0963 -0.0576 -0.0365
  394MOL0     C54246   1.217  11.615   4.605 -0.2985  0.3956  0.4042
  394MOL0     C54247   1.112  11.661   4.714 -0.2897  1.1238 -0.4367
  394MOL0     C54248   0.986  11.575   4.682  0.3554 -0.8005 -0.5160
  394MOL0     C54249   0.870  11.593   4.774  0.4114  0.5953 -0.2678
  394MOL0     C54250   0.822  11.739   4.782  0.3184 -0.6881 -0.5252
  394MOL0     N54251   0.694  11.739   4.853 -0.4193  0.3600  0.2296
  394MOL0     C54252   0.690  11.748   4.987  0.3381  0.0977  0.3592
  394MOL0     C54253   0.559  11.769   5.015  0.5845 -0.0791 -0.0738
  394MOL0     C54254   0.497  11.804   5.148  0.1064 -0.1064  0.3956
  394MOL0     C54255   0.408  11.691   5.215  0.2652  0.6202  0.6223
  394MOL0     C54256   0.467  11.627   5.345  0.1277  0.2803  1.0026
  394MOL0     C54257   0.596  11.552   5.298  0.2132  0.1261 -0.0317
  394MOL0     O54258   0.581  11.469   5.174  0.3565  0.1158 -0.2808
  394MOL0     C54259   0.697  11.420   5.114  0.4778  0.2795  0.2005
  394MOL0     C54260   0.667  11.356   4.997  0.6228  0.0695 -0.4500
  394MOL0     C54261   0.766  11.295   4.916  0.3356  0.1657  0.0130
  394MOL0     C54262   0.704  11.240   4.787  0.1046  0.9191  0.0138
  394MOL0     C54263   0.894  11.289   4.959 -0.7236 -0.8484 -0.6225
  394MOL0     C54264   0.996  11.232   4.876  0.5910 -0.3487 -0.3806
  394MOL0     O54265   0.988  11.235   4.745 -0.8686 -0.2157  0.4216
  394MOL0     C54266   1.061  11.147   4.674 -0.1576  0.4822 -0.3894
  394MOL0     C54267   1.031  11.011   4.670  0.7712 -0.2015 -1.0622
  394MOL0     C54268   1.117  10.927   4.613 -1.3718 -0.0954  0.2369
  394MOL0     C54269   1.236  10.971   4.547 -0.4018 -0.3616  0.0685
  394MOL0     O54270   1.321  10.878   4.491  0.2244 -0.1211 -0.3766
  394MOL0     C54271   1.397  10.914   4.375 -0.2844  0.3270 -0.4997
  394MOL0     C54272   1.429  10.777   4.302 -0.0375  0.5401  1.1599
  394MOL0     C54273   1.561  10.804   4.223  0.1339 -0.3237 -0.1308
  394MOL0     C54274   1.593  10.680   4.136  1.0597 -0.7432 -0.2824
  394MOL0     C54275   1.715  10.702   4.048  0.4397 -0.0840  0.3871
  394MOL0     C54276   1.754  10.564   3.988  0.0693 -1.1724 -0.6676
  394MOL0     C54277   1.870  10.585   3.890 -0.1982 -0.0443 -0.2603
  394MOL0     C54278   1.831  10.619   3.738 -0.7160  1.4093 -0.8148
  394MOL0    Cl54279   1.774  10.780   3.701 -0.0113  0.2360 -0.0563
  394MOL0     C54280   1.266  11.108   4.548 -0.4744 -0.5800  0.6079
  394MOL0     C54281   1.180  11.192   4.603  0.2849  0.0406  0.0432
  394MOL0     O54282   1.082  11.173   4.938  0.4572 -0.4910 -0.3992
  394MOL0     C54283   0.919  11.350   5.080 -0.0934 -0.5033  0.4426
  394MOL0     C54284   0.822  11.408   5.161 -0.1128 -1.1322 -0.2602
  394MOL0     N54285   0.491  11.776   4.892  0.3241  0.4684 -0.8407
  394MOL0     N54286   0.574  11.745   4.805 -0.0550  0.3535  0.7522
  394MOL0     C54287   1.658  11.313   4.427 -0.3923  0.0410  0.1359
  394MOL0     C54288   1.730  11.194   4.418 -0.1129  0.5284 -0.0471
  394MOL0     C54289   1.875  10.782   4.441 -0.1498  0.6952 -0.1474
  394MOL0     C54290   1.942  10.821   4.327 -0.9673 -0.9165 -0.2578
  394MOL0     C54291   2.015  10.737   4.255  0.5284  0.1968  0.1294
  394MOL0     C54292   2.020  10.600   4.279 -0.8461  0.1699  0.1166
  394MOL0     O54293   2.098  10.507   4.208  0.1107  0.2412 -0.0168
  394MOL0     C54294   2.194  10.547   4.115 -0.7997  0.2941 -0.0136
  394MOL0     C54295   2.260  10.421   4.045 -0.8272  0.5775  0.8685
  394MOL0     C54296   2.262  10.421   3.884 -0.0324  0.4181 -0.4258
  394MOL0     C54297   2.365  10.506   3.810  0.3907 -1.0141  0.5154
  394MOL0     C54298   2.356  10.486   3.666 -0.0009  0.3778 -0.6282
  394MOL0     C54299   2.343  10.437   3.557  0.5634  0.0030  0.3813
  394MOL0     C54300   1.945  10.559   4.390 -0.7141  0.2243 -0.2947
  394MOL0     C54301   1.873  10.642   4.478  0.9063 -0.4310 -0.1112
  394MOL0     C54302   1.794  10.583   4.598  0.7223 -0.6804  0.2377
  394MOL0     H54303   1.844  11.161   4.738 -0.3134  2.6510  1.5194
  394MOL0     H54304   1.709  11.374   4.757  0.5678 -0.2285 -0.9102
  394MOL0     H54305   1.450  11.477   4.441  0.2730  0.7481 -0.8140
  394MOL0     H54306   1.580  11.583   4.385 -1.9404  1.3090 -2.4560
  394MOL0     H54307   1.528  11.753   4.540 -0.0742  2.5930 -3.1548
  394MOL0     H54308   1.396  11.719   4.425 -0.7411 -1.4277 -0.2204
  394MOL0     H54309   1.397  11.643   4.720  1.2455 -2.2304 -1.6928
  394MOL0     H54310   1.331  11.790   4.654 -2.0071 -0.0108 -1.4529
  394MOL0     H54311   1.179  11.653   4.509  0.1871 -2.6084 -1.0771
  394MOL0     H54312   1.247  11.510   4.601  1.4068  0.8757 -0.1652
  394MOL0     H54313   1.095  11.768   4.705 -2.6124  1.0662  1.9808
  394MOL0     H54314   1.151  11.635   4.813  1.3670  0.8221 -1.1343
  394MOL0     H54315   0.959  11.603   4.580  0.5501  1.1017 -0.0877
  394MOL0     H54316   1.021  11.472   4.698 -0.0315 -1.0353 -1.1563
  394MOL0     H54317   0.896  11.555   4.873  3.6306  2.8187 -0.1131
  394MOL0     H54318   0.789  11.529   4.737  0.9077  0.5142 -1.2648
  394MOL0     H54319   0.901  11.795   4.833  0.1835  1.1206 -2.2075
  394MOL0     H54320   0.805  11.779   4.682 -2.0666 -1.0471 -0.3198
  394MOL0     H54321   0.773  11.748   5.056  0.8296 -1.9014 -0.1699
  394MOL0     H54322   0.422  11.880   5.127 -0.1246  0.2695  2.3522
  394MOL0     H54323   0.569  11.856   5.212 -1.3293  0.2710  1.7821
  394MOL0     H54324   0.320  11.746   5.249 -0.8196  0.4487 -1.6980
  394MOL0     H54325   0.369  11.614   5.147  0.6477 -0.4511  1.5760
  394MOL0     H54326   0.488  11.699   5.425  0.6094 -0.1124  1.2345
  394MOL0     H54327   0.397  11.557   5.391 -1.2374  1.1149  0.2764
  394MOL0     H54328   0.678  11.624   5.292 -0.4161  0.8234 -0.3956
  394MOL0     H54329   0.619  11.477   5.374  0.0597 -3.2889 -3.0959
  394MOL0     H54330   0.560  11.355   4.977  0.2664  4.4219  0.3721
  394MOL0     H54331   0.719  11.132   4.789  0.4490  0.9766  1.0470
  394MOL0     H54332   0.751  11.274   4.694 -3.0205  1.3231 -1.5245
  394MOL0     H54333   0.597  11.260   4.775 -0.1732  1.4854  2.8640
  394MOL0     H54334   0.955  10.964   4.732 -0.0765 -0.7715 -2.4742
  394MOL0     H54335   1.100  10.824   4.645 -1.7295  0.1870  0.9944
  394MOL0     H54336   1.339  10.979   4.309 -0.0528  0.8878 -0.1662
  394MOL0     H54337   1.488  10.955   4.421 -0.6402 -1.7670  2.3012
  394MOL0     H54338   1.438  10.695   4.374 -0.9293 -0.6525 -0.0316
  394MOL0     H54339   1.345  10.742   4.241  1.1716 -0.9686  0.2925
  394MOL0     H54340   1.647  10.822   4.288  1.8640  0.9262 -2.6132
  394MOL0     H54341   1.553  10.892   4.158 -2.1372  0.1278  0.6708
  394MOL0     H54342   1.507  10.664   4.070  0.8886 -1.2137  0.0537
  394MOL0     H54343   1.598  10.591   4.199  1.6897 -0.5736 -0.0856
  394MOL0     H54344   1.697  10.771   3.964  1.4621 -0.1506  0.1002
  394MOL0     H54345   1.801  10.736   4.105  0.7282  1.2830 -0.7988
  394MOL0     H54346   1.676  10.512   3.930  1.2647 -1.1103 -2.4216
  394MOL0     H54347   1.786  10.504   4.073  3.2948  2.7608  1.2066
  394MOL0     H54348   1.931  10.494   3.888 -2.6659 -1.8020 -1.4881
  394MOL0     H54349   1.934  10.667   3.923  2.2071 -2.3885  1.2974
  394MOL0     H54350   1.754  10.550   3.702  1.7372 -0.9680 -1.8595
  394MOL0     H54351   1.922  10.615   3.677  0.0362  3.4029  0.0615
  394MOL0     H54352   1.352  11.148   4.496 -2.3676  3.3905  0.1412
  394MOL0     H54353   1.208  11.296   4.619  0.8977 -0.4641  2.7937
  394MOL0     H54354   1.020  11.365   5.118  0.0215  1.4902 -0.4900
  394MOL0     H54355   0.859  11.442   5.257  0.3485 -2.5653  0.0905
  394MOL0     H54356   1.606  11.351   4.339 -3.1331  0.3696  1.7837
  394MOL0     H54357   1.730  11.145   4.322  0.1288  1.1926 -0.3939
  394MOL0     H54358   1.947  10.925   4.298 -1.6047 -1.4110 -2.2688
  394MOL0     H54359   2.074  10.765   4.168 -0.6224  0.4250 -0.5937
  394MOL0     H54360   2.144  10.602   4.035 -0.0070 -3.5354 -3.4821
  394MOL0     H54361   2.279  10.608   4.146  0.6305 -0.2629 -2.5611
  394MOL0     H54362   2.206  10.330   4.072  1.6412 -0.2143  3.6683
  394MOL0     H54363   2.363  10.399   4.073 -0.9972 -1.6510  0.0151
  394MOL0     H54364   2.261  10.316   3.854 -0.3155 -1.1124  4.1977
  394MOL0     H54365   2.164  10.465   3.861  0.3383  1.3627 -0.2465
  394MOL0     H54366   2.468  10.478   3.835  0.1375 -1.1417  1.4792
  394MOL0     H54367   2.345  10.612   3.826 -2.7475 -1.1776 -1.3343
  394MOL0     H54368   2.324  10.404   3.457 -1.6280 -2.2688  1.4341
  394MOL0     H54369   1.963  10.458   4.425  2.5492  0.8906  0.2553
  394MOL0     H54370   1.817  10.477   4.610 -1.3703 -1.1266  0.6883
  394MOL0     H54371   1.822  10.635   4.690  0.9190 -0.2728 -0.0508
  394MOL0     H54372   1.686  10.589   4.584  0.5757 -2.5292  0.3093
  395MOL0     O54373   2.452   3.108   7.559  0.3636  0.2181  0.0566
  395MOL0     C54374   2.484   2.994   7.597  0.6627 -0.5797 -0.0282
  395MOL0     O54375   2.436   2.947   7.725 -0.6961  0.1937 -0.1741
  395MOL0     C54376   2.333   3.006   7.789  0.6826 -0.6658 -0.0467
  395MOL0     C54377   2.324   3.144   7.818 -0.5356  0.4024 -0.1169
  395MOL0     C54378   2.227   3.195   7.906  0.3090  0.0420  0.8176
  395MOL0     C54379   2.127   3.108   7.951 -0.2610  0.5285 -0.6949
  395MOL0     O54380   2.017   3.161   8.011 -0.8810 -0.2347  0.1610
  395MOL0     C54381   2.016   3.292   8.071 -0.0854  0.6379 -0.3127
  395MOL0     C54382   2.119   3.304   8.192 -0.0839 -0.5946  1.3289
  395MOL0     C54383   2.076   3.238   8.325 -0.8390  1.0740  0.8574
  395MOL0     C54384   1.968   3.327   8.378  0.4137  0.1984 -0.0361
  395MOL0     C54385   1.897   3.255   8.493  1.2380 -0.2883 -0.5712
  395MOL0     C54386   1.779   3.327   8.551  0.0607  0.0452  0.6244
  395MOL0     C54387   1.719   3.225   8.651 -0.2954  0.2532  0.3236
  395MOL0     C54388   1.583   3.277   8.709 -0.1223 -0.4302 -0.2644
  395MOL0     N54389   1.596   3.388   8.804 -0.3984 -0.4721  0.5888
  395MOL0     C54390   1.558   3.519   8.783 -0.1602 -0.4238 -0.3537
  395MOL0     C54391   1.543   3.566   8.914  0.2608 -0.1463  0.9880
  395MOL0     C54392   1.523   3.711   8.940 -0.9010  0.3536  0.3452
  395MOL0     C54393   1.646   3.762   9.023  1.0631  0.0592  0.6589
  395MOL0     C54394   1.615   3.890   9.093  0.2937 -0.2945  1.0982
  395MOL0     C54395   1.739   3.947   9.161 -0.6770 -0.6806 -0.2079
  395MOL0     O54396   1.806   4.042   9.084  0.4616  1.3377  0.8290
  395MOL0     C54397   1.908   4.106   9.140 -1.1650 -0.1287  0.0095
  395MOL0     C54398   1.983   4.182   9.048  0.3951 -0.1679  0.2869
  395MOL0     C54399   2.093   4.263   9.080 -1.0081  0.1458  0.7432
  395MOL0     C54400   2.137   4.352   8.970 -0.2041 -0.1176 -0.3723
  395MOL0     C54401   2.149   4.253   9.205 -1.1630  0.0618 -0.1316
  395MOL0     C54402   2.288   4.309   9.249  1.0048  1.0688 -0.0414
  395MOL0     O54403   2.368   4.379   9.159  0.3170 -1.0505 -0.0047
  395MOL0     C54404   2.492   4.407   9.191  0.3921 -0.4151  0.1214
  395MOL0     C54405   2.533   4.538   9.205 -0.0891  0.0428  0.5315
  395MOL0     C54406   2.654   4.578   9.240 -0.1892 -0.8167 -0.2666
  395MOL0     C54407   2.754   4.482   9.247 -0.3408  0.9436  0.2969
  395MOL0     O54408   2.887   4.499   9.270 -0.6563  0.8319  0.7026
  395MOL0     C54409   2.950   4.618   9.235  0.1335 -0.5275 -0.3417
  395MOL0     C54410   3.021   4.675   9.362  0.5855  0.3017  0.8897
  395MOL0     C54411   2.911   4.744   9.442  0.6946  0.3125 -0.7496
  395MOL0     C54412   2.968   4.844   9.543  0.3505 -0.4626  0.0763
  395MOL0     C54413   2.888   4.863   9.680 -0.2772  0.1861  0.1414
  395MOL0     C54414   2.924   4.992   9.754  0.8371  0.4841  1.0928
  395MOL0     C54415   2.853   5.002   9.886 -1.0116  0.4686  0.1864
  395MOL0     C54416   2.699   4.983   9.884 -0.0333  0.4658 -0.5223
  395MOL0    Cl54417   2.615   5.048  10.040 -0.1863  0.2132 -0.4842
  395MOL0     C54418   2.727   4.350   9.222  0.0656  0.3099 -0.5654
  395MOL0     C54419   2.595   4.312   9.197 -0.5012 -0.6206  0.7825
  395MOL0     O54420   2.308   4.315   9.369  0.1621 -0.2125 -0.1322
  395MOL0     C54421   2.086   4.158   9.297 -0.7344  0.1095  0.1304
  395MOL0     C54422   1.961   4.097   9.275 -0.0945  0.7667  0.0644
  395MOL0     N54423   1.585   3.465   9.001 -0.4245  0.1590  0.6035
  395MOL0     N54424   1.614   3.357   8.942 -0.3979  0.8810  0.3726
  395MOL0     C54425   2.135   2.972   7.934 -0.4689 -0.0977  0.7175
  395MOL0     C54426   2.239   2.922   7.849  0.2730  0.2320  0.1903
  395MOL0     C54427   2.583   2.914   7.523  0.7098 -0.0207 -0.4417
  395MOL0     C54428   2.603   2.780   7.576 -0.1740  0.3299 -0.3060
  395MOL0     C54429   2.701   2.702   7.522  0.3617  0.2992  0.2065
  395MOL0     C54430   2.772   2.733   7.404  0.6706 -0.2386 -0.2835
  395MOL0     O54431   2.845   2.623   7.365 -0.1323 -1.2817 -0.1176
  395MOL0     C54432   2.946   2.664   7.269 -0.6631 -0.6951  0.2429
  395MOL0     C54433   3.028   2.539   7.243 -0.1613 -0.5057 -0.0683
  395MOL0     C54434   2.949   2.444   7.150  1.2340 -0.5263  0.6585
  395MOL0     C54435   3.029   2.351   7.067  0.0611 -0.9224 -0.1532
  395MOL0     C54436   3.110   2.259   7.138 -0.2474  0.7360  0.2315
  395MOL0     C54437   3.189   2.186   7.192  0.0502  0.4300 -0.4794
  395MOL0     C54438   2.753   2.858   7.347  0.0606 -0.9831  0.0946
  395MOL0     C54439   2.660   2.947   7.409  0.3778 -0.6997  0.1041
  395MOL0     C54440   2.655   3.085   7.346 -0.2545  0.7121 -0.1894
  395MOL0     H54441   2.405   3.213   7.796 -0.4739  0.5356  0.5007
  395MOL0     H54442   2.219   3.303   7.917 -1.4273  0.0771 -0.4217
  395MOL0     H54443   1.911   3.294   8.103 -0.5027 -3.2719 -0.9271
  395MOL0     H54444   2.027   3.374   7.999  1.3281  1.1933  0.4909
  395MOL0     H54445   2.220   3.270   8.167 -0.5443 -0.8861 -0.2322
  395MOL0     H54446   2.141   3.410   8.206 -1.3429 -0.2202  0.6245
  395MOL0     H54447   2.049   3.136   8.297  0.4840  1.5377 -2.5786
  395MOL0     H54448   2.162   3.226   8.391  1.0609  1.7429 -1.3585
  395MOL0     H54449   2.009   3.420   8.418 -2.3490  0.9762  1.2139
  395MOL0     H54450   1.895   3.359   8.303 -0.2130 -2.0600 -0.4699
  395MOL0     H54451   1.970   3.233   8.572  0.6397 -0.3736 -0.0348
  395MOL0     H54452   1.867   3.156   8.457 -1.6410 -0.5838  2.2481
  395MOL0     H54453   1.815   3.420   8.597  3.0789 -0.6084 -0.1895
  395MOL0     H54454   1.700   3.353   8.479  0.0076  1.6482  1.2097
  395MOL0     H54455   1.796   3.200   8.723 -0.4960  2.7587  1.5133
  395MOL0     H54456   1.681   3.135   8.602 -4.5584  0.0890  3.3471
  395MOL0     H54457   1.514   3.302   8.628 -2.1217 -3.9171  0.1804
  395MOL0     H54458   1.533   3.205   8.773 -1.3078  1.4073  0.9668
  395MOL0     H54459   1.539   3.575   8.692 -1.1605  1.0467  0.7198
  395MOL0     H54460   1.433   3.731   8.998 -0.4465  2.9181  0.2839
  395MOL0     H54461   1.514   3.775   8.852 -2.0868  1.6206  1.3544
  395MOL0     H54462   1.675   3.686   9.096  3.7241  1.5481  1.2843
  395MOL0     H54463   1.720   3.776   8.944 -1.4934  1.2487 -1.6913
  395MOL0     H54464   1.566   3.959   9.025 -0.8119 -2.9564 -0.9729
  395MOL0     H54465   1.545   3.866   9.174 -0.4925  1.4510  0.9681
  395MOL0     H54466   1.706   3.996   9.253 -2.1478 -0.0744 -1.0349
  395MOL0     H54467   1.795   3.858   9.193  0.6575  1.0545  2.6995
  395MOL0     H54468   1.940   4.177   8.948 -0.3516 -2.2622  0.6619
  395MOL0     H54469   2.081   4.331   8.879  1.3911 -0.9081 -1.2213
  395MOL0     H54470   2.241   4.336   8.940  0.5368  1.9084  0.8649
  395MOL0     H54471   2.138   4.457   9.003  1.3432 -0.1268 -0.3077
  395MOL0     H54472   2.452   4.609   9.197  0.1037  0.2609  0.4970
  395MOL0     H54473   2.673   4.684   9.256 -1.7321 -0.1287 -2.4350
  395MOL0     H54474   3.012   4.588   9.150 -0.9629 -0.2184 -1.2831
  395MOL0     H54475   2.887   4.699   9.197  0.4470  0.8521  1.9207
  395MOL0     H54476   3.072   4.590   9.408 -0.5778 -0.8960  0.0646
  395MOL0     H54477   3.090   4.750   9.322  1.4297 -1.1682 -0.5339
  395MOL0     H54478   2.857   4.668   9.499 -0.5783  0.8018 -1.2422
  395MOL0     H54479   2.836   4.792   9.378  0.0958  0.2645 -0.0936
  395MOL0     H54480   2.965   4.944   9.499 -1.4409 -0.2425  0.5991
  395MOL0     H54481   3.075   4.825   9.555  0.7850  2.1128  0.8894
  395MOL0     H54482   2.783   4.869   9.649  0.5454  1.5898 -2.8283
  395MOL0     H54483   2.900   4.775   9.744 -2.1633  0.1395  0.4813
  395MOL0     H54484   2.887   5.076   9.694  1.5796  0.8594  1.1415
  395MOL0     H54485   3.032   5.005   9.767  0.9462 -1.7136  2.8858
  395MOL0     H54486   2.877   5.101   9.927 -3.7929  0.1711  2.8649
  395MOL0     H54487   2.906   4.945   9.963  1.8362 -0.8608 -2.5105
  395MOL0     H54488   2.662   4.881   9.869 -1.0598  0.2220  2.9610
  395MOL0     H54489   2.664   5.053   9.807  0.3590  1.0031 -0.2167
  395MOL0     H54490   2.799   4.269   9.228  0.2091  0.4731  0.0066
  395MOL0     H54491   2.557   4.213   9.176 -1.5426 -0.5408  2.1784
  395MOL0     H54492   2.139   4.150   9.392 -1.0339  0.5662  0.3420
  395MOL0     H54493   1.916   4.038   9.354  2.5969 -2.1667 -0.4145
  395MOL0     H54494   2.064   2.906   7.983 -1.0715  0.0015 -0.0063
  395MOL0     H54495   2.245   2.813   7.846 -1.8286  0.0502  1.0358
  395MOL0     H54496   2.553   2.744   7.666  0.7266  0.8841  0.4440
  395MOL0     H54497   2.737   2.604   7.552 -0.0167  0.4679  1.2736
  395MOL0     H54498   2.911   2.697   7.171  1.9573 -2.7821 -1.5095
  395MOL0     H54499   3.016   2.733   7.317 -0.9494  1.1258 -1.8187
  395MOL0     H54500   3.064   2.483   7.330 -1.8094 -1.7092 -0.1114
  395MOL0     H54501   3.119   2.576   7.196 -0.1026  1.6236  1.5476
  395MOL0     H54502   2.889   2.377   7.212  0.5109 -0.5599 -0.0784
  395MOL0     H54503   2.886   2.505   7.085  3.1681  0.4915 -0.3855
  395MOL0     H54504   3.096   2.399   6.994  1.1803 -1.0991  0.7395
  395MOL0     H54505   2.954   2.294   7.011 -1.5899 -1.0312  2.0684
  395MOL0     H54506   3.246   2.114   7.246 -0.1197  0.8368  0.2524
  395MOL0     H54507   2.801   2.878   7.252  1.2765  5.6721  1.6533
  395MOL0     H54508   2.688   3.077   7.241  2.8712 -2.2829  0.8369
  395MOL0     H54509   2.553   3.125   7.345 -0.9693 -0.9192  1.4977
  395MOL0     H54510   2.730   3.157   7.380  1.7222 -1.2173 -0.2211
  396MOL0     O54511   9.548   9.754   0.295 -0.2423  0.7488 -0.1293
  396MOL0     C54512   9.653   9.728   0.241  1.0958  0.0581 -0.4666
  396MOL0     O54513   9.780   9.728   0.302  0.5990 -0.2470  0.1942
  396MOL0     C54514   9.792   9.773   0.431 -0.1695 -0.2000 -0.0654
  396MOL0     C54515   9.751   9.908   0.463 -0.2642  0.0916 -0.2602
  396MOL0     C54516   9.754   9.934   0.602  0.2431 -1.1424  0.0170
  396MOL0     C54517   9.792   9.838   0.692  0.0568  0.1244  0.7557
  396MOL0     O54518   9.759   9.872   0.819  0.0677  0.8930 -0.5293
  396MOL0     C54519   9.688   9.780   0.905 -0.4379 -0.1687 -0.0207
  396MOL0     C54520   9.654   9.854   1.040  1.0442 -0.4565  0.1059
  396MOL0     C54521   9.773   9.899   1.130 -0.1186  0.4793  0.4214
  396MOL0     C54522   9.722   9.968   1.258  0.0087 -0.5524  0.2849
  396MOL0     C54523   9.816   9.933   1.376  0.2029 -1.1437  0.0405
  396MOL0     C54524   9.764  10.008   1.510  1.1328  0.0275 -0.2656
  396MOL0     C54525   9.841   9.979   1.631  0.2773 -0.5827 -0.1662
  396MOL0     C54526   9.776  10.042   1.754  0.1747 -0.0583 -0.7959
  396MOL0     N54527   9.859  10.033   1.883  0.0132  0.6369  0.0617
  396MOL0     C54528   9.845  10.118   1.984  0.0825 -0.5092 -0.2800
  396MOL0     C54529   9.926  10.071   2.083 -0.6543 -0.4475  0.8321
  396MOL0     C54530   9.957  10.141   2.220 -0.3268 -0.1349 -0.0585
  396MOL0     C54531  10.111  10.167   2.238  0.6626 -0.4602  0.3773
  396MOL0     C54532  10.158  10.216   2.378 -0.5207  0.1890  0.3926
  396MOL0     C54533  10.276  10.133   2.439 -0.9762 -0.6393  0.8588
  396MOL0     O54534  10.400  10.178   2.387  0.1506 -0.4408 -0.3886
  396MOL0     C54535  10.514  10.119   2.437 -0.2008  0.2371  1.5323
  396MOL0     C54536  10.529  10.028   2.533  0.1620  0.8428  0.3043
  396MOL0     C54537  10.662   9.990   2.578  0.4242 -0.0467 -0.4586
  396MOL0     C54538  10.674   9.880   2.672 -0.7407  0.1955  0.4446
  396MOL0     C54539  10.772  10.048   2.510  0.4686 -0.2565  0.3033
  396MOL0     C54540  10.919  10.006   2.529  0.0803  0.4115  1.0967
  396MOL0     O54541  11.010  10.021   2.423  0.5286 -0.0419 -0.3091
  396MOL0     C54542  11.141   9.981   2.446  0.9420  0.4378 -0.0797
  396MOL0     C54543  11.177   9.853   2.419 -0.0436  0.2604 -0.4276
  396MOL0     C54544  11.311   9.814   2.432  0.2003  0.2266 -0.1755
  396MOL0     C54545  11.412   9.904   2.462  0.8856 -0.1085  0.1299
  396MOL0     O54546  11.534   9.848   2.452  0.5855 -0.6989 -0.1891
  396MOL0     C54547  11.658   9.928   2.461 -0.1371  0.1155  0.2325
  396MOL0     C54548  11.795   9.852   2.446  0.3730  0.0252  0.7425
  396MOL0     C54549  11.836   9.869   2.298  0.5355 -0.2849 -0.4706
  396MOL0     C54550  11.971   9.801   2.281  0.0731  0.1814 -0.5864
  396MOL0     C54551  12.009   9.795   2.129  0.1316 -0.8769 -1.5695
  396MOL0     C54552  12.162   9.767   2.118  0.0798 -0.0689  0.1687
  396MOL0     C54553  12.197   9.723   1.975  0.3737 -0.9679  0.1841
  396MOL0     C54554  12.141   9.587   1.942  0.0878 -0.2940  0.9398
  396MOL0    Cl54555  12.214   9.467   2.047 -0.3390  0.2370  0.5016
  396MOL0     C54556  11.368  10.040   2.487  0.5766  0.8425 -0.0254
  396MOL0     C54557  11.233  10.078   2.477  0.4319 -0.0488 -0.1368
  396MOL0     O54558  10.941   9.958   2.638 -0.1658  0.5864 -0.4689
  396MOL0     C54559  10.752  10.155   2.422 -0.2184 -0.6462 -0.4982
  396MOL0     C54560  10.629  10.183   2.384  1.3442  0.1789  0.2825
  396MOL0     N54561   9.991   9.958   2.037 -0.0774 -0.8740  0.1135
  396MOL0     N54562   9.947   9.935   1.919  0.3518 -0.5581  0.1746
  396MOL0     C54563   9.850   9.720   0.657  0.7061 -0.5468  0.0569
  396MOL0     C54564   9.853   9.690   0.524 -0.4165  0.8652 -0.3346
  396MOL0     C54565   9.661   9.689   0.099 -0.4247  0.4827 -0.7059
  396MOL0     C54566   9.788   9.692   0.035  0.2130  0.3129 -0.0668
  396MOL0     C54567   9.809   9.661  -0.095 -0.5687 -0.0302 -0.3513
  396MOL0     C54568   9.697   9.637  -0.172 -0.6867 -0.0391 -0.5800
  396MOL0     O54569   9.730   9.619  -0.306  0.1484  0.3729 -0.3279
  396MOL0     C54570   9.717   9.484  -0.348  0.7607 -0.1184 -0.0411
  396MOL0     C54571   9.854   9.422  -0.370 -0.4971  0.4374 -0.1672
  396MOL0     C54572   9.886   9.312  -0.267 -0.5950  0.7563 -0.1667
  396MOL0     C54573  10.031   9.246  -0.272 -0.2189  0.2286  0.0240
  396MOL0     C54574  10.136   9.357  -0.264  0.3053 -1.0518  1.1593
  396MOL0     C54575  10.217   9.449  -0.253 -0.2207 -0.2597  0.3304
  396MOL0     C54576   9.567   9.644  -0.116 -1.0076 -1.2050 -0.2960
  396MOL0     C54577   9.552   9.662   0.018 -0.6905 -0.5485 -0.0370
  396MOL0     C54578   9.415   9.639   0.068  1.3038 -1.2072  0.4296
  396MOL0     H54579   9.699   9.961   0.384 -0.0406  1.0309  0.2058
  396MOL0     H54580   9.721  10.030   0.640  1.8338  0.6787 -2.8548
  396MOL0     H54581   9.750   9.692   0.925 -0.1542 -0.1274 -0.6831
  396MOL0     H54582   9.601   9.747   0.848  0.8793 -2.5822 -0.7768
  396MOL0     H54583   9.591   9.938   1.008 -0.1136 -0.4889  2.1112
  396MOL0     H54584   9.583   9.799   1.102  0.6203 -1.2291 -1.0328
  396MOL0     H54585   9.832   9.809   1.150 -1.3068  0.0033  1.9789
  396MOL0     H54586   9.841   9.968   1.079  0.2963 -0.3618 -0.1831
  396MOL0     H54587   9.712  10.075   1.238 -2.5114 -0.9291 -0.8991
  396MOL0     H54588   9.623   9.930   1.287 -0.7022  0.3881 -0.8289
  396MOL0     H54589   9.918   9.961   1.346 -0.2988 -0.4485 -1.0892
  396MOL0     H54590   9.811   9.826   1.394  1.8411 -1.3034 -0.2640
  396MOL0     H54591   9.782  10.114   1.489  2.0549 -0.1268 -0.3017
  396MOL0     H54592   9.659   9.993   1.537  0.7543  1.4617 -0.8095
  396MOL0     H54593   9.945  10.008   1.611  0.1244 -2.3740 -4.7274
  396MOL0     H54594   9.837   9.872   1.652 -0.5048 -1.0557 -2.5020
  396MOL0     H54595   9.771  10.150   1.740  3.2827  0.3509  0.3757
  396MOL0     H54596   9.676  10.000   1.770 -1.0102  2.7043 -0.4248
  396MOL0     H54597   9.795  10.214   1.991  0.0502 -0.6607  2.7571
  396MOL0     H54598   9.927  10.079   2.305  0.8992 -1.7018 -0.7186
  396MOL0     H54599   9.902  10.235   2.231 -2.4297 -1.3467  0.2222
  396MOL0     H54600  10.165  10.072   2.227  2.4557  0.4031  1.2955
  396MOL0     H54601  10.141  10.241   2.164 -0.8563  0.0455  0.2470
  396MOL0     H54602  10.208  10.312   2.367  2.1641 -1.1097  0.2718
  396MOL0     H54603  10.075  10.217   2.449 -0.4062  2.7710  0.5835
  396MOL0     H54604  10.276  10.134   2.548 -0.7890 -3.4298  0.9555
  396MOL0     H54605  10.260  10.029   2.408  3.9080 -1.8369  1.6126
  396MOL0     H54606  10.449   9.979   2.587 -0.8891  1.9045 -0.2520
  396MOL0     H54607  10.579   9.831   2.692 -0.0652 -1.7212 -0.8559
  396MOL0     H54608  10.719   9.918   2.765  0.6889  2.6696 -1.1328
  396MOL0     H54609  10.745   9.807   2.633  2.2942  0.9687  3.8526
  396MOL0     H54610  11.107   9.782   2.377  1.6744 -1.7311 -0.0927
  396MOL0     H54611  11.339   9.710   2.414 -3.5900 -0.5659 -2.6618
  396MOL0     H54612  11.659  10.023   2.407  3.2302  2.0418  3.2367
  396MOL0     H54613  11.648   9.964   2.564 -2.0179  0.7690 -0.1518
  396MOL0     H54614  11.872   9.908   2.500  2.3207  0.2796 -2.0786
  396MOL0     H54615  11.791   9.747   2.476  1.0579 -0.8729 -2.0576
  396MOL0     H54616  11.859   9.974   2.282  1.1952 -0.1728  1.0929
  396MOL0     H54617  11.757   9.829   2.233 -0.2945 -2.0046  1.4647
  396MOL0     H54618  11.964   9.699   2.319  0.8334  0.2211 -0.3196
  396MOL0     H54619  12.045   9.853   2.344  0.4342 -1.9201  0.8227
  396MOL0     H54620  11.939   9.733   2.073 -2.9911  2.4719 -1.7499
  396MOL0     H54621  11.989   9.895   2.089  3.0608  1.1366  1.4788
  396MOL0     H54622  12.186   9.689   2.191 -0.6081 -0.2400  0.2225
  396MOL0     H54623  12.219   9.856   2.144 -0.3249  0.2446 -0.0054
  396MOL0     H54624  12.306   9.727   1.967  0.4449  1.1464  1.5268
  396MOL0     H54625  12.151   9.797   1.909 -2.7882 -0.7671  2.4108
  396MOL0     H54626  12.161   9.563   1.837 -1.7287  1.3477  0.1332
  396MOL0     H54627  12.033   9.583   1.958 -0.1438 -1.3199 -0.6272
  396MOL0     H54628  11.443  10.117   2.502  2.8099 -1.3287  0.6639
  396MOL0     H54629  11.199  10.180   2.490 -2.2147 -1.2148  3.8561
  396MOL0     H54630  10.841  10.208   2.390 -0.4311  1.1644  1.6430
  396MOL0     H54631  10.604  10.247   2.300  2.7085  0.0271 -0.2635
  396MOL0     H54632   9.893   9.659   0.736  4.7466  1.7289 -0.1522
  396MOL0     H54633   9.895   9.599   0.485 -0.7803 -0.3673  1.9835
  396MOL0     H54634   9.875   9.725   0.090 -1.0391  2.8856  0.5099
  396MOL0     H54635   9.909   9.658  -0.137 -0.5757  1.4526 -0.5324
  396MOL0     H54636   9.658   9.423  -0.279  1.2284 -0.9397 -0.3554
  396MOL0     H54637   9.666   9.476  -0.445  2.9849 -1.0296 -1.2054
  396MOL0     H54638   9.933   9.496  -0.379  1.9846 -1.7825  1.7372
  396MOL0     H54639   9.839   9.374  -0.467 -1.4754  1.4280 -0.5200
  396MOL0     H54640   9.877   9.365  -0.172 -1.4557 -0.7748  0.6491
  396MOL0     H54641   9.810   9.233  -0.267  2.1874 -2.1228  0.6250
  396MOL0     H54642  10.051   9.202  -0.370  0.5023  0.8168 -0.1045
  396MOL0     H54643  10.040   9.170  -0.194  2.7972 -0.2096 -0.6276
  396MOL0     H54644  10.278   9.534  -0.232  0.7597 -1.0744  0.8832
  396MOL0     H54645   9.485   9.623  -0.183 -0.4245  2.7643 -2.5313
  396MOL0     H54646   9.365   9.733   0.096  0.3264 -1.6342  0.1715
  396MOL0     H54647   9.354   9.591  -0.009 -1.3705  1.0995  0.9363
  396MOL0     H54648   9.418   9.576   0.158 -1.0932 -1.7790  0.1759
  397MOL0     O54649  10.549   6.263   9.222  0.2482  0.1733 -0.6685
  397MOL0     C54650  10.535   6.378   9.183  1.1634 -0.0466 -0.0634
  397MOL0     O54651  10.619   6.482   9.202 -0.7284  0.8617 -0.2046
  397MOL0     C54652  10.755   6.458   9.217  0.4716  0.8352 -1.0050
  397MOL0     C54653  10.837   6.566   9.190  0.0479  0.0617  0.2307
  397MOL0     C54654  10.976   6.550   9.204  0.1973 -0.1050  0.3702
  397MOL0     C54655  11.033   6.430   9.245  1.5200  0.3182 -0.1678
  397MOL0     O54656  11.163   6.436   9.266 -0.8196  0.8328 -0.6722
  397MOL0     C54657  11.238   6.316   9.253 -0.6330  0.1897  0.6391
  397MOL0     C54658  11.381   6.350   9.203 -0.4840  0.6182  0.6784
  397MOL0     C54659  11.497   6.325   9.299 -0.3831 -0.2823 -0.2825
  397MOL0     C54660  11.628   6.377   9.243  0.0408 -0.5243 -0.4991
  397MOL0     C54661  11.747   6.333   9.325  0.1846 -0.6861  0.5871
  397MOL0     C54662  11.889   6.366   9.260 -0.5836  0.0282 -0.1935
  397MOL0     C54663  11.920   6.278   9.133  0.8575 -0.8459 -0.0250
  397MOL0     C54664  12.039   6.328   9.057  0.1521  0.6534 -0.0049
  397MOL0     N54665  12.052   6.250   8.939  0.0823  0.1190  0.0163
  397MOL0     C54666  12.105   6.127   8.937 -0.0918 -0.4564 -0.4856
  397MOL0     C54667  12.110   6.083   8.810 -0.0937 -0.8007  0.3651
  397MOL0     C54668  12.181   5.960   8.770  0.4731  0.0392  0.3407
  397MOL0     C54669  12.278   5.900   8.870  0.0514  0.2149  0.5729
  397MOL0     C54670  12.399   5.839   8.791  0.3390 -0.5680  0.3998
  397MOL0     C54671  12.497   5.781   8.893  0.5294  0.1673  0.1375
  397MOL0     O54672  12.591   5.867   8.962 -0.5662 -0.6408 -0.2732
  397MOL0     C54673  12.687   5.937   8.887  0.0074  0.3869 -1.3700
  397MOL0     C54674  12.724   6.055   8.944  0.0907 -0.1537  0.1785
  397MOL0     C54675  12.818   6.140   8.885 -0.0680  0.6613  0.1364
  397MOL0     C54676  12.850   6.267   8.964  0.6732 -0.4634  1.2954
  397MOL0     C54677  12.861   6.108   8.753 -0.5486 -0.7151  0.0913
  397MOL0     C54678  12.957   6.193   8.677  0.1631 -0.2148 -0.3058
  397MOL0     O54679  13.031   6.131   8.574  1.2225  0.0372 -0.5159
  397MOL0     C54680  13.140   6.185   8.525 -0.5934 -0.1320 -0.5426
  397MOL0     C54681  13.138   6.308   8.452 -0.3478 -0.0849 -0.0756
  397MOL0     C54682  13.255   6.351   8.386  0.1831  0.0261 -0.0115
  397MOL0     C54683  13.377   6.293   8.407 -0.5787  0.3930 -0.2888
  397MOL0     O54684  13.485   6.347   8.341 -0.3365  0.2632 -0.0435
  397MOL0     C54685  13.614   6.285   8.353  0.2098 -0.1449  0.2834
  397MOL0     C54686  13.712   6.386   8.305 -0.4910 -0.0124  0.0375
  397MOL0     C54687  13.861   6.330   8.315  0.0944 -0.0167  0.1746
  397MOL0     C54688  13.910   6.240   8.199  0.7724 -0.4310  1.2754
  397MOL0     C54689  13.898   6.093   8.243  0.4217 -0.9842  0.5369
  397MOL0     C54690  13.968   5.990   8.159 -0.0871 -0.8373  0.3406
  397MOL0     C54691  13.954   5.846   8.220 -0.3331  0.3864  0.3394
  397MOL0     C54692  14.053   5.741   8.159 -0.0130 -0.1565 -0.0312
  397MOL0    Cl54693  14.225   5.789   8.172 -0.0342  0.0720 -0.2911
  397MOL0     C54694  13.379   6.164   8.473  0.9141  0.4007 -0.3077
  397MOL0     C54695  13.253   6.108   8.527  0.4989 -0.3302  0.3993
  397MOL0     O54696  12.988   6.306   8.720  0.6572 -0.2947  0.0572
  397MOL0     C54697  12.808   5.994   8.687 -0.4676  0.3161 -0.5034
  397MOL0     C54698  12.731   5.901   8.763 -0.0149  0.0579  0.4745
  397MOL0     N54699  12.050   6.177   8.734 -0.1501 -0.8613 -0.0519
  397MOL0     N54700  12.012   6.276   8.815  1.0627 -0.3536  0.7865
  397MOL0     C54701  10.950   6.329   9.294  0.0392 -0.4422  0.8221
  397MOL0     C54702  10.811   6.338   9.277 -0.2562  0.4022  0.4246
  397MOL0     C54703  10.398   6.416   9.133 -0.2827 -0.5882 -0.8489
  397MOL0     C54704  10.344   6.544   9.163 -0.0239  1.0149  0.4794
  397MOL0     C54705  10.213   6.571   9.134 -0.3827  0.6951  0.0244
  397MOL0     C54706  10.122   6.483   9.078 -0.2378 -0.2148  0.4818
  397MOL0     O54707   9.998   6.533   9.029  0.1036 -0.4668  0.2329
  397MOL0     C54708   9.907   6.450   8.958 -0.4887  0.3730 -0.1051
  397MOL0     C54709   9.766   6.516   8.958 -0.6295  1.0635 -0.4997
  397MOL0     C54710   9.696   6.503   9.101 -0.4831 -0.5878 -0.4884
  397MOL0     C54711   9.547   6.546   9.080 -0.2360  0.9366 -0.3885
  397MOL0     C54712   9.458   6.427   9.031 -0.2917 -0.3088 -0.9590
  397MOL0     C54713   9.382   6.333   9.016  0.5321 -0.1794  0.6251
  397MOL0     C54714  10.185   6.350   9.054 -0.3167 -0.1329  0.2109
  397MOL0     C54715  10.319   6.320   9.076 -0.3778 -0.6885  0.5561
  397MOL0     C54716  10.369   6.190   9.018 -0.1864 -0.3195 -0.3608
  397MOL0     H54717  10.810   6.658   9.140  2.1421 -1.6697 -4.6892
  397MOL0     H54718  11.054   6.621   9.182  1.4585 -0.9022  2.0127
  397MOL0     H54719  11.190   6.262   9.171  1.0299  0.6741 -0.6953
  397MOL0     H54720  11.246   6.256   9.344  0.9198  0.1514  0.4958
  397MOL0     H54721  11.404   6.296   9.111  0.8537 -0.0766  1.3934
  397MOL0     H54722  11.387   6.455   9.175 -1.1989  1.4356  3.2296
  397MOL0     H54723  11.484   6.373   9.396  2.5543  1.2478 -0.5405
  397MOL0     H54724  11.517   6.218   9.309  1.3744 -0.4189 -3.8649
  397MOL0     H54725  11.638   6.339   9.140 -3.4537  0.8912 -1.5188
  397MOL0     H54726  11.625   6.486   9.236  1.2709 -0.4312  0.2404
  397MOL0     H54727  11.744   6.226   9.346 -0.2945 -0.4684  1.7065
  397MOL0     H54728  11.740   6.383   9.422 -1.2021 -2.1634  1.3028
  397MOL0     H54729  11.905   6.471   9.232  2.0811 -0.8516 -2.5000
  397MOL0     H54730  11.963   6.341   9.337  1.9214 -2.9873 -3.2715
  397MOL0     H54731  11.833   6.287   9.066 -0.0618 -1.9523  0.9637
  397MOL0     H54732  11.920   6.170   9.151 -1.9315 -1.1613 -1.2402
  397MOL0     H54733  12.026   6.435   9.036  0.8738  0.4617 -1.5435
  397MOL0     H54734  12.126   6.312   9.121 -0.0099 -0.0997  0.0348
  397MOL0     H54735  12.150   6.078   9.023 -1.1950 -1.5533 -0.4950
  397MOL0     H54736  12.229   5.986   8.676 -2.8655  3.0921 -0.7535
  397MOL0     H54737  12.102   5.886   8.757 -0.8225  1.2344  1.1009
  397MOL0     H54738  12.318   5.979   8.935 -0.1477 -0.1992  1.2019
  397MOL0     H54739  12.240   5.817   8.929  0.6717 -2.5161 -2.5874
  397MOL0     H54740  12.361   5.764   8.722 -0.6918  0.0098  0.3147
  397MOL0     H54741  12.444   5.920   8.732  3.0259 -2.2414 -0.0354
  397MOL0     H54742  12.445   5.718   8.965 -0.3681 -1.6216 -1.9479
  397MOL0     H54743  12.552   5.706   8.836  0.4825  0.5446 -0.4118
  397MOL0     H54744  12.672   6.072   9.037 -2.1047  1.5250 -1.2536
  397MOL0     H54745  12.820   6.267   9.069  0.6665  2.1745  1.3673
  397MOL0     H54746  12.794   6.351   8.920 -0.6792 -1.7166  0.5236
  397MOL0     H54747  12.956   6.291   8.963  0.6516 -0.3605  1.4033
  397MOL0     H54748  13.049   6.370   8.449 -0.2697  0.3560  3.1980
  397MOL0     H54749  13.253   6.442   8.326  1.8234  1.4813  1.9800
  397MOL0     H54750  13.632   6.258   8.457  1.9521 -2.6535 -0.5876
  397MOL0     H54751  13.618   6.188   8.303  1.3648 -0.1811  0.4071
  397MOL0     H54752  13.690   6.413   8.202 -2.4437 -0.6740  0.2336
  397MOL0     H54753  13.722   6.474   8.369 -1.4918 -0.4799  0.8793
  397MOL0     H54754  13.881   6.280   8.410 -1.5480  2.1069  1.7551
  397MOL0     H54755  13.927   6.417   8.321 -0.0297  0.3643 -2.6845
  397MOL0     H54756  14.017   6.263   8.188  0.5963 -0.4269 -0.7724
  397MOL0     H54757  13.860   6.267   8.106  2.7874 -0.8144  0.0185
  397MOL0     H54758  13.932   6.084   8.347 -0.7112 -1.5935  0.8687
  397MOL0     H54759  13.792   6.068   8.237 -0.0472  1.1523 -1.3446
  397MOL0     H54760  14.076   6.004   8.154 -0.2080  0.4836  1.0320
  397MOL0     H54761  13.930   5.984   8.057 -0.9193  1.0855  0.4788
  397MOL0     H54762  13.852   5.810   8.207 -0.1732 -0.0598  0.2963
  397MOL0     H54763  13.969   5.863   8.326  0.9734 -1.4933  0.5129
  397MOL0     H54764  14.029   5.741   8.053 -0.6732  2.8172  0.0406
  397MOL0     H54765  14.048   5.644   8.211 -0.3845 -1.1874 -1.9241
  397MOL0     H54766  13.472   6.111   8.491 -0.0763 -0.4870  2.7700
  397MOL0     H54767  13.245   6.005   8.562  0.4177 -0.1672  0.8706
  397MOL0     H54768  12.831   5.968   8.584  0.4148  2.1678 -0.8094
  397MOL0     H54769  12.689   5.821   8.704 -1.7639  1.2325  0.0469
  397MOL0     H54770  10.983   6.233   9.333  0.4923  0.2443  2.1803
  397MOL0     H54771  10.742   6.265   9.317  2.7662 -4.6611 -2.5612
  397MOL0     H54772  10.405   6.625   9.201  1.3762 -0.3263  1.2049
  397MOL0     H54773  10.169   6.664   9.170  1.2050  0.6028  2.3628
  397MOL0     H54774   9.933   6.428   8.854 -1.4198  2.1693 -0.7487
  397MOL0     H54775   9.904   6.353   9.009  3.6780 -0.9808 -1.9358
  397MOL0     H54776   9.714   6.457   8.882 -0.6024  0.7608 -0.2860
  397MOL0     H54777   9.764   6.622   8.933 -1.0213  1.1578 -0.0811
  397MOL0     H54778   9.690   6.403   9.144  2.2556  0.2265  2.1036
  397MOL0     H54779   9.740   6.571   9.175  1.7113  0.1224 -2.3398
  397MOL0     H54780   9.534   6.635   9.018  0.4782  0.3346 -1.4303
  397MOL0     H54781   9.505   6.575   9.176  0.8050  0.6261  0.1772
  397MOL0     H54782   9.318   6.248   9.015  0.5794 -0.2472  1.6554
  397MOL0     H54783  10.128   6.276   8.998 -2.8764  3.4847 -2.4219
  397MOL0     H54784  10.302   6.172   8.933 -2.6538  1.7800  0.9918
  397MOL0     H54785  10.468   6.211   8.976  1.2568 -0.7567  2.5633
  397MOL0     H54786  10.373   6.116   9.099 -0.8176 -0.3688 -0.3709
  398MOL0     O54787   8.280   1.257   1.985 -0.2726  0.1182 -0.1962
  398MOL0     C54788   8.241   1.166   1.915  0.1079 -0.4608  0.2654
  398MOL0     O54789   8.295   1.131   1.799 -0.5846 -0.2493  0.5872
  398MOL0     C54790   8.404   1.196   1.745 -0.1479  0.1865 -0.4235
  398MOL0     C54791   8.392   1.286   1.640 -0.4739  0.1422 -0.4249
  398MOL0     C54792   8.502   1.353   1.581 -0.1479  0.6634 -0.2209
  398MOL0     C54793   8.625   1.323   1.629 -0.0408 -0.0652 -0.4620
  398MOL0     O54794   8.728   1.383   1.566 -0.0419  0.1869  0.1616
  398MOL0     C54795   8.802   1.304   1.473 -0.5587  0.0646  0.3236
  398MOL0     C54796   8.800   1.337   1.320  0.5624 -0.1874 -0.6298
  398MOL0     C54797   8.856   1.477   1.310  0.1869  1.1274  0.6695
  398MOL0     C54798   8.886   1.510   1.166  0.1684  0.2464 -0.3747
  398MOL0     C54799   8.941   1.652   1.177 -0.1775  0.8945 -0.4446
  398MOL0     C54800   9.003   1.681   1.042  0.3528  0.6869  0.9515
  398MOL0     C54801   9.096   1.800   1.050 -0.3405 -0.5639  0.0742
  398MOL0     C54802   9.239   1.755   1.083  0.3422 -0.2585 -0.8434
  398MOL0     N54803   9.323   1.873   1.105 -0.2429 -0.6374  0.1543
  398MOL0     C54804   9.376   1.937   1.000 -0.0939 -0.0388  0.3855
  398MOL0     C54805   9.448   2.041   1.059  0.0173 -0.5274  0.4340
  398MOL0     C54806   9.525   2.148   0.998 -1.5104  0.2128  0.2126
  398MOL0     C54807   9.491   2.299   1.039 -0.3987  0.2892  0.5762
  398MOL0     C54808   9.578   2.388   0.941 -0.1512  0.1364  0.5334
  398MOL0     C54809   9.592   2.532   0.993 -0.1153  0.7067  0.2722
  398MOL0     O54810   9.698   2.546   1.102  0.0254  0.5508 -0.2509
  398MOL0     C54811   9.712   2.679   1.155 -0.6027 -0.5325 -0.2899
  398MOL0     C54812   9.782   2.689   1.276 -0.3311  0.2791  0.0085
  398MOL0     C54813   9.798   2.807   1.346 -0.0389  0.4318  0.0402
  398MOL0     C54814   9.853   2.786   1.485 -0.0272 -0.6048  0.0140
  398MOL0     C54815   9.768   2.932   1.278 -0.1696 -0.1291  0.1063
  398MOL0     C54816   9.814   3.062   1.327  0.3171 -0.5228 -0.2277
  398MOL0     O54817   9.758   3.178   1.269 -0.4623 -0.4573 -0.0833
  398MOL0     C54818   9.806   3.300   1.313  0.2410  0.6600 -0.2127
  398MOL0     C54819   9.934   3.350   1.273  0.4917 -0.2536  0.4811
  398MOL0     C54820   9.969   3.481   1.313 -0.4969  0.0787  0.5021
  398MOL0     C54821   9.875   3.562   1.381 -0.8706 -0.7068  0.7537
  398MOL0     O54822   9.897   3.694   1.405 -0.2300  0.3954 -0.6883
  398MOL0     C54823   9.999   3.763   1.335  0.0695 -0.4563  0.3349
  398MOL0     C54824   9.980   3.921   1.354  0.0375 -0.2411  0.2691
  398MOL0     C54825  10.074   4.004   1.269 -0.0267  0.1103  1.1808
  398MOL0     C54826  10.215   3.984   1.312 -0.4167 -0.1892  0.9061
  398MOL0     C54827  10.315   4.052   1.214 -0.6728  0.3360 -0.3420
  398MOL0     C54828  10.359   3.960   1.106 -0.0078  0.9764  0.1460
  398MOL0     C54829  10.477   4.010   1.013  0.0476  0.8330 -0.5833
  398MOL0     C54830  10.572   3.894   0.989 -0.3787 -0.3401  0.3135
  398MOL0    Cl54831  10.708   3.958   0.885  0.0348 -0.1941  0.3026
  398MOL0     C54832   9.754   3.514   1.418 -0.1844  0.4754 -0.6368
  398MOL0     C54833   9.720   3.387   1.383  0.6768  0.1848 -0.2316
  398MOL0     O54834   9.907   3.061   1.411  0.1388 -0.2687 -0.3962
  398MOL0     C54835   9.689   2.922   1.162  0.5894 -0.3314 -0.2825
  398MOL0     C54836   9.651   2.798   1.107 -0.3507  0.0338 -0.2379
  398MOL0     N54837   9.430   2.028   1.194  0.1355 -1.2847  0.5325
  398MOL0     N54838   9.346   1.933   1.222  0.0915 -0.6033 -0.5296
  398MOL0     C54839   8.642   1.235   1.744 -0.5081 -0.7380  1.0741
  398MOL0     C54840   8.534   1.175   1.795  0.5302  0.0738 -0.5793
  398MOL0     C54841   8.124   1.086   1.959  0.6758 -0.5106 -0.4401
  398MOL0     C54842   8.074   0.981   1.878 -0.4679  0.0748  1.0328
  398MOL0     C54843   7.972   0.896   1.916 -0.1697  0.0252 -0.2620
  398MOL0     C54844   7.916   0.910   2.043  0.1498 -0.4402  0.7429
  398MOL0     O54845   7.803   0.843   2.086 -1.0663  0.3264  0.4535
  398MOL0     C54846   7.746   0.760   1.989  0.1861 -0.1507  0.1854
  398MOL0     C54847   7.643   0.679   2.063 -0.4613 -0.2669  0.1505
  398MOL0     C54848   7.704   0.577   2.163 -0.1795  0.1442 -0.0081
  398MOL0     C54849   7.740   0.454   2.086 -1.0943 -0.2166  0.0218
  398MOL0     C54850   7.853   0.382   2.143 -0.2160 -0.3933 -0.7583
  398MOL0     C54851   7.959   0.336   2.188 -0.1551 -0.4931  0.0311
  398MOL0     C54852   7.964   1.008   2.128 -0.0350 -0.3836  0.0616
  398MOL0     C54853   8.062   1.103   2.090  0.0112 -0.1185 -0.5745
  398MOL0     C54854   8.106   1.216   2.189 -0.6156 -0.5688  0.3797
  398MOL0     H54855   8.288   1.306   1.616 -1.4080 -4.7756 -1.5265
  398MOL0     H54856   8.478   1.422   1.500  1.2987  0.2877 -0.9994
  398MOL0     H54857   8.766   1.202   1.486 -1.3501  0.3692  0.5513
  398MOL0     H54858   8.901   1.316   1.518 -1.4819  1.2016  2.1475
  398MOL0     H54859   8.861   1.259   1.273 -1.0294 -4.1999  3.2926
  398MOL0     H54860   8.698   1.341   1.280  0.8704  0.0748 -1.3970
  398MOL0     H54861   8.783   1.543   1.357 -0.9744  0.8040 -0.6340
  398MOL0     H54862   8.950   1.476   1.366 -1.1525 -1.9988  3.1935
  398MOL0     H54863   8.952   1.434   1.123 -0.0673  0.6903 -1.5641
  398MOL0     H54864   8.789   1.512   1.116 -0.4491  3.1379  0.7224
  398MOL0     H54865   9.017   1.654   1.255 -0.5491 -1.3007  0.0267
  398MOL0     H54866   8.869   1.724   1.219  1.3812  1.8944  0.6228
  398MOL0     H54867   9.061   1.591   1.018 -0.9360 -0.9173  3.4795
  398MOL0     H54868   8.927   1.694   0.965 -0.5213  0.7333  1.8071
  398MOL0     H54869   9.061   1.870   1.126 -1.1538 -0.4905 -0.3606
  398MOL0     H54870   9.092   1.848   0.952 -0.8392  0.1257  0.4222
  398MOL0     H54871   9.229   1.708   1.182 -3.9568  1.1849 -0.4067
  398MOL0     H54872   9.282   1.685   1.011  1.9961 -0.5013  0.3059
  398MOL0     H54873   9.377   1.903   0.897  1.2939 -1.5896  0.8637
  398MOL0     H54874   9.527   2.144   0.888 -0.4968  1.3443  0.1706
  398MOL0     H54875   9.630   2.133   1.024 -0.4990  2.9670 -1.7909
  398MOL0     H54876   9.388   2.320   1.010 -0.1039  4.9026  2.0430
  398MOL0     H54877   9.511   2.310   1.146 -0.4333  0.0909  0.6033
  398MOL0     H54878   9.676   2.345   0.918  0.4472  0.4516  2.2962
  398MOL0     H54879   9.513   2.390   0.853 -0.1504 -2.1898  0.4216
  398MOL0     H54880   9.618   2.598   0.909  1.8875  0.2058  0.4710
  398MOL0     H54881   9.492   2.567   1.022  0.0399  3.3106 -1.9330
  398MOL0     H54882   9.814   2.598   1.324  0.9279 -0.4033 -1.9806
  398MOL0     H54883   9.790   2.840   1.557 -3.5573  0.8218 -3.7800
  398MOL0     H54884   9.950   2.836   1.501 -1.1014  1.9211 -0.8442
  398MOL0     H54885   9.857   2.680   1.512  0.8850 -1.5720 -3.4068
  398MOL0     H54886  10.008   3.290   1.222  2.6944  0.9504  2.0682
  398MOL0     H54887  10.069   3.518   1.290 -1.3557  0.7146 -2.7318
  398MOL0     H54888  10.094   3.738   1.382  0.1578  0.3879  0.6352
  398MOL0     H54889  10.004   3.744   1.228  1.3743 -0.2890  0.3520
  398MOL0     H54890   9.877   3.940   1.321 -0.3826  2.6496  2.8351
  398MOL0     H54891   9.989   3.960   1.456 -0.8930 -2.5932  1.3301
  398MOL0     H54892  10.047   4.110   1.272  2.2025  0.7751  0.2266
  398MOL0     H54893  10.075   3.965   1.167 -0.8047  1.1255  0.7590
  398MOL0     H54894  10.250   3.882   1.329  3.0799  0.1134 -2.8348
  398MOL0     H54895  10.230   4.028   1.411  0.9142  1.6449 -0.0377
  398MOL0     H54896  10.266   4.138   1.167  1.4282  2.6771  1.5238
  398MOL0     H54897  10.403   4.092   1.265  0.2391  2.6454 -3.4251
  398MOL0     H54898  10.271   3.945   1.042 -1.0511  0.3553  1.6582
  398MOL0     H54899  10.387   3.864   1.150  1.2515  2.1354  2.0003
  398MOL0     H54900  10.525   4.101   1.051  2.2083  0.0563 -1.2711
  398MOL0     H54901  10.441   4.032   0.912  0.5285 -0.4626 -1.0577
  398MOL0     H54902  10.517   3.817   0.933 -0.6331 -0.1452  0.2959
  398MOL0     H54903  10.614   3.860   1.084  1.8968  2.5835  0.5023
  398MOL0     H54904   9.688   3.584   1.468 -1.4920 -0.6410 -0.7530
  398MOL0     H54905   9.630   3.345   1.427  0.0150  1.7570 -0.0409
  398MOL0     H54906   9.651   3.010   1.110  1.8290  1.1746  1.2562
  398MOL0     H54907   9.582   2.791   1.023 -0.3701  0.5765 -0.2713
  398MOL0     H54908   8.746   1.229   1.775 -0.0170  4.3265  1.3639
  398MOL0     H54909   8.552   1.104   1.874  2.4137  2.7206  1.5267
  398MOL0     H54910   8.105   0.961   1.776 -2.2831  2.4739 -0.0992
  398MOL0     H54911   7.934   0.831   1.837 -1.5727 -0.1656  0.5505
  398MOL0     H54912   7.685   0.815   1.917 -0.0625 -2.5513 -1.5811
  398MOL0     H54913   7.813   0.694   1.933 -2.2856  0.4155 -3.8440
  398MOL0     H54914   7.581   0.620   1.995 -1.9855  1.3491  0.0821
  398MOL0     H54915   7.578   0.755   2.107  3.5745  3.5077  0.3406
  398MOL0     H54916   7.800   0.605   2.208  0.0275  0.6105 -0.7190
  398MOL0     H54917   7.631   0.558   2.242 -1.4978  1.3194 -0.9017
  398MOL0     H54918   7.766   0.483   1.984 -0.9926 -0.3340  0.0141
  398MOL0     H54919   7.664   0.375   2.083 -1.9382  0.5810 -0.2195
  398MOL0     H54920   8.060   0.302   2.199  1.3310  2.7625 -1.8969
  398MOL0     H54921   7.923   1.022   2.227  2.3571  2.2030  0.8300
  398MOL0     H54922   8.051   1.199   2.282  2.1078  1.0916  2.4413
  398MOL0     H54923   8.211   1.192   2.207 -1.1162 -5.1339 -1.3987
  398MOL0     H54924   8.076   1.319   2.170  0.7833  0.4952  3.3035
  399MOL0     O54925   4.155   5.915   9.947 -0.7056 -0.5891 -0.2320
  399MOL0     C54926   4.186   5.802   9.904 -0.4105  0.0083 -0.2426
  399MOL0     O54927   4.301   5.741   9.942  1.3187  1.0721  0.3432
  399MOL0     C54928   4.385   5.784  10.039  0.0983 -0.6211 -0.0809
  399MOL0     C54929   4.378   5.734  10.169 -0.5197 -0.5634  0.1527
  399MOL0     C54930   4.452   5.791  10.269 -0.0441  0.1212 -0.6149
  399MOL0     C54931   4.556   5.883  10.239 -0.8287 -0.7058  0.7402
  399MOL0     O54932   4.643   5.917  10.333  0.6666  0.5347 -0.1045
  399MOL0     C54933   4.781   5.915  10.302 -0.3607 -0.7089 -0.4719
  399MOL0     C54934   4.832   5.772  10.292 -0.4913 -0.4288  0.1363
  399MOL0     C54935   4.976   5.759  10.325 -0.3104  0.5152  0.0015
  399MOL0     C54936   5.033   5.625  10.285 -0.2820  0.2621  0.8004
  399MOL0     C54937   5.185   5.615  10.323  0.6162 -0.3869  0.4405
  399MOL0     C54938   5.276   5.679  10.213 -0.1998 -1.0004 -0.8706
  399MOL0     C54939   5.388   5.755  10.282 -0.7597 -0.0320  0.3815
  399MOL0     C54940   5.469   5.810  10.160 -0.4816  0.2479 -0.6530
  399MOL0     N54941   5.615   5.826  10.199  0.4765 -0.7076  0.2863
  399MOL0     C54942   5.661   5.895  10.311  0.2789 -1.4473  0.2318
  399MOL0     C54943   5.795   5.891  10.308 -0.5976  0.4134  0.2040
  399MOL0     C54944   5.889   5.958  10.406  1.0244  0.4889  0.2686
  399MOL0     C54945   5.993   5.882  10.485 -0.1363 -0.4921  0.2263
  399MOL0     C54946   6.094   5.807  10.400  0.1959  0.4647  0.3666
  399MOL0     C54947   6.173   5.903  10.305  1.1196  0.0830 -0.8728
  399MOL0     O54948   6.305   5.856  10.273  0.1005  0.1064 -0.5109
  399MOL0     C54949   6.330   5.778  10.165 -1.1560 -0.1197  0.3604
  399MOL0     C54950   6.469   5.764  10.133 -0.7626 -0.3876 -0.9758
  399MOL0     C54951   6.513   5.708  10.013 -0.4346  0.5461 -0.5908
  399MOL0     C54952   6.655   5.712   9.991  0.2119 -0.5981 -0.7218
  399MOL0     C54953   6.417   5.646   9.932  0.0569  0.3370 -0.3805
  399MOL0     C54954   6.472   5.581   9.811  0.9673  0.9926  0.5442
  399MOL0     O54955   6.565   5.495   9.842 -0.1718  0.6435  0.5413
  399MOL0     C54956   6.615   5.421   9.734 -0.6452 -0.6840  0.0436
  399MOL0     C54957   6.750   5.424   9.718 -0.0801  0.8707 -0.0495
  399MOL0     C54958   6.812   5.360   9.611  1.2898 -0.0578  0.1467
  399MOL0     C54959   6.730   5.289   9.512  0.0078 -0.7503 -0.3517
  399MOL0     O54960   6.783   5.216   9.412 -0.1420 -0.3221 -0.0117
  399MOL0     C54961   6.853   5.280   9.305 -0.1644  0.1407 -0.1372
  399MOL0     C54962   6.815   5.215   9.175  0.7068  0.0788  0.0560
  399MOL0     C54963   6.914   5.220   9.054  0.1788  0.3961 -0.5833
  399MOL0     C54964   7.058   5.171   9.094 -0.1644  0.0344  0.1126
  399MOL0     C54965   7.143   5.145   8.975  0.2098 -0.0720 -0.4816
  399MOL0     C54966   7.269   5.059   9.011 -0.5782  0.1144  0.4740
  399MOL0     C54967   7.378   5.155   9.056 -0.5496 -0.2878  0.0144
  399MOL0     C54968   7.490   5.080   9.130 -0.8656  0.1484 -0.0596
  399MOL0    Cl54969   7.524   4.917   9.059 -0.3125  0.7791 -0.5319
  399MOL0     C54970   6.590   5.286   9.526  0.1810 -1.1973  0.1064
  399MOL0     C54971   6.526   5.355   9.640 -0.3337 -0.8676  0.6459
  399MOL0     O54972   6.427   5.614   9.695  0.1438 -0.7642 -0.9738
  399MOL0     C54973   6.281   5.665   9.963 -0.8055  0.6914  0.4381
  399MOL0     C54974   6.242   5.721  10.082 -0.1753  0.1140 -0.1659
  399MOL0     N54975   5.833   5.817  10.200 -0.0574 -0.7770  0.3713
  399MOL0     N54976   5.723   5.776  10.135 -0.6575  0.0840  0.0697
  399MOL0     C54977   4.561   5.932  10.111  0.5775 -0.1218  0.3885
  399MOL0     C54978   4.472   5.887  10.015 -0.0799  0.0521 -0.2867
  399MOL0     C54979   4.107   5.754   9.787 -0.4047  0.3441 -0.3837
  399MOL0     C54980   4.162   5.646   9.709 -0.5394  0.9343  0.2518
  399MOL0     C54981   4.085   5.581   9.610 -0.8076  0.0577 -0.3237
  399MOL0     C54982   3.967   5.633   9.572  0.2667  0.5081 -0.5810
  399MOL0     O54983   3.891   5.586   9.476  0.0961 -0.3004  0.2703
  399MOL0     C54984   3.952   5.517   9.364  1.0351  0.5168 -0.6120
  399MOL0     C54985   3.850   5.505   9.257  0.0642  0.0622 -0.0640
  399MOL0     C54986   3.911   5.433   9.139  0.6842 -0.0320  0.5353
  399MOL0     C54987   3.811   5.380   9.040 -0.0006 -0.2407  0.7096
  399MOL0     C54988   3.789   5.490   8.945  0.4426  0.0416  0.4554
  399MOL0     C54989   3.785   5.587   8.868  0.2182 -0.4280 -0.9106
  399MOL0     C54990   3.918   5.745   9.634  1.0878  0.2460 -0.5949
  399MOL0     C54991   3.985   5.812   9.734  0.0215  0.7113  0.2204
  399MOL0     C54992   3.914   5.930   9.793  0.1364  0.8963  0.3763
  399MOL0     H54993   4.297   5.662  10.173 -1.3240  0.1241 -2.1944
  399MOL0     H54994   4.440   5.752  10.369  0.2390  0.4789 -0.4419
  399MOL0     H54995   4.836   5.957  10.386 -0.9127 -5.9599  2.9989
  399MOL0     H54996   4.800   5.971  10.210  0.3398  2.4751  1.4769
  399MOL0     H54997   4.776   5.714  10.366 -0.9582  1.3130  1.2033
  399MOL0     H54998   4.813   5.736  10.191 -0.9801  0.3533 -0.0536
  399MOL0     H54999   5.028   5.844  10.279 -1.1248  1.3620  0.5934
  399MOL0     H55000   4.974   5.778  10.433  2.1449 -0.7744  0.3417
  399MOL0     H55001   4.986   5.542  10.337 -0.0711 -1.2812 -1.3471
  399MOL0     H55002   5.026   5.611  10.177  3.6961 -2.3172  0.6748
  399MOL0     H55003   5.212   5.510  10.333  1.6551 -0.1074  0.6979
  399MOL0     H55004   5.204   5.660  10.421  2.9790 -3.6563  1.6464
  399MOL0     H55005   5.306   5.600  10.144 -2.4952 -3.2410  0.4962
  399MOL0     H55006   5.212   5.748  10.157  1.2201  0.0121 -1.3144
  399MOL0     H55007   5.452   5.686  10.338  2.3894 -0.2590 -3.0859
  399MOL0     H55008   5.349   5.834  10.346  0.6565  2.0472 -1.1670
  399MOL0     H55009   5.464   5.744  10.073  2.8698  0.8631 -1.4791
  399MOL0     H55010   5.426   5.908  10.141 -0.4838  0.0529 -1.7121
  399MOL0     H55011   5.597   5.958  10.372  1.4838 -0.4938  0.5500
  399MOL0     H55012   5.832   6.013  10.481  0.5993 -0.4220  0.6157
  399MOL0     H55013   5.944   6.037  10.354  2.4891 -1.2099 -0.8881
  399MOL0     H55014   6.039   5.941  10.565  0.7354 -2.6424  1.3921
  399MOL0     H55015   5.936   5.810  10.545 -0.5738  0.7189  1.3203
  399MOL0     H55016   6.166   5.755  10.463 -2.1550 -0.8081  2.1677
  399MOL0     H55017   6.056   5.724  10.338  2.3905  0.9644 -1.7808
  399MOL0     H55018   6.118   5.924  10.213  1.7093 -1.7214 -1.6840
  399MOL0     H55019   6.191   5.998  10.356  0.0946  0.1964 -0.7014
  399MOL0     H55020   6.538   5.809  10.203 -1.3068  3.1972 -2.5504
  399MOL0     H55021   6.715   5.643  10.050  1.9563 -0.0212 -1.7252
  399MOL0     H55022   6.681   5.816  10.013 -0.7464 -0.8237  1.9108
  399MOL0     H55023   6.690   5.709   9.887  5.2864  2.0024  0.5754
  399MOL0     H55024   6.810   5.478   9.791  0.0141 -0.6448  1.0333
  399MOL0     H55025   6.918   5.359   9.591  0.9290 -3.1189 -2.2598
  399MOL0     H55026   6.820   5.383   9.295 -2.0368 -0.6086 -3.3520
  399MOL0     H55027   6.960   5.266   9.319 -0.1545 -2.6293 -2.0633
  399MOL0     H55028   6.795   5.107   9.185 -2.2925  0.2636 -2.3208
  399MOL0     H55029   6.717   5.257   9.151  0.6699  1.0648  1.8074
  399MOL0     H55030   6.916   5.326   9.025  1.3159  0.5412 -0.0166
  399MOL0     H55031   6.876   5.152   8.977  2.1389 -0.1924 -1.0934
  399MOL0     H55032   7.049   5.084   9.161 -1.0771  1.6553  2.2189
  399MOL0     H55033   7.104   5.252   9.151 -1.2879 -0.2205  1.4404
  399MOL0     H55034   7.068   5.088   8.919  0.0483 -0.0974 -0.2434
  399MOL0     H55035   7.171   5.235   8.920  0.8415 -1.3170 -2.2774
  399MOL0     H55036   7.296   5.000   8.923 -1.5438 -1.7427  1.3624
  399MOL0     H55037   7.226   4.986   9.080 -0.5931  0.1877  0.5423
  399MOL0     H55038   7.340   5.229   9.127 -0.4566  2.0191 -2.1936
  399MOL0     H55039   7.418   5.205   8.968 -1.4038 -0.0374 -0.2387
  399MOL0     H55040   7.470   5.061   9.235  0.3435 -1.4445 -0.0799
  399MOL0     H55041   7.585   5.128   9.102 -0.8212 -2.4676 -5.7913
  399MOL0     H55042   6.529   5.227   9.459 -2.2956  0.9453  0.3178
  399MOL0     H55043   6.422   5.355   9.670 -1.3604  1.5682 -2.3777
  399MOL0     H55044   6.212   5.616   9.895  0.1931  1.4745 -1.1942
  399MOL0     H55045   6.137   5.712  10.110  0.7413 -2.6126  3.1980
  399MOL0     H55046   4.631   6.013  10.092 -0.3609  1.3848  2.9044
  399MOL0     H55047   4.490   5.925   9.915 -0.3788 -0.5880 -0.5864
  399MOL0     H55048   4.254   5.597   9.739 -1.7577 -3.2931 -2.0871
  399MOL0     H55049   4.125   5.495   9.558  2.2360 -0.3915  2.4059
  399MOL0     H55050   4.029   5.584   9.323 -1.0139  2.7162 -1.0957
  399MOL0     H55051   3.997   5.422   9.392  2.0406  1.2656  0.4322
  399MOL0     H55052   3.806   5.603   9.236 -0.7935  0.6171  3.5534
  399MOL0     H55053   3.775   5.433   9.290  0.8698 -0.4080  0.7984
  399MOL0     H55054   3.980   5.503   9.092 -1.0557  0.5383 -1.3288
  399MOL0     H55055   3.961   5.341   9.171 -1.4324 -1.7814 -0.8614
  399MOL0     H55056   3.718   5.338   9.081 -0.7339  0.2089 -0.4278
  399MOL0     H55057   3.864   5.306   8.979 -0.4016  1.2613 -1.5688
  399MOL0     H55058   3.792   5.670   8.801 -1.2402 -1.0776 -1.9278
  399MOL0     H55059   3.830   5.786   9.585  1.2076  2.2483  0.7374
  399MOL0     H55060   3.843   5.960   9.716 -2.1719 -1.1736  1.5506
  399MOL0     H55061   3.859   5.896   9.881  1.9749 -0.1307  1.1856
  399MOL0     H55062   3.980   6.016   9.809  3.0698 -1.4765  2.1842
  400MOL0     O55063   6.187   5.536   6.883  0.1324 -0.4101  0.1054
  400MOL0     C55064   6.273   5.464   6.935 -0.2247  0.5288  0.5694
  400MOL0     O55065   6.405   5.465   6.909 -0.0826  0.1831  0.1311
  400MOL0     C55066   6.466   5.543   6.808  0.5959  1.0782 -0.7723
  400MOL0     C55067   6.600   5.580   6.831  0.7457 -0.0394 -0.2315
  400MOL0     C55068   6.659   5.645   6.719  0.6070 -0.2782 -0.2869
  400MOL0     C55069   6.593   5.664   6.595  0.1049  0.3015  0.3488
  400MOL0     O55070   6.647   5.724   6.483  0.2652 -0.2763 -0.2817
  400MOL0     C55071   6.782   5.785   6.487  0.3552 -0.1111  0.3540
  400MOL0     C55072   6.780   5.919   6.550  0.0612 -0.2423  0.6154
  400MOL0     C55073   6.913   5.954   6.613  0.3033 -0.6039 -0.2569
  400MOL0     C55074   6.881   6.047   6.739  0.3562  0.9759  0.0493
  400MOL0     C55075   6.992   6.161   6.758 -0.6188  0.8335 -0.0970
  400MOL0     C55076   6.969   6.236   6.882  0.9983  0.0436  0.0253
  400MOL0     C55077   7.105   6.318   6.912 -0.4387 -0.0804 -0.0830
  400MOL0     C55078   7.138   6.431   6.820  0.4048  0.6293  0.2876
  400MOL0     N55079   7.281   6.455   6.818 -0.3955  0.1262 -0.2247
  400MOL0     C55080   7.357   6.459   6.703 -0.1023 -0.5214  0.2089
  400MOL0     C55081   7.461   6.533   6.743 -0.3187  0.3596 -0.3191
  400MOL0     C55082   7.578   6.566   6.673  0.0311 -0.2371 -0.2716
  400MOL0     C55083   7.678   6.461   6.636 -0.2499  0.0264  1.0934
  400MOL0     C55084   7.759   6.405   6.755  0.4394 -0.4352  0.5312
  400MOL0     C55085   7.692   6.289   6.843 -0.1405  0.1824 -0.3082
  400MOL0     O55086   7.647   6.189   6.760 -0.6370  0.7149  0.2500
  400MOL0     C55087   7.581   6.085   6.830  0.6354  0.1010  0.1632
  400MOL0     C55088   7.644   5.973   6.864 -0.6879  0.3589  0.0169
  400MOL0     C55089   7.586   5.861   6.923  0.0789 -0.1543 -0.0249
  400MOL0     C55090   7.679   5.737   6.943  0.6429 -0.5345 -0.7654
  400MOL0     C55091   7.453   5.876   6.965  0.5470 -0.2001  0.0777
  400MOL0     C55092   7.377   5.768   7.026 -0.4628 -0.6374 -0.1144
  400MOL0     O55093   7.245   5.796   7.029 -0.0619  0.5681  0.2229
  400MOL0     C55094   7.159   5.725   7.108 -0.6575 -0.0826  0.3706
  400MOL0     C55095   7.181   5.624   7.207 -0.1288 -0.1648  0.4556
  400MOL0     C55096   7.066   5.565   7.268 -0.0483 -0.1376 -1.1341
  400MOL0     C55097   6.940   5.599   7.228  0.6457 -0.1775  0.4951
  400MOL0     O55098   6.839   5.524   7.282 -0.4784  0.6253 -0.9306
  400MOL0     C55099   6.713   5.577   7.281 -0.2584 -0.1937  0.6909
  400MOL0     C55100   6.611   5.504   7.376 -0.3387 -0.1488 -0.2715
  400MOL0     C55101   6.665   5.481   7.511  0.2950  0.4768  0.2437
  400MOL0     C55102   6.563   5.421   7.616 -0.2464 -0.5410 -0.1255
  400MOL0     C55103   6.621   5.390   7.758 -0.7146 -0.0919 -0.7137
  400MOL0     C55104   6.716   5.268   7.752  0.2201  0.6056 -0.0634
  400MOL0     C55105   6.776   5.250   7.886  0.7084  0.1219 -0.5669
  400MOL0     C55106   6.918   5.313   7.897  0.2296 -0.0247  0.2457
  400MOL0    Cl55107   6.960   5.346   8.061 -0.0719 -0.1969  0.3407
  400MOL0     C55108   6.913   5.690   7.127 -0.5404  0.2365 -0.1555
  400MOL0     C55109   7.029   5.753   7.069 -0.5291  0.4595  0.2742
  400MOL0     O55110   7.431   5.662   7.063  0.3392  0.1886  0.6972
  400MOL0     C55111   7.386   5.994   6.932 -0.3292 -0.2207 -0.2539
  400MOL0     C55112   7.444   6.092   6.856 -0.2267  0.3424  0.4947
  400MOL0     N55113   7.459   6.570   6.878  0.7271  0.3445  0.1984
  400MOL0     N55114   7.348   6.514   6.920  0.7130 -1.2034 -0.3126
  400MOL0     C55115   6.464   5.614   6.575  0.1291  0.4468  0.0468
  400MOL0     C55116   6.393   5.555   6.683 -0.2626 -0.1327  0.3857
  400MOL0     C55117   6.240   5.361   7.039  0.2395 -0.5214  0.1230
  400MOL0     C55118   6.350   5.290   7.097  0.3512 -0.3401 -0.3737
  400MOL0     C55119   6.330   5.183   7.182  0.2234 -0.2744  0.2323
  400MOL0     C55120   6.199   5.131   7.204  0.5890  0.0845  0.8089
  400MOL0     O55121   6.174   5.036   7.303 -0.5209 -0.2146 -0.2037
  400MOL0     C55122   6.235   4.907   7.276 -0.0623 -0.4286 -0.7005
  400MOL0     C55123   6.177   4.811   7.387 -0.2441 -0.6743  0.0136
  400MOL0     C55124   6.175   4.666   7.335  0.3263 -0.3165  0.5507
  400MOL0     C55125   6.060   4.639   7.237  0.3929 -0.1908 -0.4379
  400MOL0     C55126   5.927   4.662   7.302 -0.7859 -0.7729 -0.2104
  400MOL0     C55127   5.834   4.695   7.363  0.9960 -0.0162 -0.3336
  400MOL0     C55128   6.093   5.207   7.152  0.6184  0.0864  0.4770
  400MOL0     C55129   6.110   5.323   7.074 -0.4168 -0.9629  1.0115
  400MOL0     C55130   5.987   5.388   7.029 -0.0684 -0.3394  1.2220
  400MOL0     H55131   6.649   5.561   6.927  2.9020 -1.6216 -1.5499
  400MOL0     H55132   6.764   5.666   6.737  0.9984 -0.5193 -2.0730
  400MOL0     H55133   6.824   5.779   6.386 -3.1820 -0.1653 -1.2515
  400MOL0     H55134   6.845   5.723   6.552  0.3157 -0.5198  0.0055
  400MOL0     H55135   6.766   5.999   6.477  3.2829  1.4081  1.5986
  400MOL0     H55136   6.694   5.926   6.617  1.6262  0.6389  2.6730
  400MOL0     H55137   6.979   5.870   6.640 -1.4777 -1.3469  2.1634
  400MOL0     H55138   6.971   6.013   6.542  5.1033 -1.3100  2.6457
  400MOL0     H55139   6.791   6.104   6.717 -1.7795 -2.2825 -0.3520
  400MOL0     H55140   6.879   5.984   6.828  1.9464  1.0631  0.1818
  400MOL0     H55141   6.991   6.227   6.671  0.7534  0.9328 -0.0532
  400MOL0     H55142   7.091   6.115   6.757  1.1362  4.1270  2.4435
  400MOL0     H55143   6.883   6.298   6.855  0.5331 -0.5500  0.1246
  400MOL0     H55144   6.953   6.165   6.964 -1.1960  0.3299 -0.0786
  400MOL0     H55145   7.188   6.247   6.917  1.3576  1.9128 -0.2432
  400MOL0     H55146   7.091   6.364   7.010 -3.2275 -2.4414  0.7943
  400MOL0     H55147   7.106   6.405   6.719 -1.3369  1.3330  0.6103
  400MOL0     H55148   7.089   6.527   6.843  1.6825  1.6640 -1.1021
  400MOL0     H55149   7.344   6.417   6.604  2.5007 -0.1159 -0.3707
  400MOL0     H55150   7.639   6.637   6.729 -1.0230  1.9211 -1.7544
  400MOL0     H55151   7.546   6.621   6.584 -0.9214  0.3457  0.4095
  400MOL0     H55152   7.629   6.378   6.585  0.5574  0.1782  0.0574
  400MOL0     H55153   7.745   6.504   6.561  0.8845  0.6284  2.4137
  400MOL0     H55154   7.858   6.375   6.721  1.7774  1.8929  2.0800
  400MOL0     H55155   7.766   6.493   6.820  1.4892  0.4313 -0.7188
  400MOL0     H55156   7.757   6.247   6.920  1.0669 -0.4588 -1.6159
  400MOL0     H55157   7.608   6.331   6.898  0.2616  1.0428 -0.3478
  400MOL0     H55158   7.747   5.955   6.835 -0.1943 -1.4720  2.5188
  400MOL0     H55159   7.661   5.650   6.880  0.3734 -0.4455 -0.8103
  400MOL0     H55160   7.685   5.712   7.049  1.9306  2.0293 -0.1411
  400MOL0     H55161   7.780   5.772   6.919 -0.6762  3.4235 -1.3756
  400MOL0     H55162   7.277   5.590   7.246  2.0584  0.2551 -3.9417
  400MOL0     H55163   7.078   5.510   7.360  1.9721  1.9378 -0.0747
  400MOL0     H55164   6.709   5.682   7.312 -2.2330 -0.6141  2.0307
  400MOL0     H55165   6.680   5.572   7.176  3.2918  2.5953 -0.7678
  400MOL0     H55166   6.521   5.566   7.384  0.5674  1.2106 -0.2098
  400MOL0     H55167   6.572   5.413   7.330 -2.9765 -0.0007  1.4463
  400MOL0     H55168   6.702   5.577   7.547  0.8001  0.2950  0.2089
  400MOL0     H55169   6.744   5.407   7.499 -0.2080 -0.5896  2.8693
  400MOL0     H55170   6.520   5.333   7.567 -1.8286  2.1254 -3.9608
  400MOL0     H55171   6.487   5.496   7.636 -0.0314  0.5514 -2.9500
  400MOL0     H55172   6.694   5.468   7.784 -0.1514 -0.7795 -0.1990
  400MOL0     H55173   6.550   5.373   7.840 -1.8072  1.2844 -1.3350
  400MOL0     H55174   6.791   5.289   7.675 -0.1268 -1.7877 -1.1481
  400MOL0     H55175   6.652   5.181   7.734  1.8107 -0.9084  1.2094
  400MOL0     H55176   6.761   5.145   7.910 -0.6155 -0.2148 -2.5981
  400MOL0     H55177   6.718   5.314   7.954 -1.3569 -0.4346 -1.7022
  400MOL0     H55178   6.919   5.404   7.836  0.7795 -0.3531 -0.2447
  400MOL0     H55179   6.992   5.240   7.863 -1.0571 -1.7165  0.8916
  400MOL0     H55180   6.812   5.713   7.096 -0.1481  3.1858  0.3982
  400MOL0     H55181   7.015   5.830   6.993 -0.1870  1.0309  0.7812
  400MOL0     H55182   7.281   6.017   6.952  0.0051  1.5975 -0.4636
  400MOL0     H55183   7.393   6.185   6.833 -0.3502 -0.0885 -1.1258
  400MOL0     H55184   6.424   5.606   6.475  1.6845  0.5671 -0.6124
  400MOL0     H55185   6.299   5.502   6.671 -0.4125 -0.0721  1.2254
  400MOL0     H55186   6.451   5.320   7.072 -1.3644  3.0737 -4.5131
  400MOL0     H55187   6.409   5.129   7.234  0.3870  0.2291  0.5135
  400MOL0     H55188   6.211   4.860   7.180 -0.4350 -2.3355  0.2763
  400MOL0     H55189   6.341   4.930   7.291 -0.8885  2.5315  1.7799
  400MOL0     H55190   6.078   4.841   7.423  0.5298 -0.2981  1.9709
  400MOL0     H55191   6.247   4.821   7.471  1.3603  1.2974 -1.4746
  400MOL0     H55192   6.264   4.632   7.281 -0.0844 -0.6571  0.0744
  400MOL0     H55193   6.155   4.593   7.414 -0.7959 -2.8315 -1.9001
  400MOL0     H55194   6.064   4.540   7.191 -2.2736 -0.6328  0.0976
  400MOL0     H55195   6.078   4.709   7.155 -3.1116  1.9707  0.4024
  400MOL0     H55196   5.758   4.741   7.423  0.2220  0.3824 -1.5822
  400MOL0     H55197   5.993   5.171   7.174 -0.4092  1.0276 -2.2401
  400MOL0     H55198   5.992   5.388   6.920  4.0558 -3.1491  1.2066
  400MOL0     H55199   5.894   5.335   7.050  1.2275 -2.5478  1.7110
  400MOL0     H55200   5.984   5.485   7.080  0.4095 -1.1638  2.8816
  401MOL0     O55201   0.866   1.455   0.495 -0.4011  0.4112 -0.7405
  401MOL0     C55202   0.879   1.555   0.423  0.2045 -0.1416  0.6696
  401MOL0     O55203   0.996   1.617   0.395  0.2659 -0.3085  0.2427
  401MOL0     C55204   1.118   1.578   0.436 -0.7155 -0.3181 -0.3954
  401MOL0     C55205   1.156   1.470   0.514  0.4537 -0.2118 -0.1044
  401MOL0     C55206   1.288   1.447   0.552 -0.6957 -0.1696 -0.7364
  401MOL0     C55207   1.401   1.540   0.523  1.2499 -0.1809  0.0547
  401MOL0     O55208   1.531   1.542   0.572 -0.1931  0.2990 -0.5770
  401MOL0     C55209   1.569   1.472   0.692  1.3005  0.5447  0.7887
  401MOL0     C55210   1.715   1.454   0.696 -0.5227  0.5759  0.0138
  401MOL0     C55211   1.794   1.585   0.695 -0.6049 -0.3792 -0.1255
  401MOL0     C55212   1.820   1.634   0.836  0.3039 -0.4011  1.2255
  401MOL0     C55213   1.858   1.785   0.843 -0.2277  0.0515 -0.4182
  401MOL0     C55214   1.923   1.829   0.976 -0.7194 -0.1743 -0.2273
  401MOL0     C55215   1.951   1.984   0.973  0.8343  0.2812  0.1449
  401MOL0     C55216   2.067   2.020   0.880  0.5269  0.4218 -0.2349
  401MOL0     N55217   2.195   1.985   0.925 -0.4111  0.2196 -1.0362
  401MOL0     C55218   2.256   2.063   1.023  0.1507 -0.6265  0.2691
  401MOL0     C55219   2.347   1.972   1.077 -0.3966  0.1118 -0.2638
  401MOL0     C55220   2.459   2.006   1.171 -0.2387  0.1167  0.4671
  401MOL0     C55221   2.569   1.904   1.165 -0.2392  0.3438 -0.0354
  401MOL0     C55222   2.682   1.943   1.249  0.0283  0.2896 -0.5324
  401MOL0     C55223   2.789   1.830   1.241 -0.4447  0.4843  0.4282
  401MOL0     O55224   2.893   1.862   1.330 -0.7827 -0.6114  0.3596
  401MOL0     C55225   3.003   1.780   1.331  0.1277 -0.7167  0.1308
  401MOL0     C55226   3.052   1.704   1.228  0.2673 -0.5803  0.5965
  401MOL0     C55227   3.176   1.635   1.223 -0.2604 -0.9895 -0.9881
  401MOL0     C55228   3.206   1.574   1.090  0.5123 -0.5277 -0.2583
  401MOL0     C55229   3.263   1.646   1.337  0.2485 -0.5691 -0.2340
  401MOL0     C55230   3.394   1.585   1.354 -0.0621 -0.3059 -0.0130
  401MOL0     O55231   3.431   1.492   1.258 -0.1874  1.0201 -0.3037
  401MOL0     C55232   3.551   1.426   1.275  0.3656  0.2297  1.2926
  401MOL0     C55233   3.559   1.345   1.381  0.2645  0.3480  0.6674
  401MOL0     C55234   3.685   1.279   1.407  0.8141  0.6475 -0.1812
  401MOL0     C55235   3.798   1.303   1.327  0.3072  0.0483  0.0304
  401MOL0     O55236   3.920   1.241   1.359  0.4866  0.1839 -0.6881
  401MOL0     C55237   4.040   1.287   1.298 -0.0686  0.8376 -0.6121
  401MOL0     C55238   4.158   1.251   1.390  0.3776  0.3662 -0.4407
  401MOL0     C55239   4.288   1.209   1.324 -0.3477 -0.3696 -0.3256
  401MOL0     C55240   4.391   1.177   1.428 -0.2147  0.1178  0.5492
  401MOL0     C55241   4.531   1.131   1.376 -0.2170 -0.3736  0.2226
  401MOL0     C55242   4.633   1.136   1.494 -0.1545  0.6075  0.0429
  401MOL0     C55243   4.773   1.094   1.447  0.0570  0.4412  0.4852
  401MOL0     C55244   4.882   1.163   1.524 -1.0467  0.1362  0.3276
  401MOL0    Cl55245   5.041   1.098   1.463 -0.0628  0.0495 -0.6213
  401MOL0     C55246   3.783   1.390   1.216 -0.5857 -0.7360  0.5008
  401MOL0     C55247   3.658   1.448   1.188  0.7356  0.3029  0.2296
  401MOL0     O55248   3.459   1.623   1.452  0.2254  0.6083 -0.3489
  401MOL0     C55249   3.210   1.718   1.449 -0.1266 -0.2729  0.4003
  401MOL0     C55250   3.088   1.793   1.441 -0.0271 -0.4425  0.2245
  401MOL0     N55251   2.337   1.849   1.014 -1.0895  0.1222  0.5940
  401MOL0     N55252   2.246   1.858   0.922  0.1239  0.0074 -0.1435
  401MOL0     C55253   1.365   1.644   0.436 -0.4787 -0.5648 -0.2379
  401MOL0     C55254   1.233   1.668   0.404  1.0801 -0.5716 -0.4214
  401MOL0     C55255   0.753   1.604   0.352 -0.4777  0.0041  0.2746
  401MOL0     C55256   0.766   1.704   0.261 -0.2811  0.3775 -0.3418
  401MOL0     C55257   0.673   1.723   0.155 -0.1707  0.2072 -0.3689
  401MOL0     C55258   0.558   1.648   0.145 -0.1633 -0.0921  0.2986
  401MOL0     O55259   0.470   1.655   0.044 -0.5530  0.1639 -0.2396
  401MOL0     C55260   0.500   1.719  -0.076  0.0893 -0.1619 -0.1242
  401MOL0     C55261   0.596   1.650  -0.173  0.6543  0.2169 -0.2267
  401MOL0     C55262   0.548   1.511  -0.219 -0.2819 -0.9470 -0.0926
  401MOL0     C55263   0.547   1.396  -0.114 -0.6817 -0.4764 -0.4909
  401MOL0     C55264   0.442   1.300  -0.169 -0.5658 -0.1698 -0.5550
  401MOL0     C55265   0.368   1.216  -0.228  0.4496  0.2772 -0.0358
  401MOL0     C55266   0.524   1.577   0.260 -0.9394  1.3221 -1.3150
  401MOL0     C55267   0.618   1.545   0.362  0.0124 -0.5077 -0.2167
  401MOL0     C55268   0.582   1.461   0.481  0.1675  0.0375  0.1244
  401MOL0     H55269   1.085   1.390   0.534 -0.2860 -0.2813 -2.6205
  401MOL0     H55270   1.319   1.365   0.615  0.3731  2.1434  1.9780
  401MOL0     H55271   1.512   1.379   0.701  0.8000  0.8963  1.3236
  401MOL0     H55272   1.563   1.542   0.776  4.1856  0.9739  0.7447
  401MOL0     H55273   1.746   1.384   0.774 -2.9583 -1.1335 -0.4471
  401MOL0     H55274   1.741   1.400   0.604  0.2364 -0.4016  0.7734
  401MOL0     H55275   1.889   1.560   0.648  0.4789 -2.0667  2.7227
  401MOL0     H55276   1.744   1.666   0.640  2.0965  2.3795  1.2027
  401MOL0     H55277   1.725   1.629   0.891 -0.7159 -1.6239 -0.5703
  401MOL0     H55278   1.883   1.563   0.890 -2.0844 -3.9009 -0.1857
  401MOL0     H55279   1.772   1.851   0.827  0.1137  0.8840  0.9829
  401MOL0     H55280   1.934   1.815   0.770 -0.3001  1.8855  0.1998
  401MOL0     H55281   1.862   1.807   1.064  1.6204 -1.1031  1.2771
  401MOL0     H55282   2.018   1.778   0.993 -0.1309  0.5461 -1.2531
  401MOL0     H55283   1.977   2.022   1.072 -0.5729  0.9069  0.2990
  401MOL0     H55284   1.862   2.039   0.940 -0.0978 -2.5482 -2.5862
  401MOL0     H55285   2.045   1.970   0.786 -2.3873 -2.9286  1.9376
  401MOL0     H55286   2.066   2.129   0.868 -0.7117  0.4589  0.0080
  401MOL0     H55287   2.260   2.169   1.044  0.2855 -0.7918  1.1485
  401MOL0     H55288   2.420   2.003   1.274 -2.0268  1.4992 -0.0991
  401MOL0     H55289   2.501   2.104   1.145 -2.1493  0.6782 -0.7914
  401MOL0     H55290   2.528   1.810   1.201  0.8168  1.0183  3.2740
  401MOL0     H55291   2.613   1.888   1.066  0.4170 -3.0921  0.6815
  401MOL0     H55292   2.716   2.040   1.212 -1.2346  1.1052  0.3710
  401MOL0     H55293   2.656   1.967   1.353  1.4543  1.7012 -0.4629
  401MOL0     H55294   2.746   1.733   1.267  0.7052  0.2923  1.7194
  401MOL0     H55295   2.814   1.814   1.136 -1.2978 -1.7947  0.5099
  401MOL0     H55296   2.992   1.700   1.137  0.1332 -1.7689  0.7152
  401MOL0     H55297   3.290   1.632   1.053  0.3773  0.8946  1.5058
  401MOL0     H55298   3.130   1.587   1.012  1.2679 -1.5305 -1.1798
  401MOL0     H55299   3.227   1.469   1.114  3.6276  0.6354  2.9004
  401MOL0     H55300   3.466   1.322   1.433  0.2274 -1.6416 -0.2054
  401MOL0     H55301   3.695   1.209   1.489 -1.0605 -2.7850 -2.6187
  401MOL0     H55302   4.037   1.233   1.204  2.3612 -1.3337  0.4358
  401MOL0     H55303   4.049   1.395   1.284  0.6534  0.5626 -2.4898
  401MOL0     H55304   4.184   1.338   1.451 -1.6965 -2.4656  5.2121
  401MOL0     H55305   4.131   1.179   1.467  0.2814  1.5934  0.7210
  401MOL0     H55306   4.328   1.280   1.250 -1.3686  2.6408  1.8237
  401MOL0     H55307   4.270   1.116   1.268  1.7356 -2.1104  1.6662
  401MOL0     H55308   4.350   1.100   1.495  2.7230 -0.5160  1.7804
  401MOL0     H55309   4.420   1.256   1.498 -2.6593  0.5353  1.1878
  401MOL0     H55310   4.522   1.034   1.327  0.9819  0.2576 -1.3357
  401MOL0     H55311   4.565   1.205   1.303 -2.2773 -1.1005 -1.5609
  401MOL0     H55312   4.589   1.060   1.559 -2.7250  0.5072 -1.6722
  401MOL0     H55313   4.633   1.237   1.534 -1.0485  1.4048 -1.8526
  401MOL0     H55314   4.785   1.118   1.341 -0.9570  0.1996  0.3107
  401MOL0     H55315   4.781   0.988   1.471  0.9138  0.2654 -0.5033
  401MOL0     H55316   4.885   1.162   1.633 -1.1276  0.2659  0.3327
  401MOL0     H55317   4.892   1.271   1.505  1.3128  0.1115  1.1523
  401MOL0     H55318   3.865   1.399   1.146 -0.9444 -1.8298 -0.0914
  401MOL0     H55319   3.656   1.526   1.112  0.0986  0.9696  0.9282
  401MOL0     H55320   3.270   1.748   1.534  0.0899  2.6388 -0.6836
  401MOL0     H55321   3.062   1.865   1.519 -2.1460  1.5380 -2.1037
  401MOL0     H55322   1.443   1.713   0.408 -0.8174 -0.0671  0.0258
  401MOL0     H55323   1.216   1.761   0.349 -0.9024  0.7432  2.1640
  401MOL0     H55324   0.857   1.763   0.253 -2.6409  4.3895 -0.5483
  401MOL0     H55325   0.690   1.802   0.081 -1.5492  0.2937 -0.6291
  401MOL0     H55326   0.409   1.736  -0.135 -0.1538  2.4111  0.8600
  401MOL0     H55327   0.531   1.820  -0.048  2.5005 -0.6411 -0.8939
  401MOL0     H55328   0.692   1.637  -0.122  0.8066 -1.8816 -0.9612
  401MOL0     H55329   0.613   1.715  -0.259  2.6117 -3.9845 -3.4424
  401MOL0     H55330   0.449   1.525  -0.262 -0.4885 -0.9868  0.3694
  401MOL0     H55331   0.614   1.474  -0.298  0.9077  0.6225  0.1148
  401MOL0     H55332   0.497   1.424  -0.021 -1.8749  0.2890 -1.3280
  401MOL0     H55333   0.646   1.361  -0.083 -1.1351 -1.3067  0.0778
  401MOL0     H55334   0.308   1.155  -0.292  0.1361  1.5885 -1.0318
  401MOL0     H55335   0.425   1.534   0.259 -1.7782  2.9175  1.7540
  401MOL0     H55336   0.478   1.441   0.508  0.2842  1.3589  1.7048
  401MOL0     H55337   0.627   1.365   0.454 -0.9124 -0.4368 -0.0327
  401MOL0     H55338   0.623   1.507   0.572  0.7646  1.6520 -0.9170
  402MOL0     O55339   0.554   4.144   1.835  0.4147  0.8796  0.3136
  402MOL0     C55340   0.464   4.135   1.918  0.1607 -0.3823  0.4312
  402MOL0     O55341   0.461   4.208   2.031  0.3686  0.3198  0.1871
  402MOL0     C55342   0.545   4.314   2.047  0.0202 -0.8067 -0.3445
  402MOL0     C55343   0.565   4.420   1.947  0.2119  0.0819 -1.2224
  402MOL0     C55344   0.649   4.521   1.984 -0.3259  0.5747  0.0849
  402MOL0     C55345   0.707   4.539   2.104 -0.2155  0.7258 -0.8278
  402MOL0     O55346   0.784   4.640   2.142 -0.9274 -0.4521  0.1713
  402MOL0     C55347   0.784   4.760   2.061  0.5261 -0.5795 -0.1406
  402MOL0     C55348   0.863   4.877   2.132 -0.7697  0.2312  0.7573
  402MOL0     C55349   1.007   4.822   2.139  0.7529  0.4455  0.0683
  402MOL0     C55350   1.100   4.908   2.214  0.7472 -0.9250  0.3464
  402MOL0     C55351   1.243   4.874   2.168 -0.1776  1.3968  0.4263
  402MOL0     C55352   1.344   4.932   2.261 -0.9289 -0.2363  0.5070
  402MOL0     C55353   1.494   4.910   2.220 -0.3659 -0.6930 -0.2093
  402MOL0     C55354   1.596   4.895   2.343  0.5199  0.3536  0.1698
  402MOL0     N55355   1.700   4.812   2.288 -0.2393  0.6058 -0.4712
  402MOL0     C55356   1.740   4.685   2.333 -0.1296 -0.3496  0.2565
  402MOL0     C55357   1.836   4.654   2.243 -0.8981  0.1470 -0.3847
  402MOL0     C55358   1.930   4.526   2.238  0.8261 -0.1488 -0.8406
  402MOL0     C55359   1.859   4.388   2.271  0.0523 -0.4994  0.4163
  402MOL0     C55360   1.962   4.274   2.273  0.4815  0.0504  0.2234
  402MOL0     C55361   2.076   4.270   2.168 -0.3282  0.3271 -0.1212
  402MOL0     O55362   2.130   4.140   2.185  0.2439 -0.2826  0.0186
  402MOL0     C55363   2.239   4.112   2.104 -0.7685  0.6319 -0.5117
  402MOL0     C55364   2.271   3.982   2.087 -0.2615  0.3717 -0.2544
  402MOL0     C55365   2.370   3.938   1.999  0.1799  0.4234 -0.2947
  402MOL0     C55366   2.382   3.787   1.987  0.7281  0.1507 -0.2336
  402MOL0     C55367   2.457   4.026   1.928 -0.1578  0.1781  1.0567
  402MOL0     C55368   2.555   3.997   1.828  0.1032 -0.3812 -0.4282
  402MOL0     O55369   2.611   4.104   1.752  0.1540  0.4940  0.1516
  402MOL0     C55370   2.722   4.090   1.665 -0.2980 -0.3599  0.0718
  402MOL0     C55371   2.727   4.190   1.569 -0.5812  0.4804 -0.2969
  402MOL0     C55372   2.843   4.195   1.492 -0.0443 -0.8872  0.1767
  402MOL0     C55373   2.947   4.096   1.503  0.2230 -0.1234 -0.6359
  402MOL0     O55374   3.055   4.107   1.423 -0.5790  0.5357 -0.1763
  402MOL0     C55375   3.095   3.979   1.361 -0.3357 -0.7374 -0.1079
  402MOL0     C55376   3.208   3.983   1.266  0.3137  0.2760  0.7754
  402MOL0     C55377   3.227   4.109   1.184 -0.2512  0.0982 -0.4058
  402MOL0     C55378   3.114   4.123   1.071 -0.3730  0.3956  0.5978
  402MOL0     C55379   3.104   4.001   0.969  0.3370 -0.7960  0.9475
  402MOL0     C55380   3.211   4.004   0.858  0.1613 -0.3845 -0.5469
  402MOL0     C55381   3.198   3.872   0.768  0.2367 -0.2114  0.5856
  402MOL0     C55382   3.310   3.876   0.665 -0.0787  0.7998  0.2617
  402MOL0    Cl55383   3.320   4.026   0.558 -0.5826 -0.3634  0.2229
  402MOL0     C55384   2.943   4.001   1.608  0.5115 -0.5509  0.3863
  402MOL0     C55385   2.829   3.999   1.687  0.8271  0.3600  0.3039
  402MOL0     O55386   2.587   3.886   1.819  0.2473 -0.4449  0.7814
  402MOL0     C55387   2.435   4.164   1.963 -0.4285 -0.2566 -0.5710
  402MOL0     C55388   2.324   4.206   2.036  0.5644  0.5865 -0.1430
  402MOL0     N55389   1.848   4.753   2.147 -0.1654  0.2897 -0.8126
  402MOL0     N55390   1.765   4.840   2.172  0.4597 -0.3005 -0.1792
  402MOL0     C55391   0.685   4.449   2.199 -0.4695 -0.3438  0.7380
  402MOL0     C55392   0.613   4.329   2.165  0.0260  0.2070 -0.1796
  402MOL0     C55393   0.356   4.039   1.883  0.2155  0.5830  0.1276
  402MOL0     C55394   0.307   3.957   1.994  0.1747  0.2379  0.5613
  402MOL0     C55395   0.206   3.867   1.977 -0.6468 -0.0166  0.1681
  402MOL0     C55396   0.153   3.839   1.853  0.0382  0.2789 -1.2184
  402MOL0     O55397   0.070   3.731   1.837  0.9553  0.6816  1.0134
  402MOL0     C55398  -0.013   3.719   1.723 -0.0340 -0.6373  0.0306
  402MOL0     C55399  -0.134   3.642   1.763  1.3422  0.2689 -0.4723
  402MOL0     C55400  -0.228   3.713   1.862 -0.4601  0.5271  0.2382
  402MOL0     C55401  -0.217   3.664   2.010  0.1195 -0.0018  0.8057
  402MOL0     C55402  -0.321   3.563   2.037 -0.1827  0.3534  0.0964
  402MOL0     C55403  -0.414   3.482   2.048 -0.2421 -1.2008  0.2070
  402MOL0     C55404   0.208   3.911   1.747  0.4758 -0.4142  0.2180
  402MOL0     C55405   0.312   4.003   1.751 -0.2800  0.4671 -0.0969
  402MOL0     C55406   0.354   4.085   1.633  0.1871 -1.1208 -0.8241
  402MOL0     H55407   0.508   4.426   1.855  0.6671  0.5852 -1.4756
  402MOL0     H55408   0.662   4.591   1.901 -2.3886  0.0620 -0.7151
  402MOL0     H55409   0.682   4.798   2.043  0.6889 -0.4409 -0.7941
  402MOL0     H55410   0.828   4.731   1.966  0.3667 -4.0430  0.7316
  402MOL0     H55411   0.868   4.960   2.061  0.2576 -1.0476 -0.7057
  402MOL0     H55412   0.817   4.904   2.228  1.4444  1.0793  1.6502
  402MOL0     H55413   1.012   4.721   2.181  0.7421  0.2989 -0.2835
  402MOL0     H55414   1.041   4.818   2.035 -0.9953  2.1046 -0.6243
  402MOL0     H55415   1.075   5.008   2.179  0.6916 -1.3220 -0.7991
  402MOL0     H55416   1.067   4.913   2.319 -0.4470 -1.7709  0.0395
  402MOL0     H55417   1.264   4.894   2.062 -0.2009  2.7707  0.6696
  402MOL0     H55418   1.263   4.768   2.187 -0.5361  1.7608  3.1239
  402MOL0     H55419   1.326   5.039   2.259 -1.2419 -0.2726 -1.8207
  402MOL0     H55420   1.320   4.893   2.360 -2.1241 -0.5163  0.1179
  402MOL0     H55421   1.546   4.985   2.160 -0.8121 -1.4802 -1.6047
  402MOL0     H55422   1.487   4.815   2.166 -0.4138 -1.1994  0.6656
  402MOL0     H55423   1.640   4.991   2.372  0.0415  0.2858  1.1762
  402MOL0     H55424   1.550   4.845   2.429 -0.9025  1.2673 -0.0106
  402MOL0     H55425   1.706   4.629   2.420 -1.4214  1.6883  1.1241
  402MOL0     H55426   1.996   4.546   2.323  0.0842 -0.8354 -0.0892
  402MOL0     H55427   1.982   4.529   2.142 -0.5692  0.1437 -1.6145
  402MOL0     H55428   1.815   4.388   2.371  0.4582  1.1481  0.6215
  402MOL0     H55429   1.792   4.373   2.185 -2.4626 -1.2563  2.3824
  402MOL0     H55430   2.013   4.277   2.370  1.6761 -0.6629 -0.3670
  402MOL0     H55431   1.915   4.175   2.273  0.0117  0.1715 -3.0815
  402MOL0     H55432   2.036   4.278   2.066  1.4827  0.1276 -0.8850
  402MOL0     H55433   2.153   4.346   2.180  0.8404 -0.6201 -1.3725
  402MOL0     H55434   2.223   3.910   2.154  3.1837 -1.3580  0.5738
  402MOL0     H55435   2.316   3.727   2.050  1.1000  0.3528  0.3583
  402MOL0     H55436   2.479   3.755   2.026  0.9512  0.8343 -0.1999
  402MOL0     H55437   2.353   3.761   1.885 -0.2614  0.5025 -0.0547
  402MOL0     H55438   2.647   4.264   1.572 -2.6391 -1.6193 -0.7336
  402MOL0     H55439   2.840   4.282   1.427 -0.2980 -0.9595  0.0875
  402MOL0     H55440   3.117   3.908   1.441  0.2045 -0.6346 -0.1634
  402MOL0     H55441   3.014   3.940   1.298 -1.1543 -0.2277  0.5955
  402MOL0     H55442   3.306   3.978   1.315  1.0749  3.4377 -0.1983
  402MOL0     H55443   3.205   3.896   1.200  2.5790  2.0351 -1.8655
  402MOL0     H55444   3.329   4.096   1.148 -0.2952 -2.4776  0.2356
  402MOL0     H55445   3.230   4.205   1.236  0.8604  0.4010 -0.9986
  402MOL0     H55446   3.125   4.216   1.014 -3.1841  0.6460  0.3368
  402MOL0     H55447   3.019   4.149   1.118 -1.3967  2.8288 -2.4677
  402MOL0     H55448   3.081   3.907   1.020 -2.6242  0.6720  2.5922
  402MOL0     H55449   3.023   4.028   0.900  0.3794  0.5372  1.3958
  402MOL0     H55450   3.308   3.998   0.908  0.4348 -2.2748 -1.2316
  402MOL0     H55451   3.204   4.103   0.812 -1.2115 -0.8615 -1.4171
  402MOL0     H55452   3.105   3.865   0.711  0.1494  0.3896  0.6444
  402MOL0     H55453   3.204   3.783   0.832 -1.8924 -0.7859  0.0636
  402MOL0     H55454   3.306   3.789   0.598  0.1459  0.3711  0.7984
  402MOL0     H55455   3.408   3.868   0.713 -0.1254  0.2889  0.2758
  402MOL0     H55456   3.030   3.938   1.624  0.4415 -0.9612 -0.7391
  402MOL0     H55457   2.806   3.916   1.753 -0.3129 -0.2905 -0.8733
  402MOL0     H55458   2.501   4.244   1.932  0.6256  1.1145  4.3934
  402MOL0     H55459   2.307   4.313   2.039  1.1983  0.7706 -1.9111
  402MOL0     H55460   0.716   4.463   2.302  1.9203  0.9207 -0.0675
  402MOL0     H55461   0.594   4.265   2.250  1.0017 -1.8939 -1.4491
  402MOL0     H55462   0.334   3.966   2.099  0.8455 -1.9112  0.6193
  402MOL0     H55463   0.164   3.821   2.066 -0.7722  0.0274  0.1328
  402MOL0     H55464  -0.028   3.821   1.686 -0.3243 -0.6364  0.1500
  402MOL0     H55465   0.046   3.659   1.652  0.3081 -0.0558 -0.1829
  402MOL0     H55466  -0.092   3.547   1.796  4.2043  1.2125 -1.1166
  402MOL0     H55467  -0.198   3.633   1.675  0.8735  0.5418 -0.1660
  402MOL0     H55468  -0.203   3.819   1.854 -0.1179  0.3753 -0.7874
  402MOL0     H55469  -0.328   3.703   1.819 -0.0645 -0.4872 -0.4761
  402MOL0     H55470  -0.233   3.745   2.081  1.1525  0.7248  0.2398
  402MOL0     H55471  -0.126   3.609   2.035  0.6567  0.9535  0.9845
  402MOL0     H55472  -0.490   3.407   2.049 -0.2728 -1.3434 -3.0501
  402MOL0     H55473   0.176   3.896   1.645  1.0142  3.2900 -0.6541
  402MOL0     H55474   0.400   4.178   1.665  0.9501 -2.0296  0.8383
  402MOL0     H55475   0.434   4.037   1.576  0.7504 -0.4977 -0.5673
  402MOL0     H55476   0.270   4.126   1.577  0.0145 -1.3692 -0.7459
  403MOL0     O55477   7.568   5.407  10.148 -0.3944  0.2518  0.4432
  403MOL0     C55478   7.511   5.450  10.052 -0.7055 -0.7381 -0.3114
  403MOL0     O55479   7.496   5.585  10.013 -0.2561 -0.0713  0.3637
  403MOL0     C55480   7.552   5.679  10.089  0.0609  0.0670 -1.0756
  403MOL0     C55481   7.490   5.723  10.210  0.0998  0.3675 -0.1035
  403MOL0     C55482   7.557   5.800  10.306 -0.7587 -0.2429  0.5984
  403MOL0     C55483   7.689   5.836  10.280  0.2847 -0.1107  0.4371
  403MOL0     O55484   7.756   5.921  10.369  0.0321 -0.2341  0.0051
  403MOL0     C55485   7.691   6.016  10.453  0.0108 -0.6638  0.4445
  403MOL0     C55486   7.786   6.136  10.486  0.1882  0.3749 -0.7562
  403MOL0     C55487   7.852   6.094  10.617  0.7093  0.1759  0.6502
  403MOL0     C55488   7.964   5.992  10.608 -0.7396  0.0062 -0.3644
  403MOL0     C55489   8.003   5.942  10.744 -0.6129  0.5955  0.0832
  403MOL0     C55490   8.131   5.865  10.751 -0.2717 -0.4241  0.3056
  403MOL0     C55491   8.268   5.927  10.709  1.1227  0.7203  0.0570
  403MOL0     C55492   8.330   6.036  10.805 -0.5831 -0.6481 -0.5274
  403MOL0     N55493   8.420   5.982  10.907 -0.2430 -0.0257 -0.0042
  403MOL0     C55494   8.537   6.034  10.965  0.0570 -0.6181 -0.6651
  403MOL0     C55495   8.582   5.949  11.063 -0.6787 -1.1701  0.6339
  403MOL0     C55496   8.705   5.979  11.154  0.3547  0.5041  0.4854
  403MOL0     C55497   8.790   5.850  11.184  0.1645 -0.2048  0.4590
  403MOL0     C55498   8.851   5.796  11.053  0.1283  0.4732 -0.7870
  403MOL0     C55499   8.971   5.709  11.077 -0.0771  0.0889 -0.2755
  403MOL0     O55500   9.068   5.766  11.172  0.1490  0.3720  0.2569
  403MOL0     C55501   9.161   5.674  11.220 -0.2495 -1.0416  0.6780
  403MOL0     C55502   9.184   5.540  11.176  0.2933  0.4889 -0.0729
  403MOL0     C55503   9.292   5.463  11.217  0.4390 -0.8418 -0.8472
  403MOL0     C55504   9.293   5.322  11.148 -0.5003 -0.1311 -0.1877
  403MOL0     C55505   9.383   5.520  11.316 -1.0433 -0.0592 -0.0914
  403MOL0     C55506   9.506   5.445  11.374  1.6981 -0.2663 -0.1160
  403MOL0     O55507   9.578   5.514  11.463 -0.8066  1.0727 -0.4840
  403MOL0     C55508   9.708   5.474  11.467 -0.3214  0.0712  0.0611
  403MOL0     C55509   9.798   5.519  11.369 -0.8008 -0.6297 -0.6960
  403MOL0     C55510   9.929   5.476  11.371 -1.1288  0.9834  0.0836
  403MOL0     C55511   9.976   5.390  11.477  0.0252 -0.3240  0.5818
  403MOL0     O55512  10.108   5.363  11.475 -0.0344  0.5248  0.4989
  403MOL0     C55513  10.152   5.260  11.567  0.4200  0.1434  0.7968
  403MOL0     C55514  10.297   5.223  11.517 -0.5834 -0.4515 -0.1546
  403MOL0     C55515  10.402   5.241  11.632  0.6159  0.7586  0.2298
  403MOL0     C55516  10.389   5.123  11.733 -0.2103  0.0781 -0.3882
  403MOL0     C55517  10.494   5.141  11.839  0.6104  0.5452 -0.2988
  403MOL0     C55518  10.452   5.048  11.955  1.4549  0.7746  0.3401
  403MOL0     C55519  10.561   5.038  12.052 -0.4833  0.8718 -0.6692
  403MOL0     C55520  10.535   4.948  12.184  0.6802 -1.0058  0.7518
  403MOL0    Cl55521  10.499   4.773  12.149 -0.2410 -0.3262 -0.0587
  403MOL0     C55522   9.883   5.354  11.578 -0.1742 -0.5828 -0.3408
  403MOL0     C55523   9.747   5.389  11.570 -0.3442 -0.1700 -0.0366
  403MOL0     O55524   9.510   5.320  11.366  0.2117  0.1553 -0.1899
  403MOL0     C55525   9.353   5.653  11.369 -0.0667 -0.7477  0.7200
  403MOL0     C55526   9.249   5.730  11.308 -0.1570  0.6221  0.0398
  403MOL0     N55527   8.494   5.850  11.066  0.4014  0.2170  0.1860
  403MOL0     N55528   8.397   5.873  10.980 -0.2667 -0.9641 -0.9728
  403MOL0     C55529   7.746   5.806  10.161  0.5414  1.0215 -0.2365
  403MOL0     C55530   7.683   5.728  10.070  0.4365 -0.8319  0.7467
  403MOL0     C55531   7.458   5.350   9.961  0.5930 -0.3666  0.7197
  403MOL0     C55532   7.354   5.393   9.877 -0.6274 -0.3556  0.1347
  403MOL0     C55533   7.300   5.307   9.777 -0.3397  0.6794 -0.7568
  403MOL0     C55534   7.356   5.181   9.756  1.0139 -0.6049  0.2255
  403MOL0     O55535   7.309   5.091   9.654  0.5296 -1.1705 -0.0961
  403MOL0     C55536   7.210   5.122   9.554 -0.3221 -0.1503 -0.4218
  403MOL0     C55537   7.073   5.090   9.602 -1.0516 -0.6882 -0.4650
  403MOL0     C55538   7.043   4.934   9.605 -0.1664 -1.0532 -0.9595
  403MOL0     C55539   6.893   4.914   9.582  0.5259  0.7118  0.9123
  403MOL0     C55540   6.809   4.951   9.696  0.4861  0.0753  0.1898
  403MOL0     C55541   6.725   4.968   9.782 -0.9072 -0.0214 -0.6943
  403MOL0     C55542   7.456   5.139   9.843 -0.1424  1.0080 -0.0219
  403MOL0     C55543   7.506   5.213   9.946  0.0850 -0.0621  0.0306
  403MOL0     C55544   7.630   5.159  10.017 -0.2820  0.0472 -0.0278
  403MOL0     H55545   7.389   5.686  10.219  0.7017 -1.0448  1.1909
  403MOL0     H55546   7.499   5.829  10.393 -3.7377 -1.6191 -0.7701
  403MOL0     H55547   7.654   5.973  10.547 -0.3458  1.2520  1.2147
  403MOL0     H55548   7.606   6.054  10.396  1.8733  1.7252 -0.9380
  403MOL0     H55549   7.862   6.143  10.408 -0.6938  1.1728 -1.5684
  403MOL0     H55550   7.723   6.224  10.502 -0.1576  0.1108 -0.6568
  403MOL0     H55551   7.900   6.177  10.670  1.2359 -0.5646  1.3653
  403MOL0     H55552   7.766   6.067  10.679  0.3407  0.9218  0.4786
  403MOL0     H55553   7.933   5.908  10.545  2.4304  0.1270 -2.3265
  403MOL0     H55554   8.053   6.028  10.555  0.6071 -2.8594 -0.2363
  403MOL0     H55555   7.924   5.879  10.787 -0.1932 -1.3587 -1.8038
  403MOL0     H55556   8.014   6.028  10.810 -1.6715  0.1166  0.9189
  403MOL0     H55557   8.158   5.860  10.857  2.3843  0.4910 -0.2555
  403MOL0     H55558   8.116   5.770  10.700  2.0281 -0.6462 -0.0321
  403MOL0     H55559   8.242   5.965  10.610 -0.4431 -0.5719 -0.0609
  403MOL0     H55560   8.340   5.847  10.686  0.6687  0.3105  0.0483
  403MOL0     H55561   8.380   6.114  10.747  0.3634  0.1768  1.3262
  403MOL0     H55562   8.252   6.092  10.858  0.0814  2.4658 -2.5691
  403MOL0     H55563   8.576   6.133  10.942 -0.5501 -0.7212 -2.3214
  403MOL0     H55564   8.667   6.031  11.242  3.5628  0.5561  1.9704
  403MOL0     H55565   8.772   6.044  11.097 -2.2213  1.6656 -1.4500
  403MOL0     H55566   8.861   5.866  11.265 -0.7384 -0.6938  1.3778
  403MOL0     H55567   8.717   5.777  11.220 -2.5315  2.0083 -0.1588
  403MOL0     H55568   8.774   5.733  11.007 -1.9482  1.7005  0.8072
  403MOL0     H55569   8.885   5.875  10.985 -0.3737  1.4399  0.0456
  403MOL0     H55570   8.933   5.614  11.115 -2.2305  0.6022 -0.9930
  403MOL0     H55571   9.016   5.686  10.980 -1.6217  0.0002 -0.9974
  403MOL0     H55572   9.120   5.503  11.097  0.1717  1.8979 -0.6498
  403MOL0     H55573   9.376   5.304  11.079 -1.9246  0.4666 -2.1332
  403MOL0     H55574   9.202   5.304  11.091  0.4623  0.8602 -2.1754
  403MOL0     H55575   9.287   5.241  11.221 -0.3409 -1.4635 -1.5957
  403MOL0     H55576   9.766   5.564  11.275 -2.7609  2.8764  1.4458
  403MOL0     H55577  10.000   5.492  11.290  0.0303 -1.7719  0.4344
  403MOL0     H55578  10.155   5.296  11.671  0.2198  2.6752  0.0000
  403MOL0     H55579  10.080   5.178  11.563 -1.6517  1.8584  1.4829
  403MOL0     H55580  10.303   5.123  11.472 -1.1108 -0.0940 -1.0435
  403MOL0     H55581  10.320   5.297  11.441 -2.3609  1.0554  0.6951
  403MOL0     H55582  10.381   5.334  11.684 -0.5609  0.6867 -0.0866
  403MOL0     H55583  10.505   5.241  11.594 -0.1177 -0.1579 -1.9833
  403MOL0     H55584  10.392   5.024  11.686  0.6033 -0.1128  0.0500
  403MOL0     H55585  10.292   5.127  11.784 -0.0378  0.9632 -0.1110
  403MOL0     H55586  10.593   5.112  11.801  1.5449 -0.9291  2.8772
  403MOL0     H55587  10.493   5.248  11.862  1.3933  0.4518  0.2203
  403MOL0     H55588  10.423   4.951  11.914  2.7385 -0.0265  1.2659
  403MOL0     H55589  10.360   5.085  12.001  1.0463 -2.7119  2.7113
  403MOL0     H55590  10.583   5.142  12.078 -1.7736  1.8164 -3.0278
  403MOL0     H55591  10.651   5.003  12.001  0.3515 -0.8224  1.7644
  403MOL0     H55592  10.442   4.988  12.226  1.5004 -1.1997  2.8837
  403MOL0     H55593  10.622   4.943  12.250  0.8801 -0.7562  0.5102
  403MOL0     H55594   9.919   5.306  11.669  1.5493 -1.2276 -1.3175
  403MOL0     H55595   9.673   5.354  11.641 -1.3792  1.0794 -0.4568
  403MOL0     H55596   9.413   5.709  11.439 -0.0063  3.0289 -2.0686
  403MOL0     H55597   9.224   5.830  11.340 -0.7031  1.0705 -1.6558
  403MOL0     H55598   7.843   5.853  10.145  2.1904 -1.6266  1.3435
  403MOL0     H55599   7.742   5.697   9.984  0.0224 -1.6332  0.7480
  403MOL0     H55600   7.311   5.492   9.887  0.8619  0.4029 -0.5323
  403MOL0     H55601   7.216   5.336   9.714  0.6287  1.1624 -1.8729
  403MOL0     H55602   7.203   5.229   9.533  4.2229  0.8851  1.9485
  403MOL0     H55603   7.225   5.060   9.465  0.2772 -0.3103 -0.2195
  403MOL0     H55604   7.011   5.137   9.525  0.2721  2.1953  0.1208
  403MOL0     H55605   7.046   5.127   9.701  0.3522 -1.2603  0.1623
  403MOL0     H55606   7.104   4.881   9.530 -0.5384 -5.2467  1.4050
  403MOL0     H55607   7.079   4.892   9.699  1.5638  1.0142 -0.6280
  403MOL0     H55608   6.877   4.806   9.570  0.2890  0.9611 -1.9065
  403MOL0     H55609   6.852   4.953   9.488 -0.7634  2.7050  2.2544
  403MOL0     H55610   6.656   4.992   9.861  0.9854 -2.0377  1.7439
  403MOL0     H55611   7.504   5.044   9.820 -1.1274  0.8310 -1.5113
  403MOL0     H55612   7.627   5.050  10.014  1.5354 -0.0215 -0.0133
  403MOL0     H55613   7.718   5.200   9.968  0.0654  1.0558  1.3878
  403MOL0     H55614   7.623   5.179  10.125 -1.4311  0.8798 -0.2368
  404MOL0     O55615   5.662   1.741   2.616 -0.0585  0.6169 -0.3636
  404MOL0     C55616   5.616   1.662   2.531 -0.0813  0.4857 -0.5269
  404MOL0     O55617   5.696   1.606   2.423  0.5424 -0.3430 -0.7527
  404MOL0     C55618   5.826   1.640   2.425 -0.0783  0.3699  0.4267
  404MOL0     C55619   5.905   1.537   2.478 -0.9502 -1.2864 -0.4713
  404MOL0     C55620   6.047   1.569   2.487 -0.3896 -0.1123  0.6748
  404MOL0     C55621   6.106   1.688   2.437 -0.2198 -0.4125  1.2226
  404MOL0     O55622   6.242   1.714   2.436 -0.8193  0.2667  0.3980
  404MOL0     C55623   6.336   1.604   2.442 -0.1514 -0.4208  0.5950
  404MOL0     C55624   6.473   1.655   2.408  0.3518  0.2657  0.2253
  404MOL0     C55625   6.582   1.540   2.394 -0.3094 -0.2364 -0.5707
  404MOL0     C55626   6.705   1.603   2.337 -0.3389  0.1088 -0.1355
  404MOL0     C55627   6.825   1.505   2.326  0.8797 -1.5699  0.1261
  404MOL0     C55628   6.948   1.585   2.284  0.8768  0.1341 -0.1789
  404MOL0     C55629   7.081   1.512   2.269  0.4388 -0.9599 -0.3419
  404MOL0     C55630   7.141   1.475   2.397  0.3872  0.1122  1.1099
  404MOL0     N55631   7.273   1.423   2.379 -0.9546 -0.3994 -0.1898
  404MOL0     C55632   7.387   1.497   2.351 -0.9817 -0.0103 -0.1139
  404MOL0     C55633   7.475   1.409   2.315  0.3238  0.1280 -1.0326
  404MOL0     C55634   7.610   1.443   2.279  0.1998  0.0801 -0.1387
  404MOL0     C55635   7.710   1.466   2.393 -0.7568  0.0064  0.5231
  404MOL0     C55636   7.855   1.471   2.329  0.1157  0.2762  0.2724
  404MOL0     C55637   7.966   1.501   2.425  0.3445  0.1985 -0.6731
  404MOL0     O55638   8.084   1.504   2.351  0.3699 -0.0148 -0.4631
  404MOL0     C55639   8.200   1.499   2.421  0.4517  1.1742 -0.6510
  404MOL0     C55640   8.310   1.468   2.344 -0.0288  0.1938  0.0294
  404MOL0     C55641   8.439   1.439   2.406 -1.1785  0.1527 -0.2756
  404MOL0     C55642   8.545   1.397   2.310 -1.3099 -0.2503 -0.6929
  404MOL0     C55643   8.452   1.464   2.541  0.6090 -0.2231 -0.4632
  404MOL0     C55644   8.572   1.424   2.627 -0.2548  0.8197 -0.6948
  404MOL0     O55645   8.561   1.453   2.760  1.0531 -0.4520 -0.2722
  404MOL0     C55646   8.668   1.429   2.849  0.0190 -0.5162  0.7251
  404MOL0     C55647   8.649   1.502   2.966  0.1832  1.4502  0.3686
  404MOL0     C55648   8.751   1.495   3.065  0.7119 -0.7507  0.3855
  404MOL0     C55649   8.871   1.424   3.051 -0.6564  0.1587  0.1166
  404MOL0     O55650   8.970   1.413   3.149  0.7883 -0.1775  0.2876
  404MOL0     C55651   9.100   1.369   3.127 -0.6950 -1.4724 -0.2370
  404MOL0     C55652   9.187   1.405   3.249 -0.1832  0.0558  0.1909
  404MOL0     C55653   9.338   1.372   3.229  0.3510  0.1717 -1.1861
  404MOL0     C55654   9.414   1.376   3.357  0.2925  0.4318 -0.4167
  404MOL0     C55655   9.561   1.326   3.341 -0.1352  0.2099 -0.6067
  404MOL0     C55656   9.640   1.340   3.468  0.0860  1.0480  0.1410
  404MOL0     C55657   9.784   1.303   3.430 -0.3279 -0.2320  0.2733
  404MOL0     C55658   9.871   1.283   3.558 -0.0688  0.2253 -0.5226
  404MOL0    Cl55659   9.821   1.145   3.660 -0.2784 -0.2113  0.0635
  404MOL0     C55660   8.888   1.365   2.924  0.4616 -0.0048 -0.0493
  404MOL0     C55661   8.786   1.356   2.827  0.6449  0.3286 -0.4833
  404MOL0     O55662   8.676   1.393   2.567 -0.1238  0.2346 -0.1490
  404MOL0     C55663   8.335   1.506   2.612  1.0119 -0.1137  0.1655
  404MOL0     C55664   8.211   1.526   2.555 -0.0935 -0.0427  0.8473
  404MOL0     N55665   7.419   1.283   2.335  0.2902 -0.1598 -0.3243
  404MOL0     N55666   7.294   1.289   2.354  0.1997  0.0767  0.3351
  404MOL0     C55667   6.013   1.785   2.381  0.6068 -0.0968 -0.1431
  404MOL0     C55668   5.879   1.764   2.376 -0.1691 -0.0404  0.3701
  404MOL0     C55669   5.471   1.612   2.526 -0.5176  0.3821  0.1605
  404MOL0     C55670   5.439   1.538   2.412 -0.1598 -0.4508  0.2044
  404MOL0     C55671   5.307   1.497   2.391 -0.2659  0.4906 -0.0852
  404MOL0     C55672   5.204   1.524   2.482 -0.1243  0.2555  0.5335
  404MOL0     O55673   5.080   1.469   2.456  0.1499 -0.0280  0.2985
  404MOL0     C55674   4.971   1.534   2.523 -0.0117 -0.0167 -0.4238
  404MOL0     C55675   4.844   1.467   2.483  0.6657  0.0181 -0.1846
  404MOL0     C55676   4.801   1.502   2.336  0.3995  0.5701  0.5859
  404MOL0     C55677   4.723   1.384   2.275  0.4760  0.2004  0.6805
  404MOL0     C55678   4.594   1.370   2.337 -0.3916  0.1349 -1.2067
  404MOL0     C55679   4.493   1.365   2.407  0.2463  0.2527  0.1953
  404MOL0     C55680   5.238   1.607   2.588 -0.2823 -0.9210 -0.3439
  404MOL0     C55681   5.373   1.640   2.619  0.2839 -0.6714 -0.7436
  404MOL0     C55682   5.405   1.701   2.754 -0.3603 -0.4334  0.6691
  404MOL0     H55683   5.874   1.440   2.514  1.4057 -2.2444 -0.8107
  404MOL0     H55684   6.114   1.494   2.528  1.5256 -0.1424 -2.2365
  404MOL0     H55685   6.310   1.531   2.365  2.3960  0.5473 -1.3291
  404MOL0     H55686   6.327   1.565   2.544 -0.1690 -0.1051  0.7170
  404MOL0     H55687   6.463   1.714   2.316 -2.5275  2.1292  1.5832
  404MOL0     H55688   6.499   1.719   2.493 -1.9583 -0.2899  1.4381
  404MOL0     H55689   6.597   1.494   2.492 -1.4540  1.5826  0.5094
  404MOL0     H55690   6.550   1.463   2.323 -1.0992  0.8802 -1.4615
  404MOL0     H55691   6.680   1.649   2.240  1.4285  1.6367  0.0856
  404MOL0     H55692   6.737   1.686   2.400 -0.2135 -1.4676  1.9783
  404MOL0     H55693   6.798   1.429   2.251  1.4616 -2.2853  0.6310
  404MOL0     H55694   6.832   1.463   2.426 -1.3405  3.1116  2.5842
  404MOL0     H55695   6.930   1.625   2.184 -0.3756 -1.7632 -0.7575
  404MOL0     H55696   6.974   1.662   2.357  3.1596 -1.4742  0.8344
  404MOL0     H55697   7.141   1.593   2.228  0.5751 -0.7254  0.3054
  404MOL0     H55698   7.072   1.428   2.200 -0.3177 -1.4611  0.3390
  404MOL0     H55699   7.158   1.568   2.451  0.8374 -0.1890  1.4954
  404MOL0     H55700   7.068   1.413   2.450 -1.1339 -0.4510 -1.4739
  404MOL0     H55701   7.405   1.601   2.325 -0.5289 -0.1028 -0.1695
  404MOL0     H55702   7.607   1.536   2.222  0.3354  2.1498  2.9528
  404MOL0     H55703   7.648   1.360   2.218 -0.1462 -0.7436  0.7268
  404MOL0     H55704   7.694   1.562   2.443  0.5786 -0.1109  1.2390
  404MOL0     H55705   7.714   1.389   2.470  0.0686 -1.3224 -0.7989
  404MOL0     H55706   7.875   1.375   2.282 -0.5777  0.5591 -0.6296
  404MOL0     H55707   7.858   1.546   2.249  0.0900 -0.1156 -0.0974
  404MOL0     H55708   7.939   1.587   2.487 -1.4605 -3.4705  4.3244
  404MOL0     H55709   7.980   1.414   2.491  2.8697  1.1555  0.1952
  404MOL0     H55710   8.290   1.449   2.239 -2.1148 -1.3268  0.6243
  404MOL0     H55711   8.512   1.443   2.216  1.3710  0.5316 -1.3328
  404MOL0     H55712   8.561   1.290   2.299  0.7442 -0.4770  2.9760
  404MOL0     H55713   8.646   1.431   2.333  0.3034 -3.9726 -1.5354
  404MOL0     H55714   8.557   1.557   2.982  0.1998  0.8588  2.9403
  404MOL0     H55715   8.742   1.564   3.148 -0.4040  2.0863 -1.8759
  404MOL0     H55716   9.090   1.263   3.105  1.1264 -1.4177 -1.5783
  404MOL0     H55717   9.141   1.424   3.042  1.7337  0.7866  2.1904
  404MOL0     H55718   9.177   1.510   3.278 -2.1053  0.5510 -1.9670
  404MOL0     H55719   9.160   1.340   3.332 -1.0295  1.8282  1.3717
  404MOL0     H55720   9.378   1.441   3.155 -0.9094  4.1024  1.5018
  404MOL0     H55721   9.349   1.268   3.195  1.1777  0.6563 -2.4244
  404MOL0     H55722   9.358   1.313   3.427 -0.5964 -0.8757 -2.2171
  404MOL0     H55723   9.412   1.472   3.410  2.1313  0.5490 -0.4877
  404MOL0     H55724   9.559   1.218   3.329 -1.0480 -0.2731  2.7330
  404MOL0     H55725   9.614   1.372   3.258  2.0327 -0.0491  0.5755
  404MOL0     H55726   9.602   1.262   3.534  0.4122  0.7643 -0.0032
  404MOL0     H55727   9.634   1.437   3.519 -3.8666  0.9570  0.1557
  404MOL0     H55728   9.828   1.372   3.357  0.3739  1.2558  2.0242
  404MOL0     H55729   9.792   1.205   3.381 -0.1111  0.1174 -0.4064
  404MOL0     H55730   9.864   1.375   3.618 -2.3576 -0.5178  0.4275
  404MOL0     H55731   9.974   1.259   3.528 -0.5583 -1.6896 -0.7331
  404MOL0     H55732   8.977   1.308   2.899  2.1388  1.1746  2.7907
  404MOL0     H55733   8.797   1.288   2.743  1.1139  0.1938 -0.3177
  404MOL0     H55734   8.343   1.528   2.718 -1.0102  2.2765 -0.0691
  404MOL0     H55735   8.122   1.552   2.611 -1.7431  0.3261 -1.8088
  404MOL0     H55736   6.054   1.878   2.344  1.1015 -0.3849 -0.3212
  404MOL0     H55737   5.826   1.848   2.333  0.0573  1.3703  2.7020
  404MOL0     H55738   5.513   1.515   2.336  0.8939  2.5786  0.1635
  404MOL0     H55739   5.287   1.437   2.303  0.4062 -2.2531  1.4847
  404MOL0     H55740   4.975   1.542   2.632 -0.6321  4.3088 -0.5432
  404MOL0     H55741   4.957   1.639   2.495 -2.0191 -0.2645 -0.4892
  404MOL0     H55742   4.760   1.501   2.544 -1.0024  0.0939 -2.3656
  404MOL0     H55743   4.867   1.361   2.492  0.7941 -0.0451 -1.0817
  404MOL0     H55744   4.744   1.594   2.324  1.8977  1.6832  1.6415
  404MOL0     H55745   4.896   1.507   2.283  0.1655  0.6630  0.1796
  404MOL0     H55746   4.766   1.285   2.287 -2.8013 -1.8581 -2.4553
  404MOL0     H55747   4.698   1.399   2.169 -1.2229  0.5836  1.1070
  404MOL0     H55748   4.398   1.361   2.457  1.0178 -1.2873  1.6241
  404MOL0     H55749   5.169   1.661   2.652  0.2692 -2.0916  1.2841
  404MOL0     H55750   5.499   1.671   2.801 -0.0701  0.5936  0.7675
  404MOL0     H55751   5.389   1.808   2.764 -1.8316 -0.6691  1.0633
  404MOL0     H55752   5.326   1.663   2.820 -1.5128 -0.2847 -0.5775
  405MOL0     O55753   1.503  10.636  11.219 -0.4744 -0.5123  0.7652
  405MOL0     C55754   1.598  10.565  11.178 -0.3510 -0.1941  1.1324
  405MOL0     O55755   1.645  10.452  11.236 -0.0569  0.4065 -0.0409
  405MOL0     C55756   1.555  10.392  11.320 -0.3386 -0.0337  0.2698
  405MOL0     C55757   1.557  10.433  11.458 -0.0066 -0.0243 -0.4224
  405MOL0     C55758   1.466  10.366  11.541 -0.5761  0.9454 -0.4879
  405MOL0     C55759   1.385  10.265  11.496 -0.3728 -0.0726 -0.3842
  405MOL0     O55760   1.309  10.206  11.593  0.5604 -0.1469 -0.6402
  405MOL0     C55761   1.175  10.170  11.560 -0.0588 -0.1606 -0.7621
  405MOL0     C55762   1.105  10.138  11.692  0.1907 -0.4477 -0.2849
  405MOL0     C55763   1.176  10.041  11.791 -0.0249  0.0506  0.4752
  405MOL0     C55764   1.193   9.898  11.740  0.2137 -0.3622  0.3008
  405MOL0     C55765   1.267   9.817  11.841  0.1027  0.4147 -0.6667
  405MOL0     C55766   1.266   9.668  11.801 -0.1039 -0.2187 -0.1946
  405MOL0     C55767   1.372   9.584  11.874 -0.1903  0.0952 -0.6152
  405MOL0     C55768   1.364   9.435  11.834 -0.6799 -0.5133  0.3508
  405MOL0     N55769   1.447   9.357  11.929 -0.9059 -0.4490  0.3610
  405MOL0     C55770   1.586   9.349  11.926 -0.1597 -0.9001  0.1195
  405MOL0     C55771   1.613   9.249  12.017 -0.2162 -0.8264  0.1267
  405MOL0     C55772   1.744   9.188  12.047 -1.1009  0.0611  1.1113
  405MOL0     C55773   1.839   9.282  12.126  0.0032  1.0327 -0.0365
  405MOL0     C55774   1.887   9.407  12.057 -0.6801  0.4159  0.5587
  405MOL0     C55775   1.807   9.530  12.117 -0.2335  0.2428 -0.7207
  405MOL0     O55776   1.816   9.638  12.023 -0.4585  0.4116 -0.1053
  405MOL0     C55777   1.780   9.764  12.070 -0.8666  0.2520  0.1493
  405MOL0     C55778   1.867   9.877  12.076  1.3993  1.1402  0.1298
  405MOL0     C55779   1.822   9.997  12.138 -0.4731 -0.3571 -0.0354
  405MOL0     C55780   1.922  10.115  12.147 -0.4931  0.1331 -1.2466
  405MOL0     C55781   1.689  10.006  12.192 -0.8678 -0.2512  0.0071
  405MOL0     C55782   1.647  10.118  12.267  1.0601  0.2805 -0.2208
  405MOL0     O55783   1.641  10.091  12.399 -0.7888  0.7272 -0.0413
  405MOL0     C55784   1.625  10.179  12.501  0.0436  1.0313 -1.1013
  405MOL0     C55785   1.635  10.320  12.488 -0.6632 -0.2591 -0.0907
  405MOL0     C55786   1.648  10.398  12.607 -0.0612  0.0584 -0.0474
  405MOL0     C55787   1.619  10.339  12.733 -0.2580 -0.1984 -0.4320
  405MOL0     O55788   1.630  10.424  12.840  0.7636  0.5792  0.0742
  405MOL0     C55789   1.645  10.366  12.961  0.2603 -0.2610 -0.2312
  405MOL0     C55790   1.680  10.470  13.073 -0.0410  0.3772 -0.3121
  405MOL0     C55791   1.539  10.504  13.132 -0.5516 -0.4033 -0.3108
  405MOL0     C55792   1.547  10.558  13.280 -0.6406  0.7450  0.2045
  405MOL0     C55793   1.418  10.602  13.340 -0.4980  0.1661 -0.7474
  405MOL0     C55794   1.418  10.701  13.458  0.3775  1.2209 -0.1962
  405MOL0     C55795   1.276  10.738  13.497 -0.2618 -0.7420  0.3974
  405MOL0     C55796   1.282  10.864  13.594 -0.0635 -0.0964  0.1073
  405MOL0    Cl55797   1.343  10.814  13.752  0.0266 -0.1480  0.3483
  405MOL0     C55798   1.586  10.198  12.743  0.2739 -0.9124  0.2080
  405MOL0     C55799   1.600  10.119  12.628  0.4909 -0.6920  0.1293
  405MOL0     O55800   1.606  10.213  12.212  0.0196  0.7223 -0.6234
  405MOL0     C55801   1.604   9.897  12.177 -0.4436 -0.3463 -0.3985
  405MOL0     C55802   1.648   9.783  12.119  0.2105 -0.2330  0.0078
  405MOL0     N55803   1.496   9.206  12.068 -0.5383  0.3791 -0.1878
  405MOL0     N55804   1.399   9.271  12.022 -0.2235 -0.4258  0.1949
  405MOL0     C55805   1.388  10.234  11.364 -0.8727 -0.6090 -0.6058
  405MOL0     C55806   1.473  10.294  11.270 -0.4820 -0.5257  0.0850
  405MOL0     C55807   1.659  10.608  11.050 -0.4519  0.0875  0.0246
  405MOL0     C55808   1.785  10.670  11.056  0.4081  0.1817  0.0897
  405MOL0     C55809   1.852  10.726  10.943  0.1850  0.2657 -0.0966
  405MOL0     C55810   1.797  10.696  10.817 -0.2376 -0.3434  0.3520
  405MOL0     O55811   1.855  10.730  10.705  0.5323 -0.6967  0.6681
  405MOL0     C55812   1.995  10.720  10.690  0.1182 -0.2656 -0.2263
  405MOL0     C55813   2.032  10.725  10.542 -0.1273 -0.2970 -0.8719
  405MOL0     C55814   1.968  10.855  10.470 -0.3661  0.2150 -0.4271
  405MOL0     C55815   2.006  10.985  10.537 -0.9216  0.5890 -0.4677
  405MOL0     C55816   1.939  11.090  10.461  0.2886 -0.2545  0.3059
  405MOL0     C55817   1.883  11.187  10.411  0.0661 -0.7459 -0.3900
  405MOL0     C55818   1.669  10.640  10.812  0.5183  0.6093  0.0715
  405MOL0     C55819   1.597  10.601  10.931  0.6061  0.0411  1.1680
  405MOL0     C55820   1.471  10.524  10.896  0.2033 -0.0490 -0.1609
  405MOL0     H55821   1.624  10.511  11.493  1.9894 -1.0704 -1.6699
  405MOL0     H55822   1.468  10.386  11.648 -0.9498 -3.3381  0.5172
  405MOL0     H55823   1.176  10.089  11.487 -1.3234 -1.1340  0.2580
  405MOL0     H55824   1.128  10.257  11.513 -0.3841  0.6836  1.0484
  405MOL0     H55825   1.084  10.237  11.733 -0.0648  0.0421 -1.5474
  405MOL0     H55826   1.003  10.106  11.670  0.1857 -0.9373  0.4395
  405MOL0     H55827   1.269  10.084  11.828  0.4085 -0.3419 -0.1360
  405MOL0     H55828   1.108  10.023  11.875 -0.3704  0.8695  0.3814
  405MOL0     H55829   1.096   9.864  11.700  1.4915  0.2304 -3.7809
  405MOL0     H55830   1.266   9.896  11.659  2.5123  1.1085  2.2403
  405MOL0     H55831   1.221   9.827  11.940 -0.8302 -0.9363 -0.9363
  405MOL0     H55832   1.372   9.846  11.849  1.0105 -2.9193  1.2139
  405MOL0     H55833   1.167   9.623  11.816  1.4930 -3.7038  0.8219
  405MOL0     H55834   1.285   9.661  11.693  1.2556 -0.2150  0.0297
  405MOL0     H55835   1.346   9.594  11.980 -2.0640 -0.0001 -1.0250
  405MOL0     H55836   1.471   9.626  11.855  1.2373 -1.3204  2.9143
  405MOL0     H55837   1.261   9.401  11.844 -0.6759 -0.9197 -0.8170
  405MOL0     H55838   1.395   9.423  11.730  0.9085  1.7738  0.4914
  405MOL0     H55839   1.660   9.410  11.874 -1.9036  2.0497  0.8480
  405MOL0     H55840   1.789   9.166  11.950  2.8984 -0.5459  2.8908
  405MOL0     H55841   1.712   9.097  12.099 -0.6823 -1.2908 -0.9018
  405MOL0     H55842   1.790   9.315  12.218  0.9060  2.4752 -0.0455
  405MOL0     H55843   1.926   9.219  12.148  2.0332  3.3270 -1.1278
  405MOL0     H55844   1.995   9.404  12.073 -0.0523 -1.5307 -3.1169
  405MOL0     H55845   1.868   9.413  11.950 -0.1780  2.8441  0.5416
  405MOL0     H55846   1.702   9.502  12.129  0.0589 -0.4864  0.2130
  405MOL0     H55847   1.848   9.552  12.216 -1.8882  0.9700 -0.1471
  405MOL0     H55848   1.973   9.863  12.059  1.2727 -0.3994  0.4369
  405MOL0     H55849   1.932  10.154  12.248 -0.3416 -4.4186  0.7241
  405MOL0     H55850   1.888  10.194  12.079 -4.8459 -1.5964 -1.4032
  405MOL0     H55851   2.023  10.089  12.112 -0.6055 -2.2051 -0.0135
  405MOL0     H55852   1.640  10.371  12.393  0.9026  2.1160  1.1686
  405MOL0     H55853   1.672  10.503  12.600 -1.7006  0.5247  0.7232
  405MOL0     H55854   1.568  10.301  13.002  0.8194 -0.6165  0.2802
  405MOL0     H55855   1.731  10.298  12.951  0.7435  0.2884  0.1096
  405MOL0     H55856   1.741  10.423  13.150 -1.9860  1.0118  1.7448
  405MOL0     H55857   1.727  10.558  13.028 -2.5626  1.3150 -1.3137
  405MOL0     H55858   1.475  10.416  13.140  1.1107 -1.5079  1.8014
  405MOL0     H55859   1.492  10.584  13.074 -0.3175 -0.6196 -0.8032
  405MOL0     H55860   1.623  10.637  13.281  1.0085 -0.7535 -1.0242
  405MOL0     H55861   1.595  10.476  13.335  0.0255 -1.2475 -3.0634
  405MOL0     H55862   1.360  10.659  13.268 -0.3344  4.1855  1.9482
  405MOL0     H55863   1.354  10.516  13.362  0.1294  0.4181  2.7416
  405MOL0     H55864   1.470  10.794  13.430 -0.2116  0.6409 -3.6401
  405MOL0     H55865   1.466  10.650  13.543 -0.8665  1.4894  0.7014
  405MOL0     H55866   1.228  10.649  13.538 -1.0315 -0.3327  0.3963
  405MOL0     H55867   1.214  10.758  13.410  1.1685 -3.1930 -1.3063
  405MOL0     H55868   1.183  10.909  13.596  0.4507  1.2086 -1.5019
  405MOL0     H55869   1.342  10.941  13.545 -1.1926 -0.0943 -1.3279
  405MOL0     H55870   1.553  10.152  12.835  2.2215 -1.3443  0.7542
  405MOL0     H55871   1.582  10.012  12.628 -0.8784 -0.5355  2.5716
  405MOL0     H55872   1.499   9.914  12.201  0.1776 -0.9377  3.3523
  405MOL0     H55873   1.577   9.703  12.139 -0.9001  1.2649  2.5127
  405MOL0     H55874   1.317  10.155  11.338 -1.7831 -0.0023 -0.0564
  405MOL0     H55875   1.454  10.281  11.163 -0.0288  2.3596 -0.4333
  405MOL0     H55876   1.845  10.682  11.146 -1.0650 -2.0220  1.4518
  405MOL0     H55877   1.958  10.750  10.945  0.4286 -0.7622 -0.1226
  405MOL0     H55878   2.048  10.803  10.737  3.1549 -0.8506 -2.3479
  405MOL0     H55879   2.041  10.631  10.735  2.7176  1.8009  1.4851
  405MOL0     H55880   1.991  10.633  10.499 -3.4962  0.2133  0.8697
  405MOL0     H55881   2.141  10.726  10.534 -0.1103 -2.2726 -1.5391
  405MOL0     H55882   1.993  10.858  10.364 -1.0582 -4.5168 -0.9194
  405MOL0     H55883   1.860  10.840  10.480 -0.2564 -2.2110 -2.1916
  405MOL0     H55884   2.112  10.994  10.511 -0.6459  0.0684  0.4407
  405MOL0     H55885   1.983  10.997  10.643  1.1882  3.5418 -0.2129
  405MOL0     H55886   1.845  11.280  10.374  0.6919 -0.5945 -0.6634
  405MOL0     H55887   1.622  10.619  10.716 -0.2083  1.2597  0.2699
  405MOL0     H55888   1.424  10.556  10.802  1.7339 -0.3382 -1.0600
  405MOL0     H55889   1.505  10.422  10.878 -0.5166 -0.3377  0.0657
  405MOL0     H55890   1.401  10.538  10.979  2.9419  1.1001  2.0954
  406MOL0     O55891   2.864  10.596   5.064  0.1876  0.4017 -0.1035
  406MOL0     C55892   2.764  10.596   4.993  0.3298 -0.5695 -0.2950
  406MOL0     O55893   2.760  10.649   4.862  0.1322 -0.2834 -0.4144
  406MOL0     C55894   2.876  10.703   4.810  0.2897 -0.0893 -0.2059
  406MOL0     C55895   2.909  10.653   4.692  0.4048 -1.2550  0.4017
  406MOL0     C55896   3.005  10.717   4.615 -0.3760  0.2756  0.5508
  406MOL0     C55897   3.073  10.831   4.660  0.4199  0.6098 -0.4957
  406MOL0     O55898   3.179  10.889   4.591  0.0821 -0.1443 -0.4761
  406MOL0     C55899   3.284  10.810   4.536  0.9205 -0.3415 -1.0462
  406MOL0     C55900   3.395  10.902   4.497 -0.0082  0.4296 -0.0389
  406MOL0     C55901   3.486  10.824   4.407  0.1551  0.6203  0.3344
  406MOL0     C55902   3.628  10.897   4.387  0.1780 -0.1704  1.3067
  406MOL0     C55903   3.705  10.825   4.266 -0.1164 -0.8778 -0.5707
  406MOL0     C55904   3.737  10.674   4.284  0.0168  0.2659  0.0903
  406MOL0     C55905   3.787  10.624   4.148 -0.1725  1.3973 -0.4620
  406MOL0     C55906   3.797  10.467   4.161 -0.3353 -0.0269  0.4217
  406MOL0     N55907   3.902  10.431   4.257  0.1963 -0.1124 -0.5017
  406MOL0     C55908   4.034  10.462   4.260  0.1383  0.2454 -0.6536
  406MOL0     C55909   4.088  10.423   4.379  0.4284 -0.0327  0.3824
  406MOL0     C55910   4.222  10.401   4.442 -0.0914 -1.0622  0.8051
  406MOL0     C55911   4.298  10.284   4.382  0.6709  0.3153 -0.1069
  406MOL0     C55912   4.248  10.156   4.447 -0.1385 -0.0662  0.1521
  406MOL0     C55913   4.351  10.046   4.424  0.5646  0.6341 -0.0140
  406MOL0     O55914   4.468  10.070   4.507 -0.3940  0.5131  0.3402
  406MOL0     C55915   4.578  10.067   4.427  0.7150  0.0259  0.2267
  406MOL0     C55916   4.616   9.941   4.369  0.0881  0.4112 -0.3369
  406MOL0     C55917   4.732   9.939   4.293 -0.2775  0.8301 -0.4828
  406MOL0     C55918   4.755   9.800   4.233  0.5168 -0.2875  0.3811
  406MOL0     C55919   4.797  10.063   4.259  0.5148 -0.1110  0.4832
  406MOL0     C55920   4.905  10.069   4.147  0.0122  0.0631 -0.9814
  406MOL0     O55921   4.929  10.195   4.108 -0.4189  0.2500 -0.4035
  406MOL0     C55922   5.023  10.235   4.018  0.1571  0.7543  0.3327
  406MOL0     C55923   5.085  10.148   3.920  0.0787 -0.2554  0.1070
  406MOL0     C55924   5.173  10.193   3.827 -0.3565  0.4834 -0.1380
  406MOL0     C55925   5.190  10.335   3.818 -0.3128  1.2989 -0.4449
  406MOL0     O55926   5.274  10.385   3.724  0.4757 -0.1803 -0.2221
  406MOL0     C55927   5.352  10.510   3.752 -0.2695  0.0430 -0.2637
  406MOL0     C55928   5.489  10.507   3.698  0.0175  0.9077  0.2288
  406MOL0     C55929   5.554  10.643   3.726  0.4260  0.5820 -0.3673
  406MOL0     C55930   5.690  10.629   3.665 -0.4682  0.2466 -0.6778
  406MOL0     C55931   5.762  10.761   3.659  0.0945 -0.0894  0.9062
  406MOL0     C55932   5.915  10.756   3.665 -0.3609  0.0357  0.1371
  406MOL0     C55933   5.983  10.850   3.565 -0.1186  0.8528  0.1025
  406MOL0     C55934   6.126  10.897   3.614  0.1568  0.7376  1.0639
  406MOL0    Cl55935   6.223  10.745   3.619 -0.5036  0.0587  0.4291
  406MOL0     C55936   5.128  10.427   3.898  0.4388  0.0235  0.1007
  406MOL0     C55937   5.043  10.377   3.995  0.1640 -0.4384 -0.6823
  406MOL0     O55938   4.976   9.969   4.128 -0.3415 -0.2896 -0.1988
  406MOL0     C55939   4.761  10.186   4.318 -0.9894  0.8153 -0.8162
  406MOL0     C55940   4.654  10.183   4.401 -0.3184  0.1670 -0.7898
  406MOL0     N55941   3.985  10.367   4.454 -0.5589 -0.3706  0.6509
  406MOL0     N55942   3.872  10.368   4.380 -0.3928 -0.2542 -0.4480
  406MOL0     C55943   3.025  10.892   4.769 -0.0862  0.2563  0.4479
  406MOL0     C55944   2.928  10.831   4.850  0.8164 -0.9064 -0.3702
  406MOL0     C55945   2.636  10.541   5.045  0.4362  1.2509 -0.5603
  406MOL0     C55946   2.619  10.530   5.186  0.0047  0.3327 -0.6169
  406MOL0     C55947   2.497  10.485   5.244 -0.3264 -0.3258 -0.5133
  406MOL0     C55948   2.387  10.441   5.163 -0.4252  0.2464 -0.9787
  406MOL0     O55949   2.268  10.404   5.199 -0.1502  0.3177 -0.4342
  406MOL0     C55950   2.262  10.314   5.314  0.4313  0.2822  0.1622
  406MOL0     C55951   2.302  10.168   5.279  0.0774 -0.1160 -0.7837
  406MOL0     C55952   2.254  10.121   5.140 -0.0199  0.0671 -0.4885
  406MOL0     C55953   2.105  10.076   5.130 -0.5340 -0.4515  0.6217
  406MOL0     C55954   2.071  10.035   4.995 -0.0118 -1.0890 -0.3283
  406MOL0     C55955   2.033  10.000   4.887 -0.2351  0.1661 -0.5194
  406MOL0     C55956   2.409  10.446   5.021 -0.5794  0.2289 -0.4089
  406MOL0     C55957   2.525  10.488   4.965 -0.1033 -0.4395 -1.0186
  406MOL0     C55958   2.540  10.477   4.813 -0.4610 -0.2898 -0.6351
  406MOL0     H55959   2.850  10.568   4.659  1.2855 -1.2579 -1.2960
  406MOL0     H55960   3.031  10.678   4.517 -2.2832 -1.7431  0.7717
  406MOL0     H55961   3.248  10.761   4.445 -3.0462 -2.0510  1.1743
  406MOL0     H55962   3.308  10.725   4.601 -0.3241 -0.4550 -0.7094
  406MOL0     H55963   3.364  10.998   4.455  0.6273  0.5459 -0.2592
  406MOL0     H55964   3.450  10.922   4.589 -2.0821 -0.2522  1.4226
  406MOL0     H55965   3.502  10.721   4.439 -1.2340  0.3786  0.3434
  406MOL0     H55966   3.440  10.802   4.310 -0.1941  0.6050  0.4993
  406MOL0     H55967   3.612  11.001   4.357 -0.9678 -0.3844  1.1204
  406MOL0     H55968   3.685  10.891   4.480  2.5209  0.9285  0.0261
  406MOL0     H55969   3.803  10.868   4.242  0.0627 -0.7954  0.2991
  406MOL0     H55970   3.645  10.835   4.175 -0.8143 -0.6531 -0.0886
  406MOL0     H55971   3.806  10.664   4.368 -0.2767 -4.1763 -0.0018
  406MOL0     H55972   3.644  10.620   4.302  0.3274 -0.9304 -1.7249
  406MOL0     H55973   3.879  10.678   4.127  0.5767  0.9075  1.3224
  406MOL0     H55974   3.709  10.636   4.073 -3.4091 -0.3972  2.2879
  406MOL0     H55975   3.711  10.410   4.197  0.5043 -1.4809  0.1767
  406MOL0     H55976   3.827  10.428   4.064 -2.0637 -0.1779 -0.0831
  406MOL0     H55977   4.094  10.500   4.178  1.2207 -1.3197 -0.6209
  406MOL0     H55978   4.230  10.387   4.550 -0.2247  0.0850  0.9827
  406MOL0     H55979   4.286  10.487   4.418 -3.9112  1.6120 -0.7874
  406MOL0     H55980   4.273  10.277   4.276 -1.6653 -4.1820  0.5423
  406MOL0     H55981   4.401  10.304   4.412  1.4756 -3.4042 -0.0309
  406MOL0     H55982   4.235  10.170   4.555 -0.1216  2.7535 -0.1461
  406MOL0     H55983   4.160  10.125   4.389 -0.6052  1.4954 -0.0273
  406MOL0     H55984   4.308   9.949   4.449 -0.9158  1.4544  0.7988
  406MOL0     H55985   4.375  10.061   4.319 -0.3993  0.6291 -0.2357
  406MOL0     H55986   4.561   9.849   4.384 -0.3171  0.6585 -0.2932
  406MOL0     H55987   4.661   9.746   4.216 -0.1202  0.9347 -0.1315
  406MOL0     H55988   4.828   9.743   4.291  0.0809  0.1495  1.3885
  406MOL0     H55989   4.800   9.803   4.133 -1.0716  0.6118 -0.3401
  406MOL0     H55990   5.064  10.042   3.930 -1.1661  0.0928  1.7009
  406MOL0     H55991   5.219  10.122   3.758 -2.6420  1.7939 -3.2386
  406MOL0     H55992   5.297  10.595   3.710  0.7693 -0.2955 -2.4458
  406MOL0     H55993   5.362  10.521   3.861 -0.4255  1.2895 -0.3616
  406MOL0     H55994   5.550  10.428   3.743 -1.5971 -1.6559 -1.8080
  406MOL0     H55995   5.470  10.493   3.591  0.9080  2.2628 -0.1307
  406MOL0     H55996   5.553  10.644   3.835 -0.7434 -3.4353 -0.1820
  406MOL0     H55997   5.501  10.729   3.684  1.9692  2.7124  1.7922
  406MOL0     H55998   5.680  10.599   3.560 -0.4098  1.3914 -1.0302
  406MOL0     H55999   5.754  10.554   3.712  0.1912  1.6315  0.7156
  406MOL0     H56000   5.727  10.812   3.569 -2.5724 -0.5662  1.5891
  406MOL0     H56001   5.718  10.815   3.744 -3.7228 -2.3470  0.6160
  406MOL0     H56002   5.959  10.656   3.657 -1.5571 -0.4430 -0.9427
  406MOL0     H56003   5.939  10.801   3.761 -1.4298  1.5100 -0.2534
  406MOL0     H56004   5.919  10.938   3.549  1.1140  1.8968  0.7107
  406MOL0     H56005   6.008  10.801   3.471  2.2374  0.2680  0.9519
  406MOL0     H56006   6.111  10.943   3.712 -0.7381  3.1491 -0.1140
  406MOL0     H56007   6.182  10.968   3.552  0.3567 -1.1944 -1.1303
  406MOL0     H56008   5.143  10.534   3.894  0.5688 -0.0392 -1.7096
  406MOL0     H56009   4.988  10.436   4.067 -0.9332  1.2560 -2.7761
  406MOL0     H56010   4.832  10.268   4.325  0.7368 -0.7137  0.6814
  406MOL0     H56011   4.637  10.267   4.467  3.1271  2.2015 -2.2722
  406MOL0     H56012   3.085  10.977   4.801 -1.4510  1.9784 -1.2515
  406MOL0     H56013   2.894  10.884   4.938 -0.1323  0.4446 -1.5139
  406MOL0     H56014   2.709  10.542   5.245  0.7893 -5.6477 -0.0483
  406MOL0     H56015   2.493  10.474   5.352 -1.7310 -1.9203 -0.6874
  406MOL0     H56016   2.338  10.334   5.390  3.5076 -2.5357 -1.8732
  406MOL0     H56017   2.159  10.329   5.345  0.8900  2.9794  0.5919
  406MOL0     H56018   2.250  10.107   5.353  1.4177 -0.3913 -0.0489
  406MOL0     H56019   2.408  10.156   5.299  0.2393  1.3380 -0.6354
  406MOL0     H56020   2.271  10.195   5.061 -1.6154  0.2172 -0.7252
  406MOL0     H56021   2.321  10.039   5.117  1.7977  1.0202  1.0895
  406MOL0     H56022   2.044  10.163   5.158 -0.0021  0.0922  0.1036
  406MOL0     H56023   2.083   9.990   5.195  0.8116  0.5098  2.4327
  406MOL0     H56024   2.006   9.961   4.791  0.9376  1.5740 -1.4721
  406MOL0     H56025   2.333  10.409   4.954 -1.2269  2.8144 -1.2007
  406MOL0     H56026   2.542  10.576   4.766  2.6504  2.5544  4.5400
  406MOL0     H56027   2.624  10.415   4.782 -1.6100 -0.8689 -2.7854
  406MOL0     H56028   2.450  10.421   4.784 -2.4352  2.0460  0.5650
  407MOL0     O56029   5.308  10.596   2.156 -0.0258  0.0265  0.1436
  407MOL0     C56030   5.210  10.575   2.229 -0.5755 -0.1961  1.0298
  407MOL0     O56031   5.190  10.463   2.307 -0.1476  0.3969 -0.8440
  407MOL0     C56032   5.305  10.375   2.319  1.0892 -0.0973  0.3181
  407MOL0     C56033   5.422  10.418   2.382 -0.6638 -1.1093 -0.0876
  407MOL0     C56034   5.535  10.334   2.402  0.1484  1.0984  1.3406
  407MOL0     C56035   5.540  10.208   2.352  0.2959 -0.6059 -0.0187
  407MOL0     O56036   5.641  10.116   2.354  0.2157 -0.6836  0.4497
  407MOL0     C56037   5.777  10.174   2.320  1.2393 -1.0245 -0.6973
  407MOL0     C56038   5.893  10.084   2.337 -1.2877 -0.0894  0.2989
  407MOL0     C56039   6.022  10.133   2.266  0.5912  0.2385  0.1638
  407MOL0     C56040   6.124  10.018   2.243 -0.0589  0.4829  0.2975
  407MOL0     C56041   6.271  10.071   2.234  0.5471  0.5870  0.8131
  407MOL0     C56042   6.356   9.946   2.199 -0.8690  0.2259  0.1329
  407MOL0     C56043   6.502   9.986   2.199  0.8415 -0.9112  0.2410
  407MOL0     C56044   6.599   9.873   2.158  0.5898 -0.0193  0.6950
  407MOL0     N56045   6.726   9.941   2.116  0.6676  0.0939  0.4093
  407MOL0     C56046   6.731  10.005   1.993  1.3508  0.1600  0.6107
  407MOL0     C56047   6.863  10.038   1.973  0.6010 -0.6581  0.0486
  407MOL0     C56048   6.938  10.110   1.859 -0.1120  0.8658 -0.8732
  407MOL0     C56049   7.061  10.033   1.815  0.0524 -0.8267 -0.1904
  407MOL0     C56050   7.111  10.080   1.683  0.4805 -1.0545  0.7619
  407MOL0     C56051   7.243  10.009   1.654  0.2022  0.3035 -0.2778
  407MOL0     O56052   7.202   9.870   1.649 -0.1153 -0.3529  0.6037
  407MOL0     C56053   7.305   9.778   1.663 -1.2745 -0.1512  1.0011
  407MOL0     C56054   7.278   9.661   1.746  1.0011 -0.1839 -0.2927
  407MOL0     C56055   7.370   9.552   1.752 -0.9947  0.4863 -0.4503
  407MOL0     C56056   7.338   9.441   1.844  0.2037 -0.2751 -1.0343
  407MOL0     C56057   7.495   9.566   1.687  0.3605  0.1736 -1.1186
  407MOL0     C56058   7.609   9.462   1.678 -0.1705 -0.2355  0.0273
  407MOL0     O56059   7.735   9.508   1.641 -0.3738  0.0020 -0.3369
  407MOL0     C56060   7.844   9.418   1.643  0.3222  0.0428 -0.0214
  407MOL0     C56061   7.930   9.436   1.535 -0.5139 -0.2360 -0.9745
  407MOL0     C56062   8.038   9.353   1.520 -0.7134  0.1071  0.6351
  407MOL0     C56063   8.061   9.253   1.614  0.9421 -0.9610  0.0338
  407MOL0     O56064   8.163   9.172   1.601  0.6499 -0.1664 -0.7375
  407MOL0     C56065   8.144   9.028   1.599  0.2164  0.4071  0.0705
  407MOL0     C56066   8.239   8.952   1.499 -0.6011  0.1476 -1.0504
  407MOL0     C56067   8.178   8.813   1.481  0.3119 -0.6388  0.3003
  407MOL0     C56068   8.264   8.719   1.395 -0.5462 -0.6004  0.3146
  407MOL0     C56069   8.280   8.779   1.253  0.0196  0.3249  0.2623
  407MOL0     C56070   8.151   8.805   1.177  0.0231 -0.0726  0.5625
  407MOL0     C56071   8.164   8.823   1.030  0.4214 -0.0885  0.3538
  407MOL0     C56072   8.025   8.841   0.954 -1.0800 -0.4133  0.0080
  407MOL0    Cl56073   7.946   9.003   0.989 -0.1974 -0.7214 -0.2263
  407MOL0     C56074   7.981   9.229   1.727  0.6179  0.9907  0.3944
  407MOL0     C56075   7.867   9.316   1.736 -0.4917  0.5137  0.5513
  407MOL0     O56076   7.576   9.347   1.680  0.3927 -0.0608  0.0090
  407MOL0     C56077   7.523   9.679   1.613 -0.3249  0.2083 -0.5087
  407MOL0     C56078   7.435   9.783   1.600  1.1590 -0.4624 -0.1255
  407MOL0     N56079   6.924   9.983   2.087 -0.4253 -0.1053 -0.3310
  407MOL0     N56080   6.842   9.928   2.175  0.7898  0.0215  0.6596
  407MOL0     C56081   5.425  10.169   2.282  0.0143  0.0185 -0.2216
  407MOL0     C56082   5.315  10.247   2.269  0.8288  0.2578 -0.4721
  407MOL0     C56083   5.093  10.665   2.216 -0.1334  0.3291 -0.2686
  407MOL0     C56084   4.968  10.601   2.232  0.2929 -1.1100 -0.0796
  407MOL0     C56085   4.846  10.671   2.232 -0.2842  1.0095  0.0139
  407MOL0     C56086   4.846  10.809   2.233 -0.5356 -0.3015  0.0303
  407MOL0     O56087   4.723  10.870   2.225  0.3299 -0.4419  0.0634
  407MOL0     C56088   4.720  10.998   2.286  1.1631  0.2140 -0.5360
  407MOL0     C56089   4.591  11.008   2.355  0.2984  0.0212 -0.0518
  407MOL0     C56090   4.471  10.962   2.273  0.2831 -0.3512  0.6996
  407MOL0     C56091   4.341  11.008   2.347 -0.9545  0.1172 -0.5997
  407MOL0     C56092   4.229  10.922   2.305  0.8337  0.3369  0.5660
  407MOL0     C56093   4.122  10.877   2.278  0.2436  0.5309  0.6694
  407MOL0     C56094   4.969  10.875   2.208 -0.5827 -0.6941  0.0401
  407MOL0     C56095   5.092  10.805   2.205  0.0376  0.1686  0.1820
  407MOL0     C56096   5.221  10.881   2.207 -0.5092 -0.3525 -0.5114
  407MOL0     H56097   5.419  10.514   2.431  0.3275 -1.8819  1.5822
  407MOL0     H56098   5.624  10.364   2.456  1.9967  1.6232 -1.7132
  407MOL0     H56099   5.785  10.261   2.387  2.0413 -1.9335  0.4216
  407MOL0     H56100   5.768  10.221   2.222  0.1876  2.2512  0.8252
  407MOL0     H56101   5.904  10.065   2.444 -3.1042 -2.4546  0.1544
  407MOL0     H56102   5.869   9.986   2.295 -2.1572 -1.6112  3.9285
  407MOL0     H56103   5.993  10.173   2.169  3.7246  2.5007  0.0378
  407MOL0     H56104   6.059  10.218   2.324 -1.5078 -0.3414  2.5694
  407MOL0     H56105   6.115   9.953   2.330  1.4509  1.4946  1.2583
  407MOL0     H56106   6.094   9.973   2.148  3.1745  1.5933 -1.4175
  407MOL0     H56107   6.297  10.119   2.329  0.4295  2.7843 -0.1992
  407MOL0     H56108   6.288  10.139   2.150  1.4448  1.4516  1.6726
  407MOL0     H56109   6.333   9.871   2.275 -2.7301  0.6604  0.0664
  407MOL0     H56110   6.331   9.901   2.102 -1.7579  0.6435  0.1562
  407MOL0     H56111   6.529  10.018   2.300  0.7868  0.3030 -0.1180
  407MOL0     H56112   6.509  10.074   2.134  0.0499 -1.2172 -0.2738
  407MOL0     H56113   6.629   9.810   2.243  1.6866 -0.0127  0.3171
  407MOL0     H56114   6.562   9.823   2.068  2.0060  4.1673 -2.5165
  407MOL0     H56115   6.648  10.034   1.929  0.9685 -1.0399  0.5529
  407MOL0     H56116   6.974  10.211   1.879  1.0994  0.5961 -1.5642
  407MOL0     H56117   6.875  10.110   1.770 -1.1742  1.5353 -0.1406
  407MOL0     H56118   7.136  10.063   1.888 -0.7854  1.3244 -0.1372
  407MOL0     H56119   7.032   9.927   1.815 -0.4983 -0.6996 -1.6634
  407MOL0     H56120   7.038  10.055   1.606  0.9641 -1.0565  0.3017
  407MOL0     H56121   7.135  10.187   1.687 -1.1266 -0.6962  2.0756
  407MOL0     H56122   7.278  10.033   1.553 -0.1944 -5.0741 -2.0281
  407MOL0     H56123   7.314  10.020   1.736 -1.3951  0.1819  1.1634
  407MOL0     H56124   7.189   9.663   1.808 -0.2975  2.6921 -2.0330
  407MOL0     H56125   7.419   9.407   1.910 -1.3450 -1.0372  0.5723
  407MOL0     H56126   7.297   9.352   1.794 -5.0480 -0.0595  2.0900
  407MOL0     H56127   7.254   9.471   1.907  0.0765 -0.3027 -1.1929
  407MOL0     H56128   7.887   9.499   1.458 -1.1733  1.9288  1.0445
  407MOL0     H56129   8.109   9.360   1.438 -0.1810  1.0109  1.1591
  407MOL0     H56130   8.164   8.981   1.696 -0.5988 -0.4250 -0.1566
  407MOL0     H56131   8.045   9.004   1.560  0.0458  0.2962  0.5603
  407MOL0     H56132   8.238   9.004   1.403  1.3452  0.6240 -0.8445
  407MOL0     H56133   8.337   8.933   1.543 -1.3470  0.6299  0.9429
  407MOL0     H56134   8.080   8.819   1.433  0.2082 -0.0361  0.5793
  407MOL0     H56135   8.152   8.771   1.579  0.5672  0.3101  0.7866
  407MOL0     H56136   8.221   8.619   1.388  0.1633 -0.9955  1.2342
  407MOL0     H56137   8.357   8.701   1.451  1.2960 -2.2536 -2.9936
  407MOL0     H56138   8.339   8.871   1.249  0.7627 -0.1867 -1.3781
  407MOL0     H56139   8.345   8.710   1.197  0.4614  0.9258  0.0201
  407MOL0     H56140   8.103   8.893   1.219 -2.3577  0.0777 -2.2188
  407MOL0     H56141   8.085   8.720   1.196 -0.4074 -0.0579 -0.7650
  407MOL0     H56142   8.213   8.731   0.997  1.9893  0.5078  0.9195
  407MOL0     H56143   8.228   8.909   1.006 -1.1780  1.1936  0.5281
  407MOL0     H56144   7.970   8.754   0.992  1.0280 -1.9124 -0.1696
  407MOL0     H56145   8.033   8.843   0.845 -1.4352 -1.5954 -0.0602
  407MOL0     H56146   8.006   9.152   1.800  0.3919 -0.8576 -1.3621
  407MOL0     H56147   7.802   9.294   1.820 -0.0275 -2.6549  0.1913
  407MOL0     H56148   7.615   9.700   1.559 -0.5578  1.7974 -0.3384
  407MOL0     H56149   7.468   9.876   1.554 -1.7121  0.9509  0.4781
  407MOL0     H56150   5.422  10.068   2.242  0.6567 -0.2239  0.3214
  407MOL0     H56151   5.219  10.214   2.228  0.7883 -2.5693  1.6053
  407MOL0     H56152   4.965  10.496   2.257 -3.6060 -1.6525 -2.0436
  407MOL0     H56153   4.755  10.614   2.248  0.4258 -0.4648 -1.0409
  407MOL0     H56154   4.799  11.010   2.361  1.4842 -2.4825 -0.3413
  407MOL0     H56155   4.725  11.077   2.210 -0.8013 -0.3214 -1.2713
  407MOL0     H56156   4.574  11.115   2.371 -0.5803 -0.3537  1.7106
  407MOL0     H56157   4.596  10.954   2.450 -0.4795 -3.3040 -1.7459
  407MOL0     H56158   4.481  10.991   2.168  2.7439  0.6951  1.1610
  407MOL0     H56159   4.475  10.853   2.282 -0.3156 -0.5980 -1.6004
  407MOL0     H56160   4.314  11.111   2.320  0.5396  1.1099  1.3847
  407MOL0     H56161   4.362  10.996   2.454  1.4780  1.8722 -0.7858
  407MOL0     H56162   4.029  10.828   2.258  0.6028  1.0404 -2.9725
  407MOL0     H56163   4.974  10.981   2.188 -2.0411 -0.8247 -1.1444
  407MOL0     H56164   5.298  10.864   2.130  1.1999 -0.1110  1.0734
  407MOL0     H56165   5.203  10.989   2.203 -1.9469 -0.5958 -3.3853
  407MOL0     H56166   5.273  10.858   2.301 -0.6475 -1.3375 -0.6628
  408MOL0     O56167   9.232   9.011   4.509  1.0938  0.6189 -0.0940
  408MOL0     C56168   9.218   8.886   4.536 -0.8247  0.2401 -0.5556
  408MOL0     O56169   9.121   8.791   4.492 -0.0872  0.1001 -0.5319
  408MOL0     C56170   9.009   8.841   4.431 -0.3968  0.5114 -0.2728
  408MOL0     C56171   8.944   8.961   4.463 -0.4276  0.5708  1.2124
  408MOL0     C56172   8.843   9.019   4.384 -0.4489 -0.1219  0.9009
  408MOL0     C56173   8.783   8.940   4.283 -0.5949 -0.1869  0.2521
  408MOL0     O56174   8.701   8.998   4.193  0.5662  0.8075 -0.6340
  408MOL0     C56175   8.622   9.103   4.250 -0.9695 -0.8108  0.0555
  408MOL0     C56176   8.503   9.140   4.162 -0.0214 -0.0955 -0.0818
  408MOL0     C56177   8.443   9.279   4.197  1.3607 -0.4414 -0.4258
  408MOL0     C56178   8.531   9.382   4.130  0.2128 -1.1314  0.6041
  408MOL0     C56179   8.524   9.527   4.194  0.0839  0.3753  0.8752
  408MOL0     C56180   8.407   9.617   4.151 -1.4731 -0.7406 -0.0119
  408MOL0     C56181   8.430   9.756   4.207  0.1765  0.1501  1.0673
  408MOL0     C56182   8.303   9.844   4.165 -0.7881  0.0395  0.6657
  408MOL0     N56183   8.340   9.983   4.160 -0.4741 -0.5850  0.1639
  408MOL0     C56184   8.421  10.060   4.248 -0.2988 -0.5405 -0.2244
  408MOL0     C56185   8.414  10.191   4.224 -0.0242 -0.3186  0.0404
  408MOL0     C56186   8.490  10.298   4.299  0.5190  0.2648  0.1880
  408MOL0     C56187   8.392  10.408   4.342 -0.2879  0.7108  0.9864
  408MOL0     C56188   8.287  10.373   4.444  0.1716  0.6267  0.2562
  408MOL0     C56189   8.345  10.292   4.560  0.6300 -0.7733 -0.0499
  408MOL0     O56190   8.417  10.383   4.638  0.7240 -0.4619 -0.2542
  408MOL0     C56191   8.491  10.339   4.743  0.8644  0.3253 -0.3635
  408MOL0     C56192   8.485  10.216   4.805  0.4689  0.1728 -0.2340
  408MOL0     C56193   8.562  10.201   4.918  0.2640  0.2880 -0.3565
  408MOL0     C56194   8.549  10.078   4.999 -0.2596  0.1131 -0.7185
  408MOL0     C56195   8.656  10.296   4.958  0.0405 -0.2213  0.3056
  408MOL0     C56196   8.757  10.288   5.072 -1.0229 -0.1066  0.5063
  408MOL0     O56197   8.866  10.368   5.070  1.3499  0.3299 -0.6020
  408MOL0     C56198   8.962  10.381   5.173  0.1886 -0.5800  0.1654
  408MOL0     C56199   9.038  10.500   5.174 -0.4584 -0.2995 -0.3413
  408MOL0     C56200   9.126  10.532   5.280  0.6734 -0.0926  0.8002
  408MOL0     C56201   9.143  10.445   5.381 -0.4450  0.2851  0.8254
  408MOL0     O56202   9.235  10.484   5.476 -1.2027  0.1531  0.0096
  408MOL0     C56203   9.341  10.389   5.499 -0.7522 -0.8724 -0.8727
  408MOL0     C56204   9.456  10.478   5.560  0.6722  0.4910 -0.2595
  408MOL0     C56205   9.557  10.372   5.601  0.3893  0.6856  0.8846
  408MOL0     C56206   9.675  10.453   5.662  0.1267  0.1677  0.0995
  408MOL0     C56207   9.776  10.347   5.724  0.0899 -0.8596  0.2673
  408MOL0     C56208   9.909  10.407   5.761  0.1529 -0.7439 -0.1388
  408MOL0     C56209   9.911  10.518   5.874 -0.2986  0.2944 -0.0722
  408MOL0     C56210  10.055  10.550   5.911 -0.7572 -0.4085 -0.2544
  408MOL0    Cl56211  10.047  10.706   5.986 -0.0915  0.3770 -0.3621
  408MOL0     C56212   9.067  10.327   5.388 -0.5286 -0.4063 -0.0061
  408MOL0     C56213   8.982  10.294   5.282 -0.1393 -0.6587 -0.0006
  408MOL0     O56214   8.710  10.239   5.167  0.3086  0.3578  0.0713
  408MOL0     C56215   8.672  10.410   4.885 -0.1134  0.5261  0.8434
  408MOL0     C56216   8.589  10.432   4.778  0.2201  1.1582  0.3310
  408MOL0     N56217   8.332  10.194   4.112  0.0129  0.0107 -0.1077
  408MOL0     N56218   8.288  10.078   4.085 -0.1778  0.2516 -0.4119
  408MOL0     C56219   8.843   8.811   4.254  0.6320  0.0336  0.7622
  408MOL0     C56220   8.962   8.772   4.320 -0.7272 -0.0558 -0.2520
  408MOL0     C56221   9.323   8.834   4.632 -0.1645 -0.1497 -0.0572
  408MOL0     C56222   9.294   8.715   4.706 -0.4749  0.4360 -0.3959
  408MOL0     C56223   9.389   8.656   4.782  0.9340 -1.1139  1.3315
  408MOL0     C56224   9.505   8.719   4.798 -0.8099 -0.5453  0.2455
  408MOL0     O56225   9.603   8.665   4.879  0.1445 -0.0059 -0.3796
  408MOL0     C56226   9.576   8.587   4.999  0.0152 -0.3576 -0.0482
  408MOL0     C56227   9.521   8.683   5.110  0.6766 -0.7285 -0.6097
  408MOL0     C56228   9.625   8.795   5.143 -0.4280 -0.1080  0.1320
  408MOL0     C56229   9.558   8.892   5.232 -0.8986 -0.8711  0.2231
  408MOL0     C56230   9.632   9.019   5.251  0.0674  0.1717 -0.7729
  408MOL0     C56231   9.694   9.121   5.264  0.0759  0.3357  0.3821
  408MOL0     C56232   9.538   8.838   4.736 -0.3116 -1.0233 -0.2570
  408MOL0     C56233   9.451   8.900   4.652 -0.7021 -0.1714 -0.5323
  408MOL0     C56234   9.498   9.023   4.580 -0.4757  0.2451 -0.3552
  408MOL0     H56235   8.988   9.027   4.537  3.0477 -0.4585  0.2316
  408MOL0     H56236   8.808   9.119   4.408 -0.3521  0.9524 -2.8387
  408MOL0     H56237   8.688   9.189   4.262 -0.8880 -0.1607 -3.7564
  408MOL0     H56238   8.587   9.083   4.352 -2.1073  0.3773 -0.0849
  408MOL0     H56239   8.530   9.138   4.056  0.0969  1.0299 -0.0787
  408MOL0     H56240   8.435   9.054   4.168 -1.7796  1.1848 -0.8787
  408MOL0     H56241   8.340   9.273   4.160  1.8736 -1.6726 -1.7458
  408MOL0     H56242   8.437   9.296   4.305  0.3718  1.2533 -0.6986
  408MOL0     H56243   8.638   9.363   4.131  1.0468  2.6575 -0.2960
  408MOL0     H56244   8.510   9.384   4.023  1.6966 -3.1565  0.2220
  408MOL0     H56245   8.613   9.580   4.159 -0.0467 -0.0055 -0.0552
  408MOL0     H56246   8.528   9.526   4.304  1.5177  3.6335  0.9924
  408MOL0     H56247   8.409   9.632   4.043 -0.4437  2.1225  0.3262
  408MOL0     H56248   8.309   9.576   4.177 -1.8291 -0.8246 -1.4060
  408MOL0     H56249   8.520   9.796   4.159  0.0167  0.9253  1.3982
  408MOL0     H56250   8.449   9.762   4.315  3.0731  2.3702  0.5655
  408MOL0     H56251   8.268   9.813   4.066 -1.5662  1.3670  0.5039
  408MOL0     H56252   8.228   9.827   4.242  2.0600 -0.0372  3.6186
  408MOL0     H56253   8.482  10.026   4.331 -2.3732  1.3497  2.2477
  408MOL0     H56254   8.568  10.337   4.233  0.3164 -2.2931 -1.7264
  408MOL0     H56255   8.545  10.251   4.381 -0.0583 -2.5273 -0.8742
  408MOL0     H56256   8.452  10.486   4.390  2.4777 -1.0533  0.6191
  408MOL0     H56257   8.338  10.454   4.258 -2.5851 -0.2187  1.8760
  408MOL0     H56258   8.241  10.466   4.479 -0.3813 -0.2603  2.0391
  408MOL0     H56259   8.216  10.303   4.399 -0.8891  0.0249  2.6962
  408MOL0     H56260   8.262  10.252   4.619 -1.4855  2.5557 -0.4995
  408MOL0     H56261   8.403  10.210   4.517  2.4221 -0.7325  2.0774
  408MOL0     H56262   8.419  10.140   4.764 -0.0189  0.6879 -0.4153
  408MOL0     H56263   8.514   9.989   4.946 -2.6438 -0.3397  1.4729
  408MOL0     H56264   8.469  10.099   5.069  0.2697 -2.2935  0.7328
  408MOL0     H56265   8.643  10.050   5.048  1.4124 -0.8013 -4.0688
  408MOL0     H56266   9.045  10.575   5.096  0.6997 -0.6008 -0.5428
  408MOL0     H56267   9.192  10.618   5.281  0.2763  0.2216  0.5114
  408MOL0     H56268   9.312  10.309   5.568  0.5706 -0.1295  0.6194
  408MOL0     H56269   9.375  10.354   5.401 -0.2101  1.2447 -1.4924
  408MOL0     H56270   9.502  10.544   5.486 -3.6161  2.0089 -1.9153
  408MOL0     H56271   9.414  10.543   5.638  0.6334  0.9593 -0.6616
  408MOL0     H56272   9.594  10.319   5.512 -0.5277  1.7988 -0.1924
  408MOL0     H56273   9.515  10.305   5.676 -1.4755  0.4749 -0.3078
  408MOL0     H56274   9.641  10.526   5.736 -1.8344  1.0874 -1.5997
  408MOL0     H56275   9.722  10.514   5.584 -0.3804  1.1539  0.5454
  408MOL0     H56276   9.726  10.319   5.817 -1.5911  2.3627  0.4843
  408MOL0     H56277   9.777  10.261   5.656  0.4981  0.1732 -1.0749
  408MOL0     H56278   9.948  10.459   5.673  1.4173  2.5025  2.1771
  408MOL0     H56279   9.982  10.329   5.785 -0.1216 -0.7636  0.6660
  408MOL0     H56280   9.861  10.493   5.968 -0.4322 -2.7149 -0.8390
  408MOL0     H56281   9.857  10.606   5.837 -2.3955 -1.4976 -1.5206
  408MOL0     H56282  10.123  10.543   5.826 -2.1602  1.4506 -1.6198
  408MOL0     H56283  10.088  10.477   5.986  2.8583  1.3728  0.0837
  408MOL0     H56284   9.069  10.261   5.474  0.0000  0.4357  0.6486
  408MOL0     H56285   8.925  10.203   5.293  0.7259 -1.3355 -0.9881
  408MOL0     H56286   8.748  10.486   4.898  0.4714 -0.0564  0.8555
  408MOL0     H56287   8.597  10.519   4.714  1.1210  0.1586 -0.9711
  408MOL0     H56288   8.796   8.763   4.169  0.1602  1.0991  0.4092
  408MOL0     H56289   9.018   8.681   4.302  0.7566  1.1153 -2.0317
  408MOL0     H56290   9.194   8.672   4.695 -0.1052  0.0910 -3.0394
  408MOL0     H56291   9.357   8.571   4.841 -1.3583 -2.0995 -1.1147
  408MOL0     H56292   9.498   8.513   4.979  0.9186 -0.9082 -1.6803
  408MOL0     H56293   9.667   8.531   5.020  1.0740  1.4027  0.2741
  408MOL0     H56294   9.496   8.624   5.199  0.0936  2.2997  1.3814
  408MOL0     H56295   9.432   8.729   5.065 -0.0747 -2.3436 -0.8521
  408MOL0     H56296   9.716   8.749   5.182 -1.0064 -1.8639 -0.4917
  408MOL0     H56297   9.655   8.840   5.048 -1.4651 -1.5993 -0.9392
  408MOL0     H56298   9.545   8.837   5.325  1.9698  0.6541  1.6601
  408MOL0     H56299   9.456   8.915   5.199 -0.5009  4.4844  1.7063
  408MOL0     H56300   9.743   9.214   5.285 -2.2230  1.1096  2.9727
  408MOL0     H56301   9.633   8.887   4.755 -0.9240  0.9618 -1.8934
  408MOL0     H56302   9.439   9.109   4.612  0.5412 -0.3498  3.5483
  408MOL0     H56303   9.604   9.045   4.589 -0.7782  1.6591 -0.0348
  408MOL0     H56304   9.477   9.017   4.472  3.4799 -3.3550 -1.1777
  409MOL0     O56305  10.544  10.899   6.321 -0.5856  0.0881 -0.7760
  409MOL0     C56306  10.521  10.989   6.401  0.4814  0.1206  0.2761
  409MOL0     O56307  10.579  11.119   6.407  0.4527 -0.0463  0.1373
  409MOL0     C56308  10.697  11.146   6.342  0.0640  0.5098 -1.0153
  409MOL0     C56309  10.714  11.133   6.210  0.4730 -0.4060  0.8764
  409MOL0     C56310  10.827  11.174   6.142 -0.1811  0.1497  0.0255
  409MOL0     C56311  10.940  11.233   6.207  0.2549 -0.0019  0.7639
  409MOL0     O56312  11.062  11.267   6.152 -0.3278  0.0452 -0.4448
  409MOL0     C56313  11.070  11.285   6.010  0.6079 -0.3894 -0.2467
  409MOL0     C56314  11.203  11.353   5.958 -0.0753  1.0848 -0.2857
  409MOL0     C56315  11.268  11.451   6.057  0.0517  0.4401  0.0344
  409MOL0     C56316  11.243  11.595   6.011  0.6497 -0.1707 -0.6078
  409MOL0     C56317  11.255  11.719   6.119  0.2236  0.8489 -0.1277
  409MOL0     C56318  11.255  11.846   6.028 -0.0224  0.0651  0.2972
  409MOL0     C56319  11.291  11.967   6.115 -0.8571 -1.0920 -0.7657
  409MOL0     C56320  11.440  11.972   6.149  0.5542 -0.1303 -0.6416
  409MOL0     N56321  11.481  12.075   6.240 -0.0577 -0.5267 -0.0990
  409MOL0     C56322  11.420  12.122   6.357 -0.8062 -0.3194  0.3158
  409MOL0     C56323  11.488  12.240   6.386  0.3539 -0.5439  0.1572
  409MOL0     C56324  11.475  12.347   6.501  0.2242 -0.0404  1.9417
  409MOL0     C56325  11.372  12.452   6.462  0.6585  0.2105  0.2610
  409MOL0     C56326  11.421  12.565   6.366 -0.0776  0.3755  0.0322
  409MOL0     C56327  11.544  12.635   6.418 -0.2258  0.0172  0.0715
  409MOL0     O56328  11.575  12.741   6.323 -0.1653  0.6881 -0.5740
  409MOL0     C56329  11.669  12.710   6.231  1.3655 -0.3728  0.0563
  409MOL0     C56330  11.724  12.817   6.159 -0.5437  0.3100  0.2073
  409MOL0     C56331  11.813  12.797   6.050 -0.2842  1.1225  0.1270
  409MOL0     C56332  11.841  12.931   5.986  0.0251  0.2506  0.1571
  409MOL0     C56333  11.868  12.662   6.024 -0.7192 -0.3709  0.0586
  409MOL0     C56334  11.953  12.609   5.914  0.2753 -0.2481  0.4599
  409MOL0     O56335  12.043  12.507   5.937 -0.3791  0.2649  0.0479
  409MOL0     C56336  12.144  12.477   5.843 -0.2283 -0.7241 -0.0442
  409MOL0     C56337  12.277  12.454   5.879 -0.3222  0.3135  0.3213
  409MOL0     C56338  12.372  12.413   5.778  0.6193 -0.1282 -1.3091
  409MOL0     C56339  12.337  12.398   5.644  0.5346  1.5779  0.8636
  409MOL0     O56340  12.433  12.382   5.551  0.2906  0.1400  0.9635
  409MOL0     C56341  12.426  12.298   5.443  0.2115  0.1291 -0.3412
  409MOL0     C56342  12.444  12.149   5.491  0.0374  0.3668  0.2442
  409MOL0     C56343  12.587  12.103   5.502 -0.5891 -0.9582 -0.5759
  409MOL0     C56344  12.655  12.160   5.628  0.2452 -1.5967 -0.9416
  409MOL0     C56345  12.788  12.101   5.669 -0.0928 -0.2095 -0.2691
  409MOL0     C56346  12.898  12.112   5.566  0.7776 -0.6443  0.4314
  409MOL0     C56347  13.031  12.035   5.591  0.8285 -0.5868 -0.5319
  409MOL0     C56348  13.115  12.046   5.462  0.9710 -0.0302  0.4667
  409MOL0    Cl56349  13.282  12.035   5.485  0.4579  0.1459  0.1140
  409MOL0     C56350  12.199  12.417   5.610 -0.7627  0.5328  0.0172
  409MOL0     C56351  12.110  12.452   5.714  0.5500 -0.1684 -0.0523
  409MOL0     O56352  11.951  12.683   5.809  0.0736 -0.1714  0.4854
  409MOL0     C56353  11.805  12.558   6.092  0.0821 -0.4445  0.5098
  409MOL0     C56354  11.705  12.588   6.186 -0.3505  0.4738 -0.5026
  409MOL0     N56355  11.575  12.263   6.277 -0.5218 -0.2775  0.4313
  409MOL0     N56356  11.579  12.161   6.199 -0.0551  0.0343  0.2473
  409MOL0     C56357  10.926  11.238   6.349 -1.1763 -1.0256  0.3406
  409MOL0     C56358  10.808  11.191   6.413  0.2503 -0.0602  0.1244
  409MOL0     C56359  10.420  10.953   6.504  0.7541 -0.5048  0.1913
  409MOL0     C56360  10.401  11.044   6.614 -0.0302 -0.7706 -0.4364
  409MOL0     C56361  10.315  11.019   6.724  0.0324 -0.0133 -0.2056
  409MOL0     C56362  10.243  10.900   6.721 -0.4041  0.5093 -1.0170
  409MOL0     O56363  10.151  10.863   6.814  0.0188 -0.4134  0.7258
  409MOL0     C56364  10.153  10.926   6.941  0.6214  0.6074  0.3242
  409MOL0     C56365  10.055  11.048   6.949 -0.2812  0.7197  0.3056
  409MOL0     C56366   9.911  11.016   6.926  0.3086  0.1207 -0.1896
  409MOL0     C56367   9.826  11.146   6.923  0.2023 -0.1380 -0.3326
  409MOL0     C56368   9.688  11.112   6.895  0.0526 -0.2133  1.0429
  409MOL0     C56369   9.581  11.070   6.857 -0.2031 -0.2610  0.2499
  409MOL0     C56370  10.251  10.824   6.604  0.4205  0.5635 -0.2588
  409MOL0     C56371  10.338  10.845   6.496  0.6041 -0.3590 -0.0894
  409MOL0     C56372  10.314  10.750   6.378 -0.4892 -0.8551  0.3036
  409MOL0     H56373  10.631  11.091   6.153  0.0911 -1.6966  2.3232
  409MOL0     H56374  10.836  11.159   6.035  0.7596 -3.5564  0.5113
  409MOL0     H56375  10.981  11.334   5.970 -0.3707 -2.0194 -0.1699
  409MOL0     H56376  11.062  11.181   5.974 -1.0124 -1.2731  2.3583
  409MOL0     H56377  11.276  11.271   5.950 -1.6966 -0.4786  0.3300
  409MOL0     H56378  11.178  11.398   5.862 -3.2697 -2.2244 -1.2590
  409MOL0     H56379  11.237  11.433   6.160 -2.5439 -1.8442 -1.0263
  409MOL0     H56380  11.375  11.430   6.063  0.0025 -0.0957 -0.7406
  409MOL0     H56381  11.317  11.600   5.931  1.0218  0.9628 -0.2110
  409MOL0     H56382  11.142  11.605   5.970  0.7589  1.0475 -0.6320
  409MOL0     H56383  11.346  11.699   6.176  2.4072 -1.6718 -4.0244
  409MOL0     H56384  11.168  11.713   6.186 -0.2487  0.7293 -0.7478
  409MOL0     H56385  11.321  11.829   5.943  0.9517 -0.0145  1.0513
  409MOL0     H56386  11.157  11.868   5.985  0.1164 -0.8707 -0.5620
  409MOL0     H56387  11.226  11.966   6.203 -3.1925  2.4252 -2.2250
  409MOL0     H56388  11.275  12.061   6.062  1.0732 -1.8967 -2.9663
  409MOL0     H56389  11.469  11.872   6.183 -2.2370 -1.5880 -2.1663
  409MOL0     H56390  11.502  11.975   6.059  1.1838  0.1720 -0.2020
  409MOL0     H56391  11.331  12.082   6.404 -0.9465  0.9884  1.2345
  409MOL0     H56392  11.575  12.385   6.523  1.1248 -1.1911  0.0765
  409MOL0     H56393  11.450  12.296   6.594  1.1036 -2.1601  1.0702
  409MOL0     H56394  11.282  12.405   6.422  2.3485 -1.2329 -2.1197
  409MOL0     H56395  11.349  12.510   6.552 -0.1851  0.0161  0.1772
  409MOL0     H56396  11.449  12.513   6.274  0.9158 -0.6549  0.8852
  409MOL0     H56397  11.340  12.637   6.353  0.3456  1.0650  1.0499
  409MOL0     H56398  11.514  12.674   6.516  1.1938 -0.9856  0.9445
  409MOL0     H56399  11.625  12.562   6.424 -0.7643 -0.9548 -2.9893
  409MOL0     H56400  11.688  12.917   6.182  1.8706  1.7061 -1.6022
  409MOL0     H56401  11.897  12.914   5.893 -2.4639 -0.1241 -1.3533
  409MOL0     H56402  11.897  13.000   6.049 -2.0801  0.1930  2.2508
  409MOL0     H56403  11.752  12.982   5.950 -0.1410 -0.5589 -0.6250
  409MOL0     H56404  12.309  12.449   5.982  0.3428  1.5119  0.1986
  409MOL0     H56405  12.475  12.393   5.806  0.4803  0.3209 -0.4335
  409MOL0     H56406  12.339  12.307   5.378 -1.4146  3.2285  1.9760
  409MOL0     H56407  12.511  12.320   5.378  1.0855  0.0520  0.7386
  409MOL0     H56408  12.384  12.149   5.583 -2.1328  2.2669 -1.0635
  409MOL0     H56409  12.388  12.085   5.423 -1.2333  1.1307  0.5161
  409MOL0     H56410  12.649  12.141   5.420 -0.9562 -0.0838 -0.4637
  409MOL0     H56411  12.595  11.994   5.503 -0.1395 -0.9544 -2.2662
  409MOL0     H56412  12.585  12.155   5.712  2.5527  1.0312  1.3424
  409MOL0     H56413  12.660  12.268   5.611  2.5424 -1.3576  0.8418
  409MOL0     H56414  12.822  12.144   5.764 -0.8524 -3.3451  1.5920
  409MOL0     H56415  12.764  11.996   5.688 -0.8960 -0.1127 -0.7316
  409MOL0     H56416  12.917  12.217   5.542 -1.0783 -0.9765 -3.1420
  409MOL0     H56417  12.851  12.081   5.473  0.7435  0.8820 -0.0887
  409MOL0     H56418  13.012  11.935   5.630  0.8246  0.3197  2.0206
  409MOL0     H56419  13.100  12.074   5.666  0.5469  3.2794 -2.0434
  409MOL0     H56420  13.088  12.139   5.411 -0.2048  0.1779  1.4283
  409MOL0     H56421  13.086  11.965   5.394  2.6895  1.1737 -1.8313
  409MOL0     H56422  12.170  12.402   5.507 -1.0119  4.2948 -0.5778
  409MOL0     H56423  12.003  12.472   5.709  0.7778  2.4981  2.5217
  409MOL0     H56424  11.823  12.451   6.086  2.7449 -0.1479  1.9266
  409MOL0     H56425  11.661  12.501   6.234 -0.5806  1.5556  1.3209
  409MOL0     H56426  10.999  11.274   6.420 -1.3834  0.1295 -0.0056
  409MOL0     H56427  10.821  11.188   6.521 -0.8229 -2.3698  0.2647
  409MOL0     H56428  10.456  11.137   6.621 -2.1082  0.3683  2.3544
  409MOL0     H56429  10.298  11.098   6.796 -1.7797  2.2059 -2.8642
  409MOL0     H56430  10.117  10.857   7.018 -1.7124 -0.9497 -2.0185
  409MOL0     H56431  10.247  10.968   6.978  0.9728  1.8964 -1.8743
  409MOL0     H56432  10.086  11.119   6.871 -0.8352  1.7654  1.0099
  409MOL0     H56433  10.064  11.093   7.048  5.1006  2.1843 -0.4937
  409MOL0     H56434   9.892  10.967   6.829 -2.6064  1.1416 -0.2223
  409MOL0     H56435   9.879  10.949   7.006  0.1650 -0.7816 -0.9733
  409MOL0     H56436   9.863  11.213   6.846 -2.4255 -0.5310 -2.0683
  409MOL0     H56437   9.823  11.185   7.026  1.5803  0.4536 -0.5041
  409MOL0     H56438   9.484  11.043   6.821  0.1215  0.5216 -1.2969
  409MOL0     H56439  10.183  10.741   6.589 -0.9296  1.2641  1.6604
  409MOL0     H56440  10.218  10.697   6.384  0.6691 -3.0614  0.1809
  409MOL0     H56441  10.299  10.806   6.285 -1.8942 -0.4104  0.7594
  409MOL0     H56442  10.392  10.675   6.363  1.2614  1.0789 -0.8171
  410MOL0     O56443   4.078   2.780   7.132  0.1633 -0.6343  0.3318
  410MOL0     C56444   4.009   2.854   7.064 -0.1931 -0.4244 -0.2026
  410MOL0     O56445   4.054   2.919   6.953  0.2613 -0.2919 -0.4955
  410MOL0     C56446   4.183   2.886   6.908  0.0037 -0.5245  0.4965
  410MOL0     C56447   4.284   2.984   6.906  0.7856 -0.4428 -0.4056
  410MOL0     C56448   4.411   2.958   6.863 -1.0522  0.4125  0.7269
  410MOL0     C56449   4.455   2.828   6.831 -0.4298  0.5295  0.0566
  410MOL0     O56450   4.582   2.795   6.784  0.3548 -0.0402  0.3793
  410MOL0     C56451   4.621   2.659   6.797 -0.4897 -0.8624  0.4130
  410MOL0     C56452   4.764   2.649   6.762 -0.1597  0.6945 -0.3259
  410MOL0     C56453   4.789   2.707   6.619 -0.3618  0.1471 -0.5027
  410MOL0     C56454   4.941   2.716   6.598  0.2393  0.1111 -0.3285
  410MOL0     C56455   4.954   2.723   6.454 -0.0175 -0.5180  0.4294
  410MOL0     C56456   4.902   2.854   6.393  0.3977 -0.6503  1.2310
  410MOL0     C56457   4.919   2.850   6.239  1.0173 -0.1379  0.2717
  410MOL0     C56458   4.821   2.749   6.169 -0.3523 -0.2415 -0.3069
  410MOL0     N56459   4.812   2.778   6.023  0.2619  0.0323 -0.5043
  410MOL0     C56460   4.726   2.869   5.961  0.6146 -0.1672  1.0743
  410MOL0     C56461   4.731   2.842   5.825  0.1217  0.0251  0.5935
  410MOL0     C56462   4.656   2.919   5.717  0.1359  0.5473 -0.1816
  410MOL0     C56463   4.566   2.817   5.637 -0.0150 -0.5461 -0.3261
  410MOL0     C56464   4.511   2.852   5.506  0.0056  0.0741 -0.3645
  410MOL0     C56465   4.384   2.776   5.476  0.1667  0.0200 -0.3497
  410MOL0     O56466   4.276   2.827   5.548 -0.3799 -0.3689 -0.1180
  410MOL0     C56467   4.146   2.819   5.491  0.2822 -0.4644  0.1758
  410MOL0     C56468   4.100   2.705   5.420  1.1711  0.4331  0.5353
  410MOL0     C56469   3.973   2.699   5.359 -0.1429  0.6917  0.2267
  410MOL0     C56470   3.940   2.575   5.279  0.9679  1.0081 -0.6086
  410MOL0     C56471   3.892   2.809   5.372  0.5413  0.2044  1.1578
  410MOL0     C56472   3.748   2.821   5.316  0.0850 -0.1530 -0.5553
  410MOL0     O56473   3.661   2.881   5.405 -0.1828  0.0694 -0.5795
  410MOL0     C56474   3.528   2.884   5.371 -0.1723  0.0888 -0.5706
  410MOL0     C56475   3.485   2.994   5.295 -0.2503  0.2521  0.2310
  410MOL0     C56476   3.353   3.009   5.268 -0.6360 -0.1265  0.3739
  410MOL0     C56477   3.262   2.908   5.282  0.4419  0.1596 -0.0086
  410MOL0     O56478   3.135   2.931   5.235 -0.1583  0.3081 -0.0900
  410MOL0     C56479   3.022   2.865   5.296 -0.4259  0.2503 -0.8775
  410MOL0     C56480   2.923   2.833   5.181  0.6894 -0.1527 -0.4062
  410MOL0     C56481   2.972   2.706   5.099 -0.6491  0.1511  0.5806
  410MOL0     C56482   2.878   2.669   4.979  0.2425  0.1630 -0.3174
  410MOL0     C56483   2.922   2.538   4.911 -0.1896 -0.4791 -0.3727
  410MOL0     C56484   2.816   2.499   4.815  0.3064  0.3131  0.0314
  410MOL0     C56485   2.865   2.378   4.733 -0.7892  0.9716  0.0944
  410MOL0     C56486   2.771   2.342   4.609 -0.4861  0.4418 -0.3963
  410MOL0    Cl56487   2.602   2.301   4.654 -0.0283  0.1037 -0.3445
  410MOL0     C56488   3.310   2.788   5.343 -0.0791  0.1782  0.2428
  410MOL0     C56489   3.442   2.774   5.394 -0.2530  0.7389 -0.4953
  410MOL0     O56490   3.719   2.761   5.209  0.1121 -0.4878  0.0550
  410MOL0     C56491   3.942   2.924   5.440  0.1894  0.4437  0.4397
  410MOL0     C56492   4.065   2.923   5.508  0.4274  1.2633  0.4234
  410MOL0     N56493   4.806   2.724   5.812  0.5850 -0.1419 -0.2442
  410MOL0     N56494   4.870   2.694   5.932 -0.5262 -0.8821  0.2414
  410MOL0     C56495   4.355   2.727   6.839 -0.8009  0.7035 -0.1777
  410MOL0     C56496   4.227   2.756   6.869 -0.3859  0.2764  0.2808
  410MOL0     C56497   3.872   2.876   7.114  1.0682 -0.5815  1.0113
  410MOL0     C56498   3.812   2.993   7.070 -0.3029  0.5405 -0.7659
  410MOL0     C56499   3.679   3.031   7.107 -0.2094 -0.9949 -0.2295
  410MOL0     C56500   3.606   2.955   7.194  0.0319  0.6651 -0.4312
  410MOL0     O56501   3.484   2.996   7.249 -0.3177  0.1226 -0.1091
  410MOL0     C56502   3.435   3.133   7.236  0.1954 -0.1819 -0.0547
  410MOL0     C56503   3.368   3.152   7.097  0.5696 -0.1500 -0.8096
  410MOL0     C56504   3.240   3.069   7.090 -0.3642 -0.1289 -0.2585
  410MOL0     C56505   3.107   3.150   7.116 -0.0629 -0.0572 -0.4500
  410MOL0     C56506   3.089   3.200   7.251 -0.3809  0.4012  1.0812
  410MOL0     C56507   3.051   3.265   7.343 -0.0230  1.3415 -1.0432
  410MOL0     C56508   3.660   2.835   7.235  0.1469 -0.5739  0.4315
  410MOL0     C56509   3.789   2.787   7.191 -0.4006 -0.6878  0.6008
  410MOL0     C56510   3.828   2.646   7.231 -0.1047 -0.4787 -0.4823
  410MOL0     H56511   4.250   3.083   6.933 -0.0309 -0.5778 -0.8991
  410MOL0     H56512   4.490   3.031   6.853 -2.5846  2.0018 -0.2821
  410MOL0     H56513   4.567   2.589   6.732 -2.5106 -1.9864  3.1343
  410MOL0     H56514   4.620   2.616   6.897 -2.3285 -2.3051 -0.1654
  410MOL0     H56515   4.824   2.695   6.841 -0.7621 -0.2764  0.7343
  410MOL0     H56516   4.785   2.542   6.773 -1.3533  0.6028  1.3463
  410MOL0     H56517   4.747   2.635   6.549  1.1876  0.7344 -2.0844
  410MOL0     H56518   4.735   2.803   6.616  0.6283  0.9326  2.6139
  410MOL0     H56519   4.976   2.813   6.634 -0.8047  1.2694 -2.2358
  410MOL0     H56520   4.993   2.630   6.641 -0.2476 -0.1978 -0.3485
  410MOL0     H56521   4.917   2.641   6.393  1.2564 -0.4133 -0.5231
  410MOL0     H56522   5.061   2.727   6.432 -0.4771  0.8067 -1.9112
  410MOL0     H56523   4.796   2.868   6.417  0.5409  1.6271  0.6997
  410MOL0     H56524   4.947   2.943   6.437  0.1213  0.3018 -0.3405
  410MOL0     H56525   5.024   2.838   6.214  1.0276 -1.1274  0.7605
  410MOL0     H56526   4.882   2.950   6.213  0.1724 -0.8983 -1.5814
  410MOL0     H56527   4.864   2.649   6.181  2.1610  1.0797  5.0537
  410MOL0     H56528   4.730   2.758   6.228 -0.1373 -2.2121  0.4116
  410MOL0     H56529   4.672   2.957   5.997  0.2860  0.7701 -1.4541
  410MOL0     H56530   4.724   2.973   5.651 -0.7218  0.8863 -0.8038
  410MOL0     H56531   4.596   2.999   5.760  0.0994  0.7281 -0.5593
  410MOL0     H56532   4.630   2.729   5.632 -2.2834 -2.3989  1.2529
  410MOL0     H56533   4.489   2.787   5.709 -0.8706  1.2655 -0.4148
  410MOL0     H56534   4.490   2.959   5.510 -2.6121 -0.3899  0.6444
  410MOL0     H56535   4.585   2.840   5.427  0.0216 -1.3396 -0.1531
  410MOL0     H56536   4.359   2.787   5.370 -0.3411 -0.9467 -0.3364
  410MOL0     H56537   4.419   2.676   5.503  4.7539  0.7184 -2.6746
  410MOL0     H56538   4.167   2.621   5.408 -0.8828 -1.1715 -0.4941
  410MOL0     H56539   3.930   2.599   5.173 -0.3448  2.6865 -0.1549
  410MOL0     H56540   3.846   2.529   5.311  0.6304  2.6508  0.9420
  410MOL0     H56541   4.018   2.500   5.294 -0.9927 -0.8519  0.8672
  410MOL0     H56542   3.554   3.076   5.277  0.6870  0.0267  2.3842
  410MOL0     H56543   3.307   3.102   5.237 -0.1946  0.6418  1.9314
  410MOL0     H56544   3.045   2.770   5.344 -1.5032  0.4367  0.0512
  410MOL0     H56545   2.962   2.931   5.360  0.5292 -0.4107  0.7536
  410MOL0     H56546   2.823   2.809   5.218 -0.0145  1.3281 -1.2402
  410MOL0     H56547   2.913   2.917   5.111  0.0232 -0.0590 -0.2082
  410MOL0     H56548   2.984   2.625   5.171 -0.2661  0.3316  0.7244
  410MOL0     H56549   3.072   2.742   5.073  0.2252 -0.3625  2.9394
  410MOL0     H56550   2.857   2.748   4.906  1.4489 -0.2710 -1.1559
  410MOL0     H56551   2.779   2.651   5.023  1.4538 -1.1379  2.0527
  410MOL0     H56552   3.017   2.562   4.862  0.8679  0.6843  2.0807
  410MOL0     H56553   2.933   2.464   4.991 -0.4818  2.4063  2.5693
  410MOL0     H56554   2.798   2.576   4.739 -3.3999 -1.4507 -1.1300
  410MOL0     H56555   2.714   2.471   4.844  0.3118  0.4304  0.1615
  410MOL0     H56556   2.878   2.293   4.802  2.1102  1.0655 -0.1932
  410MOL0     H56557   2.967   2.404   4.704  0.6308 -2.1079  1.8352
  410MOL0     H56558   2.804   2.258   4.548  2.2603  0.1880  1.2863
  410MOL0     H56559   2.766   2.426   4.539 -2.1467  0.5148 -0.2343
  410MOL0     H56560   3.241   2.705   5.354 -0.2930  0.3442  0.1823
  410MOL0     H56561   3.480   2.680   5.433 -2.5698 -0.1025 -0.0830
  410MOL0     H56562   3.876   3.010   5.436 -1.8186 -1.0272 -4.1707
  410MOL0     H56563   4.101   3.007   5.566  1.4975  2.7657 -2.2463
  410MOL0     H56564   4.378   2.621   6.843 -1.4007  0.6028  1.9859
  410MOL0     H56565   4.161   2.671   6.885 -1.1375  0.6977 -0.5434
  410MOL0     H56566   3.869   3.072   7.021  0.0791  1.8249  1.5604
  410MOL0     H56567   3.643   3.127   7.072 -0.0160 -0.6789  0.4289
  410MOL0     H56568   3.361   3.152   7.314  1.2786 -0.3791  1.0450
  410MOL0     H56569   3.516   3.205   7.249  1.1476 -1.4505  1.3259
  410MOL0     H56570   3.438   3.122   7.019  2.6322  1.1331  0.4424
  410MOL0     H56571   3.335   3.256   7.096 -2.7438 -1.0569  0.6019
  410MOL0     H56572   3.228   3.032   6.988  1.1014  3.0011 -1.6731
  410MOL0     H56573   3.240   2.991   7.167 -0.1010  0.3035  0.1895
  410MOL0     H56574   3.024   3.084   7.088 -1.2550  1.2297 -0.1054
  410MOL0     H56575   3.097   3.236   7.050  0.4911  0.9314  0.7149
  410MOL0     H56576   3.047   3.323   7.433  1.1241 -0.2058  0.0451
  410MOL0     H56577   3.600   2.777   7.304 -0.1371 -3.0611 -1.7364
  410MOL0     H56578   3.876   2.635   7.329 -3.2607 -1.8618  1.0401
  410MOL0     H56579   3.738   2.586   7.240  0.5492 -1.2335  1.5171
  410MOL0     H56580   3.883   2.593   7.153  0.2449 -1.3540  0.3468
  411MOL0     O56581  10.700   7.464   1.381  0.9874 -0.1991 -0.4333
  411MOL0     C56582  10.759   7.362   1.421 -0.7640  0.1173  0.8305
  411MOL0     O56583  10.767   7.245   1.352 -0.5943  0.3277 -0.0877
  411MOL0     C56584  10.685   7.240   1.242  0.0564 -0.2193 -1.3021
  411MOL0     C56585  10.587   7.153   1.253  0.3091  0.2980 -0.0013
  411MOL0     C56586  10.504   7.115   1.143 -0.0884  0.3699  0.2584
  411MOL0     C56587  10.539   7.179   1.020 -0.4109  0.1035 -0.3799
  411MOL0     O56588  10.463   7.145   0.915  0.4839 -0.6072  0.2273
  411MOL0     C56589  10.460   7.238   0.802 -0.2564 -0.4012  0.0501
  411MOL0     C56590  10.321   7.245   0.731  0.0433  0.4339 -0.1994
  411MOL0     C56591  10.324   7.343   0.614 -0.1573 -0.2179 -0.4106
  411MOL0     C56592  10.182   7.365   0.557 -0.5281 -0.5761  0.5527
  411MOL0     C56593  10.190   7.430   0.421  0.4007  0.2037 -0.9499
  411MOL0     C56594  10.047   7.481   0.380  0.0196  0.0565 -0.0179
  411MOL0     C56595  10.058   7.571   0.255  0.3762 -0.7333 -0.7906
  411MOL0     C56596  10.091   7.495   0.131 -0.2780  0.2286  0.3931
  411MOL0     N56597  10.103   7.589   0.016  0.5246  0.4107  0.0123
  411MOL0     C56598  10.221   7.651  -0.016 -0.2055 -0.2048  0.8465
  411MOL0     C56599  10.196   7.711  -0.135 -0.1513  0.2717 -0.7781
  411MOL0     C56600  10.291   7.795  -0.206  0.1734 -0.1284 -0.0999
  411MOL0     C56601  10.340   7.917  -0.124 -0.3759  0.3539 -0.6315
  411MOL0     C56602  10.476   7.886  -0.048 -0.3584  0.2834  0.5198
  411MOL0     C56603  10.606   7.897  -0.130  0.4736 -0.2601 -0.3295
  411MOL0     O56604  10.715   7.853  -0.051  0.2477 -0.3647  0.0870
  411MOL0     C56605  10.822   7.786  -0.102 -0.7280 -0.3346 -0.8515
  411MOL0     C56606  10.913   7.727  -0.009  0.1661 -0.6462  0.1228
  411MOL0     C56607  11.034   7.661  -0.048 -0.6448  0.8775 -0.1993
  411MOL0     C56608  11.119   7.595   0.063  0.3505 -0.6172 -0.2028
  411MOL0     C56609  11.084   7.691  -0.173  0.2146  0.7206 -0.2145
  411MOL0     C56610  11.219   7.647  -0.220 -0.2704 -0.0278 -0.5832
  411MOL0     O56611  11.235   7.656  -0.363 -0.4559 -0.0105 -0.2762
  411MOL0     C56612  11.331   7.571  -0.416 -0.3985 -0.0019  0.4123
  411MOL0     C56613  11.462   7.602  -0.396  0.3769  0.6986 -0.6424
  411MOL0     C56614  11.562   7.516  -0.465  0.4857 -0.2893  0.4877
  411MOL0     C56615  11.523   7.407  -0.555  0.8133 -1.2391 -0.2327
  411MOL0     O56616  11.631   7.330  -0.597  0.2922  0.0844  0.3234
  411MOL0     C56617  11.596   7.198  -0.639  0.4329  0.9921 -0.0041
  411MOL0     C56618  11.705   7.104  -0.626  0.0263 -0.2713 -0.6482
  411MOL0     C56619  11.786   7.093  -0.498 -0.0487 -0.7934 -0.6133
  411MOL0     C56620  11.841   6.945  -0.485 -0.2774 -0.0627 -0.2935
  411MOL0     C56621  11.909   6.928  -0.346  0.5490  0.2924 -0.3372
  411MOL0     C56622  11.943   6.777  -0.329 -0.5240 -0.1880  0.0346
  411MOL0     C56623  12.070   6.749  -0.243 -0.2439 -0.2536  0.2233
  411MOL0     C56624  12.032   6.757  -0.098 -0.2866  0.9240 -0.1212
  411MOL0    Cl56625  12.153   6.688   0.014  0.0317 -0.9263  0.4742
  411MOL0     C56626  11.383   7.385  -0.579 -0.3586 -0.5108  0.2834
  411MOL0     C56627  11.297   7.476  -0.516 -0.9813  0.7924 -0.5022
  411MOL0     O56628  11.305   7.591  -0.147 -0.2114  0.3093 -1.0767
  411MOL0     C56629  11.001   7.760  -0.265  0.0043 -0.1907 -0.5014
  411MOL0     C56630  10.868   7.791  -0.238 -0.4272  1.4584 -0.2637
  411MOL0     N56631  10.065   7.689  -0.171  0.6447 -0.6453 -0.4268
  411MOL0     N56632  10.014   7.600  -0.087  0.6057 -0.4818 -0.2661
  411MOL0     C56633  10.646   7.274   1.016 -0.0652  0.5440  0.4664
  411MOL0     C56634  10.712   7.314   1.121  0.2077  0.3645 -0.7879
  411MOL0     C56635  10.840   7.372   1.542 -0.5053 -0.3719 -0.9219
  411MOL0     C56636  10.973   7.321   1.538  0.2727 -0.7131  0.0405
  411MOL0     C56637  11.061   7.317   1.641  0.3595 -0.1738 -0.3460
  411MOL0     C56638  11.025   7.374   1.762  1.1021  0.4946  0.4845
  411MOL0     O56639  11.099   7.383   1.875 -0.5152  0.0057 -0.3121
  411MOL0     C56640  11.230   7.331   1.879  0.4732  0.7122 -1.1277
  411MOL0     C56641  11.235   7.179   1.904  0.4374  0.3203  0.4102
  411MOL0     C56642  11.131   7.122   1.989  0.1537 -0.1824 -0.9403
  411MOL0     C56643  11.168   6.982   2.030 -0.1368  0.3974  0.4492
  411MOL0     C56644  11.061   6.933   2.110  0.6748 -0.8323 -0.1253
  411MOL0     C56645  10.980   6.889   2.187  0.5822  0.8734  0.6491
  411MOL0     C56646  10.897   7.439   1.768 -0.7882  0.4655  0.1915
  411MOL0     C56647  10.806   7.435   1.665  0.5126  0.7612 -0.3741
  411MOL0     C56648  10.677   7.505   1.692 -0.3396  0.4735 -0.8690
  411MOL0     H56649  10.563   7.105   1.347 -3.2843 -1.8078 -1.7583
  411MOL0     H56650  10.439   7.029   1.132  0.3439  0.2133 -1.2448
  411MOL0     H56651  10.527   7.198   0.725 -0.0861 -1.4602  0.7150
  411MOL0     H56652  10.487   7.341   0.828 -1.8399  0.1664 -0.4503
  411MOL0     H56653  10.309   7.144   0.692 -0.6455  0.3713  0.1725
  411MOL0     H56654  10.240   7.260   0.804  0.5081 -0.4610  0.5240
  411MOL0     H56655  10.358   7.438   0.656  1.1037 -1.3794  1.3357
  411MOL0     H56656  10.384   7.291   0.539  4.0978  0.6545  2.0601
  411MOL0     H56657  10.143   7.264   0.538  0.6187 -0.5425 -2.6381
  411MOL0     H56658  10.139   7.442   0.621  4.3219  2.7363  0.3276
  411MOL0     H56659  10.231   7.363   0.345  0.3901  0.3426 -1.0792
  411MOL0     H56660  10.261   7.512   0.436  2.4902 -1.2397 -2.4039
  411MOL0     H56661   9.982   7.397   0.354  0.0004 -0.0383  0.3378
  411MOL0     H56662  10.002   7.544   0.457 -3.8628  0.3862 -2.2848
  411MOL0     H56663  10.126   7.656   0.272 -2.2086  1.3565 -0.1890
  411MOL0     H56664   9.959   7.617   0.244  0.1628 -1.3139 -1.3368
  411MOL0     H56665  10.181   7.436   0.146 -1.4770 -1.7459  0.2366
  411MOL0     H56666  10.005   7.434   0.101 -0.2677  0.7793 -0.8003
  411MOL0     H56667  10.302   7.668   0.053 -0.5544  1.3046  0.9128
  411MOL0     H56668  10.242   7.831  -0.297  0.5354  0.7192  0.0364
  411MOL0     H56669  10.376   7.734  -0.236  0.8937 -0.1270  1.7869
  411MOL0     H56670  10.351   8.006  -0.187  0.5757  1.6438  1.2947
  411MOL0     H56671  10.264   7.944  -0.050 -1.3233 -3.7164  0.1633
  411MOL0     H56672  10.483   7.958   0.035  1.2346  0.3951  0.3095
  411MOL0     H56673  10.472   7.790   0.004  2.3130 -0.0188  0.3236
  411MOL0     H56674  10.601   7.847  -0.227  2.8490  1.2165 -1.3151
  411MOL0     H56675  10.627   8.003  -0.148 -0.7727  0.1397  0.4809
  411MOL0     H56676  10.863   7.735   0.087 -2.4323  1.7476 -1.2814
  411MOL0     H56677  11.060   7.572   0.152  1.0995 -2.8565 -0.2341
  411MOL0     H56678  11.186   7.676   0.093  0.8988 -0.8297 -0.8435
  411MOL0     H56679  11.174   7.507   0.030 -0.6963 -1.7770  1.0273
  411MOL0     H56680  11.493   7.689  -0.340 -0.7654  1.3392 -0.9890
  411MOL0     H56681  11.668   7.535  -0.445  0.5167  1.3261 -0.9746
  411MOL0     H56682  11.519   7.160  -0.572 -1.8717 -0.2028 -3.0994
  411MOL0     H56683  11.549   7.197  -0.738  1.5868  1.4987 -0.5759
  411MOL0     H56684  11.663   7.005  -0.646  1.5574 -1.0749 -0.0460
  411MOL0     H56685  11.781   7.116  -0.704  0.2351 -0.9153 -0.5440
  411MOL0     H56686  11.724   7.100  -0.408 -0.3431 -3.5345 -0.5216
  411MOL0     H56687  11.859   7.175  -0.492 -1.6258  1.1112 -4.0788
  411MOL0     H56688  11.918   6.928  -0.561  2.0644  1.2581  1.6367
  411MOL0     H56689  11.762   6.871  -0.501  0.8542 -1.7651  1.5345
  411MOL0     H56690  11.999   6.990  -0.345  0.3907  0.5195  0.6142
  411MOL0     H56691  11.854   6.965  -0.259  1.6633  0.3426  0.3587
  411MOL0     H56692  11.969   6.731  -0.425  1.2590 -4.2038  2.2276
  411MOL0     H56693  11.854   6.728  -0.288 -0.2179  1.9153  3.5786
  411MOL0     H56694  12.149   6.823  -0.258 -0.3592  0.0046  0.8560
  411MOL0     H56695  12.104   6.645  -0.249  0.8654 -0.0380  1.8661
  411MOL0     H56696  11.939   6.699  -0.089  0.5795 -0.2986  1.3482
  411MOL0     H56697  12.016   6.861  -0.069  0.3632  0.6148  1.4033
  411MOL0     H56698  11.331   7.317  -0.646  0.6481 -0.8751 -0.1403
  411MOL0     H56699  11.190   7.472  -0.536 -1.5318 -0.5151  2.2355
  411MOL0     H56700  11.029   7.786  -0.367  0.7913  2.4417  0.3023
  411MOL0     H56701  10.807   7.828  -0.319 -0.1367 -1.1238 -1.7859
  411MOL0     H56702  10.681   7.322   0.925  0.8446  0.3559  0.7115
  411MOL0     H56703  10.790   7.390   1.124  0.7212 -0.1646 -0.3738
  411MOL0     H56704  11.009   7.270   1.449 -1.9232 -3.5155  0.5812
  411MOL0     H56705  11.160   7.276   1.620 -0.0516 -1.3814  0.0027
  411MOL0     H56706  11.293   7.345   1.790 -1.0034  0.7224 -2.2187
  411MOL0     H56707  11.263   7.390   1.964  1.5567 -1.8317  0.3160
  411MOL0     H56708  11.332   7.143   1.939 -0.4682 -1.7645  0.9383
  411MOL0     H56709  11.210   7.129   1.810  1.1892 -0.8948  0.8266
  411MOL0     H56710  11.122   7.175   2.085 -2.6839 -4.0462  1.1547
  411MOL0     H56711  11.045   7.122   1.922 -0.3532 -2.9740 -0.3658
  411MOL0     H56712  11.262   6.987   2.085  0.5577 -1.2980 -0.5187
  411MOL0     H56713  11.190   6.921   1.942  1.6014  1.3320  0.1839
  411MOL0     H56714  10.908   6.856   2.259  0.2969  0.7779  0.3224
  411MOL0     H56715  10.886   7.489   1.864  2.3936  2.5299 -0.3671
  411MOL0     H56716  10.649   7.491   1.796  1.3123  0.2006 -0.4311
  411MOL0     H56717  10.689   7.610   1.661  0.8577  0.7547  0.4204
  411MOL0     H56718  10.594   7.461   1.636 -2.1528  0.9851  1.2711
  412MOL0     O56719   9.793   0.730   9.796  0.1328  0.5711  0.3248
  412MOL0     C56720   9.793   0.630   9.722 -0.2725 -0.1219  0.3372
  412MOL0     O56721   9.891   0.597   9.632  0.6417  0.5890 -0.1882
  412MOL0     C56722  10.003   0.682   9.603  0.0357  0.2270 -0.8693
  412MOL0     C56723  10.082   0.648   9.492  0.2134 -0.2459  1.2418
  412MOL0     C56724  10.207   0.707   9.458  0.9950 -0.7699 -0.9279
  412MOL0     C56725  10.253   0.806   9.545 -0.1013  0.9210  0.3437
  412MOL0     O56726  10.378   0.865   9.538 -0.1209 -0.3844  0.6553
  412MOL0     C56727  10.398   0.955   9.427 -0.1470 -0.0793  0.5798
  412MOL0     C56728  10.498   0.886   9.337 -0.9595 -0.8237  0.3128
  412MOL0     C56729  10.541   0.971   9.214  0.6369  0.0418 -0.1151
  412MOL0     C56730  10.429   0.983   9.110 -0.2032  0.2871 -0.1431
  412MOL0     C56731  10.489   1.015   8.972 -0.0607 -0.1844  0.3120
  412MOL0     C56732  10.400   1.021   8.855  0.1740  0.3136 -0.7012
  412MOL0     C56733  10.462   0.973   8.717 -0.0602  0.2050 -0.6839
  412MOL0     C56734  10.600   1.033   8.677 -0.0439  0.4181  0.1743
  412MOL0     N56735  10.623   1.024   8.528 -0.0710  0.4274 -0.3287
  412MOL0     C56736  10.564   1.103   8.425  0.5205  0.8721 -1.4683
  412MOL0     C56737  10.632   1.048   8.314 -0.1576 -0.4307  0.6233
  412MOL0     C56738  10.622   1.104   8.175  0.1573  0.6004 -0.5838
  412MOL0     C56739  10.538   1.019   8.081  0.6177  0.4576 -0.0221
  412MOL0     C56740  10.515   1.081   7.946  0.0063 -0.3882 -0.2479
  412MOL0     C56741  10.638   1.089   7.848 -0.3300  0.1465 -0.3746
  412MOL0     O56742  10.649   0.951   7.820  0.1409  0.0905 -0.0257
  412MOL0     C56743  10.718   0.898   7.714 -0.4228  0.1315 -0.5419
  412MOL0     C56744  10.814   0.965   7.640  0.0363  0.7953  0.4698
  412MOL0     C56745  10.876   0.910   7.522 -0.7275 -0.3207  0.1804
  412MOL0     C56746  10.974   0.984   7.445  0.0970 -0.5779 -0.5349
  412MOL0     C56747  10.827   0.782   7.478 -0.0785  0.0173 -0.0522
  412MOL0     C56748  10.866   0.714   7.346  0.3413 -0.2489 -0.1076
  412MOL0     O56749  10.774   0.627   7.311 -0.5493 -0.0148  0.2635
  412MOL0     C56750  10.797   0.557   7.196 -0.6844  0.2795  0.2907
  412MOL0     C56751  10.716   0.579   7.087 -0.3966  0.2197 -0.3532
  412MOL0     C56752  10.732   0.520   6.959 -0.2752 -0.4757  0.1048
  412MOL0     C56753  10.841   0.427   6.944 -0.1295  0.2417 -0.1384
  412MOL0     O56754  10.871   0.370   6.818  0.4322 -0.4316 -0.0987
  412MOL0     C56755  11.004   0.363   6.780  0.0439  0.1484 -0.8152
  412MOL0     C56756  11.001   0.378   6.631  0.1596  0.3327  0.3703
  412MOL0     C56757  10.961   0.252   6.555  0.1948 -0.7611  0.2786
  412MOL0     C56758  10.919   0.294   6.409 -0.9007  0.4617 -0.7918
  412MOL0     C56759  10.872   0.162   6.319 -0.8539  0.2373 -0.2519
  412MOL0     C56760  10.817   0.191   6.173 -0.2253  0.7078 -0.7412
  412MOL0     C56761  10.851   0.080   6.084 -0.4560 -0.6342  0.1313
  412MOL0     C56762  10.800   0.090   5.945 -0.7454  0.4724 -0.4144
  412MOL0    Cl56763  10.865   0.237   5.867  0.9552 -0.2451 -0.0488
  412MOL0     C56764  10.921   0.400   7.058 -0.6387  0.5323  0.1370
  412MOL0     C56765  10.912   0.465   7.178  0.0100 -0.9317 -0.6031
  412MOL0     O56766  10.957   0.764   7.276  0.0948 -0.0644  0.3395
  412MOL0     C56767  10.729   0.716   7.556 -0.3939  0.5380  0.1133
  412MOL0     C56768  10.682   0.773   7.676 -0.0834  0.3749  0.1266
  412MOL0     N56769  10.713   0.941   8.341 -0.2537 -0.0758  0.5812
  412MOL0     N56770  10.701   0.926   8.469  0.6780 -0.3006  0.3646
  412MOL0     C56771  10.184   0.840   9.653  1.0590 -0.1838 -0.0424
  412MOL0     C56772  10.057   0.786   9.679 -0.0400  0.3875 -0.6849
  412MOL0     C56773   9.672   0.558   9.733  1.0756 -0.1709  0.1490
  412MOL0     C56774   9.553   0.626   9.701  0.5568  0.4628  0.3287
  412MOL0     C56775   9.426   0.556   9.705 -0.2811  0.6673 -0.0528
  412MOL0     C56776   9.421   0.423   9.734 -0.1800  0.8661  0.3269
  412MOL0     O56777   9.293   0.371   9.758  0.1426 -0.9406  0.4082
  412MOL0     C56778   9.286   0.246   9.822  0.4900  0.6952 -0.4123
  412MOL0     C56779   9.137   0.189   9.821 -0.3593 -0.3011  0.1287
  412MOL0     C56780   9.033   0.291   9.838  0.0924 -0.2147 -0.4326
  412MOL0     C56781   8.907   0.229   9.879  0.1214  0.3308  0.1250
  412MOL0     C56782   8.791   0.323   9.870  0.0376  0.3919 -0.5871
  412MOL0     C56783   8.706   0.401   9.874  0.1912  0.4688 -0.9590
  412MOL0     C56784   9.540   0.357   9.757  0.3737  0.2259  0.1107
  412MOL0     C56785   9.664   0.420   9.754  0.5155 -0.3259 -0.0278
  412MOL0     C56786   9.781   0.326   9.759 -0.2322 -0.5112  0.1408
  412MOL0     H56787  10.043   0.567   9.431 -1.4550  1.0406  0.5120
  412MOL0     H56788  10.271   0.682   9.374  0.5232  0.6800 -1.7673
  412MOL0     H56789  10.435   1.052   9.460 -1.2469  0.7288 -0.4955
  412MOL0     H56790  10.305   0.961   9.371  0.3102 -0.9187 -0.3209
  412MOL0     H56791  10.584   0.864   9.401  1.0736  1.6539 -1.3666
  412MOL0     H56792  10.474   0.787   9.299 -0.1479 -1.2755  0.9273
  412MOL0     H56793  10.582   1.071   9.231  0.8479 -0.0188 -0.2552
  412MOL0     H56794  10.632   0.915   9.186  1.2506  0.1900  1.4977
  412MOL0     H56795  10.382   0.885   9.105  3.0168 -1.5279  1.6598
  412MOL0     H56796  10.349   1.046   9.149 -0.6389  0.7398 -1.7164
  412MOL0     H56797  10.563   0.941   8.942 -1.2539 -0.8534 -1.1088
  412MOL0     H56798  10.550   1.103   8.991  1.9777 -1.4435 -0.1205
  412MOL0     H56799  10.315   0.958   8.884  0.8414 -0.0895  0.4609
  412MOL0     H56800  10.374   1.125   8.838 -1.0962 -0.5310 -5.2486
  412MOL0     H56801  10.392   0.977   8.634  0.9151 -0.1675 -1.5501
  412MOL0     H56802  10.490   0.867   8.725  1.8098  0.7480  0.8851
  412MOL0     H56803  10.598   1.138   8.708  1.1286  0.6725 -0.5573
  412MOL0     H56804  10.676   0.976   8.732 -3.0959 -3.5311  0.7908
  412MOL0     H56805  10.507   1.195   8.430 -0.4353  0.2935 -1.3309
  412MOL0     H56806  10.726   1.117   8.142  1.1587 -0.1939  1.9589
  412MOL0     H56807  10.572   1.201   8.178  0.1026  0.6378 -1.9808
  412MOL0     H56808  10.600   0.929   8.077  1.7785  1.2499 -0.2305
  412MOL0     H56809  10.443   1.003   8.133  0.6067  0.9179  0.1018
  412MOL0     H56810  10.444   1.015   7.896 -1.3385 -1.5055  2.8828
  412MOL0     H56811  10.472   1.181   7.961  1.8557  0.3126  0.7347
  412MOL0     H56812  10.618   1.157   7.765 -0.8298 -0.1532 -0.5086
  412MOL0     H56813  10.733   1.124   7.887  0.7151 -2.7160 -0.1177
  412MOL0     H56814  10.850   1.063   7.673  1.5337  2.6044 -5.3724
  412MOL0     H56815  11.055   0.919   7.412  0.5343 -0.1490 -0.3236
  412MOL0     H56816  11.010   1.065   7.510 -3.4972 -1.1967  2.6087
  412MOL0     H56817  10.925   1.020   7.354  0.4394 -0.7974 -0.8069
  412MOL0     H56818  10.637   0.654   7.088 -0.5395  0.0730 -0.4984
  412MOL0     H56819  10.650   0.544   6.892  0.0153  1.2349  0.3230
  412MOL0     H56820  11.071   0.437   6.824  3.6572 -2.4232 -1.4678
  412MOL0     H56821  11.052   0.265   6.792  1.2109  0.5622 -1.8448
  412MOL0     H56822  10.927   0.451   6.596  0.9173  0.9929  0.1043
  412MOL0     H56823  11.098   0.424   6.608  1.4273  0.0854  4.4611
  412MOL0     H56824  10.877   0.211   6.612 -1.2197  2.2644  0.5272
  412MOL0     H56825  11.039   0.174   6.559 -0.8693 -2.4671 -4.5679
  412MOL0     H56826  10.996   0.343   6.348 -1.7449  2.5809 -0.2513
  412MOL0     H56827  10.842   0.371   6.416  1.0636  2.3742  1.4088
  412MOL0     H56828  10.946   0.084   6.298  0.8729  2.1115 -1.5412
  412MOL0     H56829  10.791   0.108   6.369 -2.5057  0.3769 -2.6118
  412MOL0     H56830  10.880   0.277   6.146  2.4797 -0.4037  1.5391
  412MOL0     H56831  10.713   0.223   6.184 -0.1067  0.8066  0.1382
  412MOL0     H56832  10.820  -0.016   6.125 -0.6144 -0.9157 -0.6362
  412MOL0     H56833  10.960   0.077   6.089 -0.3750  1.7813  1.0393
  412MOL0     H56834  10.691   0.073   5.944 -0.5172 -1.3568 -2.4705
  412MOL0     H56835  10.830  -0.004   5.898 -2.2514 -0.8619  1.1266
  412MOL0     H56836  11.002   0.331   7.036  0.4057  1.6319  0.4262
  412MOL0     H56837  10.986   0.446   7.256 -0.0957  1.0567  0.0437
  412MOL0     H56838  10.706   0.612   7.534 -0.8428  0.0198  2.6894
  412MOL0     H56839  10.608   0.715   7.731  0.3461  0.7288  1.0913
  412MOL0     H56840  10.224   0.917   9.718 -2.1219  0.6243  1.1303
  412MOL0     H56841  10.015   0.826   9.770  0.1885  0.1496 -0.4744
  412MOL0     H56842   9.561   0.732   9.684 -2.9854  0.9739  1.1523
  412MOL0     H56843   9.337   0.607   9.669 -0.9142 -0.2343  0.2004
  412MOL0     H56844   9.344   0.163   9.780  0.4456 -0.9112  2.4705
  412MOL0     H56845   9.322   0.258   9.924 -2.8179 -0.4993  1.0409
  412MOL0     H56846   9.123   0.108   9.893  0.5870  0.9700  1.8192
  412MOL0     H56847   9.102   0.144   9.727 -0.4715 -0.8977  0.4518
  412MOL0     H56848   9.052   0.370   9.912  0.1913  2.0194 -2.7106
  412MOL0     H56849   9.041   0.350   9.746  0.6578  0.8101  0.2527
  412MOL0     H56850   8.924   0.186   9.977  0.3823  1.0950  0.4218
  412MOL0     H56851   8.888   0.149   9.806  0.3218  1.1411 -0.8516
  412MOL0     H56852   8.632   0.477   9.890 -1.0816 -0.4877 -2.0865
  412MOL0     H56853   9.537   0.251   9.778 -1.0749 -0.3994 -2.7603
  412MOL0     H56854   9.802   0.287   9.659 -2.9273  1.1095 -1.1827
  412MOL0     H56855   9.867   0.391   9.779 -1.3770  1.3021 -0.5078
  412MOL0     H56856   9.769   0.245   9.831  1.1814 -1.2677 -0.4334
  413MOL0     O56857   7.582   8.554   3.939  0.2274  0.0393 -0.5647
  413MOL0     C56858   7.555   8.660   3.989 -0.4195  0.3403 -0.3390
  413MOL0     O56859   7.435   8.726   3.972  0.0949 -0.0467 -0.0269
  413MOL0     C56860   7.343   8.682   3.882 -0.5178  0.1158  0.3877
  413MOL0     C56861   7.290   8.780   3.797 -0.0244  0.1461  0.2989
  413MOL0     C56862   7.195   8.731   3.700 -0.6350  0.3428  0.4598
  413MOL0     C56863   7.153   8.598   3.699  0.0187  0.1207  0.4088
  413MOL0     O56864   7.072   8.559   3.593  0.6629 -0.0726 -0.7517
  413MOL0     C56865   6.965   8.466   3.621  0.0082  0.1624 -0.2193
  413MOL0     C56866   6.825   8.489   3.556 -1.2989 -0.4698 -0.0099
  413MOL0     C56867   6.766   8.607   3.626 -0.9390  0.3702 -0.3105
  413MOL0     C56868   6.650   8.659   3.541 -0.0412 -0.3468  0.0530
  413MOL0     C56869   6.567   8.758   3.632 -0.1322  0.5125 -0.5683
  413MOL0     C56870   6.646   8.879   3.669  0.3638  0.5242 -0.1998
  413MOL0     C56871   6.563   8.957   3.762  0.2766 -0.5287 -0.5202
  413MOL0     C56872   6.629   9.080   3.830  0.1360  0.0986  0.8855
  413MOL0     N56873   6.637   9.182   3.721  0.2209  0.2911  0.7380
  413MOL0     C56874   6.551   9.280   3.695 -0.4434  0.0130  0.4560
  413MOL0     C56875   6.593   9.345   3.586  0.5063  0.5362  0.1317
  413MOL0     C56876   6.520   9.450   3.516  0.9263  0.3095 -0.2006
  413MOL0     C56877   6.368   9.420   3.502 -0.7984 -0.1102 -0.5830
  413MOL0     C56878   6.310   9.518   3.401 -0.0369 -0.0442 -0.1044
  413MOL0     C56879   6.158   9.499   3.390  0.1297  0.8627 -0.5007
  413MOL0     O56880   6.136   9.388   3.296 -0.2429 -0.4244 -0.1110
  413MOL0     C56881   6.141   9.395   3.165  0.1800  0.8052 -0.7225
  413MOL0     C56882   6.176   9.515   3.107  0.8545  0.4409 -0.3938
  413MOL0     C56883   6.170   9.531   2.970  0.2855 -0.1900 -0.0805
  413MOL0     C56884   6.196   9.674   2.929 -0.5064 -0.8086 -0.3788
  413MOL0     C56885   6.111   9.443   2.885  0.6660 -0.2311  0.4177
  413MOL0     C56886   6.073   9.469   2.736  1.0490  0.3650 -0.1971
  413MOL0     O56887   6.060   9.595   2.688  0.6499 -0.0126  0.2381
  413MOL0     C56888   6.045   9.618   2.557  0.0211 -0.3414  0.3552
  413MOL0     C56889   6.128   9.557   2.465  0.0556  0.1214 -0.3357
  413MOL0     C56890   6.109   9.572   2.328 -0.0130 -0.0890 -0.3720
  413MOL0     C56891   5.999   9.641   2.273 -0.2644  0.5472 -0.3470
  413MOL0     O56892   5.984   9.649   2.135 -0.1634  0.5806 -0.6981
  413MOL0     C56893   6.049   9.550   2.053 -0.4967 -0.0409 -0.2061
  413MOL0     C56894   6.189   9.590   2.007 -0.7202 -0.2532 -0.9103
  413MOL0     C56895   6.283   9.473   1.954 -1.3980 -0.0023 -0.2167
  413MOL0     C56896   6.410   9.541   1.888 -0.1943  0.1876 -0.8842
  413MOL0     C56897   6.504   9.443   1.829  0.7603  0.4953  0.2959
  413MOL0     C56898   6.459   9.377   1.697 -0.2076 -0.0003 -0.5214
  413MOL0     C56899   6.592   9.345   1.627 -0.1558 -0.6601  0.6057
  413MOL0     C56900   6.560   9.222   1.549  0.7493  0.0751 -0.2773
  413MOL0    Cl56901   6.698   9.175   1.449 -0.1081  0.2721 -0.0333
  413MOL0     C56902   5.910   9.704   2.364  0.5948 -0.0970  0.4728
  413MOL0     C56903   5.945   9.694   2.504  1.1183  0.9745  0.3489
  413MOL0     O56904   6.049   9.369   2.673 -0.1564  0.0766  0.3332
  413MOL0     C56905   6.080   9.316   2.941  0.3515 -0.1473 -0.8092
  413MOL0     C56906   6.092   9.291   3.080 -0.2333 -0.3513  0.1075
  413MOL0     N56907   6.714   9.288   3.554 -0.0765 -0.7945  0.2102
  413MOL0     N56908   6.738   9.189   3.638  1.1616 -1.2212  1.5653
  413MOL0     C56909   7.191   8.511   3.794 -0.5875  0.4239 -0.2344
  413MOL0     C56910   7.296   8.546   3.877  0.6792  0.4570 -0.0956
  413MOL0     C56911   7.655   8.731   4.075 -0.0413 -0.0642 -0.1558
  413MOL0     C56912   7.624   8.862   4.115 -0.2579 -0.4038  0.0324
  413MOL0     C56913   7.700   8.931   4.206 -0.4990  0.6263  0.6312
  413MOL0     C56914   7.810   8.875   4.269  0.0228  0.5618 -0.2243
  413MOL0     O56915   7.879   8.951   4.371 -0.0725 -0.7578  0.3797
  413MOL0     C56916   8.010   8.982   4.330  0.1736  0.1183  0.0344
  413MOL0     C56917   8.094   8.911   4.432  0.0868 -1.4012 -0.3401
  413MOL0     C56918   8.222   8.985   4.467 -0.3289 -0.4278 -0.5169
  413MOL0     C56919   8.315   8.912   4.571  0.6890 -0.5802  0.9598
  413MOL0     C56920   8.343   8.992   4.687  1.0099  0.1161 -0.7061
  413MOL0     C56921   8.373   9.062   4.781  0.1919  0.7720 -0.6003
  413MOL0     C56922   7.844   8.738   4.231  0.3899  0.0115  0.2951
  413MOL0     C56923   7.773   8.677   4.127 -0.8025 -0.5807 -0.6756
  413MOL0     C56924   7.811   8.531   4.099  0.3281 -0.3025  0.3804
  413MOL0     H56925   7.317   8.885   3.796  0.2254  0.1109  1.5793
  413MOL0     H56926   7.165   8.795   3.617  0.4374 -0.3817 -0.5076
  413MOL0     H56927   6.945   8.466   3.729 -1.1204 -2.3682 -0.3660
  413MOL0     H56928   7.003   8.371   3.584  0.3686  0.4616 -0.6288
  413MOL0     H56929   6.823   8.513   3.449  2.0396  3.6518  0.5771
  413MOL0     H56930   6.748   8.415   3.576 -3.2448  2.1066  2.8328
  413MOL0     H56931   6.735   8.569   3.724 -2.7106 -0.9587 -1.3173
  413MOL0     H56932   6.850   8.676   3.641 -0.8036 -0.3934  3.3260
  413MOL0     H56933   6.674   8.712   3.449  1.5341  1.2997  1.3512
  413MOL0     H56934   6.587   8.573   3.514  0.5424 -0.6918 -0.2204
  413MOL0     H56935   6.534   8.703   3.721 -1.1501  3.8746  1.3016
  413MOL0     H56936   6.475   8.792   3.583 -1.0967 -1.2964 -0.0924
  413MOL0     H56937   6.736   8.848   3.723  0.7692  1.7301 -0.1462
  413MOL0     H56938   6.675   8.937   3.580 -0.3751  0.6472 -0.3629
  413MOL0     H56939   6.521   8.896   3.843  0.8268  0.3767  0.4787
  413MOL0     H56940   6.474   8.990   3.709 -0.5523  0.9978  1.6907
  413MOL0     H56941   6.574   9.122   3.915 -1.2560  0.4335 -0.1392
  413MOL0     H56942   6.730   9.061   3.866  1.4119 -0.6132 -2.6427
  413MOL0     H56943   6.453   9.298   3.739 -0.1995  0.1088  0.9711
  413MOL0     H56944   6.565   9.457   3.416  2.8716 -0.4454  0.5625
  413MOL0     H56945   6.540   9.543   3.572  1.9101  0.6744 -1.1151
  413MOL0     H56946   6.355   9.316   3.470  0.2669 -0.0512 -1.2643
  413MOL0     H56947   6.322   9.425   3.601 -1.2870 -1.8647 -0.6786
  413MOL0     H56948   6.338   9.616   3.442  1.1234 -0.3503 -0.1254
  413MOL0     H56949   6.354   9.502   3.302  0.8709  1.1971  0.0731
  413MOL0     H56950   6.115   9.477   3.489 -1.6265  3.0838 -0.6623
  413MOL0     H56951   6.112   9.593   3.357 -0.2257  1.5163  1.6698
  413MOL0     H56952   6.202   9.606   3.159  0.8331  1.3921 -1.9835
  413MOL0     H56953   6.102   9.728   2.944 -0.3127  0.0623 -2.0119
  413MOL0     H56954   6.242   9.683   2.830  1.8859  0.1989  0.7462
  413MOL0     H56955   6.274   9.720   2.990  0.1448 -1.3614 -0.7843
  413MOL0     H56956   6.202   9.490   2.505  2.9839  1.6731 -2.7361
  413MOL0     H56957   6.174   9.513   2.264  0.4184 -2.7832  2.3224
  413MOL0     H56958   6.050   9.452   2.102 -2.3040  1.7309  3.7850
  413MOL0     H56959   5.991   9.534   1.961 -0.2134  0.1974 -0.4285
  413MOL0     H56960   6.177   9.667   1.930 -2.3040 -1.9373 -2.4352
  413MOL0     H56961   6.252   9.632   2.086 -0.5726 -0.9219 -0.6632
  413MOL0     H56962   6.240   9.409   1.876  2.3765 -0.9918 -1.7332
  413MOL0     H56963   6.314   9.414   2.041  2.6970  1.1753 -0.6541
  413MOL0     H56964   6.457   9.588   1.975  1.2525 -0.5370 -1.2541
  413MOL0     H56965   6.390   9.607   1.803  0.3146  1.8244  0.2286
  413MOL0     H56966   6.599   9.493   1.809 -0.2344  2.0454 -0.7837
  413MOL0     H56967   6.515   9.361   1.900  2.1604  0.2768 -0.1457
  413MOL0     H56968   6.394   9.449   1.646 -0.5430 -1.4775 -2.3149
  413MOL0     H56969   6.404   9.284   1.717  1.2776 -1.5187 -2.9115
  413MOL0     H56970   6.661   9.307   1.703 -0.5302 -0.8897  0.8340
  413MOL0     H56971   6.631   9.418   1.556 -1.7158  0.7066  1.0862
  413MOL0     H56972   6.474   9.244   1.485 -0.9007 -0.6844  1.6039
  413MOL0     H56973   6.526   9.142   1.615 -0.6594  1.5823  0.8957
  413MOL0     H56974   5.828   9.767   2.333  0.4044 -1.3068 -1.6949
  413MOL0     H56975   5.879   9.747   2.571 -0.6342 -0.0543 -0.4666
  413MOL0     H56976   6.045   9.236   2.876  0.3923 -0.3781 -0.5504
  413MOL0     H56977   6.052   9.201   3.124 -0.0732  0.9800  3.2365
  413MOL0     H56978   7.158   8.408   3.807 -1.7627  0.7268 -0.6898
  413MOL0     H56979   7.330   8.487   3.961  1.3000  0.4256 -0.3698
  413MOL0     H56980   7.531   8.908   4.081  0.4723  1.8666  0.9207
  413MOL0     H56981   7.660   9.026   4.238 -0.2917  0.1208  2.4730
  413MOL0     H56982   8.043   8.967   4.227  1.1990  1.5855  0.1075
  413MOL0     H56983   8.025   9.090   4.335  1.1518  0.0504 -1.0171
  413MOL0     H56984   8.114   8.817   4.381 -1.5360 -1.7855 -0.2937
  413MOL0     H56985   8.038   8.892   4.524 -1.2751 -0.4344 -0.9247
  413MOL0     H56986   8.265   8.999   4.368 -1.9394  0.4291 -1.1265
  413MOL0     H56987   8.208   9.087   4.506 -0.8674 -0.0399 -1.6764
  413MOL0     H56988   8.411   8.910   4.519  0.4472  0.3349  0.4487
  413MOL0     H56989   8.295   8.814   4.616  2.3338 -1.1655  0.4953
  413MOL0     H56990   8.387   9.108   4.877  1.2231  1.6886 -1.1647
  413MOL0     H56991   7.917   8.677   4.283 -1.1003 -2.2873 -0.1710
  413MOL0     H56992   7.733   8.456   4.117 -1.2084  1.7272  2.9382
  413MOL0     H56993   7.832   8.531   3.992  0.8570 -0.4139  0.4818
  413MOL0     H56994   7.902   8.514   4.157 -0.3320 -1.8679  1.0124
  414MOL0     O56995   2.876   0.906   9.491  0.5888  0.0395  0.2494
  414MOL0     C56996   2.860   0.995   9.408 -0.3975  0.9222 -0.1401
  414MOL0     O56997   2.754   1.008   9.336  0.6035  0.0383  0.5738
  414MOL0     C56998   2.665   0.904   9.314  0.7900  0.7046 -0.5050
  414MOL0     C56999   2.702   0.761   9.305 -0.3516 -0.8725 -0.1816
  414MOL0     C57000   2.602   0.668   9.265  0.3954 -0.2026 -0.1730
  414MOL0     C57001   2.474   0.713   9.232 -0.0381  0.7453 -0.6593
  414MOL0     O57002   2.385   0.610   9.198  0.5743 -0.2948  0.1416
  414MOL0     C57003   2.275   0.639   9.110  1.3582 -0.8497 -0.4647
  414MOL0     C57004   2.199   0.513   9.059  0.0824  0.2204 -0.2004
  414MOL0     C57005   2.298   0.400   9.004  0.2821 -0.9457 -0.0956
  414MOL0     C57006   2.389   0.456   8.894  0.6294 -0.4845  0.4613
  414MOL0     C57007   2.427   0.332   8.808 -0.1571  0.0452 -0.6861
  414MOL0     C57008   2.525   0.244   8.893 -0.6210 -0.0368 -0.7104
  414MOL0     C57009   2.665   0.317   8.899 -0.6069 -0.6537 -0.5319
  414MOL0     C57010   2.770   0.218   8.952 -0.1691  0.2916 -0.7739
  414MOL0     N57011   2.788   0.114   8.854 -0.2543 -0.0036 -0.7135
  414MOL0     C57012   2.832   0.143   8.726 -0.3737 -0.5105 -0.2705
  414MOL0     C57013   2.859   0.026   8.666 -1.1156 -0.6001 -0.5294
  414MOL0     C57014   2.918   0.021   8.522  0.0443 -0.5693  0.0218
  414MOL0     C57015   3.034  -0.069   8.504 -0.0860  0.6802 -0.5561
  414MOL0     C57016   2.991  -0.209   8.450 -0.0815 -0.5225 -0.5909
  414MOL0     C57017   3.090  -0.330   8.479 -0.0537 -0.5163 -0.1545
  414MOL0     O57018   3.221  -0.314   8.416 -0.0382 -0.7732  0.6676
  414MOL0     C57019   3.327  -0.395   8.444  0.1074 -0.0474 -0.4926
  414MOL0     C57020   3.429  -0.386   8.358 -0.0201  0.4807 -0.0470
  414MOL0     C57021   3.554  -0.462   8.379 -0.1639 -1.2095 -0.3105
  414MOL0     C57022   3.665  -0.435   8.277 -0.0601  0.2069 -0.1494
  414MOL0     C57023   3.561  -0.547   8.490 -0.1684  0.2749  0.0576
  414MOL0     C57024   3.678  -0.629   8.527 -0.2683 -0.6406  0.6720
  414MOL0     O57025   3.789  -0.617   8.457  0.6290 -0.0585  0.3454
  414MOL0     C57026   3.898  -0.700   8.480  0.4127  0.8142 -1.2789
  414MOL0     C57027   3.971  -0.703   8.602  0.0733  0.0794 -0.2578
  414MOL0     C57028   4.082  -0.785   8.622  0.2497  0.3973  0.4933
  414MOL0     C57029   4.134  -0.861   8.519 -1.0614  0.3731 -0.1633
  414MOL0     O57030   4.244  -0.949   8.545 -0.3684  0.5306 -0.0977
  414MOL0     C57031   4.291  -1.036   8.449 -0.1955 -0.2389 -0.0647
  414MOL0     C57032   4.418  -1.115   8.501  0.6409  0.6868  0.2627
  414MOL0     C57033   4.468  -1.225   8.401 -0.0788 -0.6429 -0.5342
  414MOL0     C57034   4.612  -1.267   8.432 -0.5127  0.7235 -0.7848
  414MOL0     C57035   4.664  -1.383   8.352 -0.0066  0.5079 -0.5431
  414MOL0     C57036   4.811  -1.419   8.392 -0.2294  0.5926  0.4241
  414MOL0     C57037   4.907  -1.313   8.333 -0.1523  0.3771  0.2655
  414MOL0     C57038   5.044  -1.333   8.354 -0.1493  0.0647  0.4031
  414MOL0    Cl57039   5.103  -1.399   8.508 -0.2350 -0.1938  0.3515
  414MOL0     C57040   4.071  -0.843   8.395  0.0652 -0.2318 -0.1795
  414MOL0     C57041   3.951  -0.770   8.374  0.2147  0.0641  0.1798
  414MOL0     O57042   3.667  -0.697   8.626  0.7394  0.1683 -0.4661
  414MOL0     C57043   3.453  -0.549   8.576 -0.0982 -0.2890  1.1072
  414MOL0     C57044   3.336  -0.479   8.557 -0.0734  0.3741 -1.1678
  414MOL0     N57045   2.791  -0.068   8.743  0.2565  0.0852  0.0357
  414MOL0     N57046   2.758  -0.016   8.859  0.7130  0.4027  1.3438
  414MOL0     C57047   2.444   0.848   9.242  0.3105 -0.3054  0.5083
  414MOL0     C57048   2.539   0.939   9.277  0.4722 -0.3674 -0.8657
  414MOL0     C57049   2.954   1.106   9.416 -0.9262  0.2992  0.4543
  414MOL0     C57050   2.912   1.237   9.392  0.2737  0.6108  0.9777
  414MOL0     C57051   3.004   1.346   9.376 -0.5227 -0.1664 -0.2954
  414MOL0     C57052   3.151   1.328   9.388  0.7153  0.0615  0.2272
  414MOL0     O57053   3.248   1.419   9.388 -0.6076 -0.6731  0.0462
  414MOL0     C57054   3.215   1.550   9.348  0.1244 -0.7892  0.7644
  414MOL0     C57055   3.341   1.643   9.368 -0.2839  0.2445 -0.2055
  414MOL0     C57056   3.479   1.580   9.344 -0.8218  0.3668 -0.1328
  414MOL0     C57057   3.603   1.685   9.350  0.1917 -0.3196 -1.3861
  414MOL0     C57058   3.577   1.785   9.248 -0.5160  0.5715 -0.7709
  414MOL0     C57059   3.575   1.868   9.166 -0.7513  0.0162  0.2978
  414MOL0     C57060   3.185   1.194   9.401 -0.0429 -0.6415 -0.0028
  414MOL0     C57061   3.097   1.086   9.421  0.5819  0.7169  0.4018
  414MOL0     C57062   3.152   0.947   9.425 -0.1798  1.0096  0.0303
  414MOL0     H57063   2.804   0.730   9.321 -0.6814 -2.9609 -1.6651
  414MOL0     H57064   2.629   0.563   9.257  1.0328 -0.2762  2.0613
  414MOL0     H57065   2.309   0.696   9.022  2.2965 -1.3169 -0.4154
  414MOL0     H57066   2.204   0.706   9.160  1.6022 -0.2338 -0.9212
  414MOL0     H57067   2.142   0.458   9.134 -0.9430  0.9428 -0.4243
  414MOL0     H57068   2.138   0.540   8.973 -0.4861  2.1331  0.7543
  414MOL0     H57069   2.353   0.363   9.091  1.9862 -0.2808 -0.8590
  414MOL0     H57070   2.236   0.318   8.967  1.4614 -1.0566 -1.9519
  414MOL0     H57071   2.329   0.519   8.827  3.4346 -0.0207 -1.7697
  414MOL0     H57072   2.477   0.517   8.919  0.1345 -0.4989  2.4732
  414MOL0     H57073   2.484   0.356   8.717  1.4498  0.9958  0.5181
  414MOL0     H57074   2.344   0.264   8.788  0.2390 -0.4679 -0.6095
  414MOL0     H57075   2.488   0.225   8.994  0.8996 -1.4453 -0.3768
  414MOL0     H57076   2.526   0.142   8.854 -1.4250 -0.4363  0.2937
  414MOL0     H57077   2.654   0.403   8.966 -0.4949  0.5888 -2.0619
  414MOL0     H57078   2.691   0.358   8.801  0.9563  1.2382  0.6130
  414MOL0     H57079   2.867   0.263   8.974  0.2471 -1.1674  0.4987
  414MOL0     H57080   2.743   0.186   9.053 -0.8860  1.3197 -0.6253
  414MOL0     H57081   2.855   0.241   8.685 -0.9896 -1.1245 -2.1851
  414MOL0     H57082   2.948   0.117   8.479  0.5713 -2.4763 -4.4543
  414MOL0     H57083   2.837  -0.014   8.457 -2.7918  1.2655  2.3315
  414MOL0     H57084   3.111  -0.032   8.436 -1.1166 -2.6026 -3.8102
  414MOL0     H57085   3.072  -0.079   8.607  1.5110  0.4562 -1.1271
  414MOL0     H57086   2.895  -0.235   8.495 -0.2851  0.4887 -0.4361
  414MOL0     H57087   2.990  -0.195   8.342 -0.1883  1.8834 -0.3237
  414MOL0     H57088   3.105  -0.340   8.587 -2.7721 -4.0093  0.0805
  414MOL0     H57089   3.048  -0.423   8.441  0.4278 -0.4272 -0.9237
  414MOL0     H57090   3.423  -0.307   8.284 -2.4969  1.5273  1.1438
  414MOL0     H57091   3.624  -0.377   8.193  2.1548 -0.2426 -1.6330
  414MOL0     H57092   3.692  -0.532   8.235 -1.4179 -2.4632  4.5008
  414MOL0     H57093   3.750  -0.389   8.328 -0.5212 -0.3365  1.1404
  414MOL0     H57094   3.936  -0.638   8.682  1.1504  1.5297 -0.9146
  414MOL0     H57095   4.129  -0.791   8.719 -1.0689  2.4668  1.3363
  414MOL0     H57096   4.218  -1.111   8.417  3.0271 -3.0329 -1.5428
  414MOL0     H57097   4.308  -0.974   8.361 -1.8008  0.4018  0.0357
  414MOL0     H57098   4.491  -1.037   8.520 -0.8051  2.1275  0.1481
  414MOL0     H57099   4.397  -1.158   8.600  0.6351 -1.8916 -0.7814
  414MOL0     H57100   4.471  -1.186   8.299 -0.5432  2.8892  0.6671
  414MOL0     H57101   4.399  -1.310   8.409 -0.0561 -0.6246 -0.1005
  414MOL0     H57102   4.607  -1.299   8.536 -1.6919  0.6814 -0.8477
  414MOL0     H57103   4.678  -1.180   8.428 -1.7017  1.6121 -1.6693
  414MOL0     H57104   4.601  -1.472   8.350 -1.5713  1.5560 -0.0460
  414MOL0     H57105   4.664  -1.359   8.246 -0.0007 -1.0287 -0.9157
  414MOL0     H57106   4.828  -1.523   8.362  0.3027  0.1821  2.0254
  414MOL0     H57107   4.814  -1.408   8.501 -0.0957  0.9575  0.3847
  414MOL0     H57108   4.873  -1.217   8.372  0.5508  0.5554  0.4565
  414MOL0     H57109   4.904  -1.327   8.224  2.6531 -0.3455  0.2095
  414MOL0     H57110   5.091  -1.234   8.343 -1.4645  0.6159 -0.5956
  414MOL0     H57111   5.082  -1.399   8.275 -3.0977 -0.9474 -0.2723
  414MOL0     H57112   4.112  -0.907   8.317 -0.2833 -2.0426  1.0467
  414MOL0     H57113   3.915  -0.757   8.272  3.1367  2.0781 -0.7321
  414MOL0     H57114   3.471  -0.605   8.667  1.4980 -0.0517  0.9640
  414MOL0     H57115   3.261  -0.486   8.636  1.3485  2.7905  0.5142
  414MOL0     H57116   2.341   0.871   9.216  1.1740  1.9027 -1.3452
  414MOL0     H57117   2.509   1.043   9.276  0.1206 -0.2542  3.4314
  414MOL0     H57118   2.808   1.264   9.379 -0.8028 -2.0246  3.2105
  414MOL0     H57119   2.955   1.442   9.366 -2.4867 -1.2349 -1.5815
  414MOL0     H57120   3.190   1.535   9.243  0.9084 -2.8036  0.8315
  414MOL0     H57121   3.132   1.575   9.414  0.2651  0.2567  0.5618
  414MOL0     H57122   3.331   1.699   9.461 -0.4455  1.4302 -0.9200
  414MOL0     H57123   3.323   1.727   9.300  2.4598  1.7605  0.7910
  414MOL0     H57124   3.500   1.512   9.427  1.0112 -0.1027 -0.9394
  414MOL0     H57125   3.478   1.513   9.258 -0.3941 -0.9468  0.8481
  414MOL0     H57126   3.694   1.625   9.336  2.9152  1.3417  5.0035
  414MOL0     H57127   3.601   1.729   9.450 -0.5467  0.6771 -1.8316
  414MOL0     H57128   3.572   1.935   9.083  2.7449 -2.0750 -1.7829
  414MOL0     H57129   3.292   1.180   9.412  0.5577  2.7012 -0.5677
  414MOL0     H57130   3.256   0.948   9.391  0.0784  0.6539  0.7811
  414MOL0     H57131   3.143   0.905   9.526  0.9958 -0.1939 -0.3476
  414MOL0     H57132   3.106   0.880   9.352  1.6942 -0.4443  0.1230
  415MOL0     O57133   6.733   5.422  10.420 -0.0363  0.1176  0.5451
  415MOL0     C57134   6.627   5.468  10.378  0.2202 -0.1345  0.7478
  415MOL0     O57135   6.565   5.575  10.424  0.5569  0.4691 -0.4466
  415MOL0     C57136   6.628   5.682  10.488 -0.4777  0.5662  0.1014
  415MOL0     C57137   6.537   5.782  10.531 -0.2840 -0.1815 -0.3744
  415MOL0     C57138   6.586   5.890  10.598 -0.1199 -0.4991  0.5660
  415MOL0     C57139   6.722   5.916  10.617  0.5819  0.4315 -0.2280
  415MOL0     O57140   6.772   6.021  10.683  0.1338  0.3496 -0.5165
  415MOL0     C57141   6.745   6.028  10.826 -0.5153 -0.2834 -0.5756
  415MOL0     C57142   6.873   6.080  10.889 -0.3790  0.6484  0.2670
  415MOL0     C57143   6.867   6.122  11.031  0.6966  0.3424 -0.3101
  415MOL0     C57144   6.988   6.215  11.072  0.5041 -0.4738  0.8806
  415MOL0     C57145   6.983   6.254  11.220 -0.4533  0.0218 -0.0665
  415MOL0     C57146   7.044   6.150  11.302  0.0356  1.0965 -0.1641
  415MOL0     C57147   7.073   6.190  11.448 -0.3935 -0.4369 -0.2316
  415MOL0     C57148   6.945   6.230  11.527  0.0987  0.1085  0.1704
  415MOL0     N57149   6.962   6.210  11.671  0.8177 -0.1994  0.5962
  415MOL0     C57150   7.038   6.295  11.748  0.5327  0.3083  0.6587
  415MOL0     C57151   7.035   6.249  11.877 -0.2143  0.3295  0.4463
  415MOL0     C57152   7.105   6.299  11.998  0.4163 -0.1209 -0.4524
  415MOL0     C57153   7.042   6.273  12.135 -0.7687 -0.4658 -0.1432
  415MOL0     C57154   6.911   6.349  12.147 -0.1062  0.2680 -0.4060
  415MOL0     C57155   6.872   6.384  12.293  0.5689  0.3419  0.0418
  415MOL0     O57156   6.734   6.435  12.290 -0.4420 -0.4868 -0.0939
  415MOL0     C57157   6.684   6.496  12.403  0.2994  0.3408  0.2663
  415MOL0     C57158   6.563   6.567  12.392  0.6200  0.3078  1.0302
  415MOL0     C57159   6.510   6.629  12.502  0.5249 -0.1256 -0.7272
  415MOL0     C57160   6.371   6.689  12.471  1.1993  0.4787  0.3856
  415MOL0     C57161   6.568   6.619  12.633 -0.6629  0.1257  0.1325
  415MOL0     C57162   6.530   6.696  12.757  0.0009  0.3558 -0.3791
  415MOL0     O57163   6.602   6.662  12.873 -0.1949 -0.1021  0.2754
  415MOL0     C57164   6.578   6.725  12.988  0.0914 -0.1302  0.2551
  415MOL0     C57165   6.677   6.782  13.067  0.5532 -1.2881 -0.5574
  415MOL0     C57166   6.641   6.854  13.181 -0.1206 -0.3589  0.5617
  415MOL0     C57167   6.517   6.834  13.237  0.3587  0.2328 -0.2602
  415MOL0     O57168   6.477   6.891  13.356  0.0082 -0.1803 -0.6390
  415MOL0     C57169   6.433   6.805  13.463 -0.4211 -0.6010 -0.2155
  415MOL0     C57170   6.322   6.880  13.551  0.0674 -0.8579 -0.0506
  415MOL0     C57171   6.192   6.924  13.474  0.1418  0.2261  0.4161
  415MOL0     C57172   6.065   6.862  13.529 -0.3144  0.4517  0.0828
  415MOL0     C57173   5.939   6.918  13.459  0.5452 -0.1882  0.4102
  415MOL0     C57174   5.808   6.882  13.538 -0.2932 -0.4255  1.1564
  415MOL0     C57175   5.694   6.983  13.495  0.3046 -0.4083  0.2033
  415MOL0     C57176   5.697   7.125  13.548 -0.7064  0.3815 -0.9538
  415MOL0    Cl57177   5.654   7.140  13.716 -0.2605 -0.1629 -0.0901
  415MOL0     C57178   6.421   6.776  13.160  1.3759 -0.1086  0.1066
  415MOL0     C57179   6.449   6.714  13.039 -0.1566  0.0642  0.2781
  415MOL0     O57180   6.472   6.799  12.743  0.0551 -0.3731  0.2130
  415MOL0     C57181   6.689   6.548  12.638  1.5441  0.5866 -1.2471
  415MOL0     C57182   6.748   6.496  12.525 -0.1339 -0.8515 -0.1629
  415MOL0     N57183   6.972   6.127  11.870  0.0085 -0.1982  0.8029
  415MOL0     N57184   6.917   6.115  11.750  0.2393 -0.3628  0.3123
  415MOL0     C57185   6.813   5.825  10.560  0.3804 -0.1156  0.5890
  415MOL0     C57186   6.771   5.703  10.502 -0.1076  0.5490  0.7046
  415MOL0     C57187   6.545   5.407  10.272  0.4988  0.3296  0.2717
  415MOL0     C57188   6.407   5.406  10.296  0.8613 -0.4631 -0.7999
  415MOL0     C57189   6.320   5.388  10.192 -0.5584 -0.2734  1.1901
  415MOL0     C57190   6.373   5.319  10.077 -0.0239  0.1369  0.1004
  415MOL0     O57191   6.284   5.292   9.982 -0.5468 -0.2177 -0.3777
  415MOL0     C57192   6.195   5.176   9.995 -0.1175  0.5187  0.5733
  415MOL0     C57193   6.266   5.052   9.944  0.0876  0.5331 -0.2508
  415MOL0     C57194   6.196   4.919   9.958  0.2845 -0.9341  0.4133
  415MOL0     C57195   6.218   4.856  10.098 -0.2500  0.0056 -0.1709
  415MOL0     C57196   6.355   4.803  10.115  0.0997 -0.4132 -0.4819
  415MOL0     C57197   6.465   4.754  10.117  0.8445  0.3979 -0.5457
  415MOL0     C57198   6.507   5.307  10.056  0.3243  0.6251 -0.1678
  415MOL0     C57199   6.601   5.348  10.153  0.6500  0.3507 -0.5798
  415MOL0     C57200   6.751   5.340  10.119 -0.5533  0.1401 -0.0169
  415MOL0     H57201   6.431   5.779  10.505 -0.9423  2.1996  1.6490
  415MOL0     H57202   6.523   5.966  10.641  1.1034  0.6655  0.3525
  415MOL0     H57203   6.716   5.930  10.864  1.4768 -0.6316  0.1835
  415MOL0     H57204   6.670   6.105  10.848 -0.0085  0.3560 -1.0519
  415MOL0     H57205   6.946   5.999  10.881  2.5614  2.9215  1.9776
  415MOL0     H57206   6.923   6.162  10.835  0.3802  1.1282  1.6447
  415MOL0     H57207   6.771   6.174  11.041 -0.6667 -1.8400 -1.2304
  415MOL0     H57208   6.861   6.031  11.092  0.4518  1.3305  1.1818
  415MOL0     H57209   7.084   6.170  11.045  0.5491  0.5084 -0.7641
  415MOL0     H57210   6.989   6.311  11.019  0.9019 -0.5019  0.8352
  415MOL0     H57211   6.879   6.275  11.246 -0.9733 -2.4940  0.1346
  415MOL0     H57212   7.036   6.347  11.247  0.1696 -0.5913  0.9059
  415MOL0     H57213   6.969   6.070  11.299  0.5556  0.6196 -0.9427
  415MOL0     H57214   7.136   6.104  11.265  1.3039  1.6328  2.1255
  415MOL0     H57215   7.139   6.277  11.449 -2.6035  1.3086  0.3825
  415MOL0     H57216   7.138   6.120  11.503  1.7314  0.9784 -0.8081
  415MOL0     H57217   6.937   6.337  11.505 -0.3830 -0.4494 -2.7861
  415MOL0     H57218   6.857   6.178  11.488 -2.1493  2.9427  1.0860
  415MOL0     H57219   7.095   6.383  11.721 -1.6752  1.5415 -0.1982
  415MOL0     H57220   7.129   6.404  11.980  2.2886 -0.7716 -2.0349
  415MOL0     H57221   7.202   6.249  12.001  1.1412  1.2605  0.0606
  415MOL0     H57222   7.038   6.166  12.160  1.7162 -0.5513  0.2281
  415MOL0     H57223   7.116   6.325  12.197  0.0236  0.7916 -2.0329
  415MOL0     H57224   6.925   6.446  12.099  2.3252  0.3743  0.4061
  415MOL0     H57225   6.843   6.271  12.111  1.1677 -2.2715  2.2984
  415MOL0     H57226   6.882   6.293  12.353  1.5624  0.2497 -0.2471
  415MOL0     H57227   6.938   6.463  12.330 -0.9825  0.3940  2.9395
  415MOL0     H57228   6.502   6.570  12.303 -0.7403  2.0803  1.9680
  415MOL0     H57229   6.301   6.621  12.520 -0.1539 -0.3314 -2.4160
  415MOL0     H57230   6.350   6.696  12.364  2.5318  2.6821  0.2008
  415MOL0     H57231   6.359   6.790  12.511 -0.6113  0.7069 -0.6060
  415MOL0     H57232   6.781   6.780  13.036  0.5775 -0.0029 -0.6035
  415MOL0     H57233   6.717   6.911  13.233 -1.8423 -0.1054  3.0102
  415MOL0     H57234   6.378   6.718  13.427  0.9262 -1.4044 -0.4187
  415MOL0     H57235   6.518   6.777  13.527 -1.4943  0.9710  2.0206
  415MOL0     H57236   6.298   6.828  13.644 -0.1880  1.8627  1.5090
  415MOL0     H57237   6.370   6.973  13.582  1.4041 -1.2155 -0.9573
  415MOL0     H57238   6.197   6.900  13.368  1.2282 -0.8807  0.7031
  415MOL0     H57239   6.183   7.033  13.469  0.0894  0.1567 -1.7762
  415MOL0     H57240   6.057   6.886  13.635  0.1151 -1.5803  0.6192
  415MOL0     H57241   6.062   6.753  13.523 -2.8062  0.5256 -1.2728
  415MOL0     H57242   5.954   7.026  13.465 -3.6714  0.8573 -3.1015
  415MOL0     H57243   5.921   6.900  13.353 -0.3847 -0.7927  0.6635
  415MOL0     H57244   5.818   6.884  13.647  3.9669 -0.1629  0.9330
  415MOL0     H57245   5.774   6.780  13.517 -1.8748  0.3724 -0.3563
  415MOL0     H57246   5.607   6.931  13.536  0.2854 -0.6875 -0.1936
  415MOL0     H57247   5.683   6.989  13.387 -0.1280 -0.3953  0.2456
  415MOL0     H57248   5.626   7.191  13.498  0.3815  2.9212  0.6468
  415MOL0     H57249   5.797   7.167  13.532  1.9207 -4.4515  0.5223
  415MOL0     H57250   6.320   6.771  13.201  2.0953 -0.7712  1.9026
  415MOL0     H57251   6.375   6.664  12.976  1.2687 -0.3593 -1.1351
  415MOL0     H57252   6.730   6.537  12.738 -3.0694  1.8662  1.0675
  415MOL0     H57253   6.844   6.449  12.543  0.5556 -0.2368 -2.0022
  415MOL0     H57254   6.917   5.851  10.574 -0.3878  2.9452  1.4478
  415MOL0     H57255   6.851   5.635  10.472 -1.1288  0.0716 -1.0472
  415MOL0     H57256   6.365   5.447  10.387  1.5769 -1.9291  0.2469
  415MOL0     H57257   6.216   5.419  10.198 -0.3267  1.0217 -0.5725
  415MOL0     H57258   6.165   5.165  10.100 -1.6327  2.8632  0.4673
  415MOL0     H57259   6.108   5.187   9.929 -0.4068 -4.4818 -0.2808
  415MOL0     H57260   6.363   5.043   9.994  0.6882 -0.5194 -1.5422
  415MOL0     H57261   6.284   5.061   9.836 -1.8497  0.5786 -0.6124
  415MOL0     H57262   6.092   4.947   9.946  0.8843  0.8235 -1.2310
  415MOL0     H57263   6.227   4.854   9.875  0.6152  0.4168 -0.5655
  415MOL0     H57264   6.152   4.770  10.114  1.6756 -2.1969 -3.0894
  415MOL0     H57265   6.196   4.938  10.168 -1.3283 -1.1304  0.8839
  415MOL0     H57266   6.564   4.713  10.118  0.8839  0.4710 -1.1197
  415MOL0     H57267   6.553   5.260   9.970 -0.8191  0.0939 -0.5128
  415MOL0     H57268   6.786   5.238  10.136 -1.0010 -0.1844 -0.9429
  415MOL0     H57269   6.770   5.341  10.011  0.1153  0.9452  0.0944
  415MOL0     H57270   6.816   5.405  10.178 -2.5602  0.5108  1.9375
  416MOL0     O57271  11.339   5.704   5.010 -0.3509  0.0980  1.1335
  416MOL0     C57272  11.459   5.694   4.977 -0.4774 -0.3061  0.8644
  416MOL0     O57273  11.512   5.714   4.853  0.7310  0.5689  0.3919
  416MOL0     C57274  11.413   5.710   4.756 -0.0097 -0.0131 -0.0841
  416MOL0     C57275  11.361   5.585   4.716  0.1131  0.2298 -0.1718
  416MOL0     C57276  11.261   5.574   4.613 -0.0325  1.2073 -0.5336
  416MOL0     C57277  11.208   5.693   4.559 -0.0483 -0.0368  0.0195
  416MOL0     O57278  11.096   5.673   4.474  0.6787  0.4726  0.4123
  416MOL0     C57279  11.006   5.788   4.451 -0.7919  0.6652  0.3813
  416MOL0     C57280  10.927   5.768   4.325  0.4842 -0.4249  0.2820
  416MOL0     C57281  10.833   5.646   4.320  0.5012 -0.8186  1.5779
  416MOL0     C57282  10.755   5.637   4.180 -0.3327 -0.6927 -0.2635
  416MOL0     C57283  10.846   5.603   4.062  0.3377 -0.4610  0.0241
  416MOL0     C57284  10.774   5.583   3.924  1.0422  0.4533  0.8452
  416MOL0     C57285  10.850   5.484   3.841 -0.4105 -0.1578 -0.1593
  416MOL0     C57286  10.968   5.545   3.761 -0.2017 -0.6321  0.3282
  416MOL0     N57287  11.085   5.579   3.839 -0.8277  0.2099 -0.4266
  416MOL0     C57288  11.144   5.702   3.858  0.0280 -0.3094 -0.1909
  416MOL0     C57289  11.271   5.676   3.911 -0.7789  0.2722  1.1284
  416MOL0     C57290  11.364   5.785   3.954  0.3847  0.5017  0.4678
  416MOL0     C57291  11.317   5.849   4.091 -0.0667  0.3334  0.1588
  416MOL0     C57292  11.332   5.753   4.214  0.0551 -0.0875  0.2218
  416MOL0     C57293  11.475   5.738   4.269 -0.0978  0.0002  0.3309
  416MOL0     O57294  11.523   5.863   4.323 -0.6466  0.2174 -0.0542
  416MOL0     C57295  11.614   5.862   4.427  0.5965 -0.1037 -0.3116
  416MOL0     C57296  11.663   5.748   4.493 -0.9776  0.2693  0.3634
  416MOL0     C57297  11.742   5.762   4.613  0.7411  0.0184  0.3890
  416MOL0     C57298  11.782   5.642   4.682 -0.4021  0.2806 -0.0481
  416MOL0     C57299  11.773   5.891   4.650 -0.5598 -0.4018 -0.4245
  416MOL0     C57300  11.870   5.923   4.764  0.4464  0.2340 -0.2342
  416MOL0     O57301  11.990   5.870   4.751 -0.6308 -0.3850 -0.6343
  416MOL0     C57302  12.088   5.915   4.841  0.0031  0.4905 -0.4278
  416MOL0     C57303  12.072   5.902   4.976  0.6720  0.8544 -0.3914
  416MOL0     C57304  12.178   5.918   5.070 -0.3637  0.1515  1.0000
  416MOL0     C57305  12.308   5.961   5.025  0.3609 -0.3967 -0.3042
  416MOL0     O57306  12.424   5.974   5.104  0.3605 -0.1228  0.5923
  416MOL0     C57307  12.416   5.969   5.245 -0.4701  0.5710 -0.4601
  416MOL0     C57308  12.558   5.992   5.308 -0.2232 -0.6682 -0.1774
  416MOL0     C57309  12.562   5.989   5.454  0.2521  0.1006 -0.3801
  416MOL0     C57310  12.710   5.990   5.506 -0.0422 -0.2530  0.8197
  416MOL0     C57311  12.725   5.931   5.644  0.1300  0.4397 -0.8804
  416MOL0     C57312  12.868   5.946   5.686 -0.9776 -0.3133 -0.9195
  416MOL0     C57313  12.909   5.831   5.791  0.0164  0.0400 -0.3383
  416MOL0     C57314  12.851   5.864   5.936  0.9145  0.3446  0.5700
  416MOL0    Cl57315  12.867   5.712   6.021 -0.0553  0.3268  0.2173
  416MOL0     C57316  12.319   5.989   4.892 -1.0498 -1.0313  0.7808
  416MOL0     C57317  12.222   5.949   4.800  0.4940 -0.4695 -0.6965
  416MOL0     O57318  11.828   6.006   4.848 -0.1709  0.1471 -0.8487
  416MOL0     C57319  11.726   6.006   4.580 -0.0145  0.0550  0.0419
  416MOL0     C57320  11.649   5.988   4.471 -0.1881  0.2541  0.2928
  416MOL0     N57321  11.293   5.544   3.919  0.0746  0.2761  0.2213
  416MOL0     N57322  11.182   5.485   3.871 -0.0657  0.2367 -0.8655
  416MOL0     C57323  11.271   5.819   4.585  0.7493  0.3182 -0.0223
  416MOL0     C57324  11.375   5.823   4.683  0.5254  0.0997  0.4974
  416MOL0     C57325  11.559   5.651   5.081  0.1948 -0.6562 -0.1213
  416MOL0     C57326  11.690   5.707   5.086  0.9474  0.3315  0.2774
  416MOL0     C57327  11.777   5.677   5.190  0.6926  0.5893 -0.0232
  416MOL0     C57328  11.740   5.592   5.298 -0.7170 -0.1433  0.0516
  416MOL0     O57329  11.835   5.571   5.392  0.2468  0.7488 -0.7770
  416MOL0     C57330  11.790   5.587   5.536 -0.1362  0.0353 -0.4868
  416MOL0     C57331  11.850   5.720   5.598  0.7262  0.5155 -0.4787
  416MOL0     C57332  11.969   5.715   5.690  1.0261  0.2520 -0.3166
  416MOL0     C57333  12.088   5.700   5.592 -0.0068  0.2387  0.9761
  416MOL0     C57334  12.133   5.829   5.540 -0.2870  0.9965  0.6133
  416MOL0     C57335  12.165   5.937   5.495 -0.0653 -1.1274 -0.9607
  416MOL0     C57336  11.608   5.546   5.301 -0.1479  0.4089 -0.3295
  416MOL0     C57337  11.517   5.574   5.194  0.1183 -0.2387 -0.3247
  416MOL0     C57338  11.392   5.483   5.206  0.7475 -0.4758 -0.2347
  416MOL0     H57339  11.404   5.496   4.761  0.8910  0.6175 -0.1292
  416MOL0     H57340  11.212   5.480   4.587  2.3777 -0.4842  0.7056
  416MOL0     H57341  11.058   5.884   4.455  2.1340 -0.8174  1.6761
  416MOL0     H57342  10.938   5.774   4.536 -1.8418 -3.6251 -0.9363
  416MOL0     H57343  10.864   5.857   4.317  0.6060 -0.2235  1.4795
  416MOL0     H57344  10.993   5.778   4.238 -1.4654  1.3010 -1.1011
  416MOL0     H57345  10.887   5.552   4.335  1.0667 -0.8073 -0.2043
  416MOL0     H57346  10.755   5.652   4.397 -0.2324  4.9035  0.8301
  416MOL0     H57347  10.679   5.560   4.191 -0.3890 -0.9712 -2.3582
  416MOL0     H57348  10.714   5.738   4.167  2.9932  1.0766  1.6364
  416MOL0     H57349  10.908   5.520   4.096  0.7002 -0.0238  0.4434
  416MOL0     H57350  10.913   5.689   4.048 -0.5781  0.3760  0.6399
  416MOL0     H57351  10.673   5.545   3.941  0.7488  1.8129  2.3714
  416MOL0     H57352  10.756   5.674   3.868  0.4209 -0.8182 -1.1300
  416MOL0     H57353  10.772   5.448   3.773 -2.2600  1.4274  1.0332
  416MOL0     H57354  10.885   5.395   3.895 -2.7402 -1.7256 -1.0582
  416MOL0     H57355  10.988   5.482   3.674 -1.9990  1.0616 -1.4160
  416MOL0     H57356  10.938   5.636   3.708 -1.7283 -2.6778 -2.6011
  416MOL0     H57357  11.115   5.804   3.833 -2.2486 -1.1768 -1.3222
  416MOL0     H57358  11.375   5.853   3.869 -2.1265 -0.6826 -0.9079
  416MOL0     H57359  11.464   5.743   3.964  0.1513  0.1897  1.6288
  416MOL0     H57360  11.379   5.938   4.101 -0.4799  1.0391 -2.7196
  416MOL0     H57361  11.212   5.871   4.072 -0.3744 -0.8993  0.3043
  416MOL0     H57362  11.273   5.789   4.299  2.2462 -2.9317  3.1550
  416MOL0     H57363  11.270   5.667   4.188 -0.9519  0.8448 -0.5545
  416MOL0     H57364  11.465   5.655   4.340  1.2735 -1.2150 -0.8158
  416MOL0     H57365  11.546   5.687   4.204  0.1377 -0.3506  0.8599
  416MOL0     H57366  11.643   5.645   4.465 -0.5622  0.2153  0.2559
  416MOL0     H57367  11.716   5.558   4.660 -0.7801  0.1841  1.3426
  416MOL0     H57368  11.769   5.656   4.790 -0.4147 -0.2069  0.0148
  416MOL0     H57369  11.889   5.621   4.671 -0.1517  1.9036 -1.0592
  416MOL0     H57370  11.981   5.859   5.018  1.3248  1.1808  1.4637
  416MOL0     H57371  12.156   5.889   5.172 -2.4880 -1.8026  0.0740
  416MOL0     H57372  12.347   6.046   5.283  2.6794  3.0988  0.6136
  416MOL0     H57373  12.376   5.871   5.273  1.6197 -0.3672 -0.6495
  416MOL0     H57374  12.627   5.911   5.282  1.5937  0.7855 -0.1738
  416MOL0     H57375  12.592   6.090   5.271 -2.5761  0.1395 -0.3725
  416MOL0     H57376  12.511   5.899   5.489 -0.5300  1.2165  1.4738
  416MOL0     H57377  12.507   6.072   5.499  0.5930  1.2996 -2.0380
  416MOL0     H57378  12.741   6.094   5.503 -1.1526  0.1511  2.3648
  416MOL0     H57379  12.778   5.938   5.437 -0.0129  0.1260  0.5628
  416MOL0     H57380  12.665   5.990   5.714  0.8405 -0.9033  0.9757
  416MOL0     H57381  12.691   5.827   5.636 -1.0470  0.7153  0.1608
  416MOL0     H57382  12.886   6.047   5.723 -2.0689  0.8636 -3.3750
  416MOL0     H57383  12.930   5.926   5.598  0.3890  0.3288 -0.1308
  416MOL0     H57384  13.017   5.827   5.808  0.1067  3.0432  0.3417
  416MOL0     H57385  12.867   5.739   5.748  1.6897 -0.5336 -0.8107
  416MOL0     H57386  12.750   5.905   5.934  1.9989  3.3443  1.5902
  416MOL0     H57387  12.901   5.945   5.990  0.2735  0.7551  0.5510
  416MOL0     H57388  12.413   6.027   4.854 -0.7771 -2.8029 -0.4374
  416MOL0     H57389  12.252   5.942   4.696  0.1107  1.5600 -0.9955
  416MOL0     H57390  11.746   6.106   4.616  0.7957  0.7365 -2.1488
  416MOL0     H57391  11.604   6.070   4.417  0.3923  0.4574  0.1116
  416MOL0     H57392  11.246   5.912   4.535 -1.1954  0.4083  1.0284
  416MOL0     H57393  11.416   5.918   4.717 -1.2206  1.5365 -1.1582
  416MOL0     H57394  11.722   5.780   5.011 -1.1205 -0.3323 -1.3439
  416MOL0     H57395  11.877   5.719   5.185  1.4964 -1.2987 -1.2819
  416MOL0     H57396  11.681   5.585   5.546 -0.1042 -3.0421  0.4645
  416MOL0     H57397  11.835   5.509   5.599 -1.8059  0.0172  0.7643
  416MOL0     H57398  11.773   5.768   5.659  0.9693 -0.5491  0.7220
  416MOL0     H57399  11.857   5.788   5.513  0.2251  0.2953 -0.7007
  416MOL0     H57400  11.973   5.802   5.757  1.3271 -0.4668  0.6341
  416MOL0     H57401  11.975   5.627   5.756  3.3256  0.4901 -0.1073
  416MOL0     H57402  12.064   5.630   5.511 -1.5802  1.4557  0.3434
  416MOL0     H57403  12.170   5.650   5.645  0.6051 -2.2933 -2.0869
  416MOL0     H57404  12.218   6.024   5.462  0.9864 -0.1633  2.7776
  416MOL0     H57405  11.579   5.489   5.389  5.2524 -0.6635  1.1371
  416MOL0     H57406  11.414   5.382   5.171  2.7168 -0.2947  0.3848
  416MOL0     H57407  11.351   5.493   5.307  3.0547  0.9862  0.6426
  416MOL0     H57408  11.306   5.521   5.149  0.1096  0.6049  1.3653
  417MOL0     O57409   9.588   2.772   0.507  0.2330  0.2332 -0.2438
  417MOL0     C57410   9.536   2.711   0.601  0.7964 -0.0759 -0.3045
  417MOL0     O57411   9.527   2.745   0.729  1.0565 -0.2439 -0.3053
  417MOL0     C57412   9.603   2.855   0.766 -0.1806 -0.4086  0.0079
  417MOL0     C57413   9.745   2.857   0.801  1.1651  0.6876  0.3609
  417MOL0     C57414   9.796   2.982   0.851 -0.7585  0.0505  0.2138
  417MOL0     C57415   9.722   3.097   0.856 -1.4828 -0.0865  0.3505
  417MOL0     O57416   9.760   3.227   0.883  0.5077 -0.6871  0.2939
  417MOL0     C57417   9.907   3.239   0.872 -0.0892 -1.0250  0.7281
  417MOL0     C57418   9.937   3.401   0.870  0.2011  0.2874 -0.0748
  417MOL0     C57419  10.079   3.439   0.825  0.2157 -0.1357  0.3311
  417MOL0     C57420  10.087   3.586   0.787  0.3341  1.3618  0.4799
  417MOL0     C57421  10.233   3.599   0.728 -0.3886 -0.0010 -0.7685
  417MOL0     C57422  10.262   3.748   0.687  1.9084 -0.2174 -0.1969
  417MOL0     C57423  10.409   3.765   0.649  1.2316  0.1369  0.7348
  417MOL0     C57424  10.456   3.699   0.518  0.4021  0.7090 -0.5165
  417MOL0     N57425  10.586   3.754   0.475  0.4943  0.0666 -0.2794
  417MOL0     C57426  10.678   3.808   0.560 -0.4287  0.0564  0.2950
  417MOL0     C57427  10.766   3.868   0.478  0.0287  1.0245 -0.4383
  417MOL0     C57428  10.892   3.942   0.512 -0.4941 -0.1682  0.2599
  417MOL0     C57429  11.021   3.860   0.473  0.1366  0.8095 -0.3717
  417MOL0     C57430  11.069   3.752   0.573  0.7755 -0.2483  0.3467
  417MOL0     C57431  11.191   3.677   0.530  0.5136  0.2801 -0.2471
  417MOL0     O57432  11.216   3.570   0.623 -0.0092  0.7972  1.0629
  417MOL0     C57433  11.327   3.493   0.583 -0.4973 -0.3162 -0.0403
  417MOL0     C57434  11.304   3.365   0.533  0.6115  0.4406 -0.4114
  417MOL0     C57435  11.410   3.277   0.509 -0.8518 -0.9383  0.2399
  417MOL0     C57436  11.364   3.138   0.465 -0.6844  0.4155 -0.3099
  417MOL0     C57437  11.545   3.313   0.533 -1.0518  0.6847 -0.8009
  417MOL0     C57438  11.660   3.222   0.507 -0.1862 -0.3273 -0.2351
  417MOL0     O57439  11.645   3.125   0.413 -0.3397  0.1356 -1.1768
  417MOL0     C57440  11.746   3.034   0.406  0.3307  0.0407  0.2401
  417MOL0     C57441  11.794   2.947   0.507 -0.5868  0.1521 -0.2445
  417MOL0     C57442  11.891   2.848   0.475  0.0291 -0.4730 -0.5870
  417MOL0     C57443  11.948   2.843   0.344 -0.6317 -0.1285  0.2632
  417MOL0     O57444  12.048   2.751   0.298 -0.6126 -0.7024  0.0332
  417MOL0     C57445  12.009   2.612   0.309 -0.2718 -0.5486  0.8475
  417MOL0     C57446  11.931   2.560   0.188  0.3428  0.3206 -0.4538
  417MOL0     C57447  11.975   2.603   0.052  0.0384 -0.2265  0.1077
  417MOL0     C57448  11.885   2.540  -0.056 -0.2822 -0.0200 -0.9645
  417MOL0     C57449  11.906   2.601  -0.194 -0.0414  0.0522  0.7727
  417MOL0     C57450  11.844   2.518  -0.316  0.0465  0.9732 -0.9334
  417MOL0     C57451  11.872   2.593  -0.450 -1.0462 -0.4621 -0.2596
  417MOL0     C57452  11.813   2.528  -0.570 -0.4416  0.0245  0.6539
  417MOL0    Cl57453  11.639   2.536  -0.572  0.0359 -0.1432 -0.1781
  417MOL0     C57454  11.907   2.935   0.252  0.1173 -0.5506  0.2119
  417MOL0     C57455  11.801   3.024   0.278 -0.4877  1.0634 -0.2321
  417MOL0     O57456  11.772   3.256   0.559 -0.3442 -0.2797  0.2161
  417MOL0     C57457  11.566   3.446   0.584  0.2253  0.6212  0.2095
  417MOL0     C57458  11.459   3.532   0.611 -0.4656 -0.9926 -1.0957
  417MOL0     N57459  10.721   3.857   0.353 -0.1288  0.0089  0.0648
  417MOL0     N57460  10.623   3.774   0.351  0.5095  0.2733  0.4117
  417MOL0     C57461   9.586   3.087   0.824 -0.4954  0.6017  0.6343
  417MOL0     C57462   9.520   2.970   0.787  0.2390  0.7523  0.0222
  417MOL0     C57463   9.453   2.591   0.560  0.1354 -0.1237  0.6004
  417MOL0     C57464   9.342   2.565   0.636 -0.1190 -0.2515  0.0688
  417MOL0     C57465   9.248   2.466   0.601  0.2571 -0.0841  0.6903
  417MOL0     C57466   9.266   2.380   0.493 -0.1580  0.6442 -0.7711
  417MOL0     O57467   9.171   2.281   0.470  0.6408  0.4262  0.7154
  417MOL0     C57468   9.208   2.165   0.384  0.6181 -1.3847 -0.0288
  417MOL0     C57469   9.088   2.074   0.350 -0.3382 -0.0921  0.1353
  417MOL0     C57470   9.002   2.065   0.479 -0.3964  0.5234  0.0840
  417MOL0     C57471   8.860   2.031   0.425  0.2449 -0.0141 -0.1652
  417MOL0     C57472   8.763   1.995   0.530 -0.2452 -0.3302  0.0711
  417MOL0     C57473   8.678   1.967   0.614  0.0385  0.9010 -0.2491
  417MOL0     C57474   9.388   2.395   0.429  0.4786  0.1071  0.0435
  417MOL0     C57475   9.472   2.504   0.454  0.6443  0.8119 -0.9553
  417MOL0     C57476   9.584   2.510   0.361  0.4483  0.1763 -0.5485
  417MOL0     H57477   9.794   2.762   0.789 -0.1304  0.1365 -0.9369
  417MOL0     H57478   9.899   2.982   0.885 -0.7381  1.7017  0.2341
  417MOL0     H57479   9.941   3.196   0.777  1.9729 -0.8904  1.3581
  417MOL0     H57480   9.948   3.189   0.960 -0.7771 -1.2897  0.9011
  417MOL0     H57481   9.867   3.459   0.809 -1.4559  1.6287  2.8707
  417MOL0     H57482   9.933   3.428   0.976 -2.9669  0.7174 -0.1985
  417MOL0     H57483  10.157   3.412   0.896  1.2923 -3.6607 -1.9325
  417MOL0     H57484  10.102   3.381   0.735 -1.0700 -0.5580  0.2455
  417MOL0     H57485  10.012   3.611   0.712  0.5970  3.1860  0.7755
  417MOL0     H57486  10.074   3.651   0.874  4.4541  0.5684  1.9095
  417MOL0     H57487  10.256   3.523   0.652  2.5382 -1.6798  1.5969
  417MOL0     H57488  10.296   3.584   0.816 -1.3086  2.7970  0.4598
  417MOL0     H57489  10.190   3.784   0.614 -0.9297 -1.0587  2.0223
  417MOL0     H57490  10.231   3.814   0.769  0.8438  0.5802 -1.2183
  417MOL0     H57491  10.474   3.726   0.728  2.6201  0.9184  0.0204
  417MOL0     H57492  10.420   3.874   0.645 -2.6253  0.6237 -0.4624
  417MOL0     H57493  10.456   3.591   0.530 -1.0583  0.5224 -1.8071
  417MOL0     H57494  10.376   3.720   0.446  1.2765  3.5136 -0.7862
  417MOL0     H57495  10.675   3.812   0.668 -3.9539 -4.8746  0.7627
  417MOL0     H57496  10.893   3.965   0.619  0.0287  1.9423 -0.1377
  417MOL0     H57497  10.888   4.031   0.448 -1.4682 -2.0217 -2.4667
  417MOL0     H57498  11.002   3.804   0.382 -0.6546  1.0328 -0.3463
  417MOL0     H57499  11.100   3.933   0.454 -1.1371  1.8390 -1.9722
  417MOL0     H57500  11.081   3.801   0.670  1.8362 -3.3535  1.9322
  417MOL0     H57501  10.991   3.676   0.585  0.9228 -0.5478 -0.5537
  417MOL0     H57502  11.168   3.632   0.433  1.0901  1.2134 -0.8402
  417MOL0     H57503  11.268   3.753   0.515 -0.1798  1.6394  2.4808
  417MOL0     H57504  11.199   3.342   0.518  0.3996  1.3278 -0.3987
  417MOL0     H57505  11.417   3.057   0.516 -0.3314  2.1693  2.3044
  417MOL0     H57506  11.366   3.132   0.355 -2.5794 -1.4290 -0.2962
  417MOL0     H57507  11.263   3.120   0.501 -0.6392  1.5467  0.4214
  417MOL0     H57508  11.740   2.962   0.600 -1.2900  1.7888 -0.8737
  417MOL0     H57509  11.920   2.779   0.553  1.1949 -0.7352 -1.2242
  417MOL0     H57510  12.100   2.552   0.317 -0.4464 -0.6659  2.1716
  417MOL0     H57511  11.950   2.599   0.400 -0.8043 -2.4987  0.2829
  417MOL0     H57512  11.947   2.453   0.177  1.0926  0.6313 -3.2990
  417MOL0     H57513  11.823   2.571   0.201  0.0654 -1.6946 -0.7786
  417MOL0     H57514  12.078   2.574   0.031 -0.2309 -0.7626 -0.5043
  417MOL0     H57515  11.966   2.712   0.044 -0.0461 -0.3450 -4.2378
  417MOL0     H57516  11.778   2.537  -0.038  0.1844 -1.3519  2.2867
  417MOL0     H57517  11.907   2.432  -0.055 -0.2624 -0.0255  0.5167
  417MOL0     H57518  11.865   2.702  -0.198 -0.8356 -0.2767 -1.2028
  417MOL0     H57519  12.012   2.602  -0.218 -0.2987 -0.3666 -0.4883
  417MOL0     H57520  11.737   2.501  -0.304  0.5159 -2.7628 -0.7968
  417MOL0     H57521  11.897   2.422  -0.319 -2.6781 -0.6209 -0.8398
  417MOL0     H57522  11.980   2.586  -0.464 -0.7313  1.8753  0.5614
  417MOL0     H57523  11.861   2.702  -0.442 -1.7543 -0.3669 -1.9823
  417MOL0     H57524  11.845   2.423  -0.573 -1.8051 -0.3924 -0.7879
  417MOL0     H57525  11.841   2.577  -0.663  0.7771 -1.3177  0.2791
  417MOL0     H57526  11.965   2.941   0.161  1.5753  0.2404  1.1701
  417MOL0     H57527  11.781   3.081   0.188 -1.2228 -1.9608 -2.1514
  417MOL0     H57528  11.666   3.484   0.598 -0.1655  0.8883  2.6290
  417MOL0     H57529  11.477   3.633   0.646 -0.2263 -0.6636 -2.1391
  417MOL0     H57530   9.527   3.178   0.836 -1.1258  0.3834 -0.6127
  417MOL0     H57531   9.413   2.971   0.768  0.4374 -1.4600 -1.6861
  417MOL0     H57532   9.317   2.636   0.713 -0.9129 -0.1412 -0.2811
  417MOL0     H57533   9.165   2.444   0.667  1.9593 -2.1470  2.3189
  417MOL0     H57534   9.240   2.208   0.289  1.2226  0.3494  0.9188
  417MOL0     H57535   9.290   2.105   0.425  0.9722 -2.5877 -2.2974
  417MOL0     H57536   9.133   1.979   0.319  0.1811 -0.6549  2.4716
  417MOL0     H57537   9.038   2.121   0.265  0.6016  0.2266 -0.2532
  417MOL0     H57538   9.028   1.978   0.540 -1.7737 -2.5652 -3.3329
  417MOL0     H57539   8.984   2.161   0.529 -2.1954  1.7090 -2.5799
  417MOL0     H57540   8.868   1.955   0.346  5.4875  0.4761 -0.4673
  417MOL0     H57541   8.834   2.119   0.367 -1.1574 -0.5818 -0.4474
  417MOL0     H57542   8.583   1.950   0.659  0.0522 -1.0099 -0.8116
  417MOL0     H57543   9.423   2.332   0.348  1.1867 -1.1333  1.2601
  417MOL0     H57544   9.627   2.411   0.345  0.1277  0.1325 -1.1660
  417MOL0     H57545   9.542   2.551   0.269 -1.7819 -1.9845 -0.5926
  417MOL0     H57546   9.657   2.584   0.395 -2.1822  2.3232  0.8739
  418MOL0     O57547   0.956   9.887   5.307  0.1772  0.0389  0.3202
  418MOL0     C57548   0.959   9.930   5.423  0.7721  0.5015 -0.0887
  418MOL0     O57549   1.027  10.040   5.467  0.2757 -0.3726  0.0279
  418MOL0     C57550   1.093  10.112   5.366  0.7316 -0.1496 -0.2323
  418MOL0     C57551   1.038  10.218   5.302  0.0989  0.2994 -0.3662
  418MOL0     C57552   1.104  10.277   5.192 -0.0423 -0.0460  0.1374
  418MOL0     C57553   1.237  10.233   5.159  0.7064  0.4261  0.3061
  418MOL0     O57554   1.301  10.304   5.055  0.3220  0.3923 -0.1634
  418MOL0     C57555   1.424  10.251   5.011  0.1546 -0.4645  0.0929
  418MOL0     C57556   1.453  10.297   4.876 -1.2689  0.2186 -0.2524
  418MOL0     C57557   1.517  10.442   4.859  0.2865  1.0369 -0.1042
  418MOL0     C57558   1.407  10.546   4.853  0.2598 -0.6139 -0.2234
  418MOL0     C57559   1.456  10.676   4.802 -0.7166  0.5212 -0.6744
  418MOL0     C57560   1.548  10.733   4.910 -0.9084 -0.0664  0.2457
  418MOL0     C57561   1.547  10.889   4.915  0.5238  0.8541  0.3372
  418MOL0     C57562   1.682  10.954   4.962  0.3225  0.0125 -0.1603
  418MOL0     N57563   1.722  10.893   5.078  0.3537  0.2200 -0.4242
  418MOL0     C57564   1.689  10.924   5.206 -0.0619 -0.2255  0.3589
  418MOL0     C57565   1.771  10.857   5.284  0.2518  0.3674 -0.6397
  418MOL0     C57566   1.796  10.875   5.429  0.7232  1.2183 -0.0152
  418MOL0     C57567   1.911  10.976   5.432  0.1419 -1.1430  0.1881
  418MOL0     C57568   1.905  11.080   5.546 -0.1363  0.2329 -0.1419
  418MOL0     C57569   1.994  11.206   5.532 -0.3237  0.2619  0.0125
  418MOL0     O57570   2.066  11.220   5.405  0.0662 -0.3968 -0.1547
  418MOL0     C57571   2.175  11.304   5.414  0.1654  0.3611  0.7235
  418MOL0     C57572   2.277  11.276   5.320 -0.9553 -0.3227 -0.0159
  418MOL0     C57573   2.388  11.362   5.303 -0.6471  0.6149  0.9859
  418MOL0     C57574   2.485  11.333   5.187 -0.2328 -0.3072 -0.2755
  418MOL0     C57575   2.413  11.467   5.393 -0.2422 -0.1239  0.4259
  418MOL0     C57576   2.527  11.552   5.387  0.1270 -0.7657 -0.1877
  418MOL0     O57577   2.509  11.671   5.317 -0.0405  0.3594  0.2492
  418MOL0     C57578   2.622  11.698   5.244 -0.0948 -0.1564 -0.3217
  418MOL0     C57579   2.720  11.772   5.304  0.6221 -0.2275 -1.0463
  418MOL0     C57580   2.845  11.803   5.244 -0.5172 -0.1593  0.6454
  418MOL0     C57581   2.862  11.760   5.114 -0.4044 -0.5266  0.7975
  418MOL0     O57582   2.987  11.783   5.056 -0.1354 -0.1060 -1.1268
  418MOL0     C57583   3.079  11.885   5.100 -0.3903 -0.3001 -0.7297
  418MOL0     C57584   3.162  11.937   4.983  0.5664  0.5863 -0.2187
  418MOL0     C57585   3.270  12.045   5.028  0.6952 -0.5632 -0.0938
  418MOL0     C57586   3.256  12.188   4.965 -0.4169 -0.1204  0.5349
  418MOL0     C57587   3.359  12.289   5.016  0.4741  0.1645 -0.6301
  418MOL0     C57588   3.320  12.420   4.958  1.2247  0.0280 -0.9960
  418MOL0     C57589   3.407  12.536   5.017  0.3256 -0.0378  0.4378
  418MOL0     C57590   3.371  12.671   4.949 -0.6524 -0.2043  0.4878
  418MOL0    Cl57591   3.455  12.700   4.796 -0.0734  0.3648  0.2623
  418MOL0     C57592   2.762  11.694   5.041  0.1438 -0.2363  0.5835
  418MOL0     C57593   2.640  11.663   5.107  0.7274  1.4496  0.5101
  418MOL0     O57594   2.631  11.516   5.445 -0.0358  0.3840 -0.2589
  418MOL0     C57595   2.327  11.487   5.496  0.7240  0.9278  0.1093
  418MOL0     C57596   2.210  11.400   5.509 -0.2959  0.3263 -0.3535
  418MOL0     N57597   1.852  10.777   5.202 -0.1403 -0.3620  0.3534
  418MOL0     N57598   1.819  10.805   5.085 -0.2581  0.7979 -0.2382
  418MOL0     C57599   1.297  10.130   5.233 -0.0469 -0.1111  0.3592
  418MOL0     C57600   1.233  10.079   5.344 -0.8419  0.5100 -0.8068
  418MOL0     C57601   0.886   9.855   5.532  0.6453  0.7439 -1.0589
  418MOL0     C57602   0.784   9.765   5.491  0.1023  0.5783 -0.3113
  418MOL0     C57603   0.710   9.690   5.578 -0.3034  0.7024 -0.8089
  418MOL0     C57604   0.746   9.693   5.718  0.3629  0.4365 -0.0731
  418MOL0     O57605   0.698   9.619   5.816  1.1320  0.2507 -0.2635
  418MOL0     C57606   0.570   9.548   5.793  0.4243 -0.0357 -0.2525
  418MOL0     C57607   0.603   9.411   5.725 -0.3493  0.0760 -0.6544
  418MOL0     C57608   0.480   9.350   5.678 -0.0133 -0.3851 -0.0717
  418MOL0     C57609   0.509   9.199   5.646  0.4274  0.7998 -1.0254
  418MOL0     C57610   0.395   9.152   5.574 -0.1256 -0.3319  0.0682
  418MOL0     C57611   0.297   9.121   5.512 -0.5001  0.4961 -0.3229
  418MOL0     C57612   0.857   9.769   5.755  0.1573  0.1483 -0.7912
  418MOL0     C57613   0.921   9.857   5.671 -0.2397  0.2487  0.3008
  418MOL0     C57614   1.027   9.938   5.727  0.0179  0.5658 -0.0423
  418MOL0     H57615   0.935  10.242   5.329 -0.2535 -1.9075  0.4079
  418MOL0     H57616   1.048  10.357   5.146 -3.0422 -1.2634  1.3928
  418MOL0     H57617   1.421  10.142   5.009  2.8134 -0.6003 -0.9553
  418MOL0     H57618   1.510  10.279   5.074  0.5621 -1.9539  0.2385
  418MOL0     H57619   1.522  10.230   4.823 -2.7903 -1.9346  0.3274
  418MOL0     H57620   1.359  10.289   4.820 -1.0339 -0.3194 -0.5826
  418MOL0     H57621   1.586  10.464   4.942 -1.7531  1.8760  1.4468
  418MOL0     H57622   1.570  10.449   4.764  1.6192 -0.5179  0.4786
  418MOL0     H57623   1.339  10.505   4.777  1.2000  2.0903 -2.7139
  418MOL0     H57624   1.347  10.549   4.944  0.3049 -3.0550 -0.0310
  418MOL0     H57625   1.362  10.727   4.781 -0.3710  0.8920 -1.3707
  418MOL0     H57626   1.511  10.660   4.708  0.7268 -0.7927  0.3379
  418MOL0     H57627   1.518  10.690   5.005  2.4985  0.3114  1.6104
  418MOL0     H57628   1.651  10.703   4.887  0.2281  3.3315  0.2525
  418MOL0     H57629   1.464  10.925   4.977  0.6521 -1.5090  2.0121
  418MOL0     H57630   1.538  10.915   4.809  0.7329 -0.3967 -0.0002
  418MOL0     H57631   1.750  10.937   4.878 -0.3828 -1.3153 -0.4979
  418MOL0     H57632   1.682  11.063   4.969  3.4361 -0.0056  2.5740
  418MOL0     H57633   1.621  10.993   5.254 -0.3905 -0.3200  0.0295
  418MOL0     H57634   1.819  10.780   5.478 -4.0046 -0.8023 -1.1311
  418MOL0     H57635   1.704  10.906   5.481 -0.0477 -0.7401 -0.1302
  418MOL0     H57636   1.999  10.912   5.442 -1.1295 -2.6453  2.8242
  418MOL0     H57637   1.928  11.023   5.335 -2.6448 -1.7090 -0.6465
  418MOL0     H57638   1.806  11.126   5.552  1.3598  4.0191 -1.1670
  418MOL0     H57639   1.924  11.024   5.638  1.0881 -1.9319 -1.6166
  418MOL0     H57640   1.934  11.296   5.547  1.9117  2.0188 -0.9810
  418MOL0     H57641   2.059  11.192   5.619 -2.1224  0.5908  1.4804
  418MOL0     H57642   2.255  11.200   5.247 -1.4590  0.5120 -0.7465
  418MOL0     H57643   2.472  11.403   5.104  0.5640  0.7683  0.4802
  418MOL0     H57644   2.464  11.232   5.150 -1.4137 -0.8567  1.7180
  418MOL0     H57645   2.586  11.337   5.228 -1.4274 -3.6553  3.6953
  418MOL0     H57646   2.691  11.821   5.396  1.5446  1.0720 -1.4242
  418MOL0     H57647   2.925  11.845   5.303  0.9771 -1.0284 -0.6870
  418MOL0     H57648   3.032  11.978   5.132 -0.2801 -1.0194  1.7222
  418MOL0     H57649   3.141  11.852   5.184  2.0524 -2.1413 -3.0734
  418MOL0     H57650   3.221  11.855   4.940 -0.8699  0.0358 -1.2079
  418MOL0     H57651   3.108  11.970   4.894  1.1357  2.3292  0.0476
  418MOL0     H57652   3.368  11.999   5.010  0.8212 -2.0600  3.5282
  418MOL0     H57653   3.260  12.066   5.135 -1.3171  2.3366 -0.7416
  418MOL0     H57654   3.155  12.218   4.994 -0.0042 -0.9604  3.1099
  418MOL0     H57655   3.247  12.183   4.856 -2.4815 -2.0569  0.6961
  418MOL0     H57656   3.346  12.289   5.125 -0.8511 -3.0533 -0.6797
  418MOL0     H57657   3.463  12.269   4.987  0.8697 -1.7492  1.7399
  418MOL0     H57658   3.212  12.428   4.973  1.3967  0.8416 -0.1150
  418MOL0     H57659   3.337  12.417   4.850 -2.3117 -3.5974 -1.6912
  418MOL0     H57660   3.513  12.518   4.997  0.2119 -1.6096  1.0605
  418MOL0     H57661   3.388  12.544   5.124 -1.2381  1.5091  0.0912
  418MOL0     H57662   3.413  12.749   5.012 -1.0789 -0.2191  0.7987
  418MOL0     H57663   3.263  12.676   4.933 -0.4325  1.4082 -0.6562
  418MOL0     H57664   2.782  11.660   4.940 -1.5406  0.1335  0.0988
  418MOL0     H57665   2.562  11.607   5.057  2.3161 -0.7019  0.3179
  418MOL0     H57666   2.340  11.567   5.569  1.1270 -0.1119  1.2100
  418MOL0     H57667   2.137  11.443   5.576 -0.8801  0.9724 -1.3785
  418MOL0     H57668   1.398  10.094   5.214  0.7787  1.3964  1.5888
  418MOL0     H57669   1.285  10.011   5.411 -2.7479 -1.2240 -1.0103
  418MOL0     H57670   0.750   9.776   5.389  0.9074  0.3513 -0.6171
  418MOL0     H57671   0.627   9.632   5.537  1.3549  1.2422 -5.5459
  418MOL0     H57672   0.512   9.522   5.882 -1.5580  2.4456 -0.7110
  418MOL0     H57673   0.497   9.603   5.734  3.8077 -0.6705 -5.7676
  418MOL0     H57674   0.658   9.342   5.790 -0.6930 -0.5909 -1.0534
  418MOL0     H57675   0.674   9.420   5.643  1.2554  0.6188  0.7398
  418MOL0     H57676   0.395   9.369   5.745 -0.0648 -0.3729 -0.1406
  418MOL0     H57677   0.457   9.404   5.586 -0.2585 -1.7814 -0.8493
  418MOL0     H57678   0.523   9.137   5.735  0.2703  3.1372  0.7194
  418MOL0     H57679   0.599   9.179   5.587 -0.0525 -1.8460 -0.9569
  418MOL0     H57680   0.210   9.096   5.454 -1.2401  1.7690  0.1741
  418MOL0     H57681   0.900   9.755   5.853  0.5036 -1.7516 -1.1681
  418MOL0     H57682   1.041   9.921   5.834  0.1000 -1.1919 -0.3022
  418MOL0     H57683   1.119   9.895   5.686 -0.0711 -1.4454  1.6797
  418MOL0     H57684   1.015  10.043   5.700  0.3961  0.0534 -2.4228
  419MOL0     O57685   8.546   9.201   5.089 -0.3390  0.0065 -0.3207
  419MOL0     C57686   8.527   9.271   5.198  0.2989  0.5271 -0.3636
  419MOL0     O57687   8.488   9.213   5.315  0.2520 -0.5264  0.3229
  419MOL0     C57688   8.516   9.076   5.328  0.2678  0.1560 -0.1736
  419MOL0     C57689   8.602   9.036   5.432  0.7285  0.0277 -0.8228
  419MOL0     C57690   8.642   8.899   5.447 -0.1831 -0.5930 -0.2514
  419MOL0     C57691   8.604   8.801   5.360 -0.0095  0.7745 -1.1104
  419MOL0     O57692   8.673   8.682   5.382 -0.5685 -0.0822  0.1184
  419MOL0     C57693   8.647   8.579   5.286 -0.3841  0.6092 -0.5308
  419MOL0     C57694   8.721   8.452   5.337  0.6874  0.1059 -0.7758
  419MOL0     C57695   8.690   8.409   5.487 -0.3696 -0.6261 -0.5591
  419MOL0     C57696   8.760   8.282   5.524  0.6619 -0.1583 -0.1005
  419MOL0     C57697   8.910   8.301   5.563 -0.0741  0.4103  0.1471
  419MOL0     C57698   8.975   8.161   5.602  0.9693 -0.9644 -0.0416
  419MOL0     C57699   9.120   8.171   5.641 -0.2185 -0.7125  0.0138
  419MOL0     C57700   9.142   8.219   5.788 -1.0894  0.5243  0.1702
  419MOL0     N57701   9.271   8.289   5.809  0.8083 -0.6642 -0.1203
  419MOL0     C57702   9.311   8.413   5.752 -0.1468  0.7100 -0.5318
  419MOL0     C57703   9.436   8.426   5.801  0.1364 -0.1979  1.3057
  419MOL0     C57704   9.525   8.540   5.769  0.4987  0.6931 -0.7015
  419MOL0     C57705   9.456   8.677   5.768 -0.1791  0.0677  0.2365
  419MOL0     C57706   9.560   8.783   5.784  0.6840  0.2339  0.2401
  419MOL0     C57707   9.511   8.926   5.755  0.1455  0.4995  0.2759
  419MOL0     O57708   9.594   9.039   5.789  0.0268  0.3371 -0.2008
  419MOL0     C57709   9.710   9.064   5.722  0.6720  0.2491 -0.1441
  419MOL0     C57710   9.784   9.175   5.756 -0.3806 -0.4334  0.0615
  419MOL0     C57711   9.902   9.215   5.690  0.4702  0.5058 -1.0986
  419MOL0     C57712   9.981   9.327   5.738 -0.5388 -0.2336 -0.0897
  419MOL0     C57713   9.938   9.137   5.574  0.4449  0.3096 -0.2267
  419MOL0     C57714  10.044   9.170   5.478 -0.0459  0.7734 -0.0252
  419MOL0     O57715  10.131   9.076   5.437  0.1767  0.0118  1.1586
  419MOL0     C57716  10.261   9.124   5.403 -0.5308  0.0306 -0.0651
  419MOL0     C57717  10.293   9.203   5.295 -0.0526 -0.0245  0.4112
  419MOL0     C57718  10.424   9.246   5.262  0.6325  0.2032  0.2683
  419MOL0     C57719  10.533   9.208   5.346  0.6813  0.0156  0.0608
  419MOL0     O57720  10.662   9.261   5.347 -0.4587  0.4502  0.7894
  419MOL0     C57721  10.706   9.318   5.223  0.9317 -0.1446 -0.1438
  419MOL0     C57722  10.849   9.348   5.217 -0.2674 -0.1515  0.0085
  419MOL0     C57723  10.907   9.413   5.337 -0.7993  0.6114  0.0964
  419MOL0     C57724  11.047   9.363   5.379  0.8045  0.0976 -0.3066
  419MOL0     C57725  11.145   9.375   5.264  0.1931  0.0040  0.2709
  419MOL0     C57726  11.294   9.373   5.307 -0.1530  0.0648 -0.3220
  419MOL0     C57727  11.343   9.231   5.330 -0.6479  0.3119 -0.4023
  419MOL0     C57728  11.323   9.203   5.484 -0.1273 -0.2869  0.6179
  419MOL0    Cl57729  11.449   9.296   5.572  0.1649  0.0171 -0.3018
  419MOL0     C57730  10.499   9.121   5.445 -0.6102  0.2100 -0.3058
  419MOL0     C57731  10.367   9.081   5.475  0.1596  0.4702  0.0074
  419MOL0     O57732  10.037   9.286   5.441 -0.4568 -0.1784 -0.0377
  419MOL0     C57733   9.863   9.016   5.539  0.4345 -0.6229 -0.9462
  419MOL0     C57734   9.753   8.986   5.615 -0.2430  0.4350  0.3763
  419MOL0     N57735   9.475   8.325   5.886  0.2007  0.8741 -0.2679
  419MOL0     N57736   9.373   8.241   5.892 -0.3444  0.0689  0.0634
  419MOL0     C57737   8.521   8.840   5.255  0.9482  0.0096 -0.1770
  419MOL0     C57738   8.480   8.975   5.244 -0.7731 -0.6516  0.4189
  419MOL0     C57739   8.526   9.414   5.196 -0.1140 -0.1040  0.2975
  419MOL0     C57740   8.579   9.479   5.308 -0.2601 -0.1887 -0.1282
  419MOL0     C57741   8.590   9.618   5.325  0.2275  0.8669  0.9053
  419MOL0     C57742   8.547   9.703   5.220  0.5715 -0.3900 -0.8262
  419MOL0     O57743   8.554   9.843   5.229  0.3286  0.5026  0.7109
  419MOL0     C57744   8.586   9.918   5.344 -0.2694 -0.2814  0.2837
  419MOL0     C57745   8.465   9.958   5.433  0.3166  0.3014 -1.1099
  419MOL0     C57746   8.513  10.003   5.576 -1.0824 -0.4919  0.9309
  419MOL0     C57747   8.551  10.156   5.571 -0.1215  0.8597 -0.2129
  419MOL0     C57748   8.583  10.206   5.702 -0.0125  0.5085 -1.2792
  419MOL0     C57749   8.611  10.237   5.815  0.3049 -0.1515 -0.1701
  419MOL0     C57750   8.500   9.641   5.100  0.5885  0.7677  0.1149
  419MOL0     C57751   8.484   9.493   5.091 -0.2952 -0.6209  0.7790
  419MOL0     C57752   8.409   9.443   4.968 -0.0968  0.5624 -0.6450
  419MOL0     H57753   8.647   9.116   5.490  3.5681 -1.9645 -0.1166
  419MOL0     H57754   8.711   8.867   5.524 -1.3287  0.9036  1.4923
  419MOL0     H57755   8.692   8.607   5.191  0.7078 -1.0747 -0.5363
  419MOL0     H57756   8.541   8.556   5.269  0.0143 -0.9789 -1.0083
  419MOL0     H57757   8.713   8.369   5.268  1.8233  0.4098 -1.3067
  419MOL0     H57758   8.828   8.473   5.342  0.4029  1.4302  1.5903
  419MOL0     H57759   8.722   8.487   5.557  1.2873 -2.8090  1.2276
  419MOL0     H57760   8.585   8.380   5.498 -1.7461  3.7746  0.0247
  419MOL0     H57761   8.705   8.258   5.616  0.5454  0.1654 -0.0836
  419MOL0     H57762   8.749   8.201   5.452  0.5638 -0.6523  0.4639
  419MOL0     H57763   8.918   8.373   5.645  1.7955  1.3274 -0.7746
  419MOL0     H57764   8.964   8.348   5.480  0.2644 -0.7175 -0.2953
  419MOL0     H57765   8.917   8.120   5.686 -3.0062  3.1577 -0.4182
  419MOL0     H57766   8.961   8.100   5.512  1.5372  0.1084 -0.8738
  419MOL0     H57767   9.165   8.241   5.570 -0.6739 -1.1889 -0.7591
  419MOL0     H57768   9.172   8.075   5.636  1.8364  0.2694  0.9769
  419MOL0     H57769   9.061   8.285   5.819 -1.4793  0.7825 -1.3343
  419MOL0     H57770   9.155   8.139   5.861  2.4674  2.2153  1.6438
  419MOL0     H57771   9.267   8.484   5.684 -0.5339 -1.1975 -2.3687
  419MOL0     H57772   9.580   8.524   5.676 -1.1985 -0.7132 -1.5276
  419MOL0     H57773   9.598   8.561   5.848  1.7113  1.5804 -2.0050
  419MOL0     H57774   9.402   8.690   5.674  0.2346 -0.6645 -0.1085
  419MOL0     H57775   9.394   8.689   5.858  1.1914  2.1778  0.9751
  419MOL0     H57776   9.596   8.781   5.887  1.3714 -2.7546  0.0241
  419MOL0     H57777   9.649   8.756   5.726  0.1589  0.3104 -0.6334
  419MOL0     H57778   9.488   8.936   5.649  0.5796  1.0089  0.2210
  419MOL0     H57779   9.418   8.936   5.812 -0.1660  3.3458 -0.5733
  419MOL0     H57780   9.761   9.236   5.843 -1.3452 -0.0149 -0.4698
  419MOL0     H57781  10.075   9.346   5.687  0.1126  0.3326  1.2633
  419MOL0     H57782  10.004   9.305   5.843  0.2442  1.0233  0.0205
  419MOL0     H57783   9.926   9.421   5.728  0.7459  0.5913  0.3799
  419MOL0     H57784  10.211   9.227   5.228 -1.0898 -0.3896  1.5168
  419MOL0     H57785  10.431   9.304   5.171  1.9835  1.0416  0.8809
  419MOL0     H57786  10.682   9.252   5.140  1.1916 -1.3628  0.7152
  419MOL0     H57787  10.644   9.409   5.224  1.5529  0.3120 -1.4938
  419MOL0     H57788  10.890   9.250   5.188 -0.9705 -1.0644  1.9168
  419MOL0     H57789  10.867   9.417   5.134  0.4559  0.4350  0.6315
  419MOL0     H57790  10.838   9.398   5.421 -0.7905  1.1466  0.2014
  419MOL0     H57791  10.898   9.521   5.323 -0.1336  0.7560  0.7177
  419MOL0     H57792  11.029   9.262   5.418 -1.4851  1.6432  3.0656
  419MOL0     H57793  11.082   9.434   5.455  1.9629 -0.8624  0.0882
  419MOL0     H57794  11.124   9.306   5.182 -2.1809  2.1698 -1.0566
  419MOL0     H57795  11.130   9.476   5.227  0.8101  0.3352  0.8936
  419MOL0     H57796  11.315   9.441   5.390  1.2226  0.7396 -1.1928
  419MOL0     H57797  11.346   9.415   5.221 -2.4037 -0.3205 -1.9515
  419MOL0     H57798  11.448   9.227   5.302  0.1074 -0.6483  2.2460
  419MOL0     H57799  11.278   9.156   5.282  1.1840 -1.2830 -0.4981
  419MOL0     H57800  11.349   9.098   5.500 -0.1096 -0.0200  2.5876
  419MOL0     H57801  11.227   9.238   5.524  0.6789  1.2017  1.3254
  419MOL0     H57802  10.578   9.101   5.517 -0.7913  0.3855 -0.0609
  419MOL0     H57803  10.348   9.021   5.563  3.0878  2.1391  1.9348
  419MOL0     H57804   9.892   8.944   5.463  2.1569 -0.5619 -0.3879
  419MOL0     H57805   9.691   8.902   5.586 -2.6274  2.3923 -0.5031
  419MOL0     H57806   8.480   8.778   5.176  1.0575 -1.5477  0.9376
  419MOL0     H57807   8.421   9.000   5.156 -0.0585 -0.8544 -0.1266
  419MOL0     H57808   8.618   9.412   5.384  1.3325  2.1000  1.1786
  419MOL0     H57809   8.646   9.663   5.406  0.0068  2.4486  0.2093
  419MOL0     H57810   8.661   9.861   5.400  2.9950  1.1821 -2.2998
  419MOL0     H57811   8.628  10.011   5.306  2.8510 -2.6052 -2.6388
  419MOL0     H57812   8.415   9.861   5.442 -0.4232  0.3346 -4.0312
  419MOL0     H57813   8.399  10.026   5.379  0.4087 -0.7923 -2.6832
  419MOL0     H57814   8.433   9.989   5.648 -1.7748 -0.4036  0.1917
  419MOL0     H57815   8.590   9.931   5.606  0.6261  1.1246  0.6927
  419MOL0     H57816   8.461  10.205   5.533  0.1518  0.5167 -1.3302
  419MOL0     H57817   8.636  10.184   5.507  0.3006  2.9683  1.1583
  419MOL0     H57818   8.646  10.281   5.906  0.4404 -1.9247  0.6617
  419MOL0     H57819   8.472   9.702   5.014 -1.4667 -0.8335 -0.4303
  419MOL0     H57820   8.363   9.528   4.917  0.8830  2.0585  0.8709
  419MOL0     H57821   8.464   9.381   4.897 -1.5354  2.8116 -3.9822
  419MOL0     H57822   8.323   9.389   5.009  0.0697  1.0444  0.3762
  420MOL0     O57823   6.291   0.766   0.495 -0.1503 -0.1509 -0.1514
  420MOL0     C57824   6.248   0.664   0.435  0.7673 -1.0135  0.0999
  420MOL0     O57825   6.325   0.559   0.386 -0.0160  0.1618  0.9911
  420MOL0     C57826   6.456   0.548   0.392 -0.3824  1.1196 -0.4334
  420MOL0     C57827   6.525   0.423   0.386  0.7104 -0.2186  0.5519
  420MOL0     C57828   6.662   0.408   0.380 -0.0667 -0.5471  0.2171
  420MOL0     C57829   6.745   0.518   0.373 -0.3173  0.1376  1.0826
  420MOL0     O57830   6.884   0.504   0.372  0.3207 -0.3235  0.1382
  420MOL0     C57831   6.966   0.622   0.372 -0.3328  0.2763  0.3041
  420MOL0     C57832   7.109   0.596   0.316 -0.6163  0.3911 -0.1012
  420MOL0     C57833   7.186   0.478   0.393  1.1835 -0.2631 -0.4678
  420MOL0     C57834   7.334   0.484   0.369  0.4329 -0.5018 -0.2782
  420MOL0     C57835   7.424   0.379   0.449 -0.4038  0.7393  0.4393
  420MOL0     C57836   7.429   0.237   0.386 -0.0720 -0.3166  0.0123
  420MOL0     C57837   7.522   0.131   0.458  0.4669  0.1398 -0.2999
  420MOL0     C57838   7.679   0.151   0.460 -0.1236 -0.6735  0.0014
  420MOL0     N57839   7.752   0.031   0.508 -0.3927 -0.0072 -0.4373
  420MOL0     C57840   7.744  -0.021   0.636 -0.0820 -0.1360  1.2985
  420MOL0     C57841   7.827  -0.124   0.628  0.2486 -0.5435 -0.7729
  420MOL0     C57842   7.829  -0.222   0.739  0.9156 -0.9394  0.0474
  420MOL0     C57843   7.907  -0.168   0.856 -0.5809  0.8573  0.4110
  420MOL0     C57844   8.053  -0.146   0.829  0.0507  0.7083  0.2561
  420MOL0     C57845   8.132  -0.287   0.824  0.3940  0.8253  0.0121
  420MOL0     O57846   8.272  -0.249   0.848 -0.4716 -0.2534  0.5066
  420MOL0     C57847   8.376  -0.299   0.772  0.6220 -0.1831  0.2442
  420MOL0     C57848   8.497  -0.228   0.755 -0.1821  0.2424  0.0107
  420MOL0     C57849   8.618  -0.283   0.716 -0.2420 -0.1648  0.4138
  420MOL0     C57850   8.743  -0.191   0.722 -0.2130 -0.2042 -0.2288
  420MOL0     C57851   8.624  -0.421   0.686 -0.3776 -0.3283  0.1439
  420MOL0     C57852   8.750  -0.486   0.633  0.6329  0.2540 -0.3301
  420MOL0     O57853   8.763  -0.619   0.667  0.4464 -0.5173 -0.1161
  420MOL0     C57854   8.874  -0.683   0.631  0.1813  0.8432 -0.0088
  420MOL0     C57855   9.003  -0.671   0.687 -0.5249 -0.0630 -0.1033
  420MOL0     C57856   9.113  -0.746   0.654 -0.7048  0.6157  0.6051
  420MOL0     C57857   9.105  -0.840   0.552 -0.4864  0.4400  0.3004
  420MOL0     O57858   9.217  -0.901   0.491 -0.0038 -0.5683 -0.0912
  420MOL0     C57859   9.330  -0.913   0.576  0.3854  0.0437 -0.6356
  420MOL0     C57860   9.426  -0.807   0.537 -0.1608 -0.7870  0.5351
  420MOL0     C57861   9.567  -0.836   0.592 -0.6775  0.5539  0.7358
  420MOL0     C57862   9.684  -0.779   0.509  1.2342 -0.1701 -0.1450
  420MOL0     C57863   9.822  -0.821   0.564 -0.4622  0.5930  0.6378
  420MOL0     C57864   9.859  -0.971   0.556  0.0443 -0.1010 -0.2575
  420MOL0     C57865   9.873  -1.028   0.412 -0.6399  0.0428  1.2254
  420MOL0     C57866   9.970  -1.154   0.423  0.5860 -0.6650  0.3267
  420MOL0    Cl57867   9.941  -1.261   0.281 -0.0822 -0.3317  0.0414
  420MOL0     C57868   8.977  -0.862   0.494 -1.1751 -0.0017 -0.1010
  420MOL0     C57869   8.864  -0.786   0.539 -0.5199  0.2448  0.4494
  420MOL0     O57870   8.840  -0.427   0.578 -0.3662 -0.1052 -0.3631
  420MOL0     C57871   8.501  -0.491   0.699  0.6609  0.0257 -0.2417
  420MOL0     C57872   8.379  -0.429   0.740  0.9159 -0.6560 -0.1733
  420MOL0     N57873   7.889  -0.131   0.505  0.0759 -0.4608 -1.0111
  420MOL0     N57874   7.843  -0.038   0.437  0.0201 -0.1865  0.5660
  420MOL0     C57875   6.678   0.639   0.379 -0.4596 -0.1868 -0.1288
  420MOL0     C57876   6.540   0.657   0.379 -0.3681  0.6959 -0.0318
  420MOL0     C57877   6.104   0.676   0.402  1.2792  0.6700 -0.0606
  420MOL0     C57878   6.024   0.552   0.388  0.1079  0.7366 -1.2593
  420MOL0     C57879   5.879   0.549   0.379 -0.2255  0.2848 -0.7817
  420MOL0     C57880   5.807   0.669   0.374 -0.7119  0.2848  0.3669
  420MOL0     O57881   5.669   0.677   0.379  0.3066 -0.3485  0.3739
  420MOL0     C57882   5.593   0.563   0.399  1.0060  0.0320  0.4573
  420MOL0     C57883   5.438   0.589   0.391 -0.1237  0.0094 -0.7234
  420MOL0     C57884   5.374   0.632   0.522 -0.2273 -0.3510 -0.1835
  420MOL0     C57885   5.333   0.510   0.603 -0.9787 -0.0769  0.0183
  420MOL0     C57886   5.222   0.565   0.691  0.0623  0.9691  0.1593
  420MOL0     C57887   5.144   0.610   0.774  1.3833  0.0148 -0.0137
  420MOL0     C57888   5.884   0.788   0.382  0.6259  0.2723 -0.5433
  420MOL0     C57889   6.022   0.793   0.395 -0.4503 -0.6294 -0.5776
  420MOL0     C57890   6.082   0.924   0.395  0.3276 -0.1976  0.2971
  420MOL0     H57891   6.468   0.331   0.393 -1.1466  0.5910 -2.1873
  420MOL0     H57892   6.688   0.303   0.396 -1.4167 -0.7461  1.2452
  420MOL0     H57893   6.959   0.677   0.466 -2.0673  1.1221 -0.2732
  420MOL0     H57894   6.931   0.702   0.306  1.2853  1.8173  1.2404
  420MOL0     H57895   7.103   0.562   0.212 -0.8130 -1.6576  0.5503
  420MOL0     H57896   7.168   0.687   0.330 -1.4937  0.6606  2.4571
  420MOL0     H57897   7.183   0.508   0.498  0.3476  0.1668 -0.6050
  420MOL0     H57898   7.150   0.377   0.374  1.1046 -0.1904 -0.7002
  420MOL0     H57899   7.342   0.459   0.263  0.7283  0.7097 -0.5531
  420MOL0     H57900   7.374   0.583   0.392 -1.0583  0.3211 -1.0787
  420MOL0     H57901   7.384   0.376   0.551  2.2608  2.0463  1.6310
  420MOL0     H57902   7.525   0.421   0.442  0.0414 -0.5666 -3.7141
  420MOL0     H57903   7.330   0.191   0.374 -0.2694  0.2583 -0.6222
  420MOL0     H57904   7.471   0.254   0.286 -1.1216  2.4155 -0.0511
  420MOL0     H57905   7.502   0.033   0.414  0.6046 -0.4688  0.9451
  420MOL0     H57906   7.496   0.120   0.563 -0.4561  3.0953 -0.1352
  420MOL0     H57907   7.723   0.173   0.362  0.6141 -0.7604  0.3037
  420MOL0     H57908   7.712   0.229   0.530  1.2470 -1.7921  0.6703
  420MOL0     H57909   7.686   0.009   0.723 -1.2106 -2.0514  1.2670
  420MOL0     H57910   7.867  -0.316   0.697  0.3087 -2.3536  2.4492
  420MOL0     H57911   7.729  -0.252   0.773  0.0293 -1.0738 -2.4759
  420MOL0     H57912   7.864  -0.073   0.889 -0.0690  1.1815  0.1677
  420MOL0     H57913   7.902  -0.238   0.940  3.3460 -2.1205 -1.4348
  420MOL0     H57914   8.072  -0.091   0.736  5.0203 -0.4600  0.3259
  420MOL0     H57915   8.093  -0.082   0.908  0.8417  1.4552 -0.7315
  420MOL0     H57916   8.089  -0.354   0.899 -1.4395 -1.0055 -2.4957
  420MOL0     H57917   8.116  -0.332   0.725 -1.8802 -0.7036  0.9826
  420MOL0     H57918   8.503  -0.120   0.768  3.9814  0.0413  1.2546
  420MOL0     H57919   8.768  -0.167   0.618 -2.5128 -0.4465 -0.9014
  420MOL0     H57920   8.815  -0.250   0.780 -0.2310 -1.6260 -1.5808
  420MOL0     H57921   8.721  -0.097   0.774  0.2235  0.0326 -0.4685
  420MOL0     H57922   9.010  -0.589   0.757 -0.5226  0.2181 -0.4324
  420MOL0     H57923   9.208  -0.716   0.698  0.6797 -0.2672 -1.6491
  420MOL0     H57924   9.326  -0.911   0.685 -0.0275 -1.2801 -0.6013
  420MOL0     H57925   9.373  -1.014   0.570 -3.9151 -2.2676  2.3596
  420MOL0     H57926   9.430  -0.803   0.428  1.6962  3.2064  0.5806
  420MOL0     H57927   9.385  -0.711   0.571 -1.3676 -0.7182 -1.0269
  420MOL0     H57928   9.585  -0.944   0.591 -4.6580 -0.2678  1.3407
  420MOL0     H57929   9.580  -0.808   0.697 -0.4179 -0.4626  0.9919
  420MOL0     H57930   9.668  -0.671   0.515  1.9401  0.3194 -4.1833
  420MOL0     H57931   9.685  -0.802   0.402  2.1738  0.0520 -0.1865
  420MOL0     H57932   9.892  -0.765   0.503 -1.4124  0.2079 -0.8605
  420MOL0     H57933   9.846  -0.795   0.668  1.7185  2.0455 -0.1665
  420MOL0     H57934   9.782  -1.022   0.614  1.3166  0.3591  1.9424
  420MOL0     H57935   9.959  -0.972   0.600  0.9122  1.4973 -2.0340
  420MOL0     H57936   9.922  -0.956   0.345  0.2754  0.1350  1.9682
  420MOL0     H57937   9.778  -1.050   0.363  0.6461 -1.0325 -0.9356
  420MOL0     H57938   9.953  -1.208   0.517  1.7097 -0.3256  0.7521
  420MOL0     H57939  10.076  -1.124   0.422  0.7011 -0.9518  1.6737
  420MOL0     H57940   8.966  -0.931   0.411  3.8596 -0.5007 -0.6688
  420MOL0     H57941   8.764  -0.815   0.509  0.3674 -0.5089 -2.1493
  420MOL0     H57942   8.497  -0.597   0.677 -3.9658  0.1057 -0.6662
  420MOL0     H57943   8.288  -0.489   0.743  1.4858 -1.8629 -3.0157
  420MOL0     H57944   6.736   0.730   0.393 -0.1590 -0.5501  1.0708
  420MOL0     H57945   6.504   0.759   0.386  0.6500  1.0456  0.2258
  420MOL0     H57946   6.075   0.457   0.399 -0.5124  0.4092 -1.1914
  420MOL0     H57947   5.833   0.451   0.371 -1.7985  0.9178  0.1129
  420MOL0     H57948   5.628   0.502   0.315  0.4823  1.9463 -1.2089
  420MOL0     H57949   5.632   0.507   0.485  2.6003  1.3220  0.6162
  420MOL0     H57950   5.387   0.499   0.356  3.0620 -1.7313 -1.2344
  420MOL0     H57951   5.414   0.665   0.316 -3.3499  0.4802  0.6011
  420MOL0     H57952   5.433   0.696   0.588 -0.0812 -1.4390  0.7761
  420MOL0     H57953   5.284   0.686   0.492  0.1193  1.6941  2.1008
  420MOL0     H57954   5.416   0.474   0.665 -0.6255  2.1734  0.9617
  420MOL0     H57955   5.295   0.428   0.541 -0.0332  0.7753 -1.7366
  420MOL0     H57956   5.072   0.643   0.847 -3.4818 -5.9542 -1.2735
  420MOL0     H57957   5.818   0.874   0.372 -0.4627 -0.7200 -2.4080
  420MOL0     H57958   6.171   0.926   0.331 -1.2143  1.6006 -2.0026
  420MOL0     H57959   6.007   0.998   0.365 -0.1430  0.8640  3.7077
  420MOL0     H57960   6.112   0.949   0.497  0.0694 -1.0516  0.5911
  421MOL0     O57961   4.069   3.877   8.398  0.0774  0.3097 -0.7705
  421MOL0     C57962   4.021   3.773   8.348 -0.6611  1.1396 -0.0659
  421MOL0     O57963   4.072   3.645   8.366 -0.0850 -0.7278 -0.0284
  421MOL0     C57964   4.173   3.639   8.459 -0.1292 -0.4991 -0.5621
  421MOL0     C57965   4.163   3.661   8.594 -0.3968  0.2664 -1.1015
  421MOL0     C57966   4.268   3.654   8.685 -0.3543  0.4176 -1.1540
  421MOL0     C57967   4.393   3.635   8.637 -0.0758  1.2229  0.2212
  421MOL0     O57968   4.484   3.627   8.744  0.0323 -0.1495 -0.9012
  421MOL0     C57969   4.608   3.565   8.710  0.1319  0.7063 -0.0696
  421MOL0     C57970   4.684   3.571   8.834 -0.6783  0.9811  0.1384
  421MOL0     C57971   4.734   3.713   8.859  0.2574 -0.3630  0.3612
  421MOL0     C57972   4.824   3.705   8.988  0.3102  0.6811  0.7084
  421MOL0     C57973   4.900   3.838   9.020  1.1844 -0.2108 -0.8894
  421MOL0     C57974   5.012   3.831   9.127  0.0157 -0.1306  0.0912
  421MOL0     C57975   5.128   3.741   9.090 -0.4992  0.1308 -0.0562
  421MOL0     C57976   5.236   3.745   9.204  0.1856 -0.5242  0.2586
  421MOL0     N57977   5.329   3.857   9.200 -1.4994  0.2392 -0.2864
  421MOL0     C57978   5.309   3.985   9.228  0.2870 -1.0246  0.3309
  421MOL0     C57979   5.431   4.042   9.217 -0.5252 -0.3851 -0.5870
  421MOL0     C57980   5.472   4.176   9.270  0.6165  0.3672 -0.5566
  421MOL0     C57981   5.458   4.173   9.424  0.4574 -0.7120  0.1498
  421MOL0     C57982   5.564   4.268   9.491  0.5062 -0.0450  0.5331
  421MOL0     C57983   5.703   4.209   9.500 -0.3612  0.1584 -0.7175
  421MOL0     O57984   5.791   4.319   9.523  0.3057 -0.2811  0.2342
  421MOL0     C57985   5.916   4.308   9.466  0.3510 -0.3623  0.0824
  421MOL0     C57986   5.974   4.423   9.407  0.3439 -0.3653  0.0843
  421MOL0     C57987   6.111   4.422   9.377  0.6493 -0.5321 -0.6307
  421MOL0     C57988   6.172   4.549   9.311 -0.7692  0.2097 -0.9163
  421MOL0     C57989   6.172   4.297   9.373 -0.1197  0.0769  0.0531
  421MOL0     C57990   6.309   4.277   9.322  0.2583  0.6349 -0.1154
  421MOL0     O57991   6.396   4.383   9.302 -0.1552 -0.2350 -0.1054
  421MOL0     C57992   6.528   4.351   9.300 -0.7907 -0.3636  0.2330
  421MOL0     C57993   6.595   4.315   9.417 -1.3158 -0.1225  0.0848
  421MOL0     C57994   6.733   4.301   9.400 -0.1196 -0.2844 -1.2387
  421MOL0     C57995   6.797   4.306   9.276  0.0611  0.5954  0.7700
  421MOL0     O57996   6.937   4.310   9.269 -0.2111 -0.7836  0.3287
  421MOL0     C57997   6.994   4.198   9.197 -0.8556  0.0927  1.0030
  421MOL0     C57998   7.147   4.222   9.187 -0.8791  0.6582  0.1556
  421MOL0     C57999   7.214   4.211   9.328  0.2995 -0.3919  0.9380
  421MOL0     C58000   7.358   4.225   9.287  0.1234  0.0647 -1.1605
  421MOL0     C58001   7.461   4.233   9.409  0.0637 -0.3196  0.2011
  421MOL0     C58002   7.603   4.267   9.349  0.3058 -0.8517 -0.0426
  421MOL0     C58003   7.700   4.313   9.456 -0.2306  0.2607  0.2054
  421MOL0     C58004   7.813   4.389   9.385 -0.1863 -0.0858  0.0820
  421MOL0    Cl58005   7.920   4.266   9.308  0.1219  0.0906  0.0951
  421MOL0     C58006   6.727   4.332   9.159  0.0794  0.5619 -1.0314
  421MOL0     C58007   6.589   4.356   9.173  0.9072  0.1261 -0.0745
  421MOL0     O58008   6.341   4.160   9.283  0.1651 -0.5674  0.2644
  421MOL0     C58009   6.107   4.177   9.414 -0.0684  0.5641  0.3569
  421MOL0     C58010   5.978   4.182   9.461 -0.4542 -0.6508  0.0592
  421MOL0     N58011   5.532   3.949   9.193  0.2980  0.5330  0.7166
  421MOL0     N58012   5.462   3.831   9.201 -0.9047  0.2749 -0.3179
  421MOL0     C58013   4.416   3.610   8.494 -0.1678 -0.5520  0.4248
  421MOL0     C58014   4.301   3.621   8.408  0.0357  0.1754 -0.0289
  421MOL0     C58015   3.909   3.788   8.251 -0.2459 -0.0790 -0.8934
  421MOL0     C58016   3.774   3.803   8.295  0.4810 -0.5084  0.3936
  421MOL0     C58017   3.677   3.841   8.208  0.5381  0.0634 -0.5013
  421MOL0     C58018   3.710   3.849   8.071  0.7701  0.8677 -0.5806
  421MOL0     O58019   3.616   3.883   7.974  0.2214 -1.0358  0.4248
  421MOL0     C58020   3.631   4.020   7.931 -0.5592  0.2585  0.6284
  421MOL0     C58021   3.553   4.112   8.023  0.2596  0.6672 -0.0922
  421MOL0     C58022   3.406   4.063   8.056  0.1057 -0.4111 -0.1281
  421MOL0     C58023   3.329   4.179   8.127 -0.2739  0.0777 -0.5044
  421MOL0     C58024   3.391   4.207   8.259 -1.0441  0.0113 -0.6107
  421MOL0     C58025   3.463   4.229   8.356 -0.0575  0.5236  1.0687
  421MOL0     C58026   3.840   3.829   8.025  0.6556 -0.3557 -1.4055
  421MOL0     C58027   3.942   3.798   8.119  0.2476 -0.4377  0.2893
  421MOL0     C58028   4.089   3.808   8.076  0.1419 -0.4367  0.4152
  421MOL0     H58029   4.070   3.697   8.638  1.4734  1.5025  2.2264
  421MOL0     H58030   4.249   3.651   8.791  0.4449 -0.3189 -1.0222
  421MOL0     H58031   4.671   3.610   8.633  1.2798 -1.2185 -0.3120
  421MOL0     H58032   4.604   3.460   8.681 -1.6751  0.5410  0.6301
  421MOL0     H58033   4.634   3.538   8.925 -0.5062 -0.5793 -0.2966
  421MOL0     H58034   4.768   3.504   8.813 -1.6370 -0.4596  0.6847
  421MOL0     H58035   4.794   3.754   8.777  1.1145  3.3534  2.5650
  421MOL0     H58036   4.640   3.769   8.865  0.1715 -0.3351 -0.9825
  421MOL0     H58037   4.773   3.676   9.081 -1.3974 -0.7547 -0.5810
  421MOL0     H58038   4.897   3.627   8.963 -1.0462 -1.7627  3.6696
  421MOL0     H58039   4.825   3.904   9.064  0.8589 -0.0939 -1.5998
  421MOL0     H58040   4.936   3.889   8.930  2.1092  0.6589 -0.0562
  421MOL0     H58041   5.054   3.932   9.132  0.0644 -0.2013  1.7453
  421MOL0     H58042   4.975   3.806   9.227  1.1067  0.7953  0.7420
  421MOL0     H58043   5.171   3.774   8.994  2.8535 -0.1011  1.2298
  421MOL0     H58044   5.088   3.641   9.073  0.3575 -0.2502  0.0989
  421MOL0     H58045   5.184   3.745   9.300  0.9354 -0.9584  0.6727
  421MOL0     H58046   5.299   3.657   9.192 -0.2123 -0.7997  0.1788
  421MOL0     H58047   5.218   4.039   9.253  0.3454 -0.4188 -0.7203
  421MOL0     H58048   5.420   4.259   9.222 -1.8856  0.1512  1.6107
  421MOL0     H58049   5.574   4.198   9.237  0.6831 -0.8090 -1.2099
  421MOL0     H58050   5.358   4.215   9.437 -0.2107 -2.0635 -0.4471
  421MOL0     H58051   5.467   4.076   9.473 -0.4023 -0.7152  0.3247
  421MOL0     H58052   5.562   4.362   9.436 -1.2313 -1.5277 -2.1681
  421MOL0     H58053   5.544   4.288   9.596  2.1667  1.7036  0.5771
  421MOL0     H58054   5.718   4.145   9.587  1.8481  1.6586  0.0920
  421MOL0     H58055   5.724   4.150   9.411  1.8554 -1.4957  0.8045
  421MOL0     H58056   5.918   4.515   9.417  0.6967 -0.3274  2.2895
  421MOL0     H58057   6.105   4.630   9.341 -2.5779 -2.3070  2.6314
  421MOL0     H58058   6.156   4.540   9.203  1.6661  0.5946 -1.3594
  421MOL0     H58059   6.276   4.570   9.337 -0.5355 -2.7129  1.0887
  421MOL0     H58060   6.553   4.289   9.514  2.2476 -3.6522  0.9627
  421MOL0     H58061   6.790   4.270   9.487  0.6061  1.6206 -0.9933
  421MOL0     H58062   6.970   4.098   9.234 -0.0516 -1.5089 -2.4590
  421MOL0     H58063   6.958   4.212   9.095 -0.5506  0.6334  0.9635
  421MOL0     H58064   7.190   4.142   9.126  0.5965  1.2315  0.4031
  421MOL0     H58065   7.163   4.321   9.144  0.8117 -0.4393 -1.9308
  421MOL0     H58066   7.192   4.110   9.363 -3.3297  0.0664  0.2983
  421MOL0     H58067   7.179   4.290   9.396 -0.8496  0.4296 -0.5604
  421MOL0     H58068   7.365   4.319   9.232 -1.2738  0.8798  0.0056
  421MOL0     H58069   7.386   4.140   9.223 -2.4847 -0.9193 -1.1105
  421MOL0     H58070   7.430   4.305   9.485 -0.5310 -2.4672  2.1080
  421MOL0     H58071   7.460   4.134   9.455 -1.6418 -0.7578 -0.6958
  421MOL0     H58072   7.592   4.349   9.277  1.6228 -0.8699 -0.2912
  421MOL0     H58073   7.641   4.179   9.297  0.8874 -1.6150  1.5931
  421MOL0     H58074   7.734   4.224   9.510  0.5819  0.1950 -0.3927
  421MOL0     H58075   7.648   4.384   9.521 -2.1121  2.9453 -3.8212
  421MOL0     H58076   7.879   4.446   9.452 -0.5895 -0.5498  0.8930
  421MOL0     H58077   7.778   4.458   9.309 -1.7391  0.1369  0.9643
  421MOL0     H58078   6.769   4.345   9.060  0.0330 -2.4669 -1.5499
  421MOL0     H58079   6.529   4.390   9.089  0.3919 -1.3266 -0.3401
  421MOL0     H58080   6.170   4.089   9.425 -1.8282 -0.4617  3.0491
  421MOL0     H58081   5.951   4.091   9.515  3.4413 -0.4492  2.7586
  421MOL0     H58082   4.506   3.587   8.437 -0.8687 -0.3648 -0.7920
  421MOL0     H58083   4.320   3.595   8.304 -0.6789 -0.2981 -0.0501
  421MOL0     H58084   3.739   3.792   8.397 -1.5381  1.5053 -0.0004
  421MOL0     H58085   3.580   3.858   8.254  0.6411 -0.7236  0.0216
  421MOL0     H58086   3.737   4.039   7.912 -0.0497 -2.5154  0.1647
  421MOL0     H58087   3.589   4.022   7.831 -0.0217  1.9121  0.4130
  421MOL0     H58088   3.552   4.214   7.983 -2.0325  0.1169 -1.5738
  421MOL0     H58089   3.600   4.113   8.122 -2.2079 -0.1129  1.1571
  421MOL0     H58090   3.353   4.047   7.961 -0.8257 -2.5534  0.6943
  421MOL0     H58091   3.405   3.969   8.111 -0.2749 -1.3795 -1.7177
  421MOL0     H58092   3.225   4.153   8.148  0.0626  0.9837  2.7835
  421MOL0     H58093   3.337   4.271   8.069  2.5305 -0.5220 -1.2643
  421MOL0     H58094   3.524   4.268   8.434  2.3431 -0.1738 -0.3717
  421MOL0     H58095   3.862   3.847   7.920 -2.0260 -1.3036 -2.2379
  421MOL0     H58096   4.145   3.719   8.107 -0.2679 -1.2451 -1.0545
  421MOL0     H58097   4.096   3.817   7.967 -2.4601 -0.9144  0.1490
  421MOL0     H58098   4.135   3.899   8.114  0.2653 -1.6841  3.5337
  422MOL0     O58099   4.273   0.691  11.458 -0.5352 -0.3672 -0.0009
  422MOL0     C58100   4.189   0.701  11.370  0.1584 -1.5953 -0.7548
  422MOL0     O58101   4.177   0.820  11.288  0.0982 -0.1130  0.2957
  422MOL0     C58102   4.239   0.927  11.348  0.3172 -0.1844  0.6289
  422MOL0     C58103   4.195   0.970  11.475  0.2188  0.3199  0.2066
  422MOL0     C58104   4.252   1.083  11.538  0.8330 -0.5110  0.5874
  422MOL0     C58105   4.359   1.153  11.472 -0.0048 -0.2098 -1.0578
  422MOL0     O58106   4.415   1.272  11.524 -0.1077 -0.2630 -0.0134
  422MOL0     C58107   4.426   1.289  11.666  0.2915 -0.2141  0.0120
  422MOL0     C58108   4.509   1.408  11.696 -0.2736 -0.7304 -0.1520
  422MOL0     C58109   4.663   1.392  11.650  0.3292  0.3794  0.2629
  422MOL0     C58110   4.731   1.509  11.688  0.3900  0.4679  0.4810
  422MOL0     C58111   4.885   1.491  11.678 -0.4841  0.0846  0.3943
  422MOL0     C58112   4.971   1.610  11.731  1.3207 -0.1362 -0.5046
  422MOL0     C58113   5.120   1.578  11.715 -0.2219 -0.2324  0.5901
  422MOL0     C58114   5.217   1.674  11.790 -0.0177  0.4148 -0.5503
  422MOL0     N58115   5.355   1.649  11.756 -0.5559  0.3988 -0.2671
  422MOL0     C58116   5.427   1.538  11.787 -0.0701 -0.0163 -0.0810
  422MOL0     C58117   5.557   1.580  11.767 -0.0998 -0.0278 -0.0118
  422MOL0     C58118   5.678   1.493  11.787 -0.7770  0.5482 -0.2090
  422MOL0     C58119   5.778   1.469  11.669  0.8317 -0.8063  0.3234
  422MOL0     C58120   5.695   1.431  11.539 -0.0254  0.2675  0.8844
  422MOL0     C58121   5.789   1.396  11.427  0.6508  0.6629  0.0530
  422MOL0     O58122   5.713   1.358  11.318 -0.3244 -0.2418  0.4378
  422MOL0     C58123   5.635   1.447  11.250 -0.1268  0.0727 -0.2798
  422MOL0     C58124   5.551   1.400  11.151  0.4439 -0.8263  0.3971
  422MOL0     C58125   5.475   1.484  11.065 -0.0438  0.1791 -0.8184
  422MOL0     C58126   5.383   1.418  10.967 -0.3988  0.5520  0.2571
  422MOL0     C58127   5.483   1.618  11.099 -0.3785  1.0113  0.2297
  422MOL0     C58128   5.428   1.713  11.004  0.1140  0.4375 -1.1045
  422MOL0     O58129   5.308   1.712  10.947 -0.2577  0.1787  0.5816
  422MOL0     C58130   5.279   1.786  10.832  0.8780 -0.1840 -1.2775
  422MOL0     C58131   5.155   1.849  10.813 -0.7733  0.0247  0.1262
  422MOL0     C58132   5.122   1.922  10.700 -0.6011  0.5851 -1.0198
  422MOL0     C58133   5.214   1.906  10.596 -0.2341 -0.4810  0.2649
  422MOL0     O58134   5.195   1.976  10.483  0.1925  0.6952  0.4776
  422MOL0     C58135   5.190   1.890  10.368  0.1446 -0.3867  0.7952
  422MOL0     C58136   5.043   1.901  10.325  0.5952  0.4699 -0.1279
  422MOL0     C58137   5.016   1.785  10.231 -0.7936 -0.3777 -0.3973
  422MOL0     C58138   4.864   1.762  10.184  0.1265  0.0009  0.0857
  422MOL0     C58139   4.848   1.636  10.099 -0.1478 -0.8518 -0.2120
  422MOL0     C58140   4.910   1.640   9.962 -1.1005 -1.1286  0.2044
  422MOL0     C58141   4.856   1.747   9.869 -0.1530  0.0408  0.4739
  422MOL0     C58142   4.905   1.715   9.727  0.6334 -0.4816  0.8385
  422MOL0    Cl58143   4.849   1.833   9.602 -0.4049 -0.4344  0.0884
  422MOL0     C58144   5.330   1.840  10.605 -1.0282 -0.4460  0.1821
  422MOL0     C58145   5.369   1.779  10.723 -0.0526  0.2667 -0.1573
  422MOL0     O58146   5.510   1.805  10.979  0.3872  0.2332  0.0768
  422MOL0     C58147   5.563   1.663  11.203 -0.3472 -0.2219 -0.5145
  422MOL0     C58148   5.652   1.582  11.264  0.4988  0.7820  0.3949
  422MOL0     N58149   5.566   1.710  11.715  0.1096  0.0044 -0.3228
  422MOL0     N58150   5.441   1.749  11.722  0.4040  0.9561  0.5616
  422MOL0     C58151   4.399   1.105  11.343 -0.5779 -0.7726 -0.4238
  422MOL0     C58152   4.336   0.993  11.281 -0.8854  1.4075 -0.3465
  422MOL0     C58153   4.093   0.584  11.337 -0.1111 -0.3476 -0.3433
  422MOL0     C58154   4.034   0.600  11.218 -0.1184 -0.0784 -0.3010
  422MOL0     C58155   3.942   0.510  11.173  0.3921  1.0734  0.2298
  422MOL0     C58156   3.894   0.413  11.255  0.1279 -0.7495 -0.5733
  422MOL0     O58157   3.788   0.331  11.229 -0.0529 -0.9401 -0.3749
  422MOL0     C58158   3.719   0.331  11.100 -0.1183  0.6016 -0.6282
  422MOL0     C58159   3.768   0.244  10.993 -0.3297 -0.0495  0.2720
  422MOL0     C58160   3.698   0.292  10.860 -0.4375 -0.0290  0.3209
  422MOL0     C58161   3.723   0.195  10.747  0.1353 -0.3278  0.2480
  422MOL0     C58162   3.681   0.259  10.629  0.1071 -0.0197  0.1875
  422MOL0     C58163   3.656   0.295  10.516 -0.5081 -0.3885 -0.3745
  422MOL0     C58164   3.953   0.397  11.380  0.1081  0.2817  0.5425
  422MOL0     C58165   4.062   0.474  11.423 -0.0273  0.0513  0.4527
  422MOL0     C58166   4.116   0.451  11.568 -0.0567 -0.3833  0.4169
  422MOL0     H58167   4.102   0.921  11.504 -0.3668 -0.2069 -2.3507
  422MOL0     H58168   4.213   1.120  11.633 -2.7276 -1.3665 -0.3752
  422MOL0     H58169   4.483   1.206  11.708  0.6349 -0.8115 -1.5505
  422MOL0     H58170   4.324   1.307  11.703  1.0624 -1.9351  3.3926
  422MOL0     H58171   4.468   1.501  11.658  2.6168 -0.1733 -2.2639
  422MOL0     H58172   4.513   1.425  11.804 -0.6180  2.2295 -0.5387
  422MOL0     H58173   4.716   1.304  11.687 -2.1895 -0.8507  1.1765
  422MOL0     H58174   4.661   1.375  11.542 -0.6569  1.0741  0.1539
  422MOL0     H58175   4.698   1.588  11.620  0.0182 -1.6772 -1.9986
  422MOL0     H58176   4.706   1.529  11.792 -1.7096 -1.4430  0.4217
  422MOL0     H58177   4.930   1.478  11.579  4.5483 -1.5023  2.5599
  422MOL0     H58178   4.908   1.402  11.737 -0.7387  0.3066  0.8379
  422MOL0     H58179   4.940   1.699  11.675  2.0094  1.4512  1.5404
  422MOL0     H58180   4.953   1.623  11.838 -0.0868  1.8980 -0.9399
  422MOL0     H58181   5.155   1.578  11.611  1.4683 -2.8234  1.0806
  422MOL0     H58182   5.144   1.478  11.752  1.1537  0.5581  1.9174
  422MOL0     H58183   5.183   1.776  11.772 -0.7377  0.1980 -0.4601
  422MOL0     H58184   5.225   1.658  11.898 -0.6465 -1.5343 -0.7449
  422MOL0     H58185   5.400   1.447  11.841 -1.7301 -0.2205 -1.1915
  422MOL0     H58186   5.633   1.397  11.814  0.4783  0.2642  0.9549
  422MOL0     H58187   5.724   1.546  11.871 -2.0489  0.4955  0.5645
  422MOL0     H58188   5.829   1.565  11.660  0.9635 -0.9432 -0.5237
  422MOL0     H58189   5.854   1.392  11.682 -1.0175 -2.9208 -0.6175
  422MOL0     H58190   5.611   1.363  11.550 -0.5907  0.3300 -2.1727
  422MOL0     H58191   5.657   1.532  11.520  0.2505  0.0387 -1.0086
  422MOL0     H58192   5.858   1.478  11.407  0.4316  0.3582 -2.1683
  422MOL0     H58193   5.843   1.304  11.451  0.2322  0.3715 -0.1013
  422MOL0     H58194   5.537   1.293  11.142  2.4666 -1.0848 -0.2337
  422MOL0     H58195   5.392   1.471  10.871  0.2357 -4.2867 -2.7184
  422MOL0     H58196   5.277   1.416  10.996 -0.5820  0.4450 -0.3850
  422MOL0     H58197   5.417   1.315  10.961  1.5572  1.1745  0.0033
  422MOL0     H58198   5.078   1.854  10.890  1.8583 -0.6560  3.0182
  422MOL0     H58199   5.030   1.979  10.700 -1.5962 -0.9049  0.7007
  422MOL0     H58200   5.257   1.936  10.295 -0.1379 -3.7513 -1.8202
  422MOL0     H58201   5.235   1.792  10.386  0.9539 -0.0198  0.8277
  422MOL0     H58202   4.978   1.888  10.412 -0.5917  1.5098 -0.8270
  422MOL0     H58203   5.013   1.996  10.281 -0.5718  0.0354 -0.3215
  422MOL0     H58204   5.044   1.694  10.284 -1.4314 -1.2887 -1.5615
  422MOL0     H58205   5.090   1.792  10.150 -1.9381 -2.4239 -1.7320
  422MOL0     H58206   4.834   1.851  10.129  1.2533  0.3896  0.0689
  422MOL0     H58207   4.802   1.758  10.274  1.0577 -1.6114  0.7200
  422MOL0     H58208   4.905   1.567  10.163 -2.0049  0.0338  2.6128
  422MOL0     H58209   4.743   1.605  10.097 -1.3766  2.8334  0.5266
  422MOL0     H58210   4.903   1.542   9.914  0.8419 -0.3973 -1.7421
  422MOL0     H58211   5.016   1.657   9.983 -1.3666  0.6096  0.3165
  422MOL0     H58212   4.897   1.843   9.903 -1.3708  1.0380 -0.7518
  422MOL0     H58213   4.748   1.763   9.863  0.1109  2.3381  0.9630
  422MOL0     H58214   4.869   1.617   9.695 -1.8723  0.6972 -0.2242
  422MOL0     H58215   5.014   1.707   9.728  0.9929  2.0176 -2.2345
  422MOL0     H58216   5.384   1.836  10.511 -4.2053  0.5798 -1.8662
  422MOL0     H58217   5.460   1.721  10.732 -0.9060 -1.0549  0.3641
  422MOL0     H58218   5.570   1.767  11.234  1.0428 -1.0369  2.3026
  422MOL0     H58219   5.735   1.633  11.312  0.0110  0.5669  1.5153
  422MOL0     H58220   4.472   1.161  11.284 -0.5053 -2.0008 -1.5344
  422MOL0     H58221   4.374   0.950  11.189  1.3290  1.1021  0.6532
  422MOL0     H58222   4.040   0.690  11.157 -1.3474  0.8329  0.8685
  422MOL0     H58223   3.901   0.538  11.077  0.5874 -0.0435 -0.2022
  422MOL0     H58224   3.618   0.294  11.121  1.3433 -1.9736  2.9508
  422MOL0     H58225   3.718   0.433  11.062  3.9122  0.2912 -1.9924
  422MOL0     H58226   3.742   0.140  11.018 -1.0415 -0.0081 -0.2788
  422MOL0     H58227   3.877   0.254  10.994 -0.3986  0.7367  0.1772
  422MOL0     H58228   3.594   0.311  10.889 -0.6370  1.5632 -1.2554
  422MOL0     H58229   3.731   0.393  10.833 -1.6392 -0.0215 -1.2534
  422MOL0     H58230   3.658   0.108  10.758 -0.8715  0.5624  1.7503
  422MOL0     H58231   3.831   0.186  10.734  0.1113 -1.2102  0.5633
  422MOL0     H58232   3.636   0.309  10.412 -1.8683 -0.9494 -0.2083
  422MOL0     H58233   3.910   0.320  11.443 -0.5781 -0.8798 -1.2772
  422MOL0     H58234   4.115   0.542  11.628 -4.8304 -0.8268  1.4038
  422MOL0     H58235   4.065   0.369  11.620  0.9051 -1.8297 -0.8429
  422MOL0     H58236   4.222   0.426  11.566 -0.0385 -0.4344 -2.0833
  423MOL0     O58237   9.256  10.108   6.876  0.4792 -0.4165 -0.0685
  423MOL0     C58238   9.325  10.169   6.960 -0.4831  0.1693 -0.3153
  423MOL0     O58239   9.275  10.253   7.057 -0.0485 -0.6084  0.3541
  423MOL0     C58240   9.147  10.280   7.074  0.3718  0.4117  0.9788
  423MOL0     C58241   9.111  10.408   7.128  0.1662  0.4854  0.3188
  423MOL0     C58242   8.978  10.438   7.164 -0.5544  0.8759  0.4060
  423MOL0     C58243   8.879  10.346   7.146  0.7343  1.1716  0.7838
  423MOL0     O58244   8.756  10.397   7.185 -0.0281  0.2390 -0.1304
  423MOL0     C58245   8.638  10.322   7.171  0.3129  0.2510 -0.3735
  423MOL0     C58246   8.520  10.412   7.214  0.1016  0.8426  1.0804
  423MOL0     C58247   8.539  10.484   7.348 -0.4466  0.8427 -0.6044
  423MOL0     C58248   8.464  10.618   7.368 -0.5956  0.1202 -0.6130
  423MOL0     C58249   8.501  10.720   7.255 -0.7461 -1.3744 -0.5074
  423MOL0     C58250   8.647  10.754   7.222 -0.4164 -0.5313 -0.6123
  423MOL0     C58251   8.713  10.833   7.339  0.4479  0.1338 -0.8196
  423MOL0     C58252   8.834  10.916   7.284 -0.4571  0.1063  0.1432
  423MOL0     N58253   8.902  10.992   7.387 -0.3680 -0.1118  0.1451
  423MOL0     C58254   8.959  11.119   7.363  0.2084  0.9332 -0.1063
  423MOL0     C58255   9.056  11.134   7.454  0.6051  0.9959 -0.5927
  423MOL0     C58256   9.156  11.241   7.459  0.0685 -0.3013 -0.0867
  423MOL0     C58257   9.101  11.357   7.533 -0.5138  0.3145 -0.2353
  423MOL0     C58258   9.212  11.462   7.554 -0.8030 -0.1873 -0.7665
  423MOL0     C58259   9.205  11.525   7.703  0.0447  0.7228  0.3687
  423MOL0     O58260   9.223  11.411   7.789  0.2281  0.8884 -0.4058
  423MOL0     C58261   9.289  11.441   7.908 -0.3701  0.5407  0.8824
  423MOL0     C58262   9.279  11.554   7.990 -0.1868 -0.3061 -0.2547
  423MOL0     C58263   9.350  11.577   8.107 -0.1860  0.0670  0.1537
  423MOL0     C58264   9.339  11.716   8.176 -0.4154  0.6024  0.3456
  423MOL0     C58265   9.418  11.465   8.158 -0.7455 -0.0077  0.4915
  423MOL0     C58266   9.519  11.480   8.276  0.2224 -0.7215 -0.1961
  423MOL0     O58267   9.595  11.373   8.298 -0.3720  0.1762 -0.2076
  423MOL0     C58268   9.684  11.388   8.401 -1.0650 -0.4985  0.5281
  423MOL0     C58269   9.641  11.377   8.528 -0.0773  0.1926  0.5359
  423MOL0     C58270   9.727  11.397   8.635  0.4993  0.1136  0.2572
  423MOL0     C58271   9.862  11.427   8.611 -0.6469 -0.5658  0.0054
  423MOL0     O58272   9.957  11.458   8.708 -0.6960  0.2909 -0.3051
  423MOL0     C58273   9.926  11.444   8.853  0.5000  0.3266  0.4892
  423MOL0     C58274   9.896  11.302   8.905 -0.5765 -0.0561  0.2865
  423MOL0     C58275  10.000  11.200   8.849 -0.2480 -0.2419 -0.4253
  423MOL0     C58276   9.981  11.074   8.912 -0.6740 -0.1282 -0.6659
  423MOL0     C58277  10.079  10.965   8.858 -0.1947 -0.4592 -0.4769
  423MOL0     C58278  10.023  10.827   8.886  0.8303  0.9040  0.2563
  423MOL0     C58279  10.098  10.713   8.818 -0.4048  0.0773 -0.3291
  423MOL0     C58280  10.252  10.719   8.840  0.4795 -0.6258  0.6599
  423MOL0    Cl58281  10.311  10.546   8.793  0.4854  0.1530  0.1647
  423MOL0     C58282   9.898  11.440   8.478 -0.4779  0.4035  0.6415
  423MOL0     C58283   9.812  11.418   8.380 -0.4808  0.0732  0.2001
  423MOL0     O58284   9.518  11.579   8.347 -0.4780 -0.6556  0.0631
  423MOL0     C58285   9.421  11.346   8.082  0.2992 -0.2407 -0.5014
  423MOL0     C58286   9.356  11.338   7.962  0.5032  0.1151  0.1140
  423MOL0     N58287   9.047  11.027   7.546 -0.6026 -0.2955  0.2169
  423MOL0     N58288   8.954  10.941   7.501 -0.1127  0.4520  0.3206
  423MOL0     C58289   8.907  10.216   7.093  1.0208 -0.6261  0.7225
  423MOL0     C58290   9.036  10.184   7.050 -0.0368 -0.0497 -0.1673
  423MOL0     C58291   9.466  10.145   6.947 -0.2326 -0.0600  0.7835
  423MOL0     C58292   9.540  10.234   7.026 -0.8573 -0.8439  0.2056
  423MOL0     C58293   9.678  10.226   7.026 -0.3737  0.1686  0.2857
  423MOL0     C58294   9.748  10.133   6.941 -0.4957 -0.9415  0.6345
  423MOL0     O58295   9.889  10.131   6.929  0.6818  0.1621  0.3616
  423MOL0     C58296   9.960  10.243   6.981  0.4094 -0.2255 -0.4913
  423MOL0     C58297  10.070  10.276   6.878  0.5419 -0.4324  0.0501
  423MOL0     C58298  10.164  10.385   6.925 -0.0831 -0.5616  0.3055
  423MOL0     C58299  10.090  10.517   6.953  0.3431 -0.5501  0.3285
  423MOL0     C58300  10.010  10.572   6.841  0.0709  0.0633 -0.3082
  423MOL0     C58301   9.955  10.611   6.735 -0.8034 -0.1780  0.1472
  423MOL0     C58302   9.679  10.040   6.865  0.4045 -0.1384 -0.8518
  423MOL0     C58303   9.534  10.044   6.878 -0.4128  0.2660 -0.2955
  423MOL0     C58304   9.466   9.935   6.808  0.5004 -0.4736 -0.3000
  423MOL0     H58305   9.202  10.467   7.133  0.9220 -0.6028 -0.2737
  423MOL0     H58306   8.951  10.537   7.201  2.0152  1.7139  0.2239
  423MOL0     H58307   8.638  10.224   7.220 -1.3842 -0.7292 -2.1915
  423MOL0     H58308   8.627  10.300   7.065 -0.4902  0.7406 -0.4023
  423MOL0     H58309   8.499  10.487   7.137  0.6099  2.1350  2.1636
  423MOL0     H58310   8.433  10.347   7.228  0.7363 -0.9645 -2.2477
  423MOL0     H58311   8.493  10.419   7.424 -1.6986  1.9967 -0.3414
  423MOL0     H58312   8.644  10.502   7.376 -1.3741  0.4978  3.9352
  423MOL0     H58313   8.356  10.608   7.364 -0.9941  2.9113  0.6874
  423MOL0     H58314   8.483  10.655   7.469 -3.0952 -0.6104  0.1958
  423MOL0     H58315   8.440  10.804   7.291 -1.4893 -2.9126  2.0862
  423MOL0     H58316   8.461  10.688   7.158 -1.6187  0.0142 -0.6340
  423MOL0     H58317   8.711  10.667   7.201 -0.2200 -0.4448 -0.3790
  423MOL0     H58318   8.650  10.815   7.131 -0.3643  1.2751  0.5607
  423MOL0     H58319   8.745  10.752   7.405 -2.1898 -0.2756  0.0733
  423MOL0     H58320   8.640  10.901   7.385 -0.6186 -0.7532 -1.1681
  423MOL0     H58321   8.908  10.846   7.243 -0.3688  1.3585 -1.9406
  423MOL0     H58322   8.795  10.984   7.208 -2.8356  1.0573  2.0871
  423MOL0     H58323   8.940  11.176   7.272  0.2704 -1.6509 -1.8612
  423MOL0     H58324   9.172  11.268   7.354 -2.0686  1.8278  0.0423
  423MOL0     H58325   9.247  11.194   7.498  0.0402  0.1549  0.5426
  423MOL0     H58326   9.021  11.398   7.472 -2.3578 -1.6447  0.7474
  423MOL0     H58327   9.057  11.324   7.627  1.0413  0.8355  0.7130
  423MOL0     H58328   9.312  11.423   7.530 -1.3981 -2.0796 -0.3128
  423MOL0     H58329   9.198  11.545   7.484 -0.2681  0.9644  0.4668
  423MOL0     H58330   9.283  11.599   7.724  0.6630 -0.1564  1.3098
  423MOL0     H58331   9.105  11.565   7.719 -0.5739 -1.4374  2.6839
  423MOL0     H58332   9.228  11.643   7.955  0.1692  0.5134  1.2134
  423MOL0     H58333   9.434  11.760   8.206  0.0920  0.0761 -0.4837
  423MOL0     H58334   9.271  11.710   8.262 -2.4083  0.3789 -1.1694
  423MOL0     H58335   9.299  11.788   8.103 -1.5317  1.0699  1.3758
  423MOL0     H58336   9.536  11.365   8.554 -0.3991 -0.9304 -1.1381
  423MOL0     H58337   9.685  11.387   8.735  0.0581 -0.2792  0.0355
  423MOL0     H58338  10.017  11.488   8.895  0.2002  1.3538  0.1092
  423MOL0     H58339   9.846  11.512   8.881 -0.3746 -0.6630  0.4282
  423MOL0     H58340   9.897  11.301   9.014  1.2008 -0.4399  0.3082
  423MOL0     H58341   9.798  11.279   8.863  0.4945 -0.1624 -2.3573
  423MOL0     H58342  10.104  11.230   8.869  0.1699 -1.9896  0.2023
  423MOL0     H58343   9.995  11.202   8.740  1.6975  0.5819 -0.5559
  423MOL0     H58344   9.879  11.040   8.889 -1.7297  0.3662  2.6842
  423MOL0     H58345   9.980  11.070   9.021 -0.0349 -2.9129 -0.6836
  423MOL0     H58346  10.080  10.986   8.750  1.1041 -0.2950 -0.4476
  423MOL0     H58347  10.174  10.974   8.910  0.0273 -2.2186 -0.5117
  423MOL0     H58348   9.922  10.826   8.843  0.4689 -0.8798  1.0523
  423MOL0     H58349  10.005  10.812   8.993 -0.2158  0.0353 -0.0225
  423MOL0     H58350  10.075  10.714   8.711  2.4116  0.3780 -1.0098
  423MOL0     H58351  10.049  10.619   8.846 -2.5500  1.0610 -0.6605
  423MOL0     H58352  10.272  10.740   8.945  0.8242 -2.6460  1.0270
  423MOL0     H58353  10.294  10.795   8.773  0.5703 -1.2844 -0.0442
  423MOL0     H58354  10.001  11.471   8.460 -0.7166  0.6591 -0.3547
  423MOL0     H58355   9.839  11.436   8.277  0.1143  0.2266  0.3788
  423MOL0     H58356   9.463  11.258   8.130 -1.0625  0.8685  3.0750
  423MOL0     H58357   9.348  11.239   7.920  1.9703  0.0843 -0.1633
  423MOL0     H58358   8.834  10.140   7.066 -0.9456  0.7970  1.7664
  423MOL0     H58359   9.060  10.087   7.009  0.2130 -0.3112  0.5888
  423MOL0     H58360   9.492  10.304   7.094 -1.4642 -0.0920 -0.9649
  423MOL0     H58361   9.726  10.291   7.099 -1.2840 -1.1860  2.1750
  423MOL0     H58362   9.901  10.332   7.003  1.5353  0.6399 -0.8745
  423MOL0     H58363   9.999  10.226   7.082 -3.4620  1.8098  1.5496
  423MOL0     H58364  10.015  10.310   6.790  0.9734 -0.2012 -0.1289
  423MOL0     H58365  10.128  10.183   6.871 -0.6246 -1.1173 -1.0109
  423MOL0     H58366  10.211  10.352   7.018 -1.1485  2.0453  1.8633
  423MOL0     H58367  10.239  10.402   6.847  1.2574  0.6526  1.7855
  423MOL0     H58368  10.173  10.587   6.967  0.0129 -0.0462 -0.2048
  423MOL0     H58369  10.025  10.512   7.040  1.2930  4.8642  1.7406
  423MOL0     H58370   9.900  10.646   6.650 -1.1561 -0.2403  0.3474
  423MOL0     H58371   9.724   9.965   6.800  1.1902  0.7752 -1.3884
  423MOL0     H58372   9.378   9.900   6.863  2.3797  0.0721  3.3995
  423MOL0     H58373   9.430   9.970   6.711  0.7116 -2.2413 -1.0557
  423MOL0     H58374   9.526   9.844   6.796  2.9354  1.0257 -0.2056
  424MOL0     O58375   9.444   4.881   4.205 -0.3744 -0.1417 -1.7680
  424MOL0     C58376   9.527   4.972   4.184  0.4782 -0.0718 -1.1587
  424MOL0     O58377   9.635   4.964   4.102 -0.3285 -0.0272  0.2116
  424MOL0     C58378   9.654   4.838   4.039 -0.0883 -1.2986  0.8887
  424MOL0     C58379   9.748   4.752   4.084 -0.5041  0.5076  0.4348
  424MOL0     C58380   9.774   4.631   4.019 -0.9062 -0.1688 -0.3117
  424MOL0     C58381   9.735   4.608   3.894 -0.1908  1.2043  0.1316
  424MOL0     O58382   9.772   4.489   3.835 -0.5879  0.6928  1.2688
  424MOL0     C58383   9.662   4.421   3.774 -0.8515 -0.5017  0.0692
  424MOL0     C58384   9.711   4.286   3.732 -0.2697 -0.8045  0.0851
  424MOL0     C58385   9.696   4.181   3.837 -0.0807  0.1058 -0.0573
  424MOL0     C58386   9.544   4.146   3.836 -0.0024 -0.3655 -0.6547
  424MOL0     C58387   9.516   4.027   3.932  0.0510  0.0676 -0.1426
  424MOL0     C58388   9.533   4.072   4.078  0.6496 -0.4452 -0.7923
  424MOL0     C58389   9.478   3.959   4.176  0.6333 -0.1480  0.0971
  424MOL0     C58390   9.572   3.855   4.206 -0.0026  0.6139 -0.5154
  424MOL0     N58391   9.520   3.733   4.265 -0.3915  0.0544 -0.0934
  424MOL0     C58392   9.513   3.719   4.401  0.4162  0.1953  0.2178
  424MOL0     C58393   9.482   3.589   4.426  0.0640 -0.4900  0.2512
  424MOL0     C58394   9.461   3.542   4.568  0.0205 -0.7174 -0.7110
  424MOL0     C58395   9.479   3.386   4.605 -0.3441  0.6391 -0.2172
  424MOL0     C58396   9.385   3.281   4.545  0.8535 -0.2413  0.0692
  424MOL0     C58397   9.424   3.131   4.561  0.4902  0.0541 -0.4490
  424MOL0     O58398   9.457   3.098   4.701  0.7722  1.0860 -0.0790
  424MOL0     C58399   9.355   3.071   4.794 -0.0336  0.7743 -0.8329
  424MOL0     C58400   9.222   3.017   4.773  0.1969 -0.0072  0.3821
  424MOL0     C58401   9.133   2.993   4.875  0.1788 -0.6565 -0.3710
  424MOL0     C58402   9.000   2.956   4.823  0.4232 -0.2591  0.3934
  424MOL0     C58403   9.174   3.020   5.010  0.3061  0.3563  0.1312
  424MOL0     C58404   9.085   3.001   5.130  0.3216  0.5984 -0.0633
  424MOL0     O58405   9.091   3.107   5.222 -0.3394 -0.1643 -0.7477
  424MOL0     C58406   9.006   3.096   5.330  0.7025 -0.0989  0.0399
  424MOL0     C58407   8.889   3.178   5.340  0.2669 -0.0615  0.3491
  424MOL0     C58408   8.804   3.174   5.444  0.2158  0.9182  0.2684
  424MOL0     C58409   8.836   3.089   5.550  0.1942 -0.3002 -0.7064
  424MOL0     O58410   8.753   3.071   5.669 -0.1047 -0.2735 -0.1291
  424MOL0     C58411   8.830   3.052   5.781  0.3682  0.2292  0.5634
  424MOL0     C58412   8.736   3.078   5.900 -0.7599 -0.1011 -0.2894
  424MOL0     C58413   8.594   3.021   5.897  0.4679  0.4438  0.1717
  424MOL0     C58414   8.527   3.048   6.029  0.0507  0.3684 -0.4088
  424MOL0     C58415   8.375   3.044   6.017  0.3676  0.7320  0.0187
  424MOL0     C58416   8.302   3.024   6.146  0.3513 -0.8373  0.1450
  424MOL0     C58417   8.158   3.037   6.114 -0.6569  0.4309  0.8702
  424MOL0     C58418   8.064   3.023   6.242  0.2359  0.2064  0.1682
  424MOL0    Cl58419   7.889   3.009   6.182 -0.1734 -0.1013 -0.0894
  424MOL0     C58420   8.957   3.014   5.549 -0.9443  0.6930  0.4062
  424MOL0     C58421   9.044   3.020   5.436  1.5256 -1.1527  0.2113
  424MOL0     O58422   9.021   2.895   5.136  0.1652 -0.0098 -0.1651
  424MOL0     C58423   9.301   3.069   5.032 -0.2212 -0.7706  0.3911
  424MOL0     C58424   9.380   3.103   4.924  0.4021  0.1564  0.5219
  424MOL0     N58425   9.454   3.529   4.306 -0.5310 -0.1729 -0.3108
  424MOL0     N58426   9.480   3.614   4.212  0.2916 -0.5701  0.9465
  424MOL0     C58427   9.651   4.705   3.835 -0.2247 -0.0712  0.0055
  424MOL0     C58428   9.608   4.818   3.905  0.5176  0.4643 -0.4520
  424MOL0     C58429   9.515   5.103   4.249 -0.5890  0.7788 -0.5782
  424MOL0     C58430   9.634   5.178   4.256  0.0403 -0.3346 -0.0595
  424MOL0     C58431   9.624   5.304   4.317 -0.3542 -0.4628 -0.1124
  424MOL0     C58432   9.511   5.350   4.382  0.4435  0.5560 -0.3306
  424MOL0     O58433   9.521   5.472   4.456  0.7165  0.2491  0.6938
  424MOL0     C58434   9.446   5.468   4.581  0.0944 -0.8250 -0.0355
  424MOL0     C58435   9.326   5.557   4.560  0.6206 -0.3932  0.1333
  424MOL0     C58436   9.351   5.701   4.531  0.6990 -0.6538  0.4828
  424MOL0     C58437   9.384   5.743   4.396  0.1756 -1.0764  1.1037
  424MOL0     C58438   9.411   5.895   4.407 -0.9592  1.2308  0.2671
  424MOL0     C58439   9.421   6.016   4.414  0.7094  0.0202  0.5402
  424MOL0     C58440   9.397   5.271   4.372 -0.0228 -0.7048 -0.3098
  424MOL0     C58441   9.394   5.155   4.302  0.8046  0.1051 -0.2767
  424MOL0     C58442   9.266   5.084   4.290 -0.8244 -0.1320  0.2640
  424MOL0     H58443   9.801   4.765   4.178 -1.3780  0.3201  0.9687
  424MOL0     H58444   9.846   4.566   4.068 -1.1216 -1.3020 -1.4372
  424MOL0     H58445   9.621   4.466   3.683  0.6816  1.4441  0.2531
  424MOL0     H58446   9.577   4.416   3.843 -0.1032 -1.0138  0.9792
  424MOL0     H58447   9.674   4.275   3.629 -0.4101 -0.3698  0.0863
  424MOL0     H58448   9.819   4.301   3.722 -0.3898  0.4764  0.4395
  424MOL0     H58449   9.754   4.093   3.807  1.4426  1.1954 -0.4250
  424MOL0     H58450   9.731   4.220   3.933  0.1505  0.3867 -0.2574
  424MOL0     H58451   9.480   4.233   3.851  1.6307  1.0052 -1.2931
  424MOL0     H58452   9.529   4.119   3.731  2.3066  0.8122 -1.3704
  424MOL0     H58453   9.576   3.941   3.899  3.3146  2.1236 -0.0747
  424MOL0     H58454   9.417   3.992   3.901  1.2843 -2.0268 -2.0907
  424MOL0     H58455   9.636   4.104   4.094 -0.0821  0.5778  3.1793
  424MOL0     H58456   9.471   4.160   4.101 -0.4068 -1.7118  1.5015
  424MOL0     H58457   9.384   3.919   4.137 -0.4244  2.8295 -0.6791
  424MOL0     H58458   9.446   3.999   4.272  1.6249  1.8698 -0.3614
  424MOL0     H58459   9.613   3.826   4.109  0.9553 -1.2537  0.3934
  424MOL0     H58460   9.648   3.895   4.274 -1.1499  2.3476 -0.1916
  424MOL0     H58461   9.527   3.793   4.479  2.3127 -1.1136  1.2045
  424MOL0     H58462   9.358   3.574   4.586  0.2500  2.0959 -3.4783
  424MOL0     H58463   9.523   3.602   4.634 -1.5709  1.2148 -0.8892
  424MOL0     H58464   9.584   3.367   4.581 -0.5167  0.2720 -0.7074
  424MOL0     H58465   9.471   3.362   4.711 -2.0789  1.1969 -0.1887
  424MOL0     H58466   9.282   3.304   4.574  0.7685  0.7098 -0.9246
  424MOL0     H58467   9.390   3.290   4.436 -0.0447 -1.8675 -0.1454
  424MOL0     H58468   9.349   3.058   4.528  0.0519 -0.5566  1.7301
  424MOL0     H58469   9.509   3.113   4.494  0.1901  1.0750 -1.1276
  424MOL0     H58470   9.194   2.989   4.672  0.2437 -1.0171  0.6443
  424MOL0     H58471   8.919   3.014   4.870 -2.2937 -1.4736 -2.4050
  424MOL0     H58472   8.981   2.853   4.853  1.8685 -0.7898 -0.4494
  424MOL0     H58473   8.994   2.968   4.714 -0.1448  1.0055  0.5419
  424MOL0     H58474   8.869   3.236   5.251 -2.4726 -1.3207  0.0276
  424MOL0     H58475   8.711   3.230   5.453 -0.1089  0.3673  0.3957
  424MOL0     H58476   8.848   2.944   5.784  2.2559  0.5333  1.2237
  424MOL0     H58477   8.926   3.104   5.776 -0.6825  2.1152 -2.3270
  424MOL0     H58478   8.783   3.037   5.990  2.1359 -0.3125 -1.7969
  424MOL0     H58479   8.728   3.187   5.898  1.9911  0.1555 -0.9400
  424MOL0     H58480   8.583   2.914   5.879 -2.1760  0.3026  1.9915
  424MOL0     H58481   8.532   3.066   5.819  0.1699 -0.7850 -0.3202
  424MOL0     H58482   8.559   3.146   6.065 -0.1880  0.7524 -1.2045
  424MOL0     H58483   8.560   2.964   6.092 -0.7514 -0.3571 -0.9299
  424MOL0     H58484   8.340   3.134   5.965 -0.9300  0.8773  1.0783
  424MOL0     H58485   8.345   2.955   5.961  0.8923 -1.8210  3.4121
  424MOL0     H58486   8.339   3.098   6.218  1.9949  2.6424 -3.8819
  424MOL0     H58487   8.326   2.928   6.191 -1.2290 -2.4228 -2.1828
  424MOL0     H58488   8.127   2.958   6.045  0.8876  0.0816  0.5275
  424MOL0     H58489   8.131   3.131   6.064 -0.8657  0.8195  1.7031
  424MOL0     H58490   8.075   3.121   6.289  1.9702 -0.2412  0.8011
  424MOL0     H58491   8.093   2.947   6.316  1.0628  0.9305  0.6042
  424MOL0     H58492   8.985   2.944   5.627 -3.3409  1.1007  1.7402
  424MOL0     H58493   9.144   2.978   5.432  1.3703 -1.7063  1.5955
  424MOL0     H58494   9.336   3.109   5.127  1.5822  0.2218 -0.6437
  424MOL0     H58495   9.481   3.141   4.937 -0.4965  2.2496  1.9363
  424MOL0     H58496   9.617   4.686   3.734 -1.7682 -0.0769  0.4883
  424MOL0     H58497   9.541   4.889   3.858  0.1950 -1.0832 -2.4782
  424MOL0     H58498   9.730   5.147   4.217  1.1915 -0.8545  2.8999
  424MOL0     H58499   9.710   5.370   4.305 -1.2672  0.7335 -0.2722
  424MOL0     H58500   9.427   5.366   4.616  1.8504 -0.7332  1.3579
  424MOL0     H58501   9.500   5.520   4.661  0.4438 -0.6237 -0.4005
  424MOL0     H58502   9.269   5.548   4.653  0.2050  2.2703  0.2133
  424MOL0     H58503   9.257   5.528   4.479  2.4274  1.0965 -2.0604
  424MOL0     H58504   9.271   5.769   4.565  0.0847 -0.4682 -1.2527
  424MOL0     H58505   9.442   5.726   4.586 -0.2898  2.6239  0.8114
  424MOL0     H58506   9.295   5.718   4.338  0.1633  1.5943 -0.1502
  424MOL0     H58507   9.469   5.690   4.352  0.4102  0.1272  0.0766
  424MOL0     H58508   9.431   6.122   4.425 -1.4616  0.3127  0.0852
  424MOL0     H58509   9.310   5.324   4.411 -0.0121  0.8030 -2.1641
  424MOL0     H58510   9.256   5.047   4.187 -0.3587  1.1789 -0.2741
  424MOL0     H58511   9.274   4.994   4.350  0.3580 -1.7701 -2.1801
  424MOL0     H58512   9.179   5.145   4.318  0.6437  2.4868 -0.4785
  425MOL0     O58513   2.934  10.501   1.276  0.3481 -0.0274 -0.2400
  425MOL0     C58514   3.023  10.588   1.302  0.5565  0.6725  0.2250
  425MOL0     O58515   3.061  10.689   1.220 -0.1972  0.1648  0.5801
  425MOL0     C58516   3.004  10.702   1.101  0.1469 -0.6735  0.4006
  425MOL0     C58517   2.936  10.811   1.067 -0.4947 -0.3826 -0.7762
  425MOL0     C58518   2.878  10.826   0.937  0.3148 -0.9793 -1.3119
  425MOL0     C58519   2.893  10.726   0.845  0.4201 -0.5996 -0.3145
  425MOL0     O58520   2.833  10.735   0.719 -0.3541 -0.2463 -0.5993
  425MOL0     C58521   2.809  10.863   0.658  0.1423  0.3047 -0.4589
  425MOL0     C58522   2.759  10.843   0.516 -0.3211  0.9775 -0.1333
  425MOL0     C58523   2.725  10.978   0.467 -1.0568  0.2332 -0.3255
  425MOL0     C58524   2.577  11.023   0.487  0.1898  0.3547  0.5001
  425MOL0     C58525   2.546  11.157   0.416  0.3704 -0.2001 -0.0386
  425MOL0     C58526   2.618  11.276   0.477 -0.1114  0.0710 -0.5310
  425MOL0     C58527   2.564  11.400   0.399 -0.1765  0.4461 -0.5359
  425MOL0     C58528   2.640  11.520   0.434  0.4553 -0.4678 -0.3043
  425MOL0     N58529   2.575  11.637   0.372  0.2607  0.3795 -0.0509
  425MOL0     C58530   2.514  11.742   0.438 -0.6102 -0.1271  0.1740
  425MOL0     C58531   2.488  11.835   0.343  0.2695  0.4107  0.8105
  425MOL0     C58532   2.420  11.969   0.353  0.8805 -0.8182 -0.3674
  425MOL0     C58533   2.298  11.974   0.256  0.8730  0.6413  0.8348
  425MOL0     C58534   2.194  12.075   0.309  0.4899 -0.5444 -1.2838
  425MOL0     C58535   2.073  12.082   0.225  0.4001  0.3932 -0.4726
  425MOL0     O58536   2.002  12.203   0.262  0.3006 -0.4900 -0.1726
  425MOL0     C58537   1.882  12.180   0.323 -0.5246  0.4974  0.0405
  425MOL0     C58538   1.765  12.242   0.270 -1.1610 -0.3905 -0.5346
  425MOL0     C58539   1.646  12.230   0.335  0.0880  0.9273  0.3099
  425MOL0     C58540   1.536  12.328   0.290  0.3240  0.7564  0.6480
  425MOL0     C58541   1.634  12.135   0.446  0.7382  0.8574 -0.7524
  425MOL0     C58542   1.514  12.094   0.528 -0.0914 -0.3483 -1.0912
  425MOL0     O58543   1.526  12.052   0.655 -0.6747  0.3600  0.3008
  425MOL0     C58544   1.428  11.987   0.724 -0.6168  1.0525  0.7380
  425MOL0     C58545   1.350  11.887   0.656 -0.1589 -0.0785 -0.4227
  425MOL0     C58546   1.262  11.814   0.725  0.9394  0.5604  0.5263
  425MOL0     C58547   1.237  11.833   0.858 -0.1299  0.3929  0.3123
  425MOL0     O58548   1.132  11.763   0.902 -0.2247  0.2673  0.1241
  425MOL0     C58549   1.118  11.755   1.047  0.0982 -0.6686  0.1394
  425MOL0     C58550   1.059  11.624   1.075  0.6302  1.1769  0.9615
  425MOL0     C58551   0.910  11.620   1.073 -0.5949 -0.6382  0.1900
  425MOL0     C58552   0.863  11.477   1.035  0.1811 -0.6426 -0.2969
  425MOL0     C58553   0.747  11.432   1.115  0.1642 -0.5224  0.3968
  425MOL0     C58554   0.808  11.357   1.227 -0.1085  0.2852  0.8904
  425MOL0     C58555   0.713  11.294   1.331 -0.0161  0.1733  0.4433
  425MOL0     C58556   0.800  11.218   1.431 -0.1609 -0.0274  0.3254
  425MOL0    Cl58557   0.876  11.333   1.535  0.3633 -0.1326  0.3524
  425MOL0     C58558   1.305  11.936   0.920 -0.1131  0.1515 -0.4034
  425MOL0     C58559   1.416  11.999   0.864  1.4382 -0.8016  0.2624
  425MOL0     O58560   1.406  12.103   0.466 -0.4924 -0.1482  0.0716
  425MOL0     C58561   1.756  12.067   0.494  0.3508  0.4833  0.5379
  425MOL0     C58562   1.880  12.101   0.429  0.1256 -0.6608 -0.4993
  425MOL0     N58563   2.530  11.791   0.219  0.6716 -0.1549 -0.0488
  425MOL0     N58564   2.571  11.665   0.236  0.6456 -0.5343  0.4471
  425MOL0     C58565   2.953  10.609   0.882  0.6592  0.2317 -0.5560
  425MOL0     C58566   3.009  10.603   1.006  0.6330  0.3160  0.8407
  425MOL0     C58567   3.079  10.585   1.438  0.7563  0.8114 -0.1911
  425MOL0     C58568   3.212  10.616   1.447 -0.5500  0.0590  0.6045
  425MOL0     C58569   3.283  10.614   1.575  0.2120 -0.3509  0.3749
  425MOL0     C58570   3.211  10.581   1.693 -0.1622  0.3427 -0.6677
  425MOL0     O58571   3.274  10.592   1.808 -0.2030 -0.1681 -0.0155
  425MOL0     C58572   3.234  10.517   1.920  0.1774  0.2387  0.3505
  425MOL0     C58573   3.320  10.528   2.047 -0.3898  0.4219 -0.5978
  425MOL0     C58574   3.449  10.457   2.040 -0.4303  0.3213  0.4338
  425MOL0     C58575   3.530  10.446   2.168  0.2307  0.3593 -1.1872
  425MOL0     C58576   3.466  10.487   2.293  0.7190 -0.0508 -1.2839
  425MOL0     C58577   3.420  10.524   2.403 -0.3292 -1.2630  0.2625
  425MOL0     C58578   3.076  10.546   1.679  0.6832  0.2628  0.1837
  425MOL0     C58579   3.010  10.541   1.550  0.8742 -0.9623 -0.4011
  425MOL0     C58580   2.861  10.498   1.555 -0.4590  0.3063  1.1105
  425MOL0     H58581   2.915  10.891   1.137  2.6758  0.5162 -0.6854
  425MOL0     H58582   2.832  10.923   0.920  1.6964 -0.0704 -0.1339
  425MOL0     H58583   2.899  10.925   0.646  0.1352  0.3323 -0.3698
  425MOL0     H58584   2.741  10.924   0.719 -0.9176  0.0068 -1.3143
  425MOL0     H58585   2.824  10.780   0.455 -1.8555 -1.4051  0.5147
  425MOL0     H58586   2.667  10.784   0.525 -1.4071  2.5129 -0.7849
  425MOL0     H58587   2.791  11.053   0.511  0.9675 -2.1560  0.9869
  425MOL0     H58588   2.742  10.965   0.359 -1.8833  0.9151 -0.5463
  425MOL0     H58589   2.523  10.944   0.432  1.9364  0.5192 -1.5845
  425MOL0     H58590   2.541  11.033   0.590 -0.5371 -0.6112  0.3610
  425MOL0     H58591   2.437  11.168   0.415  0.1753 -0.1022 -4.9461
  425MOL0     H58592   2.569  11.166   0.309 -1.4365  1.1749 -0.3650
  425MOL0     H58593   2.601  11.301   0.582  3.9333  1.0685  0.0326
  425MOL0     H58594   2.725  11.258   0.461 -0.2617 -1.3906 -0.0707
  425MOL0     H58595   2.463  11.414   0.438 -0.4238 -1.0058 -0.5978
  425MOL0     H58596   2.563  11.384   0.291 -1.2666 -0.8821 -0.3606
  425MOL0     H58597   2.645  11.537   0.542 -1.4456  4.6825 -0.7555
  425MOL0     H58598   2.746  11.513   0.408  1.2229  1.6197  1.9336
  425MOL0     H58599   2.500  11.753   0.545 -0.2456 -2.1227  0.4686
  425MOL0     H58600   2.484  12.056   0.333  1.0246 -0.7404  0.3799
  425MOL0     H58601   2.388  11.994   0.455  4.0680  3.8494 -0.2115
  425MOL0     H58602   2.340  12.014   0.164  0.9422 -0.1207  0.5292
  425MOL0     H58603   2.253  11.876   0.240  2.3227  0.1620 -0.5861
  425MOL0     H58604   2.162  12.052   0.411  1.2168 -3.3200 -1.6015
  425MOL0     H58605   2.233  12.177   0.301 -1.2807  0.1178 -1.7294
  425MOL0     H58606   2.101  12.087   0.119 -2.5235 -1.7206 -1.4809
  425MOL0     H58607   2.016  11.990   0.238  0.9267  0.3941  2.5738
  425MOL0     H58608   1.793  12.310   0.190  0.0714 -0.5809 -0.2829
  425MOL0     H58609   1.486  12.274   0.209  2.7991 -0.8608  0.0775
  425MOL0     H58610   1.579  12.419   0.248  0.3678 -0.6637 -2.7218
  425MOL0     H58611   1.460  12.351   0.366 -1.7910 -0.7170 -0.9114
  425MOL0     H58612   1.372  11.869   0.551 -1.7625 -1.5873 -0.5508
  425MOL0     H58613   1.211  11.734   0.672 -1.6258  1.3125  1.6970
  425MOL0     H58614   1.216  11.766   1.095 -0.1722 -0.1879  0.5946
  425MOL0     H58615   1.057  11.839   1.083  0.9270  0.6594 -1.3890
  425MOL0     H58616   1.096  11.545   1.010 -1.3319 -0.2140  1.4365
  425MOL0     H58617   1.076  11.586   1.177  1.6391  1.2762  0.8384
  425MOL0     H58618   0.861  11.702   1.021  1.3642  2.3995  2.8131
  425MOL0     H58619   0.869  11.640   1.172 -0.1840  1.7257 -0.0733
  425MOL0     H58620   0.939  11.399   1.030  1.8128  0.6129  2.5262
  425MOL0     H58621   0.827  11.482   0.932 -1.2327 -0.3087  0.1860
  425MOL0     H58622   0.679  11.512   1.143  1.0974  0.9790 -1.4116
  425MOL0     H58623   0.692  11.363   1.051  1.4826  0.6274 -2.1012
  425MOL0     H58624   0.886  11.415   1.277  0.8614  0.1622 -0.4412
  425MOL0     H58625   0.861  11.279   1.173 -1.7109  1.4168 -2.5767
  425MOL0     H58626   0.635  11.229   1.290  1.2772 -0.8158 -0.5075
  425MOL0     H58627   0.666  11.380   1.380  1.1445  1.3923 -0.5145
  425MOL0     H58628   0.870  11.156   1.375 -1.9360 -0.8678 -1.0757
  425MOL0     H58629   0.743  11.148   1.493  1.4115 -0.1417  1.7161
  425MOL0     H58630   1.283  11.963   1.022 -1.6996 -3.0186  0.2222
  425MOL0     H58631   1.472  12.078   0.912  0.1866  0.2989 -0.0350
  425MOL0     H58632   1.748  11.986   0.565 -1.4258  1.8158  1.9250
  425MOL0     H58633   1.970  12.068   0.479 -0.3574 -0.1302  0.7490
  425MOL0     H58634   2.956  10.528   0.811 -1.3220  0.0308 -0.4770
  425MOL0     H58635   3.057  10.509   1.033  1.0994  0.0169 -0.9303
  425MOL0     H58636   3.260  10.657   1.359 -3.4117  4.8701  0.9303
  425MOL0     H58637   3.387  10.643   1.580 -0.3680  2.5445 -1.7590
  425MOL0     H58638   3.136  10.561   1.939  0.2014  2.2205 -3.2169
  425MOL0     H58639   3.210  10.415   1.888 -3.9928  1.7460 -2.1159
  425MOL0     H58640   3.259  10.479   2.123  2.3865  1.1267  2.2967
  425MOL0     H58641   3.336  10.633   2.074  2.8247 -0.4305  1.3547
  425MOL0     H58642   3.436  10.351   2.014  1.3241 -0.1897  1.4867
  425MOL0     H58643   3.512  10.509   1.968  1.3600 -0.9392  1.0086
  425MOL0     H58644   3.626  10.498   2.160  2.0559 -2.0288  2.6377
  425MOL0     H58645   3.556  10.342   2.185  1.1126  0.3148 -2.6397
  425MOL0     H58646   3.374  10.575   2.485  0.0539 -2.4628  1.2592
  425MOL0     H58647   3.019  10.531   1.770 -0.3422 -0.1572 -0.5125
  425MOL0     H58648   2.823  10.499   1.658  1.4314  0.3086  1.8374
  425MOL0     H58649   2.795  10.563   1.497 -0.2465  1.2542  1.8982
  425MOL0     H58650   2.861  10.398   1.511  2.6593  0.8800 -0.4501
  426MOL0     O58651   2.820   5.848   5.432  1.0885 -0.4072  0.2834
  426MOL0     C58652   2.830   5.791   5.540  0.2239  0.4666  0.0656
  426MOL0     O58653   2.754   5.831   5.648 -0.7398  0.1862 -0.4066
  426MOL0     C58654   2.709   5.963   5.658  0.8011 -0.7175 -1.0909
  426MOL0     C58655   2.677   6.048   5.554  0.1030 -0.0529 -0.1773
  426MOL0     C58656   2.627   6.170   5.576  0.2833 -0.6512 -0.0130
  426MOL0     C58657   2.616   6.224   5.708 -0.0518  0.3151  0.5465
  426MOL0     O58658   2.566   6.348   5.740 -0.2084 -0.1690  0.0596
  426MOL0     C58659   2.511   6.435   5.634  0.4305 -0.4317 -0.0393
  426MOL0     C58660   2.421   6.550   5.694 -0.3140  1.4531  0.4189
  426MOL0     C58661   2.467   6.622   5.821 -0.6515 -0.8958 -0.6149
  426MOL0     C58662   2.371   6.734   5.866  1.2522 -0.3437  0.3033
  426MOL0     C58663   2.364   6.850   5.755  0.6000  0.9390 -0.3845
  426MOL0     C58664   2.494   6.912   5.709 -0.0100  0.4982  0.1687
  426MOL0     C58665   2.474   7.042   5.627 -0.3215 -0.4608 -0.5288
  426MOL0     C58666   2.399   7.027   5.493  0.3528  0.2862 -0.0639
  426MOL0     N58667   2.421   7.136   5.400  0.0577  0.3420 -0.8906
  426MOL0     C58668   2.378   7.263   5.430 -0.0504 -0.4779  0.3402
  426MOL0     C58669   2.400   7.333   5.314 -0.5484  0.6008 -0.0945
  426MOL0     C58670   2.355   7.475   5.289 -0.0086  0.6970  0.5042
  426MOL0     C58671   2.202   7.474   5.265 -0.2042  0.5973  0.1688
  426MOL0     C58672   2.143   7.614   5.284  0.3453  0.0159 -0.7415
  426MOL0     C58673   2.129   7.693   5.151  0.0193 -0.6124 -0.3480
  426MOL0     O58674   2.094   7.835   5.181  0.0155  0.7816  0.1293
  426MOL0     C58675   2.198   7.903   5.242 -0.0296 -0.4841 -0.6044
  426MOL0     C58676   2.337   7.870   5.234 -0.2938  0.7895 -0.3489
  426MOL0     C58677   2.437   7.970   5.255 -0.4459  0.4137 -0.3422
  426MOL0     C58678   2.582   7.941   5.244  0.6109  0.8114 -0.3198
  426MOL0     C58679   2.400   8.100   5.296  0.4723  0.0552 -0.1826
  426MOL0     C58680   2.494   8.215   5.324  1.2726  0.1586  0.2030
  426MOL0     O58681   2.430   8.336   5.318 -0.0076 -0.3050  0.1633
  426MOL0     C58682   2.510   8.445   5.303  0.8956  0.7557 -0.1659
  426MOL0     C58683   2.509   8.533   5.412  0.2839 -0.1457 -0.1080
  426MOL0     C58684   2.596   8.643   5.401  0.7586 -0.9697 -0.4195
  426MOL0     C58685   2.685   8.661   5.296  0.8221 -0.6849 -0.4697
  426MOL0     O58686   2.763   8.772   5.291 -0.6700 -0.3946  0.1224
  426MOL0     C58687   2.712   8.897   5.317 -0.5151 -0.3780 -0.4898
  426MOL0     C58688   2.761   8.998   5.204 -0.8731 -0.2604 -0.2710
  426MOL0     C58689   2.677   8.970   5.076  0.1135 -0.2521 -0.7243
  426MOL0     C58690   2.667   9.087   4.973  0.4721  0.3059 -0.0200
  426MOL0     C58691   2.606   9.055   4.845  0.0579 -0.3766 -0.2305
  426MOL0     C58692   2.592   9.174   4.745  0.3943  0.6230 -0.5219
  426MOL0     C58693   2.514   9.123   4.623  0.2571  0.0266  0.2430
  426MOL0     C58694   2.497   9.210   4.504 -0.7980  0.6383 -0.2806
  426MOL0    Cl58695   2.454   9.373   4.550  0.0979 -0.1616  0.1376
  426MOL0     C58696   2.678   8.569   5.194 -0.8344 -0.0689  0.2553
  426MOL0     C58697   2.588   8.468   5.190  0.7016  0.7781  0.9014
  426MOL0     O58698   2.606   8.196   5.361  0.3673  0.6084  0.4702
  426MOL0     C58699   2.262   8.126   5.322  0.0606 -0.4501  1.3906
  426MOL0     C58700   2.165   8.028   5.292 -0.6944  0.4746 -0.1966
  426MOL0     N58701   2.452   7.245   5.223 -0.5792 -0.2712 -0.7046
  426MOL0     N58702   2.472   7.134   5.277  0.8023  0.4585  0.2104
  426MOL0     C58703   2.647   6.145   5.817 -0.0445  0.3390  0.1883
  426MOL0     C58704   2.689   6.018   5.783  0.3576  0.3015 -0.2605
  426MOL0     C58705   2.907   5.667   5.567 -0.2891 -0.2564  0.8188
  426MOL0     C58706   2.926   5.615   5.696  0.6087 -0.1618  0.4175
  426MOL0     C58707   2.973   5.492   5.721 -0.3511  0.5360 -0.4871
  426MOL0     C58708   3.024   5.413   5.615  0.4976  0.4322 -0.8350
  426MOL0     O58709   3.082   5.286   5.626  0.0925 -0.6968  0.0470
  426MOL0     C58710   3.029   5.195   5.724  0.1973  0.5413  0.4091
  426MOL0     C58711   3.121   5.186   5.851 -0.3470 -0.3898 -0.3551
  426MOL0     C58712   3.088   5.069   5.949  0.1381 -0.1214 -1.1612
  426MOL0     C58713   2.943   5.091   6.002 -0.1299 -0.1969 -0.3917
  426MOL0     C58714   2.954   5.192   6.103  0.5942  0.1863 -1.4089
  426MOL0     C58715   2.953   5.274   6.184 -0.1918  0.1422  0.0703
  426MOL0     C58716   3.019   5.464   5.483 -0.4205 -0.3147 -0.5104
  426MOL0     C58717   2.965   5.591   5.459  0.3733  0.7823 -0.6371
  426MOL0     C58718   2.956   5.635   5.318  0.3656 -0.0285  0.4306
  426MOL0     H58719   2.660   6.012   5.453  1.2042 -3.1724  0.6179
  426MOL0     H58720   2.588   6.224   5.489  0.4295 -1.9870 -0.9378
  426MOL0     H58721   2.445   6.386   5.562 -0.3567 -0.7013  0.8479
  426MOL0     H58722   2.604   6.474   5.590 -0.3336 -1.5315 -2.8549
  426MOL0     H58723   2.398   6.618   5.612  2.8002 -0.2446 -2.0612
  426MOL0     H58724   2.322   6.505   5.707 -1.1070  1.4788 -4.0886
  426MOL0     H58725   2.490   6.546   5.896  2.7400 -0.0720 -0.6954
  426MOL0     H58726   2.561   6.673   5.800 -0.3597 -0.7627  0.9322
  426MOL0     H58727   2.267   6.702   5.876  0.8954  0.5546 -0.4176
  426MOL0     H58728   2.400   6.781   5.960 -1.2463  2.5744 -0.2238
  426MOL0     H58729   2.297   6.928   5.793  0.2844 -0.0705  1.2282
  426MOL0     H58730   2.303   6.815   5.671 -0.5156  2.3541 -0.1887
  426MOL0     H58731   2.543   6.936   5.804 -2.3199  2.3998  0.9679
  426MOL0     H58732   2.555   6.850   5.642  0.0889  0.0613  0.6605
  426MOL0     H58733   2.564   7.098   5.600 -0.3020 -0.1588  0.1470
  426MOL0     H58734   2.417   7.106   5.695  2.5030 -0.1309  1.7224
  426MOL0     H58735   2.429   6.933   5.445 -0.8012 -2.2421  3.7452
  426MOL0     H58736   2.295   7.023   5.524  0.2914 -0.2186 -0.3099
  426MOL0     H58737   2.327   7.291   5.522  0.3307 -1.3460  0.8238
  426MOL0     H58738   2.419   7.504   5.206 -1.7661 -1.3239 -1.7205
  426MOL0     H58739   2.378   7.543   5.371 -0.5263  1.6456 -0.1206
  426MOL0     H58740   2.177   7.439   5.164 -4.9684 -1.2468  1.7077
  426MOL0     H58741   2.145   7.405   5.329  0.5109  3.0596  3.7392
  426MOL0     H58742   2.039   7.600   5.316  0.6753 -1.6978 -0.2715
  426MOL0     H58743   2.193   7.665   5.367 -1.5870 -1.9922  1.8544
  426MOL0     H58744   2.219   7.694   5.089 -0.1216 -0.9279 -0.5641
  426MOL0     H58745   2.050   7.650   5.088 -0.6459 -0.8403  0.6265
  426MOL0     H58746   2.373   7.775   5.195  2.4990  1.9360 -0.7729
  426MOL0     H58747   2.605   7.840   5.209  0.3472  0.2422  1.0736
  426MOL0     H58748   2.625   7.943   5.344  0.3347  0.1987 -0.1891
  426MOL0     H58749   2.631   8.019   5.184  1.9221 -0.8454 -1.4876
  426MOL0     H58750   2.447   8.518   5.500 -2.3646 -2.3994 -2.1527
  426MOL0     H58751   2.595   8.722   5.476  0.3027 -0.8513 -0.5504
  426MOL0     H58752   2.603   8.898   5.325 -0.4841  1.4965  0.3354
  426MOL0     H58753   2.750   8.931   5.414 -0.9437 -1.6719  0.1461
  426MOL0     H58754   2.744   9.094   5.253 -0.9652 -0.6032  0.3771
  426MOL0     H58755   2.869   8.995   5.185 -0.0951 -0.5682  3.5044
  426MOL0     H58756   2.573   8.940   5.093  0.5191 -0.7035  1.2722
  426MOL0     H58757   2.724   8.884   5.026 -1.1859  0.1348 -2.7341
  426MOL0     H58758   2.770   9.117   4.953 -0.0218  1.2409 -1.2840
  426MOL0     H58759   2.611   9.170   5.018 -0.2947 -0.8807  1.3051
  426MOL0     H58760   2.672   8.977   4.806  0.0643  0.8599 -2.9520
  426MOL0     H58761   2.504   9.016   4.852 -0.6281  0.8733 -2.2496
  426MOL0     H58762   2.687   9.214   4.709  0.8767  0.3627  0.4439
  426MOL0     H58763   2.539   9.260   4.788  1.5771  0.9826  0.2663
  426MOL0     H58764   2.416   9.092   4.661  0.6176  1.2381  2.3919
  426MOL0     H58765   2.565   9.032   4.591  2.2759  1.4597 -0.8661
  426MOL0     H58766   2.425   9.168   4.434 -2.0404  0.9025  0.8044
  426MOL0     H58767   2.595   9.211   4.455 -2.1797 -3.7945 -3.8204
  426MOL0     H58768   2.754   8.574   5.117 -0.8604 -0.3449  0.2117
  426MOL0     H58769   2.595   8.394   5.110  2.9044 -0.3248  2.0094
  426MOL0     H58770   2.225   8.214   5.374  1.5482  1.6003 -0.7972
  426MOL0     H58771   2.058   8.044   5.300 -0.7880 -0.0575 -0.3111
  426MOL0     H58772   2.639   6.179   5.920  0.9012 -2.1604  1.1649
  426MOL0     H58773   2.728   5.956   5.864 -0.2547  1.1743  0.7268
  426MOL0     H58774   2.897   5.675   5.781 -2.1763  0.4515 -0.8592
  426MOL0     H58775   2.979   5.447   5.820 -1.8939 -4.8986 -2.4826
  426MOL0     H58776   2.928   5.222   5.756  0.0706 -0.5064  0.9436
  426MOL0     H58777   3.012   5.099   5.673 -0.7999  0.8081  0.2082
  426MOL0     H58778   3.122   5.281   5.904 -2.2063  0.2880 -1.4362
  426MOL0     H58779   3.217   5.162   5.804 -1.0142 -0.2915 -1.8403
  426MOL0     H58780   3.101   4.967   5.912 -1.3687 -1.7288  2.3374
  426MOL0     H58781   3.156   5.074   6.034  1.5246  3.2419 -2.2956
  426MOL0     H58782   2.908   4.997   6.046 -2.5760  0.7765 -0.0729
  426MOL0     H58783   2.869   5.120   5.927  0.8239 -2.8603 -2.5406
  426MOL0     H58784   2.949   5.352   6.258 -0.2649 -1.6493  2.0708
  426MOL0     H58785   3.052   5.391   5.410 -2.1840 -4.1620  2.1417
  426MOL0     H58786   2.990   5.565   5.241 -0.5085  2.6547 -2.6322
  426MOL0     H58787   2.853   5.660   5.293  1.0179  0.5001 -2.0972
  426MOL0     H58788   3.018   5.726   5.310  0.3233  0.1956  2.2324
  427MOL0     O58789   6.408   8.667  11.113 -0.2809  0.2865 -0.3420
  427MOL0     C58790   6.418   8.776  11.169  0.6021 -0.9891  0.2476
  427MOL0     O58791   6.532   8.843  11.204 -0.9776  0.1330 -0.1703
  427MOL0     C58792   6.653   8.808  11.149 -0.6375 -0.3089 -0.2845
  427MOL0     C58793   6.700   8.675  11.136  0.6765  0.1319 -0.1565
  427MOL0     C58794   6.824   8.644  11.084 -0.6046  1.0848 -0.0265
  427MOL0     C58795   6.914   8.741  11.047 -0.8472 -0.4522  0.5525
  427MOL0     O58796   7.050   8.730  11.020  0.1685 -0.0285 -1.1249
  427MOL0     C58797   7.107   8.608  11.072  0.6923 -0.3606 -0.2033
  427MOL0     C58798   7.161   8.526  10.962  0.8327 -0.0460  0.0998
  427MOL0     C58799   7.283   8.594  10.911 -0.2812 -0.8411 -0.0629
  427MOL0     C58800   7.340   8.534  10.777  0.1952 -0.0258 -0.0613
  427MOL0     C58801   7.415   8.417  10.820 -1.5396  0.0061  0.2739
  427MOL0     C58802   7.510   8.377  10.699  0.8148  0.2375 -0.0456
  427MOL0     C58803   7.569   8.231  10.717 -0.2795 -0.0576 -0.0718
  427MOL0     C58804   7.695   8.203  10.617  0.1630 -0.5201 -0.4175
  427MOL0     N58805   7.729   8.062  10.606 -0.1265 -0.1208 -0.0980
  427MOL0     C58806   7.789   7.993  10.710 -0.9446 -0.2516  0.6178
  427MOL0     C58807   7.853   7.887  10.656 -0.6098 -0.8574 -0.0427
  427MOL0     C58808   7.951   7.797  10.723 -0.2391  0.3939 -0.1276
  427MOL0     C58809   8.087   7.818  10.662  0.0886  0.4411  0.9220
  427MOL0     C58810   8.177   7.919  10.733 -0.5140  0.5028  0.4772
  427MOL0     C58811   8.320   7.909  10.686  0.3435 -0.3589 -0.0618
  427MOL0     O58812   8.381   7.781  10.706 -0.3057 -0.6945 -0.5331
  427MOL0     C58813   8.518   7.783  10.687 -0.0266 -0.6577 -0.7261
  427MOL0     C58814   8.593   7.756  10.795  0.4531 -0.7605  0.3807
  427MOL0     C58815   8.730   7.780  10.795  0.1201  0.6141 -0.2325
  427MOL0     C58816   8.804   7.772  10.936  0.5214 -0.1414  0.9798
  427MOL0     C58817   8.802   7.808  10.674 -0.2621  0.0553  0.0219
  427MOL0     C58818   8.942   7.816  10.661 -1.0528  0.3362 -0.8896
  427MOL0     O58819   9.001   7.771  10.547  0.1982  0.1284  0.8606
  427MOL0     C58820   9.132   7.776  10.539  0.5967 -0.1723 -0.9708
  427MOL0     C58821   9.196   7.905  10.504  0.2913  0.0273  0.2357
  427MOL0     C58822   9.334   7.904  10.488  0.0487 -0.4864  0.4812
  427MOL0     C58823   9.409   7.785  10.513 -0.3767 -0.9709  1.0731
  427MOL0     O58824   9.546   7.790  10.521 -0.0350  0.2487  0.4732
  427MOL0     C58825   9.621   7.902  10.479  0.3506 -0.8344  0.1028
  427MOL0     C58826   9.771   7.869  10.476  0.4317 -0.5630  0.5697
  427MOL0     C58827   9.867   7.957  10.405 -0.4262  0.5621  0.8475
  427MOL0     C58828   9.851   8.112  10.433  1.1345 -0.6006  0.0044
  427MOL0     C58829   9.961   8.197  10.369  0.0961  0.0982 -0.3372
  427MOL0     C58830   9.936   8.348  10.363  0.5789 -0.5491 -0.1337
  427MOL0     C58831  10.057   8.423  10.302 -0.0451  0.1434 -0.7600
  427MOL0     C58832  10.024   8.574  10.278  0.0072  0.0194  0.0500
  427MOL0    Cl58833   9.998   8.616  10.110  0.0838 -0.4205 -0.1703
  427MOL0     C58834   9.348   7.666  10.548 -0.0181  0.1543 -0.2771
  427MOL0     C58835   9.210   7.658  10.565 -0.5686  0.2758 -0.4760
  427MOL0     O58836   9.003   7.861  10.759  0.1646  0.0774 -0.4807
  427MOL0     C58837   8.721   7.819  10.559 -1.2386  0.5797 -0.4322
  427MOL0     C58838   8.584   7.813  10.564  1.5335  0.0890  0.6931
  427MOL0     N58839   7.822   7.887  10.519 -0.5044 -0.0755 -0.6554
  427MOL0     N58840   7.762   7.987  10.489 -0.2906 -0.9370 -0.5841
  427MOL0     C58841   6.868   8.870  11.058  0.3250 -0.3033  0.0326
  427MOL0     C58842   6.740   8.904  11.101 -0.0102  0.3781  0.1197
  427MOL0     C58843   6.296   8.858  11.204 -0.5764  0.2660  0.4358
  427MOL0     C58844   6.313   8.998  11.203  0.1060 -0.6894 -0.1830
  427MOL0     C58845   6.210   9.085  11.209 -0.7055  0.2343  0.8228
  427MOL0     C58846   6.079   9.032  11.230  0.2333 -0.4961  0.2720
  427MOL0     O58847   5.973   9.114  11.240  0.4939 -0.5847  0.0868
  427MOL0     C58848   5.980   9.250  11.177 -0.1896 -0.1598 -0.3228
  427MOL0     C58849   5.843   9.312  11.179  0.4784 -0.4505 -0.6732
  427MOL0     C58850   5.868   9.438  11.100  0.1691  0.7826  1.0166
  427MOL0     C58851   5.749   9.533  11.122 -0.3338  0.4775  0.6109
  427MOL0     C58852   5.785   9.673  11.073  0.1877  0.4929 -0.9169
  427MOL0     C58853   5.802   9.788  11.039 -0.1343  0.7702 -0.4637
  427MOL0     C58854   6.063   8.895  11.247  0.0927  0.6307 -0.9533
  427MOL0     C58855   6.162   8.799  11.232 -0.1398  0.1449 -0.1523
  427MOL0     C58856   6.142   8.658  11.242  0.3098 -0.2499 -0.1608
  427MOL0     H58857   6.640   8.588  11.161  1.6728 -0.3684  0.5681
  427MOL0     H58858   6.838   8.536  11.074 -1.9757  0.8856  0.1067
  427MOL0     H58859   7.038   8.543  11.126 -3.7173  1.9643 -2.4611
  427MOL0     H58860   7.189   8.639  11.137 -0.3960 -1.7060  1.9025
  427MOL0     H58861   7.179   8.425  10.999  2.3977  0.8414  1.9424
  427MOL0     H58862   7.080   8.524  10.888  0.6054  1.2566  0.2793
  427MOL0     H58863   7.259   8.698  10.886  1.2092 -1.1859 -3.4801
  427MOL0     H58864   7.357   8.610  10.990  0.0149  2.9524 -0.9411
  427MOL0     H58865   7.251   8.521  10.715 -0.0305  1.0490  0.0152
  427MOL0     H58866   7.400   8.612  10.728  0.2315 -0.0729 -0.0907
  427MOL0     H58867   7.344   8.333  10.824  0.7896 -2.9412 -6.2334
  427MOL0     H58868   7.470   8.432  10.914 -0.0822  1.6679 -0.7800
  427MOL0     H58869   7.464   8.382  10.600  0.2584  0.7065  0.2333
  427MOL0     H58870   7.591   8.451  10.701  0.2597  0.8805 -0.7313
  427MOL0     H58871   7.495   8.152  10.700 -0.3019 -0.4697  1.7889
  427MOL0     H58872   7.605   8.225  10.820 -1.4160  2.5138  0.5630
  427MOL0     H58873   7.666   8.244  10.519 -0.0278 -1.6190 -0.8377
  427MOL0     H58874   7.780   8.259  10.655 -0.5189 -1.4748  2.7938
  427MOL0     H58875   7.802   8.045  10.804 -0.1648  3.0206 -1.1500
  427MOL0     H58876   7.908   7.696  10.723  0.2846  0.0409  3.2282
  427MOL0     H58877   7.969   7.806  10.831 -1.4979 -0.6619  0.2005
  427MOL0     H58878   8.136   7.722  10.643 -0.6347 -0.2142  2.2120
  427MOL0     H58879   8.082   7.858  10.561 -0.8853 -1.6938  0.0760
  427MOL0     H58880   8.137   8.018  10.708 -2.7034 -0.1144  1.2942
  427MOL0     H58881   8.185   7.899  10.840 -0.8655 -0.4219  0.3434
  427MOL0     H58882   8.328   7.929  10.579 -3.0979 -1.0461 -0.5744
  427MOL0     H58883   8.379   7.990  10.730 -0.9177  2.7186 -3.5233
  427MOL0     H58884   8.541   7.729  10.885  0.7645 -1.9442  0.2243
  427MOL0     H58885   8.726   7.760  11.011  0.4916  2.7877  1.5378
  427MOL0     H58886   8.849   7.869  10.958 -2.0828  0.9992  1.6594
  427MOL0     H58887   8.882   7.696  10.930 -1.1864 -2.0952  2.3080
  427MOL0     H58888   9.134   7.990  10.476 -1.2271 -1.1210 -0.0003
  427MOL0     H58889   9.390   7.984  10.441 -0.1867  0.6634  2.0889
  427MOL0     H58890   9.601   7.929  10.375  0.0777  0.1349  0.3904
  427MOL0     H58891   9.599   7.989  10.542 -0.6709  0.5593 -2.0202
  427MOL0     H58892   9.803   7.849  10.579 -2.4476  1.0471  1.8991
  427MOL0     H58893   9.779   7.769  10.434  1.4481 -0.3323  0.1682
  427MOL0     H58894   9.848   7.937  10.300  2.0434 -0.4233  0.5296
  427MOL0     H58895   9.969   7.922  10.422 -0.6901 -0.7652 -0.2180
  427MOL0     H58896   9.856   8.118  10.543  0.7537 -4.5765  0.4033
  427MOL0     H58897   9.753   8.148  10.401  0.4733 -1.4377  1.0135
  427MOL0     H58898  10.052   8.188  10.428  1.5521  4.9949 -1.3824
  427MOL0     H58899   9.988   8.177  10.265 -0.8526 -2.8760 -0.1192
  427MOL0     H58900   9.896   8.396  10.453 -1.2900  1.1060 -1.7576
  427MOL0     H58901   9.848   8.364  10.299 -2.0166 -0.9941  3.0385
  427MOL0     H58902  10.104   8.368  10.220 -0.1978 -1.1919  0.0115
  427MOL0     H58903  10.135   8.431  10.379 -1.9455  1.7993  1.1219
  427MOL0     H58904  10.096   8.637  10.332  1.4056 -0.9615 -0.6023
  427MOL0     H58905   9.930   8.609  10.322  0.9140  4.6350 -1.1747
  427MOL0     H58906   9.403   7.575  10.572  0.4858  0.5963  0.2929
  427MOL0     H58907   9.162   7.564  10.590  1.7239 -0.4504  1.6267
  427MOL0     H58908   8.770   7.834  10.464  3.4320 -0.9118  1.4616
  427MOL0     H58909   8.525   7.832  10.476 -0.8444 -0.4416  2.0675
  427MOL0     H58910   6.933   8.953  11.034 -0.5610  0.6020  0.7332
  427MOL0     H58911   6.708   9.007  11.110 -2.2618  0.0345 -2.6085
  427MOL0     H58912   6.412   9.033  11.177 -0.4456 -1.1758 -3.3215
  427MOL0     H58913   6.234   9.191  11.211  3.2074 -0.4609 -0.2757
  427MOL0     H58914   6.060   9.312  11.218 -0.0299  0.4908 -1.5615
  427MOL0     H58915   6.021   9.238  11.076  1.5217  0.4878  0.2567
  427MOL0     H58916   5.806   9.337  11.280 -1.3070  0.1584 -1.4327
  427MOL0     H58917   5.768   9.247  11.134  2.5514 -1.3372 -3.0254
  427MOL0     H58918   5.957   9.496  11.123  0.5476  1.3148 -1.5015
  427MOL0     H58919   5.875   9.414  10.993  0.7803 -0.0478  1.2377
  427MOL0     H58920   5.701   9.536  11.220 -0.7248  1.7773  0.3946
  427MOL0     H58921   5.665   9.503  11.060  0.5110 -0.0213 -0.3158
  427MOL0     H58922   5.818   9.893  11.022  1.9772  0.4194 -0.8652
  427MOL0     H58923   5.965   8.857  11.274  0.2497 -0.2779 -1.5872
  427MOL0     H58924   6.201   8.606  11.318  0.9432 -1.8589 -1.6908
  427MOL0     H58925   6.039   8.639  11.275 -0.2449  5.6921  2.8192
  427MOL0     H58926   6.177   8.606  11.152  2.5630  0.6023  0.1722
  428MOL0     O58927   9.968   5.219   2.145 -0.8138  0.1776 -0.4012
  428MOL0     C58928   9.998   5.299   2.059  0.2529  0.2190  0.2062
  428MOL0     O58929  10.116   5.358   2.047 -0.6310 -0.1561  0.9101
  428MOL0     C58930  10.229   5.291   2.090  0.2701  0.4445 -1.1415
  428MOL0     C58931  10.258   5.161   2.050  0.3270  0.3647  0.0811
  428MOL0     C58932  10.361   5.086   2.112 -0.2468  0.2171 -0.3071
  428MOL0     C58933  10.450   5.153   2.200  0.9406  0.6442 -0.7145
  428MOL0     O58934  10.558   5.099   2.266  0.6178  0.9891  0.4481
  428MOL0     C58935  10.558   4.965   2.300 -0.2635 -0.0736  0.2431
  428MOL0     C58936  10.644   4.932   2.414  0.1826  0.3673 -0.1929
  428MOL0     C58937  10.647   4.773   2.431 -0.1407 -0.3157 -0.1551
  428MOL0     C58938  10.755   4.702   2.358  0.0099 -0.5359  0.3095
  428MOL0     C58939  10.772   4.553   2.413 -0.0762 -0.5625  0.2590
  428MOL0     C58940  10.861   4.466   2.318 -0.6923 -0.0360  0.3153
  428MOL0     C58941  10.897   4.328   2.378 -0.3022 -0.6027  0.5205
  428MOL0     C58942  11.023   4.314   2.460 -0.2784  0.9099  0.8373
  428MOL0     N58943  11.047   4.174   2.499 -0.3869  0.6983  0.7032
  428MOL0     C58944  11.074   4.079   2.405 -0.7043 -0.1510 -0.0478
  428MOL0     C58945  11.124   3.976   2.476 -0.2045  0.4369 -0.4120
  428MOL0     C58946  11.215   3.863   2.421  0.1620  1.1906 -0.4719
  428MOL0     C58947  11.206   3.733   2.513 -0.1289 -0.4731  0.1306
  428MOL0     C58948  11.306   3.624   2.448  1.5078  0.2692  0.6720
  428MOL0     C58949  11.280   3.475   2.502  0.7611  0.0976 -0.1034
  428MOL0     O58950  11.390   3.388   2.473  0.1818 -0.3603  0.1252
  428MOL0     C58951  11.401   3.350   2.338  0.7971  1.2823  0.6992
  428MOL0     C58952  11.494   3.397   2.245 -0.6751  0.3919 -0.1607
  428MOL0     C58953  11.510   3.343   2.116 -0.1822 -0.0465  0.3059
  428MOL0     C58954  11.599   3.401   2.010  0.0533  0.5592  0.0421
  428MOL0     C58955  11.421   3.237   2.075  0.0222 -0.3507 -0.4953
  428MOL0     C58956  11.412   3.188   1.933 -0.3624 -0.6947 -0.0821
  428MOL0     O58957  11.295   3.137   1.899  0.3478  0.1218  0.2451
  428MOL0     C58958  11.278   3.075   1.779 -0.1444 -0.4828  1.2306
  428MOL0     C58959  11.193   3.152   1.691 -0.4878 -0.0850  0.2482
  428MOL0     C58960  11.164   3.099   1.557  1.0925 -1.2611 -0.3826
  428MOL0     C58961  11.203   2.968   1.526  0.2738  0.3666  0.1867
  428MOL0     O58962  11.166   2.902   1.408  0.1322 -0.1680  0.0935
  428MOL0     C58963  11.215   2.763   1.384 -0.5070 -0.3459 -0.8489
  428MOL0     C58964  11.143   2.704   1.263 -0.3498  0.8425  0.5855
  428MOL0     C58965  11.029   2.618   1.310 -0.8520  0.2101  0.2009
  428MOL0     C58966  10.906   2.695   1.347  0.0113 -0.3088 -0.3546
  428MOL0     C58967  10.777   2.616   1.321  0.8660  0.3571  0.2508
  428MOL0     C58968  10.654   2.712   1.338  0.6801 -0.5366  0.3956
  428MOL0     C58969  10.530   2.615   1.353 -0.4642  0.9965  0.4430
  428MOL0     C58970  10.392   2.688   1.359  0.0155  0.0037  0.4610
  428MOL0    Cl58971  10.256   2.605   1.443 -0.3666 -0.0381 -0.3882
  428MOL0     C58972  11.287   2.904   1.617 -0.4088  0.0806 -0.4454
  428MOL0     C58973  11.332   2.957   1.740  0.1254  0.4368  0.3196
  428MOL0     O58974  11.513   3.188   1.860 -0.4916  0.5990 -0.2190
  428MOL0     C58975  11.310   3.209   2.160  0.7061 -0.1043  1.1610
  428MOL0     C58976  11.304   3.254   2.291  0.4539 -0.4163  0.8113
  428MOL0     N58977  11.095   3.998   2.611  0.2785  0.0923 -0.3989
  428MOL0     N58978  11.042   4.115   2.623  0.1212  0.1444  0.0919
  428MOL0     C58979  10.421   5.288   2.226  0.5389 -0.2562 -0.0101
  428MOL0     C58980  10.310   5.353   2.178 -0.2009  0.0366 -0.1493
  428MOL0     C58981   9.885   5.345   1.983  0.0142 -0.2998  0.8689
  428MOL0     C58982   9.888   5.474   1.937 -0.9221  0.5679  0.3919
  428MOL0     C58983   9.794   5.534   1.864 -0.6862 -0.1815  0.5655
  428MOL0     C58984   9.673   5.472   1.847  0.6839  0.0158  0.4545
  428MOL0     O58985   9.565   5.533   1.776  0.3654 -0.1041 -0.6693
  428MOL0     C58986   9.567   5.663   1.718  0.5204 -0.5584  0.3239
  428MOL0     C58987   9.433   5.707   1.656  0.2678 -1.3234 -1.2445
  428MOL0     C58988   9.324   5.706   1.772 -0.1685 -0.0168  0.4910
  428MOL0     C58989   9.212   5.794   1.728 -0.1948  0.0441  0.7170
  428MOL0     C58990   9.108   5.813   1.830 -0.3619  0.9172  0.0314
  428MOL0     C58991   9.021   5.827   1.913 -0.0644 -0.2637  0.6974
  428MOL0     C58992   9.655   5.342   1.891  0.2125 -0.1228  0.8195
  428MOL0     C58993   9.765   5.273   1.946 -0.5853  0.9796 -0.9552
  428MOL0     C58994   9.745   5.132   2.003 -0.3419  0.2137 -0.0645
  428MOL0     H58995  10.188   5.096   1.998  1.4993 -2.7270  2.1293
  428MOL0     H58996  10.380   4.982   2.089  0.4917 -2.2083  8.0729
  428MOL0     H58997  10.591   4.904   2.216 -0.8792  0.4198 -0.3717
  428MOL0     H58998  10.454   4.937   2.320 -1.2381  1.2094 -2.5372
  428MOL0     H58999  10.742   4.981   2.403  0.2484 -0.0715 -1.7838
  428MOL0     H59000  10.596   4.974   2.502  0.3793  1.2600 -0.5038
  428MOL0     H59001  10.652   4.759   2.539 -2.5880  0.8811  0.1701
  428MOL0     H59002  10.558   4.731   2.382  0.0261 -0.3755 -0.4121
  428MOL0     H59003  10.718   4.700   2.255  0.4471 -0.8274  0.1579
  428MOL0     H59004  10.849   4.756   2.372  0.4776 -1.8243  2.7040
  428MOL0     H59005  10.670   4.514   2.406 -0.5258  0.8801 -2.2263
  428MOL0     H59006  10.813   4.556   2.515 -0.9508 -1.3341  0.6510
  428MOL0     H59007  10.797   4.450   2.231  0.5223 -0.0669 -0.5826
  428MOL0     H59008  10.948   4.531   2.305 -1.8415  1.6723  0.8251
  428MOL0     H59009  10.916   4.255   2.299  0.4048  1.0382 -0.9075
  428MOL0     H59010  10.814   4.292   2.439 -0.0135 -1.4340  0.4271
  428MOL0     H59011  11.109   4.351   2.405  1.1679 -0.4254  2.1262
  428MOL0     H59012  11.013   4.385   2.543  1.6045 -0.5852  2.4360
  428MOL0     H59013  11.091   4.098   2.300  1.3877 -2.0391 -0.1421
  428MOL0     H59014  11.316   3.905   2.417  0.4112  0.9424  1.9147
  428MOL0     H59015  11.184   3.830   2.321 -0.4362 -1.3505  0.4634
  428MOL0     H59016  11.222   3.744   2.620  1.7783  1.2820 -0.2691
  428MOL0     H59017  11.104   3.697   2.498 -0.6889  0.6238  1.1189
  428MOL0     H59018  11.289   3.603   2.343 -0.4406  0.3519  0.9437
  428MOL0     H59019  11.408   3.664   2.459  0.5552  3.3439 -0.6489
  428MOL0     H59020  11.269   3.476   2.611 -4.3717  0.5614 -0.3724
  428MOL0     H59021  11.188   3.440   2.454  0.0592 -0.0280  1.2668
  428MOL0     H59022  11.561   3.481   2.261  1.4763 -1.4719  1.4743
  428MOL0     H59023  11.547   3.430   1.919 -0.2800 -0.2185 -0.0188
  428MOL0     H59024  11.673   3.325   1.983  0.6360  1.4536 -0.9966
  428MOL0     H59025  11.663   3.483   2.046  1.0205  1.1201 -2.7303
  428MOL0     H59026  11.148   3.246   1.722  0.2090 -0.1965  1.6574
  428MOL0     H59027  11.100   3.155   1.490 -0.2694 -0.7124  1.3078
  428MOL0     H59028  11.319   2.783   1.360  0.4653 -2.9831  0.7000
  428MOL0     H59029  11.199   2.697   1.470 -0.5557  1.4903  0.6047
  428MOL0     H59030  11.108   2.781   1.194 -1.4409 -0.8237 -0.8366
  428MOL0     H59031  11.209   2.637   1.208 -2.5056 -0.6590 -0.3389
  428MOL0     H59032  11.078   2.562   1.391 -0.2698  0.6909  0.1928
  428MOL0     H59033  11.018   2.555   1.222  1.2651 -1.2757  0.9146
  428MOL0     H59034  10.892   2.774   1.272 -0.2617 -0.4909 -0.4988
  428MOL0     H59035  10.908   2.730   1.450 -2.2000 -0.0221 -0.3706
  428MOL0     H59036  10.774   2.568   1.223 -0.8584  1.8221 -0.4845
  428MOL0     H59037  10.770   2.542   1.401 -1.5668 -1.5074 -1.5533
  428MOL0     H59038  10.646   2.778   1.251  0.7719  3.0904  2.9237
  428MOL0     H59039  10.664   2.769   1.431 -0.9415  1.8784 -0.8031
  428MOL0     H59040  10.538   2.564   1.450 -1.3777 -0.0368 -0.0030
  428MOL0     H59041  10.528   2.547   1.267  0.7967  1.3157  0.1379
  428MOL0     H59042  10.371   2.714   1.256  1.1698  1.4794  0.5630
  428MOL0     H59043  10.407   2.781   1.414  0.7919 -0.0368  0.3396
  428MOL0     H59044  11.336   2.811   1.589  1.1351  1.3767 -2.3747
  428MOL0     H59045  11.391   2.896   1.808  0.2958 -0.2954 -0.4654
  428MOL0     H59046  11.233   3.136   2.136 -0.0342  0.8588  0.5357
  428MOL0     H59047  11.230   3.222   2.364 -0.3657  0.6671  0.4714
  428MOL0     H59048  10.491   5.337   2.293 -0.7169 -0.6519  1.6599
  428MOL0     H59049  10.294   5.457   2.205  0.1981 -0.4193  2.0272
  428MOL0     H59050   9.969   5.537   1.974 -0.0502 -0.3859  0.1566
  428MOL0     H59051   9.814   5.640   1.850 -2.6587  0.4639  2.1532
  428MOL0     H59052   9.609   5.740   1.782 -1.3228  0.8091 -0.0101
  428MOL0     H59053   9.633   5.667   1.631  0.6272 -0.5142  0.4078
  428MOL0     H59054   9.428   5.648   1.564  1.6400 -1.0614 -1.5104
  428MOL0     H59055   9.443   5.810   1.619 -0.4006 -1.0744 -0.7650
  428MOL0     H59056   9.283   5.606   1.791 -0.3025 -0.1919 -0.6327
  428MOL0     H59057   9.377   5.739   1.861  3.3333 -0.4069 -1.2875
  428MOL0     H59058   9.176   5.758   1.631  1.5077  1.6686 -0.5978
  428MOL0     H59059   9.267   5.886   1.708 -2.4161  1.4880  0.9927
  428MOL0     H59060   8.947   5.831   1.990  0.8327  3.8422  1.5596
  428MOL0     H59061   9.564   5.284   1.878  2.2441 -3.2175 -1.1685
  428MOL0     H59062   9.830   5.065   1.986 -1.3229 -1.2792  0.6877
  428MOL0     H59063   9.715   5.135   2.108 -2.9354  2.2309 -0.7632
  428MOL0     H59064   9.666   5.097   1.936 -0.4835  2.1337 -0.9596
  429MOL0     O59065   1.794   5.877  11.318  0.2534 -0.1940  0.1174
  429MOL0     C59066   1.783   5.947  11.217 -0.8070  0.3018 -0.2299
  429MOL0     O59067   1.684   5.932  11.126  0.6191 -0.2451 -0.6143
  429MOL0     C59068   1.609   5.821  11.121 -0.1091  0.3024  0.4449
  429MOL0     C59069   1.470   5.837  11.122 -0.1549  0.4671  0.2536
  429MOL0     C59070   1.385   5.725  11.120 -0.4044  0.5435 -0.5653
  429MOL0     C59071   1.443   5.592  11.113  0.5889 -0.4940  0.6056
  429MOL0     O59072   1.375   5.474  11.124 -1.1304 -0.2771  0.6162
  429MOL0     C59073   1.239   5.471  11.096  0.1431 -1.0463  0.2480
  429MOL0     C59074   1.201   5.338  11.022  0.6555 -0.0668 -0.4200
  429MOL0     C59075   1.062   5.328  10.967  0.2762 -0.1723  0.6858
  429MOL0     C59076   1.058   5.203  10.876  0.1538 -0.4418 -0.0348
  429MOL0     C59077   1.082   5.064  10.940  0.1227 -0.4836 -0.4489
  429MOL0     C59078   0.983   5.025  11.049  0.2742 -0.6392  0.3652
  429MOL0     C59079   0.902   4.896  11.023 -0.0014 -0.0198  0.4426
  429MOL0     C59080   0.856   4.831  11.159  0.5580 -0.4647  0.0178
  429MOL0     N59081   0.962   4.781  11.253 -0.6372 -0.1798  0.1235
  429MOL0     C59082   1.028   4.846  11.356 -1.0873  0.2666  0.3851
  429MOL0     C59083   1.115   4.757  11.408  0.5175  0.4196 -0.2299
  429MOL0     C59084   1.219   4.794  11.522 -0.2135  0.5331 -0.0964
  429MOL0     C59085   1.216   4.704  11.649 -0.2682 -0.2505 -0.0808
  429MOL0     C59086   1.302   4.574  11.622 -0.2975 -0.2691  0.0908
  429MOL0     C59087   1.310   4.470  11.727  0.2937 -0.9256 -1.2982
  429MOL0     O59088   1.382   4.516  11.843  0.1268  0.3186 -0.3621
  429MOL0     C59089   1.348   4.464  11.968 -0.5214 -0.3594  0.3220
  429MOL0     C59090   1.327   4.555  12.068 -0.4126  0.3753  0.2033
  429MOL0     C59091   1.305   4.505  12.195 -0.3333 -0.1440  0.7977
  429MOL0     C59092   1.295   4.619  12.292 -0.2231 -0.4971 -0.2949
  429MOL0     C59093   1.305   4.363  12.223 -0.2091 -0.2395 -0.5700
  429MOL0     C59094   1.276   4.309  12.361  0.1394 -0.1864  0.6348
  429MOL0     O59095   1.185   4.206  12.359 -0.1049  0.3582  0.1568
  429MOL0     C59096   1.186   4.142  12.480 -0.0102 -1.5806  0.2013
  429MOL0     C59097   1.284   4.043  12.509  0.3061 -1.3060 -0.1273
  429MOL0     C59098   1.279   3.960  12.617  0.7007  0.1876 -0.2087
  429MOL0     C59099   1.170   3.971  12.706 -0.4396  1.0550 -0.2757
  429MOL0     O59100   1.163   3.912  12.824 -0.1235  0.9144 -0.2081
  429MOL0     C59101   1.214   3.780  12.829  0.2475  0.1048  0.1245
  429MOL0     C59102   1.153   3.705  12.942  0.0198  0.7723  0.2747
  429MOL0     C59103   1.164   3.763  13.078 -0.0115 -0.3014 -0.6225
  429MOL0     C59104   1.134   3.663  13.185 -0.9155  0.0618 -1.0858
  429MOL0     C59105   1.113   3.727  13.329 -0.5920 -0.7617  0.7982
  429MOL0     C59106   1.115   3.624  13.442  0.2184  0.4652 -0.1257
  429MOL0     C59107   1.095   3.702  13.580  0.0105  0.6387  0.8298
  429MOL0     C59108   1.209   3.810  13.622 -0.2071  0.3790 -0.1050
  429MOL0    Cl59109   1.175   3.880  13.788  0.0393 -0.3623  0.6184
  429MOL0     C59110   1.076   4.072  12.689 -0.2399  0.4298 -0.3682
  429MOL0     C59111   1.080   4.151  12.571 -0.2118 -0.6639 -0.3887
  429MOL0     O59112   1.337   4.356  12.462  0.6289  0.5199  0.0710
  429MOL0     C59113   1.315   4.280  12.111 -0.3591 -0.1851 -1.2257
  429MOL0     C59114   1.336   4.331  11.987 -0.6906 -0.0842 -0.6134
  429MOL0     N59115   1.105   4.638  11.336 -0.3096  0.2170  0.4250
  429MOL0     N59116   1.017   4.659  11.241  0.0652  0.3235  0.3030
  429MOL0     C59117   1.585   5.579  11.111  1.0496 -0.5344  0.4055
  429MOL0     C59118   1.660   5.693  11.111 -0.5401  0.1644  0.5346
  429MOL0     C59119   1.867   6.073  11.191 -0.3624  0.2531  0.1708
  429MOL0     C59120   1.821   6.148  11.082 -0.0358 -0.0452 -0.2991
  429MOL0     C59121   1.890   6.265  11.045  0.1172 -0.1607  0.0601
  429MOL0     C59122   2.007   6.307  11.110  0.9704 -0.7568 -0.5202
  429MOL0     O59123   2.086   6.413  11.071  0.4160 -0.2055  0.5180
  429MOL0     C59124   2.071   6.475  10.943  0.0135  0.3374  0.2335
  429MOL0     C59125   2.175   6.582  10.915 -0.7667  0.2706  1.1619
  429MOL0     C59126   2.271   6.532  10.810  0.7587 -0.3053 -0.7273
  429MOL0     C59127   2.393   6.615  10.798 -0.5402 -0.4629  0.2446
  429MOL0     C59128   2.475   6.574  10.682  0.0745  0.1474  0.8366
  429MOL0     C59129   2.536   6.530  10.581  0.0747  0.5299 -0.4960
  429MOL0     C59130   2.039   6.245  11.227 -0.0282  0.0210  0.8706
  429MOL0     C59131   1.973   6.124  11.267  0.2877 -0.1044 -0.3686
  429MOL0     C59132   2.019   6.060  11.394  0.3691  0.6031  0.0837
  429MOL0     H59133   1.435   5.935  11.154  2.4170  1.8217 -0.7464
  429MOL0     H59134   1.278   5.723  11.137 -0.4396  0.3304 -0.7909
  429MOL0     H59135   1.213   5.553  11.028 -0.6367 -1.6473 -0.1805
  429MOL0     H59136   1.175   5.493  11.181 -2.4985  0.0819 -1.8871
  429MOL0     H59137   1.273   5.318  10.942  1.2898  0.1639  0.0817
  429MOL0     H59138   1.219   5.258  11.094  3.6922  1.2584  0.4509
  429MOL0     H59139   0.983   5.318  11.042 -0.5034 -3.8909 -0.4172
  429MOL0     H59140   1.024   5.418  10.917 -1.5241  0.2807  2.7370
  429MOL0     H59141   0.959   5.207  10.830 -0.4910  1.5250  1.3857
  429MOL0     H59142   1.135   5.226  10.803  0.3932 -0.7093  0.1299
  429MOL0     H59143   1.186   5.059  10.975  1.3876 -0.1694 -3.7853
  429MOL0     H59144   1.084   4.992  10.858 -3.0865 -2.3239  0.9315
  429MOL0     H59145   1.040   5.017  11.143  0.5241  0.0152  0.2706
  429MOL0     H59146   0.914   5.107  11.067  1.1685  0.2493 -0.1848
  429MOL0     H59147   0.971   4.825  10.977  1.2226 -1.3963  4.0150
  429MOL0     H59148   0.809   4.910  10.966  1.3104 -0.5136 -1.9426
  429MOL0     H59149   0.779   4.887  11.213 -0.0028 -3.4721  2.6474
  429MOL0     H59150   0.791   4.749  11.126 -1.8807  2.2563 -2.4898
  429MOL0     H59151   1.024   4.949  11.389 -2.5893  2.2205 -4.8862
  429MOL0     H59152   1.207   4.899  11.551 -2.5542 -0.1317  1.5548
  429MOL0     H59153   1.315   4.786  11.468 -1.6461 -3.6819 -2.4739
  429MOL0     H59154   1.266   4.759  11.730  0.8343 -1.8936  0.4227
  429MOL0     H59155   1.118   4.681  11.690 -1.1425  3.2100  0.1260
  429MOL0     H59156   1.255   4.527  11.535 -0.1806  0.6677 -0.4915
  429MOL0     H59157   1.404   4.599  11.593  0.0028 -1.3996  0.1055
  429MOL0     H59158   1.211   4.442  11.764  0.0231  0.6812 -0.7235
  429MOL0     H59159   1.357   4.381  11.684  1.8015  0.0089 -1.6862
  429MOL0     H59160   1.337   4.661  12.051  4.6806  0.2909  1.2626
  429MOL0     H59161   1.252   4.703  12.237  3.0072 -0.1240 -2.5794
  429MOL0     H59162   1.391   4.660  12.324 -0.3671 -0.4837  0.1237
  429MOL0     H59163   1.227   4.601  12.376  2.2899 -0.3016  1.9394
  429MOL0     H59164   1.359   4.035  12.431 -1.4450 -1.2388 -1.8787
  429MOL0     H59165   1.357   3.887  12.640 -1.5011 -1.9660  0.9639
  429MOL0     H59166   1.199   3.721  12.738 -3.4657 -1.7314  1.7548
  429MOL0     H59167   1.323   3.791  12.837  0.3831 -2.0225  1.8794
  429MOL0     H59168   1.047   3.692  12.915  0.9038 -0.5785 -3.0579
  429MOL0     H59169   1.191   3.603  12.935 -2.9494 -0.3834 -0.5302
  429MOL0     H59170   1.091   3.844  13.094  1.0100  0.7415 -1.0796
  429MOL0     H59171   1.260   3.815  13.088 -0.5752  0.4114  1.4631
  429MOL0     H59172   1.214   3.588  13.196 -0.2110  0.3688 -3.4857
  429MOL0     H59173   1.046   3.609  13.150 -1.4783  0.6659 -0.6052
  429MOL0     H59174   1.196   3.797  13.340 -0.6781 -0.3841 -0.6828
  429MOL0     H59175   1.021   3.785  13.339 -1.3757 -2.1993  2.5954
  429MOL0     H59176   1.214   3.577  13.450  0.3840  1.0581  1.8802
  429MOL0     H59177   1.034   3.552  13.426 -1.1034  1.9693 -0.4384
  429MOL0     H59178   1.107   3.637  13.667  1.2841  2.5310  2.1716
  429MOL0     H59179   0.993   3.739  13.587  0.0369  0.7236  0.7771
  429MOL0     H59180   1.193   3.889  13.548 -3.0248 -1.0522 -1.1812
  429MOL0     H59181   1.308   3.763  13.617 -1.7162 -3.2143  0.5641
  429MOL0     H59182   1.007   4.075  12.773  2.1624  1.0334  1.7286
  429MOL0     H59183   1.002   4.226  12.562  1.8051  1.7065  0.6698
  429MOL0     H59184   1.307   4.173  12.128 -2.3212 -0.1541 -1.7423
  429MOL0     H59185   1.363   4.266  11.905 -0.2935  0.9984 -1.3501
  429MOL0     H59186   1.629   5.480  11.098  2.7851  0.4291 -1.8369
  429MOL0     H59187   1.767   5.683  11.120 -0.2947  3.2418  2.3164
  429MOL0     H59188   1.737   6.123  11.017 -0.7844  1.5738 -0.0248
  429MOL0     H59189   1.867   6.318  10.953  1.3100  1.4403  0.6381
  429MOL0     H59190   2.054   6.411  10.855  1.0899  1.6540 -0.9800
  429MOL0     H59191   1.978   6.532  10.948  0.3143  0.9244 -0.6872
  429MOL0     H59192   2.218   6.612  11.011 -0.8782  1.6106  0.8231
  429MOL0     H59193   2.130   6.675  10.878 -1.2264 -0.0797  0.8372
  429MOL0     H59194   2.292   6.426  10.828 -2.3532 -1.5523 -3.2978
  429MOL0     H59195   2.220   6.531  10.713  0.6807 -1.8932 -0.6949
  429MOL0     H59196   2.443   6.597  10.893 -0.7517 -1.2653  0.2083
  429MOL0     H59197   2.370   6.720  10.775  1.0809 -0.3589 -1.0847
  429MOL0     H59198   2.590   6.485  10.499  1.8468 -1.0890  1.4388
  429MOL0     H59199   2.130   6.273  11.280 -0.4840 -0.8636  2.1636
  429MOL0     H59200   2.113   6.106  11.424 -0.2848  1.7375  0.4661
  429MOL0     H59201   1.945   6.075  11.473  1.2872 -0.2479  1.1273
  429MOL0     H59202   2.027   5.951  11.386 -3.1867  0.1335  1.0313
  430MOL0     O59203   2.099   6.018   4.210 -0.2832 -0.4363 -0.4622
  430MOL0     C59204   2.143   5.959   4.307  0.8975 -0.4414 -0.1523
  430MOL0     O59205   2.263   5.979   4.365  0.6269  0.1537 -0.1700
  430MOL0     C59206   2.331   6.090   4.337  0.3050  0.2220 -1.0716
  430MOL0     C59207   2.471   6.086   4.348 -0.6146 -0.5369 -0.6387
  430MOL0     C59208   2.553   6.197   4.326 -0.5489  0.6331  0.5781
  430MOL0     C59209   2.503   6.319   4.290 -0.0253  0.8065  0.7813
  430MOL0     O59210   2.591   6.421   4.264 -0.0169  0.4745 -0.0342
  430MOL0     C59211   2.583   6.523   4.369 -0.1302  0.1704 -0.1820
  430MOL0     C59212   2.695   6.623   4.358  0.0989 -0.7300 -0.5858
  430MOL0     C59213   2.828   6.558   4.353  0.0878 -0.3104 -0.6119
  430MOL0     C59214   2.959   6.657   4.376  0.5328  0.7194 -0.4079
  430MOL0     C59215   3.100   6.598   4.361 -1.2923 -0.6943  0.8855
  430MOL0     C59216   3.149   6.576   4.223 -0.1154  0.1850 -0.3053
  430MOL0     C59217   3.293   6.520   4.205  0.8372 -0.1510  0.4416
  430MOL0     C59218   3.293   6.373   4.148 -0.0187 -0.1791 -0.8304
  430MOL0     N59219   3.432   6.321   4.122 -0.0497 -1.0957 -0.2924
  430MOL0     C59220   3.539   6.402   4.114  0.0913 -0.2775  0.0393
  430MOL0     C59221   3.640   6.318   4.075  0.0051  0.3320 -0.4257
  430MOL0     C59222   3.778   6.353   4.051 -0.6222  0.3447  0.3509
  430MOL0     C59223   3.859   6.226   4.010 -0.2806 -0.4793  0.1932
  430MOL0     C59224   3.936   6.163   4.131 -0.2454  0.2883  0.4880
  430MOL0     C59225   3.846   6.070   4.203 -0.6726 -0.4324  0.0644
  430MOL0     O59226   3.929   5.999   4.299 -0.2432 -0.1546  0.2186
  430MOL0     C59227   3.888   5.991   4.430  1.0435 -0.2539  0.0345
  430MOL0     C59228   3.983   5.974   4.530 -0.7857 -0.6505 -0.9112
  430MOL0     C59229   3.952   5.984   4.669 -1.2280 -0.2927  0.1014
  430MOL0     C59230   4.073   5.978   4.766 -0.2212 -1.0997 -0.3087
  430MOL0     C59231   3.816   6.002   4.704  0.1047 -0.6919 -0.8443
  430MOL0     C59232   3.777   6.012   4.852 -0.4263  0.1006  0.0999
  430MOL0     O59233   3.869   6.029   4.950  0.1562 -0.0501  0.1863
  430MOL0     C59234   3.821   6.044   5.071 -0.5965 -0.2434 -0.1807
  430MOL0     C59235   3.792   5.941   5.162  0.4161 -0.1901  0.1408
  430MOL0     C59236   3.742   5.966   5.290  0.2808 -0.5416 -0.0021
  430MOL0     C59237   3.725   6.099   5.335  0.0891 -0.7228  0.0593
  430MOL0     O59238   3.684   6.114   5.466  0.8689 -0.4586 -0.2044
  430MOL0     C59239   3.636   6.237   5.517  0.1327  0.6982  0.4651
  430MOL0     C59240   3.544   6.216   5.636  0.2853 -0.0196  0.1537
  430MOL0     C59241   3.606   6.149   5.756 -0.0086 -0.8633  1.0131
  430MOL0     C59242   3.551   6.210   5.886  0.1261 -0.0776  0.4183
  430MOL0     C59243   3.404   6.190   5.892 -0.7315 -0.0420  0.2124
  430MOL0     C59244   3.354   6.176   6.039 -0.1142 -0.9487 -0.4376
  430MOL0     C59245   3.392   6.304   6.127 -0.3758  0.3082 -0.0777
  430MOL0     C59246   3.337   6.300   6.271 -0.1101  0.2379 -0.0090
  430MOL0    Cl59247   3.355   6.450   6.364 -0.3421 -0.3467  0.3219
  430MOL0     C59248   3.756   6.208   5.244  0.5720 -0.3840 -0.4600
  430MOL0     C59249   3.805   6.179   5.118  0.1666  0.5670 -0.2124
  430MOL0     O59250   3.656   6.006   4.859  0.8679 -0.1789 -0.5319
  430MOL0     C59251   3.717   6.000   4.605  0.2475  0.8821  0.0997
  430MOL0     C59252   3.755   5.997   4.474 -0.0113 -0.3871 -0.0385
  430MOL0     N59253   3.589   6.188   4.082  0.0751 -0.9264 -0.0395
  430MOL0     N59254   3.461   6.196   4.095  1.0553 -0.4756  0.8198
  430MOL0     C59255   2.362   6.331   4.273  0.6002  0.4772  1.0787
  430MOL0     C59256   2.282   6.214   4.300  0.4345  0.2419  0.1090
  430MOL0     C59257   2.071   5.834   4.342 -0.4561  0.8155 -0.3414
  430MOL0     C59258   2.161   5.733   4.387  0.4765  0.0923  0.3819
  430MOL0     C59259   2.104   5.608   4.417 -0.3450 -0.9700 -0.8821
  430MOL0     C59260   1.974   5.575   4.380 -0.0200 -0.3710 -0.9160
  430MOL0     O59261   1.927   5.447   4.397 -0.0342  0.7936  0.4053
  430MOL0     C59262   1.907   5.368   4.276  0.3067 -0.1906 -0.0612
  430MOL0     C59263   1.856   5.231   4.321  0.3392  0.0669  0.0733
  430MOL0     C59264   1.713   5.251   4.354 -0.5250 -1.1419  0.6725
  430MOL0     C59265   1.625   5.228   4.230 -0.9158  0.0210 -0.6367
  430MOL0     C59266   1.490   5.274   4.260 -0.2057 -0.4643  0.1290
  430MOL0     C59267   1.372   5.291   4.283 -0.3693  0.9502  0.0572
  430MOL0     C59268   1.887   5.675   4.324 -0.2392 -0.0326 -0.3497
  430MOL0     C59269   1.934   5.809   4.315  0.3554  0.6817 -0.5184
  430MOL0     C59270   1.825   5.919   4.301 -1.4761  0.5662  0.2272
  430MOL0     H59271   2.517   5.990   4.371  1.8139  0.1155 -2.4512
  430MOL0     H59272   2.660   6.176   4.331 -1.3122 -4.9233  0.1604
  430MOL0     H59273   2.592   6.485   4.472 -0.4096 -2.2419 -0.9780
  430MOL0     H59274   2.485   6.571   4.369 -1.2076 -1.8915 -1.7950
  430MOL0     H59275   2.677   6.690   4.273 -2.0458  1.2782  1.3051
  430MOL0     H59276   2.696   6.685   4.448  0.9690  1.2376 -1.8670
  430MOL0     H59277   2.837   6.489   4.437 -0.4133 -1.4575 -1.4639
  430MOL0     H59278   2.841   6.504   4.258  0.4944 -1.4593  0.0715
  430MOL0     H59279   2.942   6.742   4.310 -2.0674  0.1985 -0.5331
  430MOL0     H59280   2.951   6.692   4.480  0.9579  0.3338 -0.2415
  430MOL0     H59281   3.113   6.509   4.423 -2.4198 -1.5733 -0.1015
  430MOL0     H59282   3.168   6.659   4.421  1.0309  0.3509 -2.5278
  430MOL0     H59283   3.075   6.506   4.183 -1.4842  1.2617  0.2519
  430MOL0     H59284   3.155   6.671   4.168  2.7852  0.8411  0.9362
  430MOL0     H59285   3.344   6.530   4.301  0.2359 -0.6011  0.8108
  430MOL0     H59286   3.347   6.591   4.142 -1.2112  1.2549  0.1633
  430MOL0     H59287   3.237   6.304   4.212 -0.8829  0.7245 -0.5880
  430MOL0     H59288   3.240   6.380   4.052  0.7266 -1.8808 -1.4182
  430MOL0     H59289   3.546   6.509   4.129  2.7006 -0.4789  0.7519
  430MOL0     H59290   3.820   6.414   4.131  0.7664 -0.2849  0.1449
  430MOL0     H59291   3.783   6.419   3.964  0.6249 -1.0665 -0.7032
  430MOL0     H59292   3.795   6.145   3.974 -1.0041 -0.2346  0.8902
  430MOL0     H59293   3.936   6.255   3.938  1.7984 -4.5699  0.5117
  430MOL0     H59294   4.010   6.090   4.095  0.3132  0.0816  1.9941
  430MOL0     H59295   4.000   6.222   4.197 -0.2877 -2.5490  3.2654
  430MOL0     H59296   3.779   6.146   4.243  3.1710  2.9459  0.7960
  430MOL0     H59297   3.788   6.005   4.137 -1.3906  0.0961  0.1621
  430MOL0     H59298   4.086   5.967   4.499 -0.3337  1.8790 -0.2615
  430MOL0     H59299   4.081   6.076   4.813  1.7285 -1.8045  0.9357
  430MOL0     H59300   4.166   5.958   4.713 -1.0288  1.1563 -2.7814
  430MOL0     H59301   4.068   5.902   4.845 -0.7150 -2.8865 -1.9604
  430MOL0     H59302   3.815   5.841   5.130  1.8910 -0.0258  0.6270
  430MOL0     H59303   3.717   5.884   5.356 -0.6621 -0.5240 -0.3161
  430MOL0     H59304   3.716   6.302   5.554 -0.0843 -0.2040  2.7126
  430MOL0     H59305   3.581   6.288   5.439 -0.8384 -0.8294  0.0998
  430MOL0     H59306   3.498   6.312   5.660 -0.2575  0.2184 -1.6669
  430MOL0     H59307   3.467   6.148   5.600  1.2223 -1.3587  0.5960
  430MOL0     H59308   3.714   6.166   5.764  0.1547 -0.9788 -0.6899
  430MOL0     H59309   3.582   6.043   5.751  3.2472 -1.7969  2.5172
  430MOL0     H59310   3.585   6.314   5.886 -0.9824  0.5894 -5.1517
  430MOL0     H59311   3.603   6.173   5.975 -0.6483 -1.2987  0.3922
  430MOL0     H59312   3.361   6.282   5.851  0.6207  1.2886  1.6527
  430MOL0     H59313   3.367   6.104   5.835  0.4940 -0.4706  0.0498
  430MOL0     H59314   3.394   6.083   6.082  2.4508  0.0101 -0.5485
  430MOL0     H59315   3.246   6.193   6.034 -0.1124  3.3136  4.7175
  430MOL0     H59316   3.363   6.398   6.078 -0.2055 -0.1715 -1.1248
  430MOL0     H59317   3.501   6.306   6.139 -0.5500  2.2897  1.7718
  430MOL0     H59318   3.407   6.235   6.322 -2.0103  1.5315  4.8273
  430MOL0     H59319   3.234   6.264   6.279 -0.6346  1.4018 -1.0966
  430MOL0     H59320   3.741   6.313   5.266  0.9726 -0.6338  1.1549
  430MOL0     H59321   3.835   6.255   5.047  0.8716 -0.1928 -0.7407
  430MOL0     H59322   3.612   5.996   4.631  0.6541  0.5316  1.8159
  430MOL0     H59323   3.682   6.004   4.394  1.0369  0.8977 -0.9278
  430MOL0     H59324   2.317   6.424   4.238 -2.4719 -1.5659 -0.8388
  430MOL0     H59325   2.176   6.239   4.295  0.0661 -0.8515  1.8759
  430MOL0     H59326   2.268   5.750   4.400  0.7269 -0.7583 -0.4418
  430MOL0     H59327   2.168   5.524   4.444 -0.0561 -0.5179 -0.1292
  430MOL0     H59328   1.838   5.431   4.218 -2.7114 -0.8048  2.6229
  430MOL0     H59329   2.002   5.349   4.224 -0.3082 -1.0020 -0.9268
  430MOL0     H59330   1.912   5.197   4.409  0.2281  0.7569  0.4127
  430MOL0     H59331   1.869   5.159   4.240  1.5752 -0.1953  0.4870
  430MOL0     H59332   1.685   5.181   4.434 -1.9427 -0.3764  0.8871
  430MOL0     H59333   1.689   5.347   4.401 -0.9974 -2.3300  3.0335
  430MOL0     H59334   1.635   5.121   4.211  1.9446 -0.0457  0.7450
  430MOL0     H59335   1.654   5.287   4.143 -0.0434 -0.1970 -0.4978
  430MOL0     H59336   1.270   5.310   4.308 -0.0453  2.8495  0.1171
  430MOL0     H59337   1.783   5.648   4.306  0.0302  0.7629 -3.5991
  430MOL0     H59338   1.869   6.006   4.351  0.8180  0.1300 -0.8830
  430MOL0     H59339   1.807   5.940   4.195  1.1622  2.2261  0.0227
  430MOL0     H59340   1.731   5.896   4.351 -1.5415  0.8558  0.2363
  431MOL0     O59341   4.660   0.673   2.385 -0.0608  0.8446  1.1608
  431MOL0     C59342   4.633   0.561   2.415 -1.4675  0.1919  0.1866
  431MOL0     O59343   4.520   0.498   2.380  0.0874 -0.1869  0.8183
  431MOL0     C59344   4.425   0.560   2.298 -0.8485  1.2312  0.2275
  431MOL0     C59345   4.462   0.620   2.169 -0.2477 -0.0824 -0.0539
  431MOL0     C59346   4.369   0.698   2.084  0.2333  0.1761 -0.4715
  431MOL0     C59347   4.233   0.700   2.123 -0.1246  0.1230 -0.6707
  431MOL0     O59348   4.135   0.773   2.050 -0.0901 -0.8163  0.2373
  431MOL0     C59349   4.162   0.879   1.953  1.3016 -0.0537 -0.7928
  431MOL0     C59350   4.075   0.858   1.837 -0.3524 -0.1678  0.1151
  431MOL0     C59351   3.924   0.892   1.865  0.1534 -0.3516  0.2444
  431MOL0     C59352   3.894   1.036   1.922  0.3076  0.7700  0.7344
  431MOL0     C59353   3.780   1.107   1.849 -0.0820 -1.1468 -0.0301
  431MOL0     C59354   3.741   1.235   1.929 -0.3199  1.1005 -0.2793
  431MOL0     C59355   3.592   1.279   1.919 -0.2135  0.4015 -0.0500
  431MOL0     C59356   3.569   1.327   1.769  0.6214 -0.4090  0.5099
  431MOL0     N59357   3.445   1.406   1.756 -0.4062  0.7301  0.1063
  431MOL0     C59358   3.439   1.539   1.782 -0.2179 -0.2306  0.1669
  431MOL0     C59359   3.308   1.558   1.805  0.9958  0.2228 -0.3563
  431MOL0     C59360   3.251   1.692   1.849 -0.9896 -0.3909 -0.4909
  431MOL0     C59361   3.179   1.687   1.984 -1.1416  0.6728 -0.6106
  431MOL0     C59362   3.039   1.635   1.990  0.5108 -0.6158 -0.1472
  431MOL0     C59363   2.975   1.603   2.133  0.9226 -1.1601  0.8610
  431MOL0     O59364   2.855   1.678   2.164 -0.0694  0.2545  0.1560
  431MOL0     C59365   2.734   1.621   2.126  0.1235  0.1021  0.0240
  431MOL0     C59366   2.709   1.501   2.061 -0.0766 -0.1749 -0.2357
  431MOL0     C59367   2.586   1.450   2.040 -0.2493 -0.1871  0.0853
  431MOL0     C59368   2.584   1.313   1.981  0.3927 -0.0075 -0.7020
  431MOL0     C59369   2.472   1.530   2.083 -0.4157 -0.2962 -0.4414
  431MOL0     C59370   2.330   1.487   2.067  0.1877  0.2514  0.6203
  431MOL0     O59371   2.307   1.385   1.973  0.4273 -0.3942 -0.0076
  431MOL0     C59372   2.194   1.309   1.977 -0.1607  0.6404 -0.5120
  431MOL0     C59373   2.218   1.170   1.959 -0.1017 -0.1926 -0.3799
  431MOL0     C59374   2.115   1.082   1.944  0.4919  0.4836  0.2460
  431MOL0     C59375   1.986   1.132   1.967 -0.4127 -0.1290 -0.2017
  431MOL0     O59376   1.885   1.045   1.967 -0.3994  0.4808 -0.0697
  431MOL0     C59377   1.878   0.932   2.060  0.0521 -0.6172  0.4767
  431MOL0     C59378   1.732   0.929   2.115  0.5448 -0.4187 -0.4490
  431MOL0     C59379   1.707   1.064   2.180 -0.8365  0.3629  0.0203
  431MOL0     C59380   1.576   1.064   2.266 -0.5079 -0.6568 -0.8373
  431MOL0     C59381   1.450   1.061   2.177  0.2684 -0.1653 -0.4118
  431MOL0     C59382   1.313   1.052   2.248  0.5744  0.3165 -0.8954
  431MOL0     C59383   1.287   1.188   2.322  0.3494 -0.0093 -0.2863
  431MOL0     C59384   1.169   1.186   2.416 -0.7384 -0.2435  0.9404
  431MOL0    Cl59385   1.022   1.130   2.320 -0.0701 -0.5846 -0.2382
  431MOL0     C59386   1.957   1.269   1.984  0.2178  0.0335 -0.9341
  431MOL0     C59387   2.065   1.357   1.986  1.0059 -0.0172 -0.0417
  431MOL0     O59388   2.240   1.530   2.142 -0.6671  0.2848  0.0892
  431MOL0     C59389   2.495   1.653   2.146  0.0253 -0.1295 -0.8607
  431MOL0     C59390   2.624   1.701   2.160  0.2929  0.2571 -0.3057
  431MOL0     N59391   3.226   1.452   1.765 -0.4655 -0.2260 -0.2727
  431MOL0     N59392   3.314   1.357   1.747 -0.8163 -0.7113 -0.2738
  431MOL0     C59393   4.197   0.616   2.230 -0.5180  0.1542 -0.2067
  431MOL0     C59394   4.289   0.567   2.330  0.3003 -0.6655  0.1023
  431MOL0     C59395   4.724   0.492   2.499 -1.0418 -0.4889 -0.5204
  431MOL0     C59396   4.677   0.379   2.567  0.2793  0.0340  0.1279
  431MOL0     C59397   4.756   0.316   2.661 -0.2625  0.1129  0.0214
  431MOL0     C59398   4.890   0.360   2.686  0.4521  0.1268  0.7719
  431MOL0     O59399   4.992   0.304   2.747 -0.5017  0.2316 -0.1782
  431MOL0     C59400   4.999   0.348   2.889 -0.1615 -0.1064 -0.0485
  431MOL0     C59401   5.121   0.272   2.959  0.4324  0.9585 -0.7171
  431MOL0     C59402   5.179   0.380   3.064  0.3623 -0.1690  0.2214
  431MOL0     C59403   5.243   0.306   3.181 -0.4164  0.2053  0.2503
  431MOL0     C59404   5.265   0.396   3.296  0.0607  0.1262 -1.0811
  431MOL0     C59405   5.276   0.481   3.386  1.0070  0.3015 -0.0704
  431MOL0     C59406   4.934   0.476   2.622  0.5270 -0.7360  0.5099
  431MOL0     C59407   4.852   0.537   2.526 -1.2233  1.0429 -0.1990
  431MOL0     C59408   4.917   0.651   2.452 -0.2551 -0.1526 -0.6839
  431MOL0     H59409   4.565   0.621   2.137 -0.3289  0.0555 -0.3201
  431MOL0     H59410   4.401   0.749   1.994 -0.9777 -0.4030 -1.2473
  431MOL0     H59411   4.267   0.882   1.923  0.7862  2.4548 -2.6760
  431MOL0     H59412   4.136   0.974   1.999 -0.8295 -1.5949  1.4488
  431MOL0     H59413   4.107   0.920   1.754 -0.5480 -0.9500 -0.5621
  431MOL0     H59414   4.077   0.751   1.814 -3.0810 -0.3588  0.3852
  431MOL0     H59415   3.861   0.870   1.778 -2.8417 -0.0073  2.1819
  431MOL0     H59416   3.884   0.822   1.939 -1.2909 -1.0290 -1.1164
  431MOL0     H59417   3.862   1.024   2.025 -0.9866  1.6924  0.4665
  431MOL0     H59418   3.978   1.107   1.920 -0.6597  1.9575  1.3601
  431MOL0     H59419   3.698   1.035   1.847  0.6778 -2.0067 -0.9424
  431MOL0     H59420   3.807   1.129   1.745  1.8180  1.9301  0.9711
  431MOL0     H59421   3.757   1.214   2.035 -0.4725  0.2678 -0.4112
  431MOL0     H59422   3.813   1.316   1.912  0.8896 -0.2676 -2.1578
  431MOL0     H59423   3.593   1.362   1.991  2.2141 -0.0111  0.4891
  431MOL0     H59424   3.528   1.196   1.952  0.8042  0.2195  1.5912
  431MOL0     H59425   3.647   1.402   1.753 -1.4904  2.1514  1.3301
  431MOL0     H59426   3.577   1.254   1.689  2.3384  1.5179 -1.1895
  431MOL0     H59427   3.525   1.605   1.788  1.0306 -1.8072  0.3315
  431MOL0     H59428   3.177   1.732   1.780 -1.3796  3.1854  1.7230
  431MOL0     H59429   3.338   1.758   1.854  0.1929 -1.3306 -4.9817
  431MOL0     H59430   3.239   1.633   2.057 -1.6667  0.3445 -0.4138
  431MOL0     H59431   3.176   1.792   2.017 -0.7521  0.8131 -1.0146
  431MOL0     H59432   2.968   1.699   1.938  2.6981  1.8413 -0.3090
  431MOL0     H59433   3.050   1.534   1.948  0.9436 -1.6594  2.2886
  431MOL0     H59434   2.970   1.494   2.144  2.5525 -1.2193  1.2496
  431MOL0     H59435   3.046   1.652   2.200 -3.8405  2.5953  3.7896
  431MOL0     H59436   2.801   1.463   2.018  0.3993  1.3988 -0.6780
  431MOL0     H59437   2.545   1.321   1.879  0.1579 -1.4203 -0.7540
  431MOL0     H59438   2.526   1.240   2.039  1.3918  0.2538  0.6920
  431MOL0     H59439   2.686   1.275   1.991  0.6037  1.1158  3.7496
  431MOL0     H59440   2.320   1.134   1.951 -0.4487 -0.8807 -2.2246
  431MOL0     H59441   2.132   0.975   1.944 -0.0114  0.3612  2.0494
  431MOL0     H59442   1.898   0.841   2.002  1.3946  0.2864 -0.5387
  431MOL0     H59443   1.952   0.940   2.141 -0.2010 -1.1455  0.7638
  431MOL0     H59444   1.665   0.902   2.032  1.9677 -1.6428 -1.2404
  431MOL0     H59445   1.729   0.853   2.193  0.3682 -1.5810 -1.5479
  431MOL0     H59446   1.704   1.148   2.110  0.2538  0.2917 -0.1374
  431MOL0     H59447   1.790   1.091   2.247 -0.6078 -0.4332  0.0601
  431MOL0     H59448   1.584   1.153   2.330 -1.4924 -0.0748 -1.5060
  431MOL0     H59449   1.572   0.973   2.328 -0.4146  0.3330  0.6827
  431MOL0     H59450   1.442   1.145   2.108 -1.8612  0.2534  0.2543
  431MOL0     H59451   1.460   0.966   2.123  0.8863  0.4671 -1.4256
  431MOL0     H59452   1.323   0.972   2.322  3.0657  1.3462  0.0087
  431MOL0     H59453   1.232   1.025   2.180  0.4881 -0.7508 -0.3802
  431MOL0     H59454   1.259   1.268   2.253 -0.2164  0.1185  0.0857
  431MOL0     H59455   1.376   1.208   2.381  1.5928 -1.2864 -1.6416
  431MOL0     H59456   1.149   1.286   2.456  2.2546  0.1313  1.7245
  431MOL0     H59457   1.200   1.121   2.498  0.2397 -0.0927  0.7065
  431MOL0     H59458   1.854   1.304   1.995 -0.5869 -2.5722  0.9280
  431MOL0     H59459   2.053   1.465   1.980 -0.8297 -0.2506 -2.0451
  431MOL0     H59460   2.413   1.713   2.184 -1.3148 -1.7176 -1.1179
  431MOL0     H59461   2.645   1.802   2.193 -0.0431  1.3381 -3.1003
  431MOL0     H59462   4.090   0.614   2.243 -0.4718 -1.8202  0.1345
  431MOL0     H59463   4.253   0.520   2.421  0.8626  0.8137  1.1116
  431MOL0     H59464   4.573   0.347   2.567  0.9348 -2.3332  0.5935
  431MOL0     H59465   4.735   0.221   2.709  1.8890  0.4362  1.7958
  431MOL0     H59466   5.024   0.454   2.896 -1.1785  0.0513  1.8678
  431MOL0     H59467   4.903   0.346   2.942  0.7490 -0.1327  1.6623
  431MOL0     H59468   5.193   0.226   2.890 -3.0219 -3.5938 -1.7914
  431MOL0     H59469   5.079   0.182   3.005 -1.8155  1.1576 -2.2307
  431MOL0     H59470   5.247   0.452   3.016 -0.4122 -0.6182 -1.6774
  431MOL0     H59471   5.104   0.447   3.108 -1.5928  0.3115 -3.4316
  431MOL0     H59472   5.337   0.262   3.147  0.2979  2.5077 -1.0008
  431MOL0     H59473   5.178   0.222   3.208  0.3356 -0.5184 -0.1638
  431MOL0     H59474   5.278   0.546   3.471 -0.5894  0.2842  0.0079
  431MOL0     H59475   5.033   0.514   2.644 -0.7919  1.6834  2.9459
  431MOL0     H59476   4.890   0.748   2.494  0.4858  0.5545 -1.7526
  431MOL0     H59477   5.026   0.641   2.460 -0.3555  0.4821  4.0705
  431MOL0     H59478   4.884   0.648   2.347 -3.8898  4.6418 -0.0137
  432MOL0     O59479   1.428  10.758   2.861  0.3865  0.2392  0.3669
  432MOL0     C59480   1.344  10.810   2.785  1.0125 -0.1900 -0.6778
  432MOL0     O59481   1.374  10.908   2.696  0.0142  0.6293 -0.0363
  432MOL0     C59482   1.501  10.963   2.694  0.0592  0.7283 -0.0072
  432MOL0     C59483   1.557  11.036   2.800 -0.3900  0.6329  0.1924
  432MOL0     C59484   1.686  11.088   2.789 -0.0990  0.0632  0.7448
  432MOL0     C59485   1.755  11.073   2.667  0.7816  0.0128 -0.7362
  432MOL0     O59486   1.872  11.133   2.633 -0.4089  0.0667 -0.5137
  432MOL0     C59487   1.965  11.149   2.744  0.6933  0.0848  1.5351
  432MOL0     C59488   2.104  11.173   2.662  1.0719  0.0329 -0.0210
  432MOL0     C59489   2.235  11.158   2.748  0.0994 -0.2936  0.8532
  432MOL0     C59490   2.360  11.223   2.689 -0.5040 -0.3850  0.3958
  432MOL0     C59491   2.364  11.375   2.718 -0.3169 -0.4162 -0.2762
  432MOL0     C59492   2.508  11.426   2.719 -0.3855  0.1442  0.2950
  432MOL0     C59493   2.514  11.571   2.750 -0.2337 -0.5050 -0.5118
  432MOL0     C59494   2.468  11.618   2.888 -0.1756  0.1918  0.1812
  432MOL0     N59495   2.496  11.760   2.912  0.2664 -0.8729 -0.3713
  432MOL0     C59496   2.606  11.832   2.870  0.2764 -0.4830 -0.4220
  432MOL0     C59497   2.579  11.959   2.909  0.4471  0.5528  0.6415
  432MOL0     C59498   2.664  12.087   2.877 -0.3853  0.5027  1.3039
  432MOL0     C59499   2.747  12.123   3.000 -0.4198  0.0232  0.5505
  432MOL0     C59500   2.865  12.030   3.021 -0.0180  0.6442 -0.1608
  432MOL0     C59501   2.961  12.039   2.907 -0.5858  0.1425 -0.8948
  432MOL0     O59502   3.088  12.006   2.973 -0.3251 -0.5558  0.3246
  432MOL0     C59503   3.203  11.980   2.899  0.5314 -0.3882 -0.5645
  432MOL0     C59504   3.221  11.979   2.760 -0.1900 -0.7581 -0.0878
  432MOL0     C59505   3.342  11.935   2.693  0.6877  0.1800 -0.4550
  432MOL0     C59506   3.345  11.928   2.549 -0.8342  0.2121  0.9150
  432MOL0     C59507   3.451  11.905   2.770  0.0200  0.4467 -1.3717
  432MOL0     C59508   3.593  11.874   2.730  0.6529  0.3740  0.1882
  432MOL0     O59509   3.687  11.862   2.827 -0.2997  0.0624  0.9741
  432MOL0     C59510   3.796  11.773   2.835 -0.2491  0.3817  0.3481
  432MOL0     C59511   3.785  11.636   2.791 -0.4082  0.0690 -0.5866
  432MOL0     C59512   3.889  11.548   2.814  0.0797 -0.2882  0.0743
  432MOL0     C59513   4.012  11.591   2.867 -0.0867  0.7512 -0.5896
  432MOL0     O59514   4.105  11.492   2.892  0.3160  0.5064  0.4201
  432MOL0     C59515   4.234  11.513   2.949  0.2758 -0.0884 -0.1250
  432MOL0     C59516   4.332  11.572   2.834  1.6898  0.0689  0.2375
  432MOL0     C59517   4.480  11.531   2.836  0.4218 -0.4065  0.5948
  432MOL0     C59518   4.540  11.535   2.973  0.8947 -0.6224  0.1940
  432MOL0     C59519   4.685  11.510   2.976  0.0298 -0.1094  0.0892
  432MOL0     C59520   4.722  11.451   3.117  0.3266 -0.1559  0.1430
  432MOL0     C59521   4.875  11.443   3.120 -0.0137  0.8914 -1.0399
  432MOL0     C59522   4.916  11.390   3.258 -0.4433 -0.4390  0.7230
  432MOL0    Cl59523   5.093  11.383   3.256 -0.2383  0.0859 -0.0129
  432MOL0     C59524   4.022  11.723   2.903 -0.4647  0.6760 -0.1907
  432MOL0     C59525   3.926  11.819   2.877  0.3365 -0.3844  0.5162
  432MOL0     O59526   3.623  11.869   2.616 -0.0394  0.9704  0.4217
  432MOL0     C59527   3.431  11.904   2.914 -0.5524 -1.7327  0.6580
  432MOL0     C59528   3.313  11.937   2.972 -0.5110  0.3423 -0.1541
  432MOL0     N59529   2.452  11.964   2.972 -0.0148 -0.0833 -0.5281
  432MOL0     N59530   2.421  11.839   2.993  0.2397 -0.1126  0.9061
  432MOL0     C59531   1.696  10.999   2.561  0.9008  0.4538  0.2003
  432MOL0     C59532   1.578  10.935   2.583 -0.6211  0.1603  0.8741
  432MOL0     C59533   1.205  10.758   2.802  0.2454  0.2897 -0.0621
  432MOL0     C59534   1.192  10.623   2.832 -0.7133  0.9516  0.4766
  432MOL0     C59535   1.066  10.563   2.854 -0.9872  0.3899  0.2439
  432MOL0     C59536   0.947  10.633   2.855 -0.0069 -0.4390 -0.3817
  432MOL0     O59537   0.831  10.571   2.887 -0.0087 -0.4031 -0.2008
  432MOL0     C59538   0.702  10.638   2.895  0.1777  0.0938 -0.5745
  432MOL0     C59539   0.683  10.728   3.022  0.1232  0.5866  0.2702
  432MOL0     C59540   0.715  10.651   3.149 -0.7578  0.3749  0.4641
  432MOL0     C59541   0.701  10.737   3.275 -0.3731 -0.6115 -0.8955
  432MOL0     C59542   0.701  10.637   3.388  0.2391  0.3789 -0.1582
  432MOL0     C59543   0.695  10.561   3.477 -0.0209 -0.5775  0.4388
  432MOL0     C59544   0.963  10.767   2.827  0.4202 -0.1242 -0.3572
  432MOL0     C59545   1.083  10.833   2.805 -0.4207 -0.6085 -0.2732
  432MOL0     C59546   1.078  10.985   2.817 -0.0198 -0.0581 -1.0981
  432MOL0     H59547   1.508  11.027   2.896 -0.0300 -0.4473  0.2846
  432MOL0     H59548   1.731  11.125   2.880  1.0040 -1.0143  0.6651
  432MOL0     H59549   1.987  11.050   2.784  0.6605 -1.0663 -1.0923
  432MOL0     H59550   1.937  11.233   2.808 -0.3658  2.6557 -1.9418
  432MOL0     H59551   2.105  11.108   2.574 -4.2932  2.6289 -2.4491
  432MOL0     H59552   2.100  11.272   2.615 -0.2949 -1.3823 -3.1748
  432MOL0     H59553   2.225  11.180   2.855 -1.9785  0.6776  0.5079
  432MOL0     H59554   2.256  11.051   2.753  1.1506 -0.2702 -1.6004
  432MOL0     H59555   2.445  11.178   2.742 -3.6113 -3.3155  3.3342
  432MOL0     H59556   2.371  11.202   2.582  0.2943  0.9400  0.1902
  432MOL0     H59557   2.322  11.400   2.816  0.7059 -0.7134  0.2569
  432MOL0     H59558   2.303  11.430   2.646  0.2573 -0.8549 -1.1078
  432MOL0     H59559   2.576  11.363   2.778  0.1839 -2.2144 -2.6200
  432MOL0     H59560   2.542  11.427   2.615  1.0639  3.0652  0.6926
  432MOL0     H59561   2.460  11.628   2.675 -1.9015  0.3612  1.2635
  432MOL0     H59562   2.622  11.588   2.743  0.2450 -3.5607 -2.6994
  432MOL0     H59563   2.361  11.600   2.904 -0.2357  1.8133  1.8911
  432MOL0     H59564   2.525  11.565   2.965 -0.9913 -1.0538 -0.0396
  432MOL0     H59565   2.690  11.791   2.814  0.7247  1.5059 -1.2707
  432MOL0     H59566   2.591  12.164   2.850 -1.2995 -1.3437 -2.2120
  432MOL0     H59567   2.716  12.071   2.782 -1.7661  0.3289  0.5424
  432MOL0     H59568   2.778  12.228   3.003 -1.9728  0.4895  1.1009
  432MOL0     H59569   2.674  12.122   3.081 -1.6615 -4.2037 -0.3587
  432MOL0     H59570   2.918  12.068   3.108  1.6659 -1.4585 -0.1964
  432MOL0     H59571   2.830  11.929   3.046  1.5387  0.0431 -0.3050
  432MOL0     H59572   2.936  11.979   2.819 -0.7347  1.4549 -1.7808
  432MOL0     H59573   2.961  12.142   2.870 -1.8570  0.4419 -0.1418
  432MOL0     H59574   3.140  12.012   2.696 -1.7321 -2.2897  0.9475
  432MOL0     H59575   3.387  11.830   2.524  0.1117  0.8102  0.0585
  432MOL0     H59576   3.414  12.001   2.507 -2.8938 -0.2364 -3.9889
  432MOL0     H59577   3.248  11.941   2.499 -1.1398 -0.6288  1.2544
  432MOL0     H59578   3.694  11.588   2.757  0.8524 -1.1388 -2.4178
  432MOL0     H59579   3.865  11.442   2.809 -0.1349 -0.2270 -0.2042
  432MOL0     H59580   4.221  11.581   3.034 -3.0778 -0.9336  0.1571
  432MOL0     H59581   4.269  11.415   2.983  0.8354 -0.0832 -0.6520
  432MOL0     H59582   4.286  11.544   2.739  1.2541  0.7356  0.2478
  432MOL0     H59583   4.331  11.681   2.829  3.2179  0.0399 -1.3962
  432MOL0     H59584   4.536  11.603   2.776 -1.4238 -0.3013 -1.1028
  432MOL0     H59585   4.479  11.434   2.785 -5.4426  0.6328 -2.0784
  432MOL0     H59586   4.502  11.458   3.040  3.2111 -2.8995 -0.9587
  432MOL0     H59587   4.525  11.636   3.012 -1.3753  0.4557 -3.0211
  432MOL0     H59588   4.724  11.444   2.899  1.5404 -2.2694  2.5093
  432MOL0     H59589   4.739  11.604   2.962  3.3813 -1.9749 -0.5447
  432MOL0     H59590   4.670  11.356   3.132 -0.4175  0.0185 -1.2293
  432MOL0     H59591   4.679  11.519   3.191  0.9431  0.7328 -0.3021
  432MOL0     H59592   4.926  11.536   3.095  0.9047 -0.2950 -4.0292
  432MOL0     H59593   4.907  11.360   3.056 -0.8470  1.4710 -2.2495
  432MOL0     H59594   4.855  11.306   3.293 -1.4484  0.3584  0.9484
  432MOL0     H59595   4.895  11.460   3.339  0.2168 -2.5823  2.8615
  432MOL0     H59596   4.116  11.751   2.950  0.1674 -1.6269  0.0155
  432MOL0     H59597   3.942  11.925   2.895 -0.1197 -0.1311 -0.5371
  432MOL0     H59598   3.509  11.891   2.987 -0.7743  1.8517  1.7438
  432MOL0     H59599   3.311  11.936   3.080 -0.3361  0.8624 -0.1469
  432MOL0     H59600   1.756  10.980   2.473  1.1559  2.0796 -0.0104
  432MOL0     H59601   1.551  10.870   2.500  1.4607 -0.3653  0.5509
  432MOL0     H59602   1.282  10.564   2.847  0.9612  3.1031 -0.5405
  432MOL0     H59603   1.074  10.456   2.872  0.3101  0.7753  2.2015
  432MOL0     H59604   0.690  10.704   2.809  0.3642  1.1228  0.1706
  432MOL0     H59605   0.613  10.575   2.887 -1.1215  0.9848  4.0235
  432MOL0     H59606   0.582  10.770   3.031 -1.8011 -3.4455 -0.4259
  432MOL0     H59607   0.747  10.815   3.004 -1.1249  1.9110  1.8253
  432MOL0     H59608   0.643  10.570   3.157  0.0235 -0.3470  0.2708
  432MOL0     H59609   0.819  10.620   3.136 -1.1166 -0.4714 -0.5130
  432MOL0     H59610   0.620  10.809   3.282  0.4708  0.4689 -1.9123
  432MOL0     H59611   0.788  10.802   3.284 -1.8512  1.3362  0.0976
  432MOL0     H59612   0.712  10.502   3.565  2.0845  0.1449  0.5713
  432MOL0     H59613   0.876  10.830   2.837  1.6759  1.7696 -0.6779
  432MOL0     H59614   0.990  11.026   2.766 -0.9163  0.1397  0.5341
  432MOL0     H59615   1.072  11.022   2.920 -1.3584  1.0967 -1.5608
  432MOL0     H59616   1.158  11.044   2.772  2.3927 -0.8255  1.8893
  433MOL0     O59617  10.907   5.566  11.073 -0.4419  0.3526 -0.0696
  433MOL0     C59618  10.901   5.664  11.146 -0.5006  0.7650 -0.7021
  433MOL0     O59619  10.788   5.723  11.188 -0.4130 -0.5339 -0.6589
  433MOL0     C59620  10.664   5.684  11.145  0.3477  0.7680  0.3823
  433MOL0     C59621  10.574   5.603  11.226 -0.5673 -0.9677  0.0577
  433MOL0     C59622  10.438   5.588  11.185 -0.6755  0.8425  0.1440
  433MOL0     C59623  10.396   5.633  11.062  0.6889  0.7534  0.3998
  433MOL0     O59624  10.265   5.615  11.031  0.4929 -0.3639  0.6160
  433MOL0     C59625  10.193   5.722  10.962 -0.3871 -0.5271 -0.2139
  433MOL0     C59626  10.076   5.651  10.893  0.8897 -0.2608  0.9815
  433MOL0     C59627   9.990   5.757  10.845  0.1445 -0.0461 -0.3882
  433MOL0     C59628   9.922   5.715  10.708 -0.8600 -0.7129 -0.3517
  433MOL0     C59629   9.834   5.826  10.656  0.4784  0.3894  0.1933
  433MOL0     C59630   9.796   5.770  10.521 -0.4234  0.5413  0.6172
  433MOL0     C59631   9.687   5.839  10.437 -0.1658  0.1845 -0.8496
  433MOL0     C59632   9.730   5.974  10.376 -0.4273 -1.0163 -0.4875
  433MOL0     N59633   9.810   5.952  10.253 -0.6689 -0.3847 -0.3428
  433MOL0     C59634   9.950   5.930  10.240  0.3812 -0.3881 -0.7119
  433MOL0     C59635   9.973   5.925  10.109  0.7579  0.9769  1.1946
  433MOL0     C59636  10.106   5.885  10.043  0.5777 -0.4510  0.8992
  433MOL0     C59637  10.213   5.994  10.046  0.2508  0.6445  0.2497
  433MOL0     C59638  10.188   6.121   9.961 -0.4073 -0.0900  0.0669
  433MOL0     C59639  10.134   6.101   9.818  0.4538 -0.6886 -0.6769
  433MOL0     O59640  10.239   6.036   9.734  0.4275  0.2319  0.2098
  433MOL0     C59641  10.348   6.103   9.703 -1.0064 -0.0794  0.4707
  433MOL0     C59642  10.370   6.240   9.720  0.9588 -0.2580 -0.0063
  433MOL0     C59643  10.495   6.307   9.710  0.2382 -0.8775 -0.6668
  433MOL0     C59644  10.479   6.458   9.733 -0.1975  0.4287  0.6950
  433MOL0     C59645  10.616   6.233   9.686  0.6773  0.8577  0.3787
  433MOL0     C59646  10.750   6.289   9.676  0.5812 -0.1883 -0.1731
  433MOL0     O59647  10.773   6.421   9.689  0.1386  0.5208 -0.6232
  433MOL0     C59648  10.903   6.465   9.678 -0.1981 -0.0526  0.4647
  433MOL0     C59649  10.943   6.532   9.558  1.3565  0.2332 -0.6068
  433MOL0     C59650  11.072   6.586   9.547 -0.0947  0.6267  0.8472
  433MOL0     C59651  11.163   6.576   9.651 -0.4810  0.6458 -1.0502
  433MOL0     O59652  11.301   6.615   9.647  0.3784 -0.5541  0.2929
  433MOL0     C59653  11.344   6.723   9.556 -0.7153 -0.1069 -0.3260
  433MOL0     C59654  11.487   6.754   9.592 -0.4766 -0.0920  0.2966
  433MOL0     C59655  11.473   6.816   9.739 -0.4097  0.4159  0.8224
  433MOL0     C59656  11.610   6.884   9.770 -0.1489  0.4743 -0.4926
  433MOL0     C59657  11.573   6.993   9.871 -0.6105 -0.0931 -1.2717
  433MOL0     C59658  11.692   7.056   9.945 -0.4512 -0.1345 -0.0051
  433MOL0     C59659  11.779   7.145   9.861 -0.0020 -0.5668  0.5452
  433MOL0     C59660  11.932   7.112   9.874 -0.1653  0.6241  0.7073
  433MOL0    Cl59661  11.996   7.170  10.031 -0.0567 -0.1816  0.0739
  433MOL0     C59662  11.123   6.507   9.773 -0.3276 -0.2758 -0.6085
  433MOL0     C59663  10.995   6.452   9.782 -0.0783  0.2572 -0.1682
  433MOL0     O59664  10.839   6.204   9.644  0.4335 -0.3973 -0.4168
  433MOL0     C59665  10.598   6.090   9.663  0.0839  0.0865 -0.5551
  433MOL0     C59666  10.468   6.033   9.673  1.1399  0.0033  0.6192
  433MOL0     N59667   9.859   5.948  10.035  1.0176 -0.2375  0.3163
  433MOL0     N59668   9.761   5.969  10.129  0.4657  0.4615  0.2183
  433MOL0     C59669  10.479   5.711  10.989  0.5511 -0.4214  0.3099
  433MOL0     C59670  10.614   5.742  11.023 -0.3713  0.8508 -0.2688
  433MOL0     C59671  11.019   5.713  11.230  0.5201 -0.2972 -0.1886
  433MOL0     C59672  11.089   5.603  11.287  0.0129 -0.6777 -0.6914
  433MOL0     C59673  11.196   5.630  11.378  0.4776  0.9624 -0.5015
  433MOL0     C59674  11.224   5.759  11.415 -0.1450  0.5813  0.3449
  433MOL0     O59675  11.343   5.783  11.476 -0.4044 -0.5099  0.1460
  433MOL0     C59676  11.458   5.784  11.391  0.0129 -0.3102  0.0091
  433MOL0     C59677  11.586   5.779  11.472 -0.5848  0.1295  0.1432
  433MOL0     C59678  11.714   5.814  11.395  0.1518  0.1554  0.3579
  433MOL0     C59679  11.837   5.827  11.479 -0.2075  0.6996 -0.5676
  433MOL0     C59680  11.948   5.846  11.385  0.0489 -0.3375  0.5336
  433MOL0     C59681  12.051   5.859  11.316  0.3976  0.9598 -0.5013
  433MOL0     C59682  11.158   5.861  11.353 -0.5355  0.1848 -0.0828
  433MOL0     C59683  11.051   5.847  11.258 -0.3251  0.1269 -0.2347
  433MOL0     C59684  10.985   5.969  11.198 -0.4803 -0.1499 -0.6147
  433MOL0     H59685  10.619   5.557  11.313 -1.2913 -3.6062 -0.8640
  433MOL0     H59686  10.372   5.526  11.246  2.0059 -0.2626  2.0909
  433MOL0     H59687  10.257   5.770  10.886 -1.9967 -1.4240 -2.2403
  433MOL0     H59688  10.173   5.800  11.036  1.1919 -1.1698  0.9408
  433MOL0     H59689  10.110   5.586  10.812 -2.3188 -1.7792  0.6697
  433MOL0     H59690  10.025   5.594  10.972  1.3135 -2.2788 -0.1389
  433MOL0     H59691   9.911   5.780  10.918  1.6718  3.1308  0.4416
  433MOL0     H59692  10.041   5.853  10.842  4.5899 -2.1253  0.1938
  433MOL0     H59693  10.001   5.704  10.633 -1.1270  0.5769 -0.8499
  433MOL0     H59694   9.860   5.625  10.712 -4.2555  1.3741 -1.6848
  433MOL0     H59695   9.878   5.925  10.641  1.6053  0.0276  0.9841
  433MOL0     H59696   9.748   5.832  10.723  0.7061 -0.6116  0.5880
  433MOL0     H59697   9.882   5.756  10.455 -0.2658  0.6818  0.7937
  433MOL0     H59698   9.754   5.671  10.536 -0.6865  0.9685  3.0338
  433MOL0     H59699   9.600   5.854  10.502 -0.1472 -0.0443 -0.7729
  433MOL0     H59700   9.679   5.774  10.351  2.9388 -0.9302 -0.4304
  433MOL0     H59701   9.646   6.040  10.352 -0.8505 -1.0319  0.8451
  433MOL0     H59702   9.788   6.028  10.451 -0.4522 -0.6913 -0.6999
  433MOL0     H59703  10.018   5.923  10.325  2.9089  5.2378 -1.7802
  433MOL0     H59704  10.087   5.847   9.942  0.2628 -0.4329  0.9498
  433MOL0     H59705  10.136   5.806  10.112  1.6788  2.5739  4.2082
  433MOL0     H59706  10.233   6.039  10.144 -0.3267  4.0115 -1.0334
  433MOL0     H59707  10.308   5.954  10.009 -1.7166 -1.8437 -2.4489
  433MOL0     H59708  10.128   6.196  10.014 -1.1197 -0.4498 -0.2148
  433MOL0     H59709  10.287   6.166   9.961 -0.7995  0.8135 -1.5540
  433MOL0     H59710  10.045   6.038   9.820 -0.5209  0.4601 -3.3358
  433MOL0     H59711  10.090   6.188   9.768  1.7724 -0.3432 -1.2944
  433MOL0     H59712  10.280   6.301   9.724  1.1757 -0.0287  1.8790
  433MOL0     H59713  10.422   6.499   9.650 -2.1409 -0.8298  1.3375
  433MOL0     H59714  10.566   6.523   9.748 -1.4103  2.0675  0.8425
  433MOL0     H59715  10.413   6.484   9.816 -1.9839  7.0759 -2.1638
  433MOL0     H59716  10.866   6.548   9.483  0.2318  0.0008  0.4677
  433MOL0     H59717  11.081   6.653   9.462  0.4431 -0.0292  0.3814
  433MOL0     H59718  11.346   6.674   9.458  0.3870  0.5303 -0.6418
  433MOL0     H59719  11.268   6.802   9.556 -0.9478 -0.3273 -0.7357
  433MOL0     H59720  11.546   6.662   9.583  1.0157  0.9762 -1.7260
  433MOL0     H59721  11.512   6.835   9.522 -2.3079  1.1406  0.9920
  433MOL0     H59722  11.460   6.745   9.821  0.8697  0.4105  1.0411
  433MOL0     H59723  11.403   6.900   9.736  0.5951  1.2799 -2.3054
  433MOL0     H59724  11.659   6.916   9.678  2.1294  0.2052  0.5535
  433MOL0     H59725  11.683   6.820   9.821  1.8412  3.0962  0.1322
  433MOL0     H59726  11.511   7.066   9.818  2.1617  1.4240 -2.6590
  433MOL0     H59727  11.510   6.947   9.947 -0.4847 -0.9992 -1.7072
  433MOL0     H59728  11.738   6.974  10.002  0.6871 -0.4122 -1.2839
  433MOL0     H59729  11.654   7.119  10.026 -3.3138 -0.3129 -1.1231
  433MOL0     H59730  11.759   7.250   9.883 -1.6632 -0.7819  0.2514
  433MOL0     H59731  11.760   7.127   9.754 -0.5128  1.5877  0.2342
  433MOL0     H59732  11.980   7.161   9.789  1.1586  0.6783  1.4721
  433MOL0     H59733  11.931   7.003   9.875 -1.2692  0.6115  1.8901
  433MOL0     H59734  11.190   6.493   9.857 -2.0922  1.3881  1.1834
  433MOL0     H59735  10.974   6.407   9.879  1.2697  0.0818  0.0556
  433MOL0     H59736  10.676   6.023   9.631 -2.4067 -2.0226 -2.6942
  433MOL0     H59737  10.452   5.928   9.653 -2.4059  0.4868  0.2827
  433MOL0     H59738  10.451   5.756  10.894 -2.9444  0.3417  1.5300
  433MOL0     H59739  10.675   5.804  10.959 -0.4332 -0.2876 -1.4755
  433MOL0     H59740  11.060   5.501  11.267 -2.6318  0.0580 -0.9080
  433MOL0     H59741  11.259   5.552  11.420  0.8479  1.0616 -0.8675
  433MOL0     H59742  11.459   5.692  11.331 -1.9006  0.2184 -0.9155
  433MOL0     H59743  11.462   5.880  11.340  2.5498  0.4014  1.3859
  433MOL0     H59744  11.608   5.679  11.508 -1.3087 -0.2966 -0.5654
  433MOL0     H59745  11.579   5.847  11.558  0.7351 -1.3699  1.4986
  433MOL0     H59746  11.722   5.737  11.318  1.2046  1.6027 -1.0222
  433MOL0     H59747  11.687   5.911  11.354 -2.0177 -0.7236 -0.4350
  433MOL0     H59748  11.842   5.736  11.540 -2.3761  2.4663  2.4940
  433MOL0     H59749  11.828   5.911  11.548  2.6560  0.2696  0.4717
  433MOL0     H59750  12.140   5.874  11.259  2.1919 -0.9166  1.6281
  433MOL0     H59751  11.196   5.960  11.378  0.3247  0.3368 -1.8108
  433MOL0     H59752  11.000   6.055  11.264  0.8035 -1.0602  0.3377
  433MOL0     H59753  11.016   5.998  11.098  2.8019 -1.3016 -0.0549
  433MOL0     H59754  10.879   5.946  11.184 -0.1086 -2.1073 -0.4906
  434MOL0     O59755   8.454   7.051   0.431 -0.0263 -0.4239 -0.2993
  434MOL0     C59756   8.408   7.137   0.502 -0.8485  0.5055  0.0006
  434MOL0     O59757   8.488   7.227   0.563  0.2919 -0.3269 -0.1026
  434MOL0     C59758   8.624   7.233   0.536  0.2857  0.5492 -0.1430
  434MOL0     C59759   8.683   7.250   0.409 -0.0663  0.7980 -0.0323
  434MOL0     C59760   8.826   7.247   0.409  0.5254  0.0748  0.0318
  434MOL0     C59761   8.906   7.226   0.523  0.5515 -0.7685 -0.7361
  434MOL0     O59762   9.038   7.225   0.501 -0.5400  0.9445  0.9159
  434MOL0     C59763   9.131   7.196   0.613  0.5178 -0.6216 -0.1150
  434MOL0     C59764   9.167   7.308   0.699  0.6197 -1.1026  0.6437
  434MOL0     C59765   9.220   7.426   0.615 -0.5151 -0.2035  0.3375
  434MOL0     C59766   9.304   7.526   0.695  0.6861  0.5704  0.5312
  434MOL0     C59767   9.360   7.623   0.588  0.1955  0.1562 -0.0646
  434MOL0     C59768   9.474   7.568   0.504  0.4154 -0.8205  0.5266
  434MOL0     C59769   9.560   7.692   0.459 -0.0648 -0.3031 -0.1190
  434MOL0     C59770   9.691   7.652   0.387 -0.5071  0.4407 -0.6647
  434MOL0     N59771   9.673   7.569   0.263 -0.0961  0.7975 -0.2783
  434MOL0     C59772   9.639   7.612   0.136  0.2637 -0.1945  0.1293
  434MOL0     C59773   9.605   7.504   0.063 -0.2560 -0.1237 -0.4576
  434MOL0     C59774   9.606   7.511  -0.086  0.7227 -1.7302 -0.1597
  434MOL0     C59775   9.609   7.371  -0.151  0.1596 -0.0944 -0.0938
  434MOL0     C59776   9.658   7.395  -0.295  0.3486 -0.0655 -0.2923
  434MOL0     C59777   9.701   7.273  -0.369  0.1479 -0.1798 -0.2234
  434MOL0     O59778   9.815   7.201  -0.319 -0.0043 -0.5414 -0.5239
  434MOL0     C59779   9.856   7.086  -0.388  1.0216  0.5886 -0.2911
  434MOL0     C59780   9.778   7.024  -0.495  0.5701  0.2319  1.3736
  434MOL0     C59781   9.841   6.914  -0.570  0.1836  0.5738 -0.4958
  434MOL0     C59782   9.761   6.873  -0.688  1.1970 -0.1719  0.7117
  434MOL0     C59783   9.976   6.870  -0.535  0.1905 -0.7730  0.4270
  434MOL0     C59784  10.056   6.774  -0.618 -0.1147  0.4161 -0.7612
  434MOL0     O59785  10.196   6.766  -0.597 -0.1346 -0.3576  0.5632
  434MOL0     C59786  10.264   6.653  -0.642  0.0619 -1.1203  0.3268
  434MOL0     C59787  10.358   6.677  -0.743  0.4487 -0.8569 -0.3905
  434MOL0     C59788  10.428   6.566  -0.795 -0.1935 -0.9338 -0.0106
  434MOL0     C59789  10.404   6.435  -0.760  0.0019  0.3225  0.6410
  434MOL0     O59790  10.459   6.324  -0.805 -0.4224  0.1649  0.2246
  434MOL0     C59791  10.601   6.322  -0.832  0.5470  0.3967  0.5696
  434MOL0     C59792  10.612   6.238  -0.970  0.1912  0.0322 -0.2977
  434MOL0     C59793  10.568   6.314  -1.099 -0.2451  0.0255  0.2940
  434MOL0     C59794  10.616   6.239  -1.231  1.1161 -0.2251 -0.2259
  434MOL0     C59795  10.581   6.087  -1.243  0.1376 -0.3414  0.4956
  434MOL0     C59796  10.601   6.043  -1.386  0.4870 -0.3989 -0.6362
  434MOL0     C59797  10.607   5.896  -1.384 -0.2792  0.9418 -0.2324
  434MOL0     C59798  10.612   5.853  -1.531  0.3445  0.5530 -0.6128
  434MOL0    Cl59799  10.609   5.682  -1.532  0.3607  0.5548  0.1055
  434MOL0     C59800  10.303   6.414  -0.658  0.1371  1.3836 -0.0307
  434MOL0     C59801  10.236   6.521  -0.593  0.2335 -0.4882  0.0723
  434MOL0     O59802   9.989   6.698  -0.689 -0.2447 -0.3642 -0.3044
  434MOL0     C59803  10.036   6.919  -0.423 -0.8375  0.4149 -0.5960
  434MOL0     C59804   9.978   7.021  -0.349  0.4955  0.7357 -0.3018
  434MOL0     N59805   9.622   7.387   0.144 -0.0966 -0.3787  0.0361
  434MOL0     N59806   9.645   7.432   0.253 -0.1653 -1.0379 -0.1965
  434MOL0     C59807   8.844   7.211   0.647  0.6050 -0.0778 -0.5419
  434MOL0     C59808   8.702   7.218   0.651  0.1911  0.3327 -1.0666
  434MOL0     C59809   8.257   7.148   0.511 -0.5685  0.1123  0.4545
  434MOL0     C59810   8.185   7.078   0.407 -0.5818  0.0534  0.2685
  434MOL0     C59811   8.051   7.087   0.404  1.0151 -0.1205  0.6160
  434MOL0     C59812   7.976   7.174   0.497  0.3327  0.4608 -0.1589
  434MOL0     O59813   7.842   7.189   0.472  0.3257 -1.0798  0.4804
  434MOL0     C59814   7.791   7.305   0.529  0.6260  0.1122 -0.3132
  434MOL0     C59815   7.656   7.341   0.466  0.0147  0.1037  0.3526
  434MOL0     C59816   7.549   7.234   0.490  0.1404  0.4289  0.9253
  434MOL0     C59817   7.421   7.293   0.414  0.5941  0.4514  0.2792
  434MOL0     C59818   7.357   7.403   0.491  0.0243  0.3666  0.1589
  434MOL0     C59819   7.327   7.506   0.548  0.2702 -0.4265  0.9468
  434MOL0     C59820   8.044   7.245   0.601 -0.0020  0.1261 -0.0604
  434MOL0     C59821   8.186   7.232   0.599  0.5056 -0.3011 -0.7854
  434MOL0     C59822   8.271   7.317   0.699 -0.1610 -0.5791  0.2779
  434MOL0     H59823   8.615   7.263   0.325 -2.6886  2.2892  2.1491
  434MOL0     H59824   8.877   7.247   0.313  2.4130  1.8347  0.9672
  434MOL0     H59825   9.223   7.169   0.561 -0.6533  1.1988 -3.3796
  434MOL0     H59826   9.098   7.114   0.678 -1.0681  1.2122  1.5183
  434MOL0     H59827   9.092   7.343   0.771  0.6864 -0.4814  0.4127
  434MOL0     H59828   9.240   7.263   0.768 -1.4376 -1.6175  2.6285
  434MOL0     H59829   9.288   7.386   0.538 -1.2975  0.1694 -0.5580
  434MOL0     H59830   9.138   7.477   0.564 -0.4242 -0.6230 -0.2384
  434MOL0     H59831   9.246   7.590   0.762  0.4279  4.6937 -3.1610
  434MOL0     H59832   9.390   7.490   0.751  0.4402  1.6518  1.6615
  434MOL0     H59833   9.396   7.709   0.646 -0.9697  0.5146  0.1568
  434MOL0     H59834   9.296   7.662   0.509  1.6886 -1.4515 -2.1926
  434MOL0     H59835   9.536   7.507   0.571 -0.6253 -0.4434  1.8821
  434MOL0     H59836   9.439   7.505   0.422 -2.0238 -1.0146  1.6325
  434MOL0     H59837   9.595   7.744   0.549 -1.4835 -1.1788  0.9739
  434MOL0     H59838   9.492   7.765   0.413  0.9593  1.5043  1.1110
  434MOL0     H59839   9.746   7.746   0.376 -0.8004  0.4075 -2.8580
  434MOL0     H59840   9.757   7.591   0.450  2.8501  1.4020 -2.9720
  434MOL0     H59841   9.624   7.711   0.094  1.8304 -0.8403 -2.1569
  434MOL0     H59842   9.696   7.566  -0.115 -2.5241  3.1670 -2.3485
  434MOL0     H59843   9.520   7.567  -0.125  0.8853 -3.4422 -3.2587
  434MOL0     H59844   9.678   7.297  -0.109  2.7764  1.0430 -2.0790
  434MOL0     H59845   9.516   7.316  -0.162 -0.3881  0.5480  1.1536
  434MOL0     H59846   9.580   7.443  -0.354 -0.6961 -2.6063 -1.0932
  434MOL0     H59847   9.744   7.463  -0.300 -0.8532  1.8482  2.4791
  434MOL0     H59848   9.613   7.209  -0.380  0.8990 -1.2361 -0.1739
  434MOL0     H59849   9.731   7.312  -0.466 -2.1120  3.1630  0.2337
  434MOL0     H59850   9.694   7.073  -0.542  2.5279  0.3388 -2.4487
  434MOL0     H59851   9.771   6.766  -0.710 -0.2518 -0.2578  0.3484
  434MOL0     H59852   9.795   6.930  -0.776  4.7568  2.1990  3.3237
  434MOL0     H59853   9.655   6.890  -0.669  0.7517 -1.3054 -0.6126
  434MOL0     H59854  10.374   6.778  -0.781 -0.0519 -0.9927 -0.9763
  434MOL0     H59855  10.496   6.593  -0.876 -1.0925  0.9876 -0.1785
  434MOL0     H59856  10.641   6.423  -0.841  3.8892 -0.9300 -1.0927
  434MOL0     H59857  10.655   6.270  -0.752  1.0403 -0.1971 -0.1455
  434MOL0     H59858  10.717   6.210  -0.981  0.1842 -0.0041 -0.2766
  434MOL0     H59859  10.550   6.147  -0.967 -2.0335  1.4903  1.3700
  434MOL0     H59860  10.623   6.409  -1.100  0.3280 -0.2170  2.5762
  434MOL0     H59861  10.461   6.333  -1.097 -0.6207 -1.1548 -2.6218
  434MOL0     H59862  10.724   6.247  -1.239  1.0209  3.2133  0.4567
  434MOL0     H59863  10.569   6.283  -1.319  1.4607 -0.5529 -0.5791
  434MOL0     H59864  10.658   6.042  -1.180  0.4414  0.6950  0.8847
  434MOL0     H59865  10.481   6.064  -1.205 -0.2780 -0.8921 -0.8729
  434MOL0     H59866  10.692   6.082  -1.431 -0.2738 -0.9771 -2.8036
  434MOL0     H59867  10.522   6.080  -1.453  0.5445 -2.3033 -1.8244
  434MOL0     H59868  10.516   5.848  -1.347 -0.4078  0.4131 -1.2059
  434MOL0     H59869  10.687   5.861  -1.318  1.7329  0.5552 -2.7272
  434MOL0     H59870  10.710   5.872  -1.577 -0.0440  1.6983 -1.0109
  434MOL0     H59871  10.528   5.892  -1.589  0.3894 -0.3461 -1.3001
  434MOL0     H59872  10.291   6.310  -0.630 -1.4101  1.6589  0.4321
  434MOL0     H59873  10.154   6.510  -0.523 -0.3320 -0.2643 -0.5498
  434MOL0     H59874  10.133   6.881  -0.391 -1.7596 -0.4828  1.3105
  434MOL0     H59875  10.045   7.060  -0.272  4.1212 -0.6646 -2.5098
  434MOL0     H59876   8.897   7.191   0.740  0.0261 -3.5542 -0.8303
  434MOL0     H59877   8.654   7.206   0.748  0.1435  0.6912 -1.0422
  434MOL0     H59878   8.241   7.040   0.321  0.6506  0.3476  0.9190
  434MOL0     H59879   7.987   7.040   0.330  0.7320 -1.3678  1.6255
  434MOL0     H59880   7.768   7.272   0.631 -0.9139 -3.4784 -1.6307
  434MOL0     H59881   7.842   7.401   0.519  2.1022 -0.3962  1.6060
  434MOL0     H59882   7.677   7.364   0.361 -1.7128  0.6699  0.1047
  434MOL0     H59883   7.620   7.436   0.507  1.9591  0.9213  0.2644
  434MOL0     H59884   7.575   7.135   0.453 -1.0527  1.3274 -2.6798
  434MOL0     H59885   7.524   7.220   0.596 -2.5545 -2.5873  0.0603
  434MOL0     H59886   7.353   7.208   0.409  1.3720 -0.1742  0.2001
  434MOL0     H59887   7.449   7.328   0.314 -0.0359 -2.2871 -0.9524
  434MOL0     H59888   7.310   7.609   0.575 -0.5198 -0.5458  0.9391
  434MOL0     H59889   7.987   7.298   0.677  0.2065  0.2627  0.0009
  434MOL0     H59890   8.337   7.384   0.642  0.6712 -1.6237 -0.0143
  434MOL0     H59891   8.214   7.376   0.771  0.5107 -0.4505  0.7084
  434MOL0     H59892   8.334   7.249   0.757  3.4125  1.0120 -1.4171
  435MOL0     O59893   1.280  10.220   9.361  0.2491  0.0967  0.5218
  435MOL0     C59894   1.312  10.107   9.321  0.9017 -0.0902  0.2057
  435MOL0     O59895   1.396  10.023   9.375  0.2603 -0.0975  0.4619
  435MOL0     C59896   1.511  10.041   9.448 -0.4370  0.3944  0.6401
  435MOL0     C59897   1.542  10.168   9.506 -0.2182 -0.4351 -0.7578
  435MOL0     C59898   1.663  10.201   9.563  0.6142  0.3597 -0.5955
  435MOL0     C59899   1.771  10.110   9.563  0.8438  0.6049 -0.3281
  435MOL0     O59900   1.894  10.128   9.625 -0.0993 -0.5474  0.3219
  435MOL0     C59901   2.009  10.047   9.588  0.0960  0.6445 -0.0479
  435MOL0     C59902   2.132  10.118   9.650 -0.2356 -0.2623  0.6881
  435MOL0     C59903   2.255  10.023   9.637 -0.2259  0.0563  0.2621
  435MOL0     C59904   2.362  10.113   9.591 -0.3747  0.0635  0.1185
  435MOL0     C59905   2.502  10.035   9.588  0.1932 -0.9532 -0.2856
  435MOL0     C59906   2.606  10.123   9.514 -0.4048  0.1069 -0.4449
  435MOL0     C59907   2.749  10.064   9.529 -0.7940  0.4046  0.5957
  435MOL0     C59908   2.858  10.154   9.464 -1.2524 -0.5547 -0.4698
  435MOL0     N59909   2.900  10.247   9.571  0.0963  0.1284  0.5645
  435MOL0     C59910   2.854  10.367   9.623  0.6198 -0.3775 -0.3126
  435MOL0     C59911   2.938  10.408   9.725 -0.4601 -0.5146 -0.6215
  435MOL0     C59912   2.930  10.538   9.803 -0.6943  0.0109  0.5949
  435MOL0     C59913   2.844  10.528   9.918 -0.9351 -0.9609 -0.0087
  435MOL0     C59914   2.890  10.640  10.011 -0.2291  0.6813  0.5566
  435MOL0     C59915   2.788  10.683  10.122 -0.1125  0.7229  1.0953
  435MOL0     O59916   2.784  10.583  10.222  0.6499 -0.0397  0.0841
  435MOL0     C59917   2.716  10.604  10.336  0.3625  0.0521  0.8397
  435MOL0     C59918   2.656  10.722  10.375 -0.1093  0.2216 -0.7652
  435MOL0     C59919   2.585  10.738  10.496 -0.2336 -0.3975 -0.6821
  435MOL0     C59920   2.537  10.883  10.516 -0.4152 -0.3802  1.1362
  435MOL0     C59921   2.558  10.618  10.566 -0.3525 -0.3835 -0.0714
  435MOL0     C59922   2.467  10.614  10.677 -0.1883 -0.1996 -0.2427
  435MOL0     O59923   2.508  10.571  10.805  0.8909 -0.0917  0.7671
  435MOL0     C59924   2.404  10.582  10.905 -0.0934  0.8959 -0.0236
  435MOL0     C59925   2.319  10.468  10.926 -0.7279 -0.0350  0.0003
  435MOL0     C59926   2.215  10.482  11.014 -0.0636  0.6656  0.9613
  435MOL0     C59927   2.188  10.601  11.078  1.2999 -0.1882 -0.6946
  435MOL0     O59928   2.090  10.605  11.169  0.2694 -0.6158  0.7464
  435MOL0     C59929   2.086  10.520  11.283  0.3199 -0.5067  0.5156
  435MOL0     C59930   2.151  10.598  11.395  0.2681  0.1332  0.1671
  435MOL0     C59931   2.079  10.725  11.431  0.0564 -0.0902 -0.9763
  435MOL0     C59932   1.926  10.707  11.474 -0.5857 -1.1478 -0.3980
  435MOL0     C59933   1.890  10.793  11.591  0.0385 -0.3652  0.6125
  435MOL0     C59934   1.733  10.814  11.591 -0.1588  0.4776  0.1713
  435MOL0     C59935   1.702  10.909  11.712 -0.0048  0.9107 -0.5127
  435MOL0     C59936   1.555  10.891  11.741 -0.6755 -0.3797 -0.2544
  435MOL0    Cl59937   1.440  10.935  11.606  0.3951 -0.1618  0.4025
  435MOL0     C59938   2.266  10.714  11.064 -0.0341  0.3725 -0.2663
  435MOL0     C59939   2.381  10.704  10.975  0.6244  1.0726 -0.3340
  435MOL0     O59940   2.353  10.660  10.654 -0.7755  0.2630  0.0148
  435MOL0     C59941   2.625  10.508  10.536 -1.0776  0.8760 -0.6796
  435MOL0     C59942   2.699  10.493  10.428 -0.2531 -0.3673  0.4078
  435MOL0     N59943   3.023  10.300   9.744 -0.0543 -0.3790  0.7602
  435MOL0     N59944   2.996  10.210   9.656  0.1957  0.5691  0.3856
  435MOL0     C59945   1.746   9.987   9.487 -0.1426 -0.6737 -1.4439
  435MOL0     C59946   1.621   9.956   9.426  0.3808  0.7130 -0.2275
  435MOL0     C59947   1.208  10.045   9.236 -0.6143  0.1033  0.7401
  435MOL0     C59948   1.226   9.907   9.198 -0.5225  0.4765  0.3143
  435MOL0     C59949   1.145   9.837   9.108 -0.2359 -0.1609 -0.0920
  435MOL0     C59950   1.038   9.899   9.050  0.0971 -0.3262  0.8208
  435MOL0     O59951   0.959   9.822   8.964 -0.7571  0.3957  0.5997
  435MOL0     C59952   0.846   9.889   8.913 -0.4155  0.0877  0.5468
  435MOL0     C59953   0.782   9.806   8.806  0.1868  0.6101 -0.4281
  435MOL0     C59954   0.716   9.688   8.875  0.6259  0.7465 -0.8612
  435MOL0     C59955   0.604   9.632   8.788 -0.4887  0.0922 -0.0194
  435MOL0     C59956   0.492   9.727   8.780 -0.4810  0.5964  0.0164
  435MOL0     C59957   0.396   9.799   8.762 -0.4265 -0.2856 -0.5747
  435MOL0     C59958   1.009  10.030   9.089  0.8073  0.1846 -0.7468
  435MOL0     C59959   1.089  10.105   9.182 -0.5293 -0.2255 -0.4733
  435MOL0     C59960   1.026  10.236   9.231 -0.2054 -0.4129 -0.3601
  435MOL0     H59961   1.459  10.238   9.513 -0.3301 -0.4312 -1.9405
  435MOL0     H59962   1.675  10.304   9.596 -4.0945  1.3073 -1.1037
  435MOL0     H59963   2.018  10.045   9.478  0.4699 -0.9041 -0.0162
  435MOL0     H59964   1.996   9.947   9.630  1.5793  0.2002 -0.5531
  435MOL0     H59965   2.149  10.217   9.606 -0.3966  0.0801  1.3808
  435MOL0     H59966   2.116  10.143   9.755  0.0525  3.1710  0.0421
  435MOL0     H59967   2.271   9.979   9.736  0.6412 -1.5667 -0.5461
  435MOL0     H59968   2.235   9.936   9.574 -0.5963  0.9567 -0.8918
  435MOL0     H59969   2.344  10.162   9.495  0.6424  0.1268 -0.0537
  435MOL0     H59970   2.365  10.196   9.663  1.9613 -1.1802  1.5862
  435MOL0     H59971   2.485   9.933   9.553 -1.6170 -1.2566  1.2468
  435MOL0     H59972   2.530  10.030   9.694  2.0122  0.4352 -0.6640
  435MOL0     H59973   2.578  10.140   9.410 -4.0123 -0.1418  0.3567
  435MOL0     H59974   2.612  10.220   9.564  0.2792 -0.6050  0.9126
  435MOL0     H59975   2.755   9.971   9.472  0.5506  0.6179  0.3641
  435MOL0     H59976   2.778  10.029   9.628  4.1554  0.0303 -0.7111
  435MOL0     H59977   2.937  10.086   9.431 -2.1900 -0.8168 -2.3323
  435MOL0     H59978   2.820  10.211   9.378 -0.4693  0.3912 -0.2022
  435MOL0     H59979   2.767  10.420   9.584  2.0190  1.2658 -1.3038
  435MOL0     H59980   2.887  10.612   9.735 -0.2854 -0.3529 -0.0776
  435MOL0     H59981   3.032  10.571   9.824  0.3035 -2.0877 -0.6160
  435MOL0     H59982   2.738  10.524   9.893 -0.9852 -2.1396  0.3363
  435MOL0     H59983   2.860  10.435   9.974 -1.1425 -0.4410  0.9419
  435MOL0     H59984   2.975  10.596  10.064  0.5772  0.1022 -1.1319
  435MOL0     H59985   2.918  10.733   9.962  0.1748  0.2548 -0.0431
  435MOL0     H59986   2.816  10.781  10.161  1.6114  0.6597  0.1118
  435MOL0     H59987   2.692  10.711  10.078  1.0059  1.1684 -1.1679
  435MOL0     H59988   2.667  10.811  10.313 -0.4965  1.7532  1.2603
  435MOL0     H59989   2.436  10.888  10.475  0.2042  0.1260 -0.4365
  435MOL0     H59990   2.610  10.953  10.474 -1.7049  0.6198  0.4947
  435MOL0     H59991   2.521  10.915  10.619 -0.7397  1.8460  0.4653
  435MOL0     H59992   2.335  10.379  10.865 -1.9061  0.2168 -0.7170
  435MOL0     H59993   2.146  10.402  11.038 -0.5678  1.2018  1.3420
  435MOL0     H59994   1.979  10.509  11.302  0.3787  0.3809  1.4515
  435MOL0     H59995   2.141  10.426  11.288  1.6865  0.2656  0.5781
  435MOL0     H59996   2.156  10.534  11.484 -0.2178 -0.5753 -0.3009
  435MOL0     H59997   2.251  10.625  11.360 -1.4544  1.8969 -4.0448
  435MOL0     H59998   2.076  10.788  11.342 -2.5876  2.0534  0.4451
  435MOL0     H59999   2.135  10.773  11.512 -1.9754 -0.1555  0.5679
  435MOL0     H60000   1.896  10.602  11.487 -0.8556 -0.7895  2.5166
  435MOL0     H60001   1.869  10.744  11.388 -0.9466 -1.3713 -0.2547
  435MOL0     H60002   1.920  10.740  11.682  1.2938 -0.4916  0.1468
  435MOL0     H60003   1.946  10.887  11.582 -0.1878 -0.3031 -0.3107
  435MOL0     H60004   1.691  10.715  11.613  0.4279 -0.5534 -2.8017
  435MOL0     H60005   1.690  10.868  11.506 -1.0462 -1.2337 -0.5214
  435MOL0     H60006   1.714  11.013  11.681  0.2883  0.6478 -1.3321
  435MOL0     H60007   1.749  10.891  11.809 -0.0130  1.5264 -0.3919
  435MOL0     H60008   1.530  10.956  11.825  1.0219  1.2710 -0.9640
  435MOL0     H60009   1.545  10.786  11.773 -0.7605 -0.0924  0.7092
  435MOL0     H60010   2.249  10.806  11.120  1.6754  0.2320  0.5717
  435MOL0     H60011   2.459  10.777  10.954  0.6245  1.9794  2.3502
  435MOL0     H60012   2.607  10.424  10.603 -0.1299  2.4439  1.6819
  435MOL0     H60013   2.746  10.396  10.415 -2.8786 -1.6617 -0.0835
  435MOL0     H60014   1.832   9.924   9.466  1.3295  1.1827 -1.3036
  435MOL0     H60015   1.593   9.875   9.359 -2.8074 -1.2825  3.1197
  435MOL0     H60016   1.308   9.853   9.244  1.3287  3.0787  0.3261
  435MOL0     H60017   1.174   9.735   9.084 -0.7509 -0.6438  1.2209
  435MOL0     H60018   0.773   9.919   8.988  0.1219  2.2734  0.2434
  435MOL0     H60019   0.892   9.979   8.871  0.8270  0.1493  1.9613
  435MOL0     H60020   0.855   9.772   8.732 -0.8425  1.7012 -2.0030
  435MOL0     H60021   0.704   9.866   8.759 -1.7698 -0.5870  1.1705
  435MOL0     H60022   0.783   9.603   8.893  1.8730  1.9367  0.3703
  435MOL0     H60023   0.662   9.725   8.963 -1.8715  0.9959 -2.4009
  435MOL0     H60024   0.569   9.542   8.840  1.0759  1.5770  3.9452
  435MOL0     H60025   0.645   9.604   8.691 -0.3049 -0.5450  0.2329
  435MOL0     H60026   0.318   9.870   8.776  1.1794  1.0395  2.5421
  435MOL0     H60027   0.922  10.079   9.047  1.4932  1.8558 -0.3346
  435MOL0     H60028   0.937  10.270   9.178 -2.0720  2.2025  3.9146
  435MOL0     H60029   0.990  10.200   9.327 -1.7566 -2.8474 -1.7476
  435MOL0     H60030   1.100  10.316   9.235 -0.1897 -0.3878 -0.9999
  436MOL0     O60031   7.854   1.116   7.313 -0.6299  0.7493  0.2714
  436MOL0     C60032   7.787   1.182   7.396 -0.5934 -0.9194 -0.4496
  436MOL0     O60033   7.836   1.262   7.497  0.0859  0.1577  0.4603
  436MOL0     C60034   7.968   1.259   7.515  0.0636  0.6367 -0.3290
  436MOL0     C60035   8.010   1.164   7.613 -0.8251 -0.6713 -0.3022
  436MOL0     C60036   8.145   1.154   7.652  0.2663 -0.3348 -0.9368
  436MOL0     C60037   8.230   1.257   7.612  0.5976  0.3631 -0.4860
  436MOL0     O60038   8.363   1.253   7.646  0.6359  0.5044 -1.5173
  436MOL0     C60039   8.422   1.370   7.704  0.0704  0.0194 -0.7933
  436MOL0     C60040   8.407   1.367   7.854 -0.0125 -0.0799 -1.0259
  436MOL0     C60041   8.275   1.423   7.906  0.2787 -0.7486 -0.5693
  436MOL0     C60042   8.289   1.576   7.908  0.3120 -0.0040  0.7965
  436MOL0     C60043   8.165   1.661   7.901  0.0673  0.3158 -0.2894
  436MOL0     C60044   8.101   1.651   7.758  0.9760  0.6518 -0.7119
  436MOL0     C60045   8.177   1.731   7.646 -0.0096  0.0676  0.4111
  436MOL0     C60046   8.083   1.749   7.529  0.1093 -0.4470 -0.2567
  436MOL0     N60047   7.961   1.833   7.543  0.0365  0.0512 -0.5624
  436MOL0     C60048   7.961   1.966   7.555  0.5302 -0.6954 -0.0475
  436MOL0     C60049   7.835   2.006   7.527  1.4190  0.7912 -0.6044
  436MOL0     C60050   7.781   2.150   7.522 -0.2449 -0.1013  0.0562
  436MOL0     C60051   7.651   2.171   7.602 -0.3455  0.6798 -0.4008
  436MOL0     C60052   7.614   2.321   7.628  0.3193 -1.1424 -0.6878
  436MOL0     C60053   7.476   2.326   7.700 -0.0420  0.7074 -0.0815
  436MOL0     O60054   7.378   2.272   7.615 -0.6759  0.0559 -0.4394
  436MOL0     C60055   7.249   2.301   7.644  0.5567  0.0122  0.7617
  436MOL0     C60056   7.149   2.224   7.578  0.4757  0.4157  0.7169
  436MOL0     C60057   7.011   2.231   7.597  0.6197 -0.2452 -0.6501
  436MOL0     C60058   6.910   2.165   7.509  0.4822 -0.4306 -1.0240
  436MOL0     C60059   6.965   2.334   7.683 -0.2689  0.0517  0.8112
  436MOL0     C60060   6.820   2.366   7.695 -0.3224 -0.5248  0.1745
  436MOL0     O60061   6.754   2.425   7.585  0.1939  0.3065 -0.3817
  436MOL0     C60062   6.620   2.436   7.591  0.6517 -0.3192  0.3216
  436MOL0     C60063   6.526   2.336   7.551 -0.2864 -0.1778 -0.3475
  436MOL0     C60064   6.386   2.362   7.534 -0.6244 -0.5634  0.4966
  436MOL0     C60065   6.336   2.492   7.554 -0.0322  0.2806 -0.4296
  436MOL0     O60066   6.207   2.529   7.523 -0.4707 -0.3800 -0.1398
  436MOL0     C60067   6.117   2.447   7.602 -0.2046 -0.6001  0.2914
  436MOL0     C60068   6.007   2.529   7.674  0.1776  0.1246  0.3163
  436MOL0     C60069   5.903   2.599   7.579 -0.3917 -0.9975 -0.3528
  436MOL0     C60070   5.774   2.512   7.564 -0.4034  0.3896 -0.7613
  436MOL0     C60071   5.662   2.555   7.465  0.7814 -0.6661  0.0551
  436MOL0     C60072   5.627   2.707   7.474 -0.7113  0.4139 -0.3128
  436MOL0     C60073   5.568   2.745   7.607 -0.4818 -0.1288  0.0091
  436MOL0     C60074   5.550   2.897   7.615 -0.3720 -0.1121  0.1519
  436MOL0    Cl60075   5.715   2.980   7.652  0.0919 -0.0742 -0.3582
  436MOL0     C60076   6.433   2.591   7.597  0.5541  0.0114 -0.3256
  436MOL0     C60077   6.570   2.562   7.618 -0.3225 -0.0280 -0.7268
  436MOL0     O60078   6.761   2.343   7.801 -1.2972 -0.7504 -0.5428
  436MOL0     C60079   7.059   2.418   7.748 -0.0307  0.0705  0.6410
  436MOL0     C60080   7.202   2.403   7.738 -0.5059  0.7691  0.1010
  436MOL0     N60081   7.757   1.895   7.523  0.4883  0.1022  0.1752
  436MOL0     N60082   7.833   1.789   7.532  0.3213  0.7537  0.4546
  436MOL0     C60083   8.190   1.346   7.511  0.4147 -0.0572  0.2072
  436MOL0     C60084   8.062   1.337   7.455  0.0662  0.2900 -0.0908
  436MOL0     C60085   7.640   1.188   7.377  0.4750  0.5443 -0.5689
  436MOL0     C60086   7.567   1.292   7.442 -0.6224 -0.3746  0.8862
  436MOL0     C60087   7.424   1.299   7.444  0.9063 -1.0019  1.0711
  436MOL0     C60088   7.342   1.200   7.382 -0.0405  0.1290 -0.4537
  436MOL0     O60089   7.205   1.220   7.384  0.1632  0.2605 -0.1637
  436MOL0     C60090   7.136   1.112   7.453 -0.8187  0.3384 -0.0349
  436MOL0     C60091   7.198   1.077   7.591 -0.0279 -0.6610 -0.5213
  436MOL0     C60092   7.191   1.189   7.698 -0.7659  0.0335  0.7115
  436MOL0     C60093   7.316   1.193   7.782 -0.4797 -0.7449 -0.1763
  436MOL0     C60094   7.345   1.066   7.843 -0.0271 -1.0337  0.4621
  436MOL0     C60095   7.366   0.963   7.904  0.2218 -0.1188 -0.3152
  436MOL0     C60096   7.413   1.094   7.314 -0.4756  0.2592 -0.2809
  436MOL0     C60097   7.554   1.092   7.313 -0.3471  0.2023 -0.5493
  436MOL0     C60098   7.623   0.975   7.245  0.0375 -0.0076 -0.0883
  436MOL0     H60099   7.941   1.102   7.668 -1.3551  0.1824  0.0068
  436MOL0     H60100   8.177   1.078   7.722  0.2588  0.5484  0.0453
  436MOL0     H60101   8.397   1.462   7.651 -2.4099 -0.5459 -0.7273
  436MOL0     H60102   8.530   1.363   7.689  0.2897  2.0287 -0.4350
  436MOL0     H60103   8.431   1.265   7.886  1.6791  0.3028 -0.9766
  436MOL0     H60104   8.484   1.435   7.893 -1.7015  2.5835 -2.0117
  436MOL0     H60105   8.195   1.395   7.837 -0.1390 -0.6459 -0.1333
  436MOL0     H60106   8.263   1.392   8.010  2.0233 -1.5620 -0.5705
  436MOL0     H60107   8.346   1.603   7.997  1.7354 -0.7342  0.1293
  436MOL0     H60108   8.353   1.605   7.825  1.6801 -0.1942  1.7579
  436MOL0     H60109   8.194   1.767   7.906 -0.9067  0.5858 -0.1546
  436MOL0     H60110   8.092   1.634   7.977  0.1931  0.7795 -0.0020
  436MOL0     H60111   8.078   1.545   7.745 -1.6476  0.5364  2.9781
  436MOL0     H60112   8.003   1.699   7.771 -1.0497 -3.5768  1.6222
  436MOL0     H60113   8.260   1.670   7.608  1.7001  3.0961 -1.0920
  436MOL0     H60114   8.217   1.826   7.682  0.3234  0.4130 -0.8139
  436MOL0     H60115   8.142   1.792   7.448 -1.5659 -1.9071 -2.3543
  436MOL0     H60116   8.052   1.654   7.485  1.0885 -0.4027 -1.0798
  436MOL0     H60117   8.050   2.026   7.572 -0.9613  0.6205  4.9701
  436MOL0     H60118   7.757   2.176   7.418  3.7145 -0.2553 -1.0603
  436MOL0     H60119   7.854   2.229   7.542 -3.0000  2.5782  0.3943
  436MOL0     H60120   7.566   2.121   7.555 -0.3143 -1.5133  1.6549
  436MOL0     H60121   7.661   2.136   7.705 -2.5022  0.5319 -0.1833
  436MOL0     H60122   7.688   2.366   7.694  0.4535  0.8889 -2.1352
  436MOL0     H60123   7.616   2.387   7.541 -0.9789 -1.7626 -1.2257
  436MOL0     H60124   7.477   2.264   7.790  0.5964 -1.2277 -1.3620
  436MOL0     H60125   7.469   2.433   7.723  0.4229  0.7487 -0.1226
  436MOL0     H60126   7.185   2.146   7.511  0.4662  0.9095  0.1241
  436MOL0     H60127   6.945   2.082   7.448  0.7874  0.4524 -2.0778
  436MOL0     H60128   6.871   2.241   7.441  3.6588  1.0005 -1.4503
  436MOL0     H60129   6.831   2.134   7.578  0.6980  0.2465 -0.4507
  436MOL0     H60130   6.569   2.240   7.522 -1.7222 -0.2412 -2.5280
  436MOL0     H60131   6.321   2.290   7.486 -0.0622  0.2524 -1.6270
  436MOL0     H60132   6.070   2.371   7.540  0.7448 -1.9439  1.1846
  436MOL0     H60133   6.167   2.380   7.673 -2.1548 -0.7703  1.5961
  436MOL0     H60134   5.955   2.455   7.737  0.1989 -2.4092 -2.4143
  436MOL0     H60135   6.045   2.606   7.741 -1.1455  0.0721  1.1739
  436MOL0     H60136   5.955   2.634   7.489  1.5922 -3.7591 -0.4245
  436MOL0     H60137   5.870   2.694   7.621  2.9590 -0.0337  0.3637
  436MOL0     H60138   5.735   2.491   7.664 -0.7525 -1.6641 -1.2696
  436MOL0     H60139   5.817   2.418   7.528 -1.1624  1.1071 -3.8469
  436MOL0     H60140   5.688   2.526   7.363 -0.8611 -1.5826 -0.1420
  436MOL0     H60141   5.577   2.498   7.502  1.1117  0.8125  3.5145
  436MOL0     H60142   5.565   2.742   7.392 -1.9140  1.2916  0.9189
  436MOL0     H60143   5.722   2.760   7.465  0.5060 -1.8435 -1.7382
  436MOL0     H60144   5.633   2.717   7.690  2.2509  1.2432 -1.5147
  436MOL0     H60145   5.471   2.696   7.617  0.5924 -2.2412  0.6737
  436MOL0     H60146   5.478   2.921   7.694  1.8442  2.2757  1.5899
  436MOL0     H60147   5.521   2.928   7.515  0.3605 -0.9572 -0.3401
  436MOL0     H60148   6.404   2.695   7.607  1.3592  0.2332 -0.2571
  436MOL0     H60149   6.633   2.643   7.652 -1.3313  1.0704 -1.4095
  436MOL0     H60150   7.017   2.497   7.810 -0.3817 -1.2568  2.1313
  436MOL0     H60151   7.269   2.453   7.807  0.1607  0.2256 -0.1508
  436MOL0     H60152   8.255   1.419   7.464 -0.0615  1.9972  2.5685
  436MOL0     H60153   8.022   1.410   7.385  1.7632  1.3296 -0.0265
  436MOL0     H60154   7.601   1.377   7.500 -0.8535  1.2549 -1.2247
  436MOL0     H60155   7.379   1.390   7.481  0.2841 -1.0871  0.5404
  436MOL0     H60156   7.030   1.131   7.475 -0.6283  0.4339  0.8396
  436MOL0     H60157   7.145   1.019   7.396  3.1409  0.0205  0.8238
  436MOL0     H60158   7.303   1.056   7.568  0.3809 -1.1089  1.5876
  436MOL0     H60159   7.156   0.980   7.619  3.9506 -2.5599 -0.5097
  436MOL0     H60160   7.177   1.290   7.659 -0.8078  0.2152  1.1802
  436MOL0     H60161   7.112   1.165   7.771 -1.6863  1.0584  0.0881
  436MOL0     H60162   7.302   1.280   7.847 -0.1620  0.3461 -1.4991
  436MOL0     H60163   7.400   1.222   7.718 -1.0332 -0.5608 -0.8239
  436MOL0     H60164   7.386   0.878   7.965 -0.3057  0.5939  0.8893
  436MOL0     H60165   7.349   1.015   7.276 -1.7039  1.1148 -0.0520
  436MOL0     H60166   7.688   0.917   7.311  1.9808  2.2968  0.1696
  436MOL0     H60167   7.545   0.899   7.242 -0.7552  0.5732  2.8418
  436MOL0     H60168   7.656   0.998   7.143  0.4537 -0.9609 -0.1781
  437MOL0     O60169   1.691   7.639   4.704 -0.1292  0.1447 -0.2379
  437MOL0     C60170   1.566   7.620   4.716 -0.1351 -0.0394  0.7439
  437MOL0     O60171   1.475   7.583   4.613  0.7560 -0.4707  0.4670
  437MOL0     C60172   1.530   7.565   4.484 -0.0203  0.8929 -1.0256
  437MOL0     C60173   1.499   7.447   4.417  1.4162 -0.5957 -0.5752
  437MOL0     C60174   1.544   7.431   4.285 -0.1653  0.3443  0.5615
  437MOL0     C60175   1.634   7.524   4.225  0.0321 -0.5952 -0.3457
  437MOL0     O60176   1.672   7.491   4.096  0.4081  0.4349  0.9415
  437MOL0     C60177   1.782   7.557   4.035 -1.1534  0.1082  0.3397
  437MOL0     C60178   1.810   7.503   3.903 -0.3861  0.2761  0.3206
  437MOL0     C60179   1.858   7.357   3.903  0.2768 -0.6219 -0.2599
  437MOL0     C60180   1.870   7.299   3.772 -0.5387 -0.7008  0.6933
  437MOL0     C60181   1.875   7.148   3.766 -0.0558  0.1023 -1.1264
  437MOL0     C60182   1.947   7.096   3.643 -0.2578  0.7171  0.0758
  437MOL0     C60183   1.977   6.941   3.640  0.6010 -0.4799  0.0017
  437MOL0     C60184   2.078   6.902   3.757 -0.6233  1.4302  0.1345
  437MOL0     N60185   2.209   6.957   3.726 -0.3274 -0.8560  0.3564
  437MOL0     C60186   2.292   7.033   3.805  0.0604  0.7017 -0.4460
  437MOL0     C60187   2.378   7.084   3.717  0.1579  0.2777  0.2098
  437MOL0     C60188   2.484   7.189   3.756  0.1769 -0.1277 -0.9843
  437MOL0     C60189   2.415   7.316   3.815 -0.3343  0.5641 -0.7801
  437MOL0     C60190   2.324   7.379   3.705 -0.3902  0.3803 -1.0008
  437MOL0     C60191   2.299   7.529   3.724 -0.1164 -0.2329  0.7830
  437MOL0     O60192   2.411   7.612   3.755  0.0049 -0.2460 -0.3083
  437MOL0     C60193   2.500   7.654   3.664 -1.2213  0.3027  0.5349
  437MOL0     C60194   2.541   7.575   3.565 -0.6210 -0.7412 -0.0572
  437MOL0     C60195   2.660   7.602   3.489 -0.3311 -0.1088  0.3649
  437MOL0     C60196   2.711   7.498   3.388 -0.4114 -0.9089  0.3861
  437MOL0     C60197   2.735   7.725   3.508  0.0462 -0.1181 -0.0353
  437MOL0     C60198   2.854   7.758   3.436 -0.5012 -0.0468 -0.2256
  437MOL0     O60199   2.864   7.878   3.370  0.0272 -0.1113  0.2059
  437MOL0     C60200   2.975   7.896   3.283  0.2201  0.1361  0.9289
  437MOL0     C60201   3.031   7.800   3.193  0.1213 -0.9864  0.0766
  437MOL0     C60202   3.143   7.841   3.114 -0.3906 -0.1080  1.1102
  437MOL0     C60203   3.201   7.971   3.122  0.1264 -0.0894 -0.6563
  437MOL0     O60204   3.308   8.003   3.056  0.3146 -0.1196  0.1497
  437MOL0     C60205   3.318   8.129   2.994 -1.0506  0.2812  0.3807
  437MOL0     C60206   3.210   8.176   2.895 -0.3645 -0.4156 -0.2349
  437MOL0     C60207   3.237   8.319   2.854  0.2399 -0.4808  0.5965
  437MOL0     C60208   3.341   8.324   2.736 -0.1802 -0.3316  0.1811
  437MOL0     C60209   3.380   8.475   2.697  0.4560 -0.3277 -0.4463
  437MOL0     C60210   3.461   8.542   2.811  0.2955  0.3009 -0.3431
  437MOL0     C60211   3.567   8.456   2.864 -1.0455 -0.3931 -0.7679
  437MOL0     C60212   3.669   8.539   2.935 -0.6082 -1.2175 -0.0822
  437MOL0    Cl60213   3.767   8.650   2.831 -0.1700 -0.0405 -0.2609
  437MOL0     C60214   3.137   8.061   3.204  1.1079  0.1764 -1.0475
  437MOL0     C60215   3.032   8.027   3.293  0.1576  0.2524 -0.2835
  437MOL0     O60216   2.946   7.678   3.447  0.7422  0.3469  0.4399
  437MOL0     C60217   2.681   7.806   3.609  0.0625 -0.4368 -0.3378
  437MOL0     C60218   2.578   7.764   3.695 -0.1234 -0.3798  0.3202
  437MOL0     N60219   2.342   7.037   3.591 -0.8068 -0.9262  0.2000
  437MOL0     N60220   2.243   6.962   3.593  0.1330 -0.4597  0.6935
  437MOL0     C60221   1.665   7.637   4.299  0.5389 -0.1471  0.1878
  437MOL0     C60222   1.607   7.661   4.420 -0.9593  0.1970 -0.1016
  437MOL0     C60223   1.506   7.647   4.853  0.1755  0.4858  0.1165
  437MOL0     C60224   1.366   7.657   4.858 -0.5456 -0.1232 -0.3368
  437MOL0     C60225   1.289   7.671   4.968  0.4211  1.1861  0.0253
  437MOL0     C60226   1.358   7.665   5.092  0.6055  0.8250  0.7341
  437MOL0     O60227   1.282   7.681   5.209 -0.1076  0.0173 -0.2587
  437MOL0     C60228   1.346   7.644   5.338  0.6544  0.1147 -0.1707
  437MOL0     C60229   1.266   7.694   5.456 -0.8005 -0.0795 -0.2845
  437MOL0     C60230   1.114   7.652   5.439  0.1141  0.1036 -0.6844
  437MOL0     C60231   1.035   7.670   5.576 -1.0413 -0.0553  1.1187
  437MOL0     C60232   0.889   7.643   5.551  0.2748  0.2175 -1.1472
  437MOL0     C60233   0.771   7.618   5.547  0.0582  0.0545  0.9545
  437MOL0     C60234   1.498   7.654   5.091  0.3554  0.4066  0.1711
  437MOL0     C60235   1.575   7.649   4.975 -0.0444 -0.4036 -0.1630
  437MOL0     C60236   1.722   7.626   4.984 -0.1774 -0.5517 -0.5433
  437MOL0     H60237   1.428   7.383   4.469 -2.4645  1.3917 -2.9083
  437MOL0     H60238   1.523   7.337   4.233  1.7661 -1.0483  2.1368
  437MOL0     H60239   1.873   7.541   4.093 -1.5245  2.3996  1.6472
  437MOL0     H60240   1.764   7.665   4.027 -0.6939  0.0449 -4.2188
  437MOL0     H60241   1.723   7.508   3.837 -1.9048 -2.3547  1.9556
  437MOL0     H60242   1.886   7.562   3.852  0.4351 -0.2871  0.8858
  437MOL0     H60243   1.959   7.348   3.944  0.2355 -0.6354 -0.1607
  437MOL0     H60244   1.812   7.293   3.978 -1.1103  2.1152  1.3849
  437MOL0     H60245   1.783   7.333   3.715 -1.3146  0.6660  2.5759
  437MOL0     H60246   1.959   7.346   3.731 -0.9736  0.4183  1.0063
  437MOL0     H60247   1.781   7.098   3.790 -0.4235  1.9331  1.6623
  437MOL0     H60248   1.942   7.109   3.844  0.2990 -1.8425 -2.3286
  437MOL0     H60249   1.888   7.118   3.554  1.3512 -1.4399 -1.6272
  437MOL0     H60250   2.043   7.145   3.626  0.2102  0.1488  1.0064
  437MOL0     H60251   1.995   6.900   3.540  1.8884 -1.3310  0.5457
  437MOL0     H60252   1.887   6.880   3.654  0.1257 -0.7245 -3.4286
  437MOL0     H60253   2.038   6.942   3.851  0.0258  1.5995  0.3452
  437MOL0     H60254   2.079   6.793   3.752 -0.9785  1.4920 -2.6951
  437MOL0     H60255   2.280   7.041   3.912 -2.3255  0.2849 -0.6449
  437MOL0     H60256   2.529   7.213   3.659 -1.3144  0.2939 -1.5904
  437MOL0     H60257   2.549   7.142   3.831 -2.0960 -0.1574  1.0656
  437MOL0     H60258   2.355   7.309   3.906 -3.0826  0.0712 -2.5188
  437MOL0     H60259   2.498   7.387   3.818  0.1266  0.0631 -1.4438
  437MOL0     H60260   2.370   7.364   3.607 -0.7499 -0.5907 -1.0307
  437MOL0     H60261   2.223   7.335   3.701 -0.2416 -0.1293  0.3688
  437MOL0     H60262   2.246   7.557   3.632  0.5280 -0.2465  0.3982
  437MOL0     H60263   2.227   7.555   3.801 -3.3299 -0.0235 -2.0375
  437MOL0     H60264   2.501   7.480   3.530 -2.3849  1.0372 -3.3627
  437MOL0     H60265   2.630   7.446   3.335  0.0306 -1.0406 -0.1599
  437MOL0     H60266   2.776   7.417   3.424  1.5882  0.3854 -0.1735
  437MOL0     H60267   2.765   7.550   3.309 -3.3955  0.3015 -1.0413
  437MOL0     H60268   2.990   7.700   3.189 -0.2782 -0.8952  1.4063
  437MOL0     H60269   3.184   7.764   3.049  1.3152  2.2400 -0.8009
  437MOL0     H60270   3.334   8.201   3.074  1.0315 -1.9101  2.1013
  437MOL0     H60271   3.416   8.126   2.945 -1.9226 -2.2911 -1.4671
  437MOL0     H60272   3.205   8.124   2.799 -1.4627 -0.3134 -0.2450
  437MOL0     H60273   3.114   8.181   2.947  0.3786  2.0437  1.0762
  437MOL0     H60274   3.260   8.388   2.936  2.5491  0.0337 -0.4045
  437MOL0     H60275   3.144   8.366   2.821  0.6575 -1.4667 -2.2391
  437MOL0     H60276   3.297   8.275   2.648 -0.3328  1.1416 -0.6004
  437MOL0     H60277   3.431   8.267   2.760 -0.0201 -0.3188 -0.3629
  437MOL0     H60278   3.439   8.473   2.605  1.4701 -4.2388  0.1246
  437MOL0     H60279   3.292   8.538   2.682 -0.4693 -1.9992 -2.3629
  437MOL0     H60280   3.400   8.561   2.900  1.0526 -1.3948  0.5838
  437MOL0     H60281   3.503   8.628   2.758 -0.6297  1.3608  0.5930
  437MOL0     H60282   3.613   8.399   2.783 -1.5259 -0.7906 -0.7609
  437MOL0     H60283   3.520   8.383   2.930 -1.7593 -1.4420 -2.3618
  437MOL0     H60284   3.742   8.471   2.979  2.1994  1.3083 -0.5210
  437MOL0     H60285   3.626   8.583   3.025  3.4913 -1.1753  2.1023
  437MOL0     H60286   3.194   8.153   3.216  3.3655 -1.3700  1.3241
  437MOL0     H60287   2.983   8.104   3.352  1.3118 -0.3450  1.5200
  437MOL0     H60288   2.720   7.907   3.620  2.4859 -1.3505  0.0378
  437MOL0     H60289   2.551   7.823   3.782  1.0534  1.7200 -0.6750
  437MOL0     H60290   1.731   7.710   4.253  0.0730  0.8111  1.0091
  437MOL0     H60291   1.634   7.755   4.466  1.7664  0.2600 -1.5981
  437MOL0     H60292   1.306   7.660   4.768 -0.7064  1.9217 -0.2034
  437MOL0     H60293   1.181   7.675   4.964  0.0228 -3.5667 -0.1906
  437MOL0     H60294   1.346   7.535   5.342 -0.1693  0.1185  3.5940
  437MOL0     H60295   1.444   7.686   5.363  0.0115 -0.6244  4.6312
  437MOL0     H60296   1.281   7.801   5.470  1.8578 -0.6543  1.9891
  437MOL0     H60297   1.317   7.654   5.544  0.4988 -0.3682 -1.1423
  437MOL0     H60298   1.060   7.695   5.354  0.4597  1.8270 -0.0752
  437MOL0     H60299   1.111   7.549   5.403 -3.6511  0.1102 -0.7410
  437MOL0     H60300   1.051   7.772   5.613 -3.2977  1.7763 -2.3646
  437MOL0     H60301   1.073   7.592   5.643 -2.4516 -2.2046 -0.4292
  437MOL0     H60302   0.667   7.593   5.546  0.0823 -0.1589 -0.9833
  437MOL0     H60303   1.559   7.644   5.180  0.6005  0.2945 -0.0082
  437MOL0     H60304   1.758   7.540   4.928 -2.5302 -1.2344 -1.1193
  437MOL0     H60305   1.782   7.709   4.945  0.6284 -0.1543  1.3924
  437MOL0     H60306   1.769   7.610   5.082  5.6855  1.3985 -2.5726
  438MOL0     O60307   1.685   3.329   2.174 -0.2637  0.3584  0.1743
  438MOL0     C60308   1.665   3.298   2.292  0.0559  0.8667  0.6693
  438MOL0     O60309   1.760   3.295   2.385 -0.1438  0.6739  0.8046
  438MOL0     C60310   1.881   3.345   2.352 -0.2744  0.1631 -0.2811
  438MOL0     C60311   1.961   3.268   2.268  0.7148 -0.1611  0.2150
  438MOL0     C60312   2.098   3.295   2.258 -0.5154  0.7814  0.1600
  438MOL0     C60313   2.155   3.406   2.320 -0.8711  0.1920  0.3438
  438MOL0     O60314   2.294   3.431   2.319 -0.0053 -0.3755 -0.2357
  438MOL0     C60315   2.366   3.373   2.212 -0.2055  0.9663  0.4900
  438MOL0     C60316   2.475   3.462   2.169  0.7017 -0.2587  0.2198
  438MOL0     C60317   2.561   3.391   2.067 -0.5834  0.1839  1.7291
  438MOL0     C60318   2.676   3.486   2.023  0.9420 -0.5636  1.1665
  438MOL0     C60319   2.728   3.440   1.888  0.8036  0.2091 -0.5659
  438MOL0     C60320   2.852   3.519   1.856 -0.8814 -0.4928 -0.0358
  438MOL0     C60321   2.907   3.493   1.716  0.0627  0.6957  0.1849
  438MOL0     C60322   2.809   3.551   1.618 -0.2397  0.0331  0.2247
  438MOL0     N60323   2.877   3.565   1.485 -1.0529  0.3984 -0.9114
  438MOL0     C60324   2.865   3.467   1.380 -0.1259  0.3262  0.1135
  438MOL0     C60325   2.935   3.520   1.278  0.2558 -1.0302 -1.1752
  438MOL0     C60326   2.940   3.470   1.132  0.5043 -0.7259  0.3887
  438MOL0     C60327   2.953   3.593   1.040 -0.4093  0.0208  0.4163
  438MOL0     C60328   2.948   3.548   0.892 -0.1096 -0.8835  0.7319
  438MOL0     C60329   3.045   3.449   0.834 -0.8907  0.6748 -0.5067
  438MOL0     O60330   3.178   3.475   0.881  0.0884  0.2100 -0.0253
  438MOL0     C60331   3.285   3.392   0.838  0.1510 -0.0223  1.1361
  438MOL0     C60332   3.406   3.453   0.828 -0.3788 -0.8473  0.0127
  438MOL0     C60333   3.528   3.400   0.787  0.8391  0.2608 -0.4921
  438MOL0     C60334   3.637   3.491   0.800  0.2459  0.2123 -0.4813
  438MOL0     C60335   3.517   3.268   0.739 -0.0311  0.4069  0.5791
  438MOL0     C60336   3.640   3.201   0.681  0.3048 -0.3640 -0.1216
  438MOL0     O60337   3.762   3.256   0.708 -0.4221  0.5483 -0.4011
  438MOL0     C60338   3.876   3.202   0.659  0.4480 -0.1652 -0.4908
  438MOL0     C60339   3.993   3.268   0.689 -0.0028 -0.2216  0.3149
  438MOL0     C60340   4.121   3.237   0.643 -0.8604  0.9829 -0.3957
  438MOL0     C60341   4.133   3.123   0.555 -0.0596 -0.8265  0.0880
  438MOL0     O60342   4.258   3.084   0.509  0.1852 -0.0487  0.0745
  438MOL0     C60343   4.274   2.970   0.418 -0.3426  0.4390 -0.0282
  438MOL0     C60344   4.422   2.928   0.417  0.4764 -0.1529  0.3743
  438MOL0     C60345   4.445   2.804   0.326 -0.2599 -0.0043 -0.0857
  438MOL0     C60346   4.581   2.814   0.246  0.8124  0.4304 -0.1853
  438MOL0     C60347   4.633   2.662   0.205  0.6206 -0.5682 -0.1590
  438MOL0     C60348   4.759   2.669   0.123 -1.1709 -0.4079 -0.9493
  438MOL0     C60349   4.806   2.531   0.086 -0.4851 -0.1135 -0.0822
  438MOL0     C60350   4.731   2.458  -0.026  0.3320 -0.1120  0.7899
  438MOL0    Cl60351   4.811   2.290  -0.036 -0.4423 -0.0312  0.0897
  438MOL0     C60352   4.010   3.058   0.517 -0.0513 -0.3603  0.0603
  438MOL0     C60353   3.884   3.095   0.568 -0.5238  0.3406 -0.3379
  438MOL0     O60354   3.618   3.093   0.639  0.9095  0.2883 -0.1419
  438MOL0     C60355   3.398   3.196   0.746  0.7461  0.0724 -0.0963
  438MOL0     C60356   3.284   3.258   0.790  1.4633 -0.0814 -0.2481
  438MOL0     N60357   2.988   3.644   1.324  0.6041  0.6773  0.0963
  438MOL0     N60358   2.958   3.661   1.449 -0.5424  0.0409 -0.2632
  438MOL0     C60359   2.070   3.490   2.389 -0.5072 -0.6811 -0.2914
  438MOL0     C60360   1.933   3.462   2.411  0.0680 -0.7115  0.5099
  438MOL0     C60361   1.521   3.285   2.346  0.3266  0.4870  0.2589
  438MOL0     C60362   1.504   3.294   2.483 -0.2597 -0.1853  0.6031
  438MOL0     C60363   1.378   3.282   2.542 -0.1052 -0.2557  0.0712
  438MOL0     C60364   1.265   3.263   2.465  0.9864  0.7896 -0.6917
  438MOL0     O60365   1.134   3.262   2.511  0.1073 -0.1519 -0.9347
  438MOL0     C60366   1.122   3.286   2.654  0.6527 -1.6813 -0.8061
  438MOL0     C60367   0.970   3.319   2.681  0.7564  0.2429 -0.6020
  438MOL0     C60368   0.879   3.186   2.685 -0.5646 -0.5577 -0.4326
  438MOL0     C60369   0.751   3.230   2.739  1.8839  0.2050  0.4218
  438MOL0     C60370   0.748   3.249   2.878  0.2316  0.1267  0.5409
  438MOL0     C60371   0.730   3.252   3.000  0.4596  0.3330  0.5638
  438MOL0     C60372   1.284   3.258   2.329 -0.0776  0.6694 -0.0129
  438MOL0     C60373   1.410   3.269   2.265  0.5711  0.1816 -0.3804
  438MOL0     C60374   1.410   3.289   2.115 -0.2757  0.2817 -0.1256
  438MOL0     H60375   1.919   3.186   2.212  2.2773  0.7125 -2.4262
  438MOL0     H60376   2.157   3.233   2.191  0.8176 -0.4347  2.3475
  438MOL0     H60377   2.308   3.351   2.122  1.4294  1.7214 -0.7976
  438MOL0     H60378   2.397   3.273   2.243 -2.9712  1.1550  4.5982
  438MOL0     H60379   2.422   3.550   2.131 -0.1610 -1.4273 -1.3742
  438MOL0     H60380   2.539   3.493   2.253 -0.6474  3.5155  0.0698
  438MOL0     H60381   2.610   3.300   2.101 -1.1754 -1.6589 -1.8456
  438MOL0     H60382   2.502   3.367   1.978  3.9400 -0.7170 -1.3524
  438MOL0     H60383   2.642   3.587   2.002  1.5162 -0.6917 -0.5658
  438MOL0     H60384   2.755   3.483   2.099  0.0966  2.0879  2.2563
  438MOL0     H60385   2.650   3.448   1.812  0.9769 -1.4396 -0.9577
  438MOL0     H60386   2.750   3.333   1.901  0.4089  0.3243  1.3662
  438MOL0     H60387   2.829   3.626   1.851  0.2544 -0.2980 -1.5369
  438MOL0     H60388   2.934   3.506   1.927  0.3747  0.0919 -1.3329
  438MOL0     H60389   2.916   3.384   1.709  1.9151  0.7501  1.1273
  438MOL0     H60390   3.008   3.532   1.710  0.6058 -0.8145 -1.0522
  438MOL0     H60391   2.725   3.483   1.602 -1.9491  2.2619 -0.8373
  438MOL0     H60392   2.776   3.650   1.652 -0.2837  0.2144 -0.3411
  438MOL0     H60393   2.811   3.373   1.378  1.8628 -0.8795  0.1718
  438MOL0     H60394   2.846   3.416   1.124 -0.8701  1.5618  0.2353
  438MOL0     H60395   3.018   3.396   1.110  1.1603 -0.1048  0.5794
  438MOL0     H60396   2.865   3.656   1.058  0.0553  0.1511  2.4598
  438MOL0     H60397   3.046   3.649   1.051 -0.5567  0.0907  1.4059
  438MOL0     H60398   2.847   3.512   0.870  0.4816 -0.9855 -2.1394
  438MOL0     H60399   2.956   3.642   0.836  0.9509 -0.4339  1.6156
  438MOL0     H60400   3.018   3.345   0.853 -0.2027 -0.0210 -2.8758
  438MOL0     H60401   3.027   3.470   0.728  1.2400 -1.2128 -1.3328
  438MOL0     H60402   3.409   3.553   0.868  1.8859 -1.2078  0.8886
  438MOL0     H60403   3.681   3.511   0.702  0.6207 -1.0100 -0.5680
  438MOL0     H60404   3.724   3.448   0.851  0.9759  1.0560 -0.9778
  438MOL0     H60405   3.606   3.587   0.843 -3.2306 -0.9942 -0.0028
  438MOL0     H60406   4.008   3.361   0.744  0.2250 -1.5322  2.6065
  438MOL0     H60407   4.210   3.290   0.675  0.2448 -0.7295 -0.4851
  438MOL0     H60408   4.210   2.888   0.453  1.9212 -1.4401 -0.0346
  438MOL0     H60409   4.245   3.005   0.318 -1.9396  0.1214  0.3002
  438MOL0     H60410   4.491   3.006   0.383  1.1084 -1.0084 -0.3507
  438MOL0     H60411   4.456   2.894   0.515  0.4857 -2.1747 -0.2783
  438MOL0     H60412   4.364   2.787   0.255  1.4840 -1.8979 -1.7575
  438MOL0     H60413   4.446   2.707   0.378  2.3907  0.1236  0.2454
  438MOL0     H60414   4.658   2.862   0.306  0.6331 -0.3988  0.7431
  438MOL0     H60415   4.567   2.875   0.156 -0.0292  1.8695  0.9004
  438MOL0     H60416   4.635   2.601   0.296 -1.6502 -1.8262 -0.8602
  438MOL0     H60417   4.558   2.617   0.139  0.8236 -2.0009  0.5379
  438MOL0     H60418   4.844   2.714   0.175 -0.5901 -3.2152  0.7496
  438MOL0     H60419   4.743   2.729   0.033 -0.1230 -0.4521 -1.1842
  438MOL0     H60420   4.793   2.472   0.177 -0.3547  0.2251  0.1564
  438MOL0     H60421   4.913   2.541   0.069 -0.5037  1.9049  0.7449
  438MOL0     H60422   4.734   2.502  -0.126  0.0773 -0.2226  0.7320
  438MOL0     H60423   4.625   2.453   0.001  0.5781  2.3337  2.5423
  438MOL0     H60424   4.007   2.973   0.449 -1.5263 -1.7149  1.7084
  438MOL0     H60425   3.801   3.040   0.524 -1.1812  2.1995 -1.5743
  438MOL0     H60426   3.399   3.091   0.721  0.9413 -0.2432  1.1717
  438MOL0     H60427   3.195   3.196   0.783  2.6377 -1.6329 -3.7171
  438MOL0     H60428   2.112   3.574   2.443  0.4732 -0.4674 -1.3474
  438MOL0     H60429   1.861   3.523   2.464  1.5772  3.4782 -1.8411
  438MOL0     H60430   1.590   3.321   2.544 -0.0963  1.7010 -0.3943
  438MOL0     H60431   1.389   3.291   2.650 -0.4034  0.5806  0.0382
  438MOL0     H60432   1.153   3.196   2.707 -0.9922 -1.8200 -0.0084
  438MOL0     H60433   1.184   3.372   2.681 -0.9444 -1.0011  0.9716
  438MOL0     H60434   0.935   3.402   2.620  1.0176  2.4554  2.0520
  438MOL0     H60435   0.981   3.364   2.780 -0.1308  2.1556 -1.3383
  438MOL0     H60436   0.873   3.145   2.584 -1.6870  0.5503 -0.8481
  438MOL0     H60437   0.946   3.124   2.744  1.0926  0.5337 -1.1023
  438MOL0     H60438   0.666   3.172   2.702 -0.2350  2.8460  0.8496
  438MOL0     H60439   0.725   3.327   2.695  3.9957  1.6426  2.1244
  438MOL0     H60440   0.709   3.266   3.104  1.6482  0.1654  0.8318
  438MOL0     H60441   1.187   3.255   2.281 -1.1109  1.4878  1.9463
  438MOL0     H60442   1.412   3.396   2.093  0.3870  0.1594 -0.6889
  438MOL0     H60443   1.494   3.238   2.066 -0.1437  1.8836 -1.6747
  438MOL0     H60444   1.324   3.238   2.070  0.8907  1.3459 -3.9394
  439MOL0     O60445   0.905   9.107   9.038 -0.2370 -0.2332  0.3881
  439MOL0     C60446   0.857   9.198   8.971 -0.4496 -0.6619 -0.0611
  439MOL0     O60447   0.736   9.193   8.901 -0.9039  0.4097 -0.1961
  439MOL0     C60448   0.656   9.081   8.935 -0.6343 -1.1180 -0.0002
  439MOL0     C60449   0.528   9.118   8.972  0.0079  1.0602 -0.9895
  439MOL0     C60450   0.421   9.020   8.998 -0.1213 -0.2579  0.6408
  439MOL0     C60451   0.456   8.883   8.967 -0.5086  0.2969  0.1198
  439MOL0     O60452   0.374   8.773   9.003 -0.6475  0.6798  0.3832
  439MOL0     C60453   0.254   8.792   9.076 -0.1490  0.2467  1.0001
  439MOL0     C60454   0.224   8.644   9.113  0.4664 -0.5284 -0.9083
  439MOL0     C60455   0.069   8.628   9.144  0.6537  0.0866 -0.0092
  439MOL0     C60456   0.032   8.685   9.276  0.5879 -0.4524 -0.2087
  439MOL0     C60457  -0.126   8.693   9.316 -0.3675 -1.0122  0.0852
  439MOL0     C60458  -0.187   8.825   9.253  0.1726 -0.0967  0.2293
  439MOL0     C60459  -0.341   8.840   9.269  1.0583 -0.4083  0.8323
  439MOL0     C60460  -0.398   8.969   9.218  0.7423 -0.1872  0.2034
  439MOL0     N60461  -0.537   8.984   9.261 -0.3214  0.2651 -0.0682
  439MOL0     C60462  -0.557   9.029   9.383  0.7969  0.0907 -0.5601
  439MOL0     C60463  -0.697   9.023   9.395  0.8234  0.2555  0.6553
  439MOL0     C60464  -0.780   9.066   9.506  0.0508  0.2883 -0.1233
  439MOL0     C60465  -0.708   9.147   9.617 -0.5977  0.1283  0.3801
  439MOL0     C60466  -0.802   9.191   9.737  0.1726  0.2611  0.1954
  439MOL0     C60467  -0.861   9.066   9.820  0.4566 -0.1344  0.9520
  439MOL0     O60468  -0.758   8.969   9.843  0.7394 -0.0544 -0.7658
  439MOL0     C60469  -0.807   8.838   9.856 -0.1230  0.7334  0.0175
  439MOL0     C60470  -0.922   8.806   9.927  0.7009 -0.1598  0.2551
  439MOL0     C60471  -0.957   8.671   9.949 -0.0154  0.3920  0.2636
  439MOL0     C60472  -1.077   8.649  10.044  0.3134 -0.5574 -0.1596
  439MOL0     C60473  -0.894   8.566   9.874 -0.1061 -0.7964 -0.9840
  439MOL0     C60474  -0.915   8.425   9.899 -0.1350 -0.3269 -0.3382
  439MOL0     O60475  -0.855   8.336   9.802 -0.1137  0.0920 -0.0139
  439MOL0     C60476  -0.877   8.209   9.829  0.1910  0.2224  0.0651
  439MOL0     C60477  -0.799   8.142   9.927  0.0427 -0.4360  0.1183
  439MOL0     C60478  -0.824   8.003   9.956  0.3551 -0.3108 -0.7332
  439MOL0     C60479  -0.915   7.928   9.887  0.5861 -0.3135 -0.3182
  439MOL0     O60480  -0.921   7.797   9.917  0.0618  0.2381  0.0207
  439MOL0     C60481  -0.816   7.714   9.881 -0.2775  1.3259  1.0729
  439MOL0     C60482  -0.839   7.574   9.946 -0.3588  0.4443 -0.1136
  439MOL0     C60483  -0.979   7.515   9.941 -0.0046  0.3082 -0.4346
  439MOL0     C60484  -0.981   7.366   9.940  0.5347  0.2346 -0.5090
  439MOL0     C60485  -1.121   7.298   9.942  0.1333 -0.5399 -0.4029
  439MOL0     C60486  -1.191   7.328   9.813  0.5076 -0.7961  0.1314
  439MOL0     C60487  -1.334   7.282   9.839  0.1695 -0.4366 -0.1127
  439MOL0     C60488  -1.426   7.318   9.724 -0.8356 -0.4451  0.1265
  439MOL0    Cl60489  -1.389   7.216   9.579 -0.1484  0.2362  0.3760
  439MOL0     C60490  -0.994   7.995   9.796  0.1754 -0.7279  0.5581
  439MOL0     C60491  -0.976   8.129   9.768 -0.6137  0.3393  0.1162
  439MOL0     O60492  -0.970   8.394  10.001 -0.1317 -0.0118 -0.3734
  439MOL0     C60493  -0.783   8.604   9.793  0.8687  0.5258 -0.4962
  439MOL0     C60494  -0.737   8.734   9.786  1.0366  0.7123  0.7548
  439MOL0     N60495  -0.752   8.976   9.267 -0.3998 -0.6706  0.1750
  439MOL0     N60496  -0.650   8.958   9.189 -0.1860  0.5789  0.1187
  439MOL0     C60497   0.581   8.850   8.925 -0.1358  1.1747  0.0981
  439MOL0     C60498   0.679   8.947   8.901  0.4593 -0.1709  0.8948
  439MOL0     C60499   0.952   9.314   8.951 -0.2175 -0.2641 -0.2713
  439MOL0     C60500   0.943   9.383   8.829 -1.0331  0.6683  0.7421
  439MOL0     C60501   1.031   9.489   8.796  0.5360 -0.4296  0.2652
  439MOL0     C60502   1.122   9.534   8.884  0.6747 -0.6369 -0.3818
  439MOL0     O60503   1.213   9.636   8.858 -0.0454  0.0906  0.4269
  439MOL0     C60504   1.217   9.689   8.725  0.6738  0.1396  0.1146
  439MOL0     C60505   1.282   9.823   8.720 -0.5036 -0.3259  0.8861
  439MOL0     C60506   1.430   9.817   8.729 -0.7254 -0.7523 -0.1912
  439MOL0     C60507   1.503   9.956   8.766 -0.4490  0.4109 -0.6620
  439MOL0     C60508   1.502   9.983   8.912 -0.7860  0.4080  0.2381
  439MOL0     C60509   1.486   9.985   9.029 -0.8246  0.2086 -0.0708
  439MOL0     C60510   1.123   9.471   9.008 -0.1329 -0.5952  1.2101
  439MOL0     C60511   1.046   9.364   9.040  0.3808  0.9840 -0.1844
  439MOL0     C60512   1.048   9.316   9.190 -0.2043  0.6082  0.9655
  439MOL0     H60513   0.510   9.220   9.003  1.0220  0.6915  0.9877
  439MOL0     H60514   0.323   9.041   9.038 -0.7613  1.7843 -1.7739
  439MOL0     H60515   0.182   8.827   9.002  0.9945  0.5495 -0.0213
  439MOL0     H60516   0.264   8.858   9.163 -0.9170  1.0128  0.5216
  439MOL0     H60517   0.234   8.576   9.028 -4.4746 -0.7119 -1.6420
  439MOL0     H60518   0.287   8.610   9.195  0.2415  1.1635  0.0334
  439MOL0     H60519   0.007   8.668   9.063 -0.3212 -1.0196  0.1590
  439MOL0     H60520   0.042   8.522   9.146 -1.5834  0.5813 -0.6884
  439MOL0     H60521   0.080   8.614   9.344 -0.2553 -0.4301  0.4273
  439MOL0     H60522   0.075   8.783   9.298 -0.1696 -0.0758 -0.3725
  439MOL0     H60523  -0.130   8.691   9.425  2.3830  1.5798  0.3862
  439MOL0     H60524  -0.181   8.603   9.287  2.2499 -2.8024  0.3169
  439MOL0     H60525  -0.156   8.913   9.310 -1.6213  1.0597 -0.4801
  439MOL0     H60526  -0.162   8.838   9.147  1.8192  0.8612  0.7056
  439MOL0     H60527  -0.382   8.808   9.365  1.2077 -5.9142 -0.6411
  439MOL0     H60528  -0.385   8.768   9.200 -1.6153  1.3812  0.5275
  439MOL0     H60529  -0.340   9.048   9.267  3.3700 -1.8499 -0.0582
  439MOL0     H60530  -0.397   8.987   9.110  1.7651 -1.6275 -0.0560
  439MOL0     H60531  -0.480   9.063   9.452 -0.3112 -0.8457  1.2176
  439MOL0     H60532  -0.820   8.975   9.550  1.9969  0.5216  2.3673
  439MOL0     H60533  -0.863   9.131   9.475  1.0768  2.1216  0.7650
  439MOL0     H60534  -0.613   9.101   9.645 -0.5922  0.6481  1.2541
  439MOL0     H60535  -0.676   9.242   9.573 -1.4904  0.6373  0.7990
  439MOL0     H60536  -0.738   9.253   9.801  0.5289  0.9876 -0.8474
  439MOL0     H60537  -0.878   9.263   9.708  0.5331  1.0225  1.0571
  439MOL0     H60538  -0.895   9.108   9.915  1.0201 -0.5202  1.3311
  439MOL0     H60539  -0.956   9.027   9.781 -0.1296 -2.2672  4.1589
  439MOL0     H60540  -0.975   8.890   9.970  1.5643  0.1810  0.6865
  439MOL0     H60541  -1.130   8.744  10.063 -1.2400 -1.5562  0.7180
  439MOL0     H60542  -1.054   8.602  10.140 -2.5971  0.0865  0.9793
  439MOL0     H60543  -1.146   8.578   9.998  1.5814 -1.0625 -1.3511
  439MOL0     H60544  -0.735   8.202   9.991  0.6530  3.1881 -3.4585
  439MOL0     H60545  -0.782   7.954  10.044  0.2430 -1.7933 -1.4754
  439MOL0     H60546  -0.818   7.710   9.772 -1.4702 -0.5010  1.1150
  439MOL0     H60547  -0.723   7.757   9.920  0.1755  1.6977 -0.3482
  439MOL0     H60548  -0.770   7.508   9.893  0.9277 -0.7891  2.8456
  439MOL0     H60549  -0.798   7.568  10.047  1.1433 -0.5107 -0.7384
  439MOL0     H60550  -1.026   7.566   9.856  0.1407  4.3288  1.6246
  439MOL0     H60551  -1.026   7.553  10.033 -0.0279  1.9386 -1.0821
  439MOL0     H60552  -0.930   7.339  10.033 -1.1615 -0.8037  0.1804
  439MOL0     H60553  -0.921   7.320   9.861  4.3542 -1.0766  2.8294
  439MOL0     H60554  -1.119   7.190   9.963  0.3252 -0.4464  0.0793
  439MOL0     H60555  -1.180   7.342  10.022  0.7878 -0.0313 -0.1942
  439MOL0     H60556  -1.149   7.272   9.729 -1.0057 -4.7209  1.7792
  439MOL0     H60557  -1.185   7.434   9.785 -1.6968 -0.6256  0.1534
  439MOL0     H60558  -1.365   7.337   9.928 -2.0408  1.3311 -1.8685
  439MOL0     H60559  -1.343   7.173   9.845  0.1163 -0.5183 -1.3935
  439MOL0     H60560  -1.410   7.423   9.697  1.6298 -0.4515  1.3478
  439MOL0     H60561  -1.532   7.305   9.750 -2.2152  0.5866 -4.1413
  439MOL0     H60562  -1.077   7.939   9.752 -0.7262  0.5195  0.6371
  439MOL0     H60563  -1.051   8.186   9.714  3.3383  1.7946 -4.5778
  439MOL0     H60564  -0.710   8.526   9.773  0.8888 -0.5357  3.0310
  439MOL0     H60565  -0.646   8.755   9.730 -0.2435 -1.3756 -2.3679
  439MOL0     H60566   0.590   8.742   8.923 -0.6475  1.1277  0.0129
  439MOL0     H60567   0.776   8.914   8.864  1.5502  1.6970  1.9017
  439MOL0     H60568   0.866   9.356   8.757  2.1745 -1.0425 -2.3801
  439MOL0     H60569   1.015   9.539   8.701 -0.7346 -0.5039  0.4111
  439MOL0     H60570   1.258   9.625   8.647 -0.7080  1.4584 -1.7920
  439MOL0     H60571   1.116   9.719   8.693  2.8227  4.8476 -3.5568
  439MOL0     H60572   1.236   9.885   8.798 -2.5411 -1.8546  0.9684
  439MOL0     H60573   1.255   9.872   8.625  1.9725 -0.2274  0.1558
  439MOL0     H60574   1.451   9.750   8.813 -0.5331  1.7067  1.8553
  439MOL0     H60575   1.473   9.784   8.635  1.1350  5.4962 -2.0628
  439MOL0     H60576   1.459  10.033   8.704 -1.2531 -0.1198 -0.7615
  439MOL0     H60577   1.604   9.936   8.727 -0.8259 -0.3239 -1.2922
  439MOL0     H60578   1.470  10.011   9.131  0.2507 -1.2256  0.4885
  439MOL0     H60579   1.195   9.520   9.074 -0.5168  2.2404 -0.2970
  439MOL0     H60580   1.098   9.218   9.193 -0.7178  0.3429  1.0502
  439MOL0     H60581   1.108   9.376   9.259 -0.8506  1.4661  0.7875
  439MOL0     H60582   0.943   9.308   9.219  0.1045 -1.3760  1.7285
  440MOL0     O60583   1.984   9.303   5.296 -0.1105  1.0796 -0.9860
  440MOL0     C60584   1.883   9.346   5.346 -0.3141  0.2711  0.1160
  440MOL0     O60585   1.804   9.429   5.281 -0.2871  0.4414 -0.2978
  440MOL0     C60586   1.838   9.463   5.150 -0.6792 -1.1090 -0.2014
  440MOL0     C60587   1.840   9.593   5.113 -0.1438 -0.5037  0.3679
  440MOL0     C60588   1.865   9.639   4.984 -0.0958 -0.2823  0.1534
  440MOL0     C60589   1.894   9.549   4.883  0.0963  0.2461  0.3287
  440MOL0     O60590   1.913   9.594   4.752  0.0317  0.2085 -0.0832
  440MOL0     C60591   2.039   9.552   4.687  0.5547 -0.7192 -1.2078
  440MOL0     C60592   2.060   9.607   4.547  0.0557 -0.7312  0.4040
  440MOL0     C60593   1.961   9.539   4.439  0.2898  0.1912 -0.0066
  440MOL0     C60594   1.971   9.606   4.296  0.2306  0.3443 -0.4144
  440MOL0     C60595   1.877   9.732   4.279  0.7694  0.2090  0.4048
  440MOL0     C60596   1.851   9.765   4.135 -0.6109  0.5035 -0.2179
  440MOL0     C60597   1.744   9.867   4.126  0.6707  0.4099  0.5687
  440MOL0     C60598   1.712   9.921   3.980  0.4176 -0.6366 -0.6110
  440MOL0     N60599   1.586   9.994   3.986 -0.1773 -0.2040 -0.3355
  440MOL0     C60600   1.561  10.125   4.031 -0.4584  0.0383  0.3596
  440MOL0     C60601   1.439  10.156   3.980  0.0675 -0.7583  1.0157
  440MOL0     C60602   1.390  10.300   3.992 -0.4753 -0.3389 -0.2730
  440MOL0     C60603   1.301  10.312   4.118 -0.5051 -0.2472  1.2100
  440MOL0     C60604   1.308  10.444   4.186  0.1166  0.3190 -0.8521
  440MOL0     C60605   1.245  10.435   4.333 -0.0778 -0.0736 -0.4907
  440MOL0     O60606   1.108  10.417   4.319  0.1782  0.2644 -0.4839
  440MOL0     C60607   1.024  10.461   4.418  0.2420  0.6496  0.1111
  440MOL0     C60608   1.058  10.508   4.548  1.0141  0.5282  0.1205
  440MOL0     C60609   0.960  10.554   4.644 -0.7154  0.6138  0.0416
  440MOL0     C60610   1.005  10.599   4.789 -0.3990  0.0868 -0.6537
  440MOL0     C60611   0.830  10.564   4.607  0.3331 -0.0637 -0.4254
  440MOL0     C60612   0.724  10.640   4.684 -0.5202  0.9572  0.4147
  440MOL0     O60613   0.754  10.762   4.744 -0.3250  0.0851  0.1085
  440MOL0     C60614   0.664  10.822   4.833 -0.2722  0.3552 -0.0042
  440MOL0     C60615   0.722  10.876   4.949 -0.6379 -0.5050 -0.6014
  440MOL0     C60616   0.631  10.953   5.027 -0.7476  1.2398  0.5015
  440MOL0     C60617   0.497  10.985   4.996 -0.8801  0.0387  0.5844
  440MOL0     O60618   0.428  11.040   5.103 -0.4910 -0.2589  0.9155
  440MOL0     C60619   0.325  11.131   5.055 -0.2902  0.0275 -0.0854
  440MOL0     C60620   0.321  11.249   5.146 -0.0858 -0.6206 -0.2344
  440MOL0     C60621   0.300  11.220   5.295  0.4191  0.8565 -0.9039
  440MOL0     C60622   0.174  11.131   5.324 -1.6222 -0.3970  0.1576
  440MOL0     C60623   0.159  11.121   5.487 -0.2972 -0.3949 -0.0524
  440MOL0     C60624   0.163  11.246   5.568  0.2763 -0.0039  0.2049
  440MOL0     C60625   0.108  11.221   5.712 -0.2950  0.1519 -0.3189
  440MOL0     C60626   0.098  11.352   5.785  0.6846 -0.2427  0.3080
  440MOL0    Cl60627  -0.021  11.456   5.708 -0.2886  0.1000  0.3316
  440MOL0     C60628   0.462  10.950   4.876  0.3175  0.4250  0.3614
  440MOL0     C60629   0.538  10.862   4.795 -1.0433  0.1794 -0.7043
  440MOL0     O60630   0.617  10.584   4.684  0.6365  0.2807 -0.4211
  440MOL0     C60631   0.796  10.528   4.477  0.3126  0.8183  0.6630
  440MOL0     C60632   0.886  10.459   4.391 -0.2098  0.4586  0.3914
  440MOL0     N60633   1.384  10.043   3.931  0.6725 -0.2332 -0.8459
  440MOL0     N60634   1.467   9.948   3.932  0.2907 -0.2572 -0.4449
  440MOL0     C60635   1.869   9.414   4.912 -0.5703 -0.0465  0.1887
  440MOL0     C60636   1.849   9.377   5.044  0.3375  0.2691  0.5569
  440MOL0     C60637   1.840   9.314   5.482  1.1422  0.5054  0.3974
  440MOL0     C60638   1.786   9.418   5.554  0.1436  0.2182  0.4225
  440MOL0     C60639   1.739   9.409   5.687  0.1817  0.4029  0.1854
  440MOL0     C60640   1.743   9.286   5.755  0.0994  0.1526 -0.2162
  440MOL0     O60641   1.693   9.269   5.887  0.1429 -0.5793 -0.1256
  440MOL0     C60642   1.585   9.358   5.925  0.1204 -0.3537  0.0821
  440MOL0     C60643   1.643   9.484   6.000 -0.5551  0.3297 -0.7017
  440MOL0     C60644   1.745   9.438   6.118 -0.0992  0.8971  0.8444
  440MOL0     C60645   1.780   9.549   6.207  0.0722 -0.3428 -0.3724
  440MOL0     C60646   1.822   9.671   6.140 -0.8816  0.4729 -0.5978
  440MOL0     C60647   1.844   9.771   6.078  0.2873 -0.2920  0.9648
  440MOL0     C60648   1.818   9.189   5.690  0.5303 -0.2075  0.4690
  440MOL0     C60649   1.863   9.191   5.552  0.9353 -0.0426  0.0904
  440MOL0     C60650   1.934   9.077   5.483  0.1448  0.6605  0.3083
  440MOL0     H60651   1.832   9.662   5.197 -0.2947  1.6438 -1.3323
  440MOL0     H60652   1.871   9.745   4.960 -0.2718 -0.1402  0.7143
  440MOL0     H60653   2.046   9.443   4.688 -1.1495 -0.8588  0.1236
  440MOL0     H60654   2.121   9.586   4.751  0.0883 -0.2297 -0.8694
  440MOL0     H60655   2.044   9.715   4.540 -0.6585 -0.9054 -1.3328
  440MOL0     H60656   2.165   9.599   4.517 -1.0014 -3.8800 -3.3748
  440MOL0     H60657   1.983   9.433   4.426  3.7496  0.9982 -2.0366
  440MOL0     H60658   1.858   9.552   4.472  0.1732  1.8978 -0.9253
  440MOL0     H60659   2.074   9.641   4.288  0.0949  0.5427 -1.4180
  440MOL0     H60660   1.956   9.536   4.214  0.6011 -0.4788  0.2075
  440MOL0     H60661   1.917   9.821   4.329  0.5565  1.7421 -1.9793
  440MOL0     H60662   1.782   9.697   4.320  0.8398  0.6085  0.9162
  440MOL0     H60663   1.943   9.801   4.089  0.0111  3.1307  2.7187
  440MOL0     H60664   1.818   9.670   4.092  1.5533 -0.7780  0.7783
  440MOL0     H60665   1.777   9.950   4.189 -0.7002  0.1086  1.7159
  440MOL0     H60666   1.657   9.830   4.180 -0.0777  2.2481  0.6842
  440MOL0     H60667   1.797   9.980   3.943  1.5558 -2.1818 -0.5934
  440MOL0     H60668   1.692   9.838   3.911  1.6265 -0.7568 -0.8486
  440MOL0     H60669   1.631  10.203   4.062 -0.3085  0.4581 -0.9795
  440MOL0     H60670   1.339  10.325   3.899  3.4553  0.5650 -2.4012
  440MOL0     H60671   1.472  10.372   4.000 -1.0659  0.3445 -0.2592
  440MOL0     H60672   1.197  10.296   4.087 -0.7526  0.4828  1.6500
  440MOL0     H60673   1.331  10.230   4.184  0.1702 -1.7972 -0.9123
  440MOL0     H60674   1.410  10.482   4.196 -0.0835  0.3131  5.6335
  440MOL0     H60675   1.244  10.509   4.126 -2.1736 -2.0477 -1.1466
  440MOL0     H60676   1.298  10.359   4.392  1.9752  2.2002  0.7943
  440MOL0     H60677   1.258  10.535   4.377  1.1591 -0.0371 -0.9040
  440MOL0     H60678   1.161  10.501   4.582  1.1214 -1.4410 -0.4814
  440MOL0     H60679   1.101  10.648   4.771 -0.9398  1.1238 -0.8072
  440MOL0     H60680   1.015  10.510   4.852 -1.4530 -0.4984 -1.2761
  440MOL0     H60681   0.944  10.675   4.838  0.4558  0.5051 -0.2195
  440MOL0     H60682   0.824  10.852   4.974 -0.4762  0.1545 -0.6193
  440MOL0     H60683   0.675  10.983   5.122  2.1297 -0.8270 -0.0431
  440MOL0     H60684   0.334  11.164   4.951  0.1060  2.0604  0.5411
  440MOL0     H60685   0.227  11.083   5.063 -2.2620  3.4430 -1.5660
  440MOL0     H60686   0.413  11.303   5.122 -0.3717 -0.5794 -1.2919
  440MOL0     H60687   0.236  11.309   5.114 -0.2654 -0.3755  0.6669
  440MOL0     H60688   0.296  11.317   5.344  0.1964  2.1969 -3.3783
  440MOL0     H60689   0.383  11.163   5.338  1.1591  1.8750 -0.9471
  440MOL0     H60690   0.193  11.032   5.282  0.3863  1.4767 -3.9563
  440MOL0     H60691   0.085  11.177   5.281  1.5590  5.4773 -1.1640
  440MOL0     H60692   0.059  11.080   5.505 -0.3299 -0.1934  0.2233
  440MOL0     H60693   0.231  11.049   5.526  2.9982  1.8260 -1.5302
  440MOL0     H60694   0.121  11.327   5.507  2.5508  1.3643  0.3112
  440MOL0     H60695   0.268  11.278   5.577 -0.4039  1.8864  2.0942
  440MOL0     H60696   0.181  11.154   5.760  0.2368  2.6857  2.7298
  440MOL0     H60697   0.010  11.173   5.711  0.3769 -1.3242  0.0445
  440MOL0     H60698   0.192  11.408   5.785 -0.0370  0.9996  0.6917
  440MOL0     H60699   0.057  11.334   5.885 -0.0734  0.2471  0.0905
  440MOL0     H60700   0.366  10.979   4.834 -0.5467  0.1420  2.0767
  440MOL0     H60701   0.501  10.807   4.708 -1.9189 -0.0199 -0.2168
  440MOL0     H60702   0.691  10.540   4.449  0.8749 -0.2566 -2.2415
  440MOL0     H60703   0.841  10.417   4.301 -3.0339  4.0670 -0.1433
  440MOL0     H60704   1.879   9.326   4.848 -0.2164  1.1130 -1.4156
  440MOL0     H60705   1.849   9.271   5.066  1.3404  0.2688  0.6110
  440MOL0     H60706   1.775   9.511   5.499 -0.4683 -0.0482  0.0831
  440MOL0     H60707   1.691   9.494   5.733  2.5498  1.0623  1.5843
  440MOL0     H60708   1.518   9.396   5.848 -2.2100  1.4445  2.7899
  440MOL0     H60709   1.518   9.315   6.000  2.8760 -1.4448  2.0798
  440MOL0     H60710   1.558   9.534   6.047  0.7477  1.6031  0.4269
  440MOL0     H60711   1.698   9.557   5.940  0.0467 -1.4363 -2.3871
  440MOL0     H60712   1.702   9.355   6.175  0.6269 -1.3183 -1.5781
  440MOL0     H60713   1.826   9.395   6.058 -1.9028 -1.3453 -0.1597
  440MOL0     H60714   1.864   9.520   6.271  0.4300 -1.0589 -1.1432
  440MOL0     H60715   1.697   9.581   6.270 -0.5022 -1.7058 -0.4024
  440MOL0     H60716   1.861   9.853   6.011 -1.8142 -2.3231 -2.2704
  440MOL0     H60717   1.838   9.098   5.747  1.9809  0.0481  0.4137
  440MOL0     H60718   1.924   8.999   5.559 -1.7868 -0.4874 -1.0292
  440MOL0     H60719   1.872   9.051   5.397 -0.8566  2.8486  0.3056
  440MOL0     H60720   2.040   9.091   5.460  0.2149 -0.3588 -0.0462
  441MOL0     O60721   0.821   1.692   2.562 -0.2190 -0.3519 -0.5553
  441MOL0     C60722   0.879   1.695   2.453  0.3544  1.0508 -0.0456
  441MOL0     O60723   0.832   1.640   2.338  0.2136 -0.3172 -0.2562
  441MOL0     C60724   0.748   1.534   2.372 -0.2869  0.1896  0.0344
  441MOL0     C60725   0.784   1.400   2.372 -0.6598  0.5291 -0.1446
  441MOL0     C60726   0.699   1.295   2.403 -0.4566  0.8307 -0.6156
  441MOL0     C60727   0.559   1.324   2.443 -0.1044  0.5875 -0.5632
  441MOL0     O60728   0.469   1.226   2.486 -0.0412 -0.1944  0.7659
  441MOL0     C60729   0.524   1.105   2.534  0.1020  1.1238 -0.2321
  441MOL0     C60730   0.595   1.130   2.673 -0.0410 -0.1326 -0.6544
  441MOL0     C60731   0.642   0.999   2.726  0.3470  0.3043 -0.1283
  441MOL0     C60732   0.790   0.962   2.700 -0.2031  0.0143 -0.1500
  441MOL0     C60733   0.803   0.818   2.739  0.2852  0.1612 -0.5176
  441MOL0     C60734   0.946   0.777   2.749 -1.0337 -0.6403 -0.8469
  441MOL0     C60735   0.987   0.635   2.776 -0.3963 -0.4351  0.4382
  441MOL0     C60736   1.117   0.582   2.707  0.5079 -0.7258 -0.7464
  441MOL0     N60737   1.238   0.656   2.756 -0.1001 -0.2055  1.1515
  441MOL0     C60738   1.274   0.661   2.882  0.4459 -0.1527 -0.1255
  441MOL0     C60739   1.381   0.742   2.889  0.2435 -0.9973 -0.4790
  441MOL0     C60740   1.430   0.790   3.026  0.2471 -0.5554 -0.0471
  441MOL0     C60741   1.334   0.892   3.097  0.1238  0.2984  0.4239
  441MOL0     C60742   1.385   0.939   3.226 -0.5803  0.0241  0.3603
  441MOL0     C60743   1.385   0.824   3.332 -0.1318  0.2052 -1.1599
  441MOL0     O60744   1.439   0.872   3.446  0.0847  1.3076 -0.5685
  441MOL0     C60745   1.579   0.871   3.459  0.5263  0.8651 -0.1124
  441MOL0     C60746   1.618   0.907   3.587  0.1991 -0.1185  0.6721
  441MOL0     C60747   1.753   0.914   3.611 -0.4191 -0.5957  0.7958
  441MOL0     C60748   1.778   0.944   3.757 -0.1491  0.0010 -0.5205
  441MOL0     C60749   1.859   0.877   3.521  0.3075  0.0468 -0.1433
  441MOL0     C60750   2.007   0.870   3.540  0.5448 -0.3105 -0.0444
  441MOL0     O60751   2.049   0.923   3.652 -0.5599 -0.6219  0.7732
  441MOL0     C60752   2.177   0.956   3.671 -0.0762 -0.4646  0.0360
  441MOL0     C60753   2.278   0.861   3.679  0.4748  0.4768  0.0366
  441MOL0     C60754   2.410   0.900   3.700  0.2229 -0.1891  0.1979
  441MOL0     C60755   2.441   1.036   3.716 -0.7338 -0.3419 -0.4162
  441MOL0     O60756   2.576   1.072   3.726  0.0175 -0.7003 -0.4595
  441MOL0     C60757   2.619   1.116   3.859  0.3664  0.0275 -0.0572
  441MOL0     C60758   2.701   1.010   3.930 -0.5139  0.1306  0.1546
  441MOL0     C60759   2.817   0.945   3.850  0.4246  0.0534  0.5304
  441MOL0     C60760   2.923   1.045   3.791  0.0331  0.6869 -0.4046
  441MOL0     C60761   3.003   1.118   3.906  0.5957  0.6839  0.3086
  441MOL0     C60762   3.086   1.231   3.844  0.2904 -0.4017 -0.2622
  441MOL0     C60763   3.187   1.283   3.948 -0.5842 -0.1404  0.3811
  441MOL0     C60764   3.294   1.184   4.004 -0.3875 -0.0115 -0.1680
  441MOL0    Cl60765   3.408   1.156   3.870  0.1479 -0.3822  0.1159
  441MOL0     C60766   2.340   1.127   3.700  0.0418  0.0171 -0.4292
  441MOL0     C60767   2.206   1.091   3.678  0.6744 -0.3538  0.3204
  441MOL0     O60768   2.072   0.833   3.445 -0.0594  0.1315  0.3084
  441MOL0     C60769   1.810   0.840   3.390 -0.1012 -0.9665 -0.1344
  441MOL0     C60770   1.678   0.833   3.366 -0.3312 -0.1645  0.2292
  441MOL0     N60771   1.410   0.791   2.763 -0.1257 -0.0045 -0.2347
  441MOL0     N60772   1.319   0.739   2.684  0.3530  0.6521  0.4460
  441MOL0     C60773   0.518   1.463   2.440 -0.9305  0.0369 -0.3840
  441MOL0     C60774   0.606   1.563   2.388 -0.1555  0.3132 -0.5002
  441MOL0     C60775   1.022   1.748   2.455 -0.2009 -0.3117 -0.2697
  441MOL0     C60776   1.069   1.813   2.572  0.1352 -0.0077 -0.5356
  441MOL0     C60777   1.194   1.873   2.592  0.4209  0.3780  0.4117
  441MOL0     C60778   1.274   1.899   2.477 -0.5785  0.0555 -1.0113
  441MOL0     O60779   1.393   1.966   2.480  0.0062 -0.4057  0.7116
  441MOL0     C60780   1.460   1.990   2.604 -0.3944 -0.3397 -0.3997
  441MOL0     C60781   1.605   2.002   2.553  0.0582 -0.1357 -0.2239
  441MOL0     C60782   1.664   1.873   2.501 -0.6908 -0.2975  0.0003
  441MOL0     C60783   1.803   1.897   2.444 -0.4021  0.1282  0.0015
  441MOL0     C60784   1.907   1.916   2.553  0.5774  0.1344  0.1575
  441MOL0     C60785   1.997   1.945   2.633 -0.4856  0.8375 -0.3852
  441MOL0     C60786   1.226   1.842   2.357 -0.3828 -0.5914 -0.7218
  441MOL0     C60787   1.105   1.771   2.340  0.9556 -0.8755  0.1069
  441MOL0     C60788   1.065   1.723   2.207  0.5007  0.4818  0.5388
  441MOL0     H60789   0.886   1.372   2.349 -0.6665 -1.0200  1.5007
  441MOL0     H60790   0.745   1.197   2.401  1.9239  1.8852 -0.7019
  441MOL0     H60791   0.591   1.057   2.462 -0.8855 -1.0789  0.2554
  441MOL0     H60792   0.430   1.052   2.552  0.5842  1.5315  4.9905
  441MOL0     H60793   0.685   1.191   2.659 -0.4401  0.2377 -1.7173
  441MOL0     H60794   0.528   1.176   2.746 -2.3023 -0.8365 -2.1945
  441MOL0     H60795   0.634   1.004   2.835 -0.5123  2.2507 -0.2441
  441MOL0     H60796   0.566   0.934   2.681 -1.8023  1.3836  1.7740
  441MOL0     H60797   0.811   0.954   2.593 -2.6507  0.1380 -0.7045
  441MOL0     H60798   0.851   1.033   2.757 -2.1703  1.0110  0.8217
  441MOL0     H60799   0.755   0.748   2.670  4.3550 -2.9043 -0.6132
  441MOL0     H60800   0.759   0.804   2.839 -0.0688  1.9096 -0.4022
  441MOL0     H60801   0.992   0.807   2.655  1.2490  1.8074  0.9196
  441MOL0     H60802   1.003   0.840   2.818 -1.3675 -2.9632  1.7306
  441MOL0     H60803   0.903   0.569   2.751 -1.4325  0.4535  1.4629
  441MOL0     H60804   0.998   0.622   2.884 -0.1812  2.8623  0.9178
  441MOL0     H60805   1.136   0.479   2.739  1.9763 -0.3825 -0.4544
  441MOL0     H60806   1.104   0.593   2.599  0.7191  2.1000 -0.5438
  441MOL0     H60807   1.240   0.600   2.965  1.6407  0.7196  1.0553
  441MOL0     H60808   1.526   0.839   3.012 -0.4321  0.3056 -1.9614
  441MOL0     H60809   1.447   0.699   3.084  1.6690 -1.4833 -1.8476
  441MOL0     H60810   1.318   0.976   3.029  0.4229 -1.3590 -1.8362
  441MOL0     H60811   1.236   0.844   3.108  0.7787 -0.9313  1.0944
  441MOL0     H60812   1.484   0.975   3.200 -1.4203  0.6669 -2.2308
  441MOL0     H60813   1.322   1.017   3.270  0.6464  1.1096  0.2064
  441MOL0     H60814   1.281   0.798   3.353  1.0903 -2.5069  2.6165
  441MOL0     H60815   1.442   0.736   3.301 -2.5412 -2.1203  0.5282
  441MOL0     H60816   1.541   0.937   3.657 -2.3594  1.1096 -2.3808
  441MOL0     H60817   1.694   0.931   3.826  0.5469 -0.3043  0.2847
  441MOL0     H60818   1.824   1.042   3.771  0.9826 -0.6862  0.8374
  441MOL0     H60819   1.856   0.882   3.802 -0.5645 -0.0744  0.1132
  441MOL0     H60820   2.241   0.759   3.674  1.9402 -0.0998  0.2562
  441MOL0     H60821   2.487   0.828   3.725  1.6953  1.4982  0.7440
  441MOL0     H60822   2.684   1.202   3.839 -0.2808  0.6464  0.4541
  441MOL0     H60823   2.534   1.144   3.921  0.6712 -1.2834  0.9834
  441MOL0     H60824   2.749   1.033   4.026 -1.3176 -4.3472  1.8827
  441MOL0     H60825   2.631   0.929   3.951 -0.0550 -0.8381 -1.9159
  441MOL0     H60826   2.779   0.886   3.766  0.4155  0.3330  0.3378
  441MOL0     H60827   2.865   0.880   3.924 -0.6324  0.2653  1.4294
  441MOL0     H60828   2.876   1.117   3.723 -1.0382  1.1997  0.8401
  441MOL0     H60829   2.994   0.986   3.731  1.0889  0.1639  1.3059
  441MOL0     H60830   2.937   1.171   3.975 -0.0163 -0.1485  0.3839
  441MOL0     H60831   3.067   1.049   3.962 -1.2943 -1.7557 -0.3311
  441MOL0     H60832   3.024   1.303   3.790 -0.2490 -2.5984 -2.7582
  441MOL0     H60833   3.150   1.194   3.763 -1.9541  1.1043 -2.9007
  441MOL0     H60834   3.129   1.302   4.039 -0.1122  3.5782  0.0867
  441MOL0     H60835   3.244   1.373   3.921  0.7959 -1.3774 -0.9877
  441MOL0     H60836   3.246   1.096   4.049 -0.3348  0.1893  0.2796
  441MOL0     H60837   3.355   1.236   4.077  1.7330 -0.5352 -1.4796
  441MOL0     H60838   2.377   1.229   3.703  1.8792 -0.6201  1.8838
  441MOL0     H60839   2.121   1.155   3.657  1.0482 -0.0128 -0.1754
  441MOL0     H60840   1.879   0.816   3.310 -0.7806 -2.2923 -0.3621
  441MOL0     H60841   1.634   0.803   3.271 -1.4615 -2.0185  1.2987
  441MOL0     H60842   0.411   1.474   2.455 -1.0116  0.9838 -1.5689
  441MOL0     H60843   0.565   1.662   2.372 -2.0681 -0.9187 -4.4335
  441MOL0     H60844   1.018   1.798   2.667 -2.0958 -0.6242 -1.7562
  441MOL0     H60845   1.221   1.917   2.687  0.4869  0.6393  0.2728
  441MOL0     H60846   1.444   2.092   2.639  0.2616  0.2542 -1.7513
  441MOL0     H60847   1.457   1.925   2.692 -0.7763  1.4873  0.9980
  441MOL0     H60848   1.663   2.026   2.642 -0.7616  1.1393 -0.0135
  441MOL0     H60849   1.606   2.082   2.478 -3.6149 -0.6219 -1.0154
  441MOL0     H60850   1.680   1.791   2.572  2.3914  0.3115  0.1638
  441MOL0     H60851   1.608   1.830   2.418  0.8553 -1.4797 -0.4740
  441MOL0     H60852   1.804   1.977   2.369 -0.7308  1.3968  1.3161
  441MOL0     H60853   1.819   1.798   2.400 -1.7493 -0.8412  1.5909
  441MOL0     H60854   2.081   1.950   2.699  0.2779  1.6100 -1.3613
  441MOL0     H60855   1.281   1.875   2.269  1.2958  2.3370  1.2221
  441MOL0     H60856   0.985   1.775   2.155  1.0614  1.0474  0.2227
  441MOL0     H60857   1.160   1.728   2.152  1.2569  0.0187  1.7338
  441MOL0     H60858   1.033   1.619   2.202 -1.4123  1.1091 -3.4464
  442MOL0     O60859   0.316   8.218   4.068  0.8499  0.1039  0.0513
  442MOL0     C60860   0.209   8.164   4.030  0.4622 -0.0136  0.6641
  442MOL0     O60861   0.150   8.054   4.099  0.2025 -0.7949 -0.1653
  442MOL0     C60862   0.229   7.981   4.189 -0.2040 -0.6217  0.0496
  442MOL0     C60863   0.357   7.942   4.141  0.4484  0.1100 -0.4339
  442MOL0     C60864   0.450   7.870   4.223 -0.0632  0.4637  0.2352
  442MOL0     C60865   0.413   7.847   4.356 -0.0244  0.1369  0.7870
  442MOL0     O60866   0.497   7.774   4.437 -0.0509 -0.6664 -0.3594
  442MOL0     C60867   0.537   7.839   4.563 -0.5942 -0.4390  0.1887
  442MOL0     C60868   0.606   7.979   4.557 -0.2254 -1.1430  0.2170
  442MOL0     C60869   0.736   7.967   4.466  1.1071 -0.5352  0.0682
  442MOL0     C60870   0.788   8.102   4.427  0.3929  0.0073  0.1753
  442MOL0     C60871   0.929   8.092   4.366 -0.8286 -0.2391  0.5687
  442MOL0     C60872   1.009   8.211   4.390  0.5696 -0.5521  0.9771
  442MOL0     C60873   0.959   8.333   4.310  0.0882  0.4808 -0.0502
  442MOL0     C60874   1.062   8.450   4.342 -0.3566 -0.2175 -0.5108
  442MOL0     N60875   1.195   8.429   4.306 -0.2667 -0.3685  0.0152
  442MOL0     C60876   1.247   8.442   4.177 -0.8145 -0.1355  0.0570
  442MOL0     C60877   1.375   8.401   4.185 -0.0533  0.5436  0.2868
  442MOL0     C60878   1.462   8.369   4.064  0.3305 -0.0644 -0.0892
  442MOL0     C60879   1.544   8.496   4.020 -0.2011  0.1645  0.1575
  442MOL0     C60880   1.628   8.457   3.899  0.4640 -0.2906 -0.3959
  442MOL0     C60881   1.756   8.395   3.960  0.5783  0.1720 -0.4966
  442MOL0     O60882   1.845   8.365   3.851  0.1903  0.4891  0.1913
  442MOL0     C60883   1.961   8.434   3.822  0.7405  0.3522 -0.3078
  442MOL0     C60884   2.007   8.551   3.890  0.2866  0.0054  0.4204
  442MOL0     C60885   2.122   8.616   3.854  0.3339  0.5539  0.6734
  442MOL0     C60886   2.161   8.738   3.931  1.4990 -0.4138  0.0590
  442MOL0     C60887   2.203   8.570   3.741 -0.5090 -0.1259 -0.0287
  442MOL0     C60888   2.322   8.639   3.689  0.0380 -0.3360 -0.0601
  442MOL0     O60889   2.418   8.582   3.621  0.6101  0.3411  0.4386
  442MOL0     C60890   2.529   8.655   3.584 -0.0669  0.2187  0.6323
  442MOL0     C60891   2.643   8.603   3.638  0.1539  0.2646  0.3943
  442MOL0     C60892   2.762   8.667   3.601 -1.0597 -0.2204 -0.4703
  442MOL0     C60893   2.760   8.776   3.513 -0.0007 -0.4686 -0.5629
  442MOL0     O60894   2.881   8.821   3.480 -0.2501  0.7985  0.4166
  442MOL0     C60895   2.894   8.945   3.408  0.7242 -0.1037 -0.1983
  442MOL0     C60896   3.034   9.008   3.391  0.5947  0.9670 -0.9029
  442MOL0     C60897   3.036   9.158   3.363  0.1311 -0.7656 -0.2741
  442MOL0     C60898   3.173   9.214   3.393 -1.0921 -0.5017 -0.5118
  442MOL0     C60899   3.191   9.363   3.361 -0.4525 -0.5176 -0.0881
  442MOL0     C60900   3.334   9.411   3.404 -0.5868 -0.0679  0.1878
  442MOL0     C60901   3.347   9.562   3.435  0.3097  0.1734  0.4910
  442MOL0     C60902   3.368   9.647   3.313  0.4652  0.7709  0.4980
  442MOL0    Cl60903   3.337   9.814   3.376  0.1612  0.2292 -0.1073
  442MOL0     C60904   2.641   8.826   3.464 -0.4725 -0.9554  0.0763
  442MOL0     C60905   2.526   8.756   3.496  0.8258 -0.8689 -0.4583
  442MOL0     O60906   2.302   8.764   3.684  1.0237 -0.0035 -0.7916
  442MOL0     C60907   2.139   8.460   3.669 -0.3782 -0.6808  0.8655
  442MOL0     C60908   2.026   8.401   3.714  0.2421 -0.7155 -0.1389
  442MOL0     N60909   1.397   8.357   4.315 -0.1676  0.2007  0.1565
  442MOL0     N60910   1.295   8.382   4.389  0.0478 -0.8915 -0.5199
  442MOL0     C60911   0.279   7.872   4.393  0.0504  0.1443 -0.0773
  442MOL0     C60912   0.192   7.950   4.315  0.1115  0.1256 -0.1407
  442MOL0     C60913   0.147   8.206   3.902 -0.3620 -1.6806 -0.5780
  442MOL0     C60914   0.013   8.173   3.885 -0.6175  0.0398  0.3031
  442MOL0     C60915  -0.046   8.201   3.762  0.2681 -0.4309 -0.8200
  442MOL0     C60916   0.016   8.262   3.659 -1.1988 -1.1779 -0.5300
  442MOL0     O60917  -0.055   8.302   3.546  0.2044 -0.1497 -0.5281
  442MOL0     C60918   0.016   8.297   3.421  0.6692  0.2216 -0.3261
  442MOL0     C60919  -0.076   8.254   3.303 -0.0872 -0.5582  0.5442
  442MOL0     C60920  -0.143   8.113   3.329  0.1766  0.1938  1.2994
  442MOL0     C60921  -0.284   8.117   3.267 -0.7643  0.3253 -0.5437
  442MOL0     C60922  -0.390   8.163   3.365 -0.1568  0.5110 -1.1237
  442MOL0     C60923  -0.465   8.174   3.458  1.1318 -0.4967 -0.5773
  442MOL0     C60924   0.152   8.292   3.663  0.0511 -0.1569 -0.4404
  442MOL0     C60925   0.217   8.268   3.788 -0.4563  0.2425  0.1592
  442MOL0     C60926   0.360   8.303   3.797 -0.0483  0.1734  0.2130
  442MOL0     H60927   0.392   7.970   4.042  0.1454  0.6022 -0.4048
  442MOL0     H60928   0.545   7.834   4.184  0.4203  1.9040  0.0078
  442MOL0     H60929   0.607   7.772   4.614 -0.2310 -0.8198 -0.7838
  442MOL0     H60930   0.447   7.846   4.624 -0.4571  2.1628  0.1924
  442MOL0     H60931   0.537   8.053   4.515 -0.4182 -1.0151  0.7583
  442MOL0     H60932   0.636   8.018   4.654 -1.9128  1.2468 -0.1250
  442MOL0     H60933   0.806   7.907   4.526  0.8582  0.3851  1.3278
  442MOL0     H60934   0.714   7.920   4.370 -0.8285  0.1728  0.1223
  442MOL0     H60935   0.714   8.149   4.362 -1.1744  0.5593  2.2419
  442MOL0     H60936   0.799   8.164   4.516  2.3497  1.4393 -0.9966
  442MOL0     H60937   0.912   8.080   4.259  3.1767  0.0823 -0.2788
  442MOL0     H60938   0.991   8.007   4.398  1.1535 -0.2973 -2.9400
  442MOL0     H60939   1.020   8.232   4.497 -0.9399 -0.5288  1.1534
  442MOL0     H60940   1.105   8.187   4.344 -0.2401 -0.2947 -0.9564
  442MOL0     H60941   0.859   8.361   4.344  1.5864  2.9420  2.8424
  442MOL0     H60942   0.958   8.313   4.203  5.1974 -4.3680  0.3153
  442MOL0     H60943   1.025   8.544   4.299  1.7198  1.1293  0.4759
  442MOL0     H60944   1.059   8.482   4.446 -2.9779  3.4644 -1.5288
  442MOL0     H60945   1.206   8.473   4.081 -0.1142 -2.6673 -1.1385
  442MOL0     H60946   1.390   8.348   3.984  0.8216 -3.3239  0.1626
  442MOL0     H60947   1.521   8.278   4.083  0.9430  0.7839  2.4351
  442MOL0     H60948   1.486   8.584   3.992 -0.9496 -1.2159 -3.0702
  442MOL0     H60949   1.603   8.521   4.109  1.4808  2.9926 -1.6158
  442MOL0     H60950   1.584   8.379   3.836  1.8385 -2.6211  1.3754
  442MOL0     H60951   1.654   8.544   3.837 -0.8978  0.1303 -0.4306
  442MOL0     H60952   1.797   8.460   4.038  1.0567  1.0350 -1.4388
  442MOL0     H60953   1.737   8.298   4.006  0.2441  0.4059 -0.1266
  442MOL0     H60954   1.932   8.602   3.949 -0.7575 -0.5233 -0.3934
  442MOL0     H60955   2.261   8.730   3.973  1.3124  1.0552  0.8738
  442MOL0     H60956   2.099   8.743   4.021  0.6631  1.6046 -0.5662
  442MOL0     H60957   2.139   8.831   3.877 -0.3514  0.2026  1.7321
  442MOL0     H60958   2.645   8.520   3.708  3.1406 -0.5371 -0.4924
  442MOL0     H60959   2.852   8.622   3.642  0.7160  2.3342 -1.3354
  442MOL0     H60960   2.845   8.941   3.310 -0.9825 -0.0410  0.6071
  442MOL0     H60961   2.848   9.017   3.476  1.1496 -0.8846  0.9475
  442MOL0     H60962   3.085   8.984   3.485 -2.3146  0.6280  0.7231
  442MOL0     H60963   3.078   8.942   3.316  0.2680 -0.8015  0.3908
  442MOL0     H60964   2.968   9.215   3.427 -0.1155 -1.4649  0.0919
  442MOL0     H60965   3.013   9.176   3.257 -1.8797 -0.2590  0.2100
  442MOL0     H60966   3.251   9.155   3.344 -0.7193  0.5050 -1.1633
  442MOL0     H60967   3.194   9.198   3.499  1.1585  0.8951 -0.6826
  442MOL0     H60968   3.181   9.393   3.256 -1.4778  6.4723  1.4878
  442MOL0     H60969   3.132   9.419   3.434  0.4180  0.2936  0.0120
  442MOL0     H60970   3.402   9.386   3.322  0.7975  3.0523  0.2668
  442MOL0     H60971   3.370   9.339   3.479 -0.2324 -1.1067 -0.9378
  442MOL0     H60972   3.429   9.583   3.504 -0.3751 -2.8487  2.4460
  442MOL0     H60973   3.258   9.597   3.488  0.6625 -2.8020  3.4445
  442MOL0     H60974   3.298   9.625   3.232 -0.0931  4.1069 -0.0571
  442MOL0     H60975   3.468   9.648   3.268  0.0142  1.6831 -0.5271
  442MOL0     H60976   2.639   8.912   3.398  0.7572  0.8169  2.1975
  442MOL0     H60977   2.434   8.791   3.451  0.8668  0.8653  0.7266
  442MOL0     H60978   2.182   8.418   3.579  2.0756  0.6377  1.3179
  442MOL0     H60979   1.982   8.330   3.645  0.2196 -2.0528  1.1911
  442MOL0     H60980   0.248   7.846   4.494  1.4341 -0.6491  0.1690
  442MOL0     H60981   0.100   7.994   4.352  0.9958 -0.0289  2.4427
  442MOL0     H60982  -0.044   8.137   3.970  0.3570 -1.4444  0.3560
  442MOL0     H60983  -0.149   8.171   3.743  1.2959 -4.0927 -1.3242
  442MOL0     H60984   0.026   8.404   3.405 -1.9774  0.9780  2.1089
  442MOL0     H60985   0.104   8.234   3.435 -0.0551 -0.2015  3.6128
  442MOL0     H60986  -0.023   8.255   3.208 -1.6021  0.0772 -0.3351
  442MOL0     H60987  -0.147   8.335   3.284  0.4065 -0.9097 -3.6772
  442MOL0     H60988  -0.090   8.026   3.291  2.6603  1.8890  0.6348
  442MOL0     H60989  -0.157   8.102   3.437 -1.4893  1.3039  1.2366
  442MOL0     H60990  -0.310   8.024   3.216  0.9247 -0.6907  0.3513
  442MOL0     H60991  -0.291   8.192   3.187 -2.4301 -0.0875 -0.8325
  442MOL0     H60992  -0.531   8.175   3.542  2.3839 -1.5239  0.4488
  442MOL0     H60993   0.204   8.344   3.583  2.0509 -2.0731 -0.4897
  442MOL0     H60994   0.405   8.340   3.704  0.2973  0.9890  0.6924
  442MOL0     H60995   0.389   8.371   3.878  2.7101 -0.2424 -0.3241
  442MOL0     H60996   0.405   8.207   3.824 -1.3391 -0.3267  0.6467
  443MOL0     O60997   5.637  10.822  11.253  0.6086 -0.1672  0.4059
  443MOL0     C60998   5.641  10.917  11.330 -0.3483  0.4593 -0.8092
  443MOL0     O60999   5.741  10.949  11.425 -0.8796  0.2884  0.8532
  443MOL0     C61000   5.863  10.902  11.396 -0.1837 -0.3162  0.1856
  443MOL0     C61001   5.917  10.917  11.263  0.1063 -0.5011 -1.2221
  443MOL0     C61002   6.052  10.872  11.245 -0.3441  0.0208  0.0258
  443MOL0     C61003   6.127  10.823  11.357 -0.8689  0.1844 -0.1384
  443MOL0     O61004   6.257  10.793  11.311 -0.3446  0.4039  0.8604
  443MOL0     C61005   6.320  10.700  11.389 -0.0479 -0.9017 -0.2984
  443MOL0     C61006   6.450  10.657  11.320 -0.0506  0.0759 -0.2231
  443MOL0     C61007   6.433  10.614  11.169 -0.4539 -1.0638 -0.4423
  443MOL0     C61008   6.553  10.550  11.096 -0.1129 -0.0841 -0.6738
  443MOL0     C61009   6.659  10.651  11.048  1.0076  0.0535 -0.4641
  443MOL0     C61010   6.798  10.582  11.027 -0.2830  0.5816  0.0869
  443MOL0     C61011   6.897  10.672  10.948  0.4252 -0.5067  0.1235
  443MOL0     C61012   7.033  10.609  10.959 -0.6578 -0.7284  0.7014
  443MOL0     N61013   7.090  10.644  11.091 -0.0727 -0.2736  0.2604
  443MOL0     C61014   7.147  10.767  11.112  0.2186  0.1141 -0.4146
  443MOL0     C61015   7.245  10.749  11.201 -0.3739  0.3411 -0.6986
  443MOL0     C61016   7.343  10.864  11.225 -0.0836 -0.4341 -0.0390
  443MOL0     C61017   7.455  10.857  11.127  0.2518 -0.0208 -0.0942
  443MOL0     C61018   7.564  10.961  11.169  0.6542  0.3248 -0.1310
  443MOL0     C61019   7.700  10.932  11.099  0.2797  0.7444  0.7318
  443MOL0     O61020   7.686  10.947  10.956  0.6306  0.2200  0.2485
  443MOL0     C61021   7.814  10.973  10.916  0.1718 -0.5091 -0.6559
  443MOL0     C61022   7.875  10.877  10.838  0.5411  0.8431  0.4688
  443MOL0     C61023   8.006  10.888  10.788 -0.1424 -0.0162 -0.4783
  443MOL0     C61024   8.055  10.774  10.701 -0.1764 -1.0000 -0.6572
  443MOL0     C61025   8.079  11.011  10.798  0.4374 -0.1029 -1.1602
  443MOL0     C61026   8.204  11.035  10.741 -0.3462  1.4642  1.0763
  443MOL0     O61027   8.230  10.975  10.619 -0.0383  0.1018  0.1923
  443MOL0     C61028   8.342  11.021  10.549 -0.5020  0.8227 -0.4924
  443MOL0     C61029   8.450  10.942  10.522 -0.5289 -0.4031 -0.4998
  443MOL0     C61030   8.562  10.989  10.461 -0.5763  0.1341  1.1090
  443MOL0     C61031   8.569  11.120  10.423 -0.7224 -0.1899  0.2047
  443MOL0     O61032   8.674  11.185  10.370 -0.3024  0.3438  0.0404
  443MOL0     C61033   8.800  11.116  10.389 -0.2551 -0.2527 -0.6443
  443MOL0     C61034   8.924  11.199  10.336  0.3259  0.4794  0.3167
  443MOL0     C61035   9.059  11.130  10.366 -0.8182  1.1397 -0.2380
  443MOL0     C61036   9.164  11.230  10.380  0.4681 -0.5159 -0.0493
  443MOL0     C61037   9.299  11.156  10.390  0.1908  0.6551  0.2850
  443MOL0     C61038   9.426  11.244  10.390  0.3717 -0.8248 -0.7426
  443MOL0     C61039   9.440  11.321  10.519 -0.6603  1.6779  1.1081
  443MOL0     C61040   9.561  11.404  10.506  0.0383 -0.1331  0.2791
  443MOL0    Cl61041   9.713  11.315  10.502  0.5697 -0.0164  0.3239
  443MOL0     C61042   8.459  11.202  10.450 -0.5609 -0.3063  0.3939
  443MOL0     C61043   8.341  11.150  10.508  0.6610  0.4211 -0.2894
  443MOL0     O61044   8.285  11.111  10.796  0.3990 -0.1242  0.1865
  443MOL0     C61045   8.002  11.114  10.872 -0.0704  0.3230 -0.6643
  443MOL0     C61046   7.876  11.099  10.936 -0.3434  0.8628 -0.2168
  443MOL0     N61047   7.231  10.618  11.243  0.7412  0.2266 -0.4138
  443MOL0     N61048   7.147  10.549  11.173  0.4945 -0.1936 -0.5337
  443MOL0     C61049   6.079  10.807  11.491  0.2611  0.6930  0.3416
  443MOL0     C61050   5.944  10.848  11.500  1.3351  1.0307 -0.0448
  443MOL0     C61051   5.528  11.001  11.339 -0.6757 -0.6968  0.0774
  443MOL0     C61052   5.408  10.956  11.396 -0.5937  0.4609  0.1667
  443MOL0     C61053   5.296  11.044  11.406  0.2794  0.9811 -0.4180
  443MOL0     C61054   5.301  11.170  11.355 -0.6152  0.8527  1.5314
  443MOL0     O61055   5.189  11.247  11.365 -0.5627  0.1817  0.0496
  443MOL0     C61056   5.146  11.340  11.260 -0.8197 -0.0201  0.3037
  443MOL0     C61057   5.054  11.447  11.318  0.4353 -0.6291  0.3781
  443MOL0     C61058   4.933  11.394  11.398 -0.0291  0.9155  0.0992
  443MOL0     C61059   4.832  11.500  11.443  0.5657  0.3897 -0.6071
  443MOL0     C61060   4.770  11.565  11.330 -0.1352  0.4881 -0.4449
  443MOL0     C61061   4.733  11.603  11.220  0.4618  0.8079  0.2392
  443MOL0     C61062   5.422  11.214  11.295 -0.0102 -0.5215 -0.3548
  443MOL0     C61063   5.535  11.126  11.285 -0.3805 -0.8683 -0.5825
  443MOL0     C61064   5.668  11.187  11.251 -0.3156 -0.6752  0.0673
  443MOL0     H61065   5.852  10.957  11.186 -1.4425  2.4791  1.4127
  443MOL0     H61066   6.106  10.867  11.151 -0.4148 -1.8238  0.0459
  443MOL0     H61067   6.257  10.617  11.424  1.2737 -0.5611  3.2480
  443MOL0     H61068   6.336  10.746  11.487 -0.5900 -0.2320 -0.5174
  443MOL0     H61069   6.507  10.750  11.312 -0.0233  0.2788  1.8307
  443MOL0     H61070   6.497  10.578  11.379 -0.4175 -3.5332 -4.3107
  443MOL0     H61071   6.352  10.541  11.164 -0.1839 -1.4081  0.1130
  443MOL0     H61072   6.412  10.702  11.106  1.4775 -1.9406 -2.4479
  443MOL0     H61073   6.583  10.474  11.169 -0.9931  1.0780  0.9579
  443MOL0     H61074   6.515  10.485  11.017 -1.9828 -1.6996  1.4080
  443MOL0     H61075   6.660  10.737  11.117 -0.4156 -1.5478  1.6669
  443MOL0     H61076   6.630  10.691  10.951  2.0199  0.2579 -0.7006
  443MOL0     H61077   6.848  10.542  11.115  0.7693  1.9847  0.1526
  443MOL0     H61078   6.787  10.493  10.963  0.3168  1.6684 -1.6081
  443MOL0     H61079   6.894  10.768  11.000  1.0334 -1.0574  1.2063
  443MOL0     H61080   6.862  10.683  10.845  1.3138  1.6950  0.0175
  443MOL0     H61081   7.026  10.500  10.957 -2.1458 -0.8093  3.8234
  443MOL0     H61082   7.097  10.636  10.874  0.5800 -1.9221  1.2215
  443MOL0     H61083   7.124  10.859  11.059  0.7335 -0.3077 -1.4009
  443MOL0     H61084   7.379  10.856  11.328  0.5676 -1.1338 -0.3105
  443MOL0     H61085   7.293  10.960  11.216 -1.9922 -1.3073  0.7394
  443MOL0     H61086   7.491  10.754  11.135 -2.2607 -1.1110 -1.7106
  443MOL0     H61087   7.407  10.870  11.030 -2.0569 -3.1009  0.5003
  443MOL0     H61088   7.533  11.061  11.139  0.3603 -0.4234 -2.5959
  443MOL0     H61089   7.582  10.962  11.277 -2.5304 -0.3568  0.5087
  443MOL0     H61090   7.760  11.006  11.153 -2.2307  4.9234 -1.5880
  443MOL0     H61091   7.721  10.825  11.110  2.1056  0.7183 -1.9426
  443MOL0     H61092   7.826  10.783  10.817  1.5576  0.5348 -0.6120
  443MOL0     H61093   8.040  10.790  10.594 -3.6502 -2.2959 -0.4756
  443MOL0     H61094   8.008  10.678  10.724 -2.6178 -0.0378 -1.3643
  443MOL0     H61095   8.162  10.756  10.714 -0.5140 -1.0590  2.8505
  443MOL0     H61096   8.455  10.847  10.574 -0.5428 -0.5938 -0.8425
  443MOL0     H61097   8.647  10.922  10.448 -0.6636 -0.4797  3.3456
  443MOL0     H61098   8.819  11.103  10.496 -1.1748 -0.6497 -0.5231
  443MOL0     H61099   8.802  11.026  10.328  2.8667 -1.0034  0.3879
  443MOL0     H61100   8.920  11.211  10.228 -0.2289 -1.3157  0.1061
  443MOL0     H61101   8.923  11.299  10.379  0.8922  1.6607 -2.2373
  443MOL0     H61102   9.081  11.056  10.288  1.9305 -2.6151  3.6438
  443MOL0     H61103   9.061  11.068  10.456  0.7141 -0.0036 -1.0013
  443MOL0     H61104   9.145  11.296  10.465 -0.5719  1.5862 -1.7925
  443MOL0     H61105   9.169  11.303  10.298  3.6195 -1.1091 -0.5266
  443MOL0     H61106   9.301  11.088  10.477  1.6590 -0.4846 -0.5738
  443MOL0     H61107   9.300  11.082  10.310 -1.5996  0.6955  0.1849
  443MOL0     H61108   9.426  11.317  10.308  0.1259  2.6158  2.0546
  443MOL0     H61109   9.510  11.175  10.387  1.2861  0.1197  1.1257
  443MOL0     H61110   9.450  11.257  10.607 -1.5450  0.2622  0.2273
  443MOL0     H61111   9.348  11.377  10.538 -1.1588  0.8354  1.2102
  443MOL0     H61112   9.578  11.469  10.592 -0.9386 -0.3458  0.6432
  443MOL0     H61113   9.542  11.460  10.414 -1.0916 -0.5308  0.2525
  443MOL0     H61114   8.455  11.310  10.443  0.0929 -0.3301 -0.3915
  443MOL0     H61115   8.267  11.228  10.523  0.9905  0.5623  0.6724
  443MOL0     H61116   8.044  11.212  10.895 -0.7640 -0.1813  3.4065
  443MOL0     H61117   7.829  11.180  10.990 -1.5559  1.0322 -1.4815
  443MOL0     H61118   6.144  10.775  11.572  0.6352  0.1218 -0.1766
  443MOL0     H61119   5.890  10.831  11.593 -2.8355  2.6202 -1.9707
  443MOL0     H61120   5.402  10.853  11.429  2.0177 -1.1356 -3.6694
  443MOL0     H61121   5.202  11.020  11.455  0.5408 -0.1042 -0.4403
  443MOL0     H61122   5.236  11.386  11.218  0.2144 -1.3016  1.0307
  443MOL0     H61123   5.092  11.293  11.177 -3.9745 -0.6507  2.5296
  443MOL0     H61124   5.021  11.505  11.232 -0.4699 -0.8942  0.5409
  443MOL0     H61125   5.123  11.505  11.381  0.6162  0.3624 -0.6919
  443MOL0     H61126   4.876  11.326  11.334 -0.7180  1.3856  0.1905
  443MOL0     H61127   4.976  11.336  11.480  1.8837  2.0705 -0.0233
  443MOL0     H61128   4.876  11.581  11.503  0.6981 -0.5081  0.5461
  443MOL0     H61129   4.753  11.456  11.504  3.0347 -1.6881  1.3616
  443MOL0     H61130   4.692  11.630  11.125 -0.7829  0.5669  0.6892
  443MOL0     H61131   5.428  11.318  11.264 -0.1039 -0.7172 -1.0504
  443MOL0     H61132   5.730  11.167  11.340 -0.9859 -0.3732  0.6109
  443MOL0     H61133   5.719  11.143  11.165  3.8586 -1.3458  2.5576
  443MOL0     H61134   5.663  11.296  11.245 -0.6959 -0.7696 -1.9584
  444MOL0     O61135   7.394   6.789   7.461  0.8169 -0.7828  0.7309
  444MOL0     C61136   7.380   6.713   7.558  0.2793  0.8900 -0.4653
  444MOL0     O61137   7.480   6.684   7.644  0.5310  0.3124  0.3057
  444MOL0     C61138   7.603   6.729   7.606 -0.4480 -0.1402 -0.5099
  444MOL0     C61139   7.666   6.822   7.679 -0.0551 -0.4050  0.2705
  444MOL0     C61140   7.779   6.886   7.635  0.0217  0.1112  0.1797
  444MOL0     C61141   7.843   6.845   7.518  0.0177 -1.0932 -0.0872
  444MOL0     O61142   7.969   6.901   7.490  0.0887  0.8972 -0.1760
  444MOL0     C61143   8.054   6.849   7.381  0.8260  0.9219 -1.1493
  444MOL0     C61144   8.193   6.918   7.385  1.1816  0.1031  0.1161
  444MOL0     C61145   8.294   6.841   7.296 -0.5422 -0.2560 -0.1243
  444MOL0     C61146   8.441   6.884   7.331  0.3239  0.1068 -0.3018
  444MOL0     C61147   8.531   6.817   7.225 -0.5614  0.5170 -0.2576
  444MOL0     C61148   8.681   6.839   7.256 -1.2308  0.9791 -0.4603
  444MOL0     C61149   8.760   6.744   7.169  0.0033  0.7278 -0.2741
  444MOL0     C61150   8.787   6.807   7.032  0.1179 -0.1664 -0.1939
  444MOL0     N61151   8.890   6.732   6.957  0.0095  0.0087 -0.1287
  444MOL0     C61152   9.021   6.701   6.979  0.9221  0.3710  0.9126
  444MOL0     C61153   9.054   6.631   6.869 -0.6572 -0.2001 -0.0266
  444MOL0     C61154   9.193   6.574   6.851  0.1210  0.2395 -0.5339
  444MOL0     C61155   9.259   6.611   6.718  0.0333  0.3451  0.0267
  444MOL0     C61156   9.384   6.524   6.704 -0.5342  0.3892  0.0432
  444MOL0     C61157   9.479   6.569   6.599 -0.1100  0.1927  0.0001
  444MOL0     O61158   9.595   6.481   6.599  0.3224 -0.4704 -0.5031
  444MOL0     C61159   9.705   6.513   6.516  0.5522  0.2488 -0.9687
  444MOL0     C61160   9.711   6.621   6.421 -0.0360  0.6728  0.1258
  444MOL0     C61161   9.830   6.645   6.351 -0.5661 -0.4095  0.5788
  444MOL0     C61162   9.830   6.760   6.250  0.1810 -0.7243  0.5130
  444MOL0     C61163   9.934   6.551   6.366 -0.4233  0.6308  0.3750
  444MOL0     C61164  10.069   6.569   6.307  0.1196  0.4039 -0.6986
  444MOL0     O61165  10.154   6.461   6.322  0.0298  1.0104  0.1343
  444MOL0     C61166  10.285   6.475   6.321  1.0825 -0.3698 -0.4178
  444MOL0     C61167  10.368   6.459   6.427 -0.1550  0.5379 -0.6766
  444MOL0     C61168  10.507   6.474   6.418 -0.2726 -0.6335  0.4668
  444MOL0     C61169  10.570   6.513   6.296 -0.1908  0.3278 -0.3803
  444MOL0     O61170  10.703   6.527   6.263 -0.0113  0.6295 -0.5944
  444MOL0     C61171  10.799   6.489   6.366  0.5231  0.0988  0.1276
  444MOL0     C61172  10.831   6.336   6.384 -0.3183  0.1729 -0.5472
  444MOL0     C61173  10.961   6.305   6.466  0.0542  0.0812  0.3631
  444MOL0     C61174  11.092   6.336   6.392  0.2053 -0.8625 -0.6734
  444MOL0     C61175  11.101   6.249   6.269  0.9424 -0.1010 -0.3706
  444MOL0     C61176  11.239   6.246   6.213 -0.3973  0.0848  0.2266
  444MOL0     C61177  11.239   6.200   6.061 -0.2819 -0.1447  0.4017
  444MOL0     C61178  11.383   6.204   6.005  0.1326 -0.7419 -0.3041
  444MOL0    Cl61179  11.457   6.366   5.999 -0.0392 -0.7577 -0.0568
  444MOL0     C61180  10.482   6.540   6.187 -0.1922  0.1717 -0.7978
  444MOL0     C61181  10.341   6.523   6.201  0.7886  0.4233 -0.1685
  444MOL0     O61182  10.106   6.684   6.287  1.2440  0.5219  0.0450
  444MOL0     C61183   9.927   6.448   6.454  0.0800  0.0069 -0.0266
  444MOL0     C61184   9.807   6.428   6.527 -1.0090  0.6971 -0.0429
  444MOL0     N61185   8.945   6.609   6.790  0.2391  0.4135 -0.4199
  444MOL0     N61186   8.841   6.669   6.843 -0.9807 -0.0462  0.2401
  444MOL0     C61187   7.778   6.761   7.435 -0.1807  0.2159  0.3003
  444MOL0     C61188   7.665   6.696   7.479  0.5726 -0.6902  0.3178
  444MOL0     C61189   7.251   6.645   7.587 -0.2588 -0.1707  0.2058
  444MOL0     C61190   7.137   6.707   7.535  0.1277 -0.7359  0.3099
  444MOL0     C61191   7.011   6.646   7.543  0.0215  0.0147  0.2603
  444MOL0     C61192   7.015   6.515   7.600 -0.0826 -0.4894 -0.7133
  444MOL0     O61193   6.897   6.442   7.611 -0.0381 -0.2680  0.4729
  444MOL0     C61194   6.777   6.482   7.534 -0.3200 -0.0414  0.8101
  444MOL0     C61195   6.676   6.372   7.536  0.4605  0.1248  0.0754
  444MOL0     C61196   6.603   6.360   7.667 -0.3460 -0.4784 -0.0640
  444MOL0     C61197   6.482   6.456   7.686  0.1280  0.0185  0.3190
  444MOL0     C61198   6.377   6.423   7.598 -0.0049  0.9525 -0.6356
  444MOL0     C61199   6.276   6.416   7.529 -0.1575  1.4079 -0.1309
  444MOL0     C61200   7.123   6.454   7.646  0.2479  0.8332 -0.0002
  444MOL0     C61201   7.240   6.518   7.654  0.0184  0.2653 -0.0207
  444MOL0     C61202   7.363   6.434   7.700  0.3339 -0.7690  1.3064
  444MOL0     H61203   7.612   6.840   7.771 -0.1543 -0.3068  0.1932
  444MOL0     H61204   7.838   6.954   7.695 -1.8270  1.0619  0.9852
  444MOL0     H61205   8.015   6.868   7.280  1.3297  2.2339 -1.1073
  444MOL0     H61206   8.068   6.740   7.385  1.4922  0.9442 -2.3146
  444MOL0     H61207   8.186   7.018   7.342  0.6988 -0.4626 -1.2054
  444MOL0     H61208   8.223   6.935   7.488  1.4393  1.3932 -0.1487
  444MOL0     H61209   8.291   6.733   7.314  3.8980 -0.3636  1.2267
  444MOL0     H61210   8.279   6.853   7.188  2.2807 -0.6294 -0.6355
  444MOL0     H61211   8.452   6.993   7.330  1.7274  0.0285  1.5496
  444MOL0     H61212   8.454   6.850   7.434  0.2528  2.4360  0.5468
  444MOL0     H61213   8.515   6.848   7.121  2.0805 -0.7612 -1.1401
  444MOL0     H61214   8.519   6.708   7.226  0.3001  0.3881 -1.7204
  444MOL0     H61215   8.728   6.936   7.236  3.6998 -0.7236  1.3589
  444MOL0     H61216   8.694   6.803   7.358  1.4589 -0.9916 -1.3821
  444MOL0     H61217   8.725   6.642   7.148  1.1512  0.3766 -0.5401
  444MOL0     H61218   8.851   6.722   7.226 -0.9042  1.0521  1.3685
  444MOL0     H61219   8.690   6.794   6.982  0.6163 -0.7140 -1.0472
  444MOL0     H61220   8.823   6.910   7.037  2.3931 -0.9573  0.8075
  444MOL0     H61221   9.073   6.738   7.067 -0.0217  2.6850  0.5691
  444MOL0     H61222   9.181   6.466   6.860 -0.1935  0.0590 -2.6891
  444MOL0     H61223   9.263   6.608   6.928  0.3402 -0.0630 -0.5983
  444MOL0     H61224   9.189   6.586   6.638  1.5009  2.3399 -2.0222
  444MOL0     H61225   9.281   6.718   6.718 -1.0536  0.5998 -1.4566
  444MOL0     H61226   9.440   6.524   6.798 -1.7921  4.3612  0.9801
  444MOL0     H61227   9.352   6.426   6.669  0.5586 -0.0186  0.1504
  444MOL0     H61228   9.435   6.562   6.500 -0.7728 -2.4809  0.4015
  444MOL0     H61229   9.518   6.669   6.617 -1.4913  0.6794  0.3861
  444MOL0     H61230   9.628   6.690   6.413  0.4218  1.4867  1.9118
  444MOL0     H61231   9.730   6.787   6.214 -0.3744 -1.5161  1.4089
  444MOL0     H61232   9.885   6.735   6.158  1.6178 -2.3040  1.7384
  444MOL0     H61233   9.863   6.853   6.296 -1.3706  0.3746 -0.4723
  444MOL0     H61234  10.329   6.438   6.526  0.7428 -0.5061 -0.5323
  444MOL0     H61235  10.564   6.468   6.510 -0.9148  2.6419  1.2216
  444MOL0     H61236  10.895   6.542   6.360 -0.6625  3.0335  3.6134
  444MOL0     H61237  10.753   6.528   6.457  1.4076  0.6677  0.3365
  444MOL0     H61238  10.753   6.281   6.437  0.6228 -1.9893 -1.2923
  444MOL0     H61239  10.837   6.295   6.283 -3.6570 -2.0063  0.0153
  444MOL0     H61240  10.958   6.200   6.497 -2.2799 -0.3477 -1.0578
  444MOL0     H61241  10.951   6.366   6.557 -0.7008  3.1196 -1.6056
  444MOL0     H61242  11.170   6.309   6.464 -0.4922  1.8859  1.2648
  444MOL0     H61243  11.112   6.442   6.372 -0.3970 -0.2826  1.5497
  444MOL0     H61244  11.074   6.144   6.287  3.0310 -0.3829  1.6508
  444MOL0     H61245  11.027   6.292   6.201  1.5463  0.9069 -0.4072
  444MOL0     H61246  11.299   6.169   6.261 -1.1569 -0.7810 -0.1791
  444MOL0     H61247  11.295   6.338   6.231  1.4443 -0.9791  0.2349
  444MOL0     H61248  11.174   6.268   6.006 -0.2956 -0.0537  0.5312
  444MOL0     H61249  11.214   6.096   6.037  2.9561 -1.1939  0.9758
  444MOL0     H61250  11.388   6.153   5.909  0.0129  0.0276 -0.7201
  444MOL0     H61251  11.439   6.142   6.076 -2.4477 -2.1317  0.6673
  444MOL0     H61252  10.519   6.566   6.088 -1.5236  1.0520 -1.0932
  444MOL0     H61253  10.280   6.534   6.112 -1.8561 -2.2552  1.1120
  444MOL0     H61254  10.009   6.378   6.469 -0.1282  0.0015  1.1635
  444MOL0     H61255   9.789   6.333   6.575 -0.6784 -0.8156 -2.6960
  444MOL0     H61256   7.823   6.755   7.337 -0.5261  1.5729  0.0502
  444MOL0     H61257   7.630   6.616   7.414  0.1571 -1.0418  0.9651
  444MOL0     H61258   7.150   6.805   7.490 -1.4737 -0.5730  0.1426
  444MOL0     H61259   6.921   6.697   7.511  1.5633  1.2943 -2.3183
  444MOL0     H61260   6.723   6.562   7.585 -2.9914 -2.8239  2.7156
  444MOL0     H61261   6.810   6.505   7.432 -1.5076 -1.1282  0.1461
  444MOL0     H61262   6.722   6.274   7.519 -3.1621 -1.9718  1.3595
  444MOL0     H61263   6.607   6.384   7.452 -0.3327 -0.2857  0.6543
  444MOL0     H61264   6.555   6.261   7.665 -0.7939 -0.2772  0.4137
  444MOL0     H61265   6.665   6.363   7.757  0.4082 -2.5061 -0.4650
  444MOL0     H61266   6.516   6.560   7.677  0.4770 -0.0859  0.3920
  444MOL0     H61267   6.441   6.434   7.785  2.5582  0.6295  1.5536
  444MOL0     H61268   6.180   6.388   7.490  0.5835 -1.4963 -0.1018
  444MOL0     H61269   7.099   6.354   7.681  2.4637 -0.1720 -1.1463
  444MOL0     H61270   7.407   6.463   7.796  2.0504  2.6659 -0.3494
  444MOL0     H61271   7.336   6.328   7.702  1.7380 -1.2075 -0.5023
  444MOL0     H61272   7.440   6.441   7.622 -2.4427 -0.9759 -1.6692
  445MOL0     O61273   5.397   5.929   0.269  0.5294  0.4070  0.4693
  445MOL0     C61274   5.447   6.035   0.235 -0.3025  0.2089 -0.7003
  445MOL0     O61275   5.576   6.047   0.181 -0.1713 -0.0212 -0.1382
  445MOL0     C61276   5.661   5.963   0.119 -0.9796  0.6356  0.1948
  445MOL0     C61277   5.627   5.840   0.065  0.9390  0.2915  1.3385
  445MOL0     C61278   5.725   5.744   0.014 -0.1038 -0.1111 -0.4323
  445MOL0     C61279   5.857   5.762   0.026 -0.0055 -0.1765  1.0824
  445MOL0     O61280   5.951   5.683  -0.030 -0.5422 -0.2975 -0.6079
  445MOL0     C61281   5.914   5.555  -0.068 -0.5014  0.4733  0.7156
  445MOL0     C61282   6.022   5.472  -0.140 -0.1756 -0.9718 -0.2775
  445MOL0     C61283   5.971   5.339  -0.166  0.2687  0.4846  0.9205
  445MOL0     C61284   6.093   5.233  -0.169 -0.5804 -0.0407 -0.2244
  445MOL0     C61285   6.162   5.235  -0.305  0.0941 -0.4824 -0.3974
  445MOL0     C61286   6.302   5.176  -0.304  0.8575 -0.8256  0.4606
  445MOL0     C61287   6.360   5.168  -0.447  0.0284 -0.2746 -0.0625
  445MOL0     C61288   6.316   5.029  -0.510 -1.1851 -0.4153 -0.0445
  445MOL0     N61289   6.357   5.021  -0.654  0.3799 -0.5799 -0.3326
  445MOL0     C61290   6.439   5.102  -0.731 -0.6779 -0.3096 -0.5144
  445MOL0     C61291   6.432   5.049  -0.857  1.5561  0.1628 -0.6024
  445MOL0     C61292   6.483   5.107  -0.991 -0.0455 -0.4355 -0.3007
  445MOL0     C61293   6.621   5.056  -1.035 -0.3971 -0.3795  0.6193
  445MOL0     C61294   6.728   5.063  -0.926 -0.6573 -0.0008  0.5502
  445MOL0     C61295   6.863   5.036  -0.990 -0.5837 -0.8095 -0.5347
  445MOL0     O61296   6.966   5.015  -0.880 -0.0240 -0.4630  0.1368
  445MOL0     C61297   7.054   5.110  -0.832  0.2772  0.9324 -0.4151
  445MOL0     C61298   7.015   5.248  -0.826 -0.3396  0.4835 -0.0397
  445MOL0     C61299   7.092   5.344  -0.753  0.2586 -0.9442  0.1371
  445MOL0     C61300   7.034   5.483  -0.748  0.1093  0.8384 -0.3878
  445MOL0     C61301   7.223   5.309  -0.697 -0.6851 -0.4713  0.6667
  445MOL0     C61302   7.303   5.403  -0.621 -0.0966  0.8532 -0.4431
  445MOL0     O61303   7.436   5.383  -0.629 -0.0573 -0.2196  0.1242
  445MOL0     C61304   7.522   5.474  -0.560  0.3395 -0.3326 -0.7751
  445MOL0     C61305   7.511   5.519  -0.428 -0.2833 -0.1321 -0.5566
  445MOL0     C61306   7.603   5.608  -0.377  0.1319  0.5834 -0.0575
  445MOL0     C61307   7.716   5.656  -0.454  0.9120  0.3366 -0.2148
  445MOL0     O61308   7.816   5.721  -0.400 -0.0879  0.5061 -0.9558
  445MOL0     C61309   7.890   5.641  -0.301 -0.4722 -0.0361 -0.4524
  445MOL0     C61310   7.996   5.730  -0.253 -0.2058  0.2066 -1.2488
  445MOL0     C61311   8.065   5.661  -0.131 -0.5153 -0.6375  0.2451
  445MOL0     C61312   8.151   5.765  -0.058  0.0993 -0.1772 -0.4221
  445MOL0     C61313   8.288   5.796  -0.110  0.7180 -0.2858  0.0722
  445MOL0     C61314   8.372   5.670  -0.060 -1.0044  0.5630 -0.3038
  445MOL0     C61315   8.517   5.669  -0.130  0.9671 -0.3233 -0.2008
  445MOL0     C61316   8.607   5.554  -0.088 -0.4545 -0.2061  0.3341
  445MOL0    Cl61317   8.646   5.580   0.084 -0.0901 -0.0284  0.3079
  445MOL0     C61318   7.722   5.615  -0.582  0.9485 -0.5971  0.2416
  445MOL0     C61319   7.631   5.520  -0.638  0.2557 -0.1401 -0.0926
  445MOL0     O61320   7.251   5.476  -0.540  0.2370  1.1498  0.7853
  445MOL0     C61321   7.260   5.175  -0.715  0.2185 -0.0903  0.0662
  445MOL0     C61322   7.180   5.080  -0.776  0.2434 -0.4999  0.5949
  445MOL0     N61323   6.348   4.945  -0.856 -0.6122  1.3204 -0.1556
  445MOL0     N61324   6.305   4.927  -0.737  0.2941 -0.1141 -0.7622
  445MOL0     C61325   5.893   5.892   0.068  0.2358 -0.2110  0.4049
  445MOL0     C61326   5.794   5.993   0.117 -0.3939  0.2405 -0.4305
  445MOL0     C61327   5.375   6.154   0.293  0.2157 -0.2908  0.5001
  445MOL0     C61328   5.444   6.279   0.306 -0.1089 -0.6127 -0.1408
  445MOL0     C61329   5.385   6.395   0.346  0.9903 -0.2224 -0.1499
  445MOL0     C61330   5.260   6.400   0.395  0.8149  0.0199 -0.5199
  445MOL0     O61331   5.223   6.524   0.449 -0.3759  1.2031  0.3799
  445MOL0     C61332   5.093   6.550   0.503 -0.1461  0.5696  0.4243
  445MOL0     C61333   5.086   6.548   0.654  0.7750 -0.3525 -0.5333
  445MOL0     C61334   5.118   6.411   0.709  0.1770  0.3247 -0.6034
  445MOL0     C61335   5.100   6.403   0.855  0.6465  0.4741  0.4052
  445MOL0     C61336   4.966   6.411   0.901  0.1872  0.2265 -0.7432
  445MOL0     C61337   4.857   6.409   0.950 -0.5496 -0.2711 -0.1722
  445MOL0     C61338   5.188   6.280   0.388 -0.4169  0.0476  0.6961
  445MOL0     C61339   5.239   6.161   0.333  0.1928  0.5248  0.5711
  445MOL0     C61340   5.142   6.049   0.296 -0.4132 -0.5258 -0.1661
  445MOL0     H61341   5.525   5.805   0.053  0.5172  1.2427  1.9676
  445MOL0     H61342   5.681   5.657  -0.031  0.3948 -0.9119  0.5742
  445MOL0     H61343   5.829   5.557  -0.137  2.4149 -1.8231 -3.2842
  445MOL0     H61344   5.886   5.512   0.029  1.2862  1.4584  1.7282
  445MOL0     H61345   6.073   5.510  -0.229  2.4273 -2.4368  0.4900
  445MOL0     H61346   6.103   5.457  -0.067  0.0252  0.0154 -0.2810
  445MOL0     H61347   5.903   5.288  -0.097  2.8391 -5.3123 -0.2001
  445MOL0     H61348   5.928   5.334  -0.266  2.8125 -2.0663 -0.1958
  445MOL0     H61349   6.161   5.247  -0.085 -2.7611  0.8066  1.5276
  445MOL0     H61350   6.054   5.131  -0.163  2.7894 -1.4438 -0.3016
  445MOL0     H61351   6.177   5.341  -0.328  4.2952 -0.7610  0.2400
  445MOL0     H61352   6.081   5.196  -0.368 -1.5446  2.0162  0.0624
  445MOL0     H61353   6.352   5.251  -0.241 -2.3962  2.8300 -0.9133
  445MOL0     H61354   6.299   5.075  -0.262 -1.7264 -1.0669 -0.1338
  445MOL0     H61355   6.469   5.166  -0.437 -0.0269  2.2802  2.7369
  445MOL0     H61356   6.330   5.256  -0.504 -0.0063  0.1919  0.6622
  445MOL0     H61357   6.383   4.958  -0.461  1.8090 -1.2135 -4.6574
  445MOL0     H61358   6.209   5.005  -0.506 -0.9472 -1.9396 -1.7290
  445MOL0     H61359   6.503   5.185  -0.704  1.2923 -1.6890 -0.7561
  445MOL0     H61360   6.487   5.212  -0.960 -0.0585 -0.8067  1.0363
  445MOL0     H61361   6.422   5.106  -1.081 -2.9389 -0.0009  1.5224
  445MOL0     H61362   6.608   4.957  -1.079 -1.6791  1.0054 -2.3877
  445MOL0     H61363   6.650   5.123  -1.117 -1.8024 -0.5772 -0.0781
  445MOL0     H61364   6.717   5.154  -0.867  1.5671  0.1750  0.7895
  445MOL0     H61365   6.709   4.975  -0.863 -0.3388 -0.4829 -0.0126
  445MOL0     H61366   6.857   4.953  -1.061 -0.6447  0.1919 -1.7204
  445MOL0     H61367   6.891   5.126  -1.046  0.7283  0.7597  2.4310
  445MOL0     H61368   6.932   5.284  -0.886  0.0471  1.3437 -0.0719
  445MOL0     H61369   7.095   5.570  -0.773  0.8194  0.8743  1.3037
  445MOL0     H61370   6.993   5.503  -0.648  2.1760  0.9677  0.4834
  445MOL0     H61371   6.949   5.483  -0.816  0.0065 -1.3671 -0.3505
  445MOL0     H61372   7.433   5.485  -0.361 -1.7080  0.9475 -1.5953
  445MOL0     H61373   7.590   5.647  -0.276  2.2308 -0.1255  0.5332
  445MOL0     H61374   7.826   5.596  -0.225  1.5497 -0.7157  0.9334
  445MOL0     H61375   7.941   5.558  -0.351  1.1698  1.0607 -0.6705
  445MOL0     H61376   8.075   5.760  -0.323  1.1936  2.2373  1.0438
  445MOL0     H61377   7.963   5.827  -0.215 -1.4867 -1.7128  3.1886
  445MOL0     H61378   8.113   5.567  -0.156 -1.0362 -0.6669 -0.6953
  445MOL0     H61379   7.982   5.642  -0.062  1.4965  1.2701  3.4786
  445MOL0     H61380   8.171   5.733   0.044  0.9995  4.7858  1.2353
  445MOL0     H61381   8.098   5.859  -0.042  2.3447  2.1217 -4.7147
  445MOL0     H61382   8.283   5.798  -0.220 -1.8486 -0.4062  0.1296
  445MOL0     H61383   8.322   5.888  -0.061 -0.2636  0.8183 -1.2296
  445MOL0     H61384   8.322   5.584  -0.107  0.1081  1.7926 -4.1339
  445MOL0     H61385   8.375   5.662   0.049 -2.9292  0.3605 -0.2285
  445MOL0     H61386   8.559   5.759  -0.086  3.7796 -1.5582 -0.1506
  445MOL0     H61387   8.505   5.656  -0.238  1.7256 -2.1667 -0.1016
  445MOL0     H61388   8.704   5.553  -0.140 -0.3594  0.1568  0.4967
  445MOL0     H61389   8.563   5.455  -0.096 -2.4982  0.6888 -0.1719
  445MOL0     H61390   7.809   5.645  -0.640  0.0635 -0.4759 -1.0484
  445MOL0     H61391   7.641   5.477  -0.737  3.1308 -0.3293  0.1977
  445MOL0     H61392   7.356   5.139  -0.679  1.1061 -1.3567 -3.1182
  445MOL0     H61393   7.206   4.974  -0.779  0.0095 -0.5438 -1.4790
  445MOL0     H61394   5.996   5.920   0.084 -0.0657  1.0779  0.1568
  445MOL0     H61395   5.814   6.081   0.177 -3.7368 -0.7416  2.4365
  445MOL0     H61396   5.544   6.282   0.263  0.1113  2.4431  0.2975
  445MOL0     H61397   5.431   6.493   0.349  0.5674 -0.0488  0.9904
  445MOL0     H61398   5.073   6.649   0.460 -0.7824 -0.4850 -1.8599
  445MOL0     H61399   5.014   6.485   0.465  0.2022  0.8869 -0.9121
  445MOL0     H61400   4.987   6.571   0.694  1.3003  1.7328 -0.3415
  445MOL0     H61401   5.155   6.624   0.689  1.4956  0.7734 -4.0194
  445MOL0     H61402   5.046   6.341   0.666 -0.3054  0.9407 -0.8121
  445MOL0     H61403   5.215   6.390   0.664  0.2673 -1.3867  0.3058
  445MOL0     H61404   5.156   6.476   0.914  1.6302 -3.9431  5.8871
  445MOL0     H61405   5.148   6.309   0.884 -3.5558 -2.0302  0.1200
  445MOL0     H61406   4.755   6.407   0.981 -1.6687 -0.3012 -3.4508
  445MOL0     H61407   5.082   6.287   0.409 -0.1684 -0.1140  2.0777
  445MOL0     H61408   5.044   6.098   0.295 -0.0676  0.1739 -0.5912
  445MOL0     H61409   5.157   5.988   0.206 -2.1728 -0.9882 -0.1850
  445MOL0     H61410   5.143   5.975   0.377  2.6266 -0.1962  0.2070
  446MOL0     O61411   7.934   7.755   8.389  0.1956 -0.6120  0.0679
  446MOL0     C61412   7.945   7.875   8.368 -0.1532  0.1900  0.6546
  446MOL0     O61413   8.064   7.943   8.338  0.5407  0.7428  0.2405
  446MOL0     C61414   8.182   7.873   8.306  0.5385  0.5768  0.8384
  446MOL0     C61415   8.253   7.923   8.198 -0.0386  0.4178 -1.1495
  446MOL0     C61416   8.379   7.866   8.161 -0.2844  0.3585 -0.2354
  446MOL0     C61417   8.438   7.752   8.225 -0.7327  0.1911  0.0531
  446MOL0     O61418   8.555   7.692   8.198  0.6283 -0.1928 -0.4791
  446MOL0     C61419   8.651   7.742   8.102 -0.6037  0.1847 -0.1019
  446MOL0     C61420   8.697   7.633   8.005 -0.6084  0.0647 -0.0789
  446MOL0     C61421   8.819   7.673   7.926 -0.2063 -0.4080  0.6665
  446MOL0     C61422   8.793   7.758   7.797 -0.3702 -0.4960  0.7733
  446MOL0     C61423   8.931   7.825   7.764 -0.1032 -0.7340 -0.3467
  446MOL0     C61424   9.018   7.746   7.670  0.2152  0.1982  0.0744
  446MOL0     C61425   9.167   7.744   7.715 -0.1814 -0.5899 -0.3009
  446MOL0     C61426   9.169   7.670   7.861  0.0370 -0.0307 -0.3736
  446MOL0     N61427   9.313   7.639   7.890 -0.3889 -0.4581  0.1556
  446MOL0     C61428   9.428   7.716   7.890 -0.1695 -0.5551  0.4128
  446MOL0     C61429   9.532   7.632   7.924  0.2326 -0.1743  1.1148
  446MOL0     C61430   9.680   7.651   7.933  0.1107  0.2670 -0.2074
  446MOL0     C61431   9.723   7.649   8.080  0.9340 -0.3047  0.2931
  446MOL0     C61432   9.843   7.562   8.102  0.2678 -1.0451  0.0751
  446MOL0     C61433   9.857   7.532   8.256 -0.5379 -0.1988 -0.6770
  446MOL0     O61434   9.930   7.645   8.334  0.6267 -0.0514  0.5738
  446MOL0     C61435  10.070   7.654   8.316  1.4611  1.0687 -0.4442
  446MOL0     C61436  10.130   7.769   8.376  0.4419 -0.6917  0.1842
  446MOL0     C61437  10.264   7.804   8.359  0.5768  0.1588 -0.0126
  446MOL0     C61438  10.306   7.942   8.408 -0.6707 -0.1539  0.3444
  446MOL0     C61439  10.344   7.720   8.283 -0.7334 -1.1102 -0.8145
  446MOL0     C61440  10.490   7.753   8.254 -0.5241  0.6409  0.5222
  446MOL0     O61441  10.525   7.882   8.247  0.7636 -0.3313 -0.6231
  446MOL0     C61442  10.657   7.897   8.221  0.1414 -0.2305 -1.1571
  446MOL0     C61443  10.718   7.895   8.088 -0.8561  0.0075 -0.2095
  446MOL0     C61444  10.853   7.910   8.064 -0.7562 -0.1721 -0.2305
  446MOL0     C61445  10.944   7.930   8.179  0.6381  0.4642  0.1956
  446MOL0     O61446  11.087   7.946   8.179 -0.3176  0.1592  0.1341
  446MOL0     C61447  11.154   7.952   8.049 -0.0971  0.8230  0.5836
  446MOL0     C61448  11.293   8.028   8.040  0.8564 -0.3864 -0.2377
  446MOL0     C61449  11.376   7.988   8.156 -0.3347 -0.0675  0.4528
  446MOL0     C61450  11.520   8.017   8.131  1.0040  0.3553  0.2002
  446MOL0     C61451  11.596   8.023   8.263  0.9434 -0.1954  0.3199
  446MOL0     C61452  11.741   8.048   8.230  0.0017  0.3213  0.8468
  446MOL0     C61453  11.821   8.053   8.363 -0.6814 -0.2458  0.4060
  446MOL0     C61454  11.972   8.045   8.329  0.2833 -0.3029  0.5383
  446MOL0    Cl61455  12.003   8.170   8.203 -0.2904 -0.3663  0.0487
  446MOL0     C61456  10.880   7.924   8.303  0.5365  0.2974 -0.8944
  446MOL0     C61457  10.740   7.917   8.328 -0.3802 -0.1165 -0.7163
  446MOL0     O61458  10.573   7.659   8.236 -0.2927  1.3196  0.3784
  446MOL0     C61459  10.290   7.596   8.237 -0.2776  0.2672  0.2092
  446MOL0     C61460  10.153   7.561   8.247 -0.7789  0.1791 -1.2316
  446MOL0     N61461   9.488   7.501   7.942  0.2735  0.3599 -0.7388
  446MOL0     N61462   9.360   7.508   7.910  0.3470  0.4200 -0.5174
  446MOL0     C61463   8.357   7.702   8.333 -0.6127  0.5791 -0.1839
  446MOL0     C61464   8.236   7.765   8.374 -0.1282 -0.3375 -0.5536
  446MOL0     C61465   7.830   7.961   8.397  0.3280  0.2677  0.0976
  446MOL0     C61466   7.848   8.096   8.407 -0.0443 -0.0929  0.5011
  446MOL0     C61467   7.738   8.176   8.439  0.0423 -0.2294 -0.2998
  446MOL0     C61468   7.606   8.127   8.445  0.1699  0.7720 -0.1775
  446MOL0     O61469   7.510   8.226   8.463  0.2846  0.5809 -0.1465
  446MOL0     C61470   7.372   8.198   8.440  0.5107 -0.7341  0.0550
  446MOL0     C61471   7.333   8.209   8.299  0.5893 -0.4197 -0.2003
  446MOL0     C61472   7.343   8.348   8.251  0.7932  0.2777 -0.4028
  446MOL0     C61473   7.307   8.346   8.107  0.1374 -0.0220  0.3601
  446MOL0     C61474   7.341   8.460   8.030 -0.4204 -0.3371  1.1258
  446MOL0     C61475   7.385   8.520   7.933 -0.2863  0.3115  0.6029
  446MOL0     C61476   7.580   7.993   8.432 -0.2804 -0.2257  0.5060
  446MOL0     C61477   7.695   7.906   8.409  0.1939 -0.7634  0.7172
  446MOL0     C61478   7.651   7.766   8.382  0.8805  0.4286  0.9807
  446MOL0     H61479   8.207   8.002   8.140 -1.1383  1.6314  1.2511
  446MOL0     H61480   8.439   7.929   8.096  2.7573  0.6068  2.5382
  446MOL0     H61481   8.736   7.785   8.156  0.2965 -0.1799 -1.1969
  446MOL0     H61482   8.618   7.824   8.037  1.1597 -0.7952 -2.3513
  446MOL0     H61483   8.718   7.537   8.053  1.1981 -0.7698 -2.3945
  446MOL0     H61484   8.620   7.601   7.935 -1.9364 -0.3974  1.5183
  446MOL0     H61485   8.891   7.718   7.994  1.0805  1.3067 -1.6604
  446MOL0     H61486   8.873   7.587   7.885 -1.6119  0.1314 -2.6126
  446MOL0     H61487   8.752   7.697   7.716 -1.0415  0.4921  0.3461
  446MOL0     H61488   8.717   7.836   7.807 -1.2786 -1.3107  0.4206
  446MOL0     H61489   8.982   7.866   7.851  2.2435 -1.7913 -1.1228
  446MOL0     H61490   8.903   7.914   7.708  0.4353  0.5166  1.3064
  446MOL0     H61491   8.993   7.641   7.654  1.8613 -0.1735 -0.2635
  446MOL0     H61492   9.016   7.793   7.572  1.4555  1.3465  0.5681
  446MOL0     H61493   9.207   7.844   7.738 -2.5480  0.0451  1.5120
  446MOL0     H61494   9.232   7.705   7.637  1.9986  2.3156 -0.1253
  446MOL0     H61495   9.119   7.727   7.939 -2.3854 -2.3212 -0.1204
  446MOL0     H61496   9.114   7.577   7.847  0.3530 -0.5160  1.3469
  446MOL0     H61497   9.453   7.814   7.848 -2.0678  1.6326  3.9094
  446MOL0     H61498   9.709   7.748   7.890  1.8136 -0.3458 -0.5458
  446MOL0     H61499   9.737   7.580   7.873  0.6049  2.3937 -2.4095
  446MOL0     H61500   9.744   7.752   8.109  1.7387 -0.5207  0.5080
  446MOL0     H61501   9.644   7.606   8.142 -1.9354  1.1874 -2.1177
  446MOL0     H61502   9.837   7.464   8.053 -2.2164 -1.3413  0.8200
  446MOL0     H61503   9.930   7.610   8.056 -0.4838  1.7495  1.3336
  446MOL0     H61504   9.763   7.507   8.304 -1.5667  0.1084 -2.4421
  446MOL0     H61505   9.909   7.436   8.262 -1.9268 -0.9109  0.1956
  446MOL0     H61506  10.063   7.831   8.435 -0.9559 -2.0234  0.0639
  446MOL0     H61507  10.322   8.012   8.325 -0.1865 -1.3869 -0.6313
  446MOL0     H61508  10.401   7.935   8.462 -1.0837 -1.5448  0.9416
  446MOL0     H61509  10.226   7.987   8.467 -0.4968  0.9675 -0.2426
  446MOL0     H61510  10.651   7.879   8.004 -1.5851 -0.4052  0.4307
  446MOL0     H61511  10.906   7.887   7.972  2.6966 -1.3369  1.8556
  446MOL0     H61512  11.171   7.846   8.027 -3.7252  0.2388 -0.1164
  446MOL0     H61513  11.084   7.986   7.972 -1.4400  0.0826  1.4426
  446MOL0     H61514  11.344   8.006   7.946  4.6272  1.8723  1.0340
  446MOL0     H61515  11.272   8.136   8.048 -1.6288 -0.7853 -0.4861
  446MOL0     H61516  11.356   7.882   8.175 -0.1211 -0.3716 -0.8853
  446MOL0     H61517  11.331   8.038   8.242 -2.8806 -0.8891 -0.3186
  446MOL0     H61518  11.511   8.116   8.084  1.5911  1.4698  2.2912
  446MOL0     H61519  11.557   7.941   8.063 -0.9457  1.7022 -2.5480
  446MOL0     H61520  11.562   8.108   8.323 -0.2129  1.7006 -2.7766
  446MOL0     H61521  11.594   7.934   8.326  1.9008  0.5620  1.4856
  446MOL0     H61522  11.752   8.146   8.181 -2.2020  1.2390  2.0429
  446MOL0     H61523  11.790   7.969   8.173  1.0881  1.6467 -0.1454
  446MOL0     H61524  11.811   7.971   8.435  1.4273  2.1683  3.7588
  446MOL0     H61525  11.787   8.143   8.415  0.4042  0.6358 -0.3591
  446MOL0     H61526  12.004   7.950   8.285 -2.5567 -2.6948  3.1480
  446MOL0     H61527  12.010   8.073   8.427  0.7275 -0.1369  0.3223
  446MOL0     H61528  10.949   7.930   8.387  1.0920 -0.9948 -1.2391
  446MOL0     H61529  10.702   7.932   8.428  2.3475 -4.7106  1.3156
  446MOL0     H61530  10.347   7.528   8.174  1.8847  1.4134  0.8487
  446MOL0     H61531  10.112   7.476   8.192 -0.9986 -1.1032  0.8053
  446MOL0     H61532   8.383   7.614   8.391 -0.7052 -1.8826 -3.5910
  446MOL0     H61533   8.187   7.731   8.465  0.7128 -1.0008 -0.3383
  446MOL0     H61534   7.944   8.146   8.415 -1.3126  2.2812  1.9977
  446MOL0     H61535   7.757   8.280   8.462 -0.1662 -0.4116  0.7743
  446MOL0     H61536   7.334   8.108   8.489 -1.3482  0.3327  0.6541
  446MOL0     H61537   7.308   8.273   8.487 -0.7648 -1.1698 -0.9458
  446MOL0     H61538   7.228   8.177   8.295 -1.1062  3.4949  3.5017
  446MOL0     H61539   7.398   8.145   8.240 -0.3844  0.5987 -2.4982
  446MOL0     H61540   7.276   8.417   8.302  0.0877  2.2340 -3.7061
  446MOL0     H61541   7.448   8.377   8.259  1.6923 -3.0812  1.8873
  446MOL0     H61542   7.200   8.337   8.085 -0.1088  1.1508  1.0251
  446MOL0     H61543   7.347   8.259   8.053  0.8699 -0.6926  1.9095
  446MOL0     H61544   7.423   8.584   7.856  2.6764 -1.8846  0.0446
  446MOL0     H61545   7.478   7.961   8.411 -0.5855  2.1185 -2.2484
  446MOL0     H61546   7.677   7.740   8.279  1.5052  1.9970  0.7170
  446MOL0     H61547   7.694   7.680   8.434 -1.9154 -2.5344 -1.1923
  446MOL0     H61548   7.543   7.749   8.390  0.3249  0.6245 -3.3629
  447MOL0     O61549   7.658   2.663   7.691  0.8941 -0.4416 -0.3863
  447MOL0     C61550   7.733   2.731   7.765  0.2134  0.6042  0.8816
  447MOL0     O61551   7.727   2.730   7.900 -1.3625 -0.5189 -0.5539
  447MOL0     C61552   7.657   2.619   7.950 -0.1207 -0.2815  0.4154
  447MOL0     C61553   7.534   2.645   8.005  0.8362  0.0750  0.8906
  447MOL0     C61554   7.464   2.535   8.052  0.5718 -0.1770 -0.2734
  447MOL0     C61555   7.524   2.411   8.055 -0.0223 -0.4677  0.2313
  447MOL0     O61556   7.470   2.295   8.104  0.0226  0.4160  0.0444
  447MOL0     C61557   7.372   2.292   8.215  0.1732  0.0330  0.5692
  447MOL0     C61558   7.428   2.270   8.356 -0.1200 -0.3717  0.1504
  447MOL0     C61559   7.516   2.144   8.353 -0.2398 -0.1502 -0.6062
  447MOL0     C61560   7.504   2.078   8.496 -0.5428 -0.3077  0.5258
  447MOL0     C61561   7.617   1.986   8.519  0.1904  0.2875 -0.8738
  447MOL0     C61562   7.578   1.903   8.642 -0.4721  0.7002 -0.3323
  447MOL0     C61563   7.699   1.811   8.684  0.4636 -0.5983  1.0685
  447MOL0     C61564   7.803   1.869   8.781  0.3768 -0.3633 -0.1090
  447MOL0     N61565   7.937   1.813   8.761 -0.0060 -0.3102 -0.6518
  447MOL0     C61566   8.038   1.780   8.861  0.7924 -0.4873 -0.3752
  447MOL0     C61567   8.157   1.787   8.798  0.3400 -0.5730 -0.5417
  447MOL0     C61568   8.287   1.780   8.868  0.6084  0.4962  0.1378
  447MOL0     C61569   8.367   1.916   8.858 -0.3525 -0.0972 -0.3435
  447MOL0     C61570   8.423   1.959   8.715  0.3223 -0.8493 -0.1639
  447MOL0     C61571   8.346   2.083   8.654  0.6409 -0.2014 -0.3826
  447MOL0     O61572   8.355   2.204   8.735 -0.4836 -0.4146 -0.4631
  447MOL0     C61573   8.468   2.288   8.725 -0.1224 -0.3868  1.0424
  447MOL0     C61574   8.532   2.318   8.603  0.2381  0.4469  0.7217
  447MOL0     C61575   8.620   2.420   8.586  0.7022  0.0558  0.9822
  447MOL0     C61576   8.677   2.449   8.452 -0.7983 -0.0892 -0.2245
  447MOL0     C61577   8.643   2.512   8.694 -0.1730  0.1650 -0.9838
  447MOL0     C61578   8.731   2.631   8.691  0.1876 -0.8237  0.4355
  447MOL0     O61579   8.702   2.732   8.788 -1.0225  0.3563  0.2869
  447MOL0     C61580   8.782   2.841   8.813  0.6298 -0.1311 -0.0964
  447MOL0     C61581   8.919   2.869   8.777  0.3183  0.2911  0.4656
  447MOL0     C61582   8.986   2.979   8.816 -0.3236  0.7050  0.5782
  447MOL0     C61583   8.924   3.071   8.900 -0.2108  0.1078 -1.0387
  447MOL0     O61584   8.986   3.180   8.948 -0.7564  1.2524 -0.4872
  447MOL0     C61585   9.063   3.260   8.856  0.1772  1.2009  0.3134
  447MOL0     C61586   9.175   3.335   8.930 -0.1173  0.2651 -0.0893
  447MOL0     C61587   9.117   3.424   9.033  0.4266 -1.2451 -0.2752
  447MOL0     C61588   9.151   3.386   9.179  0.1272 -0.4746  0.4780
  447MOL0     C61589   9.053   3.444   9.273  0.6054  0.4462  0.7175
  447MOL0     C61590   9.059   3.601   9.296  0.5796 -0.6990 -0.0434
  447MOL0     C61591   8.929   3.651   9.358 -0.0829 -0.6770 -0.0420
  447MOL0     C61592   8.804   3.621   9.273 -0.7473 -0.5928  0.1055
  447MOL0    Cl61593   8.673   3.720   9.331 -0.0935 -0.1969 -0.0928
  447MOL0     C61594   8.792   3.045   8.937  0.6786 -0.3675 -0.2205
  447MOL0     C61595   8.726   2.928   8.898 -0.2669 -0.6826  0.1609
  447MOL0     O61596   8.834   2.629   8.626 -0.0862 -0.7420  0.1268
  447MOL0     C61597   8.577   2.487   8.812 -0.4695 -0.4237  0.1776
  447MOL0     C61598   8.494   2.380   8.832  0.1386  0.2001  0.4129
  447MOL0     N61599   8.133   1.803   8.660  0.0734  0.6606  0.2429
  447MOL0     N61600   8.007   1.826   8.643  0.5646  0.3827 -0.0961
  447MOL0     C61601   7.651   2.387   8.008 -0.0053 -0.4944  0.3498
  447MOL0     C61602   7.720   2.492   7.949 -0.3283  0.8786 -0.5903
  447MOL0     C61603   7.826   2.837   7.708  0.1785 -0.4744  0.4257
  447MOL0     C61604   7.826   2.969   7.762 -0.0217  0.4905  0.2908
  447MOL0     C61605   7.914   3.069   7.714 -0.1576  0.6843 -0.1094
  447MOL0     C61606   8.012   3.025   7.620  0.5296  0.4419 -0.5058
  447MOL0     O61607   8.120   3.089   7.579  0.0112 -0.8330  0.6859
  447MOL0     C61608   8.148   3.226   7.606 -0.2847  0.5840 -0.3421
  447MOL0     C61609   8.234   3.244   7.730 -0.2629 -0.0773 -0.4172
  447MOL0     C61610   8.187   3.360   7.821 -0.5712 -0.9096  0.2773
  447MOL0     C61611   8.185   3.497   7.763 -0.1346  0.4060 -0.9398
  447MOL0     C61612   8.070   3.535   7.680  0.1802  0.2039 -0.2869
  447MOL0     C61613   7.986   3.571   7.598 -0.4480  0.0992  0.2755
  447MOL0     C61614   8.013   2.889   7.578 -0.5887 -0.1617 -0.0890
  447MOL0     C61615   7.924   2.791   7.619  0.6521 -0.4835  0.0741
  447MOL0     C61616   7.937   2.637   7.573  0.1209  0.4206 -0.2121
  447MOL0     H61617   7.481   2.739   8.006 -0.4219 -0.5516 -0.7704
  447MOL0     H61618   7.362   2.549   8.087  0.2131 -1.6625 -0.6758
  447MOL0     H61619   7.298   2.211   8.206 -0.9741  1.0528  0.5799
  447MOL0     H61620   7.300   2.372   8.194 -0.1892 -0.7404 -1.3958
  447MOL0     H61621   7.480   2.361   8.388 -0.6895 -0.2530  0.7627
  447MOL0     H61622   7.358   2.257   8.439 -0.0420 -0.5549  0.1877
  447MOL0     H61623   7.504   2.075   8.269  0.7511 -2.3881  0.9754
  447MOL0     H61624   7.616   2.188   8.340  0.1579 -0.2064  1.8039
  447MOL0     H61625   7.512   2.159   8.569  2.2756  3.3826 -3.3552
  447MOL0     H61626   7.406   2.029   8.498 -2.1786  2.6712  0.7178
  447MOL0     H61627   7.712   2.036   8.545 -0.2589  1.0184 -0.6005
  447MOL0     H61628   7.638   1.924   8.431  0.9294  1.9298 -1.9239
  447MOL0     H61629   7.528   1.971   8.713 -1.1110  1.5637 -1.5766
  447MOL0     H61630   7.499   1.840   8.601  1.6695 -1.0183 -2.0884
  447MOL0     H61631   7.752   1.791   8.590 -0.1532  0.1480  0.5503
  447MOL0     H61632   7.659   1.716   8.722 -2.8487  0.7693  1.2513
  447MOL0     H61633   7.807   1.978   8.768 -0.5836 -0.0565  1.9034
  447MOL0     H61634   7.778   1.850   8.885 -2.1007  2.0662 -0.1382
  447MOL0     H61635   8.024   1.794   8.967 -1.7866  3.7966 -1.0379
  447MOL0     H61636   8.328   1.693   8.816 -0.1512  0.1836  0.0599
  447MOL0     H61637   8.273   1.743   8.970  0.6862 -1.8258 -0.6377
  447MOL0     H61638   8.317   1.999   8.908 -0.6222 -0.0772 -0.6435
  447MOL0     H61639   8.451   1.901   8.926 -0.6703  1.4555  0.4261
  447MOL0     H61640   8.528   1.986   8.726 -0.2461  0.6633  2.4612
  447MOL0     H61641   8.438   1.875   8.646 -2.2893  0.4506 -2.4840
  447MOL0     H61642   8.384   2.101   8.553  0.6005  2.5288  0.0241
  447MOL0     H61643   8.240   2.059   8.641  0.1925  1.6322 -0.4569
  447MOL0     H61644   8.500   2.265   8.513 -1.6909 -0.2714  1.7779
  447MOL0     H61645   8.785   2.466   8.460 -1.1035  1.1424  3.5918
  447MOL0     H61646   8.620   2.538   8.424  1.7030  1.9376  0.7142
  447MOL0     H61647   8.666   2.374   8.373  1.0620  1.2438 -1.8284
  447MOL0     H61648   8.975   2.809   8.705  1.2636  0.7097  0.8328
  447MOL0     H61649   9.087   2.991   8.779 -0.0773 -3.5330 -0.5581
  447MOL0     H61650   9.113   3.191   8.787 -0.4319  0.4261  0.6309
  447MOL0     H61651   8.995   3.329   8.806  1.1080  4.0527  2.6743
  447MOL0     H61652   9.238   3.259   8.978 -1.6347  1.0852  3.5249
  447MOL0     H61653   9.230   3.384   8.849 -0.7125  0.0935 -0.6044
  447MOL0     H61654   9.009   3.435   9.019  0.6847  1.0280 -0.8245
  447MOL0     H61655   9.137   3.531   9.020  0.1248 -1.4008 -2.4144
  447MOL0     H61656   9.251   3.424   9.199 -0.0098 -1.0260  2.4098
  447MOL0     H61657   9.152   3.277   9.191  0.5720 -0.7647 -1.8173
  447MOL0     H61658   8.955   3.415   9.235  0.7135  2.3581 -1.2016
  447MOL0     H61659   9.062   3.392   9.369  0.2316 -1.9740 -0.4908
  447MOL0     H61660   9.073   3.647   9.198  1.8750 -0.6256  0.1521
  447MOL0     H61661   9.147   3.626   9.356 -0.5795  2.9885  0.3273
  447MOL0     H61662   8.934   3.758   9.378  1.2133 -1.2635  3.4732
  447MOL0     H61663   8.913   3.595   9.451 -1.6502 -1.6485 -0.8573
  447MOL0     H61664   8.782   3.515   9.292 -2.9353  0.0011  1.1490
  447MOL0     H61665   8.822   3.654   9.170  2.2079  0.7028  0.9423
  447MOL0     H61666   8.751   3.122   9.002  0.3835 -2.6864  2.5661
  447MOL0     H61667   8.624   2.917   8.931  0.0087  0.3470  1.4627
  447MOL0     H61668   8.600   2.553   8.894  2.3585  1.4439 -1.9653
  447MOL0     H61669   8.450   2.381   8.932  1.6562  3.0190  1.1661
  447MOL0     H61670   7.690   2.287   7.996 -3.9723 -2.3688  1.3770
  447MOL0     H61671   7.819   2.474   7.910  0.7475 -0.5969  2.4692
  447MOL0     H61672   7.749   2.996   7.834 -0.3556 -1.4724  0.7375
  447MOL0     H61673   7.906   3.165   7.765 -1.8281  0.1564  0.7064
  447MOL0     H61674   8.202   3.262   7.518 -0.1425  2.1120  0.3447
  447MOL0     H61675   8.053   3.281   7.606 -0.4300  0.4412 -2.6988
  447MOL0     H61676   8.341   3.254   7.708  0.2370 -1.0858  1.3742
  447MOL0     H61677   8.242   3.151   7.787  0.8870  0.7121  0.7563
  447MOL0     H61678   8.095   3.340   7.877  1.3560 -3.1495  2.9737
  447MOL0     H61679   8.266   3.369   7.896  1.4913 -1.6827 -1.6864
  447MOL0     H61680   8.276   3.504   7.703 -0.5453 -3.3608 -2.3171
  447MOL0     H61681   8.200   3.569   7.843  0.1364 -1.0164  0.3228
  447MOL0     H61682   7.921   3.611   7.523  2.9157  2.0329 -1.8542
  447MOL0     H61683   8.088   2.850   7.510 -0.8599  0.7904 -0.9497
  447MOL0     H61684   7.841   2.610   7.529  0.3849 -2.1349  0.6028
  447MOL0     H61685   8.027   2.624   7.512 -0.6773 -0.2197 -1.2681
  447MOL0     H61686   7.954   2.560   7.649 -0.8740 -1.5575 -1.8922
  448MOL0     O61687   3.672   9.215   5.053  0.1683 -0.2472 -0.4893
  448MOL0     C61688   3.695   9.206   4.931 -0.1285  0.1102  0.1960
  448MOL0     O61689   3.814   9.221   4.869  0.2685  0.1120 -0.0287
  448MOL0     C61690   3.916   9.175   4.947 -0.5084 -0.1180  0.5134
  448MOL0     C61691   3.910   9.044   4.995 -0.2556  0.6995 -0.6646
  448MOL0     C61692   4.023   9.000   5.070 -0.6386 -0.2232  0.3755
  448MOL0     C61693   4.149   9.076   5.083  0.8859 -0.4438  0.5268
  448MOL0     O61694   4.267   9.025   5.125  0.8944  0.4887  0.2790
  448MOL0     C61695   4.309   8.930   5.028 -1.0183  0.2489 -0.1330
  448MOL0     C61696   4.391   8.978   4.915  0.4242 -0.3912  0.3775
  448MOL0     C61697   4.526   9.040   4.954 -0.4653 -0.3618  0.2809
  448MOL0     C61698   4.633   8.933   4.953 -1.5746  0.4619 -0.0216
  448MOL0     C61699   4.758   8.992   5.033  0.0362  0.7210  0.2754
  448MOL0     C61700   4.888   8.922   5.006  1.2278  0.0989  0.7992
  448MOL0     C61701   4.880   8.794   5.082  0.1476  0.8767  0.3777
  448MOL0     C61702   5.018   8.731   5.101 -0.0823  0.0034  0.2366
  448MOL0     N61703   5.091   8.692   4.978  0.4093  0.5351  0.5441
  448MOL0     C61704   5.042   8.631   4.868 -0.9350 -0.4659  0.7252
  448MOL0     C61705   5.146   8.645   4.779 -0.0017 -0.1108  0.3508
  448MOL0     C61706   5.153   8.599   4.632 -0.4714  0.2723  0.1945
  448MOL0     C61707   5.245   8.688   4.548  0.2454 -0.4533 -0.1962
  448MOL0     C61708   5.287   8.636   4.416  0.7095 -0.8096 -0.0510
  448MOL0     C61709   5.173   8.664   4.308  0.1378 -0.5974 -0.6895
  448MOL0     O61710   5.230   8.618   4.186  0.7771  0.1100  0.2062
  448MOL0     C61711   5.293   8.704   4.100 -0.2671  0.6436  0.4001
  448MOL0     C61712   5.339   8.832   4.126 -0.8196 -0.0253 -0.8620
  448MOL0     C61713   5.397   8.917   4.021  0.1027  0.6100  0.2217
  448MOL0     C61714   5.441   9.055   4.050 -0.2928  0.6062  0.9802
  448MOL0     C61715   5.400   8.855   3.893 -0.1139  0.8118 -0.1373
  448MOL0     C61716   5.443   8.935   3.778  0.0827  0.2349  0.1980
  448MOL0     O61717   5.410   8.881   3.663 -0.3577  0.2045  0.6286
  448MOL0     C61718   5.450   8.954   3.554 -0.3075 -0.1851  0.5426
  448MOL0     C61719   5.375   9.054   3.497 -0.0963  1.2624 -0.3993
  448MOL0     C61720   5.428   9.124   3.392  0.5917  0.1184 -0.0826
  448MOL0     C61721   5.554   9.100   3.341  0.3293 -0.5592  0.1592
  448MOL0     O61722   5.588   9.190   3.241  0.7245 -0.0445  0.0820
  448MOL0     C61723   5.716   9.170   3.177  0.1377 -1.1057  0.4574
  448MOL0     C61724   5.754   9.279   3.074 -0.6215  0.2491  0.2029
  448MOL0     C61725   5.654   9.287   2.954 -0.9062  0.3606 -0.7334
  448MOL0     C61726   5.685   9.403   2.860 -0.5930 -0.1635 -0.4006
  448MOL0     C61727   5.579   9.430   2.755 -0.9681 -0.4038  0.5525
  448MOL0     C61728   5.609   9.553   2.660 -0.3697  0.0185 -0.4317
  448MOL0     C61729   5.489   9.572   2.555 -0.3610  0.3037 -0.4567
  448MOL0     C61730   5.533   9.669   2.439  0.4980  0.0382  0.1334
  448MOL0    Cl61731   5.546   9.834   2.506  0.6855 -0.0225  0.1541
  448MOL0     C61732   5.633   8.996   3.390 -1.4867 -0.1859  0.8103
  448MOL0     C61733   5.576   8.918   3.497  0.0434  0.7265  0.0718
  448MOL0     O61734   5.521   9.031   3.788 -0.0236 -0.0524 -0.3100
  448MOL0     C61735   5.357   8.723   3.874  0.0087 -0.1316  1.2605
  448MOL0     C61736   5.304   8.653   3.977  0.5461  0.9448  0.6187
  448MOL0     N61737   5.253   8.712   4.845  0.1938 -0.2391  0.1121
  448MOL0     N61738   5.217   8.728   4.961 -0.0509 -0.4765  0.3045
  448MOL0     C61739   4.149   9.201   5.029 -0.3123 -0.5451 -0.5379
  448MOL0     C61740   4.034   9.251   4.961 -0.6714  0.0502  0.7775
  448MOL0     C61741   3.582   9.186   4.845  0.5521 -0.1278  0.6470
  448MOL0     C61742   3.605   9.175   4.703 -0.0952  0.9430 -0.4273
  448MOL0     C61743   3.510   9.166   4.614  0.3821  0.1347 -0.2640
  448MOL0     C61744   3.377   9.162   4.656 -0.6738 -0.2790  0.4733
  448MOL0     O61745   3.269   9.143   4.581 -0.2954 -0.2777 -0.2088
  448MOL0     C61746   3.286   9.094   4.451 -0.6608  0.1140 -0.7252
  448MOL0     C61747   3.160   9.089   4.362  0.2396  0.4519 -0.0631
  448MOL0     C61748   3.090   9.228   4.376 -0.4264 -1.1066  0.3183
  448MOL0     C61749   2.935   9.217   4.400 -0.5884  0.9519 -0.5721
  448MOL0     C61750   2.860   9.334   4.429 -0.1500 -0.2943  0.0471
  448MOL0     C61751   2.800   9.442   4.442  0.0872 -0.5210 -0.2945
  448MOL0     C61752   3.350   9.173   4.791  0.4605 -0.8336 -0.1460
  448MOL0     C61753   3.448   9.183   4.894 -0.5848  0.4269 -0.0285
  448MOL0     C61754   3.404   9.200   5.036 -0.0739 -0.8754  0.5252
  448MOL0     H61755   3.826   8.976   4.992  0.1404  0.1639  0.0417
  448MOL0     H61756   4.011   8.901   5.113 -1.9550  0.9529  2.9357
  448MOL0     H61757   4.220   8.879   4.990 -1.4579  0.1656  0.9922
  448MOL0     H61758   4.359   8.845   5.074 -2.7058 -2.0876 -2.3483
  448MOL0     H61759   4.411   8.887   4.858 -2.1798 -1.0487  0.3546
  448MOL0     H61760   4.331   9.046   4.853  2.3714  0.8285 -0.2529
  448MOL0     H61761   4.549   9.126   4.890  0.4177  0.7171  1.9691
  448MOL0     H61762   4.522   9.084   5.054  0.0887 -0.4242  0.3347
  448MOL0     H61763   4.600   8.843   5.006  0.2858  1.7503  3.6484
  448MOL0     H61764   4.672   8.911   4.853  0.0456 -2.3366  1.1279
  448MOL0     H61765   4.747   8.993   5.141  1.7778 -3.8102  0.7190
  448MOL0     H61766   4.764   9.099   5.010 -0.9646  0.7929  0.2707
  448MOL0     H61767   4.900   8.924   4.897  0.6247  0.2706  0.7331
  448MOL0     H61768   4.963   8.990   5.048  1.0537  0.4183  0.5983
  448MOL0     H61769   4.830   8.726   5.013  1.4413  1.5699 -1.3328
  448MOL0     H61770   4.826   8.804   5.177 -1.3830  0.8398 -0.4503
  448MOL0     H61771   5.081   8.809   5.145  3.4211 -0.6733 -2.9816
  448MOL0     H61772   5.020   8.653   5.177 -0.8779 -0.2197  0.0341
  448MOL0     H61773   4.939   8.605   4.843 -1.6816  2.0093  0.9973
  448MOL0     H61774   5.053   8.601   4.589  0.6012  2.0284 -2.4379
  448MOL0     H61775   5.176   8.492   4.626  0.5620  0.5476 -1.3781
  448MOL0     H61776   5.184   8.776   4.528  1.0043 -0.3029 -2.0677
  448MOL0     H61777   5.333   8.728   4.600  0.5455 -1.1673 -0.1311
  448MOL0     H61778   5.377   8.687   4.380 -1.1011  1.4831 -1.6170
  448MOL0     H61779   5.309   8.529   4.421  1.0342 -0.8951 -2.3282
  448MOL0     H61780   5.088   8.596   4.318  1.0827 -2.3369 -3.4625
  448MOL0     H61781   5.150   8.771   4.312  1.6060 -0.2844  2.4138
  448MOL0     H61782   5.329   8.886   4.220 -0.9481  0.9786 -1.4443
  448MOL0     H61783   5.550   9.056   4.047 -0.2293 -1.6723 -0.4961
  448MOL0     H61784   5.403   9.099   4.142 -0.6375  1.7998  0.2958
  448MOL0     H61785   5.404   9.130   3.979  1.9469 -1.8438 -3.2282
  448MOL0     H61786   5.279   9.068   3.545 -0.8856 -0.3481 -1.3953
  448MOL0     H61787   5.368   9.196   3.337 -0.3629  0.6860  1.6214
  448MOL0     H61788   5.788   9.165   3.259  0.8852  2.3845  0.1582
  448MOL0     H61789   5.718   9.074   3.124 -2.9350 -0.8212 -0.3824
  448MOL0     H61790   5.759   9.381   3.116  1.9822  0.1562  0.2268
  448MOL0     H61791   5.851   9.246   3.036 -1.8086 -3.2449 -0.1579
  448MOL0     H61792   5.552   9.292   2.993 -1.1744  1.3087 -1.5167
  448MOL0     H61793   5.665   9.188   2.908  0.5610 -1.6064  3.3935
  448MOL0     H61794   5.786   9.386   2.822 -0.1270  0.9219  0.2729
  448MOL0     H61795   5.692   9.497   2.917  0.2131  0.6826 -1.8417
  448MOL0     H61796   5.570   9.342   2.691  1.0322 -0.5531  0.4214
  448MOL0     H61797   5.486   9.453   2.809  0.2963  3.9621  1.2345
  448MOL0     H61798   5.707   9.545   2.612 -1.2140 -1.4402 -2.0091
  448MOL0     H61799   5.614   9.646   2.719 -1.0008  0.9405 -1.7839
  448MOL0     H61800   5.395   9.611   2.595 -0.9887 -1.9350  0.4500
  448MOL0     H61801   5.468   9.475   2.508 -0.3185  0.3376 -0.5450
  448MOL0     H61802   5.454   9.663   2.363  0.5488 -3.5828  0.1709
  448MOL0     H61803   5.629   9.631   2.404  0.3592  0.1187 -0.3370
  448MOL0     H61804   5.730   8.975   3.346 -1.0234  1.4319  1.0067
  448MOL0     H61805   5.615   8.822   3.528 -0.6935 -0.3773 -2.1958
  448MOL0     H61806   5.375   8.662   3.786  0.2561 -1.1658  2.0167
  448MOL0     H61807   5.271   8.553   3.952 -2.3202  2.1657 -1.0584
  448MOL0     H61808   4.237   9.264   5.035 -0.8325  0.1477  0.0082
  448MOL0     H61809   4.029   9.349   4.913 -3.0614  0.8093  2.3884
  448MOL0     H61810   3.708   9.177   4.667  0.0718  0.1336 -0.0170
  448MOL0     H61811   3.530   9.151   4.509  1.1613 -2.0898  0.1514
  448MOL0     H61812   3.364   9.151   4.400  1.2304 -0.1251  1.7114
  448MOL0     H61813   3.317   8.990   4.462 -2.3788 -0.3475  0.0962
  448MOL0     H61814   3.094   9.008   4.393  2.5290 -2.8461 -3.1138
  448MOL0     H61815   3.189   9.061   4.260 -1.5752 -0.1416 -0.4493
  448MOL0     H61816   3.128   9.294   4.455  2.1636 -0.2180 -1.5345
  448MOL0     H61817   3.103   9.278   4.279 -2.0322 -0.1759  0.5426
  448MOL0     H61818   2.910   9.149   4.482 -1.4713  2.5407  0.5339
  448MOL0     H61819   2.891   9.175   4.309  0.3339  0.8546 -0.9737
  448MOL0     H61820   2.746   9.526   4.481  1.2054 -1.2987  3.3044
  448MOL0     H61821   3.245   9.158   4.816 -0.2251 -1.2569 -2.9851
  448MOL0     H61822   3.295   9.197   5.051 -0.3579 -0.8735 -1.3197
  448MOL0     H61823   3.455   9.123   5.096  2.6961  0.7246  0.3770
  448MOL0     H61824   3.436   9.300   5.064  1.4768 -1.1588 -0.1246
  449MOL0     O61825   6.722   3.187   2.308 -0.2160 -0.2010 -0.2819
  449MOL0     C61826   6.658   3.185   2.415 -0.4643  0.2797  0.5571
  449MOL0     O61827   6.522   3.193   2.428  0.1792 -0.5268 -0.6504
  449MOL0     C61828   6.450   3.190   2.314 -0.3668  0.0219  0.2667
  449MOL0     C61829   6.459   3.298   2.213  0.2059 -0.4402 -0.3781
  449MOL0     C61830   6.393   3.292   2.088  0.3420 -0.2076 -0.1060
  449MOL0     C61831   6.314   3.184   2.061  0.2375 -0.0343 -0.5512
  449MOL0     O61832   6.247   3.161   1.936  0.5559  0.0039  0.4792
  449MOL0     C61833   6.279   3.246   1.814  0.0318 -0.5783 -0.4724
  449MOL0     C61834   6.428   3.212   1.778 -0.6955 -0.6913  0.4117
  449MOL0     C61835   6.487   3.288   1.655 -0.7314  0.3781 -0.1092
  449MOL0     C61836   6.623   3.226   1.632  0.3556 -0.2619 -0.2654
  449MOL0     C61837   6.694   3.286   1.510 -0.5175 -0.7476 -0.3833
  449MOL0     C61838   6.839   3.239   1.502  0.7032 -0.3459  0.9782
  449MOL0     C61839   6.909   3.332   1.403  0.2335 -0.0343  0.6490
  449MOL0     C61840   7.033   3.263   1.337 -0.1156  0.0006  0.1949
  449MOL0     N61841   7.130   3.199   1.428 -0.5174 -0.1737  0.6352
  449MOL0     C61842   7.211   3.276   1.506 -0.6983 -0.6954 -0.4540
  449MOL0     C61843   7.286   3.186   1.568 -0.3353 -0.7495 -0.0040
  449MOL0     C61844   7.386   3.216   1.682 -0.5536  0.5006  0.5552
  449MOL0     C61845   7.527   3.173   1.652 -0.0075 -0.4822 -0.7408
  449MOL0     C61846   7.547   3.025   1.646 -1.1186  0.6562 -0.3032
  449MOL0     C61847   7.696   2.985   1.648  0.5825 -1.0373 -0.6213
  449MOL0     O61848   7.783   3.091   1.590 -0.0113 -0.1878  0.5260
  449MOL0     C61849   7.912   3.049   1.610  0.2390  0.7295 -0.3525
  449MOL0     C61850   8.009   3.138   1.572  0.1709  0.4678 -1.0892
  449MOL0     C61851   8.144   3.121   1.577 -0.6731 -0.2999 -0.6131
  449MOL0     C61852   8.225   3.230   1.518 -0.3026  0.0353 -0.1396
  449MOL0     C61853   8.195   3.003   1.641 -0.4510 -0.9476 -0.3185
  449MOL0     C61854   8.338   2.990   1.683 -1.1405  0.9035 -0.1917
  449MOL0     O61855   8.359   2.869   1.743  0.2759  0.3847  0.1911
  449MOL0     C61856   8.467   2.848   1.827  0.1628 -0.9112  0.2348
  449MOL0     C61857   8.591   2.836   1.780  0.6899  0.9822  0.0897
  449MOL0     C61858   8.700   2.811   1.869 -0.1722 -0.0182 -0.9434
  449MOL0     C61859   8.687   2.788   2.005 -0.0182 -0.2130  0.6826
  449MOL0     O61860   8.799   2.783   2.078  0.3100 -0.1071 -0.1578
  449MOL0     C61861   8.799   2.775   2.220 -1.2001  0.2359  0.1601
  449MOL0     C61862   8.939   2.736   2.277  0.6051 -0.5739 -0.6359
  449MOL0     C61863   9.006   2.623   2.200 -0.2150 -0.5116  0.7224
  449MOL0     C61864   9.139   2.562   2.257  0.7615  0.3321  0.0292
  449MOL0     C61865   9.160   2.442   2.160 -0.5920 -0.5933 -0.1263
  449MOL0     C61866   9.296   2.382   2.167  0.1041  0.6003  0.2529
  449MOL0     C61867   9.286   2.273   2.059  0.4252  0.8352  0.7096
  449MOL0     C61868   9.412   2.178   2.039  0.4441 -0.6315  0.8135
  449MOL0    Cl61869   9.558   2.271   2.097  0.0225 -0.3935  0.0583
  449MOL0     C61870   8.556   2.802   2.053 -0.0376  0.7564  0.8764
  449MOL0     C61871   8.447   2.835   1.967  0.1354 -0.6892  0.2949
  449MOL0     O61872   8.430   3.066   1.636  0.2079  0.3213 -0.2056
  449MOL0     C61873   8.099   2.910   1.682 -0.5818 -0.1810  0.0879
  449MOL0     C61874   7.966   2.927   1.650  0.8086  0.0538 -0.0119
  449MOL0     N61875   7.253   3.059   1.516  0.3285 -0.2886  0.0115
  449MOL0     N61876   7.153   3.065   1.433  0.7656 -0.2137  0.3873
  449MOL0     C61877   6.305   3.082   2.155  0.4755 -0.2776 -0.1664
  449MOL0     C61878   6.373   3.084   2.279  0.3266 -0.6246 -0.0163
  449MOL0     C61879   6.739   3.185   2.536 -0.2887  0.5222 -0.8477
  449MOL0     C61880   6.676   3.232   2.651 -0.5978 -0.1551 -0.4022
  449MOL0     C61881   6.750   3.254   2.775  0.4666  1.0521  0.1137
  449MOL0     C61882   6.884   3.232   2.779  0.0265 -1.0691 -1.0091
  449MOL0     O61883   6.942   3.262   2.907 -0.1156 -0.5683 -0.0096
  449MOL0     C61884   7.084   3.239   2.924 -0.6979  0.4065 -0.7231
  449MOL0     C61885   7.106   3.082   2.938 -0.4971 -0.3339  0.4384
  449MOL0     C61886   7.249   3.029   2.965 -0.5292  0.2072  0.3787
  449MOL0     C61887   7.334   3.029   2.838  0.5701  0.7306  0.0634
  449MOL0     C61888   7.452   2.953   2.861  0.0871 -0.6502  0.3163
  449MOL0     C61889   7.553   2.904   2.879  0.6082 -0.8727  0.3812
  449MOL0     C61890   6.947   3.184   2.662  0.4348 -1.3230  0.0921
  449MOL0     C61891   6.879   3.158   2.549  0.5347  0.8153  0.2966
  449MOL0     C61892   6.953   3.098   2.435 -0.1709  0.1240  0.7699
  449MOL0     H61893   6.516   3.388   2.234 -0.8864  0.0816  0.4364
  449MOL0     H61894   6.406   3.373   2.017  0.2481 -1.0389 -1.1052
  449MOL0     H61895   6.267   3.353   1.830  0.4940 -0.1761 -2.6471
  449MOL0     H61896   6.209   3.230   1.732  1.5587 -0.3028 -1.8713
  449MOL0     H61897   6.489   3.227   1.867 -1.6555  1.2049  0.7980
  449MOL0     H61898   6.435   3.104   1.761  1.3351 -0.6968  1.0100
  449MOL0     H61899   6.426   3.265   1.567 -2.2207 -1.2913  1.3000
  449MOL0     H61900   6.486   3.397   1.665 -2.0187  0.2768  1.1267
  449MOL0     H61901   6.688   3.254   1.715 -0.7313 -0.6948  0.7567
  449MOL0     H61902   6.605   3.119   1.617 -0.7240 -0.0162 -0.8555
  449MOL0     H61903   6.689   3.395   1.514  0.1603 -0.7447  0.7652
  449MOL0     H61904   6.656   3.239   1.419  2.4341 -1.7195 -1.2289
  449MOL0     H61905   6.895   3.239   1.596  0.2707  0.9897  1.2556
  449MOL0     H61906   6.842   3.136   1.465  0.7673 -0.1479  0.4233
  449MOL0     H61907   6.939   3.425   1.453  0.3319 -0.4114  1.3154
  449MOL0     H61908   6.842   3.346   1.319 -1.7762 -1.6178  1.8964
  449MOL0     H61909   7.001   3.175   1.281 -1.9167  0.5449  0.3117
  449MOL0     H61910   7.081   3.344   1.280  0.5670 -1.2588 -1.0648
  449MOL0     H61911   7.222   3.383   1.520  0.3054 -0.4797 -2.5359
  449MOL0     H61912   7.352   3.151   1.763  2.1546 -1.0314  0.5904
  449MOL0     H61913   7.380   3.318   1.720  0.8310 -0.4895  3.6907
  449MOL0     H61914   7.564   3.216   1.558 -2.0859 -0.3847 -1.5616
  449MOL0     H61915   7.593   3.201   1.735 -0.5149 -1.2906 -0.0647
  449MOL0     H61916   7.501   2.970   1.729  1.0222  0.5394  0.8709
  449MOL0     H61917   7.504   2.978   1.557  3.3920 -2.7809 -1.0188
  449MOL0     H61918   7.712   2.969   1.755 -2.5661 -0.4960  0.0209
  449MOL0     H61919   7.706   2.889   1.598  0.7572 -1.0057 -0.6460
  449MOL0     H61920   7.982   3.223   1.509  1.2401  1.8635  0.2740
  449MOL0     H61921   8.284   3.287   1.592 -0.8374  4.1047 -2.5683
  449MOL0     H61922   8.151   3.298   1.476 -1.9393 -0.6709  1.4752
  449MOL0     H61923   8.301   3.205   1.443  1.6390 -0.4689  1.8583
  449MOL0     H61924   8.618   2.848   1.675  0.1503 -0.3490 -0.2272
  449MOL0     H61925   8.800   2.804   1.826 -0.0810 -2.3383 -0.4592
  449MOL0     H61926   8.772   2.878   2.245 -0.8012  0.7950 -1.5666
  449MOL0     H61927   8.715   2.708   2.242 -1.8075  0.2902 -1.8376
  449MOL0     H61928   9.001   2.826   2.274 -1.5043  0.9623 -1.2257
  449MOL0     H61929   8.911   2.716   2.381 -3.1499 -1.2722 -1.6186
  449MOL0     H61930   9.018   2.653   2.096 -2.0796 -1.1566  0.2643
  449MOL0     H61931   8.938   2.537   2.202  2.1599 -2.5312 -0.2474
  449MOL0     H61932   9.124   2.536   2.362  0.3916 -0.8792 -0.3146
  449MOL0     H61933   9.212   2.643   2.244  1.0480  0.4865  2.1464
  449MOL0     H61934   9.085   2.366   2.181 -0.8141 -0.1721  0.6691
  449MOL0     H61935   9.145   2.475   2.057 -3.3903  1.1393  0.7168
  449MOL0     H61936   9.316   2.344   2.268  0.5119 -0.7495 -0.3231
  449MOL0     H61937   9.374   2.457   2.152 -2.6350  3.4741 -0.6340
  449MOL0     H61938   9.291   2.333   1.967  2.4062 -0.9365 -0.4220
  449MOL0     H61939   9.196   2.211   2.059  0.2195  1.1282  0.8963
  449MOL0     H61940   9.421   2.133   1.940  1.0135 -0.9315  0.9924
  449MOL0     H61941   9.413   2.094   2.110 -1.5550 -1.9925 -0.6799
  449MOL0     H61942   8.535   2.807   2.160 -1.9205  0.7117  0.5363
  449MOL0     H61943   8.346   2.848   2.004  1.0225  1.6183  2.1603
  449MOL0     H61944   8.123   2.812   1.723 -3.3542 -0.7573  0.5675
  449MOL0     H61945   7.887   2.858   1.679 -1.9559  0.6957 -4.9026
  449MOL0     H61946   6.246   2.994   2.132 -2.4238  1.5363 -0.1514
  449MOL0     H61947   6.372   2.996   2.343 -0.8247 -0.4724  0.2005
  449MOL0     H61948   6.568   3.248   2.654 -0.2699  3.5434 -2.0484
  449MOL0     H61949   6.692   3.279   2.863 -0.8687 -0.1441 -0.3687
  449MOL0     H61950   7.128   3.279   2.832 -1.4874  3.1677 -0.0128
  449MOL0     H61951   7.105   3.292   3.017 -0.1295  0.6964 -1.0162
  449MOL0     H61952   7.058   3.035   2.852 -2.9990  2.5187  0.0998
  449MOL0     H61953   7.060   3.052   3.033  0.0083 -0.6966  0.5716
  449MOL0     H61954   7.306   3.082   3.043  1.0187 -1.3308  0.3527
  449MOL0     H61955   7.240   2.926   2.999  1.6470 -1.2759 -2.9187
  449MOL0     H61956   7.350   3.129   2.797 -2.3428  1.1822 -0.1730
  449MOL0     H61957   7.274   2.968   2.770  1.3795 -0.2873  0.2274
  449MOL0     H61958   7.638   2.839   2.868  0.3596 -1.2938  0.9122
  449MOL0     H61959   7.054   3.169   2.668  0.1052 -3.3632  2.9476
  449MOL0     H61960   6.993   3.181   2.376 -2.8147  0.8873 -0.0764
  449MOL0     H61961   7.044   3.043   2.462  0.8539  2.0276  1.3287
  449MOL0     H61962   6.895   3.034   2.368  2.9159 -0.5395 -1.5483
  450MOL0     O61963  11.195   6.841  10.676 -0.7185 -0.2504 -0.2412
  450MOL0     C61964  11.093   6.823  10.730 -0.0969  0.8288 -1.0716
  450MOL0     O61965  11.012   6.702  10.733  0.0371 -0.3415 -0.0890
  450MOL0     C61966  11.047   6.582  10.669  0.0239  0.9755 -0.0597
  450MOL0     C61967  11.178   6.553  10.630  0.7460  0.1807 -0.7130
  450MOL0     C61968  11.207   6.434  10.561  0.8789 -0.2443 -0.9503
  450MOL0     C61969  11.104   6.341  10.530 -0.0732 -0.2355 -0.0422
  450MOL0     O61970  11.126   6.222  10.467 -0.0862  0.0131 -1.5269
  450MOL0     C61971  11.256   6.186  10.421  0.3521  0.7329  0.1352
  450MOL0     C61972  11.248   6.069  10.319  0.7918  0.0580  0.1256
  450MOL0     C61973  11.157   6.093  10.192 -0.9811 -0.1902 -0.6023
  450MOL0     C61974  11.151   5.954  10.121  0.6203 -0.4232  0.1380
  450MOL0     C61975  11.081   5.967   9.990  0.6784 -0.3987 -0.0529
  450MOL0     C61976  11.169   6.014   9.878 -0.2957 -1.1434  0.0620
  450MOL0     C61977  11.077   6.029   9.751 -0.8145 -0.0934 -0.2631
  450MOL0     C61978  11.147   6.109   9.634  0.2662 -0.4433  1.1506
  450MOL0     N61979  11.244   6.025   9.557 -0.2202  0.2535 -1.0011
  450MOL0     C61980  11.209   5.969   9.440  0.7620 -0.3540 -0.4623
  450MOL0     C61981  11.332   5.949   9.383  0.8261  0.6667  0.1632
  450MOL0     C61982  11.351   5.871   9.253  0.1365 -0.2133 -0.2603
  450MOL0     C61983  11.406   5.728   9.272 -0.7242 -0.1356 -0.3405
  450MOL0     C61984  11.561   5.741   9.269  0.0799  0.0979  0.4971
  450MOL0     C61985  11.633   5.610   9.286 -0.3364  0.1081 -0.4193
  450MOL0     O61986  11.646   5.541   9.162 -0.0686  0.0349  0.2889
  450MOL0     C61987  11.698   5.409   9.175  0.4915 -0.7494  0.2443
  450MOL0     C61988  11.723   5.338   9.295  0.5795 -1.1439  0.3134
  450MOL0     C61989  11.780   5.209   9.287 -0.5882 -0.0063  0.0292
  450MOL0     C61990  11.807   5.129   9.417  0.3406  0.3661 -0.0237
  450MOL0     C61991  11.818   5.156   9.164 -0.3184  0.0788  0.1346
  450MOL0     C61992  11.891   5.023   9.142  0.0192 -0.3171 -1.0476
  450MOL0     O61993  11.963   4.973   9.242 -0.2376 -0.5138 -0.6826
  450MOL0     C61994  12.077   4.909   9.231 -0.8122  0.3041  0.7647
  450MOL0     C61995  12.153   4.884   9.113 -0.4222  0.0888  0.1293
  450MOL0     C61996  12.283   4.828   9.125  0.2557  0.3524 -0.8818
  450MOL0     C61997  12.340   4.803   9.253 -0.3914 -0.3674 -0.3468
  450MOL0     O61998  12.474   4.755   9.257  0.5867  0.3968  0.0598
  450MOL0     C61999  12.550   4.738   9.377 -0.2257 -1.0586  0.4652
  450MOL0     C62000  12.648   4.628   9.363  0.1827 -0.7080  0.3107
  450MOL0     C62001  12.765   4.658   9.454  1.1606  0.1202 -0.0938
  450MOL0     C62002  12.892   4.606   9.400 -0.0421 -0.3282  0.3424
  450MOL0     C62003  13.000   4.610   9.512 -1.2253 -0.4907 -0.4153
  450MOL0     C62004  13.107   4.502   9.496  0.0156  0.6677  0.6894
  450MOL0     C62005  13.199   4.521   9.367  0.4187  0.1295 -0.0549
  450MOL0     C62006  13.311   4.415   9.356  0.6395 -0.3028 -0.2689
  450MOL0    Cl62007  13.412   4.467   9.495 -0.1507  0.1264  0.5557
  450MOL0     C62008  12.269   4.827   9.372  1.1854 -0.2216  0.5546
  450MOL0     C62009  12.131   4.874   9.355  0.0726 -0.0212 -0.0248
  450MOL0     O62010  11.878   4.984   9.028 -0.4449 -0.1681  0.1971
  450MOL0     C62011  11.788   5.230   9.043 -0.3259 -0.0291  0.8935
  450MOL0     C62012  11.731   5.360   9.050 -0.2965  0.0873  0.0877
  450MOL0     N62013  11.430   6.002   9.453 -0.1871 -0.7510  0.1099
  450MOL0     N62014  11.374   6.050   9.557 -0.2271  0.0017  0.7408
  450MOL0     C62015  10.973   6.374  10.560 -0.2220  0.4169 -0.1976
  450MOL0     C62016  10.943   6.496  10.625 -0.6617  0.6004  0.0641
  450MOL0     C62017  11.004   6.935  10.776  0.3375  0.2666  0.6162
  450MOL0     C62018  10.859   6.933  10.764 -0.2808  0.0653 -0.5418
  450MOL0     C62019  10.776   7.039  10.803  0.3608  0.2281  0.2230
  450MOL0     C62020  10.826   7.152  10.856 -0.0223 -0.2627  0.0528
  450MOL0     O62021  10.743   7.260  10.863  0.4299 -0.9517  0.3946
  450MOL0     C62022  10.800   7.383  10.916  0.3327  0.0586 -0.1385
  450MOL0     C62023  10.702   7.498  10.910 -0.1997  0.0270 -0.6044
  450MOL0     C62024  10.611   7.498  11.030  0.0127 -0.0986  0.5602
  450MOL0     C62025  10.479   7.570  11.021 -0.0992 -0.3276 -0.1402
  450MOL0     C62026  10.495   7.713  11.010  0.0777 -0.8850  0.9418
  450MOL0     C62027  10.499   7.833  10.981  0.2591 -0.1928 -0.3013
  450MOL0     C62028  10.966   7.152  10.887 -0.1421 -0.6244  0.7593
  450MOL0     C62029  11.058   7.052  10.839  0.2214  0.1721  0.1660
  450MOL0     C62030  11.201   7.071  10.865 -0.0326  0.8578  0.1708
  450MOL0     H62031  11.266   6.608  10.663 -0.0225  0.5450  0.8555
  450MOL0     H62032  11.309   6.398  10.554  0.3996 -3.1653  3.2138
  450MOL0     H62033  11.319   6.168  10.509  1.1483  0.2004 -0.5295
  450MOL0     H62034  11.299   6.268  10.364  1.1313  0.6699  0.6163
  450MOL0     H62035  11.347   6.033  10.289  0.0827 -1.0761 -0.9495
  450MOL0     H62036  11.206   5.986  10.377 -1.7032  0.5845 -0.8013
  450MOL0     H62037  11.055   6.121  10.222 -1.1826 -0.7528 -0.7501
  450MOL0     H62038  11.203   6.168  10.127 -0.4230  2.2745  2.4211
  450MOL0     H62039  11.247   5.905  10.101  0.7976  0.3598 -0.9761
  450MOL0     H62040  11.109   5.873  10.182  1.9964 -1.7196 -0.5583
  450MOL0     H62041  10.997   6.037  10.000 -0.5516 -1.4985 -2.0371
  450MOL0     H62042  11.024   5.879   9.958 -0.5848 -0.3084  1.7916
  450MOL0     H62043  11.214   6.108   9.910 -0.1328 -1.6997  1.5473
  450MOL0     H62044  11.255   5.950   9.855  0.1653 -1.1160  1.5935
  450MOL0     H62045  10.996   6.097   9.780 -0.2597 -0.0394  1.2185
  450MOL0     H62046  11.029   5.938   9.712  0.8131 -1.0521 -0.1032
  450MOL0     H62047  11.077   6.155   9.563 -1.8102 -0.7107  2.9406
  450MOL0     H62048  11.200   6.191   9.683  0.4656 -1.0455  1.9578
  450MOL0     H62049  11.118   5.930   9.396  1.2734 -0.1015 -1.7868
  450MOL0     H62050  11.426   5.920   9.190  0.8486 -1.4047 -0.3747
  450MOL0     H62051  11.259   5.863   9.195 -1.7629  1.4072  2.2944
  450MOL0     H62052  11.381   5.684   9.369 -1.0569  1.3836  0.2900
  450MOL0     H62053  11.376   5.662   9.190  2.0935 -2.8617  0.6305
  450MOL0     H62054  11.586   5.767   9.165  1.1852 -1.4379  0.3385
  450MOL0     H62055  11.602   5.813   9.341  0.5662  3.3003 -2.6747
  450MOL0     H62056  11.737   5.621   9.317 -0.3930  0.2683 -0.2829
  450MOL0     H62057  11.588   5.556   9.370  1.1601  0.0782  0.3953
  450MOL0     H62058  11.700   5.377   9.393  0.0986  0.7819 -0.5300
  450MOL0     H62059  11.731   5.150   9.493  0.1694 -0.9771  0.1917
  450MOL0     H62060  11.907   5.141   9.461 -0.6919  1.5400  2.1686
  450MOL0     H62061  11.801   5.021   9.403  0.8088  0.3541 -0.1536
  450MOL0     H62062  12.116   4.925   9.020 -2.1540  2.3335  1.6993
  450MOL0     H62063  12.342   4.817   9.035 -0.8808  2.0684 -1.8943
  450MOL0     H62064  12.598   4.835   9.388  0.4174 -0.9788 -2.2633
  450MOL0     H62065  12.497   4.719   9.471 -1.8442  0.7517 -0.0051
  450MOL0     H62066  12.601   4.531   9.383  3.6461 -2.5389  0.3762
  450MOL0     H62067  12.698   4.614   9.267 -1.0458 -3.8684  0.0035
  450MOL0     H62068  12.739   4.617   9.552  0.3561 -0.0231 -0.3601
  450MOL0     H62069  12.770   4.767   9.458  1.7901  0.1370 -1.0127
  450MOL0     H62070  12.916   4.671   9.315  0.4889  1.5236  1.8372
  450MOL0     H62071  12.868   4.503   9.371  1.3664 -1.4270  2.7600
  450MOL0     H62072  13.038   4.712   9.521 -0.1305 -1.0449  1.8087
  450MOL0     H62073  12.962   4.580   9.610  2.2541 -3.3881  0.2644
  450MOL0     H62074  13.059   4.405   9.479  0.6970  0.4501 -0.0287
  450MOL0     H62075  13.161   4.500   9.591  0.7263  3.0252  0.4026
  450MOL0     H62076  13.237   4.623   9.361  1.9084 -0.4332 -0.6751
  450MOL0     H62077  13.130   4.512   9.283  1.8513 -0.1503 -1.2467
  450MOL0     H62078  13.366   4.423   9.261  1.8240  0.5326  0.4632
  450MOL0     H62079  13.263   4.320   9.382 -2.7104  1.9505  2.7556
  450MOL0     H62080  12.299   4.787   9.469 -0.5174 -1.7154  0.5282
  450MOL0     H62081  12.060   4.865   9.437 -1.8046  2.4193 -1.2363
  450MOL0     H62082  11.820   5.192   8.947  2.5780  0.0787  1.7336
  450MOL0     H62083  11.718   5.419   8.960  3.5043 -2.7375 -2.5914
  450MOL0     H62084  10.891   6.308  10.535 -1.2314  1.8284 -0.6695
  450MOL0     H62085  10.839   6.522  10.637 -2.1473 -2.0134 -4.6010
  450MOL0     H62086  10.806   6.849  10.720 -1.6125 -2.5318  5.0065
  450MOL0     H62087  10.669   7.037  10.782  0.1092  3.7489  0.5375
  450MOL0     H62088  10.834   7.364  11.018  1.5304  1.0551 -0.3266
  450MOL0     H62089  10.895   7.418  10.875 -0.5881  1.2437 -1.3609
  450MOL0     H62090  10.645   7.485  10.818 -0.5146  0.1407 -0.4283
  450MOL0     H62091  10.754   7.594  10.909 -0.2418  0.0864  0.7431
  450MOL0     H62092  10.593   7.394  11.059  2.6285 -0.5963  0.5842
  450MOL0     H62093  10.663   7.534  11.119  0.8993 -1.5337  0.6362
  450MOL0     H62094  10.432   7.544  11.117  0.8145 -0.7001  0.2116
  450MOL0     H62095  10.416   7.525  10.944 -0.7248  0.2452  0.0313
  450MOL0     H62096  10.507   7.937  10.957 -0.8874  0.0173  0.1226
  450MOL0     H62097  11.014   7.232  10.943  0.4608 -0.7904  0.4811
  450MOL0     H62098  11.234   6.975  10.906  1.3314  0.9015 -0.7781
  450MOL0     H62099  11.243   7.091  10.766 -2.8934  0.2688 -1.2845
  450MOL0     H62100  11.219   7.150  10.938  2.6794  0.8268 -0.3822
  451MOL0     O62101   3.359   0.252   1.150 -0.3286  0.4812  0.7908
  451MOL0     C62102   3.431   0.164   1.200 -0.1833 -0.2227 -0.0454
  451MOL0     O62103   3.567   0.170   1.193  0.3020  0.2617  0.1701
  451MOL0     C62104   3.622   0.269   1.121 -0.6143  0.4294 -1.0071
  451MOL0     C62105   3.697   0.356   1.193  0.6039 -0.3817 -0.5137
  451MOL0     C62106   3.775   0.450   1.121  0.0187  0.7792 -0.1655
  451MOL0     C62107   3.773   0.447   0.978  0.0638 -0.0609 -0.1839
  451MOL0     O62108   3.859   0.532   0.913 -1.1903 -0.1197 -0.6012
  451MOL0     C62109   3.830   0.572   0.775  0.3815 -0.3566  0.3197
  451MOL0     C62110   3.940   0.663   0.724 -0.2580 -0.0316 -0.5824
  451MOL0     C62111   4.064   0.577   0.725  0.3604  0.8305  0.5626
  451MOL0     C62112   4.188   0.660   0.660 -0.5300  0.0643  0.4019
  451MOL0     C62113   4.316   0.608   0.721 -0.1185 -0.5573 -0.3345
  451MOL0     C62114   4.333   0.460   0.673 -0.5804 -0.2761 -0.2734
  451MOL0     C62115   4.488   0.449   0.687 -0.1478  0.6446  0.2503
  451MOL0     C62116   4.513   0.296   0.671  0.0216 -0.1337  0.0445
  451MOL0     N62117   4.525   0.265   0.529 -0.1330  0.9456 -0.2923
  451MOL0     C62118   4.415   0.209   0.458  0.6899 -0.2187  0.0714
  451MOL0     C62119   4.474   0.146   0.358  0.9790 -0.1593 -0.5584
  451MOL0     C62120   4.388   0.072   0.254 -1.1271  0.5449  0.3142
  451MOL0     C62121   4.337   0.159   0.135 -0.1194 -0.8237  0.1192
  451MOL0     C62122   4.430   0.187   0.019 -1.7329  0.4876  0.0668
  451MOL0     C62123   4.360   0.274  -0.093  0.7933  0.2227  0.3308
  451MOL0     O62124   4.442   0.274  -0.204 -0.2903  0.7439  0.0087
  451MOL0     C62125   4.431   0.392  -0.273 -0.3274  0.6270  1.3740
  451MOL0     C62126   4.318   0.405  -0.357 -0.5169 -0.0736 -0.2357
  451MOL0     C62127   4.295   0.523  -0.423 -0.2003 -0.1280  0.1883
  451MOL0     C62128   4.188   0.519  -0.536  0.3281  0.1754  0.1792
  451MOL0     C62129   4.371   0.636  -0.395  0.5839 -0.5570  0.0289
  451MOL0     C62130   4.349   0.764  -0.467  0.0476  0.4305 -0.0440
  451MOL0     O62131   4.452   0.805  -0.557  0.4974 -0.3334 -0.3762
  451MOL0     C62132   4.437   0.925  -0.626  0.4952  0.4483  0.4488
  451MOL0     C62133   4.363   1.043  -0.583  1.4170  0.1821 -0.3224
  451MOL0     C62134   4.343   1.148  -0.676  0.3728  0.3536 -0.7355
  451MOL0     C62135   4.407   1.146  -0.800  0.3538  0.5718  1.0269
  451MOL0     O62136   4.384   1.238  -0.899 -0.6880 -0.0870 -0.0991
  451MOL0     C62137   4.290   1.345  -0.868 -0.3510  0.6838  0.4675
  451MOL0     C62138   4.239   1.402  -0.994 -0.4751 -0.0762  1.2305
  451MOL0     C62139   4.355   1.439  -1.092 -0.2721  0.4929 -0.0420
  451MOL0     C62140   4.288   1.503  -1.212 -0.0363 -0.3746 -0.5771
  451MOL0     C62141   4.369   1.515  -1.338 -0.1978 -0.3791  0.4928
  451MOL0     C62142   4.393   1.654  -1.397 -0.8867  0.5615 -0.2865
  451MOL0     C62143   4.474   1.750  -1.304 -0.4417 -0.3337  0.1338
  451MOL0     C62144   4.497   1.877  -1.382 -0.7876  0.2291 -0.4193
  451MOL0    Cl62145   4.555   2.005  -1.266 -0.2723  0.4449  0.0046
  451MOL0     C62146   4.481   1.031  -0.841 -0.2353  0.5234 -0.0511
  451MOL0     C62147   4.498   0.926  -0.753  0.0748 -0.3655  0.1844
  451MOL0     O62148   4.240   0.820  -0.448 -0.2661 -0.6028 -1.1368
  451MOL0     C62149   4.473   0.625  -0.300 -0.0066 -0.3621  0.0798
  451MOL0     C62150   4.501   0.506  -0.243 -0.2710  0.2451  0.3620
  451MOL0     N62151   4.607   0.164   0.360  0.1874 -0.8371 -0.4094
  451MOL0     N62152   4.640   0.229   0.466 -0.4830  0.7136 -0.6140
  451MOL0     C62153   3.697   0.355   0.909 -0.5295  0.8350 -0.4752
  451MOL0     C62154   3.613   0.271   0.985 -0.3225  0.2625  0.4972
  451MOL0     C62155   3.371   0.060   1.288 -0.9856  0.0969  0.9441
  451MOL0     C62156   3.457  -0.051   1.309  0.3246  0.2212  0.4453
  451MOL0     C62157   3.404  -0.160   1.372  0.4833  0.4295  0.0173
  451MOL0     C62158   3.267  -0.172   1.413 -0.5082  0.9894 -0.4468
  451MOL0     O62159   3.219  -0.300   1.447 -0.0880 -0.6689 -0.2904
  451MOL0     C62160   3.198  -0.308   1.590  0.1828 -0.1859 -0.5492
  451MOL0     C62161   3.165  -0.449   1.619 -0.2364  0.3388 -0.0357
  451MOL0     C62162   3.045  -0.505   1.552  0.3049 -0.2811 -0.2450
  451MOL0     C62163   2.948  -0.584   1.647  0.1922 -0.9523  0.1214
  451MOL0     C62164   2.811  -0.597   1.585 -0.4416  0.7970 -0.6171
  451MOL0     C62165   2.708  -0.608   1.510  0.6306 -0.1539 -0.2576
  451MOL0     C62166   3.188  -0.061   1.412  0.2781  0.0475  0.2309
  451MOL0     C62167   3.233   0.053   1.338 -0.0737 -0.1142  0.3166
  451MOL0     C62168   3.119   0.148   1.323 -0.8539  0.9320  0.9040
  451MOL0     H62169   3.704   0.354   1.301  1.1594  1.0830 -0.4965
  451MOL0     H62170   3.838   0.523   1.171  0.4420  0.3899 -0.1288
  451MOL0     H62171   3.738   0.630   0.768 -0.1573 -1.1743  0.4129
  451MOL0     H62172   3.804   0.487   0.711  0.1033  1.8525 -2.7232
  451MOL0     H62173   3.928   0.713   0.628 -0.0864  0.6445 -0.2541
  451MOL0     H62174   3.962   0.744   0.794  1.2589 -3.4593  3.3173
  451MOL0     H62175   4.081   0.545   0.828 -1.6352  0.7392  0.9170
  451MOL0     H62176   4.038   0.494   0.658 -0.2757  2.0614 -0.7905
  451MOL0     H62177   4.203   0.662   0.551 -0.9275 -0.7159  0.3269
  451MOL0     H62178   4.177   0.765   0.690 -3.3290 -0.3611  1.1839
  451MOL0     H62179   4.316   0.609   0.830  0.3166 -1.2840 -0.3229
  451MOL0     H62180   4.396   0.673   0.686 -1.9895  0.7543 -2.4459
  451MOL0     H62181   4.277   0.401   0.745  0.1333  3.1148  3.4226
  451MOL0     H62182   4.304   0.455   0.567  0.8024 -0.0858 -0.6849
  451MOL0     H62183   4.506   0.478   0.791 -1.5234 -0.1510  0.7454
  451MOL0     H62184   4.546   0.508   0.616 -2.9455  1.2216 -1.7504
  451MOL0     H62185   4.614   0.272   0.706  0.3041  1.3115  0.3063
  451MOL0     H62186   4.438   0.227   0.711 -1.4304  1.1646 -0.3568
  451MOL0     H62187   4.310   0.215   0.484  0.7373 -0.1602  0.2487
  451MOL0     H62188   4.306   0.024   0.307  1.1978 -3.8361  0.3742
  451MOL0     H62189   4.448  -0.013   0.220 -0.9905  0.0518  1.7503
  451MOL0     H62190   4.247   0.114   0.092  1.9885 -4.3705 -0.9870
  451MOL0     H62191   4.312   0.255   0.181  0.2713 -1.1369  1.0013
  451MOL0     H62192   4.514   0.241   0.065  0.5441 -1.1822 -1.8698
  451MOL0     H62193   4.466   0.096  -0.029 -2.2402 -0.8152  2.0280
  451MOL0     H62194   4.264   0.228  -0.118  0.6949  1.5506 -2.0875
  451MOL0     H62195   4.351   0.378  -0.061  1.8311 -0.1481  1.9127
  451MOL0     H62196   4.281   0.304  -0.371 -0.3325 -0.7730  3.3674
  451MOL0     H62197   4.240   0.546  -0.628 -1.8499  1.9127 -0.6319
  451MOL0     H62198   4.109   0.594  -0.526 -0.4720 -0.8475  2.0749
  451MOL0     H62199   4.136   0.422  -0.536  0.4542  0.0607  2.3874
  451MOL0     H62200   4.308   1.046  -0.489  1.6433 -0.5675 -0.1577
  451MOL0     H62201   4.276   1.222  -0.635 -0.0733 -0.5771  0.2638
  451MOL0     H62202   4.204   1.296  -0.821 -0.3027  0.7189  0.5914
  451MOL0     H62203   4.341   1.420  -0.807 -2.7807  1.3873  1.7505
  451MOL0     H62204   4.177   1.331  -1.050  0.8280 -0.6494  0.4929
  451MOL0     H62205   4.185   1.492  -0.962  0.3963  0.8382  0.2352
  451MOL0     H62206   4.398   1.345  -1.128 -1.0964  0.4268 -0.9041
  451MOL0     H62207   4.425   1.510  -1.047  1.6986 -2.7498  2.5110
  451MOL0     H62208   4.241   1.598  -1.186  1.9032  0.3417  0.5496
  451MOL0     H62209   4.208   1.433  -1.238 -1.5055  1.5904 -1.5927
  451MOL0     H62210   4.469   1.474  -1.324  0.1133 -0.1471 -0.8873
  451MOL0     H62211   4.320   1.457  -1.417 -0.6438  1.6440 -0.8079
  451MOL0     H62212   4.294   1.691  -1.425 -0.5016 -1.3446 -5.0742
  451MOL0     H62213   4.453   1.645  -1.487  2.0056 -2.1615  1.6941
  451MOL0     H62214   4.571   1.710  -1.272  0.3608  0.6600 -0.9837
  451MOL0     H62215   4.421   1.769  -1.210  0.2485 -0.0281  0.4701
  451MOL0     H62216   4.403   1.914  -1.424 -0.6660  1.5543  0.4004
  451MOL0     H62217   4.573   1.852  -1.457 -0.6629 -3.6082  0.8017
  451MOL0     H62218   4.534   1.034  -0.935  3.3515  0.9649  1.8118
  451MOL0     H62219   4.555   0.838  -0.782  0.8638 -0.6350  2.3886
  451MOL0     H62220   4.511   0.715  -0.253  0.3765 -1.6117  2.2939
  451MOL0     H62221   4.569   0.484  -0.161  0.4496 -0.9144 -0.5174
  451MOL0     H62222   3.701   0.340   0.801 -1.4862 -1.1608 -0.2881
  451MOL0     H62223   3.539   0.203   0.945 -2.4990  1.9741  1.3505
  451MOL0     H62224   3.564  -0.046   1.288  0.8865  0.7812  3.0865
  451MOL0     H62225   3.466  -0.247   1.393  0.8944  0.7812  0.2787
  451MOL0     H62226   3.292  -0.296   1.645  1.4389 -0.9083 -2.4443
  451MOL0     H62227   3.127  -0.233   1.628  1.0145  1.3386 -1.8562
  451MOL0     H62228   3.156  -0.456   1.728 -0.0553 -3.8207 -0.1348
  451MOL0     H62229   3.246  -0.515   1.588 -0.2706  1.2068 -2.1893
  451MOL0     H62230   2.988  -0.419   1.516 -1.4954 -0.9475  0.8573
  451MOL0     H62231   3.069  -0.573   1.470  1.3701  2.1890 -2.0894
  451MOL0     H62232   2.933  -0.535   1.743  1.7742 -0.7503  0.2984
  451MOL0     H62233   2.988  -0.682   1.677  1.5199 -0.6530 -0.6243
  451MOL0     H62234   2.614  -0.616   1.460 -0.7792  0.1339  2.2203
  451MOL0     H62235   3.093  -0.072   1.462 -0.0602  2.9776  0.3933
  451MOL0     H62236   3.111   0.217   1.408 -0.7139  2.5762 -0.3732
  451MOL0     H62237   3.129   0.192   1.224  1.1552 -0.7307  0.2979
  451MOL0     H62238   3.027   0.090   1.311 -1.1130  1.4952  0.1123
  452MOL0     O62239   5.528   2.698  10.305  0.7256  0.0392 -0.2038
  452MOL0     C62240   5.521   2.572  10.307 -0.9105 -0.0154 -0.8249
  452MOL0     O62241   5.624   2.487  10.288 -1.0776 -0.4647  0.5266
  452MOL0     C62242   5.760   2.530  10.283 -0.9204  0.4168  0.4262
  452MOL0     C62243   5.795   2.647  10.213 -1.1257 -0.4703 -0.5252
  452MOL0     C62244   5.929   2.684  10.207 -0.0884 -0.1782 -0.4693
  452MOL0     C62245   6.021   2.600  10.275  0.2190 -0.0042  0.0096
  452MOL0     O62246   6.151   2.633  10.285  0.4357 -0.1286 -0.3367
  452MOL0     C62247   6.171   2.768  10.341 -0.1496  0.5944  0.3797
  452MOL0     C62248   6.308   2.776  10.396  0.8807  1.0041  0.0795
  452MOL0     C62249   6.339   2.885  10.490 -0.0121 -0.5951 -0.2760
  452MOL0     C62250   6.489   2.929  10.509 -0.7498  0.1532 -0.1094
  452MOL0     C62251   6.522   3.029  10.622  0.0737  0.0611  0.2679
  452MOL0     C62252   6.672   3.080  10.599 -0.7718  0.5391  0.3497
  452MOL0     C62253   6.718   3.145  10.727 -0.8525 -0.8699  0.9542
  452MOL0     C62254   6.863   3.195  10.723  0.4764 -0.3340  0.2242
  452MOL0     N62255   6.897   3.265  10.845  0.4581 -0.0058 -0.4020
  452MOL0     C62256   6.842   3.385  10.885 -0.7976  0.4925  0.6977
  452MOL0     C62257   6.903   3.405  11.004  0.7946 -0.6259  0.8753
  452MOL0     C62258   6.866   3.518  11.094  0.0307 -0.4612  0.2200
  452MOL0     C62259   6.973   3.559  11.192  0.3230  0.5659 -0.1109
  452MOL0     C62260   6.940   3.499  11.334  0.0131  1.2317  0.8461
  452MOL0     C62261   7.050   3.519  11.447  0.1998  0.3711  1.2825
  452MOL0     O62262   7.062   3.655  11.476 -0.1624 -0.3416 -0.6407
  452MOL0     C62263   7.183   3.688  11.528 -0.5195 -0.0443 -0.5450
  452MOL0     C62264   7.266   3.612  11.606 -1.4425 -0.0428 -0.7408
  452MOL0     C62265   7.395   3.655  11.658 -0.0697  0.6148  0.8692
  452MOL0     C62266   7.491   3.548  11.718  0.4258 -0.3746  0.3772
  452MOL0     C62267   7.436   3.788  11.635 -0.1913 -0.2400 -0.0180
  452MOL0     C62268   7.556   3.847  11.691 -0.0233 -0.3434 -0.3602
  452MOL0     O62269   7.602   3.801  11.807 -0.7243  0.6433  0.1310
  452MOL0     C62270   7.715   3.858  11.851  0.9258  0.5872 -0.1715
  452MOL0     C62271   7.696   3.968  11.930 -0.0263 -0.6093 -0.0232
  452MOL0     C62272   7.804   4.058  11.954 -0.9018  0.1149  0.8235
  452MOL0     C62273   7.934   4.012  11.921 -0.4218 -0.6361 -0.3217
  452MOL0     O62274   8.047   4.096  11.940 -0.0406  0.2228 -0.6651
  452MOL0     C62275   8.121   4.111  11.817 -0.5076 -0.2437  0.4296
  452MOL0     C62276   8.266   4.146  11.842  0.0027 -0.3092 -0.0144
  452MOL0     C62277   8.286   4.249  11.949  0.3316  0.3311 -1.1159
  452MOL0     C62278   8.426   4.313  11.948 -0.2631  0.4657  0.4042
  452MOL0     C62279   8.423   4.447  12.026  0.9437  0.8327  0.0675
  452MOL0     C62280   8.564   4.512  12.036  0.0408  0.5285  0.0785
  452MOL0     C62281   8.573   4.641  12.118  0.7453 -0.3335 -0.7048
  452MOL0     C62282   8.454   4.736  12.110  0.9090  0.6215 -0.8245
  452MOL0    Cl62283   8.450   4.810  11.947 -0.1916  0.5771 -0.0551
  452MOL0     C62284   7.951   3.877  11.882  0.1578  0.0024  0.1144
  452MOL0     C62285   7.840   3.800  11.842  0.3993  0.4081 -0.5346
  452MOL0     O62286   7.603   3.940  11.626 -0.4051 -0.3123  0.3998
  452MOL0     C62287   7.355   3.865  11.550  0.1502  0.4690  0.1447
  452MOL0     C62288   7.233   3.814  11.504 -0.5964  0.2710 -0.4135
  452MOL0     N62289   6.974   3.294  11.036 -0.1583  0.3153 -0.5563
  452MOL0     N62290   6.990   3.222  10.934  0.5028  0.1882  0.1098
  452MOL0     C62291   5.985   2.479  10.334 -0.9329 -0.3221 -0.1405
  452MOL0     C62292   5.852   2.445  10.348  0.0279 -1.0280  0.7861
  452MOL0     C62293   5.387   2.509  10.320 -0.4201  1.1058  0.0446
  452MOL0     C62294   5.374   2.368  10.304  0.8818 -0.0506 -0.1406
  452MOL0     C62295   5.260   2.286  10.304 -0.1614 -0.3115 -0.6533
  452MOL0     C62296   5.148   2.351  10.341  0.1889 -0.0034 -0.3316
  452MOL0     O62297   5.029   2.281  10.330  0.3642 -0.0326  0.2069
  452MOL0     C62298   4.903   2.340  10.364  0.3458 -0.1699 -1.1587
  452MOL0     C62299   4.801   2.226  10.368  0.0689 -0.6098 -0.6559
  452MOL0     C62300   4.677   2.275  10.443 -0.4311  0.4964  0.2172
  452MOL0     C62301   4.609   2.400  10.380  0.4245  1.1805 -0.0172
  452MOL0     C62302   4.582   2.390  10.233  0.1187  0.6020 -0.0085
  452MOL0     C62303   4.550   2.383  10.116 -0.3753  0.8904  0.6625
  452MOL0     C62304   5.152   2.494  10.366  0.9023 -0.6066  0.4353
  452MOL0     C62305   5.268   2.575  10.352  0.3232 -0.5461  0.0704
  452MOL0     C62306   5.245   2.723  10.385 -0.5351 -0.2692 -0.1140
  452MOL0     H62307   5.715   2.702  10.163 -3.4662 -1.2026  2.1403
  452MOL0     H62308   5.965   2.773  10.155 -3.1221  0.9853 -0.7980
  452MOL0     H62309   6.107   2.770  10.430  0.9144  0.6478  1.1598
  452MOL0     H62310   6.153   2.849  10.270  1.4466  2.0289  1.5387
  452MOL0     H62311   6.315   2.678  10.443  0.6277  0.6052 -0.6848
  452MOL0     H62312   6.377   2.771  10.311  1.4268 -1.8670  0.6036
  452MOL0     H62313   6.282   2.975  10.465 -1.3254 -1.0517  0.9421
  452MOL0     H62314   6.308   2.870  10.594 -1.1717  2.6112 -0.0464
  452MOL0     H62315   6.557   2.843  10.516 -1.9133 -0.9251 -1.3613
  452MOL0     H62316   6.518   2.978  10.415  1.2189  0.8179  0.7943
  452MOL0     H62317   6.508   2.981  10.719 -1.0002  2.3545  1.3249
  452MOL0     H62318   6.459   3.118  10.624  0.3442  0.2580  0.1842
  452MOL0     H62319   6.735   2.991  10.587 -1.4588  0.3005 -2.0587
  452MOL0     H62320   6.678   3.137  10.506 -0.1788  1.1433  0.7534
  452MOL0     H62321   6.709   3.070  10.807 -1.4029 -2.0759 -0.2050
  452MOL0     H62322   6.643   3.222  10.750 -0.5951 -0.7182  1.2990
  452MOL0     H62323   6.923   3.104  10.714  0.3630 -0.2878 -1.2307
  452MOL0     H62324   6.896   3.255  10.638  1.2509  2.3082  2.2273
  452MOL0     H62325   6.777   3.455  10.834 -0.1283  0.4351 -0.2550
  452MOL0     H62326   6.777   3.493  11.152  1.2284  3.5562  4.4530
  452MOL0     H62327   6.838   3.602  11.030  2.4989 -1.3558 -2.2073
  452MOL0     H62328   7.074   3.548  11.152  0.6038  2.1722  0.0721
  452MOL0     H62329   6.960   3.666  11.210  1.6175  0.4974  1.4538
  452MOL0     H62330   6.846   3.544  11.369  0.3070  3.5397 -1.0699
  452MOL0     H62331   6.909   3.394  11.333 -0.0367  1.2499  0.1308
  452MOL0     H62332   7.021   3.478  11.544  2.6376  0.0847  1.9483
  452MOL0     H62333   7.145   3.468  11.428 -0.7065 -0.7211 -0.6779
  452MOL0     H62334   7.235   3.510  11.626  2.7629 -1.9810 -2.7795
  452MOL0     H62335   7.465   3.452  11.672 -0.4081  0.4792 -1.0075
  452MOL0     H62336   7.467   3.550  11.825 -1.9200  4.7919  0.0074
  452MOL0     H62337   7.598   3.566  11.702  0.0841  2.0445  0.4417
  452MOL0     H62338   7.592   3.992  11.949  0.2880  1.3626 -0.5608
  452MOL0     H62339   7.792   4.151  12.007 -2.2087  0.2123  0.4147
  452MOL0     H62340   8.118   4.017  11.760  0.0006 -0.7412  1.2103
  452MOL0     H62341   8.083   4.195  11.758  0.4407 -0.4732 -0.5447
  452MOL0     H62342   8.305   4.052  11.883 -3.0626 -1.0545  1.5622
  452MOL0     H62343   8.319   4.169  11.750 -0.9984 -3.0705 -1.4191
  452MOL0     H62344   8.284   4.212  12.053 -0.8433  1.7194 -0.6164
  452MOL0     H62345   8.207   4.323  11.934  2.1543  2.6134 -0.0910
  452MOL0     H62346   8.466   4.327  11.847 -0.1009  2.0776  0.6600
  452MOL0     H62347   8.485   4.237  11.999 -2.3163 -1.9180 -0.5268
  452MOL0     H62348   8.350   4.510  11.974  1.0674  0.1671 -0.9340
  452MOL0     H62349   8.376   4.424  12.122  0.9906  0.8804  0.1018
  452MOL0     H62350   8.599   4.527  11.933  6.2740 -0.5291  1.6378
  452MOL0     H62351   8.636   4.442  12.078 -1.9870 -2.6522 -1.4143
  452MOL0     H62352   8.670   4.689  12.104  0.5426  0.0995 -0.6463
  452MOL0     H62353   8.589   4.602  12.219 -0.6275  0.6938 -0.0551
  452MOL0     H62354   8.463   4.815  12.185  2.0182  0.7023 -1.0300
  452MOL0     H62355   8.360   4.686  12.135  1.7738 -2.1536 -2.6719
  452MOL0     H62356   8.054   3.841  11.875  0.3381  0.2008  1.4513
  452MOL0     H62357   7.855   3.704  11.794 -1.9156  0.2717 -1.1071
  452MOL0     H62358   7.390   3.964  11.521  2.4110  0.0154  1.0826
  452MOL0     H62359   7.165   3.885  11.457 -2.3371 -1.2360 -0.2657
  452MOL0     H62360   6.060   2.411  10.374 -1.0670  0.3318  1.2817
  452MOL0     H62361   5.821   2.352  10.395 -1.6710 -1.5846 -1.2487
  452MOL0     H62362   5.462   2.309  10.280  1.3828  0.1336  1.1360
  452MOL0     H62363   5.272   2.180  10.288  1.0949 -0.3968  0.7368
  452MOL0     H62364   4.913   2.385  10.463  1.5241 -1.7898 -0.5017
  452MOL0     H62365   4.874   2.415  10.289 -0.1167 -0.5551 -1.3766
  452MOL0     H62366   4.844   2.147  10.431  2.4829  2.5570  2.0776
  452MOL0     H62367   4.778   2.191  10.267  0.8729  0.2960 -1.1691
  452MOL0     H62368   4.594   2.206  10.433 -0.3869  0.5556 -0.6072
  452MOL0     H62369   4.700   2.294  10.548  0.9908  0.5704 -0.0871
  452MOL0     H62370   4.667   2.490  10.401  0.1968  0.9630  1.7269
  452MOL0     H62371   4.515   2.409  10.436 -0.0484  1.2033 -0.7934
  452MOL0     H62372   4.527   2.379  10.012 -0.5542  1.4250  0.6816
  452MOL0     H62373   5.056   2.535  10.396  0.1122 -1.5101 -0.7389
  452MOL0     H62374   5.141   2.736  10.416 -1.1677  1.0352 -2.5046
  452MOL0     H62375   5.317   2.756  10.461 -1.0180  2.8382 -0.8440
  452MOL0     H62376   5.258   2.781  10.293  0.8760 -2.0870 -1.1210
  453MOL0     O62377  11.383   6.331   7.513  0.5091 -0.3421 -0.5506
  453MOL0     C62378  11.356   6.217   7.470 -0.6966 -0.5444 -0.6971
  453MOL0     O62379  11.437   6.109   7.494 -0.0084 -0.9003  0.0148
  453MOL0     C62380  11.554   6.105   7.566  0.0019 -0.6547  0.7122
  453MOL0     C62381  11.576   6.170   7.691  1.1099  0.3988  0.7430
  453MOL0     C62382  11.692   6.149   7.772  0.4594  0.3958  0.0522
  453MOL0     C62383  11.801   6.068   7.731  0.5718 -0.3563 -0.0926
  453MOL0     O62384  11.918   6.045   7.795 -1.0179  0.3949  0.1018
  453MOL0     C62385  11.971   6.143   7.886  0.3335  0.0708  0.4641
  453MOL0     C62386  12.108   6.096   7.930  0.0337  0.4089 -0.0691
  453MOL0     C62387  12.154   6.201   8.040 -0.3442  0.0099  0.9909
  453MOL0     C62388  12.308   6.210   8.043 -0.2078 -0.5048 -0.7319
  453MOL0     C62389  12.342   6.356   8.008 -0.4399  0.3243 -0.4541
  453MOL0     C62390  12.492   6.386   8.028  0.6953 -0.8364  0.7550
  453MOL0     C62391  12.553   6.513   7.962 -0.7380 -0.5993 -0.4317
  453MOL0     C62392  12.532   6.634   8.038 -0.1127 -0.1664 -0.8451
  453MOL0     N62393  12.567   6.749   7.962  0.2224 -0.1555 -0.7818
  453MOL0     C62394  12.550   6.883   8.002 -0.2220  0.0734  0.0111
  453MOL0     C62395  12.614   6.950   7.907 -0.3204  0.4134  0.1012
  453MOL0     C62396  12.626   7.103   7.898  0.2775 -0.9191 -0.3866
  453MOL0     C62397  12.627   7.153   7.746 -0.3304 -0.8010  0.9724
  453MOL0     C62398  12.597   7.299   7.734  1.3613 -0.2405 -0.0887
  453MOL0     C62399  12.594   7.349   7.583  0.0804  0.2600 -0.5951
  453MOL0     O62400  12.496   7.283   7.503  0.0664  0.7494 -0.3817
  453MOL0     C62401  12.376   7.347   7.459  0.5422 -1.1162  0.1875
  453MOL0     C62402  12.333   7.476   7.505 -0.0145  0.9228 -0.8145
  453MOL0     C62403  12.218   7.537   7.483  0.5390 -0.6760  0.3883
  453MOL0     C62404  12.176   7.660   7.560 -0.0973  0.3160 -0.1472
  453MOL0     C62405  12.150   7.488   7.373  0.7487 -0.2769 -0.4298
  453MOL0     C62406  12.038   7.560   7.306  0.8910 -0.1304 -0.3930
  453MOL0     O62407  11.966   7.486   7.211  0.0768  0.4033  0.3047
  453MOL0     C62408  11.864   7.547   7.145 -0.4568  0.3903 -0.8117
  453MOL0     C62409  11.883   7.658   7.060 -0.1243  0.4553 -0.2176
  453MOL0     C62410  11.774   7.696   6.996  0.4030  0.3769 -0.3185
  453MOL0     C62411  11.652   7.633   7.016 -0.3193 -0.6034  0.9141
  453MOL0     O62412  11.557   7.695   6.944  0.0906  0.0132  0.1726
  453MOL0     C62413  11.443   7.611   6.895  1.5641  0.3438  0.1423
  453MOL0     C62414  11.370   7.690   6.783 -0.2785  0.3225  0.8447
  453MOL0     C62415  11.255   7.616   6.702 -0.0280  0.3433 -0.6677
  453MOL0     C62416  11.131   7.588   6.795 -0.4065 -0.0436 -0.1207
  453MOL0     C62417  11.007   7.535   6.720 -0.2457 -0.0863  1.2281
  453MOL0     C62418  10.951   7.638   6.618 -0.3106 -0.3223 -0.4102
  453MOL0     C62419  10.809   7.603   6.589 -0.2291  0.6669  0.3247
  453MOL0     C62420  10.751   7.721   6.510  0.3106 -0.0275 -0.4257
  453MOL0    Cl62421  10.587   7.681   6.459 -0.2138 -0.0814 -0.1944
  453MOL0     C62422  11.626   7.537   7.116 -0.0918  0.2375  0.2815
  453MOL0     C62423  11.736   7.487   7.183 -0.4509  0.6023 -0.0615
  453MOL0     O62424  12.011   7.678   7.330 -0.0032 -0.4446  0.2636
  453MOL0     C62425  12.187   7.357   7.323 -0.3136  0.4911  0.4766
  453MOL0     C62426  12.293   7.289   7.372  0.0904 -0.0455  0.6107
  453MOL0     N62427  12.678   6.862   7.823  0.3671 -0.3189 -0.0782
  453MOL0     N62428  12.637   6.744   7.849  0.4478 -0.3990 -0.4372
  453MOL0     C62429  11.777   5.989   7.617  0.2464 -0.2981  0.6226
  453MOL0     C62430  11.654   6.009   7.536  0.4940 -0.7619  0.1671
  453MOL0     C62431  11.229   6.178   7.407 -0.0389 -0.2510  0.3111
  453MOL0     C62432  11.168   6.047   7.420 -0.8445 -0.2506  0.9969
  453MOL0     C62433  11.035   6.017   7.362 -0.2520 -0.8242 -0.0692
  453MOL0     C62434  10.965   6.114   7.285 -0.5566 -0.4311  0.1950
  453MOL0     O62435  10.838   6.121   7.237  0.1059  0.2738 -0.1998
  453MOL0     C62436  10.770   6.002   7.207 -0.0721  0.8056 -0.2869
  453MOL0     C62437  10.666   5.984   7.327 -0.1861 -0.2088  0.9474
  453MOL0     C62438  10.613   6.121   7.370  0.6403 -0.5013 -0.0908
  453MOL0     C62439  10.492   6.113   7.464 -0.1456 -0.2017  0.1875
  453MOL0     C62440  10.368   6.111   7.383  0.3279  0.7839 -0.4751
  453MOL0     C62441  10.286   6.106   7.299  0.6045  0.2224 -1.1584
  453MOL0     C62442  11.035   6.235   7.265  0.1113  0.0310 -0.1348
  453MOL0     C62443  11.160   6.273   7.322  0.3384  0.2736  0.6465
  453MOL0     C62444  11.202   6.422   7.308 -0.4963  1.2891  0.7038
  453MOL0     H62445  11.502   6.245   7.718  1.0861  0.4425  0.5609
  453MOL0     H62446  11.692   6.191   7.873 -3.7821  2.4510 -0.5518
  453MOL0     H62447  11.902   6.149   7.970 -3.2389 -1.2202 -2.0949
  453MOL0     H62448  11.983   6.238   7.832 -2.1760  0.0682 -0.2473
  453MOL0     H62449  12.100   5.999   7.981  1.4730  0.0443 -0.4864
  453MOL0     H62450  12.178   6.083   7.847  1.0380  1.0831  0.6563
  453MOL0     H62451  12.120   6.299   8.006  2.2916  0.6022 -0.0987
  453MOL0     H62452  12.110   6.178   8.138  1.5257 -2.3127  1.3558
  453MOL0     H62453  12.343   6.177   8.142 -1.7016 -1.1488 -0.3736
  453MOL0     H62454  12.347   6.148   7.962  2.4365  0.0255  0.0555
  453MOL0     H62455  12.299   6.431   8.074 -0.2294 -0.1936  0.2910
  453MOL0     H62456  12.312   6.384   7.907 -2.7202  0.0731  0.0931
  453MOL0     H62457  12.499   6.400   8.137 -3.1889 -0.8122  1.1367
  453MOL0     H62458  12.551   6.308   7.979  1.4263 -0.6293  1.2862
  453MOL0     H62459  12.520   6.525   7.859 -0.5428  2.3730 -0.2200
  453MOL0     H62460  12.661   6.495   7.966 -0.6994 -0.1484  1.3489
  453MOL0     H62461  12.429   6.643   8.074 -0.2241 -1.3065 -0.8288
  453MOL0     H62462  12.585   6.639   8.134 -0.1821  0.4950 -0.8390
  453MOL0     H62463  12.488   6.915   8.086  1.5665  1.4640  0.8760
  453MOL0     H62464  12.720   7.135   7.944  0.1478  0.5138 -1.0586
  453MOL0     H62465  12.542   7.154   7.947 -0.1909 -0.2741 -1.8136
  453MOL0     H62466  12.719   7.128   7.692 -2.1978  0.6805 -3.3827
  453MOL0     H62467  12.561   7.091   7.685  1.7508 -0.3650 -1.9646
  453MOL0     H62468  12.496   7.319   7.770  0.8746  0.8850 -1.9646
  453MOL0     H62469  12.659   7.358   7.802 -2.5866 -0.4830  4.2937
  453MOL0     H62470  12.582   7.457   7.579  2.2509  0.4966 -2.1524
  453MOL0     H62471  12.695   7.338   7.545  1.9387  1.6111  3.4006
  453MOL0     H62472  12.388   7.515   7.590 -1.2161  1.0484 -0.0810
  453MOL0     H62473  12.190   7.754   7.507 -1.9938  0.4303 -0.5103
  453MOL0     H62474  12.235   7.666   7.652  1.4241 -1.8867 -0.8972
  453MOL0     H62475  12.072   7.646   7.592 -0.1749 -1.1959 -0.9822
  453MOL0     H62476  11.981   7.702   7.043  0.6524 -1.3881 -0.7123
  453MOL0     H62477  11.775   7.777   6.923 -3.8014  0.1071 -0.9312
  453MOL0     H62478  11.472   7.516   6.849 -1.9821 -0.5319 -0.5564
  453MOL0     H62479  11.373   7.596   6.978  2.6367  0.1983  1.0353
  453MOL0     H62480  11.324   7.786   6.806 -1.7413 -0.4703  1.3479
  453MOL0     H62481  11.450   7.717   6.714 -1.9566  2.3297 -0.4134
  453MOL0     H62482  11.286   7.518   6.665 -0.6927 -0.9077  1.8319
  453MOL0     H62483  11.219   7.683   6.624  1.5929  1.0421 -0.8694
  453MOL0     H62484  11.091   7.682   6.834 -4.0883 -0.4542 -2.4680
  453MOL0     H62485  11.153   7.515   6.874  1.0165  0.8865  0.3855
  453MOL0     H62486  11.036   7.438   6.681  0.9607 -0.3249  2.6144
  453MOL0     H62487  10.932   7.506   6.794 -2.4167  1.5169 -0.2147
  453MOL0     H62488  11.017   7.629   6.531 -0.5660  1.7922 -0.8747
  453MOL0     H62489  10.956   7.733   6.672 -3.1246  0.1046 -0.7376
  453MOL0     H62490  10.751   7.592   6.681  1.0240  1.2955  1.2097
  453MOL0     H62491  10.803   7.511   6.529  1.9230 -0.2784  1.4318
  453MOL0     H62492  10.812   7.740   6.422  0.0094 -0.8847 -0.8368
  453MOL0     H62493  10.760   7.818   6.560 -1.5404  1.7824 -3.3387
  453MOL0     H62494  11.520   7.517   7.131  0.3421 -4.6130 -1.2909
  453MOL0     H62495  11.736   7.405   7.254 -0.3121 -0.6947 -1.5067
  453MOL0     H62496  12.141   7.311   7.236 -0.9459 -0.5279  1.3235
  453MOL0     H62497  12.323   7.191   7.336  0.3473  1.6130 -4.3452
  453MOL0     H62498  11.851   5.913   7.596 -1.2157 -1.1568 -1.8948
  453MOL0     H62499  11.632   5.939   7.456  0.9594 -2.2419  1.2857
  453MOL0     H62500  11.224   5.971   7.473 -1.0800 -0.4674  0.9345
  453MOL0     H62501  11.003   5.914   7.375  0.8252 -1.1490  0.1796
  453MOL0     H62502  10.705   6.008   7.119  0.4440 -0.5525 -0.7962
  453MOL0     H62503  10.832   5.913   7.191 -2.5971 -1.1232 -0.0090
  453MOL0     H62504  10.716   5.924   7.404  2.3857 -1.1851 -1.3050
  453MOL0     H62505  10.584   5.916   7.303  0.2690 -0.4362 -0.0453
  453MOL0     H62506  10.699   6.159   7.427 -1.1114  1.4884  1.3752
  453MOL0     H62507  10.588   6.183   7.284 -3.0913 -2.1573 -0.3668
  453MOL0     H62508  10.495   6.202   7.529  1.6645 -0.0242 -0.0778
  453MOL0     H62509  10.500   6.026   7.530 -2.7497  1.0724  2.3756
  453MOL0     H62510  10.208   6.117   7.226  0.0136  1.5995 -0.3627
  453MOL0     H62511  10.983   6.316   7.216  0.1078 -0.2588 -0.6179
  453MOL0     H62512  11.125   6.484   7.261  0.7014  2.2536 -0.0399
  453MOL0     H62513  11.218   6.457   7.410  0.2649  1.9029  0.3857
  453MOL0     H62514  11.299   6.433   7.260 -0.8186  1.4423  0.0736
  454MOL0     O62515   7.912   9.244   9.677 -0.2768  0.0130 -0.5005
  454MOL0     C62516   7.894   9.220   9.796  0.0818 -0.3008  0.4424
  454MOL0     O62517   7.992   9.238   9.897  1.1243 -0.3641  0.4468
  454MOL0     C62518   8.125   9.243   9.865 -0.1329 -0.1297  0.0994
  454MOL0     C62519   8.207   9.325   9.942 -0.3173 -0.6570 -1.2221
  454MOL0     C62520   8.337   9.347   9.912 -0.0689 -0.7696 -0.4249
  454MOL0     C62521   8.404   9.269   9.817 -0.4239  0.2703 -0.0163
  454MOL0     O62522   8.531   9.289   9.787 -0.2372 -0.3494  0.1188
  454MOL0     C62523   8.613   9.171   9.771 -0.8301 -0.4796 -0.2168
  454MOL0     C62524   8.657   9.122   9.909  0.3347  0.0796 -0.7318
  454MOL0     C62525   8.795   9.046   9.909 -0.6833 -0.2323  0.2988
  454MOL0     C62526   8.835   9.035  10.052  0.8703 -0.9421  0.0647
  454MOL0     C62527   8.958   8.947  10.057  0.3579  0.7877  0.2437
  454MOL0     C62528   9.000   8.937  10.201 -0.6848  0.2607 -0.1663
  454MOL0     C62529   9.073   9.066  10.251 -0.3860  0.8975  0.4179
  454MOL0     C62530   9.132   9.055  10.387  0.5813 -0.2405  0.9220
  454MOL0     N62531   9.230   8.957  10.400  0.2719 -0.5555 -0.0995
  454MOL0     C62532   9.356   8.975  10.359 -0.3376 -0.1709 -0.8890
  454MOL0     C62533   9.423   8.869  10.411 -0.0204 -0.2784 -0.6418
  454MOL0     C62534   9.571   8.840  10.412 -0.1478  0.2994  0.2092
  454MOL0     C62535   9.657   8.965  10.435 -0.0117  0.3454  0.4542
  454MOL0     C62536   9.631   9.024  10.584 -1.1053  0.4815  0.0200
  454MOL0     C62537   9.729   9.137  10.626  0.1386 -0.6204  0.3246
  454MOL0     O62538   9.856   9.077  10.662 -0.3140 -0.5843  0.5741
  454MOL0     C62539   9.958   9.154  10.713 -0.0694 -0.5090 -0.4525
  454MOL0     C62540   9.960   9.293  10.720  0.7021  1.0117  0.4861
  454MOL0     C62541  10.079   9.371  10.769  0.9962  0.0567  0.5541
  454MOL0     C62542  10.072   9.522  10.751  0.6520 -0.0155  0.0838
  454MOL0     C62543  10.192   9.302  10.819 -0.9118  0.2796 -0.2116
  454MOL0     C62544  10.305   9.371  10.890 -0.2437 -1.2279  0.2660
  454MOL0     O62545  10.382   9.304  10.976  0.4910 -0.5126  0.2922
  454MOL0     C62546  10.497   9.355  11.013  0.4959 -0.3527  0.2851
  454MOL0     C62547  10.589   9.423  10.932  0.2128  0.5603 -0.1797
  454MOL0     C62548  10.716   9.446  10.986  0.3426  1.1163 -0.1600
  454MOL0     C62549  10.753   9.421  11.113  0.1481 -0.3706  0.0422
  454MOL0     O62550  10.875   9.473  11.150  0.6226  0.3340  0.3528
  454MOL0     C62551  10.938   9.418  11.265 -1.3467  0.2133  0.7072
  454MOL0     C62552  10.966   9.260  11.268 -0.8069  0.1635 -0.0158
  454MOL0     C62553  11.083   9.228  11.366 -0.0300  0.7467  0.0281
  454MOL0     C62554  11.076   9.266  11.508 -0.6112  0.2823  0.1940
  454MOL0     C62555  11.216   9.242  11.582  0.5677 -0.0423  0.5739
  454MOL0     C62556  11.310   9.359  11.551  0.2855 -0.6402 -0.5045
  454MOL0     C62557  11.457   9.320  11.582  0.1498  0.5371  0.0099
  454MOL0     C62558  11.548   9.431  11.569 -0.6109 -0.1425 -0.5981
  454MOL0    Cl62559  11.580   9.479  11.396 -0.0829  0.5002  0.2839
  454MOL0     C62560  10.657   9.367  11.200  0.6369 -0.0221  0.1974
  454MOL0     C62561  10.529   9.329  11.143 -0.8544 -0.1885 -0.0015
  454MOL0     O62562  10.324   9.487  10.862 -0.6729  0.5453  0.0223
  454MOL0     C62563  10.197   9.164  10.797  0.2795  0.8077  0.3928
  454MOL0     C62564  10.080   9.093  10.753 -0.3773  0.7563 -0.1616
  454MOL0     N62565   9.332   8.783  10.460  0.5327 -0.2481  0.1338
  454MOL0     N62566   9.214   8.836  10.460 -0.4975 -0.2456 -0.1045
  454MOL0     C62567   8.320   9.169   9.757 -0.0242  0.3050 -0.0786
  454MOL0     C62568   8.186   9.163   9.764  0.3725  0.4635 -0.2050
  454MOL0     C62569   7.762   9.194   9.838  0.5224  0.6366 -0.2952
  454MOL0     C62570   7.731   9.212   9.973  0.4607 -0.3841 -0.4139
  454MOL0     C62571   7.604   9.187  10.033 -0.0259  1.0565 -0.6250
  454MOL0     C62572   7.498   9.155   9.951  0.5989 -0.6427 -0.0874
  454MOL0     O62573   7.367   9.124   9.998 -0.3590 -0.1493  0.3772
  454MOL0     C62574   7.297   9.237  10.064  0.4816 -0.0921 -0.2640
  454MOL0     C62575   7.286   9.208  10.215  0.6561  0.2922 -0.0613
  454MOL0     C62576   7.217   9.316  10.304 -0.2194 -0.3555 -0.2132
  454MOL0     C62577   7.097   9.374  10.239 -0.0223  0.7565  0.2676
  454MOL0     C62578   7.027   9.455  10.335 -0.4788 -0.7827  0.0251
  454MOL0     C62579   6.960   9.523  10.407  0.1955 -1.2198 -0.3191
  454MOL0     C62580   7.525   9.141   9.812 -0.1398  0.0534 -0.0025
  454MOL0     C62581   7.653   9.146   9.759  2.0336  0.2762  0.5382
  454MOL0     C62582   7.672   9.112   9.616  0.4191 -0.1095 -0.0386
  454MOL0     H62583   8.159   9.372  10.027  0.3534 -0.2149 -1.0787
  454MOL0     H62584   8.391   9.409   9.983 -1.4322  0.1583 -0.1723
  454MOL0     H62585   8.705   9.184   9.715  0.6314 -2.4171  1.5964
  454MOL0     H62586   8.570   9.077   9.736  1.2283 -1.7285  0.4381
  454MOL0     H62587   8.645   9.210   9.973 -2.1237 -1.1953  0.7521
  454MOL0     H62588   8.586   9.048   9.947 -0.2512  2.5181  3.6378
  454MOL0     H62589   8.797   8.952   9.854 -3.4067  0.3224 -0.8969
  454MOL0     H62590   8.871   9.105   9.858  0.2244  0.4983  2.3723
  454MOL0     H62591   8.850   9.139  10.084 -3.6204 -0.1209  0.1222
  454MOL0     H62592   8.747   9.004  10.110 -0.3614  1.4738 -0.4127
  454MOL0     H62593   9.036   8.982   9.990 -0.3779 -2.1119 -2.3058
  454MOL0     H62594   8.936   8.849  10.014  0.5994  0.2913  1.2166
  454MOL0     H62595   8.923   8.907  10.273  0.1345 -1.1964  0.1518
  454MOL0     H62596   9.069   8.852  10.199  0.4843  1.1821  0.1162
  454MOL0     H62597   8.998   9.146  10.256 -0.4706  0.8218  0.3785
  454MOL0     H62598   9.157   9.081  10.183 -0.3639  0.6227  0.3846
  454MOL0     H62599   9.185   9.148  10.410  1.1979  0.5373 -3.0107
  454MOL0     H62600   9.041   9.040  10.446  0.5677 -1.9936  0.5055
  454MOL0     H62601   9.399   9.065  10.317 -1.9732  1.3333  0.4969
  454MOL0     H62602   9.596   8.782  10.323 -1.5448 -0.1018  0.0416
  454MOL0     H62603   9.590   8.769  10.493  1.4693 -0.8291 -1.1126
  454MOL0     H62604   9.764   8.947  10.416  0.0319 -1.5564  2.0740
  454MOL0     H62605   9.623   9.046  10.370  1.0337 -0.3222 -0.9950
  454MOL0     H62606   9.530   9.065  10.595 -0.0788  3.1859 -0.0841
  454MOL0     H62607   9.638   8.938  10.651  0.0171  1.4569  1.1878
  454MOL0     H62608   9.747   9.195  10.535  2.8480 -2.1825 -0.2463
  454MOL0     H62609   9.682   9.201  10.702 -1.3350 -1.4493  0.1595
  454MOL0     H62610   9.884   9.360  10.682  2.3498  1.5770 -2.1456
  454MOL0     H62611  10.160   9.560  10.700  0.4922  0.1779 -0.0464
  454MOL0     H62612  10.057   9.571  10.848 -1.3998 -4.9673  2.6779
  454MOL0     H62613   9.989   9.551  10.686  0.8996  1.5572  0.4270
  454MOL0     H62614  10.575   9.438  10.825 -1.0834  1.4770  0.0903
  454MOL0     H62615  10.800   9.469  10.922  2.0130 -3.7628 -0.0981
  454MOL0     H62616  11.040   9.457  11.271  0.4015 -3.2238 -2.6586
  454MOL0     H62617  10.885   9.444  11.357 -0.6122  0.4473  1.0711
  454MOL0     H62618  10.872   9.211  11.292 -1.4765  1.6532  0.4893
  454MOL0     H62619  10.996   9.216  11.172 -2.1928 -4.8840  1.5794
  454MOL0     H62620  11.181   9.255  11.323  0.7121 -0.5384  0.8463
  454MOL0     H62621  11.090   9.119  11.367  1.8737  0.7537  3.5578
  454MOL0     H62622  11.009   9.214  11.576  1.1730 -0.3479  1.5565
  454MOL0     H62623  11.047   9.372  11.516 -2.6721 -0.3591  2.0029
  454MOL0     H62624  11.199   9.210  11.685 -1.4433 -2.2418 -0.3479
  454MOL0     H62625  11.265   9.153  11.540 -0.1819  0.1709 -0.8125
  454MOL0     H62626  11.293   9.448  11.612 -0.3312 -0.4200 -0.9951
  454MOL0     H62627  11.294   9.397  11.450 -2.4462  5.9829  1.8810
  454MOL0     H62628  11.488   9.251  11.504 -2.1959 -0.6020 -0.0053
  454MOL0     H62629  11.463   9.280  11.684 -2.9716 -0.8341 -0.2182
  454MOL0     H62630  11.635   9.390  11.621 -2.4031 -3.0815  0.3167
  454MOL0     H62631  11.504   9.516  11.621 -1.0873 -0.0143 -1.2095
  454MOL0     H62632  10.673   9.349  11.306 -2.7253 -2.4730  0.4355
  454MOL0     H62633  10.458   9.279  11.207  1.1182 -2.1480  0.7934
  454MOL0     H62634  10.294   9.116  10.806  0.1177  0.7960  2.4373
  454MOL0     H62635  10.089   8.987  10.730 -0.0955  0.3656  1.6487
  454MOL0     H62636   8.371   9.102   9.687 -1.3754  0.3346 -1.1389
  454MOL0     H62637   8.132   9.104   9.692  1.6029 -0.8415 -0.1024
  454MOL0     H62638   7.810   9.237  10.043  0.7197 -0.1707 -0.7856
  454MOL0     H62639   7.579   9.197  10.138 -2.4456  0.2127 -1.0697
  454MOL0     H62640   7.344   9.335  10.055 -0.3143  0.6249  2.4407
  454MOL0     H62641   7.201   9.253  10.013  0.7190  3.4726  0.1340
  454MOL0     H62642   7.385   9.192  10.258  0.1841  3.0954  2.3692
  454MOL0     H62643   7.226   9.117  10.227  0.0640  0.7849  0.8455
  454MOL0     H62644   7.180   9.258  10.389  1.1431 -0.0630  0.6187
  454MOL0     H62645   7.294   9.390  10.327 -0.3416  0.3060 -1.7573
  454MOL0     H62646   7.028   9.296  10.206 -0.4452  1.1203  0.2757
  454MOL0     H62647   7.125   9.442  10.158  2.0653  0.3055  0.5695
  454MOL0     H62648   6.887   9.578  10.463 -0.1537 -0.6692 -1.2837
  454MOL0     H62649   7.444   9.116   9.745  1.4591 -2.9926 -1.0058
  454MOL0     H62650   7.754   9.039   9.613  0.8120  0.3301 -0.1882
  454MOL0     H62651   7.585   9.070   9.564 -0.4579 -1.9431  2.6996
  454MOL0     H62652   7.700   9.200   9.558  0.0736  0.6814  0.9838
  455MOL0     O62653   2.926   2.584   4.461 -0.0340 -0.5198 -0.0318
  455MOL0     C62654   2.939   2.646   4.360  1.1071 -0.7925  0.1794
  455MOL0     O62655   2.890   2.611   4.242 -0.1835 -0.1750  0.2822
  455MOL0     C62656   2.844   2.485   4.230  0.4885  0.5692  0.7126
  455MOL0     C62657   2.706   2.472   4.239  0.0241  0.0797 -0.0951
  455MOL0     C62658   2.661   2.339   4.225  0.5603 -0.4597 -0.1898
  455MOL0     C62659   2.747   2.227   4.200  0.0894 -0.9164  0.9954
  455MOL0     O62660   2.676   2.109   4.189  0.9535 -0.2503  0.1309
  455MOL0     C62661   2.752   1.996   4.231  0.4425 -0.1031 -0.4926
  455MOL0     C62662   2.674   1.858   4.219  0.8631  0.7328 -1.2070
  455MOL0     C62663   2.538   1.863   4.282  0.3383 -0.2450 -0.7344
  455MOL0     C62664   2.544   1.880   4.438 -0.9131 -1.1097  0.0457
  455MOL0     C62665   2.406   1.932   4.498  0.1524 -0.7108 -0.1739
  455MOL0     C62666   2.398   1.947   4.649 -0.0481 -0.5529  0.8873
  455MOL0     C62667   2.253   1.976   4.682 -0.5764 -0.0671 -0.1346
  455MOL0     C62668   2.246   2.001   4.845 -0.0504 -0.7959 -0.4102
  455MOL0     N62669   2.107   2.015   4.886 -0.4201  0.0464  0.0611
  455MOL0     C62670   2.028   2.118   4.846  0.0091 -0.3314 -0.3980
  455MOL0     C62671   1.913   2.098   4.913  0.1127  0.7771 -0.4418
  455MOL0     C62672   1.796   2.189   4.926 -0.7073 -0.0673  0.1713
  455MOL0     C62673   1.808   2.290   5.052 -0.0528 -0.4217 -0.1770
  455MOL0     C62674   1.690   2.379   5.051  1.3851  0.6493  0.2679
  455MOL0     C62675   1.658   2.451   5.181  0.6891  0.8768 -0.5343
  455MOL0     O62676   1.780   2.518   5.226  0.2533 -0.1800  0.3831
  455MOL0     C62677   1.817   2.634   5.160 -0.6051  1.2261  0.7687
  455MOL0     C62678   1.725   2.743   5.150  0.2733 -1.0185  0.0959
  455MOL0     C62679   1.765   2.868   5.094  0.2643 -0.7563  0.2485
  455MOL0     C62680   1.652   2.979   5.083  0.2872  0.3304  0.1671
  455MOL0     C62681   1.892   2.882   5.038 -0.6713 -0.3616  0.2078
  455MOL0     C62682   1.963   3.003   4.976  0.2007  0.1647  0.6951
  455MOL0     O62683   2.071   2.972   4.895  0.0194 -0.5033 -0.2698
  455MOL0     C62684   2.146   3.062   4.834 -0.2943 -0.0373  0.2283
  455MOL0     C62685   2.282   3.091   4.872  0.3995  0.0558  0.4605
  455MOL0     C62686   2.366   3.172   4.799  0.8419 -0.7449  0.2002
  455MOL0     C62687   2.315   3.227   4.674 -0.5503  0.5138 -0.0731
  455MOL0     O62688   2.384   3.320   4.596 -0.0987 -0.4772 -0.3380
  455MOL0     C62689   2.462   3.419   4.664 -0.3250 -0.0136 -1.0091
  455MOL0     C62690   2.610   3.391   4.635  0.7433 -0.8654 -0.2958
  455MOL0     C62691   2.698   3.523   4.654  0.3993  0.4789 -0.1911
  455MOL0     C62692   2.850   3.489   4.688  0.5316 -0.2941  1.0332
  455MOL0     C62693   2.933   3.416   4.578 -1.1519 -0.1045  0.9974
  455MOL0     C62694   2.941   3.497   4.444 -0.3160 -0.6947 -1.0580
  455MOL0     C62695   3.032   3.425   4.345  0.1658  0.1260 -0.1336
  455MOL0     C62696   3.041   3.485   4.208 -0.1858  0.2968  0.4342
  455MOL0    Cl62697   2.883   3.546   4.128 -0.0554 -0.2447  0.3610
  455MOL0     C62698   2.179   3.202   4.640  0.8806  0.5183 -0.1984
  455MOL0     C62699   2.098   3.118   4.717  0.3340  0.4076 -0.0580
  455MOL0     O62700   1.922   3.117   5.007  0.6867 -0.0815  0.3745
  455MOL0     C62701   1.986   2.775   5.066  0.7047  0.3722 -0.2093
  455MOL0     C62702   1.950   2.655   5.130 -0.0587 -0.6029 -0.5736
  455MOL0     N62703   1.929   1.986   4.995 -1.2294  0.1768 -0.5716
  455MOL0     N62704   2.041   1.937   4.979  0.3787 -0.1159  0.1674
  455MOL0     C62705   2.880   2.254   4.178 -0.0343  0.2086 -0.3417
  455MOL0     C62706   2.929   2.379   4.191 -0.3488  0.0040  0.0741
  455MOL0     C62707   3.012   2.778   4.359  0.2852 -0.8314 -0.2958
  455MOL0     C62708   2.982   2.880   4.268 -1.0320  0.8875  1.2747
  455MOL0     C62709   3.058   2.998   4.256 -0.1325 -0.0677 -1.0115
  455MOL0     C62710   3.155   3.021   4.354 -0.4370 -0.8598  0.3388
  455MOL0     O62711   3.218   3.138   4.346 -0.9770 -0.5352  0.0361
  455MOL0     C62712   3.280   3.184   4.220 -0.2946 -0.2059  0.2858
  455MOL0     C62713   3.371   3.300   4.250  0.3287 -0.4179  0.1102
  455MOL0     C62714   3.494   3.295   4.158 -0.3128  0.7404 -0.7513
  455MOL0     C62715   3.544   3.435   4.128 -0.1302 -0.3695  0.4349
  455MOL0     C62716   3.631   3.484   4.234  0.2106 -0.5004 -0.4896
  455MOL0     C62717   3.708   3.523   4.323  0.2631 -0.4769 -0.3376
  455MOL0     C62718   3.187   2.926   4.452 -0.0551 -0.1587  0.2476
  455MOL0     C62719   3.124   2.799   4.445  0.2031 -0.6781 -0.0530
  455MOL0     C62720   3.169   2.707   4.555 -0.3895  0.7166  0.5393
  455MOL0     H62721   2.646   2.552   4.280  0.9945 -1.7527  5.9508
  455MOL0     H62722   2.556   2.325   4.249  0.6577  1.1592  1.4503
  455MOL0     H62723   2.778   2.016   4.335  0.6519 -1.4591 -0.2656
  455MOL0     H62724   2.836   1.980   4.163 -0.5599  1.9241 -2.3460
  455MOL0     H62725   2.649   1.836   4.115 -0.9712  0.5090 -0.7405
  455MOL0     H62726   2.741   1.779   4.254 -0.3033  0.2537 -0.0257
  455MOL0     H62727   2.483   1.944   4.234  0.5789  0.2276 -0.2204
  455MOL0     H62728   2.478   1.773   4.261  0.2682 -0.4083  0.1234
  455MOL0     H62729   2.571   1.781   4.474 -0.3891 -1.2583 -0.7285
  455MOL0     H62730   2.627   1.947   4.459  0.9658 -3.2167 -0.3475
  455MOL0     H62731   2.327   1.868   4.457 -1.1820  0.9493 -0.3018
  455MOL0     H62732   2.384   2.025   4.444 -1.8280 -0.6473  0.6502
  455MOL0     H62733   2.435   1.861   4.706 -2.2237  0.0334  3.4160
  455MOL0     H62734   2.461   2.032   4.677 -1.1080  0.6074 -0.1652
  455MOL0     H62735   2.189   1.893   4.651 -1.1372 -0.4124  1.8036
  455MOL0     H62736   2.216   2.068   4.635 -1.3672 -0.1348  0.3411
  455MOL0     H62737   2.285   1.916   4.903  4.0027  0.5501 -0.8500
  455MOL0     H62738   2.305   2.090   4.868 -0.4108 -0.2501 -1.5567
  455MOL0     H62739   2.071   2.202   4.793  1.4702 -1.6738 -1.4340
  455MOL0     H62740   1.705   2.130   4.933 -1.4300  1.0881  0.8727
  455MOL0     H62741   1.787   2.261   4.844  1.9188  2.1716  1.6432
  455MOL0     H62742   1.805   2.232   5.145 -1.1878  0.0451  0.0853
  455MOL0     H62743   1.907   2.338   5.051  0.1177 -0.6918  1.5813
  455MOL0     H62744   1.712   2.458   4.978  3.4999 -0.0643  0.0592
  455MOL0     H62745   1.600   2.323   5.025  0.1815  2.3739  0.5750
  455MOL0     H62746   1.562   2.503   5.180  1.6795  2.7827 -1.7564
  455MOL0     H62747   1.639   2.372   5.255  3.6177 -1.8606 -2.4267
  455MOL0     H62748   1.632   2.733   5.205  1.4832  2.3532  3.2286
  455MOL0     H62749   1.568   2.947   5.145 -2.2776  0.4638 -2.9739
  455MOL0     H62750   1.630   3.000   4.978 -0.0847 -3.1258 -0.5612
  455MOL0     H62751   1.697   3.070   5.124  1.2537 -0.4833  0.9818
  455MOL0     H62752   2.305   3.055   4.972 -0.4740  1.9537  1.3901
  455MOL0     H62753   2.466   3.194   4.835  1.0576 -0.2355 -0.6695
  455MOL0     H62754   2.439   3.522   4.635 -1.0298  0.7623  1.9684
  455MOL0     H62755   2.443   3.417   4.772  1.0739 -3.5230 -0.7033
  455MOL0     H62756   2.627   3.302   4.697 -0.8837  0.1396  1.7274
  455MOL0     H62757   2.619   3.348   4.535  1.1777  0.0977 -0.6828
  455MOL0     H62758   2.661   3.580   4.739 -1.3773  1.1182 -1.3097
  455MOL0     H62759   2.687   3.586   4.565 -1.0166 -1.7208 -1.7116
  455MOL0     H62760   2.851   3.412   4.766 -0.6339  0.4707  1.8344
  455MOL0     H62761   2.901   3.577   4.729 -2.5305  0.8720  2.6602
  455MOL0     H62762   3.035   3.394   4.612 -0.4837  1.6478  0.2355
  455MOL0     H62763   2.889   3.318   4.556 -1.7662  0.4921 -0.5321
  455MOL0     H62764   2.964   3.603   4.458  0.7166 -0.8702 -1.2770
  455MOL0     H62765   2.835   3.494   4.417  0.4153 -3.3345 -4.3118
  455MOL0     H62766   2.989   3.325   4.339 -0.3853  0.2821  0.9300
  455MOL0     H62767   3.130   3.429   4.394  0.5364 -2.5418 -0.5296
  455MOL0     H62768   3.104   3.437   4.132  1.6994  0.1171  2.0313
  455MOL0     H62769   3.099   3.575   4.231 -0.4749  0.5128  0.3294
  455MOL0     H62770   2.132   3.248   4.554 -0.2138  2.7528  1.5022
  455MOL0     H62771   1.990   3.105   4.711  0.1839  1.8619 -1.0238
  455MOL0     H62772   2.091   2.777   5.040  1.2592  2.9453  1.7899
  455MOL0     H62773   2.013   2.569   5.147  0.4614 -0.2107 -0.4939
  455MOL0     H62774   2.940   2.174   4.136 -1.4765 -2.4952  2.3324
  455MOL0     H62775   3.037   2.387   4.186 -0.1244 -0.0268  3.0581
  455MOL0     H62776   2.895   2.866   4.204  1.0903 -3.2000 -1.0865
  455MOL0     H62777   3.021   3.071   4.185 -1.0109 -0.4943 -1.0117
  455MOL0     H62778   3.340   3.113   4.163  0.3646  1.1404 -0.7695
  455MOL0     H62779   3.200   3.218   4.153 -0.6046 -1.6093 -0.0842
  455MOL0     H62780   3.404   3.296   4.354 -4.2813  0.3466  1.8325
  455MOL0     H62781   3.323   3.398   4.242  0.1014 -0.4849  0.5738
  455MOL0     H62782   3.577   3.241   4.205 -1.1904 -1.1167 -1.2183
  455MOL0     H62783   3.466   3.249   4.063 -2.8091  1.6556 -0.5436
  455MOL0     H62784   3.460   3.502   4.111 -0.6527 -1.4328 -1.4290
  455MOL0     H62785   3.599   3.437   4.034 -2.1923  1.7566 -0.8310
  455MOL0     H62786   3.760   3.533   4.416 -0.4373 -1.5391  0.1835
  455MOL0     H62787   3.278   2.950   4.506  0.3303  0.1867 -0.5370
  455MOL0     H62788   3.102   2.701   4.641 -0.3075 -1.7987  0.5089
  455MOL0     H62789   3.178   2.601   4.529  4.2873  0.8950  0.6998
  455MOL0     H62790   3.267   2.739   4.591 -0.5899  0.4416  1.3691
  456MOL0     O62791   9.268   9.960   3.585 -0.7915  0.3040 -0.0421
  456MOL0     C62792   9.185   9.897   3.639  1.0035  0.4301  0.7508
  456MOL0     O62793   9.215   9.775   3.693  0.2736  0.5496 -0.1062
  456MOL0     C62794   9.348   9.740   3.702 -0.3105  0.2964 -0.2503
  456MOL0     C62795   9.402   9.671   3.595 -0.2391  0.0606  0.4295
  456MOL0     C62796   9.539   9.637   3.587 -0.1566  0.3828  0.2658
  456MOL0     C62797   9.617   9.666   3.702  0.8633 -0.4247  0.3546
  456MOL0     O62798   9.755   9.625   3.699  1.1689 -0.0202 -0.2580
  456MOL0     C62799   9.858   9.699   3.779  0.1251  0.6002 -0.5827
  456MOL0     C62800   9.883   9.612   3.904 -0.4432  1.0554  0.2185
  456MOL0     C62801   9.986   9.685   4.000 -0.3708  0.6962  0.2621
  456MOL0     C62802  10.017   9.605   4.127  0.0757  1.0908  0.3097
  456MOL0     C62803  10.117   9.675   4.208  0.1048 -0.9250 -0.1355
  456MOL0     C62804  10.179   9.589   4.314 -0.1250  0.2763 -0.1949
  456MOL0     C62805  10.261   9.673   4.413 -0.0870  0.2547 -0.1865
  456MOL0     C62806  10.306   9.605   4.532 -0.4395  1.1264 -0.9333
  456MOL0     N62807  10.395   9.692   4.606  0.3222 -0.0071 -0.2089
  456MOL0     C62808  10.385   9.725   4.738  1.0356  0.2388 -0.1088
  456MOL0     C62809  10.494   9.807   4.752 -0.4817  0.4141  0.5399
  456MOL0     C62810  10.552   9.875   4.872  0.2160  0.0061 -0.3154
  456MOL0     C62811  10.546   9.785   4.992  1.0282 -0.7566 -0.4258
  456MOL0     C62812  10.625   9.660   4.984  0.0713  0.4192 -0.0687
  456MOL0     C62813  10.778   9.688   4.994 -0.8483  0.1842  0.0873
  456MOL0     O62814  10.801   9.767   5.109 -0.0943  0.6153  0.3465
  456MOL0     C62815  10.912   9.755   5.188 -0.4316  0.6974 -0.5370
  456MOL0     C62816  11.039   9.716   5.143  0.0516 -0.5432  0.0521
  456MOL0     C62817  11.155   9.739   5.222  0.2667 -0.3413  0.4783
  456MOL0     C62818  11.276   9.745   5.154  0.5696  0.5669  0.4658
  456MOL0     C62819  11.140   9.759   5.360 -0.4139 -0.0348  0.3011
  456MOL0     C62820  11.258   9.780   5.459  0.3919 -0.0495 -0.1237
  456MOL0     O62821  11.380   9.734   5.427 -0.0382  0.3273  0.3849
  456MOL0     C62822  11.480   9.770   5.510  0.0841 -0.0551 -0.1661
  456MOL0     C62823  11.511   9.903   5.543  0.3040  0.1288 -0.5058
  456MOL0     C62824  11.617   9.928   5.628 -0.4198 -0.4919  0.1654
  456MOL0     C62825  11.690   9.816   5.680  0.5493  0.0279 -0.9168
  456MOL0     O62826  11.808   9.830   5.742 -0.1929  0.0591  0.2100
  456MOL0     C62827  11.820   9.918   5.848 -0.5327  0.6407 -0.0253
  456MOL0     C62828  11.945   9.870   5.914  1.0455  0.7485 -0.7882
  456MOL0     C62829  11.993   9.944   6.045  0.6773 -0.4076  1.6081
  456MOL0     C62830  11.885   9.986   6.149  0.8153  0.0618  0.4870
  456MOL0     C62831  11.954  10.022   6.282  0.4138  1.0491 -1.1732
  456MOL0     C62832  11.865  10.053   6.402  0.0961  0.7406  1.2195
  456MOL0     C62833  11.946  10.123   6.513 -0.2637 -0.2517  0.1861
  456MOL0     C62834  11.862  10.154   6.631 -0.7383  0.4325  0.6234
  456MOL0    Cl62835  11.972  10.258   6.736 -0.0427  0.2301 -0.1503
  456MOL0     C62836  11.654   9.686   5.642  0.3438  0.2409 -0.2751
  456MOL0     C62837  11.552   9.659   5.555  0.2379 -0.1998 -0.9173
  456MOL0     O62838  11.217   9.816   5.571  0.6634  0.4348 -0.1848
  456MOL0     C62839  11.004   9.782   5.408 -0.0776 -0.4218  0.0461
  456MOL0     C62840  10.896   9.789   5.317 -0.3588  0.0712  0.4442
  456MOL0     N62841  10.565   9.819   4.631 -0.0733  0.2669  0.0676
  456MOL0     N62842  10.507   9.742   4.553  0.4044 -0.2503 -0.4431
  456MOL0     C62843   9.562   9.730   3.810  0.1817 -1.0397 -0.4152
  456MOL0     C62844   9.430   9.771   3.812  0.7260  0.3809  0.0028
  456MOL0     C62845   9.039   9.931   3.628 -1.1447 -0.8775  0.9220
  456MOL0     C62846   8.947   9.842   3.673  0.5568 -0.2233 -0.2698
  456MOL0     C62847   8.807   9.863   3.642 -1.6834  0.5057 -0.1085
  456MOL0     C62848   8.768   9.970   3.575  0.5125  0.2186 -0.3134
  456MOL0     O62849   8.632   9.979   3.563  0.7063  0.5237  0.2659
  456MOL0     C62850   8.557  10.037   3.677  0.5808 -1.0291 -0.2376
  456MOL0     C62851   8.412  10.002   3.643  0.4457  0.2741  0.2835
  456MOL0     C62852   8.394   9.854   3.682  0.0165 -0.6894  0.6860
  456MOL0     C62853   8.248   9.820   3.673  0.2738  0.6714  0.5340
  456MOL0     C62854   8.212   9.698   3.752 -0.2647  0.1056  0.2541
  456MOL0     C62855   8.173   9.596   3.811  0.4874  0.2022 -0.8624
  456MOL0     C62856   8.862  10.063   3.537 -0.0523 -0.2965 -1.1543
  456MOL0     C62857   8.998  10.051   3.568 -0.0897  0.1284 -0.1837
  456MOL0     C62858   9.085  10.169   3.543  0.0043 -0.2489  0.1279
  456MOL0     H62859   9.334   9.633   3.520  0.1650 -2.8625  1.4345
  456MOL0     H62860   9.579   9.582   3.502 -3.2235  3.4596 -3.5870
  456MOL0     H62861   9.824   9.797   3.814 -1.2008 -0.4789  1.3708
  456MOL0     H62862   9.955   9.706   3.730 -0.0238  3.3545 -0.6214
  456MOL0     H62863   9.794   9.586   3.962  1.0618 -0.6000  1.9363
  456MOL0     H62864   9.931   9.521   3.868 -0.0523  1.2965  0.1283
  456MOL0     H62865  10.083   9.712   3.957  0.4332  1.5651  2.4955
  456MOL0     H62866   9.947   9.783   4.028  0.5687  0.6115  1.9842
  456MOL0     H62867   9.929   9.590   4.191  0.0350  0.4179  0.1032
  456MOL0     H62868  10.042   9.499   4.117  1.0612  1.4585 -1.6109
  456MOL0     H62869  10.055   9.752   4.255 -1.2894  0.2245 -3.5420
  456MOL0     H62870  10.192   9.729   4.149  1.8077  1.6331  3.8973
  456MOL0     H62871  10.099   9.530   4.359 -1.5549  1.3657 -1.2474
  456MOL0     H62872  10.246   9.518   4.264  0.0110 -1.0916  1.8437
  456MOL0     H62873  10.209   9.767   4.436 -0.5511 -0.5938  2.5108
  456MOL0     H62874  10.350   9.698   4.355  1.4909 -1.7692  1.2582
  456MOL0     H62875  10.217   9.584   4.592 -1.5927  2.7113 -1.9937
  456MOL0     H62876  10.352   9.513   4.495 -0.7936 -0.8365  2.9635
  456MOL0     H62877  10.322   9.683   4.815  0.3325  0.1153 -0.7428
  456MOL0     H62878  10.510   9.970   4.904  1.7478  0.0747  1.7008
  456MOL0     H62879  10.656   9.902   4.850 -0.1174  0.2178 -1.7191
  456MOL0     H62880  10.569   9.851   5.077 -3.1899 -0.0731  0.4268
  456MOL0     H62881  10.445   9.751   5.014  0.6747  0.5540  0.0783
  456MOL0     H62882  10.587   9.581   5.049 -1.5116 -1.4617 -3.0438
  456MOL0     H62883  10.612   9.609   4.888 -3.4484 -1.1448  1.0866
  456MOL0     H62884  10.829   9.592   5.005  0.8174  0.4306 -3.8503
  456MOL0     H62885  10.806   9.745   4.906  0.3387  1.7142  1.4039
  456MOL0     H62886  11.035   9.688   5.038 -0.4998  0.2555 -0.1526
  456MOL0     H62887  11.329   9.840   5.172  2.4953 -0.2991 -0.3175
  456MOL0     H62888  11.260   9.751   5.046  1.9649  2.9461  0.3231
  456MOL0     H62889  11.349   9.670   5.186  2.9194  1.1488 -2.9196
  456MOL0     H62890  11.457   9.985   5.496  0.6497 -0.3165 -1.7212
  456MOL0     H62891  11.658  10.026   5.648  0.9102  0.0323 -4.2531
  456MOL0     H62892  11.848  10.019   5.816  1.6691  0.0788 -0.0896
  456MOL0     H62893  11.734   9.925   5.915  0.1685  2.4642  0.7516
  456MOL0     H62894  11.935   9.762   5.920 -1.7075  0.8406 -1.9648
  456MOL0     H62895  12.024   9.888   5.840  0.9565  3.4931 -0.3405
  456MOL0     H62896  12.036  10.044   6.031  1.5236 -0.7524  1.6954
  456MOL0     H62897  12.062   9.875   6.094 -0.7721 -3.1986 -0.0557
  456MOL0     H62898  11.824   9.896   6.162  0.6472  0.0046 -0.6601
  456MOL0     H62899  11.816  10.063   6.113 -0.6451 -0.8456  1.2300
  456MOL0     H62900  12.040   9.961   6.312  0.0750  1.3951  0.6125
  456MOL0     H62901  12.003  10.119   6.278 -0.8232  1.9834  2.2539
  456MOL0     H62902  11.815   9.969   6.450 -2.4218  1.1261 -0.5461
  456MOL0     H62903  11.790  10.117   6.355  1.4457 -0.6993 -3.5309
  456MOL0     H62904  11.978  10.215   6.463  0.7327 -1.0215 -0.6352
  456MOL0     H62905  12.031  10.061   6.544  0.1818 -0.0804 -0.6478
  456MOL0     H62906  11.837  10.059   6.678 -0.9102  0.9850  1.6765
  456MOL0     H62907  11.769  10.207   6.607 -0.5137  0.7505  0.4450
  456MOL0     H62908  11.712   9.605   5.686  2.1749  0.7983 -1.5143
  456MOL0     H62909  11.537   9.554   5.531  0.5436  0.0137 -2.1003
  456MOL0     H62910  10.983   9.808   5.511  0.2792  3.6038 -0.7242
  456MOL0     H62911  10.793   9.803   5.347 -0.3867 -2.0942  1.5656
  456MOL0     H62912   9.637   9.749   3.885  1.6693 -1.8852 -1.6258
  456MOL0     H62913   9.381   9.818   3.897 -0.8989 -0.8665 -0.1910
  456MOL0     H62914   8.968   9.750   3.727  0.3962 -1.1710 -1.7698
  456MOL0     H62915   8.742   9.783   3.676  0.5163 -0.7179  1.4862
  456MOL0     H62916   8.592   9.988   3.768 -0.7501 -3.2359 -0.8250
  456MOL0     H62917   8.578  10.143   3.690  4.1992 -1.5167 -1.0800
  456MOL0     H62918   8.393  10.024   3.538  0.8152 -2.2035 -0.3614
  456MOL0     H62919   8.339  10.067   3.693  0.0653 -2.5279  3.7696
  456MOL0     H62920   8.458   9.792   3.619  0.2053  1.3406 -1.2384
  456MOL0     H62921   8.419   9.830   3.786 -0.4675 -1.3333  0.6596
  456MOL0     H62922   8.240   9.791   3.568  1.7486 -0.6195  0.7429
  456MOL0     H62923   8.185   9.904   3.703  1.3187  1.8166 -0.3489
  456MOL0     H62924   8.114   9.518   3.854  2.5866 -0.0110  1.8549
  456MOL0     H62925   8.824  10.152   3.488 -0.7583  0.6229  0.9037
  456MOL0     H62926   9.162  10.150   3.468 -1.3559 -2.0135 -0.8876
  456MOL0     H62927   9.040  10.256   3.496  0.2405 -1.1030 -1.7529
  456MOL0     H62928   9.126  10.194   3.642 -0.0712 -2.3331  0.7421
  457MOL0     O62929   6.446   3.034   2.854  0.1936  0.5565  0.2104
  457MOL0     C62930   6.451   2.981   2.965  0.1779  0.3955  0.6038
  457MOL0     O62931   6.337   2.982   3.051 -0.6122  0.8293 -0.2144
  457MOL0     C62932   6.212   2.987   2.988  0.4391 -0.5156  0.4429
  457MOL0     C62933   6.112   3.020   3.079  0.2264 -0.6192 -0.1890
  457MOL0     C62934   5.972   3.011   3.057 -1.3841 -1.0601  0.2380
  457MOL0     C62935   5.931   2.960   2.926 -1.2302 -0.6921 -0.6212
  457MOL0     O62936   5.796   2.937   2.916 -1.2269  0.2198 -0.1662
  457MOL0     C62937   5.736   2.879   2.805 -0.2334 -0.0601  0.2755
  457MOL0     C62938   5.586   2.852   2.818 -0.5401  0.1357 -0.3445
  457MOL0     C62939   5.525   2.763   2.710 -0.1978  0.4014  0.0907
  457MOL0     C62940   5.375   2.727   2.735  0.4638  0.8067  0.2505
  457MOL0     C62941   5.279   2.798   2.642  0.5152 -0.4307 -0.0905
  457MOL0     C62942   5.139   2.779   2.702 -0.0589  0.6927  0.2449
  457MOL0     C62943   5.033   2.816   2.597 -0.1543 -0.4788  0.5572
  457MOL0     C62944   4.894   2.805   2.653 -0.0151 -0.0313 -0.0128
  457MOL0     N62945   4.786   2.799   2.552 -0.3127  0.7686 -0.2672
  457MOL0     C62946   4.742   2.900   2.470  0.1906  0.4003 -0.9444
  457MOL0     C62947   4.668   2.845   2.373  0.8035  0.2310 -0.7629
  457MOL0     C62948   4.590   2.907   2.258 -0.1059 -0.3033  0.0157
  457MOL0     C62949   4.470   2.817   2.213 -0.6037  0.2504 -0.8233
  457MOL0     C62950   4.388   2.899   2.116  0.5328 -0.7794  0.5517
  457MOL0     C62951   4.282   2.825   2.036 -0.0807  0.1657 -0.5369
  457MOL0     O62952   4.329   2.691   1.995  0.2628 -0.1865  0.7559
  457MOL0     C62953   4.402   2.679   1.882 -0.4967  0.9697 -0.4195
  457MOL0     C62954   4.466   2.550   1.861  0.8662  0.3816 -0.0670
  457MOL0     C62955   4.543   2.518   1.748 -0.6928  0.4843 -0.5281
  457MOL0     C62956   4.588   2.370   1.734  0.3040 -1.6366  0.3314
  457MOL0     C62957   4.555   2.613   1.649  0.0764  0.1109 -0.2473
  457MOL0     C62958   4.621   2.588   1.521 -0.2417  0.4467  0.8494
  457MOL0     O62959   4.601   2.464   1.456 -0.2046 -0.3306  0.7462
  457MOL0     C62960   4.665   2.439   1.335 -0.4845  0.9330 -0.0258
  457MOL0     C62961   4.581   2.379   1.237  0.0137  0.5242 -0.2706
  457MOL0     C62962   4.641   2.359   1.112 -0.6839  1.0526 -0.2153
  457MOL0     C62963   4.782   2.365   1.081  0.8658  0.1963 -0.2430
  457MOL0     O62964   4.818   2.353   0.944  0.3075 -0.2556 -0.9356
  457MOL0     C62965   4.962   2.352   0.929 -0.0935  0.8191  0.0335
  457MOL0     C62966   5.021   2.296   0.792 -0.2820  0.0544  0.0237
  457MOL0     C62967   5.155   2.226   0.815 -0.3225  0.0905  0.1201
  457MOL0     C62968   5.262   2.332   0.833 -0.2994 -0.2315  0.9163
  457MOL0     C62969   5.399   2.263   0.867 -0.2286 -0.1552 -0.3045
  457MOL0     C62970   5.476   2.172   0.765  0.7984  1.0293 -0.3074
  457MOL0     C62971   5.496   2.248   0.627  0.4910 -0.1202  0.4370
  457MOL0     C62972   5.552   2.390   0.635 -0.1891  0.3530  0.4904
  457MOL0    Cl62973   5.706   2.381   0.741  0.6252  0.3347  0.1081
  457MOL0     C62974   4.863   2.414   1.181 -0.9023 -0.9651 -0.2495
  457MOL0     C62975   4.810   2.442   1.308 -0.6063 -0.6588 -0.7215
  457MOL0     O62976   4.688   2.675   1.472  0.2389  0.6503 -0.2234
  457MOL0     C62977   4.495   2.743   1.663 -0.8697  0.1325  0.5018
  457MOL0     C62978   4.424   2.776   1.780 -0.1477  0.0949 -0.7194
  457MOL0     N62979   4.659   2.707   2.398 -0.3225  0.3491  0.5722
  457MOL0     N62980   4.729   2.684   2.499  0.1363 -0.1688 -0.5251
  457MOL0     C62981   6.028   2.927   2.828 -0.4138  0.1420 -0.1888
  457MOL0     C62982   6.168   2.938   2.864  0.5677  0.2911 -0.5663
  457MOL0     C62983   6.585   2.915   2.999  0.5442  0.1557 -0.1450
  457MOL0     C62984   6.688   2.921   2.908  0.0626 -0.4532 -0.1250
  457MOL0     C62985   6.805   2.843   2.923  0.5351 -0.9767  0.3955
  457MOL0     C62986   6.822   2.753   3.031  0.3295  0.0111  0.1227
  457MOL0     O62987   6.930   2.669   3.047  0.2460 -0.1518 -0.5838
  457MOL0     C62988   7.049   2.687   2.975  0.1983  0.1417  0.1575
  457MOL0     C62989   7.159   2.601   3.032 -0.2087  0.7320  0.2016
  457MOL0     C62990   7.294   2.604   2.948 -0.0676  0.1257 -0.0380
  457MOL0     C62991   7.381   2.482   2.984  0.2328  0.3596  0.4319
  457MOL0     C62992   7.497   2.497   2.895 -0.0765 -0.1089 -0.2310
  457MOL0     C62993   7.606   2.493   2.845 -0.2496 -0.2034  0.5320
  457MOL0     C62994   6.714   2.751   3.120  0.1889 -1.4152 -0.0316
  457MOL0     C62995   6.608   2.834   3.115  0.4360 -0.3088 -1.7034
  457MOL0     C62996   6.507   2.809   3.214  0.7367  0.5394 -0.2395
  457MOL0     H62997   6.137   3.074   3.170 -1.7271  0.9610 -0.5108
  457MOL0     H62998   5.913   3.043   3.143  0.7258  0.5756  1.1585
  457MOL0     H62999   5.787   2.783   2.792  2.2977  1.1790  0.4105
  457MOL0     H63000   5.743   2.954   2.726 -0.6666 -0.1512  0.1529
  457MOL0     H63001   5.563   2.801   2.912  0.5104 -1.9728 -1.1648
  457MOL0     H63002   5.539   2.950   2.807  1.3787  1.0226 -1.1053
  457MOL0     H63003   5.528   2.822   2.617  1.8313 -1.4920 -1.1687
  457MOL0     H63004   5.586   2.672   2.709  0.7555  0.9825  1.5798
  457MOL0     H63005   5.375   2.618   2.729 -0.2142  0.4921  3.7759
  457MOL0     H63006   5.349   2.753   2.839 -3.0239 -2.4162  0.3800
  457MOL0     H63007   5.290   2.775   2.535  0.4876 -0.8152 -0.0104
  457MOL0     H63008   5.280   2.906   2.659  0.1441 -0.4620  0.1251
  457MOL0     H63009   5.133   2.671   2.715  0.0112  0.2298 -3.0046
  457MOL0     H63010   5.127   2.826   2.801 -0.0617 -2.5954  1.9371
  457MOL0     H63011   5.043   2.745   2.515  0.7717  1.1363 -0.7979
  457MOL0     H63012   5.053   2.920   2.570 -2.0568 -0.3321 -0.4596
  457MOL0     H63013   4.896   2.721   2.723 -1.2336  0.9715  1.3188
  457MOL0     H63014   4.867   2.891   2.716 -0.5643 -1.4416  1.7653
  457MOL0     H63015   4.760   3.006   2.480  2.7647 -0.0191 -0.3796
  457MOL0     H63016   4.664   2.925   2.179  0.9110  1.9161  1.3953
  457MOL0     H63017   4.554   3.005   2.289  1.8709  0.4597  0.0826
  457MOL0     H63018   4.514   2.729   2.166 -1.4167 -0.7079  0.1830
  457MOL0     H63019   4.399   2.794   2.293 -0.8426  0.8561 -0.8544
  457MOL0     H63020   4.339   2.981   2.170 -2.1665 -1.7764 -0.1954
  457MOL0     H63021   4.459   2.939   2.043 -1.6553  1.4643 -0.4900
  457MOL0     H63022   4.196   2.813   2.102  1.1582  0.1805  1.1362
  457MOL0     H63023   4.258   2.889   1.950  0.1328  1.2086  0.1626
  457MOL0     H63024   4.446   2.474   1.936  0.3230 -0.3955 -0.9742
  457MOL0     H63025   4.597   2.311   1.825  1.5087 -2.1997 -0.1317
  457MOL0     H63026   4.683   2.371   1.680  0.2970 -1.2709  0.3200
  457MOL0     H63027   4.521   2.318   1.665 -0.7030  0.5016 -0.4099
  457MOL0     H63028   4.479   2.355   1.265  0.7169 -0.1899  1.8563
  457MOL0     H63029   4.591   2.307   1.030  0.2686 -1.3583  0.6430
  457MOL0     H63030   5.010   2.447   0.956  0.4760 -0.1070  2.6085
  457MOL0     H63031   5.005   2.275   0.994  2.0232 -0.9865 -3.2304
  457MOL0     H63032   4.957   2.221   0.744 -0.0444  0.0010 -0.2096
  457MOL0     H63033   5.033   2.378   0.721 -0.0049  1.0852  1.2183
  457MOL0     H63034   5.180   2.165   0.727 -1.0624 -0.7201  0.4617
  457MOL0     H63035   5.150   2.162   0.903 -0.0085  1.6751  1.3328
  457MOL0     H63036   5.236   2.400   0.914  0.6219  2.9714 -1.2765
  457MOL0     H63037   5.272   2.384   0.737  2.3031 -2.8195 -0.3968
  457MOL0     H63038   5.471   2.344   0.884  1.4865 -1.4865 -0.9280
  457MOL0     H63039   5.390   2.199   0.955 -3.3410 -0.4065 -0.7036
  457MOL0     H63040   5.411   2.086   0.748  0.0875  1.2738  1.0462
  457MOL0     H63041   5.573   2.147   0.809  2.5677  3.5542 -2.4322
  457MOL0     H63042   5.401   2.257   0.573  0.4648 -1.6715  0.1893
  457MOL0     H63043   5.566   2.183   0.574 -0.4927  0.0000 -1.0713
  457MOL0     H63044   5.474   2.452   0.680  1.1141  1.2950  1.5312
  457MOL0     H63045   5.575   2.421   0.532  1.6627  0.5858  0.9391
  457MOL0     H63046   4.969   2.422   1.160 -0.8403 -3.7017 -1.4331
  457MOL0     H63047   4.886   2.472   1.379 -0.5034 -0.4575 -0.9141
  457MOL0     H63048   4.506   2.815   1.582  1.0889 -1.3234 -0.6127
  457MOL0     H63049   4.381   2.876   1.782 -2.3251 -0.7795  0.7141
  457MOL0     H63050   6.011   2.883   2.731 -1.3347 -0.5616  0.2740
  457MOL0     H63051   6.232   2.898   2.786  2.0895 -2.7922  2.0306
  457MOL0     H63052   6.684   2.982   2.818  2.7379 -0.0621 -0.0562
  457MOL0     H63053   6.881   2.855   2.846 -0.8056  0.4418 -0.7550
  457MOL0     H63054   7.035   2.667   2.868  1.6966  0.6970 -0.1771
  457MOL0     H63055   7.081   2.792   2.978  1.4999 -0.2335  0.0917
  457MOL0     H63056   7.127   2.497   3.023 -1.5350  1.2963 -2.6470
  457MOL0     H63057   7.186   2.629   3.134 -0.8136  1.0543  0.2787
  457MOL0     H63058   7.262   2.599   2.843 -0.8062  0.5537  0.1621
  457MOL0     H63059   7.356   2.692   2.962 -1.9780  1.3736  0.9935
  457MOL0     H63060   7.339   2.383   2.968  2.0655 -0.6429  1.4552
  457MOL0     H63061   7.423   2.489   3.085  1.1565 -1.6060  0.2380
  457MOL0     H63062   7.702   2.489   2.798  0.2420  0.7698  1.4071
  457MOL0     H63063   6.726   2.679   3.200 -1.3855  0.5754  2.1673
  457MOL0     H63064   6.419   2.753   3.179  0.0226  1.3469  0.2283
  457MOL0     H63065   6.549   2.755   3.299  0.7773  2.9620  1.3610
  457MOL0     H63066   6.453   2.897   3.251 -1.8288 -0.5909 -1.0072
  458MOL0     O63067   1.752   0.632   8.915  0.0969  0.3634  0.2541
  458MOL0     C63068   1.731   0.529   8.991  0.7655 -0.2325 -0.1286
  458MOL0     O63069   1.784   0.409   8.965 -0.2044  0.4659 -0.2657
  458MOL0     C63070   1.863   0.373   8.858 -0.4611  1.0054 -0.0122
  458MOL0     C63071   1.864   0.448   8.742  0.1699 -0.0647  0.3861
  458MOL0     C63072   1.933   0.404   8.628 -0.7383 -1.1410  0.1130
  458MOL0     C63073   1.991   0.279   8.620 -0.0328 -1.7109 -0.1446
  458MOL0     O63074   2.044   0.244   8.498 -0.7189 -0.1191  0.0357
  458MOL0     C63075   2.117   0.123   8.479  0.3905  0.4915  0.0647
  458MOL0     C63076   2.197   0.126   8.347  0.7856 -0.6446  0.5391
  458MOL0     C63077   2.319   0.224   8.349 -0.2008 -0.0986 -0.3347
  458MOL0     C63078   2.443   0.173   8.433 -0.0414  0.1079  0.1350
  458MOL0     C63079   2.487   0.029   8.403 -0.0059 -0.0817 -0.0350
  458MOL0     C63080   2.434  -0.086   8.493  0.3302  0.0454 -0.4394
  458MOL0     C63081   2.546  -0.193   8.492 -0.3650 -0.4513  0.6304
  458MOL0     C63082   2.495  -0.315   8.565  0.5628 -0.2999 -0.0592
  458MOL0     N63083   2.390  -0.375   8.493  0.1151 -0.6381  0.2298
  458MOL0     C63084   2.262  -0.400   8.541  0.0018 -0.3914 -0.0768
  458MOL0     C63085   2.187  -0.442   8.437  0.0366  0.2308  0.8281
  458MOL0     C63086   2.031  -0.470   8.437  0.4073 -1.1737  0.2679
  458MOL0     C63087   1.998  -0.619   8.447 -0.1606  0.1368  0.6668
  458MOL0     C63088   2.065  -0.708   8.347  0.0383  0.6555  0.2876
  458MOL0     C63089   2.020  -0.855   8.370 -0.2126 -0.5428  1.0259
  458MOL0     O63090   1.884  -0.869   8.336  0.0702  0.4344 -0.1921
  458MOL0     C63091   1.847  -0.998   8.310 -0.2979  0.3603  0.0121
  458MOL0     C63092   1.741  -1.046   8.390  0.0820  0.0328  0.6742
  458MOL0     C63093   1.679  -1.163   8.356  0.2173  0.4349 -0.1327
  458MOL0     C63094   1.564  -1.192   8.450 -0.4755 -0.3545  0.1188
  458MOL0     C63095   1.722  -1.245   8.243 -0.7604 -0.1451 -0.2885
  458MOL0     C63096   1.658  -1.368   8.208 -0.3337  0.6099  0.3765
  458MOL0     O63097   1.699  -1.430   8.090  0.2842 -0.2770  0.2436
  458MOL0     C63098   1.674  -1.565   8.050 -0.3321  0.1388  0.0478
  458MOL0     C63099   1.702  -1.587   7.919 -0.8541 -0.6725  0.3858
  458MOL0     C63100   1.705  -1.719   7.866 -0.9010  0.0145 -0.2574
  458MOL0     C63101   1.660  -1.829   7.941 -0.5967  0.1105 -0.7847
  458MOL0     O63102   1.640  -1.953   7.878  0.3988 -0.2063  0.6096
  458MOL0     C63103   1.758  -2.025   7.838  0.7342  1.3288  1.1469
  458MOL0     C63104   1.714  -2.133   7.729  0.3015  0.2673 -0.2642
  458MOL0     C63105   1.621  -2.079   7.615 -0.1809 -1.5469  0.4422
  458MOL0     C63106   1.691  -1.977   7.513  0.0260 -0.3126 -0.3597
  458MOL0     C63107   1.587  -1.927   7.413  0.5541 -0.2421 -0.8648
  458MOL0     C63108   1.628  -1.808   7.331 -0.2901  0.3635  0.0959
  458MOL0     C63109   1.733  -1.850   7.228  0.3387  0.2148 -0.2761
  458MOL0     C63110   1.670  -1.895   7.092  0.3085  0.0078  1.1048
  458MOL0    Cl63111   1.571  -1.770   7.022  0.1413 -0.0582  0.0164
  458MOL0     C63112   1.628  -1.806   8.077 -0.3862 -0.0385  0.6400
  458MOL0     C63113   1.649  -1.672   8.135  0.5522 -0.0817 -0.5879
  458MOL0     O63114   1.577  -1.422   8.283  0.5362 -0.1379  0.2522
  458MOL0     C63115   1.837  -1.206   8.181 -0.3538 -0.8026 -0.4212
  458MOL0     C63116   1.901  -1.086   8.217  0.0777 -0.2600  0.4154
  458MOL0     N63117   2.279  -0.445   8.327 -0.0280 -0.2385 -0.4776
  458MOL0     N63118   2.399  -0.418   8.362 -0.3649 -0.3596 -1.1106
  458MOL0     C63119   1.985   0.201   8.738 -0.8712  0.2753 -0.4091
  458MOL0     C63120   1.926   0.247   8.852 -0.3084  0.3990  0.1962
  458MOL0     C63121   1.638   0.545   9.108 -1.1331 -1.1620  0.2174
  458MOL0     C63122   1.624   0.670   9.172 -1.2831 -0.1448  0.7292
  458MOL0     C63123   1.555   0.684   9.289 -0.7013 -0.3328  0.1824
  458MOL0     C63124   1.488   0.585   9.353  0.0213 -0.2267  0.8901
  458MOL0     O63125   1.449   0.614   9.479  0.3489  0.6729 -0.5205
  458MOL0     C63126   1.369   0.515   9.546  0.3410 -0.1997 -0.6780
  458MOL0     C63127   1.255   0.567   9.640 -0.3449  0.2468 -1.0368
  458MOL0     C63128   1.120   0.588   9.563 -0.0574 -0.1060  0.1807
  458MOL0     C63129   1.001   0.626   9.650 -0.1352 -0.5065  0.5850
  458MOL0     C63130   0.892   0.665   9.563  0.3530  0.6514 -0.4162
  458MOL0     C63131   0.810   0.701   9.489 -0.3470 -0.6185 -0.3362
  458MOL0     C63132   1.484   0.462   9.275 -0.1351  0.1034  0.1899
  458MOL0     C63133   1.549   0.442   9.154  0.0600  0.1306 -0.5530
  458MOL0     C63134   1.535   0.300   9.093 -0.2974 -0.4562  0.6589
  458MOL0     H63135   1.815   0.544   8.735 -0.7522 -0.5398  0.0792
  458MOL0     H63136   1.942   0.475   8.546  1.0715 -0.1031  1.1460
  458MOL0     H63137   2.037   0.049   8.468  0.4364  0.1882  1.4817
  458MOL0     H63138   2.173   0.086   8.566  1.3522 -1.8169 -1.4362
  458MOL0     H63139   2.234   0.026   8.324 -0.5790 -0.6674 -1.8778
  458MOL0     H63140   2.132   0.145   8.261  2.2882 -0.7435 -0.6551
  458MOL0     H63141   2.361   0.231   8.248  1.7951 -3.8360  0.0783
  458MOL0     H63142   2.281   0.323   8.378 -0.9117 -1.4026  3.8194
  458MOL0     H63143   2.524   0.239   8.400  0.3672  0.4500  1.7411
  458MOL0     H63144   2.419   0.187   8.539 -1.1777  2.5049 -0.3748
  458MOL0     H63145   2.596   0.029   8.412 -0.0436 -2.4026  1.2263
  458MOL0     H63146   2.459   0.007   8.299 -1.6445 -3.1715  0.9180
  458MOL0     H63147   2.424  -0.049   8.595 -2.2529 -1.2708 -0.1474
  458MOL0     H63148   2.337  -0.129   8.467  1.3960 -1.2255 -2.5951
  458MOL0     H63149   2.634  -0.167   8.551  1.2518 -1.5280 -1.2210
  458MOL0     H63150   2.594  -0.204   8.394  1.1254  1.4068  1.1017
  458MOL0     H63151   2.580  -0.379   8.593 -1.4176 -2.8702  0.4619
  458MOL0     H63152   2.459  -0.276   8.661 -1.2820 -1.1511 -0.3653
  458MOL0     H63153   2.215  -0.382   8.637 -0.6511  0.5475 -0.5545
  458MOL0     H63154   1.996  -0.440   8.338  1.5691  1.8792  0.6538
  458MOL0     H63155   1.981  -0.409   8.513  3.6915  0.5244  1.2791
  458MOL0     H63156   2.010  -0.659   8.547 -1.6072  3.4734  2.3538
  458MOL0     H63157   1.892  -0.627   8.421  0.2249  0.7804 -1.3495
  458MOL0     H63158   2.040  -0.677   8.245 -0.3847 -2.5576 -0.7031
  458MOL0     H63159   2.174  -0.710   8.363 -0.2048  0.0388  2.1782
  458MOL0     H63160   2.082  -0.920   8.307 -1.0792 -0.2584 -0.1660
  458MOL0     H63161   2.025  -0.884   8.475 -1.8124 -0.7328  1.0708
  458MOL0     H63162   1.706  -0.988   8.475  2.6493  0.1721  1.7219
  458MOL0     H63163   1.571  -1.139   8.546 -0.7809  1.3392 -0.7584
  458MOL0     H63164   1.577  -1.292   8.492  4.0043  0.1973  0.5775
  458MOL0     H63165   1.470  -1.174   8.398 -0.8800  0.1625  0.9957
  458MOL0     H63166   1.731  -1.507   7.852 -1.1082 -1.2011 -0.3643
  458MOL0     H63167   1.741  -1.731   7.764 -0.3442  1.2826 -0.2276
  458MOL0     H63168   1.816  -1.945   7.791  0.2083  0.4555 -1.1024
  458MOL0     H63169   1.807  -2.079   7.920 -1.3058 -1.7854  0.4664
  458MOL0     H63170   1.806  -2.173   7.684 -1.1581 -1.5874 -1.7540
  458MOL0     H63171   1.665  -2.211   7.788  2.3932 -1.7979 -1.0985
  458MOL0     H63172   1.545  -2.021   7.669  0.0340 -1.1485  0.3190
  458MOL0     H63173   1.589  -2.169   7.562  2.2143 -2.2569  0.0716
  458MOL0     H63174   1.775  -2.027   7.465  0.3258 -0.8052  0.6479
  458MOL0     H63175   1.729  -1.887   7.562 -2.5387 -1.4978  4.4783
  458MOL0     H63176   1.550  -2.016   7.362 -0.3182 -0.9718  0.9450
  458MOL0     H63177   1.503  -1.893   7.475  0.2050 -1.3597 -0.7052
  458MOL0     H63178   1.673  -1.728   7.391  0.2231 -0.0731  0.3001
  458MOL0     H63179   1.540  -1.771   7.279  0.4667  2.1279 -0.0123
  458MOL0     H63180   1.789  -1.931   7.275 -0.9885 -0.6509 -0.1507
  458MOL0     H63181   1.794  -1.762   7.204  0.6647  0.1411  0.2700
  458MOL0     H63182   1.614  -1.989   7.103  1.0673 -0.6199 -0.2233
  458MOL0     H63183   1.756  -1.909   7.026 -1.2578  1.3653 -1.3784
  458MOL0     H63184   1.608  -1.896   8.134 -0.3458 -0.3325  0.1957
  458MOL0     H63185   1.658  -1.652   8.241  2.4960 -0.9164 -0.5693
  458MOL0     H63186   1.890  -1.277   8.118  1.8642  0.2213  0.1729
  458MOL0     H63187   1.986  -1.067   8.152  0.2437 -2.2441 -0.0138
  458MOL0     H63188   2.040   0.107   8.744 -3.6763 -1.3890  2.3556
  458MOL0     H63189   1.934   0.188   8.943  1.1427  0.4650  0.1321
  458MOL0     H63190   1.680   0.751   9.126 -2.6541 -0.5120 -1.7688
  458MOL0     H63191   1.556   0.774   9.349 -0.2385 -0.0179 -0.2946
  458MOL0     H63192   1.321   0.454   9.469  2.1795 -2.0426 -0.4620
  458MOL0     H63193   1.436   0.455   9.608  1.0877  0.6062 -0.6789
  458MOL0     H63194   1.274   0.663   9.689 -1.0917  1.7125 -3.4579
  458MOL0     H63195   1.247   0.491   9.718 -0.0498  3.0936  2.0359
  458MOL0     H63196   1.130   0.662   9.484 -3.3402  0.9392  0.6024
  458MOL0     H63197   1.099   0.500   9.502 -2.3444 -0.7163  1.7133
  458MOL0     H63198   1.027   0.703   9.722 -3.3482 -0.5113  1.9291
  458MOL0     H63199   0.964   0.539   9.706 -1.3392 -3.4080 -4.1212
  458MOL0     H63200   0.740   0.741   9.419 -0.9091 -3.0482 -1.2609
  458MOL0     H63201   1.425   0.382   9.319 -1.7692  0.4191 -1.2752
  458MOL0     H63202   1.450   0.243   9.131 -1.5997  1.4917  0.8388
  458MOL0     H63203   1.535   0.313   8.985 -0.6860  1.1539  0.8267
  458MOL0     H63204   1.630   0.252   9.117  2.3498  2.0121 -3.6381
  459MOL0     O63205  10.182   8.157   4.824 -0.0462 -0.8756  0.0162
  459MOL0     C63206  10.220   8.173   4.706 -0.2921  0.4302  0.4187
  459MOL0     O63207  10.336   8.121   4.646  0.3791 -0.6717 -0.1513
  459MOL0     C63208  10.409   8.046   4.733 -0.3505 -0.8045 -0.4714
  459MOL0     C63209  10.542   8.068   4.777  0.7485 -0.1783 -0.2404
  459MOL0     C63210  10.606   7.981   4.857  0.7852  0.5520 -0.2166
  459MOL0     C63211  10.552   7.858   4.888  0.0837 -0.5184 -0.0272
  459MOL0     O63212  10.642   7.781   4.961  0.0459  0.2866 -0.4937
  459MOL0     C63213  10.640   7.637   4.929  0.5016  0.4607  0.0751
  459MOL0     C63214  10.573   7.577   5.051  0.2456 -0.4161 -0.4776
  459MOL0     C63215  10.565   7.418   5.039 -0.4144 -0.1047  0.9877
  459MOL0     C63216  10.443   7.348   4.977  0.3075  1.1079  0.4617
  459MOL0     C63217  10.324   7.332   5.065  0.5458  0.0127 -0.7488
  459MOL0     C63218  10.200   7.316   4.972  0.5936 -0.1200 -0.5693
  459MOL0     C63219  10.064   7.266   5.041  0.5874 -1.3548  0.4724
  459MOL0     C63220  10.026   7.358   5.156 -1.1110 -0.4820 -0.8183
  459MOL0     N63221  10.012   7.504   5.128 -0.2946  0.4040  0.2691
  459MOL0     C63222  10.108   7.604   5.125  0.2233  0.2358 -0.5299
  459MOL0     C63223  10.054   7.719   5.078  0.7700 -0.3222 -0.8831
  459MOL0     C63224  10.140   7.838   5.047 -0.9379 -0.4200  0.3437
  459MOL0     C63225  10.177   7.912   5.179 -0.3491  0.7875  0.1595
  459MOL0     C63226  10.246   8.042   5.156 -0.1862 -0.6669  0.5743
  459MOL0     C63227  10.277   8.116   5.278 -0.2177 -0.2023 -0.1611
  459MOL0     O63228  10.170   8.138   5.373  0.0023 -0.0450  0.8339
  459MOL0     C63229  10.207   8.162   5.498 -0.1204 -0.0275  0.3412
  459MOL0     C63230  10.326   8.231   5.533  0.7640 -0.2604 -0.1970
  459MOL0     C63231  10.355   8.276   5.664  0.1501  1.3956 -0.7599
  459MOL0     C63232  10.484   8.356   5.672  1.2046 -0.5129 -0.3054
  459MOL0     C63233  10.266   8.235   5.770 -0.5529  0.3780 -0.1547
  459MOL0     C63234  10.298   8.268   5.913 -0.3942 -0.3096  0.5366
  459MOL0     O63235  10.406   8.204   5.965  0.1311  1.3417 -0.7492
  459MOL0     C63236  10.424   8.202   6.097 -0.8429  0.1818 -0.3746
  459MOL0     C63237  10.553   8.230   6.140  1.0305  0.4081 -0.1807
  459MOL0     C63238  10.595   8.221   6.276 -0.8130  0.2145  0.0407
  459MOL0     C63239  10.498   8.201   6.373  0.3523  0.3457 -0.0367
  459MOL0     O63240  10.533   8.224   6.502 -0.6649 -0.3753  0.0013
  459MOL0     C63241  10.471   8.151   6.613 -0.1720  0.9018  0.1045
  459MOL0     C63242  10.480   7.995   6.610  0.4385  0.4740  0.5817
  459MOL0     C63243  10.438   7.933   6.745 -0.7423  0.0999 -0.2884
  459MOL0     C63244  10.540   7.972   6.866  0.3799  0.3939 -0.0948
  459MOL0     C63245  10.439   7.986   6.984 -0.2697 -0.0040 -0.3312
  459MOL0     C63246  10.524   8.005   7.110 -0.4281 -0.5690 -0.5364
  459MOL0     C63247  10.429   8.022   7.228  0.4996 -0.0291 -0.2473
  459MOL0     C63248  10.519   8.026   7.356  0.2236  0.0546  0.5994
  459MOL0    Cl63249  10.584   7.868   7.396  0.3679  0.1451 -0.4703
  459MOL0     C63250  10.367   8.182   6.337 -0.4899  0.7730  1.1774
  459MOL0     C63251  10.340   8.175   6.195  0.2790  0.0122  0.2030
  459MOL0     O63252  10.218   8.343   5.974  0.0496  0.6012 -0.4448
  459MOL0     C63253  10.139   8.183   5.734  0.1687  0.4883  0.5798
  459MOL0     C63254  10.122   8.135   5.603  0.7175 -0.3846 -0.5723
  459MOL0     N63255   9.928   7.690   5.035 -0.4627 -0.4724  0.0147
  459MOL0     N63256   9.902   7.564   5.072 -0.5612  0.5442  0.7423
  459MOL0     C63257  10.426   7.828   4.845 -0.2852  1.0510 -0.2768
  459MOL0     C63258  10.351   7.919   4.773  0.5209  0.2973  0.2126
  459MOL0     C63259  10.137   8.234   4.605 -0.0860 -0.2483 -0.8060
  459MOL0     C63260  10.123   8.181   4.475 -0.3217 -0.0445  0.0344
  459MOL0     C63261  10.027   8.234   4.391 -1.0259 -0.4925 -0.2584
  459MOL0     C63262   9.956   8.344   4.425 -0.2568 -0.8522 -0.5128
  459MOL0     O63263   9.853   8.403   4.346  0.4645 -0.2060 -0.3633
  459MOL0     C63264   9.818   8.333   4.223  0.9717 -0.8051  0.1392
  459MOL0     C63265   9.697   8.396   4.164  0.1962  0.2993 -0.4981
  459MOL0     C63266   9.627   8.330   4.051 -0.3796 -0.5393 -0.3394
  459MOL0     C63267   9.503   8.416   3.993  0.7775  0.2216 -0.3977
  459MOL0     C63268   9.499   8.393   3.853 -0.9244 -0.7988 -0.2724
  459MOL0     C63269   9.488   8.383   3.735 -0.4171  0.2460  0.3071
  459MOL0     C63270   9.975   8.413   4.550  0.0599 -0.0816 -0.0610
  459MOL0     C63271  10.072   8.361   4.638 -0.0653  0.3038 -0.0106
  459MOL0     C63272  10.084   8.429   4.761  0.4052  0.3649  0.7790
  459MOL0     H63273  10.587   8.165   4.758  1.3426 -0.6553 -1.3972
  459MOL0     H63274  10.704   8.007   4.895  1.0181  0.8010 -0.9628
  459MOL0     H63275  10.743   7.601   4.917  0.6722  0.8601  0.3216
  459MOL0     H63276  10.590   7.607   4.837  0.8432  0.8013 -0.2236
  459MOL0     H63277  10.626   7.596   5.145 -0.0871 -0.1433 -0.3434
  459MOL0     H63278  10.471   7.618   5.056  0.5984  0.3934  0.1779
  459MOL0     H63279  10.649   7.378   4.980  0.3206  1.5517  0.8550
  459MOL0     H63280  10.580   7.378   5.139 -0.5290 -1.9389  0.3185
  459MOL0     H63281  10.421   7.398   4.883  0.3540  1.8026  0.8139
  459MOL0     H63282  10.465   7.248   4.939 -1.2211  0.6361  0.7481
  459MOL0     H63283  10.312   7.418   5.131 -5.1798 -0.8793 -0.0421
  459MOL0     H63284  10.337   7.244   5.129  0.3689  0.0640 -0.6404
  459MOL0     H63285  10.176   7.410   4.922 -0.2883  0.9282  1.6741
  459MOL0     H63286  10.234   7.233   4.909  3.9604  0.4073  0.3954
  459MOL0     H63287  10.076   7.163   5.077  3.6177 -0.6342  1.7526
  459MOL0     H63288   9.984   7.263   4.966  0.7086  0.3609  0.2479
  459MOL0     H63289   9.931   7.326   5.200 -0.3497 -3.9921 -1.4783
  459MOL0     H63290  10.099   7.345   5.237 -1.4570 -0.0675 -0.4311
  459MOL0     H63291  10.204   7.600   5.174 -1.9071  1.2782  4.2799
  459MOL0     H63292  10.099   7.906   4.972 -1.9859  1.2192  2.3249
  459MOL0     H63293  10.229   7.800   4.996 -0.6125  2.1725 -1.1771
  459MOL0     H63294  10.084   7.925   5.235 -0.8960 -0.5363 -0.3898
  459MOL0     H63295  10.243   7.847   5.238 -0.5584 -1.0240 -1.4965
  459MOL0     H63296  10.337   8.025   5.098 -2.0439 -0.7010 -2.5836
  459MOL0     H63297  10.185   8.121   5.111  1.2628  0.4441  0.4524
  459MOL0     H63298  10.354   8.059   5.333 -1.6044 -0.7435  1.3128
  459MOL0     H63299  10.312   8.217   5.255 -0.0588  0.0961  1.2842
  459MOL0     H63300  10.392   8.267   5.455  1.2915 -1.5168 -0.3458
  459MOL0     H63301  10.567   8.292   5.641  1.5903  0.9804 -2.4918
  459MOL0     H63302  10.496   8.389   5.776 -0.3019 -1.6811  0.2820
  459MOL0     H63303  10.485   8.449   5.615 -0.0851  0.6993  1.5352
  459MOL0     H63304  10.626   8.256   6.064  0.4973 -1.7396 -1.5076
  459MOL0     H63305  10.695   8.242   6.311 -1.3938 -1.0080  2.7324
  459MOL0     H63306  10.509   8.189   6.708 -1.9494  1.7139  0.5148
  459MOL0     H63307  10.367   8.184   6.614 -0.6720 -0.1774 -2.9606
  459MOL0     H63308  10.403   7.956   6.543  0.8161  0.1812  0.3175
  459MOL0     H63309  10.579   7.952   6.591  0.0314  0.2247 -1.0553
  459MOL0     H63310  10.429   7.825   6.736  1.5727 -0.4171  2.2900
  459MOL0     H63311  10.336   7.963   6.768  0.5034  2.6495  2.7049
  459MOL0     H63312  10.594   8.066   6.853  0.8684  0.7836  3.6283
  459MOL0     H63313  10.615   7.894   6.884 -0.1931  0.1213  1.2700
  459MOL0     H63314  10.367   8.067   6.966  2.2994  2.2936 -0.8711
  459MOL0     H63315  10.372   7.903   7.005  1.8597 -0.8426  4.7427
  459MOL0     H63316  10.584   8.095   7.092  1.4815 -1.9571 -1.5881
  459MOL0     H63317  10.593   7.925   7.138  0.7928  0.7487  0.3586
  459MOL0     H63318  10.351   7.947   7.222 -0.1025  0.6915 -2.2449
  459MOL0     H63319  10.386   8.123   7.232  0.7013  0.0445  3.5067
  459MOL0     H63320  10.457   8.041   7.445 -1.0472 -0.5317 -0.1634
  459MOL0     H63321  10.605   8.093   7.341  0.9699 -1.0201 -0.0992
  459MOL0     H63322  10.284   8.174   6.407 -0.0478  2.2930  1.9342
  459MOL0     H63323  10.238   8.160   6.163 -0.2294  0.4026  1.5636
  459MOL0     H63324  10.058   8.155   5.801  2.1784 -1.6494  2.2817
  459MOL0     H63325  10.029   8.091   5.570  0.6786  0.7429 -2.0965
  459MOL0     H63326  10.401   7.723   4.863  1.2976  0.3686 -1.7338
  459MOL0     H63327  10.255   7.890   4.731  0.6923  3.0055 -2.4398
  459MOL0     H63328  10.183   8.093   4.451 -1.3221 -1.3059  1.8670
  459MOL0     H63329  10.018   8.213   4.285  0.0499  1.9988 -0.9234
  459MOL0     H63330   9.904   8.324   4.155  2.1606 -1.1489  1.6479
  459MOL0     H63331   9.795   8.229   4.248 -0.5493 -0.9783 -1.7099
  459MOL0     H63332   9.706   8.505   4.157 -4.0865  1.2705  3.5256
  459MOL0     H63333   9.619   8.397   4.241 -2.0100 -2.6473 -2.4503
  459MOL0     H63334   9.695   8.308   3.968 -0.8707  0.3314 -0.9888
  459MOL0     H63335   9.584   8.235   4.083 -0.2728 -0.7324 -0.7578
  459MOL0     H63336   9.524   8.520   4.019  3.2450 -0.5868  1.2328
  459MOL0     H63337   9.407   8.388   4.036  1.4873 -0.4032  0.8260
  459MOL0     H63338   9.490   8.359   3.631  1.8888 -1.1713  0.5957
  459MOL0     H63339   9.927   8.510   4.560 -2.0822 -0.9715 -1.1432
  459MOL0     H63340  10.059   8.535   4.752 -0.0305  0.1126 -1.7522
  459MOL0     H63341  10.019   8.389   4.839 -1.6114  2.2648  0.1797
  459MOL0     H63342  10.188   8.426   4.794  1.2829  1.8501 -1.5781
  460MOL0     O63343   2.964   7.039   5.688  0.0717 -0.0791  0.2928
  460MOL0     C63344   2.884   7.058   5.600 -0.4143 -0.6592  0.4839
  460MOL0     O63345   2.835   7.181   5.564 -0.7364  0.1852  0.1622
  460MOL0     C63346   2.881   7.288   5.627  0.6660 -0.8692  0.5871
  460MOL0     C63347   2.795   7.379   5.680  0.0360 -0.6197  0.3052
  460MOL0     C63348   2.844   7.496   5.733  0.1929 -0.0615  0.6569
  460MOL0     C63349   2.978   7.525   5.744  0.1188  0.0839 -0.3003
  460MOL0     O63350   3.033   7.631   5.812 -0.0295 -0.0270  0.3244
  460MOL0     C63351   2.975   7.763   5.808  0.2158  0.6848 -0.7894
  460MOL0     C63352   2.998   7.827   5.668 -0.3609  0.3380 -0.2058
  460MOL0     C63353   2.900   7.944   5.665  0.4118  0.6991  0.1193
  460MOL0     C63354   2.935   8.061   5.766  0.1246  0.3829 -0.4562
  460MOL0     C63355   2.831   8.169   5.773 -0.6158  0.2507  0.4902
  460MOL0     C63356   2.868   8.291   5.688 -0.4091 -0.6223  0.8240
  460MOL0     C63357   2.897   8.257   5.544 -0.8844  0.0962  0.5446
  460MOL0     C63358   2.888   8.385   5.457 -0.2408  0.1354 -1.0840
  460MOL0     N63359   2.983   8.493   5.500 -0.1016  0.2502  0.1739
  460MOL0     C63360   3.118   8.471   5.488 -0.6910  0.1002  0.6121
  460MOL0     C63361   3.178   8.584   5.535  0.4566  0.2848 -0.1329
  460MOL0     C63362   3.321   8.616   5.553 -0.2368 -0.6484 -0.3271
  460MOL0     C63363   3.385   8.506   5.635 -0.6834 -0.2200  0.5218
  460MOL0     C63364   3.543   8.517   5.649  0.0181  0.3532 -0.1215
  460MOL0     C63365   3.588   8.640   5.735  0.7950 -0.1489  0.5830
  460MOL0     O63366   3.570   8.622   5.866  0.4776 -0.0265 -0.1367
  460MOL0     C63367   3.630   8.717   5.947 -0.6314  0.2165 -0.2420
  460MOL0     C63368   3.671   8.661   6.064  0.2824  0.3242 -0.0052
  460MOL0     C63369   3.734   8.736   6.163 -0.2023  0.1062 -1.2296
  460MOL0     C63370   3.778   8.650   6.283  1.0184  0.3257 -0.7443
  460MOL0     C63371   3.765   8.867   6.151  0.1822 -0.7673 -0.0097
  460MOL0     C63372   3.856   8.949   6.235  0.3213 -0.1226 -0.4906
  460MOL0     O63373   3.881   9.080   6.195 -0.7186 -0.6192  0.0458
  460MOL0     C63374   3.966   9.156   6.271  1.0408 -0.9892 -0.8711
  460MOL0     C63375   3.922   9.205   6.394 -0.6976 -0.2878 -0.0365
  460MOL0     C63376   3.991   9.296   6.468  0.9003 -0.1913  0.3345
  460MOL0     C63377   4.128   9.335   6.426  0.4291  0.5353 -0.4626
  460MOL0     O63378   4.190   9.413   6.523  0.2459  0.2331 -0.3556
  460MOL0     C63379   4.302   9.487   6.481  0.0514  0.5997 -0.0428
  460MOL0     C63380   4.422   9.398   6.525 -0.6951 -0.5308  0.0121
  460MOL0     C63381   4.525   9.484   6.611 -0.2101 -0.1722 -0.5631
  460MOL0     C63382   4.495   9.489   6.757  0.0649 -0.9802  0.2740
  460MOL0     C63383   4.589   9.588   6.837 -0.6391 -0.5659  0.2765
  460MOL0     C63384   4.730   9.537   6.853 -0.1335  0.1853 -0.3600
  460MOL0     C63385   4.830   9.578   6.745 -0.6615  0.0829  0.0259
  460MOL0     C63386   4.887   9.715   6.763  0.2291 -0.3143 -0.0731
  460MOL0    Cl63387   4.769   9.839   6.699 -0.0754 -0.4697 -0.1934
  460MOL0     C63388   4.176   9.286   6.307 -0.7907  0.3746  0.1860
  460MOL0     C63389   4.093   9.202   6.229  0.7292  0.2861 -1.1968
  460MOL0     O63390   3.913   8.896   6.328 -0.6630 -0.6375 -0.1626
  460MOL0     C63391   3.722   8.926   6.031  0.8098 -0.9879  0.7859
  460MOL0     C63392   3.652   8.846   5.930 -0.0438 -0.7895  0.4568
  460MOL0     N63393   3.072   8.672   5.573 -0.1531  0.9369  1.1950
  460MOL0     N63394   2.958   8.618   5.546 -0.0537  0.1247  0.9164
  460MOL0     C63395   3.068   7.430   5.706  0.7214 -0.3628 -0.3354
  460MOL0     C63396   3.017   7.314   5.639 -0.6102  1.3524 -0.3012
  460MOL0     C63397   2.834   6.942   5.520  0.1985 -0.0876  0.7565
  460MOL0     C63398   2.755   6.976   5.403  0.1011  0.6657  1.3644
  460MOL0     C63399   2.695   6.865   5.328 -0.0877 -1.0963 -0.7404
  460MOL0     C63400   2.727   6.733   5.367  0.1818  0.6954 -0.4971
  460MOL0     O63401   2.673   6.632   5.298  0.3078  0.5455  0.3382
  460MOL0     C63402   2.752   6.607   5.182  0.1587 -0.1580 -0.3691
  460MOL0     C63403   2.732   6.460   5.155  0.2372  0.0986  0.4850
  460MOL0     C63404   2.757   6.368   5.273  0.0956  0.2619  0.3156
  460MOL0     C63405   2.740   6.219   5.247 -0.6205  0.6050 -0.1837
  460MOL0     C63406   2.609   6.181   5.197 -0.7334  0.6469  0.1011
  460MOL0     C63407   2.506   6.142   5.145 -0.5780 -0.1094  0.5200
  460MOL0     C63408   2.797   6.703   5.481 -1.1571  0.3507  0.2306
  460MOL0     C63409   2.858   6.804   5.562  1.0076 -0.0753 -0.1446
  460MOL0     C63410   2.927   6.759   5.685 -0.3888 -0.4613 -0.7560
  460MOL0     H63411   2.687   7.378   5.684 -0.0681  1.8538  0.0808
  460MOL0     H63412   2.775   7.570   5.772 -0.2437 -0.5108  0.7537
  460MOL0     H63413   3.038   7.810   5.884 -1.2319 -0.5033  1.2618
  460MOL0     H63414   2.871   7.762   5.845  0.7898  0.5358  0.9024
  460MOL0     H63415   3.103   7.855   5.655  0.7002 -2.5851  1.0851
  460MOL0     H63416   2.967   7.756   5.590 -1.0206 -0.5552  0.8372
  460MOL0     H63417   2.894   7.977   5.561  0.3972 -3.3999 -1.3712
  460MOL0     H63418   2.802   7.902   5.688 -0.0129  2.7663  2.4649
  460MOL0     H63419   2.949   8.020   5.866 -1.1717  0.9928  0.0004
  460MOL0     H63420   3.033   8.104   5.739  0.9871 -0.6782  0.8620
  460MOL0     H63421   2.827   8.197   5.879 -1.9292  1.2377  0.2134
  460MOL0     H63422   2.732   8.137   5.738 -0.8476  3.9636 -2.9823
  460MOL0     H63423   2.784   8.360   5.698 -2.2121 -2.6708  0.6233
  460MOL0     H63424   2.960   8.334   5.729  0.2025 -1.4977  0.3931
  460MOL0     H63425   2.829   8.177   5.513  0.5092 -0.1562 -2.2058
  460MOL0     H63426   2.995   8.211   5.530 -1.4103 -0.4484 -1.8534
  460MOL0     H63427   2.891   8.363   5.350  0.6148  1.8453 -1.4420
  460MOL0     H63428   2.788   8.431   5.461  1.6958  4.8091  0.1075
  460MOL0     H63429   3.164   8.383   5.445 -2.8324 -1.0880  0.6337
  460MOL0     H63430   3.338   8.713   5.600 -2.0447 -1.0047  1.1638
  460MOL0     H63431   3.367   8.624   5.454 -0.6728 -0.2394 -0.5006
  460MOL0     H63432   3.345   8.506   5.737 -1.0303  1.6035  0.4135
  460MOL0     H63433   3.357   8.413   5.585 -1.2796 -1.6240  3.2439
  460MOL0     H63434   3.582   8.426   5.696  3.2253  0.7807 -1.6451
  460MOL0     H63435   3.595   8.521   5.553  0.9127 -2.9336  0.0782
  460MOL0     H63436   3.696   8.639   5.719  1.8059  1.8879  5.5126
  460MOL0     H63437   3.542   8.732   5.698  1.5798 -0.2559 -0.7096
  460MOL0     H63438   3.671   8.553   6.069  0.2111  0.2829 -0.7640
  460MOL0     H63439   3.737   8.549   6.282  3.1302 -0.8461  3.9029
  460MOL0     H63440   3.750   8.684   6.384 -1.3576 -2.6844 -0.2318
  460MOL0     H63441   3.885   8.640   6.266  1.0739  0.6481 -0.6094
  460MOL0     H63442   3.819   9.180   6.420 -0.5633  0.2334  0.9986
  460MOL0     H63443   3.947   9.317   6.565  1.9729 -2.6082  1.4501
  460MOL0     H63444   4.309   9.498   6.372 -1.1056 -0.2928 -0.2285
  460MOL0     H63445   4.284   9.582   6.531 -1.8649 -0.3557  1.2237
  460MOL0     H63446   4.393   9.316   6.591  3.1332 -3.3445 -1.4018
  460MOL0     H63447   4.476   9.354   6.441  0.7246 -3.8148  2.4091
  460MOL0     H63448   4.532   9.587   6.577  0.2472  0.1426  0.4275
  460MOL0     H63449   4.627   9.449   6.595  1.0378  3.7057 -2.0880
  460MOL0     H63450   4.496   9.395   6.813  0.5689 -0.8191  0.5385
  460MOL0     H63451   4.394   9.532   6.768 -0.8610 -3.2234  1.0450
  460MOL0     H63452   4.581   9.687   6.790 -0.3589 -2.5996 -4.6411
  460MOL0     H63453   4.541   9.595   6.935  0.3216  1.1505  0.6774
  460MOL0     H63454   4.729   9.428   6.859 -0.0514  0.2259  0.4594
  460MOL0     H63455   4.779   9.561   6.947 -0.2640 -1.4910  0.1617
  460MOL0     H63456   4.800   9.562   6.641 -0.9916  0.0851  0.1218
  460MOL0     H63457   4.917   9.513   6.763  0.3128  0.9659 -1.3207
  460MOL0     H63458   4.971   9.716   6.693 -0.1719  0.1106 -0.5551
  460MOL0     H63459   4.920   9.741   6.864  0.2608  1.5036 -0.5137
  460MOL0     H63460   4.276   9.310   6.272 -0.3638 -3.2594 -1.5759
  460MOL0     H63461   4.135   9.165   6.136 -1.4451 -3.9802 -0.7443
  460MOL0     H63462   3.735   9.030   6.005 -0.6758 -0.4766  1.9332
  460MOL0     H63463   3.609   8.898   5.845  0.4467 -0.9422  0.1016
  460MOL0     H63464   3.172   7.458   5.720  0.0872  1.0968  1.9549
  460MOL0     H63465   3.082   7.240   5.593 -0.2865  0.5363  1.3791
  460MOL0     H63466   2.750   7.079   5.368  1.4136  0.5709  0.8255
  460MOL0     H63467   2.646   6.880   5.232  1.0343  0.1552 -1.1455
  460MOL0     H63468   2.691   6.667   5.114  1.2033 -3.4763 -4.6341
  460MOL0     H63469   2.856   6.640   5.181  1.2183 -3.2105 -1.8370
  460MOL0     H63470   2.800   6.432   5.074 -0.3792 -1.4152  0.4535
  460MOL0     H63471   2.626   6.450   5.128 -0.0931  3.4107  0.1644
  460MOL0     H63472   2.863   6.372   5.299  0.1821 -2.3127  0.7071
  460MOL0     H63473   2.704   6.399   5.364  2.4573  3.2259  0.8226
  460MOL0     H63474   2.750   6.165   5.342 -1.1974  2.6531  1.0886
  460MOL0     H63475   2.807   6.183   5.169 -1.9499  0.8683 -1.4791
  460MOL0     H63476   2.423   6.098   5.094  0.9359 -0.4296 -1.8134
  460MOL0     H63477   2.819   6.599   5.506 -1.0239 -0.6179 -3.3354
  460MOL0     H63478   2.879   6.808   5.771 -2.5578 -2.0966 -0.9425
  460MOL0     H63479   2.921   6.652   5.704  2.3609 -1.0765 -2.8798
  460MOL0     H63480   3.033   6.786   5.685 -1.4788  5.0189 -0.5117
  461MOL0     O63481   7.461   1.805   2.595  0.0979 -0.1629 -0.0107
  461MOL0     C63482   7.412   1.745   2.687 -0.2849 -0.0841 -0.1850
  461MOL0     O63483   7.479   1.689   2.791  0.2719  0.0589 -0.2662
  461MOL0     C63484   7.616   1.720   2.822  0.5790  0.6787  0.3061
  461MOL0     C63485   7.656   1.670   2.944 -0.6132 -0.4696 -0.2167
  461MOL0     C63486   7.791   1.691   2.983 -0.1204  0.0751 -0.3890
  461MOL0     C63487   7.884   1.759   2.904 -0.9227  0.2036 -1.2129
  461MOL0     O63488   8.013   1.771   2.954 -0.6439  0.0508  1.0150
  461MOL0     C63489   8.115   1.760   2.852  0.2755 -0.3066 -1.3801
  461MOL0     C63490   8.253   1.736   2.917 -0.1081  0.2363  0.5400
  461MOL0     C63491   8.282   1.861   2.996 -0.2314 -0.0269 -0.6899
  461MOL0     C63492   8.388   1.845   3.110  0.6882 -0.4578 -0.1894
  461MOL0     C63493   8.424   1.977   3.180 -0.1197  0.2753 -0.4278
  461MOL0     C63494   8.508   2.064   3.093  0.3128 -0.0080  0.7914
  461MOL0     C63495   8.576   2.175   3.173 -0.2631  0.2812 -0.1165
  461MOL0     C63496   8.671   2.269   3.084 -0.5936 -0.0236 -1.1562
  461MOL0     N63497   8.766   2.204   3.004  0.1918  0.5418 -0.4544
  461MOL0     C63498   8.884   2.169   3.051  0.6457  1.0988  0.3156
  461MOL0     C63499   8.950   2.101   2.955  0.0147 -0.4114  0.3668
  461MOL0     C63500   9.083   2.028   2.974 -0.3205 -0.1980 -0.4705
  461MOL0     C63501   9.057   1.917   3.085 -0.4875 -0.3521  1.3862
  461MOL0     C63502   9.155   1.811   3.075 -0.2875 -0.4768  0.6165
  461MOL0     C63503   9.250   1.804   3.196  0.3917  0.1425 -0.0860
  461MOL0     O63504   9.353   1.704   3.160  0.1224 -0.7205  0.6088
  461MOL0     C63505   9.477   1.722   3.212 -0.1704 -0.2791 -0.6721
  461MOL0     C63506   9.586   1.673   3.145 -0.5110 -0.6420  0.1462
  461MOL0     C63507   9.721   1.678   3.194  0.3125 -0.9918 -0.3946
  461MOL0     C63508   9.836   1.630   3.096 -0.0516 -1.1112 -0.2319
  461MOL0     C63509   9.746   1.729   3.329  0.9128 -0.8507  1.0883
  461MOL0     C63510   9.870   1.730   3.395 -0.1225 -0.5531  0.6028
  461MOL0     O63511   9.961   1.649   3.352  0.1803  0.1011 -0.6101
  461MOL0     C63512  10.043   1.562   3.434 -1.1452  0.2284 -0.6462
  461MOL0     C63513  10.123   1.481   3.359 -0.3728  0.5118  0.4189
  461MOL0     C63514  10.226   1.398   3.405 -0.6593  0.8735 -1.0276
  461MOL0     C63515  10.227   1.376   3.546  0.1376 -0.7922 -0.6531
  461MOL0     O63516  10.319   1.284   3.596  0.3673  0.0725  0.5563
  461MOL0     C63517  10.290   1.231   3.726 -0.5983  0.4799  0.6129
  461MOL0     C63518  10.380   1.112   3.760 -0.9452 -0.3223  0.2605
  461MOL0     C63519  10.529   1.159   3.769 -0.2049  0.0577 -0.0052
  461MOL0     C63520  10.628   1.085   3.865  0.4257  0.8759 -0.8293
  461MOL0     C63521  10.768   1.161   3.878  0.3474  0.0253  0.6266
  461MOL0     C63522  10.869   1.063   3.932  0.3195 -0.5868  0.0467
  461MOL0     C63523  10.915   0.951   3.846 -0.0698  0.1564  0.2801
  461MOL0     C63524  11.019   0.874   3.912 -0.2481  0.2043 -0.2009
  461MOL0    Cl63525  11.012   0.851   4.084  0.1574  0.2370  0.5421
  461MOL0     C63526  10.145   1.463   3.622 -0.2454 -0.6857  0.2108
  461MOL0     C63527  10.055   1.557   3.574  0.3341  0.7062  0.1487
  461MOL0     O63528   9.875   1.787   3.504  1.6087  0.7860  0.6644
  461MOL0     C63529   9.634   1.785   3.388 -0.2051 -0.6730  0.0518
  461MOL0     C63530   9.505   1.786   3.330 -0.3892 -0.4971 -0.4834
  461MOL0     N63531   8.866   2.108   2.842  0.1808  0.2088 -0.3909
  461MOL0     N63532   8.752   2.170   2.875  0.0592 -0.0496 -0.2829
  461MOL0     C63533   7.841   1.815   2.794  0.5404  0.0317  0.3199
  461MOL0     C63534   7.708   1.802   2.750  0.3723  0.4285 -0.0739
  461MOL0     C63535   7.262   1.716   2.687  0.2769  1.6924 -0.0559
  461MOL0     C63536   7.217   1.600   2.759  0.7575  0.0800 -0.1929
  461MOL0     C63537   7.083   1.564   2.768 -0.0834 -0.7585 -0.8763
  461MOL0     C63538   6.993   1.655   2.728  1.0106  0.2843 -0.2637
  461MOL0     O63539   6.862   1.628   2.768 -0.0512  0.5309 -0.0888
  461MOL0     C63540   6.761   1.725   2.750  0.6354 -0.0793  0.0064
  461MOL0     C63541   6.761   1.837   2.853 -0.1296 -0.8979  0.2259
  461MOL0     C63542   6.672   1.960   2.814 -0.6423  0.1220  0.8179
  461MOL0     C63543   6.523   1.926   2.818  0.3450 -0.5208 -0.2144
  461MOL0     C63544   6.470   1.893   2.954  0.4312 -0.4617 -0.3733
  461MOL0     C63545   6.441   1.876   3.073  0.5083 -0.7639  0.0694
  461MOL0     C63546   7.026   1.769   2.656  0.0300 -0.2062  0.3581
  461MOL0     C63547   7.160   1.799   2.630 -0.0965 -0.5523  0.5171
  461MOL0     C63548   7.184   1.930   2.565  0.7173 -0.6768  0.7369
  461MOL0     H63549   7.579   1.618   3.000 -1.0646 -0.4939 -0.8472
  461MOL0     H63550   7.835   1.666   3.079 -0.4073  2.8701  0.5785
  461MOL0     H63551   8.122   1.858   2.804  0.8044  0.2470 -0.2127
  461MOL0     H63552   8.092   1.676   2.786 -3.1044 -3.3794  3.0452
  461MOL0     H63553   8.259   1.656   2.991 -1.6900 -0.9082 -0.5088
  461MOL0     H63554   8.322   1.713   2.835  0.7653  0.2975  1.2353
  461MOL0     H63555   8.314   1.941   2.928  0.9527  0.1009 -0.0229
  461MOL0     H63556   8.195   1.897   3.051 -0.3849 -0.8828 -0.3710
  461MOL0     H63557   8.338   1.775   3.178 -1.5171 -1.9247 -3.0804
  461MOL0     H63558   8.473   1.794   3.064  0.4177 -1.0402 -0.0625
  461MOL0     H63559   8.472   1.960   3.277  0.1807 -0.6787 -0.7304
  461MOL0     H63560   8.334   2.033   3.207  1.3287  2.1436  0.7041
  461MOL0     H63561   8.581   2.004   3.037 -0.6428  1.8709 -2.8101
  461MOL0     H63562   8.456   2.112   3.010 -0.5256 -1.9411  0.1319
  461MOL0     H63563   8.640   2.132   3.251 -1.9011  0.2282  1.2459
  461MOL0     H63564   8.502   2.222   3.238  0.7098 -1.6811  2.5958
  461MOL0     H63565   8.606   2.334   3.024  1.1590  0.0409 -3.0781
  461MOL0     H63566   8.720   2.332   3.158 -0.4239  1.1180 -2.2159
  461MOL0     H63567   8.913   2.179   3.156 -0.8838 -0.1547  0.8859
  461MOL0     H63568   9.168   2.089   3.007 -0.5144  1.7634 -3.2914
  461MOL0     H63569   9.114   1.989   2.877 -0.3308 -3.9538  0.8567
  461MOL0     H63570   9.073   1.972   3.178 -2.6933  3.4337 -0.2158
  461MOL0     H63571   8.953   1.881   3.088 -0.4628 -0.6099 -0.1258
  461MOL0     H63572   9.114   1.710   3.067  2.1048 -1.5708  1.5188
  461MOL0     H63573   9.213   1.834   2.985  1.5020  0.5357  1.9629
  461MOL0     H63574   9.291   1.904   3.210 -1.8007  0.8893  1.6526
  461MOL0     H63575   9.196   1.772   3.286  0.9797  1.1479  0.6480
  461MOL0     H63576   9.565   1.623   3.051 -0.3182 -3.2094  1.3870
  461MOL0     H63577   9.895   1.549   3.138  2.4381  1.4276  1.5685
  461MOL0     H63578   9.909   1.707   3.068  0.7130 -1.0882  1.6583
  461MOL0     H63579   9.785   1.595   3.006 -0.4626 -0.5625 -0.2184
  461MOL0     H63580  10.104   1.498   3.254  0.7910  2.4906  0.4835
  461MOL0     H63581  10.298   1.347   3.341 -2.5838 -4.0798  0.3069
  461MOL0     H63582  10.304   1.309   3.801  2.2457  0.3171  0.3772
  461MOL0     H63583  10.185   1.203   3.730 -0.0950 -1.4380  1.5861
  461MOL0     H63584  10.347   1.077   3.858  1.6806 -1.3205  0.8805
  461MOL0     H63585  10.376   1.025   3.694 -3.1198  2.0182 -3.0016
  461MOL0     H63586  10.533   1.263   3.804  3.2387 -0.3084  1.1419
  461MOL0     H63587  10.574   1.159   3.669  1.7406 -0.4476  0.8109
  461MOL0     H63588  10.625   0.982   3.829 -4.1177 -0.2804  1.9670
  461MOL0     H63589  10.584   1.067   3.964 -0.3655 -4.4031 -1.8371
  461MOL0     H63590  10.810   1.185   3.780 -0.2094 -2.6094 -0.3359
  461MOL0     H63591  10.763   1.255   3.935 -0.4108 -0.1796  0.9120
  461MOL0     H63592  10.821   1.025   4.023  1.0514 -1.0134  0.2559
  461MOL0     H63593  10.950   1.128   3.965 -0.4164 -0.2361  1.2574
  461MOL0     H63594  10.948   0.989   3.749 -1.1139 -2.5773 -1.2573
  461MOL0     H63595  10.829   0.887   3.826  3.0726 -4.1196 -0.8425
  461MOL0     H63596  11.116   0.926   3.904  0.6361 -1.4641 -0.6481
  461MOL0     H63597  11.027   0.780   3.857 -2.2902 -0.4433  0.5161
  461MOL0     H63598  10.154   1.472   3.730  0.2074  0.7222  0.0867
  461MOL0     H63599   9.998   1.626   3.635  0.9974  1.1352  0.2898
  461MOL0     H63600   9.627   1.827   3.488 -4.5075  1.5704 -0.9102
  461MOL0     H63601   9.427   1.840   3.383  0.6259  0.5319 -0.0161
  461MOL0     H63602   7.912   1.878   2.742 -0.7230  1.7884  0.6353
  461MOL0     H63603   7.679   1.851   2.657  0.5273  2.3348  0.8349
  461MOL0     H63604   7.287   1.537   2.812 -1.6632 -0.1903  3.0268
  461MOL0     H63605   7.052   1.475   2.821  1.6879 -0.4906  0.7309
  461MOL0     H63606   6.773   1.765   2.649  0.5142  0.7721  0.3191
  461MOL0     H63607   6.660   1.686   2.765  0.9763 -1.3854 -0.8557
  461MOL0     H63608   6.860   1.883   2.858 -1.4920  2.5044 -0.9378
  461MOL0     H63609   6.741   1.790   2.949  0.4997 -0.6825  0.4649
  461MOL0     H63610   6.697   2.042   2.883  0.7563  0.0295  0.4443
  461MOL0     H63611   6.689   2.000   2.714  0.7282 -0.0707  0.9517
  461MOL0     H63612   6.488   1.848   2.750 -2.7562  1.4810 -1.1513
  461MOL0     H63613   6.474   2.019   2.788 -4.2886 -1.6504  2.8121
  461MOL0     H63614   6.403   1.852   3.170  2.6909  0.5317  1.3303
  461MOL0     H63615   6.947   1.836   2.623  1.3753  0.4448 -1.8008
  461MOL0     H63616   7.252   1.988   2.628 -0.0947  0.4103  0.6483
  461MOL0     H63617   7.224   1.922   2.464  3.4391 -1.8521  1.8059
  461MOL0     H63618   7.086   1.978   2.557  0.6400 -1.1034 -1.1787
  462MOL0     O63619   6.948   5.853   4.973  1.1270  0.2674 -0.3529
  462MOL0     C63620   7.015   5.840   5.073 -0.2103  0.0044  0.0755
  462MOL0     O63621   6.987   5.891   5.197 -0.1269  0.7674 -0.8348
  462MOL0     C63622   6.861   5.928   5.216 -0.1862 -1.5425 -0.4116
  462MOL0     C63623   6.852   6.062   5.265  0.2454 -0.0414  0.1217
  462MOL0     C63624   6.727   6.116   5.286  0.2683 -0.6294  0.6472
  462MOL0     C63625   6.613   6.043   5.260 -0.0650  0.2649  0.8448
  462MOL0     O63626   6.489   6.115   5.264  0.1661  1.3436 -0.7059
  462MOL0     C63627   6.475   6.213   5.161 -0.2602 -0.6685 -0.4432
  462MOL0     C63628   6.382   6.321   5.218  0.4888 -0.5302  0.8077
  462MOL0     C63629   6.420   6.373   5.351  0.4916 -0.6163 -0.2112
  462MOL0     C63630   6.407   6.525   5.363 -0.2682 -0.2279 -1.1407
  462MOL0     C63631   6.417   6.557   5.514  0.8531  1.0882  0.1271
  462MOL0     C63632   6.413   6.704   5.539  0.3344 -0.4572  0.4397
  462MOL0     C63633   6.438   6.726   5.684  0.3549 -0.6748 -0.0538
  462MOL0     C63634   6.585   6.696   5.734 -0.7069 -0.1340 -0.4701
  462MOL0     N63635   6.685   6.795   5.686 -0.3591  0.3719 -0.1670
  462MOL0     C63636   6.821   6.786   5.719 -0.9425 -0.4487  0.0901
  462MOL0     C63637   6.872   6.892   5.641 -0.2659  0.0375  0.1442
  462MOL0     C63638   7.013   6.922   5.611  0.6718  0.0953  0.1778
  462MOL0     C63639   7.060   7.053   5.558  0.4054 -0.9254 -0.9039
  462MOL0     C63640   7.208   7.053   5.538  0.2731  0.7339 -0.0720
  462MOL0     C63641   7.249   7.181   5.476 -0.0702  0.4517  0.2212
  462MOL0     O63642   7.387   7.189   5.494 -0.0476  0.0681 -0.2254
  462MOL0     C63643   7.466   7.237   5.394 -0.1109 -0.3474  0.7251
  462MOL0     C63644   7.443   7.358   5.334 -0.1965  0.6684  0.1564
  462MOL0     C63645   7.520   7.405   5.230 -0.7138  0.3469  0.3400
  462MOL0     C63646   7.491   7.541   5.172 -0.2800 -0.2863 -0.4822
  462MOL0     C63647   7.629   7.315   5.186  0.0769 -0.1231  0.6885
  462MOL0     C63648   7.720   7.342   5.081  0.4221 -0.6762 -0.2370
  462MOL0     O63649   7.852   7.351   5.104  0.4642  0.1127 -0.4457
  462MOL0     C63650   7.941   7.346   5.001 -0.4021 -1.0900 -0.7269
  462MOL0     C63651   8.066   7.402   5.023 -0.4041  0.1231  0.0408
  462MOL0     C63652   8.162   7.410   4.923  0.0733  0.1801  1.3805
  462MOL0     C63653   8.148   7.339   4.806  0.8781 -0.4316 -0.7703
  462MOL0     O63654   8.254   7.346   4.713 -0.5057 -0.2137  0.3996
  462MOL0     C63655   8.282   7.229   4.637 -0.0294  0.6774 -0.2222
  462MOL0     C63656   8.282   7.251   4.487  0.0663 -0.5015 -0.7560
  462MOL0     C63657   8.402   7.327   4.435 -0.2025  0.3829 -0.6197
  462MOL0     C63658   8.548   7.256   4.456 -0.7041 -0.8420  0.8798
  462MOL0     C63659   8.649   7.350   4.392 -0.7688 -0.0751 -1.1527
  462MOL0     C63660   8.786   7.271   4.384  1.2827 -0.6065 -0.5530
  462MOL0     C63661   8.902   7.358   4.322 -0.5900  1.2518 -0.0328
  462MOL0     C63662   9.045   7.291   4.339  0.4824  0.5181  0.2763
  462MOL0    Cl63663   9.065   7.152   4.245  0.1889 -0.1255  0.5717
  462MOL0     C63664   8.019   7.282   4.780 -0.6044  0.5131 -0.3440
  462MOL0     C63665   7.920   7.278   4.882 -0.0099  0.4555  1.3767
  462MOL0     O63666   7.665   7.363   4.971  0.4368  0.1315  0.0830
  462MOL0     C63667   7.655   7.188   5.252 -0.1371  0.5859 -1.3525
  462MOL0     C63668   7.573   7.151   5.358  0.6135 -0.5470 -0.4505
  462MOL0     N63669   6.769   6.962   5.587  0.5589  0.2472 -0.2424
  462MOL0     N63670   6.657   6.913   5.620 -0.0862 -0.2058 -0.1759
  462MOL0     C63671   6.619   5.911   5.230  0.0071  0.2657  0.1069
  462MOL0     C63672   6.743   5.853   5.201  1.0593 -0.1900 -0.6127
  462MOL0     C63673   7.144   5.778   5.047 -0.7514 -0.8566  0.1730
  462MOL0     C63674   7.174   5.646   5.076  0.1645  0.0663 -0.1105
  462MOL0     C63675   7.296   5.587   5.033  0.5631 -0.4073 -0.6405
  462MOL0     C63676   7.390   5.663   4.966 -0.3535 -0.6357 -0.2069
  462MOL0     O63677   7.511   5.610   4.926  0.0051 -0.8278  0.7687
  462MOL0     C63678   7.572   5.498   4.998 -0.7918  0.4205  0.6027
  462MOL0     C63679   7.599   5.535   5.141 -0.9111  0.0744 -0.2041
  462MOL0     C63680   7.608   5.416   5.239 -0.4354 -0.5629  0.2758
  462MOL0     C63681   7.646   5.452   5.382 -0.4363 -0.9682 -0.3429
  462MOL0     C63682   7.790   5.446   5.381  0.0598  0.1865  0.2585
  462MOL0     C63683   7.912   5.431   5.372 -1.1933  0.0776 -0.6341
  462MOL0     C63684   7.360   5.792   4.928  0.3710  0.5583  0.2040
  462MOL0     C63685   7.241   5.853   4.980  0.3524  0.2058 -0.2735
  462MOL0     C63686   7.214   5.996   4.939 -0.2444  0.6726  0.6929
  462MOL0     H63687   6.943   6.115   5.288 -0.8091  1.0811  1.9905
  462MOL0     H63688   6.709   6.222   5.303 -1.1786 -0.8722  0.7868
  462MOL0     H63689   6.438   6.181   5.063  0.8233  0.6154 -1.3044
  462MOL0     H63690   6.574   6.258   5.164  0.1447 -1.4439  3.3907
  462MOL0     H63691   6.382   6.409   5.152 -2.0989 -2.1134 -1.5013
  462MOL0     H63692   6.275   6.297   5.215  0.2201  0.6811 -0.3037
  462MOL0     H63693   6.347   6.339   5.425 -0.7821 -0.1644 -1.2350
  462MOL0     H63694   6.515   6.341   5.396 -0.3561  0.0549  2.2503
  462MOL0     H63695   6.488   6.569   5.305 -0.9836  1.9134 -0.5915
  462MOL0     H63696   6.312   6.561   5.323  0.2329 -1.3869 -3.5418
  462MOL0     H63697   6.507   6.507   5.552  1.7260  0.2699 -2.7058
  462MOL0     H63698   6.333   6.505   5.560  1.9684  0.7850  1.9307
  462MOL0     H63699   6.489   6.754   5.480 -0.4603 -0.3049 -0.4683
  462MOL0     H63700   6.322   6.751   5.503  0.3995  2.3966  3.5253
  462MOL0     H63701   6.378   6.662   5.748  2.3009  0.6116  3.3013
  462MOL0     H63702   6.412   6.829   5.709  3.2201 -0.4147  2.5225
  462MOL0     H63703   6.584   6.717   5.841  5.5177 -0.3465  0.0072
  462MOL0     H63704   6.613   6.590   5.729 -2.7902 -0.7192 -0.6864
  462MOL0     H63705   6.884   6.714   5.770 -2.4396 -0.2570  2.3525
  462MOL0     H63706   7.067   6.846   5.555 -1.8354 -2.5895  1.1673
  462MOL0     H63707   7.050   6.914   5.714 -2.2105 -3.0109  1.1213
  462MOL0     H63708   7.006   7.081   5.467 -3.7281 -3.4468  0.4522
  462MOL0     H63709   7.018   7.132   5.620 -0.0300  0.0481 -2.3823
  462MOL0     H63710   7.242   7.049   5.642 -4.1994  2.8731  1.7587
  462MOL0     H63711   7.231   6.961   5.483 -1.9467 -0.6795  1.1432
  462MOL0     H63712   7.231   7.185   5.368 -0.8487  0.9767  0.3671
  462MOL0     H63713   7.204   7.267   5.526 -2.3031 -0.4133 -0.1951
  462MOL0     H63714   7.365   7.424   5.371  1.8193  3.2474  0.1393
  462MOL0     H63715   7.442   7.613   5.238 -1.3464 -0.0180 -1.5327
  462MOL0     H63716   7.425   7.532   5.086 -0.9999 -2.0962  0.2197
  462MOL0     H63717   7.590   7.578   5.142  0.6043 -0.5183  1.9554
  462MOL0     H63718   8.092   7.438   5.122  0.7168 -1.0311  0.1820
  462MOL0     H63719   8.257   7.459   4.943 -0.8431  1.7174  2.1697
  462MOL0     H63720   8.376   7.183   4.669 -1.3463 -0.9251  1.5517
  462MOL0     H63721   8.203   7.155   4.654 -1.1324  1.7581 -0.4579
  462MOL0     H63722   8.258   7.155   4.440 -1.7333 -1.1369  1.2724
  462MOL0     H63723   8.203   7.323   4.465  2.7076  1.8732 -3.3136
  462MOL0     H63724   8.408   7.421   4.490  1.5812  0.4994 -0.9481
  462MOL0     H63725   8.386   7.353   4.330 -0.2138  1.9458 -0.2553
  462MOL0     H63726   8.538   7.164   4.397 -1.1686 -0.6023  0.5750
  462MOL0     H63727   8.567   7.231   4.561  2.6059  2.4324  1.2205
  462MOL0     H63728   8.618   7.384   4.293  0.5166 -2.9940 -2.6883
  462MOL0     H63729   8.664   7.435   4.459 -3.6710 -0.9464  0.8045
  462MOL0     H63730   8.769   7.185   4.318  1.5103 -1.9041  1.0354
  462MOL0     H63731   8.817   7.225   4.478  0.6811 -1.0986 -0.5864
  462MOL0     H63732   8.901   7.464   4.347  0.8854  2.5123 -4.3695
  462MOL0     H63733   8.879   7.362   4.215  2.4671 -0.4820 -0.8928
  462MOL0     H63734   9.060   7.278   4.446 -0.5516  2.2470  0.6777
  462MOL0     H63735   9.116   7.368   4.305 -0.5592  1.8178  0.9350
  462MOL0     H63736   7.992   7.239   4.685  0.2752  3.2834 -1.9585
  462MOL0     H63737   7.829   7.226   4.852 -0.1629  1.3187  0.2481
  462MOL0     H63738   7.741   7.127   5.229  0.9507  1.7770 -0.5922
  462MOL0     H63739   7.590   7.063   5.420  1.2335  0.8855  1.4916
  462MOL0     H63740   6.523   5.866   5.204 -0.0121  0.2848  0.1437
  462MOL0     H63741   6.752   5.750   5.167 -2.9460 -0.5763 -0.9186
  462MOL0     H63742   7.108   5.598   5.148  2.2118  0.7668  2.3888
  462MOL0     H63743   7.322   5.489   5.071 -2.1375 -1.7255 -1.9318
  462MOL0     H63744   7.509   5.409   4.994  0.3612 -0.6882  3.7930
  462MOL0     H63745   7.667   5.472   4.950 -0.5527  0.4590  1.0430
  462MOL0     H63746   7.520   5.605   5.170 -0.5594 -0.1709  1.4704
  462MOL0     H63747   7.691   5.591   5.157  0.4142 -1.8903 -0.5475
  462MOL0     H63748   7.512   5.364   5.230 -0.7789  0.1839 -0.5414
  462MOL0     H63749   7.678   5.345   5.195 -0.9395 -1.5688  1.0552
  462MOL0     H63750   7.622   5.364   5.442 -1.4347 -0.5729 -0.1458
  462MOL0     H63751   7.609   5.548   5.421  0.3966  0.4333 -2.7921
  462MOL0     H63752   8.017   5.426   5.348  0.6606  3.0219  5.0536
  462MOL0     H63753   7.432   5.843   4.864 -0.4521 -0.4302 -1.5726
  462MOL0     H63754   7.120   6.012   4.886  1.2697  1.7217 -1.8814
  462MOL0     H63755   7.212   6.048   5.035  1.2009 -0.2120  1.2361
  462MOL0     H63756   7.294   6.035   4.875  2.1248 -3.3419  0.8385
  463MOL0     O63757   2.196   5.022   8.441  0.3009  0.4445 -1.0191
  463MOL0     C63758   2.284   5.107   8.428  0.5346  0.4034 -0.8695
  463MOL0     O63759   2.335   5.183   8.532  0.5032 -0.4714 -0.3713
  463MOL0     C63760   2.266   5.193   8.650  0.4543 -0.5485  0.5273
  463MOL0     C63761   2.243   5.324   8.693  0.1380  0.9260  0.3592
  463MOL0     C63762   2.192   5.346   8.824 -0.6409 -0.1112  0.2732
  463MOL0     C63763   2.152   5.242   8.905  0.1124  0.5993  0.0150
  463MOL0     O63764   2.086   5.278   9.016  0.9287 -0.1678  0.5010
  463MOL0     C63765   2.016   5.191   9.105  0.7511  0.1862 -0.3792
  463MOL0     C63766   1.899   5.104   9.048 -0.7016 -0.0056  0.1441
  463MOL0     C63767   1.797   5.196   8.977 -0.3342 -0.3871 -0.5307
  463MOL0     C63768   1.703   5.277   9.076  0.3078 -0.9542 -0.1084
  463MOL0     C63769   1.578   5.341   9.004 -0.1875 -0.6413 -0.0315
  463MOL0     C63770   1.482   5.386   9.119 -0.3429  0.4099  0.0537
  463MOL0     C63771   1.349   5.442   9.049 -0.0871  0.3851 -0.8725
  463MOL0     C63772   1.335   5.589   9.026 -0.4076 -0.3733 -0.5433
  463MOL0     N63773   1.426   5.629   8.915 -0.5406 -0.6824 -0.3338
  463MOL0     C63774   1.517   5.730   8.920 -0.1175 -0.6358  0.2631
  463MOL0     C63775   1.585   5.724   8.802  0.6098  0.5197 -0.2404
  463MOL0     C63776   1.677   5.824   8.735 -0.6020  0.0643  0.3488
  463MOL0     C63777   1.801   5.857   8.817 -0.0503 -0.4662  0.0593
  463MOL0     C63778   1.779   6.001   8.889  0.8361 -0.1198  0.5850
  463MOL0     C63779   1.910   6.058   8.926 -0.1693 -0.2512 -0.3511
  463MOL0     O63780   1.904   6.182   8.990  0.4013 -0.1946  0.4602
  463MOL0     C63781   1.972   6.295   8.953 -0.6927  0.5792 -0.1750
  463MOL0     C63782   2.063   6.348   9.037  1.0983 -0.0979 -0.1543
  463MOL0     C63783   2.142   6.467   9.010  0.0246  0.3261 -0.1871
  463MOL0     C63784   2.244   6.521   9.107 -0.1916 -0.3461  0.4375
  463MOL0     C63785   2.134   6.523   8.875  0.4860 -1.1730 -0.2594
  463MOL0     C63786   2.205   6.651   8.829  0.2242  0.1531 -0.2595
  463MOL0     O63787   2.195   6.679   8.696  0.1079  0.9123  0.1938
  463MOL0     C63788   2.228   6.807   8.650  0.0257  0.3506  0.5255
  463MOL0     C63789   2.124   6.903   8.656 -0.3757 -0.5879  0.5704
  463MOL0     C63790   2.149   7.030   8.615 -0.8145  0.3434 -0.4468
  463MOL0     C63791   2.282   7.067   8.584  0.1327 -0.3838 -0.4454
  463MOL0     O63792   2.277   7.192   8.530 -0.3537  0.5412  0.0655
  463MOL0     C63793   2.348   7.220   8.409 -0.6102  0.3377 -0.4531
  463MOL0     C63794   2.264   7.175   8.284  0.1074 -0.3183 -0.6050
  463MOL0     C63795   2.175   7.279   8.214 -0.6071 -0.6755 -0.0690
  463MOL0     C63796   2.081   7.215   8.103  0.1911 -0.1940 -0.3608
  463MOL0     C63797   2.164   7.159   7.984  0.2770  1.2687 -0.4651
  463MOL0     C63798   2.062   7.096   7.886 -0.3255  0.2180  0.1556
  463MOL0     C63799   2.143   7.028   7.769 -0.5307  0.8798 -0.1298
  463MOL0     C63800   2.215   7.124   7.680 -0.4907  0.3147  0.1061
  463MOL0    Cl63801   2.109   7.236   7.600 -0.4784  0.6939  0.2696
  463MOL0     C63802   2.388   6.982   8.596 -0.7908  0.5964 -0.5650
  463MOL0     C63803   2.358   6.849   8.621  0.1882  0.0512  0.1945
  463MOL0     O63804   2.270   6.720   8.906 -0.1114  0.4451  0.2481
  463MOL0     C63805   2.040   6.467   8.787  0.3654  0.6314 -0.5110
  463MOL0     C63806   1.958   6.356   8.829 -0.4635 -0.7336  0.2041
  463MOL0     N63807   1.537   5.612   8.733  0.5347  0.6560  0.0623
  463MOL0     N63808   1.443   5.558   8.799 -0.4582  0.2586 -0.2048
  463MOL0     C63809   2.178   5.107   8.867 -0.5807 -0.3938 -0.2009
  463MOL0     C63810   2.233   5.082   8.732  0.3380 -0.3778 -0.3706
  463MOL0     C63811   2.333   5.136   8.293 -0.3797  0.4154  0.0624
  463MOL0     C63812   2.315   5.029   8.197  0.3156  0.0723 -0.1741
  463MOL0     C63813   2.356   5.047   8.064 -0.2991  0.7204  0.7388
  463MOL0     C63814   2.412   5.165   8.018 -0.5415 -0.8695  0.4653
  463MOL0     O63815   2.431   5.176   7.885  0.7579 -0.1424  0.1997
  463MOL0     C63816   2.439   5.310   7.828 -0.1353  0.1757  0.4196
  463MOL0     C63817   2.301   5.383   7.813  0.0184 -0.4069  0.1373
  463MOL0     C63818   2.201   5.298   7.734  0.2264  0.5597  0.0653
  463MOL0     C63819   2.091   5.386   7.676 -0.0783 -1.1037  1.1161
  463MOL0     C63820   2.008   5.319   7.578  0.8226  0.0885 -0.1318
  463MOL0     C63821   1.930   5.246   7.518  0.0717 -0.0229  0.2782
  463MOL0     C63822   2.445   5.263   8.112  0.4429 -0.2496 -0.7040
  463MOL0     C63823   2.400   5.254   8.249 -0.7767  0.1897 -0.2267
  463MOL0     C63824   2.417   5.374   8.333 -0.1324 -0.2109 -0.1065
  463MOL0     H63825   2.265   5.411   8.633 -0.4836  1.6824  1.2047
  463MOL0     H63826   2.172   5.445   8.864 -0.0825 -0.0829  0.4890
  463MOL0     H63827   1.973   5.254   9.183  0.9624  2.1274 -1.7744
  463MOL0     H63828   2.089   5.126   9.155  0.6211 -0.2901 -0.7990
  463MOL0     H63829   1.932   5.037   8.968 -0.1224 -0.5688  0.8398
  463MOL0     H63830   1.846   5.050   9.127  0.3431  0.3022  1.0859
  463MOL0     H63831   1.849   5.267   8.912 -0.7795  1.0192  0.5976
  463MOL0     H63832   1.732   5.129   8.918 -0.6788  1.2065 -2.0440
  463MOL0     H63833   1.678   5.211   9.158 -2.7275 -2.6833 -2.2546
  463MOL0     H63834   1.756   5.368   9.108 -2.2238  1.4985 -2.3348
  463MOL0     H63835   1.512   5.289   8.934 -1.3206  0.7695 -0.0356
  463MOL0     H63836   1.610   5.433   8.955  1.5191  0.6372  3.2285
  463MOL0     H63837   1.449   5.302   9.181 -3.5884 -0.3661 -2.4501
  463MOL0     H63838   1.526   5.459   9.187 -0.6758 -0.4508  1.2248
  463MOL0     H63839   1.273   5.419   9.125 -2.0230 -0.9545 -3.0913
  463MOL0     H63840   1.328   5.380   8.962  1.0960  1.6013 -2.0653
  463MOL0     H63841   1.229   5.606   9.008 -1.0128 -0.9441  2.1439
  463MOL0     H63842   1.364   5.647   9.114  0.7718 -1.7525  0.0309
  463MOL0     H63843   1.511   5.795   9.007 -0.0869 -1.1395  0.6468
  463MOL0     H63844   1.615   5.910   8.711 -1.7026 -0.3830  1.5260
  463MOL0     H63845   1.698   5.782   8.636  1.5820 -1.5839  1.4144
  463MOL0     H63846   1.828   5.777   8.887  4.4245  0.3763 -0.4638
  463MOL0     H63847   1.892   5.858   8.756 -0.4669 -0.1212 -0.5662
  463MOL0     H63848   1.740   6.070   8.814 -0.9614 -1.0715  0.5857
  463MOL0     H63849   1.706   6.006   8.970 -0.8721 -0.6604 -0.8659
  463MOL0     H63850   1.963   5.982   8.985  0.9657  1.3018  0.7169
  463MOL0     H63851   1.966   6.064   8.832 -0.9567 -3.1065 -1.0995
  463MOL0     H63852   2.074   6.300   9.134  1.7171 -0.1643 -0.2533
  463MOL0     H63853   2.257   6.451   9.190 -1.1204  0.6692  1.4687
  463MOL0     H63854   2.201   6.618   9.133 -3.8462 -1.3242 -1.2508
  463MOL0     H63855   2.342   6.528   9.059  0.1071 -1.0922  0.9072
  463MOL0     H63856   2.020   6.889   8.685 -0.7983  3.3045  1.4903
  463MOL0     H63857   2.067   7.092   8.581 -1.0280  1.2886  1.6398
  463MOL0     H63858   2.371   7.327   8.410  0.8936  0.0490  1.1539
  463MOL0     H63859   2.450   7.181   8.404  0.4620  3.0076 -1.2566
  463MOL0     H63860   2.343   7.144   8.214  2.1990  2.0595  0.5213
  463MOL0     H63861   2.201   7.091   8.315  2.3311 -1.1611  1.9794
  463MOL0     H63862   2.240   7.361   8.184  2.2518 -1.2277  3.8172
  463MOL0     H63863   2.110   7.325   8.288 -0.4425 -0.7239  0.1057
  463MOL0     H63864   2.014   7.296   8.073 -1.1327 -0.6967  1.1228
  463MOL0     H63865   2.017   7.138   8.147 -0.0585  0.1657 -0.0914
  463MOL0     H63866   2.219   7.238   7.932  2.2589 -1.3025 -2.5856
  463MOL0     H63867   2.240   7.090   8.022  0.7061  0.5914 -2.4403
  463MOL0     H63868   1.986   7.168   7.852 -2.1960 -1.6803  0.0694
  463MOL0     H63869   2.000   7.025   7.942 -1.6322  1.3519  0.2095
  463MOL0     H63870   2.072   6.960   7.720 -0.2909 -0.5363  1.3800
  463MOL0     H63871   2.203   6.955   7.825  0.1871  1.4774 -0.1072
  463MOL0     H63872   2.258   7.068   7.596 -3.6405  0.3798 -1.6949
  463MOL0     H63873   2.297   7.172   7.734  1.1502 -1.6979 -0.4674
  463MOL0     H63874   2.485   7.014   8.559 -0.1437  0.0547  0.5949
  463MOL0     H63875   2.432   6.772   8.638  2.1715  1.6812 -0.6270
  463MOL0     H63876   2.022   6.496   8.684 -1.1193 -0.4342 -0.5926
  463MOL0     H63877   1.875   6.324   8.767 -2.5743 -0.8945  2.9148
  463MOL0     H63878   2.155   5.021   8.929 -0.3715 -2.2659 -2.5764
  463MOL0     H63879   2.248   4.978   8.703 -1.7238 -0.3718 -1.6636
  463MOL0     H63880   2.265   4.940   8.233  0.2854 -0.2886 -1.1013
  463MOL0     H63881   2.333   4.975   7.986  0.8144  0.9353  0.1962
  463MOL0     H63882   2.525   5.370   7.859  0.5911 -1.7220  2.3727
  463MOL0     H63883   2.467   5.281   7.726  1.2519  1.0610  0.5279
  463MOL0     H63884   2.327   5.472   7.757  3.1282 -0.6651  0.9902
  463MOL0     H63885   2.265   5.411   7.913 -0.5875  0.7521 -0.3894
  463MOL0     H63886   2.251   5.250   7.649  0.6290 -0.4804  0.8667
  463MOL0     H63887   2.158   5.226   7.804  0.1866  2.3049  1.9228
  463MOL0     H63888   2.139   5.472   7.629 -0.7656 -2.7709 -3.0919
  463MOL0     H63889   2.029   5.420   7.760  0.7018  1.1879  0.8329
  463MOL0     H63890   1.864   5.170   7.482 -2.1571  2.6572 -1.8106
  463MOL0     H63891   2.485   5.358   8.081 -2.4562  0.1068 -4.0071
  463MOL0     H63892   2.312   5.388   8.362 -0.9411 -1.4285 -2.1839
  463MOL0     H63893   2.491   5.369   8.413 -0.4215  0.0747  0.1794
  463MOL0     H63894   2.438   5.454   8.261  1.7173  0.8075  1.4919
  464MOL0     O63895  11.136   2.216   1.608 -0.4329 -0.1082  0.5096
  464MOL0     C63896  11.122   2.225   1.483 -0.1477 -0.0031 -0.2386
  464MOL0     O63897  11.191   2.316   1.404 -0.0168 -0.4467  0.3053
  464MOL0     C63898  11.302   2.388   1.461 -0.1754 -0.6578  0.4470
  464MOL0     C63899  11.297   2.477   1.570  0.9276 -0.2578  0.1547
  464MOL0     C63900  11.418   2.519   1.628 -1.0708 -0.4598  0.5074
  464MOL0     C63901  11.541   2.489   1.575 -0.2531  0.7738 -0.5083
  464MOL0     O63902  11.657   2.544   1.623 -0.0082 -0.7496 -0.2192
  464MOL0     C63903  11.666   2.666   1.698  0.2695 -0.3713 -0.0735
  464MOL0     C63904  11.627   2.790   1.619 -0.1067 -1.0606  0.1512
  464MOL0     C63905  11.734   2.860   1.524  0.1805 -0.7032  0.5241
  464MOL0     C63906  11.661   2.976   1.471 -0.1842 -0.0049 -0.3523
  464MOL0     C63907  11.759   3.064   1.385 -0.6971 -0.2302 -0.0836
  464MOL0     C63908  11.860   2.989   1.285  0.3706 -0.3541  0.2283
  464MOL0     C63909  11.799   2.902   1.182 -0.0051 -0.5851 -0.2482
  464MOL0     C63910  11.906   2.799   1.132  0.1282  0.6149 -0.9733
  464MOL0     N63911  11.987   2.720   1.227 -0.2040  0.1844 -0.5032
  464MOL0     C63912  11.943   2.595   1.278  0.1277 -0.4922  0.1291
  464MOL0     C63913  12.041   2.553   1.358 -0.6122  0.2970 -0.0628
  464MOL0     C63914  12.041   2.433   1.461 -0.8144 -0.1227  0.0542
  464MOL0     C63915  12.192   2.407   1.496  0.2331 -1.4095 -0.6625
  464MOL0     C63916  12.204   2.278   1.577 -0.6226 -0.2740  0.8084
  464MOL0     C63917  12.339   2.262   1.637 -0.3080  0.0935  0.5127
  464MOL0     O63918  12.436   2.251   1.537  0.3661 -0.1113 -0.8837
  464MOL0     C63919  12.565   2.280   1.569 -0.0430 -0.0804  0.2459
  464MOL0     C63920  12.636   2.322   1.461 -0.4795  0.0949  0.3664
  464MOL0     C63921  12.766   2.367   1.484  0.6634 -0.4541  0.1780
  464MOL0     C63922  12.852   2.400   1.366  1.3356  0.3948  0.0843
  464MOL0     C63923  12.830   2.362   1.605  0.1950 -0.7394  0.1591
  464MOL0     C63924  12.984   2.385   1.624  1.4061  0.1037  0.3394
  464MOL0     O63925  13.034   2.505   1.577  0.1883 -0.0116  0.5067
  464MOL0     C63926  13.163   2.533   1.601  0.2440  0.4046  0.5196
  464MOL0     C63927  13.273   2.498   1.524  0.2313  0.2752 -0.0442
  464MOL0     C63928  13.403   2.530   1.549 -0.3556 -0.7388  0.6419
  464MOL0     C63929  13.432   2.600   1.667 -0.4607 -0.0924 -0.4189
  464MOL0     O63930  13.562   2.628   1.684  0.0393 -0.8887  0.6289
  464MOL0     C63931  13.613   2.639   1.816 -1.2008 -0.6253 -0.4429
  464MOL0     C63932  13.750   2.698   1.811  0.0409 -0.0143  0.3936
  464MOL0     C63933  13.836   2.620   1.716 -0.1524 -0.1183 -0.1977
  464MOL0     C63934  13.982   2.611   1.756  0.2908  0.2443 -0.4958
  464MOL0     C63935  14.078   2.602   1.632  0.3962  0.5622 -0.3950
  464MOL0     C63936  14.226   2.558   1.664  0.1486  1.1364  0.0488
  464MOL0     C63937  14.302   2.659   1.742 -0.1177  0.1469  0.4305
  464MOL0     C63938  14.451   2.616   1.748  0.3642  0.1429 -0.0486
  464MOL0    Cl63939  14.461   2.438   1.800 -0.5714 -0.0347 -0.0460
  464MOL0     C63940  13.323   2.626   1.757  0.4248  0.3970  0.2088
  464MOL0     C63941  13.192   2.594   1.715 -0.3313  0.6612 -1.2681
  464MOL0     O63942  13.041   2.286   1.664 -0.0314  0.2175 -0.0078
  464MOL0     C63943  12.757   2.315   1.719  0.5020 -0.3904 -0.1919
  464MOL0     C63944  12.625   2.271   1.696  0.0005 -0.6983  0.2315
  464MOL0     N63945  12.141   2.649   1.348  0.1330 -0.5011 -0.1155
  464MOL0     N63946  12.116   2.746   1.268  0.1059  0.5922 -0.2490
  464MOL0     C63947  11.551   2.398   1.461 -0.0442  0.1189 -0.8013
  464MOL0     C63948  11.430   2.360   1.402  0.6413  0.2729  0.0010
  464MOL0     C63949  11.033   2.123   1.425  0.1788  0.8879 -0.1034
  464MOL0     C63950  10.933   2.056   1.506 -0.2416  0.7083 -0.3621
  464MOL0     C63951  10.833   1.973   1.457  0.4127 -0.0916 -0.0232
  464MOL0     C63952  10.827   1.955   1.313 -0.5364 -0.0106 -0.9294
  464MOL0     O63953  10.722   1.880   1.271  0.4223 -0.5156  0.4374
  464MOL0     C63954  10.720   1.835   1.142 -0.7749  0.0156  0.1994
  464MOL0     C63955  10.603   1.738   1.115  0.2665  0.2765 -0.6086
  464MOL0     C63956  10.461   1.800   1.120  0.2769 -1.2038 -0.2015
  464MOL0     C63957  10.346   1.702   1.080  0.2917 -0.2700 -0.1589
  464MOL0     C63958  10.332   1.582   1.171 -0.3609  0.5403  0.7701
  464MOL0     C63959  10.328   1.504   1.264  0.1998  0.7025  0.3604
  464MOL0     C63960  10.923   2.018   1.230 -0.1185 -0.1585 -0.4590
  464MOL0     C63961  11.031   2.100   1.279  0.4524 -0.1161 -0.1176
  464MOL0     C63962  11.122   2.160   1.172  0.5064 -0.0568 -0.4826
  464MOL0     H63963  11.201   2.494   1.618  0.2835  0.8223 -1.4211
  464MOL0     H63964  11.412   2.585   1.714 -1.1795  0.6680 -0.3410
  464MOL0     H63965  11.761   2.688   1.746 -0.4078 -1.1808  1.7195
  464MOL0     H63966  11.601   2.663   1.786  4.0386  1.9412  3.1050
  464MOL0     H63967  11.540   2.761   1.559 -0.4407  0.7509 -0.2928
  464MOL0     H63968  11.609   2.871   1.690  0.1361 -0.3931 -0.5340
  464MOL0     H63969  11.820   2.897   1.581  0.7249 -1.4088  0.1843
  464MOL0     H63970  11.774   2.795   1.446  0.4999  0.8061 -0.6252
  464MOL0     H63971  11.579   2.944   1.406 -0.6409  5.8829 -3.3625
  464MOL0     H63972  11.617   3.037   1.551  2.1462  1.1572  0.1442
  464MOL0     H63973  11.828   3.110   1.456  0.0557 -0.8499 -0.4071
  464MOL0     H63974  11.705   3.153   1.350 -1.2893  0.8253  3.1534
  464MOL0     H63975  11.919   3.065   1.234  2.4442 -2.4052 -0.6101
  464MOL0     H63976  11.933   2.937   1.347  1.9376  0.5405 -0.8249
  464MOL0     H63977  11.759   2.978   1.114 -2.0539  0.8242  2.3280
  464MOL0     H63978  11.717   2.850   1.232 -0.8738  0.1366 -0.8763
  464MOL0     H63979  11.845   2.725   1.079 -1.4319 -0.1031  1.6493
  464MOL0     H63980  11.965   2.846   1.053  0.6736 -0.9144 -1.5165
  464MOL0     H63981  11.851   2.539   1.265  0.4399 -0.9290 -0.2526
  464MOL0     H63982  12.003   2.342   1.415 -1.2660  0.2218 -0.2610
  464MOL0     H63983  11.977   2.456   1.547 -1.4739 -0.3458 -0.3756
  464MOL0     H63984  12.247   2.389   1.403  2.7302  0.7743  0.2758
  464MOL0     H63985  12.232   2.497   1.543  0.0669  0.1671 -3.3325
  464MOL0     H63986  12.125   2.267   1.651 -2.5702  2.6598 -0.6000
  464MOL0     H63987  12.180   2.197   1.508  1.9619 -0.9578  0.5879
  464MOL0     H63988  12.359   2.349   1.700 -0.7482  1.5309 -1.2292
  464MOL0     H63989  12.343   2.177   1.706 -1.4835  1.4520  2.3629
  464MOL0     H63990  12.590   2.299   1.366 -2.1339 -0.9193  1.3526
  464MOL0     H63991  12.945   2.343   1.357  0.4465 -0.7952 -2.9660
  464MOL0     H63992  12.888   2.503   1.366  0.3805  0.7750 -1.5036
  464MOL0     H63993  12.795   2.389   1.273 -0.5254  0.4656  1.1730
  464MOL0     H63994  13.267   2.452   1.426  1.9833  3.2203 -1.7045
  464MOL0     H63995  13.478   2.504   1.475  0.1328 -0.1392  0.9082
  464MOL0     H63996  13.548   2.702   1.878  0.6645 -0.5354  1.5570
  464MOL0     H63997  13.595   2.538   1.855 -2.2438 -1.4453 -2.8991
  464MOL0     H63998  13.767   2.804   1.791  2.7083 -0.5060 -0.3694
  464MOL0     H63999  13.784   2.682   1.913  3.4335  0.0322 -0.6106
  464MOL0     H64000  13.817   2.661   1.617 -0.6472  0.5400  0.1651
  464MOL0     H64001  13.795   2.520   1.700 -0.2062 -0.3030  0.9901
  464MOL0     H64002  13.989   2.524   1.822  2.2887  2.3914  2.4040
  464MOL0     H64003  14.002   2.698   1.819  2.1613 -0.9337  0.5976
  464MOL0     H64004  14.033   2.524   1.569 -0.9690  1.2618 -0.3279
  464MOL0     H64005  14.074   2.698   1.580  1.3281  2.9457  3.5239
  464MOL0     H64006  14.281   2.514   1.581  3.3576 -0.2452  2.6783
  464MOL0     H64007  14.204   2.475   1.733  0.5451  1.0181  0.0332
  464MOL0     H64008  14.266   2.653   1.845  0.0794 -2.9538  0.4086
  464MOL0     H64009  14.287   2.757   1.695  1.4001 -0.4768 -1.4835
  464MOL0     H64010  14.493   2.679   1.827 -0.1501 -2.6436  2.6285
  464MOL0     H64011  14.513   2.631   1.659 -0.0791 -0.0753 -0.4016
  464MOL0     H64012  13.331   2.680   1.851 -0.9721 -0.1123  0.6496
  464MOL0     H64013  13.107   2.603   1.782 -1.3676  1.0493 -2.5708
  464MOL0     H64014  12.803   2.308   1.817 -2.1644  1.5883  1.3390
  464MOL0     H64015  12.573   2.221   1.776 -2.2961  0.5407 -0.4026
  464MOL0     H64016  11.645   2.378   1.411  0.7173 -0.8398  0.9370
  464MOL0     H64017  11.449   2.291   1.320  0.3230 -0.7232  0.7414
  464MOL0     H64018  10.925   2.072   1.613  1.5297 -1.3398  0.1491
  464MOL0     H64019  10.749   1.933   1.512  0.3154 -1.3025 -0.9929
  464MOL0     H64020  10.703   1.927   1.084  1.2178  0.5239  0.3307
  464MOL0     H64021  10.817   1.787   1.125 -2.6893 -3.4916 -2.0480
  464MOL0     H64022  10.610   1.654   1.184  1.2025 -0.5762 -1.7016
  464MOL0     H64023  10.624   1.693   1.018  1.5267 -0.2775 -0.0977
  464MOL0     H64024  10.446   1.847   1.217 -0.5737 -1.9164  0.0191
  464MOL0     H64025  10.442   1.875   1.042  0.4241 -0.2239  0.6738
  464MOL0     H64026  10.365   1.673   0.976 -1.7701 -0.2734 -0.5705
  464MOL0     H64027  10.248   1.751   1.074  1.3797  1.9370 -2.9986
  464MOL0     H64028  10.341   1.435   1.345  1.2482  1.0432  0.5018
  464MOL0     H64029  10.927   2.000   1.123 -1.3790  3.0193 -1.1545
  464MOL0     H64030  11.230   2.142   1.176  0.3765 -2.1224 -3.3112
  464MOL0     H64031  11.104   2.109   1.077  0.0020 -1.9013  0.5504
  464MOL0     H64032  11.093   2.265   1.168  0.1391 -0.0715  1.0848
  465MOL0     O64033   7.090   0.637   6.595 -0.5932 -0.5325 -0.9886
  465MOL0     C64034   7.137   0.588   6.497  0.2469  0.0237  0.0696
  465MOL0     O64035   7.270   0.563   6.474 -0.7315  0.3014 -0.1297
  465MOL0     C64036   7.351   0.556   6.591 -0.4981 -0.0445  0.4506
  465MOL0     C64037   7.470   0.639   6.612 -0.2738 -0.4894 -0.1053
  465MOL0     C64038   7.546   0.628   6.733 -0.1318 -0.0027  0.2515
  465MOL0     C64039   7.516   0.534   6.831 -0.3632  0.3456  0.2675
  465MOL0     O64040   7.582   0.528   6.946 -0.0863 -0.1308  0.2814
  465MOL0     C64041   7.651   0.404   6.984  0.4348  0.5248  0.6512
  465MOL0     C64042   7.745   0.403   7.097  0.1268 -0.1998 -0.2275
  465MOL0     C64043   7.869   0.487   7.070 -0.1668 -0.1524  0.4724
  465MOL0     C64044   7.961   0.474   7.195 -0.8696  0.6691  0.4075
  465MOL0     C64045   8.084   0.576   7.192 -0.8323 -0.2306  0.0002
  465MOL0     C64046   8.202   0.536   7.280  1.0006  0.1320 -0.2389
  465MOL0     C64047   8.323   0.627   7.258 -0.0684 -0.2144 -0.2085
  465MOL0     C64048   8.458   0.560   7.302 -0.5992 -0.2625 -0.0664
  465MOL0     N64049   8.492   0.584   7.443  0.3549 -0.8216 -0.2798
  465MOL0     C64050   8.563   0.687   7.495 -0.2015  0.2535 -0.0756
  465MOL0     C64051   8.546   0.698   7.627  0.2603  0.2437  0.4333
  465MOL0     C64052   8.613   0.804   7.717  0.4022  0.3392  0.2276
  465MOL0     C64053   8.722   0.738   7.804  0.1926 -0.9367  0.3328
  465MOL0     C64054   8.750   0.832   7.923 -0.7289  0.4358 -1.0356
  465MOL0     C64055   8.900   0.816   7.982 -0.6744  0.1582 -0.0829
  465MOL0     O64056   8.905   0.897   8.104 -0.5135 -0.7953  0.0425
  465MOL0     C64057   9.006   0.875   8.193 -0.3403  0.1661 -0.3225
  465MOL0     C64058   9.101   0.777   8.187  0.0543  0.2174  1.0531
  465MOL0     C64059   9.200   0.763   8.296  0.2347 -0.6981 -0.2126
  465MOL0     C64060   9.288   0.645   8.287  0.0164  0.4767  0.3346
  465MOL0     C64061   9.211   0.859   8.406  0.4616 -0.0472  0.2651
  465MOL0     C64062   9.302   0.850   8.525 -0.6931 -0.3494 -0.4258
  465MOL0     O64063   9.299   0.954   8.610 -0.9874  0.2521  0.9417
  465MOL0     C64064   9.418   0.994   8.662  0.1682 -0.4014  0.5551
  465MOL0     C64065   9.501   1.088   8.596  0.2713  0.3316 -0.4410
  465MOL0     C64066   9.632   1.122   8.638 -0.1067  0.9951  0.5504
  465MOL0     C64067   9.679   1.057   8.758 -0.5438  0.6772 -0.0841
  465MOL0     O64068   9.805   1.077   8.809  0.5901  0.1762  0.4819
  465MOL0     C64069   9.834   1.216   8.822 -0.0855  0.1433  0.5562
  465MOL0     C64070   9.870   1.257   8.971 -0.4896 -1.0036  0.8154
  465MOL0     C64071   9.741   1.309   9.028  0.0027  0.0114 -0.7651
  465MOL0     C64072   9.765   1.319   9.185  1.0329  0.6145  0.0831
  465MOL0     C64073   9.638   1.354   9.265 -0.1194 -0.0509  0.3730
  465MOL0     C64074   9.554   1.227   9.298 -0.2323 -0.8443 -0.2537
  465MOL0     C64075   9.416   1.275   9.353 -0.2745  0.0008 -0.5393
  465MOL0     C64076   9.320   1.161   9.392  0.2340  0.0899  0.3155
  465MOL0    Cl64077   9.360   0.999   9.295 -0.2404 -0.1389  0.3576
  465MOL0     C64078   9.595   0.961   8.825  0.3046  0.0028 -0.1298
  465MOL0     C64079   9.466   0.928   8.774  0.0579 -0.1628 -0.3882
  465MOL0     O64080   9.370   0.746   8.538  0.2256  0.0325 -0.7930
  465MOL0     C64081   9.117   0.967   8.393  0.6167  0.4996 -0.4480
  465MOL0     C64082   9.016   0.971   8.292  0.2928  0.7568 -0.0500
  465MOL0     N64083   8.448   0.603   7.655  0.1860 -0.2525 -0.6977
  465MOL0     N64084   8.412   0.540   7.550 -0.5464 -0.0740  0.4652
  465MOL0     C64085   7.405   0.450   6.803  0.1721  0.5983 -0.5239
  465MOL0     C64086   7.330   0.462   6.689  0.0057  0.3870 -0.2521
  465MOL0     C64087   7.045   0.551   6.381  0.3007 -0.6661 -0.5404
  465MOL0     C64088   7.103   0.483   6.272  0.1806 -0.0829  0.6342
  465MOL0     C64089   7.031   0.437   6.162 -0.3092 -0.8163  0.5151
  465MOL0     C64090   6.893   0.465   6.152 -0.5160  0.4315 -1.1239
  465MOL0     O64091   6.836   0.433   6.037 -0.1164 -0.3886  0.0175
  465MOL0     C64092   6.699   0.443   6.014 -0.8381 -1.1513  0.4918
  465MOL0     C64093   6.664   0.412   5.874 -0.7915  0.1092 -0.3554
  465MOL0     C64094   6.514   0.452   5.846  0.2056  0.0764  0.1735
  465MOL0     C64095   6.465   0.406   5.705 -0.8724  0.2055  0.0926
  465MOL0     C64096   6.387   0.503   5.630 -0.2266  0.6580 -0.7411
  465MOL0     C64097   6.333   0.572   5.553  0.0814 -0.1362 -0.0313
  465MOL0     C64098   6.826   0.516   6.263  0.4945 -0.6044 -0.5676
  465MOL0     C64099   6.901   0.561   6.382 -0.4478 -0.1348 -0.0629
  465MOL0     C64100   6.819   0.613   6.499 -0.0431 -0.4873  0.2361
  465MOL0     H64101   7.494   0.716   6.539 -1.1364  1.4605  1.5520
  465MOL0     H64102   7.629   0.691   6.763 -2.8309  3.2910  1.5233
  465MOL0     H64103   7.689   0.361   6.891 -0.5837  4.0755 -1.6258
  465MOL0     H64104   7.582   0.327   7.019 -0.2601  0.2742 -1.1798
  465MOL0     H64105   7.695   0.435   7.189  2.0141  0.9145  0.4710
  465MOL0     H64106   7.758   0.296   7.115 -0.9879  0.1783  3.5003
  465MOL0     H64107   7.927   0.449   6.986 -0.6718 -0.6802  0.3559
  465MOL0     H64108   7.845   0.592   7.054  4.2185  0.7594 -1.6781
  465MOL0     H64109   7.903   0.493   7.286 -0.6747  1.1593  0.4301
  465MOL0     H64110   8.002   0.372   7.200  1.1041  1.2369 -2.1424
  465MOL0     H64111   8.050   0.674   7.225  2.6872 -0.1104  3.9949
  465MOL0     H64112   8.121   0.585   7.089  2.6638  2.2085  1.3019
  465MOL0     H64113   8.169   0.543   7.384  0.0155 -0.2122 -0.5179
  465MOL0     H64114   8.226   0.431   7.260  1.7872  0.2793 -0.1078
  465MOL0     H64115   8.305   0.719   7.314  2.8531 -1.2798  2.7957
  465MOL0     H64116   8.338   0.646   7.152 -1.6915  0.3733 -0.3637
  465MOL0     H64117   8.460   0.456   7.268 -1.6073 -0.3930  0.2328
  465MOL0     H64118   8.539   0.604   7.243 -1.4379  1.2505 -0.1373
  465MOL0     H64119   8.619   0.769   7.449 -0.7069  1.1867  0.9284
  465MOL0     H64120   8.531   0.841   7.779  0.3030 -0.6961  0.7341
  465MOL0     H64121   8.654   0.887   7.659  0.4021 -0.3472 -0.7861
  465MOL0     H64122   8.692   0.639   7.839  0.0532 -2.5046 -3.6641
  465MOL0     H64123   8.810   0.724   7.740 -0.7441 -0.9954 -0.9893
  465MOL0     H64124   8.730   0.936   7.897 -1.9479 -0.0996 -2.3466
  465MOL0     H64125   8.677   0.803   8.000  2.4013 -0.4033  1.8903
  465MOL0     H64126   8.923   0.711   8.001 -1.5638  0.2671  1.8422
  465MOL0     H64127   8.974   0.855   7.912  0.0488 -2.3754 -0.8320
  465MOL0     H64128   9.101   0.715   8.098 -1.5869  5.2009 -2.8749
  465MOL0     H64129   9.394   0.673   8.283  0.3061 -0.6467 -0.3093
  465MOL0     H64130   9.257   0.583   8.202 -1.9190  2.3974 -0.4556
  465MOL0     H64131   9.287   0.578   8.374  1.1860 -0.7546 -0.5513
  465MOL0     H64132   9.453   1.126   8.507 -3.4633  2.2457  2.1112
  465MOL0     H64133   9.696   1.191   8.583 -0.9443  1.5782  0.2728
  465MOL0     H64134   9.923   1.239   8.763  0.2643 -0.1344  0.9636
  465MOL0     H64135   9.760   1.287   8.783 -0.2598  0.3298  1.2061
  465MOL0     H64136   9.904   1.168   9.025 -0.3938 -0.5480  1.5170
  465MOL0     H64137   9.944   1.335   8.954 -1.6364 -0.4845 -2.4609
  465MOL0     H64138   9.663   1.237   9.003 -1.9750  2.5488 -2.4760
  465MOL0     H64139   9.702   1.401   8.983 -1.9230  1.4768  3.4032
  465MOL0     H64140   9.837   1.399   9.205  0.2841  1.2823  0.1772
  465MOL0     H64141   9.806   1.228   9.228  1.0244  0.8735  0.6430
  465MOL0     H64142   9.670   1.411   9.353 -1.5576 -0.5567  1.2567
  465MOL0     H64143   9.579   1.423   9.203 -1.1015 -1.7250 -0.6329
  465MOL0     H64144   9.613   1.158   9.359  0.2126 -0.2269  0.0169
  465MOL0     H64145   9.546   1.175   9.202  3.4578 -3.2688  0.5289
  465MOL0     H64146   9.367   1.335   9.275 -0.8384  0.5188  0.2011
  465MOL0     H64147   9.433   1.335   9.443 -0.5578 -1.6346  0.6565
  465MOL0     H64148   9.222   1.207   9.402  1.9927  5.0647 -1.8822
  465MOL0     H64149   9.353   1.145   9.495 -0.8349 -1.5608  0.4460
  465MOL0     H64150   9.625   0.913   8.918 -1.6956  2.2997  1.8250
  465MOL0     H64151   9.406   0.859   8.833 -2.2318  1.3730 -0.7997
  465MOL0     H64152   9.122   1.033   8.479  3.8370 -0.2349  0.0714
  465MOL0     H64153   8.935   1.040   8.310 -0.0918  0.4966 -0.7312
  465MOL0     H64154   7.392   0.361   6.864  0.8982 -2.4517 -4.4340
  465MOL0     H64155   7.244   0.399   6.667  0.9067 -0.9973  0.0184
  465MOL0     H64156   7.211   0.473   6.262  0.2387 -1.3923  2.1827
  465MOL0     H64157   7.082   0.382   6.083 -3.4001 -1.5175 -1.1534
  465MOL0     H64158   6.646   0.381   6.087 -1.0857  0.4159  1.6951
  465MOL0     H64159   6.671   0.548   6.027 -0.2443 -0.7296 -1.3686
  465MOL0     H64160   6.687   0.305   5.864 -0.4876 -0.2445  2.8320
  465MOL0     H64161   6.735   0.465   5.810 -0.9048 -3.1169 -3.4740
  465MOL0     H64162   6.449   0.395   5.913 -1.2816  0.4667 -0.8589
  465MOL0     H64163   6.499   0.558   5.867  3.7750  0.7881 -0.3230
  465MOL0     H64164   6.417   0.309   5.713  0.2621 -0.4491 -0.7885
  465MOL0     H64165   6.555   0.397   5.644 -1.4921  0.6404 -0.9092
  465MOL0     H64166   6.295   0.631   5.472  1.2671  1.9753  0.8983
  465MOL0     H64167   6.718   0.518   6.253  0.3367  2.7875  0.4290
  465MOL0     H64168   6.844   0.563   6.592  2.0124 -0.0716 -0.0306
  465MOL0     H64169   6.852   0.714   6.526  3.8057 -1.4526 -0.2684
  465MOL0     H64170   6.714   0.613   6.469 -0.4259  0.6428  1.5182
  466MOL0     O64171   6.355   0.170   9.325 -0.5442  0.1922 -0.4931
  466MOL0     C64172   6.272   0.256   9.342  0.7349 -0.2141 -0.5525
  466MOL0     O64173   6.293   0.392   9.334  0.1789 -0.0635 -1.0282
  466MOL0     C64174   6.418   0.439   9.291 -0.1167  0.0914  0.1738
  466MOL0     C64175   6.530   0.438   9.382  0.6474 -0.2003  0.5023
  466MOL0     C64176   6.651   0.480   9.334  0.1190  0.5206 -0.1000
  466MOL0     C64177   6.665   0.529   9.205 -1.2230 -0.9008 -0.5379
  466MOL0     O64178   6.783   0.571   9.158 -0.5895 -0.4543 -0.5289
  466MOL0     C64179   6.788   0.702   9.100  0.4432  0.4159  0.0801
  466MOL0     C64180   6.938   0.740   9.104  0.1839 -0.5738 -0.3656
  466MOL0     C64181   6.991   0.734   9.249  0.5235  0.8220 -0.2359
  466MOL0     C64182   7.139   0.774   9.288  0.8101  0.1259  0.7606
  466MOL0     C64183   7.197   0.894   9.210 -1.6504 -0.3230 -0.1832
  466MOL0     C64184   7.326   0.945   9.277 -0.2796 -0.4374 -0.2489
  466MOL0     C64185   7.308   1.041   9.398  0.2914 -1.3244 -0.6287
  466MOL0     C64186   7.431   1.133   9.394  0.4618  0.1365  1.0923
  466MOL0     N64187   7.539   1.074   9.484 -0.2960 -0.2836 -0.2372
  466MOL0     C64188   7.634   0.982   9.452 -0.3956 -0.0246 -0.3657
  466MOL0     C64189   7.720   0.985   9.565  0.3810  0.2081 -0.0675
  466MOL0     C64190   7.844   0.903   9.578 -1.0220  0.0259 -0.6118
  466MOL0     C64191   7.797   0.764   9.556 -0.4416 -1.0138  0.4429
  466MOL0     C64192   7.906   0.667   9.586  0.9217 -0.3033 -0.2601
  466MOL0     C64193   7.871   0.519   9.591  0.9368 -0.2418  0.1571
  466MOL0     O64194   7.761   0.506   9.676  0.2691 -0.6221  0.0121
  466MOL0     C64195   7.712   0.380   9.681  0.0884  0.4241 -0.7501
  466MOL0     C64196   7.783   0.260   9.673 -0.1848  0.0785  1.0529
  466MOL0     C64197   7.722   0.130   9.657  0.1952 -0.8605  0.5695
  466MOL0     C64198   7.812   0.013   9.639 -0.1542  0.0377  0.6471
  466MOL0     C64199   7.575   0.123   9.658 -0.2917  1.2430  0.0255
  466MOL0     C64200   7.501   0.000   9.634  0.2355  0.1064  0.1043
  466MOL0     O64201   7.363   0.024   9.646 -0.3858 -0.0620  0.3222
  466MOL0     C64202   7.272  -0.075   9.646  0.1614  0.6026 -0.0837
  466MOL0     C64203   7.285  -0.193   9.730  0.2643 -0.8971 -0.3762
  466MOL0     C64204   7.193  -0.297   9.713  0.4319 -0.6810 -0.0541
  466MOL0     C64205   7.085  -0.282   9.627  0.1114 -1.2060  0.3168
  466MOL0     O64206   6.992  -0.378   9.605  0.1754 -0.2519  0.5454
  466MOL0     C64207   6.981  -0.488   9.696  0.2268 -0.3581 -0.4715
  466MOL0     C64208   6.868  -0.592   9.659 -0.0133 -0.8668  0.1080
  466MOL0     C64209   6.724  -0.536   9.672  0.0105  0.5384  0.2789
  466MOL0     C64210   6.677  -0.475   9.539  0.6741  0.1270  0.5973
  466MOL0     C64211   6.534  -0.434   9.546  0.8901 -0.5234  0.0608
  466MOL0     C64212   6.449  -0.560   9.540  0.5562  0.5363  0.6606
  466MOL0     C64213   6.308  -0.515   9.509  0.0945  0.3271  0.1749
  466MOL0     C64214   6.198  -0.623   9.513 -0.3341 -0.2273 -0.7346
  466MOL0    Cl64215   6.199  -0.733   9.375 -0.2134 -0.1980 -0.8556
  466MOL0     C64216   7.086  -0.174   9.547  0.7812 -0.1548 -0.0095
  466MOL0     C64217   7.172  -0.073   9.565  0.5148 -0.5643 -0.3877
  466MOL0     O64218   7.547  -0.107   9.612 -0.4727 -0.2309 -0.2784
  466MOL0     C64219   7.504   0.246   9.674  0.2699  1.3803  0.9207
  466MOL0     C64220   7.570   0.370   9.689 -0.2898  0.7245  0.0853
  466MOL0     N64221   7.662   1.059   9.657 -0.5028 -0.5159 -0.4133
  466MOL0     N64222   7.559   1.123   9.614 -0.7208  0.0099 -0.4612
  466MOL0     C64223   6.562   0.532   9.114  0.1705 -0.6770  0.7331
  466MOL0     C64224   6.437   0.490   9.161 -0.0556 -0.5178  0.3473
  466MOL0     C64225   6.141   0.210   9.391  0.5968  0.1778 -0.2255
  466MOL0     C64226   6.065   0.306   9.461  0.4961 -0.5622  0.3953
  466MOL0     C64227   5.941   0.276   9.526 -0.2648 -1.0425  0.7414
  466MOL0     C64228   5.891   0.149   9.529  0.6359 -0.6271 -0.5977
  466MOL0     O64229   5.775   0.124   9.589 -0.0952  0.5573 -0.0138
  466MOL0     C64230   5.689   0.230   9.615 -0.6436  0.3061 -0.5735
  466MOL0     C64231   5.563   0.184   9.689  0.4783  0.3836  0.9494
  466MOL0     C64232   5.514   0.037   9.664  0.2376  0.2419  1.1219
  466MOL0     C64233   5.468  -0.039   9.787 -0.2625 -0.6965  0.6072
  466MOL0     C64234   5.364   0.037   9.846 -1.1444  0.3514  0.1737
  466MOL0     C64235   5.297   0.109   9.915  0.0150 -0.8382  0.1389
  466MOL0     C64236   5.963   0.054   9.460  0.2327 -0.0371 -0.2093
  466MOL0     C64237   6.085   0.080   9.389 -0.2565 -0.3911 -0.9291
  466MOL0     C64238   6.157  -0.040   9.314 -0.1093  0.0040 -0.4138
  466MOL0     H64239   6.527   0.418   9.488  1.2704 -1.4994  0.2878
  466MOL0     H64240   6.729   0.473   9.409  0.3350 -1.6201 -0.4622
  466MOL0     H64241   6.730   0.776   9.155 -2.4760 -0.2508 -1.8910
  466MOL0     H64242   6.744   0.707   9.000 -3.5352  0.5098  1.6557
  466MOL0     H64243   7.002   0.673   9.045  1.4902 -0.8442  1.2839
  466MOL0     H64244   6.952   0.841   9.064  0.2569 -0.5002 -0.1530
  466MOL0     H64245   6.927   0.796   9.312  0.5208 -0.8269  1.4765
  466MOL0     H64246   6.987   0.633   9.290  1.5315  1.9166  2.8274
  466MOL0     H64247   7.129   0.795   9.395 -3.1949 -1.6291  0.9447
  466MOL0     H64248   7.203   0.687   9.274  0.3192 -0.1316  0.0201
  466MOL0     H64249   7.131   0.980   9.205  0.1562  1.4428  3.0230
  466MOL0     H64250   7.221   0.852   9.111 -0.2372 -0.5387  0.2294
  466MOL0     H64251   7.398   0.866   9.301  2.6491  2.6107  1.7663
  466MOL0     H64252   7.379   0.992   9.194  0.8937 -0.7364  0.3098
  466MOL0     H64253   7.302   0.998   9.498  1.3580 -0.1715 -0.0420
  466MOL0     H64254   7.222   1.105   9.380 -0.2733 -1.3958  1.5913
  466MOL0     H64255   7.471   1.158   9.295 -1.9282  2.8658  0.6866
  466MOL0     H64256   7.410   1.234   9.430  3.8642  0.7083  1.8405
  466MOL0     H64257   7.641   0.927   9.359 -2.8700  2.9881 -2.5438
  466MOL0     H64258   7.890   0.913   9.677  1.9673 -1.2055 -1.7353
  466MOL0     H64259   7.920   0.935   9.506  1.2586  0.0706  1.6849
  466MOL0     H64260   7.715   0.750   9.627  0.5939 -0.6529  1.7357
  466MOL0     H64261   7.752   0.758   9.456  0.2175  0.5441  0.0136
  466MOL0     H64262   7.994   0.684   9.523 -0.4979  1.7434 -1.8449
  466MOL0     H64263   7.942   0.683   9.688 -0.8361 -0.7181  0.4673
  466MOL0     H64264   7.840   0.481   9.494 -0.0892  0.7985  0.0466
  466MOL0     H64265   7.965   0.468   9.617  2.4062  2.5307  0.7129
  466MOL0     H64266   7.891   0.269   9.668 -0.3784  2.1306 -2.2850
  466MOL0     H64267   7.910   0.057   9.659 -1.1555  1.7924  2.0974
  466MOL0     H64268   7.822  -0.019   9.535  0.6752 -3.0587  1.5878
  466MOL0     H64269   7.786  -0.078   9.692 -1.9251 -1.6941 -2.8642
  466MOL0     H64270   7.357  -0.201   9.811  0.5102 -0.0908 -0.5072
  466MOL0     H64271   7.195  -0.389   9.771 -1.4610 -1.1804 -0.7022
  466MOL0     H64272   7.072  -0.548   9.703  1.9337  2.1858  0.9015
  466MOL0     H64273   6.967  -0.462   9.802  1.3208 -2.8505  0.3621
  466MOL0     H64274   6.879  -0.632   9.558  1.5216  0.6330 -0.3515
  466MOL0     H64275   6.870  -0.676   9.730 -1.9103  0.5411  1.9808
  466MOL0     H64276   6.719  -0.471   9.760 -2.7127  1.7841 -0.6937
  466MOL0     H64277   6.662  -0.622   9.695  0.6456  0.7788  3.2970
  466MOL0     H64278   6.698  -0.537   9.452 -1.8068 -1.2409  0.9030
  466MOL0     H64279   6.724  -0.377   9.526  1.6267 -0.3957 -0.0250
  466MOL0     H64280   6.519  -0.387   9.644 -1.6547  0.2629 -0.6379
  466MOL0     H64281   6.509  -0.357   9.472  0.3296  0.7719  1.5366
  466MOL0     H64282   6.454  -0.620   9.632 -0.2497  0.1692  0.4739
  466MOL0     H64283   6.487  -0.622   9.459  0.9514  0.7032  0.7152
  466MOL0     H64284   6.307  -0.485   9.404  2.5927  1.2286  0.3586
  466MOL0     H64285   6.278  -0.434   9.576  2.5239  0.0633  1.6826
  466MOL0     H64286   6.102  -0.572   9.516 -0.8342 -1.1809  0.9806
  466MOL0     H64287   6.197  -0.670   9.612 -0.7503  0.6483 -0.3128
  466MOL0     H64288   7.019  -0.181   9.462  1.5444 -2.2693 -0.4864
  466MOL0     H64289   7.160   0.008   9.494 -2.3816 -0.0766  0.5577
  466MOL0     H64290   7.395   0.248   9.669  0.3278  1.4280 -0.9095
  466MOL0     H64291   7.509   0.459   9.702 -2.6063 -0.6270 -0.9884
  466MOL0     H64292   6.578   0.557   9.010  0.0361 -1.6554  0.4761
  466MOL0     H64293   6.359   0.485   9.086 -0.8757  2.2728  0.8951
  466MOL0     H64294   6.095   0.410   9.451  0.9831 -0.8850 -2.4888
  466MOL0     H64295   5.892   0.366   9.561  1.2911 -1.1187  3.3974
  466MOL0     H64296   5.740   0.301   9.681 -2.3212 -1.3354  2.7596
  466MOL0     H64297   5.662   0.282   9.523  2.2914 -0.6796 -2.1317
  466MOL0     H64298   5.479   0.248   9.660  0.2744 -0.5991 -0.8078
  466MOL0     H64299   5.580   0.196   9.796  0.7561 -1.7360  1.1825
  466MOL0     H64300   5.436   0.043   9.588 -0.0460  1.2990  1.4798
  466MOL0     H64301   5.591  -0.034   9.632  1.1995  0.1516  3.3950
  466MOL0     H64302   5.550  -0.043   9.859 -1.6273  0.3431  2.3085
  466MOL0     H64303   5.440  -0.142   9.763 -0.4983 -0.6159  0.5273
  466MOL0     H64304   5.234   0.179   9.967 -3.2721 -1.7440 -2.3244
  466MOL0     H64305   5.916  -0.044   9.467 -1.0845  0.6666  1.7506
  466MOL0     H64306   6.086  -0.124   9.315 -1.2314  0.8482 -2.6872
  466MOL0     H64307   6.191  -0.013   9.214  0.9850 -1.1246 -0.3730
  466MOL0     H64308   6.252  -0.068   9.361  1.5027 -0.5812 -3.6938
  467MOL0     O64309   0.500   0.231   6.606 -0.4616  0.0771 -0.8564
  467MOL0     C64310   0.449   0.325   6.547 -0.3987  0.5734 -0.4116
  467MOL0     O64311   0.463   0.341   6.406  0.1196  0.4458 -0.7061
  467MOL0     C64312   0.551   0.251   6.348 -0.4569 -0.2324  1.4833
  467MOL0     C64313   0.635   0.310   6.261 -0.1861  0.0919 -0.2364
  467MOL0     C64314   0.713   0.235   6.169 -0.6229 -0.4845 -0.3358
  467MOL0     C64315   0.710   0.096   6.178 -0.4400 -0.1095  0.6033
  467MOL0     O64316   0.779   0.019   6.090 -0.2752 -0.4070 -0.0040
  467MOL0     C64317   0.914   0.054   6.068  0.3954 -0.5747  0.5663
  467MOL0     C64318   1.005  -0.055   6.006 -0.2248  0.5229 -0.2479
  467MOL0     C64319   1.133   0.003   5.956 -0.3657 -1.0641  0.6878
  467MOL0     C64320   1.122   0.101   5.844  0.3695 -0.5495 -0.2728
  467MOL0     C64321   1.260   0.155   5.809 -0.0870 -0.1877 -0.2647
  467MOL0     C64322   1.334   0.097   5.689  0.0768 -0.1484  0.1761
  467MOL0     C64323   1.469   0.164   5.673  0.8275  0.0657 -0.3959
  467MOL0     C64324   1.553   0.093   5.573 -0.3755 -0.2272  0.4455
  467MOL0     N64325   1.688   0.144   5.544 -0.7053  0.3297 -0.0525
  467MOL0     C64326   1.734   0.209   5.435 -0.7685  0.1040 -0.6086
  467MOL0     C64327   1.871   0.214   5.446 -0.1966  0.3942  0.7776
  467MOL0     C64328   1.976   0.281   5.363 -0.7976  0.2328  0.8247
  467MOL0     C64329   2.046   0.182   5.263 -0.3780  0.8259 -0.6842
  467MOL0     C64330   2.157   0.244   5.175  0.0784 -0.1083 -0.0723
  467MOL0     C64331   2.118   0.370   5.103  0.7561 -0.1776  0.1590
  467MOL0     O64332   1.994   0.344   5.026 -0.3831  0.5423  0.4580
  467MOL0     C64333   1.870   0.385   5.072 -0.2026  0.7392  0.2783
  467MOL0     C64334   1.755   0.307   5.063  0.1692 -0.6252  1.0543
  467MOL0     C64335   1.625   0.344   5.096  0.5173 -1.0262  0.0839
  467MOL0     C64336   1.530   0.225   5.109 -0.5376 -0.5207 -0.0339
  467MOL0     C64337   1.599   0.488   5.110  1.0298  0.5818  0.0293
  467MOL0     C64338   1.456   0.542   5.128 -0.2433 -0.6834  0.1248
  467MOL0     O64339   1.358   0.461   5.163  0.1910  0.3879 -0.3992
  467MOL0     C64340   1.224   0.488   5.141  0.0455 -0.0316 -0.6608
  467MOL0     C64341   1.181   0.608   5.072  0.4190  0.2856  0.1932
  467MOL0     C64342   1.044   0.639   5.068  0.3845 -0.6667 -0.3964
  467MOL0     C64343   0.945   0.547   5.112 -0.5718  0.2438 -0.2376
  467MOL0     O64344   0.810   0.558   5.110 -0.0907 -0.1806  0.8610
  467MOL0     C64345   0.764   0.690   5.075  0.1379 -0.0616 -0.0926
  467MOL0     C64346   0.612   0.691   5.097 -0.0276  0.2473  0.5496
  467MOL0     C64347   0.579   0.703   5.243  0.3124  0.3536  0.5135
  467MOL0     C64348   0.429   0.698   5.272 -0.2128 -0.0498  0.6071
  467MOL0     C64349   0.386   0.746   5.416 -0.0049  0.2855  0.7311
  467MOL0     C64350   0.461   0.665   5.523  0.1578 -1.0451 -0.6984
  467MOL0     C64351   0.426   0.508   5.524  0.2926 -0.7574 -0.0783
  467MOL0     C64352   0.282   0.489   5.559 -0.2331  0.4950  0.3226
  467MOL0    Cl64353   0.260   0.320   5.607  0.1527  0.0497  0.6680
  467MOL0     C64354   0.990   0.421   5.160  0.0018 -0.4139 -0.8714
  467MOL0     C64355   1.128   0.393   5.179  0.0234  0.6606 -0.3927
  467MOL0     O64356   1.450   0.665   5.151 -0.5296 -0.2191 -0.5116
  467MOL0     C64357   1.711   0.576   5.108 -0.1291 -0.8901 -0.4722
  467MOL0     C64358   1.844   0.527   5.094  0.2354  0.2201  0.6980
  467MOL0     N64359   1.905   0.127   5.550  0.2466  0.3917  0.5599
  467MOL0     N64360   1.796   0.089   5.605  0.3711  0.2415 -0.0205
  467MOL0     C64361   0.622   0.038   6.265  0.6307 -0.0909 -0.3249
  467MOL0     C64362   0.546   0.108   6.354 -0.9290 -1.1324  0.5651
  467MOL0     C64363   0.379   0.440   6.616 -0.6356  1.3376 -0.4821
  467MOL0     C64364   0.322   0.541   6.531 -0.5937  0.1218 -1.0715
  467MOL0     C64365   0.253   0.651   6.588 -0.2689  0.6550 -0.2114
  467MOL0     C64366   0.241   0.655   6.725 -0.6432 -0.0506  0.1444
  467MOL0     O64367   0.167   0.763   6.763  0.1036  0.1130 -0.9582
  467MOL0     C64368   0.161   0.808   6.898  0.1548 -0.2319 -0.5597
  467MOL0     C64369   0.112   0.951   6.899 -0.5534 -0.1234  0.4205
  467MOL0     C64370   0.158   1.024   7.029  0.2226  0.4589  0.1782
  467MOL0     C64371   0.090   1.150   7.073 -0.7856 -0.7839  0.2775
  467MOL0     C64372  -0.046   1.135   7.111 -0.1552 -0.0754 -0.8791
  467MOL0     C64373  -0.159   1.102   7.143 -0.2669 -0.1684  1.2799
  467MOL0     C64374   0.290   0.559   6.809  0.0095 -0.7077 -0.3976
  467MOL0     C64375   0.348   0.442   6.754 -0.3922  0.2652 -0.1691
  467MOL0     C64376   0.371   0.325   6.846 -1.1582 -0.0095  0.0355
  467MOL0     H64377   0.629   0.418   6.271  2.8215  0.2336  0.9515
  467MOL0     H64378   0.776   0.295   6.104  1.2694  0.3590  2.1097
  467MOL0     H64379   0.954   0.083   6.166  0.9533  0.0507  0.1544
  467MOL0     H64380   0.917   0.147   6.012  3.6344  0.6787  2.4880
  467MOL0     H64381   1.032  -0.133   6.077 -0.9903 -0.0407 -0.5620
  467MOL0     H64382   0.943  -0.107   5.933 -1.7468  0.7502  0.8348
  467MOL0     H64383   1.187   0.047   6.041 -1.0187  1.3736 -0.0819
  467MOL0     H64384   1.192  -0.083   5.925  2.4484  1.2340 -0.7806
  467MOL0     H64385   1.080   0.051   5.756 -0.5497 -2.7133  1.2982
  467MOL0     H64386   1.061   0.190   5.863  1.1827  0.5867 -2.5703
  467MOL0     H64387   1.324   0.144   5.897  0.0314  2.3637  0.0333
  467MOL0     H64388   1.258   0.263   5.794  1.3818 -0.0725  0.1920
  467MOL0     H64389   1.340  -0.009   5.715  0.5837 -0.3273 -0.6272
  467MOL0     H64390   1.267   0.102   5.602 -0.1750 -1.4844  0.2669
  467MOL0     H64391   1.521   0.159   5.770 -1.6812  0.8728  1.0849
  467MOL0     H64392   1.441   0.265   5.640 -1.8255 -0.8210 -1.0825
  467MOL0     H64393   1.577  -0.009   5.605  3.8217  0.4072 -0.0230
  467MOL0     H64394   1.498   0.071   5.481 -0.7484 -0.6067  0.7579
  467MOL0     H64395   1.674   0.252   5.356 -0.7488  1.1813 -0.0648
  467MOL0     H64396   2.051   0.330   5.425  2.5619 -0.2015 -2.5324
  467MOL0     H64397   1.932   0.359   5.299 -1.2225 -0.2629  0.5078
  467MOL0     H64398   2.090   0.105   5.326 -1.0825  0.7580 -0.2695
  467MOL0     H64399   1.974   0.134   5.197  1.5412 -1.9690 -0.9134
  467MOL0     H64400   2.241   0.267   5.240 -0.7231 -0.0633  0.9689
  467MOL0     H64401   2.187   0.166   5.104  0.9191  1.2628 -1.2857
  467MOL0     H64402   2.098   0.456   5.168  1.6652 -0.0608  0.3075
  467MOL0     H64403   2.197   0.397   5.031 -0.5996 -0.5139 -1.5275
  467MOL0     H64404   1.770   0.202   5.040 -1.0650 -1.3861  3.3582
  467MOL0     H64405   1.436   0.243   5.162 -0.0759 -0.9043  0.9519
  467MOL0     H64406   1.582   0.142   5.158 -0.4027 -0.2133  0.3532
  467MOL0     H64407   1.503   0.188   5.009 -0.2561  1.3729 -0.8504
  467MOL0     H64408   1.245   0.688   5.036  1.5690 -0.6231  0.1762
  467MOL0     H64409   1.018   0.734   5.023  3.1574 -0.2318 -1.2845
  467MOL0     H64410   0.801   0.766   5.145 -3.8658  1.0480  1.0843
  467MOL0     H64411   0.785   0.706   4.969  0.1874  0.8937  0.0449
  467MOL0     H64412   0.560   0.769   5.040 -0.7522 -0.2642  0.5019
  467MOL0     H64413   0.582   0.591   5.065 -0.8569  0.7277 -0.1976
  467MOL0     H64414   0.608   0.799   5.285 -1.3281  0.6325  1.0493
  467MOL0     H64415   0.624   0.624   5.304 -1.6136 -2.3231 -1.2820
  467MOL0     H64416   0.381   0.601   5.254  0.5078 -0.1924 -0.6971
  467MOL0     H64417   0.374   0.758   5.200 -1.7890 -2.5181 -0.3931
  467MOL0     H64418   0.393   0.855   5.423  0.4320  0.4158 -1.1505
  467MOL0     H64419   0.278   0.729   5.419 -0.0429  0.3230 -0.1880
  467MOL0     H64420   0.425   0.694   5.622  0.6878 -3.2715  0.2125
  467MOL0     H64421   0.564   0.699   5.514 -0.9214  2.0733 -2.8576
  467MOL0     H64422   0.487   0.440   5.585 -0.1139 -1.3573 -0.3255
  467MOL0     H64423   0.455   0.474   5.424  2.7704  2.0267 -0.4328
  467MOL0     H64424   0.211   0.511   5.478 -1.9699 -3.4119  0.5489
  467MOL0     H64425   0.256   0.553   5.644  2.6464  2.0958  0.0962
  467MOL0     H64426   0.933   0.332   5.181  2.5634 -2.4593 -2.0097
  467MOL0     H64427   1.149   0.297   5.225 -0.2770  1.0868  0.6563
  467MOL0     H64428   1.691   0.683   5.109 -0.4108 -0.8921  2.3628
  467MOL0     H64429   1.927   0.595   5.079 -0.2773  0.2858 -2.6406
  467MOL0     H64430   0.610  -0.069   6.257 -2.4788  0.2466 -1.3234
  467MOL0     H64431   0.474   0.062   6.421 -0.8891 -1.0946  0.6330
  467MOL0     H64432   0.331   0.547   6.423  3.3667 -2.0760 -1.0539
  467MOL0     H64433   0.220   0.731   6.523  2.1845  1.6164 -0.3922
  467MOL0     H64434   0.096   0.757   6.970 -0.3613  1.1217 -0.0508
  467MOL0     H64435   0.262   0.795   6.940  0.2067 -0.7176 -0.8327
  467MOL0     H64436   0.004   0.945   6.884 -0.3564  0.5405 -1.5087
  467MOL0     H64437   0.159   1.000   6.814 -0.2247 -1.8951 -0.4471
  467MOL0     H64438   0.129   0.958   7.111  0.0260 -0.4657 -0.6317
  467MOL0     H64439   0.266   1.035   7.019  0.2011  2.9509  1.6752
  467MOL0     H64440   0.109   1.234   7.005  4.8612 -1.3964  0.6147
  467MOL0     H64441   0.143   1.179   7.164  2.0900 -1.3194 -1.1112
  467MOL0     H64442  -0.263   1.088   7.167 -0.5711 -0.8540 -0.2890
  467MOL0     H64443   0.267   0.576   6.913  1.9373  1.6230 -0.2595
  467MOL0     H64444   0.325   0.234   6.807  2.9525 -2.5275  0.4492
  467MOL0     H64445   0.477   0.302   6.858 -0.9361  1.0850  0.2768
  467MOL0     H64446   0.338   0.352   6.947  1.7657  0.9207  0.8214
  468MOL0     O64447   9.664   7.239   8.992  0.5074 -0.2082  1.0274
  468MOL0     C64448   9.661   7.123   9.032  0.3079 -0.3221  1.1484
  468MOL0     O64449   9.768   7.047   9.069  0.4835 -0.3939  0.9765
  468MOL0     C64450   9.900   7.080   9.049 -0.1933  0.0412  0.5438
  468MOL0     C64451   9.988   6.996   9.101 -0.1100 -0.6876  1.1133
  468MOL0     C64452  10.130   7.020   9.087  0.7115 -0.3372 -0.6117
  468MOL0     C64453  10.174   7.125   8.998  0.5166  0.1771  0.1350
  468MOL0     O64454  10.315   7.145   8.986 -0.0857 -0.0445  0.2835
  468MOL0     C64455  10.372   7.126   8.860 -0.5343 -0.0845  0.2369
  468MOL0     C64456  10.526   7.140   8.869 -0.3786  0.0519  0.3897
  468MOL0     C64457  10.582   7.109   8.738 -0.8903 -0.2107  0.2897
  468MOL0     C64458  10.728   7.163   8.716  0.2711 -0.0947 -0.7665
  468MOL0     C64459  10.779   7.107   8.584 -0.5379  0.2481 -0.6073
  468MOL0     C64460  10.923   7.154   8.542  0.9554  0.2203  0.0092
  468MOL0     C64461  11.030   7.144   8.647  0.0472 -0.3759 -0.6144
  468MOL0     C64462  11.083   7.001   8.656  0.3861  0.4596 -0.4795
  468MOL0     N64463  11.200   7.003   8.751 -0.3755 -1.0182  0.2502
  468MOL0     C64464  11.204   6.929   8.868  0.8648 -0.7459  0.0228
  468MOL0     C64465  11.328   6.934   8.920  0.0201 -0.2095  0.6913
  468MOL0     C64466  11.386   6.834   9.028 -0.0739 -0.1084 -1.0199
  468MOL0     C64467  11.289   6.802   9.142 -0.4645 -0.1312 -0.7406
  468MOL0     C64468  11.276   6.911   9.245  0.2433 -0.8377  0.0509
  468MOL0     C64469  11.206   7.051   9.204 -0.6925  0.8758 -0.3815
  468MOL0     O64470  11.069   7.038   9.153 -0.6504 -0.3476 -0.0062
  468MOL0     C64471  10.962   6.997   9.231 -0.4026  0.8533 -0.1726
  468MOL0     C64472  10.972   6.992   9.369 -0.0668 -0.6826  0.8574
  468MOL0     C64473  10.865   6.947   9.443 -0.4560 -0.1422  0.4831
  468MOL0     C64474  10.876   6.963   9.596  0.1931 -0.3208  0.1813
  468MOL0     C64475  10.739   6.910   9.378  0.4232 -0.0865 -1.3075
  468MOL0     C64476  10.621   6.863   9.453  0.1830 -0.0545  0.8088
  468MOL0     O64477  10.625   6.844   9.587  0.3198  0.2539 -0.6984
  468MOL0     C64478  10.508   6.859   9.666 -0.6339 -0.0438 -0.1628
  468MOL0     C64479  10.396   6.933   9.637  0.7059  0.6271  0.2471
  468MOL0     C64480  10.287   6.955   9.716  0.9408  0.5597 -1.0338
  468MOL0     C64481  10.287   6.895   9.847  0.6427 -0.5507  0.6455
  468MOL0     O64482  10.178   6.913   9.935 -0.5285 -0.2729  0.5885
  468MOL0     C64483  10.138   6.820  10.036  0.6395 -0.2892 -0.3538
  468MOL0     C64484   9.986   6.833  10.073  0.6900 -0.7251  0.1030
  468MOL0     C64485   9.891   6.793   9.962  1.3083 -0.6602 -0.3747
  468MOL0     C64486   9.748   6.786  10.017  0.4360  0.3958 -0.1937
  468MOL0     C64487   9.644   6.873   9.931  0.2842  0.5333 -0.3164
  468MOL0     C64488   9.642   7.026   9.963 -0.3595 -0.9233 -0.7856
  468MOL0     C64489   9.546   7.062  10.089 -0.6726  1.3149  0.4772
  468MOL0     C64490   9.393   7.050  10.056 -0.5810  0.1665 -0.4502
  468MOL0    Cl64491   9.309   6.950  10.189  0.0284 -0.1127 -0.3262
  468MOL0     C64492  10.402   6.835   9.884  0.1507  0.2598  0.3751
  468MOL0     C64493  10.513   6.813   9.799 -0.4879 -0.0479 -0.1341
  468MOL0     O64494  10.529   6.828   9.380 -0.8093 -0.3573 -1.2522
  468MOL0     C64495  10.733   6.928   9.242 -0.0704 -0.1324 -0.5229
  468MOL0     C64496  10.843   6.958   9.164 -0.3504  0.5319  0.2151
  468MOL0     N64497  11.404   7.009   8.830 -0.8375 -0.7109  0.9019
  468MOL0     N64498  11.325   7.051   8.734  0.0271  0.4094 -1.2811
  468MOL0     C64499  10.079   7.205   8.940 -0.4781  0.7521  0.9823
  468MOL0     C64500   9.945   7.183   8.967  0.9073  0.1946 -0.4555
  468MOL0     C64501   9.523   7.068   9.034 -0.2781  0.0775  0.5493
  468MOL0     C64502   9.426   7.141   9.118 -0.6338 -0.6208  0.7328
  468MOL0     C64503   9.291   7.105   9.125  0.1157 -0.3381 -0.1330
  468MOL0     C64504   9.246   7.003   9.039  0.7532 -0.8313 -0.0430
  468MOL0     O64505   9.113   6.972   9.063  0.8291  0.8912  0.4702
  468MOL0     C64506   9.074   6.836   9.055  0.6495  0.0902 -0.2035
  468MOL0     C64507   9.132   6.750   9.169  0.1387 -0.1259  1.2929
  468MOL0     C64508   9.120   6.594   9.137  0.1213 -0.1169 -0.4740
  468MOL0     C64509   8.981   6.542   9.176  1.5270 -0.6863 -1.6865
  468MOL0     C64510   8.945   6.406   9.132  0.5822  0.2971 -0.1051
  468MOL0     C64511   8.949   6.296   9.086  0.0765 -0.4742  0.5819
  468MOL0     C64512   9.345   6.933   8.962 -0.0538 -0.2557  0.9013
  468MOL0     C64513   9.479   6.971   8.953  0.3404 -0.3478  0.4934
  468MOL0     C64514   9.574   6.902   8.871  0.4634  0.2121  0.1666
  468MOL0     H64515   9.943   6.920   9.164 -1.5520 -1.2286 -0.5142
  468MOL0     H64516  10.200   6.952   9.134 -3.1541 -4.9388 -0.7445
  468MOL0     H64517  10.329   7.198   8.790  0.8095 -0.3516 -0.9039
  468MOL0     H64518  10.349   7.024   8.827 -3.1241  1.5444 -3.6778
  468MOL0     H64519  10.557   7.239   8.905 -1.9902  1.1262 -1.0267
  468MOL0     H64520  10.555   7.064   8.942 -0.9659 -0.4174  0.1410
  468MOL0     H64521  10.573   7.001   8.727  1.8254 -0.3912 -0.9626
  468MOL0     H64522  10.522   7.162   8.664  0.8680  1.4261 -0.0385
  468MOL0     H64523  10.734   7.271   8.701 -0.5221 -0.1531 -1.6554
  468MOL0     H64524  10.787   7.128   8.801 -0.2907  2.0653  0.5940
  468MOL0     H64525  10.708   7.130   8.504 -1.3092 -1.2062 -0.3699
  468MOL0     H64526  10.775   6.999   8.602  0.0271  0.5712  1.8445
  468MOL0     H64527  10.942   7.098   8.450  0.7178  0.1238  0.0194
  468MOL0     H64528  10.915   7.258   8.509 -0.3833 -0.7629 -3.0752
  468MOL0     H64529  10.978   7.173   8.738 -0.8855  0.3640 -1.3614
  468MOL0     H64530  11.112   7.214   8.629  2.2765 -2.5067  0.6984
  468MOL0     H64531  11.000   6.936   8.684  0.3390  1.5099  2.0824
  468MOL0     H64532  11.122   6.970   8.558  0.2006 -0.8061 -0.1657
  468MOL0     H64533  11.129   6.854   8.890  2.8593 -2.0360  3.0736
  468MOL0     H64534  11.473   6.887   9.068  0.1126 -1.1287 -0.0446
  468MOL0     H64535  11.427   6.744   8.982 -1.7860 -1.3432 -0.2172
  468MOL0     H64536  11.194   6.767   9.100  0.6255 -0.4093 -3.1359
  468MOL0     H64537  11.328   6.720   9.202 -2.8845  0.6204  2.0830
  468MOL0     H64538  11.212   6.882   9.329 -3.6325  0.2200 -2.2663
  468MOL0     H64539  11.375   6.942   9.278 -0.2926  3.5748 -1.7690
  468MOL0     H64540  11.205   7.113   9.294 -4.2929  1.5932 -0.7950
  468MOL0     H64541  11.272   7.090   9.126  1.9348  0.4437  1.4634
  468MOL0     H64542  11.066   7.009   9.421 -0.8234 -2.6097  3.0517
  468MOL0     H64543  10.880   6.859   9.632  1.9050 -0.4884 -0.4187
  468MOL0     H64544  10.796   7.018   9.646 -0.4289 -0.6126 -0.4724
  468MOL0     H64545  10.972   6.999   9.634 -0.3517 -0.2112  1.5429
  468MOL0     H64546  10.376   6.976   9.539 -3.3947  0.0481  0.6555
  468MOL0     H64547  10.193   6.987   9.674 -1.0463 -1.3068  1.6567
  468MOL0     H64548  10.162   6.714  10.024 -1.7135 -1.1633  1.6899
  468MOL0     H64549  10.195   6.841  10.128  0.5214 -0.8971 -0.1374
  468MOL0     H64550   9.969   6.787  10.170  1.3371 -0.6238  0.2705
  468MOL0     H64551   9.982   6.941  10.086 -0.1580 -0.6996 -0.3216
  468MOL0     H64552   9.925   6.699   9.917  2.7021 -0.8520  0.9841
  468MOL0     H64553   9.886   6.866   9.880  2.3706 -0.2233 -0.0662
  468MOL0     H64554   9.748   6.823  10.120  0.9646  0.9049 -0.3694
  468MOL0     H64555   9.716   6.681  10.016  1.4999  0.0541 -2.0538
  468MOL0     H64556   9.673   6.873   9.825 -0.0976 -0.5177 -0.4331
  468MOL0     H64557   9.546   6.826   9.946 -0.0032  1.6175  1.4098
  468MOL0     H64558   9.605   7.088   9.880  2.1283  2.0540  0.1183
  468MOL0     H64559   9.747   7.050   9.978 -0.0810 -0.8685 -2.6290
  468MOL0     H64560   9.583   7.151  10.141 -0.1438  1.3708  0.0154
  468MOL0     H64561   9.568   6.981  10.159  0.3381  0.8281 -0.3922
  468MOL0     H64562   9.388   6.989   9.965  2.4879 -3.3888  1.4846
  468MOL0     H64563   9.345   7.147  10.043 -1.5695 -0.3819 -0.9526
  468MOL0     H64564  10.401   6.811   9.990 -0.7973  5.2543  1.7464
  468MOL0     H64565  10.591   6.750   9.840 -2.1111 -2.6046 -0.7518
  468MOL0     H64566  10.645   6.910   9.181 -0.8809  1.6384  0.0454
  468MOL0     H64567  10.851   6.964   9.056  0.5566  0.3963  0.2627
  468MOL0     H64568  10.114   7.276   8.866 -0.9322 -0.4335 -0.4380
  468MOL0     H64569   9.883   7.255   8.916  0.6044  0.1137 -0.2020
  468MOL0     H64570   9.466   7.228   9.170 -3.1326 -0.4023  2.5037
  468MOL0     H64571   9.227   7.167   9.188  0.9696  1.7155 -1.1793
  468MOL0     H64572   8.967   6.820   9.065  1.1296 -1.9852  3.7709
  468MOL0     H64573   9.107   6.795   8.959  1.4262 -0.4349  0.2638
  468MOL0     H64574   9.091   6.776   9.266 -0.1427 -2.0785  1.7204
  468MOL0     H64575   9.240   6.770   9.162 -0.0764  3.1241  4.5174
  468MOL0     H64576   9.143   6.569   9.033 -2.2623 -3.2722 -0.4037
  468MOL0     H64577   9.186   6.533   9.199 -0.0232  0.9957  0.8031
  468MOL0     H64578   8.912   6.615   9.131 -0.9419 -0.3310  2.1856
  468MOL0     H64579   8.963   6.543   9.283  0.7406  2.2546 -1.7606
  468MOL0     H64580   8.942   6.197   9.046  1.9017  0.1362 -1.4390
  468MOL0     H64581   9.325   6.841   8.909  0.4697  0.0087  0.2248
  468MOL0     H64582   9.533   6.831   8.799  0.4937 -0.2611  0.6074
  468MOL0     H64583   9.640   6.971   8.818  1.7886 -1.4085 -0.3890
  468MOL0     H64584   9.642   6.842   8.933  2.0057 -0.1968 -1.8181
  469MOL0     O64585   8.030  10.991   9.887 -0.6856 -0.7590  0.0426
  469MOL0     C64586   8.040  11.078   9.975  0.9792  0.1469  0.2124
  469MOL0     O64587   8.162  11.125  10.036  0.5663 -0.1607 -0.9120
  469MOL0     C64588   8.274  11.049  10.018  0.6634 -0.0867 -0.4287
  469MOL0     C64589   8.341  10.986  10.129  0.0926  0.1784 -0.0403
  469MOL0     C64590   8.464  10.920  10.103 -0.6997  0.4435  0.2626
  469MOL0     C64591   8.523  10.914   9.974  0.6066  0.3575 -0.9007
  469MOL0     O64592   8.651  10.865   9.971  0.1691  0.2495  0.0734
  469MOL0     C64593   8.727  10.892   9.850  0.0484  0.5293  0.2455
  469MOL0     C64594   8.876  10.868   9.866  0.3177 -0.9883  0.2191
  469MOL0     C64595   8.905  10.725   9.862 -1.3282  0.0481 -0.3499
  469MOL0     C64596   9.057  10.706   9.898 -0.6120  0.0119 -0.0261
  469MOL0     C64597   9.088  10.571   9.964  0.3357 -0.2885  1.3440
  469MOL0     C64598   9.228  10.564  10.029  1.1076 -0.0131  0.3454
  469MOL0     C64599   9.324  10.598   9.917 -0.8786 -0.6628 -0.2767
  469MOL0     C64600   9.466  10.539   9.963  0.1030  0.2728  0.4196
  469MOL0     N64601   9.565  10.577   9.868 -0.3406  0.0576  0.4300
  469MOL0     C64602   9.633  10.697   9.856  0.9125 -1.0555 -0.3506
  469MOL0     C64603   9.701  10.687   9.740 -0.9236  0.4092 -0.2615
  469MOL0     C64604   9.810  10.779   9.684 -0.8350 -0.8378  0.2915
  469MOL0     C64605   9.903  10.832   9.798  0.5964  0.5227  0.3483
  469MOL0     C64606   9.996  10.723   9.848 -0.0933 -0.0027 -0.1791
  469MOL0     C64607  10.079  10.772   9.968  0.9063 -0.1000  0.4291
  469MOL0     O64608  10.114  10.653  10.042 -0.4982  0.3141 -0.3192
  469MOL0     C64609  10.215  10.670  10.133  0.6534  0.1895  1.5641
  469MOL0     C64610  10.256  10.555  10.202  0.1825  0.0458  0.8889
  469MOL0     C64611  10.360  10.556  10.291 -0.4937 -0.3849 -0.1065
  469MOL0     C64612  10.396  10.428  10.358  0.0358  0.5443 -0.1416
  469MOL0     C64613  10.433  10.674  10.304 -0.6020 -0.0716 -0.2094
  469MOL0     C64614  10.555  10.688  10.386 -0.8004  0.4975  0.2670
  469MOL0     O64615  10.653  10.780  10.358 -0.3331 -0.7137 -0.5178
  469MOL0     C64616  10.765  10.779  10.444 -0.1431  0.3478  0.1541
  469MOL0     C64617  10.769  10.875  10.545 -0.2105 -0.6264 -0.5258
  469MOL0     C64618  10.884  10.893  10.627 -0.2032  0.0670 -0.5661
  469MOL0     C64619  10.991  10.800  10.622 -0.6247 -0.2839  0.3376
  469MOL0     O64620  11.107  10.799  10.698 -0.3821  0.2493  0.1896
  469MOL0     C64621  11.106  10.891  10.808 -0.4795 -0.4758 -0.8531
  469MOL0     C64622  11.229  10.867  10.911 -0.3929  1.2042 -0.1744
  469MOL0     C64623  11.362  10.844  10.826 -0.0737 -0.2257 -0.2948
  469MOL0     C64624  11.498  10.854  10.920  0.8013  1.0907 -0.1841
  469MOL0     C64625  11.615  10.817  10.840 -0.2562  0.2623  1.2936
  469MOL0     C64626  11.741  10.808  10.923  0.1615 -0.7552  0.0938
  469MOL0     C64627  11.872  10.780  10.843 -0.1429 -0.7263  0.4357
  469MOL0     C64628  11.983  10.882  10.876  0.0458 -0.0058  0.0015
  469MOL0    Cl64629  11.970  11.034  10.793  0.0135  0.1997 -0.2911
  469MOL0     C64630  10.990  10.700  10.523 -0.1417 -0.2309 -0.2536
  469MOL0     C64631  10.878  10.692  10.441 -0.1671  0.5601 -0.2173
  469MOL0     O64632  10.545  10.626  10.497 -0.3411  0.8040  0.4119
  469MOL0     C64633  10.392  10.793  10.252  0.3758  0.8582  0.3239
  469MOL0     C64634  10.287  10.793  10.157  1.1238 -0.6358  0.4256
  469MOL0     N64635   9.690  10.555   9.685 -0.0585 -0.1853  0.2048
  469MOL0     N64636   9.613  10.492   9.765 -0.1702  0.2082  0.1233
  469MOL0     C64637   8.457  10.978   9.872 -0.1099  0.4576  0.0552
  469MOL0     C64638   8.337  11.046   9.893 -0.1427  0.6071  0.0735
  469MOL0     C64639   7.911  11.146  10.001 -0.0608  0.5382 -0.3378
  469MOL0     C64640   7.900  11.212  10.127 -0.7692  0.4875  0.3548
  469MOL0     C64641   7.787  11.282  10.172  0.7557  0.2121 -0.3273
  469MOL0     C64642   7.681  11.297  10.088  0.1323 -0.8084  0.3199
  469MOL0     O64643   7.583  11.383  10.120 -0.7352 -0.3770 -1.1558
  469MOL0     C64644   7.469  11.400  10.035  0.5392  1.0322 -1.0670
  469MOL0     C64645   7.374  11.510  10.085 -0.3615  0.2453  0.0061
  469MOL0     C64646   7.257  11.523   9.982 -1.1470 -0.5083  0.2026
  469MOL0     C64647   7.174  11.653  10.018  0.3848  0.5910 -1.3779
  469MOL0     C64648   7.250  11.776   9.991 -0.4703 -0.1244  0.1881
  469MOL0     C64649   7.305  11.881   9.972 -0.2752  0.4729 -0.3668
  469MOL0     C64650   7.687  11.235   9.959 -0.6991  0.3699 -0.0087
  469MOL0     C64651   7.796  11.158   9.912 -0.7533  0.1369  0.4252
  469MOL0     C64652   7.795  11.099   9.772 -0.2107 -0.1846 -0.5266
  469MOL0     H64653   8.292  10.987  10.227 -1.8882 -3.0339 -0.8397
  469MOL0     H64654   8.508  10.861  10.182 -0.3217  2.2860  1.4713
  469MOL0     H64655   8.724  10.998   9.824  2.7278  0.5533 -0.2784
  469MOL0     H64656   8.685  10.837   9.766  3.6984 -1.1523 -0.6824
  469MOL0     H64657   8.924  10.911   9.777 -0.0365  1.3838  1.0947
  469MOL0     H64658   8.910  10.914   9.959  0.5288  1.8651 -1.1454
  469MOL0     H64659   8.852  10.690   9.952 -0.6570  0.9944  0.4212
  469MOL0     H64660   8.881  10.666   9.773  1.7108 -1.0645 -0.5271
  469MOL0     H64661   9.125  10.717   9.813 -1.1490  0.6214 -0.3795
  469MOL0     H64662   9.089  10.773   9.978  2.4209  0.0066 -1.1230
  469MOL0     H64663   9.076  10.486   9.895 -2.4402 -0.4079  1.8643
  469MOL0     H64664   9.026  10.559  10.053  0.3733 -1.9014  1.1815
  469MOL0     H64665   9.229  10.627  10.118  2.0294 -2.0960  1.8903
  469MOL0     H64666   9.234  10.459  10.059 -1.2941 -1.1988 -2.7054
  469MOL0     H64667   9.322  10.706   9.896  1.5703 -0.0279  2.2059
  469MOL0     H64668   9.294  10.541   9.829  1.6250 -4.1840  0.9471
  469MOL0     H64669   9.485  10.566  10.067  0.1251  1.7546  0.0669
  469MOL0     H64670   9.463  10.430   9.956  2.5303  0.2356 -1.4376
  469MOL0     H64671   9.633  10.787   9.918  1.1054 -1.7906  0.7527
  469MOL0     H64672   9.754  10.856   9.631 -0.9550 -0.0177  1.5752
  469MOL0     H64673   9.875  10.718   9.621 -2.3118 -1.0509 -1.1065
  469MOL0     H64674   9.968  10.908   9.753 -1.2550  0.1900 -3.2411
  469MOL0     H64675   9.839  10.885   9.868  0.7166  0.8340  0.2244
  469MOL0     H64676   9.934  10.638   9.880 -0.9616  1.1978  1.4420
  469MOL0     H64677  10.063  10.684   9.772 -1.1648 -2.4254 -0.0036
  469MOL0     H64678  10.162  10.825   9.920  0.1195 -0.0856 -0.9792
  469MOL0     H64679  10.017  10.841  10.026  2.9113  2.7994 -0.6460
  469MOL0     H64680  10.189  10.470  10.198  0.2736  0.0096 -0.1242
  469MOL0     H64681  10.490  10.386  10.321 -1.2470 -2.7145 -0.0399
  469MOL0     H64682  10.321  10.352  10.338 -1.6904  1.8661  1.0352
  469MOL0     H64683  10.412  10.445  10.465 -0.2278 -1.4477  0.2484
  469MOL0     H64684  10.676  10.930  10.554  0.6183  1.0709 -1.9106
  469MOL0     H64685  10.868  10.967  10.704 -2.9661  0.2063 -1.1517
  469MOL0     H64686  11.098  10.992  10.767  3.6291 -0.1272 -1.2697
  469MOL0     H64687  11.012  10.869  10.860 -1.0677 -1.4089 -2.2618
  469MOL0     H64688  11.242  10.948  10.983 -1.1229  2.1358 -1.0521
  469MOL0     H64689  11.203  10.768  10.948  1.7867  0.1153 -1.3671
  469MOL0     H64690  11.368  10.926  10.754 -0.4849  2.0234  2.0888
  469MOL0     H64691  11.362  10.750  10.770  0.6655  0.2969 -1.1984
  469MOL0     H64692  11.489  10.776  10.996  2.4330 -0.4893 -1.5418
  469MOL0     H64693  11.490  10.948  10.976 -1.6516  0.0969  1.3175
  469MOL0     H64694  11.593  10.717  10.802 -0.6053  0.7381  0.2246
  469MOL0     H64695  11.614  10.886  10.756 -2.2751  1.2456  2.0513
  469MOL0     H64696  11.724  10.736  11.004  2.9080 -0.1162  1.3669
  469MOL0     H64697  11.756  10.899  10.983 -0.8765 -1.1021  0.9098
  469MOL0     H64698  11.851  10.776  10.736 -0.6297  1.2883  0.4183
  469MOL0     H64699  11.905  10.681  10.876  1.3904  0.5028  2.8673
  469MOL0     H64700  12.075  10.832  10.844 -1.4797 -1.6865 -2.1088
  469MOL0     H64701  11.986  10.899  10.984 -1.5273 -0.3724  0.1346
  469MOL0     H64702  11.071  10.632  10.499 -0.9210 -1.1355 -0.3751
  469MOL0     H64703  10.885  10.621  10.359 -0.4210  0.1988  0.0657
  469MOL0     H64704  10.451  10.884  10.269  0.9622  0.6478 -0.5220
  469MOL0     H64705  10.270  10.894  10.121  0.1955 -0.2040  1.9677
  469MOL0     H64706   8.505  10.986   9.774  0.2088 -1.8205 -0.0496
  469MOL0     H64707   8.275  11.083   9.811 -2.7049 -1.0545  1.1267
  469MOL0     H64708   7.987  11.204  10.192 -0.0006  1.3146 -0.5347
  469MOL0     H64709   7.777  11.334  10.267 -1.4049  2.5313 -1.7175
  469MOL0     H64710   7.507  11.424   9.936  1.0711 -1.3756 -1.4966
  469MOL0     H64711   7.421  11.302  10.028 -1.1128  1.8248 -1.3786
  469MOL0     H64712   7.421  11.609  10.087 -0.2693  0.2098  2.3740
  469MOL0     H64713   7.327  11.485  10.181 -1.1788  3.1311  0.4392
  469MOL0     H64714   7.293  11.536   9.880  2.0029 -2.1187  0.9736
  469MOL0     H64715   7.197  11.432   9.975 -0.8280 -0.6743 -0.4942
  469MOL0     H64716   7.153  11.660  10.125  1.3808  2.1887 -1.2490
  469MOL0     H64717   7.080  11.671   9.966 -0.2212 -0.5003 -0.7089
  469MOL0     H64718   7.372  11.962   9.951  1.7007 -0.3620  2.1652
  469MOL0     H64719   7.617  11.257   9.880 -1.4314 -0.7094  0.3137
  469MOL0     H64720   7.813  10.992   9.787  3.0706  0.6516  3.0392
  469MOL0     H64721   7.692  11.102   9.736 -0.1537  0.4393 -0.6501
  469MOL0     H64722   7.860  11.143   9.695  0.9194  2.5790  1.8388
  470MOL0     O64723   2.470   0.980   4.135  0.4193  0.5365  0.0718
  470MOL0     C64724   2.358   1.034   4.150 -1.0326 -0.0140 -0.7291
  470MOL0     O64725   2.343   1.162   4.185  0.2574  0.0880 -0.4054
  470MOL0     C64726   2.452   1.242   4.192 -0.3758 -0.3377 -0.2515
  470MOL0     C64727   2.542   1.233   4.293  0.8836 -0.4399  0.0617
  470MOL0     C64728   2.651   1.314   4.298 -0.6296 -0.5459  0.0269
  470MOL0     C64729   2.677   1.399   4.188  1.3486  0.4905 -0.1551
  470MOL0     O64730   2.802   1.452   4.174  0.1139 -0.0855  0.6226
  470MOL0     C64731   2.836   1.545   4.065 -0.0920 -0.3919  0.5239
  470MOL0     C64732   2.978   1.604   4.077 -0.4925  0.5763 -0.3142
  470MOL0     C64733   3.017   1.705   3.967 -0.3973  0.4200  0.5150
  470MOL0     C64734   3.110   1.814   4.022  1.5474 -0.2923 -0.7452
  470MOL0     C64735   3.143   1.920   3.911  0.0122  0.5849 -0.1326
  470MOL0     C64736   3.238   2.034   3.965  0.5924  0.2634 -1.0525
  470MOL0     C64737   3.230   2.176   3.917  0.0517 -0.1109 -0.1125
  470MOL0     C64738   3.241   2.181   3.768 -0.1018 -0.3323  0.1044
  470MOL0     N64739   3.319   2.297   3.723  0.2102 -0.5313  0.7427
  470MOL0     C64740   3.450   2.322   3.746  0.3018  0.0611 -0.4638
  470MOL0     C64741   3.485   2.439   3.688 -0.0498  0.3137 -0.2576
  470MOL0     C64742   3.622   2.497   3.665  0.1026  0.1208  0.2754
  470MOL0     C64743   3.691   2.532   3.794  0.5260 -0.2944  0.1449
  470MOL0     C64744   3.662   2.678   3.834 -0.8438 -0.1600 -0.1842
  470MOL0     C64745   3.750   2.719   3.955  0.2369 -0.1619  0.7614
  470MOL0     O64746   3.699   2.829   4.031 -0.8329  0.0527  0.5221
  470MOL0     C64747   3.787   2.879   4.115 -0.4396 -0.8658 -0.7572
  470MOL0     C64748   3.790   3.026   4.123 -0.3390 -0.5127  0.0509
  470MOL0     C64749   3.892   3.100   4.200  0.3514  0.2845 -0.9891
  470MOL0     C64750   3.889   3.246   4.182 -0.9346  0.4460 -0.1849
  470MOL0     C64751   3.978   3.020   4.287 -0.3576  0.1496  0.4044
  470MOL0     C64752   4.080   3.069   4.381 -0.2513 -0.1528  0.1673
  470MOL0     O64753   4.083   3.204   4.393  1.2618 -0.6221  0.1061
  470MOL0     C64754   4.162   3.259   4.489 -0.7914  0.1284 -0.6240
  470MOL0     C64755   4.263   3.346   4.446 -0.0357 -0.1159  0.7300
  470MOL0     C64756   4.347   3.407   4.539  0.0854 -0.4638  0.1663
  470MOL0     C64757   4.335   3.390   4.673  0.0820 -0.2372 -0.6546
  470MOL0     O64758   4.417   3.467   4.756  0.1111  0.2482 -0.3356
  470MOL0     C64759   4.556   3.417   4.750 -0.0288  0.4644  0.4355
  470MOL0     C64760   4.625   3.474   4.875  1.0458  1.0986 -0.9204
  470MOL0     C64761   4.773   3.447   4.889  1.3482  0.4197 -0.7633
  470MOL0     C64762   4.834   3.557   4.973 -0.4998  0.1147  0.7314
  470MOL0     C64763   4.995   3.554   4.975 -0.4530 -0.0490 -0.1575
  470MOL0     C64764   5.059   3.673   5.065 -0.6293  0.8828 -0.3831
  470MOL0     C64765   5.218   3.677   5.057  0.4432  0.7540 -0.0450
  470MOL0     C64766   5.269   3.707   5.195 -0.5020 -0.4418 -0.0019
  470MOL0    Cl64767   5.239   3.580   5.321 -0.0014  0.2251  0.2636
  470MOL0     C64768   4.234   3.307   4.712  0.5488 -0.3783  0.1980
  470MOL0     C64769   4.152   3.232   4.629 -0.0407 -0.3918  0.3772
  470MOL0     O64770   4.126   2.988   4.464  0.8919  0.7183  0.0914
  470MOL0     C64771   3.960   2.873   4.285 -0.5446 -0.5712  0.2170
  470MOL0     C64772   3.871   2.807   4.197 -0.5473 -0.5501  0.5303
  470MOL0     N64773   3.366   2.491   3.632 -0.3154  0.3294 -0.4470
  470MOL0     N64774   3.269   2.409   3.672 -0.3111 -0.0914 -0.0186
  470MOL0     C64775   2.584   1.416   4.082  0.1980  0.0993  0.5616
  470MOL0     C64776   2.462   1.345   4.095 -0.2558  1.0294 -0.1023
  470MOL0     C64777   2.246   0.945   4.155 -0.2495  0.1074 -0.1313
  470MOL0     C64778   2.268   0.817   4.211  0.1041 -0.2848 -0.3503
  470MOL0     C64779   2.160   0.735   4.246  1.3276 -0.0085  0.8077
  470MOL0     C64780   2.032   0.769   4.211 -0.4301  0.5708 -0.2152
  470MOL0     O64781   1.949   0.670   4.247 -0.5454 -0.6780  0.2498
  470MOL0     C64782   1.810   0.687   4.218 -0.3140  0.2175 -0.1905
  470MOL0     C64783   1.744   0.556   4.259 -0.1183  0.1652 -0.4999
  470MOL0     C64784   1.623   0.510   4.168 -1.0473  0.2147  0.0731
  470MOL0     C64785   1.510   0.604   4.174 -0.0497 -0.2238 -0.2699
  470MOL0     C64786   1.383   0.528   4.156  0.3361 -1.0295  0.5605
  470MOL0     C64787   1.279   0.466   4.136 -0.9407  0.3522  0.8468
  470MOL0     C64788   2.006   0.897   4.148  0.5537 -0.4784  0.2835
  470MOL0     C64789   2.107   0.986   4.122  0.8648  0.0552 -0.3673
  470MOL0     C64790   2.078   1.122   4.062  0.7535  0.2144 -0.5673
  470MOL0     H64791   2.519   1.163   4.371  1.7540 -0.1048  0.6426
  470MOL0     H64792   2.729   1.310   4.374  1.7293  2.2111 -2.0004
  470MOL0     H64793   2.757   1.620   4.056 -0.5682 -1.0611 -1.2993
  470MOL0     H64794   2.834   1.491   3.970 -3.4062  2.1393 -1.0337
  470MOL0     H64795   2.983   1.656   4.173  2.1754  1.5714 -0.9193
  470MOL0     H64796   3.048   1.520   4.086 -1.8053 -0.8185 -2.2114
  470MOL0     H64797   3.061   1.649   3.885 -2.6785 -0.6552 -0.0273
  470MOL0     H64798   2.934   1.744   3.909 -0.2416 -1.0651 -0.7400
  470MOL0     H64799   3.058   1.865   4.103  0.5840 -0.8737 -0.9893
  470MOL0     H64800   3.190   1.761   4.076 -0.4885 -1.4258  1.3262
  470MOL0     H64801   3.051   1.962   3.870  0.0811  1.4309  0.5494
  470MOL0     H64802   3.205   1.869   3.836 -2.2733  0.1248 -1.8127
  470MOL0     H64803   3.211   2.043   4.070  0.3323  3.2708 -1.3034
  470MOL0     H64804   3.341   1.999   3.956  1.1270  1.8382 -1.2310
  470MOL0     H64805   3.316   2.227   3.960  3.2138 -2.8817 -2.6479
  470MOL0     H64806   3.142   2.229   3.956  0.9087  0.8793  0.5131
  470MOL0     H64807   3.286   2.086   3.736 -2.9948 -2.2337  1.2157
  470MOL0     H64808   3.145   2.185   3.715  1.6802  3.0038 -3.4255
  470MOL0     H64809   3.516   2.246   3.785 -2.8006 -0.8907  3.5740
  470MOL0     H64810   3.612   2.583   3.598 -1.8194  1.1607  1.7969
  470MOL0     H64811   3.690   2.424   3.618  0.5177 -0.4932  1.7788
  470MOL0     H64812   3.654   2.481   3.884  0.7209  1.0061  0.9962
  470MOL0     H64813   3.796   2.510   3.776  0.1134  0.2526 -3.5376
  470MOL0     H64814   3.696   2.738   3.749 -0.3100  0.6641  0.5836
  470MOL0     H64815   3.555   2.698   3.844 -0.9148  0.8992 -2.3243
  470MOL0     H64816   3.769   2.629   4.013  1.2013 -0.2821  0.2629
  470MOL0     H64817   3.840   2.749   3.901  0.7986 -1.1598  1.1301
  470MOL0     H64818   3.724   3.080   4.056  0.8422  0.9951  0.0416
  470MOL0     H64819   3.982   3.284   4.138  0.9490  2.5177  4.9000
  470MOL0     H64820   3.880   3.289   4.282 -0.7879 -0.9550  0.4384
  470MOL0     H64821   3.805   3.278   4.119 -0.1716  1.8520 -0.5311
  470MOL0     H64822   4.286   3.365   4.342  2.3496 -0.4388  1.1393
  470MOL0     H64823   4.414   3.482   4.498  4.1585 -3.1800  1.2129
  470MOL0     H64824   4.566   3.308   4.754 -0.8620  0.2324 -2.0149
  470MOL0     H64825   4.597   3.448   4.653  1.0630 -0.5173  0.5613
  470MOL0     H64826   4.593   3.579   4.874 -3.1647  0.0573  1.2110
  470MOL0     H64827   4.573   3.430   4.960  1.9840  2.1412  0.2305
  470MOL0     H64828   4.820   3.459   4.791  2.8948  0.7220 -0.0009
  470MOL0     H64829   4.792   3.350   4.937 -1.9889 -0.3176 -0.6295
  470MOL0     H64830   4.804   3.531   5.075  0.8039 -3.4287  0.3618
  470MOL0     H64831   4.794   3.654   4.941 -2.0700 -1.0618 -1.0616
  470MOL0     H64832   5.026   3.454   5.006 -1.8977 -0.5091 -0.0927
  470MOL0     H64833   5.028   3.573   4.872  0.1066  0.0707  0.0456
  470MOL0     H64834   5.023   3.660   5.167 -0.7556 -1.3772 -0.6587
  470MOL0     H64835   5.023   3.770   5.030 -3.6213 -0.6111 -1.8860
  470MOL0     H64836   5.255   3.752   4.987  0.5005 -0.7220 -1.6635
  470MOL0     H64837   5.267   3.585   5.025  0.0961  0.9874 -1.2735
  470MOL0     H64838   5.211   3.798   5.215  0.6309  0.9716 -2.6782
  470MOL0     H64839   5.376   3.729   5.194 -0.8114  1.1550 -0.1826
  470MOL0     H64840   4.245   3.291   4.819 -0.8825 -2.3544  0.0956
  470MOL0     H64841   4.075   3.168   4.671 -1.7724  0.1721 -1.7404
  470MOL0     H64842   4.021   2.812   4.350  1.3522  0.7307 -0.2839
  470MOL0     H64843   3.869   2.698   4.195 -0.6866 -0.5439 -0.2961
  470MOL0     H64844   2.588   1.482   3.996 -3.2674  0.9541  0.9276
  470MOL0     H64845   2.384   1.337   4.020 -2.2268 -1.8510  2.0397
  470MOL0     H64846   2.367   0.783   4.239 -0.3694 -1.6546 -0.2981
  470MOL0     H64847   2.179   0.639   4.292  0.2019 -2.1808 -2.8667
  470MOL0     H64848   1.779   0.768   4.285 -0.5276 -1.3381  1.6829
  470MOL0     H64849   1.812   0.708   4.110  2.1787 -0.9498 -0.4542
  470MOL0     H64850   1.714   0.566   4.364  1.8488  1.5496  0.0102
  470MOL0     H64851   1.813   0.471   4.264 -2.2720 -1.6107  1.6768
  470MOL0     H64852   1.659   0.498   4.065  0.3381 -2.1060  0.7352
  470MOL0     H64853   1.600   0.408   4.201  1.5774 -0.7981 -0.9079
  470MOL0     H64854   1.515   0.674   4.089 -1.5362  2.2793  1.5645
  470MOL0     H64855   1.512   0.667   4.263  0.0592 -2.0724  1.0871
  470MOL0     H64856   1.200   0.415   4.084 -0.3425  1.1815 -0.9970
  470MOL0     H64857   1.902   0.923   4.132  0.3636 -0.4027  1.5161
  470MOL0     H64858   2.140   1.138   3.973 -0.5418  1.1069 -1.3379
  470MOL0     H64859   1.975   1.135   4.027  2.3005  2.5198 -5.2037
  470MOL0     H64860   2.080   1.208   4.129 -2.9901 -0.2375  0.3306
  471MOL0     O64861   5.234   7.865  10.734 -0.2993  0.1295  0.3897
  471MOL0     C64862   5.219   7.954  10.811 -0.0177 -0.5155 -0.0365
  471MOL0     O64863   5.317   8.044  10.852 -0.7232  0.0934  0.4051
  471MOL0     C64864   5.447   8.018  10.838 -0.0801 -0.4244 -0.6664
  471MOL0     C64865   5.513   7.894  10.867  0.5209  0.4705 -0.0255
  471MOL0     C64866   5.660   7.881  10.848 -0.2506 -0.6425 -0.0082
  471MOL0     C64867   5.737   7.986  10.784  0.3307 -0.3898  0.1138
  471MOL0     O64868   5.873   7.971  10.765 -0.0390 -0.3999  0.2667
  471MOL0     C64869   5.958   8.077  10.709  0.5984 -0.6925  0.6412
  471MOL0     C64870   6.102   8.026  10.678  0.4739 -0.4492 -0.8918
  471MOL0     C64871   6.116   7.881  10.619  0.0340 -0.1797 -0.4615
  471MOL0     C64872   6.078   7.867  10.476  0.5775  0.0401 -0.5522
  471MOL0     C64873   6.113   7.728  10.423 -0.5183  0.4181  1.0571
  471MOL0     C64874   6.081   7.711  10.273 -0.3743  0.3249 -0.6066
  471MOL0     C64875   6.112   7.571  10.221  1.1777 -0.3429 -0.9353
  471MOL0     C64876   6.256   7.523  10.240  0.1790  0.4227 -0.2633
  471MOL0     N64877   6.352   7.598  10.159  1.6304 -0.1537 -0.2496
  471MOL0     C64878   6.366   7.604  10.021  0.2786  0.0201 -0.0437
  471MOL0     C64879   6.475   7.677  10.005 -0.5674  0.6051  0.8254
  471MOL0     C64880   6.538   7.697   9.869 -0.1594  0.0547  0.3029
  471MOL0     C64881   6.697   7.651   9.857  0.2869 -0.1717  0.0353
  471MOL0     C64882   6.791   7.678   9.983 -0.4606  0.0965  1.0071
  471MOL0     C64883   6.938   7.667   9.944 -0.2203 -0.1444  0.4496
  471MOL0     O64884   6.960   7.534   9.874  0.7312 -0.1597  0.1180
  471MOL0     C64885   7.092   7.501   9.841  0.0366 -0.5167  0.1925
  471MOL0     C64886   7.205   7.574   9.864 -1.3627 -0.6134  0.3331
  471MOL0     C64887   7.337   7.535   9.825  0.1025  0.2191 -0.0321
  471MOL0     C64888   7.448   7.623   9.854 -0.5943  0.2368 -0.2064
  471MOL0     C64889   7.353   7.407   9.762 -0.0043 -0.4819  0.5367
  471MOL0     C64890   7.489   7.353   9.723  0.1850 -0.4816 -0.5192
  471MOL0     O64891   7.480   7.216   9.702 -0.1032 -0.3111  0.1511
  471MOL0     C64892   7.604   7.148   9.694  0.8977  0.1127  0.0876
  471MOL0     C64893   7.664   7.147   9.563 -0.2392  0.1254  0.0400
  471MOL0     C64894   7.782   7.088   9.547 -0.2422 -0.5793 -0.1806
  471MOL0     C64895   7.869   7.056   9.658  1.0468 -0.1344 -0.6382
  471MOL0     O64896   7.998   7.016   9.638  0.7727  0.3072 -0.3779
  471MOL0     C64897   8.085   7.032   9.745 -0.0628  0.1636  0.3263
  471MOL0     C64898   8.226   7.052   9.684  0.4413 -0.2071 -0.3702
  471MOL0     C64899   8.227   7.163   9.580  0.0344 -0.1886  1.0763
  471MOL0     C64900   8.372   7.223   9.574 -0.4953  0.1098 -0.2045
  471MOL0     C64901   8.371   7.345   9.482 -0.5744 -0.0268 -0.0004
  471MOL0     C64902   8.313   7.473   9.550 -0.5870 -0.0966 -0.6070
  471MOL0     C64903   8.430   7.551   9.619  0.2983  0.5229 -0.3618
  471MOL0     C64904   8.378   7.613   9.751 -0.1163  0.3794  0.2382
  471MOL0    Cl64905   8.376   7.480   9.868 -0.0096  0.5013 -0.1508
  471MOL0     C64906   7.807   7.068   9.788 -0.8381 -0.0791 -0.0557
  471MOL0     C64907   7.684   7.116   9.809  1.0535  0.0783  0.3568
  471MOL0     O64908   7.585   7.427   9.713  0.1831  0.2140 -0.5098
  471MOL0     C64909   7.234   7.327   9.759 -0.4431 -0.3569  0.4354
  471MOL0     C64910   7.108   7.374   9.790  0.1661  0.4140 -0.4289
  471MOL0     N64911   6.522   7.730  10.119 -0.3968  0.1030  0.4538
  471MOL0     N64912   6.436   7.692  10.211  1.0976 -0.3392 -0.0400
  471MOL0     C64913   5.667   8.100  10.755  0.0097  1.1408  0.6528
  471MOL0     C64914   5.535   8.121  10.789  0.5679 -0.2955  0.1585
  471MOL0     C64915   5.084   7.972  10.865  0.3105 -0.2519  0.8815
  471MOL0     C64916   4.986   7.873  10.837 -0.3176 -0.2495 -0.3147
  471MOL0     C64917   4.862   7.872  10.890  0.4037  0.6075  0.6858
  471MOL0     C64918   4.806   7.981  10.954 -0.8294 -0.8260 -0.0392
  471MOL0     O64919   4.674   7.974  10.994  0.2206  0.5051  0.8623
  471MOL0     C64920   4.612   8.063  11.091 -0.0974  0.6166  0.1833
  471MOL0     C64921   4.614   8.000  11.230 -0.5485  0.7885  0.7123
  471MOL0     C64922   4.547   8.083  11.340 -0.3744  0.5837 -0.3440
  471MOL0     C64923   4.496   7.998  11.457 -0.4796  0.4073 -0.7640
  471MOL0     C64924   4.616   7.939  11.530  0.7739 -0.5536  0.5070
  471MOL0     C64925   4.721   7.911  11.584  0.1525 -0.6190  0.9085
  471MOL0     C64926   4.894   8.089  10.980 -0.7666  0.4733 -0.0273
  471MOL0     C64927   5.032   8.085  10.941  0.3616  0.4351 -1.1413
  471MOL0     C64928   5.124   8.194  10.995 -0.3409 -0.3095  0.0292
  471MOL0     H64929   5.453   7.812  10.905 -1.3298  1.3453 -0.8926
  471MOL0     H64930   5.715   7.791  10.874  3.8072  1.5209 -0.1903
  471MOL0     H64931   5.968   8.155  10.785  1.3583  0.3196 -0.4490
  471MOL0     H64932   5.924   8.121  10.614 -0.4191 -1.6816  0.5297
  471MOL0     H64933   6.148   8.098  10.610  1.6179  0.0260  0.3342
  471MOL0     H64934   6.156   8.027  10.773 -2.2064  1.4648  0.7360
  471MOL0     H64935   6.221   7.854  10.628  0.4932  1.8927  0.8698
  471MOL0     H64936   6.059   7.812  10.682  0.0235  0.9210  0.7597
  471MOL0     H64937   5.970   7.880  10.458  0.3994 -0.2509  0.2869
  471MOL0     H64938   6.139   7.944  10.428  0.8472  1.1608  1.4893
  471MOL0     H64939   6.053   7.648  10.468 -0.7540 -0.5675 -0.8851
  471MOL0     H64940   6.215   7.706  10.453 -0.3348 -0.2315  0.0111
  471MOL0     H64941   5.976   7.735  10.254 -1.0397  1.4287  3.3992
  471MOL0     H64942   6.136   7.788  10.218 -0.2729  2.5320  2.3228
  471MOL0     H64943   6.089   7.560  10.115  1.7236 -3.3473 -0.8175
  471MOL0     H64944   6.059   7.497  10.282 -0.8818 -0.0970 -2.3207
  471MOL0     H64945   6.284   7.524  10.346  4.0859  2.0230 -1.1382
  471MOL0     H64946   6.277   7.420  10.210  1.9053  0.7298 -0.1934
  471MOL0     H64947   6.302   7.555   9.949  0.3269 -0.5443  0.2884
  471MOL0     H64948   6.533   7.804   9.849  2.6452  0.5446  1.7346
  471MOL0     H64949   6.480   7.641   9.795 -1.5125 -2.1532  2.8367
  471MOL0     H64950   6.694   7.542   9.845 -1.4936 -0.2777  1.0144
  471MOL0     H64951   6.733   7.694   9.763  0.5520  1.6739  0.9438
  471MOL0     H64952   6.780   7.777  10.030 -1.9128  0.4408 -0.0111
  471MOL0     H64953   6.774   7.612  10.069 -0.2884 -1.0689  0.1666
  471MOL0     H64954   6.971   7.735   9.865  2.0278 -0.9168  0.6389
  471MOL0     H64955   7.003   7.685  10.031  1.0172 -1.0885 -0.2512
  471MOL0     H64956   7.199   7.669   9.916  0.1651 -0.4975  0.3422
  471MOL0     H64957   7.518   7.576   9.923 -2.1680 -1.8616  0.0659
  471MOL0     H64958   7.416   7.720   9.894 -0.2520  0.4481 -0.4351
  471MOL0     H64959   7.505   7.641   9.762  0.4829 -2.0746 -0.0600
  471MOL0     H64960   7.612   7.195   9.481  1.7140  2.5956  0.1005
  471MOL0     H64961   7.840   7.081   9.456  2.0468  3.0733  0.7626
  471MOL0     H64962   8.062   7.122   9.803  0.6136  0.2648  0.4452
  471MOL0     H64963   8.086   6.951   9.819  3.6750 -0.6567 -0.4024
  471MOL0     H64964   8.285   7.080   9.771 -0.4496 -1.0295  0.5400
  471MOL0     H64965   8.266   6.957   9.647  1.5318  0.1188 -0.0479
  471MOL0     H64966   8.166   7.250   9.608 -1.4443 -0.9542  0.3351
  471MOL0     H64967   8.204   7.142   9.476  1.9905 -0.5589  0.6839
  471MOL0     H64968   8.447   7.151   9.541 -0.5991  0.2969 -0.8698
  471MOL0     H64969   8.396   7.257   9.676  0.6228  0.0257 -0.4285
  471MOL0     H64970   8.474   7.372   9.455 -0.0522 -4.0434 -3.0531
  471MOL0     H64971   8.309   7.314   9.397  0.2635 -1.7603 -0.0131
  471MOL0     H64972   8.238   7.455   9.628 -0.4565  1.2921 -0.1296
  471MOL0     H64973   8.253   7.531   9.480 -1.2230 -0.5357 -0.4379
  471MOL0     H64974   8.468   7.622   9.545  2.5496 -2.5850 -2.4526
  471MOL0     H64975   8.513   7.491   9.659  1.8028  2.6728 -0.1263
  471MOL0     H64976   8.276   7.653   9.744 -0.2731  0.7231  3.3136
  471MOL0     H64977   8.451   7.685   9.788  0.3399  0.0206  0.0460
  471MOL0     H64978   7.867   7.044   9.875 -1.6467 -0.7909  0.3269
  471MOL0     H64979   7.628   7.127   9.902 -0.1318  2.0025 -0.5295
  471MOL0     H64980   7.240   7.227   9.719  0.8831 -0.0903 -0.1042
  471MOL0     H64981   7.036   7.294   9.777  1.2688 -0.6313 -0.3152
  471MOL0     H64982   5.732   8.183  10.728  0.9668  0.1769 -0.0553
  471MOL0     H64983   5.488   8.218  10.776 -1.1391 -1.0693  0.2769
  471MOL0     H64984   5.024   7.786  10.784 -1.2776  2.4592 -6.3158
  471MOL0     H64985   4.802   7.786  10.861  2.9870 -0.3435 -2.4393
  471MOL0     H64986   4.664   8.160  11.091  2.1911 -0.5551  0.3873
  471MOL0     H64987   4.509   8.071  11.057  0.5928  1.3505 -1.8892
  471MOL0     H64988   4.717   7.978  11.259 -0.9223  2.0743  3.2764
  471MOL0     H64989   4.559   7.907  11.216 -3.0774  2.2307  0.3393
  471MOL0     H64990   4.610   8.153  11.395  1.0216  1.2290 -2.6309
  471MOL0     H64991   4.470   8.149  11.302 -1.4104  1.2303  2.6183
  471MOL0     H64992   4.420   7.921  11.440 -1.4274  0.6115  2.0245
  471MOL0     H64993   4.449   8.054  11.538 -2.4397 -2.2704  0.1215
  471MOL0     H64994   4.802   7.877  11.647 -0.5571 -1.0678  1.6010
  471MOL0     H64995   4.859   8.181  11.026 -1.8148 -0.6971  1.6453
  471MOL0     H64996   5.178   8.256  10.923  0.4467 -0.2423  0.6561
  471MOL0     H64997   5.077   8.273  11.053  1.6856  0.6760  0.4295
  471MOL0     H64998   5.207   8.147  11.049  0.5291  1.0722 -0.0590
  472MOL0     O64999   6.837   8.534   6.922 -0.2084 -0.6614 -0.6845
  472MOL0     C65000   6.883   8.421   6.916  0.7836  0.2430 -0.4035
  472MOL0     O65001   6.808   8.306   6.924  0.3526 -0.2730  0.1630
  472MOL0     C65002   6.667   8.316   6.926 -0.8281  0.2607 -0.2639
  472MOL0     C65003   6.608   8.344   6.803  0.2647 -1.2406  0.5041
  472MOL0     C65004   6.469   8.358   6.807 -0.4537 -0.3415 -0.1232
  472MOL0     C65005   6.395   8.333   6.927 -0.4745  0.0678 -0.4096
  472MOL0     O65006   6.258   8.353   6.932  0.2341  0.2477  0.6390
  472MOL0     C65007   6.184   8.368   7.048  0.3407  0.1515  0.0654
  472MOL0     C65008   6.215   8.501   7.126 -0.4270  0.0185  0.1219
  472MOL0     C65009   6.237   8.617   7.030  0.5563  0.3133  0.7230
  472MOL0     C65010   6.241   8.749   7.095 -0.3179 -0.8536  0.2248
  472MOL0     C65011   6.384   8.772   7.161  0.4734  0.7970 -0.4198
  472MOL0     C65012   6.512   8.747   7.069  0.7626 -0.0187 -0.8487
  472MOL0     C65013   6.532   8.862   6.976 -0.0345  0.1745 -0.1453
  472MOL0     C65014   6.641   8.825   6.870 -0.5626  0.5251  0.0095
  472MOL0     N65015   6.698   8.932   6.782 -0.5325 -0.2798 -0.3209
  472MOL0     C65016   6.772   9.038   6.824  0.1560 -0.1257  0.8904
  472MOL0     C65017   6.785   9.114   6.718  0.0996 -0.7028 -0.0256
  472MOL0     C65018   6.850   9.250   6.727  1.1333  0.3821  0.7802
  472MOL0     C65019   6.955   9.264   6.620 -0.1033 -0.2168  0.1172
  472MOL0     C65020   7.080   9.185   6.678 -0.0752  1.1961  0.3826
  472MOL0     C65021   7.191   9.179   6.573 -1.1591 -0.1497 -0.2735
  472MOL0     O65022   7.294   9.090   6.608 -0.3234  0.7590 -0.1192
  472MOL0     C65023   7.396   9.051   6.526  0.2359  0.1651 -0.0479
  472MOL0     C65024   7.405   9.113   6.397  0.3775 -0.5656 -0.3827
  472MOL0     C65025   7.504   9.075   6.314  0.4238 -0.5746  0.7128
  472MOL0     C65026   7.497   9.135   6.178 -0.1738  0.0184 -0.3103
  472MOL0     C65027   7.613   8.988   6.362  0.1536  0.0371 -0.0206
  472MOL0     C65028   7.733   8.945   6.286 -0.6715 -0.5726  0.6756
  472MOL0     O65029   7.823   8.885   6.353 -0.3178  0.7521  0.5508
  472MOL0     C65030   7.955   8.879   6.302 -0.0996  0.1790  0.6761
  472MOL0     C65031   8.033   8.978   6.251 -0.2697 -0.0208 -0.4220
  472MOL0     C65032   8.149   8.962   6.184  0.7189 -0.2537 -0.2203
  472MOL0     C65033   8.185   8.833   6.144  0.4670 -0.1273 -1.0517
  472MOL0     O65034   8.285   8.828   6.055  0.2807  0.6290  0.1044
  472MOL0     C65035   8.333   8.703   6.004  0.5595 -0.3136 -0.0970
  472MOL0     C65036   8.455   8.658   6.086  0.5804 -0.5581 -0.7572
  472MOL0     C65037   8.554   8.559   6.038 -0.2431  0.0931  0.4916
  472MOL0     C65038   8.668   8.643   5.974  0.2801  1.0679 -0.0044
  472MOL0     C65039   8.780   8.548   5.934 -0.4343 -0.8298  0.2858
  472MOL0     C65040   8.870   8.602   5.826 -0.2623 -0.6101  0.0732
  472MOL0     C65041   8.955   8.726   5.863 -0.6527  0.3698  0.0233
  472MOL0     C65042   9.004   8.786   5.735  0.3372 -0.4948 -0.3868
  472MOL0    Cl65043   9.158   8.881   5.752 -0.0670 -0.2132 -0.1915
  472MOL0     C65044   8.121   8.721   6.215 -0.4054 -0.5304  0.3548
  472MOL0     C65045   8.006   8.746   6.291 -0.0824 -0.2174 -1.0574
  472MOL0     O65046   7.734   8.962   6.159 -0.0650 -0.3315 -0.0973
  472MOL0     C65047   7.596   8.929   6.486 -0.2825  0.6893  0.1750
  472MOL0     C65048   7.487   8.959   6.564 -0.3537 -0.6508 -0.2176
  472MOL0     N65049   6.734   9.052   6.607  0.2265  0.3419  0.0672
  472MOL0     N65050   6.680   8.938   6.646 -0.8433 -0.2173 -0.0888
  472MOL0     C65051   6.469   8.299   7.040  0.8802 -0.0977  1.2049
  472MOL0     C65052   6.605   8.288   7.045 -0.3470 -0.3326 -0.2028
  472MOL0     C65053   7.034   8.397   6.908 -1.3677  0.1196 -0.6811
  472MOL0     C65054   7.079   8.272   6.960  0.9414 -1.0646  0.0420
  472MOL0     C65055   7.212   8.239   6.956 -0.1173  0.1892 -0.6072
  472MOL0     C65056   7.309   8.317   6.892  0.9425 -1.0604 -0.1837
  472MOL0     O65057   7.445   8.285   6.877 -0.5959  0.0173 -0.5455
  472MOL0     C65058   7.502   8.166   6.926  0.4664  1.5133 -0.2243
  472MOL0     C65059   7.516   8.179   7.080 -0.5009  0.0808 -0.1364
  472MOL0     C65060   7.641   8.107   7.142  0.4504 -0.2123 -0.1250
  472MOL0     C65061   7.779   8.178   7.112 -0.1036  0.5586 -0.1733
  472MOL0     C65062   7.801   8.307   7.184  0.5160  0.8569 -0.5208
  472MOL0     C65063   7.817   8.411   7.237  0.4454  0.3920  0.0257
  472MOL0     C65064   7.258   8.441   6.829 -0.3823 -0.2861 -0.3434
  472MOL0     C65065   7.130   8.482   6.847 -0.2391  0.0856  0.2200
  472MOL0     C65066   7.097   8.615   6.791  0.2569  0.1777 -0.2405
  472MOL0     H65067   6.652   8.378   6.710  0.6038  2.0248  1.7186
  472MOL0     H65068   6.424   8.382   6.711  0.1514 -1.4119 -0.7012
  472MOL0     H65069   6.184   8.281   7.114  1.6833 -1.3077 -1.7532
  472MOL0     H65070   6.088   8.383   6.999  0.7493  0.4536 -0.6631
  472MOL0     H65071   6.133   8.517   7.196 -1.6595  0.5579 -1.3686
  472MOL0     H65072   6.304   8.476   7.184  1.1365 -1.7087 -2.7577
  472MOL0     H65073   6.319   8.583   6.966  1.6696 -1.5078  2.9268
  472MOL0     H65074   6.147   8.630   6.969  0.5159  1.8321  1.0596
  472MOL0     H65075   6.220   8.822   7.016  0.5974  2.3804  2.7834
  472MOL0     H65076   6.166   8.752   7.173  0.6340  2.8223  1.1807
  472MOL0     H65077   6.384   8.719   7.257 -1.0921  1.1046 -0.2223
  472MOL0     H65078   6.377   8.877   7.193 -1.4626 -0.3836  3.8688
  472MOL0     H65079   6.602   8.746   7.131  0.4424  0.5964 -0.3706
  472MOL0     H65080   6.510   8.653   7.012 -1.5583  0.4211 -1.5973
  472MOL0     H65081   6.558   8.955   7.027 -0.1232 -0.7309  1.6274
  472MOL0     H65082   6.446   8.884   6.911  0.1375  3.2586  0.4961
  472MOL0     H65083   6.732   8.785   6.916 -0.6109  1.9760  1.4614
  472MOL0     H65084   6.599   8.749   6.804  0.7170 -0.7885  0.6624
  472MOL0     H65085   6.793   9.064   6.927  0.0222 -0.8330  1.1038
  472MOL0     H65086   6.895   9.270   6.825 -0.1481 -0.0966  1.4821
  472MOL0     H65087   6.772   9.325   6.716  1.3851  0.3642 -1.5894
  472MOL0     H65088   6.914   9.226   6.526  0.0527  1.1333 -0.5202
  472MOL0     H65089   6.964   9.370   6.597 -3.7654  0.7605  2.3696
  472MOL0     H65090   7.108   9.232   6.773 -0.0711 -0.6055  1.3082
  472MOL0     H65091   7.054   9.082   6.704 -1.5117  1.1979 -0.8948
  472MOL0     H65092   7.147   9.148   6.478  2.0918  1.5375 -2.5017
  472MOL0     H65093   7.242   9.274   6.552  4.3293 -2.0999  2.2864
  472MOL0     H65094   7.342   9.192   6.359  0.0323 -0.0817  1.1227
  472MOL0     H65095   7.546   9.232   6.159 -1.6878  0.4969 -2.1031
  472MOL0     H65096   7.398   9.152   6.135 -0.2335 -2.3014 -1.2474
  472MOL0     H65097   7.533   9.063   6.104 -0.3552 -0.7539  0.3390
  472MOL0     H65098   8.001   9.081   6.268 -2.0255 -0.6880  0.5972
  472MOL0     H65099   8.202   9.047   6.141 -0.1949  0.9561  0.9560
  472MOL0     H65100   8.259   8.622   6.014  0.3052 -0.5022 -2.7847
  472MOL0     H65101   8.335   8.707   5.895  1.2689 -3.9195 -0.3629
  472MOL0     H65102   8.511   8.751   6.103  0.9301 -0.3475 -2.8559
  472MOL0     H65103   8.421   8.617   6.182 -0.5738  0.8079 -0.5393
  472MOL0     H65104   8.511   8.482   5.973 -1.5946  1.0240  0.2401
  472MOL0     H65105   8.593   8.512   6.129  0.8454 -0.2641 -0.1411
  472MOL0     H65106   8.717   8.707   6.048  2.5616  1.4402 -1.7276
  472MOL0     H65107   8.627   8.696   5.888 -0.8871  0.0666 -0.0993
  472MOL0     H65108   8.841   8.518   6.020 -1.1982 -2.1599  0.3854
  472MOL0     H65109   8.730   8.459   5.895 -0.6117 -0.7866  0.4161
  472MOL0     H65110   8.805   8.627   5.741  0.4553  2.1154  0.2501
  472MOL0     H65111   8.939   8.526   5.786  0.4183  0.3776 -0.6847
  472MOL0     H65112   9.039   8.679   5.914 -0.7024  0.3560  0.0933
  472MOL0     H65113   8.898   8.799   5.922 -0.8683 -1.4914  2.2614
  472MOL0     H65114   8.926   8.852   5.694  1.8861  0.2312 -2.3277
  472MOL0     H65115   9.024   8.705   5.665 -1.1549 -0.2744 -1.1132
  472MOL0     H65116   8.161   8.621   6.196 -1.6134 -0.9758  0.0888
  472MOL0     H65117   7.961   8.656   6.333 -0.5353  1.2765  1.9012
  472MOL0     H65118   7.677   8.872   6.531  0.4729  0.7289 -1.0605
  472MOL0     H65119   7.481   8.912   6.661 -2.8302 -3.1441 -1.4252
  472MOL0     H65120   6.415   8.268   7.129  0.6254 -2.1740  0.3696
  472MOL0     H65121   6.670   8.251   7.123  0.4577  1.6984  0.1488
  472MOL0     H65122   7.000   8.216   7.008  0.7817 -0.3792  0.6034
  472MOL0     H65123   7.238   8.142   6.998  3.3833  0.3418 -2.0784
  472MOL0     H65124   7.433   8.082   6.913  1.3373  0.8182 -0.5444
  472MOL0     H65125   7.598   8.144   6.877 -0.2246 -3.8089  0.1481
  472MOL0     H65126   7.432   8.143   7.141 -1.8567 -0.4926 -2.2222
  472MOL0     H65127   7.518   8.281   7.120 -1.8578 -0.4799  1.5097
  472MOL0     H65128   7.620   8.111   7.249  1.0070  4.6983  0.0484
  472MOL0     H65129   7.644   8.002   7.110  1.5417 -0.6914  1.4226
  472MOL0     H65130   7.785   8.204   7.006  0.7853 -0.2778 -0.3432
  472MOL0     H65131   7.862   8.113   7.141 -0.5380  0.7860  1.7675
  472MOL0     H65132   7.830   8.507   7.283  0.7746 -0.1659  1.1341
  472MOL0     H65133   7.320   8.498   6.760  0.1157  0.1515  0.4600
  472MOL0     H65134   7.096   8.610   6.682 -1.2211 -0.1924 -0.2271
  472MOL0     H65135   7.013   8.664   6.841 -1.0068 -1.8840 -0.2228
  472MOL0     H65136   7.174   8.688   6.817 -0.2692  1.4595 -2.0971
  473MOL0     O65137   8.931   1.164   9.889  0.3138 -0.0429  0.1742
  473MOL0     C65138   8.994   1.073   9.840  0.1966  0.7633  0.5773
  473MOL0     O65139   9.087   0.990   9.900 -0.2400 -0.1977 -0.1464
  473MOL0     C65140   9.099   1.009  10.036  0.3414 -0.5339  0.3196
  473MOL0     C65141   9.014   0.963  10.135 -0.0865  0.1063 -0.5414
  473MOL0     C65142   9.033   0.975  10.275 -0.5576 -0.9552  0.9359
  473MOL0     C65143   9.149   1.030  10.322  0.1459 -0.1822  0.0767
  473MOL0     O65144   9.159   1.043  10.462 -0.5785 -0.5200  0.5462
  473MOL0     C65145   9.285   1.097  10.508 -0.0558 -0.7389 -0.0222
  473MOL0     C65146   9.296   1.098  10.662  0.5021  0.0921 -0.5551
  473MOL0     C65147   9.434   1.120  10.726 -0.6909  0.2954 -0.2485
  473MOL0     C65148   9.532   1.207  10.643  0.9947  0.8853  0.2500
  473MOL0     C65149   9.673   1.192  10.707  0.1580 -0.0930 -0.4692
  473MOL0     C65150   9.788   1.256  10.622  0.2020  0.1365  0.0582
  473MOL0     C65151   9.836   1.153  10.515 -0.2889 -0.6642 -0.8727
  473MOL0     C65152   9.956   1.199  10.433  0.1731 -0.6398 -0.2391
  473MOL0     N65153   9.982   1.105  10.319  0.3086  0.1723 -0.6817
  473MOL0     C65154   9.921   0.992  10.274 -0.2752 -0.3801 -0.2344
  473MOL0     C65155   9.989   0.948  10.162  0.3969 -0.2811  0.0734
  473MOL0     C65156   9.961   0.820  10.094 -0.0295 -0.5563 -0.6581
  473MOL0     C65157   9.936   0.706  10.186 -0.6558 -0.1715 -1.0242
  473MOL0     C65158   9.922   0.571  10.127 -0.4479  0.1872  0.7795
  473MOL0     C65159  10.033   0.535  10.023 -0.2994 -0.3172  0.2197
  473MOL0     O65160  10.155   0.539  10.093 -0.4426 -0.9830  0.1365
  473MOL0     C65161  10.257   0.610  10.037  1.3123 -0.1439 -0.3973
  473MOL0     C65162  10.297   0.717  10.111 -0.1368  0.1357  0.1783
  473MOL0     C65163  10.393   0.812  10.066 -0.2921  0.1530 -0.1304
  473MOL0     C65164  10.402   0.931  10.153  0.0798 -0.5832 -0.4988
  473MOL0     C65165  10.455   0.795   9.946 -0.1766  0.2462  0.5328
  473MOL0     C65166  10.555   0.881   9.883 -1.4110 -0.6386 -0.3100
  473MOL0     O65167  10.616   0.832   9.773  0.3348  0.0001 -0.3553
  473MOL0     C65168  10.706   0.899   9.698 -0.2729 -0.4538  0.3264
  473MOL0     C65169  10.825   0.835   9.657  1.4687 -0.2789 -0.4472
  473MOL0     C65170  10.927   0.910   9.610 -0.9992  0.6923  0.1036
  473MOL0     C65171  10.911   1.047   9.578 -0.3087  0.3083 -0.0501
  473MOL0     O65172  11.017   1.104   9.511  0.2832  0.7217 -0.0693
  473MOL0     C65173  11.024   1.248   9.498 -0.3735  1.0718  0.4385
  473MOL0     C65174  11.166   1.272   9.458 -0.2962  0.3116  0.0905
  473MOL0     C65175  11.195   1.417   9.413  0.8831  0.2238 -0.4068
  473MOL0     C65176  11.332   1.434   9.360  0.0650  0.5318  0.1814
  473MOL0     C65177  11.373   1.573   9.306 -0.2941  0.0258 -0.0265
  473MOL0     C65178  11.522   1.589   9.283  0.5110  1.0982  0.2735
  473MOL0     C65179  11.575   1.508   9.170  0.6826 -0.1581 -0.1124
  473MOL0     C65180  11.645   1.587   9.053  0.2224  0.6296 -0.1820
  473MOL0    Cl65181  11.767   1.491   8.971  0.2225 -0.2640  0.2692
  473MOL0     C65182  10.791   1.111   9.614  0.3464 -0.3424 -0.5133
  473MOL0     C65183  10.688   1.038   9.668 -0.6827  0.2782  1.0164
  473MOL0     O65184  10.591   0.989   9.930 -0.1616 -0.1552 -0.0671
  473MOL0     C65185  10.424   0.673   9.875 -0.3927  0.1924 -0.3159
  473MOL0     C65186  10.326   0.581   9.916 -0.7695  0.2354 -0.0958
  473MOL0     N65187  10.100   1.026  10.144  0.5873  0.0245  1.1627
  473MOL0     N65188  10.094   1.117  10.240  0.9848  0.3318  0.5543
  473MOL0     C65189   9.250   1.073  10.225 -0.1994  0.8799 -0.0471
  473MOL0     C65190   9.220   1.067  10.090 -0.2956  0.0191  0.1471
  473MOL0     C65191   8.978   1.075   9.687 -0.6045 -0.2259 -0.0106
  473MOL0     C65192   8.892   1.170   9.626 -0.7034 -0.1303 -0.3680
  473MOL0     C65193   8.853   1.152   9.495 -0.4690  0.0909  0.4086
  473MOL0     C65194   8.920   1.061   9.409  0.4790  0.0351  0.0022
  473MOL0     O65195   8.870   1.064   9.282 -0.4868  0.4687 -0.2640
  473MOL0     C65196   8.911   0.970   9.191  0.2301 -0.0543 -0.2566
  473MOL0     C65197   8.820   0.957   9.058 -0.8698  0.3647  0.9312
  473MOL0     C65198   8.686   0.898   9.099  0.5830  0.0429 -0.1508
  473MOL0     C65199   8.578   0.892   8.997 -1.3767  0.0755  0.2808
  473MOL0     C65200   8.515   1.018   8.959 -0.9200 -0.0634 -0.0391
  473MOL0     C65201   8.460   1.122   8.939 -0.3928  0.5876 -0.0660
  473MOL0     C65202   9.018   0.973   9.463 -0.1434  0.3213 -0.6689
  473MOL0     C65203   9.044   0.976   9.602 -0.2616  0.3756  1.0858
  473MOL0     C65204   9.132   0.866   9.646 -0.9674 -0.0035  0.1253
  473MOL0     H65205   8.929   0.914  10.090  0.1156 -0.1848 -0.6045
  473MOL0     H65206   8.939   0.972  10.328  0.5145 -0.0090  3.0260
  473MOL0     H65207   9.294   1.203  10.482 -0.8654  0.0734  2.6504
  473MOL0     H65208   9.375   1.043  10.480  0.8211 -0.1641  1.5600
  473MOL0     H65209   9.226   1.160  10.718  0.7873 -2.4459  2.9901
  473MOL0     H65210   9.271   1.002  10.708  1.6728 -0.9408 -1.9749
  473MOL0     H65211   9.417   1.160  10.826 -0.2086 -1.0887  0.4093
  473MOL0     H65212   9.489   1.027  10.741  0.7115  1.2809  0.9854
  473MOL0     H65213   9.532   1.172  10.540 -3.1255 -0.7858  0.6052
  473MOL0     H65214   9.486   1.306  10.635  2.4796  1.6467  0.8034
  473MOL0     H65215   9.712   1.090  10.717  0.8165  0.2817  1.2280
  473MOL0     H65216   9.682   1.230  10.809  1.9861  1.4295 -1.1371
  473MOL0     H65217   9.740   1.343  10.575  0.2632  1.5841  2.5211
  473MOL0     H65218   9.869   1.282  10.690  0.7067 -3.2567  0.9035
  473MOL0     H65219   9.753   1.131  10.448 -2.0459 -0.9145  1.2489
  473MOL0     H65220   9.860   1.064  10.573 -1.5062  0.5817  1.7468
  473MOL0     H65221   9.940   1.299  10.391 -0.3672 -0.7542 -0.3163
  473MOL0     H65222  10.046   1.217  10.492 -0.4557  0.5585  0.3942
  473MOL0     H65223   9.837   0.936  10.314 -0.3027 -0.4158 -0.3392
  473MOL0     H65224  10.057   0.797  10.046 -0.3491 -1.7557 -0.7526
  473MOL0     H65225   9.884   0.824  10.017 -1.1558  0.9979  0.4818
  473MOL0     H65226  10.017   0.698  10.259  0.7992 -0.1957 -2.5763
  473MOL0     H65227   9.846   0.725  10.245  1.7050  1.1219  2.4959
  473MOL0     H65228   9.922   0.493  10.204 -0.7881 -1.6089 -0.9525
  473MOL0     H65229   9.823   0.559  10.082  0.6600 -0.9300 -1.5162
  473MOL0     H65230  10.020   0.436   9.978  3.7499  0.3173 -2.9085
  473MOL0     H65231  10.037   0.608   9.942  0.3397  1.3636  1.6957
  473MOL0     H65232  10.240   0.733  10.203 -0.3894 -0.9816  0.2294
  473MOL0     H65233  10.341   0.928  10.244 -0.2575  1.6881 -0.5906
  473MOL0     H65234  10.364   1.019  10.101 -1.2188 -0.9528 -0.2279
  473MOL0     H65235  10.504   0.950  10.188 -0.0872 -1.5405  0.5696
  473MOL0     H65236  10.836   0.729   9.678  1.2482  0.4481  4.4592
  473MOL0     H65237  11.015   0.851   9.587 -2.1607  0.2614 -3.8847
  473MOL0     H65238  10.955   1.288   9.423  0.5339  1.6836 -0.0803
  473MOL0     H65239  11.003   1.288   9.597  0.6092 -3.5096  2.7844
  473MOL0     H65240  11.238   1.265   9.541  1.4983  2.0579 -1.2184
  473MOL0     H65241  11.194   1.208   9.373 -1.4742 -2.8347  1.8909
  473MOL0     H65242  11.181   1.489   9.494  3.5544 -0.5419  0.8222
  473MOL0     H65243  11.120   1.443   9.338  0.2894 -0.3083 -0.0041
  473MOL0     H65244  11.357   1.367   9.277  1.6510  0.8458  0.3771
  473MOL0     H65245  11.405   1.399   9.434  1.9678 -2.7998 -2.9589
  473MOL0     H65246  11.313   1.583   9.215 -0.3157 -1.4270 -0.1947
  473MOL0     H65247  11.331   1.652   9.368 -4.7050 -1.4682 -0.8147
  473MOL0     H65248  11.587   1.582   9.371  2.4992  2.9673 -0.9237
  473MOL0     H65249  11.532   1.695   9.257 -0.0523  1.5985  1.9862
  473MOL0     H65250  11.491   1.462   9.117 -1.1132  3.1152 -0.4374
  473MOL0     H65251  11.645   1.432   9.205 -0.3685 -1.0236  0.1443
  473MOL0     H65252  11.696   1.671   9.100 -0.1150  0.3848  0.6450
  473MOL0     H65253  11.572   1.618   8.978 -0.0850 -2.3250 -1.2407
  473MOL0     H65254  10.785   1.218   9.593 -1.7616 -0.4880 -0.8920
  473MOL0     H65255  10.591   1.076   9.700  0.5025  1.7786  3.0639
  473MOL0     H65256  10.472   0.652   9.779  0.9677  0.4440  0.2828
  473MOL0     H65257  10.305   0.493   9.856  0.7161 -0.1801 -0.0628
  473MOL0     H65258   9.347   1.106  10.261 -0.6566  1.7976  0.3709
  473MOL0     H65259   9.305   1.074  10.023  0.6521 -0.1120  1.3242
  473MOL0     H65260   8.840   1.239   9.692  1.8014 -1.4682  3.3100
  473MOL0     H65261   8.771   1.215   9.463  0.5507  1.3862  0.2991
  473MOL0     H65262   9.013   0.998   9.162  1.1137 -0.3532  2.3435
  473MOL0     H65263   8.929   0.871   9.234 -1.4132 -0.3233 -0.1387
  473MOL0     H65264   8.869   0.904   8.975 -0.9700  0.5811  0.7300
  473MOL0     H65265   8.804   1.058   9.018  2.0040  1.1023  1.4028
  473MOL0     H65266   8.693   0.803   9.154 -0.7814 -0.1298 -0.2366
  473MOL0     H65267   8.657   0.978   9.168  4.2789  0.4765  1.1154
  473MOL0     H65268   8.501   0.847   9.061 -0.0722 -0.7671  1.3036
  473MOL0     H65269   8.589   0.825   8.911 -1.9977  1.4870 -0.9413
  473MOL0     H65270   8.403   1.210   8.915 -3.8036 -2.0611 -2.7127
  473MOL0     H65271   9.081   0.911   9.400  2.2620  1.1439  0.7944
  473MOL0     H65272   9.214   0.912   9.701 -0.5580 -1.4451  0.7504
  473MOL0     H65273   9.073   0.809   9.719 -0.7426 -1.0639 -0.5063
  473MOL0     H65274   9.169   0.802   9.566  1.5010 -1.1795  2.0862
  474MOL0     O65275   7.033   9.187   0.373  0.0850  0.1818  0.2526
  474MOL0     C65276   6.993   9.300   0.345  0.2865  0.2286  0.9045
  474MOL0     O65277   7.083   9.408   0.341  0.3076 -0.5480  1.2882
  474MOL0     C65278   7.215   9.380   0.370 -0.4748 -0.0174 -0.0762
  474MOL0     C65279   7.301   9.340   0.261  1.0207  1.0602 -0.1902
  474MOL0     C65280   7.430   9.309   0.289 -0.0551 -0.0220  0.1094
  474MOL0     C65281   7.486   9.314   0.417  0.2106 -0.6746 -0.0009
  474MOL0     O65282   7.610   9.270   0.437 -1.0669 -0.5388  0.0287
  474MOL0     C65283   7.637   9.173   0.536 -0.6470 -0.8360 -0.2895
  474MOL0     C65284   7.745   9.071   0.484  0.2041  0.0927 -0.8215
  474MOL0     C65285   7.773   8.959   0.586 -0.1910 -0.3733  0.7220
  474MOL0     C65286   7.646   8.874   0.614  0.0562  0.0674  0.4983
  474MOL0     C65287   7.704   8.744   0.678 -0.6694  0.5257  0.1731
  474MOL0     C65288   7.607   8.631   0.721  0.2649 -0.2619 -0.1578
  474MOL0     C65289   7.494   8.619   0.638 -0.1600  0.5200  0.2371
  474MOL0     C65290   7.401   8.508   0.689  0.5032 -0.4706  0.0873
  474MOL0     N65291   7.325   8.575   0.801 -0.9674  0.9360  0.6850
  474MOL0     C65292   7.204   8.632   0.796 -0.1102  0.3693 -0.1319
  474MOL0     C65293   7.174   8.657   0.932 -0.1912 -0.3027 -0.4894
  474MOL0     C65294   7.036   8.723   0.977 -0.0664  0.3151  1.0307
  474MOL0     C65295   6.960   8.648   1.085  0.3004  0.4321 -0.7736
  474MOL0     C65296   6.922   8.500   1.043  0.1762 -0.2206  0.4051
  474MOL0     C65297   7.031   8.397   1.071  0.0207  0.6955 -0.4533
  474MOL0     O65298   6.963   8.273   1.045 -0.5586 -0.1401  0.0224
  474MOL0     C65299   6.878   8.215   1.144  0.0801  0.4072  0.2053
  474MOL0     C65300   6.840   8.268   1.269 -0.9710 -0.1763  0.9683
  474MOL0     C65301   6.741   8.224   1.346  0.9531  0.6378  0.7174
  474MOL0     C65302   6.737   8.277   1.488 -0.5742  0.1954  0.0297
  474MOL0     C65303   6.661   8.120   1.295 -0.1907  0.1834 -0.4614
  474MOL0     C65304   6.558   8.043   1.379  0.6680 -0.6225  0.1715
  474MOL0     O65305   6.499   8.116   1.472 -1.0180  0.2282  0.2320
  474MOL0     C65306   6.409   8.065   1.563  0.1730  0.5909 -0.8082
  474MOL0     C65307   6.285   8.013   1.533 -0.6784 -0.0063 -0.5429
  474MOL0     C65308   6.217   7.952   1.634  0.0680 -0.0185 -0.4882
  474MOL0     C65309   6.248   7.965   1.767  0.2251  0.3758  0.7405
  474MOL0     O65310   6.148   7.918   1.856 -0.6739 -0.2486  0.1182
  474MOL0     C65311   6.165   7.956   1.995  0.0671  0.3178  0.8935
  474MOL0     C65312   6.050   7.884   2.055 -0.0814 -0.0046 -1.1351
  474MOL0     C65313   6.021   7.932   2.203  1.1599  0.2820 -0.1305
  474MOL0     C65314   5.989   7.806   2.294  0.0183  0.0482 -0.8557
  474MOL0     C65315   6.006   7.840   2.445 -0.3896 -0.3527 -0.7550
  474MOL0     C65316   5.892   7.932   2.490 -0.0805  0.0379  0.1988
  474MOL0     C65317   5.874   7.932   2.649 -0.3716  0.3257 -0.0932
  474MOL0     C65318   5.764   8.023   2.697 -0.3319 -0.1208 -0.0754
  474MOL0    Cl65319   5.603   7.934   2.691  0.1239 -0.1078  0.0787
  474MOL0     C65320   6.363   8.036   1.794  0.1224  0.0321 -0.5508
  474MOL0     C65321   6.450   8.070   1.700 -0.3678 -0.5097  0.3408
  474MOL0     O65322   6.542   7.922   1.365 -0.0307 -0.3434  0.5811
  474MOL0     C65323   6.705   8.056   1.175  0.3016 -0.1629 -0.6992
  474MOL0     C65324   6.802   8.113   1.102 -0.6463  0.6335 -0.2734
  474MOL0     N65325   7.279   8.617   1.011  0.4741  1.0623  0.3843
  474MOL0     N65326   7.364   8.555   0.930  0.7338 -0.3186 -0.2531
  474MOL0     C65327   7.398   9.341   0.525 -0.4397  0.0739 -0.9423
  474MOL0     C65328   7.263   9.383   0.502 -1.0427  0.0201 -0.3358
  474MOL0     C65329   6.844   9.321   0.339 -0.0033 -0.1908 -0.0591
  474MOL0     C65330   6.758   9.202   0.343  0.2412 -0.3296  0.5588
  474MOL0     C65331   6.621   9.215   0.340 -0.7042  0.5347 -0.9237
  474MOL0     C65332   6.559   9.344   0.338  0.8608 -0.5102  0.9085
  474MOL0     O65333   6.425   9.348   0.336 -0.4282  0.1739  0.5149
  474MOL0     C65334   6.350   9.466   0.331  0.4808 -1.2406 -0.0689
  474MOL0     C65335   6.202   9.433   0.321  0.2684  0.3185  0.1820
  474MOL0     C65336   6.110   9.539   0.363 -0.2552  0.1489  0.3880
  474MOL0     C65337   6.103   9.666   0.270  0.6027 -0.4442  0.3487
  474MOL0     C65338   6.231   9.736   0.287  0.6176  0.0449  0.9104
  474MOL0     C65339   6.340   9.794   0.274  0.3401 -0.0108 -0.2477
  474MOL0     C65340   6.639   9.456   0.328 -0.2854 -0.2326 -1.0929
  474MOL0     C65341   6.784   9.447   0.328  0.8425 -0.0114 -0.1506
  474MOL0     C65342   6.857   9.577   0.309 -0.3364  0.3511 -0.6073
  474MOL0     H65343   7.276   9.334   0.155  2.8750 -1.6103 -0.5820
  474MOL0     H65344   7.497   9.278   0.209  1.5402  2.3154  0.4527
  474MOL0     H65345   7.542   9.136   0.575 -0.7194  0.4348  0.8180
  474MOL0     H65346   7.686   9.221   0.622 -1.4725 -2.9797  1.4759
  474MOL0     H65347   7.716   9.037   0.384  1.1837  0.9448 -1.4230
  474MOL0     H65348   7.840   9.125   0.473  1.2611 -1.3963  0.5517
  474MOL0     H65349   7.861   8.903   0.553 -0.9068 -0.0836 -1.9459
  474MOL0     H65350   7.808   9.007   0.678  2.3620 -1.2508  0.2915
  474MOL0     H65351   7.576   8.917   0.686 -3.2289 -1.4074 -1.5467
  474MOL0     H65352   7.599   8.853   0.517  1.8995 -2.6772  0.0781
  474MOL0     H65353   7.772   8.764   0.761 -2.1063  1.5605  1.1554
  474MOL0     H65354   7.774   8.699   0.607 -0.5164  1.8768 -0.5533
  474MOL0     H65355   7.668   8.540   0.719 -0.9316 -1.1407  1.4328
  474MOL0     H65356   7.572   8.651   0.822  0.9942 -5.1757  1.3363
  474MOL0     H65357   7.519   8.584   0.537 -0.6506  0.7578  0.0365
  474MOL0     H65358   7.443   8.715   0.633 -2.3165 -0.4614  1.9547
  474MOL0     H65359   7.320   8.468   0.628 -3.2659 -0.1869  4.3262
  474MOL0     H65360   7.450   8.418   0.725  0.7805  0.0297  1.0093
  474MOL0     H65361   7.139   8.648   0.711 -1.1807 -0.9641  0.3944
  474MOL0     H65362   6.982   8.725   0.882  1.7846 -1.5204 -0.1622
  474MOL0     H65363   7.055   8.828   1.001  0.9717 -0.4036  3.6643
  474MOL0     H65364   7.016   8.641   1.179  0.9942  0.6452 -1.1598
  474MOL0     H65365   6.871   8.709   1.105 -0.8960 -1.7814  1.1088
  474MOL0     H65366   6.835   8.465   1.100 -1.0749 -1.0902 -1.8894
  474MOL0     H65367   6.897   8.501   0.937  3.5938  1.5047 -0.5082
  474MOL0     H65368   7.112   8.395   0.997 -1.7105 -2.0157 -2.4811
  474MOL0     H65369   7.066   8.391   1.174  0.7913 -3.2123 -0.8010
  474MOL0     H65370   6.896   8.354   1.305  0.9641 -1.1208  0.3703
  474MOL0     H65371   6.834   8.323   1.511 -1.0734  0.5369  1.6145
  474MOL0     H65372   6.730   8.192   1.556  0.1610  0.9330  1.0709
  474MOL0     H65373   6.655   8.350   1.487 -2.0599 -1.3926 -0.0325
  474MOL0     H65374   6.252   8.006   1.429 -2.4833 -3.2717  0.1097
  474MOL0     H65375   6.124   7.902   1.609 -0.5261  1.8302 -2.3460
  474MOL0     H65376   6.254   7.928   2.052 -1.1049  1.0258  3.2183
  474MOL0     H65377   6.151   8.062   2.017  1.1031  0.9475 -1.2039
  474MOL0     H65378   5.963   7.896   1.990 -0.7841 -0.0166 -0.2099
  474MOL0     H65379   6.065   7.776   2.065  1.7520  0.2839 -0.1770
  474MOL0     H65380   5.930   7.994   2.203  0.9643  0.0005  0.2842
  474MOL0     H65381   6.101   7.998   2.236  1.1677 -0.2054  0.8584
  474MOL0     H65382   6.054   7.720   2.276  1.4444  1.3697 -2.3978
  474MOL0     H65383   5.893   7.761   2.266  1.2707 -2.6955 -1.0541
  474MOL0     H65384   5.987   7.751   2.507 -0.9421  0.7841  0.7929
  474MOL0     H65385   6.110   7.867   2.467  0.2638 -4.0190  1.7602
  474MOL0     H65386   5.796   7.901   2.446  0.4185 -1.6216  0.2317
  474MOL0     H65387   5.921   8.030   2.451  0.1825  0.0405  0.4033
  474MOL0     H65388   5.968   7.970   2.690 -0.2193  0.1445 -0.2678
  474MOL0     H65389   5.862   7.825   2.671 -1.6920  0.4916  0.0632
  474MOL0     H65390   5.761   8.105   2.625 -0.3352  0.2801  0.3803
  474MOL0     H65391   5.783   8.066   2.795  0.0864 -1.2832  0.3729
  474MOL0     H65392   6.389   8.051   1.898 -0.3056 -2.0545 -0.0933
  474MOL0     H65393   6.545   8.110   1.733 -0.7296 -0.1352  0.9263
  474MOL0     H65394   6.660   7.965   1.138 -1.2871 -0.1396  1.0072
  474MOL0     H65395   6.835   8.074   1.006 -0.1667  0.3722 -0.0056
  474MOL0     H65396   7.439   9.345   0.625 -2.3840  3.7127 -0.1379
  474MOL0     H65397   7.198   9.410   0.585 -2.5836  1.3901 -1.8940
  474MOL0     H65398   6.798   9.102   0.336 -2.4150 -1.3534 -2.4363
  474MOL0     H65399   6.565   9.123   0.355 -0.4828  0.4303 -0.7229
  474MOL0     H65400   6.366   9.526   0.421  0.6644 -1.2819 -0.0734
  474MOL0     H65401   6.385   9.529   0.248 -2.5535  1.8850  0.7632
  474MOL0     H65402   6.190   9.353   0.394 -0.2845  0.5094  0.3017
  474MOL0     H65403   6.186   9.386   0.224  0.4586  0.2637  0.1766
  474MOL0     H65404   6.014   9.488   0.376 -0.7722  1.1831  0.8412
  474MOL0     H65405   6.125   9.571   0.467 -0.3805  0.1094  0.4183
  474MOL0     H65406   6.017   9.728   0.298  1.9335  0.9949  1.4023
  474MOL0     H65407   6.094   9.634   0.166  0.1768  1.8085 -0.3554
  474MOL0     H65408   6.443   9.825   0.269  0.5909 -0.8964 -0.8164
  474MOL0     H65409   6.588   9.552   0.327 -1.2277 -0.5910  2.0797
  474MOL0     H65410   6.911   9.572   0.214  0.2811  2.3332 -0.3975
  474MOL0     H65411   6.793   9.665   0.302 -1.5287 -0.4770 -0.3829
  474MOL0     H65412   6.923   9.586   0.395 -2.5581 -0.1187  1.2422
  475MOL0     O65413   6.102   4.270   5.617  0.2952 -0.3076 -0.1804
  475MOL0     C65414   6.037   4.377   5.607  0.0504 -0.1641 -0.9472
  475MOL0     O65415   6.092   4.500   5.594 -0.5007 -0.0192 -0.0757
  475MOL0     C65416   6.221   4.537   5.585  0.0978  1.2293  0.6278
  475MOL0     C65417   6.312   4.466   5.500 -0.3637 -1.1115  0.8151
  475MOL0     C65418   6.439   4.517   5.482  0.4545 -0.3213 -0.3284
  475MOL0     C65419   6.485   4.626   5.555 -0.1381 -0.6404  0.9121
  475MOL0     O65420   6.614   4.671   5.563  0.4713  0.8308 -0.0684
  475MOL0     C65421   6.717   4.615   5.490  0.4003  0.5812 -0.0216
  475MOL0     C65422   6.768   4.492   5.562  0.4765  0.1348 -1.2491
  475MOL0     C65423   6.889   4.433   5.487 -0.2036 -0.7132  0.3617
  475MOL0     C65424   6.928   4.300   5.543 -0.6063 -0.0903  0.2751
  475MOL0     C65425   7.058   4.240   5.494  0.1227 -0.3154 -0.2172
  475MOL0     C65426   7.180   4.328   5.539  0.3199 -0.1114 -1.0647
  475MOL0     C65427   7.306   4.285   5.467 -0.3369 -0.7680  0.1240
  475MOL0     C65428   7.406   4.191   5.546  0.8507  0.6474 -0.2105
  475MOL0     N65429   7.479   4.257   5.658  0.7477 -0.7809  0.3998
  475MOL0     C65430   7.419   4.250   5.776  1.0731  0.1195 -0.6114
  475MOL0     C65431   7.512   4.289   5.864 -0.0308  0.6708 -0.8057
  475MOL0     C65432   7.499   4.297   6.008  0.1559 -0.5904 -0.1205
  475MOL0     C65433   7.618   4.223   6.083  0.1812  0.0301  0.2040
  475MOL0     C65434   7.629   4.245   6.234 -0.2660 -0.2820 -0.2985
  475MOL0     C65435   7.543   4.145   6.300  0.8055  0.4318 -0.6156
  475MOL0     O65436   7.532   4.186   6.437 -0.2180  0.1007  0.1214
  475MOL0     C65437   7.557   4.090   6.532  0.0215 -0.2294 -0.2460
  475MOL0     C65438   7.643   4.126   6.638  0.3460  0.0817  0.6092
  475MOL0     C65439   7.681   4.025   6.735 -0.8293 -0.1202 -0.3107
  475MOL0     C65440   7.773   4.063   6.852  0.4689  1.5464  0.0786
  475MOL0     C65441   7.620   3.894   6.725 -0.0006 -0.5139 -0.0626
  475MOL0     C65442   7.668   3.789   6.810 -0.2833  0.0829  0.0375
  475MOL0     O65443   7.805   3.766   6.809  1.1065 -0.1367 -0.7108
  475MOL0     C65444   7.851   3.640   6.848  0.5750 -0.8581  0.8490
  475MOL0     C65445   7.778   3.521   6.847 -0.4369  0.1305  0.6165
  475MOL0     C65446   7.846   3.405   6.886 -0.0102  0.0706 -0.0582
  475MOL0     C65447   7.983   3.406   6.921  0.0838 -0.1319 -0.4333
  475MOL0     O65448   8.048   3.294   6.963  0.6145  0.0881  0.0841
  475MOL0     C65449   8.105   3.312   7.102  0.9088  0.2973 -0.0622
  475MOL0     C65450   8.000   3.363   7.220  0.2506  1.1974 -0.7958
  475MOL0     C65451   7.905   3.252   7.259  0.0704  0.3043  0.4536
  475MOL0     C65452   7.800   3.294   7.360 -0.0300 -0.9724 -0.2198
  475MOL0     C65453   7.717   3.165   7.393  0.1101  0.1145  0.7562
  475MOL0     C65454   7.577   3.196   7.437  0.2983 -1.0113 -1.1072
  475MOL0     C65455   7.578   3.265   7.574 -0.1099  0.4413 -0.4290
  475MOL0     C65456   7.438   3.253   7.634 -0.4413 -0.0013 -0.5379
  475MOL0    Cl65457   7.314   3.353   7.541 -0.2045 -0.5817  0.1511
  475MOL0     C65458   8.052   3.526   6.914  0.1468 -1.0411 -0.3201
  475MOL0     C65459   7.983   3.643   6.882 -0.1703  0.5930  0.7449
  475MOL0     O65460   7.585   3.727   6.879  0.0288  0.1608  0.3439
  475MOL0     C65461   7.533   3.867   6.626 -0.0390  0.2958 -0.6378
  475MOL0     C65462   7.490   3.968   6.530 -1.2616  0.4904  0.9595
  475MOL0     N65463   7.626   4.338   5.794  0.0047  0.7974  0.1925
  475MOL0     N65464   7.601   4.323   5.664  0.4913 -0.0234  0.8214
  475MOL0     C65465   6.396   4.697   5.636 -0.0395  1.3578 -0.1944
  475MOL0     C65466   6.266   4.648   5.649 -0.0165 -0.3591  0.1624
  475MOL0     C65467   5.886   4.373   5.610  0.3717  0.7786 -0.1347
  475MOL0     C65468   5.823   4.489   5.642 -0.0233  0.5442 -0.6817
  475MOL0     C65469   5.687   4.500   5.649 -0.7610  0.8831  0.5496
  475MOL0     C65470   5.608   4.397   5.605 -0.3899  0.0887  0.1345
  475MOL0     O65471   5.474   4.410   5.593  0.4037  0.4549 -0.4219
  475MOL0     C65472   5.398   4.391   5.712  1.2110  0.3504 -0.0284
  475MOL0     C65473   5.272   4.462   5.678  0.1316  0.6530  0.8454
  475MOL0     C65474   5.165   4.425   5.784  0.5429 -0.6637  0.4637
  475MOL0     C65475   5.028   4.441   5.721 -0.3236 -1.0599 -0.6181
  475MOL0     C65476   4.925   4.417   5.828  0.2853  0.1528 -0.2059
  475MOL0     C65477   4.826   4.405   5.907 -0.2817 -0.2953  0.2892
  475MOL0     C65478   5.672   4.275   5.580 -0.2334  0.8024 -0.6953
  475MOL0     C65479   5.811   4.258   5.581  0.1890 -0.5076 -0.2606
  475MOL0     C65480   5.867   4.119   5.562  0.0964  0.0243  0.5881
  475MOL0     H65481   6.285   4.373   5.450 -1.5863 -0.6379  0.5546
  475MOL0     H65482   6.514   4.453   5.436  0.4530 -1.2789  0.9626
  475MOL0     H65483   6.798   4.688   5.504  0.0031  1.4048 -1.7451
  475MOL0     H65484   6.696   4.607   5.383 -2.1346  0.8567  0.3964
  475MOL0     H65485   6.794   4.535   5.659 -3.9344  2.6042 -0.9064
  475MOL0     H65486   6.690   4.416   5.565  1.0898 -0.5052 -1.2339
  475MOL0     H65487   6.865   4.425   5.380 -1.8460  1.2713  0.5142
  475MOL0     H65488   6.961   4.514   5.494 -1.4483  0.4712 -0.0040
  475MOL0     H65489   6.938   4.310   5.652 -2.3778 -3.1447  0.8609
  475MOL0     H65490   6.848   4.226   5.526  0.7522 -1.5190 -0.1750
  475MOL0     H65491   7.054   4.240   5.384  1.6591 -3.4590 -0.3706
  475MOL0     H65492   7.068   4.138   5.531  1.3683  0.7258  2.5893
  475MOL0     H65493   7.168   4.435   5.518  0.9674  0.6975  2.1902
  475MOL0     H65494   7.182   4.318   5.647 -0.7796 -0.8456 -1.0976
  475MOL0     H65495   7.366   4.372   5.436 -3.6374  1.3883 -0.8469
  475MOL0     H65496   7.284   4.235   5.372 -1.4674 -0.0761  0.0033
  475MOL0     H65497   7.356   4.100   5.581  3.3873 -0.7661 -0.0248
  475MOL0     H65498   7.478   4.157   5.472  0.9138 -1.1242  0.6025
  475MOL0     H65499   7.319   4.226   5.810  1.5225  0.9941  1.4377
  475MOL0     H65500   7.403   4.255   6.040 -1.0135  2.3390  0.6137
  475MOL0     H65501   7.489   4.403   6.035  0.8993 -0.8980  1.4405
  475MOL0     H65502   7.612   4.115   6.068  1.6479  0.1806 -1.9712
  475MOL0     H65503   7.710   4.274   6.052  0.7560 -0.4519  1.0683
  475MOL0     H65504   7.726   4.212   6.272  0.3513 -1.3910 -2.6588
  475MOL0     H65505   7.600   4.346   6.265 -0.7718 -1.3621  3.3209
  475MOL0     H65506   7.443   4.144   6.256 -0.2253 -2.6870  1.4007
  475MOL0     H65507   7.584   4.044   6.293 -0.3754 -0.2405  1.3304
  475MOL0     H65508   7.687   4.226   6.639  1.1776 -0.2349 -0.9872
  475MOL0     H65509   7.773   4.173   6.857 -0.2691  1.6667 -1.7650
  475MOL0     H65510   7.876   4.027   6.844  0.0549  0.7760 -4.0089
  475MOL0     H65511   7.733   4.017   6.943  1.7052 -3.2731 -1.5136
  475MOL0     H65512   7.678   3.527   6.808 -0.1118  0.6670 -0.1639
  475MOL0     H65513   7.788   3.314   6.873 -2.2633  1.6215 -1.6354
  475MOL0     H65514   8.149   3.216   7.130 -2.8307 -1.8969 -1.0561
  475MOL0     H65515   8.195   3.373   7.096  1.7225 -0.7536  0.9622
  475MOL0     H65516   8.060   3.387   7.309 -1.7448  0.7098  0.7606
  475MOL0     H65517   7.944   3.453   7.197 -2.7246  0.3089  2.1808
  475MOL0     H65518   7.964   3.170   7.300  0.5104  0.8949  1.0238
  475MOL0     H65519   7.859   3.223   7.164  2.7850  2.6111 -1.7492
  475MOL0     H65520   7.735   3.365   7.309  0.7700 -0.4821 -0.5677
  475MOL0     H65521   7.844   3.341   7.448  1.2110  3.7304 -2.9931
  475MOL0     H65522   7.708   3.102   7.304 -0.2357  3.2116 -1.5458
  475MOL0     H65523   7.781   3.114   7.466  1.0204 -0.9475 -0.7131
  475MOL0     H65524   7.518   3.107   7.455  3.6733 -2.9725  1.7450
  475MOL0     H65525   7.530   3.271   7.372  1.1545  1.4492  0.9140
  475MOL0     H65526   7.612   3.369   7.566  0.7400  0.3537  1.4601
  475MOL0     H65527   7.646   3.213   7.641  1.7284 -0.3655 -2.8123
  475MOL0     H65528   7.444   3.288   7.737 -3.8210  2.2834 -0.9373
  475MOL0     H65529   7.412   3.147   7.638 -0.0629 -0.0581  0.9795
  475MOL0     H65530   8.160   3.534   6.919 -0.0181  1.3158  1.0359
  475MOL0     H65531   8.039   3.735   6.899  0.5181  0.3013  0.0938
  475MOL0     H65532   7.482   3.771   6.614  0.2894  0.0128  0.2040
  475MOL0     H65533   7.421   3.929   6.457  0.1978 -3.2310  1.3499
  475MOL0     H65534   6.433   4.773   5.704 -0.9795  0.3306  1.5197
  475MOL0     H65535   6.204   4.696   5.723  1.0103  1.2873  0.0232
  475MOL0     H65536   5.887   4.570   5.677  1.5857 -0.2306 -1.7431
  475MOL0     H65537   5.652   4.598   5.681 -2.4599  1.1870 -1.9803
  475MOL0     H65538   5.381   4.284   5.730 -0.6446  0.7319  0.6345
  475MOL0     H65539   5.439   4.441   5.800  1.4452  0.5750 -0.2604
  475MOL0     H65540   5.250   4.436   5.574 -1.5719  1.8035  0.8831
  475MOL0     H65541   5.286   4.570   5.675 -2.9268  1.1073 -0.5278
  475MOL0     H65542   5.173   4.322   5.821  1.1801  0.0476  2.4044
  475MOL0     H65543   5.180   4.498   5.863  3.6942 -0.7877  0.1096
  475MOL0     H65544   5.016   4.363   5.645 -0.0890 -0.1584 -1.6045
  475MOL0     H65545   5.022   4.543   5.682  1.0116 -0.2775  1.0965
  475MOL0     H65546   4.744   4.400   5.975 -0.8345  2.3400 -0.0638
  475MOL0     H65547   5.616   4.183   5.565  0.9875 -0.5134  2.1189
  475MOL0     H65548   5.790   4.044   5.543 -0.6967  1.1662 -0.9576
  475MOL0     H65549   5.932   4.120   5.473 -1.4484  0.8464 -0.5761
  475MOL0     H65550   5.925   4.102   5.653  0.8973  0.8756  0.2554
  476MOL0     O65551   5.596   6.837  11.042  0.5751 -0.0647 -0.6232
  476MOL0     C65552   5.583   6.956  11.004  0.8736  0.1146 -0.2858
  476MOL0     O65553   5.646   7.020  10.910  0.3888  0.0297  0.1112
  476MOL0     C65554   5.739   6.954  10.839  0.4866  0.1154 -0.1914
  476MOL0     C65555   5.856   7.014  10.832  0.2412 -0.8270 -0.7862
  476MOL0     C65556   5.962   6.954  10.784 -0.3659 -0.4181  0.2087
  476MOL0     C65557   5.961   6.837  10.712  0.0325  0.4036  0.1965
  476MOL0     O65558   6.066   6.782  10.647 -0.1419 -0.6800  0.0840
  476MOL0     C65559   6.179   6.868  10.617 -0.0097  0.1034  0.5250
  476MOL0     C65560   6.290   6.849  10.722 -1.1705 -0.3606  0.2563
  476MOL0     C65561   6.426   6.858  10.667 -0.1305 -0.2207  0.8187
  476MOL0     C65562   6.546   6.830  10.768 -0.2557 -0.2115 -0.5185
  476MOL0     C65563   6.678   6.821  10.682 -0.4510 -0.2454  0.3670
  476MOL0     C65564   6.727   6.965  10.664 -0.2203 -0.0483 -0.2960
  476MOL0     C65565   6.866   6.965  10.595  0.0844 -0.0722  1.2551
  476MOL0     C65566   6.991   6.966  10.685  0.3473 -0.1955 -0.2159
  476MOL0     N65567   7.108   6.989  10.605 -0.3390  0.1676  0.6721
  476MOL0     C65568   7.129   6.950  10.474  0.1534 -0.0567  0.6392
  476MOL0     C65569   7.261   6.999  10.457  0.0374  0.6099 -0.1020
  476MOL0     C65570   7.328   7.002  10.324 -0.3049 -0.5860 -0.0379
  476MOL0     C65571   7.285   6.875  10.235  0.0069 -0.1924 -1.1633
  476MOL0     C65572   7.386   6.848  10.119  0.4378  1.0379 -0.3024
  476MOL0     C65573   7.531   6.803  10.159  0.7842 -0.3314  0.2857
  476MOL0     O65574   7.594   6.809  10.031  0.7316  0.1646 -0.0679
  476MOL0     C65575   7.723   6.776  10.019 -0.2644  0.2408  0.6885
  476MOL0     C65576   7.769   6.764   9.889 -0.3249 -0.1049  0.9951
  476MOL0     C65577   7.896   6.730   9.862  0.1400 -0.3289 -0.1460
  476MOL0     C65578   7.931   6.727   9.713 -0.3154  0.3260 -0.0281
  476MOL0     C65579   7.984   6.683   9.963  0.8427 -0.8704 -0.0483
  476MOL0     C65580   8.126   6.631   9.948  1.3565  0.7009  0.8935
  476MOL0     O65581   8.168   6.536  10.042  0.8994 -0.0991 -0.4338
  476MOL0     C65582   8.279   6.454  10.012  0.0498  0.0217  0.1072
  476MOL0     C65583   8.295   6.388   9.890 -1.2203 -1.2136  0.1883
  476MOL0     C65584   8.396   6.295   9.869 -0.2002 -0.3092  0.4015
  476MOL0     C65585   8.491   6.262   9.972  0.2665 -1.0558  0.5041
  476MOL0     O65586   8.596   6.166   9.965  0.3294 -0.1176 -0.2888
  476MOL0     C65587   8.615   6.088   9.844 -0.1171  0.1087  0.4709
  476MOL0     C65588   8.739   5.995   9.862  0.7807  0.2871 -0.1548
  476MOL0     C65589   8.785   5.935   9.721  1.0141  0.1162  0.8963
  476MOL0     C65590   8.890   5.829   9.734  0.8209 -0.4538  0.1118
  476MOL0     C65591   8.939   5.773   9.599  0.3347 -0.4980  0.1378
  476MOL0     C65592   9.029   5.657   9.605 -0.0105  0.3255  0.6365
  476MOL0     C65593   9.045   5.584   9.466 -0.1056 -0.4490  0.4520
  476MOL0     C65594   9.119   5.448   9.473  0.6223 -0.5256 -0.8800
  476MOL0    Cl65595   9.026   5.306   9.429 -0.2054  0.1194  0.4560
  476MOL0     C65596   8.470   6.325  10.096  0.5347 -0.9420  0.1261
  476MOL0     C65597   8.367   6.418  10.109 -0.0944 -0.3198 -0.1579
  476MOL0     O65598   8.186   6.664   9.847  0.4049 -0.6061 -0.5464
  476MOL0     C65599   7.931   6.685  10.091  0.0232 -0.0773  0.2350
  476MOL0     C65600   7.805   6.754  10.124 -0.5465  0.4045  0.2507
  476MOL0     N65601   7.315   7.044  10.568 -0.0698  0.1338  0.0512
  476MOL0     N65602   7.219   7.056  10.650 -0.9180  0.1429 -0.0628
  476MOL0     C65603   5.836   6.767  10.721  0.8070  0.0969 -0.6068
  476MOL0     C65604   5.726   6.822  10.787  1.0165 -0.3503 -0.1330
  476MOL0     C65605   5.484   7.041  11.080 -0.7782 -0.9147  0.2747
  476MOL0     C65606   5.353   6.999  11.106 -0.1719  0.3177 -0.5281
  476MOL0     C65607   5.262   7.079  11.171  0.4046  0.1058 -0.5681
  476MOL0     C65608   5.298   7.202  11.213  0.1758  0.0265 -0.5350
  476MOL0     O65609   5.206   7.268  11.292  0.4304  0.2653  0.3967
  476MOL0     C65610   5.228   7.397  11.345  0.5756  0.4370  0.4062
  476MOL0     C65611   5.119   7.417  11.449 -0.6498 -0.4595 -0.4730
  476MOL0     C65612   4.984   7.463  11.390 -0.5613 -0.0201 -0.5570
  476MOL0     C65613   4.957   7.613  11.381 -0.4736  0.3837 -0.4482
  476MOL0     C65614   4.861   7.647  11.272 -0.5797 -0.5286 -0.2938
  476MOL0     C65615   4.801   7.679  11.170 -0.7842 -1.0432  0.1176
  476MOL0     C65616   5.426   7.243  11.195  0.7653  0.2947  0.5524
  476MOL0     C65617   5.521   7.167  11.131 -0.0702 -0.8028 -0.3018
  476MOL0     C65618   5.669   7.207  11.120  0.3792  0.5003  1.3793
  476MOL0     H65619   5.861   7.108  10.886  0.2658  0.1068 -2.3329
  476MOL0     H65620   6.055   7.011  10.782 -1.2948  1.2109  0.8878
  476MOL0     H65621   6.166   6.976  10.605  0.1859 -0.0929 -1.9054
  476MOL0     H65622   6.212   6.830  10.520  0.6134 -0.5010  0.9647
  476MOL0     H65623   6.278   6.934  10.790 -1.5304  0.4365 -0.7828
  476MOL0     H65624   6.264   6.752  10.766  0.2659 -1.4154 -1.1216
  476MOL0     H65625   6.438   6.796  10.578  2.9570 -0.8995  1.5667
  476MOL0     H65626   6.433   6.963  10.638  3.5147  0.1686  2.5653
  476MOL0     H65627   6.566   6.920  10.827  1.4329  0.3610 -1.8841
  476MOL0     H65628   6.537   6.735  10.821  1.4193  0.6316  1.4347
  476MOL0     H65629   6.665   6.774  10.585  1.8604  1.3857 -0.8296
  476MOL0     H65630   6.747   6.762  10.743 -1.0442 -1.9926 -0.6107
  476MOL0     H65631   6.664   7.031  10.603  0.0627 -0.9179 -1.5591
  476MOL0     H65632   6.738   7.001  10.767  0.8730 -5.2594  1.6862
  476MOL0     H65633   6.886   7.055  10.535  1.8310 -1.5784 -0.5800
  476MOL0     H65634   6.880   6.873  10.538 -1.1877  0.6604 -0.2986
  476MOL0     H65635   6.973   7.046  10.757  0.8385 -0.4670  0.2127
  476MOL0     H65636   7.005   6.876  10.746 -1.5139 -1.0056 -0.8850
  476MOL0     H65637   7.062   6.916  10.396 -0.7636  0.7173  1.0745
  476MOL0     H65638   7.435   7.006  10.345 -0.4320 -0.5294  0.6283
  476MOL0     H65639   7.304   7.093  10.268  3.3739  0.1507 -0.6901
  476MOL0     H65640   7.271   6.784  10.294 -2.3263  1.3488  0.8530
  476MOL0     H65641   7.188   6.896  10.191  0.1712  1.1405 -0.9100
  476MOL0     H65642   7.348   6.764  10.060 -1.4768  1.4028  0.3487
  476MOL0     H65643   7.387   6.933  10.050  2.0868 -0.7980 -2.6737
  476MOL0     H65644   7.573   6.874  10.231 -1.2662  0.9533  0.3167
  476MOL0     H65645   7.532   6.702  10.199 -3.0915 -2.0792 -3.2358
  476MOL0     H65646   7.699   6.791   9.810 -0.0325 -3.0108 -0.3762
  476MOL0     H65647   7.850   6.778   9.660  0.8607  1.6850 -0.5809
  476MOL0     H65648   7.927   6.621   9.685 -1.1673  0.6569 -1.2594
  476MOL0     H65649   8.031   6.765   9.690  0.5227 -0.5776  1.9518
  476MOL0     H65650   8.232   6.398   9.802 -0.7464  1.6553  0.0702
  476MOL0     H65651   8.401   6.247   9.772 -1.1218  1.0377 -0.3518
  476MOL0     H65652   8.523   6.033   9.823 -0.3372  0.4045  0.6554
  476MOL0     H65653   8.631   6.148   9.754 -0.5137 -0.7621 -0.1851
  476MOL0     H65654   8.821   6.055   9.902  0.9541  1.6748 -2.4102
  476MOL0     H65655   8.713   5.911   9.927  1.0180 -0.4726 -1.0167
  476MOL0     H65656   8.799   6.012   9.645 -1.6850  1.2178  1.4042
  476MOL0     H65657   8.695   5.880   9.692 -1.4866  2.3083  3.7959
  476MOL0     H65658   8.832   5.748   9.779 -3.6976  1.8212 -1.0677
  476MOL0     H65659   8.971   5.874   9.793 -0.7620  2.5718  0.1755
  476MOL0     H65660   8.851   5.730   9.551 -1.3548 -2.1118  4.1760
  476MOL0     H65661   8.995   5.849   9.544  2.0061 -1.3875  0.5298
  476MOL0     H65662   9.000   5.582   9.679  2.0845 -3.3250 -1.9411
  476MOL0     H65663   9.122   5.698   9.647  0.2759  0.7836 -0.4101
  476MOL0     H65664   9.091   5.654   9.396 -0.2636  0.4648  1.2396
  476MOL0     H65665   8.948   5.548   9.430 -1.3759  2.0266  1.1682
  476MOL0     H65666   9.154   5.437   9.576  0.3501  0.8143 -0.6149
  476MOL0     H65667   9.197   5.447   9.396  1.1875  1.7159 -0.4184
  476MOL0     H65668   8.528   6.302  10.185 -1.6856 -4.0620  0.9345
  476MOL0     H65669   8.355   6.468  10.205 -4.6919 -3.3000  1.1291
  476MOL0     H65670   7.988   6.648  10.176  0.7163 -1.4761 -0.8033
  476MOL0     H65671   7.776   6.769  10.227  1.4664  1.4876  0.7087
  476MOL0     H65672   5.822   6.661  10.699  0.0354 -0.4951  2.2891
  476MOL0     H65673   5.639   6.758  10.802  2.2576 -2.3214 -1.0901
  476MOL0     H65674   5.308   6.906  11.074 -1.4542  0.4968  0.6220
  476MOL0     H65675   5.159   7.064  11.203 -0.0121  1.0014 -1.4371
  476MOL0     H65676   5.324   7.402  11.397 -0.7278 -0.1591  3.0177
  476MOL0     H65677   5.236   7.468  11.262 -0.1000 -0.9516 -0.8900
  476MOL0     H65678   5.162   7.488  11.521 -1.2297 -1.0708  0.4877
  476MOL0     H65679   5.112   7.325  11.508  2.5092 -0.7709 -0.3856
  476MOL0     H65680   4.969   7.422  11.290 -0.4434  0.6382 -0.8482
  476MOL0     H65681   4.918   7.413  11.462  1.9429 -1.5270  0.8396
  476MOL0     H65682   5.055   7.652  11.351  0.1559 -3.0969 -3.6674
  476MOL0     H65683   4.933   7.657  11.479 -0.5078  1.1852 -0.8070
  476MOL0     H65684   4.732   7.695  11.090 -0.3606 -1.2509 -0.2961
  476MOL0     H65685   5.461   7.331  11.248  4.6186 -0.5489 -0.2410
  476MOL0     H65686   5.740   7.129  11.151  3.1521  1.6167 -1.5965
  476MOL0     H65687   5.702   7.231  11.019  1.8903 -1.1718  1.4095
  476MOL0     H65688   5.690   7.288  11.190  1.3882  1.9986 -0.5702
  477MOL0     O65689   9.336   9.368  10.899 -0.1107  0.1889 -0.0863
  477MOL0     C65690   9.243   9.288  10.895  0.6960  0.5865  0.0709
  477MOL0     O65691   9.221   9.187  10.987 -0.5510 -0.3012  0.4952
  477MOL0     C65692   9.306   9.186  11.096 -0.1465 -0.3054 -0.9819
  477MOL0     C65693   9.301   9.298  11.191 -0.0467  0.5550  0.6930
  477MOL0     C65694   9.389   9.310  11.291  0.5977 -0.3701  0.3166
  477MOL0     C65695   9.493   9.216  11.317 -0.7723 -0.5110 -0.1654
  477MOL0     O65696   9.581   9.214  11.418 -0.3437 -0.1881  0.3570
  477MOL0     C65697   9.542   9.305  11.523  0.2451 -1.2651 -0.3129
  477MOL0     C65698   9.642   9.281  11.634  0.0199  0.0977  0.2647
  477MOL0     C65699   9.783   9.327  11.593  0.4636 -0.2233 -0.2858
  477MOL0     C65700   9.879   9.332  11.704 -0.4117  0.9343 -0.3948
  477MOL0     C65701  10.014   9.395  11.655 -0.0835 -0.2882 -0.0895
  477MOL0     C65702  10.104   9.279  11.604 -0.1534  0.0432 -0.2566
  477MOL0     C65703  10.242   9.314  11.551 -0.6234 -0.3114  0.5019
  477MOL0     C65704  10.348   9.378  11.650 -0.2160 -0.3553 -0.8611
  477MOL0     N65705  10.464   9.446  11.595 -0.1459  0.4340 -0.0129
  477MOL0     C65706  10.477   9.587  11.592 -0.9161 -0.6780 -0.4331
  477MOL0     C65707  10.612   9.603  11.586  0.4242 -0.1006 -0.1721
  477MOL0     C65708  10.687   9.737  11.600  0.5602 -0.5890  0.3455
  477MOL0     C65709  10.612   9.853  11.532 -0.1537 -0.6366  0.2121
  477MOL0     C65710  10.702   9.969  11.500  0.0599 -0.4995 -0.3481
  477MOL0     C65711  10.622  10.075  11.423 -0.6614  0.4678  0.1506
  477MOL0     O65712  10.514  10.132  11.496  0.0974 -0.2548 -0.0681
  477MOL0     C65713  10.426  10.212  11.425  0.0675  0.8168 -0.5280
  477MOL0     C65714  10.316  10.242  11.498 -0.1364  0.4582  0.8180
  477MOL0     C65715  10.220  10.329  11.453 -0.5268  0.6698 -0.0202
  477MOL0     C65716  10.124  10.358  11.558 -0.0917 -0.3538 -0.1691
  477MOL0     C65717  10.224  10.380  11.325  0.2843  0.0803 -0.0269
  477MOL0     C65718  10.112  10.452  11.262 -0.0262  0.2236 -0.1231
  477MOL0     O65719   9.996  10.478  11.333  0.4062 -0.1189  0.1689
  477MOL0     C65720   9.877  10.519  11.282 -0.3890 -0.3796  0.6141
  477MOL0     C65721   9.836  10.495  11.141 -1.4688  0.0895  0.1899
  477MOL0     C65722   9.710  10.524  11.106  0.5078 -0.5505 -0.8313
  477MOL0     C65723   9.627  10.596  11.190  1.0335 -0.5262  0.0251
  477MOL0     O65724   9.501  10.635  11.154 -0.7027  0.3242  1.5200
  477MOL0     C65725   9.384  10.613  11.234  0.8475  0.2439 -0.2415
  477MOL0     C65726   9.344  10.734  11.325  0.9070 -0.4154 -0.9290
  477MOL0     C65727   9.192  10.750  11.338  0.8374  0.9403 -0.1649
  477MOL0     C65728   9.142  10.861  11.437 -0.5439  0.5207  0.2554
  477MOL0     C65729   8.995  10.841  11.451 -0.4764 -0.2597  0.9287
  477MOL0     C65730   8.955  10.725  11.557 -0.9566 -0.4470 -0.6273
  477MOL0     C65731   8.807  10.711  11.583 -0.2984  0.0820  0.2447
  477MOL0     C65732   8.725  10.834  11.625 -0.5155 -0.2556  0.4758
  477MOL0    Cl65733   8.550  10.798  11.638  0.5661  0.2570  0.0531
  477MOL0     C65734   9.665  10.633  11.319  0.5911  0.4844 -1.1672
  477MOL0     C65735   9.798  10.597  11.359  0.4650 -0.2659  0.2020
  477MOL0     O65736  10.131  10.488  11.147 -0.3892 -0.3557 -0.0664
  477MOL0     C65737  10.335  10.348  11.250 -0.3364  0.4518  0.0931
  477MOL0     C65738  10.446  10.271  11.302 -0.3515  0.4704 -0.2738
  477MOL0     N65739  10.679   9.482  11.574 -1.1874 -0.2699  0.0199
  477MOL0     N65740  10.593   9.390  11.583 -0.5851  0.1634 -0.4131
  477MOL0     C65741   9.495   9.105  11.228  0.1668  0.0925 -0.7315
  477MOL0     C65742   9.412   9.097  11.112 -0.2958  0.4189  0.2115
  477MOL0     C65743   9.139   9.297  10.788  0.0765  0.8850 -0.4397
  477MOL0     C65744   9.032   9.207  10.790 -1.4118  0.0274 -0.0570
  477MOL0     C65745   8.939   9.194  10.687 -0.0220 -0.6713  0.0920
  477MOL0     C65746   8.939   9.283  10.579 -0.9003 -0.8506  0.0949
  477MOL0     O65747   8.854   9.267  10.473 -0.3321 -0.2660  0.1917
  477MOL0     C65748   8.775   9.380  10.424  0.1481 -0.3846 -0.0505
  477MOL0     C65749   8.688   9.338  10.308  0.0425 -0.7204  0.7662
  477MOL0     C65750   8.637   9.450  10.218  0.3286 -0.1000 -0.3342
  477MOL0     C65751   8.521   9.519  10.281  0.0896 -0.5099  0.3579
  477MOL0     C65752   8.398   9.441  10.261 -0.5802 -0.1753 -0.3701
  477MOL0     C65753   8.293   9.382  10.257  0.4944  0.1943 -0.1354
  477MOL0     C65754   9.039   9.383  10.583  0.5692  0.1533 -0.6527
  477MOL0     C65755   9.137   9.393  10.684  0.3901 -0.8623 -0.1902
  477MOL0     C65756   9.251   9.488  10.667  1.2311 -0.5273  0.0134
  477MOL0     H65757   9.230   9.380  11.184  1.4210  1.7110 -3.0652
  477MOL0     H65758   9.374   9.399  11.350 -2.3365 -1.4098  1.3415
  477MOL0     H65759   9.443   9.288  11.566  1.4075 -1.9607  2.2495
  477MOL0     H65760   9.539   9.413  11.503 -2.2682 -0.7315  2.4116
  477MOL0     H65761   9.605   9.336  11.721 -1.4228 -1.2429  0.5466
  477MOL0     H65762   9.634   9.172  11.645  0.5561  0.0825  0.5603
  477MOL0     H65763   9.824   9.264  11.514 -1.8273  1.3509 -2.9121
  477MOL0     H65764   9.781   9.431  11.559 -0.9251  0.3088  1.2827
  477MOL0     H65765   9.843   9.389  11.790 -3.2327 -0.1483 -0.7755
  477MOL0     H65766   9.892   9.232  11.744 -0.0645  2.2431  3.1209
  477MOL0     H65767  10.068   9.447  11.735  3.2203 -0.6072 -1.9382
  477MOL0     H65768  10.002   9.461  11.568  1.7215  0.4789  0.1868
  477MOL0     H65769  10.126   9.220  11.693  0.0183  2.5972  1.5088
  477MOL0     H65770  10.035   9.231  11.534 -1.1639 -1.4725  1.6875
  477MOL0     H65771  10.216   9.390  11.477  3.1909  1.8776  1.1589
  477MOL0     H65772  10.290   9.230  11.501  0.4749 -0.2296  1.3835
  477MOL0     H65773  10.297   9.447  11.717  0.0985 -1.3530  0.4480
  477MOL0     H65774  10.388   9.296  11.711  1.4143  0.4058 -0.8455
  477MOL0     H65775  10.404   9.667  11.599 -0.2374  0.4314 -4.0281
  477MOL0     H65776  10.788   9.739  11.556  1.0922 -0.1187  1.5636
  477MOL0     H65777  10.697   9.768  11.704  1.6199  0.0117  0.0856
  477MOL0     H65778  10.553   9.813  11.449  0.1879 -0.0749 -0.3064
  477MOL0     H65779  10.533   9.886  11.600 -1.2690  0.5510 -1.5493
  477MOL0     H65780  10.741  10.008  11.595  0.2523 -1.3304 -0.0803
  477MOL0     H65781  10.784   9.941  11.435 -1.3589 -1.9710 -1.5809
  477MOL0     H65782  10.687  10.161  11.407  1.2107 -0.3341  2.7523
  477MOL0     H65783  10.586  10.034  11.328  0.7041 -0.4402  0.0140
  477MOL0     H65784  10.309  10.201  11.599  2.3290  3.1355  2.2159
  477MOL0     H65785  10.138  10.325  11.662 -2.0586  0.9501  0.5512
  477MOL0     H65786  10.027  10.323  11.523 -0.4905  1.0936 -0.5545
  477MOL0     H65787  10.110  10.466  11.566  0.8087 -0.2658  0.4876
  477MOL0     H65788   9.895  10.436  11.072  0.0914  0.5503  1.1044
  477MOL0     H65789   9.655  10.479  11.023 -2.9048  1.6770  0.0154
  477MOL0     H65790   9.310  10.593  11.156  2.6950  0.2766 -2.0806
  477MOL0     H65791   9.375  10.515  11.283  3.3466 -1.0512 -2.1166
  477MOL0     H65792   9.400  10.738  11.419  0.2303  1.4835 -0.5699
  477MOL0     H65793   9.372  10.823  11.268  1.4924 -2.0317 -3.3133
  477MOL0     H65794   9.158  10.656  11.385 -0.4464  1.9441  1.0040
  477MOL0     H65795   9.143  10.760  11.241 -1.7620 -0.5588  0.8735
  477MOL0     H65796   9.168  10.958  11.395 -0.7607  1.5006  2.3023
  477MOL0     H65797   9.199  10.841  11.528 -0.4655 -0.3559  0.0317
  477MOL0     H65798   8.948  10.932  11.489 -1.9705  0.0901 -1.5542
  477MOL0     H65799   8.945  10.807  11.360  2.4506 -4.5925  0.6348
  477MOL0     H65800   9.009  10.760  11.645  0.5861  3.8647 -3.0185
  477MOL0     H65801   8.997  10.627  11.534 -0.4748 -0.7026  1.1817
  477MOL0     H65802   8.804  10.635  11.661  2.3841  2.9596  3.4476
  477MOL0     H65803   8.764  10.664  11.494  0.9889 -1.6619  0.4841
  477MOL0     H65804   8.740  10.908  11.546  1.0979 -1.6144 -0.5605
  477MOL0     H65805   8.767  10.868  11.721 -0.3339 -1.3464  0.7929
  477MOL0     H65806   9.608  10.695  11.388  3.5046  1.0561  0.9069
  477MOL0     H65807   9.838  10.630  11.455  3.9801 -0.3739 -1.1015
  477MOL0     H65808  10.346  10.387  11.149 -2.4094 -2.5249 -1.4119
  477MOL0     H65809  10.542  10.260  11.252  0.1885 -0.5679  0.9504
  477MOL0     H65810   9.565   9.025  11.246 -0.3529 -0.0304  0.8643
  477MOL0     H65811   9.432   9.023  11.035  0.9724  0.3819  0.5525
  477MOL0     H65812   9.018   9.126  10.860  0.4509 -0.0170  0.3008
  477MOL0     H65813   8.869   9.111  10.677  1.2957 -1.8867  0.5438
  477MOL0     H65814   8.704   9.395  10.506 -0.9543 -1.7718 -0.7300
  477MOL0     H65815   8.841   9.466  10.408  1.4628 -1.1534  0.9302
  477MOL0     H65816   8.601   9.283  10.346 -1.3072 -0.1110 -1.3186
  477MOL0     H65817   8.747   9.275  10.241  0.5796  1.0102 -0.4490
  477MOL0     H65818   8.719   9.518  10.197 -0.6855  1.5932  0.9426
  477MOL0     H65819   8.611   9.410  10.120  2.5092 -2.6136  0.0121
  477MOL0     H65820   8.517   9.621  10.241  1.6808  0.8176  3.2704
  477MOL0     H65821   8.548   9.533  10.386 -1.6605  1.4375  0.6111
  477MOL0     H65822   8.199   9.338  10.229  0.7497  0.3016 -1.2223
  477MOL0     H65823   9.055   9.437  10.490  1.2712 -1.0956 -1.2820
  477MOL0     H65824   9.258   9.554  10.754  0.1626  1.1971 -1.1449
  477MOL0     H65825   9.345   9.439  10.642  1.1831  0.6540 -2.8642
  477MOL0     H65826   9.233   9.552  10.580 -0.4823  0.8306  1.2759
  478MOL0     O65827  10.968   5.280   4.286  0.8293  0.1672 -0.6149
  478MOL0     C65828  10.952   5.238   4.173  0.6462 -0.8711 -0.0927
  478MOL0     O65829  11.049   5.198   4.088  0.2126 -0.1540  0.1801
  478MOL0     C65830  11.184   5.218   4.126  0.0794 -0.8491  0.5347
  478MOL0     C65831  11.234   5.343   4.144  0.0029  0.3287  0.7282
  478MOL0     C65832  11.369   5.356   4.165 -0.6378 -0.3198 -0.7739
  478MOL0     C65833  11.456   5.246   4.171 -0.7302 -1.3003  0.4761
  478MOL0     O65834  11.589   5.264   4.207 -0.3841  0.2109 -0.0447
  478MOL0     C65835  11.685   5.160   4.204  0.9658  0.1567 -0.1759
  478MOL0     C65836  11.725   5.137   4.051  0.0070 -1.2224 -0.5450
  478MOL0     C65837  11.864   5.079   4.034  0.1331  0.8911  0.2781
  478MOL0     C65838  11.864   4.942   4.090 -0.3441 -0.4166 -0.1019
  478MOL0     C65839  11.998   4.881   4.100  0.3191  0.1979 -0.8105
  478MOL0     C65840  12.018   4.751   4.034  0.1399 -0.7623 -0.4577
  478MOL0     C65841  12.167   4.726   4.012  0.4568 -0.4580  0.1044
  478MOL0     C65842  12.178   4.613   3.922 -0.4698 -0.1049  0.2004
  478MOL0     N65843  12.320   4.561   3.907  0.4063 -0.4753 -0.1301
  478MOL0     C65844  12.398   4.488   3.996 -0.0988 -0.4947 -0.4475
  478MOL0     C65845  12.512   4.454   3.928  0.4135  0.1524 -0.4525
  478MOL0     C65846  12.629   4.368   3.969 -0.4282 -0.1779 -0.6052
  478MOL0     C65847  12.768   4.447   3.955  0.0597 -0.7809  0.1964
  478MOL0     C65848  12.886   4.350   3.947  0.3969  0.2179  0.5875
  478MOL0     C65849  13.030   4.416   3.922  0.9804 -0.4794 -0.5368
  478MOL0     O65850  13.019   4.509   3.816 -0.3842  0.2849  0.3520
  478MOL0     C65851  13.098   4.617   3.841 -0.6166  0.3531  0.7138
  478MOL0     C65852  13.027   4.738   3.867 -0.8307  0.3742 -0.0261
  478MOL0     C65853  13.105   4.848   3.889 -0.1940  0.1178 -0.6787
  478MOL0     C65854  13.021   4.978   3.905 -0.2593 -0.1892 -0.1076
  478MOL0     C65855  13.250   4.841   3.890 -0.5603 -0.4893  0.0201
  478MOL0     C65856  13.343   4.954   3.922  0.6246 -0.1733  0.0783
  478MOL0     O65857  13.470   4.945   3.881 -0.1834  0.5956 -0.2214
  478MOL0     C65858  13.571   5.043   3.906  0.2075 -0.2711 -0.0209
  478MOL0     C65859  13.556   5.182   3.921  0.2849 -0.2182  0.4305
  478MOL0     C65860  13.653   5.282   3.936  0.6811 -0.2879 -0.5530
  478MOL0     C65861  13.788   5.230   3.928  0.7593 -0.4644  0.2986
  478MOL0     O65862  13.899   5.313   3.916 -0.0936  0.3255  0.1846
  478MOL0     C65863  13.891   5.458   3.930  0.0254  0.9020 -0.0889
  478MOL0     C65864  14.003   5.538   3.866  0.5074 -0.4469  1.0897
  478MOL0     C65865  14.145   5.488   3.902 -0.4198 -0.1812 -0.9965
  478MOL0     C65866  14.243   5.421   3.807  0.0514 -0.0888  0.6009
  478MOL0     C65867  14.399   5.414   3.848  0.2942 -1.2936  0.1108
  478MOL0     C65868  14.493   5.341   3.758 -0.0601 -0.2044 -0.3143
  478MOL0     C65869  14.483   5.393   3.616  0.1442 -0.2258  1.2658
  478MOL0     C65870  14.618   5.382   3.530  0.1679  0.2065 -0.0167
  478MOL0    Cl65871  14.670   5.209   3.542  0.0920  0.2404 -0.1105
  478MOL0     C65872  13.810   5.094   3.935 -0.3298  0.0955  0.7662
  478MOL0     C65873  13.706   5.002   3.912 -0.0902  0.4157 -0.2881
  478MOL0     O65874  13.292   5.048   3.988 -0.5717 -0.3248 -0.8004
  478MOL0     C65875  13.315   4.713   3.865  0.5770  0.9474  0.6535
  478MOL0     C65876  13.234   4.605   3.843 -0.2432 -0.6683 -0.7187
  478MOL0     N65877  12.509   4.523   3.813 -0.0336 -0.0551  0.9046
  478MOL0     N65878  12.395   4.573   3.795  0.5873  0.1396 -0.1779
  478MOL0     C65879  11.411   5.124   4.149  0.1319  1.0888  0.2195
  478MOL0     C65880  11.274   5.107   4.131 -0.1141 -0.5217  0.8056
  478MOL0     C65881  10.808   5.234   4.131  0.6037 -0.2824  0.0592
  478MOL0     C65882  10.783   5.201   3.995 -0.4398 -0.1190 -0.6764
  478MOL0     C65883  10.651   5.194   3.943  0.5850 -0.5863  0.0701
  478MOL0     C65884  10.545   5.245   4.017 -0.1015  0.3165  0.8349
  478MOL0     O65885  10.423   5.231   3.955 -0.1714 -0.7916  0.5314
  478MOL0     C65886  10.379   5.340   3.873  0.0897  0.5481  0.4571
  478MOL0     C65887  10.337   5.467   3.952  1.0866 -0.9308  1.2530
  478MOL0     C65888  10.287   5.577   3.856  0.1167  0.0685  0.0021
  478MOL0     C65889  10.399   5.661   3.792  0.2073  0.0687  0.2020
  478MOL0     C65890  10.476   5.753   3.880  0.4506  0.8430  0.4403
  478MOL0     C65891  10.558   5.814   3.946 -0.4292  0.9609  0.5532
  478MOL0     C65892  10.571   5.248   4.155 -0.5296 -0.4788 -0.3721
  478MOL0     C65893  10.692   5.249   4.218  0.5686 -0.0203 -0.0020
  478MOL0     C65894  10.695   5.253   4.375  0.2567  0.0968  0.6580
  478MOL0     H65895  11.162   5.425   4.142  1.0679  1.2830 -0.5759
  478MOL0     H65896  11.408   5.458   4.168  2.4851 -1.3659 -1.7934
  478MOL0     H65897  11.666   5.064   4.253 -0.2883  0.6547  0.3510
  478MOL0     H65898  11.758   5.214   4.266 -0.7769 -0.2218  2.3269
  478MOL0     H65899  11.649   5.088   3.990 -1.3777 -2.3707  1.9657
  478MOL0     H65900  11.745   5.238   4.015  0.4064 -0.5727  1.3692
  478MOL0     H65901  11.889   5.074   3.927  0.0088  1.2330  0.2342
  478MOL0     H65902  11.926   5.144   4.096 -1.3539 -0.7818  3.7702
  478MOL0     H65903  11.840   4.947   4.196  0.5861  0.8380  0.0723
  478MOL0     H65904  11.792   4.872   4.047 -0.0716 -0.4554 -0.5065
  478MOL0     H65905  12.026   4.866   4.204 -0.8641 -0.6088 -0.5923
  478MOL0     H65906  12.068   4.960   4.070 -0.9144  1.3900 -0.6517
  478MOL0     H65907  11.985   4.664   4.091  1.7536  0.4135  2.5460
  478MOL0     H65908  11.957   4.750   3.943 -2.6091 -2.8347  1.2623
  478MOL0     H65909  12.210   4.688   4.105  0.0280 -0.8922  0.1318
  478MOL0     H65910  12.225   4.810   3.972  0.1928 -1.9465 -3.8806
  478MOL0     H65911  12.110   4.531   3.947 -1.9283  1.3398  1.1873
  478MOL0     H65912  12.140   4.646   3.825  0.4211  0.0118 -0.1155
  478MOL0     H65913  12.369   4.458   4.096 -1.6779 -1.1847 -1.0802
  478MOL0     H65914  12.624   4.279   3.905 -2.3742 -0.2820 -0.3778
  478MOL0     H65915  12.623   4.324   4.069 -2.2478 -0.4004 -0.7761
  478MOL0     H65916  12.766   4.516   3.870  0.2115 -0.5402  0.3855
  478MOL0     H65917  12.777   4.505   4.048  0.4598 -1.3395  0.5141
  478MOL0     H65918  12.885   4.283   4.033  0.0272 -2.0878 -1.1065
  478MOL0     H65919  12.866   4.273   3.872  1.6595 -2.2975  2.6597
  478MOL0     H65920  13.042   4.464   4.019  0.5687 -2.9518  0.8138
  478MOL0     H65921  13.106   4.338   3.907 -0.2942 -1.3052 -3.5603
  478MOL0     H65922  12.919   4.739   3.851 -0.6332 -1.3395 -1.9011
  478MOL0     H65923  13.008   5.003   4.010  1.5964  0.8745 -0.1040
  478MOL0     H65924  12.929   4.979   3.845 -0.2273  3.3603 -0.2983
  478MOL0     H65925  13.086   5.057   3.866  4.2135 -2.1454  2.6289
  478MOL0     H65926  13.451   5.205   3.907  0.6851  0.6059 -1.5790
  478MOL0     H65927  13.638   5.388   3.951 -0.4306 -0.5213  0.1155
  478MOL0     H65928  13.801   5.480   3.871  0.7190  1.3337 -1.0033
  478MOL0     H65929  13.884   5.482   4.036  1.1885  0.2602  0.1533
  478MOL0     H65930  13.997   5.515   3.759 -0.1666 -3.7823  1.7131
  478MOL0     H65931  13.991   5.644   3.888  0.8385 -0.9020  3.8405
  478MOL0     H65932  14.141   5.411   3.979 -0.1118  1.9453  1.3067
  478MOL0     H65933  14.193   5.580   3.938 -3.4856  0.6780  1.3085
  478MOL0     H65934  14.238   5.483   3.717  0.4293  0.8463  1.2050
  478MOL0     H65935  14.197   5.322   3.798  2.5401 -1.3208  0.3063
  478MOL0     H65936  14.446   5.512   3.863  0.2371 -0.9585 -1.7438
  478MOL0     H65937  14.402   5.362   3.945  2.7438 -0.6125  0.4738
  478MOL0     H65938  14.469   5.235   3.768 -0.7228 -0.0737 -0.4729
  478MOL0     H65939  14.596   5.373   3.781  0.6322 -3.1532  1.2741
  478MOL0     H65940  14.440   5.494   3.616 -0.1212 -0.3084  3.4048
  478MOL0     H65941  14.411   5.330   3.562  2.1835 -2.5464  1.1280
  478MOL0     H65942  14.699   5.450   3.554  0.3739  0.5831 -1.6602
  478MOL0     H65943  14.593   5.401   3.425 -0.7540  0.4699  0.2478
  478MOL0     H65944  13.910   5.051   3.934 -0.4912 -0.2926  0.2134
  478MOL0     H65945  13.733   4.897   3.914 -3.3777 -0.5815 -1.5108
  478MOL0     H65946  13.421   4.700   3.886  0.8154  0.6874 -0.6401
  478MOL0     H65947  13.288   4.512   3.830 -0.9257 -1.3566  1.0384
  478MOL0     H65948  11.468   5.033   4.159 -0.2902  0.8168  0.1924
  478MOL0     H65949  11.234   5.007   4.117  2.6581 -1.3679 -2.7018
  478MOL0     H65950  10.867   5.167   3.936 -0.0271  0.2211 -0.2953
  478MOL0     H65951  10.627   5.156   3.844  1.3293 -1.0637  0.0655
  478MOL0     H65952  10.450   5.370   3.795  0.3536 -0.5595  0.2558
  478MOL0     H65953  10.290   5.307   3.820 -0.6540  2.5781  0.3526
  478MOL0     H65954  10.424   5.513   4.001  1.0796  2.7330 -1.6860
  478MOL0     H65955  10.261   5.436   4.024 -1.5739 -1.2912 -1.4991
  478MOL0     H65956  10.242   5.531   3.767 -0.0482 -0.6207  0.4362
  478MOL0     H65957  10.218   5.649   3.900  4.2757  4.0723  0.6954
  478MOL0     H65958  10.359   5.733   3.720  0.9598  0.4195  0.1211
  478MOL0     H65959  10.477   5.610   3.735 -0.1400  2.3309 -2.5424
  478MOL0     H65960  10.624   5.867   4.011  0.7547  1.3300 -0.8922
  478MOL0     H65961  10.482   5.264   4.216  0.4131 -0.6808  1.0810
  478MOL0     H65962  10.593   5.248   4.416 -0.4166 -2.4360 -1.1105
  478MOL0     H65963  10.762   5.172   4.404 -3.1915 -2.3600  2.5001
  478MOL0     H65964  10.740   5.346   4.411  2.0211 -1.2682  2.1661
  479MOL0     O65965  10.829   5.152   4.707  0.1050 -0.7921  0.8712
  479MOL0     C65966  10.923   5.180   4.787  0.5801  0.1151 -0.3735
  479MOL0     O65967  10.994   5.087   4.851 -0.4658 -0.0025  0.5690
  479MOL0     C65968  10.982   4.948   4.835 -0.3541  0.6439  1.3464
  479MOL0     C65969  10.873   4.876   4.770 -0.0223  0.3992 -0.7078
  479MOL0     C65970  10.877   4.735   4.761 -0.5259  0.6612  0.6677
  479MOL0     C65971  10.970   4.659   4.833  0.1418 -0.6775  0.7486
  479MOL0     O65972  10.944   4.518   4.822 -0.2295 -1.0609 -0.0943
  479MOL0     C65973  11.041   4.432   4.883  0.1907  1.0770 -1.0410
  479MOL0     C65974  11.055   4.305   4.806  0.9207  0.0362 -0.2367
  479MOL0     C65975  11.184   4.228   4.843  0.6076  0.5983  0.0550
  479MOL0     C65976  11.233   4.121   4.740  0.6548 -0.1699 -0.3304
  479MOL0     C65977  11.358   4.031   4.778 -0.1834  0.5726 -0.6691
  479MOL0     C65978  11.465   4.097   4.859  0.1524 -0.3307  0.1316
  479MOL0     C65979  11.565   4.000   4.923  0.0511 -0.9938  0.0004
  479MOL0     C65980  11.675   4.071   4.998 -0.1686  0.4162 -0.2288
  479MOL0     N65981  11.765   4.131   4.908 -0.0068  0.3724  0.3663
  479MOL0     C65982  11.850   4.072   4.818 -0.3442 -0.2057  0.3241
  479MOL0     C65983  11.908   4.172   4.740  0.2468  0.6049  0.9499
  479MOL0     C65984  11.997   4.156   4.618  0.5996 -0.2871 -0.1707
  479MOL0     C65985  11.954   4.049   4.508 -0.1817 -0.0410 -0.4379
  479MOL0     C65986  11.828   4.091   4.433  0.2033  0.7541 -0.8372
  479MOL0     C65987  11.697   4.043   4.496 -0.2004  0.9023  0.7385
  479MOL0     O65988  11.582   4.058   4.406  0.2735  1.0792 -0.3941
  479MOL0     C65989  11.601   3.982   4.294  0.2408 -0.2698  0.5089
  479MOL0     C65990  11.647   3.849   4.283 -0.2852  0.8329  0.2042
  479MOL0     C65991  11.659   3.784   4.162 -0.0834  0.7436  0.2890
  479MOL0     C65992  11.695   3.635   4.151  0.1000 -0.2921 -0.0331
  479MOL0     C65993  11.620   3.857   4.046 -0.3120 -0.5284 -0.0124
  479MOL0     C65994  11.648   3.809   3.906 -0.8992  0.0729 -0.3518
  479MOL0     O65995  11.656   3.901   3.809  0.0755 -0.0492  0.0330
  479MOL0     C65996  11.637   3.858   3.677 -0.0946  0.8002 -0.1588
  479MOL0     C65997  11.719   3.762   3.608  0.0028 -0.3992 -0.4709
  479MOL0     C65998  11.687   3.728   3.476 -0.0908  0.3827  0.2924
  479MOL0     C65999  11.580   3.784   3.410 -0.1333  0.0416  0.4447
  479MOL0     O66000  11.559   3.754   3.277  0.2275 -0.6187  0.5438
  479MOL0     C66001  11.489   3.634   3.248  0.0382  0.8885 -0.4284
  479MOL0     C66002  11.424   3.651   3.108 -0.1823  0.4870  0.1147
  479MOL0     C66003  11.526   3.665   2.995 -0.5011 -0.2899  0.8839
  479MOL0     C66004  11.463   3.731   2.866 -0.3973 -0.1178  0.9748
  479MOL0     C66005  11.571   3.745   2.758  0.7236 -0.4711 -0.3682
  479MOL0     C66006  11.615   3.617   2.690  0.4419  0.8907  0.1700
  479MOL0     C66007  11.698   3.641   2.557  0.6653  0.0706  0.2816
  479MOL0     C66008  11.816   3.546   2.548  0.5797 -0.3725  0.5956
  479MOL0    Cl66009  11.940   3.593   2.670  0.0533 -0.2565 -0.1216
  479MOL0     C66010  11.517   3.893   3.466  0.5406 -0.8133 -0.3444
  479MOL0     C66011  11.549   3.929   3.595  0.1699  0.1480 -0.0523
  479MOL0     O66012  11.652   3.687   3.886 -0.2532  0.3448  0.0511
  479MOL0     C66013  11.568   3.989   4.051 -0.6012 -0.2731 -0.1241
  479MOL0     C66014  11.569   4.050   4.178  0.6055  1.1826  0.6995
  479MOL0     N66015  11.838   4.292   4.771  0.4499  0.1861 -0.7173
  479MOL0     N66016  11.763   4.264   4.879  0.0707 -0.4675 -0.1762
  479MOL0     C66017  11.074   4.725   4.905 -0.2080 -0.1918  0.9186
  479MOL0     C66018  11.067   4.864   4.900 -0.0731 -0.8818  1.3512
  479MOL0     C66019  10.927   5.326   4.803  0.4820  0.3453 -0.5363
  479MOL0     C66020  10.820   5.406   4.742 -1.2257  0.2361 -0.1297
  479MOL0     C66021  10.826   5.543   4.737  0.1049 -0.8438  0.8459
  479MOL0     C66022  10.934   5.614   4.795  0.4613 -0.3209 -0.1170
  479MOL0     O66023  10.932   5.754   4.783 -0.0926 -0.2888 -0.4128
  479MOL0     C66024  11.030   5.831   4.848 -0.1481  1.1146  0.5959
  479MOL0     C66025  11.001   5.991   4.826 -0.0017  0.4573 -0.0903
  479MOL0     C66026  10.854   6.049   4.843 -0.1219  0.7306  0.3159
  479MOL0     C66027  10.854   6.199   4.885  0.7048 -0.1385 -0.2756
  479MOL0     C66028  10.708   6.233   4.898 -0.7757 -0.5359 -0.2790
  479MOL0     C66029  10.592   6.275   4.919  0.0687  0.7049  0.1100
  479MOL0     C66030  11.032   5.544   4.861 -0.1325 -0.0569 -0.9723
  479MOL0     C66031  11.032   5.403   4.862  0.6297 -0.0300  0.7705
  479MOL0     C66032  11.159   5.341   4.910 -0.1278  0.3088 -0.0301
  479MOL0     H66033  10.787   4.917   4.720 -0.6897 -1.2184 -0.9467
  479MOL0     H66034  10.791   4.687   4.717  0.8438 -0.5010 -0.8579
  479MOL0     H66035  11.003   4.396   4.978 -2.4175 -1.6174 -2.9275
  479MOL0     H66036  11.136   4.485   4.895 -0.3737  1.6850  1.0998
  479MOL0     H66037  10.966   4.244   4.825  0.1509  0.8639 -1.1381
  479MOL0     H66038  11.053   4.331   4.700  0.6673 -2.7668 -1.0066
  479MOL0     H66039  11.265   4.299   4.863 -0.7412  1.8418  1.2798
  479MOL0     H66040  11.173   4.176   4.938  0.1130 -2.5350 -1.5702
  479MOL0     H66041  11.151   4.054   4.713 -0.0133  0.7914 -0.7529
  479MOL0     H66042  11.256   4.173   4.646 -0.8912  0.2710 -0.5052
  479MOL0     H66043  11.392   3.983   4.686  1.5099 -1.1430  0.7606
  479MOL0     H66044  11.324   3.952   4.844 -1.9425  1.0089 -1.0097
  479MOL0     H66045  11.515   4.165   4.788 -1.1372  0.1760 -0.3150
  479MOL0     H66046  11.414   4.148   4.941  0.7250  2.4774 -1.1469
  479MOL0     H66047  11.608   3.935   4.847 -3.2306 -2.1329 -1.0303
  479MOL0     H66048  11.520   3.930   4.993 -0.0798 -1.2617 -0.3500
  479MOL0     H66049  11.626   4.145   5.062 -1.9735  0.9981 -2.1659
  479MOL0     H66050  11.713   3.990   5.061 -0.8610  0.1082 -0.1915
  479MOL0     H66051  11.869   3.965   4.820  1.5359  0.1108  1.4272
  479MOL0     H66052  12.097   4.128   4.650  0.4665 -2.0143 -1.1401
  479MOL0     H66053  11.994   4.259   4.581 -1.2791 -0.2623 -0.0800
  479MOL0     H66054  12.041   4.045   4.441  1.1868  2.0389  1.0994
  479MOL0     H66055  11.947   3.951   4.557  2.4241 -0.7619 -1.3504
  479MOL0     H66056  11.829   4.200   4.425  1.3412  0.7174 -1.4442
  479MOL0     H66057  11.829   4.050   4.331  0.0235 -1.8695  0.1273
  479MOL0     H66058  11.704   3.940   4.530  0.7058  0.6317 -0.2248
  479MOL0     H66059  11.678   4.106   4.584 -1.0421  1.7332 -0.0200
  479MOL0     H66060  11.666   3.797   4.377 -0.8994  1.0475  0.4455
  479MOL0     H66061  11.615   3.584   4.096 -0.7142 -1.0512  1.7436
  479MOL0     H66062  11.691   3.599   4.254  0.7188 -0.7669 -0.1694
  479MOL0     H66063  11.792   3.625   4.101  0.1688 -0.3192  0.1053
  479MOL0     H66064  11.799   3.717   3.667  0.6860 -0.3161 -1.3025
  479MOL0     H66065  11.743   3.644   3.435 -1.8673 -0.9943  0.5870
  479MOL0     H66066  11.551   3.544   3.250 -1.2120 -0.0018  1.0036
  479MOL0     H66067  11.404   3.625   3.317  0.8661 -0.4054  0.4688
  479MOL0     H66068  11.364   3.566   3.074 -2.3202  1.7094  0.6681
  479MOL0     H66069  11.370   3.746   3.108  3.1747  2.6055 -1.3889
  479MOL0     H66070  11.570   3.568   2.969  0.6990 -0.3983  3.0686
  479MOL0     H66071  11.611   3.723   3.031  2.4715 -2.5765 -1.8537
  479MOL0     H66072  11.427   3.832   2.888 -0.5455 -0.2224  1.2239
  479MOL0     H66073  11.373   3.677   2.834 -0.2927 -0.2441  0.8908
  479MOL0     H66074  11.540   3.813   2.678  0.3772 -0.2393 -0.0376
  479MOL0     H66075  11.659   3.795   2.801  1.1487 -1.6994  0.2225
  479MOL0     H66076  11.530   3.557   2.656  2.2144 -0.6293 -1.7954
  479MOL0     H66077  11.678   3.549   2.748  1.0925 -0.3584 -1.8958
  479MOL0     H66078  11.743   3.740   2.549  0.0042  0.2751 -1.5045
  479MOL0     H66079  11.634   3.620   2.470 -0.4232  1.1845  0.7940
  479MOL0     H66080  11.857   3.552   2.447 -0.6289 -1.8591 -0.0188
  479MOL0     H66081  11.770   3.447   2.545 -0.4342  0.0953 -1.0896
  479MOL0     H66082  11.466   3.966   3.403  0.8746  1.2166  1.6330
  479MOL0     H66083  11.504   4.014   3.646 -2.3145  0.4013 -2.4134
  479MOL0     H66084  11.530   4.050   3.970 -0.9843 -1.5455 -0.9183
  479MOL0     H66085  11.518   4.145   4.193 -3.0052 -0.4974  0.2196
  479MOL0     H66086  11.158   4.686   4.961  1.5760  1.6924 -0.2650
  479MOL0     H66087  11.151   4.917   4.944  0.6231  0.4831 -1.3745
  479MOL0     H66088  10.735   5.353   4.699 -0.8558  0.3217 -1.0010
  479MOL0     H66089  10.756   5.605   4.682  1.8029  0.4524  0.0190
  479MOL0     H66090  11.039   5.806   4.954 -0.6548 -4.7177 -0.4276
  479MOL0     H66091  11.130   5.807   4.811 -0.2811 -0.9158  1.4120
  479MOL0     H66092  11.042   6.018   4.728 -2.5156 -0.8704 -1.6028
  479MOL0     H66093  11.067   6.044   4.895  1.3726  0.9208 -1.7073
  479MOL0     H66094  10.795   6.032   4.752 -0.7208 -1.5280  1.0597
  479MOL0     H66095  10.800   5.984   4.912  3.3330 -2.4142  0.3769
  479MOL0     H66096  10.904   6.249   4.802  1.2456  0.2381  0.2711
  479MOL0     H66097  10.919   6.211   4.972  2.7815  0.3868 -1.8388
  479MOL0     H66098  10.492   6.309   4.935 -0.2457 -0.9259  2.0263
  479MOL0     H66099  11.104   5.595   4.924 -1.4090  2.1985 -1.2399
  479MOL0     H66100  11.147   5.304   5.013  0.5556 -0.1976 -0.1303
  479MOL0     H66101  11.194   5.254   4.854  0.6924 -0.7320  1.9976
  479MOL0     H66102  11.238   5.417   4.901  1.4257 -1.2533 -0.0862
  480MOL0     O66103   3.293   4.629   1.410 -0.1396  0.0556  0.0998
  480MOL0     C66104   3.218   4.681   1.491  0.6220 -0.5152  0.3051
  480MOL0     O66105   3.250   4.777   1.584 -0.2245  0.4857  0.1358
  480MOL0     C66106   3.387   4.798   1.599  0.7320 -0.6913  0.3258
  480MOL0     C66107   3.434   4.817   1.736 -0.0434  0.4025  1.0948
  480MOL0     C66108   3.563   4.848   1.771 -0.4708 -0.1498  0.0353
  480MOL0     C66109   3.662   4.848   1.671 -0.2712  0.8547  0.1293
  480MOL0     O66110   3.795   4.845   1.690  0.0806  0.0190  0.1030
  480MOL0     C66111   3.851   4.833   1.824  0.3466 -0.0464 -0.2771
  480MOL0     C66112   4.004   4.826   1.828  0.6520  0.9588 -0.0398
  480MOL0     C66113   4.066   4.950   1.767  0.3424 -0.1635  0.1531
  480MOL0     C66114   4.219   4.976   1.769  0.0856 -0.0112 -0.1356
  480MOL0     C66115   4.281   4.898   1.663 -0.2431 -0.1908  0.4301
  480MOL0     C66116   4.437   4.908   1.682 -0.4417  0.7599  0.9163
  480MOL0     C66117   4.505   4.829   1.575  0.4636 -0.5165 -0.5573
  480MOL0     C66118   4.491   4.886   1.439  0.6634  0.0062 -0.2999
  480MOL0     N66119   4.538   5.023   1.429  0.4143  0.0750  0.5093
  480MOL0     C66120   4.462   5.139   1.432  0.2645 -0.2350  0.0231
  480MOL0     C66121   4.553   5.242   1.443 -0.6155  0.8370 -0.6041
  480MOL0     C66122   4.537   5.394   1.463  0.2564 -0.2579  0.2391
  480MOL0     C66123   4.437   5.415   1.573 -0.2755  0.0557 -0.4084
  480MOL0     C66124   4.477   5.350   1.709 -0.1132 -0.4055 -0.5152
  480MOL0     C66125   4.610   5.392   1.770  1.0464  0.4956 -0.4571
  480MOL0     O66126   4.623   5.352   1.905  0.3812 -0.9802 -0.1280
  480MOL0     C66127   4.724   5.265   1.943 -0.4643  0.8171 -1.1955
  480MOL0     C66128   4.735   5.130   1.907 -0.1124 -0.7814  0.2064
  480MOL0     C66129   4.838   5.046   1.958  0.9146  0.7367 -0.4720
  480MOL0     C66130   4.838   4.908   1.894 -0.4973 -0.5320 -0.1140
  480MOL0     C66131   4.942   5.104   2.042 -0.0110 -1.3329  0.1776
  480MOL0     C66132   5.070   5.032   2.076 -0.8150  1.0338  0.6633
  480MOL0     O66133   5.173   5.109   2.107 -0.4924  0.4758 -0.8321
  480MOL0     C66134   5.288   5.044   2.133  0.3261  0.5216 -0.9163
  480MOL0     C66135   5.312   5.004   2.263  0.1385 -0.3056 -0.0814
  480MOL0     C66136   5.417   4.922   2.304  0.0283  0.8214 -1.0176
  480MOL0     C66137   5.509   4.873   2.206 -0.1156  0.1555 -0.3131
  480MOL0     O66138   5.618   4.787   2.246 -0.3140 -0.4870  0.5423
  480MOL0     C66139   5.753   4.816   2.193  0.2131  0.1273 -0.6087
  480MOL0     C66140   5.856   4.845   2.299  0.2422 -0.6024 -0.2088
  480MOL0     C66141   5.870   4.729   2.400  1.2738 -0.5478  0.8466
  480MOL0     C66142   5.989   4.744   2.494  0.7086  0.6001  0.4755
  480MOL0     C66143   5.970   4.687   2.628  0.1983  1.1529 -0.5754
  480MOL0     C66144   6.080   4.715   2.733 -0.7306 -0.6090  0.0451
  480MOL0     C66145   6.232   4.705   2.702  0.0663  1.1024  0.1087
  480MOL0     C66146   6.268   4.579   2.630 -0.2413  0.7163 -0.0636
  480MOL0    Cl66147   6.258   4.456   2.744 -0.0648  0.0628 -0.5585
  480MOL0     C66148   5.486   4.913   2.073  0.0918  0.8417  0.9328
  480MOL0     C66149   5.380   5.000   2.030 -0.7234  0.0857  0.6913
  480MOL0     O66150   5.071   4.915   2.050 -0.2403  0.0841 -0.6356
  480MOL0     C66151   4.927   5.240   2.082  0.1515  0.2980 -0.4795
  480MOL0     C66152   4.812   5.314   2.036 -0.6572  0.2062  1.1161
  480MOL0     N66153   4.683   5.181   1.437  0.3406 -0.1864 -0.1817
  480MOL0     N66154   4.672   5.057   1.433  0.2548  0.1303 -0.1764
  480MOL0     C66155   3.612   4.849   1.535  0.0143 -0.1403 -0.4972
  480MOL0     C66156   3.481   4.828   1.500  0.3247 -0.4355 -0.6857
  480MOL0     C66157   3.072   4.648   1.472 -0.3641 -0.2400 -0.4100
  480MOL0     C66158   3.000   4.643   1.587 -0.7484  0.3237 -0.0432
  480MOL0     C66159   2.869   4.621   1.595  0.8521  0.4276  0.1594
  480MOL0     C66160   2.798   4.590   1.476 -0.1998  0.0599 -0.1511
  480MOL0     O66161   2.665   4.554   1.469 -0.4682  0.8173 -0.4944
  480MOL0     C66162   2.573   4.631   1.542 -0.3873  0.0861 -0.7513
  480MOL0     C66163   2.522   4.550   1.665 -0.8959 -0.4967  0.5390
  480MOL0     C66164   2.410   4.633   1.730 -0.0256  0.9128 -0.0266
  480MOL0     C66165   2.350   4.545   1.843  0.8577 -0.2748  0.0594
  480MOL0     C66166   2.220   4.613   1.880  0.8233  0.3838  0.3745
  480MOL0     C66167   2.112   4.659   1.914  1.0497  0.1901 -0.1769
  480MOL0     C66168   2.873   4.586   1.353  0.4579 -0.0454  0.6592
  480MOL0     C66169   3.006   4.615   1.348 -0.2341  1.4046  0.4290
  480MOL0     C66170   3.076   4.593   1.215  0.3817  0.7162 -0.1761
  480MOL0     H66171   3.372   4.818   1.825  2.1265 -0.3151  2.7088
  480MOL0     H66172   3.582   4.871   1.875  0.3646 -0.7808  0.0317
  480MOL0     H66173   3.807   4.750   1.880  0.8988 -0.8949 -1.0673
  480MOL0     H66174   3.834   4.920   1.888  1.8405 -0.0773  0.1951
  480MOL0     H66175   4.029   4.820   1.934  1.6416 -0.8405 -0.3249
  480MOL0     H66176   4.032   4.729   1.785  1.1275  1.2676 -0.4338
  480MOL0     H66177   4.028   4.958   1.665  1.2946 -0.4814 -0.2349
  480MOL0     H66178   4.032   5.031   1.832 -0.8529 -0.6054  0.1138
  480MOL0     H66179   4.243   5.081   1.753  0.0910 -0.2052 -1.5040
  480MOL0     H66180   4.255   4.950   1.870  1.2131  0.1508 -0.4791
  480MOL0     H66181   4.244   4.938   1.568 -0.0061  1.6279  1.0769
  480MOL0     H66182   4.254   4.792   1.674 -0.6168 -0.3085 -1.3295
  480MOL0     H66183   4.455   5.015   1.671 -1.4730  0.8430 -0.1110
  480MOL0     H66184   4.460   4.866   1.781 -1.2769  0.2939  0.9301
  480MOL0     H66185   4.454   4.733   1.567  0.4598 -0.7471  1.7978
  480MOL0     H66186   4.609   4.813   1.602 -0.4579 -2.1706  2.3576
  480MOL0     H66187   4.553   4.823   1.375  2.4535  1.2986  0.0913
  480MOL0     H66188   4.388   4.878   1.402  1.2205 -1.3901 -1.6954
  480MOL0     H66189   4.355   5.143   1.414  0.1305 -2.2543  0.1976
  480MOL0     H66190   4.500   5.431   1.367 -0.5193 -1.9872 -0.1621
  480MOL0     H66191   4.630   5.442   1.494  2.2430 -0.6323 -4.3554
  480MOL0     H66192   4.424   5.523   1.578  0.7191  0.1339  2.6879
  480MOL0     H66193   4.342   5.372   1.542 -0.5011  1.8501 -2.3892
  480MOL0     H66194   4.397   5.374   1.779  0.5602  2.0858 -0.5199
  480MOL0     H66195   4.486   5.241   1.702  1.1694 -0.2549 -1.9161
  480MOL0     H66196   4.695   5.349   1.717  0.9467 -3.3280  2.0750
  480MOL0     H66197   4.608   5.501   1.763  0.4668  0.3876 -2.7632
  480MOL0     H66198   4.662   5.077   1.847 -1.9020  0.1398  1.4689
  480MOL0     H66199   4.937   4.898   1.848 -0.7305  0.7560 -0.9397
  480MOL0     H66200   4.766   4.894   1.813  0.5528  0.7892 -1.3186
  480MOL0     H66201   4.824   4.824   1.963  0.3200  1.3491  2.5073
  480MOL0     H66202   5.241   5.025   2.343  0.0722 -3.0323  0.6846
  480MOL0     H66203   5.423   4.890   2.407 -0.2769  0.7912 -1.0074
  480MOL0     H66204   5.784   4.730   2.133 -2.4430 -1.0867 -0.3696
  480MOL0     H66205   5.752   4.905   2.129 -2.2528 -1.3023 -2.7578
  480MOL0     H66206   5.951   4.861   2.246 -1.8680 -2.8429 -5.3684
  480MOL0     H66207   5.824   4.936   2.351 -2.1972 -2.5357  1.8893
  480MOL0     H66208   5.879   4.642   2.335  0.1365 -0.5719  0.7028
  480MOL0     H66209   5.783   4.725   2.467  2.5877  0.6448  2.7527
  480MOL0     H66210   6.018   4.849   2.507  0.3182  0.4093  4.0335
  480MOL0     H66211   6.078   4.699   2.450  0.0726  1.1004 -1.4191
  480MOL0     H66212   5.868   4.718   2.651  0.1854  1.6350 -1.2259
  480MOL0     H66213   5.977   4.579   2.619  0.5632  1.2022 -0.9430
  480MOL0     H66214   6.062   4.654   2.822  0.9805  1.4069  1.8528
  480MOL0     H66215   6.072   4.819   2.765 -0.0921 -0.0850 -1.4186
  480MOL0     H66216   6.297   4.726   2.788 -0.2072 -1.3453  1.0016
  480MOL0     H66217   6.253   4.783   2.629 -1.9608  3.2183  1.6349
  480MOL0     H66218   6.368   4.584   2.587 -1.0074  1.1070 -1.8695
  480MOL0     H66219   6.206   4.563   2.542 -0.1494 -1.6959  0.2366
  480MOL0     H66220   5.554   4.867   2.002 -1.4451 -0.4199  0.2202
  480MOL0     H66221   5.381   5.037   1.928 -0.6493  2.1369  1.3946
  480MOL0     H66222   4.987   5.288   2.159 -1.4401  0.3746  0.7645
  480MOL0     H66223   4.809   5.417   2.070  1.0436  1.2102 -1.5172
  480MOL0     H66224   3.687   4.843   1.458  1.7371 -0.3933  1.1310
  480MOL0     H66225   3.457   4.817   1.395 -4.0129  2.5157 -0.2482
  480MOL0     H66226   3.045   4.657   1.685 -1.3258 -0.8653  0.4138
  480MOL0     H66227   2.817   4.625   1.691  0.5024  2.9878 -0.0573
  480MOL0     H66228   2.630   4.718   1.577 -1.4461  0.8862 -0.9868
  480MOL0     H66229   2.492   4.667   1.478 -1.5096  1.0443  1.1152
  480MOL0     H66230   2.603   4.529   1.735 -0.0528  3.7968  1.0927
  480MOL0     H66231   2.494   4.449   1.633  2.1836 -0.4209 -2.9892
  480MOL0     H66232   2.454   4.728   1.760  0.6050  0.6448 -0.0972
  480MOL0     H66233   2.336   4.651   1.651  3.0268  2.1205 -2.8088
  480MOL0     H66234   2.411   4.558   1.933 -0.2508  4.5519  0.3838
  480MOL0     H66235   2.325   4.444   1.810 -5.3506  1.3980 -1.5992
  480MOL0     H66236   2.016   4.681   1.956  0.7810  0.7732 -1.0813
  480MOL0     H66237   2.819   4.551   1.266 -0.8280 -0.3563  1.5518
  480MOL0     H66238   3.105   4.487   1.215 -3.0848 -0.3678  0.0435
  480MOL0     H66239   3.010   4.600   1.128  0.0298 -1.4678 -0.1502
  480MOL0     H66240   3.167   4.654   1.213  0.8193  0.1771  1.4991
  481MOL0     O66241   3.196   7.907   2.500 -0.0681 -0.3215  0.2770
  481MOL0     C66242   3.148   8.020   2.528  0.0310 -0.6556  0.3367
  481MOL0     O66243   3.161   8.134   2.456 -0.2800  0.1171 -0.5457
  481MOL0     C66244   3.257   8.131   2.363 -0.6951 -0.5714 -1.0664
  481MOL0     C66245   3.396   8.124   2.389 -0.0770  0.5589 -0.3062
  481MOL0     C66246   3.486   8.107   2.286 -0.0625  0.5581 -0.1672
  481MOL0     C66247   3.444   8.113   2.151 -0.2419  0.0111 -0.0537
  481MOL0     O66248   3.542   8.106   2.053  0.7234  0.0234 -0.5586
  481MOL0     C66249   3.500   8.139   1.922  0.3627  0.4478  1.2366
  481MOL0     C66250   3.632   8.127   1.826  0.9419 -0.5413 -1.0839
  481MOL0     C66251   3.755   8.195   1.876 -0.7665  0.5014 -0.1119
  481MOL0     C66252   3.881   8.147   1.796  0.6448  0.6807  0.5596
  481MOL0     C66253   4.005   8.222   1.838  0.1337 -0.0410  0.5885
  481MOL0     C66254   4.010   8.379   1.820 -1.1004 -0.0054  0.2784
  481MOL0     C66255   4.157   8.413   1.842 -0.3534 -0.6909  0.1605
  481MOL0     C66256   4.170   8.564   1.853 -0.1813  0.4201 -0.2205
  481MOL0     N66257   4.304   8.612   1.899  0.3497 -0.6064  0.1381
  481MOL0     C66258   4.424   8.552   1.881 -0.4272  0.0483 -0.3414
  481MOL0     C66259   4.516   8.647   1.918 -0.8443  0.3786  0.7878
  481MOL0     C66260   4.671   8.638   1.904 -0.1725  1.0604  0.1329
  481MOL0     C66261   4.731   8.507   1.845  0.6402 -0.4661  0.2768
  481MOL0     C66262   4.869   8.536   1.788  0.0617  1.1531 -0.5352
  481MOL0     C66263   4.966   8.556   1.901 -0.4399 -0.1205 -0.9148
  481MOL0     O66264   5.106   8.571   1.852  0.2938 -0.3303 -0.0256
  481MOL0     C66265   5.208   8.580   1.946  0.6744 -0.1683  0.3385
  481MOL0     C66266   5.189   8.605   2.082 -0.1187  0.5320 -0.8423
  481MOL0     C66267   5.292   8.610   2.183 -0.1572  0.0778 -0.2383
  481MOL0     C66268   5.242   8.649   2.320  0.0581  0.1209 -0.0607
  481MOL0     C66269   5.425   8.594   2.137  1.0506  0.4376  0.6432
  481MOL0     C66270   5.543   8.597   2.227 -0.0871 -0.3022  0.3419
  481MOL0     O66271   5.662   8.592   2.159 -0.1659 -0.3397 -0.1542
  481MOL0     C66272   5.785   8.620   2.214 -0.3106  0.5868  0.2206
  481MOL0     C66273   5.810   8.675   2.335 -0.8311 -0.3571  0.4622
  481MOL0     C66274   5.946   8.723   2.365  0.8216 -0.1792  0.0893
  481MOL0     C66275   6.048   8.692   2.277  0.7498 -0.1466  0.7801
  481MOL0     O66276   6.172   8.745   2.294 -0.2048  0.2117  0.0169
  481MOL0     C66277   6.230   8.775   2.421  0.4062 -0.3275 -0.4771
  481MOL0     C66278   6.378   8.772   2.429  0.2888 -0.0489 -0.2681
  481MOL0     C66279   6.445   8.642   2.390  0.1834 -0.2663 -0.4994
  481MOL0     C66280   6.598   8.665   2.359 -0.2654  0.3097 -0.1678
  481MOL0     C66281   6.671   8.531   2.326 -0.4060 -0.9617 -0.5727
  481MOL0     C66282   6.819   8.555   2.307 -0.3302 -0.8129  0.6012
  481MOL0     C66283   6.887   8.445   2.222  0.2857 -0.5922 -0.0951
  481MOL0     C66284   6.925   8.325   2.310 -0.0162 -1.7226 -0.3580
  481MOL0    Cl66285   7.051   8.231   2.228 -0.1542 -0.0624  0.1635
  481MOL0     C66286   6.025   8.620   2.157  0.3766  0.2939  0.5211
  481MOL0     C66287   5.895   8.590   2.124  0.9086  0.1796 -0.4041
  481MOL0     O66288   5.533   8.613   2.352 -0.6393 -0.5937 -0.4161
  481MOL0     C66289   5.448   8.542   2.000  0.8203  0.0958  0.2498
  481MOL0     C66290   5.338   8.536   1.905 -0.3597 -0.1324  0.0158
  481MOL0     N66291   4.449   8.760   1.960 -0.0827 -0.1875  0.3216
  481MOL0     N66292   4.321   8.737   1.945 -0.4054 -0.2505  0.8841
  481MOL0     C66293   3.305   8.119   2.129 -0.5047 -0.0168  0.9537
  481MOL0     C66294   3.212   8.119   2.237 -0.7531  0.0716  0.2757
  481MOL0     C66295   3.045   8.030   2.634 -0.2131  0.3652 -0.5170
  481MOL0     C66296   2.981   8.153   2.652  0.7625 -0.1828 -0.1368
  481MOL0     C66297   2.879   8.174   2.738  0.3274  0.1598 -0.3587
  481MOL0     C66298   2.831   8.071   2.820 -0.1326  0.2660  0.2830
  481MOL0     O66299   2.738   8.098   2.912  0.0288  0.2357  0.3415
  481MOL0     C66300   2.711   7.999   3.015  0.1623 -0.0552  0.7212
  481MOL0     C66301   2.586   8.044   3.088  0.1870  0.2819 -0.3761
  481MOL0     C66302   2.567   7.975   3.225  0.3513 -0.3752 -0.2065
  481MOL0     C66303   2.530   7.830   3.228  0.5197 -0.4593  0.0926
  481MOL0     C66304   2.402   7.800   3.158 -0.0690 -0.1253 -0.8762
  481MOL0     C66305   2.299   7.760   3.106 -0.0733  0.8003  0.3648
  481MOL0     C66306   2.882   7.947   2.793  0.6625  0.2989  0.7158
  481MOL0     C66307   2.995   7.924   2.716 -0.2232 -0.5721  0.7206
  481MOL0     C66308   3.062   7.791   2.709  0.1067 -0.3143 -0.3171
  481MOL0     H66309   3.438   8.125   2.489 -1.8117  0.0208  0.4577
  481MOL0     H66310   3.589   8.100   2.321 -0.6069 -0.8887  1.2323
  481MOL0     H66311   3.463   8.242   1.921  0.2566  0.4154 -0.0943
  481MOL0     H66312   3.427   8.076   1.870 -0.4840  3.0455 -1.0312
  481MOL0     H66313   3.645   8.019   1.812  0.9690 -0.4184 -2.0802
  481MOL0     H66314   3.603   8.176   1.733 -0.8844 -0.1974 -0.3702
  481MOL0     H66315   3.745   8.304   1.875  0.7454  0.6865  0.9268
  481MOL0     H66316   3.773   8.172   1.981  0.4690  3.2336  0.3538
  481MOL0     H66317   3.902   8.041   1.809 -1.1424 -0.2484 -2.8713
  481MOL0     H66318   3.868   8.155   1.688  0.0093 -0.0587  0.5729
  481MOL0     H66319   4.085   8.174   1.781  1.1090  2.4900 -0.3141
  481MOL0     H66320   4.044   8.193   1.935 -1.4060  1.1337  1.6078
  481MOL0     H66321   3.976   8.413   1.721  1.2919 -0.6884 -0.8359
  481MOL0     H66322   3.950   8.417   1.903 -1.4495 -3.6677  1.8948
  481MOL0     H66323   4.221   8.360   1.770  3.5746  0.0893  2.7534
  481MOL0     H66324   4.188   8.370   1.937 -2.7965 -1.8328  0.5180
  481MOL0     H66325   4.142   8.615   1.761  0.7162  3.4387  1.0417
  481MOL0     H66326   4.098   8.592   1.931  1.3198  0.4392  1.2286
  481MOL0     H66327   4.439   8.450   1.847  2.1945  0.2619 -0.0603
  481MOL0     H66328   4.702   8.645   2.008 -1.2691 -0.9175  0.6429
  481MOL0     H66329   4.708   8.722   1.844  1.9287 -1.4862 -2.4815
  481MOL0     H66330   4.730   8.427   1.920 -0.2559  1.1977  2.1306
  481MOL0     H66331   4.668   8.478   1.761  1.0092  1.0412 -0.5560
  481MOL0     H66332   4.900   8.451   1.726 -0.5719 -0.7088  1.5795
  481MOL0     H66333   4.866   8.631   1.734  0.1047  1.2451 -0.3759
  481MOL0     H66334   4.951   8.649   1.956  0.4100 -1.2812  1.4254
  481MOL0     H66335   4.953   8.473   1.971 -0.7854  1.9391  1.6017
  481MOL0     H66336   5.086   8.625   2.111 -0.3488  1.0606 -1.9719
  481MOL0     H66337   5.133   8.656   2.327  0.2544  3.8977  1.8344
  481MOL0     H66338   5.297   8.737   2.355  0.0872  0.2875 -0.5281
  481MOL0     H66339   5.242   8.568   2.394 -1.7628  0.1741  0.0462
  481MOL0     H66340   5.732   8.701   2.406 -2.5108  3.3219 -2.3696
  481MOL0     H66341   5.954   8.760   2.467 -0.4569 -0.7750  0.4287
  481MOL0     H66342   6.199   8.874   2.453  0.5767 -0.4809  0.1730
  481MOL0     H66343   6.182   8.714   2.498 -0.6145  0.1006 -0.7485
  481MOL0     H66344   6.415   8.857   2.370  1.2735 -0.0074  0.3882
  481MOL0     H66345   6.404   8.785   2.534 -0.9479 -0.9774  0.1758
  481MOL0     H66346   6.390   8.600   2.305 -0.5062  1.0252 -0.7145
  481MOL0     H66347   6.437   8.580   2.479  0.8767  2.1560  1.3519
  481MOL0     H66348   6.646   8.705   2.449 -1.7353 -0.5937  1.0733
  481MOL0     H66349   6.602   8.741   2.281 -0.0759 -0.4629 -0.9279
  481MOL0     H66350   6.671   8.466   2.414  0.4027 -1.0667 -0.6408
  481MOL0     H66351   6.620   8.488   2.239 -2.4789  0.0848  0.0682
  481MOL0     H66352   6.874   8.563   2.402  1.6399  1.2911 -0.5988
  481MOL0     H66353   6.839   8.651   2.258  3.2650 -1.6527  0.1230
  481MOL0     H66354   6.972   8.477   2.162 -1.3408  1.9788 -1.1769
  481MOL0     H66355   6.810   8.404   2.157 -1.7459 -0.9774  2.3763
  481MOL0     H66356   6.846   8.252   2.329 -4.2269  2.5354  0.4113
  481MOL0     H66357   6.971   8.355   2.405  1.8289  1.2144 -2.0388
  481MOL0     H66358   6.106   8.585   2.094 -1.9064 -2.2195 -1.2522
  481MOL0     H66359   5.868   8.540   2.032  0.0748  0.9783 -0.6035
  481MOL0     H66360   5.547   8.512   1.970  0.0050  0.2722 -2.9463
  481MOL0     H66361   5.369   8.504   1.806  2.0562  1.2000  0.2615
  481MOL0     H66362   3.265   8.122   2.028 -0.8719  2.2778  1.1105
  481MOL0     H66363   3.105   8.125   2.215 -0.6364  1.0812 -0.0841
  481MOL0     H66364   3.002   8.233   2.583 -0.5262  2.7431  2.6130
  481MOL0     H66365   2.841   8.276   2.740 -1.3325 -0.4211  2.1821
  481MOL0     H66366   2.694   7.900   2.972 -1.0311  0.9193 -1.2551
  481MOL0     H66367   2.795   7.985   3.083  0.2406 -2.6560  0.1691
  481MOL0     H66368   2.503   8.022   3.019  0.9084 -1.6832 -0.6816
  481MOL0     H66369   2.587   8.151   3.109  1.1044 -0.0059  1.1821
  481MOL0     H66370   2.655   7.991   3.287  0.2913  0.5411 -0.3476
  481MOL0     H66371   2.493   8.033   3.282  1.1571 -2.5897  3.4064
  481MOL0     H66372   2.511   7.793   3.330  1.9941 -1.9104 -0.1256
  481MOL0     H66373   2.613   7.773   3.185 -0.5421 -2.0194  0.0018
  481MOL0     H66374   2.221   7.711   3.051  0.5014  1.7140 -1.3056
  481MOL0     H66375   2.831   7.864   2.840 -0.1157 -0.7972 -1.8962
  481MOL0     H66376   3.025   7.724   2.786  0.8165 -0.0904  0.2255
  481MOL0     H66377   3.040   7.734   2.618  1.4278  1.0924 -1.5773
  481MOL0     H66378   3.168   7.802   2.734 -0.3408 -2.0859  2.7994
  482MOL0     O66379   2.253   0.273   3.727  0.2630  0.1635 -0.3635
  482MOL0     C66380   2.213   0.274   3.611  0.3069  0.5050  0.7676
  482MOL0     O66381   2.280   0.342   3.511  0.1473 -0.4514 -0.1007
  482MOL0     C66382   2.389   0.424   3.527 -1.0636 -0.1352 -0.0026
  482MOL0     C66383   2.436   0.454   3.398 -0.4892 -0.7318  0.0404
  482MOL0     C66384   2.541   0.546   3.380  0.0565  0.9775  0.0348
  482MOL0     C66385   2.602   0.596   3.494  0.0291 -0.8785 -0.0092
  482MOL0     O66386   2.711   0.683   3.489  0.3703  0.0355 -1.0701
  482MOL0     C66387   2.759   0.733   3.366  0.3272 -0.8970  0.4035
  482MOL0     C66388   2.875   0.830   3.396 -1.0646  0.0056 -0.3871
  482MOL0     C66389   2.933   0.892   3.269  0.3424 -0.5087  0.7132
  482MOL0     C66390   3.071   0.960   3.302  0.5551  0.4932  0.2409
  482MOL0     C66391   3.162   1.004   3.183 -0.7370  0.6261 -0.4631
  482MOL0     C66392   3.216   0.896   3.083 -0.1369 -0.7557 -0.4894
  482MOL0     C66393   3.321   0.967   2.991 -0.4737  0.6568 -0.0221
  482MOL0     C66394   3.390   0.860   2.912  0.3271  0.4199 -0.2954
  482MOL0     N66395   3.464   0.916   2.803 -0.3746  0.7406 -1.2763
  482MOL0     C66396   3.559   1.013   2.822 -0.3979  0.3782  1.1143
  482MOL0     C66397   3.586   1.049   2.688 -0.9352 -0.3243  0.3969
  482MOL0     C66398   3.668   1.163   2.643  0.3972 -0.5077  0.6086
  482MOL0     C66399   3.590   1.296   2.660  0.4007 -0.5215  0.3795
  482MOL0     C66400   3.682   1.413   2.606  0.6421  0.1426  0.3162
  482MOL0     C66401   3.805   1.438   2.700  0.5298  0.5164 -0.0627
  482MOL0     O66402   3.869   1.552   2.647 -0.1755 -0.9143  0.1560
  482MOL0     C66403   3.880   1.674   2.715 -0.3082 -0.6987  0.3253
  482MOL0     C66404   3.949   1.771   2.642  0.5307 -0.3512  1.0959
  482MOL0     C66405   3.976   1.892   2.700 -0.9878 -1.1966 -0.0399
  482MOL0     C66406   4.055   1.991   2.620 -0.7220 -0.4213  0.0910
  482MOL0     C66407   3.930   1.921   2.837 -0.6711 -0.3093  0.0815
  482MOL0     C66408   3.962   2.041   2.924  0.6766  0.4962  0.8816
  482MOL0     O66409   3.912   2.057   3.050 -0.3653 -0.5639  0.0757
  482MOL0     C66410   3.939   2.165   3.138 -0.1316  0.3555  0.3845
  482MOL0     C66411   3.856   2.285   3.139 -0.1070 -0.5959  0.1075
  482MOL0     C66412   3.875   2.375   3.246  0.1546 -0.0348  0.4660
  482MOL0     C66413   3.984   2.358   3.338  0.1278  0.5160  0.1256
  482MOL0     O66414   4.017   2.447   3.427  0.3066 -0.2270  0.1527
  482MOL0     C66415   3.922   2.556   3.461 -1.5344  0.2276  0.5691
  482MOL0     C66416   4.007   2.649   3.556 -0.0516  0.3225 -0.0172
  482MOL0     C66417   3.950   2.788   3.568 -0.3843  0.5359  0.7648
  482MOL0     C66418   4.026   2.882   3.674  0.4205 -1.0117 -0.7974
  482MOL0     C66419   3.950   3.017   3.671  0.5995 -0.0149  0.1931
  482MOL0     C66420   4.016   3.114   3.769 -0.3263  0.4394 -0.7336
  482MOL0     C66421   3.979   3.259   3.727 -1.2295  0.5412 -0.4310
  482MOL0     C66422   4.106   3.353   3.746  0.2174 -0.1070  0.0181
  482MOL0    Cl66423   4.207   3.312   3.889  0.0649 -0.5069  0.1198
  482MOL0     C66424   4.064   2.249   3.328  0.5313  0.1207 -0.1352
  482MOL0     C66425   4.035   2.152   3.231  0.0345  0.4876 -0.1738
  482MOL0     O66426   4.050   2.114   2.874  0.3686 -0.0252 -0.0912
  482MOL0     C66427   3.862   1.824   2.905 -0.6697 -0.2294 -0.5766
  482MOL0     C66428   3.833   1.708   2.846 -0.3289 -0.0064  0.5036
  482MOL0     N66429   3.531   0.952   2.607  0.1683  0.4626  1.0706
  482MOL0     N66430   3.472   0.867   2.677 -0.2908 -0.0043 -0.5728
  482MOL0     C66431   2.557   0.568   3.621 -0.8583  0.6224  0.4581
  482MOL0     C66432   2.457   0.475   3.641 -0.6309 -0.2655  0.4036
  482MOL0     C66433   2.103   0.177   3.571  0.5021 -0.6382  0.2196
  482MOL0     C66434   2.050   0.195   3.443 -0.5753 -0.0055  0.2424
  482MOL0     C66435   1.962   0.101   3.398 -0.1767  0.2007  0.4822
  482MOL0     C66436   1.911  -0.013   3.470 -0.9407 -1.0418  0.2402
  482MOL0     O66437   1.814  -0.089   3.421 -1.0266  0.2397  0.3232
  482MOL0     C66438   1.755  -0.192   3.490  0.0757  0.8328  0.6292
  482MOL0     C66439   1.661  -0.247   3.397  0.2945 -0.8746 -0.3386
  482MOL0     C66440   1.598  -0.375   3.449 -0.1317 -1.0810  0.1585
  482MOL0     C66441   1.475  -0.424   3.360 -0.5616 -0.2531 -0.3170
  482MOL0     C66442   1.528  -0.515   3.256 -0.0680 -0.1449 -0.2032
  482MOL0     C66443   1.558  -0.575   3.153  0.3622  0.2109  0.2723
  482MOL0     C66444   1.955  -0.023   3.599  0.1056  0.0199 -0.1567
  482MOL0     C66445   2.059   0.070   3.647 -0.1832  0.7931 -0.1247
  482MOL0     C66446   2.102   0.048   3.784 -0.8775 -0.5530 -0.1286
  482MOL0     H66447   2.386   0.414   3.310 -0.5028  0.1745 -0.3680
  482MOL0     H66448   2.571   0.567   3.278 -0.4775 -0.3453 -0.4221
  482MOL0     H66449   2.688   0.801   3.317  2.9874 -0.0603 -2.6486
  482MOL0     H66450   2.783   0.648   3.302 -1.8247 -1.5253  0.3826
  482MOL0     H66451   2.856   0.913   3.464  5.2998  1.6733  0.0705
  482MOL0     H66452   2.951   0.771   3.448 -1.3167  0.1559  0.1595
  482MOL0     H66453   2.944   0.815   3.193 -1.3497  1.7544 -2.0240
  482MOL0     H66454   2.872   0.962   3.211  1.7940  0.5131  0.3653
  482MOL0     H66455   3.050   1.042   3.371 -2.3527  1.0420 -1.1295
  482MOL0     H66456   3.136   0.883   3.345  1.6090  0.0486 -1.9994
  482MOL0     H66457   3.249   1.055   3.225 -0.6091 -0.3194  0.4870
  482MOL0     H66458   3.106   1.082   3.131  0.2313  0.8755 -1.1561
  482MOL0     H66459   3.270   0.814   3.131 -0.6576 -1.0454 -0.3957
  482MOL0     H66460   3.129   0.866   3.025  0.8037 -1.5540 -1.5438
  482MOL0     H66461   3.395   1.018   3.052 -0.1729  2.6859 -1.9454
  482MOL0     H66462   3.273   1.037   2.922 -1.2127 -2.2849 -2.7367
  482MOL0     H66463   3.447   0.803   2.985 -0.5419  0.8643  0.7722
  482MOL0     H66464   3.318   0.788   2.872  1.6285 -0.9211 -0.2799
  482MOL0     H66465   3.606   1.065   2.904  0.6437  2.3744 -0.6595
  482MOL0     H66466   3.689   1.147   2.537  0.8333 -0.3435  0.6695
  482MOL0     H66467   3.760   1.169   2.702 -0.8953 -0.9211  2.8036
  482MOL0     H66468   3.499   1.299   2.598  1.7189 -0.2594 -1.6330
  482MOL0     H66469   3.571   1.319   2.765 -3.3557 -0.2040 -0.1984
  482MOL0     H66470   3.703   1.397   2.500 -3.5893  1.1301 -0.8449
  482MOL0     H66471   3.621   1.503   2.604 -2.8618 -2.0752  0.2325
  482MOL0     H66472   3.756   1.444   2.798  1.3680 -1.2305  0.5048
  482MOL0     H66473   3.878   1.358   2.717 -1.0430 -1.4190 -1.9769
  482MOL0     H66474   3.983   1.753   2.541 -1.6564  1.3056 -0.0111
  482MOL0     H66475   4.153   2.012   2.663 -1.4166 -0.6390  1.8665
  482MOL0     H66476   4.002   2.086   2.610 -2.5308 -1.5065 -1.0497
  482MOL0     H66477   4.067   1.953   2.518 -2.3250 -4.3457  1.1483
  482MOL0     H66478   3.786   2.302   3.057 -0.5583 -3.5633 -0.2308
  482MOL0     H66479   3.826   2.470   3.228 -1.1578 -0.4399  1.7373
  482MOL0     H66480   3.887   2.610   3.373 -0.6046 -0.6683 -0.3735
  482MOL0     H66481   3.835   2.523   3.518 -0.9864 -1.2899  0.5733
  482MOL0     H66482   4.004   2.604   3.656  0.1165  1.0707  0.3258
  482MOL0     H66483   4.114   2.661   3.538  0.0907 -1.0369 -0.1785
  482MOL0     H66484   3.841   2.791   3.575 -0.7801  1.5374 -3.1339
  482MOL0     H66485   3.957   2.840   3.471 -1.2796  0.8710  0.8680
  482MOL0     H66486   4.133   2.891   3.650  0.4731 -0.9399 -0.5394
  482MOL0     H66487   4.025   2.833   3.772  1.5267  0.3300 -0.0773
  482MOL0     H66488   3.956   3.044   3.565  0.3287 -1.8838 -0.3403
  482MOL0     H66489   3.846   3.007   3.703  0.4282  1.7223  0.2423
  482MOL0     H66490   4.125   3.105   3.760 -0.5061 -1.3740 -1.6752
  482MOL0     H66491   4.000   3.094   3.875 -2.4230  2.7924 -0.5401
  482MOL0     H66492   3.897   3.294   3.791 -0.6673 -1.5281  1.5571
  482MOL0     H66493   3.940   3.264   3.625  0.4387 -1.6437 -1.2500
  482MOL0     H66494   4.069   3.456   3.750 -0.6524 -0.3953 -0.4377
  482MOL0     H66495   4.163   3.343   3.653 -1.3659 -1.9789 -0.8357
  482MOL0     H66496   4.158   2.239   3.382  0.4016  1.8164  0.4470
  482MOL0     H66497   4.087   2.057   3.242 -1.3969 -0.8621 -3.5538
  482MOL0     H66498   3.824   1.834   3.007  0.5155 -0.1017 -0.1310
  482MOL0     H66499   3.785   1.633   2.909  0.3424  0.7507  1.9619
  482MOL0     H66500   2.587   0.620   3.711 -1.2093  0.2191  0.8097
  482MOL0     H66501   2.420   0.448   3.739 -0.1868  0.5586  0.8067
  482MOL0     H66502   2.092   0.264   3.370  1.4300 -1.1729  0.1968
  482MOL0     H66503   1.932   0.110   3.294  1.6859  2.3619  0.0741
  482MOL0     H66504   1.831  -0.265   3.517 -0.2797 -0.0022 -0.5979
  482MOL0     H66505   1.704  -0.160   3.582 -3.1262 -2.9580  0.4452
  482MOL0     H66506   1.712  -0.261   3.301  0.3236  3.9149 -1.2564
  482MOL0     H66507   1.588  -0.173   3.365 -1.9714 -2.1651  1.5091
  482MOL0     H66508   1.674  -0.452   3.466  1.9681  0.9599  0.5173
  482MOL0     H66509   1.548  -0.356   3.544 -2.6918 -2.6325 -0.7584
  482MOL0     H66510   1.425  -0.337   3.318  0.1945  0.3685  0.0506
  482MOL0     H66511   1.411  -0.493   3.416  1.3733 -3.5046 -1.8060
  482MOL0     H66512   1.568  -0.638   3.067 -0.8079  0.9577 -0.4333
  482MOL0     H66513   1.907  -0.097   3.662  0.9268 -0.9660 -0.6514
  482MOL0     H66514   2.058  -0.046   3.817 -2.4271 -0.6139 -2.1657
  482MOL0     H66515   2.210   0.036   3.797 -0.6451  1.1356 -0.2278
  482MOL0     H66516   2.080   0.138   3.843  0.7153 -0.6899  0.7188
  483MOL0     O66517   5.188   7.047   0.336  0.0121 -0.0284 -0.1784
  483MOL0     C66518   5.177   7.044   0.213 -0.4569 -0.0491  0.1874
  483MOL0     O66519   5.264   7.104   0.124  0.4994  0.8099 -0.7433
  483MOL0     C66520   5.349   7.199   0.166 -0.1477 -0.6306 -0.2942
  483MOL0     C66521   5.440   7.221   0.066  0.5032 -0.7936  0.7144
  483MOL0     C66522   5.525   7.338   0.067 -0.4866 -0.6102 -0.0234
  483MOL0     C66523   5.534   7.416   0.188 -0.3327 -0.2919  0.8071
  483MOL0     O66524   5.625   7.529   0.183 -0.3925 -0.0260 -0.6910
  483MOL0     C66525   5.623   7.614   0.302 -0.8540  0.2840 -0.2154
  483MOL0     C66526   5.740   7.713   0.306  0.5198  0.7498 -0.2606
  483MOL0     C66527   5.868   7.641   0.306 -0.0389 -0.1107 -0.0739
  483MOL0     C66528   5.955   7.675   0.189 -0.0091 -0.5890  0.0874
  483MOL0     C66529   6.102   7.609   0.196  0.3922  0.9117  0.0360
  483MOL0     C66530   6.207   7.702   0.130 -0.0051 -0.4894  0.2270
  483MOL0     C66531   6.348   7.642   0.112  0.7416 -0.5235 -0.6387
  483MOL0     C66532   6.451   7.745   0.077  0.2252 -0.1560  0.4240
  483MOL0     N66533   6.581   7.678   0.058  0.2100  0.0541  0.4242
  483MOL0     C66534   6.653   7.601   0.150 -0.2799 -0.2162  1.4316
  483MOL0     C66535   6.742   7.531   0.081 -0.3896 -0.3967 -0.0976
  483MOL0     C66536   6.840   7.425   0.131  0.3653 -0.1829  0.2105
  483MOL0     C66537   6.994   7.457   0.108 -0.0025  0.3119  0.2647
  483MOL0     C66538   7.037   7.571   0.195 -0.4028  0.3671  0.0204
  483MOL0     C66539   7.182   7.606   0.167  0.0595 -0.3235  0.6942
  483MOL0     O66540   7.206   7.721   0.247 -0.1608  0.5664 -0.4904
  483MOL0     C66541   7.336   7.758   0.267  0.5286 -0.3344  0.7686
  483MOL0     C66542   7.456   7.680   0.246  0.5876  0.9982 -0.8414
  483MOL0     C66543   7.582   7.738   0.256  0.1595 -0.7548 -0.0658
  483MOL0     C66544   7.702   7.638   0.234 -0.4188  0.3483 -0.6391
  483MOL0     C66545   7.601   7.869   0.291 -0.2047  0.2993 -0.1024
  483MOL0     C66546   7.731   7.930   0.296  0.6118 -1.0753 -0.3214
  483MOL0     O66547   7.836   7.894   0.209 -0.3392 -0.4296 -0.5090
  483MOL0     C66548   7.959   7.948   0.220 -0.6391  0.0343  0.6118
  483MOL0     C66549   8.039   7.956   0.105 -0.2896  0.5150 -0.1142
  483MOL0     C66550   8.167   8.009   0.103 -0.1651 -0.0045 -0.1428
  483MOL0     C66551   8.217   8.054   0.224  0.2702  1.3448  0.1926
  483MOL0     O66552   8.340   8.112   0.215  0.2117 -0.9714  0.3534
  483MOL0     C66553   8.346   8.244   0.273  0.0488  0.2844  0.7043
  483MOL0     C66554   8.295   8.356   0.180  0.7250 -0.4044 -0.2403
  483MOL0     C66555   8.346   8.497   0.224 -0.1754  0.9318  0.3862
  483MOL0     C66556   8.350   8.585   0.101 -0.5079  0.2372  0.0731
  483MOL0     C66557   8.417   8.719   0.168  0.0464  1.1481 -0.0167
  483MOL0     C66558   8.436   8.840   0.081 -0.4274 -0.3332  0.7756
  483MOL0     C66559   8.543   8.833  -0.023  0.1678 -0.5287  0.1333
  483MOL0     C66560   8.520   8.948  -0.124  0.3766 -0.5665  1.0253
  483MOL0    Cl66561   8.544   9.116  -0.051 -0.4665 -0.0376 -0.1036
  483MOL0     C66562   8.143   8.045   0.345 -0.0201  0.0218  0.3553
  483MOL0     C66563   8.012   7.995   0.339  0.4222 -0.4302 -0.6461
  483MOL0     O66564   7.734   8.011   0.378 -0.2599 -0.7542 -0.3333
  483MOL0     C66565   7.487   7.950   0.305 -0.0694  0.1757  0.2234
  483MOL0     C66566   7.357   7.890   0.292 -0.7581  0.2407  0.2707
  483MOL0     N66567   6.726   7.568  -0.051  0.8577  0.5581  0.0124
  483MOL0     N66568   6.636   7.663  -0.067  0.3675 -0.1310  0.4075
  483MOL0     C66569   5.437   7.384   0.292 -0.0684 -1.2875 -0.1751
  483MOL0     C66570   5.337   7.288   0.280  0.5339 -0.2147  0.8316
  483MOL0     C66571   5.051   6.985   0.148 -0.2163  0.1850  0.3588
  483MOL0     C66572   5.059   6.965   0.010  1.3708 -0.1109  0.1351
  483MOL0     C66573   4.948   6.918  -0.073  0.4978 -0.0119  0.3660
  483MOL0     C66574   4.836   6.874  -0.003 -0.0037  1.0665 -0.2130
  483MOL0     O66575   4.739   6.822  -0.088  0.3043  0.2242  0.6415
  483MOL0     C66576   4.602   6.842  -0.056 -0.5626  0.0167  0.1137
  483MOL0     C66577   4.519   6.724  -0.011  0.4125 -0.4198 -1.1226
  483MOL0     C66578   4.494   6.624  -0.128 -0.7352  0.0767  0.2104
  483MOL0     C66579   4.429   6.497  -0.070 -0.1367 -0.3773  0.4799
  483MOL0     C66580   4.452   6.408  -0.178  0.6799 -0.0757 -0.2242
  483MOL0     C66581   4.440   6.339  -0.275  0.2937 -0.3670 -0.1361
  483MOL0     C66582   4.823   6.893   0.138 -0.6755  0.4932  0.1679
  483MOL0     C66583   4.932   6.953   0.214 -0.2660  0.2020  0.2882
  483MOL0     C66584   4.904   6.977   0.367  0.3949 -0.1751 -0.7739
  483MOL0     H66585   5.449   7.149  -0.015 -0.6222  1.7619 -1.8490
  483MOL0     H66586   5.597   7.359  -0.011 -0.1644 -0.0962  0.4049
  483MOL0     H66587   5.628   7.550   0.391  2.7169  1.3947  0.5397
  483MOL0     H66588   5.530   7.671   0.314 -2.3255 -1.4057 -2.7919
  483MOL0     H66589   5.731   7.779   0.220  2.1149  1.2495 -0.0661
  483MOL0     H66590   5.741   7.783   0.390  2.5722  0.5084 -0.0343
  483MOL0     H66591   5.916   7.671   0.400 -0.3297 -2.7899  1.0059
  483MOL0     H66592   5.852   7.533   0.308  0.9182 -0.3373 -2.3594
  483MOL0     H66593   5.897   7.635   0.105  1.9338 -1.5471 -0.8640
  483MOL0     H66594   5.965   7.784   0.189 -0.6539 -0.5239 -0.5386
  483MOL0     H66595   6.094   7.518   0.135 -2.5390  0.3316  1.1633
  483MOL0     H66596   6.120   7.589   0.302 -2.0193 -3.6664 -0.1369
  483MOL0     H66597   6.166   7.730   0.032 -1.2437 -0.1924  0.8072
  483MOL0     H66598   6.218   7.796   0.186  0.7249 -0.0539 -0.6182
  483MOL0     H66599   6.353   7.552   0.050 -0.7358 -0.3588 -1.0296
  483MOL0     H66600   6.380   7.614   0.213  1.6980  0.3254 -0.6930
  483MOL0     H66601   6.426   7.805  -0.011 -0.0020 -0.7188  0.1034
  483MOL0     H66602   6.462   7.826   0.150  0.9960 -0.1474  0.3073
  483MOL0     H66603   6.647   7.606   0.258 -1.7070  2.2026  1.3271
  483MOL0     H66604   6.821   7.327   0.087  0.8482 -0.3102  0.2856
  483MOL0     H66605   6.824   7.410   0.238  3.4918  0.4552  0.8693
  483MOL0     H66606   7.054   7.369   0.133 -0.6988  0.6998  3.7732
  483MOL0     H66607   7.016   7.477   0.002  0.5186 -0.0035  0.3144
  483MOL0     H66608   6.983   7.665   0.181  1.0099  0.9667 -1.7539
  483MOL0     H66609   7.026   7.532   0.297  0.3606 -2.8719 -0.9980
  483MOL0     H66610   7.252   7.522   0.180  1.6206  1.2923  4.2949
  483MOL0     H66611   7.191   7.637   0.063  0.6698  1.3739  1.2171
  483MOL0     H66612   7.442   7.578   0.211  0.2078  0.6047  0.4366
  483MOL0     H66613   7.742   7.657   0.134  0.2468  1.0550 -0.2512
  483MOL0     H66614   7.672   7.533   0.233  0.4818  0.0886 -0.9000
  483MOL0     H66615   7.786   7.660   0.301  1.4000 -2.7649 -1.7033
  483MOL0     H66616   7.987   7.921   0.016 -3.3582  1.5992  1.0877
  483MOL0     H66617   8.231   8.012   0.015 -2.0919  0.1101 -1.6217
  483MOL0     H66618   8.303   8.246   0.373  0.6786  2.8616  0.9989
  483MOL0     H66619   8.453   8.265   0.287  0.4997 -0.2529 -1.5265
  483MOL0     H66620   8.328   8.331   0.079  1.3643  1.0256 -0.4084
  483MOL0     H66621   8.186   8.348   0.187  0.9908 -3.2180  3.3822
  483MOL0     H66622   8.449   8.493   0.261 -0.2294 -0.3490  0.4708
  483MOL0     H66623   8.281   8.543   0.300 -1.4609  1.0558 -0.7473
  483MOL0     H66624   8.248   8.611   0.070  0.2330  1.8777 -1.1968
  483MOL0     H66625   8.406   8.537   0.020  0.9737 -1.6613  2.1070
  483MOL0     H66626   8.346   8.749   0.245 -1.7243  0.9093 -1.4890
  483MOL0     H66627   8.509   8.696   0.223 -0.3316  0.2104  0.2275
  483MOL0     H66628   8.468   8.916   0.152  1.4775  1.5133 -1.8416
  483MOL0     H66629   8.339   8.869   0.040 -1.0166 -0.5315  1.9963
  483MOL0     H66630   8.535   8.740  -0.080 -0.0637 -0.5015  0.1210
  483MOL0     H66631   8.640   8.819   0.025 -0.1268 -0.4138  0.7647
  483MOL0     H66632   8.426   8.950  -0.181 -0.3868  2.6698  2.1758
  483MOL0     H66633   8.609   8.937  -0.187  1.7937  3.9750  1.9074
  483MOL0     H66634   8.163   8.079   0.446 -4.7465 -1.4118  2.0177
  483MOL0     H66635   7.957   8.016   0.430  0.8966  3.1695 -1.0174
  483MOL0     H66636   7.498   8.055   0.329 -0.4554  0.8549 -2.2225
  483MOL0     H66637   7.279   7.965   0.305  0.3706  2.1436 -2.8238
  483MOL0     H66638   5.439   7.450   0.377  0.5627 -0.2113 -0.9966
  483MOL0     H66639   5.274   7.284   0.368  0.6907 -1.1067  0.9219
  483MOL0     H66640   5.158   6.980  -0.032  1.0819  2.7829  0.3308
  483MOL0     H66641   4.945   6.907  -0.181 -0.7859 -0.4732  0.4358
  483MOL0     H66642   4.585   6.918   0.021 -2.7326  0.0285 -0.3253
  483MOL0     H66643   4.555   6.883  -0.145 -1.0406 -0.7119  0.0213
  483MOL0     H66644   4.422   6.766   0.018  0.1478 -1.1943 -0.8828
  483MOL0     H66645   4.548   6.676   0.083 -1.6589  0.3463 -0.0227
  483MOL0     H66646   4.435   6.674  -0.205 -0.2192  3.0030  1.6065
  483MOL0     H66647   4.593   6.603  -0.170 -1.2692  1.6616 -2.0324
  483MOL0     H66648   4.327   6.526  -0.045 -2.2968 -3.3490 -3.6442
  483MOL0     H66649   4.470   6.471   0.028  0.1080  2.5222  1.2508
  483MOL0     H66650   4.421   6.272  -0.355  1.4389  2.0546 -2.6207
  483MOL0     H66651   4.738   6.850   0.189  0.1067 -5.2953 -2.6149
  483MOL0     H66652   4.959   7.058   0.414  0.3595 -1.9261  2.5548
  483MOL0     H66653   4.797   6.984   0.388  0.3965  2.3732 -1.3406
  483MOL0     H66654   4.958   6.896   0.417  1.2960  0.7440 -0.2325
  484MOL0     O66655   5.303   4.424   9.689  0.0211  0.3961 -0.2593
  484MOL0     C66656   5.227   4.403   9.789 -0.2090 -0.5523  0.9844
  484MOL0     O66657   5.261   4.318   9.893 -0.0338  1.0027  0.2313
  484MOL0     C66658   5.378   4.248   9.869 -0.7122 -0.0540 -0.8204
  484MOL0     C66659   5.491   4.278   9.954  1.9275 -0.2672  0.4295
  484MOL0     C66660   5.609   4.210   9.952  0.1458 -0.4528  0.2802
  484MOL0     C66661   5.624   4.099   9.865  0.2501  0.7154  0.5573
  484MOL0     O66662   5.738   4.022   9.841 -0.3107 -0.3406 -0.1047
  484MOL0     C66663   5.856   4.061   9.911 -0.9973  0.2739  0.3163
  484MOL0     C66664   5.979   3.991   9.861 -1.1967  0.3409  0.0848
  484MOL0     C66665   6.107   4.024   9.930  0.3145 -0.0241  0.7375
  484MOL0     C66666   6.201   3.905   9.902 -0.1228  0.4369 -0.2386
  484MOL0     C66667   6.340   3.899   9.972 -0.0190 -0.6221 -0.0013
  484MOL0     C66668   6.405   3.759   9.962 -0.9906 -0.4047 -0.1554
  484MOL0     C66669   6.450   3.711   9.818  0.8266  0.7412  0.4921
  484MOL0     C66670   6.389   3.575   9.781 -0.0277 -0.3556 -0.4671
  484MOL0     N66671   6.246   3.568   9.756  0.8118 -0.6206 -1.0965
  484MOL0     C66672   6.186   3.646   9.667 -0.2067 -0.1236  0.2781
  484MOL0     C66673   6.047   3.619   9.699  0.0183  0.1814  0.2284
  484MOL0     C66674   5.928   3.660   9.607 -0.9819  0.4525 -0.3250
  484MOL0     C66675   5.790   3.658   9.682  0.3078  1.1352  0.2129
  484MOL0     C66676   5.700   3.755   9.614  0.1439  0.1059 -0.4826
  484MOL0     C66677   5.665   3.727   9.471 -1.0185  0.1043 -0.0107
  484MOL0     O66678   5.535   3.666   9.468  0.1369 -0.2977 -0.4737
  484MOL0     C66679   5.504   3.560   9.388 -0.1264  0.8633 -0.3218
  484MOL0     C66680   5.389   3.491   9.429 -0.3710  0.7402 -0.0385
  484MOL0     C66681   5.344   3.380   9.358  0.3803  0.5738 -0.1593
  484MOL0     C66682   5.207   3.322   9.398 -1.2198 -0.7295  0.2657
  484MOL0     C66683   5.422   3.333   9.245 -0.4209  0.4217 -0.1968
  484MOL0     C66684   5.381   3.220   9.158 -0.8348  0.8524 -0.5124
  484MOL0     O66685   5.261   3.164   9.183  0.4183 -0.4525  0.1858
  484MOL0     C66686   5.229   3.062   9.096 -0.1676  1.1000  0.0589
  484MOL0     C66687   5.192   2.948   9.158  0.6260  0.2752  0.1553
  484MOL0     C66688   5.142   2.829   9.082 -0.1175  0.1922 -0.9871
  484MOL0     C66689   5.136   2.838   8.942 -0.6704 -0.2136  0.2185
  484MOL0     O66690   5.124   2.735   8.848  0.3424 -0.3075  0.2450
  484MOL0     C66691   5.089   2.606   8.896  0.5091  0.6828 -0.1105
  484MOL0     C66692   5.084   2.504   8.772 -0.0913  0.1532  0.1553
  484MOL0     C66693   5.225   2.458   8.731  0.1034 -0.3530  0.5179
  484MOL0     C66694   5.309   2.575   8.652 -0.0302  0.4180  0.7686
  484MOL0     C66695   5.272   2.574   8.504  0.1426 -0.9877  0.9000
  484MOL0     C66696   5.315   2.694   8.421  1.1041 -0.9310 -0.4331
  484MOL0     C66697   5.267   2.684   8.267  0.2632 -0.0488 -0.1353
  484MOL0     C66698   5.124   2.696   8.236  0.4448 -0.8113 -0.1275
  484MOL0    Cl66699   5.071   2.854   8.307 -0.4084  0.2675 -0.3371
  484MOL0     C66700   5.166   2.958   8.883 -0.5228 -0.5325  0.5293
  484MOL0     C66701   5.214   3.076   8.949  0.6906  0.5750  0.0038
  484MOL0     O66702   5.463   3.183   9.072  0.0115  0.4123  0.2553
  484MOL0     C66703   5.535   3.406   9.205  0.6226  0.0954 -0.9013
  484MOL0     C66704   5.576   3.516   9.278  1.3623  0.4885  1.1632
  484MOL0     N66705   6.045   3.542   9.819  0.0884  0.3762 -0.0037
  484MOL0     N66706   6.163   3.512   9.849  0.6553  0.0733  0.0221
  484MOL0     C66707   5.510   4.060   9.787  0.0105  0.1813  0.2694
  484MOL0     C66708   5.386   4.130   9.783  0.6371  0.1608 -0.9257
  484MOL0     C66709   5.113   4.491   9.810 -0.0691  0.2062  0.4959
  484MOL0     C66710   5.116   4.621   9.748 -0.5849 -0.5747 -0.4539
  484MOL0     C66711   5.013   4.711   9.757  0.1081 -0.6154 -0.4928
  484MOL0     C66712   4.898   4.677   9.844 -0.4069 -0.0772 -0.9439
  484MOL0     O66713   4.796   4.762   9.886 -0.1041  0.2075 -0.5029
  484MOL0     C66714   4.788   4.887   9.824 -0.5740  0.4277 -0.7098
  484MOL0     C66715   4.688   4.968   9.899  0.1040  0.7126  0.1223
  484MOL0     C66716   4.721   4.981  10.049 -0.1175 -0.6058 -1.0465
  484MOL0     C66717   4.628   4.894  10.137  0.4964  0.1318 -0.0497
  484MOL0     C66718   4.641   4.923  10.280 -0.2788  0.4324  0.0389
  484MOL0     C66719   4.690   4.952  10.390  0.6851  0.2418  1.5390
  484MOL0     C66720   4.891   4.547   9.893  0.7263  0.0532 -0.6911
  484MOL0     C66721   4.992   4.458   9.883 -0.2289  0.8346  0.4489
  484MOL0     C66722   4.964   4.318   9.936 -0.1134  0.9454 -0.2140
  484MOL0     H66723   5.469   4.360  10.022 -0.6435  0.5053 -1.1982
  484MOL0     H66724   5.691   4.249  10.011 -0.0320 -0.1014  0.3019
  484MOL0     H66725   5.845   4.029  10.015 -3.0543 -0.4182 -0.0604
  484MOL0     H66726   5.864   4.170   9.902 -2.7621  0.4153  0.0642
  484MOL0     H66727   5.954   3.885   9.875 -0.4923  0.3505  1.5882
  484MOL0     H66728   5.991   4.024   9.757  1.1727 -2.5397 -0.7105
  484MOL0     H66729   6.151   4.117   9.892 -2.3544  2.7681  3.8973
  484MOL0     H66730   6.093   4.039  10.037  1.2582 -0.0887  0.8749
  484MOL0     H66731   6.144   3.817   9.933 -0.8579  0.3167 -1.8192
  484MOL0     H66732   6.206   3.891   9.793 -1.2210 -2.2428 -0.0203
  484MOL0     H66733   6.325   3.938  10.073 -0.3233  2.2827 -1.1003
  484MOL0     H66734   6.411   3.974   9.937  0.9306 -0.4257  2.1736
  484MOL0     H66735   6.490   3.764  10.031 -0.1325  2.4447 -1.2937
  484MOL0     H66736   6.322   3.695   9.994  0.0332 -0.7512  2.0060
  484MOL0     H66737   6.559   3.704   9.809  0.8911  1.7723  0.3629
  484MOL0     H66738   6.421   3.781   9.739  0.4403  0.0550  0.0124
  484MOL0     H66739   6.442   3.532   9.696 -0.8121 -0.3011 -0.9985
  484MOL0     H66740   6.405   3.516   9.872  2.0264 -1.0774 -1.2428
  484MOL0     H66741   6.231   3.686   9.576  1.7537  2.5244  2.2464
  484MOL0     H66742   5.920   3.595   9.519 -0.9270  1.5703 -1.1744
  484MOL0     H66743   5.953   3.759   9.568 -1.1703 -0.1373 -2.0138
  484MOL0     H66744   5.759   3.553   9.677 -0.0554  1.2747 -0.8796
  484MOL0     H66745   5.797   3.685   9.787 -0.4310 -1.7106  1.0785
  484MOL0     H66746   5.613   3.761   9.679  1.1863  2.8686  0.8564
  484MOL0     H66747   5.741   3.856   9.630  1.9688 -0.0023 -3.6274
  484MOL0     H66748   5.657   3.825   9.423  1.6688  1.5146  2.1339
  484MOL0     H66749   5.743   3.664   9.426 -1.2613  0.7620 -1.3776
  484MOL0     H66750   5.338   3.529   9.517 -0.3197  1.6697 -0.4006
  484MOL0     H66751   5.174   3.364   9.493 -0.3297 -0.0970  0.2994
  484MOL0     H66752   5.215   3.218   9.430  1.7148 -0.2762  1.3000
  484MOL0     H66753   5.122   3.348   9.333 -1.3280 -1.3872  0.1340
  484MOL0     H66754   5.201   2.939   9.266  2.0118  0.9405  0.1274
  484MOL0     H66755   5.118   2.735   9.130 -0.9651  1.3119  0.8757
  484MOL0     H66756   5.156   2.570   8.974  2.7305  1.4453 -1.5753
  484MOL0     H66757   4.984   2.621   8.924 -0.2313  0.5382 -2.5549
  484MOL0     H66758   5.024   2.415   8.793 -1.9584  0.7887 -2.0961
  484MOL0     H66759   5.026   2.548   8.690 -2.0612 -1.2316  0.7239
  484MOL0     H66760   5.208   2.376   8.661 -1.5128 -1.2242  1.8430
  484MOL0     H66761   5.282   2.430   8.820 -0.3237 -3.1513  0.0063
  484MOL0     H66762   5.416   2.556   8.665 -0.0610  0.6308  1.3449
  484MOL0     H66763   5.286   2.666   8.708 -1.3352  0.0836  0.7980
  484MOL0     H66764   5.307   2.484   8.451  0.3182 -0.5614  0.2809
  484MOL0     H66765   5.162   2.581   8.502  0.2307  1.1891 -1.2749
  484MOL0     H66766   5.423   2.706   8.414  0.7907  4.7158 -0.6133
  484MOL0     H66767   5.285   2.786   8.473  3.0034 -0.0632 -0.7897
  484MOL0     H66768   5.297   2.583   8.241  1.5552 -0.5065  2.7250
  484MOL0     H66769   5.320   2.759   8.207 -1.4270  2.7705  1.6144
  484MOL0     H66770   5.076   2.617   8.294  0.4605  0.1437  1.2411
  484MOL0     H66771   5.099   2.689   8.130  0.3677 -0.2736 -0.1499
  484MOL0     H66772   5.148   2.978   8.778  0.0092  1.1366  0.7319
  484MOL0     H66773   5.243   3.171   8.904  0.2605  0.6433 -0.1289
  484MOL0     H66774   5.601   3.376   9.123  0.0400  0.3257 -1.4657
  484MOL0     H66775   5.662   3.578   9.254  0.6922  0.3171 -2.0667
  484MOL0     H66776   5.509   3.970   9.727 -1.2770 -0.3649  1.0619
  484MOL0     H66777   5.304   4.095   9.720 -1.6150  0.0720  1.8474
  484MOL0     H66778   5.207   4.657   9.702  0.7490  0.9227  3.0244
  484MOL0     H66779   5.022   4.812   9.719  0.1093  0.0852  1.2576
  484MOL0     H66780   4.883   4.940   9.820  0.2440 -0.9930 -0.9923
  484MOL0     H66781   4.761   4.866   9.720  0.7805  0.2684 -1.0464
  484MOL0     H66782   4.587   4.927   9.886 -0.9252  1.4714  4.2797
  484MOL0     H66783   4.679   5.070   9.858 -0.2391 -0.5130 -3.2020
  484MOL0     H66784   4.822   4.944  10.071  0.6427  1.7362 -0.3493
  484MOL0     H66785   4.728   5.083  10.086 -1.3969 -0.8145 -0.1739
  484MOL0     H66786   4.648   4.787  10.130  0.0962  0.0582 -0.0809
  484MOL0     H66787   4.523   4.911  10.109 -0.6610 -1.2820  2.9585
  484MOL0     H66788   4.731   4.964  10.488  0.5747  0.9940  1.4991
  484MOL0     H66789   4.800   4.531   9.949  2.4253 -0.4508  2.1322
  484MOL0     H66790   5.025   4.248   9.876 -2.9331 -0.1155 -2.0652
  484MOL0     H66791   4.995   4.307  10.040  0.9035 -2.4084 -0.7336
  484MOL0     H66792   4.858   4.296   9.918 -0.4230  3.2416 -1.6096
  485MOL0     O66793   7.082   7.904   3.855  0.7886 -0.6526 -1.0802
  485MOL0     C66794   7.129   8.010   3.886 -0.0216 -0.2988  0.2954
  485MOL0     O66795   7.067   8.108   3.948  0.5018 -0.6568  0.2942
  485MOL0     C66796   6.925   8.100   3.952 -0.4395 -0.3781  1.0937
  485MOL0     C66797   6.847   8.090   3.832 -0.6070 -0.9880  0.8348
  485MOL0     C66798   6.709   8.081   3.844  0.2444 -1.1652  1.0789
  485MOL0     C66799   6.643   8.075   3.966  0.4194  0.1256  0.0609
  485MOL0     O66800   6.506   8.064   3.976  0.8448  0.2467  0.3059
  485MOL0     C66801   6.432   7.949   3.912  0.5322  0.2651  0.3311
  485MOL0     C66802   6.283   7.971   3.910 -0.6710  0.5628  0.5371
  485MOL0     C66803   6.233   8.014   4.049 -0.6668 -0.0516 -0.0665
  485MOL0     C66804   6.091   8.062   4.037 -0.0518 -0.3052  0.1457
  485MOL0     C66805   5.992   7.982   3.955  0.0690 -0.1836 -0.8340
  485MOL0     C66806   5.974   7.851   4.043 -0.7152  0.1038  0.2470
  485MOL0     C66807   5.875   7.770   3.964  0.9754 -0.0934  0.0386
  485MOL0     C66808   5.864   7.620   4.000  0.4858 -0.0417  0.0457
  485MOL0     N66809   5.901   7.598   4.144 -0.1806 -0.0010  0.2385
  485MOL0     C66810   5.814   7.625   4.247  0.0817  0.3254  0.4635
  485MOL0     C66811   5.868   7.558   4.351 -0.7582  0.6625 -0.8587
  485MOL0     C66812   5.817   7.532   4.497  0.0689  0.1461  0.8019
  485MOL0     C66813   5.672   7.476   4.493  0.1572 -0.2025 -0.0021
  485MOL0     C66814   5.604   7.458   4.629  0.0786 -0.1881 -0.2215
  485MOL0     C66815   5.674   7.344   4.693  0.6325 -0.2716 -0.5677
  485MOL0     O66816   5.668   7.217   4.619  0.2992 -0.0107 -0.1566
  485MOL0     C66817   5.752   7.121   4.665 -0.3437  0.2897 -0.5529
  485MOL0     C66818   5.742   7.012   4.582  0.0015 -0.9808  0.2338
  485MOL0     C66819   5.825   6.898   4.597  0.3303 -0.0285 -0.2476
  485MOL0     C66820   5.812   6.795   4.487  0.5541 -0.0706 -0.9725
  485MOL0     C66821   5.929   6.904   4.693  0.3857  0.3989  0.0750
  485MOL0     C66822   6.018   6.788   4.717 -1.1107 -0.0515 -0.1665
  485MOL0     O66823   6.058   6.736   4.839  0.1669 -0.1381 -0.3241
  485MOL0     C66824   6.177   6.657   4.838  0.6904 -0.7473 -0.0017
  485MOL0     C66825   6.155   6.531   4.888 -0.2029  0.0234  0.2773
  485MOL0     C66826   6.267   6.449   4.892 -0.0891  1.0495  0.8274
  485MOL0     C66827   6.392   6.492   4.853 -0.1817 -0.1234  0.3887
  485MOL0     O66828   6.495   6.390   4.851 -0.0789 -0.5935 -0.2813
  485MOL0     C66829   6.631   6.419   4.884  0.2345  0.3243 -0.0627
  485MOL0     C66830   6.724   6.302   4.883 -0.0923 -0.5986 -0.0072
  485MOL0     C66831   6.698   6.195   4.781 -0.7555 -1.0607  0.4653
  485MOL0     C66832   6.598   6.091   4.833  0.2315 -0.2723 -0.2118
  485MOL0     C66833   6.556   5.990   4.730 -0.8849  0.0111 -0.7057
  485MOL0     C66834   6.477   5.874   4.802  0.3005 -0.0518 -1.4248
  485MOL0     C66835   6.366   5.910   4.899  0.0427  0.2288  0.6331
  485MOL0     C66836   6.251   5.981   4.831  0.3330 -0.2040  0.3579
  485MOL0    Cl66837   6.116   5.984   4.952  0.1490  0.1769  0.5656
  485MOL0     C66838   6.417   6.624   4.821  0.1345  0.5934  0.2787
  485MOL0     C66839   6.306   6.705   4.806  0.4409 -0.2097  0.0062
  485MOL0     O66840   6.077   6.762   4.616 -0.1229 -0.1862 -0.0200
  485MOL0     C66841   5.932   7.012   4.782 -0.4607 -0.5720 -0.3438
  485MOL0     C66842   5.846   7.118   4.767 -0.0302  0.0340 -0.5813
  485MOL0     N66843   5.993   7.506   4.318  0.4402 -0.6634 -0.6110
  485MOL0     N66844   6.006   7.522   4.187 -0.3134  0.1836  0.1972
  485MOL0     C66845   6.718   8.060   4.082 -0.3452  1.3360 -0.2012
  485MOL0     C66846   6.860   8.079   4.077 -0.0264 -0.2346 -0.5113
  485MOL0     C66847   7.272   8.035   3.846  0.0663  0.2806 -0.1148
  485MOL0     C66848   7.317   8.170   3.858 -0.3369  0.4286 -0.8176
  485MOL0     C66849   7.445   8.199   3.816 -0.2262  0.8784  0.5546
  485MOL0     C66850   7.523   8.113   3.747 -0.4716 -0.0815  0.8624
  485MOL0     O66851   7.652   8.151   3.704  0.4072  0.6098  0.0020
  485MOL0     C66852   7.656   8.259   3.607  0.6596  0.2439  0.0449
  485MOL0     C66853   7.789   8.255   3.540 -0.8555  0.8296  0.1864
  485MOL0     C66854   7.910   8.284   3.638 -0.2383 -0.3100 -0.7083
  485MOL0     C66855   8.039   8.275   3.557 -1.7060  0.4291  0.5389
  485MOL0     C66856   8.056   8.381   3.467  0.3229 -0.5291 -0.3264
  485MOL0     C66857   8.047   8.471   3.377 -0.5311  0.1551 -0.3669
  485MOL0     C66858   7.485   7.978   3.741 -0.2737  0.2213  0.1872
  485MOL0     C66859   7.362   7.936   3.786 -0.2930 -0.4212 -1.2655
  485MOL0     C66860   7.330   7.789   3.761 -0.2580 -0.3972  1.2978
  485MOL0     H66861   6.904   8.106   3.741 -0.9694  1.0528  0.9225
  485MOL0     H66862   6.662   8.082   3.746 -0.8898 -1.8381  1.5946
  485MOL0     H66863   6.445   7.856   3.967  2.4696  1.6787  2.4598
  485MOL0     H66864   6.469   7.943   3.809 -2.6570  1.9121 -1.0787
  485MOL0     H66865   6.259   8.047   3.835  0.1563  0.8207  0.5246
  485MOL0     H66866   6.226   7.887   3.870  0.9197  0.9348 -2.8888
  485MOL0     H66867   6.236   7.923   4.109  0.3046 -1.0934 -1.5946
  485MOL0     H66868   6.302   8.083   4.098  0.0551 -0.9009  0.1479
  485MOL0     H66869   6.053   8.082   4.138 -1.4023 -0.6225 -0.2772
  485MOL0     H66870   6.095   8.161   3.990  0.6840  0.6896  2.1832
  485MOL0     H66871   6.036   7.971   3.856 -1.6012 -1.6933 -1.4546
  485MOL0     H66872   5.897   8.036   3.944  0.0930 -0.2446 -1.3358
  485MOL0     H66873   6.066   7.793   4.058 -0.6747  0.2750  0.6749
  485MOL0     H66874   5.950   7.877   4.147 -1.1604  1.3629 -0.1528
  485MOL0     H66875   5.899   7.784   3.858  2.7156  2.1804  0.6611
  485MOL0     H66876   5.780   7.814   3.995  0.3045 -1.5938  0.1941
  485MOL0     H66877   5.762   7.588   3.977  0.6902 -1.7962  1.4048
  485MOL0     H66878   5.934   7.564   3.938 -1.5214 -0.2003 -2.2199
  485MOL0     H66879   5.718   7.673   4.234 -0.0684 -0.1584 -0.2751
  485MOL0     H66880   5.813   7.624   4.556 -0.8560  0.9864 -0.5241
  485MOL0     H66881   5.891   7.466   4.544  3.0516  2.3024 -0.4819
  485MOL0     H66882   5.607   7.533   4.426 -0.2222 -1.5937 -0.8688
  485MOL0     H66883   5.676   7.378   4.445  3.0278 -0.9154  1.4776
  485MOL0     H66884   5.614   7.548   4.690  0.5352 -0.7646  0.5810
  485MOL0     H66885   5.497   7.436   4.622 -0.3808  1.6948  0.4032
  485MOL0     H66886   5.780   7.364   4.708  0.4425 -0.1261  0.6884
  485MOL0     H66887   5.634   7.325   4.793  2.3028  0.5304  0.2938
  485MOL0     H66888   5.663   7.008   4.508 -0.2599  0.9356  0.3518
  485MOL0     H66889   5.710   6.793   4.447  1.1197 -1.2725 -2.4341
  485MOL0     H66890   5.832   6.695   4.526 -0.4163 -0.1479 -0.6316
  485MOL0     H66891   5.877   6.830   4.407  3.3572 -2.1206  0.2632
  485MOL0     H66892   6.060   6.488   4.916 -0.4923  0.8597  0.5848
  485MOL0     H66893   6.271   6.352   4.942  1.9894 -0.3158 -1.7594
  485MOL0     H66894   6.665   6.490   4.808 -0.4570 -1.1921 -1.8579
  485MOL0     H66895   6.640   6.452   4.988  2.2248  0.3776 -0.2162
  485MOL0     H66896   6.821   6.349   4.859 -0.5267 -0.1896 -1.0303
  485MOL0     H66897   6.730   6.250   4.978 -0.8038 -1.7169 -0.5598
  485MOL0     H66898   6.797   6.155   4.758 -0.8521 -2.7023  2.6384
  485MOL0     H66899   6.651   6.235   4.690  0.4229 -2.2977 -0.7243
  485MOL0     H66900   6.506   6.141   4.864 -0.9215 -2.5057  0.0988
  485MOL0     H66901   6.647   6.043   4.918  0.3277 -1.0282 -0.6911
  485MOL0     H66902   6.482   6.044   4.670 -0.3366  0.3387 -1.0987
  485MOL0     H66903   6.649   5.950   4.688 -0.8144 -2.0434  1.2371
  485MOL0     H66904   6.549   5.813   4.857  0.4049 -0.4330 -1.9764
  485MOL0     H66905   6.434   5.803   4.731 -0.1906 -1.3746  0.1323
  485MOL0     H66906   6.400   5.978   4.978  0.5061  1.1805 -0.3730
  485MOL0     H66907   6.328   5.818   4.946 -0.9148  0.2440 -0.0825
  485MOL0     H66908   6.215   5.922   4.746 -0.8445 -0.3996  0.9678
  485MOL0     H66909   6.281   6.079   4.793 -2.4916 -0.7732 -4.0581
  485MOL0     H66910   6.520   6.657   4.816  1.1323 -2.2017  0.4762
  485MOL0     H66911   6.319   6.807   4.770  1.3187 -0.3943 -0.2186
  485MOL0     H66912   5.987   7.019   4.876  0.2457 -1.2750 -0.6926
  485MOL0     H66913   5.853   7.204   4.833 -0.2202  0.6908 -1.3914
  485MOL0     H66914   6.667   8.032   4.173  3.2898 -2.1802  1.0294
  485MOL0     H66915   6.924   8.076   4.165  0.1678 -1.2855 -0.6783
  485MOL0     H66916   7.249   8.248   3.892  0.8370  0.1814  2.5128
  485MOL0     H66917   7.490   8.297   3.821 -1.1900  1.5071 -1.7041
  485MOL0     H66918   7.579   8.236   3.532 -1.9907  3.4764  1.5058
  485MOL0     H66919   7.641   8.351   3.663  0.3717 -0.8870  1.9332
  485MOL0     H66920   7.791   8.338   3.468  0.4509  0.8939  0.2770
  485MOL0     H66921   7.803   8.162   3.484 -0.8064  1.4555 -0.8698
  485MOL0     H66922   7.900   8.385   3.677 -0.1227 -1.3466  2.2936
  485MOL0     H66923   7.911   8.209   3.718  1.6675 -0.9859 -1.3119
  485MOL0     H66924   8.026   8.186   3.494  0.6006  1.1592 -1.0775
  485MOL0     H66925   8.125   8.265   3.623 -1.7552  3.6116  1.2181
  485MOL0     H66926   8.066   8.540   3.298  2.2432  0.7528  0.6975
  485MOL0     H66927   7.554   7.907   3.695  0.7427  0.0384  1.9165
  485MOL0     H66928   7.276   7.793   3.666  2.2387 -1.0056 -0.2283
  485MOL0     H66929   7.425   7.735   3.757 -0.0735 -0.1189  1.9304
  485MOL0     H66930   7.266   7.745   3.839 -0.2287 -0.1992  1.4337
  486MOL0     O66931   5.245   3.142  10.617  1.2822  0.0733 -0.8372
  486MOL0     C66932   5.326   3.078  10.559 -0.5934 -0.0345 -0.3438
  486MOL0     O66933   5.358   3.092  10.428 -0.0904 -0.2767  0.9808
  486MOL0     C66934   5.254   3.106  10.335  0.0938 -1.0406 -0.0674
  486MOL0     C66935   5.275   3.197  10.235 -0.6095  0.6133  0.0701
  486MOL0     C66936   5.162   3.253  10.161  0.3489  0.1836 -1.2122
  486MOL0     C66937   5.035   3.200  10.178  0.1084  0.2240  0.1516
  486MOL0     O66938   4.936   3.229  10.095 -0.0100 -0.5337 -0.1874
  486MOL0     C66939   4.906   3.376  10.093  0.6402 -0.0056  0.1087
  486MOL0     C66940   4.755   3.395  10.049 -0.5908  0.6062  0.1816
  486MOL0     C66941   4.676   3.356  10.174 -0.3987  0.4930  0.0850
  486MOL0     C66942   4.526   3.397  10.168 -0.6419 -0.3081 -0.7824
  486MOL0     C66943   4.465   3.417  10.312 -0.8112  0.5444 -0.6205
  486MOL0     C66944   4.474   3.286  10.391 -0.5195  0.5116  0.0665
  486MOL0     C66945   4.431   3.154  10.333  0.8496 -0.5043  0.6343
  486MOL0     C66946   4.309   3.102  10.407  0.2421  0.8615  0.1343
  486MOL0     N66947   4.308   2.953  10.389  0.0394 -0.3646 -0.1607
  486MOL0     C66948   4.267   2.897  10.277 -0.2789 -0.6014 -0.3754
  486MOL0     C66949   4.290   2.765  10.286 -0.3814  0.1361  0.0335
  486MOL0     C66950   4.272   2.671  10.179 -0.2356 -0.1795 -0.7063
  486MOL0     C66951   4.361   2.704  10.055  0.4500  0.4239 -0.0575
  486MOL0     C66952   4.302   2.648   9.919 -0.3993 -0.0857 -0.4216
  486MOL0     C66953   4.399   2.659   9.808 -0.0215 -1.0627 -0.3199
  486MOL0     O66954   4.524   2.601   9.838 -0.5298  0.5742  0.3441
  486MOL0     C66955   4.610   2.599   9.728 -0.4610  0.2238  0.4359
  486MOL0     C66956   4.582   2.616   9.589  0.1250  0.3456 -0.2039
  486MOL0     C66957   4.682   2.621   9.494 -0.2695 -0.1950 -0.1171
  486MOL0     C66958   4.651   2.652   9.349 -0.0692 -0.0478  0.0779
  486MOL0     C66959   4.820   2.600   9.530  0.2712 -0.2355  0.0186
  486MOL0     C66960   4.927   2.589   9.432 -0.4343  0.1498 -0.1104
  486MOL0     O66961   5.046   2.646   9.471 -0.0075  0.7323  0.2643
  486MOL0     C66962   5.041   2.766   9.527  0.1031  0.6785 -0.0311
  486MOL0     C66963   5.084   2.784   9.661  0.5078  0.4724 -0.0618
  486MOL0     C66964   5.105   2.913   9.706  0.2032  0.3986  0.1998
  486MOL0     C66965   5.073   3.030   9.635  0.0315  0.7986 -0.3595
  486MOL0     O66966   5.077   3.158   9.682  0.5319  0.6810 -0.6977
  486MOL0     C66967   5.125   3.175   9.807 -0.9476 -0.1180  0.2658
  486MOL0     C66968   5.257   3.246   9.793  0.1587  0.3343 -0.5124
  486MOL0     C66969   5.369   3.160   9.746  0.6360  0.4535  0.3532
  486MOL0     C66970   5.497   3.242   9.742  0.1968 -0.2345  0.1125
  486MOL0     C66971   5.596   3.176   9.648 -0.3592  0.5241  0.1277
  486MOL0     C66972   5.737   3.216   9.681  0.2334 -0.6979 -0.6136
  486MOL0     C66973   5.848   3.178   9.579  0.2375  0.1068  0.3608
  486MOL0     C66974   5.807   3.213   9.437 -0.7205  1.3425  0.3154
  486MOL0    Cl66975   5.948   3.280   9.348  0.0451  0.2202  0.2971
  486MOL0     C66976   5.020   3.012   9.509 -0.0901 -0.2664  0.5369
  486MOL0     C66977   5.011   2.885   9.457  0.8880  0.4185  0.4524
  486MOL0     O66978   4.913   2.529   9.324 -0.1681  0.5637  0.2795
  486MOL0     C66979   4.845   2.568   9.670 -0.4169 -0.3449 -0.3934
  486MOL0     C66980   4.748   2.573   9.761 -0.8228 -0.3278 -0.6924
  486MOL0     N66981   4.374   2.746  10.399  0.3253 -0.1966 -0.6343
  486MOL0     N66982   4.381   2.860  10.458  0.1893  0.0039  0.1926
  486MOL0     C66983   5.016   3.100  10.271  0.4278 -0.4939 -0.2313
  486MOL0     C66984   5.121   3.066  10.354 -0.7940 -0.8385  0.4233
  486MOL0     C66985   5.386   2.962  10.636 -0.6829  0.6726  0.5223
  486MOL0     C66986   5.303   2.915  10.741 -0.2377 -0.3987 -0.3205
  486MOL0     C66987   5.357   2.825  10.837  0.3582  0.6820  0.4519
  486MOL0     C66988   5.486   2.777  10.820  0.8089  0.5504 -0.2904
  486MOL0     O66989   5.515   2.676  10.906 -0.2647  0.1250  0.2126
  486MOL0     C66990   5.646   2.616  10.913  0.2495 -0.1556 -0.3715
  486MOL0     C66991   5.652   2.470  10.856  0.5823 -0.1134 -0.1483
  486MOL0     C66992   5.609   2.459  10.711 -0.0806 -0.1323 -0.3721
  486MOL0     C66993   5.602   2.312  10.659  0.0522  0.1386 -0.8406
  486MOL0     C66994   5.465   2.274  10.671 -0.0303  0.2726 -0.1481
  486MOL0     C66995   5.348   2.226  10.680 -0.2180  0.1994 -0.6154
  486MOL0     C66996   5.564   2.811  10.708  0.6227 -0.3443 -0.6318
  486MOL0     C66997   5.514   2.909  10.618  0.8675  0.0621 -0.3135
  486MOL0     C66998   5.597   2.944  10.495  0.3083 -0.6849  0.4247
  486MOL0     H66999   5.375   3.237  10.219  0.1196 -1.0892  0.0821
  486MOL0     H67000   5.185   3.336  10.095  0.3306  0.9371 -0.2914
  486MOL0     H67001   4.979   3.413  10.020 -0.7163  0.0452 -1.2706
  486MOL0     H67002   4.933   3.429  10.184 -1.0225  3.0286 -1.0005
  486MOL0     H67003   4.743   3.496  10.010  2.0012  0.9672  0.1730
  486MOL0     H67004   4.737   3.324   9.967 -0.2651  0.3796  0.3024
  486MOL0     H67005   4.684   3.248  10.186 -1.4675  0.2785 -0.8577
  486MOL0     H67006   4.715   3.387  10.271 -3.3202 -2.5223  2.4865
  486MOL0     H67007   4.530   3.495  10.120  0.3778  0.0395 -0.0179
  486MOL0     H67008   4.480   3.312  10.116  0.7708 -2.3716  1.1523
  486MOL0     H67009   4.359   3.444  10.310 -1.3027 -0.7258  2.5467
  486MOL0     H67010   4.520   3.498  10.362 -1.7886  0.5435  0.5063
  486MOL0     H67011   4.580   3.274  10.417 -0.3173 -0.6076 -1.1970
  486MOL0     H67012   4.410   3.303  10.478 -3.9252 -0.1655 -2.1279
  486MOL0     H67013   4.518   3.088  10.340  0.6620 -0.7001  1.1391
  486MOL0     H67014   4.407   3.156  10.226  3.3068 -0.7368  0.0067
  486MOL0     H67015   4.311   3.122  10.514 -1.1134  0.8712  0.1812
  486MOL0     H67016   4.215   3.135  10.362 -1.5421 -2.1659  1.3121
  486MOL0     H67017   4.208   2.941  10.198 -0.4867 -3.4733 -1.9602
  486MOL0     H67018   4.163   2.670  10.163 -0.2038  1.2220 -1.1685
  486MOL0     H67019   4.302   2.573  10.218  0.2873 -0.1095 -0.9247
  486MOL0     H67020   4.384   2.811  10.050 -1.2514  0.8621  0.7874
  486MOL0     H67021   4.463   2.665  10.067 -0.5354 -2.4114 -0.1758
  486MOL0     H67022   4.280   2.542   9.937  0.2846 -0.0004  1.0722
  486MOL0     H67023   4.214   2.704   9.888  0.7827  1.0909 -1.8038
  486MOL0     H67024   4.363   2.603   9.721 -2.8871 -0.4310  0.3534
  486MOL0     H67025   4.408   2.764   9.780  0.4330 -0.4805  1.8358
  486MOL0     H67026   4.480   2.633   9.558 -0.2300 -0.9316  0.1719
  486MOL0     H67027   4.708   2.734   9.303  1.3083 -2.2578 -2.4317
  486MOL0     H67028   4.549   2.691   9.335 -0.4326 -0.3483  1.6993
  486MOL0     H67029   4.664   2.559   9.293 -0.9273 -0.0571 -0.1190
  486MOL0     H67030   5.119   2.699   9.718  0.8348 -0.1033 -1.1131
  486MOL0     H67031   5.137   2.896   9.808 -0.9183 -5.0211 -0.0702
  486MOL0     H67032   5.053   3.242   9.854 -2.0558 -1.3452  0.3625
  486MOL0     H67033   5.136   3.093   9.878  2.2261  0.3687  0.4883
  486MOL0     H67034   5.232   3.324   9.721 -4.1594 -0.7454 -0.4254
  486MOL0     H67035   5.292   3.287   9.889  1.7838  3.0574 -2.1372
  486MOL0     H67036   5.347   3.130   9.643  0.5403  1.9761 -0.0956
  486MOL0     H67037   5.389   3.071   9.807  0.2865  0.2359  0.1552
  486MOL0     H67038   5.542   3.247   9.841 -0.1531  4.2422  0.2257
  486MOL0     H67039   5.475   3.342   9.705  2.4037 -0.7549 -3.0268
  486MOL0     H67040   5.601   3.066   9.653  1.2865  0.4494 -1.8884
  486MOL0     H67041   5.564   3.198   9.545  0.3366 -0.0161 -0.2142
  486MOL0     H67042   5.769   3.188   9.781 -0.7923 -2.6312 -0.7832
  486MOL0     H67043   5.733   3.325   9.688  3.6417 -0.5732  4.0619
  486MOL0     H67044   5.879   3.073   9.582 -2.0321 -0.6048  1.0796
  486MOL0     H67045   5.933   3.239   9.610  0.6693  0.5259 -1.5081
  486MOL0     H67046   5.731   3.292   9.436 -1.4139  0.6796 -0.5346
  486MOL0     H67047   5.767   3.122   9.392 -1.9784  1.0821  1.8457
  486MOL0     H67048   4.988   3.094   9.446 -1.9908 -1.3799 -0.0036
  486MOL0     H67049   4.988   2.874   9.351 -1.3059  0.3970  0.8922
  486MOL0     H67050   4.946   2.538   9.694 -0.8197  1.0953  3.7645
  486MOL0     H67051   4.775   2.537   9.860 -1.1909 -1.3221 -0.9380
  486MOL0     H67052   4.918   3.056  10.286  0.5361 -0.6122  0.1264
  486MOL0     H67053   5.099   3.014  10.447  1.3972 -0.1914  1.3689
  486MOL0     H67054   5.204   2.956  10.761 -0.6683 -2.5689  2.6428
  486MOL0     H67055   5.294   2.782  10.913 -0.9311  0.4754 -0.6910
  486MOL0     H67056   5.715   2.671  10.850  1.1653  1.5205  1.9572
  486MOL0     H67057   5.684   2.610  11.016 -0.1891  0.8853 -0.1422
  486MOL0     H67058   5.593   2.408  10.924 -2.3942  1.8408 -0.7530
  486MOL0     H67059   5.758   2.451  10.874  1.5782  5.4413  2.0383
  486MOL0     H67060   5.513   2.510  10.699 -1.2019 -1.8515  0.9016
  486MOL0     H67061   5.683   2.510  10.648  0.7164 -0.9915 -0.1570
  486MOL0     H67062   5.671   2.253  10.719  2.0102  1.3353 -1.8161
  486MOL0     H67063   5.627   2.296  10.554  1.5211  1.8873 -0.8118
  486MOL0     H67064   5.255   2.175  10.691 -0.0340 -0.1062 -0.4493
  486MOL0     H67065   5.662   2.773  10.682  1.8223  1.6853  0.6261
  486MOL0     H67066   5.689   2.886  10.481 -0.0940 -1.3124  0.3418
  486MOL0     H67067   5.534   2.919  10.409 -2.1716  0.7225  1.7216
  486MOL0     H67068   5.609   3.053  10.486 -3.0447 -0.2799 -0.4879
  487MOL0     O67069   1.390   7.197   3.172 -0.1476  0.3302 -0.1894
  487MOL0     C67070   1.309   7.287   3.146 -0.0852  0.8752 -1.0109
  487MOL0     O67071   1.287   7.352   3.023 -0.1034 -0.2508 -0.4630
  487MOL0     C67072   1.296   7.280   2.905 -0.3828  0.1449  0.3852
  487MOL0     C67073   1.319   7.139   2.887  0.3093 -0.7159 -0.4617
  487MOL0     C67074   1.321   7.081   2.764 -0.0837  0.4844 -0.1799
  487MOL0     C67075   1.313   7.168   2.649  0.8774  0.4901 -0.7578
  487MOL0     O67076   1.301   7.119   2.526 -0.8799  0.4904  0.4171
  487MOL0     C67077   1.390   7.013   2.499 -0.9222  0.6336 -0.4757
  487MOL0     C67078   1.539   7.062   2.494  0.0343  0.4521 -0.4910
  487MOL0     C67079   1.639   6.968   2.427 -1.0504 -0.7289 -0.8199
  487MOL0     C67080   1.780   7.033   2.439 -0.5262  0.6161 -0.2970
  487MOL0     C67081   1.834   7.123   2.332 -0.2777  0.6965 -0.4821
  487MOL0     C67082   1.966   7.167   2.389  0.0808  0.6199 -0.1199
  487MOL0     C67083   2.074   7.215   2.283  0.2215 -0.0652  0.0952
  487MOL0     C67084   2.109   7.110   2.174 -0.2447  0.5171 -0.8857
  487MOL0     N67085   2.173   6.983   2.228  0.2760  0.9709  0.3203
  487MOL0     C67086   2.280   6.929   2.162 -0.3454 -0.2548  0.0046
  487MOL0     C67087   2.273   6.792   2.179 -0.3582  0.3204 -0.3083
  487MOL0     C67088   2.354   6.668   2.155 -0.5132  0.6594  0.2569
  487MOL0     C67089   2.505   6.692   2.129  0.6856  0.0148  0.4306
  487MOL0     C67090   2.571   6.587   2.047  0.1184  0.6896  0.3340
  487MOL0     C67091   2.545   6.448   2.116 -1.3924  0.3495 -0.0944
  487MOL0     O67092   2.578   6.333   2.037  0.4884 -0.3517 -0.8273
  487MOL0     C67093   2.707   6.291   2.026 -0.1860  0.3616  0.2358
  487MOL0     C67094   2.821   6.353   2.084  0.4709  0.2497  0.5067
  487MOL0     C67095   2.950   6.332   2.042  0.8466 -0.7053  0.0541
  487MOL0     C67096   3.056   6.425   2.090  0.1744 -0.3637  0.4480
  487MOL0     C67097   2.980   6.224   1.959 -0.4157 -0.1340 -0.7940
  487MOL0     C67098   3.111   6.185   1.924  0.0359  0.4994  0.4951
  487MOL0     O67099   3.160   6.071   1.989 -0.1294  0.0873  0.4137
  487MOL0     C67100   3.254   6.018   1.915  0.3779  1.0365  0.1523
  487MOL0     C67101   3.237   5.955   1.783 -0.9809  0.3910 -1.1530
  487MOL0     C67102   3.342   5.916   1.707  0.4447 -0.3025  0.1777
  487MOL0     C67103   3.474   5.938   1.755  0.4165 -0.3276  0.6546
  487MOL0     O67104   3.573   5.894   1.668  1.1081  0.3075  0.0544
  487MOL0     C67105   3.687   5.990   1.651  0.4030 -0.1277 -0.2544
  487MOL0     C67106   3.791   5.919   1.566 -0.4339  0.0556  1.2053
  487MOL0     C67107   3.892   6.019   1.509 -0.0025  0.2959  0.5804
  487MOL0     C67108   4.002   6.042   1.601 -0.7248 -0.1654 -0.4414
  487MOL0     C67109   4.080   6.169   1.565 -0.8444 -0.0192  1.2944
  487MOL0     C67110   4.201   6.172   1.651  0.0738 -0.9283 -1.1155
  487MOL0     C67111   4.289   6.299   1.626  0.1734  0.6305 -0.5640
  487MOL0     C67112   4.389   6.343   1.735  0.2381  0.1182  0.2061
  487MOL0    Cl67113   4.305   6.395   1.890 -0.0006  0.0467  0.2253
  487MOL0     C67114   3.495   5.985   1.886  0.1771 -0.2549 -0.3359
  487MOL0     C67115   3.385   6.030   1.966 -0.5611 -0.0171  0.1485
  487MOL0     O67116   3.162   6.241   1.825  0.2598 -0.3238  0.3893
  487MOL0     C67117   2.873   6.152   1.905  0.1887 -1.2883 -0.0433
  487MOL0     C67118   2.739   6.182   1.946 -0.0883 -0.1366  0.4351
  487MOL0     N67119   2.158   6.773   2.257  0.1024  0.4145  0.3885
  487MOL0     N67120   2.098   6.879   2.285 -0.2245  0.2487  0.0832
  487MOL0     C67121   1.280   7.303   2.669 -0.1049  0.3739  1.4070
  487MOL0     C67122   1.272   7.360   2.790  0.6529 -0.5690  0.2749
  487MOL0     C67123   1.217   7.333   3.258  0.1614 -0.5713  1.0478
  487MOL0     C67124   1.164   7.242   3.350 -0.1922  0.3846  1.2071
  487MOL0     C67125   1.063   7.276   3.440  0.3153  0.1216  1.1721
  487MOL0     C67126   1.021   7.410   3.448  0.4134  0.8167  0.4081
  487MOL0     O67127   0.926   7.450   3.545  0.4653  0.5111 -0.0824
  487MOL0     C67128   0.907   7.372   3.669  0.3181 -0.3696  0.3716
  487MOL0     C67129   0.840   7.468   3.768 -0.2724  0.1543  0.0609
  487MOL0     C67130   0.946   7.575   3.796  0.7738 -0.0473 -0.3199
  487MOL0     C67131   0.925   7.656   3.926  0.0775 -0.0996  0.2621
  487MOL0     C67132   0.803   7.738   3.918 -0.1245  0.3141 -0.4643
  487MOL0     C67133   0.729   7.831   3.909  0.6302  0.4868 -0.2893
  487MOL0     C67134   1.089   7.505   3.377  1.0883  0.0579 -0.0868
  487MOL0     C67135   1.177   7.471   3.271  0.5054  0.9294  0.5926
  487MOL0     C67136   1.253   7.580   3.193  0.5746  0.3980  1.3540
  487MOL0     H67137   1.341   7.078   2.973 -0.3373 -2.0302 -1.2054
  487MOL0     H67138   1.343   6.976   2.747  1.0002  0.7362 -0.4106
  487MOL0     H67139   1.360   6.968   2.403  0.0836 -2.1858  0.4404
  487MOL0     H67140   1.382   6.922   2.559 -0.1188 -0.2817 -1.7070
  487MOL0     H67141   1.535   7.158   2.443  1.3637 -0.2364 -1.9547
  487MOL0     H67142   1.578   7.076   2.596  1.2990  0.6563 -0.9950
  487MOL0     H67143   1.635   6.869   2.472 -0.6252  1.1292  3.9686
  487MOL0     H67144   1.621   6.954   2.320 -0.6335 -1.9837 -0.7400
  487MOL0     H67145   1.778   7.072   2.541 -4.8761 -0.0782  0.0430
  487MOL0     H67146   1.848   6.947   2.443 -1.8132 -0.4889 -1.1900
  487MOL0     H67147   1.768   7.211   2.331 -1.5638 -0.2237  0.2893
  487MOL0     H67148   1.841   7.063   2.241  2.1813 -0.6335  0.4977
  487MOL0     H67149   1.941   7.247   2.460 -1.5539  1.0972 -1.1891
  487MOL0     H67150   2.024   7.100   2.454  0.7927  2.9087  1.7444
  487MOL0     H67151   2.164   7.235   2.342  1.1280  0.7523 -1.5096
  487MOL0     H67152   2.060   7.305   2.224  0.0817 -0.9104 -1.2037
  487MOL0     H67153   2.023   7.085   2.110  1.1096  0.2982 -2.7129
  487MOL0     H67154   2.180   7.160   2.107  3.1131 -0.5452  1.6125
  487MOL0     H67155   2.354   6.985   2.106 -2.3710  2.0563 -0.5503
  487MOL0     H67156   2.309   6.616   2.069  0.6105 -2.1672  1.2338
  487MOL0     H67157   2.338   6.591   2.231 -2.7419 -2.0162 -2.6399
  487MOL0     H67158   2.520   6.787   2.076  2.0037  0.2241  1.1199
  487MOL0     H67159   2.546   6.705   2.229  2.8061 -0.8725 -0.2539
  487MOL0     H67160   2.521   6.586   1.950 -0.1493  0.0594  0.4723
  487MOL0     H67161   2.677   6.605   2.028  0.4139 -1.1709  0.0701
  487MOL0     H67162   2.590   6.443   2.216  1.5880 -1.3692 -1.3941
  487MOL0     H67163   2.437   6.431   2.127 -1.6523  0.0154 -2.6690
  487MOL0     H67164   2.806   6.419   2.168  0.6010 -0.2671  0.9482
  487MOL0     H67165   3.132   6.436   2.012 -1.4167  2.0601 -0.8765
  487MOL0     H67166   3.099   6.398   2.187  0.4496 -2.2586 -0.1497
  487MOL0     H67167   3.010   6.521   2.113 -1.8150 -1.2580  0.3975
  487MOL0     H67168   3.140   5.956   1.734 -0.7895  0.9734 -1.5315
  487MOL0     H67169   3.331   5.874   1.608 -1.1217 -0.0159  0.2170
  487MOL0     H67170   3.657   6.085   1.608  1.7473  0.9268  1.0270
  487MOL0     H67171   3.727   6.022   1.748 -2.7944 -1.0527  1.5144
  487MOL0     H67172   3.849   5.848   1.626 -0.9975 -1.0116  0.5194
  487MOL0     H67173   3.742   5.863   1.487  1.5867  1.1788 -0.9558
  487MOL0     H67174   3.840   6.110   1.479  0.5272  0.0086 -1.3793
  487MOL0     H67175   3.933   5.977   1.417  0.3459  1.8391 -0.0034
  487MOL0     H67176   4.075   5.961   1.597 -0.3400  0.1001  0.8690
  487MOL0     H67177   3.960   6.046   1.702 -0.8765 -0.6832 -0.4840
  487MOL0     H67178   4.107   6.171   1.459 -3.1805 -0.8906  0.6196
  487MOL0     H67179   4.027   6.264   1.580  1.1967  1.1910  1.1471
  487MOL0     H67180   4.261   6.080   1.656  1.3344 -0.0976  0.1324
  487MOL0     H67181   4.165   6.176   1.754 -1.0176 -1.2759 -1.4751
  487MOL0     H67182   4.216   6.380   1.614 -0.1648  1.0524  3.0261
  487MOL0     H67183   4.346   6.279   1.535  0.1738  0.7258 -0.5848
  487MOL0     H67184   4.455   6.426   1.705  3.3047 -2.5344 -0.9908
  487MOL0     H67185   4.462   6.263   1.751  2.2239  1.5773 -1.1057
  487MOL0     H67186   3.593   6.007   1.927 -0.3085 -0.3408  0.9137
  487MOL0     H67187   3.402   6.072   2.064  1.0060  0.0018 -0.1119
  487MOL0     H67188   2.904   6.065   1.849  3.3466 -0.0571 -0.4100
  487MOL0     H67189   2.662   6.118   1.902  0.3171 -1.4886  1.6088
  487MOL0     H67190   1.271   7.358   2.575 -0.3058 -0.2334  1.0634
  487MOL0     H67191   1.253   7.466   2.803 -0.5119 -0.8941  1.5121
  487MOL0     H67192   1.205   7.142   3.358  0.6846  0.8183  2.5168
  487MOL0     H67193   1.016   7.200   3.502 -1.0501 -0.0580 -0.0158
  487MOL0     H67194   0.840   7.288   3.647  2.1877 -1.8333  0.0497
  487MOL0     H67195   0.995   7.326   3.714 -1.0547 -0.8208  2.7598
  487MOL0     H67196   0.814   7.414   3.860 -1.3913  1.4235  0.5187
  487MOL0     H67197   0.751   7.521   3.734  0.1993 -0.3410 -2.1205
  487MOL0     H67198   1.041   7.523   3.810 -0.4095 -2.3927 -0.4838
  487MOL0     H67199   0.947   7.643   3.711 -1.8401  0.2656 -0.1933
  487MOL0     H67200   1.010   7.723   3.940 -0.3073  0.0737  2.1168
  487MOL0     H67201   0.922   7.588   4.012  1.2563 -1.6632 -0.8792
  487MOL0     H67202   0.672   7.917   3.880 -0.1106  0.3609  0.7261
  487MOL0     H67203   1.078   7.610   3.402 -0.0843  0.2964 -1.4364
  487MOL0     H67204   1.255   7.681   3.234  2.5812  2.1667 -2.4810
  487MOL0     H67205   1.357   7.552   3.171  0.2773  0.2208  0.1093
  487MOL0     H67206   1.197   7.600   3.101  1.8599 -2.4036 -0.1659
  488MOL0     O67207   5.838   0.962   1.725  0.6441 -0.2361  0.2741
  488MOL0     C67208   5.810   0.866   1.797  0.7237  0.2339 -0.4812
  488MOL0     O67209   5.896   0.799   1.880 -0.6286 -0.1986  0.1725
  488MOL0     C67210   6.030   0.813   1.859 -0.7502  0.4538 -0.4826
  488MOL0     C67211   6.099   0.923   1.921  0.5304  0.7606 -0.0558
  488MOL0     C67212   6.237   0.937   1.892  0.6732  0.4640 -0.4707
  488MOL0     C67213   6.309   0.845   1.818 -0.4577  0.3735 -0.0582
  488MOL0     O67214   6.443   0.869   1.803 -0.1584 -0.0975  0.2465
  488MOL0     C67215   6.526   0.776   1.723 -0.0678  0.2711 -0.2385
  488MOL0     C67216   6.674   0.821   1.743  0.2635 -0.4741 -0.8700
  488MOL0     C67217   6.769   0.816   1.620 -0.6041  1.5752  0.2395
  488MOL0     C67218   6.730   0.903   1.507 -0.7763 -0.3012  0.1909
  488MOL0     C67219   6.834   0.900   1.391 -0.1177  0.3866 -0.5384
  488MOL0     C67220   6.787   1.015   1.307  0.6711  0.2943 -0.1688
  488MOL0     C67221   6.859   1.023   1.177  0.3421 -1.4167 -0.0198
  488MOL0     C67222   6.780   1.104   1.079 -0.3488  0.8751 -0.3222
  488MOL0     N67223   6.855   1.125   0.958  0.3175 -0.1343 -0.0791
  488MOL0     C67224   6.912   1.029   0.888 -0.1015  0.0939  1.0508
  488MOL0     C67225   6.937   1.073   0.768  0.3816 -0.7613 -0.7012
  488MOL0     C67226   7.015   1.012   0.654 -0.4507 -0.0301 -0.2981
  488MOL0     C67227   7.139   0.930   0.701  0.3594  0.0648 -0.2106
  488MOL0     C67228   7.206   0.863   0.592 -0.6254  0.0163  0.5245
  488MOL0     C67229   7.328   0.775   0.630  0.6054  0.4123 -0.7388
  488MOL0     O67230   7.302   0.680   0.734 -0.4765  0.6506 -0.3001
  488MOL0     C67231   7.410   0.634   0.803 -0.0331  0.5109  0.1616
  488MOL0     C67232   7.387   0.599   0.935  1.1823 -0.0307  0.2290
  488MOL0     C67233   7.487   0.559   1.021  0.7623  0.5077 -0.0420
  488MOL0     C67234   7.432   0.520   1.156 -0.7500 -0.1005  0.7273
  488MOL0     C67235   7.628   0.568   0.976  0.3442  0.4951 -0.5202
  488MOL0     C67236   7.743   0.546   1.065 -0.1368 -0.2474 -0.2179
  488MOL0     O67237   7.871   0.577   1.010  0.1634  0.8917 -0.0238
  488MOL0     C67238   7.984   0.533   1.076  0.4062  0.8516 -1.0208
  488MOL0     C67239   8.085   0.629   1.101  0.4516 -0.0453 -0.0719
  488MOL0     C67240   8.194   0.598   1.175 -0.2190  0.6786  0.4500
  488MOL0     C67241   8.218   0.466   1.222 -0.2029  0.8856  0.9005
  488MOL0     O67242   8.330   0.439   1.292 -0.3442  0.1802 -0.3129
  488MOL0     C67243   8.373   0.305   1.267  0.6749 -0.0483 -0.1676
  488MOL0     C67244   8.514   0.303   1.327 -0.2090  0.3505 -0.4616
  488MOL0     C67245   8.504   0.320   1.484 -0.4234  0.5395  0.3672
  488MOL0     C67246   8.650   0.304   1.540  0.2633 -0.7580 -0.7263
  488MOL0     C67247   8.663   0.337   1.685  1.3635 -0.1306  0.3146
  488MOL0     C67248   8.798   0.295   1.730 -0.2745 -0.2186 -0.2833
  488MOL0     C67249   8.823   0.341   1.880 -0.9427  0.6537  0.8539
  488MOL0     C67250   8.834   0.489   1.906  0.0430 -0.1343 -0.8066
  488MOL0    Cl67251   8.935   0.522   2.050  0.2138 -0.1021  0.3227
  488MOL0     C67252   8.117   0.370   1.198 -1.0030  0.2057  0.3462
  488MOL0     C67253   8.003   0.399   1.126 -0.3864  0.3500  0.1719
  488MOL0     O67254   7.730   0.493   1.179 -0.1246  0.3905 -0.1092
  488MOL0     C67255   7.651   0.589   0.832  0.5195  0.5191  0.0869
  488MOL0     C67256   7.542   0.610   0.750  0.9718 -0.3366 -0.1964
  488MOL0     N67257   6.893   1.206   0.764  0.5008  0.3462 -0.1025
  488MOL0     N67258   6.853   1.237   0.882 -0.0206 -0.2225 -0.7304
  488MOL0     C67259   6.239   0.740   1.753 -0.7517  0.1418  0.1830
  488MOL0     C67260   6.103   0.726   1.777  0.3341  0.3342 -0.9348
  488MOL0     C67261   5.670   0.841   1.821 -0.6299 -1.0347  1.8080
  488MOL0     C67262   5.634   0.796   1.948  0.2658  0.1030 -0.3565
  488MOL0     C67263   5.511   0.738   1.968  0.1022  0.7076  0.2709
  488MOL0     C67264   5.419   0.723   1.867  0.6141  0.6571  1.3542
  488MOL0     O67265   5.291   0.673   1.886  0.1952 -0.5287 -0.5550
  488MOL0     C67266   5.249   0.635   2.017  0.5004 -0.2840  0.1319
  488MOL0     C67267   5.096   0.589   2.032  0.2748 -0.4828  0.3814
  488MOL0     C67268   5.006   0.694   1.953 -0.5014  0.1312 -0.4429
  488MOL0     C67269   4.865   0.683   2.006 -0.4353 -0.1093  0.1113
  488MOL0     C67270   4.769   0.767   1.935  0.1816  0.1006 -0.9092
  488MOL0     C67271   4.691   0.837   1.879 -0.5660 -0.2087 -0.3125
  488MOL0     C67272   5.447   0.782   1.740 -0.4384  0.8167  0.1428
  488MOL0     C67273   5.580   0.833   1.708  0.5284  0.8838 -1.0972
  488MOL0     C67274   5.605   0.861   1.565  0.0387  0.6430 -0.6121
  488MOL0     H67275   6.038   0.996   1.973 -0.7470 -0.3672  0.0761
  488MOL0     H67276   6.289   1.029   1.920 -0.3782  1.1087 -0.5655
  488MOL0     H67277   6.498   0.771   1.617  0.6235 -1.4935 -0.3612
  488MOL0     H67278   6.511   0.674   1.758 -1.8759  0.2181 -1.0327
  488MOL0     H67279   6.671   0.923   1.783 -3.0474 -0.0140 -1.9547
  488MOL0     H67280   6.709   0.754   1.822 -0.1563 -0.8200 -0.9725
  488MOL0     H67281   6.870   0.845   1.653 -1.3779  3.1174  1.3831
  488MOL0     H67282   6.764   0.712   1.586  0.7137  1.3933  0.5435
  488MOL0     H67283   6.628   0.882   1.473 -0.2278 -1.0138 -1.1120
  488MOL0     H67284   6.717   0.997   1.561  0.5344 -0.6460  1.1392
  488MOL0     H67285   6.827   0.806   1.336 -2.9428  0.4769 -0.4685
  488MOL0     H67286   6.940   0.912   1.414  0.4782 -1.2575 -2.1820
  488MOL0     H67287   6.681   0.995   1.290  0.4827 -1.3546  2.4313
  488MOL0     H67288   6.795   1.109   1.363 -0.9634  0.6369 -0.4702
  488MOL0     H67289   6.866   0.920   1.142  1.9817 -1.6197  0.8049
  488MOL0     H67290   6.959   1.061   1.200  0.0730 -0.4184 -0.4617
  488MOL0     H67291   6.698   1.037   1.050  0.1344  0.1436 -0.0400
  488MOL0     H67292   6.737   1.196   1.120  2.8036  1.4738  2.0483
  488MOL0     H67293   6.929   0.927   0.920  0.8215 -0.2882 -0.5819
  488MOL0     H67294   7.037   1.092   0.581  0.9633  1.4005  1.5867
  488MOL0     H67295   6.940   0.943   0.616  0.7816 -2.5999  1.6411
  488MOL0     H67296   7.209   0.996   0.753 -0.5625  0.1474  0.9945
  488MOL0     H67297   7.096   0.860   0.774 -3.0688  1.9500 -0.2075
  488MOL0     H67298   7.132   0.805   0.536  0.2945 -0.6030 -0.0792
  488MOL0     H67299   7.231   0.933   0.512  3.9040 -3.2681 -1.3794
  488MOL0     H67300   7.360   0.726   0.538 -3.1505 -1.8703 -1.0144
  488MOL0     H67301   7.420   0.829   0.656  0.4763  0.8371 -1.1489
  488MOL0     H67302   7.286   0.614   0.972  2.0097  0.9444  2.2239
  488MOL0     H67303   7.488   0.436   1.198 -1.2213  0.1088  1.7957
  488MOL0     H67304   7.327   0.489   1.148 -0.7456 -0.0563  0.4909
  488MOL0     H67305   7.431   0.608   1.221  2.5133  0.1011  0.6524
  488MOL0     H67306   8.070   0.727   1.057 -0.3910 -0.9247 -1.8183
  488MOL0     H67307   8.278   0.667   1.180  0.3949 -0.1089  1.5172
  488MOL0     H67308   8.300   0.240   1.316  0.4459  0.4699  0.1794
  488MOL0     H67309   8.383   0.288   1.159 -0.5266  1.2956 -0.5260
  488MOL0     H67310   8.572   0.216   1.295  1.8384  1.0767  1.0188
  488MOL0     H67311   8.569   0.390   1.290 -0.9912  0.3765 -1.6032
  488MOL0     H67312   8.442   0.243   1.532  1.1204 -0.5500  0.6852
  488MOL0     H67313   8.470   0.419   1.513  1.2178  1.9163 -2.0584
  488MOL0     H67314   8.705   0.381   1.484 -1.3810  1.6098  0.7154
  488MOL0     H67315   8.687   0.202   1.527  0.4003 -0.8201  0.0979
  488MOL0     H67316   8.646   0.441   1.714 -1.1331 -0.5798  0.6668
  488MOL0     H67317   8.587   0.279   1.737 -0.1907  1.4386 -0.1385
  488MOL0     H67318   8.871   0.338   1.661  0.4898  2.1582  1.7971
  488MOL0     H67319   8.804   0.186   1.731 -2.6069 -0.4191  1.4976
  488MOL0     H67320   8.918   0.287   1.886 -2.5938 -2.5759  0.5375
  488MOL0     H67321   8.762   0.296   1.959 -0.4668  0.5245  1.1466
  488MOL0     H67322   8.736   0.525   1.938  1.9444  2.1820  3.2304
  488MOL0     H67323   8.869   0.549   1.822 -2.7527  3.1856  0.1578
  488MOL0     H67324   8.119   0.267   1.231  1.6060  0.5302  1.5190
  488MOL0     H67325   7.920   0.330   1.116 -0.9853  0.6103  2.5369
  488MOL0     H67326   7.745   0.583   0.779 -0.1603 -1.8603 -0.9818
  488MOL0     H67327   7.562   0.638   0.647  1.7333  1.4568  0.4080
  488MOL0     H67328   6.285   0.681   1.674  0.9753  1.4345  0.1705
  488MOL0     H67329   6.047   0.647   1.729  2.1841 -1.3975 -0.3837
  488MOL0     H67330   5.706   0.814   2.027  0.5063 -0.1755 -0.5110
  488MOL0     H67331   5.492   0.682   2.059  2.5091 -1.6874 -0.5757
  488MOL0     H67332   5.310   0.552   2.053 -1.6555 -1.0979  2.2592
  488MOL0     H67333   5.255   0.719   2.086 -1.7187 -1.9671  2.6079
  488MOL0     H67334   5.066   0.578   2.136 -1.4827 -1.9641 -0.2314
  488MOL0     H67335   5.085   0.490   1.985 -1.4620  0.1989 -0.7307
  488MOL0     H67336   5.045   0.795   1.971  0.4948 -0.7286  2.8653
  488MOL0     H67337   5.004   0.675   1.845 -0.7083  1.9329 -0.7970
  488MOL0     H67338   4.873   0.707   2.113 -3.6141 -4.0835  1.4774
  488MOL0     H67339   4.825   0.582   1.997 -2.2888  0.2893  2.6955
  488MOL0     H67340   4.621   0.893   1.819 -0.6867 -1.0545 -0.9824
  488MOL0     H67341   5.369   0.779   1.665 -1.1810  1.3122  0.8899
  488MOL0     H67342   5.677   0.939   1.536 -1.5530  2.0650 -0.9260
  488MOL0     H67343   5.632   0.765   1.520 -1.4631 -0.3617  0.5383
  488MOL0     H67344   5.510   0.886   1.517 -1.0156  1.1389  1.6193
  489MOL0     O67345   9.840   5.932   6.154 -0.9847  1.1728  0.0478
  489MOL0     C67346   9.900   6.034   6.179  0.4954 -0.6430 -0.8108
  489MOL0     O67347   9.853   6.149   6.235  0.5081 -0.0728  0.2657
  489MOL0     C67348   9.731   6.143   6.293  0.1327  0.2331  0.4382
  489MOL0     C67349   9.665   6.260   6.297 -0.1586 -0.4518 -0.1252
  489MOL0     C67350   9.541   6.278   6.361 -0.4837 -0.8215 -0.0418
  489MOL0     C67351   9.479   6.175   6.423  0.2754  0.9136  0.1469
  489MOL0     O67352   9.346   6.200   6.465 -0.2913 -0.2715 -0.2692
  489MOL0     C67353   9.302   6.127   6.581 -0.1548 -0.0232 -0.1876
  489MOL0     C67354   9.148   6.098   6.565  0.4183  0.4469 -0.0355
  489MOL0     C67355   9.073   6.230   6.584 -0.3133  0.8599  0.0252
  489MOL0     C67356   8.924   6.203   6.578  0.2232 -0.6243  0.1877
  489MOL0     C67357   8.829   6.329   6.589  0.1626  0.4774  0.8878
  489MOL0     C67358   8.839   6.398   6.448  0.2557 -0.9255  0.2852
  489MOL0     C67359   8.733   6.513   6.426  0.0876  0.1139 -0.2749
  489MOL0     C67360   8.731   6.615   6.534  0.7576 -0.7919  0.6806
  489MOL0     N67361   8.643   6.721   6.476 -0.9868 -0.1199  0.7546
  489MOL0     C67362   8.680   6.813   6.380 -0.1058 -0.3788 -1.1304
  489MOL0     C67363   8.582   6.913   6.379 -0.4924 -0.2206 -0.5375
  489MOL0     C67364   8.580   7.036   6.292 -0.5773 -0.1364  0.0035
  489MOL0     C67365   8.672   7.139   6.353  0.2339 -0.3264  0.3668
  489MOL0     C67366   8.714   7.247   6.257 -1.2700 -0.4780 -0.1255
  489MOL0     C67367   8.794   7.372   6.311 -0.6199  1.5134 -0.5759
  489MOL0     O67368   8.927   7.340   6.349  0.4552  0.2663 -0.2739
  489MOL0     C67369   9.035   7.345   6.269  1.2957 -0.7894  0.1993
  489MOL0     C67370   9.040   7.324   6.132 -0.2912  0.3702 -0.0825
  489MOL0     C67371   9.160   7.319   6.056 -0.1185 -0.8553  0.8870
  489MOL0     C67372   9.143   7.291   5.907  0.1359  0.1760 -0.7924
  489MOL0     C67373   9.284   7.335   6.119  0.2609 -0.3310 -0.2730
  489MOL0     C67374   9.419   7.320   6.051  0.4804 -0.5979  0.1500
  489MOL0     O67375   9.522   7.389   6.113 -0.2018 -0.1389 -0.5264
  489MOL0     C67376   9.653   7.371   6.070 -1.4849 -0.7891 -0.2625
  489MOL0     C67377   9.732   7.259   6.097  0.1679 -0.1154 -0.8263
  489MOL0     C67378   9.869   7.249   6.064  0.7178 -0.5226  0.2255
  489MOL0     C67379   9.924   7.350   5.986 -0.8688 -0.3565  0.2815
  489MOL0     O67380  10.052   7.325   5.942  0.3605  0.0301  0.0976
  489MOL0     C67381  10.128   7.415   5.864 -0.9022  0.5029  0.1374
  489MOL0     C67382  10.274   7.377   5.850  0.2028  0.3106 -0.7135
  489MOL0     C67383  10.339   7.374   5.992 -1.1901 -0.3384  0.3403
  489MOL0     C67384  10.494   7.384   5.974  0.6469  1.1618 -0.7250
  489MOL0     C67385  10.561   7.422   6.107  0.5028  0.5134 -1.2198
  489MOL0     C67386  10.700   7.390   6.102  0.5257 -0.0687 -0.2076
  489MOL0     C67387  10.778   7.456   6.218 -0.3809  0.3990  1.3456
  489MOL0     C67388  10.936   7.421   6.212  1.1041 -0.0695  0.5436
  489MOL0    Cl67389  11.004   7.459   6.053 -0.1990  0.2877  0.3431
  489MOL0     C67390   9.850   7.465   5.959  0.6451 -0.5571  0.0112
  489MOL0     C67391   9.720   7.472   5.997  0.9506  0.3310 -0.2582
  489MOL0     O67392   9.430   7.239   5.966  0.4828  0.0124  0.3879
  489MOL0     C67393   9.284   7.366   6.256  0.1795 -0.2773  0.7699
  489MOL0     C67394   9.159   7.369   6.330 -0.6777  0.3341  0.4881
  489MOL0     N67395   8.501   6.879   6.486 -0.3002  0.2733 -0.8009
  489MOL0     N67396   8.539   6.769   6.539  1.2394 -0.4912  0.0253
  489MOL0     C67397   9.548   6.051   6.416  0.5161  0.0210 -0.4267
  489MOL0     C67398   9.671   6.034   6.356 -0.0559  0.5335 -0.4313
  489MOL0     C67399  10.036   6.052   6.126 -0.7450  0.5372  0.2153
  489MOL0     C67400  10.083   6.182   6.103  0.9131 -0.8396 -0.2701
  489MOL0     C67401  10.203   6.213   6.052  0.0591  0.3841  0.7191
  489MOL0     C67402  10.297   6.110   6.018 -1.5641  0.4687  0.2214
  489MOL0     O67403  10.430   6.127   5.971  0.2650 -0.4617 -0.1806
  489MOL0     C67404  10.494   6.245   6.000  0.2569 -0.1459  0.0637
  489MOL0     C67405  10.644   6.216   6.001 -0.2539  0.5031 -0.2584
  489MOL0     C67406  10.677   6.090   6.073  0.0981  0.7146  0.0974
  489MOL0     C67407  10.820   6.049   6.041 -0.3957 -0.2119 -0.0153
  489MOL0     C67408  10.866   5.938   6.124 -0.4861 -0.2288  0.1065
  489MOL0     C67409  10.910   5.846   6.198  0.0975 -0.2615 -0.0321
  489MOL0     C67410  10.255   5.982   6.033 -0.3446  0.0418  0.8866
  489MOL0     C67411  10.132   5.954   6.093  0.4013  0.1388 -0.1172
  489MOL0     C67412  10.110   5.798   6.107  0.2726  1.0316  0.1817
  489MOL0     H67413   9.710   6.355   6.272 -0.7138 -0.0268  0.4617
  489MOL0     H67414   9.496   6.377   6.365  1.2899  0.0006  3.3760
  489MOL0     H67415   9.331   6.185   6.669  2.0114  1.0031 -1.4833
  489MOL0     H67416   9.355   6.032   6.584  0.0703  0.1161  0.3411
  489MOL0     H67417   9.132   6.048   6.469  3.2278 -2.4589  0.8076
  489MOL0     H67418   9.135   6.024   6.645  1.4964 -0.9047 -1.0463
  489MOL0     H67419   9.097   6.275   6.681  0.0285  0.0639  0.3157
  489MOL0     H67420   9.110   6.295   6.505  0.8393 -1.1418 -1.1686
  489MOL0     H67421   8.896   6.149   6.487 -1.1406  0.9506 -0.3850
  489MOL0     H67422   8.893   6.151   6.669 -1.6949  0.2418  0.0793
  489MOL0     H67423   8.843   6.390   6.679 -2.2122 -0.7927  2.2459
  489MOL0     H67424   8.725   6.296   6.591  0.1747  0.4285  0.6768
  489MOL0     H67425   8.943   6.430   6.436  0.1861 -0.4610  0.8848
  489MOL0     H67426   8.816   6.324   6.370  0.1457 -2.1603  1.4485
  489MOL0     H67427   8.636   6.462   6.427  0.3002 -0.3794  2.3290
  489MOL0     H67428   8.765   6.571   6.339  2.4011 -1.4068 -0.5289
  489MOL0     H67429   8.692   6.577   6.629 -0.2649  0.7221  0.9033
  489MOL0     H67430   8.828   6.664   6.548  0.1075  1.5891 -2.1535
  489MOL0     H67431   8.766   6.809   6.313 -0.9938 -0.6183 -2.2785
  489MOL0     H67432   8.480   7.079   6.280  0.1776  1.2735 -1.6670
  489MOL0     H67433   8.605   7.019   6.187  1.1449  2.9151 -0.1949
  489MOL0     H67434   8.623   7.179   6.442 -1.4006  2.0245 -1.4601
  489MOL0     H67435   8.760   7.085   6.391  0.9215 -1.4639 -2.5629
  489MOL0     H67436   8.767   7.205   6.172 -0.2608 -0.8616  0.6663
  489MOL0     H67437   8.622   7.291   6.218 -1.1962 -1.0580 -0.9889
  489MOL0     H67438   8.785   7.443   6.228  1.7437  1.1839 -1.2099
  489MOL0     H67439   8.746   7.417   6.398 -1.4580  0.8826 -0.6963
  489MOL0     H67440   8.953   7.334   6.067 -1.2256 -0.7417  0.9586
  489MOL0     H67441   9.053   7.231   5.894 -0.6198  1.0688  0.1234
  489MOL0     H67442   9.224   7.228   5.870  0.0333 -0.5577  0.2034
  489MOL0     H67443   9.142   7.386   5.852 -2.6506 -0.2693 -1.6708
  489MOL0     H67444   9.704   7.176   6.160  3.5864  0.3998  1.6324
  489MOL0     H67445   9.922   7.155   6.080 -0.0201 -0.7021  1.8032
  489MOL0     H67446  10.084   7.431   5.765 -0.2818 -2.3608 -0.7082
  489MOL0     H67447  10.118   7.516   5.904  0.5154  1.5153 -1.8604
  489MOL0     H67448  10.284   7.271   5.827  0.7162 -0.0372  0.9393
  489MOL0     H67449  10.319   7.439   5.772  1.8948 -0.0489 -0.0693
  489MOL0     H67450  10.297   7.298   6.058 -2.2994  1.6329  2.0396
  489MOL0     H67451  10.309   7.463   6.048 -1.2472 -0.2756  0.2095
  489MOL0     H67452  10.510   7.464   5.901  1.1032  1.1165 -0.6738
  489MOL0     H67453  10.531   7.293   5.926 -1.9515 -1.0879  1.1860
  489MOL0     H67454  10.550   7.530   6.122  1.8255  0.9135 -2.8627
  489MOL0     H67455  10.510   7.379   6.194 -0.1223  0.7141 -1.4864
  489MOL0     H67456  10.743   7.435   6.012  1.2988  0.5469  0.4526
  489MOL0     H67457  10.741   7.289   6.097  2.9281  0.7061  1.9529
  489MOL0     H67458  10.747   7.411   6.313 -0.5627 -1.1836  0.5729
  489MOL0     H67459  10.769   7.565   6.215 -1.0985  0.3303  0.7386
  489MOL0     H67460  10.942   7.313   6.228 -0.5482 -0.7333 -2.4828
  489MOL0     H67461  11.001   7.483   6.274  1.2927  0.2609  0.0251
  489MOL0     H67462   9.902   7.546   5.908  3.3116 -0.9769  1.8500
  489MOL0     H67463   9.659   7.561   5.983 -1.2432 -0.3740  3.3472
  489MOL0     H67464   9.383   7.361   6.299  1.2328 -0.6155 -1.5018
  489MOL0     H67465   9.169   7.379   6.438  1.2554  0.9239  0.2925
  489MOL0     H67466   9.505   5.966   6.468 -3.0779  0.8922 -1.7429
  489MOL0     H67467   9.723   5.940   6.371 -0.0393  0.4551 -0.9704
  489MOL0     H67468  10.026   6.269   6.132  1.5165 -1.4697  3.3751
  489MOL0     H67469  10.241   6.314   6.046 -0.8517  0.6429 -1.6772
  489MOL0     H67470  10.456   6.325   5.935 -1.3347  1.0835  2.3308
  489MOL0     H67471  10.473   6.286   6.100 -0.2870 -0.3763  0.0463
  489MOL0     H67472  10.709   6.289   6.051 -2.3401  0.5374  2.6310
  489MOL0     H67473  10.683   6.208   5.899 -0.5771 -2.0316 -0.2251
  489MOL0     H67474  10.668   6.093   6.182 -5.0213 -0.3249 -0.0040
  489MOL0     H67475  10.614   6.005   6.044 -0.1617  0.6663  0.7775
  489MOL0     H67476  10.888   6.128   6.073  1.0372 -1.5937  0.5314
  489MOL0     H67477  10.845   6.021   5.938  2.3714  2.4745 -0.2131
  489MOL0     H67478  10.934   5.759   6.255  0.7362  0.8246  1.4270
  489MOL0     H67479  10.323   5.907   5.994  0.1528  2.1696 -2.9234
  489MOL0     H67480  10.116   5.774   6.214 -0.9655  0.1363  0.0650
  489MOL0     H67481  10.016   5.766   6.063  1.0401  0.4439 -1.0879
  489MOL0     H67482  10.189   5.739   6.059 -0.2849  1.3267 -1.1449
  490MOL0     O67483   9.377   6.042   1.889 -0.4434 -0.1198  0.4247
  490MOL0     C67484   9.454   6.080   1.799 -0.1247  0.5504 -0.5210
  490MOL0     O67485   9.427   6.176   1.702  0.3262 -0.8339 -0.4337
  490MOL0     C67486   9.305   6.239   1.700 -0.1960  0.1787 -0.5372
  490MOL0     C67487   9.209   6.179   1.616  0.2883  0.3465 -0.9589
  490MOL0     C67488   9.079   6.228   1.604  0.5670 -0.1095 -0.6193
  490MOL0     C67489   9.035   6.336   1.684 -0.2082  0.0921  0.4497
  490MOL0     O67490   8.905   6.380   1.703 -0.1330  0.3529  0.1040
  490MOL0     C67491   8.799   6.293   1.660 -0.7963  0.5034  0.2652
  490MOL0     C67492   8.789   6.166   1.745 -0.0212 -0.3842  0.8042
  490MOL0     C67493   8.720   6.048   1.681 -0.4670 -0.1859  0.3139
  490MOL0     C67494   8.803   5.964   1.593  0.8231 -0.1155  0.0459
  490MOL0     C67495   8.742   5.827   1.572  0.4985 -0.0121  0.4330
  490MOL0     C67496   8.846   5.731   1.514 -0.2064 -0.3069 -0.5402
  490MOL0     C67497   8.816   5.594   1.485 -0.3106  0.6439  0.1776
  490MOL0     C67498   8.832   5.504   1.615 -0.0214 -1.0335  0.0907
  490MOL0     N67499   8.762   5.372   1.601 -0.1631 -0.2700 -0.5219
  490MOL0     C67500   8.624   5.356   1.587 -0.0245  0.0373 -0.5136
  490MOL0     C67501   8.605   5.230   1.533  0.1197 -0.3689  0.0177
  490MOL0     C67502   8.476   5.157   1.491 -1.1225 -0.5325  0.3190
  490MOL0     C67503   8.369   5.154   1.600 -0.3151 -0.1443 -0.1999
  490MOL0     C67504   8.390   5.061   1.733 -0.6113 -0.5786  0.3340
  490MOL0     C67505   8.267   5.052   1.821 -0.1409  0.7462  0.6862
  490MOL0     O67506   8.240   5.169   1.901 -0.2778  0.0112 -0.3945
  490MOL0     C67507   8.320   5.190   2.016 -0.1305  0.3183 -0.5154
  490MOL0     C67508   8.399   5.090   2.084 -0.0449  0.8971  0.0500
  490MOL0     C67509   8.489   5.123   2.192 -0.1460 -0.2297 -0.7661
  490MOL0     C67510   8.545   5.008   2.266 -0.8132 -0.3482 -0.2578
  490MOL0     C67511   8.510   5.261   2.227 -0.3396  0.1863  0.0405
  490MOL0     C67512   8.594   5.301   2.345  0.0519  0.0360 -0.4955
  490MOL0     O67513   8.579   5.440   2.376 -0.6745 -0.4818  0.1718
  490MOL0     C67514   8.660   5.490   2.472 -0.0110  0.0348 -0.1237
  490MOL0     C67515   8.593   5.552   2.581  0.3853  1.6418 -0.2529
  490MOL0     C67516   8.667   5.629   2.676  0.0540 -0.2922 -0.2303
  490MOL0     C67517   8.802   5.622   2.672  0.9685 -0.3760 -0.6203
  490MOL0     O67518   8.882   5.695   2.759  0.2091  0.6078 -0.0029
  490MOL0     C67519   8.823   5.748   2.868 -0.8741 -0.5617  0.1847
  490MOL0     C67520   8.946   5.803   2.961  0.6182 -0.1342 -0.2537
  490MOL0     C67521   9.032   5.681   3.010  0.2399  0.5463  0.4746
  490MOL0     C67522   9.124   5.725   3.127 -0.5750  1.0225  0.6888
  490MOL0     C67523   9.201   5.606   3.174 -0.5539  0.6034  0.4033
  490MOL0     C67524   9.114   5.532   3.275 -0.4703  0.6344 -0.3710
  490MOL0     C67525   9.116   5.603   3.414 -0.7683  0.5203 -0.1397
  490MOL0     C67526   9.016   5.534   3.506 -1.3525 -0.7209  0.1017
  490MOL0    Cl67527   9.068   5.537   3.676 -0.4938  0.0876  0.0797
  490MOL0     C67528   8.868   5.554   2.568  0.7427 -0.1300  0.7272
  490MOL0     C67529   8.796   5.481   2.473  1.0142  0.1070  0.2174
  490MOL0     O67530   8.665   5.221   2.410 -0.1000 -0.2766  0.2025
  490MOL0     C67531   8.448   5.355   2.142  0.3388 -0.3709  0.6468
  490MOL0     C67532   8.351   5.325   2.041  0.1770  0.2132 -0.6012
  490MOL0     N67533   8.733   5.177   1.511 -0.6477 -1.0968 -0.7396
  490MOL0     N67534   8.828   5.259   1.556  0.4428 -0.3894 -0.4565
  490MOL0     C67535   9.135   6.397   1.768 -0.7845 -0.6707  0.2466
  490MOL0     C67536   9.266   6.348   1.776 -0.5693  0.2273  0.7453
  490MOL0     C67537   9.588   6.025   1.805  0.1784 -0.7453 -1.3709
  490MOL0     C67538   9.648   5.985   1.679  0.8371 -0.5507 -0.7938
  490MOL0     C67539   9.781   5.938   1.670  0.2791 -0.0425 -0.8462
  490MOL0     C67540   9.857   5.925   1.789 -0.0672 -0.4216  0.2536
  490MOL0     O67541   9.983   5.875   1.791 -0.0396  0.5525 -0.3065
  490MOL0     C67542  10.050   5.854   1.670  0.0996 -0.1832  0.3251
  490MOL0     C67543  10.011   5.733   1.584 -0.5791  0.1689 -0.0875
  490MOL0     C67544  10.086   5.605   1.632 -0.0973 -0.5619 -0.5799
  490MOL0     C67545  10.040   5.478   1.559 -0.7577  0.5469 -0.1522
  490MOL0     C67546  10.102   5.364   1.627  0.2770 -0.0070 -0.1984
  490MOL0     C67547  10.156   5.282   1.696 -0.4835  0.4832  0.7395
  490MOL0     C67548   9.800   5.954   1.915  0.4636 -0.4173  0.0859
  490MOL0     C67549   9.669   6.007   1.921 -0.0828  0.7670 -0.1396
  490MOL0     C67550   9.628   6.051   2.058 -0.1141  0.3501  0.6571
  490MOL0     H67551   9.224   6.103   1.540  0.0094  3.8106 -4.8348
  490MOL0     H67552   9.007   6.177   1.541 -1.3078  1.8603 -0.1659
  490MOL0     H67553   8.820   6.275   1.554  4.7290  1.8083  0.8354
  490MOL0     H67554   8.711   6.358   1.663 -0.7991  0.4522  1.7584
  490MOL0     H67555   8.882   6.143   1.797 -0.3476 -1.3952  0.9570
  490MOL0     H67556   8.725   6.186   1.832 -1.6858 -0.5607 -0.3221
  490MOL0     H67557   8.674   5.991   1.762 -0.5313 -0.9622 -0.2467
  490MOL0     H67558   8.639   6.078   1.614  1.6412  0.4705 -2.1007
  490MOL0     H67559   8.831   6.009   1.497  0.0706 -0.2447 -0.2398
  490MOL0     H67560   8.888   5.940   1.658  0.9545  4.0534  1.7346
  490MOL0     H67561   8.657   5.828   1.503  0.4390 -0.8959  0.4766
  490MOL0     H67562   8.700   5.772   1.657 -2.8063 -1.6046 -1.9996
  490MOL0     H67563   8.870   5.769   1.415  3.6776 -2.3316 -0.5571
  490MOL0     H67564   8.934   5.745   1.577 -1.6258  2.5394  1.0263
  490MOL0     H67565   8.886   5.555   1.410  0.6154  1.0132  0.8286
  490MOL0     H67566   8.714   5.580   1.449  0.2399 -2.2320 -0.5743
  490MOL0     H67567   8.940   5.489   1.631 -0.1354 -1.5346  0.3958
  490MOL0     H67568   8.796   5.559   1.703  0.4352  0.3277 -0.5417
  490MOL0     H67569   8.546   5.429   1.608 -0.8459 -0.4518 -1.7372
  490MOL0     H67570   8.497   5.051   1.473 -0.4683 -0.6482  1.6156
  490MOL0     H67571   8.444   5.196   1.395 -1.3852 -0.1387  0.5667
  490MOL0     H67572   8.345   5.256   1.631  0.7873 -0.4528  1.8491
  490MOL0     H67573   8.280   5.115   1.550 -0.2068 -0.5343 -0.0930
  490MOL0     H67574   8.420   4.958   1.713 -1.1093 -0.4179 -1.4275
  490MOL0     H67575   8.470   5.109   1.789  0.9156 -0.5935 -1.7341
  490MOL0     H67576   8.177   5.043   1.760  1.4293  0.2700 -1.6906
  490MOL0     H67577   8.284   4.961   1.880  0.6030  1.0121  0.8988
  490MOL0     H67578   8.380   4.983   2.079  0.5849  0.7932 -0.1156
  490MOL0     H67579   8.489   4.997   2.359 -0.5397 -1.4021 -0.2066
  490MOL0     H67580   8.648   5.019   2.299 -1.3966 -2.2994  2.5677
  490MOL0     H67581   8.545   4.923   2.197  2.6499  0.3914 -1.3719
  490MOL0     H67582   8.486   5.570   2.584  0.4645  2.2571 -0.9126
  490MOL0     H67583   8.609   5.683   2.750  1.5985  1.7190 -0.4114
  490MOL0     H67584   8.755   5.831   2.849  0.4356  0.6893  0.7503
  490MOL0     H67585   8.770   5.671   2.925 -0.7183 -0.3931  0.5556
  490MOL0     H67586   9.003   5.883   2.912  1.6016 -0.2953  0.5897
  490MOL0     H67587   8.901   5.850   3.049  1.1118  0.5511 -0.3560
  490MOL0     H67588   9.082   5.621   2.934  1.7771 -3.0043  3.9586
  490MOL0     H67589   8.952   5.621   3.053 -1.3464  0.3885 -2.4691
  490MOL0     H67590   9.064   5.774   3.204 -0.1890 -0.1187  1.7475
  490MOL0     H67591   9.206   5.789   3.094  0.4008 -0.3987  0.2382
  490MOL0     H67592   9.232   5.541   3.092 -1.4953 -1.5658  1.6931
  490MOL0     H67593   9.292   5.638   3.226  1.1517  0.4150 -2.2420
  490MOL0     H67594   9.162   5.435   3.292  1.1877  1.7000  1.5352
  490MOL0     H67595   9.015   5.513   3.233  0.8075  2.2181 -4.6591
  490MOL0     H67596   9.109   5.712   3.407  4.5744  1.1537  0.2201
  490MOL0     H67597   9.212   5.578   3.460 -1.5194  0.3615  1.4080
  490MOL0     H67598   9.005   5.427   3.490 -2.6798 -0.5608 -0.1655
  490MOL0     H67599   8.912   5.567   3.496 -1.3974 -0.4914  1.2137
  490MOL0     H67600   8.976   5.550   2.564  0.7229  0.1856 -0.5705
  490MOL0     H67601   8.844   5.414   2.401 -2.4719 -1.7854 -0.5676
  490MOL0     H67602   8.467   5.459   2.166  1.4024 -0.4279  0.1282
  490MOL0     H67603   8.302   5.400   1.979 -0.8367  0.0206 -0.0563
  490MOL0     H67604   9.108   6.479   1.835  0.6309  0.2798 -0.2942
  490MOL0     H67605   9.335   6.400   1.842 -0.3750  0.2887  0.4992
  490MOL0     H67606   9.589   6.003   1.590 -2.1222  1.4503  1.4019
  490MOL0     H67607   9.826   5.903   1.577  1.6542  0.4460 -0.3946
  490MOL0     H67608  10.035   5.940   1.605 -0.1338 -0.2110  0.3404
  490MOL0     H67609  10.156   5.854   1.694  0.1612  2.8450  0.4682
  490MOL0     H67610  10.036   5.746   1.479  0.8909 -1.1145  0.0619
  490MOL0     H67611   9.904   5.713   1.601 -1.0315  0.4699 -2.3520
  490MOL0     H67612  10.194   5.613   1.617  0.4791 -0.3733  2.9002
  490MOL0     H67613  10.064   5.598   1.739  0.4252  1.1037 -0.3397
  490MOL0     H67614  10.067   5.482   1.453  0.7942 -2.6180  0.0018
  490MOL0     H67615   9.932   5.470   1.568 -0.7156 -0.2878 -0.2564
  490MOL0     H67616  10.223   5.214   1.744 -1.4582 -0.1806  1.2081
  490MOL0     H67617   9.856   5.941   2.007 -2.1077 -1.9322  1.5384
  490MOL0     H67618   9.561   5.975   2.099  1.4505 -2.6765 -1.9765
  490MOL0     H67619   9.717   6.059   2.121 -0.0802  0.6322  0.5787
  490MOL0     H67620   9.583   6.151   2.055  1.6234  1.1622  0.2495
  491MOL0     O67621   8.462   6.774   4.440  0.5231  0.5433 -0.7063
  491MOL0     C67622   8.402   6.825   4.538 -0.9829 -0.0298 -0.3068
  491MOL0     O67623   8.457   6.858   4.657 -0.5086 -0.2431  0.0079
  491MOL0     C67624   8.587   6.846   4.665  0.1929  0.2710  0.2786
  491MOL0     C67625   8.636   6.743   4.746  0.6642  0.1562  0.4989
  491MOL0     C67626   8.771   6.726   4.770 -0.2263 -0.1956  0.5317
  491MOL0     C67627   8.866   6.805   4.704  0.1340  0.0866  0.2883
  491MOL0     O67628   9.010   6.784   4.712 -0.0894 -0.4440  0.0405
  491MOL0     C67629   9.064   6.653   4.725  0.7021  0.5323  0.6836
  491MOL0     C67630   9.212   6.647   4.729  0.0518 -0.5504  0.7652
  491MOL0     C67631   9.284   6.748   4.817  0.1836 -0.1716 -0.7406
  491MOL0     C67632   9.437   6.746   4.781 -0.6421 -0.2651 -0.4023
  491MOL0     C67633   9.523   6.816   4.887 -0.3372 -0.0630  0.4550
  491MOL0     C67634   9.473   6.951   4.932 -0.5937  0.7902 -0.3715
  491MOL0     C67635   9.551   6.993   5.054  0.6620  0.4734 -0.3600
  491MOL0     C67636   9.708   7.010   5.047 -0.0346 -0.4359 -0.7569
  491MOL0     N67637   9.758   7.093   4.944 -1.3998 -0.2825  0.5225
  491MOL0     C67638   9.739   7.228   4.924 -0.9876  0.0640  0.3336
  491MOL0     C67639   9.790   7.260   4.802  0.2127 -0.0534 -0.1536
  491MOL0     C67640   9.787   7.391   4.725 -0.5439 -0.0931  0.5171
  491MOL0     C67641   9.645   7.420   4.706  0.2001 -1.0413 -0.3073
  491MOL0     C67642   9.637   7.540   4.611 -0.0964 -0.2529 -0.2222
  491MOL0     C67643   9.494   7.578   4.581 -0.8722  0.3123  0.0401
  491MOL0     O67644   9.434   7.628   4.701  0.5800  0.1645  0.4225
  491MOL0     C67645   9.313   7.687   4.673 -0.0131  0.0101 -0.0162
  491MOL0     C67646   9.239   7.693   4.548 -0.5867 -0.5621  0.4010
  491MOL0     C67647   9.127   7.766   4.525 -0.6082  0.1970  0.2609
  491MOL0     C67648   9.051   7.775   4.389 -1.1539 -0.1535 -0.4703
  491MOL0     C67649   9.094   7.848   4.634 -0.1637 -0.3390 -0.9845
  491MOL0     C67650   8.971   7.946   4.629  0.1413  0.0509 -0.7333
  491MOL0     O67651   8.916   7.982   4.506  0.0062  0.3210 -0.1730
  491MOL0     C67652   8.851   8.101   4.512  0.3981  0.8136  0.1959
  491MOL0     C67653   8.716   8.095   4.530 -0.8375  0.0000 -0.5376
  491MOL0     C67654   8.646   8.220   4.531  0.4457 -1.2138  0.9045
  491MOL0     C67655   8.707   8.337   4.511  0.1730 -0.0545  0.3478
  491MOL0     O67656   8.628   8.445   4.511  0.4631 -0.2305  0.4637
  491MOL0     C67657   8.680   8.567   4.452 -0.1006  0.5948 -0.3978
  491MOL0     C67658   8.563   8.661   4.412 -0.1851  0.6106  0.4156
  491MOL0     C67659   8.513   8.639   4.267 -0.4419  0.7504 -0.4040
  491MOL0     C67660   8.431   8.755   4.209 -0.0947  0.9413  0.6644
  491MOL0     C67661   8.448   8.760   4.050 -0.1543 -0.6933 -0.3218
  491MOL0     C67662   8.423   8.632   3.975 -0.2090  0.3550 -0.0218
  491MOL0     C67663   8.272   8.598   3.992 -0.8489  0.4956  0.6055
  491MOL0     C67664   8.237   8.506   3.873 -0.6997  0.4090 -0.0594
  491MOL0    Cl67665   8.063   8.464   3.893 -0.0415 -0.4550  0.0036
  491MOL0     C67666   8.840   8.340   4.497  0.1252 -0.8473  0.0645
  491MOL0     C67667   8.913   8.222   4.505 -0.4317  0.1326  0.6485
  491MOL0     O67668   8.936   7.990   4.742  0.1691 -0.5290  0.1606
  491MOL0     C67669   9.160   7.846   4.758  0.2127 -0.1942  0.4224
  491MOL0     C67670   9.277   7.766   4.777 -0.0291 -0.4592  0.0604
  491MOL0     N67671   9.834   7.146   4.748 -0.0137  0.3283  0.1501
  491MOL0     N67672   9.826   7.046   4.835  0.3667  0.1707  0.0485
  491MOL0     C67673   8.821   6.906   4.621 -0.1945 -0.2541 -0.3953
  491MOL0     C67674   8.685   6.923   4.599  1.1121  0.9972  0.3555
  491MOL0     C67675   8.258   6.847   4.521  0.0823 -0.6959  0.7769
  491MOL0     C67676   8.188   6.869   4.634  0.2632  0.5173 -0.0612
  491MOL0     C67677   8.049   6.873   4.629 -0.8306 -0.2469  0.0305
  491MOL0     C67678   7.981   6.884   4.508 -0.2277 -1.2331  0.5468
  491MOL0     O67679   7.855   6.911   4.496 -0.0746  0.7941 -0.8632
  491MOL0     C67680   7.772   6.825   4.573 -0.7165 -0.2454 -0.5671
  491MOL0     C67681   7.716   6.900   4.704  0.0452 -0.5798  0.0331
  491MOL0     C67682   7.672   6.811   4.822 -0.3129  0.0389  0.5134
  491MOL0     C67683   7.524   6.772   4.798  0.2656  0.3585 -0.2622
  491MOL0     C67684   7.464   6.694   4.905 -0.2553  0.0078 -0.7756
  491MOL0     C67685   7.425   6.628   4.995  0.8028 -0.0251  0.1656
  491MOL0     C67686   8.053   6.877   4.390 -0.7541  0.1109  0.5465
  491MOL0     C67687   8.192   6.850   4.393  0.6084  0.4418  0.6871
  491MOL0     C67688   8.254   6.824   4.254  0.6775 -0.1026 -0.4722
  491MOL0     H67689   8.571   6.684   4.810  1.1456  3.1374  4.1191
  491MOL0     H67690   8.797   6.649   4.843 -0.9248  0.7664  1.8306
  491MOL0     H67691   9.039   6.583   4.645  1.1752  0.3551  0.6896
  491MOL0     H67692   9.034   6.617   4.824 -2.5120  5.0485  1.6765
  491MOL0     H67693   9.257   6.552   4.759  3.0527  1.0796  1.8615
  491MOL0     H67694   9.241   6.669   4.626 -0.5535 -0.5929  0.5800
  491MOL0     H67695   9.237   6.846   4.806 -0.6178 -0.3062  1.1631
  491MOL0     H67696   9.281   6.722   4.923  0.8354 -1.2198 -0.9621
  491MOL0     H67697   9.471   6.642   4.779 -0.6206 -0.2519 -0.8320
  491MOL0     H67698   9.454   6.795   4.685 -0.0817  2.8343  1.1540
  491MOL0     H67699   9.624   6.826   4.848 -0.6525 -1.3361 -0.7623
  491MOL0     H67700   9.522   6.754   4.978 -2.5415  2.0736  2.0260
  491MOL0     H67701   9.480   7.028   4.856  0.2217  1.1379  0.0477
  491MOL0     H67702   9.371   6.943   4.971 -0.2455 -1.7535  0.2061
  491MOL0     H67703   9.539   6.921   5.136 -3.3904 -1.7800 -2.6481
  491MOL0     H67704   9.504   7.086   5.089 -0.3111  0.6321 -1.9893
  491MOL0     H67705   9.743   7.059   5.138 -1.0370 -0.5304 -0.3188
  491MOL0     H67706   9.760   6.914   5.049 -0.8376 -0.8712  0.9127
  491MOL0     H67707   9.704   7.302   4.996  1.1979  0.2540  1.3116
  491MOL0     H67708   9.841   7.377   4.631  0.4087 -0.5820  1.1270
  491MOL0     H67709   9.833   7.469   4.785 -0.1343  1.9907 -2.3017
  491MOL0     H67710   9.596   7.340   4.651 -1.6257  1.4492 -2.6035
  491MOL0     H67711   9.597   7.435   4.803  2.6659 -3.1321  1.3784
  491MOL0     H67712   9.690   7.627   4.651 -0.4727  1.1369 -2.5815
  491MOL0     H67713   9.681   7.520   4.513 -0.1136  2.3700 -0.8346
  491MOL0     H67714   9.483   7.647   4.497  0.2895 -2.7778 -2.8874
  491MOL0     H67715   9.440   7.494   4.534  1.0292  0.2141 -2.1258
  491MOL0     H67716   9.268   7.629   4.466  2.2432  1.2145 -0.1323
  491MOL0     H67717   9.082   7.687   4.332  1.9989 -0.6390  1.7292
  491MOL0     H67718   9.070   7.862   4.325 -0.7535 -0.3959 -0.6891
  491MOL0     H67719   8.947   7.770   4.421 -0.4616  0.1097  2.0532
  491MOL0     H67720   8.670   7.999   4.550 -0.2380 -1.1733 -4.1909
  491MOL0     H67721   8.542   8.201   4.505  0.4827 -0.3694  0.0754
  491MOL0     H67722   8.737   8.628   4.523 -2.9855  2.1064  0.8277
  491MOL0     H67723   8.730   8.543   4.358  1.2483 -1.6204  0.8070
  491MOL0     H67724   8.490   8.655   4.494  0.4226  2.3502  1.1374
  491MOL0     H67725   8.600   8.764   4.413  1.2264  0.1941 -1.9878
  491MOL0     H67726   8.456   8.545   4.267 -1.4880  1.3339  1.0247
  491MOL0     H67727   8.605   8.623   4.210  0.3542 -2.2984  1.4839
  491MOL0     H67728   8.474   8.849   4.246  1.0099  1.3112 -1.3712
  491MOL0     H67729   8.327   8.747   4.239  0.3423 -0.8387  1.8942
  491MOL0     H67730   8.388   8.840   4.006 -0.1334 -2.2407 -3.4076
  491MOL0     H67731   8.552   8.789   4.033  0.2242 -2.2131 -0.7758
  491MOL0     H67732   8.482   8.548   4.014 -0.6335 -0.0361 -0.2071
  491MOL0     H67733   8.450   8.639   3.869  3.0228 -0.9147  0.6065
  491MOL0     H67734   8.209   8.688   3.987 -1.6991 -0.0295  1.5948
  491MOL0     H67735   8.261   8.555   4.092  1.9518  0.3281  0.9132
  491MOL0     H67736   8.308   8.423   3.873 -1.1492 -0.0121 -1.5800
  491MOL0     H67737   8.247   8.556   3.776 -0.2923  1.0308  0.2900
  491MOL0     H67738   8.884   8.438   4.508  1.0594 -1.1696 -0.6083
  491MOL0     H67739   9.021   8.224   4.497 -0.3890 -1.6726  0.3841
  491MOL0     H67740   9.127   7.897   4.848  1.2824  1.0077  0.1657
  491MOL0     H67741   9.321   7.759   4.876 -1.3718 -0.8101  0.6633
  491MOL0     H67742   8.893   6.976   4.581  0.4183 -0.5265  0.2080
  491MOL0     H67743   8.656   6.997   4.525 -0.4066  0.0646 -0.0315
  491MOL0     H67744   8.235   6.876   4.732 -2.7908  2.1264  1.4304
  491MOL0     H67745   7.998   6.886   4.724 -2.4778  0.5912 -0.9264
  491MOL0     H67746   7.683   6.797   4.518 -1.6140  1.0583  0.1581
  491MOL0     H67747   7.820   6.727   4.578  5.1746  1.8067 -5.0406
  491MOL0     H67748   7.639   6.973   4.676  0.1680 -0.5584 -0.2526
  491MOL0     H67749   7.790   6.967   4.749 -0.2356 -1.5446  2.0487
  491MOL0     H67750   7.726   6.718   4.843 -1.0253  0.0735  2.6343
  491MOL0     H67751   7.671   6.872   4.912  0.4551  2.3269 -0.9390
  491MOL0     H67752   7.510   6.709   4.710 -3.9303 -0.5709  0.8362
  491MOL0     H67753   7.453   6.856   4.799 -0.9962 -0.6541  2.0559
  491MOL0     H67754   7.394   6.574   5.082 -3.3581  0.9230 -0.5199
  491MOL0     H67755   8.004   6.894   4.294  2.2635  1.0068 -0.9664
  491MOL0     H67756   8.332   6.897   4.228  0.2570  0.9379  1.0968
  491MOL0     H67757   8.305   6.727   4.262 -1.4411 -1.2644 -0.4282
  491MOL0     H67758   8.183   6.810   4.172 -1.8838  3.6335  0.8907
  492MOL0     O67759   3.289  11.274   9.343 -0.2440  0.3782 -0.2461
  492MOL0     C67760   3.240  11.340   9.252  0.3539  0.8521 -0.8345
  492MOL0     O67761   3.212  11.473   9.253  0.4212  0.2259  0.1757
  492MOL0     C67762   3.237  11.564   9.353  0.0575  0.5012 -0.3583
  492MOL0     C67763   3.151  11.669   9.358 -0.7288 -0.0017  0.9982
  492MOL0     C67764   3.149  11.774   9.455 -0.4325 -0.9672  0.1316
  492MOL0     C67765   3.255  11.779   9.543  0.3086  0.4869 -0.8171
  492MOL0     O67766   3.281  11.874   9.638  0.2746  0.4843 -0.2284
  492MOL0     C67767   3.227  12.011   9.617  0.4562  0.9264 -0.0040
  492MOL0     C67768   3.310  12.109   9.709  0.0241  0.1690  0.8292
  492MOL0     C67769   3.413  12.195   9.623  0.6094  0.2091 -0.7399
  492MOL0     C67770   3.512  12.268   9.706 -0.6302  0.2559  0.0814
  492MOL0     C67771   3.647  12.275   9.636  0.3912 -0.0083  0.0945
  492MOL0     C67772   3.751  12.359   9.713  0.3876  0.0723 -0.2088
  492MOL0     C67773   3.863  12.390   9.620  0.6749 -0.2276 -0.1970
  492MOL0     C67774   3.942  12.500   9.688  0.0534  0.4430 -0.3544
  492MOL0     N67775   4.065  12.545   9.618  0.8582  0.5994  0.8485
  492MOL0     C67776   4.187  12.482   9.620 -0.3140  0.2350 -0.7707
  492MOL0     C67777   4.273  12.555   9.538  0.9601  0.1098 -0.0089
  492MOL0     C67778   4.419  12.534   9.502  0.0138 -0.0992  0.1944
  492MOL0     C67779   4.537  12.637   9.547  0.4257  0.1738  1.1096
  492MOL0     C67780   4.678  12.586   9.518 -0.4737 -0.5238  0.0358
  492MOL0     C67781   4.791  12.616   9.622 -0.1365  0.5669  0.4269
  492MOL0     O67782   4.847  12.732   9.568  0.0771 -0.5791  0.0390
  492MOL0     C67783   4.966  12.780   9.614  0.2188  0.5650 -0.2454
  492MOL0     C67784   5.045  12.859   9.541 -1.1184 -0.4978  0.6436
  492MOL0     C67785   5.167  12.917   9.595 -0.1389 -0.8831 -0.1098
  492MOL0     C67786   5.248  13.007   9.505 -0.1772 -0.0123 -0.2335
  492MOL0     C67787   5.192  12.901   9.728  0.3072 -0.1146 -0.8225
  492MOL0     C67788   5.308  12.951   9.801  0.7101 -0.3250  0.3568
  492MOL0     O67789   5.288  13.048   9.902 -0.6841 -0.3616  0.3094
  492MOL0     C67790   5.391  13.072   9.988 -0.6440 -0.5159  1.0152
  492MOL0     C67791   5.373  13.041  10.127  0.3131 -0.8503  0.2894
  492MOL0     C67792   5.478  13.044  10.221 -0.0367  0.3881 -0.3825
  492MOL0     C67793   5.599  13.094  10.186  1.5695  0.4151 -0.6420
  492MOL0     O67794   5.701  13.105  10.279 -0.3423  0.1769  0.4279
  492MOL0     C67795   5.682  13.108  10.429 -0.1713 -0.4602 -0.2709
  492MOL0     C67796   5.817  13.147  10.492  0.4329 -0.3751 -0.0821
  492MOL0     C67797   5.796  13.167  10.647  0.2033 -0.4506 -0.3781
  492MOL0     C67798   5.834  13.040  10.720  0.2042  0.4072 -0.0375
  492MOL0     C67799   5.823  13.065  10.867  0.7076  0.1077  0.3733
  492MOL0     C67800   5.927  12.995  10.953 -0.3510 -0.1034  0.1003
  492MOL0     C67801   5.919  12.842  10.928  0.0644  0.4341 -0.0204
  492MOL0     C67802   6.054  12.779  10.963 -0.6718  0.8106 -0.1268
  492MOL0    Cl67803   6.055  12.606  10.976 -0.4101  0.0517  0.3219
  492MOL0     C67804   5.612  13.145  10.056 -0.2857 -1.0078  0.4047
  492MOL0     C67805   5.510  13.134   9.956  0.2482 -0.9802 -0.5504
  492MOL0     O67806   5.419  12.902   9.774  0.0367  0.0072  0.1446
  492MOL0     C67807   5.105  12.833   9.812 -0.3049 -0.7753 -0.0782
  492MOL0     C67808   4.992  12.779   9.752  0.7468  0.7589  0.6388
  492MOL0     N67809   4.192  12.653   9.482  0.2917  0.1257  0.4181
  492MOL0     N67810   4.070  12.647   9.521 -0.1878  0.2933 -0.2437
  492MOL0     C67811   3.349  11.686   9.534 -0.3019 -0.1132  0.6203
  492MOL0     C67812   3.350  11.581   9.443  0.0171  0.0567 -0.0107
  492MOL0     C67813   3.195  11.259   9.133 -0.6631 -0.0853  0.3622
  492MOL0     C67814   3.091  11.313   9.053 -0.0304 -0.6461 -0.5515
  492MOL0     C67815   3.041  11.243   8.945  0.5713  0.9206 -0.6934
  492MOL0     C67816   3.107  11.120   8.899 -0.6441 -0.6131 -0.2653
  492MOL0     O67817   3.051  11.044   8.809  0.1933  0.1321 -0.2515
  492MOL0     C67818   2.912  11.052   8.784  0.6119  0.2203  0.8544
  492MOL0     C67819   2.878  10.941   8.684 -0.7626  0.9043  0.2937
  492MOL0     C67820   2.809  10.824   8.751  0.1503 -0.0605  0.8911
  492MOL0     C67821   2.923  10.723   8.785  0.2029  0.2862  0.0407
  492MOL0     C67822   2.993  10.762   8.906  0.2413  0.2358 -0.4516
  492MOL0     C67823   3.046  10.818   9.008  0.4320 -0.0538  0.2055
  492MOL0     C67824   3.220  11.086   8.966 -0.9300 -0.0336 -0.2764
  492MOL0     C67825   3.267  11.141   9.084 -0.0570 -0.5632  0.6493
  492MOL0     C67826   3.390  11.066   9.153 -0.1581 -1.1610  0.7256
  492MOL0     H67827   3.063  11.656   9.296 -0.2032  0.1406  0.2055
  492MOL0     H67828   3.064  11.841   9.469 -0.0496 -0.1388 -1.2891
  492MOL0     H67829   3.120  12.007   9.637  0.9364 -0.0799  2.9590
  492MOL0     H67830   3.238  12.043   9.513 -1.3059  0.2569 -0.4284
  492MOL0     H67831   3.248  12.173   9.772 -1.6687 -1.6947  1.1637
  492MOL0     H67832   3.371  12.048   9.777 -0.4606  0.2999  1.3841
  492MOL0     H67833   3.464  12.117   9.564 -1.6044 -1.5618 -0.4520
  492MOL0     H67834   3.368  12.264   9.552 -1.9231 -2.2499 -1.7242
  492MOL0     H67835   3.465  12.362   9.736 -2.4852 -0.6553  0.1526
  492MOL0     H67836   3.541  12.215   9.797  0.7001  1.1493  0.2110
  492MOL0     H67837   3.620  12.309   9.536 -3.2888 -0.8530  0.6417
  492MOL0     H67838   3.696  12.179   9.619 -0.3947 -0.7700  1.8844
  492MOL0     H67839   3.697  12.446   9.752 -0.8449 -1.7107  2.3757
  492MOL0     H67840   3.784  12.307   9.803  1.2322 -1.5423 -1.3936
  492MOL0     H67841   3.833  12.430   9.522  0.4551  0.2065  0.0462
  492MOL0     H67842   3.927  12.303   9.601  1.6421  0.5635 -0.6493
  492MOL0     H67843   3.870  12.582   9.699 -1.1968 -0.6592 -0.1015
  492MOL0     H67844   3.981  12.470   9.786  2.6729  1.0642 -1.1162
  492MOL0     H67845   4.198  12.386   9.668 -0.8476  0.8360  0.5882
  492MOL0     H67846   4.421  12.539   9.393  0.8244 -0.2711  0.1890
  492MOL0     H67847   4.447  12.430   9.524 -0.8212 -0.4547 -0.3838
  492MOL0     H67848   4.514  12.734   9.502 -2.1840 -0.8325  0.0807
  492MOL0     H67849   4.529  12.648   9.655  3.8618  1.2092  1.3673
  492MOL0     H67850   4.672  12.479   9.497  1.3111 -0.4167 -1.2443
  492MOL0     H67851   4.716  12.616   9.420  0.5113 -0.9820  0.2670
  492MOL0     H67852   4.741  12.631   9.719  2.8003 -1.7289  2.4839
  492MOL0     H67853   4.867  12.538   9.631 -1.0651 -0.5805 -1.2347
  492MOL0     H67854   5.021  12.881   9.437  0.5200 -1.4331  0.0161
  492MOL0     H67855   5.265  12.950   9.413 -3.1748 -1.2192 -0.1360
  492MOL0     H67856   5.353  13.023   9.534 -0.5879 -1.1204  2.0193
  492MOL0     H67857   5.198  13.104   9.494 -0.3923 -0.1332 -0.3052
  492MOL0     H67858   5.273  13.009  10.156 -2.5928  2.4835 -4.5428
  492MOL0     H67859   5.458  12.985  10.310  2.0994 -0.6171 -0.5034
  492MOL0     H67860   5.605  13.185  10.443  0.9943  0.7458 -0.2606
  492MOL0     H67861   5.655  13.010  10.469  2.6369 -0.7604  1.1015
  492MOL0     H67862   5.900  13.079  10.471  3.2798  3.1114 -1.0790
  492MOL0     H67863   5.856  13.240  10.449  0.3581 -0.3461 -0.0891
  492MOL0     H67864   5.696  13.200  10.676 -0.0132 -0.3256 -1.2383
  492MOL0     H67865   5.867  13.238  10.690 -0.8545 -1.1780  2.8663
  492MOL0     H67866   5.932  12.998  10.697  1.9973  3.1416  1.9549
  492MOL0     H67867   5.765  12.956  10.705  1.7623 -1.2558  1.6306
  492MOL0     H67868   5.836  13.169  10.897  0.5409 -0.4273  2.4625
  492MOL0     H67869   5.721  13.034  10.894  1.9229 -1.1514  4.1606
  492MOL0     H67870   5.910  13.016  11.058 -0.6649 -0.8947  0.2182
  492MOL0     H67871   6.026  13.037  10.930  0.2516 -0.3397  2.0790
  492MOL0     H67872   5.882  12.807  10.831 -1.5099  2.1812 -0.1019
  492MOL0     H67873   5.845  12.801  10.998 -2.7851  0.4419 -2.8062
  492MOL0     H67874   6.093  12.813  11.059 -1.5194 -0.9732  0.9035
  492MOL0     H67875   6.128  12.800  10.884  0.4187  1.9892  1.1612
  492MOL0     H67876   5.699  13.201  10.023 -0.8957  0.0251  0.4861
  492MOL0     H67877   5.522  13.182   9.860 -1.1770  0.6392  0.0287
  492MOL0     H67878   5.121  12.835   9.920  1.3382  5.3429 -0.0746
  492MOL0     H67879   4.910  12.730   9.804  0.0463 -0.8930 -1.8633
  492MOL0     H67880   3.441  11.697   9.591 -0.1454  0.0520  0.3364
  492MOL0     H67881   3.436  11.515   9.446  2.3505  2.8605 -1.0221
  492MOL0     H67882   3.055  11.414   9.071  2.0582  0.0828 -0.2422
  492MOL0     H67883   2.953  11.288   8.901 -0.8020  1.5527  2.3923
  492MOL0     H67884   2.839  11.061   8.865 -1.4565  2.5292 -1.1000
  492MOL0     H67885   2.905  11.147   8.730 -3.0401  0.0953  0.8396
  492MOL0     H67886   2.971  10.921   8.632  0.2893  3.2027  1.1652
  492MOL0     H67887   2.805  10.981   8.612  0.8131  1.9516 -0.7803
  492MOL0     H67888   2.749  10.870   8.830  1.1350 -0.5651  1.9651
  492MOL0     H67889   2.744  10.781   8.673  2.4818 -2.1638 -0.0596
  492MOL0     H67890   2.985  10.692   8.700 -1.5211  0.3954 -1.2983
  492MOL0     H67891   2.887  10.623   8.813 -1.7616  1.1091  0.5874
  492MOL0     H67892   3.093  10.873   9.087  0.4057 -0.2142  0.3333
  492MOL0     H67893   3.276  10.999   8.932  1.6902  1.3619  0.2247
  492MOL0     H67894   3.466  11.132   9.193  0.7781 -0.5806 -1.8211
  492MOL0     H67895   3.339  11.004   9.228 -0.0669 -2.8524 -0.5501
  492MOL0     H67896   3.437  11.009   9.072 -1.8216  0.0607 -1.2139
  493MOL0     O67897  10.152   9.628   2.800 -0.3441 -0.6002  0.4112
  493MOL0     C67898  10.104   9.517   2.780 -0.3376  0.6117  0.0749
  493MOL0     O67899  10.171   9.398   2.805 -0.1376 -0.4185  0.5537
  493MOL0     C67900  10.305   9.388   2.829  0.6847  0.2278 -0.9142
  493MOL0     C67901  10.341   9.282   2.908 -0.2007 -0.5191  0.5352
  493MOL0     C67902  10.478   9.261   2.946  0.6369 -0.3114  0.3539
  493MOL0     C67903  10.578   9.346   2.901 -0.2379  0.4846  0.4493
  493MOL0     O67904  10.708   9.314   2.939 -0.1832  0.7791  0.1619
  493MOL0     C67905  10.753   9.397   3.047  0.2500  0.1803 -0.4774
  493MOL0     C67906  10.903   9.403   3.058  0.2522 -0.5269 -0.3517
  493MOL0     C67907  10.980   9.442   2.925 -0.9196 -0.5453  0.6115
  493MOL0     C67908  11.131   9.485   2.945  1.0511  0.2728  0.7296
  493MOL0     C67909  11.151   9.632   2.974 -0.2741  0.9649  0.2618
  493MOL0     C67910  11.086   9.735   2.884  0.7224 -0.0845  0.6873
  493MOL0     C67911  11.155   9.875   2.887  0.6585  0.1315  0.3436
  493MOL0     C67912  11.274   9.898   2.787  1.2283 -1.2800  0.4570
  493MOL0     N67913  11.386   9.820   2.816 -0.5331  0.0104 -0.5691
  493MOL0     C67914  11.427   9.710   2.741 -0.1266 -0.0752  0.1792
  493MOL0     C67915  11.546   9.660   2.798 -0.5648 -0.2332  0.2292
  493MOL0     C67916  11.624   9.542   2.754  0.4749  0.3705 -0.0764
  493MOL0     C67917  11.542   9.416   2.778 -1.0322  0.3628 -0.6289
  493MOL0     C67918  11.612   9.302   2.701  0.1601 -0.0369  0.4825
  493MOL0     C67919  11.741   9.250   2.779 -0.1675 -0.1696 -0.0475
  493MOL0     O67920  11.789   9.124   2.725  0.2515 -0.0013 -0.7502
  493MOL0     C67921  11.863   9.129   2.607 -0.4208 -0.2439 -0.5619
  493MOL0     C67922  11.883   9.242   2.528  0.0551  0.1260  1.1715
  493MOL0     C67923  11.957   9.239   2.404  0.3618 -0.6923 -0.0441
  493MOL0     C67924  11.938   9.354   2.305 -0.0038  0.4680 -0.6690
  493MOL0     C67925  12.035   9.124   2.375  0.4294  0.2174 -0.1118
  493MOL0     C67926  12.105   9.087   2.245 -0.3984 -0.2004  0.1558
  493MOL0     O67927  12.094   9.167   2.142  0.5372 -0.4581 -0.5903
  493MOL0     C67928  12.155   9.137   2.022 -0.1461  0.5417  0.7411
  493MOL0     C67929  12.082   9.141   1.902  1.1161 -0.1018 -0.8506
  493MOL0     C67930  12.135   9.105   1.781 -1.2533 -1.0850  0.6577
  493MOL0     C67931  12.275   9.074   1.768  0.9037 -0.1986  0.1838
  493MOL0     O67932  12.321   9.026   1.648  0.6058 -0.6567 -0.4508
  493MOL0     C67933  12.457   9.049   1.608 -0.2675 -0.5300  0.6506
  493MOL0     C67934  12.487   9.190   1.588 -0.7997  0.3485  0.1133
  493MOL0     C67935  12.638   9.216   1.580 -0.2040  0.1151  0.0523
  493MOL0     C67936  12.713   9.216   1.714 -0.1107  0.6587  0.3859
  493MOL0     C67937  12.865   9.219   1.692 -0.3097  0.8606  0.2145
  493MOL0     C67938  12.922   9.209   1.833 -0.6063 -0.0758  0.1533
  493MOL0     C67939  13.070   9.221   1.815 -1.3096  0.2684 -1.0709
  493MOL0     C67940  13.152   9.203   1.947 -0.0277 -0.2407 -0.3632
  493MOL0    Cl67941  13.319   9.243   1.914  0.4609 -0.2198  0.6916
  493MOL0     C67942  12.354   9.072   1.891 -0.2210 -0.2622  0.8406
  493MOL0     C67943  12.292   9.099   2.007  0.1797  0.2641 -0.4960
  493MOL0     O67944  12.159   8.983   2.234  0.9431  0.1843  0.0114
  493MOL0     C67945  12.029   9.025   2.478  0.1456 -0.2288 -0.1219
  493MOL0     C67946  11.938   9.021   2.585  0.3044  0.1276  0.1301
  493MOL0     N67947  11.542   9.736   2.920 -0.8422  0.2036  0.4115
  493MOL0     N67948  11.459   9.826   2.925 -0.8499 -0.5853 -0.2358
  493MOL0     C67949  10.541   9.461   2.830 -0.0548 -0.3168  0.7222
  493MOL0     C67950  10.404   9.482   2.796 -0.4755 -0.0980 -0.7799
  493MOL0     C67951   9.971   9.504   2.720 -0.6034 -0.1875 -0.3205
  493MOL0     C67952   9.881   9.614   2.737  0.3859 -0.6639  0.2005
  493MOL0     C67953   9.763   9.617   2.670  0.1869  0.3189 -0.1182
  493MOL0     C67954   9.720   9.507   2.599  0.3140  0.7596  0.4593
  493MOL0     O67955   9.597   9.480   2.548  0.6787  0.6092  0.5852
  493MOL0     C67956   9.491   9.571   2.556 -0.2115  0.4338  0.2482
  493MOL0     C67957   9.490   9.666   2.429 -0.1713  0.0415  0.6408
  493MOL0     C67958   9.467   9.596   2.291 -0.2936 -0.1749 -1.3498
  493MOL0     C67959   9.471   9.693   2.177  0.2895  0.2090  0.3694
  493MOL0     C67960   9.609   9.716   2.131  0.6995 -1.0581  0.1906
  493MOL0     C67961   9.722   9.744   2.092  0.2153 -0.0038 -0.2504
  493MOL0     C67962   9.794   9.393   2.592 -0.4799  0.7791 -0.2234
  493MOL0     C67963   9.918   9.389   2.656  0.1115 -0.0108  0.0197
  493MOL0     C67964   9.987   9.255   2.639 -0.0871 -0.1722 -0.1428
  493MOL0     H67965  10.265   9.215   2.947 -1.6690  2.1747  2.7199
  493MOL0     H67966  10.490   9.175   3.011  0.1780  1.1612  2.5255
  493MOL0     H67967  10.711   9.362   3.141  0.2131  2.5314  0.4457
  493MOL0     H67968  10.704   9.494   3.036  0.0822  0.3577  1.5112
  493MOL0     H67969  10.943   9.463   3.140 -0.5611 -1.4144  0.7165
  493MOL0     H67970  10.934   9.301   3.082 -0.6073 -0.7406 -0.0928
  493MOL0     H67971  10.985   9.350   2.867  4.2136  0.7746 -1.6568
  493MOL0     H67972  10.927   9.523   2.874 -0.6948 -0.4713  0.4915
  493MOL0     H67973  11.169   9.423   3.027  1.9295  1.8237  1.5212
  493MOL0     H67974  11.180   9.461   2.850 -1.5333  2.1128 -1.2143
  493MOL0     H67975  11.257   9.660   2.974 -0.4456  1.7845 -1.5334
  493MOL0     H67976  11.108   9.654   3.072 -0.0842  0.0458  0.5524
  493MOL0     H67977  11.070   9.701   2.781  1.4580  0.4548  0.3923
  493MOL0     H67978  10.990   9.757   2.931 -1.3013  0.0083 -3.0497
  493MOL0     H67979  11.191   9.894   2.988  0.0965 -2.7006  1.1567
  493MOL0     H67980  11.075   9.945   2.861  1.1985 -0.5747 -3.9241
  493MOL0     H67981  11.251   9.880   2.681  2.1128 -1.6361  0.3136
  493MOL0     H67982  11.306  10.002   2.790 -2.0204 -0.1265 -0.2177
  493MOL0     H67983  11.384   9.675   2.648 -0.8558  0.3239  0.3565
  493MOL0     H67984  11.718   9.535   2.808  1.6549 -0.3701 -2.1101
  493MOL0     H67985  11.648   9.559   2.649 -0.0093  2.1902  0.0779
  493MOL0     H67986  11.550   9.385   2.883  0.0570 -0.5338 -0.9593
  493MOL0     H67987  11.437   9.420   2.746 -0.5369  2.1722 -2.2122
  493MOL0     H67988  11.539   9.220   2.696 -0.0324  0.1361  0.4575
  493MOL0     H67989  11.638   9.341   2.602  1.4354 -1.2445  0.3062
  493MOL0     H67990  11.825   9.320   2.777 -1.7503  1.8435 -2.8882
  493MOL0     H67991  11.712   9.239   2.884  1.6548  2.0985  0.7675
  493MOL0     H67992  11.840   9.340   2.551  0.8265 -0.2468  4.8939
  493MOL0     H67993  11.851   9.330   2.244  1.2034  1.0370 -2.7317
  493MOL0     H67994  12.023   9.371   2.238  0.7482  0.3772  0.2449
  493MOL0     H67995  11.922   9.447   2.360  0.7666  0.4978 -0.4832
  493MOL0     H67996  11.976   9.159   1.918  1.1368 -1.1840  0.7453
  493MOL0     H67997  12.064   9.109   1.698 -0.5839  2.2458  0.0910
  493MOL0     H67998  12.530   8.991   1.665  2.5004 -0.4373 -2.5388
  493MOL0     H67999  12.474   8.999   1.513  2.1594  1.5155 -0.0912
  493MOL0     H68000  12.441   9.228   1.496  1.4254 -0.1724 -1.2712
  493MOL0     H68001  12.446   9.241   1.676 -0.1723  0.5949  0.2659
  493MOL0     H68002  12.650   9.316   1.537 -2.7136 -0.3079 -1.9124
  493MOL0     H68003  12.684   9.143   1.512  0.4975 -0.8626  1.5188
  493MOL0     H68004  12.686   9.126   1.770 -1.0916  0.3472 -0.5715
  493MOL0     H68005  12.693   9.304   1.777  0.2802  0.2223  1.1432
  493MOL0     H68006  12.901   9.136   1.630 -1.8615 -2.0536  2.9489
  493MOL0     H68007  12.883   9.309   1.631 -0.5651  0.3932 -0.5629
  493MOL0     H68008  12.905   9.109   1.874 -1.5813 -0.7319 -1.7529
  493MOL0     H68009  12.871   9.280   1.899 -1.3444 -1.1520  0.7782
  493MOL0     H68010  13.093   9.320   1.775 -1.8192  0.6202 -0.5026
  493MOL0     H68011  13.110   9.151   1.740  1.1173  0.9227 -0.4738
  493MOL0     H68012  13.149   9.100   1.983  1.4157 -0.5518 -1.0505
  493MOL0     H68013  13.120   9.267   2.029  0.4040  0.8233 -1.0082
  493MOL0     H68014  12.455   9.032   1.899  0.0898  0.2146 -0.4653
  493MOL0     H68015  12.346   9.093   2.101  1.2948 -0.3580 -1.1611
  493MOL0     H68016  12.083   8.930   2.478  0.1422 -0.2295  0.3210
  493MOL0     H68017  11.929   8.941   2.658  0.8620  0.6159  0.7459
  493MOL0     H68018  10.609   9.532   2.785 -0.8954 -0.2465 -0.5013
  493MOL0     H68019  10.382   9.564   2.729  0.9016  1.4530  0.5481
  493MOL0     H68020   9.899   9.708   2.787 -4.4894  0.4885  0.3011
  493MOL0     H68021   9.698   9.705   2.674  2.7207  2.2646  0.8951
  493MOL0     H68022   9.400   9.510   2.565  0.8848 -1.1460  1.0930
  493MOL0     H68023   9.502   9.637   2.642 -0.2272 -0.4830  0.9690
  493MOL0     H68024   9.590   9.710   2.443 -1.5639  3.2539  1.4763
  493MOL0     H68025   9.413   9.743   2.436 -0.9593 -0.6494 -0.3040
  493MOL0     H68026   9.538   9.514   2.277  1.3617  0.2912  2.8644
  493MOL0     H68027   9.365   9.556   2.297 -0.6923  0.7940 -1.6093
  493MOL0     H68028   9.439   9.795   2.197  1.5203  1.5185 -3.4498
  493MOL0     H68029   9.412   9.653   2.094 -0.2917 -1.4560  1.5447
  493MOL0     H68030   9.823   9.771   2.066 -0.1093 -0.1845 -1.8316
  493MOL0     H68031   9.742   9.311   2.543 -2.0266  0.0890  2.3647
  493MOL0     H68032  10.006   9.215   2.739 -0.0848  0.3049  0.0531
  493MOL0     H68033   9.933   9.183   2.577 -0.1592 -0.7260  0.5484
  493MOL0     H68034  10.087   9.265   2.596 -0.1068 -0.6795 -0.3118
  494MOL0     O68035   5.759   3.086   3.519 -0.4161 -0.2885  0.2982
  494MOL0     C68036   5.737   2.990   3.446 -0.8160  0.3740 -0.5007
  494MOL0     O68037   5.824   2.906   3.393 -0.1651  0.0229  0.5797
  494MOL0     C68038   5.952   2.896   3.444 -0.5049  0.1377 -0.4366
  494MOL0     C68039   6.034   2.793   3.392 -1.5753 -0.0264  0.2440
  494MOL0     C68040   6.172   2.784   3.426  1.1401  0.2790 -0.5404
  494MOL0     C68041   6.229   2.852   3.524  0.4505 -0.0178 -0.2568
  494MOL0     O68042   6.362   2.830   3.561  0.4936  0.2269 -0.7040
  494MOL0     C68043   6.426   2.907   3.659  0.3659  0.0042 -0.1013
  494MOL0     C68044   6.547   2.845   3.717  0.4374  0.5667  1.1709
  494MOL0     C68045   6.609   2.923   3.830 -1.2892 -0.7546 -0.4370
  494MOL0     C68046   6.739   2.856   3.873  0.2259 -0.1770 -0.2490
  494MOL0     C68047   6.770   2.894   4.028 -0.2026 -0.2521 -0.4314
  494MOL0     C68048   6.897   2.833   4.093 -0.1029  0.0888  1.0055
  494MOL0     C68049   7.033   2.904   4.059 -0.3198 -0.6423 -0.1824
  494MOL0     C68050   7.020   3.060   4.081  0.7747  0.2130 -0.5277
  494MOL0     N68051   7.136   3.132   4.018 -0.0339 -0.4688  0.4523
  494MOL0     C68052   7.259   3.144   4.080 -0.1205 -0.2787  0.3857
  494MOL0     C68053   7.344   3.188   3.976 -1.0665 -0.1192 -0.1086
  494MOL0     C68054   7.488   3.219   4.007 -0.4942  0.2066 -0.4479
  494MOL0     C68055   7.588   3.121   3.936 -0.3831  0.1797  1.1800
  494MOL0     C68056   7.567   2.977   3.946  0.1120  0.5856  0.1204
  494MOL0     C68057   7.609   2.894   3.816 -0.0399 -0.6886  0.0524
  494MOL0     O68058   7.547   2.762   3.817  0.1467  0.0145 -0.5865
  494MOL0     C68059   7.418   2.754   3.771  0.1680  0.4072 -0.2059
  494MOL0     C68060   7.364   2.633   3.800 -0.1254 -0.0727  0.3508
  494MOL0     C68061   7.238   2.594   3.743  0.0292  0.9839 -1.0015
  494MOL0     C68062   7.199   2.447   3.774 -0.3312 -0.4195 -0.3457
  494MOL0     C68063   7.154   2.689   3.679  1.0915  0.0725 -0.5173
  494MOL0     C68064   7.020   2.673   3.625  0.5344  0.2765 -0.2615
  494MOL0     O68065   6.965   2.544   3.633 -0.6424 -0.2048  0.0562
  494MOL0     C68066   6.837   2.532   3.599 -0.7743  0.1953 -0.2658
  494MOL0     C68067   6.797   2.528   3.466  0.1400 -0.4976 -0.1914
  494MOL0     C68068   6.661   2.512   3.434 -0.0632  0.6503 -0.8941
  494MOL0     C68069   6.566   2.499   3.532 -0.0906  1.1638  0.5406
  494MOL0     O68070   6.437   2.466   3.492 -0.0101 -0.4047 -0.7959
  494MOL0     C68071   6.334   2.456   3.602 -0.5316  0.6865  0.4054
  494MOL0     C68072   6.198   2.453   3.535  0.8223 -0.3065  0.0235
  494MOL0     C68073   6.078   2.496   3.627 -0.3101 -0.6590  0.2559
  494MOL0     C68074   5.936   2.511   3.563 -0.6753 -0.4622 -0.6155
  494MOL0     C68075   5.855   2.615   3.648 -0.1961  0.3973 -0.5924
  494MOL0     C68076   5.712   2.619   3.582 -0.1446  0.4955 -0.0840
  494MOL0     C68077   5.636   2.707   3.695 -0.7972  0.0167 -0.4573
  494MOL0     C68078   5.495   2.661   3.701  0.0007 -0.0482  0.7991
  494MOL0    Cl68079   5.396   2.682   3.560 -0.0981  0.2210 -0.2374
  494MOL0     C68080   6.610   2.496   3.664 -0.0922  0.7646 -0.4860
  494MOL0     C68081   6.748   2.506   3.700 -0.0913 -0.8537  0.7426
  494MOL0     O68082   6.963   2.768   3.571 -0.1634 -0.1519  0.4429
  494MOL0     C68083   7.215   2.816   3.665  0.5338 -0.8946  1.0053
  494MOL0     C68084   7.345   2.846   3.695 -0.7044 -0.9921 -0.1117
  494MOL0     N68085   7.268   3.199   3.856  0.2179  0.4090 -0.3485
  494MOL0     N68086   7.146   3.161   3.885  0.1167  0.2939  0.0993
  494MOL0     C68087   6.138   2.934   3.600 -0.0751 -0.1347 -1.1065
  494MOL0     C68088   6.015   2.954   3.559 -0.1663 -0.5546  0.5735
  494MOL0     C68089   5.593   2.978   3.407 -0.8050 -0.5580 -0.3177
  494MOL0     C68090   5.565   2.935   3.275 -0.3228  0.0354 -0.1554
  494MOL0     C68091   5.438   2.908   3.227 -0.4707 -0.6181 -0.2625
  494MOL0     C68092   5.329   2.935   3.309  0.6346 -0.4827  0.0483
  494MOL0     O68093   5.202   2.921   3.261  0.1391 -0.1237  0.0924
  494MOL0     C68094   5.187   2.832   3.145 -0.6370 -0.3899 -0.0603
  494MOL0     C68095   5.043   2.809   3.108 -1.1682  0.3098  0.5457
  494MOL0     C68096   4.950   2.793   3.231  0.0735 -0.0215 -0.1546
  494MOL0     C68097   4.810   2.739   3.187  0.0969 -0.4088 -0.3248
  494MOL0     C68098   4.734   2.844   3.118 -0.5364 -0.0111 -0.5472
  494MOL0     C68099   4.681   2.933   3.058  0.2743 -0.3053 -0.0253
  494MOL0     C68100   5.356   2.983   3.439  0.1421  0.7221 -0.3392
  494MOL0     C68101   5.483   3.007   3.491 -0.0719 -0.3227  0.2754
  494MOL0     C68102   5.489   3.043   3.631 -0.2114  0.3144  0.6613
  494MOL0     H68103   6.011   2.733   3.304  1.8567  3.4631 -3.4497
  494MOL0     H68104   6.247   2.729   3.371  3.1841  1.1809  1.1736
  494MOL0     H68105   6.364   2.923   3.748  2.0715  0.4497  1.0454
  494MOL0     H68106   6.450   3.009   3.629 -0.2755  0.4734  0.9406
  494MOL0     H68107   6.519   2.748   3.757  0.6877 -0.5411 -1.1404
  494MOL0     H68108   6.627   2.844   3.642  0.1588 -1.2135  0.8707
  494MOL0     H68109   6.637   3.024   3.799  1.2462 -2.5198 -4.9598
  494MOL0     H68110   6.540   2.928   3.914 -1.2003 -3.4879 -0.1301
  494MOL0     H68111   6.726   2.748   3.864 -1.2934  0.0174 -0.6858
  494MOL0     H68112   6.816   2.876   3.798  0.4252  2.3186  0.5234
  494MOL0     H68113   6.686   2.854   4.085 -1.1945 -0.4037 -1.9173
  494MOL0     H68114   6.777   3.002   4.043 -0.5080 -0.4220  1.0025
  494MOL0     H68115   6.893   2.824   4.202 -2.4634  0.1068  0.9627
  494MOL0     H68116   6.896   2.729   4.060 -1.2938 -0.4330  2.5918
  494MOL0     H68117   7.075   2.874   3.963 -2.5566  1.8814 -2.1065
  494MOL0     H68118   7.109   2.874   4.131 -3.1886 -1.6173  2.7055
  494MOL0     H68119   6.933   3.097   4.025  1.7030 -0.1721 -2.3241
  494MOL0     H68120   7.018   3.082   4.188  0.4019 -0.7234 -0.3244
  494MOL0     H68121   7.286   3.133   4.185  2.6078 -2.2984 -0.4095
  494MOL0     H68122   7.503   3.220   4.116  0.5128  1.3794 -0.5792
  494MOL0     H68123   7.515   3.318   3.969  0.5240  0.0057 -0.2942
  494MOL0     H68124   7.569   3.140   3.829 -3.7712  0.2566  1.6886
  494MOL0     H68125   7.691   3.133   3.971  1.1576 -2.5697 -1.8779
  494MOL0     H68126   7.616   2.946   4.039  0.9166  2.5070  0.3668
  494MOL0     H68127   7.460   2.964   3.964 -0.1074 -0.9061 -1.8367
  494MOL0     H68128   7.575   2.943   3.724 -0.8453 -0.9088  0.2253
  494MOL0     H68129   7.719   2.890   3.814 -0.0808 -1.9294 -1.5597
  494MOL0     H68130   7.423   2.565   3.861  2.2869  2.3247  0.9133
  494MOL0     H68131   7.178   2.435   3.880 -2.1750  0.0593 -0.6181
  494MOL0     H68132   7.287   2.384   3.758 -0.3826  0.1817 -3.8559
  494MOL0     H68133   7.122   2.401   3.711 -0.2156 -0.1539 -0.6822
  494MOL0     H68134   6.878   2.549   3.398  0.8490 -0.4360  0.6504
  494MOL0     H68135   6.624   2.524   3.333 -0.9836 -2.5877 -1.0495
  494MOL0     H68136   6.346   2.369   3.668  0.8995  0.0999 -0.5794
  494MOL0     H68137   6.339   2.544   3.666 -1.8406  0.3412  1.0024
  494MOL0     H68138   6.197   2.527   3.455  2.3677  0.5862  0.7998
  494MOL0     H68139   6.174   2.359   3.484  2.4275 -0.4027 -0.6133
  494MOL0     H68140   6.105   2.589   3.677  1.6747 -1.3067  0.4861
  494MOL0     H68141   6.073   2.428   3.713 -0.4980 -0.8716  0.0781
  494MOL0     H68142   5.891   2.414   3.542 -0.9082 -0.3843 -0.4843
  494MOL0     H68143   5.951   2.555   3.464 -1.2937 -0.2478 -0.6187
  494MOL0     H68144   5.852   2.577   3.750  2.4242  4.9370  1.4924
  494MOL0     H68145   5.915   2.706   3.655  3.3458 -1.7348 -0.9421
  494MOL0     H68146   5.675   2.516   3.574  2.9406 -0.5534 -2.7457
  494MOL0     H68147   5.718   2.668   3.485 -1.1691  1.6265  0.3991
  494MOL0     H68148   5.643   2.815   3.682 -0.3154  0.2544  1.4543
  494MOL0     H68149   5.680   2.690   3.793  0.5878  1.5573 -0.7748
  494MOL0     H68150   5.446   2.715   3.782  0.0056  1.2385 -0.0341
  494MOL0     H68151   5.491   2.553   3.721 -0.1271 -0.4194 -1.0662
  494MOL0     H68152   6.539   2.477   3.744 -1.3751  1.3574 -1.4494
  494MOL0     H68153   6.789   2.507   3.800 -0.3873 -2.5216  0.9075
  494MOL0     H68154   7.146   2.892   3.631  1.3556 -1.4007 -2.0753
  494MOL0     H68155   7.371   2.951   3.688 -0.6423 -0.7302  2.8297
  494MOL0     H68156   6.168   2.981   3.693  0.5829  0.4382 -1.5892
  494MOL0     H68157   5.956   3.022   3.620  1.4084  1.6268 -0.2071
  494MOL0     H68158   5.650   2.914   3.211 -0.6265 -0.1740 -0.4920
  494MOL0     H68159   5.427   2.871   3.126 -0.8160 -0.4565 -0.2847
  494MOL0     H68160   5.247   2.870   3.062  1.6959  2.7332  2.7680
  494MOL0     H68161   5.233   2.740   3.182  0.2178  0.4174  0.9535
  494MOL0     H68162   5.030   2.727   3.036 -4.0038  0.6085  0.5782
  494MOL0     H68163   5.013   2.903   3.060 -0.4558  0.8317  1.1076
  494MOL0     H68164   4.995   2.725   3.305 -0.7307 -0.0309  0.3357
  494MOL0     H68165   4.946   2.891   3.279 -0.1055  0.2731 -0.7630
  494MOL0     H68166   4.749   2.688   3.263 -2.1912  0.5181 -1.4259
  494MOL0     H68167   4.819   2.660   3.111 -4.8089 -2.3867  0.7557
  494MOL0     H68168   4.644   3.016   3.002  0.7118 -1.3050 -1.8653
  494MOL0     H68169   5.272   3.001   3.505  0.7274 -0.0773  0.6570
  494MOL0     H68170   5.452   3.143   3.657 -1.3518  0.1569 -0.2775
  494MOL0     H68171   5.428   2.973   3.688  0.8725 -1.9990 -0.9016
  494MOL0     H68172   5.591   3.037   3.670 -0.4921  0.5725  1.4692
  495MOL0     O68173   6.033   0.850   4.845  0.2955  0.2718 -0.2933
  495MOL0     C68174   6.062   0.764   4.929 -0.3662 -0.4276 -0.4737
  495MOL0     O68175   6.084   0.633   4.899 -0.5259 -0.0722  0.6727
  495MOL0     C68176   6.139   0.613   4.777  0.4064 -0.2752  0.3509
  495MOL0     C68177   6.273   0.632   4.747  0.3588  0.3966  0.6710
  495MOL0     C68178   6.330   0.587   4.628 -0.0043 -0.2622  0.0522
  495MOL0     C68179   6.246   0.535   4.523  1.0817  0.2199 -0.8679
  495MOL0     O68180   6.307   0.499   4.399  0.5435  0.2399  0.9205
  495MOL0     C68181   6.217   0.445   4.293 -0.1659 -0.1627  0.1369
  495MOL0     C68182   6.283   0.422   4.156 -0.0779  0.6582 -0.1890
  495MOL0     C68183   6.182   0.370   4.041  0.2738 -0.3219 -1.3190
  495MOL0     C68184   6.112   0.484   3.963 -0.7668  0.7695  0.8286
  495MOL0     C68185   6.009   0.450   3.849  0.4570  0.5448 -0.8165
  495MOL0     C68186   5.886   0.392   3.924  0.5511  0.1743 -0.2624
  495MOL0     C68187   5.756   0.420   3.837 -0.4693  0.4499  0.3321
  495MOL0     C68188   5.632   0.365   3.920 -0.2470 -0.0209  0.4556
  495MOL0     N68189   5.517   0.430   3.871  0.3622 -0.5494 -0.3537
  495MOL0     C68190   5.451   0.529   3.944 -0.0340 -0.4850  0.4504
  495MOL0     C68191   5.342   0.552   3.865  0.4156  1.0778  0.1354
  495MOL0     C68192   5.222   0.637   3.905 -0.3750  0.2672 -0.6553
  495MOL0     C68193   5.216   0.773   3.842  0.0929 -0.7528  0.4750
  495MOL0     C68194   5.177   0.753   3.688 -0.1634 -0.0473 -1.0865
  495MOL0     C68195   5.028   0.709   3.670  0.2657 -0.1094  0.2968
  495MOL0     O68196   5.015   0.656   3.535  0.1439  0.6760  0.0033
  495MOL0     C68197   4.910   0.698   3.457 -0.5868  0.2641 -0.0075
  495MOL0     C68198   4.792   0.752   3.495 -0.0306  0.6221  0.1895
  495MOL0     C68199   4.694   0.795   3.404 -0.0950  0.6211 -1.3268
  495MOL0     C68200   4.580   0.868   3.475 -0.6463  0.5549 -0.6631
  495MOL0     C68201   4.711   0.766   3.267  0.1398  0.4699 -1.1378
  495MOL0     C68202   4.603   0.784   3.160 -0.3460 -0.3963 -0.1811
  495MOL0     O68203   4.633   0.754   3.038 -0.4572 -0.9297 -0.5877
  495MOL0     C68204   4.563   0.813   2.933  0.4388 -0.4487  1.5713
  495MOL0     C68205   4.587   0.740   2.811 -0.2661 -0.1766 -0.7082
  495MOL0     C68206   4.517   0.771   2.690 -0.5861  0.1061 -0.3013
  495MOL0     C68207   4.436   0.886   2.686 -0.3072  0.5399  0.2699
  495MOL0     O68208   4.375   0.945   2.579  0.6991  0.6406  0.1893
  495MOL0     C68209   4.430   0.932   2.444  0.0439  0.2897 -0.6558
  495MOL0     C68210   4.343   1.009   2.338  0.8306  0.1068 -0.4696
  495MOL0     C68211   4.190   0.994   2.358 -1.3893  0.2831  1.3761
  495MOL0     C68212   4.122   1.101   2.270 -0.4927  0.7937  0.4375
  495MOL0     C68213   4.115   1.247   2.331  0.5464 -0.1148  0.5630
  495MOL0     C68214   4.028   1.349   2.259  0.6987  0.1846  0.1233
  495MOL0     C68215   3.961   1.440   2.363  0.1469 -0.8892 -0.0177
  495MOL0     C68216   3.854   1.528   2.298  0.2288  0.1080 -1.1922
  495MOL0    Cl68217   3.896   1.574   2.132 -0.0776 -0.0397  0.0509
  495MOL0     C68218   4.405   0.955   2.808 -0.7657  0.1499  0.6182
  495MOL0     C68219   4.473   0.922   2.934  0.8380  0.3058  0.3662
  495MOL0     O68220   4.499   0.829   3.202 -0.1534 -0.3168  0.6437
  495MOL0     C68221   4.834   0.726   3.229 -0.1714  0.7038  0.1055
  495MOL0     C68222   4.935   0.688   3.321  0.2983 -0.3153 -0.0776
  495MOL0     N68223   5.359   0.473   3.752 -0.3099 -0.5663  0.2493
  495MOL0     N68224   5.455   0.390   3.760  0.1292 -0.0444  0.1818
  495MOL0     C68225   6.112   0.508   4.563  0.2974 -0.0488 -0.9841
  495MOL0     C68226   6.063   0.541   4.687 -0.4115 -0.2958 -0.4867
  495MOL0     C68227   6.106   0.815   5.055 -0.7119 -0.5485  0.3163
  495MOL0     C68228   6.230   0.764   5.099  1.2380 -0.4537 -0.2157
  495MOL0     C68229   6.288   0.816   5.215  0.4360  0.9503  0.4858
  495MOL0     C68230   6.212   0.891   5.296 -0.2738 -0.0979 -0.4781
  495MOL0     O68231   6.268   0.944   5.415  0.0018  0.2765  0.2556
  495MOL0     C68232   6.201   0.934   5.536  0.7898  1.2860  0.4172
  495MOL0     C68233   6.313   0.928   5.633  0.0066 -0.1718 -0.1096
  495MOL0     C68234   6.257   0.877   5.771  0.9475 -0.0580 -0.2431
  495MOL0     C68235   6.372   0.873   5.875  0.5602 -0.3477  0.4904
  495MOL0     C68236   6.335   0.878   6.021  0.0853  0.7728 -0.4347
  495MOL0     C68237   6.294   0.893   6.134  0.6905 -0.0544  0.1280
  495MOL0     C68238   6.083   0.935   5.261 -0.7817  0.1508 -0.3683
  495MOL0     C68239   6.032   0.910   5.133  0.2120  0.1368 -1.0052
  495MOL0     C68240   5.898   0.980   5.096  0.5343  0.0251 -0.0936
  495MOL0     H68241   6.322   0.687   4.826  1.5783 -0.5914  0.6313
  495MOL0     H68242   6.432   0.621   4.618  0.2895 -1.6488 -2.6427
  495MOL0     H68243   6.134   0.516   4.283  1.2426  1.5215  0.0002
  495MOL0     H68244   6.173   0.348   4.322 -1.8676  0.2935 -0.8108
  495MOL0     H68245   6.338   0.507   4.115 -0.2818  0.1082 -1.6335
  495MOL0     H68246   6.361   0.348   4.178  0.5802  0.4955 -2.7923
  495MOL0     H68247   6.241   0.310   3.970  3.5605  0.1586  0.7979
  495MOL0     H68248   6.109   0.305   4.089  3.0431 -0.5715  3.0734
  495MOL0     H68249   6.068   0.555   4.034 -0.2224  1.6509  0.3114
  495MOL0     H68250   6.183   0.544   3.907 -1.5603  1.2771  0.3469
  495MOL0     H68251   6.053   0.384   3.774  0.7029 -0.4347  0.1664
  495MOL0     H68252   5.980   0.540   3.794  1.3845  0.3536 -1.6318
  495MOL0     H68253   5.903   0.295   3.972  2.0704  0.5375 -0.0122
  495MOL0     H68254   5.873   0.458   4.010  2.1281  1.6286 -1.0754
  495MOL0     H68255   5.761   0.375   3.737 -1.7465  0.3028  0.3158
  495MOL0     H68256   5.754   0.529   3.833 -5.3137  0.6234  1.3432
  495MOL0     H68257   5.610   0.258   3.910  1.2045 -0.3825  0.9628
  495MOL0     H68258   5.648   0.388   4.026 -1.5289 -4.0462  1.6922
  495MOL0     H68259   5.462   0.580   4.039 -0.4738  2.5942 -1.0204
  495MOL0     H68260   5.221   0.650   4.014  1.5613 -1.1692 -0.4214
  495MOL0     H68261   5.133   0.578   3.881 -0.3664  0.9937 -2.6628
  495MOL0     H68262   5.139   0.837   3.887  0.7138 -2.4552  4.3898
  495MOL0     H68263   5.315   0.819   3.840 -0.0633 -0.4277  0.1817
  495MOL0     H68264   5.203   0.841   3.628  3.4366 -1.5577 -1.9567
  495MOL0     H68265   5.240   0.675   3.646 -1.0646 -0.5456 -1.5554
  495MOL0     H68266   5.003   0.622   3.732 -3.4192  2.7618  3.3554
  495MOL0     H68267   4.959   0.790   3.696  0.8703 -0.0746  1.8992
  495MOL0     H68268   4.771   0.763   3.601 -2.2059  1.5361 -0.2944
  495MOL0     H68269   4.495   0.801   3.491  1.1838 -1.9203 -0.7635
  495MOL0     H68270   4.555   0.964   3.427 -0.0575  1.6383  1.0990
  495MOL0     H68271   4.614   0.906   3.572 -0.3191  1.9684 -1.3034
  495MOL0     H68272   4.651   0.653   2.817  0.2660  0.2634  0.0884
  495MOL0     H68273   4.529   0.707   2.604 -0.0770  0.3204 -0.3910
  495MOL0     H68274   4.533   0.968   2.442  0.9337 -1.9697  0.5161
  495MOL0     H68275   4.428   0.825   2.421  1.6644  0.3863 -1.3621
  495MOL0     H68276   4.378   1.112   2.347  5.8951 -1.4287  0.2212
  495MOL0     H68277   4.386   0.982   2.242  1.6811  0.8429 -0.3064
  495MOL0     H68278   4.151   1.001   2.460 -0.8977 -1.7302  1.7399
  495MOL0     H68279   4.167   0.890   2.336  1.0723  0.0635 -0.7167
  495MOL0     H68280   4.025   1.067   2.235  0.8844 -1.3217 -1.5894
  495MOL0     H68281   4.186   1.110   2.181 -1.5126  1.2457 -0.2682
  495MOL0     H68282   4.079   1.227   2.432  0.8927  1.5230  1.0447
  495MOL0     H68283   4.217   1.288   2.342  1.1939 -1.9054  1.5772
  495MOL0     H68284   3.962   1.293   2.193  1.6342  0.6375 -1.2246
  495MOL0     H68285   4.097   1.407   2.197  0.9865  1.6919  1.7687
  495MOL0     H68286   4.030   1.506   2.416 -1.7828  0.1702  1.3044
  495MOL0     H68287   3.909   1.380   2.437 -0.4328 -0.2647  0.0923
  495MOL0     H68288   3.814   1.598   2.373  0.4891  0.1221 -1.0668
  495MOL0     H68289   3.766   1.464   2.282 -0.5922  0.5920  1.0300
  495MOL0     H68290   4.354   1.051   2.803 -2.3614 -0.6607  1.0325
  495MOL0     H68291   4.446   0.981   3.021  1.7791  0.8998  0.2640
  495MOL0     H68292   4.855   0.703   3.125 -0.7408 -0.4123  0.2180
  495MOL0     H68293   5.033   0.658   3.285  0.1024 -0.1043 -0.7982
  495MOL0     H68294   6.040   0.454   4.502  3.5642 -5.3624 -0.6795
  495MOL0     H68295   5.963   0.515   4.720 -0.3547 -0.6077 -0.5565
  495MOL0     H68296   6.285   0.689   5.042 -0.2597 -2.5281  0.9125
  495MOL0     H68297   6.389   0.798   5.251  1.6260 -0.2291 -3.0519
  495MOL0     H68298   6.137   1.022   5.548  0.2088  1.4433 -2.8356
  495MOL0     H68299   6.135   0.847   5.532  0.6960  1.3357  0.8466
  495MOL0     H68300   6.374   1.019   5.640  0.2968 -0.3799  0.0557
  495MOL0     H68301   6.388   0.857   5.598  2.6954  2.2267  0.3545
  495MOL0     H68302   6.183   0.945   5.814 -1.6678 -2.6331 -0.3977
  495MOL0     H68303   6.223   0.773   5.775 -0.4619  0.4188  2.2835
  495MOL0     H68304   6.418   0.970   5.857 -0.3159  0.3412  1.7995
  495MOL0     H68305   6.443   0.790   5.862 -1.8787 -2.9555  2.4888
  495MOL0     H68306   6.243   0.908   6.227 -0.3528 -0.9279 -0.2755
  495MOL0     H68307   6.024   1.007   5.316 -2.0713 -0.7362 -0.5580
  495MOL0     H68308   5.918   1.061   5.026 -2.3263 -0.1087 -1.1953
  495MOL0     H68309   5.835   0.910   5.040 -1.2258  2.0671 -0.7883
  495MOL0     H68310   5.850   1.022   5.185 -3.6151 -0.4066 -1.9286
  496MOL0     O68311   5.758   1.810   4.933 -0.1461 -0.2022  0.1385
  496MOL0     C68312   5.715   1.808   5.048 -0.7969  0.1629 -0.0183
  496MOL0     O68313   5.800   1.784   5.155  0.3270  0.3434  0.1205
  496MOL0     C68314   5.931   1.811   5.151  1.1840  0.0437  0.2363
  496MOL0     C68315   5.979   1.815   5.284  0.8539 -0.2096 -0.4622
  496MOL0     C68316   6.107   1.851   5.305 -0.4310 -0.8820 -0.5171
  496MOL0     C68317   6.198   1.886   5.205  0.9761  0.9192 -0.7489
  496MOL0     O68318   6.319   1.917   5.251  0.0469 -0.2736 -0.7917
  496MOL0     C68319   6.419   1.940   5.150 -0.1550  0.6463  0.1852
  496MOL0     C68320   6.555   1.972   5.209  0.3307 -0.0210 -0.4298
  496MOL0     C68321   6.665   1.938   5.113  0.6850  0.4706  0.4260
  496MOL0     C68322   6.806   1.984   5.163  0.4659  0.2077  0.9429
  496MOL0     C68323   6.919   1.904   5.091 -0.2664 -0.1879 -0.5254
  496MOL0     C68324   6.968   1.985   4.971  0.4196  0.4222  0.7496
  496MOL0     C68325   7.113   1.979   4.937 -0.3224  0.1967  0.4614
  496MOL0     C68326   7.166   1.839   4.913 -0.1460  0.0169 -0.3909
  496MOL0     N68327   7.305   1.845   4.869  0.6921 -0.3203 -0.0076
  496MOL0     C68328   7.408   1.876   4.955  0.3589  0.3763 -0.7056
  496MOL0     C68329   7.512   1.903   4.879  0.8211  0.2756  0.0081
  496MOL0     C68330   7.651   1.929   4.910 -0.6973  0.2079  0.1295
  496MOL0     C68331   7.741   1.811   4.860  0.1373  0.9905 -0.3409
  496MOL0     C68332   7.747   1.690   4.954 -0.2713  0.1366  0.7722
  496MOL0     C68333   7.840   1.589   4.886 -0.9636 -0.4702  0.6716
  496MOL0     O68334   7.877   1.498   4.989 -0.5415  0.4558  0.8198
  496MOL0     C68335   7.996   1.513   5.060  0.6410  0.5538 -0.6620
  496MOL0     C68336   8.042   1.391   5.108 -0.1265  0.4715 -0.4105
  496MOL0     C68337   8.170   1.368   5.176  0.4344  0.1390 -0.0654
  496MOL0     C68338   8.210   1.235   5.244  0.3975  0.7107  0.1946
  496MOL0     C68339   8.249   1.489   5.191  0.3389  0.1160 -0.2294
  496MOL0     C68340   8.384   1.496   5.263  0.3700  0.1767 -0.0273
  496MOL0     O68341   8.434   1.384   5.314  0.1306 -0.1469 -0.0143
  496MOL0     C68342   8.518   1.399   5.420 -0.4469 -0.1576 -0.2379
  496MOL0     C68343   8.471   1.378   5.554  0.1739  0.0877 -0.6739
  496MOL0     C68344   8.565   1.368   5.661 -0.2701  0.1493 -0.3530
  496MOL0     C68345   8.703   1.364   5.626 -0.4600 -0.6960  0.0468
  496MOL0     O68346   8.800   1.334   5.722 -0.0387 -0.1323  0.9999
  496MOL0     C68347   8.937   1.322   5.691  0.6726  0.4503 -0.7057
  496MOL0     C68348   9.004   1.267   5.817  0.2403  0.1187  0.4830
  496MOL0     C68349   9.152   1.247   5.791 -0.5466  0.6538 -0.2341
  496MOL0     C68350   9.225   1.176   5.901  0.4992  0.4973 -0.4078
  496MOL0     C68351   9.373   1.204   5.891 -0.6261  0.7435 -0.4593
  496MOL0     C68352   9.450   1.113   5.982 -0.2953  0.0766  1.2269
  496MOL0     C68353   9.445   1.161   6.132  0.2342  0.4207  0.7485
  496MOL0     C68354   9.519   1.287   6.161 -0.3319  0.7502  0.9792
  496MOL0    Cl68355   9.684   1.254   6.089 -0.9021  0.3344 -0.4382
  496MOL0     C68356   8.740   1.388   5.495 -0.4776  0.2848  0.8776
  496MOL0     C68357   8.644   1.400   5.390  0.6409  0.5524 -0.2625
  496MOL0     O68358   8.435   1.607   5.269  1.4457 -0.3521 -0.0875
  496MOL0     C68359   8.200   1.612   5.139  0.6713  0.3755  0.7074
  496MOL0     C68360   8.076   1.623   5.077 -1.3063 -1.4929 -0.4192
  496MOL0     N68361   7.471   1.877   4.751  0.2993  0.2377  0.3109
  496MOL0     N68362   7.353   1.832   4.740 -0.4573 -0.7426 -0.4561
  496MOL0     C68363   6.155   1.885   5.069  0.4510  0.5105 -0.7218
  496MOL0     C68364   6.020   1.846   5.047  0.3549 -0.1021  0.9354
  496MOL0     C68365   5.577   1.825   5.078  0.9152  0.4022  0.3343
  496MOL0     C68366   5.486   1.772   4.973  0.5657 -0.2006 -0.5781
  496MOL0     C68367   5.350   1.760   5.005 -0.2097 -0.6737  0.7954
  496MOL0     C68368   5.296   1.811   5.121 -0.6709 -0.6995  0.4558
  496MOL0     O68369   5.162   1.792   5.138  0.0304  0.3431  0.0258
  496MOL0     C68370   5.102   1.800   5.272  0.0881 -0.8793 -0.7239
  496MOL0     C68371   4.968   1.733   5.258 -0.3866 -0.6238 -0.1303
  496MOL0     C68372   4.901   1.740   5.397 -0.1073  0.0426 -0.8080
  496MOL0     C68373   4.903   1.591   5.454 -0.1078  0.7443  0.6691
  496MOL0     C68374   4.791   1.510   5.391  0.3862  0.2374 -0.0508
  496MOL0     C68375   4.697   1.456   5.349  0.1410  0.5350  0.5743
  496MOL0     C68376   5.384   1.866   5.217 -0.0010 -0.0267  0.1442
  496MOL0     C68377   5.526   1.881   5.194 -0.3199 -0.2650  0.4170
  496MOL0     C68378   5.608   1.949   5.295 -0.3691 -0.0846  0.3119
  496MOL0     H68379   5.908   1.801   5.366  0.8035  0.1806 -0.4370
  496MOL0     H68380   6.154   1.856   5.403  2.3112 -0.9727 -1.7417
  496MOL0     H68381   6.391   2.026   5.088 -2.6897 -0.3749 -0.2192
  496MOL0     H68382   6.425   1.846   5.094 -2.6886  0.2378  0.4678
  496MOL0     H68383   6.559   2.080   5.227  2.7450 -0.0249 -0.6234
  496MOL0     H68384   6.577   1.931   5.308 -0.3030  3.4594  1.2922
  496MOL0     H68385   6.661   1.829   5.118  0.2278  0.4901  0.5269
  496MOL0     H68386   6.644   1.967   5.010 -0.0819 -2.5592 -0.3682
  496MOL0     H68387   6.829   2.090   5.154 -4.2715  1.2959 -1.3618
  496MOL0     H68388   6.811   1.958   5.269 -0.0629  0.5440  1.0547
  496MOL0     H68389   6.894   1.802   5.059 -0.5791 -1.7001  3.8108
  496MOL0     H68390   7.003   1.916   5.160 -2.1034  1.5359  1.5785
  496MOL0     H68391   6.907   1.953   4.886  0.4294  3.1396 -0.3719
  496MOL0     H68392   6.948   2.092   4.981 -2.6035 -0.0075  0.2562
  496MOL0     H68393   7.166   2.022   5.023 -1.3351 -0.6925  1.5674
  496MOL0     H68394   7.139   2.052   4.860 -0.6974 -0.1149  0.0351
  496MOL0     H68395   7.177   1.794   5.013  0.9190 -1.5407 -1.1606
  496MOL0     H68396   7.106   1.785   4.839  0.2126 -0.3926 -0.3872
  496MOL0     H68397   7.390   1.882   5.062  0.0133  0.1631 -0.7498
  496MOL0     H68398   7.676   1.934   5.017 -1.0441  0.2385  0.2083
  496MOL0     H68399   7.673   2.024   4.860  0.1755 -0.0252  0.0561
  496MOL0     H68400   7.699   1.764   4.771  0.8763  0.9400 -0.6647
  496MOL0     H68401   7.836   1.861   4.842  0.6875  0.6092  1.3317
  496MOL0     H68402   7.790   1.717   5.051 -0.4610  0.2734  0.8191
  496MOL0     H68403   7.649   1.643   4.963 -0.5057  0.5730  0.5637
  496MOL0     H68404   7.780   1.530   4.815 -1.9632  0.5811  0.6154
  496MOL0     H68405   7.928   1.628   4.836 -0.9808 -0.9577  0.2464
  496MOL0     H68406   7.988   1.298   5.092  1.9450 -0.6598 -1.1742
  496MOL0     H68407   8.233   1.247   5.350  0.5529  1.1785  0.1118
  496MOL0     H68408   8.293   1.178   5.201  0.3050 -1.1474  2.2614
  496MOL0     H68409   8.115   1.181   5.246 -0.1087  1.5998  1.5510
  496MOL0     H68410   8.367   1.360   5.577 -0.0212  0.7757 -0.9987
  496MOL0     H68411   8.543   1.373   5.767  1.0479  0.3277 -0.0787
  496MOL0     H68412   8.947   1.254   5.606 -0.8081 -1.5922  0.6254
  496MOL0     H68413   8.972   1.423   5.668  0.5700  1.4618  2.9694
  496MOL0     H68414   8.982   1.326   5.907  4.3075  0.5461  1.3849
  496MOL0     H68415   8.970   1.165   5.835  1.7433 -0.5516 -0.3422
  496MOL0     H68416   9.199   1.345   5.782  0.6751  0.7904  4.6290
  496MOL0     H68417   9.168   1.192   5.698  0.2278  2.4980 -1.2568
  496MOL0     H68418   9.205   1.069   5.900 -0.7734  0.6746  1.4989
  496MOL0     H68419   9.193   1.204   6.001  2.1374  2.1972 -0.2911
  496MOL0     H68420   9.403   1.174   5.791  1.7542 -2.5631  1.0553
  496MOL0     H68421   9.395   1.311   5.904 -0.1943  1.0439 -3.2089
  496MOL0     H68422   9.553   1.097   5.948 -0.2363  0.3563  1.2722
  496MOL0     H68423   9.407   1.013   5.970  1.8089 -0.5797 -3.3272
  496MOL0     H68424   9.492   1.079   6.186  0.6182  1.7483  2.5379
  496MOL0     H68425   9.340   1.180   6.158  0.2775  0.9237  0.5706
  496MOL0     H68426   9.518   1.324   6.264 -0.9235  1.1332  0.8459
  496MOL0     H68427   9.480   1.370   6.101 -0.1874  1.9274  2.4363
  496MOL0     H68428   8.843   1.392   5.463 -1.4806  1.2871 -2.7808
  496MOL0     H68429   8.671   1.413   5.286 -1.4146  2.1958 -0.6399
  496MOL0     H68430   8.246   1.710   5.150 -0.3045  1.0069 -0.5879
  496MOL0     H68431   8.044   1.722   5.046  1.0500 -0.9832 -1.4364
  496MOL0     H68432   6.226   1.913   4.992  4.7130 -0.3113  2.5100
  496MOL0     H68433   5.983   1.843   4.945  0.5587 -1.4541  0.8869
  496MOL0     H68434   5.526   1.748   4.875  1.7007 -2.1021  0.2912
  496MOL0     H68435   5.282   1.733   4.925  2.4213 -2.4186 -1.0589
  496MOL0     H68436   5.155   1.739   5.347 -1.1806 -0.3647  0.6353
  496MOL0     H68437   5.096   1.902   5.311  0.5399 -1.4880  1.0171
  496MOL0     H68438   4.982   1.634   5.214  1.3067  0.6972 -2.8090
  496MOL0     H68439   4.914   1.790   5.182 -0.4079 -1.1835 -0.5376
  496MOL0     H68440   4.954   1.808   5.464 -0.8609 -2.1957  2.2814
  496MOL0     H68441   4.794   1.762   5.395 -0.4487 -1.5155 -1.3207
  496MOL0     H68442   4.892   1.585   5.563  1.4630 -2.9380  0.7891
  496MOL0     H68443   4.994   1.538   5.426 -2.4502 -3.4552  0.0858
  496MOL0     H68444   4.622   1.384   5.326  1.6204 -2.3134  3.7247
  496MOL0     H68445   5.353   1.898   5.316  2.1718  2.5183  0.0985
  496MOL0     H68446   5.631   1.867   5.362 -0.4345  1.0744  1.7966
  496MOL0     H68447   5.702   1.995   5.263 -1.0648  1.0813 -0.1316
  496MOL0     H68448   5.554   2.033   5.341  1.6208  0.4974  1.6974
  497MOL0     O68449   9.322  10.415   8.245 -0.0384 -0.2900 -0.1366
  497MOL0     C68450   9.367  10.484   8.336  0.1337  0.0059 -0.2506
  497MOL0     O68451   9.289  10.568   8.417 -0.3043 -0.0929  0.3208
  497MOL0     C68452   9.159  10.587   8.385  0.1951  0.6113  0.0628
  497MOL0     C68453   9.114  10.708   8.336  0.5015  0.0621  0.6449
  497MOL0     C68454   8.979  10.721   8.299  0.4058  0.4555  0.0586
  497MOL0     C68455   8.900  10.603   8.303  0.0011 -0.0304 -0.1408
  497MOL0     O68456   8.762  10.599   8.276 -0.0777  0.1909 -0.0822
  497MOL0     C68457   8.690  10.709   8.329  0.0703 -0.1822 -0.3019
  497MOL0     C68458   8.537  10.683   8.326  0.6859  0.4355 -0.7264
  497MOL0     C68459   8.454  10.767   8.422 -0.3031 -0.0593  0.4867
  497MOL0     C68460   8.303  10.759   8.404  0.6557 -0.3528 -0.6128
  497MOL0     C68461   8.236  10.852   8.507 -0.4230 -0.2156 -0.3888
  497MOL0     C68462   8.103  10.878   8.465  0.7997 -0.6054 -0.1606
  497MOL0     C68463   8.027  10.955   8.568  0.0421 -0.3273 -0.3742
  497MOL0     C68464   7.985  10.879   8.697 -0.5623  0.7321  0.1172
  497MOL0     N68465   7.932  10.744   8.677 -0.2463  0.2466  0.1758
  497MOL0     C68466   7.981  10.638   8.742  0.0739  0.6947 -0.7670
  497MOL0     C68467   7.891  10.536   8.716 -0.1180 -1.0081 -0.3723
  497MOL0     C68468   7.900  10.407   8.781 -0.5684  0.1677 -0.6012
  497MOL0     C68469   8.019  10.321   8.734  0.0666 -0.1062  1.1372
  497MOL0     C68470   8.004  10.282   8.583  0.5361 -0.2848  0.1945
  497MOL0     C68471   8.123  10.191   8.543 -0.2366 -0.6475  0.1167
  497MOL0     O68472   8.244  10.260   8.571  0.1469  0.2891 -0.4647
  497MOL0     C68473   8.369  10.216   8.525  0.6073  1.2390 -0.6148
  497MOL0     C68474   8.387  10.095   8.443 -1.3324  0.2996 -0.4372
  497MOL0     C68475   8.511  10.063   8.391 -0.7029  1.0019  0.4577
  497MOL0     C68476   8.521   9.923   8.331 -0.4890  0.1228  0.2503
  497MOL0     C68477   8.621  10.143   8.422  0.0402  0.6406 -0.9702
  497MOL0     C68478   8.762  10.112   8.371  0.3783  0.1375  0.3611
  497MOL0     O68479   8.852  10.036   8.436  0.0082 -0.0721  0.3482
  497MOL0     C68480   8.980  10.016   8.379  0.6882  0.6056 -1.0035
  497MOL0     C68481   9.036   9.886   8.398 -0.1232  0.4591  0.6698
  497MOL0     C68482   9.163   9.865   8.355  0.6481 -0.1824  0.5104
  497MOL0     C68483   9.238   9.971   8.297 -0.7070  0.4975 -0.7620
  497MOL0     O68484   9.366   9.964   8.253 -1.1536 -0.0198  0.0504
  497MOL0     C68485   9.471   9.950   8.354 -0.2423  0.3778  0.0990
  497MOL0     C68486   9.606   9.977   8.290  0.8527 -0.0548  0.5413
  497MOL0     C68487   9.704  10.045   8.373 -0.4278 -0.2798 -0.4614
  497MOL0     C68488   9.748   9.966   8.499  0.8327 -0.7329  0.7610
  497MOL0     C68489   9.876  10.040   8.559  0.3125  0.7859 -0.0742
  497MOL0     C68490   9.856  10.186   8.593 -0.7228 -0.3084 -0.1171
  497MOL0     C68491   9.742  10.220   8.694 -0.9869 -0.1144  1.0881
  497MOL0     C68492   9.772  10.171   8.839 -0.7383 -0.4081  0.2550
  497MOL0    Cl68493   9.915  10.246   8.915 -0.2611  0.2499 -0.4708
  497MOL0     C68494   9.183  10.093   8.276 -0.2852 -0.0203  0.3331
  497MOL0     C68495   9.054  10.123   8.318 -0.9455  0.7584 -0.1555
  497MOL0     O68496   8.787  10.164   8.263 -0.0930  0.5926 -0.2631
  497MOL0     C68497   8.604  10.259   8.505 -0.4477  0.0564 -0.1615
  497MOL0     C68498   8.480  10.291   8.551  0.2516  0.4458  0.5936
  497MOL0     N68499   7.782  10.588   8.646  0.0841 -0.9074  0.1160
  497MOL0     N68500   7.810  10.718   8.625  0.0148 -0.5203 -0.1702
  497MOL0     C68501   8.943  10.486   8.367  0.1049  0.3453  0.1044
  497MOL0     C68502   9.074  10.481   8.410 -0.3182  0.3402  0.5253
  497MOL0     C68503   9.510  10.483   8.364 -0.0450 -0.9482 -0.0059
  497MOL0     C68504   9.561  10.547   8.485 -0.7551 -0.2487 -0.4243
  497MOL0     C68505   9.692  10.550   8.523 -0.5273  1.0438 -0.9324
  497MOL0     C68506   9.787  10.498   8.440  0.7373 -0.5629  0.6803
  497MOL0     O68507   9.919  10.518   8.467 -0.0126  0.1524  0.0248
  497MOL0     C68508  10.014  10.448   8.383 -0.0165  0.3099 -0.3812
  497MOL0     C68509  10.159  10.461   8.423  0.2240 -0.5936  0.4705
  497MOL0     C68510  10.241  10.577   8.354 -0.1023 -0.5875 -0.2790
  497MOL0     C68511  10.380  10.586   8.405  0.8152 -0.1403 -0.8540
  497MOL0     C68512  10.432  10.712   8.342 -0.2534  0.2873  0.3999
  497MOL0     C68513  10.485  10.810   8.299  0.3029 -0.7071 -0.8600
  497MOL0     C68514   9.741  10.440   8.312  0.1854 -0.3530  0.4238
  497MOL0     C68515   9.603  10.433   8.272  0.0359  0.7497  0.0412
  497MOL0     C68516   9.565  10.384   8.129  0.3386 -0.6947  0.2739
  497MOL0     H68517   9.184  10.790   8.319  0.4920 -0.2155 -0.8785
  497MOL0     H68518   8.936  10.818   8.277 -0.3514  0.0339 -0.3688
  497MOL0     H68519   8.706  10.802   8.272  0.6125 -0.3663 -0.4606
  497MOL0     H68520   8.714  10.727   8.435 -1.6545  2.3798 -0.2505
  497MOL0     H68521   8.500  10.706   8.226 -1.6731  1.2328  0.2712
  497MOL0     H68522   8.516  10.576   8.340  1.7939  0.1564 -1.0991
  497MOL0     H68523   8.491  10.748   8.524 -0.4193  0.9187  0.7194
  497MOL0     H68524   8.468  10.874   8.408 -0.5193 -0.2609 -1.4659
  497MOL0     H68525   8.282  10.779   8.299 -0.7820 -0.8917 -0.4617
  497MOL0     H68526   8.272  10.655   8.418  0.5050 -0.2132  0.1538
  497MOL0     H68527   8.291  10.946   8.504  2.2020 -1.6528 -0.3819
  497MOL0     H68528   8.238  10.799   8.603  2.9679 -1.3055 -0.9431
  497MOL0     H68529   8.105  10.933   8.370  0.3054  2.3285  1.4077
  497MOL0     H68530   8.042  10.791   8.441 -1.4921  0.5905  0.9548
  497MOL0     H68531   7.938  11.002   8.526  0.3528  1.7261  1.1353
  497MOL0     H68532   8.088  11.043   8.591 -1.0320  1.2645 -3.1646
  497MOL0     H68533   8.073  10.864   8.761 -1.5381 -1.3255  1.0647
  497MOL0     H68534   7.916  10.949   8.746  0.6173  0.6349  2.0322
  497MOL0     H68535   8.072  10.622   8.799  0.1881 -1.2603 -1.4073
  497MOL0     H68536   7.810  10.351   8.754 -0.6433 -2.9415  4.5660
  497MOL0     H68537   7.898  10.409   8.891 -1.9755 -0.2099 -0.5984
  497MOL0     H68538   8.111  10.378   8.750  1.5261 -1.9019 -0.3754
  497MOL0     H68539   8.024  10.234   8.800  1.7096 -1.2844 -0.4521
  497MOL0     H68540   7.908  10.230   8.580  1.4395 -2.1709  1.4807
  497MOL0     H68541   8.009  10.374   8.524  1.4077 -0.3781  0.1061
  497MOL0     H68542   8.116  10.105   8.610 -0.1862  0.0013  0.9722
  497MOL0     H68543   8.117  10.160   8.438 -4.0941  2.8461 -0.9924
  497MOL0     H68544   8.310  10.020   8.428  2.2238 -3.3437 -2.5539
  497MOL0     H68545   8.468   9.844   8.385  1.9751 -0.7717  1.5022
  497MOL0     H68546   8.624   9.888   8.327 -0.5688 -0.2161  1.1351
  497MOL0     H68547   8.479   9.920   8.230 -0.2892 -0.6271  0.1857
  497MOL0     H68548   8.980   9.805   8.444  1.6380  0.0543  2.2226
  497MOL0     H68549   9.210   9.769   8.375  2.8344  0.5835 -0.6366
  497MOL0     H68550   9.459  10.025   8.433  0.8723 -1.5232  2.1896
  497MOL0     H68551   9.476   9.851   8.399 -0.1984  0.0263 -0.6565
  497MOL0     H68552   9.646   9.881   8.256  4.1291  1.7643 -1.2921
  497MOL0     H68553   9.595  10.043   8.203  0.8154 -0.4002  0.2837
  497MOL0     H68554   9.674  10.149   8.392  1.7605  1.4843 -5.0055
  497MOL0     H68555   9.790  10.070   8.309 -0.3603 -0.0102 -0.2703
  497MOL0     H68556   9.773   9.862   8.475 -1.4972 -1.0315 -0.7008
  497MOL0     H68557   9.665   9.972   8.570 -3.3016  1.9534 -3.7149
  497MOL0     H68558   9.909   9.991   8.650 -0.1364  0.1204 -0.2611
  497MOL0     H68559   9.953  10.031   8.482  0.6420 -2.0876  0.4695
  497MOL0     H68560   9.839  10.247   8.504 -0.7946 -0.4106 -0.1738
  497MOL0     H68561   9.953  10.215   8.633  0.1434  2.4424 -3.6737
  497MOL0     H68562   9.646  10.193   8.650 -0.7259  2.2842 -1.1674
  497MOL0     H68563   9.754  10.328   8.705  0.6227 -0.2213  0.6034
  497MOL0     H68564   9.785  10.063   8.842  2.9461 -0.0928 -0.2565
  497MOL0     H68565   9.680  10.202   8.891  0.5418  2.6449  0.9185
  497MOL0     H68566   9.231  10.181   8.235 -3.0528  0.8186 -1.4288
  497MOL0     H68567   9.009  10.222   8.313 -1.0311  0.9146  2.4183
  497MOL0     H68568   8.684  10.328   8.528  0.0952 -0.0019 -1.7367
  497MOL0     H68569   8.475  10.387   8.603 -0.2575  0.4551  0.5366
  497MOL0     H68570   8.879  10.399   8.373  1.5044 -0.8563 -1.3240
  497MOL0     H68571   9.109  10.387   8.452 -0.5671 -0.4933 -1.0711
  497MOL0     H68572   9.501  10.611   8.548  1.2230  1.1749  0.0950
  497MOL0     H68573   9.720  10.601   8.615 -1.3058 -0.7082  0.3397
  497MOL0     H68574   9.990  10.341   8.376  3.5084 -0.4909 -3.2354
  497MOL0     H68575  10.001  10.476   8.278 -3.6701 -1.4378 -0.5421
  497MOL0     H68576  10.206  10.370   8.385  2.8407  1.4663 -1.5980
  497MOL0     H68577  10.164  10.459   8.533 -0.0011  2.0210  0.5900
  497MOL0     H68578  10.240  10.551   8.248  0.4890 -0.4502 -0.3181
  497MOL0     H68579  10.190  10.672   8.373  0.6868  0.2812 -2.2378
  497MOL0     H68580  10.433  10.500   8.362 -0.5888 -0.9078 -1.1165
  497MOL0     H68581  10.387  10.592   8.514 -2.4350  0.9742 -0.5783
  497MOL0     H68582  10.540  10.896   8.268 -0.6527  0.8837  1.5955
  497MOL0     H68583   9.801  10.394   8.233  0.3291  0.0030  0.3229
  497MOL0     H68584   9.511  10.289   8.133  0.4603 -0.7371  0.9151
  497MOL0     H68585   9.514  10.464   8.075  0.3607 -1.3523 -0.7623
  497MOL0     H68586   9.653  10.358   8.068  0.3975  1.9880 -0.9239
  498MOL0     O68587   2.502   6.057   6.114 -0.2956  0.3757  0.3942
  498MOL0     C68588   2.402   6.058   6.037 -0.2276 -0.3443 -0.2434
  498MOL0     O68589   2.370   5.955   5.950  0.2067 -0.2216  0.2739
  498MOL0     C68590   2.411   5.830   5.986  0.1540 -1.1582  0.2119
  498MOL0     C68591   2.490   5.748   5.906  0.2611 -0.2349  0.1599
  498MOL0     C68592   2.532   5.615   5.936  0.1493 -0.0333  1.2393
  498MOL0     C68593   2.500   5.564   6.069  0.7691  0.4252  0.0859
  498MOL0     O68594   2.532   5.436   6.114  0.9965  0.2698 -0.3774
  498MOL0     C68595   2.612   5.344   6.040  0.3418 -0.0017 -0.1991
  498MOL0     C68596   2.528   5.278   5.924  0.3972  0.2058 -1.1149
  498MOL0     C68597   2.614   5.247   5.788  0.3844 -0.0936  0.9798
  498MOL0     C68598   2.528   5.276   5.665  0.2945  0.2620  0.2822
  498MOL0     C68599   2.622   5.252   5.550 -0.3001  0.2415 -0.6838
  498MOL0     C68600   2.538   5.272   5.428  0.1534  0.4294  0.0683
  498MOL0     C68601   2.614   5.212   5.306  0.7781  0.1899 -0.3430
  498MOL0     C68602   2.750   5.279   5.261  0.5054 -0.2650 -0.7383
  498MOL0     N68603   2.817   5.217   5.141  0.7202 -0.1376  0.3732
  498MOL0     C68604   2.861   5.097   5.117 -0.2190 -0.3933 -0.4250
  498MOL0     C68605   2.936   5.097   5.011 -1.2285  0.4055  0.1329
  498MOL0     C68606   3.028   4.977   4.968  0.1042  0.4609  0.8099
  498MOL0     C68607   2.992   4.920   4.832 -0.8715  0.1318 -0.1243
  498MOL0     C68608   3.036   5.007   4.714  0.4587  0.0249 -0.2663
  498MOL0     C68609   3.193   5.009   4.701  0.0617 -0.1383 -0.0368
  498MOL0     O68610   3.253   5.047   4.571 -0.0718  0.4012  0.0373
  498MOL0     C68611   3.393   5.049   4.573  0.8670  0.4648  0.5674
  498MOL0     C68612   3.458   5.114   4.466  0.2194  0.0736 -0.1965
  498MOL0     C68613   3.591   5.121   4.454 -0.6245 -0.8834  0.0843
  498MOL0     C68614   3.647   5.188   4.324  0.7564 -0.3417  0.1624
  498MOL0     C68615   3.673   5.064   4.554 -0.7670  0.3140 -0.2825
  498MOL0     C68616   3.823   5.060   4.554  1.2679 -0.3224  1.0594
  498MOL0     O68617   3.886   5.122   4.445  0.2520 -0.2594 -0.0560
  498MOL0     C68618   4.023   5.144   4.440  0.6802 -0.5254  0.5118
  498MOL0     C68619   4.116   5.113   4.535  0.1854 -0.2434  0.1956
  498MOL0     C68620   4.245   5.139   4.507 -0.0927  0.1399 -0.4003
  498MOL0     C68621   4.294   5.179   4.379 -0.3271 -0.1864  0.0404
  498MOL0     O68622   4.426   5.216   4.360  0.0580 -0.0821  0.6963
  498MOL0     C68623   4.522   5.105   4.367 -0.2779 -0.2765  0.1366
  498MOL0     C68624   4.665   5.162   4.385  0.1594 -0.5268  0.2313
  498MOL0     C68625   4.724   5.218   4.260  0.1245  0.0148 -0.3398
  498MOL0     C68626   4.870   5.270   4.292  0.5302  0.3645 -0.2712
  498MOL0     C68627   4.935   5.343   4.179  0.2601  0.0014  1.1235
  498MOL0     C68628   5.079   5.383   4.221  0.3494 -0.3057 -0.4469
  498MOL0     C68629   5.153   5.464   4.111  0.2279 -0.8473 -0.9392
  498MOL0     C68630   5.277   5.530   4.174 -0.1104 -0.0511  0.1064
  498MOL0    Cl68631   5.396   5.580   4.056  0.2876  0.1030 -0.1852
  498MOL0     C68632   4.198   5.223   4.293  0.1786 -0.1885  0.2034
  498MOL0     C68633   4.067   5.202   4.319 -0.1844  0.8418  0.9770
  498MOL0     O68634   3.877   4.995   4.642 -0.9606 -0.1362  0.0840
  498MOL0     C68635   3.614   4.996   4.661  0.9007  0.5186 -0.1263
  498MOL0     C68636   3.474   4.988   4.665 -0.5846  0.0237 -1.0257
  498MOL0     N68637   2.934   5.229   4.960 -0.5774  0.3768  0.6029
  498MOL0     N68638   2.861   5.291   5.043  0.1682 -0.7912  0.5986
  498MOL0     C68639   2.420   5.647   6.154 -0.0672  0.3477 -0.1713
  498MOL0     C68640   2.372   5.770   6.107 -0.4709  0.2176 -0.0956
  498MOL0     C68641   2.316   6.185   6.038 -0.2980 -0.8017 -0.5250
  498MOL0     C68642   2.211   6.191   5.953 -0.3480 -0.6674  0.0832
  498MOL0     C68643   2.138   6.307   5.940 -0.6865 -0.2601 -0.1708
  498MOL0     C68644   2.158   6.429   6.011 -0.3360  0.3711  0.0300
  498MOL0     O68645   2.075   6.540   6.007 -0.3147  0.6405 -0.8656
  498MOL0     C68646   1.985   6.560   5.896  0.2690  0.8601 -0.3642
  498MOL0     C68647   1.890   6.682   5.933  0.0034  0.5874 -0.0595
  498MOL0     C68648   1.823   6.665   6.073  0.0936 -0.0076 -0.2387
  498MOL0     C68649   1.722   6.777   6.094  0.6557 -1.2018 -0.4808
  498MOL0     C68650   1.647   6.755   6.215  1.1210  0.1714 -0.0029
  498MOL0     C68651   1.602   6.732   6.329  0.9681  0.1204 -0.4675
  498MOL0     C68652   2.264   6.421   6.106 -0.7750 -0.5488 -0.0660
  498MOL0     C68653   2.339   6.300   6.124  0.2563 -0.4549  0.0638
  498MOL0     C68654   2.445   6.295   6.232 -0.2108  0.2651  0.6638
  498MOL0     H68655   2.529   5.795   5.816  1.1104 -0.0873  0.6018
  498MOL0     H68656   2.575   5.555   5.857  0.9256 -0.3960  1.9272
  498MOL0     H68657   2.644   5.262   6.105 -2.1474 -0.0700  1.0489
  498MOL0     H68658   2.699   5.399   6.003 -0.5078  0.9113 -0.8931
  498MOL0     H68659   2.483   5.191   5.971  0.6395  0.8905  0.4737
  498MOL0     H68660   2.447   5.346   5.898  0.0676 -0.2238 -1.2143
  498MOL0     H68661   2.699   5.316   5.782 -1.2205  1.8661 -2.2514
  498MOL0     H68662   2.651   5.145   5.778 -0.0827 -0.2522  0.8835
  498MOL0     H68663   2.459   5.191   5.664  3.7460 -2.8349  2.2136
  498MOL0     H68664   2.486   5.377   5.666  2.1733  1.0819  1.5494
  498MOL0     H68665   2.668   5.153   5.555  0.9923  0.8628  2.9020
  498MOL0     H68666   2.705   5.323   5.537  0.5862 -0.5644  0.3755
  498MOL0     H68667   2.440   5.223   5.429 -0.0542  0.8054  1.9500
  498MOL0     H68668   2.520   5.380   5.422  2.3039  0.8112 -0.2172
  498MOL0     H68669   2.543   5.230   5.225  0.3147  0.8634  0.1974
  498MOL0     H68670   2.626   5.104   5.306 -3.1221 -0.4030 -0.8896
  498MOL0     H68671   2.743   5.386   5.240  2.0030 -0.2667 -1.3527
  498MOL0     H68672   2.828   5.273   5.338  1.2446  2.4230 -1.1768
  498MOL0     H68673   2.851   5.022   5.195 -1.5085  1.9824  1.8814
  498MOL0     H68674   3.021   4.907   5.051  0.9021  0.9416  1.2944
  498MOL0     H68675   3.134   5.004   4.968  1.2040 -3.1913  2.5259
  498MOL0     H68676   3.030   4.821   4.802  0.8812  0.7499 -0.0503
  498MOL0     H68677   2.883   4.916   4.831 -0.9235  1.4279 -0.2619
  498MOL0     H68678   2.977   4.973   4.627 -4.6938 -1.3705  3.2824
  498MOL0     H68679   3.006   5.109   4.737  0.4761  0.0033 -0.1502
  498MOL0     H68680   3.229   5.079   4.777  2.6204 -0.9882 -0.3708
  498MOL0     H68681   3.226   4.905   4.705  1.3776  0.2368 -0.6186
  498MOL0     H68682   3.397   5.154   4.386  2.0047 -0.9112 -2.1506
  498MOL0     H68683   3.712   5.271   4.354  0.7659 -0.7037  1.2066
  498MOL0     H68684   3.559   5.221   4.269  0.3508  1.3057  1.7217
  498MOL0     H68685   3.704   5.122   4.258 -1.5756 -1.1125 -1.1927
  498MOL0     H68686   4.097   5.079   4.637  2.3382 -1.8002  0.1512
  498MOL0     H68687   4.315   5.119   4.588 -0.3228 -0.0853 -0.2549
  498MOL0     H68688   4.493   5.050   4.457  2.5564 -0.5730  0.9440
  498MOL0     H68689   4.511   5.039   4.281  2.4625 -0.8207  0.1360
  498MOL0     H68690   4.669   5.246   4.455  1.7990 -0.1532 -0.2410
  498MOL0     H68691   4.732   5.079   4.409  2.1139  0.5552 -1.1325
  498MOL0     H68692   4.675   5.307   4.220 -2.4755 -1.0681  0.2265
  498MOL0     H68693   4.719   5.141   4.183  1.0549 -1.8271  1.3416
  498MOL0     H68694   4.940   5.196   4.331  1.9538  2.3357  1.1078
  498MOL0     H68695   4.847   5.341   4.372 -2.0794 -1.7176  0.9829
  498MOL0     H68696   4.947   5.281   4.089  1.4999 -1.0968  2.0041
  498MOL0     H68697   4.876   5.431   4.150  2.1061  1.4194  1.4760
  498MOL0     H68698   5.135   5.294   4.250 -0.3207 -0.0827  1.7307
  498MOL0     H68699   5.062   5.445   4.310  0.4326 -0.3791 -0.3808
  498MOL0     H68700   5.086   5.529   4.053  2.4122  0.9553 -1.5825
  498MOL0     H68701   5.193   5.389   4.041  1.2738 -1.3801  0.1933
  498MOL0     H68702   5.331   5.474   4.251  0.0346  0.4715  0.3922
  498MOL0     H68703   5.238   5.623   4.216 -3.2569 -0.8533 -0.7430
  498MOL0     H68704   4.225   5.276   4.202 -0.1632 -1.0732 -0.4227
  498MOL0     H68705   4.001   5.213   4.234  0.3105 -2.0496  0.1355
  498MOL0     H68706   3.661   4.953   4.749 -0.1255  0.2396  0.2894
  498MOL0     H68707   3.424   4.947   4.752  1.0192  0.3565  0.0986
  498MOL0     H68708   2.389   5.609   6.250  0.1684  1.7881  0.5048
  498MOL0     H68709   2.316   5.830   6.178  1.7398  1.4053  0.7353
  498MOL0     H68710   2.174   6.098   5.911  0.9703 -2.0151  1.7458
  498MOL0     H68711   2.046   6.302   5.882 -1.0642 -1.3112  0.4920
  498MOL0     H68712   2.043   6.601   5.812  3.6799 -1.0283  0.8573
  498MOL0     H68713   1.916   6.476   5.887 -1.2092  2.0296 -0.1930
  498MOL0     H68714   1.817   6.687   5.851  1.1374  1.5398 -1.0507
  498MOL0     H68715   1.946   6.776   5.925 -0.2770  0.7529 -0.1081
  498MOL0     H68716   1.784   6.563   6.078 -3.5213  1.2392 -0.2647
  498MOL0     H68717   1.905   6.679   6.144  0.9481 -0.8389 -1.0441
  498MOL0     H68718   1.658   6.778   6.006  1.5639 -1.7003 -1.1741
  498MOL0     H68719   1.777   6.871   6.095  0.7125 -0.8850 -6.0107
  498MOL0     H68720   1.564   6.709   6.426 -1.7326  0.3745 -1.3833
  498MOL0     H68721   2.289   6.513   6.159  2.3737 -0.6939 -1.0724
  498MOL0     H68722   2.539   6.297   6.175 -0.8312  0.5304 -0.3788
  498MOL0     H68723   2.438   6.379   6.302 -2.4624  1.1875 -0.5784
  498MOL0     H68724   2.431   6.202   6.289 -0.4836 -0.3766 -0.4164
  499MOL0     O68725   8.839   4.110   6.738  0.0786 -0.0467 -0.4260
  499MOL0     C68726   8.956   4.079   6.726 -0.1007 -0.2209 -0.0276
  499MOL0     O68727   9.002   3.950   6.712  0.1850 -0.0833 -0.3296
  499MOL0     C68728   8.901   3.850   6.712  0.1793 -0.4058 -0.9903
  499MOL0     C68729   8.858   3.783   6.594  0.3436 -0.4401 -0.1449
  499MOL0     C68730   8.768   3.679   6.601 -0.0415 -0.3745 -0.1639
  499MOL0     C68731   8.709   3.636   6.720  0.4633  0.6089  0.9509
  499MOL0     O68732   8.622   3.526   6.706 -0.0309 -0.4714 -0.5188
  499MOL0     C68733   8.518   3.510   6.808 -0.4271 -0.0447 -0.1810
  499MOL0     C68734   8.436   3.396   6.754 -0.0668 -0.0860 -0.0815
  499MOL0     C68735   8.356   3.441   6.637 -0.3450  0.7988  0.2847
  499MOL0     C68736   8.272   3.324   6.573 -0.7408 -1.2726  0.0584
  499MOL0     C68737   8.187   3.391   6.469  0.2576  0.1094  0.3490
  499MOL0     C68738   8.267   3.439   6.337 -0.2402  1.1979  0.0995
  499MOL0     C68739   8.164   3.522   6.251  0.2299 -0.2036  0.4520
  499MOL0     C68740   8.189   3.514   6.096 -0.4439 -0.5838  0.4032
  499MOL0     N68741   8.078   3.571   6.014  0.4440 -0.9547  0.8483
  499MOL0     C68742   7.958   3.518   5.995  0.8631  1.3035 -0.0993
  499MOL0     C68743   7.894   3.600   5.902  0.3353 -0.1319 -0.4927
  499MOL0     C68744   7.756   3.572   5.843  0.7620 -0.0689 -0.6086
  499MOL0     C68745   7.766   3.513   5.708  0.7664  0.5645 -0.0575
  499MOL0     C68746   7.631   3.439   5.664 -0.4596  0.2945 -0.6599
  499MOL0     C68747   7.592   3.447   5.517  0.4032  0.7303 -0.3553
  499MOL0     O68748   7.557   3.581   5.485  0.1557 -0.2271 -0.6405
  499MOL0     C68749   7.448   3.644   5.533  0.7958 -0.3855  0.6601
  499MOL0     C68750   7.455   3.753   5.618  0.1805  0.7771 -0.4721
  499MOL0     C68751   7.338   3.804   5.686  0.0024  0.6142 -0.4745
  499MOL0     C68752   7.369   3.915   5.793  0.0326  0.4207  0.2237
  499MOL0     C68753   7.208   3.749   5.652 -0.6813 -0.1798  0.4885
  499MOL0     C68754   7.084   3.803   5.711  0.5519 -0.3318  0.0802
  499MOL0     O68755   6.979   3.805   5.639  0.4666 -0.0667  0.4014
  499MOL0     C68756   6.861   3.873   5.675  0.2517 -0.2110 -1.1057
  499MOL0     C68757   6.806   3.974   5.593  0.1139 -0.2020  0.2646
  499MOL0     C68758   6.687   4.034   5.638  0.1992 -0.5690  0.2305
  499MOL0     C68759   6.620   4.001   5.757  1.4036  0.2977 -0.8319
  499MOL0     O68760   6.497   4.050   5.801 -0.2066  0.1856 -0.4373
  499MOL0     C68761   6.449   4.165   5.734 -0.1414 -0.7944 -0.5423
  499MOL0     C68762   6.352   4.224   5.844 -0.3455 -0.2588 -0.0585
  499MOL0     C68763   6.429   4.264   5.968  0.0533  0.0166 -0.5221
  499MOL0     C68764   6.330   4.305   6.082  0.9858 -0.5059  1.1024
  499MOL0     C68765   6.416   4.336   6.208  0.1164  0.3769  0.5424
  499MOL0     C68766   6.338   4.337   6.339  0.1837 -0.4796  0.5900
  499MOL0     C68767   6.440   4.345   6.461  0.2370  0.8766  0.2918
  499MOL0     C68768   6.380   4.315   6.591 -0.0329 -0.3060 -0.4097
  499MOL0    Cl68769   6.335   4.141   6.586  0.4190  0.3066 -0.2623
  499MOL0     C68770   6.695   3.912   5.843 -0.0999 -0.1207 -0.4990
  499MOL0     C68771   6.800   3.840   5.794 -1.0911 -0.1516 -0.0410
  499MOL0     O68772   7.086   3.826   5.825  0.2135 -0.1654  0.3050
  499MOL0     C68773   7.191   3.644   5.559 -0.0361  1.0250 -0.3612
  499MOL0     C68774   7.315   3.593   5.499  0.0680 -0.0827 -0.0237
  499MOL0     N68775   7.979   3.702   5.867  0.0729  1.1521  0.0422
  499MOL0     N68776   8.081   3.680   5.932 -0.2624  0.7104  0.4659
  499MOL0     C68777   8.748   3.703   6.832 -0.2296 -0.0379 -0.0343
  499MOL0     C68778   8.841   3.803   6.827  0.7979 -0.0046 -0.6317
  499MOL0     C68779   9.056   4.184   6.746  0.3291  0.1387 -0.3536
  499MOL0     C68780   9.188   4.141   6.780  0.0124  0.5017  0.2898
  499MOL0     C68781   9.291   4.226   6.811  0.1440  0.0772  0.4372
  499MOL0     C68782   9.275   4.358   6.811  0.9192  0.5240 -0.3183
  499MOL0     O68783   9.370   4.454   6.856 -0.4814  0.6212  0.4493
  499MOL0     C68784   9.503   4.414   6.811 -1.7174 -0.3677 -0.0890
  499MOL0     C68785   9.594   4.534   6.860 -0.4428 -0.3334 -0.7147
  499MOL0     C68786   9.738   4.495   6.879  0.3105 -0.2298 -0.9758
  499MOL0     C68787   9.818   4.582   6.969 -0.6455  0.7914 -1.1257
  499MOL0     C68788   9.950   4.529   7.025 -0.1443  0.4159 -0.5816
  499MOL0     C68789  10.065   4.496   7.056  0.1290  0.0119  0.6901
  499MOL0     C68790   9.148   4.406   6.779 -0.2463 -0.0208  0.3614
  499MOL0     C68791   9.031   4.324   6.758 -1.0391  0.6617 -0.3663
  499MOL0     C68792   8.891   4.384   6.755  0.3681 -0.4124 -0.3993
  499MOL0     H68793   8.898   3.820   6.500  1.1305 -0.6605  0.0933
  499MOL0     H68794   8.738   3.627   6.511 -1.9794 -0.2454  0.3692
  499MOL0     H68795   8.462   3.602   6.832  0.0572  0.0906  0.4637
  499MOL0     H68796   8.565   3.480   6.902 -0.7449 -0.9836 -0.3138
  499MOL0     H68797   8.507   3.314   6.736  1.5531  0.8610  1.5887
  499MOL0     H68798   8.364   3.360   6.828 -2.0758  2.3311 -0.7431
  499MOL0     H68799   8.286   3.511   6.682 -2.1399  0.5870 -2.0152
  499MOL0     H68800   8.422   3.483   6.561  0.8947 -0.5714  0.5369
  499MOL0     H68801   8.351   3.257   6.537  2.3955  1.2357  1.7816
  499MOL0     H68802   8.213   3.280   6.654 -2.4547 -1.2878 -1.1175
  499MOL0     H68803   8.131   3.481   6.497  0.3004 -0.2534  1.6616
  499MOL0     H68804   8.117   3.317   6.428  0.1014  0.9401 -0.9440
  499MOL0     H68805   8.353   3.500   6.366  2.2415 -2.5886  1.4274
  499MOL0     H68806   8.305   3.345   6.296  1.8348  1.3334  1.5605
  499MOL0     H68807   8.162   3.627   6.279 -1.0518  0.2263 -1.1352
  499MOL0     H68808   8.060   3.493   6.272 -0.2214  2.5856  2.6060
  499MOL0     H68809   8.286   3.563   6.081  1.8679 -3.4669  4.1387
  499MOL0     H68810   8.190   3.408   6.070 -2.2847 -0.1310 -1.8353
  499MOL0     H68811   7.917   3.426   6.037 -1.7658  1.7636 -1.5178
  499MOL0     H68812   7.685   3.655   5.844 -0.2874 -0.9408  0.3661
  499MOL0     H68813   7.724   3.488   5.905  2.0582 -0.6571 -0.6992
  499MOL0     H68814   7.794   3.590   5.636 -0.1142  0.2107 -0.7942
  499MOL0     H68815   7.844   3.437   5.713  0.0796 -0.0929  1.4071
  499MOL0     H68816   7.649   3.333   5.680 -1.8097  0.2153  0.5786
  499MOL0     H68817   7.544   3.471   5.722 -1.9058 -3.0932 -0.7253
  499MOL0     H68818   7.679   3.420   5.457  0.3609  0.9397 -0.5101
  499MOL0     H68819   7.512   3.376   5.492  1.2426  0.1615 -1.4682
  499MOL0     H68820   7.549   3.782   5.664  0.4144  1.9978 -1.6447
  499MOL0     H68821   7.473   3.947   5.804 -0.2083  1.3488 -0.0428
  499MOL0     H68822   7.345   3.886   5.895  0.7175  0.0481  0.2838
  499MOL0     H68823   7.304   4.000   5.767  1.0046  0.5512 -1.9884
  499MOL0     H68824   6.843   3.999   5.495 -1.0424  0.5765  0.0052
  499MOL0     H68825   6.638   4.112   5.579  1.1627  1.9748  2.5847
  499MOL0     H68826   6.536   4.231   5.727 -0.0249 -0.7248  1.1061
  499MOL0     H68827   6.409   4.156   5.633  0.4198  2.4514 -1.1723
  499MOL0     H68828   6.283   4.304   5.815 -0.4510 -0.5628 -0.6528
  499MOL0     H68829   6.288   4.141   5.877  2.3031 -1.9036  1.2946
  499MOL0     H68830   6.501   4.343   5.941 -0.2048  0.3399 -0.2620
  499MOL0     H68831   6.482   4.178   6.011  3.0627  1.6656 -0.6729
  499MOL0     H68832   6.255   4.228   6.103 -3.1834  2.6305 -0.7853
  499MOL0     H68833   6.264   4.391   6.068 -1.0529 -2.0380  0.7906
  499MOL0     H68834   6.498   4.264   6.221  1.3212  1.6144  0.0492
  499MOL0     H68835   6.473   4.429   6.202  1.3146 -0.3902 -0.8955
  499MOL0     H68836   6.281   4.244   6.352  2.7516 -2.3672 -0.7512
  499MOL0     H68837   6.274   4.425   6.344  0.6082 -0.1849  0.9470
  499MOL0     H68838   6.496   4.439   6.454  1.2975  0.3259  1.0208
  499MOL0     H68839   6.519   4.271   6.446 -1.7791 -1.2472 -0.4316
  499MOL0     H68840   6.294   4.378   6.616  0.9523  1.1827 -0.6212
  499MOL0     H68841   6.446   4.335   6.675 -3.4474  0.9728  2.2152
  499MOL0     H68842   6.675   3.891   5.948  1.7101  0.8502  0.0897
  499MOL0     H68843   6.853   3.765   5.851 -0.2501 -0.1430 -0.7921
  499MOL0     H68844   7.091   3.604   5.548 -0.4411  2.3689 -1.8146
  499MOL0     H68845   7.299   3.511   5.430 -0.5848 -0.8731  1.0350
  499MOL0     H68846   8.705   3.679   6.929 -0.6507  1.9198  0.2957
  499MOL0     H68847   8.854   3.858   6.919  1.2777  0.8927 -1.2310
  499MOL0     H68848   9.216   4.036   6.790  0.4370  0.8053  2.8738
  499MOL0     H68849   9.376   4.167   6.844  0.4151  0.1280 -0.1495
  499MOL0     H68850   9.529   4.320   6.860  0.9037 -0.1875 -1.0148
  499MOL0     H68851   9.515   4.402   6.703 -1.6973  3.1478 -0.6123
  499MOL0     H68852   9.569   4.575   6.958  2.7052  2.3037 -0.8415
  499MOL0     H68853   9.583   4.627   6.804  0.5099  0.9222  1.0985
  499MOL0     H68854   9.743   4.389   6.904  0.1278  0.2866  1.4650
  499MOL0     H68855   9.789   4.501   6.782  2.3760  0.3640  0.1056
  499MOL0     H68856   9.758   4.616   7.053 -0.3859  1.8556 -1.3541
  499MOL0     H68857   9.844   4.678   6.924  3.3784 -0.7226 -2.5776
  499MOL0     H68858  10.169   4.470   7.064 -0.2564 -1.1680  2.2139
  499MOL0     H68859   9.131   4.513   6.779 -0.6125 -0.0776  0.1697
  499MOL0     H68860   8.845   4.377   6.657 -2.5335 -2.3937  0.9772
  499MOL0     H68861   8.832   4.322   6.823  0.7721  0.6664  0.9868
  499MOL0     H68862   8.896   4.487   6.792 -0.1768  0.7990 -3.4309
  500MOL0     O68863   2.163   4.376   5.851 -0.2187 -0.9806  0.4382
  500MOL0     C68864   2.100   4.363   5.955 -0.4725  0.2482 -0.2581
  500MOL0     O68865   2.159   4.354   6.082  0.1957 -0.3637 -0.1169
  500MOL0     C68866   2.295   4.354   6.097 -0.4089 -1.3865  0.0464
  500MOL0     C68867   2.388   4.298   6.002  0.4004 -0.3765  0.8187
  500MOL0     C68868   2.523   4.297   6.021  0.4610  0.1692 -0.2411
  500MOL0     C68869   2.581   4.357   6.134  0.4574 -0.4737  0.0961
  500MOL0     O68870   2.721   4.368   6.154  0.0649 -0.0166  0.8468
  500MOL0     C68871   2.808   4.299   6.060 -0.8255 -0.1623  0.7127
  500MOL0     C68872   2.945   4.278   6.115  0.3382  0.1268  0.0270
  500MOL0     C68873   3.035   4.213   6.014  0.5341  0.1931 -0.3863
  500MOL0     C68874   3.174   4.179   6.080 -0.5614 -0.2557 -0.0959
  500MOL0     C68875   3.266   4.100   5.974  1.0523 -0.2416  0.9581
  500MOL0     C68876   3.406   4.086   6.030 -0.5419 -0.2136 -0.5768
  500MOL0     C68877   3.509   4.079   5.911  0.5832 -0.4661  1.5069
  500MOL0     C68878   3.650   4.109   5.961 -0.7304 -0.6977 -0.1314
  500MOL0     N68879   3.749   4.112   5.855 -0.8449 -0.0786  0.4459
  500MOL0     C68880   3.802   4.217   5.788  0.6617  0.7852 -0.2218
  500MOL0     C68881   3.880   4.161   5.688 -0.0251 -0.5229 -0.9075
  500MOL0     C68882   3.959   4.234   5.587  0.7340 -0.5607  0.0733
  500MOL0     C68883   4.063   4.141   5.534  0.0137 -0.4608 -0.9115
  500MOL0     C68884   4.158   4.220   5.440  0.5411 -0.0211 -0.3421
  500MOL0     C68885   4.263   4.116   5.383 -0.2529 -1.1485  0.8654
  500MOL0     O68886   4.362   4.189   5.308 -0.4020  0.3802  1.2170
  500MOL0     C68887   4.493   4.133   5.306  0.6167  0.9383  0.0416
  500MOL0     C68888   4.531   4.008   5.346 -0.8134  0.4863  0.0974
  500MOL0     C68889   4.664   3.972   5.341 -0.6374 -0.5376 -0.0782
  500MOL0     C68890   4.698   3.847   5.422 -0.4953 -0.0864  0.1375
  500MOL0     C68891   4.761   4.057   5.278  0.2075 -1.2020  0.4676
  500MOL0     C68892   4.904   4.034   5.268 -0.3990 -0.1012  0.3741
  500MOL0     O68893   4.987   4.114   5.181 -0.2439 -0.1294 -0.1595
  500MOL0     C68894   5.122   4.110   5.193  0.6300 -0.0881  0.5695
  500MOL0     C68895   5.187   4.052   5.092 -0.9561 -0.4758  0.2658
  500MOL0     C68896   5.318   4.013   5.097  0.2463 -0.1749 -0.2867
  500MOL0     C68897   5.394   4.038   5.211  0.4582 -0.6816  0.0989
  500MOL0     O68898   5.528   3.998   5.222 -1.1967  0.1483 -0.0277
  500MOL0     C68899   5.600   3.922   5.120  0.4528 -0.6255  0.5848
  500MOL0     C68900   5.754   3.893   5.162  0.5942 -0.8390 -0.4181
  500MOL0     C68901   5.778   3.838   5.303 -0.3617 -0.3349 -0.9195
  500MOL0     C68902   5.762   3.686   5.294  0.3123 -0.6045  0.3616
  500MOL0     C68903   5.786   3.617   5.421 -0.2933 -0.2690 -0.3011
  500MOL0     C68904   5.807   3.469   5.408  0.4259  1.1294 -0.0652
  500MOL0     C68905   5.837   3.393   5.534 -0.1566 -0.6046  0.0366
  500MOL0     C68906   5.865   3.250   5.514 -0.8608  1.1382  0.4972
  500MOL0    Cl68907   6.022   3.219   5.436 -0.4658  0.2576 -0.1922
  500MOL0     C68908   5.330   4.118   5.311 -1.0930  0.6240 -0.7781
  500MOL0     C68909   5.192   4.149   5.304 -0.5711  0.3800  0.6503
  500MOL0     O68910   4.957   3.952   5.345 -0.4731 -0.4933  0.4427
  500MOL0     C68911   4.712   4.173   5.220 -0.3554 -0.6399 -0.3841
  500MOL0     C68912   4.580   4.210   5.239  0.4756 -0.8292  0.3669
  500MOL0     N68913   3.868   4.028   5.691  0.7060 -0.3245  0.0647
  500MOL0     N68914   3.794   4.001   5.787  0.1856 -0.3591  0.0476
  500MOL0     C68915   2.493   4.402   6.228  0.7394 -0.2833  0.0431
  500MOL0     C68916   2.354   4.402   6.216 -0.8216 -0.0796  0.2526
  500MOL0     C68917   1.954   4.342   5.941 -0.2470  1.4026 -1.6515
  500MOL0     C68918   1.896   4.253   6.034  0.1810 -0.1658  0.3500
  500MOL0     C68919   1.754   4.231   6.037 -0.3898 -0.9407  0.6775
  500MOL0     C68920   1.676   4.277   5.930 -0.0909 -0.3591  0.8676
  500MOL0     O68921   1.544   4.256   5.929 -0.6201  0.1155  0.4145
  500MOL0     C68922   1.458   4.286   5.818  0.7699 -0.4757  1.1760
  500MOL0     C68923   1.326   4.224   5.831 -1.0563 -0.6469 -0.5276
  500MOL0     C68924   1.333   4.074   5.850  0.2491  0.4001 -1.4751
  500MOL0     C68925   1.396   3.992   5.739 -0.1044 -0.8158  0.2366
  500MOL0     C68926   1.301   3.994   5.626  0.1077 -0.9913  0.9858
  500MOL0     C68927   1.218   3.994   5.536  0.2209 -0.3408  0.9265
  500MOL0     C68928   1.745   4.340   5.818 -0.0938 -0.5509  0.0203
  500MOL0     C68929   1.879   4.388   5.832 -0.4301 -0.7659  0.1823
  500MOL0     C68930   1.939   4.480   5.724  0.4077 -0.0349 -0.1169
  500MOL0     H68931   2.357   4.244   5.913 -2.0090  2.3722 -0.1816
  500MOL0     H68932   2.575   4.248   5.939 -1.6226  0.2665 -1.6832
  500MOL0     H68933   2.815   4.369   5.977  2.2139  3.9014  3.9538
  500MOL0     H68934   2.769   4.199   6.039 -0.5911  0.1616 -1.4882
  500MOL0     H68935   2.981   4.374   6.153 -2.8898  1.0416  1.1251
  500MOL0     H68936   2.937   4.210   6.201  0.3050  0.4351  0.2692
  500MOL0     H68937   2.995   4.120   5.974 -1.8614 -0.6168  3.4726
  500MOL0     H68938   3.057   4.285   5.934  1.9793  1.5141  1.1329
  500MOL0     H68939   3.236   4.267   6.099  0.1588 -0.1408 -2.6570
  500MOL0     H68940   3.156   4.133   6.178  0.4728  0.4433  0.4373
  500MOL0     H68941   3.271   4.153   5.879  0.6686  0.8810  1.5425
  500MOL0     H68942   3.227   3.998   5.962 -0.3551  0.5185 -1.4116
  500MOL0     H68943   3.429   4.164   6.104  0.1596 -1.9719  1.1584
  500MOL0     H68944   3.400   3.999   6.096 -4.0606  0.5249  0.2566
  500MOL0     H68945   3.470   4.145   5.834 -2.0676 -2.0637  1.3368
  500MOL0     H68946   3.518   3.979   5.866  0.0386 -0.5062  1.4838
  500MOL0     H68947   3.664   4.199   6.021  3.5048 -1.9335  1.0363
  500MOL0     H68948   3.680   4.030   6.031  1.7112 -0.4868 -0.8456
  500MOL0     H68949   3.797   4.324   5.805  3.3731  0.9595  0.0098
  500MOL0     H68950   4.008   4.322   5.629 -0.2986 -0.4136  1.0035
  500MOL0     H68951   3.897   4.263   5.502  1.4076 -0.3174 -0.3473
  500MOL0     H68952   4.122   4.103   5.618  1.2930 -0.2693 -1.7051
  500MOL0     H68953   4.016   4.059   5.479 -2.4958  0.8276 -0.8430
  500MOL0     H68954   4.096   4.258   5.358 -0.7524 -1.2377  0.0190
  500MOL0     H68955   4.201   4.302   5.498 -0.8602  1.4101 -1.2525
  500MOL0     H68956   4.304   4.061   5.468 -0.3100  0.3705  1.9135
  500MOL0     H68957   4.221   4.051   5.306  0.2593  1.4321 -1.7402
  500MOL0     H68958   4.461   3.929   5.373  0.0285  0.1074  1.2230
  500MOL0     H68959   4.732   3.781   5.341 -1.0219 -1.3921  0.9504
  500MOL0     H68960   4.612   3.797   5.465 -1.0126 -3.0845 -3.7642
  500MOL0     H68961   4.774   3.867   5.498 -0.4968  3.8842 -0.6780
  500MOL0     H68962   5.134   4.018   5.003 -0.5201 -0.2135 -0.1000
  500MOL0     H68963   5.355   3.967   5.006 -0.8891  0.6113 -1.1706
  500MOL0     H68964   5.550   3.831   5.087 -1.9534 -1.7982  6.3452
  500MOL0     H68965   5.598   3.978   5.025  2.3705 -1.3130  0.1080
  500MOL0     H68966   5.788   3.817   5.090  1.7131 -0.9753  0.2323
  500MOL0     H68967   5.818   3.981   5.148 -1.6436  0.9184 -0.0100
  500MOL0     H68968   5.716   3.878   5.384  2.5576  1.4176  0.6376
  500MOL0     H68969   5.882   3.852   5.334 -0.6203 -0.5725  0.1175
  500MOL0     H68970   5.834   3.657   5.216  1.1423  0.8775  0.5317
  500MOL0     H68971   5.664   3.658   5.255  0.1869  1.8999 -1.3420
  500MOL0     H68972   5.864   3.659   5.485  1.7189 -1.3808 -1.8924
  500MOL0     H68973   5.696   3.634   5.481  0.4968  0.0387  0.8376
  500MOL0     H68974   5.868   3.442   5.321 -0.5412 -0.6304 -0.2212
  500MOL0     H68975   5.708   3.439   5.375  0.6882  1.7789 -1.4998
  500MOL0     H68976   5.748   3.410   5.595  0.7866 -2.8005  2.2188
  500MOL0     H68977   5.924   3.436   5.585 -0.2748 -0.0257 -0.2403
  500MOL0     H68978   5.778   3.209   5.460 -0.4170  0.3332  0.3739
  500MOL0     H68979   5.865   3.192   5.607  2.3911 -2.1857 -1.3057
  500MOL0     H68980   5.382   4.157   5.397 -2.0625 -0.6896  0.4520
  500MOL0     H68981   5.150   4.198   5.391 -0.8064 -0.5427  1.0749
  500MOL0     H68982   4.771   4.248   5.169  0.6170  0.9845  2.8934
  500MOL0     H68983   4.526   4.296   5.201 -0.5207 -1.5255  0.1717
  500MOL0     H68984   2.536   4.440   6.320  0.6671  0.4891 -0.2346
  500MOL0     H68985   2.290   4.445   6.292 -0.4097 -1.1966  1.2650
  500MOL0     H68986   1.961   4.216   6.112  0.7764  0.1056 -0.0120
  500MOL0     H68987   1.706   4.173   6.116 -0.5346 -0.0496  1.2594
  500MOL0     H68988   1.451   4.395   5.811  0.1868 -0.5806 -0.2860
  500MOL0     H68989   1.493   4.255   5.719  0.1646 -0.1988  0.8688
  500MOL0     H68990   1.270   4.253   5.741  1.0006  0.8970 -1.3653
  500MOL0     H68991   1.281   4.272   5.918  0.4028  0.1934 -0.2153
  500MOL0     H68992   1.388   4.052   5.942 -1.2618  0.2453 -0.5710
  500MOL0     H68993   1.233   4.033   5.867  0.5653  0.3613  0.4996
  500MOL0     H68994   1.416   3.890   5.772  2.4646  0.3190  2.5580
  500MOL0     H68995   1.496   4.030   5.716 -0.4419  0.0002  0.0610
  500MOL0     H68996   1.146   3.995   5.457 -0.7866  6.1464  1.3532
  500MOL0     H68997   1.687   4.366   5.731 -2.1953 -3.3726  0.4379
  500MOL0     H68998   1.999   4.564   5.762  1.6082 -0.4307 -1.0509
  500MOL0     H68999   2.008   4.429   5.656 -2.3186 -2.2345 -1.4111
  500MOL0     H69000   1.850   4.518   5.673 -1.0955 -1.6897  1.1398
  501MOL0     O69001   3.967   0.851   6.664  0.3234  0.1250  0.0247
  501MOL0     C69002   3.984   0.921   6.763  0.7054  0.5505 -0.3938
  501MOL0     O69003   4.106   0.961   6.810  0.3039  0.3310 -0.4358
  501MOL0     C69004   4.215   0.915   6.743  0.9103  0.1025 -0.0344
  501MOL0     C69005   4.271   1.005   6.648 -0.3571 -0.1771  0.0901
  501MOL0     C69006   4.391   0.963   6.582 -0.3594 -0.3317  0.9327
  501MOL0     C69007   4.447   0.835   6.600  0.1088 -0.1875 -0.1342
  501MOL0     O69008   4.560   0.806   6.526  0.4263 -0.5470 -0.2224
  501MOL0     C69009   4.644   0.699   6.548 -0.5057 -0.1356  0.4137
  501MOL0     C69010   4.776   0.702   6.467  0.1711 -0.9254  0.4767
  501MOL0     C69011   4.876   0.610   6.526  0.1225 -1.2147  0.0514
  501MOL0     C69012   5.012   0.605   6.441 -0.2410 -0.5497 -0.6075
  501MOL0     C69013   5.105   0.495   6.484 -0.3071 -0.1607 -0.2924
  501MOL0     C69014   5.173   0.524   6.616 -0.1487  0.6704 -0.3036
  501MOL0     C69015   5.266   0.405   6.674 -0.2351  0.3755 -0.2019
  501MOL0     C69016   5.312   0.450   6.807 -0.2032 -0.4272  0.8982
  501MOL0     N69017   5.375   0.336   6.866 -0.5882  0.2899 -0.2783
  501MOL0     C69018   5.468   0.258   6.807  0.0602  0.1959 -0.2043
  501MOL0     C69019   5.476   0.143   6.887 -0.5749 -0.9158 -0.0888
  501MOL0     C69020   5.553   0.015   6.858  0.4724 -0.1180  0.1090
  501MOL0     C69021   5.685   0.024   6.926 -0.3936 -0.1426  0.4818
  501MOL0     C69022   5.776  -0.092   6.895 -0.0712 -0.1584 -0.4042
  501MOL0     C69023   5.926  -0.076   6.924  1.1521 -0.4264  0.2427
  501MOL0     O69024   5.954  -0.035   7.054  0.5600  0.3302 -0.5965
  501MOL0     C69025   6.076  -0.041   7.117 -0.4101  0.4155  0.3701
  501MOL0     C69026   6.085  -0.005   7.248 -0.4177 -0.4725 -0.1600
  501MOL0     C69027   6.203   0.002   7.328  0.5535  0.5524 -0.1383
  501MOL0     C69028   6.202   0.020   7.479  0.1003  0.6802 -0.1770
  501MOL0     C69029   6.322  -0.032   7.262 -0.9178 -0.7735  0.6516
  501MOL0     C69030   6.461  -0.032   7.327  0.1566 -0.1184 -0.2564
  501MOL0     O69031   6.553  -0.108   7.273  0.6804  0.9270 -0.8306
  501MOL0     C69032   6.679  -0.110   7.320  0.2752 -0.4914 -0.8563
  501MOL0     C69033   6.765  -0.005   7.284 -0.0749 -0.2744 -0.3658
  501MOL0     C69034   6.895  -0.003   7.329 -0.4288 -0.0663  0.1349
  501MOL0     C69035   6.940  -0.105   7.410 -0.6490  0.6139 -1.3522
  501MOL0     O69036   7.076  -0.103   7.443 -0.1483 -0.1853  0.2727
  501MOL0     C69037   7.152  -0.227   7.423  0.3224 -0.2418 -0.0129
  501MOL0     C69038   7.293  -0.205   7.440 -0.5663  0.3272 -0.9917
  501MOL0     C69039   7.373  -0.338   7.411  0.4959 -0.1124  0.6594
  501MOL0     C69040   7.518  -0.320   7.437 -1.1057  0.9211  0.0286
  501MOL0     C69041   7.577  -0.460   7.423 -0.0541 -0.6743  0.4115
  501MOL0     C69042   7.725  -0.459   7.469  0.2081 -0.3995  0.4836
  501MOL0     C69043   7.784  -0.595   7.457  0.7328  0.5333  0.6961
  501MOL0     C69044   7.935  -0.588   7.468 -0.3629 -0.8853 -0.0818
  501MOL0    Cl69045   8.009  -0.519   7.322  0.2823 -0.1633  0.2033
  501MOL0     C69046   6.855  -0.215   7.446  0.1247 -0.7489 -0.2990
  501MOL0     C69047   6.724  -0.204   7.410  0.1959  1.1543  0.3396
  501MOL0     O69048   6.476   0.046   7.423  0.8507 -0.1373 -0.8497
  501MOL0     C69049   6.322  -0.058   7.131  0.1706 -0.1091  0.3857
  501MOL0     C69050   6.202  -0.068   7.061  0.4945 -1.5883 -0.4072
  501MOL0     N69051   5.394   0.155   6.997 -0.4698 -0.1722  0.0179
  501MOL0     N69052   5.337   0.275   6.981 -0.4444 -0.3218 -0.6595
  501MOL0     C69053   4.378   0.745   6.680  0.2185 -0.6509  0.0059
  501MOL0     C69054   4.264   0.790   6.757 -0.1511  0.2704 -1.3271
  501MOL0     C69055   3.859   0.965   6.829 -0.9045 -0.2342 -0.1968
  501MOL0     C69056   3.855   0.946   6.970  1.6403 -0.2171 -0.9049
  501MOL0     C69057   3.741   0.990   7.047 -0.7824 -0.3360  0.2271
  501MOL0     C69058   3.628   1.032   6.984  0.0150 -0.8015  0.0784
  501MOL0     O69059   3.522   1.057   7.072  0.5931  0.1032 -0.1055
  501MOL0     C69060   3.388   1.049   7.020  0.5506  0.5389  0.4669
  501MOL0     C69061   3.308   0.971   7.128 -0.1387  0.2150  1.0349
  501MOL0     C69062   3.296   1.029   7.265 -0.5591 -0.7204  0.3120
  501MOL0     C69063   3.168   0.989   7.334  0.3677 -0.3942  0.0154
  501MOL0     C69064   3.060   1.063   7.274  0.4221  0.5262  1.1777
  501MOL0     C69065   2.959   1.115   7.228  0.4866  0.4638 -0.1869
  501MOL0     C69066   3.631   1.052   6.841 -0.1259 -0.1898 -0.3361
  501MOL0     C69067   3.744   1.021   6.763  0.7070  0.4872  0.4536
  501MOL0     C69068   3.744   1.073   6.621  0.4608 -0.6947 -0.0707
  501MOL0     H69069   4.229   1.105   6.634 -1.5106 -0.4024  1.7094
  501MOL0     H69070   4.436   1.028   6.508  0.8305 -3.7245 -1.6124
  501MOL0     H69071   4.590   0.609   6.516 -2.4865  1.0393  0.2864
  501MOL0     H69072   4.664   0.693   6.655 -1.8430 -2.1616  0.6025
  501MOL0     H69073   4.749   0.685   6.363 -1.1963  0.3558  0.5807
  501MOL0     H69074   4.815   0.804   6.461 -0.1147 -0.8647 -0.6274
  501MOL0     H69075   4.883   0.631   6.633 -1.1515  2.0429 -0.3884
  501MOL0     H69076   4.831   0.511   6.515 -3.5220  0.3354 -0.5712
  501MOL0     H69077   4.976   0.591   6.338 -1.9088 -0.8538 -0.0200
  501MOL0     H69078   5.063   0.702   6.447  0.6973 -1.1526  3.1226
  501MOL0     H69079   5.185   0.482   6.411 -0.9499 -0.6019 -0.9259
  501MOL0     H69080   5.043   0.407   6.503  0.7982 -1.3255 -1.8186
  501MOL0     H69081   5.222   0.622   6.616 -1.4702  1.4089  2.2219
  501MOL0     H69082   5.092   0.544   6.687  0.7126  0.0067  0.8946
  501MOL0     H69083   5.350   0.384   6.606 -0.8940 -2.4820 -0.2542
  501MOL0     H69084   5.215   0.309   6.679 -1.9282  1.2491 -0.0699
  501MOL0     H69085   5.370   0.541   6.792  0.1943 -1.0933 -2.2555
  501MOL0     H69086   5.230   0.487   6.869 -0.7400  0.6184 -0.3895
  501MOL0     H69087   5.518   0.272   6.712  1.1071  0.7574  0.4067
  501MOL0     H69088   5.563   0.005   6.749 -0.1919 -1.7088  0.1659
  501MOL0     H69089   5.498  -0.076   6.882  0.0585 -0.0138 -0.4160
  501MOL0     H69090   5.742   0.111   6.891  3.5279 -2.2688  0.9049
  501MOL0     H69091   5.675   0.030   7.035  0.6333 -1.5374  0.6888
  501MOL0     H69092   5.745  -0.174   6.962 -0.9217  0.0700 -0.5052
  501MOL0     H69093   5.774  -0.130   6.793  2.4474 -2.0779  0.1444
  501MOL0     H69094   5.988  -0.165   6.908  2.2183  0.5592 -1.3436
  501MOL0     H69095   5.957   0.004   6.857  0.9171  0.4592  1.1578
  501MOL0     H69096   5.991   0.025   7.293 -0.3007  0.4707 -0.5156
  501MOL0     H69097   6.104   0.000   7.523  0.0313  0.0919 -0.5805
  501MOL0     H69098   6.230   0.124   7.498  2.2357  0.3260 -1.1035
  501MOL0     H69099   6.277  -0.046   7.526  0.4737  0.5098 -0.9942
  501MOL0     H69100   6.727   0.065   7.210 -0.9364 -0.4335 -0.0834
  501MOL0     H69101   6.972   0.071   7.305  1.0955 -0.3629  3.5190
  501MOL0     H69102   7.122  -0.314   7.481 -1.8493 -0.1069 -0.8594
  501MOL0     H69103   7.136  -0.261   7.320 -0.3609  1.2670 -0.4396
  501MOL0     H69104   7.329  -0.122   7.378  2.0153 -0.5212 -0.7490
  501MOL0     H69105   7.306  -0.178   7.546  0.5218 -1.7037 -0.5644
  501MOL0     H69106   7.349  -0.364   7.307  1.7636 -0.5846  0.4660
  501MOL0     H69107   7.337  -0.427   7.462  1.4776 -1.7551 -1.3523
  501MOL0     H69108   7.545  -0.304   7.542  3.5946 -0.3483 -0.8041
  501MOL0     H69109   7.561  -0.236   7.383 -0.2960  0.7807  0.4497
  501MOL0     H69110   7.526  -0.526   7.493 -1.3757  0.2456  0.3520
  501MOL0     H69111   7.568  -0.493   7.319  1.3244  3.4286 -1.2351
  501MOL0     H69112   7.735  -0.426   7.573  0.0313 -1.3838  0.8250
  501MOL0     H69113   7.785  -0.392   7.407 -0.8518 -0.0603 -0.2044
  501MOL0     H69114   7.765  -0.646   7.362  5.1448  0.3655 -0.3107
  501MOL0     H69115   7.736  -0.652   7.537 -0.5304  0.0774 -0.3451
  501MOL0     H69116   7.983  -0.686   7.478 -0.3975 -0.7597  1.6307
  501MOL0     H69117   7.952  -0.527   7.557 -1.4101 -0.4260 -0.1795
  501MOL0     H69118   6.894  -0.281   7.523  1.2901  0.8182  0.5152
  501MOL0     H69119   6.659  -0.286   7.440  1.3548 -0.0768 -0.3574
  501MOL0     H69120   6.414  -0.071   7.073 -0.7558 -1.1500 -0.9068
  501MOL0     H69121   6.204  -0.100   6.957 -2.1501 -2.8917 -0.1388
  501MOL0     H69122   4.404   0.640   6.674 -0.0909 -0.7135 -0.3329
  501MOL0     H69123   4.212   0.709   6.807  2.3215 -1.8698 -1.9951
  501MOL0     H69124   3.936   0.913   7.034  0.7158  0.6939  0.8291
  501MOL0     H69125   3.742   0.984   7.156  2.0518 -1.4797  0.2237
  501MOL0     H69126   3.349   1.151   7.016 -1.4842 -0.2238 -0.4825
  501MOL0     H69127   3.389   1.006   6.919 -0.8963  1.8235 -0.1451
  501MOL0     H69128   3.336   0.866   7.116  0.4231  0.6061 -1.9087
  501MOL0     H69129   3.206   0.985   7.089  0.0100 -0.3945  0.4065
  501MOL0     H69130   3.387   0.999   7.319  1.2097 -1.1565 -2.6585
  501MOL0     H69131   3.297   1.138   7.257 -0.3321 -0.6797  0.8928
  501MOL0     H69132   3.172   1.016   7.440 -2.2850  1.5951 -0.2877
  501MOL0     H69133   3.153   0.881   7.328 -2.2399 -0.0651 -0.5372
  501MOL0     H69134   2.878   1.166   7.179  1.1057  1.5129 -0.1395
  501MOL0     H69135   3.540   1.095   6.799  0.3835  0.9838 -0.2780
  501MOL0     H69136   3.751   1.181   6.606 -2.6701 -0.6979 -2.6190
  501MOL0     H69137   3.830   1.034   6.566  0.8340  1.3051 -0.9677
  501MOL0     H69138   3.651   1.036   6.577  0.6718 -3.0497  1.2620
  502MOL0     O69139   1.046   6.705   2.158 -0.2275  0.1749  0.1010
  502MOL0     C69140   1.083   6.797   2.235  0.5198  0.5465 -0.1434
  502MOL0     O69141   1.162   6.904   2.199 -0.3936 -0.5973 -0.3480
  502MOL0     C69142   1.211   6.924   2.070  0.3564 -0.2684 -0.3105
  502MOL0     C69143   1.129   6.933   1.953  0.5002 -0.4207 -0.4865
  502MOL0     C69144   1.188   6.957   1.821 -0.1783  0.7044  0.0996
  502MOL0     C69145   1.329   6.964   1.816  0.8677 -0.1123  1.5638
  502MOL0     O69146   1.382   6.982   1.691  0.0392 -0.2259  0.0349
  502MOL0     C69147   1.514   6.935   1.661  0.3514  0.4168  0.4972
  502MOL0     C69148   1.550   6.953   1.503  0.2463 -1.4835 -1.0101
  502MOL0     C69149   1.675   6.886   1.454  0.1917  0.5758 -0.1239
  502MOL0     C69150   1.690   6.734   1.456 -0.0066 -0.4479  0.1422
  502MOL0     C69151   1.824   6.677   1.405 -0.1996  0.0559 -0.4437
  502MOL0     C69152   1.950   6.696   1.494 -0.3003 -0.3662  0.2985
  502MOL0     C69153   2.081   6.637   1.450  0.0758  0.7688  0.2179
  502MOL0     C69154   2.120   6.682   1.314  0.2075 -0.0006  0.8544
  502MOL0     N69155   2.260   6.648   1.286  0.2620 -0.6599  0.1102
  502MOL0     C69156   2.304   6.551   1.205 -0.6606 -0.3278 -0.4871
  502MOL0     C69157   2.425   6.590   1.162  0.1743 -0.0011 -0.0983
  502MOL0     C69158   2.517   6.510   1.076  0.0754 -0.1373 -0.8098
  502MOL0     C69159   2.555   6.583   0.938 -0.5786 -0.2327 -0.0187
  502MOL0     C69160   2.666   6.511   0.861 -0.4366 -0.4506 -0.1170
  502MOL0     C69161   2.722   6.587   0.741 -0.5777 -0.3235  0.2446
  502MOL0     O69162   2.635   6.588   0.624  0.0417 -0.7963  0.1589
  502MOL0     C69163   2.680   6.621   0.497  0.0243  0.0236  0.5521
  502MOL0     C69164   2.805   6.682   0.461  0.0632  0.8265 -0.1362
  502MOL0     C69165   2.834   6.731   0.334 -0.8978 -0.1954  1.1662
  502MOL0     C69166   2.962   6.809   0.307  1.1559  0.3681 -0.6518
  502MOL0     C69167   2.736   6.717   0.235  0.7217  0.9038  0.4049
  502MOL0     C69168   2.756   6.750   0.086 -0.2241 -0.1090 -0.3562
  502MOL0     O69169   2.642   6.768   0.014  0.3719  0.6045  0.6118
  502MOL0     C69170   2.644   6.783  -0.118  1.1151 -0.4466  0.5559
  502MOL0     C69171   2.717   6.686  -0.193 -0.0438  0.3599 -0.0305
  502MOL0     C69172   2.706   6.679  -0.331 -0.2634 -0.1288  0.0079
  502MOL0     C69173   2.624   6.770  -0.402 -0.4328  0.8006  0.6744
  502MOL0     O69174   2.615   6.756  -0.541 -0.5667  1.0658 -0.5663
  502MOL0     C69175   2.654   6.877  -0.617  0.8661  1.0275  0.5694
  502MOL0     C69176   2.799   6.914  -0.597 -0.6420  0.0868 -0.1075
  502MOL0     C69177   2.854   7.026  -0.691  0.0048  0.4745 -0.4605
  502MOL0     C69178   3.002   7.061  -0.651 -0.4236  0.3277  0.2442
  502MOL0     C69179   3.082   7.116  -0.770  0.0462  0.1070 -0.0517
  502MOL0     C69180   3.238   7.148  -0.738  1.0391  0.4677  0.1687
  502MOL0     C69181   3.326   7.018  -0.728 -1.6653 -0.5511 -1.1784
  502MOL0     C69182   3.474   7.051  -0.693  0.0742  0.2803  0.5415
  502MOL0    Cl69183   3.478   7.143  -0.551 -0.1025 -0.3989  0.1755
  502MOL0     C69184   2.559   6.870  -0.333  0.3428 -0.8334  0.4549
  502MOL0     C69185   2.559   6.880  -0.192 -0.6563  0.7403  0.8602
  502MOL0     O69186   2.872   6.746   0.044  0.1676  0.0302  0.0963
  502MOL0     C69187   2.614   6.650   0.264 -0.2633 -0.2175 -1.5111
  502MOL0     C69188   2.594   6.608   0.399  0.3598 -0.5969 -0.1142
  502MOL0     N69189   2.455   6.709   1.228  0.5482 -1.1805 -1.0136
  502MOL0     N69190   2.357   6.741   1.304  0.4138  0.1569 -0.2250
  502MOL0     C69191   1.409   6.946   1.929 -0.5146 -0.8189  1.0774
  502MOL0     C69192   1.352   6.919   2.048  0.5705  0.4824 -0.4054
  502MOL0     C69193   1.063   6.787   2.376 -0.0804 -0.4778 -0.3526
  502MOL0     C69194   1.062   6.910   2.448  0.5120  0.8351 -0.1493
  502MOL0     C69195   1.046   6.915   2.591  0.2361  0.6406  0.2061
  502MOL0     C69196   1.031   6.798   2.667  0.9257  0.4245 -0.5445
  502MOL0     O69197   1.002   6.788   2.801 -0.3991 -0.0035 -0.3805
  502MOL0     C69198   0.986   6.904   2.885  0.4710 -0.5486  0.1471
  502MOL0     C69199   0.900   6.870   3.011 -0.0762 -0.2208  0.0838
  502MOL0     C69200   0.889   6.992   3.099 -0.5796  0.7868 -0.1914
  502MOL0     C69201   0.786   7.091   3.042 -0.3945  0.1055 -0.0334
  502MOL0     C69202   0.778   7.201   3.133  0.1253  0.0159 -1.1845
  502MOL0     C69203   0.765   7.294   3.207 -0.4204  0.3292  0.2783
  502MOL0     C69204   1.031   6.675   2.593  0.6929 -0.7039  0.3848
  502MOL0     C69205   1.043   6.668   2.453  0.3132 -0.1943 -0.1284
  502MOL0     C69206   1.038   6.522   2.409  0.9107 -0.3243  0.0838
  502MOL0     H69207   1.027   6.954   1.982  1.2496  5.2881 -0.7829
  502MOL0     H69208   1.130   6.973   1.732 -1.3258 -2.9252  0.0159
  502MOL0     H69209   1.519   6.832   1.697 -2.8659  0.0844  0.2670
  502MOL0     H69210   1.578   7.001   1.721 -0.8334  0.7270  1.4596
  502MOL0     H69211   1.461   6.928   1.444  1.1217  0.6477 -3.3830
  502MOL0     H69212   1.559   7.061   1.491  0.0939 -0.8714  3.0023
  502MOL0     H69213   1.665   6.908   1.347  0.7853 -0.4043 -0.3919
  502MOL0     H69214   1.763   6.944   1.483  1.2777 -1.1400  0.1763
  502MOL0     H69215   1.683   6.701   1.560  3.0579 -1.9321  0.0034
  502MOL0     H69216   1.606   6.702   1.393 -0.6314  1.0151  0.1988
  502MOL0     H69217   1.848   6.717   1.306  2.0810 -1.1448 -0.4498
  502MOL0     H69218   1.823   6.568   1.393 -1.0287  0.2190 -2.1985
  502MOL0     H69219   1.977   6.802   1.495  0.6836 -0.6059  0.6157
  502MOL0     H69220   1.918   6.662   1.593 -0.7323 -3.9296 -0.9187
  502MOL0     H69221   2.072   6.528   1.452  0.5266  0.7170 -0.2832
  502MOL0     H69222   2.162   6.656   1.521 -0.0667 -0.0312  0.6201
  502MOL0     H69223   2.049   6.649   1.238  1.7350  3.2613 -2.3467
  502MOL0     H69224   2.113   6.791   1.302 -1.6971  0.0140  1.8838
  502MOL0     H69225   2.246   6.464   1.174 -0.0217 -0.3602 -1.6217
  502MOL0     H69226   2.449   6.427   1.055 -1.3252  0.4040  1.1967
  502MOL0     H69227   2.612   6.482   1.123  0.4777  2.4524  0.1231
  502MOL0     H69228   2.466   6.596   0.876 -0.5682 -1.8044 -0.4082
  502MOL0     H69229   2.601   6.678   0.969 -0.1099  0.1023 -1.6513
  502MOL0     H69230   2.751   6.516   0.930 -0.9471  2.1557  0.4294
  502MOL0     H69231   2.635   6.413   0.824 -1.8952  0.9173 -2.7699
  502MOL0     H69232   2.765   6.686   0.758 -1.0907 -0.3808  2.0483
  502MOL0     H69233   2.811   6.537   0.701 -0.1901  1.8274 -1.8173
  502MOL0     H69234   2.881   6.695   0.537  1.3740  0.2208 -1.3059
  502MOL0     H69235   3.028   6.766   0.232  1.6413 -0.2779  0.1324
  502MOL0     H69236   3.016   6.818   0.401 -2.6016  2.7577  1.5439
  502MOL0     H69237   2.929   6.911   0.282 -0.9058 -0.4199 -1.3748
  502MOL0     H69238   2.791   6.618  -0.153 -1.3679  0.9100  3.7312
  502MOL0     H69239   2.759   6.606  -0.391 -1.0950 -0.4110 -0.4037
  502MOL0     H69240   2.633   6.849  -0.721  1.5763 -1.0129  0.9203
  502MOL0     H69241   2.598   6.965  -0.584  1.3589  1.3114  0.6504
  502MOL0     H69242   2.809   6.948  -0.494  1.1069  0.1355 -0.2518
  502MOL0     H69243   2.853   6.822  -0.621 -0.1327  0.7449 -1.6087
  502MOL0     H69244   2.797   7.119  -0.685 -3.3087 -1.4610  0.7250
  502MOL0     H69245   2.845   6.982  -0.791  2.1486  0.0034 -0.4940
  502MOL0     H69246   3.051   6.965  -0.632 -0.3150 -0.6263 -3.9265
  502MOL0     H69247   3.004   7.123  -0.561  0.8791 -1.3733  1.4809
  502MOL0     H69248   3.089   7.044  -0.852  3.7712 -1.7594  1.6547
  502MOL0     H69249   3.026   7.206  -0.796  2.4355  1.7669  0.2431
  502MOL0     H69250   3.246   7.211  -0.648 -0.1432  0.2554  0.4388
  502MOL0     H69251   3.286   7.199  -0.822 -0.7474  0.6491 -0.7841
  502MOL0     H69252   3.321   6.957  -0.819 -2.8820  2.1963 -3.0880
  502MOL0     H69253   3.283   6.948  -0.655 -1.6366 -1.5029 -2.0389
  502MOL0     H69254   3.523   7.105  -0.775  0.5607 -1.1160 -0.1107
  502MOL0     H69255   3.528   6.960  -0.667  1.5919  1.6895  2.7158
  502MOL0     H69256   2.508   6.946  -0.391  0.0859 -1.2984  0.0641
  502MOL0     H69257   2.508   6.966  -0.150 -1.7004  1.5472 -1.8093
  502MOL0     H69258   2.539   6.622   0.191 -0.5309 -3.9541 -0.0275
  502MOL0     H69259   2.499   6.564   0.428  0.4294 -0.2567  0.6746
  502MOL0     H69260   1.517   6.954   1.916 -0.9473  1.6109 -2.3045
  502MOL0     H69261   1.422   6.891   2.126  0.0447  0.4873  0.0690
  502MOL0     H69262   1.076   7.003   2.394 -1.5213  2.4756  1.9331
  502MOL0     H69263   1.036   7.009   2.645  0.8314  1.4642 -1.0782
  502MOL0     H69264   1.084   6.948   2.908 -0.0713 -0.4931  2.6477
  502MOL0     H69265   0.931   6.982   2.832 -2.2202 -2.3160  0.1408
  502MOL0     H69266   0.950   6.786   3.059  0.1905  1.0605  2.1992
  502MOL0     H69267   0.797   6.840   2.988 -0.4033 -0.0312  1.2101
  502MOL0     H69268   0.860   6.963   3.201  2.3357  2.7612  1.3758
  502MOL0     H69269   0.991   7.028   3.117 -0.9391  1.5670  0.3810
  502MOL0     H69270   0.695   7.031   3.032 -1.2174  1.2276  0.5258
  502MOL0     H69271   0.813   7.133   2.944  0.8976  0.5411  0.4902
  502MOL0     H69272   0.767   7.370   3.283 -2.5255 -3.6951  4.9173
  502MOL0     H69273   1.019   6.579   2.641  0.3431  0.3744  2.5872
  502MOL0     H69274   1.002   6.516   2.306  0.5368 -0.9648  0.2406
  502MOL0     H69275   1.142   6.487   2.414  1.4359  1.2014  0.0970
  502MOL0     H69276   0.966   6.465   2.469 -1.0732  3.0267  1.1647
  503MOL0     O69277   6.056   0.055  11.220  0.9370  0.3796  0.2444
  503MOL0     C69278   5.992  -0.044  11.258 -0.4278 -0.4335 -0.3257
  503MOL0     O69279   6.029  -0.180  11.239 -1.1418  0.4579 -0.0096
  503MOL0     C69280   6.133  -0.216  11.163 -0.4040  0.1168  0.5623
  503MOL0     C69281   6.158  -0.160  11.034 -1.0241  0.1972 -0.2935
  503MOL0     C69282   6.258  -0.205  10.943 -1.5180  0.2745 -0.3524
  503MOL0     C69283   6.328  -0.324  10.984 -0.0917  0.3510 -0.6658
  503MOL0     O69284   6.421  -0.369  10.897 -0.0690  0.0017  0.4636
  503MOL0     C69285   6.452  -0.507  10.899 -0.2263  0.1486  0.3449
  503MOL0     C69286   6.363  -0.585  10.813  0.0726 -0.0558 -1.4734
  503MOL0     C69287   6.236  -0.643  10.869 -0.0210 -0.1871  0.3752
  503MOL0     C69288   6.111  -0.557  10.873 -0.3224  0.3398  0.4324
  503MOL0     C69289   5.982  -0.631  10.875  0.0604  0.6125 -0.5617
  503MOL0     C69290   5.879  -0.526  10.883  0.5294  0.5445 -1.0511
  503MOL0     C69291   5.747  -0.602  10.905  0.3129  0.6252  0.6720
  503MOL0     C69292   5.636  -0.499  10.882  0.0830  0.4056  0.1629
  503MOL0     N69293   5.501  -0.548  10.902 -0.4745  0.0463  0.2550
  503MOL0     C69294   5.412  -0.518  11.004 -0.5171 -0.2325  0.2490
  503MOL0     C69295   5.311  -0.604  10.977  0.0358 -0.0827  0.5586
  503MOL0     C69296   5.192  -0.612  11.066 -0.3098 -0.0527  0.4533
  503MOL0     C69297   5.072  -0.667  10.983 -0.2769 -0.5429  0.0646
  503MOL0     C69298   4.938  -0.635  11.050 -0.7094  0.4621  0.2841
  503MOL0     C69299   4.823  -0.677  10.966 -0.3390 -1.0295  0.3748
  503MOL0     O69300   4.816  -0.816  10.960 -0.1130 -0.3526 -0.3935
  503MOL0     C69301   4.696  -0.879  10.928 -0.8527  0.2936 -0.1474
  503MOL0     C69302   4.594  -0.816  10.857 -0.3089  0.2982 -0.3598
  503MOL0     C69303   4.472  -0.881  10.829 -0.0948 -0.8113 -0.1015
  503MOL0     C69304   4.360  -0.803  10.760 -1.1621  0.6358  0.3045
  503MOL0     C69305   4.459  -1.020  10.856  0.1430 -0.9242 -0.2451
  503MOL0     C69306   4.346  -1.109  10.815  0.5220  0.0320  0.8445
  503MOL0     O69307   4.334  -1.231  10.867 -0.0455  1.3365  0.8145
  503MOL0     C69308   4.234  -1.327  10.846  0.4022  0.9064  1.2365
  503MOL0     C69309   4.258  -1.455  10.898 -0.8090 -0.1107 -0.7401
  503MOL0     C69310   4.175  -1.561  10.859 -0.2931 -0.2701 -1.1517
  503MOL0     C69311   4.082  -1.552  10.760  0.4716  0.0755  0.2297
  503MOL0     O69312   4.009  -1.658  10.717  0.1291 -0.6066 -0.0474
  503MOL0     C69313   3.979  -1.667  10.579  0.2964 -0.1613 -0.2270
  503MOL0     C69314   3.825  -1.648  10.570 -0.3151 -0.3842 -0.1259
  503MOL0     C69315   3.741  -1.759  10.643 -0.0396  0.5547  0.3295
  503MOL0     C69316   3.772  -1.901  10.582 -0.0690  0.2312  0.2584
  503MOL0     C69317   3.691  -2.002  10.664  0.6867 -0.0090  0.5061
  503MOL0     C69318   3.713  -2.025  10.810 -0.1894  1.2106 -0.5231
  503MOL0     C69319   3.849  -2.090  10.844 -1.0450  0.2978  0.0162
  503MOL0     C69320   3.936  -2.017  10.949 -0.3465  0.6974 -0.1792
  503MOL0    Cl69321   3.848  -2.006  11.097 -0.1874  0.7380 -0.3208
  503MOL0     C69322   4.050  -1.415  10.719  0.0367  0.9489 -0.2938
  503MOL0     C69323   4.119  -1.312  10.761  0.3814 -0.3710  0.3272
  503MOL0     O69324   4.274  -1.073  10.723 -0.6631 -0.5284  0.0537
  503MOL0     C69325   4.559  -1.084  10.915 -0.4809 -0.1308  0.0600
  503MOL0     C69326   4.673  -1.015  10.951  0.5869  0.0951 -0.4059
  503MOL0     N69327   5.345  -0.682  10.864 -0.3195  0.2895  0.4357
  503MOL0     N69328   5.460  -0.654  10.824  0.1012 -0.4036 -0.2406
  503MOL0     C69329   6.312  -0.376  11.116 -0.1487 -0.2671  0.1560
  503MOL0     C69330   6.220  -0.317  11.203 -0.0190  0.0422 -0.8358
  503MOL0     C69331   5.867  -0.018  11.330  0.4304 -0.2100 -0.4950
  503MOL0     C69332   5.777   0.074  11.273 -0.4537  0.2520  0.0414
  503MOL0     C69333   5.650   0.084  11.325  0.3568  1.2997  0.9667
  503MOL0     C69334   5.617   0.016  11.445 -0.3560 -0.0208 -0.2410
  503MOL0     O69335   5.485   0.028  11.500 -0.1029 -0.4863  0.1242
  503MOL0     C69336   5.448  -0.028  11.627 -0.1834 -0.4335  0.9929
  503MOL0     C69337   5.302   0.017  11.634 -0.0659 -0.1720 -0.0192
  503MOL0     C69338   5.232  -0.005  11.770 -0.1186  0.6283  0.0887
  503MOL0     C69339   5.098   0.062  11.792  0.1764 -0.8250  0.3408
  503MOL0     C69340   5.100   0.209  11.778 -0.1065 -0.2060  0.5646
  503MOL0     C69341   5.100   0.333  11.767  0.7981  0.0921 -0.1034
  503MOL0     C69342   5.711  -0.065  11.499 -0.1311 -0.9615  0.0546
  503MOL0     C69343   5.834  -0.089  11.445  0.8059 -0.2056 -0.1228
  503MOL0     C69344   5.934  -0.181  11.520  0.5224 -0.3904 -0.4489
  503MOL0     H69345   6.092  -0.079  11.002  0.6917  1.2724 -1.2622
  503MOL0     H69346   6.261  -0.160  10.845 -1.7670 -2.0797 -1.5149
  503MOL0     H69347   6.461  -0.546  11.000  0.6888  0.6528  0.4728
  503MOL0     H69348   6.551  -0.524  10.856 -1.0659 -0.1987 -1.5588
  503MOL0     H69349   6.357  -0.524  10.723  0.2297  1.5461 -0.4480
  503MOL0     H69350   6.414  -0.675  10.777 -0.1178  0.2780 -2.6071
  503MOL0     H69351   6.206  -0.725  10.803 -1.9207  0.6608  0.1214
  503MOL0     H69352   6.264  -0.680  10.968 -2.3448  0.8575  1.4965
  503MOL0     H69353   6.111  -0.502  10.968  0.9798  1.1305  0.0055
  503MOL0     H69354   6.124  -0.487  10.790  1.2863  0.7373  0.9875
  503MOL0     H69355   5.989  -0.688  10.969  2.7059  0.3525 -0.8388
  503MOL0     H69356   5.958  -0.696  10.790 -1.5585  0.1072  0.2389
  503MOL0     H69357   5.894  -0.457  10.966 -0.7444  0.4731 -0.7317
  503MOL0     H69358   5.872  -0.473  10.788  1.5261  1.9450 -0.3668
  503MOL0     H69359   5.738  -0.643  11.006 -3.3236  2.5042  1.2616
  503MOL0     H69360   5.736  -0.682  10.831 -3.1137  1.0402  0.5776
  503MOL0     H69361   5.646  -0.411  10.945  1.1137  1.7350 -1.7462
  503MOL0     H69362   5.640  -0.463  10.779 -0.4062 -3.5097 -1.4163
  503MOL0     H69363   5.432  -0.447  11.084 -0.1939  1.3185 -1.1497
  503MOL0     H69364   5.175  -0.513  11.109  1.1469  0.3230  0.2059
  503MOL0     H69365   5.216  -0.686  11.142  2.8144  1.5042  1.1211
  503MOL0     H69366   5.074  -0.613  10.888  1.4243  2.2824  1.5589
  503MOL0     H69367   5.087  -0.775  10.972  0.7161 -0.6408  1.9628
  503MOL0     H69368   4.941  -0.696  11.141 -1.1694  2.7564  1.9266
  503MOL0     H69369   4.942  -0.528  11.073  3.5902 -0.0957  3.3150
  503MOL0     H69370   4.735  -0.642  11.020 -1.8284 -4.1771  0.2031
  503MOL0     H69371   4.846  -0.629  10.870  0.6745  1.7658  1.8988
  503MOL0     H69372   4.605  -0.715  10.818 -2.2284 -0.6089 -3.6894
  503MOL0     H69373   4.365  -0.696  10.782  0.8483  0.4764  0.8573
  503MOL0     H69374   4.260  -0.842  10.778 -0.2303 -2.3512 -0.4804
  503MOL0     H69375   4.387  -0.806  10.654 -0.3396  0.0784  0.5202
  503MOL0     H69376   4.334  -1.463  10.975 -4.2387 -1.8996  2.8408
  503MOL0     H69377   4.191  -1.654  10.913  2.4040  2.4745  3.4145
  503MOL0     H69378   4.030  -1.593  10.517  2.0994  0.6575  2.0442
  503MOL0     H69379   4.001  -1.765  10.535  2.4203  1.5729 -3.3441
  503MOL0     H69380   3.797  -1.549  10.608 -1.2939  0.5179 -2.9037
  503MOL0     H69381   3.797  -1.652  10.464 -1.9527  0.7154  0.2340
  503MOL0     H69382   3.634  -1.739  10.630 -0.3148  0.5418  2.2004
  503MOL0     H69383   3.758  -1.762  10.751 -2.0027 -0.7377  0.6500
  503MOL0     H69384   3.873  -1.941  10.593  0.7701  1.2399 -2.6624
  503MOL0     H69385   3.753  -1.896  10.474 -1.7807  0.6005  0.5614
  503MOL0     H69386   3.588  -1.966  10.672  0.2328 -0.4888 -2.2652
  503MOL0     H69387   3.671  -2.094  10.607 -0.9232  0.6021  0.0507
  503MOL0     H69388   3.640  -2.091  10.857  1.4194  0.7866  1.5254
  503MOL0     H69389   3.702  -1.939  10.878  1.5312  0.0043  1.4103
  503MOL0     H69390   3.904  -2.097  10.750  0.8733 -0.9099  1.1541
  503MOL0     H69391   3.839  -2.197  10.864  0.3151  0.0218 -0.6615
  503MOL0     H69392   3.964  -1.916  10.920 -2.6521  1.0493 -1.4041
  503MOL0     H69393   4.028  -2.071  10.971 -0.2235  0.5129 -1.0989
  503MOL0     H69394   3.967  -1.399  10.651  1.2798  0.2027 -2.0540
  503MOL0     H69395   4.098  -1.218  10.710 -0.0158 -0.0348  1.0983
  503MOL0     H69396   4.554  -1.191  10.931 -2.5751  0.1962  2.2683
  503MOL0     H69397   4.748  -1.076  11.000 -2.7774 -1.8560  2.8046
  503MOL0     H69398   6.369  -0.460  11.153  0.6152 -0.4887 -1.4459
  503MOL0     H69399   6.206  -0.362  11.300 -2.4364 -1.2428 -1.7036
  503MOL0     H69400   5.796   0.119  11.177  0.6502 -1.8856 -0.8136
  503MOL0     H69401   5.568   0.140  11.282  0.4717  0.1219 -0.8732
  503MOL0     H69402   5.443  -0.137  11.630 -0.6428 -0.4227  0.7101
  503MOL0     H69403   5.519   0.006  11.703  2.9210 -1.2321 -1.3586
  503MOL0     H69404   5.247  -0.036  11.555  0.0208  1.6177 -1.3339
  503MOL0     H69405   5.301   0.123  11.608  0.2891  0.0235  0.7299
  503MOL0     H69406   5.229  -0.114  11.762  0.7536  0.7329 -2.6321
  503MOL0     H69407   5.298   0.014  11.854  2.0030 -0.6383 -1.1919
  503MOL0     H69408   5.074   0.053  11.898  2.1895  0.8301  1.0094
  503MOL0     H69409   5.012   0.026  11.735 -1.2900  0.8486  1.4055
  503MOL0     H69410   5.106   0.440  11.760  0.9665  0.0032 -1.5440
  503MOL0     H69411   5.685  -0.115  11.592 -4.1616  2.1384  0.8721
  503MOL0     H69412   5.885  -0.279  11.521 -0.7496  0.1661 -2.4274
  503MOL0     H69413   6.030  -0.193  11.469  0.3941 -1.2324 -0.5052
  503MOL0     H69414   5.966  -0.166  11.623  0.9927 -1.6121 -0.3976
  504MOL0     O69415   6.184   9.437  10.984  0.2594  0.2785  0.2927
  504MOL0     C69416   6.266   9.527  10.973 -0.0883 -0.6227 -0.0661
  504MOL0     O69417   6.388   9.544  11.032 -0.1445 -0.0275  0.4089
  504MOL0     C69418   6.437   9.442  11.116 -0.0009 -0.7303  0.4532
  504MOL0     C69419   6.397   9.414  11.247 -0.3715 -0.7348  0.1436
  504MOL0     C69420   6.458   9.313  11.322 -0.0096 -0.8014  0.1552
  504MOL0     C69421   6.563   9.238  11.276  0.5303 -0.2125 -0.3070
  504MOL0     O69422   6.636   9.146  11.347  0.8776 -0.9000  0.1938
  504MOL0     C69423   6.704   9.195  11.467 -1.0198  0.1684  0.2481
  504MOL0     C69424   6.840   9.254  11.432  0.7181 -0.4005 -0.0342
  504MOL0     C69425   6.939   9.148  11.370  0.8754  0.6414 -0.2301
  504MOL0     C69426   7.053   9.227  11.317 -0.9640  0.7409  0.3266
  504MOL0     C69427   7.160   9.141  11.249 -0.1703 -0.2039 -0.0166
  504MOL0     C69428   7.287   9.225  11.217 -0.3971  0.6294 -0.5828
  504MOL0     C69429   7.393   9.144  11.142  0.1124  0.5398 -0.6169
  504MOL0     C69430   7.439   9.019  11.202  0.7762 -0.2868 -0.0469
  504MOL0     N69431   7.498   9.047  11.331 -0.1887  0.2100  0.1307
  504MOL0     C69432   7.619   9.098  11.362 -0.0938 -0.4633  0.7687
  504MOL0     C69433   7.613   9.127  11.496 -0.1464  0.6075 -0.2007
  504MOL0     C69434   7.714   9.177  11.586 -0.1485  0.3986 -0.0440
  504MOL0     C69435   7.859   9.132  11.560 -0.0758  0.0829  0.4380
  504MOL0     C69436   7.912   8.987  11.600  0.3489 -1.4576 -1.0483
  504MOL0     C69437   7.840   8.881  11.541 -0.1472  0.1813  0.3608
  504MOL0     O69438   7.881   8.759  11.607  0.6240 -0.1817  0.6408
  504MOL0     C69439   7.786   8.671  11.642 -0.0284  0.4224 -0.0111
  504MOL0     C69440   7.821   8.537  11.616 -0.7791  0.6219  0.1064
  504MOL0     C69441   7.735   8.433  11.630 -0.6410  0.4437  0.2114
  504MOL0     C69442   7.787   8.294  11.616 -0.6472  0.3987  0.8316
  504MOL0     C69443   7.601   8.470  11.684  0.1238 -0.0184 -0.5305
  504MOL0     C69444   7.504   8.369  11.727  0.2946  0.2742  1.0396
  504MOL0     O69445   7.407   8.403  11.817  0.0953  0.0212 -0.2933
  504MOL0     C69446   7.307   8.317  11.855  0.0744 -0.6142 -0.1571
  504MOL0     C69447   7.316   8.218  11.958 -0.5535  1.2042 -0.5272
  504MOL0     C69448   7.198   8.150  11.995  0.8063  0.3437  0.8636
  504MOL0     C69449   7.096   8.142  11.902 -0.7211 -0.2754 -0.4834
  504MOL0     O69450   6.981   8.058  11.904 -0.0730  0.2935 -1.0406
  504MOL0     C69451   6.971   7.971  12.024 -0.4095  0.6088  0.7579
  504MOL0     C69452   6.858   7.883  11.992 -0.4948  0.3928 -0.3396
  504MOL0     C69453   6.838   7.775  12.109 -1.4204  0.1835  0.1589
  504MOL0     C69454   6.749   7.650  12.087 -0.7478  0.3606  0.3750
  504MOL0     C69455   6.629   7.679  11.990 -1.0790  0.7818  0.1886
  504MOL0     C69456   6.536   7.775  12.041  0.0498 -0.4445  0.0715
  504MOL0     C69457   6.424   7.791  11.939 -0.2213  0.5667 -0.5589
  504MOL0     C69458   6.284   7.840  11.996 -1.1662  0.2612 -0.6904
  504MOL0    Cl69459   6.227   7.727  12.126  0.3347  0.0566  0.4352
  504MOL0     C69460   7.083   8.241  11.811  0.8637  0.8524  0.5170
  504MOL0     C69461   7.188   8.326  11.781  0.2884 -0.0014  0.4174
  504MOL0     O69462   7.505   8.263  11.664 -0.0527 -0.5081  0.9829
  504MOL0     C69463   7.570   8.609  11.709 -0.3758 -0.9111 -0.4972
  504MOL0     C69464   7.665   8.711  11.699  0.7106 -0.1882 -0.0266
  504MOL0     N69465   7.501   9.068  11.546  0.0764 -0.1531 -0.0239
  504MOL0     N69466   7.426   9.024  11.451  0.3856  0.6780  0.3818
  504MOL0     C69467   6.610   9.268  11.149 -0.9364 -0.6074  0.6199
  504MOL0     C69468   6.550   9.371  11.077 -0.0376 -0.0150  1.8439
  504MOL0     C69469   6.226   9.639  10.881 -0.2775  0.4777 -0.2823
  504MOL0     C69470   6.106   9.710  10.894  0.3672  0.4246 -0.2455
  504MOL0     C69471   6.069   9.809  10.808  0.2642  0.4721 -0.0567
  504MOL0     C69472   6.159   9.847  10.710  0.7031 -0.7236 -0.1052
  504MOL0     O69473   6.141   9.939  10.612  0.8863 -0.3123  0.9693
  504MOL0     C69474   6.031  10.035  10.621  0.5749 -0.7732 -0.8659
  504MOL0     C69475   5.930  10.004  10.518  1.2773  0.2879 -0.1919
  504MOL0     C69476   5.972  10.034  10.372 -0.4066  0.1341 -1.5513
  504MOL0     C69477   5.848  10.017  10.282 -0.4195  0.8857 -0.1183
  504MOL0     C69478   5.746  10.126  10.287  0.2523 -1.0662  0.5167
  504MOL0     C69479   5.656  10.215  10.281  0.6147 -0.5271  0.0523
  504MOL0     C69480   6.279   9.791  10.692 -0.1475  0.1931  0.0744
  504MOL0     C69481   6.317   9.687  10.780 -0.6479 -0.5597 -0.2285
  504MOL0     C69482   6.455   9.625  10.766 -0.0193 -0.2888 -0.7786
  504MOL0     H69483   6.308   9.470  11.275 -1.5681  0.7255 -5.3632
  504MOL0     H69484   6.416   9.312  11.421 -0.7957  0.4912 -0.1447
  504MOL0     H69485   6.736   9.112  11.530 -2.4985 -1.9177 -1.6133
  504MOL0     H69486   6.645   9.262  11.530  3.3018  2.4582  2.3634
  504MOL0     H69487   6.827   9.334  11.359  0.5774 -0.8304 -0.4885
  504MOL0     H69488   6.881   9.288  11.527  0.6730 -0.3978 -0.0149
  504MOL0     H69489   6.968   9.091  11.459 -2.2368  2.1327  1.9592
  504MOL0     H69490   6.901   9.075  11.298  3.4206 -1.2656  0.2377
  504MOL0     H69491   7.015   9.294  11.239  0.6516  1.9640  0.5632
  504MOL0     H69492   7.105   9.281  11.396 -1.2593 -0.4371  1.3522
  504MOL0     H69493   7.114   9.086  11.166 -0.6007 -1.0243  0.7475
  504MOL0     H69494   7.184   9.071  11.330 -0.6849 -0.1531  0.1870
  504MOL0     H69495   7.256   9.305  11.149 -1.5595  2.0440  1.4851
  504MOL0     H69496   7.325   9.280  11.304 -0.8953 -0.5758  0.4442
  504MOL0     H69497   7.479   9.210  11.129 -0.4893  1.3796 -0.3936
  504MOL0     H69498   7.354   9.123  11.042 -4.8614 -1.3344  1.4248
  504MOL0     H69499   7.354   8.950  11.202  2.0678 -2.0045 -1.6036
  504MOL0     H69500   7.508   8.979  11.126  1.5669 -2.4090  1.6723
  504MOL0     H69501   7.702   9.114  11.294 -0.6410  0.9395  0.3870
  504MOL0     H69502   7.691   9.149  11.690  0.9870  0.9013  0.3656
  504MOL0     H69503   7.711   9.286  11.588 -0.6775  0.4449 -1.8867
  504MOL0     H69504   7.888   9.150  11.456 -0.6798 -0.4012  0.1788
  504MOL0     H69505   7.917   9.198  11.625 -2.6868  3.5756 -0.4803
  504MOL0     H69506   8.017   8.983  11.571  1.5981  3.1806  1.7769
  504MOL0     H69507   7.913   8.973  11.708 -2.3789 -0.2912 -0.7884
  504MOL0     H69508   7.732   8.897  11.542  0.0887  1.9308  0.4197
  504MOL0     H69509   7.870   8.875  11.436  1.4570 -0.8851  0.8328
  504MOL0     H69510   7.928   8.521  11.602 -0.9137  0.4583 -0.7781
  504MOL0     H69511   7.883   8.294  11.563 -1.9444 -0.0238 -1.6540
  504MOL0     H69512   7.721   8.226  11.563 -1.0619  2.1989 -1.0766
  504MOL0     H69513   7.786   8.237  11.710 -2.0659 -2.4794 -0.7962
  504MOL0     H69514   7.405   8.225  12.020 -1.1230 -1.3094  0.6879
  504MOL0     H69515   7.186   8.095  12.088 -0.5184  0.7859  0.9757
  504MOL0     H69516   7.053   7.898  12.029  1.2147  2.3634  1.1505
  504MOL0     H69517   6.950   8.028  12.115 -2.9922  1.1910 -0.1288
  504MOL0     H69518   6.767   7.941  11.977 -1.0575 -0.5332 -0.6106
  504MOL0     H69519   6.883   7.827  11.900  4.1715  1.1908  0.1797
  504MOL0     H69520   6.786   7.832  12.186  0.6751  0.0760  1.7655
  504MOL0     H69521   6.933   7.737  12.150 -2.2220 -3.6489 -1.1459
  504MOL0     H69522   6.710   7.613  12.182  0.8645 -1.2609  0.4738
  504MOL0     H69523   6.815   7.575  12.042  0.3586  1.5280 -0.0105
  504MOL0     H69524   6.678   7.706  11.896  0.5397  1.0388  1.0655
  504MOL0     H69525   6.576   7.584  11.987  0.1669  0.0179  1.2256
  504MOL0     H69526   6.586   7.871  12.061 -0.4440 -0.7029  2.9815
  504MOL0     H69527   6.504   7.748  12.143  3.1050  0.4523  1.3866
  504MOL0     H69528   6.407   7.694  11.891  0.4470 -0.0472  0.3989
  504MOL0     H69529   6.455   7.865  11.865  0.0511  0.0591 -0.9610
  504MOL0     H69530   6.219   7.846  11.908 -2.0596  2.2994  0.0424
  504MOL0     H69531   6.292   7.944  12.031 -0.9615  0.2898 -0.8184
  504MOL0     H69532   6.996   8.251  11.747  1.8749  3.1988 -0.6179
  504MOL0     H69533   7.182   8.401  11.703  1.7298  0.7080  0.9470
  504MOL0     H69534   7.478   8.651  11.749  1.1619  1.2298  1.0526
  504MOL0     H69535   7.638   8.805  11.746 -0.4845 -0.3417 -0.3518
  504MOL0     H69536   6.701   9.222  11.113 -0.3126  1.4508 -0.5739
  504MOL0     H69537   6.591   9.400  10.981  0.9690  0.3513  2.3677
  504MOL0     H69538   6.045   9.671  10.975 -0.7197 -1.7503 -2.0134
  504MOL0     H69539   5.975   9.860  10.824 -0.4808 -1.4459  2.2573
  504MOL0     H69540   5.984  10.050  10.719  2.3868 -2.9148  0.4134
  504MOL0     H69541   6.067  10.137  10.604 -1.6306 -0.1713 -2.4320
  504MOL0     H69542   5.835  10.051  10.544 -0.2835 -0.3452 -4.0288
  504MOL0     H69543   5.911   9.897  10.529  1.0266  0.5379  2.1725
  504MOL0     H69544   6.007  10.136  10.354  0.4150  0.4656  1.4242
  504MOL0     H69545   6.053   9.965  10.347  0.0605  0.2957 -0.5428
  504MOL0     H69546   5.799   9.926  10.317  0.2977  0.3539 -0.4790
  504MOL0     H69547   5.885  10.006  10.180 -1.5967  0.2209 -0.4946
  504MOL0     H69548   5.584  10.293  10.277  1.7087  0.8592  3.7615
  504MOL0     H69549   6.356   9.828  10.624  1.0857 -1.6653  0.3892
  504MOL0     H69550   6.512   9.647  10.857 -2.8823  0.0966  1.0561
  504MOL0     H69551   6.437   9.517  10.769 -1.6630 -0.0288 -0.7049
  504MOL0     H69552   6.509   9.658  10.677 -1.9363  4.2423 -0.5056
  505MOL0     O69553   0.651  10.522   9.109  0.2747  0.5238  0.2532
  505MOL0     C69554   0.533  10.531   9.133 -0.4074  1.1001  0.7030
  505MOL0     O69555   0.481  10.628   9.210  0.4452  0.2530 -0.2602
  505MOL0     C69556   0.564  10.712   9.273 -0.4514 -0.2713  0.0727
  505MOL0     C69557   0.645  10.800   9.204 -0.3687  0.1759 -0.2803
  505MOL0     C69558   0.718  10.888   9.281  0.0654 -0.2039  0.2139
  505MOL0     C69559   0.723  10.886   9.425  0.1509  0.0505  0.3894
  505MOL0     O69560   0.797  10.970   9.502  0.3281  0.6354  1.1487
  505MOL0     C69561   0.911  10.897   9.567  0.2576 -0.7320 -0.1261
  505MOL0     C69562   0.940  10.966   9.701 -0.0307  0.8016  0.3375
  505MOL0     C69563   0.976  11.117   9.683  0.3207  0.8347 -0.3276
  505MOL0     C69564   0.956  11.188   9.820 -0.1566  0.5993  0.7938
  505MOL0     C69565   0.977  11.341   9.789 -0.6374 -0.5826  0.3050
  505MOL0     C69566   0.960  11.426   9.916 -0.2277 -0.7825 -0.0390
  505MOL0     C69567   0.826  11.396   9.977 -0.5421 -0.7874 -0.4397
  505MOL0     C69568   0.785  11.510  10.058  0.3693 -0.3943 -0.0064
  505MOL0     N69569   0.737  11.624   9.970 -0.0133 -0.4461  0.0309
  505MOL0     C69570   0.623  11.629   9.901  0.3090  0.0094 -0.7445
  505MOL0     C69571   0.639  11.732   9.819  0.0796  0.0962 -1.1681
  505MOL0     C69572   0.538  11.776   9.718 -0.2447 -0.1222 -0.3362
  505MOL0     C69573   0.555  11.669   9.605  0.0095  0.2561  0.4154
  505MOL0     C69574   0.690  11.669   9.530  0.1962 -0.3416 -0.1609
  505MOL0     C69575   0.730  11.794   9.458  0.1499 -0.2529 -0.0421
  505MOL0     O69576   0.837  11.774   9.366  0.5893 -0.4343 -0.1635
  505MOL0     C69577   0.952  11.720   9.410 -1.4562  0.7353  0.7511
  505MOL0     C69578   1.011  11.716   9.540 -0.7967 -0.1394  0.4311
  505MOL0     C69579   1.136  11.658   9.561 -1.7427 -0.2216 -0.0458
  505MOL0     C69580   1.201  11.660   9.698 -0.2766 -0.3382  0.2302
  505MOL0     C69581   1.205  11.600   9.448 -0.1063 -1.0431  0.5049
  505MOL0     C69582   1.341  11.540   9.449  0.4685 -0.2022 -0.2808
  505MOL0     O69583   1.355  11.416   9.391 -0.2477 -0.5265 -0.4131
  505MOL0     C69584   1.470  11.340   9.420 -0.4144 -0.7936 -0.3839
  505MOL0     C69585   1.524  11.315   9.550  0.3595  0.6244  0.3407
  505MOL0     C69586   1.639  11.241   9.565  0.0536 -0.5824  0.0094
  505MOL0     C69587   1.707  11.188   9.454  0.2351  0.1113 -0.5951
  505MOL0     O69588   1.817  11.104   9.460  0.2655  0.0588 -0.5372
  505MOL0     C69589   1.834  11.021   9.583 -0.1150  0.8539 -0.7558
  505MOL0     C69590   1.962  10.941   9.576  0.3426 -0.1210 -0.6915
  505MOL0     C69591   1.938  10.822   9.674  0.0680  0.0596 -0.8760
  505MOL0     C69592   2.068  10.742   9.684  0.0800  1.1949 -0.8737
  505MOL0     C69593   2.042  10.614   9.766  0.6236  0.2253  0.7935
  505MOL0     C69594   2.165  10.527   9.793  0.5502 -0.7467  0.4891
  505MOL0     C69595   2.292  10.593   9.846  0.3049 -0.0454  0.4848
  505MOL0     C69596   2.378  10.502   9.925 -0.3663  1.2647 -0.2397
  505MOL0    Cl69597   2.464  10.386   9.821  0.5667  0.0616  0.2766
  505MOL0     C69598   1.659  11.214   9.333 -0.4306 -0.0739  0.2051
  505MOL0     C69599   1.550  11.297   9.310 -0.1740 -0.3707  0.5015
  505MOL0     O69600   1.434  11.608   9.487  0.7334  0.4163 -0.1548
  505MOL0     C69601   1.139  11.589   9.326  0.6816  0.7439 -0.4233
  505MOL0     C69602   1.016  11.654   9.303 -0.3596 -0.4709 -1.4341
  505MOL0     N69603   0.753  11.807   9.844  1.1482 -0.5531 -0.7268
  505MOL0     N69604   0.815  11.734   9.935 -0.1846 -0.5587  0.0519
  505MOL0     C69605   0.639  10.788   9.484 -0.3053  0.3388 -0.3457
  505MOL0     C69606   0.558  10.708   9.412 -0.2200  0.1883  0.4195
  505MOL0     C69607   0.437  10.422   9.077 -0.1881 -0.4848 -0.9198
  505MOL0     C69608   0.310  10.455   9.043  0.6076  0.3354 -0.2609
  505MOL0     C69609   0.228  10.368   8.972 -0.2486 -0.3211 -0.2218
  505MOL0     C69610   0.266  10.244   8.943 -0.5252 -0.0251  0.4311
  505MOL0     O69611   0.197  10.145   8.870 -0.0703  0.1759  0.1121
  505MOL0     C69612   0.060  10.170   8.842  0.3689  1.3011  1.4281
  505MOL0     C69613   0.002  10.051   8.758 -0.0384 -0.2146  0.5471
  505MOL0     C69614   0.076  10.051   8.616  0.2796 -0.0199  0.2106
  505MOL0     C69615   0.012   9.940   8.531  0.5482 -0.7111  0.5642
  505MOL0     C69616   0.041   9.960   8.388  0.9147 -0.4117 -0.8629
  505MOL0     C69617   0.060   9.967   8.270  0.1612 -0.6054 -0.7458
  505MOL0     C69618   0.395  10.201   8.971  0.2902 -0.2348  0.3898
  505MOL0     C69619   0.484  10.300   9.032 -0.3472  0.5082  0.2648
  505MOL0     C69620   0.624  10.239   9.066 -0.6133 -0.0741 -0.4771
  505MOL0     H69621   0.640  10.804   9.096 -3.6504  2.0474 -0.1927
  505MOL0     H69622   0.777  10.964   9.231  0.2697  0.5978  1.6168
  505MOL0     H69623   0.995  10.905   9.498 -0.7487  2.3525 -1.1966
  505MOL0     H69624   0.894  10.791   9.591 -1.4808 -0.5375 -0.3451
  505MOL0     H69625   0.865  10.954   9.779 -1.7660  4.3254 -0.5911
  505MOL0     H69626   1.027  10.910   9.737 -0.2988  0.0869 -0.1140
  505MOL0     H69627   1.075  11.141   9.643  1.5867 -1.2172  1.3510
  505MOL0     H69628   0.900  11.155   9.613  0.8486  0.9419 -0.8504
  505MOL0     H69629   0.858  11.164   9.864 -0.6088  0.4832 -0.2276
  505MOL0     H69630   1.026  11.144   9.891 -0.8854 -1.7810  0.1572
  505MOL0     H69631   0.901  11.374   9.718 -0.0249  2.7364  1.0302
  505MOL0     H69632   1.072  11.363   9.739 -1.2725  0.3766 -0.5232
  505MOL0     H69633   1.032  11.426   9.997 -1.6312 -0.8742  1.2524
  505MOL0     H69634   0.963  11.528   9.876  1.7316 -0.3332  1.1463
  505MOL0     H69635   0.830  11.308  10.042  0.6369 -0.9816 -0.7550
  505MOL0     H69636   0.749  11.383   9.900 -1.0693  0.5787 -0.1795
  505MOL0     H69637   0.708  11.479  10.130 -0.0635  2.2317  0.7857
  505MOL0     H69638   0.866  11.540  10.125  1.1574 -2.3747 -0.0063
  505MOL0     H69639   0.534  11.567   9.902  0.1810  0.1746 -1.2158
  505MOL0     H69640   0.573  11.866   9.668  1.9993 -1.6320 -1.7018
  505MOL0     H69641   0.434  11.784   9.751 -0.5132 -0.2520 -1.1322
  505MOL0     H69642   0.549  11.569   9.649  0.2172 -1.8763 -3.8543
  505MOL0     H69643   0.474  11.685   9.533  1.4170 -0.3306 -1.3861
  505MOL0     H69644   0.759  11.649   9.612 -0.9511 -2.0149  0.4422
  505MOL0     H69645   0.684  11.593   9.452  0.7405 -0.4405 -0.1091
  505MOL0     H69646   0.648  11.845   9.407  1.1942  1.4046 -0.1315
  505MOL0     H69647   0.756  11.869   9.534 -2.2773 -0.1515  0.7630
  505MOL0     H69648   0.954  11.773   9.612 -1.6018  3.4079 -2.6764
  505MOL0     H69649   1.296  11.713   9.686  0.0939 -1.0674 -0.1859
  505MOL0     H69650   1.223  11.555   9.723 -0.6897 -1.4121 -3.2949
  505MOL0     H69651   1.145  11.708   9.778 -0.3880  5.7920 -2.9749
  505MOL0     H69652   1.490  11.362   9.642  1.9616  2.2263  0.1810
  505MOL0     H69653   1.683  11.238   9.665  2.7917  3.4808 -0.8335
  505MOL0     H69654   1.824  11.084   9.673 -4.1328  2.3847 -2.0573
  505MOL0     H69655   1.749  10.952   9.592  1.0898 -0.4421  2.6253
  505MOL0     H69656   1.981  10.902   9.476 -0.4323 -0.1785 -0.8207
  505MOL0     H69657   2.041  11.007   9.614  0.2859 -1.2981  1.6694
  505MOL0     H69658   1.856  10.756   9.643  0.4507  0.4722 -2.9004
  505MOL0     H69659   1.918  10.856   9.776  1.6749 -3.6609  0.8828
  505MOL0     H69660   2.150  10.798   9.730 -1.3459  1.5268  1.4612
  505MOL0     H69661   2.102  10.716   9.584  0.5491 -0.9743 -0.1959
  505MOL0     H69662   2.001  10.654   9.859  1.8444 -0.0732  1.4856
  505MOL0     H69663   1.968  10.551   9.717  1.1130 -1.4297  2.0694
  505MOL0     H69664   2.196  10.483   9.698  0.3246  1.0470 -0.4717
  505MOL0     H69665   2.128  10.445   9.855  0.0958 -0.2489  0.8888
  505MOL0     H69666   2.275  10.674   9.918  0.0428  0.8290 -0.5288
  505MOL0     H69667   2.352  10.631   9.763  2.7152 -0.0770  2.1252
  505MOL0     H69668   2.326  10.449  10.005  1.3720 -1.0608 -0.5621
  505MOL0     H69669   2.459  10.557   9.974 -2.0638  2.5450  1.2873
  505MOL0     H69670   1.700  11.166   9.245 -4.0797  1.3864 -2.5708
  505MOL0     H69671   1.527  11.302   9.205 -3.3557  1.8160  1.1866
  505MOL0     H69672   1.190  11.535   9.246  0.9037 -1.5849  1.1904
  505MOL0     H69673   0.969  11.654   9.205 -1.2691 -0.1215 -1.0135
  505MOL0     H69674   0.625  10.784   9.592  0.9734 -1.0167 -0.1940
  505MOL0     H69675   0.497  10.636   9.465  2.1063 -1.7915  0.5935
  505MOL0     H69676   0.263  10.547   9.075 -0.2108  0.2363 -1.1219
  505MOL0     H69677   0.128  10.402   8.946  0.3966  2.0019  0.0998
  505MOL0     H69678  -0.000  10.175   8.934  0.1117  0.1618  1.3369
  505MOL0     H69679   0.045  10.262   8.784  1.5612 -0.0531 -1.1746
  505MOL0     H69680  -0.107  10.047   8.765  0.0166 -2.4808  0.7778
  505MOL0     H69681   0.030   9.959   8.811 -1.3545 -0.8230  0.2449
  505MOL0     H69682   0.057  10.150   8.574 -2.1822 -0.3094  0.4434
  505MOL0     H69683   0.180  10.021   8.627 -0.1096 -3.1556 -2.8913
  505MOL0     H69684  -0.096   9.947   8.547  0.0355 -2.7541 -1.4322
  505MOL0     H69685   0.039   9.838   8.562  0.4774 -1.0457 -0.4323
  505MOL0     H69686   0.089   9.983   8.168  1.8247  1.3122 -0.0407
  505MOL0     H69687   0.424  10.101   8.939 -0.3822  0.1441 -1.5627
  505MOL0     H69688   0.621  10.132   9.090  1.2988 -0.2387 -0.7952
  505MOL0     H69689   0.692  10.250   8.981 -1.9125  0.9825 -1.4320
  505MOL0     H69690   0.674  10.290   9.149 -0.6178 -0.6454 -0.1174
  506MOL0     O69691  10.615   9.919   6.702  0.4049 -0.7935  0.7515
  506MOL0     C69692  10.560   9.828   6.637  0.4471 -0.5546 -0.0914
  506MOL0     O69693  10.628   9.744   6.551 -0.4479 -0.2005 -0.3260
  506MOL0     C69694  10.761   9.752   6.553 -0.3302  0.4637  0.4528
  506MOL0     C69695  10.822   9.846   6.475 -0.4487  0.3961  0.8836
  506MOL0     C69696  10.961   9.866   6.473 -0.1181 -0.1514  0.5368
  506MOL0     C69697  11.046   9.785   6.552 -0.5496 -0.0827  0.0648
  506MOL0     O69698  11.183   9.806   6.568  0.2293  0.0381  0.5640
  506MOL0     C69699  11.256   9.892   6.478  0.6185 -0.0516  0.6392
  506MOL0     C69700  11.412   9.878   6.504  0.5596 -0.1838  1.0351
  506MOL0     C69701  11.497   9.941   6.392  0.2307 -0.1764 -0.5873
  506MOL0     C69702  11.482  10.099   6.385 -0.1984  0.9059  1.1891
  506MOL0     C69703  11.510  10.156   6.245  0.2084 -0.3013 -0.3315
  506MOL0     C69704  11.503  10.306   6.244  0.5676 -0.4016 -0.1577
  506MOL0     C69705  11.525  10.372   6.113  0.2384  0.2760  1.5864
  506MOL0     C69706  11.537  10.524   6.137 -0.4707 -1.4899  0.2478
  506MOL0     N69707  11.401  10.587   6.182 -1.8625 -0.2771  0.6825
  506MOL0     C69708  11.317  10.652   6.098 -0.1473 -1.1816  0.0305
  506MOL0     C69709  11.224  10.711   6.183 -0.0563  0.8700 -0.2003
  506MOL0     C69710  11.105  10.803   6.147  0.5797  0.5166  0.4595
  506MOL0     C69711  10.997  10.710   6.109  0.2987 -0.3438 -0.1898
  506MOL0     C69712  10.875  10.782   6.048  0.1348  0.5362 -0.6087
  506MOL0     C69713  10.747  10.706   6.082 -0.0285 -0.6759  0.0835
  506MOL0     O69714  10.693  10.662   5.955 -0.0361  0.1388  0.6303
  506MOL0     C69715  10.590  10.730   5.904  0.3517  0.4714  0.3672
  506MOL0     C69716  10.496  10.812   5.972 -0.0836 -0.8545  0.5986
  506MOL0     C69717  10.391  10.876   5.901  0.3831  0.2907  0.1523
  506MOL0     C69718  10.296  10.957   5.997  0.0650 -0.3072 -0.4324
  506MOL0     C69719  10.374  10.853   5.760  0.4423 -0.4887 -0.2316
  506MOL0     C69720  10.261  10.896   5.672  0.3082  0.1808  0.1402
  506MOL0     O69721  10.250  10.836   5.544  0.2796  0.7116 -0.2069
  506MOL0     C69722  10.131  10.838   5.466 -0.2317 -0.1107  0.4101
  506MOL0     C69723  10.128  10.863   5.328 -0.3366  0.0484  0.9921
  506MOL0     C69724  10.009  10.867   5.257  0.9087  0.5335 -0.3178
  506MOL0     C69725   9.890  10.830   5.323 -0.0950 -0.2108 -0.3163
  506MOL0     O69726   9.763  10.816   5.270 -0.9688 -0.1088 -0.8337
  506MOL0     C69727   9.726  10.897   5.153 -0.9897 -0.2183 -0.5579
  506MOL0     C69728   9.666  11.036   5.196  0.4344 -1.0765 -0.0973
  506MOL0     C69729   9.528  11.012   5.261 -0.7957  0.6670 -0.0247
  506MOL0     C69730   9.489  11.137   5.341 -0.5815  0.0759 -0.3813
  506MOL0     C69731   9.355  11.128   5.418 -0.3780  0.1052 -0.1200
  506MOL0     C69732   9.353  11.041   5.541  0.4481  0.1840  0.1134
  506MOL0     C69733   9.306  10.897   5.520  0.2997  0.6047 -0.9040
  506MOL0     C69734   9.264  10.822   5.652  0.5277 -0.7745 -0.8815
  506MOL0    Cl69735   9.161  10.895   5.776 -0.1662 -0.5559 -0.4385
  506MOL0     C69736   9.896  10.801   5.458  0.5710 -0.8961 -0.6120
  506MOL0     C69737  10.015  10.797   5.538 -0.7021 -0.1385 -0.4991
  506MOL0     O69738  10.181  10.984   5.715 -0.1295  0.1447 -0.0807
  506MOL0     C69739  10.467  10.757   5.699  0.7513 -0.4587 -0.1008
  506MOL0     C69740  10.569  10.698   5.776 -0.4952  0.2273  0.6339
  506MOL0     N69741  11.253  10.669   6.313  0.9158  0.3443 -0.0271
  506MOL0     N69742  11.364  10.600   6.311 -0.5816  0.1050  0.2643
  506MOL0     C69743  10.979   9.692   6.628 -0.5369  0.4115 -0.0101
  506MOL0     C69744  10.841   9.669   6.628 -0.7084  0.0269  0.2891
  506MOL0     C69745  10.411   9.809   6.639 -0.1864 -0.0185 -0.2656
  506MOL0     C69746  10.351   9.720   6.554 -0.8402 -0.6991  0.0961
  506MOL0     C69747  10.209   9.695   6.568 -0.1400  0.2419  0.4928
  506MOL0     C69748  10.136   9.756   6.672 -0.1649  0.0977  0.3388
  506MOL0     O69749  10.012   9.695   6.691 -0.0353 -0.5133 -0.0588
  506MOL0     C69750   9.944   9.713   6.818 -1.1192  0.4485  0.2146
  506MOL0     C69751   9.814   9.632   6.810 -0.0992 -0.6553  0.0930
  506MOL0     C69752   9.825   9.481   6.817 -0.2876  1.4078 -0.0049
  506MOL0     C69753   9.854   9.441   6.953 -0.4621 -0.0511 -0.8982
  506MOL0     C69754   9.832   9.297   6.973 -0.2622 -0.0245  0.8475
  506MOL0     C69755   9.822   9.178   6.990 -0.1901  0.6868 -0.3968
  506MOL0     C69756  10.192   9.857   6.747 -0.5829 -0.6930  0.0740
  506MOL0     C69757  10.326   9.880   6.737  0.2965  0.6389  0.2607
  506MOL0     C69758  10.372   9.974   6.843  0.7883  0.7032  0.7964
  506MOL0     H69759  10.751   9.899   6.413 -2.3690  0.9186  3.3696
  506MOL0     H69760  11.018   9.928   6.405  3.0898 -3.5078 -0.1504
  506MOL0     H69761  11.227   9.997   6.493  0.9458  0.0409  0.6181
  506MOL0     H69762  11.236   9.866   6.374  2.2345  0.0637  0.2738
  506MOL0     H69763  11.446   9.924   6.598  2.5864  0.0418  0.2187
  506MOL0     H69764  11.447   9.774   6.501 -0.8079 -0.8249  3.6368
  506MOL0     H69765  11.603   9.919   6.410  0.1480 -1.0379 -1.1370
  506MOL0     H69766  11.451   9.903   6.301 -0.2188 -0.7727 -0.1206
  506MOL0     H69767  11.383  10.119   6.425 -1.3565 -3.8022  1.2445
  506MOL0     H69768  11.549  10.147   6.457  0.5745  0.3326  0.8684
  506MOL0     H69769  11.440  10.112   6.174 -3.8285  2.0427  1.7995
  506MOL0     H69770  11.611  10.136   6.210  0.1200 -1.1185 -0.1391
  506MOL0     H69771  11.406  10.336   6.285  0.9880  0.4091  0.2850
  506MOL0     H69772  11.589  10.329   6.309  0.4384 -1.5247  0.4442
  506MOL0     H69773  11.441  10.347   6.047  1.5645 -0.4369  0.1267
  506MOL0     H69774  11.617  10.333   6.070  1.0677  2.5631  1.1428
  506MOL0     H69775  11.620  10.549   6.204  1.8495  0.7012 -3.1796
  506MOL0     H69776  11.556  10.573   6.042 -3.0108  0.4365  0.6166
  506MOL0     H69777  11.319  10.666   5.991  0.9530 -3.5893 -0.3249
  506MOL0     H69778  11.138  10.877   6.074  0.1664  1.8543  1.5967
  506MOL0     H69779  11.063  10.859   6.230  0.0474  2.2245 -0.9089
  506MOL0     H69780  11.033  10.628   6.046 -1.3734 -3.4983  2.6137
  506MOL0     H69781  10.968  10.661   6.203  2.6013 -2.4110 -0.4445
  506MOL0     H69782  10.859  10.879   6.096  0.2867  0.2843 -0.0444
  506MOL0     H69783  10.892  10.786   5.941  0.3427 -0.0493 -0.6031
  506MOL0     H69784  10.751  10.615   6.143 -1.6978 -1.7222 -1.2676
  506MOL0     H69785  10.673  10.768   6.134  2.2698  1.6510  0.7922
  506MOL0     H69786  10.486  10.828   6.079 -0.4879  0.6390  0.3638
  506MOL0     H69787  10.279  10.902   6.090 -0.7624 -0.0523 -0.4209
  506MOL0     H69788  10.195  10.972   5.958 -0.1424 -2.1433 -0.6864
  506MOL0     H69789  10.352  11.048   6.022  0.7730 -1.1164  1.0482
  506MOL0     H69790  10.212  10.905   5.272 -2.0107  1.5149 -0.5559
  506MOL0     H69791  10.014  10.875   5.149  1.6810  0.6502 -0.2812
  506MOL0     H69792   9.806  10.909   5.079  2.5087 -1.1162  2.7544
  506MOL0     H69793   9.657  10.836   5.093  0.9013  0.1837 -3.3131
  506MOL0     H69794   9.731  11.096   5.261 -0.8115  2.0040 -1.5107
  506MOL0     H69795   9.655  11.095   5.105  2.8737 -0.3506 -0.0075
  506MOL0     H69796   9.549  10.924   5.322 -0.8215  0.8511  0.2508
  506MOL0     H69797   9.456  10.982   5.184  0.4403  0.5335 -1.1593
  506MOL0     H69798   9.492  11.220   5.270  1.7399  0.3264 -0.0607
  506MOL0     H69799   9.578  11.148   5.404  0.7837  0.5942 -2.2931
  506MOL0     H69800   9.339  11.232   5.447  3.9954  0.5002  1.6361
  506MOL0     H69801   9.276  11.089   5.353  0.9067 -1.9292 -0.5434
  506MOL0     H69802   9.277  11.082   5.608  0.3237  1.6666 -0.8884
  506MOL0     H69803   9.442  11.046   5.604 -0.0408  0.0466  0.8290
  506MOL0     H69804   9.388  10.846   5.468  1.9714  0.3755  1.7425
  506MOL0     H69805   9.206  10.896   5.476 -0.6958  0.6082  1.2020
  506MOL0     H69806   9.357  10.821   5.708  0.0431  1.5236  0.1005
  506MOL0     H69807   9.241  10.716   5.643  1.2429 -0.9630 -0.5359
  506MOL0     H69808   9.804  10.763   5.501 -0.2725  0.1093 -1.4831
  506MOL0     H69809  10.017  10.769   5.643 -1.9571 -3.1849 -1.2028
  506MOL0     H69810  10.454  10.724   5.596  1.7995 -2.7558  0.4369
  506MOL0     H69811  10.637  10.640   5.714  2.1394  2.0521  1.6239
  506MOL0     H69812  11.036   9.632   6.699  0.8910 -1.1796 -2.3558
  506MOL0     H69813  10.802   9.600   6.703 -0.9963 -0.0867  0.0373
  506MOL0     H69814  10.410   9.671   6.477  1.3825 -0.6391  1.6761
  506MOL0     H69815  10.157   9.624   6.504  3.0748 -1.0164 -0.9630
  506MOL0     H69816  10.005   9.664   6.895  0.0902 -3.4763 -2.8733
  506MOL0     H69817   9.915   9.818   6.826 -4.2455 -0.3560  0.6015
  506MOL0     H69818   9.763   9.649   6.715 -0.2018 -2.1764 -0.1511
  506MOL0     H69819   9.745   9.672   6.885  0.0736  3.3270 -1.6362
  506MOL0     H69820   9.725   9.440   6.800 -0.1506  0.5822  1.0175
  506MOL0     H69821   9.890   9.442   6.738 -0.2851  1.9456 -0.2683
  506MOL0     H69822   9.784   9.499   7.013  0.8012  1.1656 -0.5473
  506MOL0     H69823   9.960   9.461   6.970 -0.3890 -1.4042  0.4917
  506MOL0     H69824   9.797   9.077   7.015 -0.2550  1.7745  5.4586
  506MOL0     H69825  10.130   9.907   6.822  0.9588  1.4196  0.0309
  506MOL0     H69826  10.313   9.966   6.934  1.4653  3.0894  1.5131
  506MOL0     H69827  10.475   9.947   6.869  0.9316  1.3966  0.9571
  506MOL0     H69828  10.371  10.083   6.829  0.5978  0.9970  2.8216
  507MOL0     O69829   6.065  10.928   2.847  0.7147  0.1883 -1.0130
  507MOL0     C69830   6.097  11.041   2.892 -0.2652 -0.3148  1.2322
  507MOL0     O69831   6.019  11.122   2.969  0.6508 -0.2788  0.5396
  507MOL0     C69832   5.916  11.057   3.025  0.5656  0.0645  1.2356
  507MOL0     C69833   5.945  10.986   3.138 -0.8963  0.0712  0.4853
  507MOL0     C69834   5.845  10.907   3.189 -0.2063  0.8213 -0.4176
  507MOL0     C69835   5.717  10.898   3.130 -1.1790 -0.2297  0.1732
  507MOL0     O69836   5.611  10.823   3.179 -0.3176  0.1633 -0.3321
  507MOL0     C69837   5.608  10.748   3.306 -0.4456 -0.1483 -0.2483
  507MOL0     C69838   5.568  10.614   3.268  0.9384 -0.1091 -0.3211
  507MOL0     C69839   5.425  10.607   3.215  0.0513  0.5482 -0.8580
  507MOL0     C69840   5.317  10.649   3.317  0.5475  0.4192  0.3201
  507MOL0     C69841   5.168  10.626   3.259 -0.0601 -0.7477  0.2427
  507MOL0     C69842   5.123  10.482   3.259  0.3496  0.3226  0.0660
  507MOL0     C69843   5.114  10.412   3.400  0.3411  0.5450 -0.1807
  507MOL0     C69844   5.020  10.489   3.492  0.8752 -0.5739 -0.9534
  507MOL0     N69845   4.900  10.549   3.430 -0.2877  1.3771  0.2449
  507MOL0     C69846   4.806  10.481   3.357  0.1825 -0.3747 -0.0234
  507MOL0     C69847   4.719  10.570   3.309  0.4167  0.7137 -0.0893
  507MOL0     C69848   4.620  10.523   3.208 -0.0282 -0.3899 -0.4748
  507MOL0     C69849   4.570  10.633   3.117 -0.3078 -0.8640 -0.5816
  507MOL0     C69850   4.540  10.599   2.976  0.5875  0.5064  0.0675
  507MOL0     C69851   4.459  10.470   2.944 -0.7590 -0.8895  0.0323
  507MOL0     O69852   4.361  10.433   3.042  0.6835  0.2152  0.4329
  507MOL0     C69853   4.236  10.488   3.035  0.1033  0.3301  0.4326
  507MOL0     C69854   4.141  10.444   3.126 -0.9073  0.4143 -0.7665
  507MOL0     C69855   4.008  10.500   3.135 -0.0779 -0.6145 -0.3501
  507MOL0     C69856   3.914  10.429   3.238 -0.6967 -0.1047 -0.1077
  507MOL0     C69857   3.965  10.606   3.056 -0.3646  0.1990  0.5329
  507MOL0     C69858   3.836  10.674   3.075 -0.6173 -0.3705 -0.5662
  507MOL0     O69859   3.768  10.732   2.974  0.2934  0.7760  0.6494
  507MOL0     C69860   3.632  10.754   2.994 -0.2247  0.2249 -0.4420
  507MOL0     C69861   3.581  10.841   2.899 -0.2698  0.4759 -0.6087
  507MOL0     C69862   3.447  10.871   2.884  0.2557 -0.5428 -0.4972
  507MOL0     C69863   3.355  10.813   2.975  0.4460  0.0534 -1.0996
  507MOL0     O69864   3.221  10.842   2.957 -0.0383  0.1003 -0.2123
  507MOL0     C69865   3.159  10.732   2.893 -0.0834  0.3947 -0.3293
  507MOL0     C69866   3.187  10.712   2.742 -0.2812  0.6279  0.8152
  507MOL0     C69867   3.135  10.832   2.660  0.4315  0.7240 -0.8005
  507MOL0     C69868   3.203  10.840   2.525  0.1283  0.6082 -0.2718
  507MOL0     C69869   3.125  10.942   2.443 -0.4669  0.5346 -0.2890
  507MOL0     C69870   3.167  10.964   2.298  0.4294 -0.4680  0.0457
  507MOL0     C69871   3.181  10.839   2.212  0.8113 -0.6600 -0.8433
  507MOL0     C69872   3.156  10.864   2.064 -0.7215 -0.1434  0.5347
  507MOL0    Cl69873   3.262  10.964   1.968 -0.3468  0.5069 -0.3488
  507MOL0     C69874   3.397  10.724   3.072  0.0975 -0.4780  0.2836
  507MOL0     C69875   3.535  10.692   3.078 -0.3327  0.7235 -0.6608
  507MOL0     O69876   3.814  10.695   3.191  0.6773  1.0169 -0.3146
  507MOL0     C69877   4.065  10.639   2.956 -0.1799 -0.9166  0.1925
  507MOL0     C69878   4.193  10.591   2.945  1.0529  0.8429  0.1400
  507MOL0     N69879   4.747  10.685   3.377  0.2033 -0.0707 -0.4335
  507MOL0     N69880   4.858  10.671   3.441  0.1538 -0.1045  0.7670
  507MOL0     C69881   5.694  10.958   3.005  0.8214  0.9824 -0.3139
  507MOL0     C69882   5.788  11.050   2.962 -0.5124 -0.0075 -0.3674
  507MOL0     C69883   6.230  11.092   2.835  0.6729 -0.1448  0.6129
  507MOL0     C69884   6.299  11.017   2.731 -0.0737  0.3142 -0.3932
  507MOL0     C69885   6.428  11.049   2.688 -0.3493  1.1629 -0.1217
  507MOL0     C69886   6.486  11.153   2.749 -0.1203  0.2046  0.5780
  507MOL0     O69887   6.613  11.196   2.698  0.0565  0.0982 -0.4690
  507MOL0     C69888   6.699  11.282   2.773 -0.6937 -0.0554  0.4987
  507MOL0     C69889   6.823  11.320   2.685 -0.2710  1.7455  1.0102
  507MOL0     C69890   6.950  11.240   2.708  0.5884 -0.6571  0.3617
  507MOL0     C69891   6.958  11.095   2.673 -0.4168 -0.2713  0.1113
  507MOL0     C69892   6.969  11.082   2.524  0.0087  0.4412 -0.6471
  507MOL0     C69893   6.974  11.052   2.407 -0.7719  0.6158  0.8859
  507MOL0     C69894   6.424  11.228   2.857  0.2729 -0.5186 -0.7992
  507MOL0     C69895   6.297  11.194   2.905  0.3100  0.4090  0.9997
  507MOL0     C69896   6.247  11.262   3.036  0.6900  0.1872 -0.2802
  507MOL0     H69897   6.042  10.972   3.185 -0.2702  1.3188 -0.3750
  507MOL0     H69898   5.859  10.850   3.280 -0.2581  0.2678 -0.7443
  507MOL0     H69899   5.545  10.802   3.377 -1.3097 -2.0402  0.4644
  507MOL0     H69900   5.708  10.750   3.352  0.3915 -1.1295 -1.9463
  507MOL0     H69901   5.634  10.577   3.189  0.0247 -2.0283 -0.2380
  507MOL0     H69902   5.580  10.550   3.357  0.4818 -0.2817 -0.3813
  507MOL0     H69903   5.416  10.668   3.124  0.6051 -0.0086 -1.2977
  507MOL0     H69904   5.417  10.504   3.179 -2.3695 -0.4339  2.0690
  507MOL0     H69905   5.326  10.599   3.414 -1.1215  2.0797  1.4058
  507MOL0     H69906   5.334  10.757   3.325  2.0934  0.2306  0.0100
  507MOL0     H69907   5.154  10.671   3.160  0.0710  5.2510  2.5762
  507MOL0     H69908   5.104  10.678   3.330 -0.2901 -1.4773  0.5772
  507MOL0     H69909   5.024  10.495   3.214  1.0517  2.6571 -0.9638
  507MOL0     H69910   5.183  10.419   3.193 -0.4806 -1.0031  0.5398
  507MOL0     H69911   5.214  10.421   3.444  0.1116 -0.8979  0.6792
  507MOL0     H69912   5.082  10.308   3.401 -0.8280  0.7326 -3.7911
  507MOL0     H69913   4.998  10.418   3.571  2.7035 -0.5350 -0.3460
  507MOL0     H69914   5.075  10.565   3.548 -1.6407  0.0752  0.8183
  507MOL0     H69915   4.808  10.374   3.342  0.1929 -0.4430  0.4405
  507MOL0     H69916   4.540  10.472   3.263  3.6767 -4.6013  1.6625
  507MOL0     H69917   4.649  10.433   3.152 -0.5720 -1.3120  0.6796
  507MOL0     H69918   4.476  10.667   3.160 -0.2091  1.3669 -1.9647
  507MOL0     H69919   4.641  10.716   3.122 -1.3083 -0.0586  0.8149
  507MOL0     H69920   4.479  10.683   2.942  0.1932  0.4831  0.7149
  507MOL0     H69921   4.631  10.598   2.915 -0.2196 -1.4709 -1.2101
  507MOL0     H69922   4.418  10.475   2.843 -2.1767 -0.0860  0.6302
  507MOL0     H69923   4.541  10.398   2.933  0.1632 -0.2467  2.1326
  507MOL0     H69924   4.170  10.365   3.194 -0.7353 -0.0194 -1.3383
  507MOL0     H69925   3.955  10.329   3.258 -1.4716 -0.6135 -1.0051
  507MOL0     H69926   3.814  10.427   3.195  0.1571  1.0090 -2.2844
  507MOL0     H69927   3.912  10.484   3.333 -3.6462  0.3550 -0.3536
  507MOL0     H69928   3.648  10.893   2.832  0.2501  3.2506  1.8508
  507MOL0     H69929   3.407  10.931   2.803 -0.0225  1.4291  1.0098
  507MOL0     H69930   3.181  10.636   2.940  2.5631 -0.4415 -3.0037
  507MOL0     H69931   3.053  10.755   2.906  0.3725  3.3317 -1.1026
  507MOL0     H69932   3.295  10.712   2.727 -0.4394 -0.9336 -0.5684
  507MOL0     H69933   3.144  10.620   2.702 -0.3760  0.2838  1.6699
  507MOL0     H69934   3.153  10.926   2.714 -1.0688 -0.8781  2.8650
  507MOL0     H69935   3.026  10.824   2.659  0.2060  2.6537  0.7415
  507MOL0     H69936   3.192  10.741   2.480  0.9186  0.7723 -0.8427
  507MOL0     H69937   3.311  10.856   2.533  0.1111  0.1414  1.2931
  507MOL0     H69938   3.020  10.911   2.445 -0.2083 -0.7891  3.8767
  507MOL0     H69939   3.130  11.041   2.488 -1.2476  0.5304 -0.1900
  507MOL0     H69940   3.262  11.018   2.298 -0.0957  0.5511  2.2106
  507MOL0     H69941   3.088  11.033   2.269  0.9649  1.2081  2.2785
  507MOL0     H69942   3.106  10.766   2.245 -0.8929  1.6640  0.8008
  507MOL0     H69943   3.278  10.791   2.226  0.6651 -0.3189  1.8766
  507MOL0     H69944   3.053  10.893   2.041  0.1610  3.4279  0.4941
  507MOL0     H69945   3.170  10.765   2.019  1.7194  1.3904 -2.4489
  507MOL0     H69946   3.325  10.679   3.139 -2.6390 -1.1245 -2.8103
  507MOL0     H69947   3.566  10.613   3.146  0.9454  1.2372 -0.6046
  507MOL0     H69948   4.030  10.716   2.887 -0.3368  0.0926  1.3776
  507MOL0     H69949   4.257  10.612   2.859 -0.1536  0.6579 -0.8229
  507MOL0     H69950   5.609  10.933   2.942  1.5758  1.7400 -1.6726
  507MOL0     H69951   5.786  11.103   2.867  1.7484  0.3944 -0.2506
  507MOL0     H69952   6.246  10.936   2.682  3.2049 -1.2761 -1.5546
  507MOL0     H69953   6.489  10.988   2.623 -1.6516 -0.9617  0.5599
  507MOL0     H69954   6.636  11.371   2.784 -0.7679 -0.0296 -0.0916
  507MOL0     H69955   6.709  11.239   2.873 -1.6468  0.4914  0.8464
  507MOL0     H69956   6.850  11.424   2.706 -0.7158  1.8596  1.0371
  507MOL0     H69957   6.798  11.307   2.579 -0.3797 -1.6573  1.3410
  507MOL0     H69958   7.029  11.283   2.646  0.1488 -0.1398  0.1463
  507MOL0     H69959   6.970  11.248   2.815 -0.5018 -0.3027  0.5557
  507MOL0     H69960   6.872  11.037   2.707 -1.5118 -0.2191 -2.3853
  507MOL0     H69961   7.052  11.062   2.719 -1.1629 -0.7230  1.3335
  507MOL0     H69962   6.989  11.020   2.306  0.5612  0.9337  0.9611
  507MOL0     H69963   6.476  11.310   2.906 -3.5314  1.0829  0.9260
  507MOL0     H69964   6.322  11.322   3.088  0.6959 -0.5863  0.6505
  507MOL0     H69965   6.159  11.326   3.028  2.0273  2.1897  0.2326
  507MOL0     H69966   6.215  11.191   3.113  0.4905  0.5792  0.0030
  508MOL0     O69967   8.893   9.890   3.097  0.6831  0.0603 -1.0141
  508MOL0     C69968   8.834   9.803   3.158 -0.7639  0.4138  0.0348
  508MOL0     O69969   8.896   9.696   3.214  1.2233  0.3886 -0.3031
  508MOL0     C69970   9.031   9.688   3.219  0.0944 -0.1990  0.2317
  508MOL0     C69971   9.093   9.563   3.187  0.3781 -0.0100  0.2418
  508MOL0     C69972   9.232   9.543   3.189  0.5799 -0.1436 -0.1498
  508MOL0     C69973   9.316   9.649   3.212  0.1332  0.7046  0.0597
  508MOL0     O69974   9.446   9.627   3.188 -0.0865  0.3274  0.0012
  508MOL0     C69975   9.526   9.736   3.141 -0.1822 -0.4208  0.0956
  508MOL0     C69976   9.652   9.687   3.075 -1.4458  0.2474 -0.2900
  508MOL0     C69977   9.769   9.686   3.171 -0.3291 -0.5474  0.2182
  508MOL0     C69978   9.898   9.629   3.109 -1.2895  0.2010 -0.0577
  508MOL0     C69979  10.011   9.616   3.216  0.8772  0.1101  0.6851
  508MOL0     C69980  10.145   9.601   3.150  0.1091  0.0081  0.2243
  508MOL0     C69981  10.263   9.619   3.250 -1.0908 -0.0217  0.7724
  508MOL0     C69982  10.388   9.537   3.201 -1.2933  0.5745 -0.3253
  508MOL0     N69983  10.492   9.523   3.309  0.0201 -0.8856  0.5153
  508MOL0     C69984  10.546   9.620   3.392 -0.2559 -0.3510 -1.0017
  508MOL0     C69985  10.614   9.549   3.487  0.1375 -0.9271  0.6456
  508MOL0     C69986  10.674   9.611   3.608  0.6379  0.1734  0.9041
  508MOL0     C69987  10.577   9.676   3.706 -0.0226  0.0175 -0.5041
  508MOL0     C69988  10.621   9.663   3.852 -0.4557 -0.7518  0.5473
  508MOL0     C69989  10.750   9.741   3.879 -0.4300  0.3387  0.7404
  508MOL0     O69990  10.871   9.669   3.856 -0.2763  0.3056 -0.5159
  508MOL0     C69991  10.980   9.750   3.827  0.2053  1.0027  0.2898
  508MOL0     C69992  11.016   9.863   3.905 -0.2448  0.6628 -0.3227
  508MOL0     C69993  11.127   9.939   3.875  0.1788 -1.0802 -0.1661
  508MOL0     C69994  11.186  10.026   3.979  0.0678 -0.1394  0.2249
  508MOL0     C69995  11.201   9.910   3.756  0.4591 -0.4407 -0.1016
  508MOL0     C69996  11.308   9.987   3.713 -0.4037 -1.3251 -0.9693
  508MOL0     O69997  11.410   9.939   3.642 -0.4636  0.4699 -0.4247
  508MOL0     C69998  11.532  10.002   3.665 -1.1602 -0.0820 -0.6376
  508MOL0     C69999  11.622   9.985   3.565 -0.0759 -0.2221 -0.1704
  508MOL0     C70000  11.753  10.014   3.582 -1.2599 -0.2866  0.0945
  508MOL0     C70001  11.809  10.053   3.703  0.8915 -0.0712  0.3162
  508MOL0     O70002  11.943  10.079   3.719 -0.4378  0.3015 -0.3828
  508MOL0     C70003  12.011  10.130   3.604  0.8355  0.2472 -0.0918
  508MOL0     C70004  12.087  10.025   3.523  0.4379  0.3497  0.2357
  508MOL0     C70005  12.201  10.094   3.448  0.3444  0.2098 -0.6299
  508MOL0     C70006  12.154  10.176   3.326  0.2403 -0.8429 -0.3494
  508MOL0     C70007  12.274  10.263   3.260  0.4335 -0.5252  0.0401
  508MOL0     C70008  12.261  10.270   3.109 -0.8113 -0.3242  0.7470
  508MOL0     C70009  12.283  10.135   3.043  0.0616  0.1712 -0.0074
  508MOL0     C70010  12.313  10.148   2.882  0.1570 -0.2375 -0.3210
  508MOL0    Cl70011  12.174  10.200   2.788 -0.4197 -0.3300  0.0018
  508MOL0     C70012  11.718  10.065   3.810  0.7710  0.2870 -0.0623
  508MOL0     C70013  11.583  10.046   3.791 -0.3456  0.5014 -0.1129
  508MOL0     O70014  11.296  10.110   3.737  0.1253  0.0911  0.7615
  508MOL0     C70015  11.153   9.805   3.669  0.3203  0.4579  0.8142
  508MOL0     C70016  11.036   9.728   3.701 -0.3091  0.4888 -0.7983
  508MOL0     N70017  10.614   9.420   3.455  0.2245  0.4320 -0.1497
  508MOL0     N70018  10.545   9.409   3.346 -0.4269  0.7305  0.1973
  508MOL0     C70019   9.259   9.773   3.258  0.7237 -0.0659 -0.4316
  508MOL0     C70020   9.117   9.790   3.265  0.3857  0.9943 -0.0435
  508MOL0     C70021   8.690   9.815   3.174  0.8135  0.2527 -0.0023
  508MOL0     C70022   8.655   9.935   3.228  0.1372  0.0575  0.0396
  508MOL0     C70023   8.526   9.977   3.252 -0.0559 -0.0491 -0.3027
  508MOL0     C70024   8.428   9.887   3.211 -0.4107 -0.8534  0.1803
  508MOL0     O70025   8.294   9.917   3.240 -1.0840 -0.5828 -0.0323
  508MOL0     C70026   8.191   9.833   3.194 -0.4165  0.6401 -0.1687
  508MOL0     C70027   8.055   9.909   3.205  0.1001 -0.2471 -0.5476
  508MOL0     C70028   8.008   9.942   3.345  0.4817 -0.1532 -0.5422
  508MOL0     C70029   7.976   9.821   3.432 -0.3605  0.0464 -1.1664
  508MOL0     C70030   7.884   9.720   3.370  0.3185  0.0905  0.3695
  508MOL0     C70031   7.806   9.632   3.337 -0.8146  0.3914 -0.0664
  508MOL0     C70032   8.471   9.778   3.134  1.0903  0.2085 -0.3102
  508MOL0     C70033   8.595   9.733   3.105  0.6651 -0.0840 -0.5363
  508MOL0     C70034   8.623   9.596   3.036  0.0349  0.2605  1.0317
  508MOL0     H70035   9.022   9.485   3.161  0.4668  0.0088 -0.0634
  508MOL0     H70036   9.267   9.445   3.161  0.9420 -0.8018  2.3869
  508MOL0     H70037   9.536   9.795   3.232  0.1554 -2.2317  1.2996
  508MOL0     H70038   9.477   9.792   3.061  1.4248  2.9814  1.3232
  508MOL0     H70039   9.633   9.584   3.042 -1.7775 -0.9985  3.3034
  508MOL0     H70040   9.687   9.752   2.995  2.4386  1.1016  1.8628
  508MOL0     H70041   9.777   9.790   3.205  0.9723 -0.5165 -0.1530
  508MOL0     H70042   9.742   9.626   3.259  2.5851 -0.0016  1.5959
  508MOL0     H70043   9.891   9.536   3.051  2.3109  1.0659 -2.1203
  508MOL0     H70044   9.935   9.702   3.038  1.9163  0.1331  1.3766
  508MOL0     H70045  10.006   9.547   3.301  2.1834  1.7641  2.1828
  508MOL0     H70046  10.013   9.717   3.257 -1.0615 -0.2471  1.7960
  508MOL0     H70047  10.158   9.506   3.097  1.7721 -0.0305  0.6426
  508MOL0     H70048  10.147   9.673   3.067 -1.4314  0.4105  0.5156
  508MOL0     H70049  10.240   9.590   3.353 -2.2153 -0.0264  0.5419
  508MOL0     H70050  10.277   9.726   3.260 -0.0614 -0.2810  2.4821
  508MOL0     H70051  10.364   9.437   3.163  0.4736 -1.0197  2.4848
  508MOL0     H70052  10.452   9.578   3.122  2.7933 -2.5592  1.0269
  508MOL0     H70053  10.517   9.725   3.398 -0.6175 -0.4919 -0.1831
  508MOL0     H70054  10.732   9.698   3.576 -2.2174  1.9511  0.2245
  508MOL0     H70055  10.740   9.537   3.655 -1.3451 -0.7967  2.2874
  508MOL0     H70056  10.570   9.781   3.677 -1.0634  0.4678  1.2382
  508MOL0     H70057  10.481   9.629   3.682 -0.9476  2.1559 -1.1929
  508MOL0     H70058  10.539   9.710   3.907 -2.0596 -2.7313 -0.0005
  508MOL0     H70059  10.618   9.559   3.888 -0.7538 -1.0059 -0.1972
  508MOL0     H70060  10.754   9.826   3.809 -1.7398  0.4584  0.7921
  508MOL0     H70061  10.746   9.786   3.979  0.5078  1.2360  0.3946
  508MOL0     H70062  10.968   9.891   3.998  1.5566  1.4629  0.4086
  508MOL0     H70063  11.294  10.010   3.984  0.1757  0.2089 -0.7260
  508MOL0     H70064  11.142  10.029   4.079 -1.3387 -1.5754 -0.3079
  508MOL0     H70065  11.172  10.128   3.942 -1.9966 -0.8831 -1.2168
  508MOL0     H70066  11.590   9.941   3.471 -0.5627  0.5459 -0.3678
  508MOL0     H70067  11.812   9.997   3.492 -0.1557  0.4706  0.6503
  508MOL0     H70068  11.949  10.184   3.532 -1.5584 -0.6081  1.2182
  508MOL0     H70069  12.084  10.202   3.642 -1.5070  2.0712  1.2208
  508MOL0     H70070  12.127   9.955   3.597 -2.8866 -2.5664 -0.4279
  508MOL0     H70071  12.021   9.974   3.452  1.7553 -1.1363  0.0227
  508MOL0     H70072  12.261  10.013   3.404  1.6326  1.0269 -0.4248
  508MOL0     H70073  12.275  10.148   3.508  0.0131  1.6375 -1.4552
  508MOL0     H70074  12.070  10.240   3.354  0.0399 -2.3055  2.8442
  508MOL0     H70075  12.114  10.108   3.250 -1.8643 -1.9575  1.6483
  508MOL0     H70076  12.277  10.365   3.298 -0.7369 -1.1435  1.9002
  508MOL0     H70077  12.374  10.225   3.282  0.8514  0.8831  0.6870
  508MOL0     H70078  12.341  10.337   3.075  0.9744 -3.1545 -1.0736
  508MOL0     H70079  12.173  10.316   3.063 -0.9954 -1.3226  0.0763
  508MOL0     H70080  12.197  10.069   3.051  0.9034 -1.1477 -1.2783
  508MOL0     H70081  12.373  10.097   3.093  1.9659  2.6292 -1.2907
  508MOL0     H70082  12.345  10.048   2.853 -1.1541 -0.3513 -1.4735
  508MOL0     H70083  12.405  10.205   2.862  0.4655 -0.1977  1.0825
  508MOL0     H70084  11.758  10.080   3.910  1.2119  0.3617 -0.2435
  508MOL0     H70085  11.524  10.075   3.878  0.7872  0.6694  0.6164
  508MOL0     H70086  11.198   9.762   3.581 -0.8931 -0.8762  0.8147
  508MOL0     H70087  11.001   9.642   3.645  1.0919 -0.4485 -0.2979
  508MOL0     H70088   9.304   9.866   3.292 -2.6008  1.5224 -0.0367
  508MOL0     H70089   9.071   9.877   3.311  1.1167  1.5277 -0.3097
  508MOL0     H70090   8.716  10.010   3.278  0.5579 -1.1812  1.4510
  508MOL0     H70091   8.503  10.070   3.303 -1.4297  0.7321 -2.2321
  508MOL0     H70092   8.217   9.819   3.089 -1.7411  3.3491 -0.9601
  508MOL0     H70093   8.192   9.734   3.239 -0.9103 -0.5096 -2.5167
  508MOL0     H70094   7.974   9.853   3.157  0.8772 -2.3359  0.4401
  508MOL0     H70095   8.045  10.003   3.150  0.3336 -0.3366 -0.7458
  508MOL0     H70096   8.078  10.013   3.390 -0.0633 -1.4964  2.7059
  508MOL0     H70097   7.910   9.990   3.334 -0.3110 -1.0592  1.7926
  508MOL0     H70098   7.939   9.855   3.530  0.5315 -0.9375 -0.4623
  508MOL0     H70099   8.073   9.772   3.443 -0.0633  0.1463 -3.0453
  508MOL0     H70100   7.723   9.566   3.325 -0.3441  0.0134 -1.4783
  508MOL0     H70101   8.390   9.719   3.090  0.4437  2.2221 -2.0240
  508MOL0     H70102   8.602   9.600   2.929  1.6651 -3.2630  0.4194
  508MOL0     H70103   8.729   9.572   3.048  0.1342  0.1577  0.0275
  508MOL0     H70104   8.562   9.514   3.076 -1.4838  2.0829  2.6714
  509MOL0     O70105   2.188  10.550   9.367 -0.4380 -0.5803 -0.3925
  509MOL0     C70106   2.227  10.449   9.309  0.0503  0.3784  1.2120
  509MOL0     O70107   2.358  10.426   9.269 -0.8218 -0.5192  0.2301
  509MOL0     C70108   2.463  10.490   9.328 -0.1058 -0.8452 -0.8075
  509MOL0     C70109   2.459  10.538   9.459 -0.1707  0.3902 -0.1670
  509MOL0     C70110   2.573  10.586   9.511 -1.0310  0.9165  0.1379
  509MOL0     C70111   2.682  10.619   9.432 -0.0591  0.2318  0.0425
  509MOL0     O70112   2.774  10.702   9.483  0.0977  0.2374  1.0782
  509MOL0     C70113   2.826  10.808   9.405  0.0451 -0.5537 -0.2162
  509MOL0     C70114   2.911  10.893   9.494  0.3160 -0.7481  0.1216
  509MOL0     C70115   2.944  11.031   9.444 -0.1335  0.2675 -0.2108
  509MOL0     C70116   2.833  11.125   9.391  0.2193  0.4470 -1.1069
  509MOL0     C70117   2.868  11.273   9.418 -1.0440 -0.2407  0.5501
  509MOL0     C70118   2.771  11.382   9.371 -0.9483  1.0652  1.2047
  509MOL0     C70119   2.805  11.520   9.442 -0.5393 -0.6066 -0.3244
  509MOL0     C70120   2.686  11.619   9.419  0.6853  0.2365  0.2615
  509MOL0     N70121   2.738  11.755   9.448  0.0603 -0.0306  0.1934
  509MOL0     C70122   2.709  11.825   9.566  0.2337  0.7486  0.0773
  509MOL0     C70123   2.759  11.944   9.549  0.4127 -0.8050 -0.5760
  509MOL0     C70124   2.769  12.064   9.649  0.0480 -0.9409  0.7160
  509MOL0     C70125   2.643  12.088   9.726 -0.1705  0.3514 -0.0492
  509MOL0     C70126   2.531  12.140   9.640  0.6741  0.5495 -0.4953
  509MOL0     C70127   2.406  12.124   9.730 -0.0167  0.1490  0.3039
  509MOL0     O70128   2.382  11.986   9.774 -0.1228  0.1790 -0.2581
  509MOL0     C70129   2.349  11.885   9.685  0.2075 -0.2495  0.0960
  509MOL0     C70130   2.359  11.750   9.712 -0.5503  0.0270  0.3839
  509MOL0     C70131   2.326  11.645   9.623  0.3552  0.6738 -0.5241
  509MOL0     C70132   2.325  11.500   9.674 -0.7082  0.6940  0.4721
  509MOL0     C70133   2.278  11.678   9.498 -0.3788  0.1066 -0.4466
  509MOL0     C70134   2.245  11.573   9.395 -0.1960 -0.7520  0.1732
  509MOL0     O70135   2.146  11.610   9.312  0.0705  0.8951 -0.4041
  509MOL0     C70136   2.110  11.526   9.210 -0.1747 -0.2213 -0.7448
  509MOL0     C70137   1.986  11.462   9.220  0.0857 -1.3062  0.0998
  509MOL0     C70138   1.948  11.374   9.117  0.7928  0.3952 -0.2460
  509MOL0     C70139   2.017  11.360   8.991 -0.5508 -0.3243  0.1001
  509MOL0     O70140   1.985  11.276   8.882  0.1469 -0.2911  0.3031
  509MOL0     C70141   1.854  11.223   8.899  0.6937  0.1110  0.5742
  509MOL0     C70142   1.815  11.176   8.758 -0.1451 -0.6763 -0.7579
  509MOL0     C70143   1.701  11.074   8.768  0.2164  0.0708 -0.3973
  509MOL0     C70144   1.617  11.072   8.640 -0.0843  0.2657  0.4626
  509MOL0     C70145   1.489  11.003   8.652  0.1307  0.6177  0.1521
  509MOL0     C70146   1.426  10.999   8.505  0.1032  0.1980 -0.5775
  509MOL0     C70147   1.276  10.969   8.513 -0.0956 -0.1127 -0.5061
  509MOL0     C70148   1.214  11.006   8.381 -0.0129  0.2225  0.2126
  509MOL0    Cl70149   1.273  10.908   8.245  0.3636 -0.2582  0.2647
  509MOL0     C70150   2.133  11.432   8.985 -0.1413  0.1342 -1.2694
  509MOL0     C70151   2.182  11.514   9.092 -0.1409 -0.1362 -0.2863
  509MOL0     O70152   2.301  11.466   9.393  0.0692  0.1949  0.0458
  509MOL0     C70153   2.269  11.812   9.468  0.4272 -0.2371 -0.1261
  509MOL0     C70154   2.291  11.914   9.557 -1.4185  0.0872  1.0456
  509MOL0     N70155   2.836  11.949   9.436 -0.0582 -0.3121  1.1341
  509MOL0     N70156   2.811  11.842   9.365  0.6744 -0.4271 -1.1776
  509MOL0     C70157   2.675  10.587   9.296  0.7184  0.3207 -0.1532
  509MOL0     C70158   2.572  10.514   9.247  0.5310  0.4152 -0.0502
  509MOL0     C70159   2.129  10.341   9.269  0.4092 -0.2034  0.0920
  509MOL0     C70160   2.164  10.254   9.157  0.4993 -1.0148  0.4405
  509MOL0     C70161   2.080  10.151   9.109  0.1635  0.0038 -0.6113
  509MOL0     C70162   1.952  10.139   9.158  0.5218  0.0420  0.2855
  509MOL0     O70163   1.858  10.053   9.112 -0.2831 -0.2026 -0.6033
  509MOL0     C70164   1.891   9.971   9.005  0.6284  0.6796  0.2474
  509MOL0     C70165   1.825   9.842   9.046  0.5015 -0.2933  1.1661
  509MOL0     C70166   1.853   9.734   8.946  0.1427 -0.3475 -0.8995
  509MOL0     C70167   1.825   9.596   9.001 -0.5292 -0.0301 -0.1786
  509MOL0     C70168   1.680   9.589   9.034 -0.0728 -0.2655  0.0877
  509MOL0     C70169   1.564   9.593   9.054 -0.4473 -0.1171 -0.6622
  509MOL0     C70170   1.912  10.225   9.261  0.0910  0.7137  0.0292
  509MOL0     C70171   1.997  10.328   9.317 -0.2992  0.0204  0.4992
  509MOL0     C70172   1.948  10.425   9.417 -0.6379 -0.0077  0.1454
  509MOL0     H70173   2.371  10.528   9.522  0.5181 -0.2799  0.7121
  509MOL0     H70174   2.569  10.605   9.618 -0.4399 -0.1859  0.3718
  509MOL0     H70175   2.752  10.871   9.354  2.0312  0.3752 -2.1205
  509MOL0     H70176   2.894  10.779   9.325  1.8394  1.4866  0.4833
  509MOL0     H70177   2.852  10.907   9.585 -3.4301 -1.1449 -2.0225
  509MOL0     H70178   3.006  10.844   9.517  0.7667 -0.4949 -1.1442
  509MOL0     H70179   2.984  11.099   9.519 -2.1099  2.4718 -1.0384
  509MOL0     H70180   3.023  11.016   9.370  0.7942  0.3518  0.7355
  509MOL0     H70181   2.827  11.106   9.284 -1.4700  2.3652 -1.4217
  509MOL0     H70182   2.736  11.096   9.434 -0.1187 -1.0163 -2.7709
  509MOL0     H70183   2.967  11.299   9.379 -1.5720 -1.0338 -1.4409
  509MOL0     H70184   2.870  11.292   9.526 -1.3655  2.1865  0.1909
  509MOL0     H70185   2.752  11.386   9.264  0.9265 -2.1004  0.6363
  509MOL0     H70186   2.679  11.359   9.425 -1.7831  2.5836  0.4794
  509MOL0     H70187   2.897  11.570   9.409 -0.7306  1.0349  1.4429
  509MOL0     H70188   2.821  11.502   9.549 -0.6473  0.4745 -0.1068
  509MOL0     H70189   2.654  11.627   9.314  0.7096 -1.8249  0.0572
  509MOL0     H70190   2.595  11.591   9.473  0.2382  1.6009  0.2474
  509MOL0     H70191   2.643  11.804   9.650 -0.0306  1.9717  0.1958
  509MOL0     H70192   2.797  12.153   9.593  1.2385 -1.2692  0.7484
  509MOL0     H70193   2.854  12.032   9.711 -1.0701 -2.8644  1.3346
  509MOL0     H70194   2.618  11.995   9.778  2.3074 -0.2071  0.2687
  509MOL0     H70195   2.655  12.167   9.800 -3.0797  0.3554  0.5271
  509MOL0     H70196   2.556  12.246   9.631 -0.4474  0.8394 -0.3790
  509MOL0     H70197   2.523  12.085   9.546 -1.9460 -1.0806  0.5854
  509MOL0     H70198   2.419  12.185   9.820 -0.0440 -0.9406  1.0687
  509MOL0     H70199   2.320  12.160   9.673 -0.4668 -2.5962 -0.9264
  509MOL0     H70200   2.404  11.714   9.804 -0.4551 -2.4379 -0.5640
  509MOL0     H70201   2.306  11.511   9.782  2.6561  0.5246  1.1841
  509MOL0     H70202   2.417  11.442   9.667 -2.6906 -2.6323 -0.2342
  509MOL0     H70203   2.261  11.436   9.614  1.9308  1.4374 -3.5117
  509MOL0     H70204   1.922  11.477   9.307 -0.9683 -2.5786 -0.4068
  509MOL0     H70205   1.848  11.336   9.135 -1.4525  4.1148 -3.2154
  509MOL0     H70206   1.863  11.149   8.979 -4.8234 -0.4759  1.0251
  509MOL0     H70207   1.777  11.292   8.934  1.2564  1.6673 -1.0759
  509MOL0     H70208   1.799  11.263   8.694  0.0329 -0.3674 -0.3860
  509MOL0     H70209   1.900  11.126   8.711  2.5057  0.2181  2.6726
  509MOL0     H70210   1.647  11.099   8.859  2.6812  1.9437  0.6785
  509MOL0     H70211   1.741  10.972   8.769  2.9935  1.0453  2.3774
  509MOL0     H70212   1.676  11.015   8.567  0.3647 -1.2391  1.9431
  509MOL0     H70213   1.599  11.176   8.611  0.6927  0.3182  0.1357
  509MOL0     H70214   1.486  10.905   8.699  0.1582  0.0382 -1.0281
  509MOL0     H70215   1.418  11.065   8.709 -0.3754  2.1303 -1.9599
  509MOL0     H70216   1.478  10.919   8.451 -1.0022 -0.2883 -0.9612
  509MOL0     H70217   1.438  11.097   8.458  1.3169  0.9065  1.1408
  509MOL0     H70218   1.241  11.036   8.592 -0.8033  1.0834 -1.7917
  509MOL0     H70219   1.273  10.865   8.546  1.6335  0.4283  1.6026
  509MOL0     H70220   1.233  11.109   8.351  1.1035  0.8539  2.7784
  509MOL0     H70221   1.107  10.998   8.400  0.3183  0.2563  2.3955
  509MOL0     H70222   2.196  11.419   8.898 -0.6240 -1.5638 -1.4125
  509MOL0     H70223   2.277  11.565   9.089  0.3559 -1.0716 -0.8251
  509MOL0     H70224   2.251  11.846   9.367 -0.5452 -0.5412 -0.0605
  509MOL0     H70225   2.275  12.017   9.526 -0.5449 -0.5396 -1.8306
  509MOL0     H70226   2.742  10.640   9.228  0.2114 -0.6192 -1.4312
  509MOL0     H70227   2.579  10.477   9.145 -0.5099 -2.5215  0.8551
  509MOL0     H70228   2.265  10.265   9.117  1.1775 -0.5616  2.1726
  509MOL0     H70229   2.129  10.081   9.041  1.7661 -1.7687  2.1765
  509MOL0     H70230   1.854  10.012   8.911  2.8962 -0.1772 -1.0847
  509MOL0     H70231   1.995   9.944   8.982  0.7088 -0.1722  1.5093
  509MOL0     H70232   1.716   9.850   9.049  0.6256  1.7010  1.8396
  509MOL0     H70233   1.856   9.810   9.145 -2.3004 -0.6164  2.0161
  509MOL0     H70234   1.779   9.748   8.867 -4.1275 -1.5966  2.4998
  509MOL0     H70235   1.956   9.727   8.911  0.3638 -1.6160 -0.0624
  509MOL0     H70236   1.885   9.575   9.090  0.5486 -4.6743 -1.7441
  509MOL0     H70237   1.841   9.513   8.932  0.5603 -0.9922  1.1679
  509MOL0     H70238   1.457   9.591   9.055 -0.4858 -2.0938 -1.7971
  509MOL0     H70239   1.815  10.197   9.302  0.4222 -0.1186  0.2547
  509MOL0     H70240   2.017  10.432   9.501  5.1133  0.3365 -4.0321
  509MOL0     H70241   1.940  10.514   9.355 -1.9286 -1.1068 -1.3564
  509MOL0     H70242   1.848  10.400   9.455 -1.2976 -0.8938 -2.0024
  510MOL0     O70243   5.922   7.228   0.240 -0.3835 -0.3627 -0.1428
  510MOL0     C70244   5.969   7.124   0.286  0.0185  0.4583 -0.4584
  510MOL0     O70245   5.949   6.993   0.240  0.4983 -0.3181  0.0879
  510MOL0     C70246   5.833   6.966   0.183 -1.1481  0.3019 -0.4611
  510MOL0     C70247   5.709   6.989   0.250 -0.1680  0.4173  0.1154
  510MOL0     C70248   5.588   6.962   0.184  0.2939  0.0865  0.9984
  510MOL0     C70249   5.587   6.907   0.052 -0.2825  0.4842  0.0984
  510MOL0     O70250   5.464   6.880  -0.005  0.0405  0.1225 -0.0736
  510MOL0     C70251   5.474   6.768  -0.097 -0.0341 -0.2422  0.4829
  510MOL0     C70252   5.340   6.706  -0.102  0.5106  0.7797  0.2233
  510MOL0     C70253   5.265   6.666   0.028  0.4829 -0.5977  0.7728
  510MOL0     C70254   5.132   6.597  -0.015 -0.4085 -0.0143 -0.3529
  510MOL0     C70255   5.040   6.576   0.103 -0.1528  0.0780  0.2925
  510MOL0     C70256   4.973   6.447   0.109  0.1604  0.2178 -0.1845
  510MOL0     C70257   4.910   6.393  -0.025  0.3798 -0.4173  0.8352
  510MOL0     C70258   4.771   6.328  -0.013  0.0522 -0.6318 -0.2804
  510MOL0     N70259   4.772   6.197   0.046 -0.0357 -0.1609  0.1061
  510MOL0     C70260   4.789   6.087  -0.035  0.1637  0.3999 -0.1527
  510MOL0     C70261   4.772   5.983   0.050  0.8929  0.1298  0.1347
  510MOL0     C70262   4.785   5.839   0.018 -0.2781 -0.8663 -0.0125
  510MOL0     C70263   4.915   5.784   0.052 -0.4929  0.0161  0.8124
  510MOL0     C70264   4.923   5.756   0.198  0.4215 -0.4220 -0.6664
  510MOL0     C70265   5.049   5.675   0.241 -1.4179 -0.4993 -0.8334
  510MOL0     O70266   5.087   5.572   0.145  0.6844 -0.1390  0.6533
  510MOL0     C70267   5.211   5.518   0.164 -0.5924  0.1936  0.4480
  510MOL0     C70268   5.307   5.544   0.266 -0.0819  0.8060  0.1970
  510MOL0     C70269   5.427   5.479   0.271  1.3493  0.5333 -0.1232
  510MOL0     C70270   5.523   5.521   0.379  0.8546  0.2236 -0.0958
  510MOL0     C70271   5.456   5.376   0.178  0.0800  1.2095  0.3468
  510MOL0     C70272   5.577   5.290   0.192 -0.3018 -1.2850  0.0653
  510MOL0     O70273   5.571   5.167   0.131 -0.2276  0.1019  0.3271
  510MOL0     C70274   5.666   5.073   0.170  0.5834 -0.8303 -0.4724
  510MOL0     C70275   5.793   5.073   0.106 -0.1361 -0.0158 -1.0451
  510MOL0     C70276   5.886   4.973   0.124  0.0233 -0.0177 -0.0128
  510MOL0     C70277   5.855   4.880   0.222  0.2333 -0.2462 -0.3192
  510MOL0     O70278   5.952   4.784   0.241  0.0809  0.1305  0.1243
  510MOL0     C70279   5.922   4.663   0.326 -0.4298 -0.7050  0.3402
  510MOL0     C70280   6.026   4.557   0.299 -0.2432 -0.0029  0.1139
  510MOL0     C70281   6.166   4.621   0.343  0.4795 -1.0683 -0.4688
  510MOL0     C70282   6.274   4.524   0.298  0.3893 -0.4250 -0.7238
  510MOL0     C70283   6.417   4.584   0.340 -0.5765 -0.1875  0.1368
  510MOL0     C70284   6.512   4.480   0.302  1.3283  0.1729  0.0954
  510MOL0     C70285   6.646   4.506   0.360  0.3140  0.3289  0.7132
  510MOL0     C70286   6.747   4.391   0.321  0.1405 -0.8534  0.4874
  510MOL0    Cl70287   6.828   4.443   0.169 -0.2267  0.6099 -0.3952
  510MOL0     C70288   5.745   4.882   0.299 -0.8708 -0.9370 -0.1830
  510MOL0     C70289   5.651   4.984   0.276  0.2102  0.0691 -0.3101
  510MOL0     O70290   5.677   5.330   0.251 -0.3072  0.1167  0.2045
  510MOL0     C70291   5.358   5.345   0.081 -0.4014 -0.2724 -0.4599
  510MOL0     C70292   5.243   5.419   0.078  0.5442 -0.1224  0.3074
  510MOL0     N70293   4.756   6.033   0.180 -0.7261 -0.2995  0.2482
  510MOL0     N70294   4.766   6.163   0.177 -0.2016  0.0047  0.9486
  510MOL0     C70295   5.707   6.876  -0.011  0.7700 -0.4259  0.3390
  510MOL0     C70296   5.826   6.911   0.053 -0.3522 -0.1295  0.0689
  510MOL0     C70297   6.073   7.143   0.393  0.2865  1.3742 -0.7732
  510MOL0     C70298   6.082   7.275   0.450  0.2601 -0.0270  0.2680
  510MOL0     C70299   6.153   7.286   0.573  0.1235 -0.4504 -0.4992
  510MOL0     C70300   6.223   7.180   0.632 -0.2892 -0.0543 -0.2927
  510MOL0     O70301   6.288   7.207   0.756 -0.1048 -0.1941  0.7228
  510MOL0     C70302   6.319   7.085   0.837  0.2591  0.2063  0.2998
  510MOL0     C70303   6.189   6.993   0.859  0.9910  0.3929 -0.0071
  510MOL0     C70304   6.088   7.081   0.928  1.3524 -0.4666 -0.7093
  510MOL0     C70305   6.108   7.107   1.087 -0.0298 -1.1489  1.6748
  510MOL0     C70306   6.123   6.982   1.164  0.0426 -0.5791  0.1332
  510MOL0     C70307   6.152   6.877   1.214  0.4355 -0.0748 -0.4627
  510MOL0     C70308   6.239   7.062   0.559  0.3554  0.3648 -0.3949
  510MOL0     C70309   6.157   7.038   0.442 -0.0524 -0.2776 -0.9964
  510MOL0     C70310   6.171   6.903   0.374  0.1740 -0.1413 -0.0260
  510MOL0     H70311   5.699   7.038   0.346 -1.8039 -0.6721  0.5410
  510MOL0     H70312   5.495   6.973   0.239 -0.6616  0.4230 -0.6137
  510MOL0     H70313   5.547   6.692  -0.065  0.3031  0.7320  2.1497
  510MOL0     H70314   5.516   6.804  -0.191 -0.9740  0.7919  0.4495
  510MOL0     H70315   5.273   6.778  -0.150  1.0510  1.3603  0.3276
  510MOL0     H70316   5.342   6.628  -0.179 -1.4721  0.0159  0.8706
  510MOL0     H70317   5.331   6.598   0.083  1.9408 -0.1895 -0.3984
  510MOL0     H70318   5.238   6.753   0.089 -4.0461 -0.4180 -1.0863
  510MOL0     H70319   5.086   6.660  -0.092  2.5611  1.6172 -0.9602
  510MOL0     H70320   5.162   6.502  -0.059 -1.2214 -0.6831  0.5017
  510MOL0     H70321   4.960   6.650   0.114 -1.0612 -1.1573  2.4833
  510MOL0     H70322   5.097   6.604   0.192 -1.6568  3.0757  0.4288
  510MOL0     H70323   5.036   6.367   0.149 -0.6935 -0.3149  0.1409
  510MOL0     H70324   4.888   6.469   0.175  1.7055 -0.0900  1.9869
  510MOL0     H70325   4.977   6.316  -0.063  1.2119  0.0823  1.2585
  510MOL0     H70326   4.889   6.478  -0.091 -1.6243  0.5534  2.5972
  510MOL0     H70327   4.709   6.386   0.057 -0.9745 -1.7756 -0.2051
  510MOL0     H70328   4.726   6.353  -0.110  2.7673 -0.6283 -1.6203
  510MOL0     H70329   4.800   6.069  -0.141  0.8329  0.1079 -0.0383
  510MOL0     H70330   4.782   5.834  -0.091 -0.0921 -0.5160 -0.0345
  510MOL0     H70331   4.700   5.778   0.051 -0.5148  0.0065  1.0619
  510MOL0     H70332   4.933   5.687   0.004 -1.8505 -0.7133  1.7189
  510MOL0     H70333   4.990   5.856   0.020 -0.8262  1.2528  2.6600
  510MOL0     H70334   4.923   5.847   0.259  5.5215 -1.1786  0.8839
  510MOL0     H70335   4.833   5.697   0.221 -1.2303  1.5670 -1.6609
  510MOL0     H70336   5.136   5.740   0.251 -1.9127  0.1405 -0.5886
  510MOL0     H70337   5.041   5.634   0.342  2.2587 -0.2177 -0.3007
  510MOL0     H70338   5.289   5.606   0.353  1.9863  0.8176  0.6669
  510MOL0     H70339   5.603   5.572   0.324 -1.9213  0.7358 -4.1228
  510MOL0     H70340   5.550   5.430   0.434 -0.2492 -1.6309 -2.4525
  510MOL0     H70341   5.478   5.598   0.442 -1.3452 -1.1977  0.1854
  510MOL0     H70342   5.814   5.152   0.035  0.2390  1.4793  0.6440
  510MOL0     H70343   5.983   4.957   0.077  0.7815 -0.0484  1.5171
  510MOL0     H70344   5.907   4.686   0.432  1.3775  2.1214  0.0974
  510MOL0     H70345   5.831   4.615   0.290 -0.9777 -1.8318  3.0206
  510MOL0     H70346   6.014   4.475   0.370  2.4580 -2.1155 -1.6651
  510MOL0     H70347   6.017   4.517   0.198 -2.9671  0.6167  0.0367
  510MOL0     H70348   6.161   4.634   0.451 -2.1912  0.0191 -0.6446
  510MOL0     H70349   6.183   4.722   0.304  0.7131  0.1943  2.6407
  510MOL0     H70350   6.271   4.538   0.190 -1.1730 -0.3179 -0.6830
  510MOL0     H70351   6.243   4.424   0.331  1.6823 -0.5789  0.1193
  510MOL0     H70352   6.442   4.671   0.279 -3.8977 -0.4103 -1.8092
  510MOL0     H70353   6.428   4.605   0.447 -0.4457 -1.0933  0.3115
  510MOL0     H70354   6.505   4.458   0.195 -0.8884 -3.4798  0.8081
  510MOL0     H70355   6.485   4.387   0.353  0.3675 -0.0053 -0.7220
  510MOL0     H70356   6.641   4.508   0.469 -0.8136 -4.2320  0.9401
  510MOL0     H70357   6.689   4.597   0.317 -2.4384  0.6284 -1.7370
  510MOL0     H70358   6.702   4.292   0.307  1.5502 -1.3246 -1.0816
  510MOL0     H70359   6.834   4.388   0.388 -0.2819 -0.9527  1.0426
  510MOL0     H70360   5.722   4.817   0.383 -2.8063  0.9721  0.8701
  510MOL0     H70361   5.562   4.998   0.337  0.9214 -0.3427  0.8484
  510MOL0     H70362   5.372   5.262   0.013  2.4330 -0.6012  0.4039
  510MOL0     H70363   5.173   5.387   0.001 -0.0558 -1.5639  1.4285
  510MOL0     H70364   5.733   6.834  -0.108 -2.0109 -1.0145 -0.2205
  510MOL0     H70365   5.918   6.895  -0.002 -1.5664 -1.1673 -1.7771
  510MOL0     H70366   6.035   7.365   0.412 -0.9605 -0.4720  0.6632
  510MOL0     H70367   6.168   7.384   0.617  0.5993 -1.2586  1.2574
  510MOL0     H70368   6.390   7.013   0.796  0.7893  0.1008  1.3849
  510MOL0     H70369   6.351   7.113   0.938  0.7603 -1.4971  0.6364
  510MOL0     H70370   6.222   6.911   0.923  1.1202  0.3803 -0.0899
  510MOL0     H70371   6.134   6.951   0.775  0.4745 -3.0314  1.8671
  510MOL0     H70372   6.084   7.184   0.891  1.8617 -0.5296 -0.9409
  510MOL0     H70373   5.996   7.028   0.902  1.3874 -0.6965 -0.3788
  510MOL0     H70374   6.026   7.171   1.120  0.6295  0.5687  0.1194
  510MOL0     H70375   6.194   7.171   1.109 -0.9501  2.1516 -2.9189
  510MOL0     H70376   6.196   6.791   1.260 -0.9015 -0.7157 -0.3424
  510MOL0     H70377   6.307   6.986   0.596 -1.7471 -0.7928  1.3244
  510MOL0     H70378   6.158   6.912   0.266  2.8750 -0.7542 -0.4698
  510MOL0     H70379   6.267   6.855   0.397 -0.0173  0.0619  1.2904
  510MOL0     H70380   6.092   6.833   0.404 -0.7241  1.5337  1.7960
  511MOL0     O70381   5.025   0.205   8.046 -0.4717  0.6471  1.4687
  511MOL0     C70382   4.954   0.291   8.103 -0.5028  0.4346  0.7486
  511MOL0     O70383   4.939   0.418   8.053  0.2985 -0.7549  0.7734
  511MOL0     C70384   4.987   0.450   7.926 -0.3583  0.9619 -0.3017
  511MOL0     C70385   5.057   0.569   7.912  0.8513  0.2594 -0.6461
  511MOL0     C70386   5.085   0.618   7.785 -0.7895 -0.0675  0.1883
  511MOL0     C70387   5.051   0.542   7.671 -0.4768 -0.1005 -0.7324
  511MOL0     O70388   5.082   0.575   7.535 -0.3708  0.4784 -0.3110
  511MOL0     C70389   5.194   0.671   7.519  0.1009 -0.4070  0.4325
  511MOL0     C70390   5.249   0.667   7.375  0.0974  0.2223  0.3040
  511MOL0     C70391   5.359   0.769   7.369  0.5484  0.0434  0.3960
  511MOL0     C70392   5.411   0.791   7.227 -0.1275  0.8247  0.0564
  511MOL0     C70393   5.468   0.667   7.158  0.6991  0.3028  0.0191
  511MOL0     C70394   5.547   0.702   7.035  0.3395  0.3539  0.7298
  511MOL0     C70395   5.645   0.602   6.983  0.3268 -0.4589  0.6946
  511MOL0     C70396   5.667   0.622   6.831  0.4767 -0.2685 -0.1909
  511MOL0     N70397   5.746   0.515   6.777  0.5912 -0.9314 -0.2912
  511MOL0     C70398   5.816   0.422   6.849  0.7911  0.2971  0.4377
  511MOL0     C70399   5.879   0.347   6.750  0.3199 -0.9072 -0.0958
  511MOL0     C70400   5.977   0.241   6.779  0.3610 -0.5549 -0.3780
  511MOL0     C70401   6.130   0.295   6.775  0.9325  0.0551  0.5238
  511MOL0     C70402   6.211   0.200   6.857  0.5984  0.1031  0.6249
  511MOL0     C70403   6.358   0.245   6.864 -0.5697  0.2111 -0.8192
  511MOL0     O70404   6.437   0.150   6.933  0.2921 -0.7830  0.8664
  511MOL0     C70405   6.575   0.167   6.915  0.5094 -0.9183  0.1753
  511MOL0     C70406   6.643   0.288   6.883  0.2260  0.0167 -0.0172
  511MOL0     C70407   6.781   0.291   6.877  0.7517  1.0591  0.5302
  511MOL0     C70408   6.843   0.425   6.854 -0.6359  0.8222  0.3969
  511MOL0     C70409   6.858   0.179   6.914  0.6272  0.9308  0.0671
  511MOL0     C70410   7.008   0.180   6.927  0.5400 -0.0433  0.0908
  511MOL0     O70411   7.046   0.081   7.014 -0.2552 -0.0827 -0.1900
  511MOL0     C70412   7.170   0.024   7.010 -1.1677 -0.8612 -0.4872
  511MOL0     C70413   7.173  -0.106   7.053 -1.0030 -0.2098 -0.0137
  511MOL0     C70414   7.288  -0.185   7.038 -0.0703 -1.2919 -0.2397
  511MOL0     C70415   7.410  -0.130   6.989 -0.0758  0.4022  0.5174
  511MOL0     O70416   7.532  -0.201   6.985  0.1469  0.0527  0.6600
  511MOL0     C70417   7.549  -0.291   7.098  0.9354 -0.5433  0.4892
  511MOL0     C70418   7.693  -0.283   7.139 -1.3193  0.2288  0.0958
  511MOL0     C70419   7.793  -0.343   7.038  0.5292 -0.0902  0.5519
  511MOL0     C70420   7.779  -0.500   7.022  0.7147 -1.1958 -0.3768
  511MOL0     C70421   7.895  -0.549   6.937 -0.1120 -0.3258 -0.5294
  511MOL0     C70422   7.855  -0.682   6.877  0.4060  0.9305  0.8941
  511MOL0     C70423   7.970  -0.741   6.795 -0.1060 -0.7310 -0.3459
  511MOL0     C70424   8.060  -0.830   6.879  0.2870  0.0431  0.2817
  511MOL0    Cl70425   8.182  -0.718   6.946  0.6502  0.0380 -0.5017
  511MOL0     C70426   7.405  -0.003   6.939  0.4434  0.3684  0.1332
  511MOL0     C70427   7.287   0.077   6.952  0.0785 -0.1222 -0.6283
  511MOL0     O70428   7.079   0.261   6.863  0.7723  0.6924  0.2159
  511MOL0     C70429   6.784   0.058   6.938 -0.2310  0.4638 -0.5911
  511MOL0     C70430   6.648   0.047   6.942  0.4640 -0.8589  0.2465
  511MOL0     N70431   5.855   0.406   6.627 -0.5939 -0.2473  0.0146
  511MOL0     N70432   5.778   0.505   6.644  0.1208 -0.4070  0.5879
  511MOL0     C70433   5.002   0.413   7.693 -0.0898 -0.5967  0.4951
  511MOL0     C70434   4.958   0.370   7.812 -0.1984 -0.4698  0.2507
  511MOL0     C70435   4.869   0.260   8.213  0.7845  0.6416  0.0877
  511MOL0     C70436   4.756   0.343   8.241 -1.5345 -0.3263 -0.5406
  511MOL0     C70437   4.681   0.340   8.359 -0.7290  0.2752 -0.2791
  511MOL0     C70438   4.710   0.239   8.443  0.4435 -0.5549 -0.1376
  511MOL0     O70439   4.632   0.234   8.550 -0.3741 -0.2408 -0.0665
  511MOL0     C70440   4.659   0.163   8.664  0.5359  0.1152 -0.8432
  511MOL0     C70441   4.547   0.187   8.766 -0.1762  0.9799  0.6097
  511MOL0     C70442   4.559   0.090   8.886  0.5741 -0.5687 -0.5727
  511MOL0     C70443   4.666   0.121   8.990 -0.7913 -0.7199 -0.2287
  511MOL0     C70444   4.672   0.030   9.106  0.4878  0.0330 -0.0056
  511MOL0     C70445   4.671  -0.035   9.210 -0.6540 -0.4990  1.0444
  511MOL0     C70446   4.806   0.138   8.419 -0.1815  0.4565  0.2367
  511MOL0     C70447   4.888   0.156   8.310  0.0849 -0.4599 -0.3853
  511MOL0     C70448   5.015   0.066   8.310 -1.0451 -0.2077 -0.3510
  511MOL0     H70449   5.088   0.629   7.998  0.4728  0.7842 -0.8686
  511MOL0     H70450   5.132   0.712   7.759 -0.8022 -0.5360 -1.6526
  511MOL0     H70451   5.270   0.639   7.591  1.1088  2.4323  0.7338
  511MOL0     H70452   5.172   0.774   7.545 -0.6861 -1.0832  2.7066
  511MOL0     H70453   5.282   0.566   7.349 -0.7945  0.3347 -1.4491
  511MOL0     H70454   5.168   0.689   7.305  0.1325 -1.8482 -0.4743
  511MOL0     H70455   5.321   0.862   7.412  0.8920 -1.0336  3.2752
  511MOL0     H70456   5.448   0.746   7.429  0.6470 -3.5743 -0.8422
  511MOL0     H70457   5.326   0.831   7.172  1.2442  2.8702 -0.6712
  511MOL0     H70458   5.491   0.865   7.221 -1.0226  1.6884 -1.8272
  511MOL0     H70459   5.389   0.598   7.127  0.4211 -0.3502  2.0238
  511MOL0     H70460   5.534   0.615   7.229  2.7848  1.4375 -1.0033
  511MOL0     H70461   5.470   0.731   6.964 -0.7160  1.4745  2.2670
  511MOL0     H70462   5.608   0.792   7.046  1.2265 -0.0182 -0.8402
  511MOL0     H70463   5.611   0.498   6.984  0.8528 -0.6347  1.6600
  511MOL0     H70464   5.729   0.597   7.052  2.5262 -4.0887 -1.8734
  511MOL0     H70465   5.579   0.622   6.766 -1.4750 -4.6405  2.0291
  511MOL0     H70466   5.720   0.717   6.813 -0.1672  0.9902  3.5650
  511MOL0     H70467   5.824   0.420   6.958 -0.7223 -0.7567  0.5708
  511MOL0     H70468   5.963   0.148   6.723 -1.6937 -0.8862  0.6191
  511MOL0     H70469   5.961   0.209   6.882  2.0892 -1.1663 -0.2555
  511MOL0     H70470   6.172   0.284   6.675 -0.9916 -3.7842 -0.0393
  511MOL0     H70471   6.134   0.404   6.791  0.4400  0.3248 -1.0263
  511MOL0     H70472   6.172   0.205   6.959 -3.4660  1.3946 -0.8065
  511MOL0     H70473   6.207   0.101   6.811  0.7990  0.9484 -1.2904
  511MOL0     H70474   6.403   0.261   6.765  1.2790  1.8125  0.2090
  511MOL0     H70475   6.370   0.343   6.910  0.4081 -1.1165  2.0176
  511MOL0     H70476   6.590   0.381   6.868 -0.5418 -0.4687 -0.3857
  511MOL0     H70477   6.771   0.496   6.811 -0.5601  0.2279 -0.7498
  511MOL0     H70478   6.923   0.425   6.780  0.2024  1.7488  1.2761
  511MOL0     H70479   6.891   0.469   6.941 -2.5657  2.3906  0.7340
  511MOL0     H70480   7.083  -0.146   7.098 -2.2259  1.4280 -0.9340
  511MOL0     H70481   7.264  -0.287   7.063 -0.4865 -1.3076 -0.6980
  511MOL0     H70482   7.504  -0.252   7.190 -1.0706 -1.7252  0.0745
  511MOL0     H70483   7.509  -0.391   7.075  0.9585 -0.1998 -1.1127
  511MOL0     H70484   7.724  -0.181   7.161  2.7702 -0.7563 -0.3141
  511MOL0     H70485   7.720  -0.344   7.226 -0.7171  2.8017  1.8426
  511MOL0     H70486   7.895  -0.321   7.071  0.2457 -0.0215  1.4166
  511MOL0     H70487   7.780  -0.283   6.948  0.1915 -0.6935  0.1939
  511MOL0     H70488   7.683  -0.511   6.970  0.4776  1.6729 -0.7117
  511MOL0     H70489   7.759  -0.547   7.119  1.2281 -2.7091 -0.9644
  511MOL0     H70490   7.914  -0.468   6.865 -1.1242 -0.3529 -0.8385
  511MOL0     H70491   7.980  -0.559   7.005 -0.0133 -1.3511 -0.7940
  511MOL0     H70492   7.768  -0.659   6.815  1.1858 -0.3724 -0.7364
  511MOL0     H70493   7.834  -0.759   6.952  0.4452  0.4456  0.4106
  511MOL0     H70494   8.030  -0.667   6.742  3.9583 -2.7789  0.9315
  511MOL0     H70495   7.911  -0.801   6.725  0.9636  1.1734 -3.0422
  511MOL0     H70496   8.122  -0.895   6.817  2.9003  2.3519  0.2903
  511MOL0     H70497   8.009  -0.870   6.968 -4.0760  4.7177  0.3736
  511MOL0     H70498   7.497   0.044   6.906  1.6995 -0.3044  2.4627
  511MOL0     H70499   7.295   0.180   6.919 -0.7335  0.0306 -0.3728
  511MOL0     H70500   6.839  -0.033   6.962  1.5588  1.1225 -1.9911
  511MOL0     H70501   6.611  -0.054   6.957  1.1453 -1.0868  0.3940
  511MOL0     H70502   4.993   0.352   7.604 -2.4565 -0.0456  0.3031
  511MOL0     H70503   4.882   0.296   7.836 -0.9184  0.6919  1.7098
  511MOL0     H70504   4.721   0.418   8.170  0.2675 -1.3643 -2.6491
  511MOL0     H70505   4.599   0.409   8.373  0.3735  1.4046  1.0601
  511MOL0     H70506   4.663   0.056   8.644 -2.0129 -0.6618  1.9755
  511MOL0     H70507   4.753   0.199   8.707 -0.1749 -0.1666  1.0805
  511MOL0     H70508   4.450   0.166   8.720 -0.5418 -1.8057  2.4119
  511MOL0     H70509   4.560   0.289   8.804 -3.7276  1.7651  0.0421
  511MOL0     H70510   4.465   0.097   8.942 -1.8062 -3.0785 -3.8334
  511MOL0     H70511   4.563  -0.012   8.847  1.0047 -0.6321 -0.3605
  511MOL0     H70512   4.642   0.217   9.037  1.9746  0.1252 -0.3442
  511MOL0     H70513   4.768   0.127   8.948 -1.0211 -1.4670 -0.9174
  511MOL0     H70514   4.684  -0.075   9.309 -0.3471  2.9633  2.5534
  511MOL0     H70515   4.810   0.050   8.483 -2.6399 -1.0038 -1.4485
  511MOL0     H70516   5.108   0.114   8.280  1.3434 -1.4328  4.1740
  511MOL0     H70517   5.048   0.031   8.408  2.0132  0.6946 -0.9528
  511MOL0     H70518   5.005  -0.021   8.245  0.8818 -2.2778  1.9275
  512MOL0     O70519   7.660   6.781   3.919  0.0020 -0.1185  1.1180
  512MOL0     C70520   7.559   6.719   3.950 -0.0850  1.0988  0.3686
  512MOL0     O70521   7.561   6.614   4.049 -0.3507 -0.3149  0.5785
  512MOL0     C70522   7.661   6.590   4.138 -0.3439  0.5458 -0.6494
  512MOL0     C70523   7.791   6.647   4.142 -0.6567 -0.4286  0.6648
  512MOL0     C70524   7.896   6.598   4.229  0.7333  0.3850  0.7476
  512MOL0     C70525   7.867   6.490   4.312  0.6746  0.0348 -0.0238
  512MOL0     O70526   7.965   6.442   4.400  0.2591  0.3734 -0.2487
  512MOL0     C70527   8.089   6.411   4.337  0.9437 -0.6784  0.3072
  512MOL0     C70528   8.185   6.450   4.434  0.4493 -0.2935  0.0194
  512MOL0     C70529   8.326   6.409   4.395 -0.6010  1.1040  0.3084
  512MOL0     C70530   8.423   6.396   4.516  0.0288 -0.2448 -0.1300
  512MOL0     C70531   8.572   6.421   4.472 -0.4553  0.0784  0.5560
  512MOL0     C70532   8.692   6.371   4.565 -0.0488  0.9417  0.3445
  512MOL0     C70533   8.830   6.409   4.513 -0.7469  0.1737 -0.1735
  512MOL0     C70534   8.948   6.337   4.599 -0.2734 -0.2289 -0.1687
  512MOL0     N70535   8.971   6.190   4.568 -0.0561 -0.2590 -0.9594
  512MOL0     C70536   8.921   6.082   4.642  0.1727  0.0348 -0.2771
  512MOL0     C70537   8.995   5.980   4.600  0.1139 -0.4375  0.4232
  512MOL0     C70538   8.980   5.841   4.645  0.3298  0.1707 -0.3871
  512MOL0     C70539   8.958   5.746   4.527 -0.2777  0.0712 -0.1896
  512MOL0     C70540   8.936   5.604   4.574 -0.2150  0.0677  0.5591
  512MOL0     C70541   8.873   5.519   4.459 -0.1800  0.1768  0.3696
  512MOL0     O70542   8.973   5.482   4.355 -0.1835 -0.3949  0.3125
  512MOL0     C70543   8.918   5.433   4.239 -0.7463 -0.6138 -1.5632
  512MOL0     C70544   9.011   5.374   4.151  0.4457  0.0166 -0.3981
  512MOL0     C70545   8.979   5.321   4.029 -0.1856 -0.2932 -0.7147
  512MOL0     C70546   9.085   5.241   3.948 -0.5961  0.0603  0.2850
  512MOL0     C70547   8.838   5.335   3.987 -0.7050 -0.4030 -0.3338
  512MOL0     C70548   8.793   5.303   3.853 -0.4230  0.4388  0.0637
  512MOL0     O70549   8.887   5.267   3.762 -0.7396  0.3037 -0.0404
  512MOL0     C70550   8.847   5.234   3.635 -0.6797  0.4563 -0.1453
  512MOL0     C70551   8.736   5.276   3.557 -0.6580 -0.0195  0.2684
  512MOL0     C70552   8.714   5.240   3.428  0.5635 -0.0565 -0.3130
  512MOL0     C70553   8.813   5.163   3.362 -0.4693 -0.7973  0.3106
  512MOL0     O70554   8.791   5.128   3.226 -0.4060 -0.6396 -0.2399
  512MOL0     C70555   8.840   5.223   3.140 -0.2043 -0.5785 -0.2289
  512MOL0     C70556   8.801   5.181   2.992 -0.4176  0.3168 -0.1294
  512MOL0     C70557   8.839   5.280   2.885  0.5805  1.1280  0.1156
  512MOL0     C70558   8.985   5.306   2.866  0.9367 -0.3946 -0.0262
  512MOL0     C70559   9.049   5.204   2.768 -0.9805 -0.5004 -0.9655
  512MOL0     C70560   9.001   5.227   2.620  0.0327 -0.8534  1.3219
  512MOL0     C70561   9.062   5.121   2.535 -0.5293 -0.1200  0.4474
  512MOL0     C70562   9.023   5.137   2.391  0.2601  0.2880 -0.5531
  512MOL0    Cl70563   9.144   5.030   2.312 -0.3708  0.4505  0.1092
  512MOL0     C70564   8.933   5.133   3.430  0.5809  0.2524  1.1439
  512MOL0     C70565   8.944   5.162   3.563  0.3124 -0.1333  0.0935
  512MOL0     O70566   8.674   5.310   3.831  0.5093  0.0157  0.3721
  512MOL0     C70567   8.745   5.374   4.087 -0.3657 -0.8347  0.2764
  512MOL0     C70568   8.785   5.430   4.209  0.5029  1.0022  1.0424
  512MOL0     N70569   9.079   6.015   4.493 -0.3428  0.6329 -0.5349
  512MOL0     N70570   9.060   6.140   4.482  0.0101  0.0295  0.6366
  512MOL0     C70571   7.736   6.435   4.317 -0.4587  0.7651 -0.3681
  512MOL0     C70572   7.633   6.486   4.232 -0.2078  0.3688 -0.0752
  512MOL0     C70573   7.434   6.739   3.868  0.2943 -0.1841 -0.1441
  512MOL0     C70574   7.372   6.615   3.821 -0.2978 -0.3164  0.5368
  512MOL0     C70575   7.262   6.632   3.732 -0.2866  0.0246  0.3196
  512MOL0     C70576   7.210   6.755   3.697  0.3291 -0.1353 -0.4548
  512MOL0     O70577   7.122   6.765   3.595  0.1375 -0.0096  0.6557
  512MOL0     C70578   6.981   6.729   3.626  0.3301 -0.1105 -0.2541
  512MOL0     C70579   6.916   6.824   3.721 -0.2819 -0.3331 -0.7065
  512MOL0     C70580   6.777   6.774   3.770 -0.3185 -0.4082  0.2328
  512MOL0     C70581   6.789   6.630   3.837 -0.0578 -0.4957 -0.1249
  512MOL0     C70582   6.893   6.629   3.942  0.9258  0.3383 -0.6148
  512MOL0     C70583   6.975   6.620   4.027  0.4934 -0.0024  0.0970
  512MOL0     C70584   7.271   6.866   3.741  0.0893  0.0066  0.1794
  512MOL0     C70585   7.391   6.862   3.819  0.0640 -0.6360  0.0756
  512MOL0     C70586   7.460   6.998   3.844  0.6633 -0.2736 -0.3692
  512MOL0     H70587   7.830   6.722   4.073  5.0767 -0.8290  2.9393
  512MOL0     H70588   7.992   6.648   4.226  1.0605 -0.2224  1.0675
  512MOL0     H70589   8.109   6.472   4.248  1.1624  1.3564  1.7057
  512MOL0     H70590   8.094   6.306   4.307 -2.3152 -0.2341 -2.4865
  512MOL0     H70591   8.187   6.558   4.451  1.5975 -0.2313 -0.4429
  512MOL0     H70592   8.157   6.413   4.533 -1.5490  4.4607  1.5548
  512MOL0     H70593   8.326   6.305   4.359 -1.8323  0.7630  1.2656
  512MOL0     H70594   8.373   6.476   4.323 -0.8738 -1.1982 -2.1968
  512MOL0     H70595   8.391   6.462   4.597  1.6471 -1.5914  1.6993
  512MOL0     H70596   8.425   6.292   4.552  0.3503 -0.5472 -0.9907
  512MOL0     H70597   8.584   6.529   4.459 -0.7036  0.3111  2.0913
  512MOL0     H70598   8.595   6.378   4.374  1.4271  1.7018  0.2129
  512MOL0     H70599   8.688   6.424   4.661 -0.1204 -1.5218  1.7845
  512MOL0     H70600   8.680   6.266   4.592  0.9364  0.4641 -0.9941
  512MOL0     H70601   8.847   6.516   4.525  3.4160 -0.4350  0.5979
  512MOL0     H70602   8.828   6.391   4.405 -1.0137 -0.8761 -0.0074
  512MOL0     H70603   9.043   6.387   4.579  0.2803 -1.2862 -0.2751
  512MOL0     H70604   8.941   6.348   4.707 -0.3689  1.2110 -0.3051
  512MOL0     H70605   8.848   6.072   4.721 -0.6088 -2.1449 -1.2066
  512MOL0     H70606   8.895   5.849   4.714  1.1336 -1.5356  0.8913
  512MOL0     H70607   9.068   5.817   4.705 -1.3145 -2.0493  1.3189
  512MOL0     H70608   8.876   5.788   4.467  1.0655  1.1511 -1.3481
  512MOL0     H70609   9.053   5.736   4.474  0.2406 -0.2378  0.7717
  512MOL0     H70610   9.033   5.569   4.611  1.2676  2.0910 -1.2198
  512MOL0     H70611   8.864   5.600   4.657 -0.4597  0.1000  0.3486
  512MOL0     H70612   8.825   5.427   4.494  1.6382 -0.4177  1.4473
  512MOL0     H70613   8.798   5.575   4.402 -0.1877  0.3043  0.5046
  512MOL0     H70614   9.112   5.375   4.191 -0.2365  3.5686  1.6280
  512MOL0     H70615   9.062   5.135   3.935 -1.1484  0.5007 -3.1866
  512MOL0     H70616   9.183   5.249   3.997 -1.0738  2.3219  1.0143
  512MOL0     H70617   9.092   5.279   3.846 -1.3759  0.6776  0.4558
  512MOL0     H70618   8.658   5.330   3.611  0.0867  2.6912 -1.1554
  512MOL0     H70619   8.632   5.286   3.374  1.9459  0.2435 -2.2395
  512MOL0     H70620   8.810   5.325   3.165  0.4073 -0.2636 -0.7600
  512MOL0     H70621   8.948   5.222   3.154 -0.1186 -0.0974 -0.8205
  512MOL0     H70622   8.844   5.080   2.996 -1.6032 -0.1886  3.7831
  512MOL0     H70623   8.694   5.169   2.973  0.0788 -0.2756 -3.0679
  512MOL0     H70624   8.789   5.373   2.913  2.0341  1.8300  0.4741
  512MOL0     H70625   8.795   5.253   2.788  3.0457  5.3185 -2.5203
  512MOL0     H70626   9.023   5.304   2.968 -1.9287  2.1654  1.2519
  512MOL0     H70627   8.994   5.408   2.827 -3.3303 -0.1718 -0.8905
  512MOL0     H70628   9.157   5.221   2.770 -1.0033 -0.2003  1.8856
  512MOL0     H70629   9.017   5.104   2.800 -2.2678  0.5993  1.4267
  512MOL0     H70630   9.024   5.325   2.579 -1.4234 -1.7492 -1.9720
  512MOL0     H70631   8.894   5.206   2.616  0.3177 -2.1495 -1.3841
  512MOL0     H70632   9.036   5.025   2.580 -1.1792  0.5253  1.4574
  512MOL0     H70633   9.170   5.138   2.545 -0.5126 -0.8368  1.6327
  512MOL0     H70634   9.038   5.241   2.360  1.4359  0.8321  1.6418
  512MOL0     H70635   8.924   5.093   2.377  1.0517 -1.8661  0.2574
  512MOL0     H70636   9.013   5.075   3.384 -1.2930 -2.1287  0.6714
  512MOL0     H70637   9.034   5.116   3.604  1.5667  1.8222 -0.3217
  512MOL0     H70638   8.641   5.372   4.055  0.4361 -2.5128 -2.5697
  512MOL0     H70639   8.698   5.446   4.273  0.0054 -0.5902  0.8081
  512MOL0     H70640   7.720   6.352   4.386  0.1612  0.7370 -0.2527
  512MOL0     H70641   7.538   6.434   4.229  0.3207 -0.7681  1.5260
  512MOL0     H70642   7.407   6.518   3.855  0.8419 -0.3596 -0.6696
  512MOL0     H70643   7.236   6.538   3.684  2.1400 -0.9299  0.7510
  512MOL0     H70644   6.926   6.722   3.532 -1.0319  0.6617  0.4594
  512MOL0     H70645   6.980   6.631   3.674 -1.9360  0.0367  0.0992
  512MOL0     H70646   6.912   6.919   3.665  2.9884  0.0997 -0.3967
  512MOL0     H70647   6.980   6.838   3.808 -1.0104 -0.7841 -0.0906
  512MOL0     H70648   6.737   6.846   3.842 -0.3731 -1.4084  1.2204
  512MOL0     H70649   6.708   6.764   3.686  0.1638 -2.4105  0.0342
  512MOL0     H70650   6.816   6.555   3.763 -1.1830  0.1551 -1.2449
  512MOL0     H70651   6.693   6.590   3.871 -0.5714 -0.0639 -1.0137
  512MOL0     H70652   7.050   6.630   4.103  0.3264 -2.0253  0.5634
  512MOL0     H70653   7.230   6.957   3.699 -1.4750 -1.2022 -1.0731
  512MOL0     H70654   7.533   6.989   3.926  0.5258  1.2002 -0.0411
  512MOL0     H70655   7.517   7.030   3.756 -2.1729  1.1692 -1.8427
  512MOL0     H70656   7.395   7.082   3.869  3.1475  1.7202 -0.1833
  513MOL0     O70657   2.043   6.178   7.763  0.1924 -0.0147 -0.3201
  513MOL0     C70658   1.958   6.258   7.719 -0.3028 -0.3640 -0.3648
  513MOL0     O70659   1.959   6.316   7.592 -0.5059  0.3002 -0.4571
  513MOL0     C70660   2.051   6.267   7.503 -0.0127 -0.5588 -0.0287
  513MOL0     C70661   2.167   6.345   7.483 -0.0070  0.2558  0.3258
  513MOL0     C70662   2.268   6.290   7.392  0.0361  0.4882  0.0466
  513MOL0     C70663   2.246   6.172   7.320  1.8059  1.5738 -0.5720
  513MOL0     O70664   2.335   6.150   7.221 -0.0415  0.7865 -0.3823
  513MOL0     C70665   2.374   6.008   7.194  0.1552  0.1820 -0.8608
  513MOL0     C70666   2.509   5.997   7.115  0.6677 -0.1058 -0.0093
  513MOL0     C70667   2.487   6.031   6.964  0.7257  0.1879 -0.1228
  513MOL0     C70668   2.624   6.013   6.894 -0.0539  0.0494 -0.4491
  513MOL0     C70669   2.612   6.049   6.747 -0.0344 -0.2976  0.3170
  513MOL0     C70670   2.577   5.938   6.643  0.5221  1.4446  0.4478
  513MOL0     C70671   2.539   5.989   6.500 -0.1343  0.3109  0.4046
  513MOL0     C70672   2.495   5.873   6.410 -0.4362 -0.0913  0.4630
  513MOL0     N70673   2.617   5.789   6.378  0.6859 -0.0861 -0.6243
  513MOL0     C70674   2.679   5.805   6.257  0.0152 -0.1699  0.1128
  513MOL0     C70675   2.763   5.701   6.255 -0.6918  0.1673 -0.2332
  513MOL0     C70676   2.854   5.673   6.138 -0.7014 -0.0612  0.0821
  513MOL0     C70677   2.996   5.724   6.184  0.3236 -0.0694 -0.2159
  513MOL0     C70678   3.106   5.702   6.084 -0.2433 -0.7270  1.1679
  513MOL0     C70679   3.241   5.723   6.138 -0.9840  0.2354 -0.4828
  513MOL0     O70680   3.286   5.624   6.230  0.3015  0.3733 -0.9215
  513MOL0     C70681   3.418   5.617   6.259 -0.2012  0.3401  0.5960
  513MOL0     C70682   3.456   5.491   6.302  0.2800  0.3801 -0.6121
  513MOL0     C70683   3.587   5.461   6.355  0.6326  0.0769  0.8971
  513MOL0     C70684   3.620   5.319   6.392 -0.5954 -0.2095 -0.1403
  513MOL0     C70685   3.681   5.567   6.351  0.9764  0.6541 -0.1174
  513MOL0     C70686   3.821   5.555   6.395  0.3408  0.4614  0.2491
  513MOL0     O70687   3.886   5.665   6.429 -0.3511  0.1783 -0.6947
  513MOL0     C70688   4.006   5.652   6.496  0.5517 -0.1616  0.3023
  513MOL0     C70689   4.123   5.671   6.430 -0.5186  0.5188 -0.3739
  513MOL0     C70690   4.243   5.665   6.505  0.1928 -0.5240  0.9484
  513MOL0     C70691   4.243   5.638   6.641 -0.2351 -0.7572 -1.0660
  513MOL0     O70692   4.360   5.602   6.697  0.6484 -0.3446  0.2147
  513MOL0     C70693   4.385   5.614   6.845  0.8597  0.3678 -0.2086
  513MOL0     C70694   4.366   5.757   6.904  0.2552 -0.1318 -0.1042
  513MOL0     C70695   4.330   5.748   7.058 -0.6789 -0.2147 -0.0473
  513MOL0     C70696   4.366   5.882   7.122  0.2787 -0.4009  0.0165
  513MOL0     C70697   4.294   5.904   7.258  0.2719  1.0406  0.0518
  513MOL0     C70698   4.337   5.793   7.360  0.7489  0.1650  0.7182
  513MOL0     C70699   4.294   5.817   7.497  1.2208 -0.5423  0.1533
  513MOL0     C70700   4.153   5.876   7.526 -0.2420  0.0755 -0.4876
  513MOL0    Cl70701   4.019   5.784   7.450  0.3013 -0.0924  0.0017
  513MOL0     C70702   4.116   5.634   6.705  0.4556 -0.1502 -0.2448
  513MOL0     C70703   3.998   5.637   6.630  0.0029  0.3901 -0.8524
  513MOL0     O70704   3.874   5.442   6.386  0.4542  0.4190  0.0277
  513MOL0     C70705   3.639   5.688   6.294 -0.5347  0.5187  0.7739
  513MOL0     C70706   3.513   5.722   6.250  0.4207  0.2498  0.3200
  513MOL0     N70707   2.728   5.613   6.356  0.0551  0.2643  0.9663
  513MOL0     N70708   2.652   5.673   6.436  0.2952  0.6190 -0.3307
  513MOL0     C70709   2.126   6.094   7.348  0.1405  0.3454  0.4711
  513MOL0     C70710   2.031   6.147   7.432  0.0366  0.6392 -0.7259
  513MOL0     C70711   1.845   6.271   7.815  0.0781 -0.4617  0.6951
  513MOL0     C70712   1.759   6.372   7.786 -0.1928 -0.2671  0.4995
  513MOL0     C70713   1.641   6.397   7.865  0.6228  0.7191  0.6289
  513MOL0     C70714   1.622   6.335   7.988 -0.2038  0.4344 -0.5228
  513MOL0     O70715   1.509   6.367   8.059 -0.0864  0.2212 -0.6165
  513MOL0     C70716   1.481   6.288   8.177 -0.6820 -0.1822 -0.7016
  513MOL0     C70717   1.345   6.331   8.225 -0.0351  0.1715 -1.2649
  513MOL0     C70718   1.303   6.281   8.364 -0.4411 -0.0683  0.4166
  513MOL0     C70719   1.155   6.286   8.379  0.0839  0.2824  0.3828
  513MOL0     C70720   1.115   6.265   8.512  0.1802 -0.0031  0.1473
  513MOL0     C70721   1.080   6.228   8.619 -0.5026 -0.2602 -0.6192
  513MOL0     C70722   1.720   6.241   8.021  0.3888  0.6769 -0.2609
  513MOL0     C70723   1.826   6.204   7.939  0.3200 -0.7267  0.1346
  513MOL0     C70724   1.923   6.103   8.009  0.2738 -0.0529 -0.3778
  513MOL0     H70725   2.173   6.437   7.541 -1.3206 -0.2108  1.2488
  513MOL0     H70726   2.361   6.345   7.381 -0.4712  1.6576  1.3722
  513MOL0     H70727   2.296   5.966   7.130  0.4743 -2.2295  0.2391
  513MOL0     H70728   2.389   5.954   7.288  1.6881  3.6291  1.0741
  513MOL0     H70729   2.589   6.063   7.150  0.8499 -0.6087  0.5312
  513MOL0     H70730   2.538   5.892   7.128 -1.8705 -0.5812  3.0125
  513MOL0     H70731   2.415   5.960   6.923  1.0788  1.5715 -3.4539
  513MOL0     H70732   2.448   6.133   6.957 -1.3658 -0.4443  1.3601
  513MOL0     H70733   2.705   6.067   6.944  0.3929  1.8803 -2.9648
  513MOL0     H70734   2.643   5.907   6.910 -1.3337 -0.4665 -2.0504
  513MOL0     H70735   2.710   6.087   6.716 -1.6149  4.3112  0.1362
  513MOL0     H70736   2.539   6.130   6.747  0.8978  0.5826  1.1866
  513MOL0     H70737   2.666   5.875   6.648 -0.1279  0.5789  1.9390
  513MOL0     H70738   2.484   5.891   6.677  0.3148  0.9054 -0.8354
  513MOL0     H70739   2.609   6.054   6.447 -0.3639  0.3760  0.1771
  513MOL0     H70740   2.447   6.045   6.521 -0.6767 -0.5559  0.3811
  513MOL0     H70741   2.427   5.805   6.463  2.3867 -1.2919  2.7724
  513MOL0     H70742   2.447   5.921   6.324 -1.1913  2.3852  2.1478
  513MOL0     H70743   2.667   5.881   6.181  2.4234  2.9032  2.5007
  513MOL0     H70744   2.821   5.723   6.047  0.5140 -0.2761 -0.5012
  513MOL0     H70745   2.871   5.566   6.125  1.2836  0.2753 -0.3956
  513MOL0     H70746   2.982   5.826   6.221 -0.6544  1.2498 -3.8241
  513MOL0     H70747   3.031   5.664   6.269 -0.2067 -1.9560 -1.2499
  513MOL0     H70748   3.084   5.606   6.036 -2.0162  0.6346 -0.9328
  513MOL0     H70749   3.094   5.780   6.008  4.3741  0.9246  1.8452
  513MOL0     H70750   3.314   5.730   6.057 -1.1818 -1.1272 -0.8034
  513MOL0     H70751   3.233   5.817   6.193 -3.3900 -1.0309  1.5176
  513MOL0     H70752   3.378   5.416   6.294 -0.6193  1.4049 -2.0651
  513MOL0     H70753   3.656   5.268   6.301  1.8936  0.7637  0.2328
  513MOL0     H70754   3.534   5.269   6.437 -0.2313 -0.4383  0.3066
  513MOL0     H70755   3.690   5.317   6.475  2.1149 -0.1289 -2.2845
  513MOL0     H70756   4.112   5.692   6.324 -3.1525  2.3995  0.1945
  513MOL0     H70757   4.338   5.655   6.453  0.4791 -3.2410  1.8452
  513MOL0     H70758   4.318   5.543   6.893  0.8201  0.2684 -0.4059
  513MOL0     H70759   4.487   5.580   6.867  0.1518  0.0147  2.8937
  513MOL0     H70760   4.450   5.824   6.883  1.0611 -0.4947  1.7849
  513MOL0     H70761   4.274   5.795   6.857 -1.5247 -2.1208  1.5957
  513MOL0     H70762   4.408   5.680   7.094  1.0615 -0.3483 -3.6626
  513MOL0     H70763   4.230   5.714   7.090 -1.1500  2.8555  2.1476
  513MOL0     H70764   4.345   5.973   7.065  1.8817 -0.0936 -0.1232
  513MOL0     H70765   4.473   5.900   7.134 -0.4827  5.0266  1.1484
  513MOL0     H70766   4.307   6.009   7.287 -3.7101  1.6541  0.2014
  513MOL0     H70767   4.186   5.893   7.244  0.2200  0.7522  0.6161
  513MOL0     H70768   4.444   5.772   7.355  1.5619  2.9773  3.1585
  513MOL0     H70769   4.283   5.703   7.331 -1.6271  2.0589 -1.1882
  513MOL0     H70770   4.366   5.887   7.541  0.2499  1.5556 -1.3944
  513MOL0     H70771   4.305   5.724   7.554 -0.2586 -0.0977  1.2593
  513MOL0     H70772   4.165   5.980   7.492  5.5595 -0.3799 -0.8120
  513MOL0     H70773   4.153   5.876   7.635 -0.5783 -2.8570 -0.4215
  513MOL0     H70774   4.111   5.609   6.810 -2.7802  2.3142  0.3725
  513MOL0     H70775   3.905   5.627   6.685 -1.3069  1.2036 -2.8395
  513MOL0     H70776   3.715   5.761   6.269 -2.7430  2.8526  0.4910
  513MOL0     H70777   3.497   5.823   6.214  2.3109  0.6626  0.5710
  513MOL0     H70778   2.103   6.014   7.278 -2.3094  0.8232  0.6422
  513MOL0     H70779   1.938   6.093   7.446 -0.0094 -0.0837 -3.3865
  513MOL0     H70780   1.761   6.440   7.701 -4.3601  0.1107  0.4837
  513MOL0     H70781   1.575   6.479   7.838  0.1978  0.4153  0.7420
  513MOL0     H70782   1.480   6.180   8.159  0.4634 -0.4831  0.8654
  513MOL0     H70783   1.563   6.303   8.247 -0.3609  0.2107 -1.1513
  513MOL0     H70784   1.291   6.281   8.143  1.3391 -1.3832 -1.2844
  513MOL0     H70785   1.321   6.437   8.218 -0.4946  0.0996 -0.8690
  513MOL0     H70786   1.325   6.174   8.367  0.6614  0.1371  0.1087
  513MOL0     H70787   1.355   6.334   8.444 -1.4126  0.5540  0.6483
  513MOL0     H70788   1.099   6.211   8.322  1.3706 -1.8073  1.7495
  513MOL0     H70789   1.108   6.382   8.354 -0.5175 -0.0379  0.2519
  513MOL0     H70790   1.047   6.200   8.717 -4.7899 -1.5702 -2.2189
  513MOL0     H70791   1.718   6.199   8.121  0.9526  0.4453 -0.3459
  513MOL0     H70792   2.018   6.147   8.041 -1.2168  1.6377  2.0514
  513MOL0     H70793   1.872   6.064   8.098  0.2354 -1.2999 -0.9227
  513MOL0     H70794   1.937   6.013   7.948 -0.8068  0.2051 -1.0296
  514MOL0     O70795   4.714   4.529   3.528  0.4868 -0.1253 -0.0143
  514MOL0     C70796   4.826   4.565   3.542 -0.2276 -1.2932  0.2956
  514MOL0     O70797   4.903   4.625   3.447  0.2300  0.2796 -0.0309
  514MOL0     C70798   4.862   4.624   3.311 -0.7296  0.6557 -0.3411
  514MOL0     C70799   4.855   4.748   3.243 -0.1502  0.5815 -0.1649
  514MOL0     C70800   4.813   4.753   3.104 -0.0027 -0.2490 -0.8651
  514MOL0     C70801   4.784   4.636   3.036 -0.6621  0.4848  0.8044
  514MOL0     O70802   4.757   4.630   2.900  0.0521 -0.7150 -0.1329
  514MOL0     C70803   4.756   4.745   2.817 -0.0141 -0.0959  0.6320
  514MOL0     C70804   4.727   4.703   2.672  0.2806 -0.7255  0.1137
  514MOL0     C70805   4.612   4.598   2.663 -0.1055 -0.4808  0.1923
  514MOL0     C70806   4.596   4.570   2.516 -0.7573  0.5681  0.7197
  514MOL0     C70807   4.508   4.445   2.485 -0.0136  0.2747 -0.0296
  514MOL0     C70808   4.357   4.481   2.502 -0.5132  0.1824  0.4810
  514MOL0     C70809   4.274   4.358   2.468  0.5521 -0.0075 -0.0332
  514MOL0     C70810   4.124   4.381   2.493  0.9750 -0.4144 -0.1447
  514MOL0     N70811   4.051   4.258   2.468 -0.4031 -0.3991  0.1680
  514MOL0     C70812   3.990   4.230   2.347  0.4210  0.5069  0.0054
  514MOL0     C70813   3.961   4.103   2.356 -0.4018  0.2778 -1.3464
  514MOL0     C70814   3.868   4.025   2.256  0.2356  0.3914 -0.4221
  514MOL0     C70815   3.718   4.070   2.262  0.9994 -0.1670  0.4900
  514MOL0     C70816   3.639   4.079   2.126 -0.1172 -0.0701  0.3112
  514MOL0     C70817   3.693   4.001   2.010  0.0995 -0.5955 -0.8141
  514MOL0     O70818   3.690   3.863   2.040  1.0499 -0.2088 -0.0163
  514MOL0     C70819   3.748   3.776   1.952  1.7559 -0.0655  0.0447
  514MOL0     C70820   3.847   3.684   1.996 -1.0162 -0.7778 -0.1765
  514MOL0     C70821   3.884   3.578   1.917 -0.9320  0.0453 -0.3597
  514MOL0     C70822   3.978   3.485   1.993 -0.0496  0.0219  0.2624
  514MOL0     C70823   3.836   3.560   1.787  0.1840 -0.0127 -0.4542
  514MOL0     C70824   3.876   3.451   1.691 -0.6918 -0.3381 -0.4617
  514MOL0     O70825   3.794   3.432   1.587  0.2139  0.3352  0.7012
  514MOL0     C70826   3.827   3.332   1.502  0.2207  0.8472 -0.7979
  514MOL0     C70827   3.792   3.198   1.531 -0.0455  0.1075  0.0965
  514MOL0     C70828   3.820   3.099   1.430 -0.1576 -0.6510  0.1880
  514MOL0     C70829   3.870   3.133   1.300 -0.0590 -0.3572 -0.4993
  514MOL0     O70830   3.886   3.031   1.200  0.9114 -1.1278 -0.7297
  514MOL0     C70831   3.949   2.909   1.242 -0.5450 -0.5304  0.1503
  514MOL0     C70832   3.932   2.813   1.125 -0.1985  0.2570 -0.3477
  514MOL0     C70833   3.958   2.859   0.982 -0.8586 -0.2799  0.2131
  514MOL0     C70834   3.984   2.739   0.893 -0.3290 -0.2641 -0.7054
  514MOL0     C70835   4.027   2.795   0.758  0.6180  0.5359  0.3110
  514MOL0     C70836   4.021   2.697   0.647 -0.7010  0.8072  0.6093
  514MOL0     C70837   4.155   2.620   0.622  0.6102 -0.7073 -0.0392
  514MOL0     C70838   4.173   2.557   0.486  0.0567 -0.5153  0.0306
  514MOL0    Cl70839   4.078   2.405   0.479 -0.2053  0.0426 -0.5815
  514MOL0     C70840   3.903   3.263   1.273 -0.3146  0.2706  0.1623
  514MOL0     C70841   3.880   3.364   1.377 -0.4146 -0.6657 -0.1658
  514MOL0     O70842   3.984   3.394   1.706  0.1334 -0.1694  0.5046
  514MOL0     C70843   3.729   3.644   1.751  0.7882  0.1074  0.2861
  514MOL0     C70844   3.698   3.758   1.825  0.5238  0.5473  0.1157
  514MOL0     N70845   4.002   4.050   2.480  0.1167 -0.1034  0.0875
  514MOL0     N70846   4.064   4.143   2.540  0.2942 -0.6031  0.0124
  514MOL0     C70847   4.802   4.514   3.108 -0.3140  1.1855 -0.0999
  514MOL0     C70848   4.835   4.504   3.242  0.5742  0.3245  0.5110
  514MOL0     C70849   4.888   4.540   3.680  0.2056 -0.3188  0.6339
  514MOL0     C70850   5.020   4.553   3.710 -1.0766  0.5182  0.0522
  514MOL0     C70851   5.078   4.548   3.838  0.4849 -0.5449 -0.5076
  514MOL0     C70852   4.996   4.522   3.947 -0.6053 -0.5082  0.4170
  514MOL0     O70853   5.047   4.491   4.072  0.2068  0.3348 -0.5703
  514MOL0     C70854   5.181   4.525   4.099  0.4298 -0.2846 -0.5700
  514MOL0     C70855   5.197   4.509   4.257 -0.1508 -0.7389  0.2910
  514MOL0     C70856   5.203   4.357   4.276  0.2625 -0.6449 -0.3024
  514MOL0     C70857   5.165   4.329   4.422  0.6226  0.2108  0.2467
  514MOL0     C70858   5.273   4.378   4.503 -0.3790  0.4468 -0.2296
  514MOL0     C70859   5.368   4.423   4.565  0.5093  0.5811  0.2665
  514MOL0     C70860   4.863   4.503   3.923 -0.6224 -0.0254  0.6092
  514MOL0     C70861   4.801   4.526   3.800 -0.0668  0.1062  0.1563
  514MOL0     C70862   4.648   4.505   3.802 -0.9336  0.3471  0.2433
  514MOL0     H70863   4.881   4.844   3.286 -0.2715  1.1131 -1.2273
  514MOL0     H70864   4.807   4.851   3.059 -2.6077  0.3099  0.5168
  514MOL0     H70865   4.855   4.789   2.809  0.6907 -1.7873 -0.8074
  514MOL0     H70866   4.679   4.818   2.845 -0.4464  0.2100 -1.2085
  514MOL0     H70867   4.696   4.795   2.622 -1.9971 -0.3366  2.0460
  514MOL0     H70868   4.821   4.671   2.625  3.0593  3.0759  2.4773
  514MOL0     H70869   4.643   4.505   2.711  1.6624  0.3645  0.7908
  514MOL0     H70870   4.522   4.640   2.710  1.4195  2.1039  1.0307
  514MOL0     H70871   4.579   4.670   2.476 -0.7189  1.3370  2.5396
  514MOL0     H70872   4.688   4.525   2.476 -0.7184  1.3442 -0.1031
  514MOL0     H70873   4.536   4.377   2.566  2.0334 -0.6895 -1.4668
  514MOL0     H70874   4.537   4.417   2.383  0.2937 -0.4179  0.2445
  514MOL0     H70875   4.334   4.520   2.602  1.1015  0.7072  0.6806
  514MOL0     H70876   4.329   4.559   2.431 -1.0354 -0.8391 -0.4783
  514MOL0     H70877   4.307   4.278   2.535  0.9000  0.3039  0.1663
  514MOL0     H70878   4.288   4.333   2.362  1.4999  2.4289 -0.5462
  514MOL0     H70879   4.108   4.403   2.599 -2.1685 -1.5678 -0.2611
  514MOL0     H70880   4.073   4.459   2.435 -0.4470 -0.3747  1.0886
  514MOL0     H70881   3.962   4.301   2.271 -1.2540  1.5177  1.4988
  514MOL0     H70882   3.870   3.922   2.292 -1.6843  1.2273  2.4296
  514MOL0     H70883   3.914   4.038   2.158  0.3429  3.9524 -0.0530
  514MOL0     H70884   3.660   3.992   2.311  0.6827 -1.9485 -2.4998
  514MOL0     H70885   3.703   4.160   2.322 -0.6959  0.8032 -1.2472
  514MOL0     H70886   3.533   4.055   2.133 -0.5343  0.8987 -1.7384
  514MOL0     H70887   3.640   4.187   2.109 -1.6323  0.1134  1.2445
  514MOL0     H70888   3.625   4.022   1.926 -3.1787 -0.0631  1.7740
  514MOL0     H70889   3.796   4.028   1.986  0.1841 -0.3086 -0.1182
  514MOL0     H70890   3.878   3.701   2.099  0.0933  0.4045 -0.6614
  514MOL0     H70891   4.076   3.472   1.946 -0.1404 -0.2674  0.1458
  514MOL0     H70892   3.940   3.382   1.991  3.0991 -1.2494  0.8712
  514MOL0     H70893   3.995   3.529   2.091  3.2965 -0.4314  0.0008
  514MOL0     H70894   3.748   3.165   1.624 -0.9581 -1.1074 -0.7213
  514MOL0     H70895   3.797   2.997   1.459 -0.2508 -0.3433  1.2139
  514MOL0     H70896   4.050   2.949   1.257 -1.7308  1.7174  3.2203
  514MOL0     H70897   3.916   2.876   1.341  1.7291  0.6848  1.4108
  514MOL0     H70898   3.984   2.720   1.148 -0.3584 -0.0296 -1.1033
  514MOL0     H70899   3.824   2.793   1.128 -0.5513  1.9967 -0.3235
  514MOL0     H70900   4.049   2.919   0.972 -0.4943 -1.2590 -6.3225
  514MOL0     H70901   3.873   2.921   0.952  0.7009  1.0917 -1.6162
  514MOL0     H70902   3.909   2.660   0.887 -0.2619 -0.2978 -1.1338
  514MOL0     H70903   4.076   2.690   0.926 -0.7016 -0.3064  0.2821
  514MOL0     H70904   3.968   2.881   0.724 -2.9500 -1.2892  1.4054
  514MOL0     H70905   4.132   2.827   0.763  0.1846  1.9763  0.8021
  514MOL0     H70906   4.007   2.750   0.553 -0.0335  1.9460  1.1374
  514MOL0     H70907   3.945   2.619   0.661  0.2914 -1.0789 -3.0896
  514MOL0     H70908   4.155   2.546   0.703 -2.8255  0.2557  1.0035
  514MOL0     H70909   4.242   2.684   0.635 -0.0979  0.4985 -1.0593
  514MOL0     H70910   4.279   2.543   0.461 -0.6057  0.2869 -3.8092
  514MOL0     H70911   4.128   2.626   0.414  0.6044 -2.1652 -1.9854
  514MOL0     H70912   3.939   3.300   1.177  0.9740 -3.4219 -0.9848
  514MOL0     H70913   3.909   3.465   1.350 -3.0460  1.1612  3.0287
  514MOL0     H70914   3.677   3.625   1.658  0.5498  1.4266  0.1356
  514MOL0     H70915   3.624   3.822   1.778  1.9930  3.7501  1.8704
  514MOL0     H70916   4.776   4.430   3.045  1.5589  2.4299 -2.7019
  514MOL0     H70917   4.840   4.406   3.290  2.7332  0.1801  0.1227
  514MOL0     H70918   5.091   4.583   3.633 -0.1195  0.1705  0.7788
  514MOL0     H70919   5.185   4.560   3.853  0.2907 -1.2012  1.7809
  514MOL0     H70920   5.265   4.472   4.053  0.9994  1.4295 -1.6293
  514MOL0     H70921   5.187   4.628   4.063  1.9369 -0.5716 -1.2164
  514MOL0     H70922   5.115   4.566   4.302  1.3739  1.2793  0.6409
  514MOL0     H70923   5.287   4.557   4.296 -1.1367  0.8140  0.7443
  514MOL0     H70924   5.130   4.309   4.211 -0.0062 -0.5192 -0.0917
  514MOL0     H70925   5.308   4.328   4.258  0.2726 -0.5215 -0.4467
  514MOL0     H70926   5.146   4.222   4.435 -0.8596  0.6047  1.7166
  514MOL0     H70927   5.067   4.373   4.439 -0.9125 -2.0012 -2.1646
  514MOL0     H70928   5.446   4.477   4.614  0.5308 -0.0182  0.9170
  514MOL0     H70929   4.798   4.477   4.006 -1.1658  0.7152  0.4254
  514MOL0     H70930   4.602   4.602   3.779  1.8237  1.3920 -1.3847
  514MOL0     H70931   4.615   4.438   3.723 -0.1350  2.8960 -2.4086
  514MOL0     H70932   4.609   4.480   3.901  1.1392  1.4200  1.4179
  515MOL0     O70933   7.113   1.566   8.196 -0.6329 -0.3282 -0.0103
  515MOL0     C70934   7.179   1.465   8.156  0.8564 -1.1082 -0.6813
  515MOL0     O70935   7.137   1.363   8.077 -0.0913 -0.3110  0.0155
  515MOL0     C70936   7.015   1.380   8.016  0.1492 -0.3715 -0.3258
  515MOL0     C70937   7.011   1.424   7.886 -0.1914 -0.9113  0.3467
  515MOL0     C70938   6.886   1.441   7.825 -0.0286  0.0578  0.1053
  515MOL0     C70939   6.772   1.427   7.896 -0.0254  0.3734 -1.0241
  515MOL0     O70940   6.646   1.475   7.849  0.0989 -0.2923  1.0553
  515MOL0     C70941   6.630   1.579   7.753  0.3867  0.6846 -0.1161
  515MOL0     C70942   6.488   1.610   7.695  0.0051 -0.3333  0.1385
  515MOL0     C70943   6.429   1.489   7.634  0.3575 -0.8387  0.5510
  515MOL0     C70944   6.285   1.509   7.580  0.0919 -0.4218  0.1836
  515MOL0     C70945   6.203   1.377   7.576 -0.5862 -0.1197 -0.0442
  515MOL0     C70946   6.158   1.330   7.717  1.1613 -0.6676 -0.4867
  515MOL0     C70947   6.062   1.207   7.708 -0.6052  0.2941 -0.7389
  515MOL0     C70948   6.028   1.142   7.845  0.0235  0.0364  0.1527
  515MOL0     N70949   5.964   1.013   7.812  0.2531  0.2998  0.3976
  515MOL0     C70950   5.880   0.992   7.699  0.3581  0.8212  0.2735
  515MOL0     C70951   5.858   0.859   7.693  0.7938  0.3697  0.3631
  515MOL0     C70952   5.782   0.781   7.590 -0.1966 -0.1383  0.1850
  515MOL0     C70953   5.693   0.666   7.636  0.6015  0.6521 -1.1960
  515MOL0     C70954   5.561   0.726   7.711  0.1924  0.4912 -0.0865
  515MOL0     C70955   5.485   0.610   7.772  0.0392 -0.2210  0.8086
  515MOL0     O70956   5.542   0.572   7.895  0.1202  0.4613 -0.0744
  515MOL0     C70957   5.504   0.447   7.949 -0.9323 -0.5675 -0.4652
  515MOL0     C70958   5.604   0.390   8.028 -0.3640  0.5725  0.1583
  515MOL0     C70959   5.585   0.258   8.091 -0.2384 -0.5997  0.5409
  515MOL0     C70960   5.705   0.206   8.177  0.5303  0.6689 -1.3360
  515MOL0     C70961   5.461   0.186   8.063 -0.3230  0.4665 -0.6942
  515MOL0     C70962   5.433   0.043   8.103  0.3081  0.4190 -0.2069
  515MOL0     O70963   5.309   0.005   8.071  0.0330  0.6489  0.1540
  515MOL0     C70964   5.257  -0.125   8.091 -0.7754  0.1374 -0.6956
  515MOL0     C70965   5.306  -0.225   8.177  0.2071  0.6478 -0.5219
  515MOL0     C70966   5.219  -0.339   8.200 -0.4316 -0.3128  0.6374
  515MOL0     C70967   5.097  -0.354   8.137  0.0853  0.9620  0.1482
  515MOL0     O70968   5.011  -0.460   8.147 -0.1018  0.6706  0.2011
  515MOL0     C70969   5.073  -0.588   8.135  0.0242  0.6155 -0.3032
  515MOL0     C70970   5.099  -0.621   7.991 -0.5722  0.2545  0.5117
  515MOL0     C70971   4.968  -0.636   7.924 -0.3583 -0.0957 -0.8075
  515MOL0     C70972   4.992  -0.651   7.769 -0.0354 -0.2504  0.4385
  515MOL0     C70973   4.855  -0.640   7.687  0.9629  0.0505  0.4617
  515MOL0     C70974   4.765  -0.762   7.720 -0.2807 -0.9669 -0.1479
  515MOL0     C70975   4.634  -0.747   7.656 -0.9581  0.0595  0.5396
  515MOL0     C70976   4.527  -0.700   7.755  1.3189  0.4135  0.9088
  515MOL0    Cl70977   4.403  -0.590   7.682 -0.3470 -0.1958 -0.1538
  515MOL0     C70978   5.056  -0.251   8.055 -0.5649  0.4810  0.1295
  515MOL0     C70979   5.134  -0.143   8.034 -0.2421  0.3487 -0.1262
  515MOL0     O70980   5.521  -0.033   8.134 -0.3962  0.4771  0.2301
  515MOL0     C70981   5.360   0.264   7.998  1.0225 -0.0185  0.1743
  515MOL0     C70982   5.382   0.387   7.940 -0.3901  0.0147  0.3626
  515MOL0     N70983   5.928   0.802   7.803  0.1647  0.2826 -0.2224
  515MOL0     N70984   5.987   0.892   7.879  0.6062  0.6389  0.0718
  515MOL0     C70985   6.774   1.365   8.022  0.1135 -0.7292 -0.4359
  515MOL0     C70986   6.898   1.328   8.073 -0.1571 -0.2661 -0.2724
  515MOL0     C70987   7.313   1.459   8.196 -0.7654 -0.4203  0.6599
  515MOL0     C70988   7.395   1.351   8.184 -0.2824  1.0269 -0.0714
  515MOL0     C70989   7.526   1.338   8.244 -0.3379  0.4639 -0.1300
  515MOL0     C70990   7.583   1.441   8.312 -0.3581 -0.0840 -1.1701
  515MOL0     O70991   7.718   1.423   8.344 -0.6728  0.0317 -0.0641
  515MOL0     C70992   7.778   1.540   8.393  0.1627 -0.1605 -0.7008
  515MOL0     C70993   7.919   1.521   8.438  0.1958  0.5178 -0.1554
  515MOL0     C70994   8.022   1.518   8.319  0.2954  0.5091 -0.3527
  515MOL0     C70995   8.162   1.496   8.369 -0.3308 -0.0921 -1.1877
  515MOL0     C70996   8.193   1.365   8.420  0.3292  1.1782  0.1426
  515MOL0     C70997   8.218   1.260   8.482 -0.3727  0.8883 -0.4239
  515MOL0     C70998   7.504   1.554   8.321 -0.4685 -1.2114  0.0703
  515MOL0     C70999   7.381   1.566   8.256 -0.8147  0.1114 -0.0681
  515MOL0     C71000   7.331   1.709   8.288  0.3963  0.6131  0.3430
  515MOL0     H71001   7.103   1.456   7.836  1.7702  0.0931  4.2027
  515MOL0     H71002   6.884   1.474   7.721 -2.8181  1.0022  0.3743
  515MOL0     H71003   6.705   1.568   7.674  1.4225 -0.3245  0.9695
  515MOL0     H71004   6.654   1.667   7.813  0.9276  0.3998  0.0972
  515MOL0     H71005   6.432   1.640   7.784  2.2063 -1.0668  1.8657
  515MOL0     H71006   6.493   1.693   7.625 -1.2171 -1.1189 -0.9174
  515MOL0     H71007   6.496   1.455   7.554 -0.1650 -0.2073 -0.1734
  515MOL0     H71008   6.422   1.411   7.710 -0.7286 -3.8388 -2.3918
  515MOL0     H71009   6.239   1.572   7.657  0.2416  2.0399 -1.6050
  515MOL0     H71010   6.273   1.572   7.491 -1.3630 -1.8686 -0.6935
  515MOL0     H71011   6.258   1.301   7.521  1.0615  2.1644 -1.7696
  515MOL0     H71012   6.111   1.390   7.519 -0.0507 -1.4435 -1.2479
  515MOL0     H71013   6.242   1.300   7.781  1.7121  2.3905  0.3978
  515MOL0     H71014   6.110   1.413   7.770 -0.7615 -0.7280 -2.0079
  515MOL0     H71015   6.107   1.135   7.641  3.6906  0.9784  1.1112
  515MOL0     H71016   5.974   1.255   7.662  0.8944  2.8091 -1.1803
  515MOL0     H71017   6.120   1.129   7.903 -0.0794  0.1430  0.3429
  515MOL0     H71018   5.960   1.205   7.903 -0.8522  0.3868 -1.2224
  515MOL0     H71019   5.858   1.071   7.628 -0.2937  0.3607 -0.0530
  515MOL0     H71020   5.857   0.734   7.525 -0.1728  3.6927 -2.9637
  515MOL0     H71021   5.736   0.840   7.510  2.1328  0.7366 -0.6066
  515MOL0     H71022   5.669   0.597   7.554  1.6115 -1.2942  0.0601
  515MOL0     H71023   5.743   0.612   7.717 -1.3131  1.8353  0.8901
  515MOL0     H71024   5.580   0.798   7.790 -1.7031  1.8201 -0.7821
  515MOL0     H71025   5.499   0.782   7.641  0.3850  0.0035 -0.6595
  515MOL0     H71026   5.387   0.649   7.797 -0.4255 -0.6422 -0.2827
  515MOL0     H71027   5.474   0.533   7.695  2.5824  0.2628 -0.1476
  515MOL0     H71028   5.696   0.446   8.043  0.4074 -0.4655 -0.6033
  515MOL0     H71029   5.790   0.161   8.125  0.8908 -1.2131  0.7557
  515MOL0     H71030   5.672   0.124   8.242 -0.2626  2.6585  0.8869
  515MOL0     H71031   5.743   0.283   8.244  1.1958 -1.8233  1.3814
  515MOL0     H71032   5.406  -0.225   8.220  0.4982 -0.9260 -1.1341
  515MOL0     H71033   5.255  -0.416   8.267 -1.1128 -0.3687  0.9446
  515MOL0     H71034   5.167  -0.601   8.189 -0.9194 -1.9387  0.8822
  515MOL0     H71035   5.013  -0.669   8.179  1.8570 -0.7124 -0.1277
  515MOL0     H71036   5.153  -0.539   7.943 -0.2001  0.8534  1.9197
  515MOL0     H71037   5.148  -0.717   7.974 -0.3732  0.6764 -1.5906
  515MOL0     H71038   4.910  -0.546   7.946 -1.4046 -0.9235 -0.0618
  515MOL0     H71039   4.921  -0.730   7.952  1.8758 -1.3725 -1.1001
  515MOL0     H71040   5.038  -0.748   7.748  1.0793 -0.3460  2.9649
  515MOL0     H71041   5.056  -0.579   7.717  0.7507 -2.9542 -2.6362
  515MOL0     H71042   4.815  -0.542   7.711  1.8179  0.0555  1.9622
  515MOL0     H71043   4.877  -0.660   7.581 -0.3352 -1.7196  0.4730
  515MOL0     H71044   4.758  -0.767   7.829  2.0008  0.2333  0.1223
  515MOL0     H71045   4.808  -0.853   7.678  0.7011 -1.5541  2.0208
  515MOL0     H71046   4.606  -0.841   7.607  4.9285 -1.2708 -1.0899
  515MOL0     H71047   4.648  -0.674   7.576 -0.1043 -1.9144 -1.1911
  515MOL0     H71048   4.574  -0.653   7.842  2.0848  3.7641 -1.1535
  515MOL0     H71049   4.477  -0.794   7.781 -0.3293  0.5715 -1.4071
  515MOL0     H71050   4.951  -0.253   8.029 -0.7112 -0.7618  0.7418
  515MOL0     H71051   5.083  -0.067   7.975  0.1821  0.9800  0.2989
  515MOL0     H71052   5.260   0.222   8.001  1.5973 -1.3911  2.9218
  515MOL0     H71053   5.302   0.436   7.886 -0.6700 -1.1102 -0.2628
  515MOL0     H71054   6.679   1.355   8.072 -0.5429  0.8715 -1.2810
  515MOL0     H71055   6.911   1.280   8.170  0.6998 -1.8479 -1.1327
  515MOL0     H71056   7.361   1.261   8.132  1.6264 -0.2188  0.6944
  515MOL0     H71057   7.567   1.238   8.233 -3.1758 -0.9284  0.9456
  515MOL0     H71058   7.777   1.613   8.312 -1.1957 -1.3203 -1.7853
  515MOL0     H71059   7.726   1.586   8.477  2.8644  2.1891 -0.1352
  515MOL0     H71060   7.913   1.420   8.480 -1.3321  0.9141  0.6754
  515MOL0     H71061   7.945   1.607   8.500  1.2234 -0.1741  0.4025
  515MOL0     H71062   8.001   1.449   8.237  0.1553  1.2506 -0.9544
  515MOL0     H71063   8.030   1.615   8.270  3.7167  0.0718 -0.8813
  515MOL0     H71064   8.180   1.566   8.452 -1.9789 -0.4268 -0.5016
  515MOL0     H71065   8.228   1.521   8.285 -2.1727 -0.5559 -2.8317
  515MOL0     H71066   8.236   1.168   8.534  1.9099  1.5533  0.0705
  515MOL0     H71067   7.545   1.633   8.383  3.1672 -2.4678 -0.4601
  515MOL0     H71068   7.277   1.749   8.202 -1.4224  0.4572  1.3660
  515MOL0     H71069   7.259   1.679   8.365  1.3705  2.7184  2.1851
  515MOL0     H71070   7.403   1.780   8.329  1.4874 -0.3489  0.1456
  516MOL0     O71071   0.188   2.113   3.932 -0.2426  0.1301  0.6228
  516MOL0     C71072   0.085   2.101   3.996  0.3332  1.3021  0.2002
  516MOL0     O71073   0.044   1.987   4.056 -0.0900  0.1040 -0.3468
  516MOL0     C71074   0.120   1.878   4.051  0.1121  1.0564  0.0765
  516MOL0     C71075   0.052   1.759   4.022 -0.9948  0.9563  0.3907
  516MOL0     C71076   0.121   1.638   4.006 -0.0249 -0.1269  0.4933
  516MOL0     C71077   0.258   1.630   4.034 -0.7246  0.6752  0.2664
  516MOL0     O71078   0.311   1.510   4.007  0.3879 -0.1355  0.5176
  516MOL0     C71079   0.437   1.468   4.062  0.3844  0.0143  0.1785
  516MOL0     C71080   0.472   1.353   3.976 -0.1388  0.3173 -0.4296
  516MOL0     C71081   0.608   1.288   4.013 -0.6428  0.1072 -0.6862
  516MOL0     C71082   0.717   1.379   3.970 -0.4273  0.2653  0.2284
  516MOL0     C71083   0.856   1.326   3.975 -0.7150 -0.6757  0.3006
  516MOL0     C71084   0.951   1.415   3.882 -0.4822 -0.1702  1.0532
  516MOL0     C71085   1.081   1.343   3.848  0.6269 -0.3297  0.0974
  516MOL0     C71086   1.177   1.329   3.966 -1.0597 -0.9447 -0.6907
  516MOL0     N71087   1.313   1.266   3.923  0.0602 -0.0153 -0.1661
  516MOL0     C71088   1.401   1.334   3.844  0.8793 -0.0846  0.5119
  516MOL0     C71089   1.503   1.250   3.809  1.2041 -0.1220 -0.1453
  516MOL0     C71090   1.626   1.281   3.733 -0.1237 -0.0573 -0.3743
  516MOL0     C71091   1.734   1.357   3.818 -1.1965 -0.4348  0.5346
  516MOL0     C71092   1.848   1.415   3.728 -0.0856 -0.4576  0.4656
  516MOL0     C71093   1.984   1.444   3.792  0.0301 -0.2725  0.3969
  516MOL0     O71094   2.087   1.427   3.691  1.0622 -0.5423 -0.3829
  516MOL0     C71095   2.213   1.476   3.711  1.1725 -0.0017  0.0961
  516MOL0     C71096   2.259   1.547   3.825  0.2090  0.6192  0.4491
  516MOL0     C71097   2.382   1.605   3.838 -0.2710  0.3173 -0.3262
  516MOL0     C71098   2.415   1.700   3.951 -0.4635 -0.1155  0.5748
  516MOL0     C71099   2.473   1.591   3.726 -0.1529  0.5525 -0.0981
  516MOL0     C71100   2.615   1.629   3.724 -0.9598 -0.2671  0.0079
  516MOL0     O71101   2.693   1.597   3.613 -0.6072 -0.1172 -0.3061
  516MOL0     C71102   2.818   1.649   3.607 -0.6571 -0.4323  0.3157
  516MOL0     C71103   2.850   1.765   3.549 -0.4762 -0.3286 -0.7978
  516MOL0     C71104   2.984   1.792   3.518 -0.6193 -0.5636  0.1133
  516MOL0     C71105   3.089   1.715   3.567  0.1176  0.5186 -0.2503
  516MOL0     O71106   3.213   1.750   3.539 -0.1913  0.7402 -0.3957
  516MOL0     C71107   3.322   1.671   3.594 -0.1331  0.2575 -0.2538
  516MOL0     C71108   3.460   1.739   3.571  0.2642  0.1618 -0.3598
  516MOL0     C71109   3.513   1.774   3.423 -0.2234  0.7132 -1.4916
  516MOL0     C71110   3.556   1.920   3.407  0.3904 -1.7746  0.1356
  516MOL0     C71111   3.444   2.013   3.421  1.4666 -0.3554 -0.4770
  516MOL0     C71112   3.480   2.159   3.434  0.3841 -0.1043  0.6044
  516MOL0     C71113   3.549   2.214   3.309  0.3132 -0.0865 -0.4937
  516MOL0     C71114   3.516   2.370   3.283  0.6205  0.8138 -0.6460
  516MOL0    Cl71115   3.341   2.423   3.269  0.0673  0.1991 -0.0181
  516MOL0     C71116   3.058   1.592   3.630  0.3670 -0.7675  0.4618
  516MOL0     C71117   2.922   1.567   3.650  0.2977 -0.2764  0.0251
  516MOL0     O71118   2.661   1.690   3.822  0.2981 -0.2654 -0.4683
  516MOL0     C71119   2.416   1.531   3.611  0.0421  0.9510 -0.1176
  516MOL0     C71120   2.293   1.474   3.599 -0.8961 -0.3149 -0.1543
  516MOL0     N71121   1.465   1.127   3.870 -0.4664 -0.0575  0.0976
  516MOL0     N71122   1.350   1.137   3.935  0.2822  0.5975 -0.3073
  516MOL0     C71123   0.327   1.751   4.053  0.5216 -0.6916 -0.3756
  516MOL0     C71124   0.258   1.872   4.066 -0.2212 -0.0295  0.1021
  516MOL0     C71125  -0.003   2.220   4.014 -0.5753 -0.4674 -0.3645
  516MOL0     C71126  -0.102   2.209   4.111  0.6891 -0.5500 -0.4638
  516MOL0     C71127  -0.192   2.307   4.142  0.1365  0.0424 -0.0534
  516MOL0     C71128  -0.181   2.431   4.079 -0.1286 -0.4061  0.2548
  516MOL0     O71129  -0.274   2.534   4.089 -0.1677  0.3604 -0.0036
  516MOL0     C71130  -0.386   2.504   4.174  0.0307 -0.1461 -2.0047
  516MOL0     C71131  -0.463   2.628   4.211 -0.1328 -0.8187  0.3596
  516MOL0     C71132  -0.527   2.610   4.356 -0.0622 -0.0328  1.2203
  516MOL0     C71133  -0.626   2.723   4.383 -0.3755  0.0140 -0.5401
  516MOL0     C71134  -0.565   2.848   4.405 -0.4836 -0.1215 -0.4138
  516MOL0     C71135  -0.510   2.951   4.435  0.1339 -0.7170 -0.2021
  516MOL0     C71136  -0.074   2.452   3.992  0.2482 -0.8651  0.3909
  516MOL0     C71137   0.008   2.348   3.954  0.4073  0.4561  0.5668
  516MOL0     C71138   0.097   2.380   3.844  0.2040 -0.7305  0.1747
  516MOL0     H71139  -0.055   1.763   4.003 -0.4534  2.6629 -2.9220
  516MOL0     H71140   0.067   1.553   3.966  3.2206 -1.2005 -2.0417
  516MOL0     H71141   0.443   1.448   4.169 -0.6505 -1.6713 -0.0464
  516MOL0     H71142   0.510   1.549   4.047 -1.9658  2.7828  2.4943
  516MOL0     H71143   0.395   1.282   4.007  1.7636 -1.2273  1.0941
  516MOL0     H71144   0.463   1.374   3.869 -0.4380 -1.6951 -0.8360
  516MOL0     H71145   0.622   1.269   4.120 -0.8527  0.8699 -0.5161
  516MOL0     H71146   0.612   1.192   3.960 -2.2870 -0.9437  0.9823
  516MOL0     H71147   0.699   1.422   3.871  2.6842  0.1196 -0.5288
  516MOL0     H71148   0.716   1.461   4.043  1.0788  0.4286  0.1007
  516MOL0     H71149   0.861   1.223   3.939  0.5894 -0.0799 -1.3537
  516MOL0     H71150   0.884   1.318   4.080  3.1796 -3.4536 -0.7285
  516MOL0     H71151   0.889   1.437   3.794 -1.6324 -2.4124  1.2352
  516MOL0     H71152   0.974   1.515   3.921 -0.9969 -0.0876  1.1612
  516MOL0     H71153   1.129   1.401   3.768 -1.2019 -1.5866 -2.0211
  516MOL0     H71154   1.046   1.250   3.802  1.3141  0.4980 -2.2300
  516MOL0     H71155   1.195   1.432   3.998 -0.7225 -0.8758 -1.0915
  516MOL0     H71156   1.133   1.282   4.055 -0.2126  0.9307  0.7956
  516MOL0     H71157   1.401   1.441   3.825  1.2969 -0.1037  0.3968
  516MOL0     H71158   1.593   1.347   3.653 -2.1041 -1.4494 -0.7751
  516MOL0     H71159   1.668   1.185   3.701  0.9894 -0.1214  1.1249
  516MOL0     H71160   1.680   1.434   3.874 -2.0391  1.8558 -3.0864
  516MOL0     H71161   1.786   1.288   3.885 -0.6839  0.1427  0.7367
  516MOL0     H71162   1.869   1.327   3.666  2.9164  1.3819 -1.3995
  516MOL0     H71163   1.818   1.512   3.686  2.1523  1.8560  3.7111
  516MOL0     H71164   1.984   1.549   3.821 -0.7159 -0.1241 -0.1059
  516MOL0     H71165   1.992   1.387   3.885  2.0699 -1.3958 -0.3992
  516MOL0     H71166   2.198   1.565   3.913  1.7105 -1.5452  2.0255
  516MOL0     H71167   2.498   1.657   4.009  2.3465  0.6732 -2.5528
  516MOL0     H71168   2.329   1.729   4.011  0.3705 -0.7945  2.1662
  516MOL0     H71169   2.450   1.792   3.904  1.0384 -1.2395 -0.6346
  516MOL0     H71170   2.777   1.839   3.517  0.8783  1.0835 -0.7881
  516MOL0     H71171   2.998   1.886   3.466  0.1926 -1.1798 -0.8173
  516MOL0     H71172   3.317   1.664   3.703 -0.5677 -0.6560 -0.3272
  516MOL0     H71173   3.338   1.570   3.555  1.8588  0.2097  0.5396
  516MOL0     H71174   3.459   1.826   3.636  0.5077 -0.2119  0.1515
  516MOL0     H71175   3.525   1.671   3.628 -1.2467 -0.7757  0.3039
  516MOL0     H71176   3.432   1.750   3.353 -0.7386 -1.7568 -0.1556
  516MOL0     H71177   3.597   1.709   3.400  0.9763  2.0097 -0.8982
  516MOL0     H71178   3.584   1.934   3.302 -0.0600  0.3019  0.2600
  516MOL0     H71179   3.647   1.943   3.463  0.5107 -1.4431 -0.1915
  516MOL0     H71180   3.372   1.993   3.341  1.8820  1.3521 -1.3380
  516MOL0     H71181   3.383   1.998   3.510 -0.2491 -1.6140 -1.8042
  516MOL0     H71182   3.540   2.179   3.524 -0.0294  2.2223  0.4285
  516MOL0     H71183   3.388   2.213   3.459 -0.9687 -1.7533 -0.6292
  516MOL0     H71184   3.518   2.150   3.226 -1.0313  2.4655 -2.0771
  516MOL0     H71185   3.657   2.204   3.324  0.5533  2.5996  0.0893
  516MOL0     H71186   3.563   2.405   3.191 -1.4022 -0.0743 -2.1123
  516MOL0     H71187   3.567   2.428   3.360  0.5181 -1.5314  1.3198
  516MOL0     H71188   3.117   1.509   3.667 -1.1201 -2.0689  0.0110
  516MOL0     H71189   2.898   1.470   3.693  0.5292  0.7699  2.7421
  516MOL0     H71190   2.479   1.541   3.523  0.4040  1.0583  0.1473
  516MOL0     H71191   2.252   1.435   3.507 -0.0201  0.5158 -0.9211
  516MOL0     H71192   0.435   1.765   4.062  0.5299 -0.8464 -0.2330
  516MOL0     H71193   0.311   1.967   4.072  1.9400 -1.1137 -0.6128
  516MOL0     H71194  -0.129   2.118   4.163 -1.6659  1.0380  1.3048
  516MOL0     H71195  -0.259   2.277   4.221  1.2729  0.3930  1.0694
  516MOL0     H71196  -0.454   2.431   4.130  0.1026 -2.2041  1.0211
  516MOL0     H71197  -0.351   2.471   4.273  0.3956  0.4136 -1.9403
  516MOL0     H71198  -0.543   2.658   4.142  0.4265 -2.2146 -0.9425
  516MOL0     H71199  -0.391   2.710   4.210 -0.4469 -0.5346  0.4665
  516MOL0     H71200  -0.583   2.515   4.358 -3.1719  1.6248 -0.2572
  516MOL0     H71201  -0.450   2.601   4.434 -1.5472 -2.7434  2.5482
  516MOL0     H71202  -0.672   2.698   4.479  1.9053  2.6005  1.3813
  516MOL0     H71203  -0.712   2.734   4.316 -1.1033 -3.4784 -0.3722
  516MOL0     H71204  -0.469   3.049   4.449  0.5081 -1.2224  2.6306
  516MOL0     H71205  -0.073   2.547   3.940  0.5948  0.3420  2.5164
  516MOL0     H71206   0.092   2.294   3.777 -2.3526 -1.1024  0.7473
  516MOL0     H71207   0.066   2.470   3.790  1.9723 -1.6153 -2.5428
  516MOL0     H71208   0.203   2.392   3.870 -0.4595  2.4317  1.9731
  517MOL0     O71209   9.655   2.201  11.459  0.0614  0.0381  0.1552
  517MOL0     C71210   9.536   2.229  11.443  0.3624 -0.1071  0.9676
  517MOL0     O71211   9.500   2.356  11.395  0.1916 -0.3320 -0.6671
  517MOL0     C71212   9.598   2.458  11.386  0.1692 -0.2834 -1.0037
  517MOL0     C71213   9.715   2.450  11.324  0.3490 -0.3371  0.2735
  517MOL0     C71214   9.808   2.552  11.314 -0.3225 -0.4439 -0.1396
  517MOL0     C71215   9.777   2.682  11.374 -0.4129  0.3193 -0.3911
  517MOL0     O71216   9.843   2.808  11.366 -0.2782  0.3033 -0.2460
  517MOL0     C71217   9.909   2.806  11.240  1.0922  0.4390 -0.6563
  517MOL0     C71218   9.950   2.941  11.206 -0.1639 -1.4756  0.7617
  517MOL0     C71219   9.981   2.956  11.055 -0.4599  0.4836  0.2038
  517MOL0     C71220  10.025   3.091  11.009 -0.0550 -1.0380 -0.5692
  517MOL0     C71221   9.961   3.144  10.879  0.4389 -0.0421  0.4104
  517MOL0     C71222   9.812   3.167  10.874  0.3918  0.6801 -0.3095
  517MOL0     C71223   9.775   3.217  10.730 -0.6896  0.3562 -0.0410
  517MOL0     C71224   9.642   3.297  10.728 -0.4451  0.0925 -0.0176
  517MOL0     N71225   9.602   3.295  10.590 -0.3176  0.0315 -1.1236
  517MOL0     C71226   9.667   3.359  10.495  0.1329 -0.8906  0.6795
  517MOL0     C71227   9.581   3.355  10.392 -0.6982  0.7190  0.1264
  517MOL0     C71228   9.599   3.434  10.266 -0.2252 -0.1216 -0.0869
  517MOL0     C71229   9.566   3.578  10.288 -0.5180 -0.1203  0.0550
  517MOL0     C71230   9.653   3.653  10.387  0.1444 -0.8223 -0.4615
  517MOL0     C71231   9.806   3.656  10.360 -0.2648  0.3665 -0.4370
  517MOL0     O71232   9.879   3.713  10.467  0.4099  0.7884  0.1391
  517MOL0     C71233  10.007   3.763  10.437  0.8067  0.4684 -0.2993
  517MOL0     C71234  10.056   3.851  10.529 -0.8480 -0.5554  0.2965
  517MOL0     C71235  10.174   3.922  10.506  0.1373  0.7332 -0.1517
  517MOL0     C71236  10.226   4.019  10.613  0.5098  0.0621 -0.0093
  517MOL0     C71237  10.241   3.905  10.383 -1.1037  0.6025 -1.2467
  517MOL0     C71238  10.384   3.952  10.343 -0.7049 -0.2633 -0.1957
  517MOL0     O71239  10.417   3.946  10.215  0.3023  0.2609  0.6633
  517MOL0     C71240  10.556   3.951  10.181  0.6201 -0.8949  0.3258
  517MOL0     C71241  10.567   3.962  10.044  0.3738  0.1470  0.1397
  517MOL0     C71242  10.694   3.973   9.975  0.0402 -0.2530  0.6985
  517MOL0     C71243  10.807   3.970  10.059  0.4121 -0.4148 -0.4933
  517MOL0     O71244  10.924   3.964   9.996  0.0862 -0.5820 -0.5242
  517MOL0     C71245  11.049   3.950  10.068  0.2474 -0.3055 -0.6116
  517MOL0     C71246  11.157   4.024   9.987 -0.4362  0.7897 -0.2001
  517MOL0     C71247  11.296   3.942   9.965  0.4256 -0.4961 -0.2836
  517MOL0     C71248  11.265   3.818   9.880  0.1315  0.1439  0.5148
  517MOL0     C71249  11.363   3.713   9.864 -0.7907  0.6124 -0.0643
  517MOL0     C71250  11.397   3.637   9.992  0.2162 -0.3631 -0.0513
  517MOL0     C71251  11.270   3.550  10.024  0.1865  0.0590 -0.3260
  517MOL0     C71252  11.315   3.453  10.133 -0.1134  0.1238 -0.2677
  517MOL0    Cl71253  11.388   3.546  10.271 -0.4458 -0.0060 -0.0721
  517MOL0     C71254  10.792   3.946  10.200 -0.2216  0.2457 -1.0573
  517MOL0     C71255  10.672   3.947  10.258  0.3246 -0.5769  0.9535
  517MOL0     O71256  10.445   4.032  10.420  0.6125  0.4783  0.6289
  517MOL0     C71257  10.187   3.809  10.293  0.6214 -0.0409 -0.7840
  517MOL0     C71258  10.074   3.735  10.319 -0.9965  0.3352  0.0114
  517MOL0     N71259   9.481   3.268  10.426 -0.0869  0.6599 -0.2423
  517MOL0     N71260   9.494   3.232  10.551  0.2787 -0.2781  0.5932
  517MOL0     C71261   9.657   2.686  11.450  0.2360 -0.1066 -0.4199
  517MOL0     C71262   9.569   2.575  11.455  0.1657 -1.1210 -0.4477
  517MOL0     C71263   9.429   2.130  11.472 -0.9478  0.4584 -0.2447
  517MOL0     C71264   9.305   2.153  11.419 -0.1064 -0.3487  0.4106
  517MOL0     C71265   9.194   2.068  11.433 -0.0375 -0.4381 -0.2691
  517MOL0     C71266   9.210   1.952  11.510 -0.6430 -0.0989  0.3464
  517MOL0     O71267   9.120   1.853  11.550 -0.3496 -0.0716  0.7582
  517MOL0     C71268   9.000   1.832  11.468 -0.6191 -0.1937 -0.6902
  517MOL0     C71269   9.036   1.753  11.340  0.7701  0.1821 -0.7193
  517MOL0     C71270   9.100   1.622  11.368 -0.5244  0.1462  0.5363
  517MOL0     C71271   9.090   1.514  11.261 -0.5118 -0.7231  0.3452
  517MOL0     C71272   9.162   1.557  11.144  0.1898 -0.3403  0.3868
  517MOL0     C71273   9.244   1.585  11.059  0.4304  0.1353  0.3056
  517MOL0     C71274   9.339   1.927  11.561 -0.2491 -0.3471 -0.4393
  517MOL0     C71275   9.448   2.015  11.557 -0.3587  0.0829  0.4468
  517MOL0     C71276   9.580   1.998  11.627 -0.0797  0.6379 -0.9013
  517MOL0     H71277   9.742   2.356  11.277  1.4435 -1.5572  3.1463
  517MOL0     H71278   9.899   2.550  11.255  2.0009  2.2094  2.9977
  517MOL0     H71279   9.849   2.752  11.166  1.5980 -2.1311  0.6929
  517MOL0     H71280   9.999   2.749  11.260  3.4749  3.4773 -1.8739
  517MOL0     H71281   9.858   2.998  11.224  1.0976  0.8051  0.4066
  517MOL0     H71282  10.021   2.988  11.275 -0.0632  0.7019 -0.7239
  517MOL0     H71283  10.058   2.882  11.027 -1.4717 -0.3755 -0.3908
  517MOL0     H71284   9.894   2.916  11.002  0.8052 -0.3212 -1.3694
  517MOL0     H71285  10.000   3.162  11.089  2.6182  2.0289 -2.2284
  517MOL0     H71286  10.134   3.095  11.002 -0.1221  0.8213 -1.2360
  517MOL0     H71287   9.989   3.068  10.805  3.0973  0.4577  0.7914
  517MOL0     H71288  10.008   3.238  10.848 -1.5805  0.9023  0.0807
  517MOL0     H71289   9.763   3.071  10.894 -0.7027  1.0366 -1.1597
  517MOL0     H71290   9.781   3.245  10.944 -1.0039 -1.4699  1.6053
  517MOL0     H71291   9.764   3.126  10.671  1.7182 -0.2753  0.3960
  517MOL0     H71292   9.860   3.269  10.685 -0.5452 -0.4141 -0.6853
  517MOL0     H71293   9.567   3.240  10.784 -0.9421 -0.5013 -1.2459
  517MOL0     H71294   9.649   3.402  10.757 -2.1289  0.2350 -0.0462
  517MOL0     H71295   9.759   3.417  10.501  2.2103 -3.3851 -3.1057
  517MOL0     H71296   9.537   3.398  10.183 -3.0183 -0.8247  2.1701
  517MOL0     H71297   9.698   3.426  10.220 -1.5197 -1.4703 -2.9144
  517MOL0     H71298   9.579   3.639  10.199 -1.9319  1.0707  0.6270
  517MOL0     H71299   9.460   3.600  10.307 -0.4031 -0.1442  0.7442
  517MOL0     H71300   9.608   3.753  10.384 -2.5511 -1.9708 -1.3101
  517MOL0     H71301   9.645   3.612  10.488  1.8861 -0.7086 -0.2448
  517MOL0     H71302   9.842   3.554  10.351 -0.7971 -0.3574  3.7185
  517MOL0     H71303   9.813   3.709  10.264 -1.2095 -0.0003 -0.7225
  517MOL0     H71304  10.012   3.872  10.626  3.6707 -0.6808  2.6316
  517MOL0     H71305  10.163   4.028  10.702 -0.2818  2.3184 -0.7069
  517MOL0     H71306  10.244   4.117  10.566 -0.4618 -0.1067 -0.7814
  517MOL0     H71307  10.320   3.975  10.645  0.6187  1.7264  2.2437
  517MOL0     H71308  10.479   3.958   9.982  0.6326 -0.8898 -0.1823
  517MOL0     H71309  10.691   3.991   9.868 -0.4352 -3.2707  0.1081
  517MOL0     H71310  11.044   3.996  10.166  1.0259  1.9698 -1.5800
  517MOL0     H71311  11.078   3.844  10.075  0.5002 -0.1511  0.9364
  517MOL0     H71312  11.122   4.043   9.885 -0.0667 -2.3097 -1.0133
  517MOL0     H71313  11.180   4.119  10.036  0.6106 -0.3457  1.6210
  517MOL0     H71314  11.325   3.904  10.063 -0.7706  0.4428  0.4676
  517MOL0     H71315  11.377   3.997   9.917  0.5721 -0.1924  0.3045
  517MOL0     H71316  11.246   3.866   9.784  1.0486 -2.7349 -1.2307
  517MOL0     H71317  11.168   3.775   9.906  0.0131  0.8502  1.2915
  517MOL0     H71318  11.330   3.645   9.786  1.8109 -0.3282 -0.4438
  517MOL0     H71319  11.453   3.767   9.831  2.1086 -1.8055  3.1649
  517MOL0     H71320  11.423   3.710  10.069 -2.4096 -0.5117  1.1078
  517MOL0     H71321  11.477   3.564   9.975 -1.9459 -3.1614  1.0049
  517MOL0     H71322  11.238   3.484   9.943  1.4550 -3.8268  2.0069
  517MOL0     H71323  11.192   3.618  10.057  0.8378  0.3431  0.7003
  517MOL0     H71324  11.393   3.384  10.098  0.4607  1.0817 -0.9418
  517MOL0     H71325  11.234   3.388  10.166  0.7400  0.4639  2.8421
  517MOL0     H71326  10.877   3.930  10.264  0.6317 -1.5651 -2.5503
  517MOL0     H71327  10.666   3.945  10.366  1.8234  3.1244  1.2605
  517MOL0     H71328  10.235   3.777  10.201  2.0464 -0.7941  0.1809
  517MOL0     H71329  10.038   3.658  10.252  0.6494 -0.2270 -0.2551
  517MOL0     H71330   9.632   2.780  11.497 -0.1429  1.6751 -3.8822
  517MOL0     H71331   9.474   2.598  11.502 -0.3683  3.3613 -3.1285
  517MOL0     H71332   9.288   2.246  11.367  2.1174  0.0925  0.3513
  517MOL0     H71333   9.102   2.087  11.379  1.7674 -0.8739 -3.7495
  517MOL0     H71334   8.932   1.779  11.535  0.7348 -1.0411  0.0756
  517MOL0     H71335   8.964   1.932  11.443  1.4201  0.4184 -1.3523
  517MOL0     H71336   9.108   1.806  11.276  2.0411 -0.5307  0.0663
  517MOL0     H71337   8.949   1.750  11.274  1.0421  3.7710 -1.4223
  517MOL0     H71338   9.201   1.646  11.403  1.0859 -0.2713 -3.2268
  517MOL0     H71339   9.056   1.583  11.460  2.9867 -2.4933  1.3188
  517MOL0     H71340   8.983   1.499  11.246 -0.6280  0.1797  0.1650
  517MOL0     H71341   9.143   1.425  11.295  0.0531 -1.4264 -2.1969
  517MOL0     H71342   9.316   1.624  10.990  1.6732 -0.0200  1.4753
  517MOL0     H71343   9.352   1.832  11.612  0.7411  0.6488  1.2792
  517MOL0     H71344   9.589   1.915  11.698  1.4473  2.9400  1.8338
  517MOL0     H71345   9.662   1.989  11.556 -1.7634  1.7389 -3.1006
  517MOL0     H71346   9.599   2.087  11.688  2.2613  0.3289 -1.0627
  518MOL0     O71347   7.314   4.364   0.292 -0.3382  0.7359  0.5693
  518MOL0     C71348   7.332   4.245   0.293 -0.0970  0.9321  0.1761
  518MOL0     O71349   7.451   4.181   0.310 -0.2616  1.1059  0.1155
  518MOL0     C71350   7.560   4.259   0.333 -0.8647  0.2784  0.4042
  518MOL0     C71351   7.639   4.312   0.226  0.1950  0.0756  0.0190
  518MOL0     C71352   7.745   4.402   0.243  0.0980 -0.1396  0.1395
  518MOL0     C71353   7.770   4.457   0.373  0.3198 -0.5538  0.0403
  518MOL0     O71354   7.871   4.546   0.408 -0.0346 -0.4956 -0.1857
  518MOL0     C71355   7.928   4.629   0.299 -0.8978 -1.0444 -1.3753
  518MOL0     C71356   8.043   4.718   0.362  0.1662  0.3215 -0.1653
  518MOL0     C71357   7.989   4.805   0.483  0.1650 -0.1473 -0.4484
  518MOL0     C71358   8.100   4.871   0.563  0.5204  0.5415 -0.3975
  518MOL0     C71359   8.039   4.929   0.702 -0.5762 -0.1201  0.3880
  518MOL0     C71360   7.964   5.060   0.698  0.0934  0.2218 -0.2685
  518MOL0     C71361   7.902   5.097   0.828  0.4066  0.1954  0.1412
  518MOL0     C71362   7.806   5.218   0.831 -0.0402 -0.5617  0.0727
  518MOL0     N71363   7.865   5.344   0.877 -0.2740 -0.2440  0.2475
  518MOL0     C71364   7.936   5.432   0.800  0.3785  0.4681 -0.5703
  518MOL0     C71365   7.946   5.538   0.881 -0.1410 -0.5476  0.2481
  518MOL0     C71366   8.023   5.667   0.863  0.1117 -0.1463  0.0633
  518MOL0     C71367   8.169   5.653   0.893  0.7638  0.7604 -0.0168
  518MOL0     C71368   8.251   5.772   0.864 -0.2362  0.3584 -1.0494
  518MOL0     C71369   8.310   5.833   1.001 -0.1977  0.4695  0.0793
  518MOL0     O71370   8.203   5.900   1.067  0.1357  0.2236  0.0084
  518MOL0     C71371   8.212   5.967   1.184  0.4655 -0.2989 -0.6340
  518MOL0     C71372   8.100   5.970   1.269 -0.0665 -0.7385 -0.4844
  518MOL0     C71373   8.107   6.036   1.400  0.1984 -0.9221  0.2036
  518MOL0     C71374   7.979   6.033   1.487 -0.6782 -0.8478 -0.0203
  518MOL0     C71375   8.223   6.108   1.429  0.5551 -0.5483 -0.2311
  518MOL0     C71376   8.237   6.197   1.545  0.0592  0.0951  0.0300
  518MOL0     O71377   8.352   6.260   1.539 -0.4970  0.3549 -0.1039
  518MOL0     C71378   8.385   6.344   1.647 -0.5581  1.1775 -0.7986
  518MOL0     C71379   8.373   6.482   1.637  0.4922  0.8701  1.3805
  518MOL0     C71380   8.405   6.560   1.745 -0.1761 -0.5219 -0.8539
  518MOL0     C71381   8.447   6.502   1.866  0.5644 -0.1500  0.5319
  518MOL0     O71382   8.458   6.564   1.985 -0.9436  0.4072  0.4296
  518MOL0     C71383   8.501   6.699   1.993  0.8321  0.3535 -0.4831
  518MOL0     C71384   8.526   6.736   2.145 -0.2571  0.0665  0.4283
  518MOL0     C71385   8.393   6.729   2.219  0.5065  0.1283  0.9513
  518MOL0     C71386   8.421   6.727   2.358  0.4530  0.1949 -0.4494
  518MOL0     C71387   8.284   6.737   2.439 -0.2514  0.2893  0.2619
  518MOL0     C71388   8.293   6.800   2.572 -0.7762 -0.3875  0.5094
  518MOL0     C71389   8.371   6.709   2.667 -1.5649  0.5002 -0.1526
  518MOL0     C71390   8.410   6.769   2.799 -0.3094  0.3271 -0.5597
  518MOL0    Cl71391   8.271   6.840   2.896  0.1044 -0.2740 -0.2346
  518MOL0     C71392   8.461   6.363   1.875 -0.0025  0.8613 -0.1826
  518MOL0     C71393   8.428   6.282   1.766 -0.2581 -0.7181 -0.8643
  518MOL0     O71394   8.152   6.200   1.634 -0.1375  0.5445  0.2402
  518MOL0     C71395   8.327   6.102   1.341 -0.5868  0.1748 -0.0992
  518MOL0     C71396   8.324   6.033   1.225 -0.0564 -0.0533  0.4923
  518MOL0     N71397   7.886   5.519   1.010 -0.5701 -0.1632  0.3523
  518MOL0     N71398   7.834   5.402   0.998  0.5279  0.1505 -0.1248
  518MOL0     C71399   7.693   4.402   0.478 -0.0898 -0.1111 -0.0008
  518MOL0     C71400   7.588   4.309   0.458  0.8846 -0.1644 -0.6724
  518MOL0     C71401   7.214   4.156   0.274 -0.5091 -0.1404 -0.6085
  518MOL0     C71402   7.128   4.192   0.172 -0.0671  0.9617  0.3707
  518MOL0     C71403   7.005   4.115   0.157 -0.3189 -0.5658 -0.1629
  518MOL0     C71404   6.991   4.000   0.228 -0.2240  0.8560 -0.3728
  518MOL0     O71405   6.885   3.911   0.203 -0.3884  0.6486  0.0991
  518MOL0     C71406   6.842   3.912   0.066  0.4483  0.5367 -0.4989
  518MOL0     C71407   6.756   3.792   0.055 -0.1503 -0.9381 -0.6276
  518MOL0     C71408   6.632   3.786   0.156 -0.9164  0.2800  0.3823
  518MOL0     C71409   6.549   3.915   0.182 -0.2857 -0.3573  0.0361
  518MOL0     C71410   6.468   3.927   0.058 -0.1733  0.0272  0.1477
  518MOL0     C71411   6.396   3.951  -0.041  0.2344  0.3127 -0.3906
  518MOL0     C71412   7.077   3.961   0.328 -0.4631  0.2360 -0.3570
  518MOL0     C71413   7.195   4.038   0.357  0.4644  0.1936 -0.0819
  518MOL0     C71414   7.285   3.995   0.471  0.1842 -0.1881 -0.3598
  518MOL0     H71415   7.617   4.272   0.128  3.2098 -0.6009 -0.4722
  518MOL0     H71416   7.804   4.436   0.159 -0.0816  1.6510  0.6833
  518MOL0     H71417   7.858   4.693   0.246 -3.0721  0.1479  2.5922
  518MOL0     H71418   7.977   4.563   0.226 -1.1809 -2.5163 -0.2910
  518MOL0     H71419   8.121   4.647   0.392 -0.2607 -0.5959 -1.1496
  518MOL0     H71420   8.085   4.786   0.288  2.6503  0.8602  1.6056
  518MOL0     H71421   7.919   4.881   0.448  1.0532  1.0604  0.3044
  518MOL0     H71422   7.931   4.734   0.543  0.7640 -3.0421 -3.0245
  518MOL0     H71423   8.178   4.797   0.583  0.7757  0.3603 -1.9584
  518MOL0     H71424   8.143   4.958   0.513  0.3121 -0.2606 -2.0307
  518MOL0     H71425   8.124   4.954   0.767 -0.5522  0.8636 -0.0002
  518MOL0     H71426   7.976   4.854   0.750 -0.1708  0.9159  2.7167
  518MOL0     H71427   8.028   5.145   0.671 -0.0389  0.4434  0.0979
  518MOL0     H71428   7.886   5.060   0.622  0.2891  1.3918 -0.4944
  518MOL0     H71429   7.986   5.121   0.894  0.0646  2.7389 -0.2403
  518MOL0     H71430   7.839   5.014   0.862 -2.6236  2.7996  1.4466
  518MOL0     H71431   7.749   5.228   0.738 -0.9170 -2.2819  0.3864
  518MOL0     H71432   7.725   5.187   0.898  0.7628 -1.0996  0.8195
  518MOL0     H71433   7.963   5.409   0.697  1.5520  3.5309 -1.0396
  518MOL0     H71434   7.976   5.745   0.923  1.4157  1.1128 -0.4988
  518MOL0     H71435   8.016   5.695   0.758  0.0660  0.7900  0.3092
  518MOL0     H71436   8.187   5.624   0.997  0.9976 -1.5227 -0.6399
  518MOL0     H71437   8.208   5.567   0.838  1.8748  1.1946  0.0443
  518MOL0     H71438   8.326   5.751   0.787  2.8905  1.5156  1.4556
  518MOL0     H71439   8.188   5.843   0.810  1.1668  1.7590 -0.9090
  518MOL0     H71440   8.362   5.761   1.063 -0.5795 -0.2285 -0.3973
  518MOL0     H71441   8.380   5.911   0.971  0.4310 -0.0884  0.0864
  518MOL0     H71442   8.017   5.903   1.250  0.2862 -1.3235 -0.0231
  518MOL0     H71443   7.994   5.972   1.577  2.7596  0.9628  0.8068
  518MOL0     H71444   7.902   5.978   1.432 -0.8135 -0.4391 -0.2413
  518MOL0     H71445   7.944   6.131   1.521  2.0818  0.5447 -0.9154
  518MOL0     H71446   8.339   6.529   1.545  0.9826  2.3133  1.9033
  518MOL0     H71447   8.397   6.668   1.738  1.0492 -0.2109  1.5865
  518MOL0     H71448   8.585   6.716   1.926 -0.1048  0.0472 -1.7766
  518MOL0     H71449   8.430   6.773   1.954  1.3526  0.9246 -0.3544
  518MOL0     H71450   8.603   6.682   2.201 -1.0230  0.0713  1.5412
  518MOL0     H71451   8.570   6.836   2.140  1.0211 -0.2762  3.0824
  518MOL0     H71452   8.324   6.651   2.186  0.8061  0.8690 -1.6496
  518MOL0     H71453   8.348   6.826   2.194  3.8855  1.6675  0.2647
  518MOL0     H71454   8.481   6.814   2.387 -0.0959  0.1591  0.8841
  518MOL0     H71455   8.474   6.636   2.387 -0.3162 -0.6653 -1.6502
  518MOL0     H71456   8.207   6.799   2.393 -3.4839 -0.9449  3.5294
  518MOL0     H71457   8.242   6.636   2.439  1.3515 -0.4463 -1.5509
  518MOL0     H71458   8.190   6.798   2.609 -1.9277 -0.5495 -2.4693
  518MOL0     H71459   8.330   6.902   2.566 -1.0306 -0.3800 -1.6928
  518MOL0     H71460   8.462   6.686   2.612 -1.3792  2.1049 -0.5506
  518MOL0     H71461   8.328   6.608   2.677 -1.6197  0.2341 -2.4925
  518MOL0     H71462   8.487   6.843   2.775 -0.3659 -0.0935 -2.2020
  518MOL0     H71463   8.457   6.687   2.854  0.0698  1.1329  0.3440
  518MOL0     H71464   8.491   6.327   1.973  0.8737 -0.1952 -0.8130
  518MOL0     H71465   8.458   6.178   1.777 -1.3788 -0.8728  1.1259
  518MOL0     H71466   8.422   6.152   1.358 -0.7642  0.6700 -0.5261
  518MOL0     H71467   8.410   6.041   1.160 -0.7095  0.6489 -0.2932
  518MOL0     H71468   7.710   4.438   0.579  0.1894 -1.7012  0.5473
  518MOL0     H71469   7.541   4.273   0.549  1.6234  0.3739 -0.0594
  518MOL0     H71470   7.138   4.285   0.119 -3.0757  1.1219 -0.1130
  518MOL0     H71471   6.929   4.148   0.087  0.7404  0.9240 -0.6718
  518MOL0     H71472   6.772   3.991   0.036 -1.7427 -0.1913  2.2145
  518MOL0     H71473   6.927   3.897  -0.000  1.0084  2.5557 -0.2842
  518MOL0     H71474   6.809   3.697   0.063  0.1890 -0.5777  2.0093
  518MOL0     H71475   6.719   3.799  -0.048 -1.1415 -2.0080 -0.3699
  518MOL0     H71476   6.564   3.707   0.124 -0.8952  0.9768 -1.5640
  518MOL0     H71477   6.668   3.756   0.255 -1.5620 -0.5857  0.3632
  518MOL0     H71478   6.613   4.001   0.203 -4.9326  3.2894  0.9931
  518MOL0     H71479   6.483   3.898   0.268 -0.7631  1.5940  0.1149
  518MOL0     H71480   6.331   3.979  -0.122 -0.3199 -0.5799 -0.2774
  518MOL0     H71481   7.062   3.868   0.381  1.0424  0.6985  0.9495
  518MOL0     H71482   7.369   3.938   0.431  1.5102  0.5204  1.2937
  518MOL0     H71483   7.324   4.084   0.522  0.2902  0.4504 -1.5334
  518MOL0     H71484   7.221   3.932   0.534 -0.9154  0.0047 -1.2612
  519MOL0     O71485   5.203   0.729   2.731 -0.0015 -0.6821  0.0240
  519MOL0     C71486   5.224   0.851   2.727 -0.3883 -0.2385 -0.7915
  519MOL0     O71487   5.342   0.909   2.718  0.1788  0.1651  0.1644
  519MOL0     C71488   5.449   0.844   2.671  0.5106  0.1079  0.0573
  519MOL0     C71489   5.503   0.733   2.733 -0.0386  0.0158 -0.0201
  519MOL0     C71490   5.629   0.685   2.689 -0.6398  0.9297 -0.4214
  519MOL0     C71491   5.691   0.735   2.583 -0.8065  0.2059  1.8996
  519MOL0     O71492   5.812   0.686   2.548  0.2509 -0.4786  0.3510
  519MOL0     C71493   5.868   0.707   2.413 -0.6677 -0.2964  0.2739
  519MOL0     C71494   5.995   0.637   2.406 -0.5707 -0.5462  0.2480
  519MOL0     C71495   6.063   0.663   2.277 -0.0547 -0.1048  0.2181
  519MOL0     C71496   6.193   0.585   2.278  0.3153  0.3180 -0.7465
  519MOL0     C71497   6.282   0.610   2.158  0.0763  0.2536  0.3850
  519MOL0     C71498   6.422   0.529   2.174  0.1762 -0.2813  0.4960
  519MOL0     C71499   6.496   0.544   2.041 -0.5194  0.5587  0.8809
  519MOL0     C71500   6.600   0.431   2.032 -0.6674  1.0482 -0.0868
  519MOL0     N71501   6.704   0.480   1.944 -0.0648  0.3361  0.0930
  519MOL0     C71502   6.810   0.557   1.986 -0.4663 -0.2112  0.5476
  519MOL0     C71503   6.891   0.562   1.875 -0.7673 -0.4397  0.6221
  519MOL0     C71504   7.025   0.617   1.872  0.8512 -0.4466 -0.4127
  519MOL0     C71505   7.051   0.709   1.997  0.5022  0.0263  0.8343
  519MOL0     C71506   6.981   0.843   1.966 -0.3567  0.2582 -0.3131
  519MOL0     C71507   6.967   0.915   2.097 -0.0657  0.6769 -0.5717
  519MOL0     O71508   6.910   0.826   2.194 -1.0818 -0.2466 -0.6412
  519MOL0     C71509   6.820   0.877   2.288 -0.0177  0.1222 -0.0803
  519MOL0     C71510   6.836   0.999   2.347 -0.3832  0.4511 -0.4387
  519MOL0     C71511   6.727   1.053   2.417 -0.1688  0.4094  0.0105
  519MOL0     C71512   6.742   1.200   2.455 -0.5302  0.0130 -0.0406
  519MOL0     C71513   6.609   0.979   2.443  0.3336  0.6974 -0.3230
  519MOL0     C71514   6.496   1.035   2.523 -0.0434  0.4316  0.0459
  519MOL0     O71515   6.386   0.954   2.539 -0.1576  0.2289 -1.0550
  519MOL0     C71516   6.284   0.992   2.612 -0.4548  0.5832  0.1342
  519MOL0     C71517   6.264   1.100   2.693 -0.6687 -0.0018  0.5640
  519MOL0     C71518   6.133   1.122   2.748 -0.0590  0.4299 -0.5129
  519MOL0     C71519   6.027   1.028   2.742 -0.9042 -0.0532  0.6934
  519MOL0     O71520   5.913   1.062   2.802 -0.0810 -0.5107 -0.3003
  519MOL0     C71521   5.794   1.077   2.723 -0.6276 -0.6030 -0.3441
  519MOL0     C71522   5.766   1.219   2.674  0.0595  0.0825 -0.0958
  519MOL0     C71523   5.664   1.292   2.769  0.1198 -0.1475  0.3811
  519MOL0     C71524   5.520   1.252   2.777 -0.0880  0.4402 -0.0361
  519MOL0     C71525   5.461   1.315   2.902  0.0961  0.0103 -0.5760
  519MOL0     C71526   5.300   1.298   2.895 -0.4400  0.1946  0.2992
  519MOL0     C71527   5.234   1.376   3.002 -0.2532 -0.3206  0.5665
  519MOL0     C71528   5.080   1.383   2.983  0.2797 -0.6339  0.0930
  519MOL0    Cl71529   4.998   1.440   3.129 -0.3845  0.2442 -0.1934
  519MOL0     C71530   6.056   0.927   2.652  0.0756  0.3718  0.7648
  519MOL0     C71531   6.180   0.906   2.593 -0.4451 -0.1857  0.1457
  519MOL0     O71532   6.514   1.143   2.578 -0.2157  0.9827  0.1368
  519MOL0     C71533   6.591   0.848   2.383 -0.9929  0.1616  0.2358
  519MOL0     C71534   6.696   0.801   2.302  0.6419 -0.5094  0.6029
  519MOL0     N71535   6.836   0.494   1.768 -0.2675  1.1244  0.5663
  519MOL0     N71536   6.718   0.454   1.807  0.0805  0.3501 -0.2715
  519MOL0     C71537   5.632   0.837   2.518 -0.3015 -0.2647  0.3182
  519MOL0     C71538   5.513   0.897   2.562  0.4139  0.0476  0.7407
  519MOL0     C71539   5.113   0.951   2.739  0.7926 -0.6663 -0.6032
  519MOL0     C71540   5.133   1.091   2.704 -0.2913  0.0064  0.0082
  519MOL0     C71541   5.036   1.186   2.727 -0.3954  0.4262 -0.0867
  519MOL0     C71542   4.908   1.153   2.761  0.4586  0.2688 -0.4941
  519MOL0     O71543   4.810   1.247   2.771  0.1461  0.4478  0.6056
  519MOL0     C71544   4.672   1.206   2.790  1.1504 -0.4873 -0.2846
  519MOL0     C71545   4.573   1.325   2.768  0.4323  0.4422 -0.9370
  519MOL0     C71546   4.588   1.428   2.880 -0.2635 -0.3099  0.3328
  519MOL0     C71547   4.519   1.407   3.018 -0.0785 -0.5152  0.3964
  519MOL0     C71548   4.587   1.503   3.116  0.7973  1.0937 -0.0071
  519MOL0     C71549   4.654   1.563   3.208  0.3804 -0.0155  0.3160
  519MOL0     C71550   4.883   1.020   2.800 -0.1692  0.6141  0.5537
  519MOL0     C71551   4.987   0.918   2.784 -0.0495 -0.3101  0.1602
  519MOL0     C71552   4.958   0.784   2.850 -0.7466 -0.2281  0.3452
  519MOL0     H71553   5.461   0.686   2.821  0.7594  2.1678  1.5918
  519MOL0     H71554   5.687   0.614   2.748 -1.9021  1.1613  1.1921
  519MOL0     H71555   5.883   0.815   2.402  0.8016 -0.6114 -1.1999
  519MOL0     H71556   5.809   0.674   2.326 -1.4288  0.2653  0.5601
  519MOL0     H71557   6.048   0.680   2.491 -0.7861  2.5744 -1.0446
  519MOL0     H71558   5.968   0.532   2.419  1.7891 -1.6296 -2.5000
  519MOL0     H71559   6.001   0.633   2.192 -0.7231 -0.9892  0.9958
  519MOL0     H71560   6.074   0.771   2.263 -1.2153  0.0735  0.6158
  519MOL0     H71561   6.261   0.603   2.362  2.8004 -1.3519 -2.2613
  519MOL0     H71562   6.173   0.477   2.281 -1.1442  0.5553 -1.1767
  519MOL0     H71563   6.304   0.716   2.144 -0.6450  0.3281 -0.2544
  519MOL0     H71564   6.229   0.575   2.069  1.4202  1.5727 -1.0031
  519MOL0     H71565   6.487   0.575   2.249  0.3394  0.5343 -0.1191
  519MOL0     H71566   6.408   0.423   2.198 -2.6038 -0.0895  0.0214
  519MOL0     H71567   6.539   0.643   2.027 -1.7380  0.7784 -2.2587
  519MOL0     H71568   6.424   0.535   1.959  1.1333 -1.8743 -0.4462
  519MOL0     H71569   6.645   0.396   2.126 -3.4666 -0.9548  0.6633
  519MOL0     H71570   6.549   0.342   1.996 -0.5312  1.3172 -0.9475
  519MOL0     H71571   6.818   0.613   2.078 -0.1064 -0.0195  0.4061
  519MOL0     H71572   7.032   0.674   1.780 -1.4225  0.8503  0.1519
  519MOL0     H71573   7.105   0.542   1.869  2.5679  1.2860  0.1789
  519MOL0     H71574   7.027   0.659   2.091 -2.7681 -0.6224 -0.2111
  519MOL0     H71575   7.160   0.721   1.992  0.7611 -1.8306  1.5772
  519MOL0     H71576   7.050   0.903   1.906  0.1145  1.5687  1.4505
  519MOL0     H71577   6.885   0.835   1.915  0.6373  0.6609 -2.3408
  519MOL0     H71578   7.068   0.939   2.132  0.0701 -0.7648  0.1403
  519MOL0     H71579   6.909   1.006   2.084 -1.9843 -0.6237 -1.6763
  519MOL0     H71580   6.924   1.061   2.331  1.9144 -1.7777  2.4574
  519MOL0     H71581   6.819   1.251   2.396 -1.4147  0.0990 -1.1565
  519MOL0     H71582   6.752   1.212   2.563 -1.0235  1.4873 -0.1354
  519MOL0     H71583   6.651   1.255   2.429  0.2865  1.2692 -0.3318
  519MOL0     H71584   6.322   1.190   2.714 -1.4733  0.6991 -0.1127
  519MOL0     H71585   6.100   1.211   2.801  1.2206  0.5267  0.1636
  519MOL0     H71586   5.806   1.014   2.634 -2.6100 -3.7690  1.4046
  519MOL0     H71587   5.711   1.026   2.772 -1.2862  1.1240  0.3824
  519MOL0     H71588   5.865   1.265   2.674 -0.1828  0.7146 -2.0653
  519MOL0     H71589   5.731   1.217   2.570 -2.2422  0.2221  0.6293
  519MOL0     H71590   5.672   1.400   2.753 -1.6038 -0.1074 -0.4105
  519MOL0     H71591   5.703   1.268   2.869  1.8976  0.7178 -0.0636
  519MOL0     H71592   5.521   1.142   2.784  0.1588  0.4684  0.4115
  519MOL0     H71593   5.477   1.283   2.682  2.1351  5.2759  0.2281
  519MOL0     H71594   5.498   1.262   2.990  1.6029  2.9205  0.6925
  519MOL0     H71595   5.492   1.419   2.911  0.8112 -0.2157 -0.3768
  519MOL0     H71596   5.273   1.192   2.898  1.0747 -0.2066  3.3195
  519MOL0     H71597   5.266   1.337   2.799  1.4028 -0.6820 -0.7545
  519MOL0     H71598   5.270   1.479   3.006 -2.5782  0.5386  1.4063
  519MOL0     H71599   5.260   1.327   3.097  0.0635 -1.6074 -0.1569
  519MOL0     H71600   5.030   1.287   2.967 -2.7967  0.8387  0.0372
  519MOL0     H71601   5.055   1.441   2.894 -1.1198 -3.3325 -1.3932
  519MOL0     H71602   5.970   0.866   2.628 -1.4053  3.0094 -1.1612
  519MOL0     H71603   6.191   0.828   2.519 -1.5574  1.4444 -1.8583
  519MOL0     H71604   6.512   0.776   2.405 -0.4594 -1.0378 -1.5504
  519MOL0     H71605   6.682   0.702   2.260 -1.4746  0.2948 -0.7449
  519MOL0     H71606   5.686   0.891   2.441  2.2652 -0.3135  1.9749
  519MOL0     H71607   5.506   0.994   2.515  0.2644  0.4547  1.5889
  519MOL0     H71608   5.217   1.138   2.654  1.1346 -1.7224  0.6326
  519MOL0     H71609   5.062   1.289   2.705 -2.1676  2.1101  4.5288
  519MOL0     H71610   4.649   1.124   2.723 -0.2206 -2.7162  2.6685
  519MOL0     H71611   4.654   1.178   2.895 -4.0485  3.0046  0.1344
  519MOL0     H71612   4.469   1.294   2.782  1.4094 -2.4333  0.7831
  519MOL0     H71613   4.586   1.381   2.674  0.4028 -0.9380 -1.7871
  519MOL0     H71614   4.695   1.444   2.892 -0.2798 -0.2163  0.3540
  519MOL0     H71615   4.551   1.523   2.840 -1.5566 -0.5485  0.9008
  519MOL0     H71616   4.543   1.304   3.048  4.9524  0.1826 -0.3791
  519MOL0     H71617   4.411   1.419   3.003  0.3535  3.2282 -0.7174
  519MOL0     H71618   4.720   1.599   3.284  1.8938 -0.6724 -0.6406
  519MOL0     H71619   4.792   0.978   2.840 -0.9402  0.3222 -1.4011
  519MOL0     H71620   4.921   0.714   2.774 -0.7384  0.4627 -0.3025
  519MOL0     H71621   5.050   0.751   2.899 -0.0547  0.2317 -0.6203
  519MOL0     H71622   4.880   0.799   2.925 -0.3525  1.9616  0.3661
  520MOL0     O71623   5.855   7.358   2.787  0.4641  0.0811  0.7328
  520MOL0     C71624   5.740   7.342   2.750 -0.6759 -0.1228 -0.0461
  520MOL0     O71625   5.701   7.310   2.615  0.1117  0.0697  0.1606
  520MOL0     C71626   5.793   7.315   2.513 -0.4549  0.2665 -0.5417
  520MOL0     C71627   5.894   7.221   2.519 -0.4041 -0.3107 -0.3680
  520MOL0     C71628   5.994   7.226   2.426 -0.4457  1.0387  0.0033
  520MOL0     C71629   6.002   7.319   2.325  0.6152  0.1057  0.0857
  520MOL0     O71630   6.106   7.314   2.236  0.2638 -0.8764 -0.1395
  520MOL0     C71631   6.125   7.419   2.147  0.2105 -0.0734 -0.4711
  520MOL0     C71632   6.254   7.402   2.065 -0.1504  1.0966 -0.4325
  520MOL0     C71633   6.231   7.314   1.933 -0.3165 -0.6884  0.5144
  520MOL0     C71634   6.217   7.408   1.811  0.3878  0.2305  0.2006
  520MOL0     C71635   6.211   7.328   1.673 -0.5403 -0.8371  0.6981
  520MOL0     C71636   6.094   7.229   1.669 -0.0185  0.2530  0.0927
  520MOL0     C71637   6.076   7.185   1.523  0.7179  0.9257  0.1607
  520MOL0     C71638   5.994   7.062   1.509  0.3074  0.9789  0.1469
  520MOL0     N71639   5.859   7.083   1.560 -0.2290  0.5496  0.9565
  520MOL0     C71640   5.757   7.146   1.485 -0.3789  0.1147 -0.0589
  520MOL0     C71641   5.656   7.154   1.578 -0.0506  0.5270  0.4848
  520MOL0     C71642   5.514   7.206   1.576 -0.5596 -0.1450 -1.2792
  520MOL0     C71643   5.507   7.340   1.647  0.3069 -0.2192 -0.4037
  520MOL0     C71644   5.367   7.395   1.678 -0.1084  0.1156 -0.5170
  520MOL0     C71645   5.311   7.297   1.782 -0.5641 -0.3339  1.2194
  520MOL0     O71646   5.221   7.362   1.868  0.0599  0.9314 -0.3716
  520MOL0     C71647   5.194   7.298   1.985  0.8119 -0.0854  0.3246
  520MOL0     C71648   5.217   7.160   2.003 -0.2356  0.0117  0.4548
  520MOL0     C71649   5.195   7.102   2.133  0.1486  0.2936 -0.0485
  520MOL0     C71650   5.239   6.959   2.140  0.2393 -0.4741  0.7804
  520MOL0     C71651   5.138   7.188   2.239 -0.6181  0.6939 -0.4554
  520MOL0     C71652   5.118   7.138   2.378 -0.8725 -0.1912  0.3043
  520MOL0     O71653   5.100   7.238   2.471 -0.4868  0.0278  0.0887
  520MOL0     C71654   5.087   7.229   2.606  0.1517 -0.3738  0.6435
  520MOL0     C71655   5.145   7.330   2.679 -0.4840  0.1752 -0.2494
  520MOL0     C71656   5.137   7.317   2.823 -0.0886  0.2254  0.5481
  520MOL0     C71657   5.095   7.201   2.893 -0.3368 -0.2830 -0.5718
  520MOL0     O71658   5.082   7.209   3.023 -0.1482 -0.3891 -0.3515
  520MOL0     C71659   5.025   7.103   3.105  0.0715  0.7715 -0.9538
  520MOL0     C71660   4.877   7.103   3.128  0.4359  0.0076 -0.3596
  520MOL0     C71661   4.838   7.199   3.246 -1.2341  0.8651  0.2058
  520MOL0     C71662   4.689   7.199   3.270 -0.5400  0.2884 -0.6007
  520MOL0     C71663   4.610   7.273   3.153 -0.2677 -0.7617  0.7433
  520MOL0     C71664   4.484   7.360   3.201 -0.5240  0.0900 -0.0430
  520MOL0     C71665   4.390   7.270   3.269  0.4301  0.0300  0.1379
  520MOL0     C71666   4.247   7.316   3.250 -0.8503 -0.4993  0.3564
  520MOL0    Cl71667   4.129   7.232   3.348 -0.1417  0.8350 -0.0348
  520MOL0     C71668   5.030   7.105   2.813 -0.4707  0.3711  0.3587
  520MOL0     C71669   5.022   7.123   2.674  0.4958 -0.4689  0.9690
  520MOL0     O71670   5.126   7.018   2.407  0.3038 -0.0355 -0.4954
  520MOL0     C71671   5.125   7.331   2.217  0.5371  0.1461 -0.2572
  520MOL0     C71672   5.146   7.378   2.085  0.2995 -0.1108 -0.2480
  520MOL0     N71673   5.706   7.096   1.698  0.0379 -0.5125 -0.3823
  520MOL0     N71674   5.824   7.053   1.687 -0.5665 -0.3590 -0.1356
  520MOL0     C71675   5.906   7.418   2.320 -0.5666  0.3743 -0.1876
  520MOL0     C71676   5.807   7.422   2.419 -0.6003 -0.0888 -0.2235
  520MOL0     C71677   5.641   7.346   2.858 -0.8681  0.3143 -1.2282
  520MOL0     C71678   5.658   7.263   2.980 -0.0673  0.0887  0.2291
  520MOL0     C71679   5.575   7.288   3.088  0.4183  0.7528 -0.0307
  520MOL0     C71680   5.474   7.379   3.081  0.6733 -0.3488  0.3471
  520MOL0     O71681   5.383   7.398   3.177  0.0299 -0.6222  0.8110
  520MOL0     C71682   5.344   7.290   3.268 -0.6006 -0.0731  0.9419
  520MOL0     C71683   5.249   7.334   3.379  0.1806  0.2702  0.7909
  520MOL0     C71684   5.143   7.433   3.326 -0.0809 -0.5375 -0.5330
  520MOL0     C71685   5.028   7.468   3.423 -0.4994 -0.3484 -1.0272
  520MOL0     C71686   5.070   7.544   3.536  0.0392 -0.0622 -0.1016
  520MOL0     C71687   5.111   7.595   3.644 -0.2426 -0.0159  0.7602
  520MOL0     C71688   5.462   7.461   2.968 -0.2711  0.0958  0.5737
  520MOL0     C71689   5.545   7.441   2.852  1.2569 -1.0215  0.0234
  520MOL0     C71690   5.528   7.543   2.741  0.4844  0.2981  0.1154
  520MOL0     H71691   5.882   7.134   2.581 -0.6064  0.0205  0.0605
  520MOL0     H71692   6.072   7.152   2.416 -1.4779 -0.6058  3.0485
  520MOL0     H71693   6.135   7.516   2.198  0.7430  1.0028 -2.5365
  520MOL0     H71694   6.035   7.419   2.085 -0.4865  1.2584  0.4782
  520MOL0     H71695   6.298   7.497   2.036 -1.0151  1.8670  0.7126
  520MOL0     H71696   6.328   7.344   2.121 -1.4669 -0.4199 -0.1703
  520MOL0     H71697   6.311   7.243   1.911  0.2350 -1.0177  3.2680
  520MOL0     H71698   6.146   7.248   1.953  0.3274 -1.4593  0.7584
  520MOL0     H71699   6.126   7.468   1.820  1.0228  1.1221  0.8020
  520MOL0     H71700   6.306   7.471   1.817  0.6121 -0.2383  3.4880
  520MOL0     H71701   6.303   7.271   1.656 -0.1343  0.0777 -0.2837
  520MOL0     H71702   6.201   7.394   1.586  2.1908 -2.0956 -0.7087
  520MOL0     H71703   6.117   7.138   1.724 -0.9722 -1.3627 -2.0603
  520MOL0     H71704   6.000   7.267   1.709  0.9165  2.7120  0.1357
  520MOL0     H71705   6.172   7.159   1.478  0.6401  1.6681 -0.4549
  520MOL0     H71706   6.025   7.262   1.465 -1.4907  1.4179  2.5361
  520MOL0     H71707   5.992   7.047   1.400  0.2943 -0.6881  0.3555
  520MOL0     H71708   6.042   6.972   1.548  1.9455  1.7088 -0.1094
  520MOL0     H71709   5.767   7.183   1.384  1.0772 -1.9813 -0.7255
  520MOL0     H71710   5.456   7.139   1.639 -0.6125  0.3100 -0.8393
  520MOL0     H71711   5.477   7.217   1.473 -2.1410  1.1386 -0.6106
  520MOL0     H71712   5.572   7.343   1.734  2.3227 -1.8312 -1.7769
  520MOL0     H71713   5.559   7.412   1.583 -2.1116  1.3441 -0.7882
  520MOL0     H71714   5.370   7.494   1.724 -1.5733  0.2727 -0.7381
  520MOL0     H71715   5.298   7.409   1.595 -0.1146  2.4033 -0.1927
  520MOL0     H71716   5.263   7.217   1.727 -1.0237  0.0988  0.9848
  520MOL0     H71717   5.399   7.258   1.834  0.6306  0.1855 -0.3272
  520MOL0     H71718   5.251   7.105   1.916 -0.3352  0.4477  0.1411
  520MOL0     H71719   5.326   6.950   2.074 -2.2164 -1.2518 -2.5885
  520MOL0     H71720   5.157   6.893   2.109 -0.9001  0.4695  1.7289
  520MOL0     H71721   5.268   6.927   2.241  1.2569 -0.8971  0.3722
  520MOL0     H71722   5.188   7.418   2.633  0.9706 -0.7650 -0.7455
  520MOL0     H71723   5.170   7.399   2.886  1.6339  0.3340 -0.4178
  520MOL0     H71724   5.038   7.004   3.062  1.0667  0.3077  0.3416
  520MOL0     H71725   5.074   7.110   3.203 -2.9378  1.7231  0.6104
  520MOL0     H71726   4.830   7.128   3.033 -0.2566 -3.2879 -1.0266
  520MOL0     H71727   4.837   7.007   3.163 -0.6091  0.7033  0.4220
  520MOL0     H71728   4.875   7.300   3.224  0.3609  0.5176  1.1111
  520MOL0     H71729   4.889   7.163   3.335  0.1914  0.1115 -0.8750
  520MOL0     H71730   4.667   7.253   3.362 -1.8716 -0.8343 -0.2188
  520MOL0     H71731   4.649   7.100   3.295  1.6576 -0.1640  1.5423
  520MOL0     H71732   4.673   7.345   3.100 -3.5071 -1.1133 -4.1709
  520MOL0     H71733   4.589   7.208   3.068 -2.7390  0.5589  0.2461
  520MOL0     H71734   4.431   7.401   3.115 -2.4782 -1.0010  0.5619
  520MOL0     H71735   4.516   7.434   3.275  2.5844 -0.7214 -0.4333
  520MOL0     H71736   4.412   7.270   3.376  0.4996  3.9996  0.2705
  520MOL0     H71737   4.391   7.173   3.220  3.3633  0.6496 -1.2602
  520MOL0     H71738   4.222   7.288   3.147  1.3779 -2.1246  0.1762
  520MOL0     H71739   4.249   7.422   3.277 -1.0443 -0.4081  0.0131
  520MOL0     H71740   4.967   7.025   2.851 -0.5816  0.0305 -0.5142
  520MOL0     H71741   4.964   7.055   2.613  1.8199 -0.6740 -0.0859
  520MOL0     H71742   5.085   7.396   2.294  0.8316 -1.0428  0.9491
  520MOL0     H71743   5.133   7.485   2.074  0.4738 -0.0541  0.0989
  520MOL0     H71744   5.905   7.502   2.252 -1.1252  1.3844  1.0112
  520MOL0     H71745   5.738   7.506   2.417  0.5407  0.9244 -3.3752
  520MOL0     H71746   5.748   7.203   2.985 -1.0588 -1.5331 -0.5640
  520MOL0     H71747   5.594   7.224   3.173  0.7596  2.4138  1.1841
  520MOL0     H71748   5.303   7.211   3.204 -0.3951 -0.0083  0.7278
  520MOL0     H71749   5.430   7.253   3.325  0.4573  1.6298  0.5277
  520MOL0     H71750   5.307   7.381   3.459  1.2984  0.7043 -0.2476
  520MOL0     H71751   5.211   7.239   3.416  5.7178 -1.4326  3.1541
  520MOL0     H71752   5.191   7.523   3.288  1.3005 -2.3257 -3.3707
  520MOL0     H71753   5.094   7.390   3.238  2.5510 -0.7676 -1.9725
  520MOL0     H71754   4.982   7.376   3.460 -0.9419  1.5045  3.6165
  520MOL0     H71755   4.954   7.528   3.369  1.5278  2.3416 -1.0201
  520MOL0     H71756   5.159   7.636   3.730 -0.1022 -2.9967  2.2052
  520MOL0     H71757   5.394   7.546   2.970  0.3554  0.6001  1.5472
  520MOL0     H71758   5.507   7.643   2.780  0.2037  0.3200 -0.0864
  520MOL0     H71759   5.614   7.544   2.674  0.8609 -0.2211  0.5843
  520MOL0     H71760   5.439   7.521   2.681  0.7511  0.7014 -0.4416
  521MOL0     O71761   1.330   8.986   7.249  0.4215  0.1325  0.0981
  521MOL0     C71762   1.280   8.874   7.282 -0.5366 -0.1966  0.3302
  521MOL0     O71763   1.189   8.860   7.378 -0.5316  0.0323 -0.5489
  521MOL0     C71764   1.179   8.959   7.476 -0.4302  0.9138  0.4696
  521MOL0     C71765   1.280   8.976   7.578 -0.0973  0.1202  0.3170
  521MOL0     C71766   1.247   9.074   7.681  0.5175 -0.0113 -0.1950
  521MOL0     C71767   1.120   9.138   7.681  0.4376 -0.6550 -0.3309
  521MOL0     O71768   1.084   9.228   7.774  0.8686 -0.1299  0.1655
  521MOL0     C71769   1.155   9.236   7.901 -0.0367 -0.1401  0.5520
  521MOL0     C71770   1.090   9.329   7.991  1.2977  0.2655 -0.2460
  521MOL0     C71771   1.094   9.477   7.954 -0.2544  0.2891 -0.4252
  521MOL0     C71772   1.214   9.543   8.012  0.6685 -0.2517  0.3802
  521MOL0     C71773   1.228   9.679   7.946  0.3905 -0.3762  0.0329
  521MOL0     C71774   1.277   9.669   7.800 -0.3149 -0.9528 -0.5731
  521MOL0     C71775   1.352   9.801   7.760  0.9554 -0.1602 -0.1622
  521MOL0     C71776   1.262   9.927   7.779  0.5952  0.3238  0.0148
  521MOL0     N71777   1.342  10.032   7.724  0.2420 -0.8189  0.1311
  521MOL0     C71778   1.443  10.100   7.793 -0.2458  0.2311 -0.7115
  521MOL0     C71779   1.513  10.164   7.698  0.2975 -0.5572  0.2113
  521MOL0     C71780   1.594  10.290   7.703  0.6264  0.4673  0.2937
  521MOL0     C71781   1.741  10.271   7.761  0.4249  0.8241 -0.6289
  521MOL0     C71782   1.824  10.384   7.710  0.5886  0.2143  0.2677
  521MOL0     C71783   1.954  10.406   7.792  0.1454  0.6889  0.4305
  521MOL0     O71784   2.031  10.288   7.785  0.2433  0.2841 -0.0084
  521MOL0     C71785   2.159  10.289   7.831  0.2796  0.2918 -0.0421
  521MOL0     C71786   2.250  10.396   7.853 -0.5447  0.6094  0.4737
  521MOL0     C71787   2.373  10.379   7.915 -0.2993  0.9578  0.5553
  521MOL0     C71788   2.460  10.501   7.935 -0.0850  0.6450  0.3024
  521MOL0     C71789   2.415  10.243   7.957  0.3763  0.8258 -0.3217
  521MOL0     C71790   2.553  10.208   8.006 -0.0677 -0.4913 -0.4894
  521MOL0     O71791   2.629  10.135   7.926  0.0322 -0.0787  0.8890
  521MOL0     C71792   2.750  10.108   7.980 -0.4164 -1.5483 -0.4749
  521MOL0     C71793   2.759  10.011   8.081 -0.2855  0.2990 -0.0638
  521MOL0     C71794   2.888   9.987   8.140  1.1774  0.5095 -0.0407
  521MOL0     C71795   3.004  10.045   8.097 -0.3737  0.6098  0.8598
  521MOL0     O71796   3.132  10.044   8.151  0.1892 -0.3044  0.3378
  521MOL0     C71797   3.148   9.981   8.273  0.5827 -0.8655 -0.4616
  521MOL0     C71798   3.273  10.047   8.337 -0.0384 -0.6498 -0.8188
  521MOL0     C71799   3.305   9.966   8.468 -0.1608 -0.3031 -0.0099
  521MOL0     C71800   3.390  10.043   8.567 -0.6607 -0.4202  0.2385
  521MOL0     C71801   3.472   9.965   8.665 -0.3798  0.0791  0.6388
  521MOL0     C71802   3.530  10.057   8.778  0.9186  0.8973 -0.4926
  521MOL0     C71803   3.667   9.988   8.809  0.4210  0.1719  0.4366
  521MOL0     C71804   3.743  10.051   8.923 -0.5947  0.0449 -1.5718
  521MOL0    Cl71805   3.892   9.951   8.965 -0.3101 -0.2120  0.4097
  521MOL0     C71806   2.994  10.138   7.989  0.2148  0.5470 -0.2185
  521MOL0     C71807   2.875  10.168   7.928  0.4787 -0.0640  0.5562
  521MOL0     O71808   2.585  10.262   8.116 -0.5621  0.6324  0.2066
  521MOL0     C71809   2.329  10.132   7.918  1.0284  0.4767 -0.6124
  521MOL0     C71810   2.204  10.160   7.867  0.1318 -0.0422 -0.1075
  521MOL0     N71811   1.464  10.127   7.571 -0.3191  0.3050  0.1037
  521MOL0     N71812   1.368  10.043   7.593  0.7075 -0.6483  0.1691
  521MOL0     C71813   1.032   9.128   7.573 -0.2698 -0.6345  0.2432
  521MOL0     C71814   1.061   9.035   7.471  0.3092  0.8031  0.6327
  521MOL0     C71815   1.343   8.759   7.199  0.1097  0.0150  0.2781
  521MOL0     C71816   1.478   8.757   7.163 -0.1789 -0.2246  0.2296
  521MOL0     C71817   1.539   8.649   7.094 -0.4239 -0.7026 -0.0786
  521MOL0     C71818   1.454   8.543   7.045  0.0742  1.2223 -0.5603
  521MOL0     O71819   1.508   8.440   6.973 -0.1997  0.2457  0.3054
  521MOL0     C71820   1.583   8.359   7.061 -0.4232 -0.8882  0.5613
  521MOL0     C71821   1.630   8.233   6.981  0.3597 -0.5616 -0.6302
  521MOL0     C71822   1.519   8.140   6.948  0.1459  0.4976  0.0693
  521MOL0     C71823   1.558   7.995   6.907  0.4036 -0.1706  0.2998
  521MOL0     C71824   1.644   7.998   6.787 -0.0872  0.3458 -0.2786
  521MOL0     C71825   1.719   8.009   6.695 -0.1358 -0.1955 -0.4021
  521MOL0     C71826   1.323   8.547   7.081  0.4611  0.2582  0.3544
  521MOL0     C71827   1.264   8.651   7.158  0.9777 -0.5469  0.1230
  521MOL0     C71828   1.113   8.647   7.189 -0.2172 -1.0756 -0.2160
  521MOL0     H71829   1.361   8.904   7.567 -1.6832 -1.5000 -1.5772
  521MOL0     H71830   1.314   9.100   7.762  0.2530 -0.7292  0.2617
  521MOL0     H71831   1.261   9.258   7.884 -0.2071  1.5279  1.4601
  521MOL0     H71832   1.142   9.133   7.936 -3.1271 -0.8894 -2.3142
  521MOL0     H71833   0.985   9.300   7.983  2.1454 -2.7243 -2.6813
  521MOL0     H71834   1.120   9.307   8.093 -2.7185 -2.0013  0.6614
  521MOL0     H71835   1.087   9.475   7.845 -0.0883 -1.1739 -0.4395
  521MOL0     H71836   1.004   9.530   7.987  0.8679  2.5944 -0.8979
  521MOL0     H71837   1.184   9.555   8.116 -1.1236 -1.2687  0.0243
  521MOL0     H71838   1.307   9.485   8.018  0.5239 -0.3368  2.5031
  521MOL0     H71839   1.294   9.740   8.008 -0.2070 -0.2193  0.5323
  521MOL0     H71840   1.131   9.730   7.951 -1.1249 -3.1318  0.3428
  521MOL0     H71841   1.360   9.597   7.801  0.2029 -0.5855 -4.3436
  521MOL0     H71842   1.201   9.635   7.730 -1.9440  3.2240 -1.0853
  521MOL0     H71843   1.388   9.786   7.658 -1.0675  1.5744 -1.2048
  521MOL0     H71844   1.440   9.807   7.825 -1.0410 -1.6954  2.9500
  521MOL0     H71845   1.181   9.914   7.707  2.4634 -3.0146 -1.7553
  521MOL0     H71846   1.226   9.956   7.878 -2.5734 -0.9558 -0.6582
  521MOL0     H71847   1.447  10.114   7.901  0.2866 -2.9201 -0.2124
  521MOL0     H71848   1.536  10.368   7.753 -2.6943 -2.1453  0.8474
  521MOL0     H71849   1.607  10.329   7.602 -1.0770  2.4430  0.7597
  521MOL0     H71850   1.743  10.282   7.870  1.6730 -2.9252 -0.1378
  521MOL0     H71851   1.779  10.174   7.728  0.0669  0.4092  0.1449
  521MOL0     H71852   1.846  10.381   7.603  0.1653  0.5675  0.1660
  521MOL0     H71853   1.777  10.481   7.731  2.1445  0.3783  3.6048
  521MOL0     H71854   2.014  10.486   7.746  1.9192 -0.3029  0.9069
  521MOL0     H71855   1.931  10.436   7.894 -1.7744  1.1463 -0.1022
  521MOL0     H71856   2.227  10.496   7.817  1.3259  0.2836 -1.8801
  521MOL0     H71857   2.405  10.593   7.915 -2.3532 -0.8419 -0.7722
  521MOL0     H71858   2.538  10.491   7.859  0.6314 -0.9830  1.1816
  521MOL0     H71859   2.503  10.506   8.036 -2.5949  0.8676  1.4458
  521MOL0     H71860   2.666   9.963   8.107 -0.3960 -0.6489 -2.0294
  521MOL0     H71861   2.895   9.910   8.216  1.1359 -2.1383 -2.5113
  521MOL0     H71862   3.064   9.986   8.343  2.2968 -2.5233  1.8788
  521MOL0     H71863   3.171   9.874   8.264 -0.5503 -1.2885  1.1558
  521MOL0     H71864   3.362  10.044   8.275  0.2361 -1.6822 -0.4041
  521MOL0     H71865   3.246  10.150   8.361  1.2120 -1.0025  2.6218
  521MOL0     H71866   3.378   9.889   8.441  1.3362  1.5640 -1.6153
  521MOL0     H71867   3.217   9.916   8.509 -1.6256  1.4745 -0.8387
  521MOL0     H71868   3.319  10.111   8.616 -0.7119  0.7318 -1.3636
  521MOL0     H71869   3.463  10.105   8.515  0.5429 -3.2097 -1.5913
  521MOL0     H71870   3.399   9.903   8.719 -0.6692 -0.1238  0.0197
  521MOL0     H71871   3.553   9.906   8.621  0.1347  0.8233  0.5762
  521MOL0     H71872   3.465  10.065   8.866  1.9559 -0.3630  0.4301
  521MOL0     H71873   3.556  10.159   8.746  1.6220  0.9806  0.3031
  521MOL0     H71874   3.726   9.988   8.716 -0.3617 -1.5230 -0.1072
  521MOL0     H71875   3.638   9.886   8.837  1.5454 -0.1435  0.5086
  521MOL0     H71876   3.685  10.048   9.016  1.6892  1.6403  0.0114
  521MOL0     H71877   3.773  10.156   8.908 -1.1598  0.4386 -0.1345
  521MOL0     H71878   3.073  10.203   7.954 -0.7320  2.2266  0.6506
  521MOL0     H71879   2.874  10.244   7.851  2.3279  0.2288  0.7693
  521MOL0     H71880   2.359  10.030   7.939 -1.3028 -0.4499 -1.4309
  521MOL0     H71881   2.139  10.076   7.845 -0.5223  0.4367 -0.0135
  521MOL0     H71882   0.956   9.205   7.571  3.0246  2.8832 -0.4024
  521MOL0     H71883   1.001   9.016   7.382  0.7658  0.0215  0.4821
  521MOL0     H71884   1.530   8.848   7.193  1.4568 -0.8644 -0.5756
  521MOL0     H71885   1.645   8.653   7.070 -0.6809 -1.2729 -1.3819
  521MOL0     H71886   1.673   8.414   7.092 -1.2035 -1.0596  3.3040
  521MOL0     H71887   1.525   8.340   7.151 -1.3476  2.0072  0.6683
  521MOL0     H71888   1.702   8.175   7.040  0.7420 -0.5362 -1.0668
  521MOL0     H71889   1.688   8.272   6.897  0.1163  1.7005  0.1954
  521MOL0     H71890   1.460   8.125   7.038  0.7083  0.0240  0.3700
  521MOL0     H71891   1.458   8.183   6.868  0.7792  0.5160 -0.4157
  521MOL0     H71892   1.468   7.943   6.874 -0.0422 -0.6133  2.0902
  521MOL0     H71893   1.614   7.944   6.986  2.3126  0.7766 -0.3635
  521MOL0     H71894   1.786   8.027   6.614  0.9863  2.0462  0.9079
  521MOL0     H71895   1.251   8.472   7.049  0.2341  0.7765 -0.3689
  521MOL0     H71896   1.054   8.595   7.113  0.0804 -1.7679  0.0260
  521MOL0     H71897   1.103   8.598   7.286  1.2512 -3.2264 -1.0669
  521MOL0     H71898   1.074   8.749   7.184  0.7536 -0.6048  1.1225
  522MOL0     O71899  10.617   4.639   6.325  0.5974  0.4537 -0.6525
  522MOL0     C71900  10.613   4.626   6.201  0.2161  0.1271  0.0956
  522MOL0     O71901  10.707   4.674   6.117  0.1082  0.5029  0.4246
  522MOL0     C71902  10.822   4.730   6.168 -0.6760  1.0346  0.9414
  522MOL0     C71903  10.861   4.861   6.137  0.5471 -0.6547 -1.2039
  522MOL0     C71904  10.986   4.907   6.180  0.3229  0.4532 -0.4057
  522MOL0     C71905  11.066   4.829   6.258 -0.6948 -0.3350  1.0134
  522MOL0     O71906  11.188   4.884   6.286  0.0624  0.3404 -0.8408
  522MOL0     C71907  11.297   4.790   6.326  1.0056 -0.0682  0.7573
  522MOL0     C71908  11.430   4.857   6.379  0.2549 -0.7311  0.3347
  522MOL0     C71909  11.502   4.938   6.273  0.1777  0.6411  0.1503
  522MOL0     C71910  11.637   5.007   6.329  0.5033  0.5615 -0.8686
  522MOL0     C71911  11.763   4.910   6.331 -0.4833 -0.4345  0.2668
  522MOL0     C71912  11.894   4.986   6.354  0.5550 -0.1209 -0.2334
  522MOL0     C71913  12.005   4.885   6.311  1.0113  0.8363  0.1991
  522MOL0     C71914  12.140   4.952   6.342 -0.3406 -0.1815  0.7262
  522MOL0     N71915  12.248   4.848   6.348  0.1205  0.1161 -0.1841
  522MOL0     C71916  12.359   4.848   6.271 -0.3672  0.5646  1.1124
  522MOL0     C71917  12.440   4.755   6.321  0.6075 -0.5154 -0.2015
  522MOL0     C71918  12.566   4.723   6.256 -0.6167  0.5187 -0.2908
  522MOL0     C71919  12.670   4.658   6.340 -0.2264  1.2987  0.9937
  522MOL0     C71920  12.801   4.609   6.267 -0.7196 -1.3043  0.2764
  522MOL0     C71921  12.910   4.587   6.380 -0.4247  0.4796  0.1157
  522MOL0     O71922  13.033   4.530   6.330  0.3424  0.0036 -0.4009
  522MOL0     C71923  13.144   4.521   6.407 -0.1815 -0.8777  0.6100
  522MOL0     C71924  13.147   4.520   6.548  0.4803  0.4821  0.2422
  522MOL0     C71925  13.266   4.490   6.613 -0.1887  0.0228  0.3786
  522MOL0     C71926  13.259   4.460   6.761  0.7132  1.3388  1.0164
  522MOL0     C71927  13.391   4.487   6.538 -0.3722  0.4530 -0.4281
  522MOL0     C71928  13.521   4.460   6.606  0.1938  0.3062 -0.4752
  522MOL0     O71929  13.603   4.372   6.545 -0.3228 -0.2461  0.0149
  522MOL0     C71930  13.736   4.358   6.586 -0.1566  0.3206 -0.5979
  522MOL0     C71931  13.789   4.238   6.615  0.6701  0.2170 -0.3005
  522MOL0     C71932  13.929   4.225   6.638 -0.6445 -0.5330  0.0522
  522MOL0     C71933  14.019   4.338   6.629 -0.2748  0.2024  0.4477
  522MOL0     O71934  14.151   4.342   6.650 -0.3265  0.2453  0.1886
  522MOL0     C71935  14.223   4.213   6.659  0.5490  0.2142  0.8427
  522MOL0     C71936  14.365   4.235   6.688  0.4692 -0.3915  0.4354
  522MOL0     C71937  14.457   4.113   6.696  0.7645  0.7852 -0.0882
  522MOL0     C71938  14.605   4.136   6.664  0.1085 -0.3257 -0.1950
  522MOL0     C71939  14.693   4.022   6.720 -0.2387 -0.4293 -0.9295
  522MOL0     C71940  14.771   3.962   6.612 -1.0650  0.0055 -0.3664
  522MOL0     C71941  14.882   3.869   6.673  0.5888 -0.5852 -0.1173
  522MOL0     C71942  14.978   3.845   6.563  0.3168  0.2218  0.1747
  522MOL0    Cl71943  15.118   3.732   6.603 -0.2228 -0.1017 -0.2318
  522MOL0     C71944  13.954   4.463   6.605 -0.1305  0.1669  0.5905
  522MOL0     C71945  13.823   4.467   6.584  0.0624 -0.7634  0.3901
  522MOL0     O71946  13.547   4.533   6.708  0.0398  0.5529  0.5728
  522MOL0     C71947  13.380   4.495   6.397 -0.6842  0.0466 -0.4744
  522MOL0     C71948  13.260   4.509   6.333 -0.0929  0.5941 -0.2417
  522MOL0     N71949  12.382   4.707   6.437  0.2451 -0.1046  0.3248
  522MOL0     N71950  12.271   4.763   6.454  1.1355 -0.4225  0.6333
  522MOL0     C71951  11.033   4.693   6.277  0.4796 -0.5746 -0.2562
  522MOL0     C71952  10.912   4.648   6.233  0.4530  0.2908  0.0790
  522MOL0     C71953  10.505   4.547   6.137 -0.1336 -0.5371  0.1065
  522MOL0     C71954  10.531   4.467   6.018 -0.2303  0.6268  0.1248
  522MOL0     C71955  10.432   4.403   5.946  0.8746 -0.1275  0.0860
  522MOL0     C71956  10.298   4.397   5.992  0.1683  0.3635  0.8873
  522MOL0     O71957  10.195   4.332   5.927  0.2064 -0.1381 -0.2035
  522MOL0     C71958  10.243   4.206   5.876  0.7638 -0.1610 -0.2404
  522MOL0     C71959  10.126   4.116   5.846 -0.1837  0.0356 -0.6497
  522MOL0     C71960  10.036   4.081   5.967 -0.2744  0.0637 -0.3938
  522MOL0     C71961   9.909   4.007   5.923 -1.1613  0.1270  0.2141
  522MOL0     C71962   9.809   4.061   6.012  0.1366 -0.1055  0.5548
  522MOL0     C71963   9.713   4.096   6.074  0.3471  0.3063 -0.9438
  522MOL0     C71964  10.271   4.464   6.117 -0.1436 -0.1513  0.1029
  522MOL0     C71965  10.373   4.535   6.190  0.6645  0.2756  0.0079
  522MOL0     C71966  10.325   4.608   6.303 -0.0736  0.6059  0.1840
  522MOL0     H71967  10.790   4.910   6.071 -0.8878 -0.1814  0.5998
  522MOL0     H71968  11.013   5.005   6.143  1.5803 -0.2543 -1.4560
  522MOL0     H71969  11.323   4.723   6.244  2.6991  0.4383  0.8547
  522MOL0     H71970  11.264   4.724   6.407 -1.1020 -0.9827 -0.7408
  522MOL0     H71971  11.417   4.931   6.459  3.1838  0.1802  0.0836
  522MOL0     H71972  11.503   4.778   6.403 -0.2956 -1.9933 -1.9002
  522MOL0     H71973  11.516   4.872   6.187  3.8464 -0.8300  1.6488
  522MOL0     H71974  11.426   5.010   6.243 -1.6173 -1.1054  0.3665
  522MOL0     H71975  11.659   5.094   6.267 -0.3937  1.4820  0.0725
  522MOL0     H71976  11.619   5.038   6.432 -1.1693  1.5607 -1.4218
  522MOL0     H71977  11.780   4.863   6.234  1.3156 -2.5389  1.4816
  522MOL0     H71978  11.747   4.837   6.412 -2.8559  0.2685  0.4933
  522MOL0     H71979  11.909   5.069   6.285 -1.1254  0.9732  0.6637
  522MOL0     H71980  11.895   5.026   6.456  1.7440  0.2514 -0.3759
  522MOL0     H71981  11.992   4.858   6.206 -1.4515  1.4376  0.3036
  522MOL0     H71982  11.990   4.790   6.363 -0.4278  1.8027  1.6426
  522MOL0     H71983  12.158   5.029   6.266  0.1169  0.1960  1.2186
  522MOL0     H71984  12.123   4.990   6.443 -1.8074 -0.9380  0.8001
  522MOL0     H71985  12.383   4.906   6.182 -1.0729 -0.0902  0.4766
  522MOL0     H71986  12.618   4.816   6.232  0.9595  0.6426  2.9818
  522MOL0     H71987  12.543   4.661   6.169 -1.3547 -0.6689  0.7184
  522MOL0     H71988  12.695   4.725   6.422 -2.0360  1.8556  1.1325
  522MOL0     H71989  12.627   4.573   6.394  2.6593 -0.2162  1.0845
  522MOL0     H71990  12.792   4.523   6.200 -1.9372 -1.3213  0.4330
  522MOL0     H71991  12.839   4.692   6.206 -0.0103 -0.9900  1.1287
  522MOL0     H71992  12.936   4.684   6.422  2.9221 -0.6654  0.9679
  522MOL0     H71993  12.875   4.519   6.458 -2.2834 -1.3916 -2.1618
  522MOL0     H71994  13.052   4.530   6.598 -1.4061  1.1330 -3.1492
  522MOL0     H71995  13.264   4.351   6.763 -1.6967  0.9714 -3.0985
  522MOL0     H71996  13.161   4.486   6.802 -1.2041 -1.5351 -1.2676
  522MOL0     H71997  13.343   4.500   6.818  0.8155  4.0384 -0.8579
  522MOL0     H71998  13.720   4.158   6.640 -0.0989  0.9644  0.0626
  522MOL0     H71999  13.971   4.126   6.646  0.4441 -0.0844  0.0132
  522MOL0     H72000  14.177   4.152   6.738 -0.3158 -0.0775  0.1359
  522MOL0     H72001  14.218   4.165   6.560  0.8353  0.3983  0.7388
  522MOL0     H72002  14.401   4.298   6.605 -0.9981 -1.6176 -1.2099
  522MOL0     H72003  14.369   4.294   6.780  1.3731 -0.1477  0.2563
  522MOL0     H72004  14.421   4.036   6.627  3.2232 -1.7860  1.2878
  522MOL0     H72005  14.436   4.073   6.795 -0.5911  2.8835  0.5348
  522MOL0     H72006  14.644   4.231   6.702  1.3875 -1.5685  1.8357
  522MOL0     H72007  14.623   4.136   6.556  4.4423 -0.0547  0.3521
  522MOL0     H72008  14.761   4.058   6.797 -0.9165 -3.3467  1.2201
  522MOL0     H72009  14.637   3.942   6.770 -1.9114 -0.1403 -2.2412
  522MOL0     H72010  14.820   4.050   6.570  3.0791 -1.5620  0.6544
  522MOL0     H72011  14.715   3.911   6.533 -0.3336 -1.0521 -0.2319
  522MOL0     H72012  14.848   3.768   6.696  0.6163 -0.4091  0.7106
  522MOL0     H72013  14.930   3.910   6.762 -0.2951 -3.0324  1.5850
  522MOL0     H72014  15.003   3.935   6.507 -3.0768  2.1054  1.4121
  522MOL0     H72015  14.923   3.788   6.488  3.1025  1.0414 -2.7244
  522MOL0     H72016  14.003   4.558   6.585  0.9591 -0.1151  1.7511
  522MOL0     H72017  13.782   4.563   6.558  0.7231 -0.5940 -0.0603
  522MOL0     H72018  13.476   4.501   6.346 -0.2361  0.6469  0.4164
  522MOL0     H72019  13.254   4.510   6.224  1.4147 -1.9263 -0.4374
  522MOL0     H72020  11.103   4.620   6.318 -1.4810 -2.0780  0.5908
  522MOL0     H72021  10.910   4.541   6.252  1.9522  0.3228  0.5294
  522MOL0     H72022  10.628   4.489   5.973  1.2194  1.4180  3.3305
  522MOL0     H72023  10.457   4.345   5.858 -0.9004 -0.6489 -0.1241
  522MOL0     H72024  10.296   4.212   5.781 -0.4736 -0.6642 -0.9917
  522MOL0     H72025  10.302   4.155   5.953 -1.4303 -0.2414  1.5079
  522MOL0     H72026  10.155   4.022   5.800  0.3275 -0.3533  0.4304
  522MOL0     H72027  10.071   4.169   5.768  0.2936 -0.1597 -1.1203
  522MOL0     H72028  10.094   4.021   6.037 -0.2826 -0.2894 -0.6883
  522MOL0     H72029  10.013   4.176   6.018 -0.8022  0.6883 -1.7424
  522MOL0     H72030   9.927   3.901   5.943  1.2716  0.2251 -1.0470
  522MOL0     H72031   9.874   4.033   5.823 -0.0653  1.9629  0.2594
  522MOL0     H72032   9.629   4.126   6.134  0.3855 -1.6673  0.2067
  522MOL0     H72033  10.166   4.464   6.144 -0.5956 -4.5364 -0.8281
  522MOL0     H72034  10.391   4.690   6.333  2.6912 -1.4868  0.3078
  522MOL0     H72035  10.230   4.660   6.291  0.7867  2.1338 -0.2718
  522MOL0     H72036  10.316   4.542   6.391  2.0931  4.1729  3.3864
  523MOL0     O72037   3.457   0.302   6.972 -0.9837  1.5545  0.3365
  523MOL0     C72038   3.375   0.308   6.880  0.2215 -0.1607  0.2908
  523MOL0     O72039   3.366   0.220   6.773  0.2199 -0.1115 -0.5076
  523MOL0     C72040   3.464   0.130   6.737 -1.0112 -0.4706  0.3170
  523MOL0     C72041   3.427   0.005   6.681 -0.2045  1.0923  0.2351
  523MOL0     C72042   3.519  -0.086   6.644 -0.3471  0.6043 -0.2755
  523MOL0     C72043   3.655  -0.051   6.649  0.0972  0.2559 -0.7328
  523MOL0     O72044   3.751  -0.135   6.591 -0.2688  0.4001  0.1533
  523MOL0     C72045   3.746  -0.278   6.610  0.5457  0.8030  0.8260
  523MOL0     C72046   3.857  -0.358   6.552 -0.6511  0.1106  1.4170
  523MOL0     C72047   3.862  -0.341   6.398  0.5320 -0.9231  0.2574
  523MOL0     C72048   3.974  -0.422   6.338 -0.2015  0.5365  1.4173
  523MOL0     C72049   3.947  -0.457   6.192 -0.0727 -0.6272  0.4200
  523MOL0     C72050   4.054  -0.535   6.126 -0.6599 -0.6870 -0.1846
  523MOL0     C72051   4.095  -0.664   6.198  0.2106 -0.1047 -0.5287
  523MOL0     C72052   4.188  -0.753   6.109  0.2477  0.1662 -0.4791
  523MOL0     N72053   4.332  -0.727   6.128  0.6638 -0.2482  0.0919
  523MOL0     C72054   4.396  -0.625   6.079  0.6663 -0.6288 -0.1251
  523MOL0     C72055   4.524  -0.646   6.110 -0.3823  0.9452  0.3321
  523MOL0     C72056   4.637  -0.559   6.076  0.6428 -0.2369  0.7141
  523MOL0     C72057   4.692  -0.589   5.940  0.0346 -1.0752 -0.0461
  523MOL0     C72058   4.765  -0.721   5.936 -0.3283 -0.4733  0.7723
  523MOL0     C72059   4.821  -0.749   5.792  0.5973 -0.0532 -0.7870
  523MOL0     O72060   4.934  -0.842   5.807  0.2847  0.3591  0.2895
  523MOL0     C72061   5.057  -0.801   5.765 -0.1428  0.0908  0.5571
  523MOL0     C72062   5.082  -0.722   5.654  0.5638  0.5657  0.9074
  523MOL0     C72063   5.214  -0.687   5.620  0.4717 -0.3063  0.0294
  523MOL0     C72064   5.235  -0.620   5.482 -0.6060 -0.6461 -0.0212
  523MOL0     C72065   5.329  -0.733   5.703  0.7933  0.5702 -0.7435
  523MOL0     C72066   5.470  -0.706   5.676 -0.2035 -0.4213 -1.0792
  523MOL0     O72067   5.547  -0.701   5.796 -1.0938 -0.0260  0.8408
  523MOL0     C72068   5.679  -0.651   5.777 -0.4533  0.0029 -0.7883
  523MOL0     C72069   5.710  -0.528   5.833 -0.4285 -0.1231 -0.3785
  523MOL0     C72070   5.838  -0.473   5.837 -0.4976 -0.5064 -0.4116
  523MOL0     C72071   5.939  -0.542   5.754  0.7340 -0.6434 -0.0594
  523MOL0     O72072   6.059  -0.473   5.735  0.1335  0.5569  0.6116
  523MOL0     C72073   6.170  -0.564   5.703  0.8416 -0.4947 -0.0432
  523MOL0     C72074   6.309  -0.508   5.695  0.0042 -0.2588  0.1089
  523MOL0     C72075   6.414  -0.613   5.668 -0.5059  0.1361  0.8406
  523MOL0     C72076   6.540  -0.552   5.614  0.2487 -0.5203  0.0362
  523MOL0     C72077   6.617  -0.447   5.706  0.2430  0.3529  0.4018
  523MOL0     C72078   6.742  -0.407   5.629 -0.0336  0.0370 -0.5413
  523MOL0     C72079   6.844  -0.311   5.714 -0.2111 -0.0489 -0.1197
  523MOL0     C72080   6.902  -0.397   5.833 -0.5837 -0.0409 -0.3336
  523MOL0    Cl72081   6.988  -0.275   5.926 -0.3435  0.1211 -0.5334
  523MOL0     C72082   5.907  -0.666   5.695  0.6939 -0.5660  0.5295
  523MOL0     C72083   5.778  -0.722   5.709  1.5513 -0.2173 -0.4355
  523MOL0     O72084   5.511  -0.668   5.570 -0.3601 -0.2138  0.8340
  523MOL0     C72085   5.296  -0.814   5.819 -0.1549 -0.1323  0.6855
  523MOL0     C72086   5.165  -0.847   5.844 -1.0200 -0.1583  0.1388
  523MOL0     N72087   4.543  -0.759   6.180  0.2061 -0.0923 -0.0512
  523MOL0     N72088   4.421  -0.807   6.190 -0.3246 -0.0186 -0.1625
  523MOL0     C72089   3.691   0.074   6.700 -1.0175 -0.8427  0.1313
  523MOL0     C72090   3.601   0.163   6.746 -0.5971 -0.3426 -0.5049
  523MOL0     C72091   3.263   0.406   6.894 -0.2224  1.0291  0.5331
  523MOL0     C72092   3.160   0.402   6.806  0.3541 -0.3659 -0.1714
  523MOL0     C72093   3.061   0.506   6.799  0.6720  0.4100 -0.3150
  523MOL0     C72094   3.070   0.622   6.872  0.5038  0.8214 -0.2709
  523MOL0     O72095   2.979   0.721   6.878  0.1105  0.0050 -0.0376
  523MOL0     C72096   2.882   0.682   6.983  0.3590 -0.3008  0.4350
  523MOL0     C72097   2.778   0.794   6.985 -0.2026 -0.3627  0.1299
  523MOL0     C72098   2.686   0.787   7.113  0.3246 -0.3151  0.0956
  523MOL0     C72099   2.596   0.910   7.112 -0.5329  0.4084 -0.5259
  523MOL0     C72100   2.482   0.892   7.205 -0.5323  0.5501  0.1681
  523MOL0     C72101   2.386   0.875   7.273 -0.8934 -0.5190 -0.6185
  523MOL0     C72102   3.171   0.622   6.966 -0.1414  0.7350 -0.1378
  523MOL0     C72103   3.276   0.524   6.970 -0.2831  0.1879 -0.1858
  523MOL0     C72104   3.388   0.558   7.069 -0.0998  0.3001  0.1649
  523MOL0     H72105   3.320  -0.015   6.677  0.1701 -1.3038  0.7159
  523MOL0     H72106   3.491  -0.183   6.605  1.4523  0.2961 -0.9038
  523MOL0     H72107   3.660  -0.327   6.563  0.7191  0.1393  1.1758
  523MOL0     H72108   3.729  -0.305   6.715 -0.7916 -1.2883  0.1378
  523MOL0     H72109   3.954  -0.330   6.594 -0.2239 -1.4625  1.5428
  523MOL0     H72110   3.832  -0.464   6.559  0.5551 -0.1233  2.6792
  523MOL0     H72111   3.770  -0.360   6.341 -0.6575  3.2964  0.4308
  523MOL0     H72112   3.894  -0.237   6.392 -3.1152  0.5636  2.6787
  523MOL0     H72113   4.075  -0.383   6.349 -0.5606  2.0269 -0.2272
  523MOL0     H72114   3.979  -0.521   6.386  0.8603 -0.9563 -1.5175
  523MOL0     H72115   3.923  -0.376   6.123 -0.9129 -0.9286  0.3459
  523MOL0     H72116   3.860  -0.523   6.199 -0.4163 -0.2686 -0.3492
  523MOL0     H72117   4.007  -0.552   6.028 -2.2900  0.0664  0.4199
  523MOL0     H72118   4.145  -0.481   6.100 -1.4466 -0.1364 -1.9725
  523MOL0     H72119   4.006  -0.721   6.227 -1.5922  1.2219 -3.1548
  523MOL0     H72120   4.153  -0.636   6.287  0.7177 -1.0308 -0.5523
  523MOL0     H72121   4.173  -0.854   6.149 -0.2138  0.6945  0.7392
  523MOL0     H72122   4.157  -0.763   6.005  0.5879  1.7243 -0.7501
  523MOL0     H72123   4.350  -0.550   6.017 -1.7775 -1.2508  0.8188
  523MOL0     H72124   4.713  -0.571   6.154  0.4441 -2.7717  0.6146
  523MOL0     H72125   4.598  -0.457   6.086  2.2897  0.4214  0.7288
  523MOL0     H72126   4.609  -0.576   5.871 -0.0112  2.5664  0.5337
  523MOL0     H72127   4.759  -0.506   5.918  0.7175 -1.9843 -1.5549
  523MOL0     H72128   4.857  -0.724   5.994 -0.6888  0.7193  1.4366
  523MOL0     H72129   4.697  -0.803   5.963 -0.7150 -0.4316 -0.0295
  523MOL0     H72130   4.734  -0.797   5.748 -0.1504  0.5120  0.0430
  523MOL0     H72131   4.846  -0.653   5.747  1.7036  0.4778  0.8495
  523MOL0     H72132   5.002  -0.685   5.591 -0.1522 -2.8563 -0.4113
  523MOL0     H72133   5.306  -0.666   5.412  0.0248 -1.1157  0.9096
  523MOL0     H72134   5.271  -0.517   5.490 -1.1644 -0.5114  0.8730
  523MOL0     H72135   5.140  -0.605   5.429  0.7212 -1.6890 -2.8728
  523MOL0     H72136   5.635  -0.472   5.889 -0.1388  1.5515 -1.5887
  523MOL0     H72137   5.861  -0.376   5.878 -3.0027  0.5113 -1.2063
  523MOL0     H72138   6.172  -0.643   5.779 -0.2281 -2.4386 -1.9494
  523MOL0     H72139   6.160  -0.618   5.609 -0.1431  0.1627 -0.3306
  523MOL0     H72140   6.316  -0.427   5.621 -0.9716 -1.2614 -1.1233
  523MOL0     H72141   6.330  -0.459   5.791  0.6894  2.5963 -1.3667
  523MOL0     H72142   6.390  -0.685   5.589  1.7541 -0.0419  0.2374
  523MOL0     H72143   6.425  -0.666   5.763 -1.3801  1.7770  1.9152
  523MOL0     H72144   6.522  -0.507   5.516  0.8098 -0.3243  0.0191
  523MOL0     H72145   6.613  -0.631   5.591  2.1675 -0.2341  4.1178
  523MOL0     H72146   6.555  -0.362   5.734  0.0226  0.5965 -0.7737
  523MOL0     H72147   6.653  -0.505   5.792  0.6757  0.4568  0.2941
  523MOL0     H72148   6.713  -0.371   5.530  1.2834  0.2095 -0.8882
  523MOL0     H72149   6.794  -0.502   5.612 -1.1248 -1.1047  2.0722
  523MOL0     H72150   6.803  -0.218   5.756 -1.8111 -0.9999  0.4751
  523MOL0     H72151   6.927  -0.289   5.645 -0.2696  0.6575  0.0254
  523MOL0     H72152   6.963  -0.474   5.785  1.5859  1.7181 -0.5742
  523MOL0     H72153   6.818  -0.440   5.887 -1.5197  0.3330 -1.4634
  523MOL0     H72154   5.986  -0.711   5.635  1.0324  1.3409 -0.5124
  523MOL0     H72155   5.748  -0.812   5.657  1.5422  1.3258 -3.3344
  523MOL0     H72156   5.383  -0.856   5.867 -1.0948 -1.1108  1.5748
  523MOL0     H72157   5.132  -0.909   5.928 -0.7640 -2.4839 -1.3813
  523MOL0     H72158   3.796   0.101   6.698 -0.9840 -0.9917 -0.4198
  523MOL0     H72159   3.642   0.251   6.794 -0.1305 -1.9459  2.2437
  523MOL0     H72160   3.151   0.317   6.739  0.9214 -0.4951 -0.0951
  523MOL0     H72161   2.983   0.492   6.724  2.2481  0.6024 -2.0750
  523MOL0     H72162   2.826   0.590   6.961 -1.3284  1.2869 -2.4784
  523MOL0     H72163   2.930   0.678   7.082  1.2358 -1.5654 -0.0163
  523MOL0     H72164   2.720   0.796   6.892  0.4163  1.2520 -0.2557
  523MOL0     H72165   2.829   0.891   6.983  1.6176 -1.2842  0.5479
  523MOL0     H72166   2.608   0.711   7.104 -0.1468  0.2142 -0.4436
  523MOL0     H72167   2.738   0.786   7.209 -0.3457  1.5640  0.5229
  523MOL0     H72168   2.540   0.929   7.020 -1.2261 -2.2497 -0.7209
  523MOL0     H72169   2.651   1.001   7.138 -1.5750  0.3656  2.1570
  523MOL0     H72170   2.300   0.862   7.336  0.7243 -1.4356  1.5068
  523MOL0     H72171   3.168   0.701   7.040 -0.0543 -1.1875  2.0306
  523MOL0     H72172   3.479   0.579   7.012 -1.2329  0.2555 -1.7358
  523MOL0     H72173   3.353   0.641   7.132 -0.3652  0.1287  0.2465
  523MOL0     H72174   3.398   0.475   7.139 -1.3083  1.0501  1.2881
  524MOL0     O72175   4.510   9.522  10.238 -0.1420  0.2147  0.7922
  524MOL0     C72176   4.466   9.637  10.217 -0.1804  0.6612  0.2612
  524MOL0     O72177   4.541   9.753  10.224 -0.4541 -0.1564 -0.4222
  524MOL0     C72178   4.673   9.738  10.256 -0.0386 -0.2835  0.4969
  524MOL0     C72179   4.712   9.771  10.387  0.5531  0.2321  0.7176
  524MOL0     C72180   4.849   9.793  10.414  0.3520  0.0500  0.9845
  524MOL0     C72181   4.947   9.767  10.310 -0.0643  0.9582 -0.5872
  524MOL0     O72182   5.082   9.751  10.334  0.1674  0.1452 -0.6820
  524MOL0     C72183   5.135   9.821  10.450  0.0457 -0.2767 -0.6009
  524MOL0     C72184   5.279   9.861  10.428 -0.6443  0.6631  0.1440
  524MOL0     C72185   5.366   9.885  10.556 -0.6315  0.5287 -0.4839
  524MOL0     C72186   5.517   9.911  10.542  0.3375  0.4393  0.2006
  524MOL0     C72187   5.601   9.784  10.539  0.2692 -0.4215 -0.6232
  524MOL0     C72188   5.659   9.743  10.675 -0.0189 -0.2003 -0.5861
  524MOL0     C72189   5.721   9.602  10.673 -0.3349 -0.8351  1.0069
  524MOL0     C72190   5.853   9.607  10.598  0.4584 -0.1075 -0.0530
  524MOL0     N72191   5.922   9.477  10.604  0.5202  0.1243  0.3951
  524MOL0     C72192   5.985   9.415  10.706  0.1062 -0.6462  0.0217
  524MOL0     C72193   6.006   9.289  10.659  0.6370  1.1403 -1.2868
  524MOL0     C72194   6.066   9.184  10.748  0.5997  0.8810  0.1319
  524MOL0     C72195   6.210   9.174  10.741 -0.1360 -0.7561  0.1456
  524MOL0     C72196   6.280   9.076  10.831  0.0218 -0.2465  0.3540
  524MOL0     C72197   6.423   9.051  10.790  0.1193 -0.4043 -0.5567
  524MOL0     O72198   6.501   9.175  10.779  0.2453 -0.4496 -0.2498
  524MOL0     C72199   6.640   9.161  10.763 -0.1447  0.7434  0.5222
  524MOL0     C72200   6.716   9.272  10.762 -0.7332 -0.5837 -0.3748
  524MOL0     C72201   6.857   9.275  10.752 -0.6539 -0.0045  0.1782
  524MOL0     C72202   6.917   9.407  10.723 -0.4057 -0.8485 -0.5134
  524MOL0     C72203   6.934   9.153  10.761  0.2411  0.0574  0.5517
  524MOL0     C72204   7.089   9.147  10.759  0.8914 -0.2568 -0.5566
  524MOL0     O72205   7.129   9.016  10.734  0.4693  0.4479  0.3240
  524MOL0     C72206   7.259   8.999  10.720 -0.0068  0.8296  0.2586
  524MOL0     C72207   7.309   9.026  10.598  0.1248 -0.1139  0.3817
  524MOL0     C72208   7.448   9.004  10.564 -0.0354  0.2771 -1.0085
  524MOL0     C72209   7.534   8.964  10.673  0.4763  0.3077  0.1788
  524MOL0     O72210   7.670   8.937  10.665 -0.9496 -0.4327  0.6784
  524MOL0     C72211   7.755   9.007  10.573 -0.6395 -0.9350  0.1123
  524MOL0     C72212   7.900   9.033  10.627 -0.7423  1.3693 -0.4892
  524MOL0     C72213   7.992   8.904  10.618 -1.2274  0.1186  0.3600
  524MOL0     C72214   8.104   8.908  10.726 -0.0328  0.2290 -0.0091
  524MOL0     C72215   8.186   8.771  10.731  0.2671 -0.2985  0.1336
  524MOL0     C72216   8.304   8.785  10.830  0.2742 -0.1970  1.0556
  524MOL0     C72217   8.393   8.657  10.824 -0.4905  0.1003  0.4828
  524MOL0     C72218   8.526   8.688  10.879 -1.0436  0.2456 -0.9495
  524MOL0    Cl72219   8.515   8.718  11.060 -0.1750 -0.1291 -0.0118
  524MOL0     C72220   7.481   8.941  10.793  0.7989  0.2846  0.3302
  524MOL0     C72221   7.343   8.955  10.815  0.7040 -0.3464 -0.1993
  524MOL0     O72222   7.158   9.249  10.769 -0.1593  0.1911 -0.4352
  524MOL0     C72223   6.859   9.030  10.778 -0.0313 -0.4903 -0.5542
  524MOL0     C72224   6.723   9.037  10.764  0.3239 -0.7579  0.1373
  524MOL0     N72225   5.958   9.276  10.528  0.6882  0.5591  0.1948
  524MOL0     N72226   5.909   9.392  10.501  0.1976 -0.3450 -0.0418
  524MOL0     C72227   4.909   9.732  10.182 -0.2994 -0.2179  0.1158
  524MOL0     C72228   4.767   9.723  10.153  0.2513  0.5158 -0.2138
  524MOL0     C72229   4.323   9.652  10.196 -0.1128  0.3740 -0.5986
  524MOL0     C72230   4.267   9.781  10.231 -1.1027 -0.4884 -0.1540
  524MOL0     C72231   4.135   9.798  10.228 -0.2939 -0.1204  0.9761
  524MOL0     C72232   4.053   9.701  10.182  0.9133 -0.3061  0.2805
  524MOL0     O72233   3.915   9.726  10.208  0.0845 -1.0536  0.1215
  524MOL0     C72234   3.821   9.623  10.169  0.2816  0.9801  0.4198
  524MOL0     C72235   3.678   9.680  10.178  0.3976 -0.6614 -0.5470
  524MOL0     C72236   3.576   9.566  10.178 -0.7040 -0.7802 -0.4187
  524MOL0     C72237   3.435   9.613  10.213 -0.0538  0.6656  0.4777
  524MOL0     C72238   3.325   9.517  10.186 -0.7617 -0.0086 -0.8501
  524MOL0     C72239   3.248   9.428  10.155 -0.8160 -0.4422  0.0426
  524MOL0     C72240   4.100   9.575  10.131  0.8678 -0.5509 -0.2657
  524MOL0     C72241   4.234   9.549  10.153 -0.1920 -0.3565 -0.6800
  524MOL0     C72242   4.277   9.405  10.138 -0.0964  1.4248  0.0360
  524MOL0     H72243   4.636   9.778  10.464 -0.9511  4.0368 -0.8925
  524MOL0     H72244   4.869   9.818  10.518 -1.5670 -1.3218  1.7372
  524MOL0     H72245   5.152   9.754  10.535 -1.2987 -0.6104 -0.5775
  524MOL0     H72246   5.072   9.900  10.491 -0.0683 -1.3506  1.4289
  524MOL0     H72247   5.323   9.786  10.361  1.3189  0.3037  1.7548
  524MOL0     H72248   5.288   9.954  10.372 -1.0602  1.6354  1.6299
  524MOL0     H72249   5.320   9.968  10.611  0.0776  0.1474  0.7130
  524MOL0     H72250   5.359   9.796  10.618  3.8716  0.2144 -0.1392
  524MOL0     H72251   5.534   9.985  10.464  1.2130  1.7651  1.5922
  524MOL0     H72252   5.549   9.968  10.630 -0.3120 -1.7993  1.9975
  524MOL0     H72253   5.681   9.811  10.470 -0.3608  3.1569 -0.1985
  524MOL0     H72254   5.550   9.704  10.485  2.2862 -0.6674 -2.2609
  524MOL0     H72255   5.720   9.824  10.716 -1.6360  0.1859  1.1795
  524MOL0     H72256   5.574   9.750  10.743  0.6693 -1.2504  0.4259
  524MOL0     H72257   5.650   9.541  10.617 -1.9843  2.2248 -0.4877
  524MOL0     H72258   5.740   9.571  10.776 -1.7293 -1.8436  0.9876
  524MOL0     H72259   5.841   9.633  10.492  1.2343 -2.2128 -0.6987
  524MOL0     H72260   5.907   9.690  10.645  0.9376 -0.0713 -0.6373
  524MOL0     H72261   6.020   9.450  10.803 -0.8413 -0.4851  0.3121
  524MOL0     H72262   6.011   9.096  10.713  1.0034  0.4188  0.6345
  524MOL0     H72263   6.036   9.217  10.848  0.7693  0.3397  0.3679
  524MOL0     H72264   6.244   9.140  10.643 -0.0926 -2.3373  0.6785
  524MOL0     H72265   6.259   9.272  10.752  1.6454 -1.5962  0.0175
  524MOL0     H72266   6.282   9.121  10.930  1.3262  1.3623 -0.3732
  524MOL0     H72267   6.221   8.983  10.836 -3.8213  1.9647  0.3925
  524MOL0     H72268   6.469   8.999  10.875 -0.3620  1.3726  0.8642
  524MOL0     H72269   6.431   8.995  10.696 -1.1741 -1.5058 -0.0367
  524MOL0     H72270   6.665   9.368  10.763 -3.1532 -1.7460  1.9979
  524MOL0     H72271   6.994   9.399  10.646 -3.1082 -0.7041 -3.4230
  524MOL0     H72272   6.962   9.454  10.811 -0.6248  0.5901 -1.1374
  524MOL0     H72273   6.840   9.472  10.679 -0.6524 -1.9891 -1.8240
  524MOL0     H72274   7.241   9.061  10.521  1.0101 -1.6883 -1.2054
  524MOL0     H72275   7.494   9.016  10.467  1.1948 -0.0833 -0.4884
  524MOL0     H72276   7.745   8.957  10.477  1.0937 -1.7457  0.3123
  524MOL0     H72277   7.703   9.103  10.567  3.7021  1.8571  1.5716
  524MOL0     H72278   7.948   9.109  10.565  0.7107 -0.0754 -1.2248
  524MOL0     H72279   7.892   9.072  10.729  1.1802  0.0480  0.2247
  524MOL0     H72280   8.024   8.896  10.513 -0.2273 -0.7313  0.7203
  524MOL0     H72281   7.939   8.812  10.643  3.7778 -2.8796  1.1996
  524MOL0     H72282   8.063   8.916  10.827  0.4388 -3.1156  0.5598
  524MOL0     H72283   8.182   8.984  10.714  1.4026 -1.1608  0.0701
  524MOL0     H72284   8.122   8.696  10.778  1.5095 -0.3034  1.9497
  524MOL0     H72285   8.221   8.750  10.630  2.9547 -0.5812  1.0267
  524MOL0     H72286   8.265   8.812  10.929 -0.3977  3.6877 -0.1050
  524MOL0     H72287   8.353   8.876  10.793 -2.1147  2.0105  2.9119
  524MOL0     H72288   8.395   8.631  10.717 -0.6012  1.0334  0.2458
  524MOL0     H72289   8.339   8.576  10.875 -2.2780  1.3131  0.5935
  524MOL0     H72290   8.583   8.768  10.831  0.0323  2.0115  2.9368
  524MOL0     H72291   8.582   8.594  10.871 -0.9462 -0.2174  3.2285
  524MOL0     H72292   7.547   8.919  10.876 -0.2619  1.5454  1.5622
  524MOL0     H72293   7.297   8.929  10.910 -0.2976 -1.1335 -0.8847
  524MOL0     H72294   6.903   8.931  10.781 -3.4293 -2.3410 -3.5309
  524MOL0     H72295   6.665   8.949  10.740 -2.7033  0.9423  0.6497
  524MOL0     H72296   4.976   9.710  10.100 -1.1111  0.1144 -0.6475
  524MOL0     H72297   4.736   9.704  10.051  1.6725 -0.7742 -0.4479
  524MOL0     H72298   4.334   9.865  10.252  2.5426 -3.0203 -0.6798
  524MOL0     H72299   4.093   9.897  10.245  1.7137  1.4883 -2.4431
  524MOL0     H72300   3.847   9.575  10.074 -3.0210  0.1185 -0.1870
  524MOL0     H72301   3.817   9.538  10.238 -1.3217 -1.8745 -2.8844
  524MOL0     H72302   3.659   9.748  10.094 -2.5710  1.0891  1.3501
  524MOL0     H72303   3.668   9.731  10.274  1.1891 -2.0408  0.2987
  524MOL0     H72304   3.573   9.517  10.080  0.3655  1.4308 -1.6104
  524MOL0     H72305   3.601   9.483  10.245 -0.8331 -0.3254  0.2039
  524MOL0     H72306   3.415   9.702  10.152 -0.6462 -1.5825 -2.8956
  524MOL0     H72307   3.428   9.658  10.312  1.5118 -0.7278  1.2672
  524MOL0     H72308   3.190   9.339  10.140  0.8807 -1.2064 -2.6939
  524MOL0     H72309   4.037   9.495  10.095  0.3651  0.0882 -0.8371
  524MOL0     H72310   4.355   9.393  10.062 -1.0943  0.6147 -0.8985
  524MOL0     H72311   4.312   9.369  10.235 -2.2378  2.0376  1.1049
  524MOL0     H72312   4.212   9.327  10.096  2.6763 -1.5632  0.8022
  525MOL0     O72313   7.766   0.076   2.748  0.1983 -0.0728 -0.0091
  525MOL0     C72314   7.865   0.076   2.675 -0.4138 -0.6288  0.6037
  525MOL0     O72315   7.885   0.159   2.565  0.2226  0.1529 -0.7737
  525MOL0     C72316   7.779   0.228   2.517  0.2875  0.2295 -0.6850
  525MOL0     C72317   7.752   0.357   2.573 -0.3255  1.1361 -0.1762
  525MOL0     C72318   7.638   0.425   2.532  0.6973 -0.0673 -0.0445
  525MOL0     C72319   7.543   0.364   2.451  0.9977  0.3277  0.3194
  525MOL0     O72320   7.431   0.441   2.439  0.5976 -0.4653 -0.2684
  525MOL0     C72321   7.365   0.442   2.310 -0.2202 -0.7584  0.4415
  525MOL0     C72322   7.246   0.536   2.312  0.5716  0.2005  0.4422
  525MOL0     C72323   7.290   0.686   2.282  0.1032 -0.8376  0.2487
  525MOL0     C72324   7.388   0.751   2.383  0.3844  0.0510 -0.0468
  525MOL0     C72325   7.429   0.904   2.361  0.2892 -0.6705  0.0681
  525MOL0     C72326   7.492   0.970   2.484  0.2040 -1.3769 -0.1860
  525MOL0     C72327   7.645   0.986   2.482  0.3739 -0.0734  0.2855
  525MOL0     C72328   7.712   0.854   2.502  0.2912 -0.5815  1.0808
  525MOL0     N72329   7.857   0.857   2.523  0.5748 -0.0310 -0.2240
  525MOL0     C72330   7.952   0.826   2.434 -0.1658  0.7092 -0.4363
  525MOL0     C72331   8.064   0.830   2.514 -0.8572 -0.0484 -0.2257
  525MOL0     C72332   8.211   0.784   2.491 -0.3677  1.0235  0.7156
  525MOL0     C72333   8.276   0.883   2.398 -0.2122 -0.1047 -0.3200
  525MOL0     C72334   8.428   0.873   2.418  0.4485 -0.1543  0.3556
  525MOL0     C72335   8.502   0.987   2.340  0.0076  0.4700 -0.3527
  525MOL0     O72336   8.635   0.948   2.291 -0.0283 -0.5735 -0.5130
  525MOL0     C72337   8.737   0.949   2.377  0.5169  0.1692  0.2178
  525MOL0     C72338   8.851   0.895   2.326  0.2676  0.4526 -0.2515
  525MOL0     C72339   8.969   0.883   2.407 -0.0522 -0.4140  0.6836
  525MOL0     C72340   9.089   0.825   2.340 -0.1442 -0.5186  0.4511
  525MOL0     C72341   8.969   0.929   2.538  0.9038  0.0696  0.4482
  525MOL0     C72342   9.087   0.926   2.621  0.3978 -0.6312 -1.0010
  525MOL0     O72343   9.101   1.030   2.710 -0.1283  0.3059  0.4126
  525MOL0     C72344   9.217   1.036   2.788 -0.0709 -0.4456  0.6385
  525MOL0     C72345   9.349   1.024   2.731 -0.0302  0.1231  0.3367
  525MOL0     C72346   9.463   1.040   2.820  0.1836 -0.6409 -0.1861
  525MOL0     C72347   9.449   1.036   2.959  0.2581 -0.4631  0.3900
  525MOL0     O72348   9.561   1.036   3.041  0.0640 -0.3232  0.4794
  525MOL0     C72349   9.688   1.093   3.010 -0.5478  0.0490  0.6059
  525MOL0     C72350   9.777   0.991   2.931  0.4992 -0.1096 -0.9213
  525MOL0     C72351   9.815   0.864   3.012 -0.0824 -0.1446 -0.7917
  525MOL0     C72352   9.901   0.882   3.132 -0.5840  0.0485 -0.4957
  525MOL0     C72353  10.007   0.997   3.141  0.3408  0.5284 -0.4394
  525MOL0     C72354  10.044   1.031   3.288  0.0796 -0.8686 -0.1826
  525MOL0     C72355  10.082   0.908   3.365 -0.7735 -0.3050  0.2209
  525MOL0     C72356  10.146   0.938   3.500 -0.3075 -0.1095  0.0512
  525MOL0    Cl72357  10.170   0.787   3.600  0.2123 -0.5639  0.3429
  525MOL0     C72358   9.315   1.042   3.009 -0.7357 -0.9115 -0.4328
  525MOL0     C72359   9.205   1.043   2.925 -0.2090  0.6673 -0.0611
  525MOL0     O72360   9.155   0.825   2.619  0.5511  0.2599 -0.3070
  525MOL0     C72361   8.850   0.987   2.593  0.4704 -0.6559  0.6461
  525MOL0     C72362   8.732   0.992   2.508 -0.7198  0.3282  0.6177
  525MOL0     N72363   8.026   0.855   2.646 -0.5765 -0.3102  0.0334
  525MOL0     N72364   7.905   0.878   2.648 -0.7352  0.5965  0.5242
  525MOL0     C72365   7.571   0.241   2.393 -0.0863 -0.1430  0.7908
  525MOL0     C72366   7.688   0.171   2.433  0.4089 -0.0696  0.2186
  525MOL0     C72367   7.983  -0.010   2.718 -0.6349  0.9262  0.5181
  525MOL0     C72368   8.103   0.025   2.655  0.1925 -0.5147  0.8783
  525MOL0     C72369   8.218  -0.052   2.683  1.0407 -0.2985  0.1962
  525MOL0     C72370   8.220  -0.155   2.777  0.9089 -0.6823 -0.1815
  525MOL0     O72371   8.328  -0.236   2.803  0.0293  0.2165 -0.7313
  525MOL0     C72372   8.397  -0.244   2.929  0.7539 -0.9894 -0.4603
  525MOL0     C72373   8.527  -0.331   2.936 -0.2096 -0.6137 -0.2454
  525MOL0     C72374   8.627  -0.283   2.830  0.4820  0.1236  0.1671
  525MOL0     C72375   8.756  -0.342   2.874 -0.0814 -0.0972  0.4993
  525MOL0     C72376   8.861  -0.294   2.784 -0.3906 -0.4865  1.3863
  525MOL0     C72377   8.926  -0.243   2.691  0.1605  0.7190 -0.5160
  525MOL0     C72378   8.100  -0.193   2.829 -0.4104  0.1314 -0.0616
  525MOL0     C72379   7.980  -0.127   2.804  0.1625 -0.5326  0.8845
  525MOL0     C72380   7.852  -0.168   2.867  0.5461  0.0709 -0.8596
  525MOL0     H72381   7.821   0.405   2.641  0.7889  0.5020 -0.8135
  525MOL0     H72382   7.621   0.526   2.567  0.1813 -0.2850  0.3319
  525MOL0     H72383   7.316   0.349   2.280 -3.9972  1.6851 -1.7776
  525MOL0     H72384   7.442   0.472   2.239 -0.1149 -0.1769  0.7980
  525MOL0     H72385   7.173   0.508   2.236 -0.9377 -0.6417  2.1256
  525MOL0     H72386   7.203   0.528   2.412  0.3824  0.3036  0.3692
  525MOL0     H72387   7.323   0.711   2.180  1.0367 -1.2777  0.4273
  525MOL0     H72388   7.197   0.742   2.294  0.3841 -0.1864 -0.5012
  525MOL0     H72389   7.341   0.746   2.482  0.8934  1.0317  0.2596
  525MOL0     H72390   7.485   0.701   2.388  2.8171  4.0693 -2.2503
  525MOL0     H72391   7.338   0.963   2.346 -0.6263 -1.9380  0.4598
  525MOL0     H72392   7.502   0.913   2.279 -0.1397  0.4880 -0.2095
  525MOL0     H72393   7.453   1.072   2.494  0.7622 -1.2615  0.9829
  525MOL0     H72394   7.456   0.916   2.572 -0.0503 -2.2890 -0.8460
  525MOL0     H72395   7.674   1.063   2.553 -2.0542  0.7405  0.4843
  525MOL0     H72396   7.661   1.025   2.381  0.2557 -4.1874 -1.5398
  525MOL0     H72397   7.677   0.808   2.595 -0.1450 -2.6591 -0.0597
  525MOL0     H72398   7.689   0.778   2.427  2.4465 -0.5526  0.3038
  525MOL0     H72399   7.932   0.784   2.336  1.3234 -2.4830  0.5025
  525MOL0     H72400   8.214   0.685   2.445 -0.2093 -0.2295  3.2471
  525MOL0     H72401   8.270   0.782   2.583  1.3110  2.7715 -0.2448
  525MOL0     H72402   8.260   0.846   2.297 -0.6418  0.1620 -0.3526
  525MOL0     H72403   8.257   0.989   2.416  2.6715  0.4774 -0.2807
  525MOL0     H72404   8.451   0.877   2.525 -0.5623  1.7603  0.5528
  525MOL0     H72405   8.468   0.784   2.368 -0.0619  0.7081 -1.6765
  525MOL0     H72406   8.442   1.023   2.256 -1.9973 -1.6192  0.0776
  525MOL0     H72407   8.511   1.074   2.406  0.3714 -0.6475  1.1337
  525MOL0     H72408   8.849   0.860   2.223  0.4344 -3.0106  0.8233
  525MOL0     H72409   9.063   0.812   2.234 -1.7329  1.1202  0.5977
  525MOL0     H72410   9.120   0.729   2.383 -3.2238 -2.8769 -1.9931
  525MOL0     H72411   9.174   0.892   2.345 -0.1623 -0.5645  1.6191
  525MOL0     H72412   9.368   1.005   2.626  0.9241 -0.2220  0.5614
  525MOL0     H72413   9.557   1.037   2.767 -1.6634 -0.6446 -3.7771
  525MOL0     H72414   9.677   1.179   2.945  2.4700  0.8740  1.0289
  525MOL0     H72415   9.739   1.131   3.099 -1.3444 -0.6204  1.3724
  525MOL0     H72416   9.733   0.970   2.833  3.3929 -0.9551 -2.1217
  525MOL0     H72417   9.870   1.041   2.903  0.3084 -0.3389 -1.9832
  525MOL0     H72418   9.852   0.794   2.936  0.9777  0.9014 -1.2776
  525MOL0     H72419   9.727   0.817   3.056  1.2133 -2.8796 -0.9163
  525MOL0     H72420   9.957   0.788   3.137  1.4672  1.2493  0.0275
  525MOL0     H72421   9.846   0.890   3.226  0.0837 -1.2456  0.0247
  525MOL0     H72422  10.090   0.978   3.073 -0.4057  3.3045 -2.2836
  525MOL0     H72423   9.961   1.093   3.116 -0.2872  0.5100  0.5809
  525MOL0     H72424   9.959   1.073   3.344  0.5442  0.1490 -0.2286
  525MOL0     H72425  10.125   1.104   3.287 -1.7608  1.3206 -2.0366
  525MOL0     H72426  10.142   0.838   3.307 -2.9674 -1.5967 -0.5837
  525MOL0     H72427   9.994   0.848   3.390 -0.6393  0.5866  3.2444
  525MOL0     H72428  10.075   1.005   3.550  0.8486  1.2116  0.0107
  525MOL0     H72429  10.234   1.001   3.484 -0.7779  0.4286 -0.4473
  525MOL0     H72430   9.306   1.035   3.117  0.5424  0.6675 -0.1821
  525MOL0     H72431   9.106   1.035   2.968  0.4166  0.2128  1.3429
  525MOL0     H72432   8.846   1.034   2.690 -0.3437 -2.5611  1.5884
  525MOL0     H72433   8.643   1.042   2.544 -0.7216  2.2166 -1.8290
  525MOL0     H72434   7.509   0.194   2.317  3.2874 -2.7073 -0.6034
  525MOL0     H72435   7.693   0.071   2.393 -1.1733 -0.5156  1.0395
  525MOL0     H72436   8.124   0.110   2.590  2.4712 -1.3181  0.4791
  525MOL0     H72437   8.309  -0.030   2.628  1.4580 -1.0440  0.5830
  525MOL0     H72438   8.416  -0.144   2.970 -0.5636 -1.0340  0.3301
  525MOL0     H72439   8.324  -0.288   2.997  0.6837 -1.4252 -0.8157
  525MOL0     H72440   8.502  -0.433   2.905 -2.3975 -0.7254  1.6126
  525MOL0     H72441   8.567  -0.334   3.037  0.5374  1.2848 -0.4519
  525MOL0     H72442   8.599  -0.304   2.726 -1.3008  3.5975 -0.1960
  525MOL0     H72443   8.629  -0.175   2.846  2.6452  0.0519  0.6138
  525MOL0     H72444   8.751  -0.450   2.861  1.9758 -0.0987 -0.6307
  525MOL0     H72445   8.774  -0.311   2.978  4.1531 -4.5255  1.4447
  525MOL0     H72446   8.995  -0.195   2.625  1.5094  2.4867  2.0060
  525MOL0     H72447   8.095  -0.288   2.882 -4.1764  0.7487  0.9733
  525MOL0     H72448   7.786  -0.224   2.800  1.6906 -0.9908 -1.1462
  525MOL0     H72449   7.883  -0.241   2.942  0.4814  0.9290  0.0104
  525MOL0     H72450   7.802  -0.088   2.922 -2.6022 -2.0524 -0.3688
  526MOL0     O72451   0.759   5.934   1.503  0.1754 -0.7713 -0.4996
  526MOL0     C72452   0.724   5.864   1.593  1.2215  0.0631  0.0031
  526MOL0     O72453   0.785   5.748   1.623 -0.0283 -0.4166  0.7452
  526MOL0     C72454   0.921   5.750   1.592 -0.2618 -1.5851  0.6249
  526MOL0     C72455   1.011   5.783   1.703  0.3863  0.2760 -0.1227
  526MOL0     C72456   1.150   5.796   1.684  0.2582 -0.5686  0.1732
  526MOL0     C72457   1.207   5.772   1.560  0.5194  0.1921  0.2833
  526MOL0     O72458   1.346   5.766   1.563  0.0949 -0.4965 -0.4354
  526MOL0     C72459   1.417   5.697   1.456  0.0472  0.1883  0.7362
  526MOL0     C72460   1.565   5.654   1.496  0.2759  0.4406  0.7581
  526MOL0     C72461   1.659   5.772   1.494  1.3150 -0.0940  0.1804
  526MOL0     C72462   1.800   5.713   1.521 -0.4010 -0.4565  0.0748
  526MOL0     C72463   1.903   5.817   1.479  0.4161  0.7366  0.4128
  526MOL0     C72464   2.046   5.754   1.450 -0.2916  0.2126  0.3683
  526MOL0     C72465   2.134   5.869   1.430  0.1153 -0.6386 -0.4576
  526MOL0     C72466   2.264   5.831   1.357  0.3399  0.0087  0.6432
  526MOL0     N72467   2.255   5.814   1.213  0.3732  0.0992  0.6084
  526MOL0     C72468   2.257   5.914   1.112  0.3142  0.8007 -0.5663
  526MOL0     C72469   2.272   5.850   0.995  0.0363  0.9067  0.2089
  526MOL0     C72470   2.272   5.915   0.859  0.0301 -0.2884 -0.9075
  526MOL0     C72471   2.424   5.947   0.825  0.7187 -0.3320 -0.7054
  526MOL0     C72472   2.470   6.074   0.902  0.6370  0.1606 -0.6788
  526MOL0     C72473   2.612   6.112   0.840 -0.0972 -0.0333  0.4265
  526MOL0     O72474   2.691   6.200   0.924 -0.1485 -0.4401  0.0973
  526MOL0     C72475   2.819   6.218   0.893 -0.1551  0.3916  0.3674
  526MOL0     C72476   2.869   6.199   0.768  0.5561 -0.0835 -0.7347
  526MOL0     C72477   3.007   6.215   0.745 -0.6424 -1.0336  0.4854
  526MOL0     C72478   3.052   6.198   0.599  0.1710  0.1712 -0.4062
  526MOL0     C72479   3.096   6.256   0.846 -0.7428  0.4717 -0.2767
  526MOL0     C72480   3.249   6.279   0.825  0.2392 -0.1696 -0.1083
  526MOL0     O72481   3.325   6.339   0.926  0.1230  0.3281  0.5815
  526MOL0     C72482   3.466   6.332   0.925 -0.2598  0.6687 -0.8192
  526MOL0     C72483   3.540   6.443   0.926  0.0142 -0.8856  0.0510
  526MOL0     C72484   3.681   6.441   0.914  0.0033 -0.0059  0.6375
  526MOL0     C72485   3.744   6.317   0.911  0.2001  0.5606 -0.4631
  526MOL0     O72486   3.875   6.292   0.912 -0.4378  0.0029 -0.3118
  526MOL0     C72487   3.950   6.354   0.803 -0.2189 -0.3150  0.6365
  526MOL0     C72488   4.068   6.263   0.759  0.1128 -0.7973  0.8250
  526MOL0     C72489   4.005   6.131   0.711 -0.8655 -0.4562 -0.7522
  526MOL0     C72490   4.108   6.065   0.610  0.2924  0.1912 -0.5324
  526MOL0     C72491   4.030   5.935   0.561 -0.5685 -0.6076 -0.4433
  526MOL0     C72492   3.987   5.838   0.672  0.1147  0.4389  0.2358
  526MOL0     C72493   3.950   5.696   0.603 -0.1851 -0.0868  0.1315
  526MOL0     C72494   3.880   5.604   0.700  0.2738  0.0841 -0.0370
  526MOL0    Cl72495   3.855   5.446   0.632  0.0523 -0.3780 -0.2200
  526MOL0     C72496   3.664   6.196   0.909 -0.2711  0.2054 -0.2852
  526MOL0     C72497   3.528   6.207   0.921 -0.2221 -0.3886 -0.8503
  526MOL0     O72498   3.299   6.238   0.721  0.0393 -0.3147 -0.2144
  526MOL0     C72499   3.046   6.270   0.976 -0.3688  0.3984  0.2199
  526MOL0     C72500   2.906   6.259   0.996 -0.3451  0.6243 -0.5294
  526MOL0     N72501   2.287   5.714   1.021 -0.2087 -0.1710  0.1771
  526MOL0     N72502   2.274   5.695   1.147  0.1525  0.2053  0.1889
  526MOL0     C72503   1.122   5.734   1.447  0.1265  0.5650  0.1928
  526MOL0     C72504   0.983   5.733   1.465  0.0961 -0.1617  0.0514
  526MOL0     C72505   0.620   5.928   1.676  0.1233 -0.0484 -0.6367
  526MOL0     C72506   0.570   5.870   1.799 -0.9778 -0.6001 -0.0775
  526MOL0     C72507   0.483   5.934   1.889  0.1641 -0.9632  0.3347
  526MOL0     C72508   0.453   6.067   1.863  0.5757  0.3370 -0.2661
  526MOL0     O72509   0.372   6.120   1.959 -0.4859 -0.3707  0.0907
  526MOL0     C72510   0.390   6.262   1.992  0.3412 -0.0022  0.2202
  526MOL0     C72511   0.262   6.338   1.947 -0.7301  0.2144 -0.3247
  526MOL0     C72512   0.252   6.390   1.802 -0.2858 -0.4673 -0.0989
  526MOL0     C72513   0.157   6.513   1.795 -0.6975 -0.0151 -0.3168
  526MOL0     C72514   0.015   6.483   1.798  0.4564  0.1226 -0.3148
  526MOL0     C72515  -0.099   6.432   1.811 -0.4768 -1.0957  0.5844
  526MOL0     C72516   0.475   6.118   1.741  0.7292 -0.5404 -0.3922
  526MOL0     C72517   0.566   6.060   1.652  0.5969 -0.5689  1.0591
  526MOL0     C72518   0.616   6.144   1.531  0.3928 -0.2589 -0.3968
  526MOL0     H72519   0.963   5.802   1.798  1.0748  2.4912 -0.1612
  526MOL0     H72520   1.230   5.829   1.750 -0.4959  2.6389 -0.3080
  526MOL0     H72521   1.432   5.766   1.373  1.6116 -0.8657  0.1000
  526MOL0     H72522   1.359   5.606   1.436 -0.0241  0.2706  0.5671
  526MOL0     H72523   1.566   5.619   1.600  0.4843 -0.0234  0.5981
  526MOL0     H72524   1.602   5.573   1.433 -1.4263  0.5558 -0.4379
  526MOL0     H72525   1.645   5.823   1.398  1.1984 -2.2999 -1.0355
  526MOL0     H72526   1.631   5.838   1.576 -0.7200  0.0522 -0.5845
  526MOL0     H72527   1.811   5.692   1.628  0.7429 -2.8990 -0.4591
  526MOL0     H72528   1.824   5.616   1.477  2.9993 -0.3047  1.2732
  526MOL0     H72529   1.922   5.886   1.562  1.0721 -0.2837  1.1409
  526MOL0     H72530   1.879   5.866   1.384  0.3098 -1.5885 -0.8323
  526MOL0     H72531   2.093   5.710   1.539  0.7063 -1.2197 -0.8365
  526MOL0     H72532   2.045   5.689   1.362  0.8268  2.2730 -1.2232
  526MOL0     H72533   2.166   5.911   1.526  2.2863  5.2194 -3.3039
  526MOL0     H72534   2.074   5.941   1.374  0.1940  0.1214  0.3998
  526MOL0     H72535   2.337   5.907   1.384 -1.9877  2.4441  0.5124
  526MOL0     H72536   2.293   5.732   1.395  0.6259 -0.2753 -0.2862
  526MOL0     H72537   2.266   6.022   1.115 -0.9627  0.9117  0.2963
  526MOL0     H72538   2.220   6.011   0.866  0.3361 -0.2752  2.3046
  526MOL0     H72539   2.221   5.844   0.793 -1.7062  0.5137 -0.4999
  526MOL0     H72540   2.486   5.863   0.856  2.8647  0.6854 -2.0307
  526MOL0     H72541   2.439   5.952   0.717  2.8018 -0.7205 -0.4701
  526MOL0     H72542   2.403   6.159   0.890 -1.5745 -1.8032 -4.4549
  526MOL0     H72543   2.482   6.043   1.006 -1.4257  0.4193 -0.3279
  526MOL0     H72544   2.675   6.023   0.828 -3.3592 -2.6883  1.6560
  526MOL0     H72545   2.604   6.146   0.736 -1.4161 -1.7280 -0.0700
  526MOL0     H72546   2.803   6.171   0.687  0.8716 -0.5775 -0.8206
  526MOL0     H72547   2.974   6.180   0.525  0.3068 -1.5242 -0.1742
  526MOL0     H72548   3.114   6.108   0.601 -2.5982 -1.8751  1.9082
  526MOL0     H72549   3.098   6.288   0.557  0.1790 -0.5624 -2.0373
  526MOL0     H72550   3.499   6.543   0.930  0.6141 -0.6445  0.4460
  526MOL0     H72551   3.741   6.532   0.919 -2.2514  1.6059  0.0491
  526MOL0     H72552   3.885   6.372   0.716  2.3543  0.4591 -1.2384
  526MOL0     H72553   3.992   6.446   0.843  1.0151 -1.3577  1.8359
  526MOL0     H72554   4.126   6.302   0.674 -0.3736 -2.1360 -0.1736
  526MOL0     H72555   4.148   6.249   0.832  2.1101  0.7725 -0.9225
  526MOL0     H72556   3.904   6.151   0.676 -1.1134 -0.6759 -0.1641
  526MOL0     H72557   3.984   6.064   0.795 -1.0310  0.3616 -0.1234
  526MOL0     H72558   4.206   6.042   0.652  0.9050  0.4490 -1.7838
  526MOL0     H72559   4.119   6.139   0.531  0.5470  2.3133  1.3922
  526MOL0     H72560   3.941   5.962   0.503 -1.3528  0.2283  1.0996
  526MOL0     H72561   4.101   5.876   0.502  0.5750 -0.0613  0.3649
  526MOL0     H72562   3.896   5.868   0.725 -0.5888 -0.9291 -0.1275
  526MOL0     H72563   4.064   5.823   0.748  0.1131  0.2891  0.2087
  526MOL0     H72564   4.044   5.645   0.579 -0.1114 -0.5616  1.3084
  526MOL0     H72565   3.885   5.704   0.516 -0.1493  2.4347  0.2673
  526MOL0     H72566   3.790   5.652   0.740  1.4089 -0.8010  4.0451
  526MOL0     H72567   3.940   5.592   0.790 -0.7371 -0.4795  0.5792
  526MOL0     H72568   3.702   6.096   0.893 -0.9020  0.0815 -1.0932
  526MOL0     H72569   3.472   6.115   0.906  0.1383 -0.5861 -0.9945
  526MOL0     H72570   3.105   6.305   1.060 -0.0058  1.2042 -0.3537
  526MOL0     H72571   2.867   6.282   1.095 -0.8836 -1.4822 -0.1900
  526MOL0     H72572   1.178   5.708   1.358  3.5015  2.0612  1.6983
  526MOL0     H72573   0.923   5.717   1.376  0.8690  2.6506 -1.0961
  526MOL0     H72574   0.611   5.776   1.833 -0.6837  0.1585  1.7801
  526MOL0     H72575   0.457   5.898   1.988 -3.5384  0.5788  0.1015
  526MOL0     H72576   0.400   6.272   2.100  1.2642  0.8099  0.0732
  526MOL0     H72577   0.482   6.292   1.941  0.0310 -1.8372 -1.5593
  526MOL0     H72578   0.266   6.434   1.999  0.3457  0.2330 -0.4129
  526MOL0     H72579   0.168   6.287   1.968 -1.0709  1.4064  1.1934
  526MOL0     H72580   0.350   6.419   1.762 -0.0064  0.6359  1.3044
  526MOL0     H72581   0.209   6.323   1.728  1.5438  0.5258 -2.2075
  526MOL0     H72582   0.180   6.573   1.707  2.7960 -2.7746 -1.5452
  526MOL0     H72583   0.188   6.571   1.882 -4.2839 -0.2538  1.2664
  526MOL0     H72584  -0.195   6.385   1.822 -2.1027  1.6444 -0.7621
  526MOL0     H72585   0.439   6.217   1.716  0.3582 -0.9950 -1.7816
  526MOL0     H72586   0.581   6.104   1.436 -2.0376 -0.9231  0.6976
  526MOL0     H72587   0.566   6.241   1.543  0.8019  0.2381 -2.3384
  526MOL0     H72588   0.723   6.165   1.540  0.1860  0.0905  2.1827
  527MOL0     O72589   3.460   4.745   9.397  0.3365  0.0108 -0.5028
  527MOL0     C72590   3.400   4.641   9.429  0.0320 -0.1189  0.8518
  527MOL0     O72591   3.313   4.621   9.534 -0.4362  0.0550  0.2875
  527MOL0     C72592   3.297   4.709   9.642  0.6492  0.0595  0.2480
  527MOL0     C72593   3.195   4.665   9.729  0.2053  0.0317 -0.5314
  527MOL0     C72594   3.172   4.730   9.850  0.0411  0.1843 -0.5554
  527MOL0     C72595   3.244   4.851   9.875  0.3239  0.5646 -0.2411
  527MOL0     O72596   3.204   4.919   9.978  0.1071  0.8774 -0.0116
  527MOL0     C72597   3.275   5.032  10.029 -0.0150 -0.4122  0.3422
  527MOL0     C72598   3.209   5.087  10.159 -0.1512  0.0915  0.1790
  527MOL0     C72599   3.252   5.238  10.170  0.1365 -0.9215 -0.3180
  527MOL0     C72600   3.210   5.307  10.297 -0.1357  0.2888  0.5786
  527MOL0     C72601   3.062   5.321  10.304  0.0312  0.6249  0.6701
  527MOL0     C72602   3.024   5.427  10.403 -0.8501 -1.3247 -0.5041
  527MOL0     C72603   2.886   5.486  10.384 -1.1155 -0.1124 -0.6931
  527MOL0     C72604   2.841   5.552  10.518 -0.4003  0.2973 -0.3901
  527MOL0     N72605   2.730   5.490  10.582  0.6267  0.3731  0.3511
  527MOL0     C72606   2.727   5.382  10.669  0.6361  0.1834  0.5984
  527MOL0     C72607   2.597   5.350  10.700 -0.6023 -0.2702  1.2391
  527MOL0     C72608   2.556   5.240  10.796 -0.3382  0.6935 -0.3840
  527MOL0     C72609   2.499   5.280  10.943 -0.3002  0.3822  0.3248
  527MOL0     C72610   2.341   5.299  10.956  0.1131  0.8585 -0.5403
  527MOL0     C72611   2.256   5.176  10.937 -0.0670  0.3629 -0.1152
  527MOL0     O72612   2.130   5.189  10.993 -0.0511 -0.6890  0.4272
  527MOL0     C72613   2.061   5.077  11.023  0.0119 -0.7837  0.5455
  527MOL0     C72614   2.086   4.948  10.982 -1.5026 -0.1150 -1.0823
  527MOL0     C72615   2.008   4.840  11.014  0.1584 -0.6828  1.2094
  527MOL0     C72616   2.046   4.708  10.949 -0.2160  0.4854  0.2824
  527MOL0     C72617   1.898   4.857  11.100  0.7301 -0.7866  0.5898
  527MOL0     C72618   1.815   4.750  11.139  0.0947  0.4870  0.6050
  527MOL0     O72619   1.802   4.723  11.264 -0.5397  0.3741  0.4361
  527MOL0     C72620   1.916   4.699  11.337  0.1642  0.0788 -0.3093
  527MOL0     C72621   2.005   4.797  11.388  0.1457  0.2561 -0.3329
  527MOL0     C72622   2.114   4.749  11.473  0.5507  0.1818  0.5340
  527MOL0     C72623   2.124   4.612  11.508  0.2759 -0.5064 -0.1049
  527MOL0     O72624   2.237   4.573  11.582 -0.4347  0.0528  1.2400
  527MOL0     C72625   2.218   4.478  11.687 -0.4258 -1.0640 -0.2913
  527MOL0     C72626   2.330   4.444  11.787  1.0136  0.5698  0.4414
  527MOL0     C72627   2.272   4.366  11.906 -0.7440  0.0957  0.0921
  527MOL0     C72628   2.377   4.317  12.010  0.3679 -0.5834  0.1758
  527MOL0     C72629   2.318   4.245  12.135 -0.3570  0.1992  0.7050
  527MOL0     C72630   2.292   4.348  12.252 -0.4271  0.4212 -0.3913
  527MOL0     C72631   2.190   4.276  12.352  0.6084 -0.1962  0.8113
  527MOL0     C72632   2.245   4.143  12.408  0.4655  0.2630  0.2969
  527MOL0    Cl72633   2.162   4.102  12.555 -0.2694  0.0200 -0.2088
  527MOL0     C72634   2.029   4.522  11.459 -0.2706 -0.3396  0.3404
  527MOL0     C72635   1.933   4.566  11.372  0.5377  0.3560 -0.7240
  527MOL0     O72636   1.771   4.674  11.051  0.1218  0.0004 -0.8829
  527MOL0     C72637   1.861   4.991  11.137 -0.1087  0.7359  0.8568
  527MOL0     C72638   1.940   5.104  11.095  0.6748 -0.2023  0.2160
  527MOL0     N72639   2.516   5.424  10.614  1.2082 -0.2244  0.2260
  527MOL0     N72640   2.594   5.507  10.552  0.2872  0.3946  0.5325
  527MOL0     C72641   3.333   4.900   9.790  0.1144  0.6503  0.1847
  527MOL0     C72642   3.361   4.836   9.665  0.1071  0.8683 -0.7693
  527MOL0     C72643   3.411   4.531   9.334  0.1478 -0.9140 -0.1541
  527MOL0     C72644   3.317   4.430   9.342  0.2824 -0.5214  0.3661
  527MOL0     C72645   3.316   4.332   9.245  0.6075  0.7645  0.2526
  527MOL0     C72646   3.420   4.318   9.153 -0.2843  0.4058  0.2805
  527MOL0     O72647   3.436   4.215   9.060  0.6491  0.4482 -0.0811
  527MOL0     C72648   3.319   4.128   9.033  0.1456 -0.4199 -0.7499
  527MOL0     C72649   3.337   4.061   8.897  0.3310 -0.4131 -1.0562
  527MOL0     C72650   3.427   3.933   8.914  0.2721  0.3307 -0.5363
  527MOL0     C72651   3.469   3.878   8.771  1.0891  0.8539 -0.2930
  527MOL0     C72652   3.538   3.982   8.700  0.3132  1.4511  0.2714
  527MOL0     C72653   3.594   4.075   8.650 -0.1756  0.6831  0.0387
  527MOL0     C72654   3.516   4.423   9.151  0.3576 -0.2334  0.3249
  527MOL0     C72655   3.521   4.529   9.241  1.4181  0.3780 -0.3377
  527MOL0     C72656   3.635   4.621   9.226 -0.8445  0.8713 -0.2208
  527MOL0     H72657   3.131   4.578   9.718 -3.3399  2.4619 -0.4481
  527MOL0     H72658   3.103   4.691   9.925 -1.1952 -2.8330 -3.0012
  527MOL0     H72659   3.272   5.111   9.953 -2.3447  0.0657  0.8655
  527MOL0     H72660   3.384   5.022  10.040  0.5257  2.8317 -1.1020
  527MOL0     H72661   3.103   5.096  10.133  0.1387  2.3617 -0.4870
  527MOL0     H72662   3.236   5.026  10.246  1.9991 -0.0564 -0.5298
  527MOL0     H72663   3.361   5.237  10.174  0.3019 -0.3072 -2.8653
  527MOL0     H72664   3.208   5.281  10.080  0.7060 -3.4866 -1.9377
  527MOL0     H72665   3.243   5.239  10.376  2.5984  0.0403 -0.6474
  527MOL0     H72666   3.269   5.398  10.312 -1.5697  1.5163 -0.8718
  527MOL0     H72667   3.019   5.225  10.335 -0.3537  0.2222 -0.9887
  527MOL0     H72668   3.023   5.343  10.204  4.4672 -0.9017 -1.7035
  527MOL0     H72669   3.036   5.388  10.504  0.1995  2.0654  0.7813
  527MOL0     H72670   3.100   5.504  10.401  0.3920 -2.3880  1.8315
  527MOL0     H72671   2.822   5.405  10.349  0.1243 -1.2073 -0.4925
  527MOL0     H72672   2.889   5.561  10.305 -0.5572  0.7327  0.1050
  527MOL0     H72673   2.926   5.537  10.585 -0.5656  1.4041  0.0898
  527MOL0     H72674   2.825   5.659  10.507  2.1359  0.6332 -1.6865
  527MOL0     H72675   2.818   5.332  10.701 -0.4762 -1.3378  1.4458
  527MOL0     H72676   2.649   5.190  10.825  0.3448  1.5566 -1.0170
  527MOL0     H72677   2.493   5.169  10.742  0.1499  1.3433 -1.8710
  527MOL0     H72678   2.540   5.207  11.013 -0.5659 -2.8088 -2.6117
  527MOL0     H72679   2.543   5.379  10.959 -1.1276  1.3372 -2.6007
  527MOL0     H72680   2.309   5.313  11.059 -0.8944 -0.7363 -0.5941
  527MOL0     H72681   2.320   5.378  10.883  2.4501  0.8007 -1.3356
  527MOL0     H72682   2.244   5.148  10.832  1.3745 -0.1878 -0.1636
  527MOL0     H72683   2.309   5.094  10.988 -0.0450  0.6176  0.2765
  527MOL0     H72684   2.180   4.937  10.929 -0.3719  1.0629  0.5747
  527MOL0     H72685   1.967   4.674  10.881  1.4574 -0.3775 -1.3044
  527MOL0     H72686   2.065   4.618  11.008  2.7531 -2.3732 -4.4000
  527MOL0     H72687   2.132   4.727  10.884 -0.4387 -0.6980 -0.3886
  527MOL0     H72688   2.000   4.902  11.361 -0.9047  0.3989  0.3581
  527MOL0     H72689   2.188   4.816  11.517  1.8487  0.4607 -1.9162
  527MOL0     H72690   2.146   4.531  11.750 -0.2683  1.1011 -1.7970
  527MOL0     H72691   2.189   4.378  11.653 -1.0443 -2.4235  3.7553
  527MOL0     H72692   2.406   4.388  11.732 -1.1983 -1.6893 -0.5714
  527MOL0     H72693   2.371   4.541  11.814  0.5240  1.4163 -1.6718
  527MOL0     H72694   2.221   4.277  11.870  0.8414 -1.9873  2.5696
  527MOL0     H72695   2.200   4.435  11.951  0.1775  1.8144 -0.9414
  527MOL0     H72696   2.427   4.401  12.058  0.0671  0.3663 -1.1366
  527MOL0     H72697   2.457   4.255  11.968  1.1765  0.4395  0.1752
  527MOL0     H72698   2.229   4.188  12.105 -1.3151  1.3853  1.2267
  527MOL0     H72699   2.394   4.172  12.164 -1.8269 -2.1433 -0.9865
  527MOL0     H72700   2.253   4.443  12.213  2.5185  0.8655 -2.6386
  527MOL0     H72701   2.386   4.366  12.305 -1.1580 -0.7934  1.4101
  527MOL0     H72702   2.093   4.256  12.305 -1.0723  1.4905  3.2943
  527MOL0     H72703   2.163   4.338  12.439  1.8552 -1.7683  2.3788
  527MOL0     H72704   2.352   4.148  12.432  0.7300 -0.4242 -0.7037
  527MOL0     H72705   2.231   4.069  12.329  0.6545  2.1314 -1.5395
  527MOL0     H72706   2.040   4.415  11.472  1.7220 -0.0226  1.7986
  527MOL0     H72707   1.861   4.498  11.327  2.1763 -2.1108  0.2277
  527MOL0     H72708   1.770   5.007  11.194 -2.4921  0.0128 -2.4408
  527MOL0     H72709   1.922   5.208  11.122  2.4861  0.4676 -0.9549
  527MOL0     H72710   3.393   4.989   9.802 -1.3325  1.9214 -1.4747
  527MOL0     H72711   3.432   4.867   9.589  0.5220 -2.8349 -2.0856
  527MOL0     H72712   3.237   4.424   9.415  2.3220 -1.5500  2.6464
  527MOL0     H72713   3.233   4.261   9.244  0.6284  0.7309 -1.6966
  527MOL0     H72714   3.302   4.048   9.105  1.5982  0.1976  0.3217
  527MOL0     H72715   3.235   4.195   9.013  1.3324  0.5208 -2.9289
  527MOL0     H72716   3.385   4.132   8.831  1.6011 -0.0226  0.2421
  527MOL0     H72717   3.245   4.017   8.855  0.0534 -2.5205  1.4533
  527MOL0     H72718   3.524   3.947   8.963  1.2205 -1.6161 -1.7619
  527MOL0     H72719   3.387   3.847   8.969 -2.1731  1.5382 -0.2541
  527MOL0     H72720   3.381   3.853   8.710  0.5678 -0.0557  0.8078
  527MOL0     H72721   3.526   3.784   8.774 -1.9629 -1.0790  1.6033
  527MOL0     H72722   3.653   4.163   8.633  0.0750  0.1112 -2.5960
  527MOL0     H72723   3.582   4.418   9.065 -2.2589  1.7642 -1.9605
  527MOL0     H72724   3.681   4.632   9.325 -0.1093 -3.2586  0.0655
  527MOL0     H72725   3.705   4.585   9.150  0.2263  0.7741  0.7721
  527MOL0     H72726   3.598   4.712   9.178 -1.7334 -0.9454 -3.2110
  528MOL0     O72727  10.933   8.711  10.988  0.2558  0.3520  0.1212
  528MOL0     C72728  10.887   8.813  10.948 -0.7563  0.4790 -0.0540
  528MOL0     O72729  10.948   8.914  10.877 -1.2054 -0.4307  0.2955
  528MOL0     C72730  11.060   8.984  10.935 -0.4130  0.0337  0.7442
  528MOL0     C72731  11.122   9.071  10.845  0.7791  0.0266 -0.6456
  528MOL0     C72732  11.233   9.147  10.888  0.3672  0.4404 -0.3478
  528MOL0     C72733  11.286   9.127  11.020  0.8646  0.4255 -0.7457
  528MOL0     O72734  11.400   9.194  11.043 -0.4819  0.7336 -0.0392
  528MOL0     C72735  11.478   9.169  11.163 -0.0618 -0.5423 -0.2517
  528MOL0     C72736  11.626   9.219  11.169  0.1171 -0.5972 -0.0863
  528MOL0     C72737  11.722   9.150  11.069  0.8107  0.6286  0.5888
  528MOL0     C72738  11.866   9.170  11.105  0.0970  0.5646  0.3776
  528MOL0     C72739  11.972   9.097  11.017  0.4232 -0.5972  0.0401
  528MOL0     C72740  12.117   9.125  11.064  0.6760 -0.0875 -0.3643
  528MOL0     C72741  12.137   9.148  11.208  0.6600 -0.7512 -0.0178
  528MOL0     C72742  12.283   9.168  11.258  0.0234  0.2791 -0.2862
  528MOL0     N72743  12.395   9.087  11.193 -0.0498 -0.3413 -0.0543
  528MOL0     C72744  12.431   9.086  11.056  0.9870 -0.9753 -0.9255
  528MOL0     C72745  12.511   8.975  11.044  0.1355 -0.9711  0.6285
  528MOL0     C72746  12.583   8.934  10.917  0.8332 -0.7156  0.1435
  528MOL0     C72747  12.574   8.783  10.872  0.2357 -0.3599 -0.0765
  528MOL0     C72748  12.663   8.766  10.758  0.2010  0.9516  0.1127
  528MOL0     C72749  12.631   8.635  10.680  0.5902  0.0510 -0.8089
  528MOL0     O72750  12.737   8.597  10.599 -0.9338  0.2546  0.3056
  528MOL0     C72751  12.736   8.628  10.463 -0.6295  0.2498 -0.1585
  528MOL0     C72752  12.652   8.715  10.388 -0.0828 -0.0807 -0.3009
  528MOL0     C72753  12.661   8.722  10.251 -0.2188 -0.3771  0.6810
  528MOL0     C72754  12.590   8.832  10.181  0.6442 -0.1406  0.6844
  528MOL0     C72755  12.749   8.636  10.178  0.8911  1.6849 -0.5874
  528MOL0     C72756  12.749   8.618  10.029  0.3029 -0.3066  0.5555
  528MOL0     O72757  12.628   8.618   9.970 -0.1994  0.0834 -0.0919
  528MOL0     C72758  12.617   8.610   9.839 -0.2261  1.0815  0.6468
  528MOL0     C72759  12.694   8.542   9.741 -0.2444 -0.1249 -0.3872
  528MOL0     C72760  12.693   8.582   9.605 -0.1060 -0.9404 -0.0785
  528MOL0     C72761  12.593   8.670   9.556  0.0353 -0.6573  0.5561
  528MOL0     O72762  12.583   8.709   9.419  0.7502  0.0475  0.3509
  528MOL0     C72763  12.448   8.722   9.373 -0.5324 -0.4392  0.4780
  528MOL0     C72764  12.446   8.689   9.225  0.2538 -0.1278 -0.4730
  528MOL0     C72765  12.300   8.677   9.166 -0.1290  0.5970  0.7232
  528MOL0     C72766  12.207   8.592   9.260 -0.7081 -0.7482 -0.3318
  528MOL0     C72767  12.092   8.552   9.171 -0.1937  0.2467  0.3167
  528MOL0     C72768  12.005   8.444   9.225  0.0683  1.0778  0.3747
  528MOL0     C72769  12.072   8.314   9.285  0.3450 -0.5649 -0.3090
  528MOL0     C72770  11.966   8.206   9.336  0.4561 -0.5466 -0.0967
  528MOL0    Cl72771  11.847   8.153   9.218 -0.0618 -0.0349 -0.3835
  528MOL0     C72772  12.512   8.717   9.651  1.2127 -0.3781 -0.0583
  528MOL0     C72773  12.521   8.695   9.787 -0.2169 -0.6610  0.3089
  528MOL0     O72774  12.859   8.609   9.972 -0.5909  0.2167 -0.0386
  528MOL0     C72775  12.823   8.541  10.253 -0.0057  0.4083  0.1653
  528MOL0     C72776  12.818   8.545  10.389 -0.0287 -0.1037  0.0241
  528MOL0     N72777  12.521   8.918  11.168  0.1833 -0.0828  0.0662
  528MOL0     N72778  12.447   8.980  11.256 -0.0758  0.3925 -0.1547
  528MOL0     C72779  11.224   9.038  11.114 -0.1264 -0.1435 -0.4899
  528MOL0     C72780  11.109   8.970  11.065  0.3337  0.0108 -0.1416
  528MOL0     C72781  10.740   8.837  10.947  1.2166  0.0273 -0.1866
  528MOL0     C72782  10.682   8.972  10.977 -0.4999 -0.4127  0.0522
  528MOL0     C72783  10.541   8.990  10.988  0.0472  0.0875 -0.4514
  528MOL0     C72784  10.459   8.881  10.974  0.0224  0.2777 -0.5043
  528MOL0     O72785  10.328   8.896  10.994  0.2774  0.3055  0.2880
  528MOL0     C72786  10.247   8.780  11.012  0.5987  0.6680 -0.0092
  528MOL0     C72787  10.113   8.847  11.059 -0.0891  0.2684 -0.9527
  528MOL0     C72788  10.005   8.735  11.092  0.2866 -0.1241 -0.5220
  528MOL0     C72789   9.865   8.783  11.108 -0.0151 -0.4161 -0.0518
  528MOL0     C72790   9.773   8.677  11.156 -0.4918 -0.2912  0.1817
  528MOL0     C72791   9.700   8.590  11.194 -0.2268  0.6581 -1.1949
  528MOL0     C72792  10.520   8.754  10.955  0.6131 -0.3424 -0.4744
  528MOL0     C72793  10.656   8.726  10.940 -0.5219  0.2051  0.2381
  528MOL0     C72794  10.699   8.592  10.884 -0.5278 -0.8918  0.3737
  528MOL0     H72795  11.082   9.086  10.745 -1.0269 -0.4921 -0.0347
  528MOL0     H72796  11.292   9.206  10.818  1.5870 -1.2056 -0.7739
  528MOL0     H72797  11.471   9.063  11.189  1.9697 -0.4690  0.7505
  528MOL0     H72798  11.420   9.225  11.237 -0.0906  1.3923 -1.6418
  528MOL0     H72799  11.623   9.328  11.160 -0.5200 -0.4926  1.2215
  528MOL0     H72800  11.671   9.200  11.267 -0.4309  1.9058  0.7220
  528MOL0     H72801  11.691   9.046  11.060  0.5190  0.8588 -1.3415
  528MOL0     H72802  11.699   9.198  10.974  0.0652  4.1377  2.3918
  528MOL0     H72803  11.877   9.279  11.105 -3.5804  1.1233  2.8784
  528MOL0     H72804  11.866   9.133  11.208  0.3656 -0.8436 -0.1184
  528MOL0     H72805  11.965   9.118  10.910  3.7094 -0.8328 -0.3202
  528MOL0     H72806  11.959   8.991  11.039 -1.4823 -0.0403  1.9488
  528MOL0     H72807  12.169   9.034  11.031 -0.0324 -0.8522  0.5778
  528MOL0     H72808  12.158   9.205  11.002 -1.5663  1.1623 -0.3506
  528MOL0     H72809  12.094   9.065  11.265  1.4843 -0.0674  1.6521
  528MOL0     H72810  12.086   9.241  11.236  1.8305  0.6193 -2.1007
  528MOL0     H72811  12.308   9.274  11.244 -1.2544  0.6423 -0.0024
  528MOL0     H72812  12.290   9.143  11.364 -0.6390 -1.5557 -0.6279
  528MOL0     H72813  12.399   9.157  10.981 -1.1916  0.2621  1.0441
  528MOL0     H72814  12.688   8.964  10.930  0.5928  0.5258 -0.6551
  528MOL0     H72815  12.563   9.001  10.833  1.7418  2.0516  2.0046
  528MOL0     H72816  12.608   8.722  10.956  0.4212 -0.9090 -0.5450
  528MOL0     H72817  12.471   8.766  10.840 -0.7903  2.1873  1.5105
  528MOL0     H72818  12.651   8.844  10.683 -0.9712  1.4174  0.7567
  528MOL0     H72819  12.768   8.750  10.785  0.4503 -2.6919 -2.3191
  528MOL0     H72820  12.616   8.556  10.754  1.2223  1.0414  0.3999
  528MOL0     H72821  12.539   8.651  10.624  1.0699  3.8194 -0.7408
  528MOL0     H72822  12.591   8.796  10.427  0.0116  2.0095 -3.9927
  528MOL0     H72823  12.647   8.863  10.093  2.7467 -1.1702  1.5884
  528MOL0     H72824  12.566   8.917  10.245 -0.6843 -0.7547  1.0343
  528MOL0     H72825  12.492   8.790  10.156  0.3896  0.7101  0.2276
  528MOL0     H72826  12.758   8.466   9.784 -0.5368 -0.0972  0.1059
  528MOL0     H72827  12.768   8.546   9.536 -0.3498  3.4501 -2.9847
  528MOL0     H72828  12.385   8.648   9.423 -0.4186 -1.5543 -0.9601
  528MOL0     H72829  12.414   8.824   9.395 -2.4385 -1.6945  4.0457
  528MOL0     H72830  12.496   8.775   9.178 -2.3424  0.4569 -2.3456
  528MOL0     H72831  12.508   8.601   9.204  2.8399  1.1565  1.1574
  528MOL0     H72832  12.309   8.626   9.070  1.3217  1.2408  0.4775
  528MOL0     H72833  12.261   8.779   9.157  0.8810  0.9903  0.6011
  528MOL0     H72834  12.180   8.651   9.348  1.5552  0.8889 -0.6335
  528MOL0     H72835  12.270   8.508   9.291  0.9441  0.7465  0.5654
  528MOL0     H72836  12.020   8.633   9.162 -1.0868 -0.3521  1.7708
  528MOL0     H72837  12.130   8.531   9.070 -1.1597  1.1762 -0.2636
  528MOL0     H72838  11.941   8.420   9.140 -1.5737  3.7744  0.7630
  528MOL0     H72839  11.937   8.485   9.300 -2.4124 -0.1651 -1.0543
  528MOL0     H72840  12.140   8.346   9.365 -0.1759  1.6556 -0.6991
  528MOL0     H72841  12.125   8.267   9.202  0.7254 -1.4588  0.4225
  528MOL0     H72842  11.921   8.243   9.429 -3.4932  3.6104 -3.1980
  528MOL0     H72843  12.031   8.121   9.357 -0.2317 -1.2891 -0.9285
  528MOL0     H72844  12.438   8.791   9.622  2.3885  1.1745  0.7716
  528MOL0     H72845  12.460   8.749   9.860 -0.3727 -1.1329  0.5353
  528MOL0     H72846  12.876   8.465  10.196 -1.1651 -0.1904 -0.1540
  528MOL0     H72847  12.874   8.467  10.439 -1.4856 -1.0106  0.3127
  528MOL0     H72848  11.250   9.014  11.217  0.0539 -1.5229 -0.8354
  528MOL0     H72849  11.068   8.895  11.133  0.3653 -0.0558 -0.1946
  528MOL0     H72850  10.748   9.058  10.980  0.0138 -0.8064  0.1380
  528MOL0     H72851  10.482   9.077  11.014 -4.4549 -1.6714 -3.6535
  528MOL0     H72852  10.214   8.726  10.923 -0.1418  1.9343 -0.5390
  528MOL0     H72853  10.283   8.710  11.087  1.1416  0.6334 -0.2960
  528MOL0     H72854  10.074   8.906  10.976  0.6797 -3.4673 -4.2470
  528MOL0     H72855  10.135   8.910  11.146  0.7227 -2.1702  0.6874
  528MOL0     H72856  10.015   8.661  11.012 -1.1529 -2.1615  1.1056
  528MOL0     H72857  10.044   8.685  11.181  1.2552 -1.3402 -1.5776
  528MOL0     H72858   9.831   8.820  11.011 -1.4255  0.1366  0.6253
  528MOL0     H72859   9.859   8.859  11.186  1.6396 -0.4348  0.1253
  528MOL0     H72860   9.631   8.516  11.229  0.0624  2.0439  2.7976
  528MOL0     H72861  10.457   8.666  10.948  1.6230 -0.9392 -3.0949
  528MOL0     H72862  10.779   8.602  10.810  1.0343 -3.3484  1.5893
  528MOL0     H72863  10.744   8.542  10.970 -0.0829 -1.9145 -0.4261
  528MOL0     H72864  10.621   8.529  10.839 -0.3443 -0.1574 -1.0409
  529MOL0     O72865   2.548   1.430   1.392  0.5567  0.2337 -0.2683
  529MOL0     C72866   2.458   1.365   1.332 -0.9226 -0.2368 -0.0877
  529MOL0     O72867   2.471   1.319   1.208 -0.2255 -0.6417  0.3513
  529MOL0     C72868   2.553   1.384   1.128  0.3342  0.3090  0.4672
  529MOL0     C72869   2.511   1.509   1.074 -1.7534  0.4611 -0.2673
  529MOL0     C72870   2.599   1.580   0.988  1.1993  0.6481 -0.4277
  529MOL0     C72871   2.722   1.521   0.958 -0.4349 -0.6578  0.3818
  529MOL0     O72872   2.802   1.588   0.867 -0.7127  0.5890 -0.1572
  529MOL0     C72873   2.823   1.508   0.741 -0.3709  0.4172 -0.5943
  529MOL0     C72874   2.910   1.581   0.640 -0.0970  0.1565  0.3723
  529MOL0     C72875   2.908   1.495   0.513  0.1270 -0.5263  0.3390
  529MOL0     C72876   2.964   1.580   0.410  0.0649 -0.2094 -0.1951
  529MOL0     C72877   2.994   1.517   0.271  0.4413  0.6146 -0.7764
  529MOL0     C72878   3.063   1.617   0.175 -0.2731  0.9291  0.4040
  529MOL0     C72879   3.201   1.660   0.220 -0.3827 -0.4541  0.5372
  529MOL0     C72880   3.294   1.693   0.094  0.4274  0.4848 -0.4577
  529MOL0     N72881   3.436   1.710   0.130  0.6129  0.9780 -0.0832
  529MOL0     C72882   3.533   1.613   0.134  0.6560 -0.1789 -0.6356
  529MOL0     C72883   3.651   1.673   0.170  1.0487  0.5586 -0.2302
  529MOL0     C72884   3.777   1.614   0.206  1.1350  0.2301  0.7679
  529MOL0     C72885   3.836   1.533   0.088 -0.1944 -0.2317  0.0853
  529MOL0     C72886   3.989   1.508   0.096 -1.1863 -0.1822  0.4923
  529MOL0     C72887   4.047   1.409  -0.012  0.4629  0.1703  0.7765
  529MOL0     O72888   4.017   1.455  -0.150 -0.3302 -0.1265 -0.3905
  529MOL0     C72889   4.013   1.354  -0.246  0.0333  0.3661  0.2251
  529MOL0     C72890   3.994   1.408  -0.376 -0.1122  0.3249  0.5339
  529MOL0     C72891   3.980   1.323  -0.491 -0.1805 -0.0750  0.2025
  529MOL0     C72892   3.923   1.384  -0.617 -0.5732  0.6602 -0.2315
  529MOL0     C72893   3.989   1.184  -0.468  0.2004 -0.0453 -0.5893
  529MOL0     C72894   3.978   1.078  -0.576 -0.4187  0.1711  0.0148
  529MOL0     O72895   3.979   0.945  -0.527  0.0451 -0.0184  0.1364
  529MOL0     C72896   3.960   0.852  -0.627  0.0195  0.9384 -0.8276
  529MOL0     C72897   4.067   0.802  -0.702 -0.5062 -0.2889  0.6427
  529MOL0     C72898   4.053   0.719  -0.806  0.0028  0.0436 -0.9224
  529MOL0     C72899   3.922   0.660  -0.826  0.3406  0.8820  0.1231
  529MOL0     O72900   3.891   0.580  -0.933  0.7179  0.1848 -0.6423
  529MOL0     C72901   3.993   0.555  -1.033  0.3628  0.5260  0.1365
  529MOL0     C72902   4.013   0.663  -1.148 -0.4224 -1.0215 -0.3871
  529MOL0     C72903   4.137   0.613  -1.215 -0.2995 -0.4613 -1.0229
  529MOL0     C72904   4.168   0.685  -1.346  0.1053  0.0301  0.5515
  529MOL0     C72905   4.321   0.669  -1.387  0.2268  0.4504 -0.5524
  529MOL0     C72906   4.343   0.756  -1.515  0.2365  0.7729 -0.0567
  529MOL0     C72907   4.485   0.735  -1.560  0.1550 -0.4484  0.2178
  529MOL0     C72908   4.516   0.831  -1.677  0.2339  0.1746  0.2058
  529MOL0    Cl72909   4.636   0.772  -1.785 -0.2984 -0.2629 -0.3542
  529MOL0     C72910   3.821   0.692  -0.738 -0.4071 -0.9178  0.0821
  529MOL0     C72911   3.837   0.790  -0.645  1.1452 -0.9751 -0.2196
  529MOL0     O72912   3.979   1.111  -0.698  0.4585  0.1833 -0.4278
  529MOL0     C72913   4.034   1.137  -0.345 -0.9016  0.9169  0.1434
  529MOL0     C72914   4.042   1.222  -0.235 -1.2098 -0.0402 -0.4508
  529MOL0     N72915   3.613   1.812   0.172 -0.3079  0.3585 -0.0510
  529MOL0     N72916   3.491   1.827   0.137  0.1048  0.6979  0.2753
  529MOL0     C72917   2.764   1.396   1.001  1.1682  0.2738  0.5377
  529MOL0     C72918   2.682   1.335   1.099  0.2974 -0.0123  0.5381
  529MOL0     C72919   2.340   1.323   1.405  0.1598 -0.0242 -0.4261
  529MOL0     C72920   2.224   1.300   1.331  0.3397  0.5187 -0.8178
  529MOL0     C72921   2.104   1.271   1.396 -0.3940 -0.5113  0.9743
  529MOL0     C72922   2.093   1.268   1.533 -0.8623 -0.2438  0.4278
  529MOL0     O72923   1.979   1.243   1.608  0.5250 -0.6764 -0.1731
  529MOL0     C72924   1.849   1.242   1.536 -0.8835  0.3292 -0.3225
  529MOL0     C72925   1.768   1.174   1.638  0.4100 -1.0784 -0.4508
  529MOL0     C72926   1.670   1.268   1.702  0.2824 -0.9718 -0.1403
  529MOL0     C72927   1.591   1.194   1.807  0.5980  0.8327 -0.2475
  529MOL0     C72928   1.478   1.118   1.751  0.1151  0.4067  0.7561
  529MOL0     C72929   1.391   1.034   1.720 -0.2534 -0.5636 -0.1107
  529MOL0     C72930   2.214   1.281   1.601 -0.8127  0.7625  0.6127
  529MOL0     C72931   2.336   1.303   1.541  0.0491 -0.3707 -0.0879
  529MOL0     C72932   2.455   1.300   1.631 -0.8762  0.9462  0.1677
  529MOL0     H72933   2.416   1.562   1.081 -1.5911  0.5968  1.1609
  529MOL0     H72934   2.556   1.666   0.938  0.7143 -1.2554 -3.5665
  529MOL0     H72935   2.730   1.490   0.686 -0.0424 -1.6834 -0.5680
  529MOL0     H72936   2.858   1.409   0.773 -0.1948  0.9929  1.0524
  529MOL0     H72937   2.873   1.684   0.631 -3.6775 -1.1227 -1.2335
  529MOL0     H72938   3.012   1.582   0.680  0.0804 -1.5666  0.0415
  529MOL0     H72939   2.977   1.411   0.522 -0.8399 -1.3169  0.5349
  529MOL0     H72940   2.808   1.462   0.482  0.3215 -1.9270  1.1206
  529MOL0     H72941   2.897   1.665   0.394 -0.1027 -0.3482 -0.2317
  529MOL0     H72942   3.059   1.618   0.450 -1.0835  1.1795  1.3871
  529MOL0     H72943   2.900   1.487   0.224  1.0393 -0.5576 -1.2568
  529MOL0     H72944   3.057   1.429   0.283  2.2214  1.8396 -0.7851
  529MOL0     H72945   3.067   1.587   0.070 -3.0899  0.5255  0.3359
  529MOL0     H72946   3.000   1.706   0.170  0.7993  1.7452  1.0105
  529MOL0     H72947   3.253   1.589   0.285  0.1792  1.3230  2.1343
  529MOL0     H72948   3.191   1.744   0.290  2.1370 -1.3454  2.1133
  529MOL0     H72949   3.285   1.608   0.026  0.3784 -0.8392  1.1287
  529MOL0     H72950   3.246   1.780   0.049 -0.2360  0.2296 -0.2537
  529MOL0     H72951   3.520   1.508   0.109 -0.7356 -0.4064  0.8953
  529MOL0     H72952   3.757   1.538   0.282 -1.9044  0.6053  0.4753
  529MOL0     H72953   3.842   1.687   0.254  2.3382  0.8636 -1.6513
  529MOL0     H72954   3.781   1.439   0.096  0.1128 -0.3307  1.2748
  529MOL0     H72955   3.807   1.580  -0.007 -1.1803 -2.8854 -1.0144
  529MOL0     H72956   4.049   1.600   0.095  0.6165 -1.2604  2.4204
  529MOL0     H72957   4.013   1.461   0.192  0.7393 -0.4288 -0.0582
  529MOL0     H72958   4.154   1.390  -0.004  0.3053 -1.7418 -0.8906
  529MOL0     H72959   3.996   1.314   0.004  1.1547 -0.9419 -2.7423
  529MOL0     H72960   3.995   1.516  -0.392 -1.1912  0.2049 -0.4483
  529MOL0     H72961   3.875   1.482  -0.604 -3.2920 -0.7980  1.5864
  529MOL0     H72962   3.842   1.318  -0.649 -0.7515  1.4040 -1.3487
  529MOL0     H72963   4.002   1.385  -0.692 -1.3494  0.0362 -1.0716
  529MOL0     H72964   4.166   0.830  -0.669  0.5283 -2.4909 -0.4050
  529MOL0     H72965   4.134   0.695  -0.874  0.0335  1.6952 -1.5181
  529MOL0     H72966   4.090   0.527  -0.989 -0.7679  0.2155  2.6137
  529MOL0     H72967   3.969   0.460  -1.081  1.5019  0.0665  0.4304
  529MOL0     H72968   3.931   0.665  -1.220 -0.8087 -0.9873  0.0483
  529MOL0     H72969   4.022   0.763  -1.105  2.1643 -0.8575 -1.1289
  529MOL0     H72970   4.129   0.505  -1.228 -0.2234 -0.5860 -0.1132
  529MOL0     H72971   4.220   0.629  -1.145  0.2631 -3.2106 -0.9549
  529MOL0     H72972   4.137   0.789  -1.331 -1.0850 -0.6825  4.1908
  529MOL0     H72973   4.104   0.638  -1.420 -0.3861  1.7057 -0.1223
  529MOL0     H72974   4.388   0.688  -1.303  0.6892  0.2536 -0.8717
  529MOL0     H72975   4.332   0.564  -1.417  2.8102  0.0714  1.4225
  529MOL0     H72976   4.328   0.864  -1.503  0.5911  0.9079 -0.7493
  529MOL0     H72977   4.276   0.730  -1.598  1.5580  1.3883 -1.3752
  529MOL0     H72978   4.502   0.630  -1.585  0.0211 -0.6696  1.0015
  529MOL0     H72979   4.554   0.755  -1.478  2.1721 -2.2499 -0.9441
  529MOL0     H72980   4.543   0.928  -1.635  1.5793 -0.5661  1.1309
  529MOL0     H72981   4.423   0.852  -1.730  0.3703  0.7179  0.1679
  529MOL0     H72982   3.720   0.654  -0.755 -0.3510 -0.5426 -1.2529
  529MOL0     H72983   3.751   0.825  -0.588  0.6556 -0.6977 -1.0981
  529MOL0     H72984   4.062   1.034  -0.328  1.6722  1.6950  1.0930
  529MOL0     H72985   4.076   1.188  -0.138 -0.3991 -2.6788 -1.5859
  529MOL0     H72986   2.860   1.350   0.980  0.7894  0.1835 -1.1567
  529MOL0     H72987   2.731   1.250   1.145  2.5155  0.1293 -1.3410
  529MOL0     H72988   2.237   1.312   1.224  0.7015 -2.2103 -1.1472
  529MOL0     H72989   2.017   1.260   1.332  0.3831 -1.6227  0.0606
  529MOL0     H72990   1.817   1.343   1.510  1.8720  0.9565 -1.7064
  529MOL0     H72991   1.838   1.181   1.446 -5.0767  1.7091 -0.9724
  529MOL0     H72992   1.826   1.120   1.714 -3.2356 -3.4884  0.8750
  529MOL0     H72993   1.727   1.086   1.587  0.8740 -0.0438 -2.7524
  529MOL0     H72994   1.732   1.347   1.744 -0.1018 -0.8446  0.1975
  529MOL0     H72995   1.599   1.300   1.625 -2.2564 -3.3753  0.9797
  529MOL0     H72996   1.546   1.256   1.885 -1.8463 -0.6430 -0.3738
  529MOL0     H72997   1.651   1.120   1.861 -1.8648  0.2336  1.9076
  529MOL0     H72998   1.305   0.974   1.698 -0.0080 -1.0806  0.3192
  529MOL0     H72999   2.206   1.262   1.708 -0.6496  0.9267  0.6549
  529MOL0     H73000   2.489   1.401   1.654  1.5082  0.0253  0.9438
  529MOL0     H73001   2.429   1.252   1.725  3.7523  0.5949  1.5118
  529MOL0     H73002   2.545   1.254   1.588 -2.2039  0.2725 -2.0433
  530MOL0     O73003   0.647   7.972   5.274 -0.0848 -0.5049 -0.5530
  530MOL0     C73004   0.577   7.869   5.273 -0.9133 -0.1648  0.3175
  530MOL0     O73005   0.541   7.800   5.161  0.2697 -0.9559  0.2031
  530MOL0     C73006   0.650   7.789   5.087 -0.9970 -0.4302 -0.6060
  530MOL0     C73007   0.643   7.825   4.956  0.1965 -0.1876 -0.4341
  530MOL0     C73008   0.759   7.816   4.872  0.2309  0.2944 -0.4465
  530MOL0     C73009   0.882   7.762   4.925  0.2323  0.3636  0.3634
  530MOL0     O73010   0.995   7.764   4.844  0.8985 -0.1260  0.1781
  530MOL0     C73011   1.002   7.861   4.739  0.3662 -0.2702  0.6119
  530MOL0     C73012   1.147   7.907   4.698  0.6024  0.2293 -0.0507
  530MOL0     C73013   1.214   7.998   4.805  1.4748  1.1560 -0.1371
  530MOL0     C73014   1.363   8.025   4.767 -0.5031 -0.0394  0.3380
  530MOL0     C73015   1.392   8.137   4.665 -0.1350  0.4353 -0.1682
  530MOL0     C73016   1.543   8.151   4.649  0.7249 -1.3112  0.7677
  530MOL0     C73017   1.608   8.054   4.552  0.2733 -0.3626  0.5867
  530MOL0     C73018   1.757   8.092   4.537 -0.3902 -0.1184  0.2532
  530MOL0     N73019   1.818   8.020   4.425  0.0513 -0.5620  0.1490
  530MOL0     C73020   1.936   7.943   4.428  0.2176  0.1031 -0.2756
  530MOL0     C73021   1.944   7.911   4.292  1.2883  0.3575  0.0828
  530MOL0     C73022   2.025   7.797   4.226  0.8689 -0.3005 -0.9101
  530MOL0     C73023   2.179   7.820   4.241  0.5877  0.3938  0.3622
  530MOL0     C73024   2.273   7.769   4.121  0.0279  0.2653 -1.2128
  530MOL0     C73025   2.245   7.617   4.099 -0.6452  0.0561 -0.1991
  530MOL0     O73026   2.282   7.539   4.213  0.1644 -0.6011 -0.1317
  530MOL0     C73027   2.419   7.524   4.247  0.3974 -0.1055 -0.1488
  530MOL0     C73028   2.469   7.545   4.386 -0.0490 -0.2436 -0.2832
  530MOL0     C73029   2.606   7.549   4.416  1.6413 -0.1959  0.4226
  530MOL0     C73030   2.632   7.601   4.555  0.0906  0.2700 -0.0598
  530MOL0     C73031   2.704   7.509   4.323 -0.8727 -0.8025  0.1891
  530MOL0     C73032   2.851   7.514   4.341  0.0015 -0.0568 -0.5639
  530MOL0     O73033   2.892   7.524   4.472 -0.9200 -0.2904  0.7417
  530MOL0     C73034   3.027   7.548   4.513  0.7924 -0.6319  0.1750
  530MOL0     C73035   3.042   7.531   4.651  0.2838  0.1318  0.4967
  530MOL0     C73036   3.167   7.549   4.707 -0.1205  0.5258 -0.1924
  530MOL0     C73037   3.286   7.579   4.631  0.5475  0.5076  0.8692
  530MOL0     O73038   3.403   7.618   4.691 -0.4357  0.0514 -0.7709
  530MOL0     C73039   3.529   7.553   4.656 -0.0114  0.7191  0.0136
  530MOL0     C73040   3.544   7.417   4.743 -0.4953  0.4279  0.9922
  530MOL0     C73041   3.586   7.434   4.887 -0.2001  0.1379  0.8210
  530MOL0     C73042   3.722   7.510   4.902  0.5519 -0.4576  0.2438
  530MOL0     C73043   3.817   7.465   5.016 -0.0960 -0.3669  0.1641
  530MOL0     C73044   3.915   7.576   5.052 -0.7651 -0.9266  0.2041
  530MOL0     C73045   4.006   7.538   5.168  0.3107  0.1102  0.3946
  530MOL0     C73046   4.114   7.632   5.210  0.5541 -0.3702 -0.0014
  530MOL0    Cl73047   4.045   7.768   5.313  0.5606 -0.1082  0.3943
  530MOL0     C73048   3.262   7.587   4.494 -0.3367 -0.1121  1.3058
  530MOL0     C73049   3.143   7.572   4.429 -0.1345  0.3045 -0.2649
  530MOL0     O73050   2.924   7.523   4.242  1.0509 -0.1193 -0.2380
  530MOL0     C73051   2.653   7.471   4.190  0.5352  0.6511  0.7335
  530MOL0     C73052   2.517   7.474   4.156 -0.7028 -0.0157 -0.4926
  530MOL0     N73053   1.846   7.973   4.223 -0.5668  0.0854  0.2977
  530MOL0     N73054   1.766   8.028   4.300 -0.4647  0.8479  0.3582
  530MOL0     C73055   0.887   7.722   5.062 -0.0256 -0.4188 -0.2591
  530MOL0     C73056   0.771   7.734   5.140  0.4655 -0.5865  0.6289
  530MOL0     C73057   0.515   7.827   5.409  0.7147 -0.5948  0.1476
  530MOL0     C73058   0.545   7.910   5.514  0.1259 -0.6756 -0.4238
  530MOL0     C73059   0.483   7.882   5.639  0.0569  0.3148  1.2313
  530MOL0     C73060   0.400   7.771   5.661 -0.0400  0.9601  0.7908
  530MOL0     O73061   0.347   7.748   5.788  0.2569 -0.4297 -0.0056
  530MOL0     C73062   0.218   7.688   5.790  0.1616  0.4740  0.3877
  530MOL0     C73063   0.172   7.668   5.933  0.3760 -0.3797 -0.5715
  530MOL0     C73064   0.214   7.542   6.005 -1.1029 -0.0338  0.2054
  530MOL0     C73065   0.212   7.557   6.152 -0.0831  0.0688 -0.5638
  530MOL0     C73066   0.086   7.537   6.223  0.0260 -0.3442 -0.1707
  530MOL0     C73067  -0.001   7.529   6.301 -0.5368  0.1520 -0.0506
  530MOL0     C73068   0.369   7.695   5.547  1.1038  0.2497 -0.5229
  530MOL0     C73069   0.421   7.721   5.415  0.1137  0.0364 -0.8220
  530MOL0     C73070   0.375   7.639   5.295  0.6701  0.7479 -0.2068
  530MOL0     H73071   0.552   7.851   4.904 -0.6116  0.5068  1.2465
  530MOL0     H73072   0.748   7.851   4.770  2.3591  1.9036 -0.1904
  530MOL0     H73073   0.941   7.950   4.757 -0.0905 -0.2798 -0.7634
  530MOL0     H73074   0.959   7.814   4.649 -1.2472 -0.8424  1.6245
  530MOL0     H73075   1.211   7.819   4.688  0.5072  0.0930  0.5284
  530MOL0     H73076   1.131   7.946   4.597  0.4947  3.0244  0.9426
  530MOL0     H73077   1.158   8.092   4.808 -3.3720 -1.4159 -0.6091
  530MOL0     H73078   1.209   7.967   4.910  2.1232  4.8576  1.1305
  530MOL0     H73079   1.414   8.046   4.861  3.2405 -3.6603 -0.5805
  530MOL0     H73080   1.422   7.941   4.727  0.7888  1.5749 -1.2958
  530MOL0     H73081   1.333   8.222   4.701 -1.4610  0.1776 -1.6233
  530MOL0     H73082   1.348   8.119   4.567  0.4479  2.7523 -0.9144
  530MOL0     H73083   1.563   8.250   4.606  0.7449 -1.8964 -0.6432
  530MOL0     H73084   1.585   8.137   4.749  0.4447  0.3050  1.1342
  530MOL0     H73085   1.554   8.069   4.458 -0.9493  0.1060  1.3425
  530MOL0     H73086   1.595   7.950   4.583  0.5226 -0.9648 -1.2020
  530MOL0     H73087   1.762   8.199   4.514 -2.6862  0.2243  1.0582
  530MOL0     H73088   1.801   8.065   4.633 -1.5871 -1.0386  0.5716
  530MOL0     H73089   1.996   7.899   4.507  1.9709 -1.2998 -2.2848
  530MOL0     H73090   1.993   7.783   4.122 -0.2955 -0.7708 -0.5129
  530MOL0     H73091   1.994   7.705   4.278  1.2360  0.6282  1.0373
  530MOL0     H73092   2.195   7.927   4.255  2.1898  0.0808  1.0490
  530MOL0     H73093   2.195   7.767   4.335 -0.9854  2.0499  1.6305
  530MOL0     H73094   2.248   7.833   4.036 -4.1180 -1.3809 -1.5181
  530MOL0     H73095   2.377   7.786   4.150 -1.1483  3.5615  1.6775
  530MOL0     H73096   2.140   7.599   4.074 -0.4228 -1.1034 -0.3174
  530MOL0     H73097   2.311   7.586   4.018  0.9976 -4.1135  2.4468
  530MOL0     H73098   2.406   7.567   4.472  1.2653 -1.8653  1.1432
  530MOL0     H73099   2.679   7.698   4.543  0.3269 -0.0544 -2.0843
  530MOL0     H73100   2.703   7.538   4.609 -0.8238 -0.7054  0.0507
  530MOL0     H73101   2.542   7.609   4.617  0.6000 -1.9110  1.0674
  530MOL0     H73102   2.960   7.523   4.721  1.2164 -0.5878  1.5239
  530MOL0     H73103   3.175   7.545   4.815 -3.4366 -0.4775  0.1250
  530MOL0     H73104   3.531   7.518   4.552  4.1424  0.7440 -0.0847
  530MOL0     H73105   3.615   7.616   4.678  1.5465 -1.8333  1.7630
  530MOL0     H73106   3.448   7.364   4.745  1.4946 -3.5443  0.6701
  530MOL0     H73107   3.617   7.349   4.700 -2.3088 -1.4533  0.7184
  530MOL0     H73108   3.599   7.338   4.939 -4.4957  0.0920  2.2368
  530MOL0     H73109   3.511   7.491   4.943 -0.2198  0.7865  0.1459
  530MOL0     H73110   3.701   7.617   4.907  0.2096 -0.5460  0.7733
  530MOL0     H73111   3.780   7.501   4.809 -0.0661  0.3162 -0.2347
  530MOL0     H73112   3.764   7.441   5.109  1.2659 -0.7084  0.8704
  530MOL0     H73113   3.862   7.376   4.971 -6.2810 -3.2442 -1.4089
  530MOL0     H73114   3.852   7.664   5.066  0.9560  1.3718 -4.3124
  530MOL0     H73115   3.976   7.609   4.968 -2.4221 -0.3076 -0.8115
  530MOL0     H73116   4.057   7.444   5.145  1.0744  0.6132 -0.0284
  530MOL0     H73117   3.953   7.525   5.262  1.2943  1.4850  1.1780
  530MOL0     H73118   4.175   7.664   5.125 -0.3537 -0.3515 -0.6583
  530MOL0     H73119   4.182   7.584   5.281  0.5097 -2.6309 -1.3855
  530MOL0     H73120   3.347   7.622   4.437 -0.5137  0.5577  1.4467
  530MOL0     H73121   3.134   7.577   4.321 -2.3087 -3.0677 -0.3998
  530MOL0     H73122   2.721   7.449   4.108  0.4878 -1.7041  1.2539
  530MOL0     H73123   2.489   7.455   4.053  0.3119  2.3503 -1.2818
  530MOL0     H73124   0.975   7.687   5.116  1.3640  3.1999  0.0694
  530MOL0     H73125   0.783   7.705   5.244 -3.0381 -2.8751  0.5651
  530MOL0     H73126   0.623   7.984   5.498  0.5644 -1.4205 -1.9764
  530MOL0     H73127   0.521   7.942   5.721  2.5781 -3.2407  2.9204
  530MOL0     H73128   0.141   7.745   5.737 -1.2100 -2.2669 -0.7679
  530MOL0     H73129   0.233   7.589   5.747 -0.3074  1.0511 -1.1860
  530MOL0     H73130   0.063   7.664   5.944  0.2707  0.3611 -1.2454
  530MOL0     H73131   0.202   7.753   5.995 -0.0068 -1.6620  1.4664
  530MOL0     H73132   0.144   7.458   5.994 -0.2280 -1.2209  2.9286
  530MOL0     H73133   0.315   7.516   5.973 -1.3557 -0.1215 -0.5627
  530MOL0     H73134   0.250   7.658   6.174  4.1145 -1.2974 -0.7594
  530MOL0     H73135   0.286   7.495   6.202  1.0004 -0.1751 -2.3713
  530MOL0     H73136  -0.089   7.514   6.361  0.3267 -3.9461  0.5257
  530MOL0     H73137   0.289   7.622   5.558 -0.3741  1.9935  0.8149
  530MOL0     H73138   0.344   7.703   5.212  5.2586  4.4742  0.5397
  530MOL0     H73139   0.459   7.575   5.267  0.7428 -0.0409  1.6382
  530MOL0     H73140   0.297   7.566   5.320  1.0587 -0.9969 -3.4602
  531MOL0     O73141   5.833  11.015   0.302 -0.8055  0.6235  0.2935
  531MOL0     C73142   5.806  11.049   0.414  0.3248 -0.3852  0.5018
  531MOL0     O73143   5.895  11.065   0.517 -0.3826 -0.5282 -0.3930
  531MOL0     C73144   6.014  11.003   0.509 -1.1182  0.3417  0.1422
  531MOL0     C73145   6.101  11.051   0.408  0.2762 -0.3433  0.1514
  531MOL0     C73146   6.225  10.996   0.381  0.0235 -0.4403 -0.2879
  531MOL0     C73147   6.268  10.882   0.452  0.3344  0.1349 -1.1274
  531MOL0     O73148   6.372  10.810   0.396 -0.4974 -0.2448 -0.8486
  531MOL0     C73149   6.382  10.671   0.414  1.0221 -0.1933  0.5573
  531MOL0     C73150   6.483  10.600   0.323 -0.1683 -0.3659  0.4342
  531MOL0     C73151   6.622  10.657   0.329  0.1312 -0.2304  0.9178
  531MOL0     C73152   6.722  10.554   0.366  0.5919 -0.2252 -0.0310
  531MOL0     C73153   6.789  10.491   0.250 -0.1853  0.1372  0.1345
  531MOL0     C73154   6.685  10.443   0.137  0.0616  0.4113 -0.3682
  531MOL0     C73155   6.756  10.366   0.022 -0.7818 -0.9362 -0.3443
  531MOL0     C73156   6.823  10.237   0.052  0.0278  0.3045  0.2633
  531MOL0     N73157   6.931  10.198  -0.030  0.1450  0.4265 -0.6520
  531MOL0     C73158   7.039  10.274  -0.082 -0.6149 -0.0056 -0.3833
  531MOL0     C73159   7.125  10.178  -0.126 -0.0296 -0.0609  0.3983
  531MOL0     C73160   7.268  10.190  -0.164  0.4943  0.0477 -0.7101
  531MOL0     C73161   7.366  10.123  -0.066  1.0509 -0.3289  0.2188
  531MOL0     C73162   7.372  10.194   0.073  0.6659 -0.1940 -0.3654
  531MOL0     C73163   7.514  10.214   0.135 -0.1308 -0.1886 -0.0183
  531MOL0     O73164   7.598  10.102   0.122  0.3408 -0.4243 -0.2433
  531MOL0     C73165   7.739  10.112   0.128  0.6634  0.0501  0.7307
  531MOL0     C73166   7.805  10.230   0.154  0.8572  0.6693  0.0934
  531MOL0     C73167   7.944  10.240   0.163 -0.3188  0.0566 -0.0554
  531MOL0     C73168   8.010  10.370   0.197 -0.0986  0.2411  0.0125
  531MOL0     C73169   8.017  10.115   0.148 -0.5247  0.8056 -0.7252
  531MOL0     C73170   8.161  10.094   0.158 -0.6389  0.4221  0.0072
  531MOL0     O73171   8.220   9.996   0.073 -0.0404  0.0329  0.4004
  531MOL0     C73172   8.346   9.956   0.094 -1.0619  0.4244  1.1194
  531MOL0     C73173   8.450  10.056   0.097 -0.4985  0.2944  0.6610
  531MOL0     C73174   8.580  10.016   0.095 -0.6552 -0.5887  0.0860
  531MOL0     C73175   8.617   9.884   0.103  1.0005  0.0856 -0.3867
  531MOL0     O73176   8.748   9.853   0.084 -0.2438 -0.1380 -1.4820
  531MOL0     C73177   8.797   9.722   0.062 -0.1288 -0.8442  0.7135
  531MOL0     C73178   8.946   9.746   0.050 -0.5057 -0.0894  0.5642
  531MOL0     C73179   9.016   9.808   0.173  0.5810 -0.1108 -0.4776
  531MOL0     C73180   9.051   9.709   0.285 -0.4177 -0.2572  0.5136
  531MOL0     C73181   9.159   9.771   0.375  0.3818 -0.5321 -0.4130
  531MOL0     C73182   9.204   9.683   0.493 -0.3067  0.6618  0.0923
  531MOL0     C73183   9.330   9.744   0.562  0.4537 -0.0917 -0.1992
  531MOL0     C73184   9.412   9.644   0.633 -1.0187 -0.8613  0.5578
  531MOL0    Cl73185   9.324   9.570   0.767 -0.3437 -0.0968 -0.0559
  531MOL0     C73186   8.519   9.793   0.123  0.1689 -0.0552 -0.3872
  531MOL0     C73187   8.388   9.819   0.113  0.3094 -0.9005 -0.1660
  531MOL0     O73188   8.211  10.139   0.256 -0.6825 -0.2658 -0.4895
  531MOL0     C73189   7.946  10.002   0.114  0.0960  0.1101 -0.1520
  531MOL0     C73190   7.812  10.005   0.105  0.6283 -0.1662  0.0191
  531MOL0     N73191   7.064  10.056  -0.122 -0.2655 -0.5526  0.0801
  531MOL0     N73192   6.948  10.068  -0.060  0.5258  0.2304  0.2811
  531MOL0     C73193   6.178  10.832   0.553  0.4429  0.2033  0.1051
  531MOL0     C73194   6.055  10.890   0.578 -0.1285 -0.2762  0.8696
  531MOL0     C73195   5.659  11.092   0.437 -0.2173  0.0653 -0.5935
  531MOL0     C73196   5.618  11.149   0.560 -1.0074 -0.1064  0.8456
  531MOL0     C73197   5.500  11.185   0.594 -0.6406 -0.0904  0.1872
  531MOL0     C73198   5.393  11.173   0.509  0.3463 -0.4845 -0.2980
  531MOL0     O73199   5.268  11.208   0.558 -0.2628 -0.6272  0.3328
  531MOL0     C73200   5.170  11.132   0.505  0.5858  0.3663 -0.0179
  531MOL0     C73201   5.050  11.187   0.579 -0.4744  0.1035 -0.5404
  531MOL0     C73202   4.934  11.088   0.559 -0.3059 -1.0705 -0.4057
  531MOL0     C73203   4.811  11.132   0.640  0.2715 -0.1581  0.5951
  531MOL0     C73204   4.751  11.260   0.597 -0.5038  0.5184 -0.0932
  531MOL0     C73205   4.695  11.357   0.560  0.5719 -1.0419 -0.4016
  531MOL0     C73206   5.429  11.127   0.377 -0.0911  0.7231  0.2992
  531MOL0     C73207   5.553  11.077   0.343  0.2502  0.2798  1.1303
  531MOL0     C73208   5.572  11.020   0.203  0.2009 -0.5738  0.2964
  531MOL0     H73209   6.070  11.130   0.340  1.0183 -2.3539 -2.7009
  531MOL0     H73210   6.274  11.045   0.297  1.5270  2.2374  2.0028
  531MOL0     H73211   6.283  10.627   0.401  0.3636  1.5861 -0.7698
  531MOL0     H73212   6.415  10.653   0.516 -3.0163 -0.4393  1.9884
  531MOL0     H73213   6.487  10.497   0.357  1.5703 -0.3318  0.4088
  531MOL0     H73214   6.454  10.598   0.217  1.4124 -0.0768 -0.0365
  531MOL0     H73215   6.642  10.706   0.234 -1.4599 -0.4939  0.4127
  531MOL0     H73216   6.629  10.734   0.407 -0.4157 -2.0251  2.8464
  531MOL0     H73217   6.798  10.596   0.433  0.2485  0.6072 -0.1428
  531MOL0     H73218   6.672  10.476   0.425 -0.6781  1.5275  1.3680
  531MOL0     H73219   6.857  10.413   0.288 -1.0350  0.1924  1.8833
  531MOL0     H73220   6.855  10.568   0.208 -0.7057  1.7322  2.0778
  531MOL0     H73221   6.617  10.376   0.190  0.5995  1.9554  2.4746
  531MOL0     H73222   6.627  10.521   0.087  1.9726  2.1126 -0.0759
  531MOL0     H73223   6.830  10.439  -0.013 -1.0301 -0.9277 -0.8698
  531MOL0     H73224   6.690  10.355  -0.065 -0.2309 -2.8428 -0.5610
  531MOL0     H73225   6.878  10.240   0.147 -0.6278 -2.8035  0.8510
  531MOL0     H73226   6.747  10.160   0.064  0.3626 -0.1897 -0.6612
  531MOL0     H73227   7.057  10.378  -0.056  0.4120 -0.5963  1.4699
  531MOL0     H73228   7.284  10.298  -0.158 -1.8589  0.4163  0.0955
  531MOL0     H73229   7.281  10.152  -0.266 -0.8726 -0.0067 -0.8736
  531MOL0     H73230   7.338  10.018  -0.052 -1.1476  0.3673  1.6507
  531MOL0     H73231   7.467  10.135  -0.105  1.6804 -1.3531  1.4808
  531MOL0     H73232   7.326  10.293   0.079 -0.0293 -0.5782  1.3220
  531MOL0     H73233   7.318  10.124   0.137 -0.6342 -1.2772 -2.5368
  531MOL0     H73234   7.556  10.297   0.077  4.0687 -2.0265  0.0842
  531MOL0     H73235   7.517  10.248   0.239  1.3944 -1.3616  0.3494
  531MOL0     H73236   7.754  10.322   0.181  0.4171 -0.4007  3.2982
  531MOL0     H73237   8.047  10.421   0.107 -3.8558 -1.7913 -2.9855
  531MOL0     H73238   8.094  10.356   0.266  1.7315 -0.3717 -2.2139
  531MOL0     H73239   7.946  10.435   0.257  1.3864  1.1168  0.7096
  531MOL0     H73240   8.447  10.164   0.110  1.8886  0.1769  2.8245
  531MOL0     H73241   8.654  10.095   0.086 -0.8365 -0.2257  1.5294
  531MOL0     H73242   8.777   9.650   0.142  2.2919 -1.9521  0.4059
  531MOL0     H73243   8.754   9.680  -0.030 -0.2403  0.6504  0.0591
  531MOL0     H73244   8.999   9.653   0.028 -2.3879 -0.7515 -1.7040
  531MOL0     H73245   8.963   9.821  -0.028 -0.3287 -1.4065 -0.7061
  531MOL0     H73246   8.956   9.894   0.203  0.9007  0.6889 -2.0225
  531MOL0     H73247   9.104   9.866   0.144 -0.5467  2.0914  0.3102
  531MOL0     H73248   9.083   9.611   0.248  0.5454 -1.0508  3.1921
  531MOL0     H73249   8.962   9.697   0.347 -2.3240  3.2930 -1.2386
  531MOL0     H73250   9.251   9.805   0.325  0.2479  0.9990  0.3200
  531MOL0     H73251   9.118   9.860   0.424 -0.8223 -1.6574  0.6769
  531MOL0     H73252   9.222   9.584   0.450 -1.9699  1.2195 -2.0763
  531MOL0     H73253   9.122   9.670   0.563  0.0745 -2.3260  0.0864
  531MOL0     H73254   9.314   9.834   0.622  0.0137  0.4424 -1.0910
  531MOL0     H73255   9.385   9.773   0.472 -1.0981 -1.2887 -1.6122
  531MOL0     H73256   9.499   9.704   0.659 -0.3384 -1.8200  0.5166
  531MOL0     H73257   9.440   9.561   0.569 -1.5538 -0.3403 -0.3750
  531MOL0     H73258   8.558   9.695   0.148  1.0701 -0.2373 -2.3307
  531MOL0     H73259   8.316   9.738   0.117 -0.7767  0.0740  0.9533
  531MOL0     H73260   7.994   9.905   0.109 -3.3823 -1.8248  0.6967
  531MOL0     H73261   7.756   9.915   0.084 -0.1524  0.7632 -2.2473
  531MOL0     H73262   6.211  10.747   0.612  0.2544  1.0682  1.5171
  531MOL0     H73263   5.993  10.845   0.656  2.6118 -0.4004  3.1325
  531MOL0     H73264   5.693  11.176   0.634 -2.0175 -0.3702  2.0077
  531MOL0     H73265   5.495  11.237   0.688  2.6530 -0.2733  0.5684
  531MOL0     H73266   5.167  11.149   0.397  0.2770  1.0796  0.1007
  531MOL0     H73267   5.187  11.027   0.531 -0.1011 -0.3025 -2.0176
  531MOL0     H73268   5.036  11.289   0.542  0.7364 -0.1332 -1.7570
  531MOL0     H73269   5.075  11.187   0.685  0.3792 -2.7085 -0.6532
  531MOL0     H73270   4.907  11.078   0.453  0.5724  1.3054 -0.9297
  531MOL0     H73271   4.961  10.987   0.592  0.0827 -0.1664  2.2647
  531MOL0     H73272   4.830  11.141   0.747 -2.7047  0.7638  1.1518
  531MOL0     H73273   4.732  11.056   0.641  1.3683 -1.3548  2.2227
  531MOL0     H73274   4.635  11.444   0.542  1.9894  0.6704  2.4515
  531MOL0     H73275   5.353  11.119   0.300  0.6660  1.8018 -0.5932
  531MOL0     H73276   5.652  11.066   0.145 -1.1101  0.7918 -0.5149
  531MOL0     H73277   5.600  10.914   0.209  1.1399 -0.4849 -1.7779
  531MOL0     H73278   5.478  11.031   0.147 -0.7465 -2.8516  1.3062
  532MOL0     O73279  10.723  11.177   2.754 -0.1066  1.1321  0.4288
  532MOL0     C73280  10.737  11.199   2.631  0.0192  0.4645 -0.3845
  532MOL0     O73281  10.835  11.283   2.580  0.0446 -0.2298  0.2951
  532MOL0     C73282  10.922  11.318   2.675 -0.6693 -0.0607  0.0290
  532MOL0     C73283  11.012  11.225   2.726 -0.1702 -0.0339  0.7307
  532MOL0     C73284  11.105  11.264   2.815 -0.3290 -0.3990 -0.8520
  532MOL0     C73285  11.116  11.404   2.865 -0.0326 -0.1227 -0.3307
  532MOL0     O73286  11.200  11.436   2.971 -0.1064  0.3315  0.7903
  532MOL0     C73287  11.186  11.559   3.050 -0.1051  0.5603  0.5770
  532MOL0     C73288  11.294  11.554   3.168 -0.5204 -0.7730 -0.3670
  532MOL0     C73289  11.425  11.619   3.130 -0.6052 -0.4556  0.1778
  532MOL0     C73290  11.534  11.644   3.234 -0.5734 -0.2081 -0.0343
  532MOL0     C73291  11.658  11.678   3.142  0.2020 -0.0010 -0.6695
  532MOL0     C73292  11.769  11.723   3.236  0.5853 -0.1685 -0.0060
  532MOL0     C73293  11.891  11.759   3.153  0.6008 -0.3817 -0.5905
  532MOL0     C73294  12.022  11.756   3.232  0.5041 -0.5434  0.1807
  532MOL0     N73295  12.136  11.805   3.161  0.4529  0.3147  0.0477
  532MOL0     C73296  12.266  11.776   3.188  0.4160 -0.5915  0.7727
  532MOL0     C73297  12.340  11.860   3.107 -0.5561 -0.2251 -0.6064
  532MOL0     C73298  12.494  11.852   3.105  0.1837  0.1969  0.3808
  532MOL0     C73299  12.551  11.889   3.239  0.2574 -0.2742  0.7613
  532MOL0     C73300  12.706  11.880   3.233 -0.1593  0.6137 -0.0809
  532MOL0     C73301  12.774  11.910   3.357  0.3164 -0.2785 -0.7206
  532MOL0     O73302  12.910  11.922   3.343 -0.0208 -0.2534 -0.7803
  532MOL0     C73303  12.992  11.931   3.456 -0.1428 -0.2388  0.9280
  532MOL0     C73304  12.956  12.011   3.566 -1.1034  0.8405  0.3134
  532MOL0     C73305  13.036  12.037   3.682 -0.4713 -0.3083 -0.2193
  532MOL0     C73306  12.972  12.098   3.802  0.2044  0.3788 -1.0588
  532MOL0     C73307  13.173  11.983   3.690  0.1895 -0.0650 -0.2145
  532MOL0     C73308  13.276  12.009   3.798  0.3837 -0.0216 -0.5572
  532MOL0     O73309  13.380  11.925   3.823  0.0634 -0.0327  0.4771
  532MOL0     C73310  13.489  11.947   3.905 -0.7222 -0.0978  0.5914
  532MOL0     C73311  13.552  12.076   3.905 -0.7322  0.3300  0.0781
  532MOL0     C73312  13.670  12.092   3.974  0.4752  0.3933 -0.7992
  532MOL0     C73313  13.718  11.981   4.060 -0.5878 -0.2916 -0.0653
  532MOL0     O73314  13.845  11.985   4.121 -0.0041 -0.4467  0.6934
  532MOL0     C73315  13.961  11.966   4.037  0.3924 -0.5394 -0.1087
  532MOL0     C73316  14.084  11.956   4.121  1.3190  0.1242 -0.8577
  532MOL0     C73317  14.217  11.933   4.039 -0.4191 -0.2341 -0.0232
  532MOL0     C73318  14.325  11.896   4.137  0.0810  0.6982 -0.4199
  532MOL0     C73319  14.471  11.893   4.070  0.1445 -0.1134 -0.3516
  532MOL0     C73320  14.585  11.884   4.175 -0.0657 -0.3842  0.1143
  532MOL0     C73321  14.722  11.906   4.117 -0.2139 -0.1820 -0.7763
  532MOL0     C73322  14.778  11.816   4.012  0.5633 -0.0500 -0.7191
  532MOL0    Cl73323  14.772  11.641   4.058  0.4161 -0.1990  0.3491
  532MOL0     C73324  13.654  11.855   4.061  0.1336 -0.8383  0.4919
  532MOL0     C73325  13.540  11.844   3.981 -0.4323  0.1413  0.1494
  532MOL0     O73326  13.257  12.110   3.865  0.2902 -0.4457 -0.7554
  532MOL0     C73327  13.203  11.910   3.576  0.4853 -0.4333  0.4153
  532MOL0     C73328  13.118  11.883   3.460 -0.3628 -0.3131 -1.1608
  532MOL0     N73329  12.254  11.928   3.028 -0.6673  0.5740 -0.4548
  532MOL0     N73330  12.132  11.900   3.061 -0.9553 -0.0091  0.0347
  532MOL0     C73331  11.032  11.491   2.801 -0.1941 -0.6301 -0.9599
  532MOL0     C73332  10.940  11.453   2.708  0.5036  0.5975  0.1485
  532MOL0     C73333  10.638  11.146   2.542  0.2550  0.0636  1.0863
  532MOL0     C73334  10.521  11.077   2.593  0.0608  0.6245 -0.0433
  532MOL0     C73335  10.440  11.002   2.503  0.6115 -0.2110  0.3446
  532MOL0     C73336  10.450  11.005   2.365 -0.5934 -0.1865 -0.6202
  532MOL0     O73337  10.359  10.945   2.279  0.8786 -0.3688  0.1048
  532MOL0     C73338  10.359  10.956   2.136  0.9271 -1.1203  0.4222
  532MOL0     C73339  10.208  10.972   2.086 -0.0327  0.3916 -0.4393
  532MOL0     C73340  10.129  11.085   2.147  0.3213  0.4115 -0.0220
  532MOL0     C73341   9.992  11.110   2.083 -0.0336 -0.2470  0.6764
  532MOL0     C73342  10.001  11.147   1.939 -0.7714  0.9072 -0.2858
  532MOL0     C73343  10.007  11.161   1.819  0.5347 -0.5248  0.7419
  532MOL0     C73344  10.565  11.075   2.318  0.6011  0.6167  0.2988
  532MOL0     C73345  10.655  11.136   2.402 -0.4310 -0.9784 -0.4330
  532MOL0     C73346  10.790  11.167   2.324 -0.1671 -0.1283  0.1296
  532MOL0     H73347  11.006  11.122   2.693 -0.9409  1.2941 -4.0862
  532MOL0     H73348  11.179  11.191   2.848 -1.7457 -2.5162 -2.1672
  532MOL0     H73349  11.091  11.568   3.102  0.2392  1.7461  1.0431
  532MOL0     H73350  11.215  11.642   2.985  0.1149 -2.3041 -3.3749
  532MOL0     H73351  11.259  11.601   3.260 -1.4684  1.4585 -1.7961
  532MOL0     H73352  11.316  11.449   3.190  0.6686 -0.2557  1.1083
  532MOL0     H73353  11.467  11.557   3.050  1.7742 -0.2388  1.1832
  532MOL0     H73354  11.409  11.724   3.102  0.7811  1.2294  4.8088
  532MOL0     H73355  11.510  11.728   3.299 -0.7463 -0.1809 -0.1315
  532MOL0     H73356  11.557  11.556   3.293 -1.2190 -1.3269 -1.3785
  532MOL0     H73357  11.631  11.762   3.077 -3.5935  0.5393  1.3282
  532MOL0     H73358  11.678  11.585   3.089  0.3387 -0.6807  0.5453
  532MOL0     H73359  11.736  11.805   3.301 -2.9737 -1.3363 -0.0898
  532MOL0     H73360  11.791  11.637   3.299 -3.5714 -1.5455 -0.1530
  532MOL0     H73361  11.880  11.859   3.110  0.3651 -0.9640 -1.9509
  532MOL0     H73362  11.900  11.687   3.072  1.7358 -2.2251  1.0830
  532MOL0     H73363  12.009  11.797   3.332  2.2634 -2.9125  1.4975
  532MOL0     H73364  12.035  11.650   3.256 -1.6728 -0.9363 -0.1390
  532MOL0     H73365  12.300  11.712   3.268 -3.2657  0.5203  3.4918
  532MOL0     H73366  12.533  11.903   3.016  0.5402  0.4464  0.6761
  532MOL0     H73367  12.522  11.750   3.081  1.1467  0.2080  1.3891
  532MOL0     H73368  12.518  11.990   3.264 -3.3603 -1.4235  1.1825
  532MOL0     H73369  12.518  11.821   3.318  2.1940 -2.2374 -0.0132
  532MOL0     H73370  12.735  11.781   3.195  1.1572  0.9832 -0.1052
  532MOL0     H73371  12.744  11.959   3.167 -1.4747  1.8735  0.6142
  532MOL0     H73372  12.739  12.009   3.388  0.9155 -0.4806  0.6535
  532MOL0     H73373  12.755  11.830   3.429  2.3205 -0.7817 -0.7085
  532MOL0     H73374  12.866  12.073   3.561 -1.1342  0.7556 -0.2345
  532MOL0     H73375  12.863  12.100   3.793 -0.5281  2.3261  4.3764
  532MOL0     H73376  13.022  12.190   3.832  0.3727 -0.3199  0.9975
  532MOL0     H73377  12.998  12.032   3.886  1.9617  3.6356  1.1920
  532MOL0     H73378  13.507  12.150   3.840 -0.2200  1.4675  0.9855
  532MOL0     H73379  13.713  12.191   3.964 -0.3707  0.6398 -2.1789
  532MOL0     H73380  13.967  11.866   3.992 -0.4370 -1.2787  1.3682
  532MOL0     H73381  13.968  12.044   3.960  2.6612  0.4618  1.0383
  532MOL0     H73382  14.089  12.049   4.179  0.5870  0.1619 -0.8485
  532MOL0     H73383  14.069  11.874   4.191 -0.2743  1.1652  0.0903
  532MOL0     H73384  14.246  12.026   3.988  1.0247 -0.6595 -0.0163
  532MOL0     H73385  14.211  11.856   3.962  3.0979  1.9629 -2.8239
  532MOL0     H73386  14.313  11.796   4.178  2.4145  0.2071 -0.8056
  532MOL0     H73387  14.317  11.969   4.219  0.3564  0.0567  0.1855
  532MOL0     H73388  14.477  11.813   3.996  1.7389 -0.2552 -0.0922
  532MOL0     H73389  14.474  11.985   4.011 -0.1395 -0.2085 -0.5199
  532MOL0     H73390  14.581  11.785   4.223  0.3751  0.4438  1.9450
  532MOL0     H73391  14.567  11.966   4.245  0.5777 -0.1451  0.0036
  532MOL0     H73392  14.791  11.890   4.201 -0.0739  1.0060 -0.6600
  532MOL0     H73393  14.735  12.012   4.093  2.7755 -0.0958  0.6956
  532MOL0     H73394  14.882  11.842   3.991  1.0125 -1.0420  0.1669
  532MOL0     H73395  14.716  11.834   3.924  0.3217 -1.6713 -0.9214
  532MOL0     H73396  13.692  11.769   4.115  3.0947  2.1890  3.6901
  532MOL0     H73397  13.494  11.746   3.984 -0.1394  0.0090  0.3857
  532MOL0     H73398  13.304  11.870   3.566  0.7501  0.0809  0.9588
  532MOL0     H73399  13.159  11.832   3.374  4.2674  0.5538  0.2567
  532MOL0     H73400  11.032  11.599   2.813  1.0172 -0.2638 -3.6078
  532MOL0     H73401  10.875  11.533   2.675 -0.2417 -0.1073 -0.1367
  532MOL0     H73402  10.503  11.091   2.699  0.2507  3.4648 -0.2997
  532MOL0     H73403  10.359  10.946   2.549 -0.6973  1.2290 -0.1239
  532MOL0     H73404  10.404  11.052   2.110 -2.9975  1.5494  2.5052
  532MOL0     H73405  10.409  10.876   2.081  0.9955  0.6374 -2.2435
  532MOL0     H73406  10.158  10.875   2.098 -0.4841  0.8061  1.4623
  532MOL0     H73407  10.215  10.985   1.978 -1.5379 -1.6973 -0.8459
  532MOL0     H73408  10.111  11.061   2.253 -2.7193 -2.1146 -0.9435
  532MOL0     H73409  10.186  11.179   2.151  0.2540  0.4323  3.2673
  532MOL0     H73410   9.957  11.204   2.128  2.5888  0.7586  0.7858
  532MOL0     H73411   9.923  11.028   2.104  2.0266 -1.9523  1.1226
  532MOL0     H73412  10.015  11.171   1.713 -0.6192 -1.0585  0.5914
  532MOL0     H73413  10.596  11.074   2.214  5.6531  1.1631  1.5142
  532MOL0     H73414  10.847  11.257   2.347  1.9070 -1.5217  0.7172
  532MOL0     H73415  10.850  11.076   2.325  0.1992  0.0727 -1.3235
  532MOL0     H73416  10.768  11.175   2.217 -1.3683 -0.1955  0.3549
  533MOL0     O73417   4.193   7.101   4.485  0.9560  0.3897 -0.4525
  533MOL0     C73418   4.219   7.073   4.366 -0.2302  0.2487  0.2213
  533MOL0     O73419   4.137   7.069   4.265 -0.8200  0.7533 -0.1361
  533MOL0     C73420   4.003   7.092   4.286  0.5720 -0.0222 -0.1319
  533MOL0     C73421   3.923   7.012   4.368  0.5652 -0.1482  0.6247
  533MOL0     C73422   3.784   7.040   4.372  0.6145  0.0533 -0.1742
  533MOL0     C73423   3.717   7.126   4.277  0.1681  0.7076  0.4740
  533MOL0     O73424   3.577   7.155   4.266  0.7986  1.0625  0.2924
  533MOL0     C73425   3.493   7.074   4.357 -0.0529  0.0780  0.2742
  533MOL0     C73426   3.351   7.090   4.322 -0.2736  0.1538 -0.3427
  533MOL0     C73427   3.304   7.038   4.184  0.1490  0.7074  0.6011
  533MOL0     C73428   3.163   7.090   4.145  0.0077 -0.4225  0.6548
  533MOL0     C73429   3.043   6.999   4.204 -1.1407 -0.6322 -0.3734
  533MOL0     C73430   2.916   7.076   4.187 -0.7064 -0.3167 -0.7753
  533MOL0     C73431   2.788   6.997   4.205  0.3620 -0.2051 -0.6137
  533MOL0     C73432   2.668   7.087   4.181  0.0120 -1.2083  0.1184
  533MOL0     N73433   2.538   7.012   4.171  0.0776 -0.2850  0.5774
  533MOL0     C73434   2.472   6.964   4.283  0.7360 -0.4197  1.3675
  533MOL0     C73435   2.371   6.887   4.237 -0.0797  0.1228 -0.7810
  533MOL0     C73436   2.273   6.821   4.322  0.7593  0.1889 -0.6935
  533MOL0     C73437   2.133   6.793   4.264  0.3207  0.7457  0.5268
  533MOL0     C73438   2.126   6.656   4.195  0.3256  0.7523  0.1416
  533MOL0     C73439   1.985   6.621   4.153  0.8452 -0.0736 -0.5198
  533MOL0     O73440   1.883   6.635   4.263 -0.1636  0.1074  0.9676
  533MOL0     C73441   1.755   6.644   4.222  0.3801  0.4622 -0.8670
  533MOL0     C73442   1.665   6.713   4.312 -0.2110  0.0224  0.1738
  533MOL0     C73443   1.522   6.713   4.298 -0.1691 -0.4906 -1.4084
  533MOL0     C73444   1.435   6.778   4.405  0.0762  0.5865 -0.4786
  533MOL0     C73445   1.470   6.660   4.180  0.6879  0.5247 -0.2175
  533MOL0     C73446   1.322   6.658   4.145 -0.2573  0.3260 -0.4786
  533MOL0     O73447   1.229   6.682   4.249  0.3676 -0.1842  0.9996
  533MOL0     C73448   1.098   6.647   4.229 -0.0452 -1.1325 -0.7298
  533MOL0     C73449   1.062   6.513   4.222  0.0058 -0.8786  0.7300
  533MOL0     C73450   0.933   6.475   4.211  0.5442  0.1666  0.1959
  533MOL0     C73451   0.835   6.579   4.188 -0.6065  0.9728 -0.6613
  533MOL0     O73452   0.702   6.544   4.171 -0.2188  0.0121 -0.1458
  533MOL0     C73453   0.608   6.645   4.220 -0.2758  0.2038 -0.5228
  533MOL0     C73454   0.466   6.573   4.201 -0.4684  0.2222  0.4223
  533MOL0     C73455   0.420   6.575   4.052  0.3293  1.1352  0.8127
  533MOL0     C73456   0.288   6.506   4.034 -0.7048 -0.2484 -1.1285
  533MOL0     C73457   0.253   6.477   3.890 -0.4432  0.1688 -0.2445
  533MOL0     C73458   0.217   6.605   3.814 -0.6656 -1.1123  0.4274
  533MOL0     C73459   0.163   6.597   3.668 -0.2427  0.1366 -0.0889
  533MOL0     C73460   0.266   6.641   3.558 -0.0656 -0.5938  0.3122
  533MOL0    Cl73461   0.404   6.513   3.548  0.1833 -0.4643  0.0010
  533MOL0     C73462   0.878   6.714   4.181  0.8783 -0.4163 -0.1997
  533MOL0     C73463   1.010   6.748   4.202  1.0463  0.1084  0.3291
  533MOL0     O73464   1.296   6.626   4.030 -0.5259  0.2973  0.1325
  533MOL0     C73465   1.555   6.599   4.085 -0.3356 -0.5066 -0.1994
  533MOL0     C73466   1.699   6.590   4.108 -0.5081  0.3307 -0.2336
  533MOL0     N73467   2.388   6.876   4.102 -0.5603  0.7804 -0.1697
  533MOL0     N73468   2.484   6.954   4.064 -0.2140  0.1817  0.2240
  533MOL0     C73469   3.809   7.206   4.200 -0.8040  0.1771 -0.5104
  533MOL0     C73470   3.950   7.192   4.202 -0.4478  0.7391 -0.2306
  533MOL0     C73471   4.362   7.038   4.341  0.4852  0.2810  0.5318
  533MOL0     C73472   4.384   6.913   4.282 -0.2060  0.8023  0.1818
  533MOL0     C73473   4.514   6.861   4.256 -1.0703 -0.5427 -0.7487
  533MOL0     C73474   4.626   6.931   4.303 -0.4288  0.9297 -0.0748
  533MOL0     O73475   4.750   6.878   4.284  0.6324  0.1697 -1.1466
  533MOL0     C73476   4.849   6.886   4.380 -0.3825 -0.6920 -0.0938
  533MOL0     C73477   4.958   6.987   4.343  0.3715  0.2661  0.3380
  533MOL0     C73478   5.046   6.920   4.234  0.1537 -0.0321  1.2878
  533MOL0     C73479   5.167   6.849   4.291 -0.9186 -0.0464 -0.0099
  533MOL0     C73480   5.254   6.794   4.183 -0.0029 -0.3154  0.1878
  533MOL0     C73481   5.330   6.741   4.101  0.0992 -0.0241 -0.0569
  533MOL0     C73482   4.600   7.048   4.372 -1.2344 -0.2422  0.3785
  533MOL0     C73483   4.475   7.113   4.380 -0.4445 -0.8460  0.5677
  533MOL0     C73484   4.456   7.252   4.447 -0.6105 -1.2618 -0.6502
  533MOL0     H73485   3.976   6.935   4.423 -3.9023 -1.2666  3.8893
  533MOL0     H73486   3.727   6.974   4.435  0.7898 -0.4908 -0.5745
  533MOL0     H73487   3.513   7.123   4.452 -0.0383  2.0873 -0.7084
  533MOL0     H73488   3.514   6.968   4.343 -1.3684  0.2283 -6.1700
  533MOL0     H73489   3.277   7.068   4.400  0.5321 -1.5882 -0.0403
  533MOL0     H73490   3.333   7.198   4.309 -2.2206  0.0001  0.7373
  533MOL0     H73491   3.382   7.066   4.111  0.5642 -1.2043  0.2437
  533MOL0     H73492   3.298   6.929   4.187  1.2557  0.6271  0.3983
  533MOL0     H73493   3.162   7.196   4.173  1.1891  0.1137 -1.2034
  533MOL0     H73494   3.154   7.097   4.036  0.9307  1.4485  0.6666
  533MOL0     H73495   3.058   6.986   4.311 -4.4006 -0.6962  0.1980
  533MOL0     H73496   3.038   6.901   4.155  2.4400 -0.7960 -0.6816
  533MOL0     H73497   2.904   7.152   4.264 -0.2237  0.8666 -1.8238
  533MOL0     H73498   2.920   7.146   4.102 -0.6492 -0.4174 -0.8565
  533MOL0     H73499   2.784   6.945   4.302 -0.3024 -1.0993 -1.1013
  533MOL0     H73500   2.788   6.919   4.129 -2.9546 -2.3125  1.2820
  533MOL0     H73501   2.662   7.163   4.260  2.0495  1.1126 -1.8056
  533MOL0     H73502   2.676   7.135   4.084 -2.5028 -2.1228 -0.6194
  533MOL0     H73503   2.491   6.991   4.387  0.0552  3.1954  0.7030
  533MOL0     H73504   2.252   6.877   4.414 -2.2441  0.7666 -1.6111
  533MOL0     H73505   2.305   6.725   4.364 -0.7610 -0.5928 -1.2497
  533MOL0     H73506   2.057   6.806   4.342  1.0302  2.3981  0.9868
  533MOL0     H73507   2.119   6.875   4.192 -1.3607  0.8465  0.9306
  533MOL0     H73508   2.195   6.655   4.110  2.6567  2.4743  1.8891
  533MOL0     H73509   2.162   6.580   4.265 -0.1863  1.1218  0.8192
  533MOL0     H73510   1.946   6.675   4.067  0.2116  0.9122  0.3578
  533MOL0     H73511   1.997   6.516   4.124  0.4188 -0.4506  0.5980
  533MOL0     H73512   1.722   6.747   4.398  2.0071 -0.8393 -0.8701
  533MOL0     H73513   1.383   6.697   4.457 -0.2184  1.3936  0.5485
  533MOL0     H73514   1.358   6.845   4.364 -3.8393 -2.6371  0.9638
  533MOL0     H73515   1.499   6.834   4.474 -0.9586 -0.2490  1.2275
  533MOL0     H73516   1.141   6.438   4.220 -0.4011 -1.3201 -1.2759
  533MOL0     H73517   0.915   6.368   4.203  0.7741  0.1594 -0.2643
  533MOL0     H73518   0.633   6.686   4.318  0.6046 -0.4497 -0.4598
  533MOL0     H73519   0.617   6.732   4.154  1.1103 -0.7681 -1.6783
  533MOL0     H73520   0.481   6.468   4.228 -1.5654  0.4973  2.3301
  533MOL0     H73521   0.398   6.617   4.275 -0.9301 -2.6232  1.8412
  533MOL0     H73522   0.501   6.527   3.997  0.4072  0.8560  1.1671
  533MOL0     H73523   0.411   6.680   4.021 -3.3030  1.5350  2.7263
  533MOL0     H73524   0.213   6.570   4.082  1.2612  0.9360  0.5154
  533MOL0     H73525   0.294   6.410   4.085 -0.5524  1.4874  2.4130
  533MOL0     H73526   0.334   6.423   3.841  0.3466 -0.1411  1.3265
  533MOL0     H73527   0.167   6.409   3.890 -1.0231  0.7154  2.9768
  533MOL0     H73528   0.304   6.671   3.809 -1.0414 -0.5169  1.3730
  533MOL0     H73529   0.144   6.663   3.872  0.3117  1.4534 -0.7415
  533MOL0     H73530   0.061   6.635   3.659 -1.0597 -1.8987  0.0416
  533MOL0     H73531   0.149   6.490   3.653 -1.6824  0.2243  0.5471
  533MOL0     H73532   0.304   6.739   3.589  0.5797  0.8046 -4.1942
  533MOL0     H73533   0.225   6.646   3.457  1.1163 -3.3478 -0.3706
  533MOL0     H73534   0.813   6.801   4.173  1.3981 -0.0293 -0.2803
  533MOL0     H73535   1.048   6.850   4.209  3.0009 -0.2436 -2.8492
  533MOL0     H73536   1.520   6.559   3.990  0.5123  2.2582 -1.8153
  533MOL0     H73537   1.770   6.528   4.054 -1.8334 -1.0591 -0.4621
  533MOL0     H73538   3.763   7.277   4.131 -0.9003  0.3579 -0.2608
  533MOL0     H73539   4.030   7.237   4.144  0.0471  0.7000  0.4194
  533MOL0     H73540   4.300   6.847   4.265 -0.6424  1.0983  1.1199
  533MOL0     H73541   4.538   6.765   4.210 -0.0362 -0.7421  0.1575
  533MOL0     H73542   4.810   6.916   4.478  0.5295 -0.5654  0.2386
  533MOL0     H73543   4.876   6.780   4.384  0.7533 -0.3859  1.7548
  533MOL0     H73544   5.019   7.029   4.424  0.7721  0.0309  0.1621
  533MOL0     H73545   4.890   7.061   4.299 -0.5718 -0.1342  1.0943
  533MOL0     H73546   4.986   6.850   4.175  0.0522  2.6244 -2.0513
  533MOL0     H73547   5.071   6.997   4.160  0.0219  0.9327  2.2090
  533MOL0     H73548   5.137   6.766   4.356  0.7702  0.3628  1.3440
  533MOL0     H73549   5.224   6.915   4.356  1.3714  0.0879 -2.0290
  533MOL0     H73550   5.388   6.702   4.020 -0.3171  1.6081 -1.1908
  533MOL0     H73551   4.694   7.094   4.401 -0.3397  0.5165 -3.2727
  533MOL0     H73552   4.435   7.254   4.555 -2.0058  0.5202 -0.9108
  533MOL0     H73553   4.549   7.309   4.442 -1.6661  0.5045 -1.2317
  533MOL0     H73554   4.388   7.328   4.409  2.3225  1.2336 -1.3396
  534MOL0     O73555   6.836   5.145   6.297  0.0137 -0.1155  0.4782
  534MOL0     C73556   6.777   5.226   6.363 -0.0289 -0.2492 -0.7189
  534MOL0     O73557   6.822   5.348   6.390  0.7123 -0.3364  0.7649
  534MOL0     C73558   6.950   5.396   6.356 -0.1773  0.3142  2.1291
  534MOL0     C73559   6.951   5.497   6.260 -0.2830  0.1628  0.3403
  534MOL0     C73560   7.073   5.532   6.205  0.0759 -0.6015 -0.0664
  534MOL0     C73561   7.191   5.481   6.243 -0.9257  1.2107  0.3560
  534MOL0     O73562   7.316   5.506   6.187  0.6624 -1.1621 -0.4083
  534MOL0     C73563   7.333   5.592   6.072  0.1174  0.0400  0.1687
  534MOL0     C73564   7.482   5.614   6.057 -0.0536  0.2984 -0.3925
  534MOL0     C73565   7.556   5.670   6.180  0.1053  0.0567  0.1215
  534MOL0     C73566   7.584   5.567   6.292  0.3379  1.0988 -0.7754
  534MOL0     C73567   7.699   5.612   6.393 -0.6966 -0.9721  0.5102
  534MOL0     C73568   7.701   5.522   6.517  0.1629 -0.3002  0.8829
  534MOL0     C73569   7.841   5.521   6.591  0.2837 -0.6329  0.1035
  534MOL0     C73570   7.925   5.404   6.570 -0.8903  0.6902  0.3413
  534MOL0     N73571   8.008   5.434   6.452  0.8345  0.1176  0.7843
  534MOL0     C73572   7.970   5.400   6.327  0.5283  0.4245  0.3569
  534MOL0     C73573   8.068   5.442   6.249  0.3864 -0.2522 -0.2045
  534MOL0     C73574   8.075   5.433   6.103 -0.5684 -0.3124  1.0399
  534MOL0     C73575   8.049   5.574   6.044  1.2512 -0.5029 -0.3353
  534MOL0     C73576   8.158   5.674   6.059  0.0290  0.1930 -0.1614
  534MOL0     C73577   8.287   5.622   5.999 -0.7337  0.4572  0.3195
  534MOL0     O73578   8.274   5.581   5.860  0.6852  0.2934 -0.4071
  534MOL0     C73579   8.378   5.528   5.798 -0.4134  0.4133  0.8540
  534MOL0     C73580   8.509   5.500   5.854 -0.0853  0.5361 -0.1748
  534MOL0     C73581   8.609   5.442   5.774  0.4385 -0.4917  0.1491
  534MOL0     C73582   8.738   5.408   5.867 -0.0915 -0.7098  0.0897
  534MOL0     C73583   8.595   5.422   5.634 -0.1879 -0.4795 -0.7887
  534MOL0     C73584   8.697   5.368   5.544 -0.6646 -0.7946  0.0828
  534MOL0     O73585   8.687   5.392   5.407 -0.5579 -0.1227 -0.3555
  534MOL0     C73586   8.771   5.333   5.309 -0.7026 -0.7134 -0.2422
  534MOL0     C73587   8.766   5.397   5.184  0.4958 -0.0821  0.4055
  534MOL0     C73588   8.846   5.353   5.088  0.1766  0.0266  0.8898
  534MOL0     C73589   8.936   5.244   5.105 -0.4048 -0.3473 -0.1382
  534MOL0     O73590   9.031   5.199   5.021 -0.8041 -0.1199  0.2025
  534MOL0     C73591   9.002   5.218   4.887 -0.1270 -0.0542 -0.7802
  534MOL0     C73592   9.122   5.166   4.803 -0.3279 -0.9204 -0.0244
  534MOL0     C73593   9.137   5.225   4.656 -0.1609 -0.2219  0.3615
  534MOL0     C73594   9.016   5.208   4.573 -0.2289  0.0339  1.3088
  534MOL0     C73595   8.990   5.063   4.543 -0.4319  0.3206 -0.0840
  534MOL0     C73596   8.858   5.038   4.466 -0.8846 -1.3171 -0.0475
  534MOL0     C73597   8.833   5.107   4.335 -0.1452  0.5369 -0.2326
  534MOL0     C73598   8.678   5.081   4.289  0.1314  0.6279  0.1531
  534MOL0    Cl73599   8.567   5.153   4.418  0.0753 -0.2666  0.0180
  534MOL0     C73600   8.930   5.172   5.223  0.5082 -0.0484  0.9003
  534MOL0     C73601   8.856   5.216   5.326 -0.3687 -0.3553 -0.7568
  534MOL0     O73602   8.792   5.306   5.598 -0.1436 -0.8531 -0.2586
  534MOL0     C73603   8.472   5.449   5.584  0.5445 -0.4689  0.4439
  534MOL0     C73604   8.360   5.500   5.659 -0.2405 -0.7612  0.1558
  534MOL0     N73605   8.167   5.497   6.319 -0.8245 -0.3347  0.6298
  534MOL0     N73606   8.129   5.504   6.448 -0.1345 -0.2686  0.4864
  534MOL0     C73607   7.186   5.373   6.335 -0.4505 -0.6611 -1.1806
  534MOL0     C73608   7.065   5.333   6.393  0.1716 -0.2925  0.5367
  534MOL0     C73609   6.654   5.191   6.419  0.7397  0.5169  0.8089
  534MOL0     C73610   6.556   5.300   6.428  0.3603 -0.3796 -0.6665
  534MOL0     C73611   6.416   5.268   6.464 -0.9502  0.2285  0.2222
  534MOL0     C73612   6.384   5.129   6.494 -0.1459  0.1118 -0.1154
  534MOL0     O73613   6.257   5.082   6.523  0.3115  0.0131  0.8277
  534MOL0     C73614   6.159   5.184   6.558  0.6832 -1.1902 -0.0616
  534MOL0     C73615   6.046   5.103   6.605  0.0170  0.0954  0.0830
  534MOL0     C73616   5.929   5.198   6.650  0.0551  0.1093 -0.3272
  534MOL0     C73617   5.813   5.120   6.710 -0.3980  0.9107 -0.0423
  534MOL0     C73618   5.854   5.045   6.828 -0.3235 -0.1537 -0.1470
  534MOL0     C73619   5.867   4.977   6.924 -0.7573 -0.3679  0.5899
  534MOL0     C73620   6.490   5.031   6.491  1.2839 -1.2134 -0.5624
  534MOL0     C73621   6.621   5.056   6.458 -0.3202 -0.3122 -0.1659
  534MOL0     C73622   6.725   4.946   6.479  0.1409 -0.3286 -0.2418
  534MOL0     H73623   6.860   5.547   6.229  1.1069  2.8957  0.3817
  534MOL0     H73624   7.080   5.608   6.127  0.8440  0.2087  0.7667
  534MOL0     H73625   7.282   5.687   6.086  0.5597  0.0911  1.5981
  534MOL0     H73626   7.285   5.552   5.982 -4.2098  1.4123  1.6518
  534MOL0     H73627   7.527   5.517   6.031 -0.2311 -0.4372  1.7667
  534MOL0     H73628   7.496   5.685   5.976  1.0282 -1.1563 -1.5493
  534MOL0     H73629   7.652   5.700   6.137 -1.4543 -1.0516 -4.7335
  534MOL0     H73630   7.505   5.756   6.225  1.7899 -0.0688  2.4792
  534MOL0     H73631   7.495   5.553   6.355  1.2003 -1.2694  0.0153
  534MOL0     H73632   7.610   5.472   6.247  1.4683  0.5598  0.9216
  534MOL0     H73633   7.681   5.717   6.419  0.1015 -0.7414  0.1602
  534MOL0     H73634   7.794   5.609   6.338  0.3366 -0.4913  2.1874
  534MOL0     H73635   7.625   5.550   6.590  1.0985 -2.0643  2.6313
  534MOL0     H73636   7.685   5.420   6.480  2.2814 -0.3160 -0.1688
  534MOL0     H73637   7.815   5.517   6.697  0.7381  1.2682  0.3216
  534MOL0     H73638   7.895   5.615   6.575 -2.6544  0.9942 -0.9292
  534MOL0     H73639   7.997   5.392   6.651 -2.1851  1.3001  1.6179
  534MOL0     H73640   7.863   5.314   6.560  0.4804 -0.0995 -1.8944
  534MOL0     H73641   7.891   5.334   6.293  1.3018 -0.8077  0.8717
  534MOL0     H73642   7.999   5.365   6.066  0.5979 -1.7043  1.1158
  534MOL0     H73643   8.172   5.395   6.069 -0.0801 -2.0212  3.9494
  534MOL0     H73644   8.022   5.556   5.939 -0.2998 -1.6005  0.2209
  534MOL0     H73645   7.952   5.597   6.090  0.9740 -1.4733 -0.4181
  534MOL0     H73646   8.138   5.764   6.000  6.0371 -0.2255 -3.5499
  534MOL0     H73647   8.175   5.702   6.163  3.1359  1.1509 -0.8256
  534MOL0     H73648   8.363   5.701   6.006 -1.6884  1.2642  2.4754
  534MOL0     H73649   8.332   5.542   6.058 -0.4460  0.9842  0.8280
  534MOL0     H73650   8.532   5.519   5.958  1.5574  3.0906 -0.9022
  534MOL0     H73651   8.827   5.373   5.815  0.6186 -1.4886  1.7427
  534MOL0     H73652   8.710   5.333   5.942 -1.7274  0.1558  0.3999
  534MOL0     H73653   8.768   5.503   5.912  0.6575 -0.6255 -0.5699
  534MOL0     H73654   8.698   5.480   5.167  2.6268  1.9038  1.0657
  534MOL0     H73655   8.846   5.403   4.992 -0.4161  2.7272  2.2039
  534MOL0     H73656   8.901   5.182   4.862  0.3946 -0.9912 -1.5992
  534MOL0     H73657   9.003   5.326   4.866 -0.6462  0.0971 -0.0687
  534MOL0     H73658   9.220   5.191   4.845 -0.0301 -3.5365  1.0422
  534MOL0     H73659   9.123   5.056   4.798  1.8998 -1.0105  1.1417
  534MOL0     H73660   9.224   5.181   4.607  0.2922  2.3773 -1.4086
  534MOL0     H73661   9.157   5.332   4.669 -0.8367 -0.4193  4.1752
  534MOL0     H73662   9.030   5.260   4.478 -3.5714 -2.6445 -0.9249
  534MOL0     H73663   8.925   5.255   4.611 -0.7932  1.8570 -1.9453
  534MOL0     H73664   9.076   5.026   4.487  0.3369  0.5397  0.9373
  534MOL0     H73665   8.983   5.005   4.635  0.9910 -1.5303 -1.0791
  534MOL0     H73666   8.778   5.070   4.534 -0.5180  2.0729 -1.0347
  534MOL0     H73667   8.845   4.932   4.443  2.2528 -2.0178  0.9595
  534MOL0     H73668   8.901   5.073   4.256  0.8566 -0.2930  0.9438
  534MOL0     H73669   8.851   5.215   4.336  0.7075  0.5122  3.8278
  534MOL0     H73670   8.659   4.973   4.278  0.8247 -0.2056  4.9538
  534MOL0     H73671   8.669   5.125   4.189  1.8111 -0.6332 -0.6136
  534MOL0     H73672   8.993   5.086   5.244 -1.4922 -1.3555  1.7950
  534MOL0     H73673   8.852   5.154   5.415  1.4918 -2.0124 -1.7317
  534MOL0     H73674   8.464   5.425   5.478 -3.8644  1.0145  0.2461
  534MOL0     H73675   8.267   5.502   5.603 -2.2883  0.4667  3.3069
  534MOL0     H73676   7.276   5.318   6.358 -0.6610 -0.8353 -0.7628
  534MOL0     H73677   7.064   5.247   6.459 -0.2380  0.2720  1.2859
  534MOL0     H73678   6.577   5.400   6.393 -2.6415  0.8370  0.7559
  534MOL0     H73679   6.338   5.344   6.458 -2.1435 -0.7685  2.1008
  534MOL0     H73680   6.194   5.256   6.632 -0.2906 -0.2316 -0.5153
  534MOL0     H73681   6.131   5.239   6.468 -0.0828  0.4601  1.1348
  534MOL0     H73682   6.087   5.048   6.690  2.1983 -1.0189 -1.5726
  534MOL0     H73683   6.017   5.032   6.527  2.1327 -3.6871  2.4082
  534MOL0     H73684   5.964   5.266   6.728  2.3832 -2.0229  0.6370
  534MOL0     H73685   5.890   5.253   6.563  1.4646  0.6741 -0.6305
  534MOL0     H73686   5.769   5.043   6.645 -0.8566  0.3028  0.9689
  534MOL0     H73687   5.729   5.188   6.729 -0.8997  0.8189 -1.7074
  534MOL0     H73688   5.862   4.917   7.013  1.0571 -2.2371 -0.4779
  534MOL0     H73689   6.457   4.930   6.511  1.1195 -1.3474 -1.4725
  534MOL0     H73690   6.769   4.906   6.387 -0.1039  1.1099 -1.0145
  534MOL0     H73691   6.809   4.979   6.541  2.3228 -3.2975 -1.3887
  534MOL0     H73692   6.679   4.854   6.517  1.2475 -3.0202 -4.7236
  535MOL0     O73693   1.762   8.886   4.591  0.2603 -0.7202 -0.6576
  535MOL0     C73694   1.713   8.822   4.687 -0.1221 -0.0004  0.4057
  535MOL0     O73695   1.701   8.685   4.680 -0.0034 -0.2650 -0.1958
  535MOL0     C73696   1.766   8.614   4.590 -0.0516 -0.0826 -0.4908
  535MOL0     C73697   1.686   8.511   4.532  0.0583  0.2078  0.2757
  535MOL0     C73698   1.741   8.437   4.425  0.8675  0.8327 -0.0237
  535MOL0     C73699   1.872   8.443   4.391 -0.2033 -0.0500  1.0441
  535MOL0     O73700   1.914   8.359   4.284 -0.0303  0.4919 -0.4602
  535MOL0     C73701   2.054   8.334   4.256 -0.5262 -0.3235 -0.7810
  535MOL0     C73702   2.074   8.230   4.145 -0.4096 -0.0226  0.2213
  535MOL0     C73703   2.224   8.210   4.105 -0.7971  0.5309 -0.1793
  535MOL0     C73704   2.244   8.109   3.990 -0.5889 -0.2255 -0.4256
  535MOL0     C73705   2.392   8.055   3.983 -1.2853 -0.2805 -0.1911
  535MOL0     C73706   2.500   8.154   3.948  0.3660  0.9166  0.1185
  535MOL0     C73707   2.484   8.227   3.816  0.7426 -0.3403 -0.4460
  535MOL0     C73708   2.488   8.127   3.696  0.4134 -0.1036  0.2985
  535MOL0     N73709   2.479   8.202   3.570 -0.0428  0.1887  0.1742
  535MOL0     C73710   2.585   8.273   3.521  0.4510 -0.3410 -0.6269
  535MOL0     C73711   2.535   8.346   3.423  0.1836  0.3440 -0.4315
  535MOL0     C73712   2.591   8.432   3.319 -0.6488 -0.1779 -0.3098
  535MOL0     C73713   2.736   8.397   3.272 -0.3749  0.4226 -0.1749
  535MOL0     C73714   2.758   8.442   3.129 -0.7485 -0.1645  0.3748
  535MOL0     C73715   2.883   8.364   3.083 -0.1792 -0.5039  0.1820
  535MOL0     O73716   2.997   8.374   3.178 -0.1934 -0.3241  1.0187
  535MOL0     C73717   3.072   8.486   3.166 -0.5234 -0.2089  0.4090
  535MOL0     C73718   3.198   8.476   3.234 -0.3138  0.3522  0.9274
  535MOL0     C73719   3.300   8.579   3.225 -0.0706 -0.3013 -0.1200
  535MOL0     C73720   3.427   8.557   3.299  0.1938 -0.3163  0.5065
  535MOL0     C73721   3.272   8.701   3.154  0.6312 -1.3402 -0.2263
  535MOL0     C73722   3.373   8.813   3.122 -0.6367  0.9924 -1.2906
  535MOL0     O73723   3.326   8.927   3.057 -0.8365 -0.2785 -0.9325
  535MOL0     C73724   3.416   9.016   2.990  0.2594  1.2166  0.0895
  535MOL0     C73725   3.537   8.991   2.929 -0.4327 -0.2977  0.7709
  535MOL0     C73726   3.612   9.087   2.864 -0.8431  0.0579 -1.1161
  535MOL0     C73727   3.568   9.221   2.861  0.3615  0.1037 -0.9561
  535MOL0     O73728   3.617   9.329   2.791  0.0131 -0.6220  0.4668
  535MOL0     C73729   3.702   9.315   2.675 -0.5812  0.2500 -0.0681
  535MOL0     C73730   3.853   9.331   2.719 -0.3734 -0.2859 -0.2608
  535MOL0     C73731   3.937   9.305   2.595 -0.5818 -1.1334  0.1749
  535MOL0     C73732   4.068   9.382   2.602 -0.7929 -0.8409  0.2229
  535MOL0     C73733   4.161   9.327   2.486 -0.4851  0.1168  0.6169
  535MOL0     C73734   4.293   9.391   2.490 -0.9264  0.4046  0.1217
  535MOL0     C73735   4.396   9.334   2.389 -0.7092 -0.1798 -0.7016
  535MOL0     C73736   4.363   9.360   2.238  0.8230  0.2809 -0.2749
  535MOL0    Cl73737   4.495   9.287   2.147 -0.1701 -0.4962 -0.0859
  535MOL0     C73738   3.446   9.250   2.921  0.4987  0.6945  0.3645
  535MOL0     C73739   3.373   9.144   2.981  0.4561  0.8135 -0.5296
  535MOL0     O73740   3.490   8.778   3.129 -0.5126  0.3142 -0.2882
  535MOL0     C73741   3.144   8.719   3.102 -0.1036  0.2645  0.9492
  535MOL0     C73742   3.051   8.607   3.097  0.3256  0.5477 -0.6836
  535MOL0     N73743   2.393   8.332   3.429  0.0749  0.6492  0.1573
  535MOL0     N73744   2.364   8.238   3.510 -0.2014 -0.2185  0.3332
  535MOL0     C73745   1.956   8.531   4.461 -0.2069 -0.3070 -0.0883
  535MOL0     C73746   1.902   8.620   4.558 -0.3059 -0.1621 -0.3636
  535MOL0     C73747   1.653   8.897   4.797  0.0587  0.1538 -0.6455
  535MOL0     C73748   1.591   8.817   4.894 -0.5985 -0.0331 -1.2450
  535MOL0     C73749   1.538   8.872   5.013  0.4116  0.5396 -0.1052
  535MOL0     C73750   1.527   9.009   5.032  0.2872  0.2411  0.6971
  535MOL0     O73751   1.463   9.047   5.147  0.1873 -0.1226 -0.7305
  535MOL0     C73752   1.557   9.130   5.223  0.0307 -0.1232 -0.3015
  535MOL0     C73753   1.473   9.180   5.337 -0.7429 -0.1067 -0.6114
  535MOL0     C73754   1.497   9.093   5.467  0.3662  0.0112  0.0861
  535MOL0     C73755   1.390   9.131   5.568 -0.0657 -0.4563  0.8560
  535MOL0     C73756   1.406   9.094   5.703  0.3614 -0.0392 -0.7213
  535MOL0     C73757   1.405   9.076   5.821  0.6820 -0.1827  0.4806
  535MOL0     C73758   1.577   9.099   4.924 -0.2072  0.4141  0.0988
  535MOL0     C73759   1.651   9.039   4.816 -1.1229 -0.5779 -0.3502
  535MOL0     C73760   1.703   9.131   4.714  0.1059 -1.0817  0.4207
  535MOL0     H73761   1.582   8.500   4.562 -1.1994 -0.3768 -3.7676
  535MOL0     H73762   1.669   8.368   4.380  0.4493  1.7588 -0.8047
  535MOL0     H73763   2.099   8.300   4.349 -2.6624  1.6264  1.0803
  535MOL0     H73764   2.097   8.429   4.221 -0.5253 -0.6158 -1.6099
  535MOL0     H73765   2.028   8.133   4.168 -2.4978  1.0806  0.8848
  535MOL0     H73766   2.025   8.266   4.054  2.3972 -0.9167 -1.7888
  535MOL0     H73767   2.280   8.301   4.081 -1.7995  1.1582 -0.1600
  535MOL0     H73768   2.268   8.161   4.193 -0.5211  2.6608  0.9409
  535MOL0     H73769   2.162   8.037   3.984 -0.8277  0.0317 -0.2569
  535MOL0     H73770   2.213   8.167   3.903  1.0917  0.2346 -0.7564
  535MOL0     H73771   2.399   7.972   3.913  0.3123 -0.2192 -0.1487
  535MOL0     H73772   2.421   8.019   4.082 -1.4894  1.2124  0.4332
  535MOL0     H73773   2.505   8.234   4.021 -2.5457  1.4340 -0.1013
  535MOL0     H73774   2.595   8.100   3.946 -1.8641 -3.5661  1.6077
  535MOL0     H73775   2.563   8.302   3.804 -0.2737  0.6040 -1.5112
  535MOL0     H73776   2.391   8.285   3.809 -0.6885 -2.3721  0.6792
  535MOL0     H73777   2.584   8.073   3.697 -0.2987 -1.4001  0.5933
  535MOL0     H73778   2.407   8.054   3.697  0.7396 -0.5298 -1.2771
  535MOL0     H73779   2.690   8.272   3.548  0.4353  2.5373 -0.1673
  535MOL0     H73780   2.586   8.538   3.347 -2.0072  0.1451 -1.7055
  535MOL0     H73781   2.520   8.419   3.237 -1.1206 -2.2522  0.3648
  535MOL0     H73782   2.803   8.451   3.340  1.3943  1.4822 -2.6065
  535MOL0     H73783   2.738   8.288   3.282 -2.7169  0.4361  1.1553
  535MOL0     H73784   2.670   8.419   3.068 -1.0563 -0.6682  1.0061
  535MOL0     H73785   2.773   8.550   3.131 -3.1087  0.1971  2.7953
  535MOL0     H73786   2.855   8.259   3.082 -1.0705 -0.2959  1.1996
  535MOL0     H73787   2.909   8.407   2.985  1.1334 -0.8125  0.3814
  535MOL0     H73788   3.220   8.387   3.293 -0.3891 -0.0288  0.3841
  535MOL0     H73789   3.424   8.500   3.393  1.0065  0.3788  0.9783
  535MOL0     H73790   3.451   8.657   3.336 -2.2325  0.2176  0.8026
  535MOL0     H73791   3.495   8.503   3.233  1.3627  1.3036  0.3229
  535MOL0     H73792   3.569   8.888   2.926 -3.5883 -1.3399 -1.0148
  535MOL0     H73793   3.707   9.062   2.817  0.5080  0.6568  1.1181
  535MOL0     H73794   3.696   9.218   2.624  0.8341  0.9346 -1.6327
  535MOL0     H73795   3.671   9.391   2.604 -1.3599  1.4327  1.4857
  535MOL0     H73796   3.867   9.438   2.737  0.6741 -0.4080 -0.3169
  535MOL0     H73797   3.880   9.271   2.806 -0.9902 -0.6051 -0.2859
  535MOL0     H73798   3.881   9.338   2.507 -1.8635 -0.5396  1.1752
  535MOL0     H73799   3.967   9.200   2.594 -2.0117 -1.5825 -2.0705
  535MOL0     H73800   4.124   9.364   2.694 -0.5252  1.0859  0.4798
  535MOL0     H73801   4.049   9.489   2.594  0.5711 -0.7056 -1.9776
  535MOL0     H73802   4.190   9.223   2.501  0.3431  0.1367 -0.7222
  535MOL0     H73803   4.116   9.329   2.387  0.7394 -1.9312 -0.0449
  535MOL0     H73804   4.352   9.387   2.582  1.4175  0.1175 -1.3129
  535MOL0     H73805   4.275   9.496   2.465 -1.7101 -0.0354 -1.3008
  535MOL0     H73806   4.404   9.225   2.398 -2.0716 -0.6265 -3.5959
  535MOL0     H73807   4.486   9.389   2.418 -2.2463  0.6620  3.0286
  535MOL0     H73808   4.351   9.468   2.224  0.5391  0.1229 -1.3290
  535MOL0     H73809   4.268   9.313   2.210 -0.8672  2.8823  0.5980
  535MOL0     H73810   3.403   9.350   2.921  0.5595  0.8114 -2.9360
  535MOL0     H73811   3.285   9.166   3.041  1.3557 -0.0575  1.1831
  535MOL0     H73812   3.113   8.812   3.055 -0.7577 -0.9199 -1.1003
  535MOL0     H73813   2.962   8.621   3.036  1.6065  0.2293 -2.7169
  535MOL0     H73814   2.062   8.531   4.439  0.5310  3.8656  2.3960
  535MOL0     H73815   1.957   8.702   4.604 -0.5737 -1.2659  2.0474
  535MOL0     H73816   1.601   8.710   4.887 -0.3503 -0.0450 -0.7311
  535MOL0     H73817   1.495   8.804   5.086 -1.3052  0.3392 -1.2548
  535MOL0     H73818   1.644   9.070   5.248 -1.2893 -2.1332 -0.3388
  535MOL0     H73819   1.597   9.219   5.173  0.3135 -0.2549 -0.3074
  535MOL0     H73820   1.368   9.182   5.306 -1.5737  0.4351  1.9756
  535MOL0     H73821   1.499   9.286   5.343  0.7816 -0.3426 -2.3258
  535MOL0     H73822   1.495   8.987   5.439  2.6308  0.0014 -0.1605
  535MOL0     H73823   1.595   9.119   5.508  0.3219  0.9069 -0.3509
  535MOL0     H73824   1.298   9.087   5.526 -0.1124  2.0178 -1.9280
  535MOL0     H73825   1.378   9.240   5.568 -1.5102 -0.5336 -1.7116
  535MOL0     H73826   1.409   9.055   5.926 -1.2945 -0.3308  0.5629
  535MOL0     H73827   1.566   9.206   4.933  3.0070  0.7959  0.8076
  535MOL0     H73828   1.686   9.237   4.735 -0.6729 -1.2708  0.7599
  535MOL0     H73829   1.802   9.106   4.674 -0.1568  0.0848 -1.0768
  535MOL0     H73830   1.636   9.115   4.629 -0.5713 -0.1664  0.7690
  536MOL0     O73831   7.819   3.353   3.529  0.1972  0.6168 -0.1559
  536MOL0     C73832   7.714   3.309   3.575  0.7785  0.0638 -0.3211
  536MOL0     O73833   7.707   3.193   3.640  0.2589  0.1403 -0.9393
  536MOL0     C73834   7.825   3.119   3.647  0.7125 -0.1986  0.5069
  536MOL0     C73835   7.830   3.016   3.554  0.2973  0.3689 -0.4033
  536MOL0     C73836   7.916   2.909   3.580 -0.6519  0.6505  0.8748
  536MOL0     C73837   7.998   2.902   3.695 -0.6163 -0.7884 -0.2107
  536MOL0     O73838   8.075   2.790   3.731  0.1204 -0.0119  0.8890
  536MOL0     C73839   8.058   2.674   3.645  0.6440 -0.7186  0.0873
  536MOL0     C73840   8.143   2.558   3.708 -0.6258 -0.4696 -0.1166
  536MOL0     C73841   8.299   2.586   3.729  0.2492 -0.4807  0.5797
  536MOL0     C73842   8.363   2.568   3.591  0.2401  0.8663 -0.4925
  536MOL0     C73843   8.517   2.564   3.604 -0.1883  1.1622  0.9420
  536MOL0     C73844   8.583   2.534   3.464 -0.3666  0.7053  0.2837
  536MOL0     C73845   8.737   2.557   3.474 -0.0877 -0.4160  0.3551
  536MOL0     C73846   8.820   2.469   3.566 -0.5329 -0.0170 -0.1378
  536MOL0     N73847   8.825   2.330   3.536 -0.6806  0.2253  0.5066
  536MOL0     C73848   8.726   2.237   3.553 -0.8152 -0.7905 -0.1005
  536MOL0     C73849   8.770   2.124   3.495  0.7703  0.1027  0.1940
  536MOL0     C73850   8.686   1.995   3.506  0.0340 -0.5334 -0.2104
  536MOL0     C73851   8.721   1.877   3.405  0.1982 -0.2867 -0.3543
  536MOL0     C73852   8.818   1.764   3.446 -0.5041  0.0489  0.6655
  536MOL0     C73853   8.949   1.811   3.490 -0.6186 -1.1094 -0.0862
  536MOL0     O73854   9.023   1.698   3.526 -0.5523  0.4483  0.3805
  536MOL0     C73855   9.148   1.721   3.571  0.0051  0.0231 -0.1533
  536MOL0     C73856   9.218   1.847   3.584 -0.7960  0.4302 -0.9809
  536MOL0     C73857   9.344   1.862   3.648  1.5589 -0.1085 -0.4069
  536MOL0     C73858   9.414   1.994   3.645  0.4031  0.2306  0.1464
  536MOL0     C73859   9.408   1.743   3.687 -0.3271 -0.8200 -0.2260
  536MOL0     C73860   9.547   1.738   3.743  0.2589  0.6934  0.4909
  536MOL0     O73861   9.605   1.619   3.746  0.2924 -0.0897  0.1055
  536MOL0     C73862   9.729   1.594   3.805  0.5647  0.2319 -1.0321
  536MOL0     C73863   9.827   1.690   3.847 -0.0092 -0.4017 -0.5210
  536MOL0     C73864   9.949   1.652   3.895  0.9920  0.4496  0.6980
  536MOL0     C73865   9.974   1.514   3.927 -0.4104 -0.7579 -0.1898
  536MOL0     O73866  10.098   1.487   3.958 -0.9917 -0.2822 -1.0577
  536MOL0     C73867  10.140   1.395   4.065 -1.5571 -0.2774 -0.1094
  536MOL0     C73868  10.296   1.394   4.096 -0.0377  0.2039 -1.0926
  536MOL0     C73869  10.339   1.299   4.205  0.5232 -0.1177 -0.2096
  536MOL0     C73870  10.489   1.324   4.228  0.1831  0.6919 -0.1803
  536MOL0     C73871  10.547   1.225   4.327  0.4984 -0.0040 -1.1502
  536MOL0     C73872  10.690   1.275   4.353 -0.9231  0.0110  0.0614
  536MOL0     C73873  10.766   1.177   4.443 -0.4381  0.7462  0.4466
  536MOL0     C73874  10.794   1.040   4.370  1.0068 -0.3207 -1.4509
  536MOL0    Cl73875  10.859   0.935   4.487 -0.4333  0.4755 -0.4473
  536MOL0     C73876   9.870   1.418   3.907  0.4321 -1.4205 -0.2489
  536MOL0     C73877   9.748   1.456   3.834 -0.5174 -0.3510 -0.0764
  536MOL0     O73878   9.601   1.834   3.792 -0.1476  0.1090 -0.1003
  536MOL0     C73879   9.349   1.616   3.672  0.7728  0.2569  0.0030
  536MOL0     C73880   9.225   1.609   3.617  0.3607 -0.3363 -0.1271
  536MOL0     N73881   8.900   2.147   3.455 -0.2769 -0.2546 -0.2538
  536MOL0     N73882   8.935   2.265   3.482  0.3344 -0.2214  0.4293
  536MOL0     C73883   7.992   3.003   3.789 -0.2384 -0.0061 -0.0762
  536MOL0     C73884   7.905   3.113   3.764  0.1388  0.3600  0.1470
  536MOL0     C73885   7.590   3.391   3.576  1.0633 -0.5656  0.4216
  536MOL0     C73886   7.471   3.324   3.620  0.6847  1.0193  0.6025
  536MOL0     C73887   7.343   3.375   3.603  0.1762  0.5137 -0.6679
  536MOL0     C73888   7.331   3.501   3.546  0.6851 -0.2836  0.2324
  536MOL0     O73889   7.224   3.565   3.525  0.0176 -0.0407 -0.0161
  536MOL0     C73890   7.093   3.507   3.558  0.2005 -0.4424  1.0550
  536MOL0     C73891   6.971   3.590   3.513  0.6583 -0.1538 -0.4460
  536MOL0     C73892   6.965   3.627   3.369 -1.1964  0.5012  0.8721
  536MOL0     C73893   6.826   3.683   3.329 -0.0564  0.5372 -0.1479
  536MOL0     C73894   6.792   3.817   3.370 -0.1138  0.5958  1.2564
  536MOL0     C73895   6.774   3.921   3.429 -0.9573  0.1546 -0.2411
  536MOL0     C73896   7.444   3.574   3.520 -0.6582  0.0107  0.3818
  536MOL0     C73897   7.574   3.529   3.528  0.9474  0.9116 -0.2253
  536MOL0     C73898   7.686   3.607   3.459  0.6790  0.3832  0.3365
  536MOL0     H73899   7.787   3.008   3.455  1.7938  0.4912 -1.1041
  536MOL0     H73900   7.911   2.830   3.507  1.2057  0.6238  0.7249
  536MOL0     H73901   8.085   2.684   3.540 -1.2418  0.1007 -0.3452
  536MOL0     H73902   7.953   2.647   3.634  0.1666  1.7744 -2.5905
  536MOL0     H73903   8.090   2.537   3.802 -1.8329  2.4427 -0.0389
  536MOL0     H73904   8.140   2.478   3.634  1.7749 -0.7568  0.0152
  536MOL0     H73905   8.318   2.680   3.781 -1.2240  0.4820 -0.5792
  536MOL0     H73906   8.347   2.510   3.792  1.0158  2.1530  3.4081
  536MOL0     H73907   8.328   2.471   3.554 -0.3258  1.0621 -0.4750
  536MOL0     H73908   8.337   2.649   3.523  1.5476  1.4239 -0.3664
  536MOL0     H73909   8.550   2.492   3.679 -1.0112 -2.7777 -2.1364
  536MOL0     H73910   8.543   2.664   3.638  1.5769  1.0635 -0.0325
  536MOL0     H73911   8.562   2.436   3.418  1.0521  1.3757 -1.9546
  536MOL0     H73912   8.539   2.612   3.401 -1.7239  0.6778  1.1384
  536MOL0     H73913   8.758   2.659   3.508 -1.4010 -0.7812  2.4381
  536MOL0     H73914   8.784   2.535   3.378  1.0248 -3.7110  1.5064
  536MOL0     H73915   8.926   2.492   3.557 -0.6171  0.1497 -0.7614
  536MOL0     H73916   8.783   2.482   3.669 -2.7666 -0.8296 -0.7784
  536MOL0     H73917   8.632   2.249   3.608  0.5463 -1.4017  2.5348
  536MOL0     H73918   8.584   2.017   3.474 -1.3307  0.7076  4.3549
  536MOL0     H73919   8.685   1.961   3.610  1.8806 -3.9145 -1.1460
  536MOL0     H73920   8.628   1.832   3.369  0.8994 -0.8661 -1.5033
  536MOL0     H73921   8.765   1.926   3.318  0.7738  1.1872  0.7415
  536MOL0     H73922   8.784   1.722   3.541 -0.3636  0.4624  0.9052
  536MOL0     H73923   8.821   1.690   3.366 -0.8278 -1.0764  1.6696
  536MOL0     H73924   8.994   1.860   3.403 -1.9080 -0.1330 -0.2255
  536MOL0     H73925   8.931   1.882   3.571  1.9579 -0.9558  0.4526
  536MOL0     H73926   9.165   1.938   3.556 -0.1843  1.7126  1.6793
  536MOL0     H73927   9.360   2.057   3.573 -0.9926  0.6493  1.5080
  536MOL0     H73928   9.517   1.978   3.610  0.0666 -0.5102 -0.5279
  536MOL0     H73929   9.411   2.033   3.747  1.7622 -1.3268  0.8206
  536MOL0     H73930   9.832   1.798   3.850  2.8465 -0.4333 -0.9510
  536MOL0     H73931  10.027   1.726   3.911  1.3913  0.4816 -1.1687
  536MOL0     H73932  10.078   1.412   4.153  0.6338 -1.2591  1.7139
  536MOL0     H73933  10.113   1.301   4.016 -0.1013 -1.0497  0.5185
  536MOL0     H73934  10.362   1.370   4.012  2.4480 -1.6123  1.2022
  536MOL0     H73935  10.323   1.497   4.123 -1.8160  1.1304 -2.5897
  536MOL0     H73936  10.318   1.196   4.174 -0.4849 -0.5318  1.7059
  536MOL0     H73937  10.279   1.317   4.294  2.6938 -0.0266  1.3057
  536MOL0     H73938  10.493   1.425   4.270  2.8453 -0.2932  2.3289
  536MOL0     H73939  10.542   1.325   4.132  1.0094 -0.9566  0.2298
  536MOL0     H73940  10.484   1.211   4.415 -1.1980 -2.5744 -2.6550
  536MOL0     H73941  10.550   1.132   4.269  0.1697 -1.6288  1.2685
  536MOL0     H73942  10.682   1.373   4.401  1.9987  0.2049  0.3487
  536MOL0     H73943  10.745   1.290   4.260  0.9217 -0.4612  1.0242
  536MOL0     H73944  10.720   1.159   4.541 -3.4112  0.3370 -0.8964
  536MOL0     H73945  10.861   1.228   4.458  1.4672 -2.2507 -0.6332
  536MOL0     H73946  10.860   1.064   4.286  1.3091 -2.0786 -1.7595
  536MOL0     H73947  10.698   0.997   4.339  0.3478 -1.5916  1.9080
  536MOL0     H73948   9.891   1.313   3.924 -0.1883 -1.3593  0.9635
  536MOL0     H73949   9.688   1.380   3.784  2.2416 -3.1593  0.5754
  536MOL0     H73950   9.404   1.525   3.687  1.3091  0.6076  0.1803
  536MOL0     H73951   9.191   1.506   3.614  2.0855 -0.9740  1.0659
  536MOL0     H73952   8.057   2.980   3.873 -0.1473 -3.8808 -1.0012
  536MOL0     H73953   7.893   3.190   3.840  2.0510  0.2732  0.5973
  536MOL0     H73954   7.464   3.229   3.672 -1.4130  1.0395  0.4478
  536MOL0     H73955   7.261   3.315   3.641 -1.1652  1.3300 -2.1750
  536MOL0     H73956   7.084   3.414   3.501 -0.8852 -0.6692  1.5563
  536MOL0     H73957   7.097   3.484   3.665 -0.1167  1.0032  1.4047
  536MOL0     H73958   6.980   3.685   3.566 -1.1765  0.2787 -0.8426
  536MOL0     H73959   6.882   3.529   3.526  0.8338 -1.2104 -3.4832
  536MOL0     H73960   7.049   3.696   3.349 -1.1698 -0.1949 -1.8044
  536MOL0     H73961   6.968   3.535   3.310 -2.1351  1.4834 -0.7764
  536MOL0     H73962   6.743   3.623   3.369 -1.9088  2.4743 -0.8765
  536MOL0     H73963   6.807   3.667   3.222  2.4881 -0.8411 -0.4705
  536MOL0     H73964   6.759   4.011   3.485  0.9952 -1.5033  3.3325
  536MOL0     H73965   7.427   3.665   3.463 -0.8095 -1.5978 -2.2941
  536MOL0     H73966   7.771   3.598   3.527  2.6305  1.2904 -1.8486
  536MOL0     H73967   7.718   3.567   3.363  1.4931 -0.3452  0.8951
  536MOL0     H73968   7.651   3.711   3.450  2.0383  0.8124 -0.2128
  537MOL0     O73969   2.209   6.240   1.047 -0.4063 -0.0816 -0.3793
  537MOL0     C73970   2.097   6.281   1.025 -0.2666  0.4358 -0.6486
  537MOL0     O73971   2.054   6.327   0.893  0.3684 -0.4897  0.4134
  537MOL0     C73972   2.147   6.306   0.795  0.9883 -0.3667  0.1763
  537MOL0     C73973   2.138   6.206   0.695 -0.3276 -0.5887 -0.9574
  537MOL0     C73974   2.246   6.193   0.600 -0.0302 -0.2504 -0.4999
  537MOL0     C73975   2.350   6.286   0.597 -0.0920  0.1086 -0.0889
  537MOL0     O73976   2.453   6.281   0.503  0.4795  0.0066  0.6486
  537MOL0     C73977   2.454   6.171   0.403 -0.2628 -0.4248 -0.4909
  537MOL0     C73978   2.593   6.148   0.343 -0.2143  0.4776  0.3161
  537MOL0     C73979   2.666   6.274   0.286  0.8050  0.2867 -0.0137
  537MOL0     C73980   2.807   6.240   0.233  0.0461  0.4018  0.3133
  537MOL0     C73981   2.872   6.369   0.180 -0.9262  1.0454  0.2961
  537MOL0     C73982   3.006   6.339   0.109 -0.5580  0.4939  0.0686
  537MOL0     C73983   3.026   6.458   0.016  0.9367 -0.5252  0.3969
  537MOL0     C73984   3.166   6.443  -0.047 -0.3679 -0.1384 -0.0822
  537MOL0     N73985   3.197   6.538  -0.157  0.1975 -0.0869 -0.3009
  537MOL0     C73986   3.139   6.668  -0.159 -0.6620 -0.3307 -0.0223
  537MOL0     C73987   3.171   6.710  -0.283  0.3927  0.3186  0.9806
  537MOL0     C73988   3.137   6.849  -0.344 -0.5163 -0.2327 -0.3291
  537MOL0     C73989   3.262   6.948  -0.350  0.3684  0.6686  0.5307
  537MOL0     C73990   3.289   6.991  -0.211  0.2693 -0.4939  0.5460
  537MOL0     C73991   3.365   7.120  -0.193 -0.4648 -1.1552 -0.4746
  537MOL0     O73992   3.467   7.116  -0.088 -1.0240 -0.2090 -0.0929
  537MOL0     C73993   3.449   7.107   0.044 -0.5006 -0.6225 -0.2773
  537MOL0     C73994   3.327   7.096   0.112 -0.3006  0.0148 -0.3112
  537MOL0     C73995   3.313   7.082   0.249  0.5932  0.4105  0.8107
  537MOL0     C73996   3.171   7.078   0.296 -0.7716 -0.6986 -0.2002
  537MOL0     C73997   3.434   7.078   0.326  0.5908 -0.6042  0.4845
  537MOL0     C73998   3.442   7.071   0.478 -0.2968  0.4707  0.1472
  537MOL0     O73999   3.566   7.106   0.536  0.6237  0.0148  0.5624
  537MOL0     C74000   3.604   7.043   0.655 -0.6039 -0.2524 -0.6444
  537MOL0     C74001   3.671   7.119   0.752 -0.3421  0.0423  0.2888
  537MOL0     C74002   3.722   7.051   0.862 -0.0384 -0.4268  0.4620
  537MOL0     C74003   3.703   6.913   0.878  0.8593 -0.5382  0.0037
  537MOL0     O74004   3.717   6.848   0.999 -0.3930 -0.5620 -0.6238
  537MOL0     C74005   3.816   6.899   1.082  0.3817 -0.6114  0.0061
  537MOL0     C74006   3.846   6.793   1.186  0.6447 -0.2502  0.9805
  537MOL0     C74007   3.952   6.841   1.283 -0.2031  0.2053 -0.5520
  537MOL0     C74008   4.078   6.910   1.222  0.0768  0.1458 -0.0730
  537MOL0     C74009   4.195   6.910   1.320 -0.0975 -0.2729  0.6911
  537MOL0     C74010   4.325   6.958   1.252 -0.1206 -0.0156  0.5563
  537MOL0     C74011   4.446   6.929   1.332 -1.0751 -0.0952  0.1255
  537MOL0     C74012   4.525   7.059   1.345 -0.7011  0.2620 -0.5208
  537MOL0    Cl74013   4.560   7.136   1.194  0.2713  0.3075 -0.1754
  537MOL0     C74014   3.625   6.843   0.789  0.1222 -0.5222  0.2689
  537MOL0     C74015   3.594   6.905   0.672  0.2862 -0.2866 -0.0062
  537MOL0     O74016   3.341   7.034   0.535  0.3247  0.9706 -0.1249
  537MOL0     C74017   3.560   7.104   0.259  0.0644  0.3622 -0.5833
  537MOL0     C74018   3.566   7.114   0.123  0.6438 -0.1034 -0.2705
  537MOL0     N74019   3.239   6.608  -0.349  0.5024  0.3206 -0.1760
  537MOL0     N74020   3.247   6.506  -0.276 -0.5180  0.6209 -0.1840
  537MOL0     C74021   2.357   6.391   0.699 -0.6770 -0.0130 -0.3097
  537MOL0     C74022   2.251   6.396   0.792  0.0763  0.7432  0.2576
  537MOL0     C74023   2.005   6.266   1.143  0.4932 -0.6279  0.0368
  537MOL0     C74024   2.056   6.224   1.267 -0.0230 -0.4149  0.3235
  537MOL0     C74025   1.976   6.232   1.383  0.1192 -0.8591 -0.1905
  537MOL0     C74026   1.848   6.286   1.373 -0.4270 -0.4160  0.1231
  537MOL0     O74027   1.784   6.298   1.492 -0.1081  0.2668  0.6830
  537MOL0     C74028   1.663   6.372   1.503 -0.5702 -0.1889  0.3575
  537MOL0     C74029   1.649   6.422   1.649 -0.5664  0.2105  0.4907
  537MOL0     C74030   1.502   6.476   1.675  0.0360  0.5809 -0.0991
  537MOL0     C74031   1.468   6.542   1.816  0.0083  0.1110  0.2918
  537MOL0     C74032   1.323   6.591   1.818 -0.3251 -0.6050  0.3949
  537MOL0     C74033   1.206   6.632   1.830 -0.6352  0.2515  0.8305
  537MOL0     C74034   1.794   6.311   1.244  0.8344  0.0756  0.0846
  537MOL0     C74035   1.869   6.292   1.129  0.1907 -1.0720  0.4244
  537MOL0     C74036   1.802   6.314   0.994  0.4434  0.3820 -1.0906
  537MOL0     H74037   2.057   6.135   0.707 -0.8816  0.3654  1.2727
  537MOL0     H74038   2.247   6.108   0.533 -0.2223  0.3431 -1.2670
  537MOL0     H74039   2.381   6.190   0.323 -1.1805  1.0624  0.6612
  537MOL0     H74040   2.431   6.076   0.453  0.3314 -0.1103  0.3981
  537MOL0     H74041   2.663   6.111   0.419  0.8703  2.8910  0.5727
  537MOL0     H74042   2.592   6.073   0.263 -1.2649 -0.3787  1.1049
  537MOL0     H74043   2.602   6.320   0.210 -3.0700  2.6927  4.2082
  537MOL0     H74044   2.670   6.352   0.362  0.4278  0.8522 -0.5561
  537MOL0     H74045   2.870   6.216   0.319 -0.5189  0.7346  0.8285
  537MOL0     H74046   2.807   6.160   0.158  2.6752 -0.5532  1.2165
  537MOL0     H74047   2.879   6.453   0.251  2.9662  0.7064  0.5239
  537MOL0     H74048   2.807   6.402   0.098  0.7159  2.8704 -0.3509
  537MOL0     H74049   3.093   6.341   0.175  0.3510  0.0115 -1.0782
  537MOL0     H74050   3.003   6.260   0.034  0.6437  2.2044 -1.9001
  537MOL0     H74051   3.020   6.554   0.069 -3.2530 -0.2393 -0.3029
  537MOL0     H74052   2.958   6.457  -0.069  1.3296 -2.1552  0.0698
  537MOL0     H74053   3.243   6.445   0.030 -0.9356  0.3756  0.4725
  537MOL0     H74054   3.172   6.344  -0.094  0.2958  0.1052 -0.5337
  537MOL0     H74055   3.085   6.716  -0.079 -0.2927  0.1555 -0.0608
  537MOL0     H74056   3.046   6.892  -0.301  0.1650  1.2690 -0.3155
  537MOL0     H74057   3.107   6.818  -0.445 -2.9809 -0.4141  0.3927
  537MOL0     H74058   3.346   6.895  -0.396 -1.2520 -0.9431 -0.7130
  537MOL0     H74059   3.238   7.035  -0.411 -2.1696  0.2017  0.7520
  537MOL0     H74060   3.196   7.014  -0.157  0.0229  0.1922 -0.1492
  537MOL0     H74061   3.342   6.907  -0.166  0.8995 -1.2426 -1.4741
  537MOL0     H74062   3.411   7.155  -0.286  0.1501  0.8921  0.5544
  537MOL0     H74063   3.295   7.201  -0.173 -0.1273 -1.0448  0.2993
  537MOL0     H74064   3.237   7.081   0.052  0.2031 -1.9572 -0.6460
  537MOL0     H74065   3.153   7.025   0.390 -0.9820 -0.7434 -0.2654
  537MOL0     H74066   3.100   7.039   0.223  1.3638 -3.5029 -0.9239
  537MOL0     H74067   3.142   7.183   0.312 -1.9360 -1.1200  0.6861
  537MOL0     H74068   3.693   7.224   0.737  2.0713 -0.3828  0.4078
  537MOL0     H74069   3.766   7.108   0.943 -1.5434 -0.6497  1.4770
  537MOL0     H74070   3.908   6.917   1.025 -0.5912 -1.3330 -1.8799
  537MOL0     H74071   3.783   6.994   1.124 -1.2024 -1.4058  0.6184
  537MOL0     H74072   3.757   6.768   1.244  0.9461 -1.4996  0.9270
  537MOL0     H74073   3.897   6.708   1.140  2.0598  1.7416 -1.3965
  537MOL0     H74074   3.980   6.752   1.341 -0.2531 -2.9345 -4.8472
  537MOL0     H74075   3.893   6.903   1.351 -0.9090 -1.6960  0.6575
  537MOL0     H74076   4.063   7.011   1.185 -1.2431  0.7970  2.0543
  537MOL0     H74077   4.111   6.841   1.143 -1.0460 -0.1761 -0.2775
  537MOL0     H74078   4.183   6.981   1.403  2.0385  0.4171  0.4748
  537MOL0     H74079   4.203   6.807   1.356  2.1951  0.0461  1.2548
  537MOL0     H74080   4.312   7.064   1.227 -0.9894 -0.3559 -0.5286
  537MOL0     H74081   4.341   6.900   1.161  2.4556  2.2198 -0.5611
  537MOL0     H74082   4.511   6.860   1.277 -3.0703 -2.2164  0.2468
  537MOL0     H74083   4.422   6.879   1.427 -4.0311  1.9760  0.5976
  537MOL0     H74084   4.616   7.029   1.399 -3.2973 -3.4512  2.3447
  537MOL0     H74085   4.467   7.129   1.405  0.0093  0.3765  0.0564
  537MOL0     H74086   3.589   6.746   0.821 -0.7854 -0.8645 -1.6768
  537MOL0     H74087   3.568   6.843   0.588  0.0773  1.7253 -1.5095
  537MOL0     H74088   3.645   7.116   0.325  0.2036  2.8739 -1.1133
  537MOL0     H74089   3.660   7.111   0.068  0.3093  2.1501 -1.0638
  537MOL0     H74090   2.433   6.466   0.680 -1.1350 -0.0578 -2.4830
  537MOL0     H74091   2.246   6.482   0.858 -1.6118  0.9765 -0.1355
  537MOL0     H74092   2.156   6.184   1.268 -0.1031 -0.8182 -1.9832
  537MOL0     H74093   2.017   6.219   1.482 -3.6900  2.4976  2.1692
  537MOL0     H74094   1.651   6.454   1.431  2.9276 -0.7761 -1.0629
  537MOL0     H74095   1.581   6.300   1.490  0.3243 -1.5503  1.8360
  537MOL0     H74096   1.733   6.489   1.668  0.4563 -0.3664 -1.6116
  537MOL0     H74097   1.669   6.337   1.715  3.6405  1.1541  0.7408
  537MOL0     H74098   1.483   6.557   1.604 -1.2941  0.4127  0.0334
  537MOL0     H74099   1.421   6.405   1.653  0.5134 -0.8529  2.3226
  537MOL0     H74100   1.546   6.619   1.827  1.0252 -0.8374 -0.0527
  537MOL0     H74101   1.487   6.469   1.895  0.7540 -0.7289 -0.6255
  537MOL0     H74102   1.106   6.670   1.828 -0.2579  1.5005 -2.8771
  537MOL0     H74103   1.691   6.341   1.230  0.6542 -0.5066  0.1160
  537MOL0     H74104   1.832   6.233   0.927 -1.6773 -0.5769 -0.9679
  537MOL0     H74105   1.695   6.308   1.014  0.8880 -0.4016  1.3640
  537MOL0     H74106   1.837   6.410   0.954  0.2105  0.9965  0.1293
  538MOL0     O74107   4.706   7.815   6.182  0.1045  0.3044 -0.1904
  538MOL0     C74108   4.774   7.759   6.266 -0.7037 -0.8677 -0.4258
  538MOL0     O74109   4.748   7.633   6.318 -0.2090  0.2332  0.5323
  538MOL0     C74110   4.640   7.567   6.259  0.0839  0.2892 -0.6416
  538MOL0     C74111   4.634   7.540   6.124 -0.0059 -1.0628 -0.0700
  538MOL0     C74112   4.516   7.493   6.066 -0.6057 -0.1239 -0.5922
  538MOL0     C74113   4.416   7.442   6.148  0.1833 -1.3108  0.8502
  538MOL0     O74114   4.295   7.381   6.109  0.2342 -0.9186  0.2436
  538MOL0     C74115   4.279   7.356   5.971  0.2141 -0.4922 -0.1405
  538MOL0     C74116   4.166   7.252   5.952  0.1979 -0.2871 -0.1485
  538MOL0     C74117   4.038   7.291   6.037 -0.6116  0.0109  0.4479
  538MOL0     C74118   3.928   7.182   6.030  0.8539 -0.4117 -0.2594
  538MOL0     C74119   3.822   7.212   6.131  0.8052 -0.9624 -1.1996
  538MOL0     C74120   3.700   7.121   6.106  0.5217 -0.3930  0.4478
  538MOL0     C74121   3.731   6.976   6.141  0.4997  0.1984  0.2400
  538MOL0     C74122   3.730   6.953   6.292 -0.3921 -0.4470  0.1845
  538MOL0     N74123   3.728   6.805   6.308  0.7114  0.1259  0.1617
  538MOL0     C74124   3.824   6.717   6.246  0.5951 -0.1834  0.4863
  538MOL0     C74125   3.767   6.595   6.269  0.9449  0.0249  0.3148
  538MOL0     C74126   3.830   6.465   6.231  0.0790 -0.8917  0.6903
  538MOL0     C74127   3.786   6.420   6.089 -1.1543  0.0954 -0.0908
  538MOL0     C74128   3.826   6.524   5.984 -0.5125  0.6393  0.1859
  538MOL0     C74129   3.980   6.542   5.964  0.2189  0.1453  0.4972
  538MOL0     O74130   4.036   6.409   5.934 -0.1124 -0.1930 -0.6668
  538MOL0     C74131   4.167   6.400   5.887 -0.9167  0.2661  0.6667
  538MOL0     C74132   4.221   6.272   5.872  0.2041 -0.0141 -0.8633
  538MOL0     C74133   4.361   6.246   5.849  0.4259  0.2837 -0.4431
  538MOL0     C74134   4.410   6.106   5.865  0.2693  0.4848  0.6269
  538MOL0     C74135   4.442   6.358   5.827  0.6605  0.4517 -0.0980
  538MOL0     C74136   4.590   6.356   5.789 -0.1158  0.2250 -0.1125
  538MOL0     O74137   4.667   6.473   5.800 -0.2503  0.6509 -0.0605
  538MOL0     C74138   4.800   6.473   5.756  0.3745 -0.1170  0.1585
  538MOL0     C74139   4.898   6.409   5.834  0.4238 -0.3116 -0.1391
  538MOL0     C74140   5.028   6.427   5.797  0.5155 -0.1057 -0.1227
  538MOL0     C74141   5.064   6.499   5.674 -0.3955  0.0188  0.5458
  538MOL0     O74142   5.200   6.518   5.646 -0.8956  0.1027 -0.2951
  538MOL0     C74143   5.241   6.561   5.518 -0.5337  0.7160  0.2680
  538MOL0     C74144   5.396   6.521   5.487  0.0868  0.0182  0.7270
  538MOL0     C74145   5.496   6.554   5.599  0.2540 -0.0121 -0.2588
  538MOL0     C74146   5.628   6.622   5.576 -0.9787  0.5827 -0.1962
  538MOL0     C74147   5.707   6.638   5.709 -0.8192  0.3123  0.4569
  538MOL0     C74148   5.846   6.693   5.678  0.6499 -0.1083  0.2402
  538MOL0     C74149   5.907   6.753   5.808 -0.6376 -0.0169 -1.1124
  538MOL0     C74150   6.059   6.792   5.779  0.5558 -0.2775  0.8283
  538MOL0    Cl74151   6.073   6.925   5.656  0.1731 -0.0309 -0.1884
  538MOL0     C74152   4.965   6.563   5.609  0.6126 -1.0439  0.3415
  538MOL0     C74153   4.827   6.558   5.652  0.1129 -0.6066 -0.1993
  538MOL0     O74154   4.635   6.251   5.738  0.1975  0.3194  0.5938
  538MOL0     C74155   4.386   6.489   5.828 -0.0597 -0.4703  0.0156
  538MOL0     C74156   4.256   6.512   5.874 -0.0297  0.1164  0.0725
  538MOL0     N74157   3.643   6.604   6.329  0.1489  0.4708  0.2334
  538MOL0     N74158   3.625   6.734   6.357  0.3412 -0.0302 -0.3968
  538MOL0     C74159   4.423   7.466   6.287  0.3136  0.6090 -0.0792
  538MOL0     C74160   4.539   7.527   6.343  0.5068 -0.0849 -1.0153
  538MOL0     C74161   4.900   7.829   6.322  0.6231 -0.4312 -0.3109
  538MOL0     C74162   4.933   7.784   6.453  0.4076  0.7911  0.0875
  538MOL0     C74163   5.051   7.823   6.519 -0.1690 -0.5343  0.1564
  538MOL0     C74164   5.128   7.926   6.456 -0.0816 -0.1331  0.8310
  538MOL0     O74165   5.238   7.967   6.528 -0.1385 -0.6379  0.2145
  538MOL0     C74166   5.316   8.066   6.473 -0.1842 -0.5633 -0.0465
  538MOL0     C74167   5.440   8.080   6.568 -0.0910  0.4174 -0.1891
  538MOL0     C74168   5.536   8.181   6.514 -0.5510 -0.0747  0.1735
  538MOL0     C74169   5.675   8.187   6.588  0.4814  1.1820  0.2320
  538MOL0     C74170   5.754   8.065   6.580  0.3867  0.0404 -0.2571
  538MOL0     C74171   5.803   7.959   6.565  0.0462 -0.5775 -0.0640
  538MOL0     C74172   5.088   7.975   6.330  0.2664  0.1149 -0.7315
  538MOL0     C74173   4.974   7.932   6.258 -0.2993  0.5513  0.3424
  538MOL0     C74174   4.936   8.001   6.141  0.5776 -0.4232  0.7997
  538MOL0     H74175   4.720   7.562   6.063  1.7666 -2.4393  1.7864
  538MOL0     H74176   4.508   7.482   5.958 -0.1672 -3.7790 -0.3795
  538MOL0     H74177   4.372   7.323   5.924  0.8472 -1.2863  1.5904
  538MOL0     H74178   4.248   7.448   5.922 -0.1909 -0.4895  0.1143
  538MOL0     H74179   4.147   7.247   5.844  0.4019  0.3265 -0.2147
  538MOL0     H74180   4.194   7.149   5.976 -3.8337 -1.6333 -0.4829
  538MOL0     H74181   4.064   7.306   6.143  0.7898 -0.0609  0.1282
  538MOL0     H74182   4.016   7.386   5.987  1.2133  0.5193  0.5505
  538MOL0     H74183   3.887   7.191   5.929 -0.6649  1.9528  0.5056
  538MOL0     H74184   3.972   7.084   6.053  2.1671  0.3486  0.5719
  538MOL0     H74185   3.789   7.316   6.124  1.3193 -0.7954 -1.2152
  538MOL0     H74186   3.870   7.206   6.229 -1.0445 -0.8622 -0.2559
  538MOL0     H74187   3.617   7.156   6.167  2.3931  0.6885  2.5167
  538MOL0     H74188   3.676   7.125   5.999 -0.4099  3.1286  0.6622
  538MOL0     H74189   3.815   6.935   6.083 -2.7991 -0.0254 -5.0845
  538MOL0     H74190   3.644   6.919   6.104 -1.0067  1.2403  2.0193
  538MOL0     H74191   3.822   6.993   6.334 -0.6848  2.1990 -1.4857
  538MOL0     H74192   3.642   7.000   6.336 -0.7281  1.2709 -2.1329
  538MOL0     H74193   3.913   6.747   6.192 -0.3453  2.5184  0.2750
  538MOL0     H74194   3.794   6.391   6.302  0.2669 -1.9315 -0.2574
  538MOL0     H74195   3.939   6.479   6.234  0.0400 -0.1813 -0.5095
  538MOL0     H74196   3.835   6.327   6.059  1.8302  1.4113  0.2454
  538MOL0     H74197   3.678   6.406   6.098 -1.1793 -0.3004 -0.9080
  538MOL0     H74198   3.793   6.481   5.889 -0.7064 -1.6379  1.2128
  538MOL0     H74199   3.779   6.620   6.009  2.6280  2.6321 -1.0272
  538MOL0     H74200   3.990   6.598   5.870 -2.0281 -1.4214 -0.7669
  538MOL0     H74201   4.030   6.597   6.045  1.0893 -0.3730  0.3296
  538MOL0     H74202   4.166   6.183   5.900  1.7940 -0.6170  0.5242
  538MOL0     H74203   4.510   6.095   5.907 -0.0899 -2.1079  0.9615
  538MOL0     H74204   4.409   6.063   5.764 -0.8952  1.4195  0.2181
  538MOL0     H74205   4.344   6.040   5.922 -0.2830 -1.2809 -1.8891
  538MOL0     H74206   4.862   6.355   5.921 -0.4398 -1.5761 -1.2353
  538MOL0     H74207   5.111   6.377   5.846  1.1864  1.1106  0.0001
  538MOL0     H74208   5.175   6.523   5.439 -0.3968 -0.3839  0.6687
  538MOL0     H74209   5.232   6.670   5.514  0.5944  1.0372  3.6505
  538MOL0     H74210   5.404   6.415   5.463  0.1581  0.4612 -1.5095
  538MOL0     H74211   5.422   6.577   5.396  0.0901 -0.2625  0.5537
  538MOL0     H74212   5.517   6.465   5.660 -1.8656 -0.5566 -0.2495
  538MOL0     H74213   5.445   6.622   5.668 -0.1301 -2.7282  2.3735
  538MOL0     H74214   5.616   6.721   5.530  3.2313  0.5916 -1.6098
  538MOL0     H74215   5.692   6.560   5.514 -2.3575  0.2899 -1.3800
  538MOL0     H74216   5.643   6.705   5.768 -1.5589  0.6057 -0.6580
  538MOL0     H74217   5.720   6.537   5.750 -1.5818 -0.4073 -1.0199
  538MOL0     H74218   5.846   6.776   5.607 -0.1179 -0.7229 -0.4855
  538MOL0     H74219   5.907   6.614   5.635  0.4142  0.3308 -0.9476
  538MOL0     H74220   5.916   6.680   5.889  0.3094  0.4418 -0.7886
  538MOL0     H74221   5.854   6.846   5.830  0.3358  0.3511 -0.2324
  538MOL0     H74222   6.119   6.705   5.749  0.7098  0.2731 -0.5419
  538MOL0     H74223   6.094   6.823   5.878 -3.9152  0.3554  2.4422
  538MOL0     H74224   4.980   6.635   5.529 -3.0227 -0.6861 -0.1879
  538MOL0     H74225   4.745   6.616   5.609 -1.0450 -0.5027  1.9842
  538MOL0     H74226   4.449   6.575   5.807 -2.1110  1.5564  1.6821
  538MOL0     H74227   4.230   6.614   5.900  1.5865  0.9409 -1.3897
  538MOL0     H74228   4.343   7.430   6.350  1.3452 -2.0031 -0.1104
  538MOL0     H74229   4.544   7.535   6.452 -1.8226 -1.2063 -0.7747
  538MOL0     H74230   4.874   7.707   6.501  0.7779 -1.0732 -2.3075
  538MOL0     H74231   5.080   7.777   6.613  0.1273 -2.7862 -0.9667
  538MOL0     H74232   5.334   8.055   6.366 -0.1257 -1.2928  0.0381
  538MOL0     H74233   5.257   8.157   6.489  2.2243  1.2096 -0.6066
  538MOL0     H74234   5.491   7.985   6.587  0.1612  0.1759 -1.8468
  538MOL0     H74235   5.405   8.126   6.660  0.7326  0.7442 -0.0253
  538MOL0     H74236   5.568   8.163   6.411 -0.4996  1.2436 -0.0525
  538MOL0     H74237   5.490   8.280   6.522  0.3079  0.2710  1.1070
  538MOL0     H74238   5.648   8.212   6.691  0.8667 -0.9777  0.8910
  538MOL0     H74239   5.741   8.263   6.543 -0.4157  1.0751 -1.3361
  538MOL0     H74240   5.852   7.865   6.545  1.9873  0.3829 -0.1275
  538MOL0     H74241   5.131   8.067   6.292  2.6200 -0.2026  0.9855
  538MOL0     H74242   4.893   7.941   6.060 -0.1187  3.7633 -2.2306
  538MOL0     H74243   4.861   8.078   6.163 -0.0364 -0.6409 -0.4104
  538MOL0     H74244   5.025   8.040   6.091  0.6363 -1.4194  0.0955
  539MOL0     O74245   1.251   7.833   9.867 -0.3557 -0.1184  0.4704
  539MOL0     C74246   1.255   7.926   9.788 -0.8619 -0.6381 -0.7197
  539MOL0     O74247   1.363   7.961   9.709 -0.0933  0.4459 -0.8159
  539MOL0     C74248   1.452   7.863   9.678 -0.4355  0.0344  0.1483
  539MOL0     C74249   1.590   7.911   9.670 -0.9683 -0.5431 -0.5365
  539MOL0     C74250   1.692   7.821   9.626  0.0106  0.2894  0.8118
  539MOL0     C74251   1.659   7.696   9.582 -0.4276 -0.5502  0.5396
  539MOL0     O74252   1.748   7.613   9.521  0.8696  0.1479  0.8042
  539MOL0     C74253   1.851   7.678   9.455 -0.1898 -0.2227  0.3356
  539MOL0     C74254   1.940   7.578   9.370 -0.0286  0.0730 -0.3211
  539MOL0     C74255   2.000   7.452   9.458 -0.2425  0.7725 -0.2199
  539MOL0     C74256   2.111   7.378   9.380 -0.4803  0.0890 -1.2454
  539MOL0     C74257   2.065   7.289   9.268  1.1830 -0.1565  0.3447
  539MOL0     C74258   2.190   7.258   9.185  0.5865 -0.9577  0.0762
  539MOL0     C74259   2.149   7.157   9.073 -0.0485 -0.8661 -0.6050
  539MOL0     C74260   2.260   7.106   8.977 -0.6035 -0.2670  0.2949
  539MOL0     N74261   2.391   7.071   9.043  0.6528 -0.5841  0.1794
  539MOL0     C74262   2.436   6.944   9.076  0.8596  0.5647  1.5374
  539MOL0     C74263   2.569   6.951   9.085  0.0506  0.6460  0.1549
  539MOL0     C74264   2.655   6.833   9.117 -0.1000  0.1471 -0.8247
  539MOL0     C74265   2.808   6.827   9.072  0.0448  0.6930  0.7898
  539MOL0     C74266   2.894   6.766   9.183 -0.3648  0.2899  1.6404
  539MOL0     C74267   3.040   6.752   9.139  0.1420  0.0863  0.5191
  539MOL0     O74268   3.044   6.659   9.025 -0.0726  0.3784 -0.3115
  539MOL0     C74269   3.171   6.656   8.970 -0.1541  0.8200 -0.8774
  539MOL0     C74270   3.185   6.605   8.843  0.4021 -0.2589 -0.5847
  539MOL0     C74271   3.307   6.580   8.778  0.0042  0.3191 -0.0323
  539MOL0     C74272   3.318   6.509   8.634  0.6460 -0.2129  0.0217
  539MOL0     C74273   3.426   6.620   8.844  0.0831  0.6380 -0.1094
  539MOL0     C74274   3.564   6.596   8.794  0.4521  0.7032  0.6077
  539MOL0     O74275   3.654   6.698   8.803  0.7485 -0.7452 -0.4085
  539MOL0     C74276   3.789   6.670   8.786  1.2078  0.6750  0.2620
  539MOL0     C74277   3.842   6.620   8.670  0.0486 -0.0570 -0.1749
  539MOL0     C74278   3.980   6.603   8.665 -0.2920  0.1822  0.7758
  539MOL0     C74279   4.062   6.621   8.779 -0.2486 -0.6219 -0.6775
  539MOL0     O74280   4.195   6.595   8.767  0.3755 -0.5315 -0.4648
  539MOL0     C74281   4.263   6.546   8.880  0.6591 -0.0037  0.2841
  539MOL0     C74282   4.403   6.467   8.857 -0.6739 -0.1408  0.2309
  539MOL0     C74283   4.370   6.352   8.757 -1.0187 -0.3736 -0.0682
  539MOL0     C74284   4.310   6.222   8.826  0.1604  0.8455 -0.2898
  539MOL0     C74285   4.407   6.106   8.826  0.3470 -0.2410 -0.7482
  539MOL0     C74286   4.347   5.976   8.898 -1.0388 -0.2371 -0.4009
  539MOL0     C74287   4.455   5.864   8.904 -0.4216 -0.8885  0.1595
  539MOL0     C74288   4.537   5.876   9.035  1.3016  0.1999  0.5647
  539MOL0    Cl74289   4.703   5.790   9.048  0.1845 -0.1889  0.2505
  539MOL0     C74290   4.002   6.686   8.888  0.1094  1.0623  0.0831
  539MOL0     C74291   3.872   6.705   8.889 -0.1863 -0.2283 -0.6621
  539MOL0     O74292   3.595   6.483   8.757 -0.1095 -0.6201 -0.5104
  539MOL0     C74293   3.417   6.688   8.970  0.5969 -0.5623 -0.1496
  539MOL0     C74294   3.291   6.700   9.029  0.1849  0.4711 -0.6031
  539MOL0     N74295   2.600   7.081   9.054 -0.1252  0.2277 -0.3483
  539MOL0     N74296   2.500   7.151   9.042  0.3857  0.2372 -0.6561
  539MOL0     C74297   1.524   7.652   9.579 -0.5531  0.3439 -0.8783
  539MOL0     C74298   1.419   7.732   9.630 -0.5622  0.0289  0.0888
  539MOL0     C74299   1.139   8.017   9.769  0.5676  0.2799 -0.0720
  539MOL0     C74300   1.013   7.993   9.840  0.2027 -0.3577 -0.2621
  539MOL0     C74301   0.906   8.088   9.826 -0.8351  0.5820  0.3303
  539MOL0     C74302   0.914   8.193   9.733 -0.2450 -0.0164 -0.0237
  539MOL0     O74303   0.800   8.277   9.727  0.1570  0.1037 -0.2334
  539MOL0     C74304   0.795   8.374   9.623  0.0641  0.2520  0.1386
  539MOL0     C74305   0.662   8.442   9.620  0.5477 -0.4484  0.4557
  539MOL0     C74306   0.657   8.526   9.749 -0.3247  0.2114 -0.3955
  539MOL0     C74307   0.532   8.618   9.762 -0.1878  0.2313  0.0124
  539MOL0     C74308   0.513   8.686   9.893  0.4871 -0.0321  0.1534
  539MOL0     C74309   0.506   8.730  10.011 -0.2214  0.4900  0.7265
  539MOL0     C74310   1.031   8.209   9.661 -0.1263  0.1434  0.4728
  539MOL0     C74311   1.142   8.125   9.682 -0.5235  0.2594  0.4850
  539MOL0     C74312   1.265   8.176   9.601  0.1621 -0.1332  0.5073
  539MOL0     H74313   1.613   8.012   9.704 -1.0295  0.0305 -2.1081
  539MOL0     H74314   1.789   7.863   9.605  0.1133 -0.1599  0.3668
  539MOL0     H74315   1.919   7.716   9.532  0.3838  1.0320 -0.7680
  539MOL0     H74316   1.819   7.762   9.392  0.2781  0.2517  0.7207
  539MOL0     H74317   1.879   7.546   9.285 -1.7913  0.1437  0.8778
  539MOL0     H74318   2.020   7.638   9.324  0.9804 -1.4407 -0.6231
  539MOL0     H74319   2.030   7.493   9.554  0.2174  2.5513 -1.0756
  539MOL0     H74320   1.917   7.384   9.479 -3.2604  4.7346  2.0401
  539MOL0     H74321   2.184   7.447   9.338 -0.0195 -0.2026 -0.9350
  539MOL0     H74322   2.169   7.316   9.449 -1.8321 -2.1437 -2.0232
  539MOL0     H74323   1.986   7.337   9.209  1.3000  0.9769  1.0915
  539MOL0     H74324   2.029   7.192   9.302 -1.0359  1.1835  2.0308
  539MOL0     H74325   2.235   7.344   9.135  0.2589 -0.1432  1.1455
  539MOL0     H74326   2.274   7.218   9.243  2.0532 -0.0593 -1.3569
  539MOL0     H74327   2.080   7.207   9.004 -0.0312 -1.1530 -0.8305
  539MOL0     H74328   2.093   7.077   9.121  1.8571 -1.3170  0.9572
  539MOL0     H74329   2.219   7.025   8.915  2.6153 -1.7034 -0.1884
  539MOL0     H74330   2.276   7.185   8.903  1.2780 -1.1128 -0.2754
  539MOL0     H74331   2.374   6.855   9.073 -0.8873  1.6466 -3.0036
  539MOL0     H74332   2.607   6.744   9.074 -4.8553  1.6535  0.7068
  539MOL0     H74333   2.653   6.811   9.224  2.0763 -0.1828 -0.8144
  539MOL0     H74334   2.805   6.764   8.982  0.3879 -1.3888  2.1691
  539MOL0     H74335   2.827   6.933   9.049 -4.1024  0.7320 -4.5370
  539MOL0     H74336   2.892   6.834   9.269 -3.9355  0.2985  1.6986
  539MOL0     H74337   2.858   6.664   9.198  0.7310 -0.3768  0.0391
  539MOL0     H74338   3.069   6.853   9.110  0.6386  0.6467  2.7675
  539MOL0     H74339   3.106   6.724   9.222 -0.3077  0.5627  1.0470
  539MOL0     H74340   3.100   6.590   8.777  2.1844  0.5737 -3.2015
  539MOL0     H74341   3.236   6.539   8.568  0.2682  0.2120  0.6676
  539MOL0     H74342   3.337   6.402   8.641 -0.9924 -0.4595  1.7673
  539MOL0     H74343   3.405   6.538   8.575  0.1682 -1.9090 -1.5819
  539MOL0     H74344   3.773   6.581   8.596 -0.9113  0.0296  0.6521
  539MOL0     H74345   4.028   6.571   8.573 -0.5073  4.0659 -0.8847
  539MOL0     H74346   4.280   6.617   8.962  3.2625  1.4315 -1.3813
  539MOL0     H74347   4.195   6.469   8.921  1.0754 -0.9173 -0.6974
  539MOL0     H74348   4.460   6.530   8.788 -3.1134  1.9684 -0.0086
  539MOL0     H74349   4.464   6.428   8.939  0.3414 -2.2743 -1.4481
  539MOL0     H74350   4.459   6.332   8.696 -2.0703  0.5378 -1.9847
  539MOL0     H74351   4.298   6.389   8.684 -0.4459 -1.3400 -1.1777
  539MOL0     H74352   4.226   6.200   8.759  3.2036  0.3861 -4.3911
  539MOL0     H74353   4.271   6.235   8.927 -0.1897 -2.2129  0.0345
  539MOL0     H74354   4.437   6.081   8.723  1.0059  1.4052 -0.9808
  539MOL0     H74355   4.497   6.137   8.879  1.0136 -3.1708  0.0222
  539MOL0     H74356   4.262   5.947   8.836  0.0692 -1.2122 -1.5246
  539MOL0     H74357   4.307   6.004   8.996 -0.1837  0.2342 -0.1825
  539MOL0     H74358   4.518   5.868   8.815  2.0691  2.7923  1.8055
  539MOL0     H74359   4.409   5.766   8.912 -0.3732 -1.0153 -0.9936
  539MOL0     H74360   4.471   5.847   9.117 -0.4376  1.1271 -0.4720
  539MOL0     H74361   4.556   5.982   9.053 -2.1400  0.7179  1.8172
  539MOL0     H74362   4.070   6.722   8.964  1.4128  0.9694 -0.9998
  539MOL0     H74363   3.836   6.733   8.987 -0.2123  1.4717 -1.1188
  539MOL0     H74364   3.505   6.720   9.024  1.5866 -2.9056 -0.2345
  539MOL0     H74365   3.286   6.741   9.129 -1.4756 -0.7495 -0.1464
  539MOL0     H74366   1.497   7.560   9.528  0.0113 -1.0047  1.1146
  539MOL0     H74367   1.317   7.697   9.643  0.1603 -1.4811  2.4398
  539MOL0     H74368   1.015   7.907   9.906 -0.0096  0.9670  1.5516
  539MOL0     H74369   0.816   8.064   9.882  0.3035 -3.4113  0.7182
  539MOL0     H74370   0.881   8.441   9.630 -1.2516  2.0350 -0.3090
  539MOL0     H74371   0.815   8.326   9.527 -0.4795  0.4087 -0.0568
  539MOL0     H74372   0.572   8.382   9.604 -2.2483  3.5624 -0.6067
  539MOL0     H74373   0.659   8.511   9.535  2.5577  0.1222  0.8129
  539MOL0     H74374   0.660   8.464   9.839  1.5930  0.8392  0.0214
  539MOL0     H74375   0.746   8.589   9.759  1.8649 -2.6549 -0.6878
  539MOL0     H74376   0.446   8.555   9.737 -0.0682 -0.1508  0.5393
  539MOL0     H74377   0.537   8.695   9.685 -0.2788 -0.1862 -0.4225
  539MOL0     H74378   0.507   8.770  10.110  0.3238  0.1869  0.8523
  539MOL0     H74379   1.051   8.289   9.590 -0.0871  0.1206  0.4574
  539MOL0     H74380   1.233   8.253   9.531  0.5559  0.6037  1.1341
  539MOL0     H74381   1.346   8.210   9.666  0.6365 -0.0318 -0.1240
  539MOL0     H74382   1.306   8.098   9.536  1.9123  1.9491 -0.9988
  540MOL0     O74383   6.783   1.120   9.855  0.7092 -0.1097  0.2576
  540MOL0     C74384   6.798   1.236   9.801 -0.1648  0.7077 -0.6592
  540MOL0     O74385   6.919   1.296   9.781 -0.1545 -0.2116  0.2736
  540MOL0     C74386   7.036   1.255   9.839 -0.1687  0.0277  0.3644
  540MOL0     C74387   7.042   1.206   9.970 -0.3139 -0.4105 -0.4372
  540MOL0     C74388   7.169   1.181  10.027  0.0742  0.9564  0.4395
  540MOL0     C74389   7.284   1.209   9.948 -0.4917 -0.3362 -0.8304
  540MOL0     O74390   7.405   1.173   9.995  0.9355  0.1740 -0.1235
  540MOL0     C74391   7.517   1.256   9.989  0.4190 -0.2447 -0.7626
  540MOL0     C74392   7.639   1.209  10.065 -0.0250  0.0237 -0.3579
  540MOL0     C74393   7.756   1.304  10.060 -0.7425  0.4631 -0.0832
  540MOL0     C74394   7.859   1.252  10.157 -0.2493 -0.4929 -1.0894
  540MOL0     C74395   7.996   1.278  10.097  0.7665 -0.2454  0.5304
  540MOL0     C74396   8.109   1.233  10.189 -0.3876  0.7756 -0.3365
  540MOL0     C74397   8.120   1.083  10.204  0.0891  0.3374  0.8292
  540MOL0     C74398   8.165   1.041  10.346 -0.0275  0.6159 -1.6214
  540MOL0     N74399   8.308   1.059  10.363  0.0725 -0.1982 -0.0910
  540MOL0     C74400   8.406   0.985  10.302  0.3785  0.8915 -0.4806
  540MOL0     C74401   8.529   1.045  10.325  0.4365  0.6507 -0.8868
  540MOL0     C74402   8.650   0.995  10.256 -0.3553 -0.6996 -0.0018
  540MOL0     C74403   8.711   1.106  10.174  0.6561 -0.0668 -0.3854
  540MOL0     C74404   8.618   1.131  10.054 -0.1724 -0.1793 -0.1007
  540MOL0     C74405   8.588   1.012   9.967 -0.5354 -0.2480 -0.6524
  540MOL0     O74406   8.697   0.927   9.965  0.0948  0.5621  0.2459
  540MOL0     C74407   8.729   0.859   9.844  0.0003 -0.2813  0.6573
  540MOL0     C74408   8.667   0.882   9.719  1.2637 -0.2293  0.0150
  540MOL0     C74409   8.692   0.803   9.611 -0.4644  1.0699 -0.1143
  540MOL0     C74410   8.626   0.843   9.484 -0.5135  0.2830 -0.1579
  540MOL0     C74411   8.787   0.693   9.619 -0.6001 -0.2845  0.2943
  540MOL0     C74412   8.834   0.615   9.502  1.0937 -0.5156 -0.6615
  540MOL0     O74413   8.917   0.511   9.525 -0.3204  0.0238  0.4472
  540MOL0     C74414   8.967   0.441   9.414  0.0859  0.0502  0.4808
  540MOL0     C74415   8.905   0.422   9.293 -0.0422 -0.4731 -0.3142
  540MOL0     C74416   8.978   0.369   9.182  0.1207  0.4662  0.1204
  540MOL0     C74417   9.095   0.295   9.203  0.6736 -0.0877 -0.2952
  540MOL0     O74418   9.142   0.205   9.107 -0.7431 -0.2394  0.6231
  540MOL0     C74419   9.060   0.172   8.997  0.6506  0.5401  0.5521
  540MOL0     C74420   9.120   0.050   8.913 -0.0255 -0.3948  0.6917
  540MOL0     C74421   9.253   0.091   8.848  0.9167 -0.7924  0.0908
  540MOL0     C74422   9.239   0.219   8.750  0.0837 -0.4906 -0.7971
  540MOL0     C74423   9.360   0.240   8.655 -0.8335 -0.3392 -0.5257
  540MOL0     C74424   9.481   0.299   8.728 -0.4073  0.6201  0.0835
  540MOL0     C74425   9.598   0.346   8.631  1.0207  0.3194 -0.3229
  540MOL0     C74426   9.717   0.402   8.717  0.5028  0.3329 -0.2792
  540MOL0    Cl74427   9.667   0.517   8.851 -0.0456 -0.1549  0.4299
  540MOL0     C74428   9.148   0.296   9.327 -0.5364  0.4772 -0.4719
  540MOL0     C74429   9.090   0.371   9.430 -0.3219 -0.4922  0.0692
  540MOL0     O74430   8.809   0.665   9.391 -0.6811  0.0747  0.0682
  540MOL0     C74431   8.837   0.670   9.746  0.5141  0.9673  0.3679
  540MOL0     C74432   8.807   0.749   9.858 -0.3442  0.4144  0.3713
  540MOL0     N74433   8.508   1.155  10.410  0.5563 -0.5018  0.1128
  540MOL0     N74434   8.379   1.159  10.434  0.1297  0.3195  0.4346
  540MOL0     C74435   7.275   1.251   9.814  0.0393 -0.6773 -0.4592
  540MOL0     C74436   7.149   1.277   9.752  0.3130 -0.6064  0.0063
  540MOL0     C74437   6.674   1.299   9.741 -0.9502  0.1943 -0.0529
  540MOL0     C74438   6.552   1.225   9.758 -0.0624  0.2747  0.7672
  540MOL0     C74439   6.431   1.268   9.689 -0.3466  0.0620 -0.1639
  540MOL0     C74440   6.429   1.385   9.609  0.0146  0.5497 -0.0945
  540MOL0     O74441   6.322   1.442   9.534  0.5671  0.3831 -0.2316
  540MOL0     C74442   6.191   1.379   9.531  0.4912 -0.2869 -0.2083
  540MOL0     C74443   6.113   1.412   9.662 -0.6117  0.4273  0.0964
  540MOL0     C74444   6.102   1.563   9.698  0.3483  0.6688 -0.3439
  540MOL0     C74445   6.059   1.580   9.849  0.1844  0.1447 -0.7784
  540MOL0     C74446   5.924   1.538   9.866 -0.0960  0.2146  0.5006
  540MOL0     C74447   5.802   1.506   9.863 -0.1961 -0.2670  0.4428
  540MOL0     C74448   6.554   1.449   9.584 -0.4412 -0.1358  0.1414
  540MOL0     C74449   6.676   1.410   9.645  0.2752  0.3688  0.5848
  540MOL0     C74450   6.798   1.492   9.614  0.2734  0.2814 -0.0009
  540MOL0     H74451   6.960   1.192  10.040 -0.0288 -1.0407 -0.2278
  540MOL0     H74452   7.168   1.137  10.126  0.2447  0.7681  0.3569
  540MOL0     H74453   7.479   1.348  10.035  0.0356 -0.3856 -0.7996
  540MOL0     H74454   7.543   1.280   9.885 -1.2255  0.6360 -1.0116
  540MOL0     H74455   7.609   1.198  10.169 -0.0091  4.3654  0.2782
  540MOL0     H74456   7.681   1.116  10.025  2.7506  0.4597  1.3421
  540MOL0     H74457   7.807   1.317   9.964  0.0164  1.8598  0.4682
  540MOL0     H74458   7.740   1.409  10.089  2.4524  1.1832 -0.4883
  540MOL0     H74459   7.857   1.308  10.251  3.9868  0.5866 -1.4458
  540MOL0     H74460   7.853   1.145  10.178 -0.7996 -0.2547  0.0831
  540MOL0     H74461   8.003   1.385  10.080 -1.3264  0.2625  2.4232
  540MOL0     H74462   8.008   1.221  10.004 -1.7219  2.9530 -1.9591
  540MOL0     H74463   8.203   1.267  10.144  0.4803 -0.7853  0.2253
  540MOL0     H74464   8.109   1.285  10.285 -3.1714 -1.4511  0.9990
  540MOL0     H74465   8.194   1.038  10.137 -0.2769  0.3466  0.4145
  540MOL0     H74466   8.025   1.030  10.193 -0.8518  2.4656 -3.6388
  540MOL0     H74467   8.110   1.101  10.418 -0.0011  0.5168 -1.5194
  540MOL0     H74468   8.134   0.938  10.366  3.3341 -0.0232  1.3653
  540MOL0     H74469   8.395   0.899  10.237 -0.8585 -0.5884  1.5564
  540MOL0     H74470   8.631   0.904  10.199  0.2075  0.0355 -1.4149
  540MOL0     H74471   8.723   0.968  10.333 -1.4480  1.3210  1.8661
  540MOL0     H74472   8.719   1.200  10.229  0.1954  0.5622 -1.3730
  540MOL0     H74473   8.814   1.086  10.142  0.3665 -0.9789 -0.7630
  540MOL0     H74474   8.525   1.177  10.087  0.9597  2.2947 -0.1922
  540MOL0     H74475   8.671   1.198   9.985 -1.1285  1.1445  0.4196
  540MOL0     H74476   8.502   0.958  10.008  0.8271 -0.2864  2.3938
  540MOL0     H74477   8.550   1.053   9.873  1.0326  2.8191 -0.0826
  540MOL0     H74478   8.596   0.964   9.712  2.8319  1.3109  1.2155
  540MOL0     H74479   8.698   0.903   9.427 -0.0764  2.1939  2.2247
  540MOL0     H74480   8.546   0.917   9.489 -1.6590 -0.5246 -3.5981
  540MOL0     H74481   8.588   0.753   9.434 -2.1393  0.8151  0.0645
  540MOL0     H74482   8.802   0.453   9.280  0.6728  0.8264 -5.2853
  540MOL0     H74483   8.919   0.367   9.091  1.9659  1.2271 -1.1531
  540MOL0     H74484   8.958   0.140   9.022  0.1628 -2.2581 -4.0075
  540MOL0     H74485   9.045   0.258   8.931  0.3225 -0.2573 -0.4246
  540MOL0     H74486   9.118  -0.033   8.984  1.5766  0.8624  2.3072
  540MOL0     H74487   9.049   0.039   8.831  0.1852  0.3582  0.3927
  540MOL0     H74488   9.270   0.001   8.789 -1.4242 -0.8301 -0.6196
  540MOL0     H74489   9.331   0.110   8.922  0.8301  1.3307 -0.2782
  540MOL0     H74490   9.225   0.307   8.814  2.2695 -1.3189  0.9395
  540MOL0     H74491   9.152   0.212   8.684 -2.2553  2.7571  1.5697
  540MOL0     H74492   9.392   0.142   8.618 -1.5459 -0.0328 -2.0097
  540MOL0     H74493   9.340   0.302   8.568  2.2355 -1.0907 -1.8826
  540MOL0     H74494   9.525   0.215   8.783  3.4085  1.9069 -0.6619
  540MOL0     H74495   9.438   0.378   8.790 -1.2424  0.0590  0.2232
  540MOL0     H74496   9.559   0.435   8.580 -1.9480 -1.6072 -1.6399
  540MOL0     H74497   9.625   0.260   8.570 -1.2645 -0.1165 -0.7826
  540MOL0     H74498   9.795   0.458   8.665  1.6858  0.4584  1.5360
  540MOL0     H74499   9.766   0.316   8.766  2.7852  1.6862 -0.0522
  540MOL0     H74500   9.233   0.233   9.352 -0.0822  1.5766  0.9005
  540MOL0     H74501   9.124   0.373   9.533 -1.7124 -0.8417  0.5585
  540MOL0     H74502   8.901   0.583   9.763  0.6982  0.7131 -1.4912
  540MOL0     H74503   8.857   0.722   9.950 -0.5345  0.7164  0.5664
  540MOL0     H74504   7.371   1.261   9.764  0.0039  0.9749 -0.2778
  540MOL0     H74505   7.136   1.308   9.649 -0.4087 -1.5197 -0.1879
  540MOL0     H74506   6.552   1.139   9.824  2.5576  0.7083  1.4379
  540MOL0     H74507   6.341   1.212   9.711 -0.4782  0.1842 -0.3853
  540MOL0     H74508   6.140   1.420   9.443  1.2914  1.2697  0.0155
  540MOL0     H74509   6.182   1.272   9.513 -2.8953  0.2284 -2.3655
  540MOL0     H74510   6.169   1.376   9.748 -0.4867  2.0236  0.7144
  540MOL0     H74511   6.010   1.376   9.656 -1.2954  1.9658  1.7009
  540MOL0     H74512   6.191   1.623   9.676 -0.1624  0.8118 -2.2033
  540MOL0     H74513   6.022   1.599   9.632 -0.2876 -0.2006 -0.0602
  540MOL0     H74514   6.049   1.689   9.858 -3.1050  0.1544 -2.6980
  540MOL0     H74515   6.131   1.536   9.918 -0.5543  1.6401  1.0361
  540MOL0     H74516   5.706   1.459   9.866 -1.2950  1.8762  2.9820
  540MOL0     H74517   6.558   1.532   9.515  1.4496  0.7357  1.2374
  540MOL0     H74518   6.762   1.563   9.540  0.2410 -0.6286 -0.8872
  540MOL0     H74519   6.841   1.536   9.704 -0.7230 -0.6009  0.9305
  540MOL0     H74520   6.872   1.426   9.567 -0.3664  0.7837 -1.7989
  541MOL0     O74521   7.456   2.683   3.264 -1.2811 -0.5097  0.0721
  541MOL0     C74522   7.471   2.782   3.334 -0.5810 -0.8560  0.4673
  541MOL0     O74523   7.575   2.799   3.419 -0.2963 -0.3252  0.0027
  541MOL0     C74524   7.665   2.699   3.412 -0.2124  0.3020 -0.3085
  541MOL0     C74525   7.780   2.709   3.331 -0.7402 -0.3513  0.8851
  541MOL0     C74526   7.877   2.612   3.350  0.1179  0.4778 -0.1794
  541MOL0     C74527   7.864   2.500   3.439 -0.9521 -0.0854  0.7579
  541MOL0     O74528   7.961   2.403   3.442 -0.3972 -0.6407 -0.3532
  541MOL0     C74529   7.925   2.274   3.492  0.5503  0.1582 -0.1605
  541MOL0     C74530   8.032   2.183   3.461 -0.1221  0.3477 -1.3484
  541MOL0     C74531   8.006   2.033   3.499  0.0469 -0.2263 -0.7559
  541MOL0     C74532   8.109   1.931   3.438 -0.1214  0.2137  0.6909
  541MOL0     C74533   8.102   1.794   3.499  0.0721  0.2996  0.4051
  541MOL0     C74534   8.185   1.704   3.417  0.5081  0.7534 -0.7982
  541MOL0     C74535   8.172   1.561   3.487 -0.7905 -0.5074  0.0410
  541MOL0     C74536   8.239   1.459   3.394 -0.7593  0.9433  0.8284
  541MOL0     N74537   8.380   1.451   3.406 -1.2071  0.7341  0.4091
  541MOL0     C74538   8.465   1.365   3.474  0.7374  0.6468 -0.5275
  541MOL0     C74539   8.584   1.392   3.418 -0.0128 -0.3115  0.1115
  541MOL0     C74540   8.712   1.322   3.444  0.2529  0.4759  0.2230
  541MOL0     C74541   8.760   1.342   3.582  0.0713 -1.1520  0.2368
  541MOL0     C74542   8.792   1.208   3.663 -0.2684 -0.0812  0.7375
  541MOL0     C74543   8.922   1.143   3.623 -0.1485 -0.2763  0.0762
  541MOL0     O74544   8.946   1.015   3.676 -0.8865 -0.1853  0.4169
  541MOL0     C74545   9.008   0.996   3.795  0.1136 -0.2935  0.0203
  541MOL0     C74546   9.030   0.862   3.837 -0.0144  0.1530  0.2311
  541MOL0     C74547   9.100   0.836   3.961 -0.1142  0.3076 -0.0277
  541MOL0     C74548   9.096   0.694   4.008 -0.3102 -0.4197 -0.3365
  541MOL0     C74549   9.166   0.940   4.032 -0.4150  1.1033  0.3765
  541MOL0     C74550   9.253   0.931   4.154  0.2584  0.4926  0.3502
  541MOL0     O74551   9.340   1.030   4.188  0.0941 -0.3158 -0.3369
  541MOL0     C74552   9.392   1.040   4.309  0.0799  0.0445 -0.0134
  541MOL0     C74553   9.506   1.132   4.317  0.2182  0.4854 -0.2672
  541MOL0     C74554   9.568   1.155   4.440 -0.9251  0.9796  0.2375
  541MOL0     C74555   9.531   1.084   4.559  0.0489 -0.5535  0.0866
  541MOL0     O74556   9.598   1.091   4.681 -0.1157 -0.8061 -0.1695
  541MOL0     C74557   9.739   1.122   4.665  0.0219  0.5701 -0.5209
  541MOL0     C74558   9.809   1.136   4.803  0.1529  0.5149 -0.1500
  541MOL0     C74559   9.960   1.162   4.792 -0.6013 -0.1083  0.7782
  541MOL0     C74560  10.050   1.167   4.918  0.0974  0.2490  0.0101
  541MOL0     C74561  10.199   1.165   4.888 -0.0107  0.8200  0.3000
  541MOL0     C74562  10.268   1.116   5.017  0.5241 -0.9167  0.2582
  541MOL0     C74563  10.421   1.157   5.019  1.1173 -0.0760 -0.1534
  541MOL0     C74564  10.432   1.308   5.033 -0.1007 -0.1072  0.3774
  541MOL0    Cl74565  10.606   1.342   5.037  0.3210 -0.2220  0.3057
  541MOL0     C74566   9.425   0.998   4.549 -0.0475 -0.0437  0.1304
  541MOL0     C74567   9.354   0.970   4.427 -0.4836  0.4436  0.3420
  541MOL0     O74568   9.246   0.821   4.211  0.3440 -0.4002 -0.9128
  541MOL0     C74569   9.141   1.074   3.984  0.1994 -0.1568  0.0924
  541MOL0     C74570   9.062   1.099   3.871  0.3971 -0.1866 -0.0814
  541MOL0     N74571   8.580   1.502   3.334 -0.2545  0.0027  0.7040
  541MOL0     N74572   8.458   1.535   3.327 -0.1324 -0.7437 -0.4233
  541MOL0     C74573   7.742   2.489   3.501 -0.1901  0.1216  0.2955
  541MOL0     C74574   7.650   2.588   3.494 -0.0241  1.3674 -0.6506
  541MOL0     C74575   7.356   2.865   3.338  0.2982 -0.7329 -0.5303
  541MOL0     C74576   7.223   2.826   3.327 -0.1065 -0.0603  0.8375
  541MOL0     C74577   7.116   2.910   3.331 -0.1639 -0.3396 -0.1093
  541MOL0     C74578   7.139   3.045   3.342  0.8715  0.0668 -0.4813
  541MOL0     O74579   7.040   3.138   3.368  0.0117  0.4833 -0.0390
  541MOL0     C74580   6.921   3.103   3.441  0.2599 -0.6541 -0.5136
  541MOL0     C74581   6.800   3.099   3.350  0.1188 -0.0340  0.3690
  541MOL0     C74582   6.765   3.242   3.289 -0.5751  0.8599  0.4151
  541MOL0     C74583   6.657   3.220   3.179  0.9511 -0.3692 -0.2473
  541MOL0     C74584   6.521   3.202   3.236  0.8615  0.2891 -0.2696
  541MOL0     C74585   6.412   3.173   3.287 -0.2296 -1.0306 -0.1777
  541MOL0     C74586   7.267   3.090   3.342 -0.3288  0.5307  0.1538
  541MOL0     C74587   7.375   3.006   3.336 -0.5116  0.6030 -0.5023
  541MOL0     C74588   7.511   3.078   3.336 -0.0693  0.1222  0.0731
  541MOL0     H74589   7.799   2.786   3.257  1.5466 -0.3233  1.4192
  541MOL0     H74590   7.966   2.613   3.287  0.8603 -2.0074  0.7073
  541MOL0     H74591   7.845   2.233   3.431  0.5609 -1.9956  1.1850
  541MOL0     H74592   7.896   2.278   3.597 -2.0251 -1.1981 -0.7630
  541MOL0     H74593   8.048   2.187   3.353 -2.6514 -0.2316 -1.8100
  541MOL0     H74594   8.118   2.204   3.526 -0.8535  0.6014 -0.4446
  541MOL0     H74595   8.021   2.028   3.607  0.1615  0.0901 -0.7580
  541MOL0     H74596   7.902   2.013   3.472 -0.9164  1.4351  1.4107
  541MOL0     H74597   8.080   1.917   3.334 -2.5402  0.1079  1.3136
  541MOL0     H74598   8.214   1.959   3.440  0.4089 -1.5650 -0.1179
  541MOL0     H74599   7.997   1.763   3.494  0.3493 -0.5574 -0.1260
  541MOL0     H74600   8.138   1.807   3.602  0.2054 -0.4015  0.4525
  541MOL0     H74601   8.149   1.707   3.314 -1.1550  0.3467 -0.2684
  541MOL0     H74602   8.289   1.736   3.413  0.6302  0.3521 -0.8889
  541MOL0     H74603   8.069   1.537   3.516 -0.6094 -2.1755 -0.6119
  541MOL0     H74604   8.238   1.570   3.574 -0.9047  2.6814 -0.0584
  541MOL0     H74605   8.197   1.361   3.418 -0.6284 -1.3061 -5.9606
  541MOL0     H74606   8.210   1.478   3.290 -1.3557 -1.0444  0.5866
  541MOL0     H74607   8.434   1.286   3.541  0.2904  1.1149 -0.1800
  541MOL0     H74608   8.788   1.360   3.376  0.2440 -1.7122 -1.0954
  541MOL0     H74609   8.705   1.216   3.417  2.0777  0.5009 -0.4278
  541MOL0     H74610   8.849   1.404   3.568 -0.9169  0.5705  1.2276
  541MOL0     H74611   8.690   1.404   3.640  0.1799  0.0733 -0.9030
  541MOL0     H74612   8.802   1.236   3.768  0.8336  2.2182  0.0695
  541MOL0     H74613   8.716   1.131   3.646 -0.6273  0.2938  0.6243
  541MOL0     H74614   8.929   1.134   3.514 -0.1775 -2.0250  0.1920
  541MOL0     H74615   8.997   1.218   3.648  0.3390 -0.3765 -1.0307
  541MOL0     H74616   8.990   0.783   3.775  0.2834 -1.0061  1.4756
  541MOL0     H74617   9.053   0.680   4.108  1.3106  3.5595  1.1447
  541MOL0     H74618   9.197   0.652   4.011  0.4078  1.2468  2.5391
  541MOL0     H74619   9.036   0.639   3.936 -0.1392 -0.7480 -0.2321
  541MOL0     H74620   9.538   1.172   4.221 -4.1487  1.9935 -1.3300
  541MOL0     H74621   9.643   1.233   4.440  1.2139 -0.9691  1.1986
  541MOL0     H74622   9.793   1.044   4.611 -1.8631 -0.8444 -0.4493
  541MOL0     H74623   9.748   1.213   4.604  2.4733  2.2010  1.9982
  541MOL0     H74624   9.749   1.212   4.853  0.2874  0.0262  0.7686
  541MOL0     H74625   9.793   1.041   4.854  0.5374  0.2658 -0.4828
  541MOL0     H74626   9.980   1.262   4.752 -0.4454  0.0735  1.3001
  541MOL0     H74627  10.014   1.093   4.727  3.1537  4.2860 -1.3322
  541MOL0     H74628  10.019   1.082   4.980 -0.5569  2.2095  2.5413
  541MOL0     H74629  10.032   1.257   4.978 -0.2769  0.4786 -0.4402
  541MOL0     H74630  10.221   1.094   4.808  1.0385 -0.8579  1.9666
  541MOL0     H74631  10.234   1.266   4.862 -0.9413  0.5755 -2.1197
  541MOL0     H74632  10.245   1.009   5.030 -3.1882 -0.4982 -1.6670
  541MOL0     H74633  10.217   1.165   5.101  3.0000  2.6129 -0.0903
  541MOL0     H74634  10.468   1.130   4.925 -0.4523  0.8158 -1.2378
  541MOL0     H74635  10.465   1.102   5.103 -2.6319 -0.2855  1.9284
  541MOL0     H74636  10.380   1.332   5.127 -0.2458  0.6060  0.1264
  541MOL0     H74637  10.382   1.364   4.954  0.6561 -2.5338 -1.9683
  541MOL0     H74638   9.394   0.941   4.636 -2.6875 -4.7071 -3.4290
  541MOL0     H74639   9.269   0.903   4.433 -1.2945  1.4327  0.1523
  541MOL0     H74640   9.192   1.153   4.039 -0.3944 -0.6787  1.4248
  541MOL0     H74641   9.063   1.203   3.839  0.6142 -0.4503 -0.9454
  541MOL0     H74642   7.722   2.397   3.555  2.3882 -2.3490 -2.5270
  541MOL0     H74643   7.557   2.574   3.548  0.1452 -1.2118 -0.9291
  541MOL0     H74644   7.217   2.719   3.312  3.0742  0.0526 -2.7619
  541MOL0     H74645   7.019   2.862   3.327 -1.3272  1.6969  1.5048
  541MOL0     H74646   6.921   3.003   3.485 -1.6589 -1.0914 -1.3802
  541MOL0     H74647   6.915   3.171   3.527  3.1655 -0.2431 -0.5540
  541MOL0     H74648   6.714   3.056   3.402 -1.6415  1.4545 -1.1641
  541MOL0     H74649   6.828   3.031   3.269  2.1551  2.7462 -1.4725
  541MOL0     H74650   6.726   3.318   3.358  0.7064  3.4407 -1.5331
  541MOL0     H74651   6.851   3.288   3.238 -0.4730  1.0200  0.7304
  541MOL0     H74652   6.691   3.150   3.102 -0.4096  0.9096 -2.1200
  541MOL0     H74653   6.646   3.317   3.128 -1.2188 -0.9298 -0.9517
  541MOL0     H74654   6.323   3.149   3.341  1.8910 -0.6656  3.8999
  541MOL0     H74655   7.283   3.198   3.344 -1.2148  0.6527  1.7951
  541MOL0     H74656   7.502   3.180   3.297 -2.7533  0.6129  1.7117
  541MOL0     H74657   7.547   3.077   3.439  1.3948 -1.9789 -0.3942
  541MOL0     H74658   7.585   3.016   3.284 -1.4322 -1.3672 -0.1661
  542MOL0     O74659   9.677   9.717   7.843 -0.0140  0.0247  0.7234
  542MOL0     C74660   9.636   9.696   7.726 -0.5778  0.2598  0.1518
  542MOL0     O74661   9.717   9.674   7.622  0.1946  0.6607 -0.2206
  542MOL0     C74662   9.846   9.677   7.653 -0.3674  0.9524 -0.2958
  542MOL0     C74663   9.914   9.799   7.665  0.5048  0.4958  1.3539
  542MOL0     C74664  10.053   9.814   7.648  0.1214  0.4506 -0.6147
  542MOL0     C74665  10.129   9.697   7.633  0.2255  0.0608  0.1956
  542MOL0     O74666  10.263   9.702   7.626  0.4006 -0.6171  1.0037
  542MOL0     C74667  10.317   9.665   7.498  0.6504 -0.2053 -0.4950
  542MOL0     C74668  10.470   9.676   7.498  1.0639 -0.2003 -0.0251
  542MOL0     C74669  10.528   9.813   7.536 -0.0890 -0.6187 -0.3393
  542MOL0     C74670  10.675   9.802   7.519  0.6514 -0.0055  0.4651
  542MOL0     C74671  10.737   9.928   7.576 -0.2438 -0.3116  0.2588
  542MOL0     C74672  10.886   9.927   7.527 -1.0902 -0.7550 -0.4921
  542MOL0     C74673  10.950  10.062   7.573 -0.2949  0.1067 -0.1300
  542MOL0     C74674  11.100  10.082   7.535 -0.6223  0.0202 -0.0508
  542MOL0     N74675  11.115  10.064   7.397 -0.8975 -0.6052 -1.0571
  542MOL0     C74676  11.041  10.116   7.295  0.2582  0.4305  0.5644
  542MOL0     C74677  11.109  10.083   7.178 -0.3210 -0.1205 -0.6038
  542MOL0     C74678  11.059  10.118   7.035 -0.4153  0.0688  0.5431
  542MOL0     C74679  10.933  10.041   6.994  1.2074  0.0207 -0.2061
  542MOL0     C74680  10.961   9.884   6.987  0.2745 -0.0655  0.5032
  542MOL0     C74681  10.832   9.795   6.980 -0.4086  0.2091 -0.6449
  542MOL0     O74682  10.747   9.824   7.094 -0.3766  0.9409  0.7039
  542MOL0     C74683  10.612   9.774   7.086  0.1834  0.7249 -0.1799
  542MOL0     C74684  10.573   9.669   7.004  0.0066  1.0509 -0.2125
  542MOL0     C74685  10.440   9.623   7.010  0.5094  0.4815  0.1568
  542MOL0     C74686  10.413   9.516   6.913 -0.4498 -0.2821  0.3420
  542MOL0     C74687  10.346   9.693   7.093  0.4035 -0.5339  0.4966
  542MOL0     C74688  10.203   9.658   7.096  0.1173  1.2366 -0.6606
  542MOL0     O74689  10.111   9.758   7.137  0.0354  0.3173  0.0739
  542MOL0     C74690   9.977   9.732   7.162 -0.3764 -0.0813  0.5687
  542MOL0     C74691   9.880   9.821   7.114  0.4336  0.4483  0.0653
  542MOL0     C74692   9.743   9.798   7.140 -0.1837  0.1666  0.3723
  542MOL0     C74693   9.698   9.683   7.201  0.3182  0.2280  0.3407
  542MOL0     O74694   9.570   9.648   7.223  0.3550 -0.9150  0.1623
  542MOL0     C74695   9.478   9.655   7.113  0.4416  0.0400  0.4230
  542MOL0     C74696   9.472   9.529   7.023 -0.9660 -0.3433 -0.2766
  542MOL0     C74697   9.446   9.406   7.105 -0.2222 -0.6418 -0.1218
  542MOL0     C74698   9.302   9.389   7.133 -0.2865  0.0693  0.5547
  542MOL0     C74699   9.271   9.293   7.247 -0.5524  0.7704 -0.6094
  542MOL0     C74700   9.311   9.144   7.220  0.3737 -0.1977  0.3683
  542MOL0     C74701   9.267   9.057   7.337 -0.1318 -0.7482  0.6074
  542MOL0     C74702   9.279   8.911   7.307 -0.8602  0.0180 -0.0158
  542MOL0    Cl74703   9.448   8.852   7.305 -0.3671  0.2765 -0.1092
  542MOL0     C74704   9.801   9.598   7.251 -0.1597  1.1400 -0.3519
  542MOL0     C74705   9.936   9.622   7.229  0.5722  0.2254 -0.4691
  542MOL0     O74706  10.178   9.538   7.065  0.1048 -0.4481 -0.0807
  542MOL0     C74707  10.379   9.809   7.161  0.1683  0.5029  0.0270
  542MOL0     C74708  10.516   9.839   7.162 -0.6846 -0.2196  0.2114
  542MOL0     N74709  11.218  10.013   7.222  0.4396  0.4853  0.4630
  542MOL0     N74710  11.218   9.989   7.346  0.2333  0.2958  0.0009
  542MOL0     C74711  10.066   9.569   7.644  0.8981  0.0376  0.0515
  542MOL0     C74712   9.920   9.556   7.652 -0.7129  0.6124 -0.5972
  542MOL0     C74713   9.496   9.690   7.698  0.0013  0.4043  0.0667
  542MOL0     C74714   9.453   9.657   7.565 -0.0320 -0.3507 -0.5617
  542MOL0     C74715   9.326   9.615   7.533 -0.4494 -0.3879  0.7330
  542MOL0     C74716   9.229   9.607   7.632 -1.1061 -0.1145  0.2487
  542MOL0     O74717   9.113   9.540   7.601 -0.2664  0.3715  0.3601
  542MOL0     C74718   9.008   9.536   7.698 -0.4012  0.4227 -0.5868
  542MOL0     C74719   8.888   9.458   7.638 -0.4313  0.7461  0.1333
  542MOL0     C74720   8.915   9.312   7.625 -0.2896  0.1102 -0.2134
  542MOL0     C74721   8.971   9.267   7.482  0.0703  0.1901 -0.1378
  542MOL0     C74722   8.882   9.294   7.365  0.9687 -0.7869 -0.5313
  542MOL0     C74723   8.833   9.335   7.260  0.1924 -0.0801  0.5296
  542MOL0     C74724   9.263   9.640   7.769 -0.5655 -0.0248  0.0017
  542MOL0     C74725   9.393   9.676   7.802 -1.1413 -0.0578 -0.4657
  542MOL0     C74726   9.424   9.714   7.941  0.2435 -0.2415  0.2579
  542MOL0     H74727   9.853   9.884   7.692  1.1001  1.2387  0.4193
  542MOL0     H74728  10.096   9.914   7.643 -2.9212  1.8645 -0.5651
  542MOL0     H74729  10.277   9.731   7.421 -2.7546  0.3790  1.5706
  542MOL0     H74730  10.299   9.560   7.472 -0.9808  0.0296 -0.4080
  542MOL0     H74731  10.510   9.593   7.557 -2.7010  0.8158  4.5673
  542MOL0     H74732  10.501   9.655   7.395 -0.6974  2.5068 -1.2260
  542MOL0     H74733  10.493   9.889   7.465  1.6989 -0.5050 -1.1537
  542MOL0     H74734  10.507   9.824   7.643 -0.0017 -0.6250 -0.3219
  542MOL0     H74735  10.709   9.711   7.569  0.3482 -0.5696 -0.3385
  542MOL0     H74736  10.697   9.798   7.412 -3.3397 -1.3114 -0.4855
  542MOL0     H74737  10.730   9.930   7.686  2.3521 -1.6418  0.5321
  542MOL0     H74738  10.686  10.014   7.533  0.1413 -0.0948  0.2310
  542MOL0     H74739  10.946   9.846   7.568 -0.4668  0.2422  0.6380
  542MOL0     H74740  10.891   9.928   7.418 -0.5927  5.2208 -0.7954
  542MOL0     H74741  10.948  10.063   7.682 -4.1598 -2.0556  0.0001
  542MOL0     H74742  10.892  10.149   7.542 -0.8891 -0.0584  0.5061
  542MOL0     H74743  11.133  10.184   7.557 -0.8134  0.1382 -0.3006
  542MOL0     H74744  11.161  10.006   7.585 -1.0029 -0.8536 -0.8674
  542MOL0     H74745  10.942  10.159   7.301  1.1887  2.7714 -0.0460
  542MOL0     H74746  11.135  10.109   6.956 -2.1711 -0.6013 -1.1426
  542MOL0     H74747  11.030  10.223   7.023 -0.4950 -0.0166 -0.0774
  542MOL0     H74748  10.851  10.062   7.063  0.6601 -1.9826 -0.1821
  542MOL0     H74749  10.913  10.080   6.894 -0.6368 -1.5047 -0.4854
  542MOL0     H74750  11.019   9.881   6.894 -0.2983 -0.7544  0.1548
  542MOL0     H74751  11.027   9.848   7.066  0.1674 -1.3521  0.0313
  542MOL0     H74752  10.776   9.822   6.890 -1.7745  1.4406  0.5314
  542MOL0     H74753  10.867   9.691   6.981 -3.0204 -0.8529  2.9370
  542MOL0     H74754  10.640   9.614   6.939 -0.9678  2.4209 -2.5118
  542MOL0     H74755  10.330   9.551   6.851 -0.5912 -2.4017 -0.7485
  542MOL0     H74756  10.400   9.418   6.958  2.0374 -1.4368 -1.2392
  542MOL0     H74757  10.491   9.504   6.837 -1.2764  2.3162 -1.0436
  542MOL0     H74758   9.918   9.911   7.067 -0.4431  1.5918  1.4661
  542MOL0     H74759   9.673   9.869   7.099 -1.9878 -1.6013  0.2128
  542MOL0     H74760   9.383   9.669   7.166  0.6092 -0.0128  0.7435
  542MOL0     H74761   9.497   9.741   7.048 -2.5849 -0.9074 -1.9420
  542MOL0     H74762   9.393   9.549   6.951 -1.7431  0.9815  0.8780
  542MOL0     H74763   9.567   9.512   6.974 -0.4175 -0.2070  0.7063
  542MOL0     H74764   9.494   9.402   7.204 -0.1609 -2.3479 -0.1861
  542MOL0     H74765   9.484   9.319   7.050  3.8357  1.3410 -0.8345
  542MOL0     H74766   9.243   9.367   7.043  0.3060 -1.6601  0.5588
  542MOL0     H74767   9.270   9.487   7.168 -3.7950 -0.2786 -1.2101
  542MOL0     H74768   9.328   9.328   7.334 -2.9671 -1.0358  1.8376
  542MOL0     H74769   9.166   9.309   7.274  0.0889  3.2074  0.8134
  542MOL0     H74770   9.420   9.140   7.212  0.6562  1.1345  2.7649
  542MOL0     H74771   9.264   9.107   7.128  1.6748  0.0084 -0.4149
  542MOL0     H74772   9.165   9.090   7.358  0.1557  1.7708 -1.4414
  542MOL0     H74773   9.343   9.077   7.413  0.0247 -0.0521  0.2746
  542MOL0     H74774   9.221   8.890   7.217  2.5189  2.7743 -3.1688
  542MOL0     H74775   9.224   8.863   7.388  1.7458 -0.4099  1.5963
  542MOL0     H74776   9.774   9.519   7.321 -1.7408  1.8700 -0.1098
  542MOL0     H74777  10.004   9.550   7.274  0.6005  1.5980  1.8461
  542MOL0     H74778  10.301   9.859   7.219 -1.5034 -0.5376 -1.2211
  542MOL0     H74779  10.561   9.917   7.222  2.4791 -0.3426 -1.7484
  542MOL0     H74780  10.126   9.479   7.649  0.5356 -0.2000  0.1732
  542MOL0     H74781   9.881   9.455   7.647  1.2840 -0.6480  3.6994
  542MOL0     H74782   9.527   9.653   7.486  2.2359 -1.1986  1.4594
  542MOL0     H74783   9.301   9.587   7.431 -1.4167 -0.1154  0.8869
  542MOL0     H74784   9.033   9.485   7.791 -1.4924 -0.7488 -0.9075
  542MOL0     H74785   8.980   9.637   7.728 -1.1904  0.5513 -1.6832
  542MOL0     H74786   8.863   9.500   7.540 -2.7399 -0.0192  0.3180
  542MOL0     H74787   8.810   9.464   7.715 -0.0838 -0.5328  0.6009
  542MOL0     H74788   8.976   9.271   7.705 -1.7636 -0.4258  0.6736
  542MOL0     H74789   8.817   9.265   7.631 -0.4905  0.5374 -0.1142
  542MOL0     H74790   9.002   9.163   7.481 -1.0460 -0.2109  1.5244
  542MOL0     H74791   9.066   9.320   7.471 -1.1549  2.5319 -0.2329
  542MOL0     H74792   8.799   9.362   7.163  0.1122 -2.7816 -0.2576
  542MOL0     H74793   9.178   9.649   7.835 -2.4741 -1.7905 -2.0573
  542MOL0     H74794   9.491   9.642   7.988  0.4956 -1.6651 -2.0803
  542MOL0     H74795   9.468   9.813   7.946 -1.7148  0.7168 -0.4443
  542MOL0     H74796   9.332   9.708   7.999 -0.6559 -0.0457 -1.1130
  543MOL0     O74797   5.713   1.296   4.113  0.2974 -0.3952 -0.2807
  543MOL0     C74798   5.709   1.238   4.219  0.0853  0.2146 -0.3437
  543MOL0     O74799   5.809   1.164   4.273 -0.3735  0.3185  0.0526
  543MOL0     C74800   5.935   1.211   4.240  0.1140  0.2855 -0.7123
  543MOL0     C74801   5.991   1.323   4.315 -0.2670  0.6336 -0.6736
  543MOL0     C74802   6.111   1.370   4.274 -0.3092  0.1623  0.4262
  543MOL0     C74803   6.186   1.308   4.170 -0.1864  0.4108  0.4467
  543MOL0     O74804   6.308   1.355   4.131  0.3014  0.0641 -0.5407
  543MOL0     C74805   6.333   1.362   3.995  0.1671  0.0586  0.0802
  543MOL0     C74806   6.425   1.476   3.953 -0.1744 -0.7434 -0.0030
  543MOL0     C74807   6.372   1.614   3.958 -0.1139 -0.1378  0.7590
  543MOL0     C74808   6.471   1.723   3.898  0.3648  0.3784 -0.4227
  543MOL0     C74809   6.451   1.848   3.989 -0.6387 -0.4022 -0.2477
  543MOL0     C74810   6.574   1.941   3.979 -0.7829  0.1121  0.4410
  543MOL0     C74811   6.705   1.894   4.058  0.8484 -0.7513 -0.0300
  543MOL0     C74812   6.842   1.944   3.990 -0.6191  0.2560 -0.3925
  543MOL0     N74813   6.856   2.088   3.970 -0.3238  0.2072  0.1548
  543MOL0     C74814   6.831   2.174   4.069  0.3122  1.0548 -0.1442
  543MOL0     C74815   6.855   2.296   4.025  0.2122 -0.1086  0.1657
  543MOL0     C74816   6.819   2.423   4.093  0.4162 -0.1392 -0.3312
  543MOL0     C74817   6.923   2.496   4.182 -0.5995  0.3227 -0.7870
  543MOL0     C74818   6.961   2.397   4.297 -0.4883  0.3458  0.5627
  543MOL0     C74819   7.044   2.461   4.404 -0.9411 -0.5635 -1.1367
  543MOL0     O74820   7.170   2.501   4.348 -0.1620  0.2660 -0.5308
  543MOL0     C74821   7.264   2.537   4.438 -0.6731  0.0670 -0.0601
  543MOL0     C74822   7.248   2.573   4.574 -1.1501  0.2335  0.1186
  543MOL0     C74823   7.355   2.623   4.659  0.1708  0.8996 -0.0566
  543MOL0     C74824   7.322   2.662   4.795 -0.3044  0.3441 -0.3274
  543MOL0     C74825   7.493   2.629   4.613 -0.7582  0.6423 -0.3384
  543MOL0     C74826   7.621   2.669   4.687 -0.4941 -0.0020 -0.8097
  543MOL0     O74827   7.617   2.686   4.819 -0.5931 -0.5923  0.9596
  543MOL0     C74828   7.741   2.706   4.877 -0.1846 -0.6851 -0.0287
  543MOL0     C74829   7.808   2.832   4.859 -0.4507 -0.3117 -0.8054
  543MOL0     C74830   7.920   2.864   4.931  0.0101 -0.1388  0.5625
  543MOL0     C74831   7.967   2.776   5.023 -0.5858  0.2398  0.3871
  543MOL0     O74832   8.080   2.792   5.098 -0.0150 -0.1026 -1.1748
  543MOL0     C74833   8.168   2.911   5.088 -0.2857  0.7224  0.0831
  543MOL0     C74834   8.122   3.002   5.199 -0.3220 -0.7492 -0.0985
  543MOL0     C74835   8.197   3.134   5.211 -0.1130  0.2725  0.5546
  543MOL0     C74836   8.207   3.211   5.081 -0.3102  0.1748 -0.5040
  543MOL0     C74837   8.243   3.365   5.093  0.3905 -0.9831 -0.0375
  543MOL0     C74838   8.392   3.394   5.087  0.3345  0.7340 -0.3478
  543MOL0     C74839   8.464   3.356   5.215  0.1575  0.4700 -0.5910
  543MOL0     C74840   8.580   3.453   5.238 -0.2617  0.0266 -0.1068
  543MOL0    Cl74841   8.693   3.475   5.102 -0.2786  0.1275 -0.1433
  543MOL0     C74842   7.912   2.643   5.031  0.2348  0.1077 -0.3586
  543MOL0     C74843   7.792   2.608   4.963 -0.6079  0.4910  0.2945
  543MOL0     O74844   7.722   2.663   4.620  0.3747  0.3937  0.2273
  543MOL0     C74845   7.504   2.594   4.473 -0.2152 -0.2790 -0.2243
  543MOL0     C74846   7.400   2.544   4.396  0.4783 -0.1827 -0.2051
  543MOL0     N74847   6.909   2.286   3.898  1.1686  0.0555  0.6583
  543MOL0     N74848   6.907   2.162   3.866 -0.0145 -0.4782 -0.2692
  543MOL0     C74849   6.124   1.198   4.093 -0.1391  0.4042 -0.0805
  543MOL0     C74850   6.006   1.148   4.128 -0.1374  0.2775  0.1117
  543MOL0     C74851   5.579   1.225   4.294  0.2925  0.0711  0.3418
  543MOL0     C74852   5.545   1.112   4.368  0.6083  0.9224 -0.8882
  543MOL0     C74853   5.424   1.104   4.430 -0.1921  0.4942 -0.1308
  543MOL0     C74854   5.334   1.211   4.454  0.4675  0.0333  0.2714
  543MOL0     O74855   5.216   1.207   4.523  0.7152  0.3492  0.1804
  543MOL0     C74856   5.232   1.153   4.659  0.7445 -0.0591 -0.0701
  543MOL0     C74857   5.164   1.017   4.653 -0.7509  0.3174 -0.3845
  543MOL0     C74858   5.148   0.941   4.787  0.1636 -1.0434 -0.0717
  543MOL0     C74859   5.264   0.852   4.822 -0.1712 -0.8767 -0.3999
  543MOL0     C74860   5.267   0.729   4.749 -0.6714  0.3905 -0.4721
  543MOL0     C74861   5.285   0.625   4.685 -0.5296 -0.0524  0.4980
  543MOL0     C74862   5.360   1.321   4.383  0.0005 -0.1676  0.0513
  543MOL0     C74863   5.479   1.328   4.299 -0.4235 -0.5673 -0.0582
  543MOL0     C74864   5.498   1.455   4.232 -0.6631  0.2304  0.0384
  543MOL0     H74865   5.943   1.374   4.397 -0.6503  0.7726 -0.9806
  543MOL0     H74866   6.153   1.461   4.315  3.5800 -1.5334  0.6020
  543MOL0     H74867   6.243   1.386   3.938  0.2224  2.4151  0.8752
  543MOL0     H74868   6.386   1.269   3.973 -2.3186 -0.8036 -2.9631
  543MOL0     H74869   6.506   1.471   4.026  0.4882 -0.6206 -0.7140
  543MOL0     H74870   6.459   1.446   3.853 -2.5527  1.5324 -1.6461
  543MOL0     H74871   6.280   1.604   3.899  2.2730  0.3362 -3.4182
  543MOL0     H74872   6.342   1.641   4.060  2.1596  2.3620  0.8804
  543MOL0     H74873   6.570   1.677   3.903  0.8444  1.0753 -2.4562
  543MOL0     H74874   6.448   1.748   3.794  4.1411  3.9097 -0.6828
  543MOL0     H74875   6.449   1.815   4.093 -2.2413  0.2408 -0.0482
  543MOL0     H74876   6.352   1.887   3.962 -1.8009 -3.1282 -0.3384
  543MOL0     H74877   6.591   1.943   3.871 -3.1518 -1.8039 -0.0548
  543MOL0     H74878   6.538   2.038   4.016  0.5562  0.3887  1.0683
  543MOL0     H74879   6.711   1.785   4.054  1.3695 -0.6927 -1.1184
  543MOL0     H74880   6.695   1.923   4.163  0.4448 -0.6703 -0.0903
  543MOL0     H74881   6.921   1.905   4.055 -0.4138 -1.5557 -1.6397
  543MOL0     H74882   6.854   1.900   3.891  1.5798  1.6488 -0.8304
  543MOL0     H74883   6.777   2.144   4.158 -0.8602  0.1480 -1.1399
  543MOL0     H74884   6.723   2.419   4.145  1.0415  0.6865  0.9551
  543MOL0     H74885   6.807   2.498   4.014  3.7656  0.2522 -0.6141
  543MOL0     H74886   7.011   2.529   4.126 -0.6180  4.0244  1.0494
  543MOL0     H74887   6.875   2.580   4.234  2.0535  0.6178  1.3719
  543MOL0     H74888   6.868   2.361   4.341 -1.2927  3.3929  1.6279
  543MOL0     H74889   7.014   2.310   4.257 -3.6685 -2.5972  2.2210
  543MOL0     H74890   7.001   2.549   4.451  1.6476  1.4854 -2.3209
  543MOL0     H74891   7.058   2.387   4.484 -2.1971  2.9341  2.6074
  543MOL0     H74892   7.151   2.561   4.620 -0.6426 -2.5570  0.6529
  543MOL0     H74893   7.364   2.594   4.870 -1.5655  1.0296  1.0564
  543MOL0     H74894   7.215   2.665   4.816  0.2163  0.7683  2.7449
  543MOL0     H74895   7.361   2.764   4.805  1.9529 -0.4275 -0.5918
  543MOL0     H74896   7.768   2.906   4.790  3.1272  1.0552 -1.6013
  543MOL0     H74897   7.959   2.965   4.919 -0.0610 -0.2643 -0.8880
  543MOL0     H74898   8.275   2.896   5.108 -0.3117  1.2064  0.6281
  543MOL0     H74899   8.160   2.961   4.991  0.1471  1.9071  0.6320
  543MOL0     H74900   8.020   3.032   5.175  0.2170  1.2050 -0.1039
  543MOL0     H74901   8.128   2.941   5.290  1.2991 -1.7839 -0.8628
  543MOL0     H74902   8.297   3.103   5.243  0.6262 -1.4934 -2.9498
  543MOL0     H74903   8.153   3.190   5.294 -2.5584 -1.1826  0.3487
  543MOL0     H74904   8.114   3.206   5.024 -0.7280  0.9273  0.0951
  543MOL0     H74905   8.283   3.174   5.012  1.9281  0.9895  1.4027
  543MOL0     H74906   8.205   3.421   5.008  0.3210  1.3211  1.4068
  543MOL0     H74907   8.196   3.411   5.180 -1.9557 -1.9571 -0.7254
  543MOL0     H74908   8.398   3.501   5.064 -0.9425  0.3328 -2.9599
  543MOL0     H74909   8.444   3.340   5.008  3.2518  1.7147  0.7801
  543MOL0     H74910   8.504   3.254   5.208 -0.4876  0.3148 -3.1324
  543MOL0     H74911   8.405   3.359   5.306 -0.1996 -2.1278 -0.6580
  543MOL0     H74912   8.637   3.439   5.331 -1.4242 -1.5677  0.3929
  543MOL0     H74913   8.522   3.546   5.247  0.3960  0.3958  0.4910
  543MOL0     H74914   7.961   2.571   5.095  1.1692  0.4733 -0.6568
  543MOL0     H74915   7.743   2.511   4.967  0.5643 -0.1235  0.1781
  543MOL0     H74916   7.604   2.592   4.431  0.1807 -1.5400  0.7421
  543MOL0     H74917   7.418   2.538   4.289  1.8100  2.4700 -0.2086
  543MOL0     H74918   6.167   1.162   4.000  2.2725  0.6040  0.8887
  543MOL0     H74919   5.957   1.066   4.077  0.7289 -0.8569  1.0396
  543MOL0     H74920   5.595   1.015   4.371 -1.1307 -0.0234 -1.2169
  543MOL0     H74921   5.399   1.001   4.452  3.2239 -0.6645 -0.9375
  543MOL0     H74922   5.334   1.140   4.695  0.3189  0.1009  1.2440
  543MOL0     H74923   5.182   1.231   4.718 -1.0539 -0.4726 -0.9559
  543MOL0     H74924   5.222   0.958   4.582  1.1279 -0.0062  1.3284
  543MOL0     H74925   5.064   1.045   4.618 -0.4003  2.1332 -0.0188
  543MOL0     H74926   5.137   1.011   4.871  1.7540  0.7392 -1.2616
  543MOL0     H74927   5.056   0.886   4.771  0.4323 -1.4246 -0.3175
  543MOL0     H74928   5.249   0.834   4.929 -0.8391  1.4526 -0.0351
  543MOL0     H74929   5.359   0.903   4.803  0.6727 -2.5425 -0.8069
  543MOL0     H74930   5.305   0.532   4.638 -0.5825  0.4854 -0.6217
  543MOL0     H74931   5.289   1.403   4.393  0.3035 -0.0304  1.2338
  543MOL0     H74932   5.417   1.522   4.264 -0.9290  1.4682 -2.8929
  543MOL0     H74933   5.595   1.495   4.263 -0.3290 -3.0117  4.2199
  543MOL0     H74934   5.488   1.439   4.125 -1.8127  0.7357  0.0518
  544MOL0     O74935   8.050   5.080  10.024 -0.2911  0.1190 -0.1438
  544MOL0     C74936   8.134   5.141   9.955 -0.7220  0.2262 -0.9752
  544MOL0     O74937   8.274   5.117   9.955  0.2140  0.8700 -0.1920
  544MOL0     C74938   8.334   5.030  10.052 -0.2917  0.7043  0.2252
  544MOL0     C74939   8.476   5.020  10.035  0.1355  0.1777  0.7879
  544MOL0     C74940   8.555   4.919  10.090 -0.1098 -0.4124 -0.9277
  544MOL0     C74941   8.505   4.854  10.204  0.6712 -0.1878  0.0833
  544MOL0     O74942   8.557   4.738  10.263  0.5074 -0.2640  0.3890
  544MOL0     C74943   8.686   4.695  10.221  0.6072 -0.8072  0.7271
  544MOL0     C74944   8.725   4.553  10.283  0.3889  0.0319  1.4485
  544MOL0     C74945   8.634   4.433  10.243  0.0286 -0.5756  0.2337
  544MOL0     C74946   8.569   4.441  10.106  0.8826 -0.7272  0.2563
  544MOL0     C74947   8.480   4.314  10.091 -0.6577 -0.8809 -0.6780
  544MOL0     C74948   8.544   4.179  10.075  0.3500  0.1525 -0.7659
  544MOL0     C74949   8.650   4.181   9.973  0.6457  0.5563 -0.1438
  544MOL0     C74950   8.602   4.202   9.827  0.6106  0.0863 -0.2578
  544MOL0     N74951   8.704   4.199   9.711 -0.2598 -1.4382  0.4485
  544MOL0     C74952   8.814   4.117   9.698  0.1855  0.1554 -0.1101
  544MOL0     C74953   8.854   4.115   9.565 -0.8955 -0.2889  0.0536
  544MOL0     C74954   8.969   4.042   9.494 -0.0145 -0.4769  0.4476
  544MOL0     C74955   9.102   4.115   9.517  0.1026 -0.4778 -0.8077
  544MOL0     C74956   9.195   4.141   9.407 -0.4906 -0.4167  0.0604
  544MOL0     C74957   9.235   4.012   9.336  0.2509 -0.7720 -0.8385
  544MOL0     O74958   9.314   3.937   9.431 -0.4121 -0.0546  0.4950
  544MOL0     C74959   9.420   3.874   9.374  0.0825  1.0404  0.6695
  544MOL0     C74960   9.400   3.801   9.254  0.4061 -0.2095  0.3517
  544MOL0     C74961   9.493   3.723   9.198  0.3723  0.5486 -0.6660
  544MOL0     C74962   9.452   3.646   9.079  0.9014 -0.0568  0.7171
  544MOL0     C74963   9.630   3.719   9.253 -0.1585 -0.4890  0.0453
  544MOL0     C74964   9.752   3.642   9.201 -0.0385  1.0280  0.7462
  544MOL0     O74965   9.762   3.632   9.062  0.5871  0.2513  0.4379
  544MOL0     C74966   9.885   3.617   9.008 -0.2715  0.7949 -0.5499
  544MOL0     C74967   9.967   3.507   9.049 -0.6568 -0.9175  0.4610
  544MOL0     C74968  10.081   3.471   8.984 -0.3371  0.5207 -0.2647
  544MOL0     C74969  10.115   3.552   8.868 -0.9792  0.3629  0.6504
  544MOL0     O74970  10.228   3.542   8.796 -0.1996 -0.6944 -0.1982
  544MOL0     C74971  10.258   3.407   8.756  0.0872 -0.1700 -0.3297
  544MOL0     C74972  10.360   3.405   8.640  0.6081 -0.3422 -0.0558
  544MOL0     C74973  10.486   3.479   8.673 -0.1503  0.1277 -0.8057
  544MOL0     C74974  10.559   3.405   8.788  1.3047 -1.2226 -0.6994
  544MOL0     C74975  10.709   3.427   8.791 -0.0591 -0.5774  0.1740
  544MOL0     C74976  10.782   3.350   8.682 -0.1372  0.5209 -0.0676
  544MOL0     C74977  10.931   3.345   8.716  0.1796  0.1516  0.0775
  544MOL0     C74978  11.025   3.373   8.606 -0.4228 -0.3349  0.0311
  544MOL0    Cl74979  11.195   3.361   8.669 -0.1250 -0.0425  0.0296
  544MOL0     C74980  10.035   3.660   8.830  0.8804  0.5033  1.0287
  544MOL0     C74981   9.914   3.687   8.898  0.4255  0.4661  0.2680
  544MOL0     O74982   9.835   3.608   9.285  0.8249  0.3363 -0.1794
  544MOL0     C74983   9.653   3.794   9.369 -0.4327  0.2519  0.4750
  544MOL0     C74984   9.545   3.861   9.432  0.4666  0.9236  0.5307
  544MOL0     N74985   8.756   4.191   9.507 -0.6757 -0.4059  0.0208
  544MOL0     N74986   8.682   4.250   9.591  0.0945  0.1359  0.4497
  544MOL0     C74987   8.378   4.877  10.242 -0.6130  0.8875  0.0225
  544MOL0     C74988   8.286   4.956  10.164 -0.1720 -0.4567 -0.0417
  544MOL0     C74989   8.084   5.246   9.867  0.2289 -0.3735  0.0473
  544MOL0     C74990   7.981   5.334   9.914 -0.9321 -0.5201 -0.3077
  544MOL0     C74991   7.926   5.439   9.844 -0.8187 -1.0060  0.4008
  544MOL0     C74992   7.971   5.470   9.714 -0.0336 -0.4531 -0.7521
  544MOL0     O74993   7.925   5.570   9.630 -0.4837  0.5896 -0.6632
  544MOL0     C74994   7.840   5.675   9.690 -0.0471  0.0108  0.7032
  544MOL0     C74995   7.842   5.784   9.586  0.7758 -0.2011  0.2263
  544MOL0     C74996   7.745   5.901   9.597 -0.0327  0.0507 -0.5230
  544MOL0     C74997   7.789   5.996   9.705  0.1530  0.1111  0.6293
  544MOL0     C74998   7.689   6.104   9.724 -0.0907 -0.4135  0.5815
  544MOL0     C74999   7.595   6.183   9.723 -0.4910  0.4029  0.0269
  544MOL0     C75000   8.068   5.381   9.661 -1.2887 -0.7998 -0.4877
  544MOL0     C75001   8.129   5.273   9.736  0.0523  0.0459  0.4356
  544MOL0     C75002   8.239   5.196   9.663 -0.1492  0.6133 -0.4664
  544MOL0     H75003   8.514   5.063   9.944 -2.0922  2.1275  0.6790
  544MOL0     H75004   8.658   4.912  10.057 -0.2150  3.1602 -2.5038
  544MOL0     H75005   8.758   4.771  10.253  1.2942  0.2528 -2.8965
  544MOL0     H75006   8.680   4.695  10.112 -0.2431  0.2480  0.7587
  544MOL0     H75007   8.826   4.528  10.250 -0.2280 -0.9520  0.2357
  544MOL0     H75008   8.734   4.567  10.391  1.0839  0.3238  1.3632
  544MOL0     H75009   8.699   4.345  10.243  3.5863  1.6879 -3.9993
  544MOL0     H75010   8.557   4.431  10.321 -0.7968  0.2528 -0.5343
  544MOL0     H75011   8.510   4.532  10.098 -0.2221 -1.4434 -0.0702
  544MOL0     H75012   8.636   4.455  10.021  1.5393 -0.3612  0.8226
  544MOL0     H75013   8.422   4.339  10.002  2.5515  0.8064 -2.4620
  544MOL0     H75014   8.417   4.308  10.180  0.2115 -1.0837 -0.0638
  544MOL0     H75015   8.587   4.148  10.171 -2.6204 -1.4853  0.1774
  544MOL0     H75016   8.460   4.112  10.052 -0.2383  0.7218 -0.3275
  544MOL0     H75017   8.696   4.082   9.972  0.6763  0.5263  1.4033
  544MOL0     H75018   8.720   4.259  10.005 -0.3540  0.8803  1.3738
  544MOL0     H75019   8.527   4.125   9.806 -0.3816  0.8705  0.3127
  544MOL0     H75020   8.570   4.306   9.818  2.2726  0.7980  1.4628
  544MOL0     H75021   8.863   4.048   9.767  1.9746 -1.2904 -2.6104
  544MOL0     H75022   8.954   4.043   9.386  2.4329 -0.0520  0.0509
  544MOL0     H75023   8.973   3.941   9.537  0.7498  0.4228  2.6413
  544MOL0     H75024   9.070   4.213   9.555  2.4951  1.4162 -3.2930
  544MOL0     H75025   9.166   4.068   9.592  0.4567  3.4144  1.6578
  544MOL0     H75026   9.147   4.205   9.332 -1.7424 -1.9098 -0.4763
  544MOL0     H75027   9.283   4.191   9.448 -0.3224 -1.8949  1.5892
  544MOL0     H75028   9.151   3.948   9.307 -0.8129  0.4615 -0.5715
  544MOL0     H75029   9.291   4.028   9.243 -0.6218  0.2066 -1.2167
  544MOL0     H75030   9.300   3.795   9.214  0.5767 -0.3560 -0.0625
  544MOL0     H75031   9.514   3.675   8.994  1.0067 -0.3483  0.6926
  544MOL0     H75032   9.345   3.654   9.056  0.2277 -0.3449  3.4165
  544MOL0     H75033   9.476   3.541   9.099  1.4193  0.0183  0.5126
  544MOL0     H75034   9.924   3.462   9.138 -1.5142  2.2699  1.8257
  544MOL0     H75035  10.136   3.381   9.012  1.2317  1.4682 -0.1919
  544MOL0     H75036  10.295   3.359   8.848  1.7430  1.8558  0.1462
  544MOL0     H75037  10.169   3.356   8.717 -0.1978  0.6911 -0.8132
  544MOL0     H75038  10.389   3.300   8.633  3.3410  0.1977  1.5368
  544MOL0     H75039  10.310   3.441   8.550 -0.2910 -2.5645 -0.5008
  544MOL0     H75040  10.473   3.583   8.702  3.1195 -0.2115  2.4251
  544MOL0     H75041  10.552   3.486   8.586 -0.2515  0.5923 -0.8492
  544MOL0     H75042  10.535   3.298   8.785 -1.6502 -0.6306 -1.0766
  544MOL0     H75043  10.518   3.439   8.883  0.3397  0.4888 -1.6895
  544MOL0     H75044  10.725   3.534   8.779  0.9176 -0.9051 -1.9502
  544MOL0     H75045  10.740   3.394   8.891  2.4721 -0.7720 -0.6139
  544MOL0     H75046  10.765   3.389   8.581 -1.7248 -0.8467 -0.3792
  544MOL0     H75047  10.735   3.251   8.686  0.2272  0.3643  0.3922
  544MOL0     H75048  10.954   3.242   8.744  2.1747  0.3048 -0.7744
  544MOL0     H75049  10.961   3.412   8.797 -0.7953  1.1362 -0.3446
  544MOL0     H75050  11.005   3.472   8.564 -2.1661 -0.0344  1.4551
  544MOL0     H75051  11.008   3.306   8.520  1.3141 -1.8257  0.7959
  544MOL0     H75052  10.063   3.718   8.743  1.8542  0.8594  1.5621
  544MOL0     H75053   9.848   3.764   8.859 -0.5623  0.8648  2.5587
  544MOL0     H75054   9.752   3.795   9.413  0.6841 -0.4935 -1.8456
  544MOL0     H75055   9.563   3.915   9.524 -2.0372  0.8466  1.1193
  544MOL0     H75056   8.345   4.806  10.317  0.4566 -0.9886 -1.2123
  544MOL0     H75057   8.180   4.960  10.186  0.1554  1.5710  1.4359
  544MOL0     H75058   7.945   5.320  10.016 -0.9425 -0.4777 -0.3060
  544MOL0     H75059   7.849   5.497   9.895  0.9039  1.3560  0.5140
  544MOL0     H75060   7.741   5.635   9.714 -0.7284  1.7162  0.9321
  544MOL0     H75061   7.888   5.712   9.781 -2.7899  0.7319  1.9763
  544MOL0     H75062   7.818   5.737   9.490  2.0300 -0.0675 -0.1680
  544MOL0     H75063   7.947   5.811   9.572  0.1234  1.6083 -1.8112
  544MOL0     H75064   7.729   5.944   9.497 -1.3441  1.8477  0.4026
  544MOL0     H75065   7.646   5.858   9.618 -1.0457  1.5785 -1.8723
  544MOL0     H75066   7.887   6.037   9.681  1.8331 -2.6058  2.3199
  544MOL0     H75067   7.787   5.937   9.797 -1.1964 -0.7105  0.1069
  544MOL0     H75068   7.504   6.237   9.710 -2.5820 -2.6926  0.6567
  544MOL0     H75069   8.094   5.383   9.556 -2.4165 -0.3926 -0.7800
  544MOL0     H75070   8.221   5.200   9.555 -2.0543 -1.5012 -0.2913
  544MOL0     H75071   8.341   5.221   9.691  0.1768 -0.7978 -0.3442
  544MOL0     H75072   8.237   5.090   9.691 -2.9940  1.1665  1.9159
  545MOL0     O75073   9.495  11.301   4.349  0.3817 -0.1053  0.7902
  545MOL0     C75074   9.401  11.221   4.359  0.0691  0.1694 -0.3764
  545MOL0     O75075   9.402  11.107   4.436 -0.0675  0.8186  0.3168
  545MOL0     C75076   9.519  11.088   4.511  0.8103  0.1446  0.7883
  545MOL0     C75077   9.622  11.000   4.459 -0.7972  0.3964 -0.6077
  545MOL0     C75078   9.736  10.973   4.543 -0.6523  0.3825  0.0883
  545MOL0     C75079   9.742  11.035   4.668 -0.2638 -0.5359  0.3878
  545MOL0     O75080   9.856  10.992   4.738  0.4215 -0.3801  0.0524
  545MOL0     C75081   9.936  11.090   4.803 -0.4047  0.2079 -1.3595
  545MOL0     C75082  10.055  11.024   4.872  0.2346 -0.1131  0.0528
  545MOL0     C75083  10.146  10.963   4.757 -0.5795  0.2452  0.8844
  545MOL0     C75084  10.205  10.826   4.802  0.6179 -0.2863 -0.2669
  545MOL0     C75085  10.281  10.753   4.681  0.2204 -0.3352 -0.9237
  545MOL0     C75086  10.330  10.614   4.738  0.7609  0.8625  0.2768
  545MOL0     C75087  10.397  10.531   4.631 -0.1369 -0.2012  0.2644
  545MOL0     C75088  10.318  10.502   4.511  0.0626 -0.4980 -0.2598
  545MOL0     N75089  10.384  10.397   4.431 -0.3644  0.2964 -0.0222
  545MOL0     C75090  10.389  10.268   4.463  0.0160 -0.7595  0.5590
  545MOL0     C75091  10.470  10.222   4.369  0.7103 -0.0510  0.6174
  545MOL0     C75092  10.513  10.075   4.354 -0.5963  0.1662 -0.6391
  545MOL0     C75093  10.391   9.988   4.335 -0.4387 -0.4600  0.4657
  545MOL0     C75094  10.305  10.029   4.221 -0.5827 -0.4376  0.3600
  545MOL0     C75095  10.384  10.051   4.086  0.4892 -0.1252  0.0270
  545MOL0     O75096  10.290  10.037   3.979  0.0133 -0.5321  0.4129
  545MOL0     C75097  10.209  10.142   3.943 -0.1613  0.7722 -0.3037
  545MOL0     C75098  10.133  10.129   3.826 -0.1810  0.7700  0.7921
  545MOL0     C75099  10.068  10.239   3.763 -0.0878  0.6039 -0.6083
  545MOL0     C75100  10.002  10.232   3.628 -0.8722 -0.7112  0.7124
  545MOL0     C75101  10.058  10.358   3.834  0.6637  0.7971 -0.2224
  545MOL0     C75102   9.979  10.486   3.802  0.4864 -0.0584 -0.1908
  545MOL0     O75103   9.970  10.530   3.672  0.2725 -0.1702 -0.2271
  545MOL0     C75104   9.909  10.642   3.634  1.0140 -0.6740 -0.2497
  545MOL0     C75105   9.947  10.759   3.691  0.1651 -0.5905 -0.3280
  545MOL0     C75106   9.901  10.883   3.661  0.2867  0.2686 -0.3625
  545MOL0     C75107   9.807  10.892   3.561  0.2007  0.9224 -0.6273
  545MOL0     O75108   9.759  11.013   3.548  0.4468 -0.7289 -0.3076
  545MOL0     C75109   9.626  11.031   3.496 -0.7435  0.0646  0.3375
  545MOL0     C75110   9.579  11.179   3.504 -0.1724 -0.0580  0.9332
  545MOL0     C75111   9.441  11.189   3.425 -0.7855 -0.4817  0.4248
  545MOL0     C75112   9.357  11.328   3.432  0.0825  0.2169 -0.0800
  545MOL0     C75113   9.235  11.311   3.336 -0.4866  0.4809 -0.4387
  545MOL0     C75114   9.291  11.309   3.191  0.1041  0.8532  0.4432
  545MOL0     C75115   9.180  11.370   3.097  0.2175 -0.3890  0.4367
  545MOL0     C75116   9.230  11.362   2.954  0.4114 -0.5007  1.3710
  545MOL0    Cl75117   9.117  11.449   2.849  0.3417 -0.0766  0.3554
  545MOL0     C75118   9.761  10.780   3.498 -0.2810  0.0369  0.3145
  545MOL0     C75119   9.805  10.654   3.536 -0.0238 -0.1166 -1.0296
  545MOL0     O75120   9.905  10.525   3.890 -0.6494 -0.0465 -0.3338
  545MOL0     C75121  10.126  10.361   3.952 -0.5817 -0.0037  0.5211
  545MOL0     C75122  10.208  10.262   4.006 -0.5517  0.3890 -0.3176
  545MOL0     N75123  10.519  10.313   4.283  0.6579 -0.1225  0.1432
  545MOL0     N75124  10.458  10.420   4.323 -0.2750  1.3737  0.1173
  545MOL0     C75125   9.642  11.123   4.718  0.4247 -0.2838  0.5786
  545MOL0     C75126   9.537  11.160   4.632 -0.6913  0.0268  0.4432
  545MOL0     C75127   9.271  11.262   4.285  0.8166 -0.5627  0.4719
  545MOL0     C75128   9.163  11.173   4.306  0.3765  0.0927  0.6769
  545MOL0     C75129   9.040  11.194   4.244  0.2815  0.1189 -0.2973
  545MOL0     C75130   9.023  11.314   4.173  0.4559  0.8834  0.7783
  545MOL0     O75131   8.894  11.353   4.133  0.2655  0.0033  0.4780
  545MOL0     C75132   8.805  11.378   4.247 -0.1011 -0.1936  0.0816
  545MOL0     C75133   8.665  11.405   4.194 -0.1646  0.2388 -0.3257
  545MOL0     C75134   8.609  11.293   4.106  0.3911 -0.0399  0.1191
  545MOL0     C75135   8.479  11.332   4.057  0.2785 -0.0205  0.4308
  545MOL0     C75136   8.388  11.343   4.168 -0.1167  0.8044 -0.0579
  545MOL0     C75137   8.323  11.352   4.267  0.4578 -1.0336 -0.1509
  545MOL0     C75138   9.130  11.397   4.145  0.2488  0.9468  0.3871
  545MOL0     C75139   9.253  11.373   4.199 -0.6817 -0.0893 -0.1340
  545MOL0     C75140   9.368  11.468   4.157 -0.2479  0.0524 -0.4332
  545MOL0     H75141   9.615  10.945   4.366  1.0396  0.3724 -0.7662
  545MOL0     H75142   9.816  10.906   4.513 -1.8919 -0.4276 -1.6039
  545MOL0     H75143   9.874  11.143   4.875  2.6852  3.0036 -0.5396
  545MOL0     H75144   9.975  11.163   4.731  1.9163  0.8765  0.4707
  545MOL0     H75145  10.117  11.104   4.913  2.6539  0.1506 -3.5615
  545MOL0     H75146  10.029  10.948   4.946  3.0052 -0.6112  0.6607
  545MOL0     H75147  10.089  10.954   4.664 -2.0781 -0.2459  1.8151
  545MOL0     H75148  10.228  11.032   4.734 -0.5942 -0.5690 -2.1276
  545MOL0     H75149  10.269  10.838   4.891 -0.5092 -2.1939  0.8759
  545MOL0     H75150  10.126  10.763   4.845 -1.3269  1.7239 -0.7008
  545MOL0     H75151  10.365  10.816   4.650  3.3588 -3.2806  0.8807
  545MOL0     H75152  10.216  10.730   4.597  0.0717  1.3043 -1.2829
  545MOL0     H75153  10.402  10.614   4.820  2.2548 -1.6200 -0.9314
  545MOL0     H75154  10.241  10.561   4.773 -0.6408  3.2614  0.5943
  545MOL0     H75155  10.438  10.441   4.678  3.4716 -0.3320 -2.7710
  545MOL0     H75156  10.482  10.587   4.591  0.2101 -1.1647 -0.3769
  545MOL0     H75157  10.214  10.473   4.533 -0.5680 -0.5394 -2.9183
  545MOL0     H75158  10.311  10.594   4.453  0.5885 -0.0040  0.4512
  545MOL0     H75159  10.343  10.222   4.550  0.9280 -1.5048  0.6702
  545MOL0     H75160  10.580  10.044   4.435  0.4687  1.4626 -0.9850
  545MOL0     H75161  10.568  10.062   4.261  0.6638 -0.8524  0.2098
  545MOL0     H75162  10.443   9.892   4.324 -0.3199 -1.5348  6.8612
  545MOL0     H75163  10.329   9.977   4.424  0.9286  0.5052  1.5642
  545MOL0     H75164  10.250   9.940   4.192 -0.3427 -0.2952 -0.5538
  545MOL0     H75165  10.245  10.115   4.254 -1.0425  0.3206 -2.2052
  545MOL0     H75166  10.446  10.140   4.078  0.9988 -0.5661 -1.1234
  545MOL0     H75167  10.452   9.968   4.065  0.5294 -0.9695  3.0006
  545MOL0     H75168  10.144  10.034   3.775  2.4497  0.6392  1.4262
  545MOL0     H75169  10.064  10.282   3.554 -0.3563 -0.1144  1.5386
  545MOL0     H75170   9.904  10.280   3.640  1.2266  3.7974  1.6607
  545MOL0     H75171  10.001  10.130   3.587 -1.7270  0.5832 -2.9150
  545MOL0     H75172  10.020  10.759   3.771  0.8832  3.5526 -0.7442
  545MOL0     H75173   9.930  10.980   3.702  0.7743 -0.0288  0.0135
  545MOL0     H75174   9.627  11.000   3.392  1.5868  0.1454  0.2995
  545MOL0     H75175   9.552  10.968   3.548  0.7786 -0.7508  1.6247
  545MOL0     H75176   9.561  11.199   3.610 -2.5580  0.6232  0.4764
  545MOL0     H75177   9.649  11.256   3.471 -0.7661  1.2306  2.5399
  545MOL0     H75178   9.379  11.114   3.476 -2.4860  1.5063  1.4177
  545MOL0     H75179   9.473  11.166   3.323 -2.0860  0.6124 -0.2591
  545MOL0     H75180   9.416  11.412   3.397 -1.5425  0.8411 -1.4578
  545MOL0     H75181   9.320  11.351   3.532 -1.0217 -2.3242  0.1815
  545MOL0     H75182   9.151  11.242   3.354 -1.2601  1.7363  0.9421
  545MOL0     H75183   9.186  11.408   3.350  2.6255  1.9633  1.2464
  545MOL0     H75184   9.301  11.204   3.159  2.1526  0.7397  1.2724
  545MOL0     H75185   9.380  11.371   3.174  0.5628 -0.3024 -1.7607
  545MOL0     H75186   9.171  11.474   3.130 -1.0320 -0.3879  0.1548
  545MOL0     H75187   9.083  11.321   3.106 -0.9787  1.6385 -0.5496
  545MOL0     H75188   9.242  11.258   2.923  2.7242 -0.5155  2.0836
  545MOL0     H75189   9.330  11.406   2.948  0.2010 -0.2067 -1.0423
  545MOL0     H75190   9.696  10.796   3.412 -1.4221  0.2386  1.1837
  545MOL0     H75191   9.764  10.560   3.500 -1.2858  0.3130 -0.7434
  545MOL0     H75192  10.145  10.459   3.995  0.5148  0.6559 -1.3347
  545MOL0     H75193  10.271  10.287   4.090  1.6862 -2.0578 -1.1257
  545MOL0     H75194   9.653  11.169   4.816  1.8529  1.9772 -0.5566
  545MOL0     H75195   9.459  11.230   4.662 -1.7386 -0.7391 -0.4033
  545MOL0     H75196   9.176  11.087   4.371 -1.1552 -0.3067  0.4990
  545MOL0     H75197   8.954  11.133   4.268 -1.1668  2.8632  2.1894
  545MOL0     H75198   8.816  11.294   4.316  0.6690 -0.5250 -0.4243
  545MOL0     H75199   8.844  11.462   4.304 -0.4647  0.3719 -0.4940
  545MOL0     H75200   8.656  11.496   4.134  0.0547  1.1529  0.9833
  545MOL0     H75201   8.598  11.424   4.278 -0.9887  1.5648 -1.2327
  545MOL0     H75202   8.671  11.277   4.017  0.7396  2.4517 -0.1631
  545MOL0     H75203   8.617  11.202   4.167  3.2636  1.0574  1.5604
  545MOL0     H75204   8.448  11.256   3.985 -0.3916 -0.4592  1.1694
  545MOL0     H75205   8.499  11.424   4.000 -1.9384 -1.0835 -2.2861
  545MOL0     H75206   8.270  11.370   4.358  0.5000  2.6537 -0.7206
  545MOL0     H75207   9.123  11.480   4.075 -0.0295  1.8253  1.4433
  545MOL0     H75208   9.350  11.503   4.055 -2.7303 -3.0971 -1.2405
  545MOL0     H75209   9.374  11.546   4.233 -1.1211 -0.1342 -0.1561
  545MOL0     H75210   9.461  11.411   4.147 -0.0322  0.2798  0.2265
  546MOL0     O75211   9.462  11.283   0.071 -0.8999 -0.5692  0.1940
  546MOL0     C75212   9.396  11.184   0.103 -0.4958  1.2475  1.0506
  546MOL0     O75213   9.429  11.057   0.065  1.0769 -0.4672 -0.3246
  546MOL0     C75214   9.563  11.032   0.056  0.2276  0.2375 -0.4077
  546MOL0     C75215   9.625  10.985  -0.054 -0.0441  0.1253 -0.4233
  546MOL0     C75216   9.758  10.947  -0.058 -0.7742  0.3192  0.7217
  546MOL0     C75217   9.828  10.932   0.061 -0.2041  0.4730  0.9018
  546MOL0     O75218   9.954  10.872   0.052 -0.1120  0.2519  0.5355
  546MOL0     C75219  10.051  10.884   0.152 -0.4701  0.1735 -0.5501
  546MOL0     C75220  10.070  10.750   0.222 -0.7455 -0.3253 -0.1437
  546MOL0     C75221  10.195  10.754   0.302  0.6240  0.0494  0.3504
  546MOL0     C75222  10.215  10.620   0.365 -0.1665  0.3937  0.3971
  546MOL0     C75223  10.342  10.622   0.453 -0.5437 -0.2458  0.1113
  546MOL0     C75224  10.360  10.484   0.525 -0.2331 -0.5084 -0.4012
  546MOL0     C75225  10.497  10.477   0.619  0.5805 -0.5009  0.5992
  546MOL0     C75226  10.479  10.381   0.733  0.1246 -0.1449  0.1387
  546MOL0     N75227  10.604  10.326   0.795  0.6565  0.3103 -0.5062
  546MOL0     C75228  10.729  10.370   0.761 -0.5070  0.9918 -0.1289
  546MOL0     C75229  10.798  10.348   0.881  0.8541  0.1179 -0.3073
  546MOL0     C75230  10.936  10.392   0.924  0.5046 -0.1220 -0.6093
  546MOL0     C75231  11.038  10.338   0.825  0.1758 -0.2401  0.4096
  546MOL0     C75232  11.174  10.344   0.898 -0.2632 -0.3044 -0.2376
  546MOL0     C75233  11.303  10.307   0.807  0.2080  0.7679 -0.2022
  546MOL0     O75234  11.430  10.329   0.874  1.3516  0.0885  0.0537
  546MOL0     C75235  11.476  10.457   0.870  0.7258 -0.3955 -0.2232
  546MOL0     C75236  11.609  10.465   0.907 -0.5150  0.4107 -0.0646
  546MOL0     C75237  11.691  10.579   0.900 -0.6391  0.1045  0.5078
  546MOL0     C75238  11.834  10.583   0.951  0.6194  0.2967  0.6781
  546MOL0     C75239  11.635  10.688   0.840  0.4759 -0.1708  0.7042
  546MOL0     C75240  11.691  10.822   0.848 -1.3269  0.3316  0.1744
  546MOL0     O75241  11.618  10.930   0.899  0.0631  0.8065 -0.2174
  546MOL0     C75242  11.675  11.055   0.908  0.3536  1.0385 -1.0902
  546MOL0     C75243  11.743  11.090   1.032 -0.5244 -0.5900  0.1111
  546MOL0     C75244  11.766  11.221   1.059 -0.7757 -0.0391  0.4153
  546MOL0     C75245  11.727  11.320   0.963 -0.0856  0.5200  0.5562
  546MOL0     O75246  11.748  11.453   0.981 -0.5528  0.8483  0.3412
  546MOL0     C75247  11.792  11.499   1.103  0.5122 -0.6724 -0.7205
  546MOL0     C75248  11.787  11.652   1.106  0.0976 -0.9538  0.0132
  546MOL0     C75249  11.887  11.695   1.002 -0.3965 -0.1589 -0.0797
  546MOL0     C75250  11.867  11.858   1.006 -0.5691 -0.3219 -0.9290
  546MOL0     C75251  11.924  11.924   0.876  0.6904  0.7409 -0.6995
  546MOL0     C75252  11.942  12.074   0.912  0.6734 -0.3632 -0.5401
  546MOL0     C75253  11.990  12.161   0.801  0.1148  1.4177 -0.5261
  546MOL0     C75254  11.880  12.165   0.698 -0.3930  0.0323 -0.7093
  546MOL0    Cl75255  11.930  12.273   0.569 -0.2095  0.4700 -0.0688
  546MOL0     C75256  11.675  11.275   0.840 -0.2124 -0.0240  0.0381
  546MOL0     C75257  11.657  11.144   0.806  0.2162  0.7919 -0.5846
  546MOL0     O75258  11.810  10.829   0.818 -0.1646 -0.6330 -0.2319
  546MOL0     C75259  11.497  10.687   0.807 -0.1809  0.4770  0.6283
  546MOL0     C75260  11.419  10.576   0.823  0.0388  0.5899  0.0404
  546MOL0     N75261  10.713  10.283   0.971 -0.1474  0.2083  0.4091
  546MOL0     N75262  10.596  10.281   0.919 -0.0122 -0.4138 -0.6415
  546MOL0     C75263   9.763  10.965   0.184  0.1997  0.0254 -0.3949
  546MOL0     C75264   9.634  11.014   0.180 -0.0044  0.1806 -0.1379
  546MOL0     C75265   9.257  11.206   0.171  0.5035  0.1513 -0.7736
  546MOL0     C75266   9.196  11.100   0.249  0.0713 -0.0544  0.5816
  546MOL0     C75267   9.077  11.113   0.313 -0.3078  0.1419 -0.1578
  546MOL0     C75268   9.008  11.236   0.302 -0.1136  0.1561 -0.4148
  546MOL0     O75269   8.897  11.255   0.383 -0.1843  0.0774  0.5182
  546MOL0     C75270   8.785  11.324   0.323  0.1579  0.2726 -0.4515
  546MOL0     C75271   8.717  11.261   0.202  0.1572 -0.6492  0.6096
  546MOL0     C75272   8.770  11.312   0.063  1.2619  0.3849 -0.0802
  546MOL0     C75273   8.750  11.461   0.032 -0.1889 -0.0214  0.5007
  546MOL0     C75274   8.606  11.492   0.056  0.6905  0.9672  0.3350
  546MOL0     C75275   8.486  11.498   0.069  0.8157 -0.1961  0.4448
  546MOL0     C75276   9.064  11.343   0.231 -0.6361 -0.5727 -0.0552
  546MOL0     C75277   9.188  11.331   0.163 -0.5125  0.3863 -0.0898
  546MOL0     C75278   9.224  11.442   0.070  0.0250  0.7416 -0.2963
  546MOL0     H75279   9.565  10.991  -0.144  0.0467 -0.2507 -0.5124
  546MOL0     H75280   9.800  10.926  -0.156  2.5622 -0.4344  2.1560
  546MOL0     H75281  10.041  10.965   0.224  0.9941 -1.4337  1.5968
  546MOL0     H75282  10.142  10.915   0.099 -2.7949  3.6342 -2.8808
  546MOL0     H75283   9.984  10.729   0.286  0.5664 -1.4660  1.3158
  546MOL0     H75284  10.069  10.674   0.144 -0.0834 -1.4959  0.9564
  546MOL0     H75285  10.287  10.774   0.247  2.0307 -2.0980  1.7988
  546MOL0     H75286  10.190  10.832   0.379  0.0546  0.7375 -0.3628
  546MOL0     H75287  10.121  10.618   0.421  0.3791  1.8703  1.4415
  546MOL0     H75288  10.212  10.545   0.285  1.1604 -0.2996  0.9651
  546MOL0     H75289  10.338  10.702   0.528 -0.3135 -2.8797  3.1364
  546MOL0     H75290  10.423  10.643   0.382  0.3878 -1.5181  0.7654
  546MOL0     H75291  10.278  10.484   0.598  1.3689  4.4033  1.7901
  546MOL0     H75292  10.353  10.403   0.452 -0.6203 -0.1979 -0.7160
  546MOL0     H75293  10.514  10.574   0.666  1.0087  1.2972 -2.8625
  546MOL0     H75294  10.578  10.446   0.552 -0.9067 -1.9759 -0.5963
  546MOL0     H75295  10.424  10.429   0.814 -0.5451  3.0061 -2.0233
  546MOL0     H75296  10.417  10.296   0.705 -0.7473  1.3334 -2.8183
  546MOL0     H75297  10.767  10.431   0.681  0.5616  3.5094  2.1310
  546MOL0     H75298  10.949  10.356   1.027 -1.6222 -0.8552 -0.5552
  546MOL0     H75299  10.947  10.501   0.924 -0.6733  0.0045 -0.7663
  546MOL0     H75300  11.021  10.233   0.801  0.2172 -0.3696  0.9357
  546MOL0     H75301  11.044  10.400   0.735 -3.0550  2.6090  1.8932
  546MOL0     H75302  11.195  10.444   0.938 -1.4274  0.0078 -0.3654
  546MOL0     H75303  11.172  10.274   0.982 -1.0153  1.3043  1.1484
  546MOL0     H75304  11.289  10.202   0.780 -1.2632 -0.4319  4.3810
  546MOL0     H75305  11.299  10.367   0.716 -2.4077  1.5039  0.3116
  546MOL0     H75306  11.657  10.372   0.937  0.1218  0.9657  0.6524
  546MOL0     H75307  11.850  10.664   1.023 -1.2800  3.4202 -2.1480
  546MOL0     H75308  11.906  10.606   0.872  0.6121  3.7557  1.5319
  546MOL0     H75309  11.865  10.489   1.000  2.5008  1.2015  1.3044
  546MOL0     H75310  11.761  11.012   1.104 -2.3448 -0.8615  0.3280
  546MOL0     H75311  11.809  11.252   1.154 -0.3352  0.9184 -0.0848
  546MOL0     H75312  11.733  11.479   1.193  2.0960  1.7606  0.9844
  546MOL0     H75313  11.893  11.465   1.127  0.9056  1.4814  0.9497
  546MOL0     H75314  11.687  11.696   1.094  0.3302 -0.5812 -0.5843
  546MOL0     H75315  11.826  11.681   1.204 -1.2947 -0.5809  0.4813
  546MOL0     H75316  11.882  11.651   0.902 -0.0562  1.7032 -0.9783
  546MOL0     H75317  11.986  11.678   1.046  0.1263  1.5949 -0.4684
  546MOL0     H75318  11.926  11.895   1.090 -1.3402  0.0102 -0.5206
  546MOL0     H75319  11.767  11.893   1.031  0.3752  0.3180  2.3163
  546MOL0     H75320  12.022  11.881   0.853  0.3945 -0.9449  0.9005
  546MOL0     H75321  11.858  11.909   0.790  0.0129 -2.1716  0.2069
  546MOL0     H75322  12.018  12.086   0.990 -0.3420  0.3355  0.3717
  546MOL0     H75323  11.850  12.108   0.959  0.3535 -2.8015  0.7173
  546MOL0     H75324  12.079  12.108   0.765  0.0670  1.7246 -1.1148
  546MOL0     H75325  12.017  12.260   0.841 -0.2206  0.9674  0.8727
  546MOL0     H75326  11.789  12.200   0.747 -0.1498 -0.8352  0.4222
  546MOL0     H75327  11.855  12.067   0.655 -2.6471  1.1085 -2.0397
  546MOL0     H75328  11.641  11.344   0.764  2.3635  0.5534 -0.6626
  546MOL0     H75329  11.610  11.119   0.712  2.2098 -0.0281 -1.4210
  546MOL0     H75330  11.453  10.778   0.769 -0.2427 -0.4902 -1.8069
  546MOL0     H75331  11.313  10.579   0.797 -0.2449 -0.5333  0.9673
  546MOL0     H75332   9.809  10.958   0.282 -0.4247  1.0402 -0.0222
  546MOL0     H75333   9.594  11.050   0.274 -0.2111  0.4756 -0.3379
  546MOL0     H75334   9.250  11.006   0.251 -0.1832 -0.2099  0.2471
  546MOL0     H75335   9.042  11.041   0.386  2.6556  0.2032  1.4749
  546MOL0     H75336   8.708  11.313   0.400 -1.0550  3.3124 -1.0697
  546MOL0     H75337   8.795  11.431   0.303 -0.7168  0.5338  0.4126
  546MOL0     H75338   8.615  11.296   0.218 -0.5152 -2.3317  0.2153
  546MOL0     H75339   8.727  11.153   0.187 -1.4871 -0.6452 -0.8766
  546MOL0     H75340   8.875  11.283   0.049  1.5860  1.1345  0.6417
  546MOL0     H75341   8.704  11.265  -0.009  0.0598  1.3578  0.3521
  546MOL0     H75342   8.792  11.471  -0.068 -0.9472 -0.3025  0.1477
  546MOL0     H75343   8.814  11.527   0.093  0.9009 -0.6999  0.1176
  546MOL0     H75344   8.379  11.498   0.076  0.6815 -1.9184 -0.8651
  546MOL0     H75345   9.023  11.442   0.214 -1.3078 -1.1116 -1.7912
  546MOL0     H75346   9.271  11.403  -0.020  0.6046  1.2806 -0.2370
  546MOL0     H75347   9.142  11.498   0.024  0.1435 -1.6961 -3.8476
  546MOL0     H75348   9.294  11.516   0.109 -1.0817  1.1289  1.0770
  547MOL0     O75349   5.907   1.542   4.618  0.5810  0.0190  0.7520
  547MOL0     C75350   5.823   1.487   4.687  0.2322 -1.0991  0.4002
  547MOL0     O75351   5.847   1.386   4.769  0.0627 -0.5417  0.0007
  547MOL0     C75352   5.979   1.360   4.816  0.6035  0.3144 -0.2621
  547MOL0     C75353   6.074   1.454   4.838 -0.7960  0.6657 -0.5136
  547MOL0     C75354   6.201   1.405   4.894  0.9694 -0.8276 -0.2438
  547MOL0     C75355   6.219   1.275   4.922  0.3978  0.5320  0.0005
  547MOL0     O75356   6.341   1.246   4.982 -0.5144  0.6405  0.4077
  547MOL0     C75357   6.363   1.117   5.026 -0.5592  0.1446  0.4572
  547MOL0     C75358   6.501   1.102   5.085 -0.6056  0.0669  0.6904
  547MOL0     C75359   6.599   1.079   4.966 -0.3138  0.0737 -0.8177
  547MOL0     C75360   6.739   1.068   5.027  1.0721  0.0767  1.0554
  547MOL0     C75361   6.850   1.068   4.921  0.8918  0.1943  0.2360
  547MOL0     C75362   6.985   1.048   4.987 -0.1843  0.2892  0.4825
  547MOL0     C75363   7.104   1.058   4.885  0.2627  0.2453  0.5320
  547MOL0     C75364   7.234   1.079   4.957 -0.0143 -0.5633  0.2721
  547MOL0     N75365   7.284   0.964   5.028  0.3425  0.4872  0.8378
  547MOL0     C75366   7.251   0.920   5.154  0.3207 -0.2460  0.8964
  547MOL0     C75367   7.343   0.826   5.181  0.9719  0.3866 -0.5751
  547MOL0     C75368   7.348   0.741   5.313 -0.5147  0.3457  0.0058
  547MOL0     C75369   7.437   0.619   5.310 -0.2371 -0.0439 -0.1856
  547MOL0     C75370   7.585   0.658   5.326 -0.0482  0.0566  0.0157
  547MOL0     C75371   7.658   0.525   5.363 -1.1491 -0.2550 -0.3437
  547MOL0     O75372   7.807   0.522   5.357  0.2883  0.7244 -0.8138
  547MOL0     C75373   7.870   0.488   5.238 -0.7339  0.2831 -0.5454
  547MOL0     C75374   7.805   0.497   5.112  0.8784 -0.0146 -0.4620
  547MOL0     C75375   7.876   0.450   5.002  0.6210  0.7439 -0.2420
  547MOL0     C75376   7.796   0.452   4.870  0.0835 -0.1489 -0.1225
  547MOL0     C75377   8.009   0.416   5.009 -0.4007  0.2120  0.3189
  547MOL0     C75378   8.091   0.377   4.892 -0.0892 -0.0121 -0.7240
  547MOL0     O75379   8.200   0.306   4.919  0.2393  0.8256  0.5840
  547MOL0     C75380   8.300   0.298   4.820 -0.2501 -0.3944 -0.0834
  547MOL0     C75381   8.429   0.310   4.870  0.2260  0.1027 -0.6121
  547MOL0     C75382   8.538   0.281   4.791  0.4767  0.6327  0.0434
  547MOL0     C75383   8.524   0.232   4.663  0.6369  0.1829  0.0811
  547MOL0     O75384   8.640   0.210   4.590  0.6979 -0.1568  0.5013
  547MOL0     C75385   8.626   0.089   4.502  0.4193 -1.2813 -0.7039
  547MOL0     C75386   8.645  -0.042   4.580 -0.2453  0.7724 -0.5150
  547MOL0     C75387   8.793  -0.065   4.628  0.7222 -0.1124  0.3620
  547MOL0     C75388   8.817  -0.212   4.649 -0.2223  0.2031 -0.1490
  547MOL0     C75389   8.971  -0.242   4.674  0.5569 -0.7678 -0.1544
  547MOL0     C75390   9.002  -0.195   4.818 -0.4229 -0.2421 -0.1880
  547MOL0     C75391   9.152  -0.210   4.845 -0.2029 -0.1481 -0.1942
  547MOL0     C75392   9.185  -0.217   4.994 -0.2846  0.7092 -0.0641
  547MOL0    Cl75393   9.352  -0.201   5.015 -0.3890  0.2375  0.3041
  547MOL0     C75394   8.391   0.230   4.605  0.7339  1.0624 -0.4699
  547MOL0     C75395   8.275   0.260   4.685  0.3012 -1.1553 -0.0410
  547MOL0     O75396   8.044   0.406   4.779  0.5883 -0.2849 -0.0999
  547MOL0     C75397   8.071   0.410   5.134 -1.2076  0.5156  0.3840
  547MOL0     C75398   8.005   0.440   5.244  0.3366  0.4326  0.1019
  547MOL0     N75399   7.434   0.819   5.074  0.0431 -0.3148  0.1092
  547MOL0     N75400   7.390   0.893   4.978 -0.2402 -0.5042  0.2312
  547MOL0     C75401   6.118   1.175   4.899 -0.1129 -0.4900 -0.0806
  547MOL0     C75402   5.995   1.226   4.848  0.6681  0.2678 -0.6027
  547MOL0     C75403   5.675   1.531   4.663 -0.2913 -0.8826 -0.2479
  547MOL0     C75404   5.575   1.459   4.736 -1.0683  0.2042 -0.0810
  547MOL0     C75405   5.441   1.486   4.730  0.3418  0.0836 -0.7715
  547MOL0     C75406   5.405   1.597   4.652 -0.8656  0.3820 -0.9193
  547MOL0     O75407   5.276   1.629   4.674 -0.4864 -0.2741  0.5364
  547MOL0     C75408   5.205   1.717   4.588  0.0644 -0.3400 -0.5011
  547MOL0     C75409   5.059   1.662   4.578  1.0740 -0.3810  0.4756
  547MOL0     C75410   4.980   1.653   4.706  0.1739 -0.0650  0.5983
  547MOL0     C75411   4.827   1.644   4.681 -0.4535  0.0590 -0.4652
  547MOL0     C75412   4.770   1.608   4.809 -0.8875  0.8578 -0.2653
  547MOL0     C75413   4.736   1.573   4.923  1.0885  0.9287 -0.2477
  547MOL0     C75414   5.493   1.668   4.578 -0.0703  0.5003  0.6123
  547MOL0     C75415   5.631   1.639   4.582  0.1235  0.7587 -0.2553
  547MOL0     C75416   5.714   1.721   4.488  0.3638 -0.3238  0.1507
  547MOL0     H75417   6.074   1.560   4.814 -1.0355  0.6569 -0.5505
  547MOL0     H75418   6.281   1.476   4.912 -1.2858  1.4807  1.3932
  547MOL0     H75419   6.349   1.048   4.942 -0.8741 -0.5972  1.1043
  547MOL0     H75420   6.286   1.091   5.099 -0.8235  0.9938  0.4942
  547MOL0     H75421   6.520   1.190   5.148 -3.2766  0.8932  0.4688
  547MOL0     H75422   6.515   1.018   5.154 -0.7422 -0.9882 -0.5273
  547MOL0     H75423   6.584   0.980   4.922 -1.0907 -0.3697  0.4031
  547MOL0     H75424   6.599   1.150   4.883  1.1190  0.4392 -0.5405
  547MOL0     H75425   6.756   1.161   5.083  1.3315  1.7240 -1.5808
  547MOL0     H75426   6.748   0.975   5.084  1.4537 -1.8582 -1.9488
  547MOL0     H75427   6.860   1.156   4.856  3.7302 -0.0435  0.2485
  547MOL0     H75428   6.835   0.981   4.857  0.0804  0.6781 -0.2568
  547MOL0     H75429   6.992   1.130   5.059  0.0622 -0.0352  0.8289
  547MOL0     H75430   6.989   0.958   5.049 -2.5583 -0.7625 -0.7532
  547MOL0     H75431   7.076   1.143   4.822 -1.5721 -1.5884 -1.2913
  547MOL0     H75432   7.112   0.968   4.823 -0.2901 -0.2625  1.1960
  547MOL0     H75433   7.310   1.119   4.890  2.1856 -0.0982  2.8704
  547MOL0     H75434   7.219   1.164   5.025 -2.8635 -1.0639  0.4257
  547MOL0     H75435   7.166   0.951   5.214  0.0093 -1.2254  0.9805
  547MOL0     H75436   7.247   0.704   5.333  0.4387 -1.2479  2.2709
  547MOL0     H75437   7.379   0.814   5.389  1.0216 -0.8438  0.5664
  547MOL0     H75438   7.416   0.558   5.399  0.0408  0.5585  0.3054
  547MOL0     H75439   7.427   0.554   5.223  1.6289  0.5941 -0.9256
  547MOL0     H75440   7.626   0.699   5.233 -2.1815  0.9677 -0.5720
  547MOL0     H75441   7.598   0.723   5.414  2.5070 -0.4062  0.0454
  547MOL0     H75442   7.647   0.496   5.468 -0.0064 -0.6457 -0.3115
  547MOL0     H75443   7.617   0.445   5.300 -0.5872 -1.9752  1.3861
  547MOL0     H75444   7.699   0.518   5.096  0.5520 -1.3460 -0.1819
  547MOL0     H75445   7.809   0.356   4.819  2.4619  0.5334 -0.9384
  547MOL0     H75446   7.815   0.526   4.792 -0.2752 -0.8284 -0.8751
  547MOL0     H75447   7.690   0.465   4.893  1.4018  2.8145  6.8738
  547MOL0     H75448   8.447   0.354   4.968 -0.0374 -0.7077 -0.1966
  547MOL0     H75449   8.640   0.315   4.804  0.8018  0.2288 -1.3080
  547MOL0     H75450   8.527   0.090   4.456 -2.3878  2.5999  4.3190
  547MOL0     H75451   8.699   0.104   4.422 -0.6157  0.8523 -1.3471
  547MOL0     H75452   8.575  -0.052   4.663 -3.0521 -3.0410 -3.0071
  547MOL0     H75453   8.610  -0.125   4.517  0.1342 -2.1343  2.8125
  547MOL0     H75454   8.810   0.005   4.711  2.1646  1.7245 -1.3776
  547MOL0     H75455   8.855  -0.025   4.547 -1.7925 -1.0669 -2.1827
  547MOL0     H75456   8.796  -0.264   4.554  1.2264  1.0835 -0.9947
  547MOL0     H75457   8.758  -0.256   4.730 -3.2750  1.6997 -1.4037
  547MOL0     H75458   8.990  -0.349   4.661  5.1993 -0.1268 -0.1440
  547MOL0     H75459   9.039  -0.195   4.602 -0.8015  1.5385 -0.0509
  547MOL0     H75460   8.953  -0.253   4.896  0.4913 -0.8940 -0.0803
  547MOL0     H75461   8.969  -0.091   4.823 -2.5297 -0.8287 -0.6394
  547MOL0     H75462   9.199  -0.117   4.811  0.9385  0.1311  1.9679
  547MOL0     H75463   9.197  -0.295   4.792  0.0817 -1.1598  1.5673
  547MOL0     H75464   9.171  -0.318   5.032 -1.4618  1.9960  3.3150
  547MOL0     H75465   9.127  -0.150   5.058  1.5778  2.2556  0.0913
  547MOL0     H75466   8.383   0.207   4.499 -0.9636 -0.2905 -0.0809
  547MOL0     H75467   8.172   0.253   4.655  0.1615  0.9732 -0.2303
  547MOL0     H75468   8.174   0.380   5.149 -0.0457  4.8450  2.8943
  547MOL0     H75469   8.044   0.438   5.345 -0.1502  1.6933  0.3283
  547MOL0     H75470   6.126   1.070   4.924  0.6626 -0.6260 -0.8625
  547MOL0     H75471   5.916   1.161   4.813  0.4379  0.8515 -1.1851
  547MOL0     H75472   5.619   1.379   4.793  0.0004 -0.7126 -2.0896
  547MOL0     H75473   5.368   1.429   4.787  0.5941  0.6504  0.1453
  547MOL0     H75474   5.200   1.813   4.640  0.2795 -0.0486 -1.0120
  547MOL0     H75475   5.246   1.733   4.488 -3.0573  4.9666 -1.3451
  547MOL0     H75476   5.057   1.565   4.528 -2.2507 -0.4864  0.5491
  547MOL0     H75477   5.009   1.735   4.513  0.3394 -0.6441  0.7278
  547MOL0     H75478   5.023   1.566   4.757 -0.2283  0.5329  2.0062
  547MOL0     H75479   4.997   1.736   4.775 -2.0311 -0.0639  1.2245
  547MOL0     H75480   4.815   1.560   4.613  2.8478 -0.9915  0.0998
  547MOL0     H75481   4.802   1.746   4.648 -0.3286  0.0459 -0.5963
  547MOL0     H75482   4.712   1.547   5.025 -1.9738 -0.2211 -1.1568
  547MOL0     H75483   5.458   1.743   4.507  1.7371  0.8481  0.0473
  547MOL0     H75484   5.659   1.806   4.447  1.7525  2.3467  3.3242
  547MOL0     H75485   5.791   1.764   4.552 -1.1614  2.4410  0.2696
  547MOL0     H75486   5.763   1.664   4.409 -0.9040 -0.1718 -0.7840
  548MOL0     O75487   5.273   3.805   3.493  0.5791  0.0277  0.1851
  548MOL0     C75488   5.194   3.711   3.498 -0.2139  0.8468 -0.1579
  548MOL0     O75489   5.212   3.596   3.572 -1.2108 -0.4119 -0.2932
  548MOL0     C75490   5.325   3.560   3.649 -0.4051 -0.6665  0.5147
  548MOL0     C75491   5.313   3.439   3.714  0.3816  0.2156  0.4014
  548MOL0     C75492   5.409   3.384   3.790  0.0051 -0.8845  0.1061
  548MOL0     C75493   5.532   3.447   3.799  0.3597 -0.9409  1.2438
  548MOL0     O75494   5.624   3.390   3.877 -0.0572  0.6709 -0.3698
  548MOL0     C75495   5.762   3.421   3.844 -0.5313  0.4966  0.3333
  548MOL0     C75496   5.858   3.339   3.928  0.0051  0.4589  0.7114
  548MOL0     C75497   5.852   3.179   3.909  0.1673  0.8843 -0.6191
  548MOL0     C75498   5.936   3.098   4.013 -0.2262 -0.3921  0.7823
  548MOL0     C75499   5.927   2.945   3.998 -0.2599  0.5714  0.6768
  548MOL0     C75500   5.785   2.885   3.954 -0.1065  1.2731 -0.3229
  548MOL0     C75501   5.683   2.903   4.061 -0.4274 -0.0091 -0.3722
  548MOL0     C75502   5.697   2.816   4.190  0.8718  0.0274  0.5058
  548MOL0     N75503   5.640   2.688   4.150 -0.7386 -0.3417  0.1181
  548MOL0     C75504   5.513   2.648   4.176 -0.6098  0.5101 -0.2880
  548MOL0     C75505   5.517   2.515   4.130 -0.2897  0.5502 -0.1888
  548MOL0     C75506   5.398   2.421   4.146 -1.0810 -0.2804  0.8426
  548MOL0     C75507   5.314   2.417   4.013  0.2044 -0.0976  0.1876
  548MOL0     C75508   5.221   2.292   4.018  0.2564  0.4694  0.1938
  548MOL0     C75509   5.149   2.261   3.876  0.4035  0.5442  0.1002
  548MOL0     O75510   5.065   2.150   3.914  0.0099  0.2924 -0.6696
  548MOL0     C75511   4.936   2.187   3.950  0.0019  0.1002 -0.1486
  548MOL0     C75512   4.844   2.232   3.856 -0.6990  0.0691  0.1069
  548MOL0     C75513   4.708   2.263   3.881  0.3336 -0.1458 -0.1145
  548MOL0     C75514   4.620   2.301   3.761 -0.0085  0.3461 -0.1212
  548MOL0     C75515   4.655   2.251   4.015 -0.4133 -0.5097  0.3491
  548MOL0     C75516   4.508   2.271   4.058  0.2775 -0.6077 -0.6579
  548MOL0     O75517   4.411   2.287   3.968  0.1273  0.2090 -0.3797
  548MOL0     C75518   4.282   2.309   4.017 -0.1477 -0.8732 -0.1319
  548MOL0     C75519   4.208   2.227   4.100  0.2069  0.3548 -0.6312
  548MOL0     C75520   4.076   2.258   4.140  0.2467  0.4297 -0.1423
  548MOL0     C75521   4.013   2.372   4.083 -0.3137 -0.0316  0.3443
  548MOL0     O75522   3.882   2.404   4.083  0.1677 -0.4290 -1.0425
  548MOL0     C75523   3.820   2.409   4.214  0.3060 -0.0265 -0.5976
  548MOL0     C75524   3.738   2.291   4.267 -0.1944 -0.7494 -0.2322
  548MOL0     C75525   3.588   2.319   4.218  0.2093 -0.1661 -0.2330
  548MOL0     C75526   3.490   2.219   4.284  0.5858 -0.0222  0.3950
  548MOL0     C75527   3.345   2.281   4.288  0.2749  0.1196 -0.4498
  548MOL0     C75528   3.224   2.181   4.335 -0.7756 -0.2428  0.3821
  548MOL0     C75529   3.234   2.159   4.489 -0.6694  0.7730  0.0526
  548MOL0     C75530   3.099   2.108   4.548  0.7419  0.6388 -0.6544
  548MOL0    Cl75531   3.049   1.948   4.467  0.0759 -0.7283 -0.3800
  548MOL0     C75532   4.087   2.455   4.003 -0.4110  0.4116  0.7116
  548MOL0     C75533   4.222   2.424   3.974  0.8351  0.2071  0.1370
  548MOL0     O75534   4.491   2.274   4.180  0.0308 -0.2007  0.0919
  548MOL0     C75535   4.749   2.207   4.112 -0.7210 -0.8151 -0.3256
  548MOL0     C75536   4.877   2.163   4.077  0.2877 -0.5656  0.6036
  548MOL0     N75537   5.640   2.483   4.077 -0.1516  0.4093  0.1941
  548MOL0     N75538   5.723   2.590   4.092  0.9542 -0.5194 -0.7294
  548MOL0     C75539   5.561   3.555   3.716  0.7369 -0.3661 -0.1216
  548MOL0     C75540   5.457   3.614   3.646  0.5381  0.5814  0.6223
  548MOL0     C75541   5.062   3.729   3.437  0.2987 -0.2914  0.7861
  548MOL0     C75542   5.049   3.821   3.333 -0.3734  0.1369 -0.2228
  548MOL0     C75543   4.932   3.841   3.263  0.4577  0.1615  0.3264
  548MOL0     C75544   4.821   3.767   3.286 -0.3361  0.1172  0.4320
  548MOL0     O75545   4.700   3.782   3.217 -0.6656  0.0833  0.2261
  548MOL0     C75546   4.601   3.682   3.204  0.1825  0.2364  0.0144
  548MOL0     C75547   4.498   3.691   3.095  1.0068 -0.2807  0.5750
  548MOL0     C75548   4.388   3.584   3.120 -0.2594 -0.1396 -0.0773
  548MOL0     C75549   4.256   3.633   3.079 -0.5675 -0.1813  0.4366
  548MOL0     C75550   4.164   3.535   3.018 -1.1948  0.7655  0.4982
  548MOL0     C75551   4.107   3.451   2.954  0.2288  0.2014  0.4867
  548MOL0     C75552   4.836   3.665   3.388 -0.0936 -0.5155  0.5943
  548MOL0     C75553   4.952   3.643   3.458 -0.3725  0.1829  0.0656
  548MOL0     C75554   4.945   3.534   3.569  0.1822 -0.5754  0.1773
  548MOL0     H75555   5.221   3.382   3.702  2.8981 -3.8479 -1.8739
  548MOL0     H75556   5.412   3.287   3.840  1.2903 -0.2257  1.4034
  548MOL0     H75557   5.785   3.524   3.871  0.5038 -0.1432  2.0510
  548MOL0     H75558   5.788   3.405   3.739  3.1262  1.2708  0.9769
  548MOL0     H75559   5.957   3.375   3.901 -0.2554  0.1245 -0.7806
  548MOL0     H75560   5.856   3.366   4.034  6.5239  1.0282  1.0366
  548MOL0     H75561   5.747   3.151   3.919 -0.1661  2.2516 -0.0247
  548MOL0     H75562   5.891   3.148   3.811 -3.8263  0.2034 -2.1830
  548MOL0     H75563   6.040   3.132   4.003 -0.1237 -0.5321  1.3571
  548MOL0     H75564   5.897   3.125   4.111 -3.2480 -0.4013 -0.2972
  548MOL0     H75565   5.965   2.901   4.091 -2.7273  1.3255  2.1437
  548MOL0     H75566   5.994   2.910   3.918 -0.5991 -3.7018  1.9984
  548MOL0     H75567   5.748   2.927   3.860  0.7792 -1.4186 -1.9703
  548MOL0     H75568   5.809   2.785   3.919 -2.5939  1.0215 -1.5502
  548MOL0     H75569   5.587   2.882   4.012 -1.5891 -2.0989  2.4918
  548MOL0     H75570   5.674   3.007   4.094 -1.4532 -0.6074  1.4132
  548MOL0     H75571   5.798   2.810   4.233  1.3484 -1.6064 -0.7092
  548MOL0     H75572   5.630   2.859   4.265  2.8639  1.9348  1.2795
  548MOL0     H75573   5.431   2.704   4.219 -1.8814 -1.3106 -0.2100
  548MOL0     H75574   5.341   2.464   4.229 -0.6925 -0.0960  1.0189
  548MOL0     H75575   5.426   2.321   4.179 -2.3113 -0.0278  2.7706
  548MOL0     H75576   5.249   2.505   4.008  0.7637  0.2589 -1.3565
  548MOL0     H75577   5.379   2.420   3.925 -0.5056  1.1259 -0.3293
  548MOL0     H75578   5.276   2.204   4.051  0.3097  0.4446  0.0427
  548MOL0     H75579   5.142   2.306   4.093 -0.5927 -4.8049  0.6779
  548MOL0     H75580   5.088   2.343   3.838 -0.7944  0.9946  2.7624
  548MOL0     H75581   5.216   2.227   3.796 -1.0198  0.5822 -1.1396
  548MOL0     H75582   4.874   2.232   3.752 -1.4549  2.1169 -0.1457
  548MOL0     H75583   4.607   2.409   3.764  1.2977  0.5029  1.7832
  548MOL0     H75584   4.533   2.235   3.769 -1.7891  2.3187 -1.9085
  548MOL0     H75585   4.664   2.280   3.663  2.7233 -2.1230  1.4676
  548MOL0     H75586   4.252   2.132   4.127  0.4383  0.8997  1.0803
  548MOL0     H75587   4.017   2.194   4.205  0.8389 -0.5003 -0.5057
  548MOL0     H75588   3.896   2.432   4.289  0.4743 -0.4260 -0.6411
  548MOL0     H75589   3.757   2.497   4.212  1.6577  0.9621 -1.8350
  548MOL0     H75590   3.792   2.207   4.224  1.2441  0.4220 -0.8135
  548MOL0     H75591   3.745   2.294   4.377  0.8315  2.3294 -0.2737
  548MOL0     H75592   3.581   2.320   4.109 -1.8419  0.6105 -0.1438
  548MOL0     H75593   3.551   2.416   4.253 -1.1341 -1.4566  2.1482
  548MOL0     H75594   3.516   2.195   4.388 -2.0893  0.8952  1.3851
  548MOL0     H75595   3.497   2.121   4.237  0.1446 -0.0584  0.3980
  548MOL0     H75596   3.330   2.383   4.323 -3.3418 -0.9196  1.5838
  548MOL0     H75597   3.315   2.290   4.183  1.6287  1.2736 -0.7511
  548MOL0     H75598   3.220   2.083   4.287  1.4834 -0.6901  0.9625
  548MOL0     H75599   3.132   2.236   4.316 -0.4888  0.6102  1.4005
  548MOL0     H75600   3.264   2.255   4.531  0.8334  1.0025 -1.4405
  548MOL0     H75601   3.321   2.097   4.510  1.2366  3.4530  0.6275
  548MOL0     H75602   3.011   2.172   4.538 -0.9014 -0.9475  2.2335
  548MOL0     H75603   3.108   2.093   4.656  1.3746  0.0039 -0.7896
  548MOL0     H75604   4.046   2.548   3.965  4.7459  3.0339  0.6185
  548MOL0     H75605   4.282   2.492   3.914 -0.1725  2.9330  2.0643
  548MOL0     H75606   4.717   2.183   4.213 -0.2239 -0.0574  0.0268
  548MOL0     H75607   4.942   2.118   4.151 -0.1064 -2.0050  0.1153
  548MOL0     H75608   5.658   3.604   3.702  1.1156 -1.0135  0.2020
  548MOL0     H75609   5.484   3.707   3.596  1.2948 -0.0984 -0.2724
  548MOL0     H75610   5.132   3.882   3.298 -0.2759  1.5641  2.2773
  548MOL0     H75611   4.925   3.916   3.185  0.6544  1.0426  1.1346
  548MOL0     H75612   4.643   3.581   3.194 -0.1120  0.1193 -0.0631
  548MOL0     H75613   4.546   3.684   3.299 -2.1097 -1.2719 -1.1738
  548MOL0     H75614   4.545   3.669   2.999  0.9658 -0.8522  0.6846
  548MOL0     H75615   4.453   3.791   3.091  0.0850 -0.6238  1.7108
  548MOL0     H75616   4.424   3.497   3.065 -0.5238  0.9133 -2.0008
  548MOL0     H75617   4.398   3.529   3.214  4.4579 -1.5319 -1.1431
  548MOL0     H75618   4.263   3.729   3.027  0.0664  0.2986  1.3627
  548MOL0     H75619   4.200   3.672   3.165 -0.1632 -1.4697  1.3110
  548MOL0     H75620   4.029   3.389   2.914  0.1721  0.8939 -0.4958
  548MOL0     H75621   4.753   3.600   3.414 -2.0843  1.8000  0.4860
  548MOL0     H75622   4.987   3.561   3.667 -0.5595  0.7116  0.1607
  548MOL0     H75623   4.838   3.514   3.569  0.3933 -2.0599 -1.9027
  548MOL0     H75624   5.003   3.444   3.544 -0.5252 -1.0192  0.0958
  549MOL0     O75625  11.178   0.380   3.223  1.4897  0.2967  0.2615
  549MOL0     C75626  11.134   0.491   3.235  1.2231 -0.3788  0.7913
  549MOL0     O75627  11.032   0.538   3.157  0.1439 -0.2693  0.6040
  549MOL0     C75628  10.972   0.463   3.057 -1.7745 -0.8176 -0.0247
  549MOL0     C75629  10.938   0.326   3.079  0.2723  0.0385 -0.1285
  549MOL0     C75630  10.858   0.253   2.995  0.1317 -0.1502  0.2424
  549MOL0     C75631  10.823   0.309   2.871 -0.4682  0.5506 -0.0719
  549MOL0     O75632  10.737   0.257   2.782 -0.3651 -0.1445 -0.3374
  549MOL0     C75633  10.656   0.148   2.826 -0.3357  0.8035 -0.3395
  549MOL0     C75634  10.536   0.200   2.917  0.1523 -0.2958  0.3078
  549MOL0     C75635  10.450   0.082   2.960 -0.2607  0.7763 -0.7832
  549MOL0     C75636  10.337   0.133   3.051  0.1068 -0.6289 -1.0026
  549MOL0     C75637  10.218   0.035   3.066  0.9042 -0.4414 -0.9168
  549MOL0     C75638  10.258  -0.108   3.101 -0.3531 -0.3894  0.5617
  549MOL0     C75639  10.342  -0.125   3.219  0.7437  0.6394  0.2164
  549MOL0     C75640  10.400  -0.269   3.246  0.6266 -0.0761 -0.3430
  549MOL0     N75641  10.549  -0.273   3.254  0.2109  0.4996 -0.5640
  549MOL0     C75642  10.633  -0.258   3.150 -0.1263  0.0694 -0.1212
  549MOL0     C75643  10.758  -0.257   3.202 -0.3540  0.6628  0.6641
  549MOL0     C75644  10.886  -0.240   3.138 -0.2899  0.5944 -0.3356
  549MOL0     C75645  10.954  -0.376   3.125  0.0593  0.3026  0.7365
  549MOL0     C75646  11.070  -0.389   3.224 -0.0423  0.8572 -0.8237
  549MOL0     C75647  11.193  -0.320   3.172 -0.2095 -0.3283 -0.4571
  549MOL0     O75648  11.283  -0.302   3.283  0.4767 -0.1125  0.3529
  549MOL0     C75649  11.416  -0.287   3.255 -0.5325 -0.5717  0.8953
  549MOL0     C75650  11.465  -0.256   3.126  0.4137  0.3564  0.5938
  549MOL0     C75651  11.603  -0.237   3.108  0.0577  0.5866  0.0281
  549MOL0     C75652  11.647  -0.200   2.969  0.8710 -0.2402  0.4547
  549MOL0     C75653  11.691  -0.266   3.210 -0.9929 -0.0579  1.0019
  549MOL0     C75654  11.841  -0.243   3.200 -0.4486  0.3209  0.6971
  549MOL0     O75655  11.914  -0.339   3.268  0.3126  0.6100  1.0815
  549MOL0     C75656  12.051  -0.348   3.249  0.2414  0.1419  1.2789
  549MOL0     C75657  12.128  -0.377   3.360 -0.1162  0.0494  0.3827
  549MOL0     C75658  12.268  -0.392   3.352 -0.1484 -0.1746  0.1066
  549MOL0     C75659  12.338  -0.382   3.226  0.2470 -0.2049  0.5101
  549MOL0     O75660  12.468  -0.402   3.190 -0.6796 -0.7603 -0.3709
  549MOL0     C75661  12.568  -0.411   3.292  0.2081 -0.0382  0.4786
  549MOL0     C75662  12.568  -0.557   3.348  0.2796 -0.1313  0.2985
  549MOL0     C75663  12.597  -0.658   3.231 -0.0666  0.6862  0.3372
  549MOL0     C75664  12.640  -0.802   3.269 -0.0444  0.1331  0.0755
  549MOL0     C75665  12.540  -0.879   3.366  0.0606  0.6889  0.3609
  549MOL0     C75666  12.599  -1.010   3.416 -0.6733 -0.1433  0.4453
  549MOL0     C75667  12.554  -1.038   3.563 -0.1690  1.1628 -0.6784
  549MOL0     C75668  12.636  -1.158   3.614  0.1667  0.8726 -0.3420
  549MOL0    Cl75669  12.807  -1.117   3.632  0.1357 -0.3291  0.1308
  549MOL0     C75670  12.252  -0.371   3.117 -0.2292  0.2717 -0.1709
  549MOL0     C75671  12.113  -0.357   3.122 -0.6222 -0.0842 -0.2730
  549MOL0     O75672  11.893  -0.141   3.148  0.4485  0.2317  0.1543
  549MOL0     C75673  11.649  -0.303   3.334  0.2022 -0.0955  0.6993
  549MOL0     C75674  11.514  -0.307   3.352  0.4006 -0.3275 -0.5681
  549MOL0     N75675  10.749  -0.289   3.338  0.1032  0.0411  0.0771
  549MOL0     N75676  10.623  -0.291   3.373  0.0658  0.1077  0.6245
  549MOL0     C75677  10.876   0.437   2.834 -0.1718  0.0782 -0.8241
  549MOL0     C75678  10.950   0.515   2.926 -0.5812 -0.4660  0.3902
  549MOL0     C75679  11.193   0.566   3.356  0.7915  0.2649  0.4618
  549MOL0     C75680  11.254   0.496   3.458  0.5788  0.3696 -0.3122
  549MOL0     C75681  11.294   0.561   3.574  0.6681  0.1542  0.5556
  549MOL0     C75682  11.275   0.692   3.597  0.4779  0.3509  1.0650
  549MOL0     O75683  11.312   0.760   3.702  0.1016  0.0546 -0.4372
  549MOL0     C75684  11.391   0.692   3.804  0.2586  0.2588 -0.5266
  549MOL0     C75685  11.457   0.793   3.899 -0.7297  0.0363  1.0504
  549MOL0     C75686  11.582   0.834   3.825  0.2478  0.5349  0.0282
  549MOL0     C75687  11.665   0.943   3.890  0.0005  0.2410 -0.3788
  549MOL0     C75688  11.588   1.064   3.936  0.4242 -0.2658  0.7662
  549MOL0     C75689  11.557   1.168   3.991 -0.1664  0.3530  0.1696
  549MOL0     C75690  11.220   0.771   3.497  0.4870 -0.3344  0.1271
  549MOL0     C75691  11.179   0.711   3.374 -0.3240 -0.5461  0.4304
  549MOL0     C75692  11.109   0.803   3.276  0.4284  1.0232  0.3266
  549MOL0     H75693  10.968   0.281   3.174  0.4153 -1.8222 -1.0032
  549MOL0     H75694  10.821   0.156   3.027  0.1449 -0.6984 -1.2824
  549MOL0     H75695  10.710   0.064   2.872  1.3515  2.0503  0.0780
  549MOL0     H75696  10.616   0.103   2.735  2.2677  1.6202 -1.9743
  549MOL0     H75697  10.577   0.240   3.009  0.4567 -0.2476  0.1519
  549MOL0     H75698  10.476   0.276   2.866 -1.0444 -0.4221  1.4759
  549MOL0     H75699  10.399   0.036   2.875 -1.7608 -1.4551  1.1713
  549MOL0     H75700  10.498  -0.003   3.009 -0.9837  0.4332 -0.6500
  549MOL0     H75701  10.384   0.174   3.140 -0.4159  0.2903 -1.1350
  549MOL0     H75702  10.296   0.230   3.023  1.9110  0.8120  1.0348
  549MOL0     H75703  10.161   0.035   2.973 -0.8328  0.8436  0.0752
  549MOL0     H75704  10.144   0.065   3.141 -0.6213  0.4949 -2.6978
  549MOL0     H75705  10.169  -0.168   3.122 -1.4205  2.0257  3.6751
  549MOL0     H75706  10.307  -0.148   3.012  1.1756 -0.1320  1.2639
  549MOL0     H75707  10.274  -0.101   3.301  0.4567  3.3226 -0.7032
  549MOL0     H75708  10.434  -0.065   3.222  0.3236  1.2759  0.8478
  549MOL0     H75709  10.372  -0.296   3.348  3.3124 -2.9586 -0.2164
  549MOL0     H75710  10.367  -0.339   3.168 -1.2500  2.1366 -1.6565
  549MOL0     H75711  10.595  -0.235   3.050 -1.7151 -2.8527 -0.3186
  549MOL0     H75712  10.953  -0.169   3.186 -0.3665  0.1731  0.4245
  549MOL0     H75713  10.861  -0.194   3.042 -3.2402  3.0866  1.4341
  549MOL0     H75714  10.875  -0.449   3.144 -0.9198  1.4984  1.4154
  549MOL0     H75715  10.998  -0.388   3.026 -0.0703  0.2582  0.6831
  549MOL0     H75716  11.033  -0.345   3.317 -1.8267 -1.4198 -0.3407
  549MOL0     H75717  11.098  -0.494   3.238  0.3451  0.9232 -1.0900
  549MOL0     H75718  11.236  -0.389   3.100 -0.7447 -0.2479 -0.8595
  549MOL0     H75719  11.167  -0.229   3.118  3.8144  1.7222  0.6887
  549MOL0     H75720  11.400  -0.243   3.041  1.7813  0.5417 -0.4658
  549MOL0     H75721  11.565  -0.220   2.899 -0.2118  1.9893  1.0118
  549MOL0     H75722  11.738  -0.248   2.933  1.3038  0.1892  0.9621
  549MOL0     H75723  11.672  -0.094   2.968 -1.8163  0.5294  2.4197
  549MOL0     H75724  12.078  -0.367   3.456 -1.7059 -2.3259 -0.1191
  549MOL0     H75725  12.308  -0.405   3.452 -4.5930  0.3868  2.2012
  549MOL0     H75726  12.658  -0.394   3.233 -0.1476  1.1425  0.2544
  549MOL0     H75727  12.555  -0.331   3.365 -1.7669  1.4301 -1.3748
  549MOL0     H75728  12.654  -0.556   3.416 -1.3800  3.8960  2.6892
  549MOL0     H75729  12.480  -0.575   3.411  1.4865  0.1529  2.1460
  549MOL0     H75730  12.668  -0.615   3.159 -2.2442 -0.9693 -3.0205
  549MOL0     H75731  12.506  -0.680   3.175 -0.4238 -0.7497  1.4332
  549MOL0     H75732  12.742  -0.793   3.306 -0.6317 -0.2486  1.8687
  549MOL0     H75733  12.647  -0.859   3.176  0.4703  2.2914 -1.2934
  549MOL0     H75734  12.502  -0.814   3.445 -0.5063  1.4643 -0.5226
  549MOL0     H75735  12.452  -0.916   3.311  0.1735 -1.3756  1.4639
  549MOL0     H75736  12.707  -1.024   3.400 -0.6468  0.5729 -0.0350
  549MOL0     H75737  12.556  -1.086   3.350 -1.4680  0.1327  0.6449
  549MOL0     H75738  12.449  -1.070   3.562 -0.0550  0.6959  0.4867
  549MOL0     H75739  12.581  -0.951   3.623  1.3024  1.3032 -1.5159
  549MOL0     H75740  12.627  -1.248   3.552  0.7901  1.0140 -0.6414
  549MOL0     H75741  12.601  -1.183   3.715 -3.1774  2.6990 -0.9240
  549MOL0     H75742  12.286  -0.369   3.014 -0.1736 -0.7794 -0.1895
  549MOL0     H75743  12.053  -0.362   3.031 -2.8680 -2.5457  1.1833
  549MOL0     H75744  11.719  -0.322   3.415 -1.4445  1.1491  2.5211
  549MOL0     H75745  11.476  -0.325   3.452 -1.5244 -1.9567 -1.5230
  549MOL0     H75746  10.853   0.469   2.733  2.1318 -1.1018 -1.7973
  549MOL0     H75747  10.981   0.618   2.911 -1.7346 -0.1290  0.2144
  549MOL0     H75748  11.260   0.388   3.452  3.0873  0.5040 -1.8333
  549MOL0     H75749  11.344   0.493   3.642  1.1327 -3.3633 -2.9121
  549MOL0     H75750  11.326   0.629   3.864  2.5565  0.4478  2.3958
  549MOL0     H75751  11.467   0.625   3.763 -0.3098 -0.9665  0.3780
  549MOL0     H75752  11.489   0.748   3.994  1.4518 -3.2108 -1.0100
  549MOL0     H75753  11.391   0.878   3.915  1.6417  2.1911  0.0431
  549MOL0     H75754  11.644   0.744   3.827 -1.6776 -0.8472  0.9194
  549MOL0     H75755  11.550   0.858   3.723  2.4687 -1.3889 -1.2248
  549MOL0     H75756  11.747   0.970   3.823  1.7168 -0.0290  1.5256
  549MOL0     H75757  11.708   0.916   3.986 -0.7408  0.2635 -0.0379
  549MOL0     H75758  11.536   1.252   4.054  2.1814 -0.7731  2.6472
  549MOL0     H75759  11.191   0.874   3.510  1.6681  0.0076  0.1330
  549MOL0     H75760  11.009   0.767   3.253  1.2998 -1.0182 -0.4864
  549MOL0     H75761  11.104   0.904   3.320  0.5905  0.2629  2.1792
  549MOL0     H75762  11.169   0.809   3.185  0.1026  0.8023  0.0987
  550MOL0     O75763   6.849  10.981   4.799  0.1235 -0.3966 -0.2940
  550MOL0     C75764   6.749  10.915   4.838 -0.1428 -0.0724 -0.2928
  550MOL0     O75765   6.753  10.787   4.872 -0.5670  0.7024  0.2191
  550MOL0     C75766   6.861  10.709   4.856 -0.9167 -0.0812 -0.2338
  550MOL0     C75767   6.912  10.631   4.961  0.6174  0.3035  1.1335
  550MOL0     C75768   7.025  10.542   4.947  0.8866 -0.1098  0.4344
  550MOL0     C75769   7.096  10.538   4.829  0.0928 -0.4565  0.3590
  550MOL0     O75770   7.207  10.457   4.834  0.1260  0.5275  0.4495
  550MOL0     C75771   7.270  10.423   4.702  0.4255  1.1619  0.0664
  550MOL0     C75772   7.373  10.320   4.731 -0.1986  0.8577  0.0418
  550MOL0     C75773   7.487  10.282   4.625  0.9744  0.3298  0.1544
  550MOL0     C75774   7.428  10.251   4.482  0.6005 -0.3423 -0.3331
  550MOL0     C75775   7.537  10.214   4.381  0.0949  0.4662 -0.8762
  550MOL0     C75776   7.594  10.349   4.321  0.4308  0.0456  0.3904
  550MOL0     C75777   7.720  10.334   4.234  0.2980 -0.6695 -0.3078
  550MOL0     C75778   7.856  10.305   4.295 -0.2227  0.5078 -0.2265
  550MOL0     N75779   7.902  10.397   4.403 -0.1589  0.4200  1.2481
  550MOL0     C75780   7.929  10.530   4.403 -0.3843  0.9435 -0.2933
  550MOL0     C75781   7.951  10.561   4.531  0.2177 -0.7125 -0.4676
  550MOL0     C75782   7.969  10.707   4.577 -0.2003  0.5250 -0.5746
  550MOL0     C75783   7.842  10.768   4.626  0.0445  0.0802  0.2949
  550MOL0     C75784   7.822  10.920   4.605 -0.3854  0.1496  0.0430
  550MOL0     C75785   7.822  10.954   4.454 -0.4592  0.4107  0.0718
  550MOL0     O75786   7.737  10.866   4.380  0.3714  0.1316 -0.5449
  550MOL0     C75787   7.600  10.874   4.365 -0.4724  1.0858 -0.0670
  550MOL0     C75788   7.537  10.759   4.326 -0.3903 -0.5788  0.0387
  550MOL0     C75789   7.394  10.754   4.322  0.2129 -0.4258 -0.1743
  550MOL0     C75790   7.338  10.626   4.262 -0.1047  0.4717  0.0432
  550MOL0     C75791   7.309  10.860   4.367  0.3324 -0.6733 -0.4385
  550MOL0     C75792   7.163  10.849   4.405 -0.3538 -0.2743 -0.2433
  550MOL0     O75793   7.096  10.968   4.422 -0.2754 -0.2004  0.1282
  550MOL0     C75794   6.958  10.977   4.401 -0.3161  0.3583 -0.2058
  550MOL0     C75795   6.877  11.048   4.491  0.1066 -0.1158  0.3937
  550MOL0     C75796   6.742  11.043   4.482 -0.7819  0.2664  0.3233
  550MOL0     C75797   6.681  10.967   4.380 -0.9576 -0.3164 -0.3067
  550MOL0     O75798   6.547  10.940   4.392 -0.1727  0.6820 -0.5956
  550MOL0     C75799   6.452  11.013   4.473  0.6061 -0.1771  0.2409
  550MOL0     C75800   6.453  11.157   4.407 -0.8814  0.3265 -0.4088
  550MOL0     C75801   6.390  11.256   4.502  0.5210 -0.7794  0.2334
  550MOL0     C75802   6.247  11.231   4.538 -0.2170  0.0080 -0.2759
  550MOL0     C75803   6.152  11.244   4.422  0.3617  0.6617 -0.1484
  550MOL0     C75804   6.117  11.382   4.378 -0.0469  0.2145 -0.2137
  550MOL0     C75805   5.964  11.374   4.350  0.9923 -1.0051 -0.5872
  550MOL0     C75806   5.907  11.502   4.298 -0.2998 -0.5356  1.0259
  550MOL0    Cl75807   5.949  11.642   4.406 -0.5267 -0.3392  0.2880
  550MOL0     C75808   6.755  10.902   4.285  0.4717  0.5853  0.0963
  550MOL0     C75809   6.893  10.902   4.300 -1.0932 -0.3361  1.2797
  550MOL0     O75810   7.119  10.737   4.418  0.7305  0.0143  0.0355
  550MOL0     C75811   7.384  10.980   4.413 -0.1029 -0.2074  0.4494
  550MOL0     C75812   7.526  10.986   4.404 -0.5930  0.6811  0.5554
  550MOL0     N75813   7.945  10.451   4.609  0.0428  0.1293 -0.2620
  550MOL0     N75814   7.919  10.352   4.532  0.0799 -0.0836  0.4218
  550MOL0     C75815   7.050  10.620   4.728 -0.3443  0.5904  0.0126
  550MOL0     C75816   6.933  10.696   4.735 -0.4311 -0.7814 -0.8215
  550MOL0     C75817   6.629  10.991   4.860 -0.0209 -0.5494  0.2128
  550MOL0     C75818   6.508  10.919   4.874 -0.4128 -0.4784  0.1888
  550MOL0     C75819   6.380  10.982   4.887  0.4723  0.5069  0.2950
  550MOL0     C75820   6.373  11.117   4.878  0.9444 -0.1289 -0.7250
  550MOL0     O75821   6.259  11.195   4.877  0.0805  0.2955 -0.6355
  550MOL0     C75822   6.132  11.137   4.841  0.6183 -0.3026 -0.2692
  550MOL0     C75823   6.042  11.100   4.961 -1.0662 -0.0892  0.1120
  550MOL0     C75824   6.042  11.211   5.067  0.1484  0.0209  0.1197
  550MOL0     C75825   5.972  11.162   5.196  0.1416  0.0984 -0.1177
  550MOL0     C75826   6.054  11.056   5.263  0.1822 -0.6263  0.1509
  550MOL0     C75827   6.131  10.989   5.328 -0.0247 -0.1938 -0.9547
  550MOL0     C75828   6.486  11.195   4.875 -0.4311  0.3015 -0.3682
  550MOL0     C75829   6.616  11.137   4.869  0.1847 -0.9699 -0.0161
  550MOL0     C75830   6.729  11.240   4.852 -0.0923  0.3351 -0.3704
  550MOL0     H75831   6.856  10.638   5.054 -0.7780  0.9177  0.2781
  550MOL0     H75832   7.062  10.481   5.028 -0.5929  2.1471  2.9681
  550MOL0     H75833   7.331  10.507   4.667  2.3029 -0.6513 -1.2155
  550MOL0     H75834   7.193  10.400   4.628  1.0691  0.5778 -0.4269
  550MOL0     H75835   7.430  10.356   4.817  4.7350 -2.6218 -1.2719
  550MOL0     H75836   7.320  10.228   4.757 -3.1888  3.1515  2.7856
  550MOL0     H75837   7.556  10.367   4.628 -0.1969  1.2779  1.6154
  550MOL0     H75838   7.538  10.196   4.671 -0.0110  0.6123  1.8587
  550MOL0     H75839   7.353  10.171   4.483 -1.0002  1.0774  0.2324
  550MOL0     H75840   7.380  10.347   4.458 -0.1988  0.4897  3.7538
  550MOL0     H75841   7.494  10.158   4.298 -0.0094  0.9727 -1.1702
  550MOL0     H75842   7.614  10.157   4.434 -1.0755 -1.2253 -0.9454
  550MOL0     H75843   7.513  10.393   4.261  1.0192 -0.8217 -1.0741
  550MOL0     H75844   7.621  10.422   4.398  1.7187 -1.3709  1.3389
  550MOL0     H75845   7.729  10.429   4.181 -0.6021  0.0480  0.7781
  550MOL0     H75846   7.697  10.250   4.168 -2.8521 -1.0040  0.9875
  550MOL0     H75847   7.847  10.199   4.322  2.5523  0.2129 -0.1782
  550MOL0     H75848   7.927  10.309   4.212 -0.3688 -1.5897 -0.5015
  550MOL0     H75849   7.933  10.599   4.320 -1.0967 -0.4421 -1.5329
  550MOL0     H75850   8.024  10.768   4.504  0.1875  2.0186  0.9129
  550MOL0     H75851   8.037  10.693   4.661 -1.4352  2.4453  0.8364
  550MOL0     H75852   7.759  10.711   4.582  0.4330  0.0631 -0.4286
  550MOL0     H75853   7.835  10.745   4.733  0.4229 -2.0917 -0.0862
  550MOL0     H75854   7.723  10.945   4.644 -0.1755  1.2482 -0.0840
  550MOL0     H75855   7.897  10.972   4.665  3.0877 -3.0128 -1.1229
  550MOL0     H75856   7.793  11.059   4.449  0.3978  0.6286 -0.4653
  550MOL0     H75857   7.922  10.944   4.411 -0.2934 -3.1514  0.9197
  550MOL0     H75858   7.595  10.672   4.299  0.7262 -0.6369  2.3665
  550MOL0     H75859   7.409  10.581   4.192 -1.1959  0.3992 -1.0523
  550MOL0     H75860   7.248  10.652   4.206  0.7184 -0.2341 -1.6862
  550MOL0     H75861   7.307  10.562   4.345  0.0747  0.9533  0.4883
  550MOL0     H75862   6.923  11.088   4.581  1.2597 -1.4929  0.4587
  550MOL0     H75863   6.678  11.084   4.559 -2.0526 -2.0656  0.5730
  550MOL0     H75864   6.351  10.975   4.462  1.5230 -2.4102 -1.1403
  550MOL0     H75865   6.475  11.009   4.580  1.3281 -0.8359  0.0710
  550MOL0     H75866   6.555  11.192   4.391 -0.6952  0.1632  0.3905
  550MOL0     H75867   6.409  11.147   4.307 -1.8086 -1.7566  0.1479
  550MOL0     H75868   6.401  11.359   4.468 -0.8804 -0.6922  0.0103
  550MOL0     H75869   6.439  11.255   4.600  0.5473 -2.7758  0.2386
  550MOL0     H75870   6.221  11.303   4.616 -1.4027 -1.8586  1.1034
  550MOL0     H75871   6.245  11.132   4.584 -0.2029  2.0548  4.7928
  550MOL0     H75872   6.174  11.175   4.339 -0.4031 -3.2053  2.5682
  550MOL0     H75873   6.058  11.196   4.450  0.7169 -0.5974 -0.9971
  550MOL0     H75874   6.174  11.419   4.292 -3.1365 -0.2114 -2.6412
  550MOL0     H75875   6.119  11.456   4.458 -2.7731  0.2768 -0.1105
  550MOL0     H75876   5.906  11.353   4.439  1.4689  5.2598  1.6762
  550MOL0     H75877   5.944  11.291   4.281 -1.3144 -0.2563 -0.9102
  550MOL0     H75878   5.799  11.505   4.280  0.0273  1.0291 -1.0517
  550MOL0     H75879   5.951  11.529   4.201 -1.8297  0.0589  0.4617
  550MOL0     H75880   6.721  10.846   4.199  3.0831 -0.7500 -0.1637
  550MOL0     H75881   6.953  10.851   4.225 -0.4408  3.0138 -0.6730
  550MOL0     H75882   7.330  11.067   4.448  1.9153  0.1602  2.9531
  550MOL0     H75883   7.578  11.072   4.447  2.4342 -2.0122  2.8000
  550MOL0     H75884   7.116  10.629   4.642  0.1849 -0.8070  0.2331
  550MOL0     H75885   6.903  10.752   4.647 -1.8296 -0.8930 -0.4434
  550MOL0     H75886   6.515  10.810   4.878 -2.1156 -0.5812  0.9960
  550MOL0     H75887   6.290  10.928   4.912  2.3094 -2.1593  1.6615
  550MOL0     H75888   6.067  11.202   4.782 -3.2023 -2.5671  1.0800
  550MOL0     H75889   6.140  11.045   4.781 -3.7824 -2.1606  1.5316
  550MOL0     H75890   6.085  11.009   5.005  0.7970  0.3878 -0.6278
  550MOL0     H75891   5.938  11.072   4.940 -2.0050  2.0826  1.5635
  550MOL0     H75892   6.147  11.216   5.097 -0.2345 -0.1789  1.6151
  550MOL0     H75893   6.007  11.302   5.019  0.5561 -1.5094 -3.3814
  550MOL0     H75894   5.867  11.135   5.185  0.0740  0.8464 -1.5044
  550MOL0     H75895   5.989  11.247   5.262  0.5433  0.3571 -0.5402
  550MOL0     H75896   6.203  10.936   5.386 -1.0700 -1.1870 -0.5231
  550MOL0     H75897   6.474  11.303   4.872  1.1426  0.4878 -0.9033
  550MOL0     H75898   6.773  11.226   4.752 -1.7814  0.1633 -1.1201
  550MOL0     H75899   6.698  11.344   4.856 -2.2328 -0.2832  0.2268
  550MOL0     H75900   6.805  11.215   4.926 -1.0431  2.5968  1.4726
  551MOL0     O75901   1.337   3.865   4.215  0.1181  0.5312  0.4093
  551MOL0     C75902   1.401   3.784   4.143 -0.3485 -0.5162  0.5292
  551MOL0     O75903   1.448   3.663   4.178  0.3697  0.0355  0.2439
  551MOL0     C75904   1.393   3.596   4.287 -0.3241  0.1765  0.2787
  551MOL0     C75905   1.259   3.593   4.318 -0.0101 -0.1909 -0.5532
  551MOL0     C75906   1.217   3.535   4.439  0.7847  0.3440  0.6553
  551MOL0     C75907   1.300   3.468   4.522 -0.3450 -0.0933  0.0269
  551MOL0     O75908   1.251   3.409   4.644 -1.0741  0.2298  0.6035
  551MOL0     C75909   1.122   3.336   4.640  0.1652  0.0448 -0.3849
  551MOL0     C75910   1.084   3.281   4.780 -0.7030  0.0313  0.0674
  551MOL0     C75911   1.066   3.407   4.859 -0.0154 -0.3189 -0.7384
  551MOL0     C75912   0.928   3.464   4.840  0.1552  0.5580  0.3533
  551MOL0     C75913   0.888   3.573   4.948  0.9519 -0.2435  1.0964
  551MOL0     C75914   0.739   3.619   4.931  0.1071 -0.3783 -0.3966
  551MOL0     C75915   0.695   3.741   5.013 -0.2228 -0.0274 -0.0460
  551MOL0     C75916   0.545   3.763   5.012 -0.5527  0.0619  0.2740
  551MOL0     N75917   0.484   3.756   5.147  0.4701 -0.4359 -0.6103
  551MOL0     C75918   0.490   3.851   5.243 -0.4388 -1.3671 -0.1813
  551MOL0     C75919   0.414   3.811   5.347  0.1526  0.5642 -0.3672
  551MOL0     C75920   0.391   3.881   5.476 -0.6232  0.7690 -0.3337
  551MOL0     C75921   0.262   3.956   5.464 -0.8816  0.8245 -0.2646
  551MOL0     C75922   0.227   4.016   5.608  0.2383 -0.2268 -0.5846
  551MOL0     C75923   0.102   4.104   5.597  0.6719  0.7150  0.6221
  551MOL0     O75924   0.115   4.206   5.497  0.4016  0.1161 -0.3239
  551MOL0     C75925   0.216   4.293   5.491 -0.1557  0.7402 -0.3768
  551MOL0     C75926   0.231   4.354   5.370 -0.2460 -0.5725  0.2341
  551MOL0     C75927   0.339   4.443   5.343  0.7507  0.1118  0.8475
  551MOL0     C75928   0.343   4.491   5.195 -0.5392  0.3488 -0.5177
  551MOL0     C75929   0.420   4.492   5.454  0.3411 -0.2643  0.1585
  551MOL0     C75930   0.519   4.603   5.437  0.1240 -0.0634 -0.0253
  551MOL0     O75931   0.513   4.689   5.325 -0.0945  0.4170 -0.2523
  551MOL0     C75932   0.623   4.767   5.302  0.2352  0.2938 -0.3589
  551MOL0     C75933   0.713   4.730   5.199 -0.6980 -0.0557  0.1048
  551MOL0     C75934   0.827   4.811   5.187 -0.2497  0.4251  0.8489
  551MOL0     C75935   0.847   4.932   5.250 -0.1994  0.6330 -0.7069
  551MOL0     O75936   0.959   5.004   5.223  0.3276 -0.0330  0.5670
  551MOL0     C75937   0.996   5.122   5.295 -0.2370  0.0679  0.3553
  551MOL0     C75938   1.048   5.079   5.432 -0.6895  0.4062 -0.7007
  551MOL0     C75939   1.198   5.035   5.424 -0.5133  0.2086  0.1705
  551MOL0     C75940   1.267   5.015   5.554 -0.4044 -0.0606  0.1496
  551MOL0     C75941   1.392   4.934   5.545  0.0631  0.5495 -0.2979
  551MOL0     C75942   1.496   4.975   5.435  0.1200  0.5290 -0.5995
  551MOL0     C75943   1.614   4.875   5.406  0.2099  0.0738  0.6276
  551MOL0     C75944   1.690   4.844   5.525 -0.2876  0.0411 -0.6898
  551MOL0    Cl75945   1.760   5.001   5.595 -0.0134  0.1854 -0.3360
  551MOL0     C75946   0.749   4.969   5.343 -1.0271  1.2876 -1.0374
  551MOL0     C75947   0.643   4.889   5.366  0.3127  0.2830 -0.2424
  551MOL0     O75948   0.594   4.622   5.540 -0.5626 -0.0945  0.1852
  551MOL0     C75949   0.385   4.438   5.586 -0.2436 -0.4068  0.0630
  551MOL0     C75950   0.295   4.334   5.607 -0.5081 -0.0145  0.8866
  551MOL0     N75951   0.366   3.684   5.310 -0.0908 -0.1086  0.2433
  551MOL0     N75952   0.415   3.648   5.195 -1.0033  0.1184 -0.2969
  551MOL0     C75953   1.438   3.469   4.493  0.8727  0.6893  0.1248
  551MOL0     C75954   1.485   3.530   4.374  1.0993  0.1107 -0.4134
  551MOL0     C75955   1.434   3.834   4.012 -0.8109 -0.5752 -0.1525
  551MOL0     C75956   1.555   3.792   3.957  0.1199  0.1727 -0.5164
  551MOL0     C75957   1.591   3.833   3.826 -0.8418  0.3508 -0.7621
  551MOL0     C75958   1.510   3.917   3.750  0.2746  0.2675 -1.0516
  551MOL0     O75959   1.545   3.967   3.634 -0.9343 -0.4054  0.5471
  551MOL0     C75960   1.584   4.102   3.659  0.0918  0.7230  0.3221
  551MOL0     C75961   1.616   4.168   3.524 -0.2334 -0.3373 -0.3981
  551MOL0     C75962   1.654   4.316   3.546 -0.6177 -1.2135 -0.0211
  551MOL0     C75963   1.733   4.378   3.426  0.3254  0.6704  0.2533
  551MOL0     C75964   1.647   4.381   3.307 -0.1777  0.7527 -0.0288
  551MOL0     C75965   1.573   4.396   3.212  0.3541  0.0277 -0.1994
  551MOL0     C75966   1.381   3.940   3.800  0.7303  0.4138  0.6048
  551MOL0     C75967   1.343   3.907   3.924  1.0565 -0.2224  0.2571
  551MOL0     C75968   1.207   3.969   3.980 -0.0744  0.2350 -0.2564
  551MOL0     H75969   1.189   3.641   4.250 -2.1988 -0.9416  1.0570
  551MOL0     H75970   1.113   3.543   4.469  0.2309  0.2751 -1.0979
  551MOL0     H75971   1.143   3.253   4.571  0.4559 -0.1844 -0.0256
  551MOL0     H75972   1.043   3.397   4.597  0.2345  0.3151 -0.1280
  551MOL0     H75973   0.990   3.226   4.779 -0.2061 -0.8453 -0.5874
  551MOL0     H75974   1.165   3.218   4.819 -1.8023 -1.2579  0.3051
  551MOL0     H75975   1.075   3.375   4.963 -0.9319 -1.1742 -0.9167
  551MOL0     H75976   1.151   3.477   4.855  1.4398 -1.6747  2.9551
  551MOL0     H75977   0.906   3.507   4.742 -4.5288 -0.8148  0.5481
  551MOL0     H75978   0.852   3.385   4.850 -0.7809  1.1673 -1.4813
  551MOL0     H75979   0.952   3.661   4.941  0.6911 -0.2014 -1.6755
  551MOL0     H75980   0.918   3.543   5.049  2.6077  1.4043  1.1404
  551MOL0     H75981   0.719   3.643   4.826 -2.5661  0.1115  0.1508
  551MOL0     H75982   0.674   3.534   4.953  0.2866 -0.6458 -0.8961
  551MOL0     H75983   0.743   3.827   4.966 -2.8921  1.5134 -0.0977
  551MOL0     H75984   0.730   3.734   5.117  1.9507  1.5934 -0.6018
  551MOL0     H75985   0.510   3.854   4.963 -1.5367 -0.5627 -0.2324
  551MOL0     H75986   0.499   3.682   4.955 -1.2169 -0.2624  1.2447
  551MOL0     H75987   0.540   3.947   5.238 -2.1476 -0.4382 -0.2245
  551MOL0     H75988   0.479   3.942   5.499 -0.5293  0.8545 -0.9067
  551MOL0     H75989   0.375   3.806   5.554  4.2154 -0.8816 -0.6083
  551MOL0     H75990   0.280   4.038   5.394  0.3216 -0.0623 -1.0290
  551MOL0     H75991   0.182   3.888   5.431 -1.3806  1.1289  0.2937
  551MOL0     H75992   0.218   3.931   5.676  0.1137  0.8843  0.8345
  551MOL0     H75993   0.305   4.076   5.655 -1.2685  1.8141 -0.5742
  551MOL0     H75994   0.015   4.039   5.582  2.7597 -2.8035  2.5503
  551MOL0     H75995   0.086   4.153   5.693 -1.5802 -0.7956  1.0930
  551MOL0     H75996   0.173   4.331   5.281  1.5450  2.1097 -1.8021
  551MOL0     H75997   0.281   4.582   5.198  0.0143  0.7155  1.5044
  551MOL0     H75998   0.309   4.415   5.124  0.6801  0.1286 -0.8828
  551MOL0     H75999   0.447   4.517   5.172 -0.3292  0.4302  0.4953
  551MOL0     H76000   0.701   4.636   5.147 -1.1946 -2.0239  3.5004
  551MOL0     H76001   0.896   4.793   5.105 -0.2496  2.2929  0.3801
  551MOL0     H76002   1.068   5.174   5.231 -1.3546  0.4011 -0.6839
  551MOL0     H76003   0.913   5.192   5.310  1.1724  1.4986  1.8250
  551MOL0     H76004   1.048   5.162   5.503 -2.4839 -0.3175  0.1885
  551MOL0     H76005   0.995   4.991   5.470 -0.0829 -0.1358 -1.0847
  551MOL0     H76006   1.264   5.092   5.357  3.1242 -2.0949  1.4579
  551MOL0     H76007   1.188   4.932   5.390 -1.6389  0.1607  0.6155
  551MOL0     H76008   1.199   4.955   5.615  0.4178  0.5432  1.7125
  551MOL0     H76009   1.279   5.107   5.612  0.2320  0.6789 -1.1084
  551MOL0     H76010   1.445   4.929   5.641 -1.7272  4.9472  1.1922
  551MOL0     H76011   1.356   4.833   5.526 -0.8927  0.1362  3.0411
  551MOL0     H76012   1.532   5.070   5.474  0.1966 -0.4689  1.8993
  551MOL0     H76013   1.444   5.003   5.343  0.5622  1.8678 -0.4526
  551MOL0     H76014   1.683   4.923   5.337  0.9290 -1.7830 -0.0235
  551MOL0     H76015   1.578   4.782   5.361  1.0801 -1.3281  2.6466
  551MOL0     H76016   1.773   4.777   5.499 -0.9661 -0.3368 -1.9644
  551MOL0     H76017   1.625   4.802   5.603 -1.0087  0.5731 -0.9967
  551MOL0     H76018   0.762   5.060   5.400 -1.7099 -0.1290  1.5145
  551MOL0     H76019   0.564   4.922   5.433 -1.8216  0.8394 -2.8876
  551MOL0     H76020   0.437   4.480   5.672 -1.4766  0.8394  0.2386
  551MOL0     H76021   0.288   4.299   5.709  1.3802 -1.2362  0.6330
  551MOL0     H76022   1.502   3.427   4.570  0.7189  2.8415  1.4995
  551MOL0     H76023   1.591   3.546   4.361  1.5268  1.8057  3.6513
  551MOL0     H76024   1.630   3.726   4.001 -0.0077 -0.2787 -0.9724
  551MOL0     H76025   1.685   3.793   3.790  0.0709 -0.5558  2.2930
  551MOL0     H76026   1.505   4.162   3.704 -0.1766  1.3513 -0.9330
  551MOL0     H76027   1.671   4.101   3.725 -0.5516  0.0475  1.1771
  551MOL0     H76028   1.523   4.170   3.465 -2.0152  1.1467  2.2530
  551MOL0     H76029   1.691   4.108   3.471  0.6842  1.1556 -0.8489
  551MOL0     H76030   1.558   4.367   3.562  0.8037  1.3569  0.9375
  551MOL0     H76031   1.729   4.330   3.625  0.1174 -0.5185 -0.8239
  551MOL0     H76032   1.806   4.299   3.413 -0.7154 -0.0064 -2.0285
  551MOL0     H76033   1.773   4.479   3.438  0.4176  0.5884  0.6334
  551MOL0     H76034   1.511   4.405   3.125  0.8208 -1.1419 -0.6754
  551MOL0     H76035   1.308   3.989   3.737 -0.5257 -0.3689  1.4066
  551MOL0     H76036   1.161   4.031   3.903  1.5729  0.5596 -1.0319
  551MOL0     H76037   1.136   3.889   4.001  1.3850 -0.7902  1.0582
  551MOL0     H76038   1.228   4.028   4.070  2.3120  0.5990 -0.9666
  552MOL0     O76039   7.030   4.541   8.363  0.9576 -0.0609  0.0574
  552MOL0     C76040   7.113   4.626   8.378 -0.1397  0.3214  0.0211
  552MOL0     O76041   7.090   4.763   8.381 -0.5036 -0.4003 -0.4597
  552MOL0     C76042   6.965   4.805   8.347  0.0394  0.3060 -0.7133
  552MOL0     C76043   6.938   4.829   8.213  0.5996 -0.9036 -0.7252
  552MOL0     C76044   6.805   4.880   8.181 -0.3948 -0.0897 -0.1546
  552MOL0     C76045   6.710   4.904   8.278 -0.4970 -0.6771 -0.0741
  552MOL0     O76046   6.598   4.967   8.240  0.2293 -0.9090  0.2152
  552MOL0     C76047   6.480   4.881   8.230  0.0268 -0.3289  0.7471
  552MOL0     C76048   6.440   4.864   8.079 -0.1318 -0.4679  0.1196
  552MOL0     C76049   6.410   4.996   8.014  0.1451  0.5688  0.6291
  552MOL0     C76050   6.379   4.983   7.860  0.4225 -0.5330 -0.7873
  552MOL0     C76051   6.355   5.117   7.784 -1.1935  0.6694  0.5194
  552MOL0     C76052   6.234   5.200   7.820 -0.3134 -0.3066 -0.3367
  552MOL0     C76053   6.251   5.345   7.773 -0.7689 -0.1685  0.4375
  552MOL0     C76054   6.116   5.412   7.785 -0.3747 -0.1101  0.2761
  552MOL0     N76055   6.136   5.556   7.801 -0.7566 -0.3560 -0.0170
  552MOL0     C76056   6.186   5.650   7.708  0.0991 -0.6170  0.6872
  552MOL0     C76057   6.162   5.773   7.760  0.2764 -0.6927 -0.3789
  552MOL0     C76058   6.211   5.898   7.693 -0.0647 -0.5216 -0.5640
  552MOL0     C76059   6.340   5.964   7.747  0.4146 -0.2574 -1.0750
  552MOL0     C76060   6.456   5.871   7.700 -0.5383 -0.2395 -0.3203
  552MOL0     C76061   6.591   5.939   7.689 -0.3202 -0.0630  0.1272
  552MOL0     O76062   6.692   5.848   7.653  0.2613 -0.3827 -0.1059
  552MOL0     C76063   6.826   5.891   7.650  0.7790  0.0874 -0.3912
  552MOL0     C76064   6.922   5.799   7.615 -0.5448  0.2922  0.9032
  552MOL0     C76065   7.056   5.823   7.630  0.0388  0.4930  0.0365
  552MOL0     C76066   7.145   5.704   7.606  0.2473  0.2520 -0.2020
  552MOL0     C76067   7.106   5.958   7.644 -0.7901 -0.3594  1.2047
  552MOL0     C76068   7.251   5.991   7.617  0.4265 -0.2799  0.2529
  552MOL0     O76069   7.346   5.900   7.602 -0.0662  0.3243  0.1104
  552MOL0     C76070   7.476   5.935   7.560  0.4529 -0.2872  0.0136
  552MOL0     C76071   7.579   5.939   7.646  0.5312  0.7996 -0.1197
  552MOL0     C76072   7.701   5.982   7.612  0.2452 -0.7402  0.7764
  552MOL0     C76073   7.721   6.022   7.478 -0.7446 -0.0072 -0.4440
  552MOL0     O76074   7.847   6.075   7.444 -1.0434  0.0328 -0.2031
  552MOL0     C76075   7.894   6.077   7.308  0.1454 -0.1450  0.3062
  552MOL0     C76076   8.036   6.138   7.311 -0.4588  0.0971  0.0447
  552MOL0     C76077   8.140   6.031   7.354  0.6628  0.2800  0.7487
  552MOL0     C76078   8.147   6.013   7.504  0.5722 -0.5407  0.0713
  552MOL0     C76079   8.266   5.924   7.566 -0.2842  0.2628  0.1370
  552MOL0     C76080   8.395   6.008   7.535 -0.0744  0.2382 -0.2226
  552MOL0     C76081   8.513   5.960   7.631  0.2731  0.5237 -0.0489
  552MOL0     C76082   8.615   6.059   7.663 -1.0407 -1.6878 -0.0657
  552MOL0    Cl76083   8.575   6.176   7.777 -0.6519 -0.5031  0.3935
  552MOL0     C76084   7.617   6.016   7.384 -0.1864  0.3944 -0.3243
  552MOL0     C76085   7.490   5.974   7.426 -0.5263  0.9293 -0.0988
  552MOL0     O76086   7.267   6.108   7.592  0.8670  0.2006 -0.5747
  552MOL0     C76087   7.003   6.053   7.665 -0.1932 -1.0255 -0.4324
  552MOL0     C76088   6.866   6.023   7.677  0.6099 -0.0002  0.2481
  552MOL0     N76089   6.096   5.762   7.887  0.7868  1.2904 -0.1222
  552MOL0     N76090   6.088   5.634   7.902 -0.0945 -0.2158 -0.1743
  552MOL0     C76091   6.747   4.872   8.413 -0.2361  0.0429  0.4267
  552MOL0     C76092   6.873   4.826   8.449 -0.0911 -0.0737 -0.0081
  552MOL0     C76093   7.252   4.567   8.387  0.1549 -0.5199  0.2367
  552MOL0     C76094   7.278   4.440   8.445 -0.4693  0.1737  0.3542
  552MOL0     C76095   7.406   4.394   8.481 -0.2038  0.8347  0.0018
  552MOL0     C76096   7.514   4.474   8.450 -0.9853 -0.3137 -0.2385
  552MOL0     O76097   7.648   4.440   8.480  0.1703 -0.5267 -0.4345
  552MOL0     C76098   7.701   4.317   8.432  0.4071 -0.2377  0.1217
  552MOL0     C76099   7.830   4.287   8.499 -0.1529 -0.0045 -0.3079
  552MOL0     C76100   7.889   4.151   8.458  0.7487 -0.7244 -0.0468
  552MOL0     C76101   8.022   4.110   8.533  0.1588 -0.1795  0.7079
  552MOL0     C76102   8.107   4.011   8.462  0.2393  0.0079  0.1909
  552MOL0     C76103   8.179   3.933   8.406 -0.7823 -0.4651 -0.6970
  552MOL0     C76104   7.494   4.594   8.375  0.3465  0.3904 -0.6117
  552MOL0     C76105   7.362   4.639   8.349  0.3331  0.6635 -0.5729
  552MOL0     C76106   7.355   4.773   8.291  0.7236 -1.1054  0.2227
  552MOL0     H76107   7.011   4.820   8.133 -0.3722  0.1258 -1.7513
  552MOL0     H76108   6.778   4.907   8.080  0.1746  0.3036 -0.2059
  552MOL0     H76109   6.405   4.941   8.281 -1.9123  0.5569 -2.8067
  552MOL0     H76110   6.502   4.785   8.279  1.8308 -0.8374 -0.9328
  552MOL0     H76111   6.534   4.832   8.033  0.2313  0.0973  0.4531
  552MOL0     H76112   6.360   4.791   8.064  1.8638 -2.1739 -3.8829
  552MOL0     H76113   6.320   5.033   8.064  0.1259 -0.4608  1.3768
  552MOL0     H76114   6.496   5.064   8.019 -0.5498  2.0841 -3.4973
  552MOL0     H76115   6.457   4.924   7.812  2.3633  0.3343  1.1366
  552MOL0     H76116   6.286   4.926   7.855  1.1940 -1.8293 -0.6559
  552MOL0     H76117   6.368   5.110   7.675 -0.1392  1.2127  0.5957
  552MOL0     H76118   6.433   5.181   7.826 -1.6450  0.9639  0.9205
  552MOL0     H76119   6.142   5.155   7.781 -0.2811 -1.5296  0.9262
  552MOL0     H76120   6.215   5.193   7.927 -2.1807 -3.0485 -0.7256
  552MOL0     H76121   6.286   5.362   7.671  1.8213  1.6543  1.5146
  552MOL0     H76122   6.327   5.398   7.830  1.3114 -0.0262 -2.2745
  552MOL0     H76123   6.051   5.392   7.700 -2.3879 -1.2551  1.9971
  552MOL0     H76124   6.074   5.374   7.878 -1.6354  1.0560  0.2165
  552MOL0     H76125   6.230   5.631   7.610  0.8326  1.8913  0.4592
  552MOL0     H76126   6.124   5.964   7.706  1.4176  1.4661 -0.1618
  552MOL0     H76127   6.216   5.885   7.585  2.1516 -0.3913 -0.5239
  552MOL0     H76128   6.345   6.065   7.704 -0.2642  0.4693  0.4531
  552MOL0     H76129   6.334   5.979   7.855 -2.6743  1.8302 -1.3941
  552MOL0     H76130   6.460   5.787   7.770 -1.1628 -0.2681 -0.3122
  552MOL0     H76131   6.436   5.845   7.596 -3.4934  0.7882 -0.0931
  552MOL0     H76132   6.586   6.018   7.613 -3.5726 -1.7252 -1.6112
  552MOL0     H76133   6.619   5.982   7.786  0.6744 -2.2945  0.9059
  552MOL0     H76134   6.888   5.698   7.592  0.2582 -0.2380  1.9792
  552MOL0     H76135   7.210   5.718   7.519  3.5162  0.9008  2.1592
  552MOL0     H76136   7.084   5.614   7.599 -2.1878  1.4905  2.6540
  552MOL0     H76137   7.201   5.684   7.697 -0.9903 -2.3011  0.0861
  552MOL0     H76138   7.560   5.905   7.748  4.2157  1.8218  1.0622
  552MOL0     H76139   7.779   6.001   7.685 -0.7714 -0.9077  1.9233
  552MOL0     H76140   7.897   5.979   7.259  1.5712  0.4473 -0.8783
  552MOL0     H76141   7.827   6.145   7.253 -0.8494  0.2219  1.9033
  552MOL0     H76142   8.067   6.172   7.212  2.0989  0.4201  0.8848
  552MOL0     H76143   8.030   6.230   7.371 -1.4816  0.5120 -0.6580
  552MOL0     H76144   8.240   6.066   7.327 -0.1689  0.5082 -2.4186
  552MOL0     H76145   8.113   5.932   7.317 -2.3253  0.0379  3.1809
  552MOL0     H76146   8.055   5.971   7.547 -0.2867  2.0618  1.0135
  552MOL0     H76147   8.153   6.113   7.547  1.0589 -1.8847  3.4190
  552MOL0     H76148   8.259   5.923   7.675  0.7156  0.9702  0.2217
  552MOL0     H76149   8.264   5.822   7.524 -2.0670  1.8069 -4.1003
  552MOL0     H76150   8.372   6.111   7.561 -0.2728  0.3893 -0.9955
  552MOL0     H76151   8.422   6.015   7.429 -0.9933  0.3330 -0.4575
  552MOL0     H76152   8.566   5.874   7.588 -0.2403  0.2007 -0.0355
  552MOL0     H76153   8.472   5.923   7.725  1.9117  1.2282  0.9969
  552MOL0     H76154   8.643   6.108   7.569 -2.5470 -0.1376  0.2477
  552MOL0     H76155   8.698   6.003   7.709  0.7218 -0.2855 -1.3681
  552MOL0     H76156   7.624   6.069   7.290 -1.4410 -0.1043 -0.7138
  552MOL0     H76157   7.411   5.971   7.351 -0.2423  1.4569 -0.4267
  552MOL0     H76158   7.029   6.158   7.670 -3.4875 -0.1524  1.3921
  552MOL0     H76159   6.788   6.099   7.683 -1.4646 -2.0276  0.7302
  552MOL0     H76160   6.670   4.875   8.489  1.8766  1.1939  2.6423
  552MOL0     H76161   6.891   4.823   8.556  1.2477  3.5591  0.0048
  552MOL0     H76162   7.191   4.380   8.469 -1.2763  1.9254  2.1134
  552MOL0     H76163   7.425   4.312   8.549  1.3225  0.6013 -0.6767
  552MOL0     H76164   7.639   4.228   8.443  0.7828 -0.3633  1.4306
  552MOL0     H76165   7.719   4.337   8.326  1.2773  4.4178  0.9353
  552MOL0     H76166   7.802   4.280   8.604  2.0688  2.5123  0.5518
  552MOL0     H76167   7.899   4.371   8.492  1.0373 -1.0252 -1.3310
  552MOL0     H76168   7.801   4.089   8.480 -1.5213  3.1344  3.2267
  552MOL0     H76169   7.911   4.154   8.351 -1.4970  0.7665 -0.5409
  552MOL0     H76170   7.999   4.068   8.631 -0.3739  2.1314  1.6509
  552MOL0     H76171   8.088   4.196   8.551  1.1591 -0.4269 -1.4248
  552MOL0     H76172   8.259   3.877   8.362 -0.8858 -1.6720  0.5599
  552MOL0     H76173   7.579   4.658   8.350  0.7514 -0.8033 -2.4782
  552MOL0     H76174   7.451   4.787   8.239 -0.3117 -2.8162 -2.3459
  552MOL0     H76175   7.283   4.788   8.211  1.8651 -0.1375 -0.6628
  552MOL0     H76176   7.333   4.846   8.370 -1.1593 -0.0467 -1.2226
  553MOL0     O76177   8.598  10.863   1.721  0.3443 -0.4432 -0.0443
  553MOL0     C76178   8.537  10.888   1.619 -1.0646  0.1722  0.6450
  553MOL0     O76179   8.584  10.935   1.502 -0.5097  0.3327 -0.1333
  553MOL0     C76180   8.722  10.960   1.497 -0.2441  0.5268 -1.0130
  553MOL0     C76181   8.821  10.863   1.520 -0.1071  0.7081  0.1673
  553MOL0     C76182   8.959  10.892   1.486 -0.4803  0.0173 -0.7158
  553MOL0     C76183   9.002  11.017   1.448  0.5987  0.5174 -0.5015
  553MOL0     O76184   9.138  11.033   1.445  0.6777  0.5518  0.5896
  553MOL0     C76185   9.190  11.161   1.407  0.0795  0.5169 -0.5042
  553MOL0     C76186   9.219  11.232   1.539  0.4052 -0.8743  0.2658
  553MOL0     C76187   9.339  11.181   1.622  0.0456  0.5259 -0.5017
  553MOL0     C76188   9.396  11.284   1.730  0.0237  0.5734  0.4565
  553MOL0     C76189   9.536  11.243   1.779  0.1529  0.5656  0.7545
  553MOL0     C76190   9.570  11.294   1.914  0.9173  0.5333 -0.4119
  553MOL0     C76191   9.587  11.449   1.922 -0.4884 -0.7623  0.8831
  553MOL0     C76192   9.612  11.495   2.069  0.2094 -0.2737 -0.2113
  553MOL0     N76193   9.747  11.484   2.120  0.3533  0.5158  0.0692
  553MOL0     C76194   9.852  11.558   2.075 -0.1835  0.2943  0.0941
  553MOL0     C76195   9.961  11.540   2.155  0.6841  0.7751  0.1567
  553MOL0     C76196  10.103  11.586   2.133  0.7233  0.2830 -0.1092
  553MOL0     C76197  10.135  11.705   2.044  0.0418 -0.4095  0.7717
  553MOL0     C76198  10.129  11.841   2.110  0.2747 -0.8493 -0.1784
  553MOL0     C76199  10.209  11.864   2.241  0.0016 -0.2445  0.4763
  553MOL0     O76200  10.171  11.987   2.306  0.4025  0.0403 -0.2926
  553MOL0     C76201  10.258  12.049   2.398 -0.2084  0.7267  0.5973
  553MOL0     C76202  10.234  12.179   2.449  0.0079  0.5853  0.6709
  553MOL0     C76203  10.321  12.255   2.530  0.1067  0.1990  0.6450
  553MOL0     C76204  10.283  12.392   2.564  0.8390 -0.9368  0.4640
  553MOL0     C76205  10.445  12.194   2.567  0.3017  0.1506  0.5484
  553MOL0     C76206  10.552  12.269   2.629 -0.2421 -0.0186  0.5707
  553MOL0     O76207  10.665  12.193   2.665 -0.1982 -0.3444  0.7060
  553MOL0     C76208  10.759  12.250   2.744  0.3350  0.0475  0.9352
  553MOL0     C76209  10.887  12.284   2.689  0.0556  0.0715  0.1876
  553MOL0     C76210  10.992  12.336   2.780  0.0398  0.2767  0.1707
  553MOL0     C76211  10.963  12.363   2.913  0.8197  0.0758 -0.9990
  553MOL0     O76212  11.057  12.423   2.993  0.5655 -0.0222  0.1554
  553MOL0     C76213  10.998  12.541   3.064 -0.3412 -0.3674  0.0700
  553MOL0     C76214  11.105  12.640   3.105 -0.3194 -0.2385  0.3933
  553MOL0     C76215  11.046  12.786   3.148  0.5454  0.2540 -0.2299
  553MOL0     C76216  10.943  12.769   3.267 -1.3540  0.2515 -0.3176
  553MOL0     C76217  10.997  12.731   3.409  0.0866  1.0433 -0.3457
  553MOL0     C76218  11.123  12.809   3.458 -0.6451  0.1837  0.1835
  553MOL0     C76219  11.157  12.781   3.608 -0.1854  0.4823  0.0006
  553MOL0     C76220  11.207  12.643   3.630 -0.2176 -0.2268  0.2153
  553MOL0    Cl76221  11.236  12.605   3.806  0.2603 -0.0688  0.2583
  553MOL0     C76222  10.829  12.330   2.959 -0.4348 -0.5996  0.5596
  553MOL0     C76223  10.736  12.269   2.877 -0.1262  0.1682 -0.7662
  553MOL0     O76224  10.552  12.389   2.660 -0.1901  0.6488  0.2131
  553MOL0     C76225  10.466  12.062   2.527 -0.2601  0.7215  1.0387
  553MOL0     C76226  10.383  11.990   2.435  0.2859 -0.5001 -0.8502
  553MOL0     N76227   9.915  11.456   2.257 -0.0460  0.5787 -0.1809
  553MOL0     N76228   9.788  11.419   2.235 -0.4254  0.0762  0.3055
  553MOL0     C76229   8.906  11.124   1.445  0.4918  0.5876  0.7820
  553MOL0     C76230   8.769  11.088   1.464 -0.5436  0.3676  1.1127
  553MOL0     C76231   8.387  10.885   1.625 -0.2031  0.8237 -0.0894
  553MOL0     C76232   8.312  10.912   1.507 -0.5637 -0.3434 -0.1381
  553MOL0     C76233   8.178  10.897   1.500 -0.4040 -0.5290 -0.3505
  553MOL0     C76234   8.105  10.845   1.609  0.0930 -0.5851  1.1105
  553MOL0     O76235   7.970  10.823   1.603 -0.0103  0.3163  0.2600
  553MOL0     C76236   7.890  10.860   1.484 -1.4564 -0.3690  0.2974
  553MOL0     C76237   7.757  10.794   1.517  1.2176 -0.4965 -0.6614
  553MOL0     C76238   7.655  10.818   1.399  0.0775  0.8354 -0.3481
  553MOL0     C76239   7.532  10.730   1.409 -0.2485 -0.3144  0.2521
  553MOL0     C76240   7.557  10.593   1.359 -0.4513  1.5041 -0.3041
  553MOL0     C76241   7.578  10.473   1.328 -0.2084  0.3093  0.2023
  553MOL0     C76242   8.171  10.831   1.729  0.0915  0.1074  0.7655
  553MOL0     C76243   8.309  10.852   1.736  0.4004  0.1037 -0.1946
  553MOL0     C76244   8.360  10.844   1.879 -0.6220  0.1105 -0.1490
  553MOL0     H76245   8.803  10.761   1.551  0.0287  0.5153 -0.3769
  553MOL0     H76246   9.038  10.819   1.497 -1.3883 -0.6700  1.9489
  553MOL0     H76247   9.123  11.221   1.345  0.0788  1.3203  0.2476
  553MOL0     H76248   9.291  11.166   1.364  0.7249  3.2093  1.0294
  553MOL0     H76249   9.241  11.335   1.513 -2.5551  0.1222  1.2835
  553MOL0     H76250   9.131  11.251   1.602  0.8006  1.1971  0.2318
  553MOL0     H76251   9.306  11.093   1.677 -0.4415  1.6525  1.0858
  553MOL0     H76252   9.424  11.165   1.554  0.8589  2.2196  0.0622
  553MOL0     H76253   9.393  11.384   1.686 -2.8472  0.5020  0.3050
  553MOL0     H76254   9.315  11.291   1.804 -0.2841  3.1142 -0.0090
  553MOL0     H76255   9.602  11.284   1.702 -2.3748  2.5445 -0.5155
  553MOL0     H76256   9.538  11.134   1.786 -0.4761  0.4962  0.0144
  553MOL0     H76257   9.487  11.274   1.983  0.9795  2.2615  0.2400
  553MOL0     H76258   9.665  11.247   1.941 -0.7097 -2.4095  0.6693
  553MOL0     H76259   9.504  11.498   1.871  0.6996 -2.5986 -3.3327
  553MOL0     H76260   9.674  11.471   1.858 -0.8825  1.2061  0.9810
  553MOL0     H76261   9.591  11.602   2.083 -0.5587 -0.3656 -0.6029
  553MOL0     H76262   9.543  11.444   2.137 -0.3091 -1.3218 -1.5064
  553MOL0     H76263   9.848  11.625   1.990 -0.1890  4.1485  2.8880
  553MOL0     H76264  10.163  11.510   2.082 -1.0896 -3.1169  2.4189
  553MOL0     H76265  10.152  11.592   2.231  1.4215  1.1342 -0.5014
  553MOL0     H76266  10.242  11.699   2.018 -0.3614 -2.1561 -0.6563
  553MOL0     H76267  10.093  11.694   1.944 -1.3921  1.4122  1.1145
  553MOL0     H76268  10.168  11.921   2.047  3.6441 -0.7065  1.8503
  553MOL0     H76269  10.023  11.859   2.131 -0.5486 -3.3021 -1.8564
  553MOL0     H76270  10.184  11.777   2.303 -0.0184 -0.4820  0.1392
  553MOL0     H76271  10.317  11.866   2.223  0.6665  2.1630  3.8649
  553MOL0     H76272  10.138  12.222   2.421 -0.7836 -0.9580  0.9083
  553MOL0     H76273  10.182  12.418   2.532  1.0284  0.8596  1.1577
  553MOL0     H76274  10.350  12.457   2.506  0.1014 -1.4298 -0.9829
  553MOL0     H76275  10.283  12.404   2.673  2.1782 -1.7876  0.5827
  553MOL0     H76276  10.897  12.266   2.582 -0.0026 -0.1034  0.2109
  553MOL0     H76277  11.084  12.363   2.729 -0.3354  3.8067  1.0610
  553MOL0     H76278  10.922  12.587   3.000 -0.3893 -2.5722 -1.5624
  553MOL0     H76279  10.944  12.503   3.151  0.5041 -0.4834  0.5583
  553MOL0     H76280  11.161  12.596   3.188  1.1857 -0.6741 -0.7856
  553MOL0     H76281  11.178  12.660   3.025  2.1040  2.5999  3.0367
  553MOL0     H76282  11.005  12.847   3.067  1.0088  0.1519 -0.5398
  553MOL0     H76283  11.127  12.854   3.177  0.2923  1.0947 -1.4006
  553MOL0     H76284  10.868  12.693   3.248  0.6483 -1.8644 -0.1649
  553MOL0     H76285  10.897  12.869   3.265 -2.6192 -0.2847 -3.3019
  553MOL0     H76286  10.920  12.743   3.486  0.3433  0.8656 -0.0587
  553MOL0     H76287  11.020  12.624   3.415 -3.0669  0.3795  2.5156
  553MOL0     H76288  11.097  12.913   3.437 -3.2271 -0.4915 -0.2621
  553MOL0     H76289  11.208  12.786   3.392  1.3769  2.3042  1.8619
  553MOL0     H76290  11.073  12.806   3.673  2.7881  1.3343  3.9505
  553MOL0     H76291  11.234  12.846   3.651  0.9747 -2.1409  2.2339
  553MOL0     H76292  11.304  12.612   3.591 -1.1252 -2.4115 -0.5016
  553MOL0     H76293  11.130  12.576   3.589 -1.0267  0.9633 -0.2537
  553MOL0     H76294  10.812  12.351   3.065 -2.5109  1.3693 -0.0789
  553MOL0     H76295  10.636  12.263   2.920 -0.6193  1.2381 -1.6985
  553MOL0     H76296  10.553  12.004   2.555 -1.7942 -1.8749  0.7060
  553MOL0     H76297  10.416  11.894   2.397 -0.0043  0.3965 -3.6076
  553MOL0     H76298   8.937  11.227   1.427 -0.3284  0.9151  1.2171
  553MOL0     H76299   8.700  11.168   1.440  1.4146  0.9883 -3.4824
  553MOL0     H76300   8.372  10.958   1.429 -2.3090  0.0816 -1.3066
  553MOL0     H76301   8.133  10.920   1.405  3.8384 -1.6820 -2.9392
  553MOL0     H76302   7.901  10.968   1.467  3.2263 -0.5944  0.4934
  553MOL0     H76303   7.932  10.805   1.400  0.8440 -1.5021  2.0468
  553MOL0     H76304   7.715  10.828   1.612  0.7396 -0.9266 -0.7161
  553MOL0     H76305   7.773  10.686   1.523  1.3714 -0.7220 -3.6184
  553MOL0     H76306   7.617  10.921   1.404 -2.2074  0.0356  0.0649
  553MOL0     H76307   7.703  10.800   1.303 -1.1743 -0.1709 -0.8002
  553MOL0     H76308   7.452  10.771   1.346 -2.2296  2.5123  4.1720
  553MOL0     H76309   7.492  10.719   1.510  1.2114 -0.9891  0.7856
  553MOL0     H76310   7.601  10.373   1.300  1.9752  0.1765  2.1573
  553MOL0     H76311   8.108  10.805   1.813 -0.0110  2.0931  1.3620
  553MOL0     H76312   8.276  10.868   1.944 -0.2969  3.4426 -0.7585
  553MOL0     H76313   8.413  10.749   1.891 -1.3776 -0.2406  0.4809
  553MOL0     H76314   8.429  10.929   1.887 -1.9396  1.5817 -2.9651
  554MOL0     O76315   0.559   9.400   9.756  0.1444  0.2368  0.6422
  554MOL0     C76316   0.512   9.510   9.776 -0.2139 -0.3553  0.4544
  554MOL0     O76317   0.581   9.614   9.841 -0.3892  0.4429  0.3673
  554MOL0     C76318   0.713   9.579   9.876  1.1725 -0.5957 -0.4583
  554MOL0     C76319   0.743   9.473   9.960 -0.2901  0.3080 -0.2413
  554MOL0     C76320   0.882   9.449   9.995 -0.7094 -0.7927  0.8430
  554MOL0     C76321   0.990   9.518   9.939 -0.8149  0.5310  1.1002
  554MOL0     O76322   1.118   9.486   9.967 -0.0830 -0.0724 -0.3673
  554MOL0     C76323   1.161   9.474  10.104  0.2796 -0.5871  0.0734
  554MOL0     C76324   1.310   9.497  10.115  0.3884  0.3672  0.4430
  554MOL0     C76325   1.341   9.503  10.263  0.3455  0.2500 -0.5766
  554MOL0     C76326   1.495   9.520  10.277 -0.3191 -0.5197  0.1757
  554MOL0     C76327   1.541   9.494  10.411 -1.1364 -0.1885  0.6164
  554MOL0     C76328   1.692   9.470  10.396 -0.1916  0.5091  0.7750
  554MOL0     C76329   1.757   9.447  10.532 -0.1553 -0.2656  0.5483
  554MOL0     C76330   1.909   9.454  10.552 -0.5367 -1.0603 -0.1357
  554MOL0     N76331   1.956   9.323  10.492  0.2661  0.1189 -0.1577
  554MOL0     C76332   2.038   9.293  10.383  0.9394 -0.8375 -0.6445
  554MOL0     C76333   2.072   9.164  10.398 -0.3610  0.0237 -0.4072
  554MOL0     C76334   2.173   9.098  10.309  0.7727 -0.6675 -0.3563
  554MOL0     C76335   2.285   9.024  10.378 -0.2215  0.1494  0.0990
  554MOL0     C76336   2.367   8.938  10.286  0.0726 -0.3748  1.2861
  554MOL0     C76337   2.501   8.901  10.355 -0.0766  0.6267  0.5956
  554MOL0     O76338   2.481   8.852  10.484 -0.5178 -0.9256  0.1202
  554MOL0     C76339   2.578   8.805  10.570 -0.0544  0.5190 -0.7810
  554MOL0     C76340   2.716   8.832  10.558  0.3709  0.9457  0.7437
  554MOL0     C76341   2.826   8.791  10.636 -1.0858  0.7390 -0.8650
  554MOL0     C76342   2.977   8.823  10.605 -0.6017 -0.3890 -0.5653
  554MOL0     C76343   2.787   8.711  10.745  0.5483 -0.0374 -0.2115
  554MOL0     C76344   2.885   8.654  10.837 -0.5196  0.1822  0.4446
  554MOL0     O76345   2.847   8.540  10.897  0.1725  0.3646  0.1192
  554MOL0     C76346   2.916   8.480  10.996  0.4236  0.4476 -0.7901
  554MOL0     C76347   2.889   8.530  11.128 -0.7173  0.2219  0.5444
  554MOL0     C76348   2.975   8.492  11.235 -0.4016  0.7189  0.0430
  554MOL0     C76349   3.064   8.393  11.216 -0.1014  0.6367  0.4566
  554MOL0     O76350   3.137   8.361  11.328 -0.2395 -0.1378 -0.2960
  554MOL0     C76351   3.200   8.235  11.331 -1.2327 -0.0767 -0.3070
  554MOL0     C76352   3.228   8.206  11.476  0.1589 -1.0359 -0.5133
  554MOL0     C76353   3.098   8.191  11.555  0.4525  0.4286  0.6156
  554MOL0     C76354   3.029   8.059  11.529 -0.0165 -0.1402  0.4412
  554MOL0     C76355   2.883   8.055  11.587  1.2854  0.0621 -0.4607
  554MOL0     C76356   2.791   8.163  11.548  0.1618 -0.6916  0.2601
  554MOL0     C76357   2.746   8.171  11.397  0.0532 -0.1436 -0.6415
  554MOL0     C76358   2.645   8.282  11.381  0.1953  0.3453 -0.1809
  554MOL0    Cl76359   2.495   8.218  11.446 -0.1431 -0.0095 -0.1955
  554MOL0     C76360   3.085   8.340  11.084  0.4779 -0.2579 -0.3095
  554MOL0     C76361   3.015   8.384  10.974 -0.0497 -0.1279 -1.1566
  554MOL0     O76362   2.991   8.714  10.866  0.6491  0.3997 -0.0735
  554MOL0     C76363   2.651   8.679  10.764  0.0265  0.6283  0.4613
  554MOL0     C76364   2.543   8.719  10.675 -0.7845 -0.0379 -0.1478
  554MOL0     N76365   2.010   9.100  10.505  0.1834  0.6266  1.0956
  554MOL0     N76366   1.951   9.200  10.563 -0.8299 -1.0836  0.1074
  554MOL0     C76367   0.948   9.621   9.849 -0.7240  0.6531 -0.3151
  554MOL0     C76368   0.812   9.655   9.820 -0.0818  0.1412 -1.0121
  554MOL0     C76369   0.368   9.531   9.754  0.0386 -0.8551  0.1287
  554MOL0     C76370   0.329   9.640   9.670  0.3738 -0.2620 -0.0603
  554MOL0     C76371   0.204   9.639   9.615  0.3847  0.3868 -0.5626
  554MOL0     C76372   0.111   9.540   9.646 -0.1355  0.3331 -0.2068
  554MOL0     O76373  -0.017   9.537   9.592  0.5483 -0.0550 -1.0689
  554MOL0     C76374  -0.128   9.554   9.681  0.4293  0.8489  0.1607
  554MOL0     C76375  -0.253   9.570   9.591  1.8760 -0.4666  0.5743
  554MOL0     C76376  -0.389   9.533   9.669 -0.3026  0.3899  0.5087
  554MOL0     C76377  -0.509   9.583   9.582  0.7035 -0.3085 -0.8098
  554MOL0     C76378  -0.638   9.553   9.652 -0.2803 -0.5511  0.3574
  554MOL0     C76379  -0.746   9.523   9.690  0.2835 -1.8407  0.0223
  554MOL0     C76380   0.145   9.456   9.753 -0.2101  0.8074  0.3972
  554MOL0     C76381   0.274   9.444   9.802  0.4279  0.2287 -0.1046
  554MOL0     C76382   0.301   9.323   9.892 -0.1925 -0.1815 -0.4435
  554MOL0     H76383   0.669   9.403   9.995  0.5353  1.2142  3.8146
  554MOL0     H76384   0.906   9.364  10.057 -1.7038 -2.5169 -0.9903
  554MOL0     H76385   1.122   9.376  10.135 -0.1495 -0.7362 -0.9137
  554MOL0     H76386   1.113   9.546  10.171 -0.5625  2.9550 -3.9141
  554MOL0     H76387   1.356   9.404  10.083  0.4165 -0.0942  1.7474
  554MOL0     H76388   1.337   9.588  10.061  0.8139  0.4221  0.7420
  554MOL0     H76389   1.285   9.590  10.298  1.1192  1.5221 -2.3508
  554MOL0     H76390   1.316   9.404  10.300  1.9212 -1.1244 -2.9400
  554MOL0     H76391   1.530   9.436  10.215 -1.0126 -2.1990  1.9448
  554MOL0     H76392   1.536   9.615  10.243 -0.4619  0.6388  2.9988
  554MOL0     H76393   1.491   9.402  10.442 -2.1500  0.2924  0.4482
  554MOL0     H76394   1.529   9.577  10.481  0.9309 -0.4204  1.3150
  554MOL0     H76395   1.708   9.378  10.340 -0.0326  1.2950 -0.5149
  554MOL0     H76396   1.738   9.548  10.334  0.5127 -2.3415 -2.5789
  554MOL0     H76397   1.726   9.345  10.556 -1.2202  0.0957  0.7358
  554MOL0     H76398   1.709   9.509  10.607 -3.2876  1.3309 -2.4847
  554MOL0     H76399   1.957   9.533  10.495 -1.7708 -1.9582 -2.5669
  554MOL0     H76400   1.932   9.458  10.659  0.2654  1.6873 -0.3355
  554MOL0     H76401   2.087   9.363  10.315 -2.0319 -0.4009 -2.5521
  554MOL0     H76402   2.212   9.174  10.240 -2.6337  0.5114 -1.1716
  554MOL0     H76403   2.123   9.024  10.246  1.0902 -0.9548 -0.2737
  554MOL0     H76404   2.360   9.092  10.418  1.0356 -0.1980 -1.5330
  554MOL0     H76405   2.247   8.965  10.462 -1.1180  2.1218  1.1449
  554MOL0     H76406   2.314   8.854  10.239  0.8181  0.8895 -2.0752
  554MOL0     H76407   2.399   9.001  10.203 -2.2458 -0.3618  0.3265
  554MOL0     H76408   2.555   8.828  10.295  2.5298  4.0133 -1.5263
  554MOL0     H76409   2.559   8.993  10.362  1.2559 -0.0335 -1.1624
  554MOL0     H76410   2.741   8.905  10.482 -1.2497 -1.8418 -2.7805
  554MOL0     H76411   2.984   8.916  10.546 -0.2122  0.1248  0.2724
  554MOL0     H76412   3.041   8.745  10.563 -1.1069  0.2597 -2.6584
  554MOL0     H76413   3.017   8.861  10.700 -3.7946 -0.5788  0.9797
  554MOL0     H76414   2.829   8.620  11.140 -1.3290 -0.2689  1.3008
  554MOL0     H76415   2.978   8.542  11.331 -1.2252 -0.4814  0.7259
  554MOL0     H76416   3.145   8.154  11.282  1.9415 -3.2852  0.9991
  554MOL0     H76417   3.298   8.244  11.283 -0.4813 -3.7532  0.2218
  554MOL0     H76418   3.293   8.118  11.479 -0.4113 -1.4472  0.1354
  554MOL0     H76419   3.291   8.286  11.514 -0.8712 -0.3550 -0.2172
  554MOL0     H76420   3.030   8.276  11.540 -1.2643 -0.7976  1.0447
  554MOL0     H76421   3.118   8.197  11.662 -0.8823 -0.2229  0.9299
  554MOL0     H76422   3.088   7.976  11.570 -1.1672 -0.7156  0.9773
  554MOL0     H76423   3.024   8.045  11.420  0.3017  0.7207  0.3069
  554MOL0     H76424   2.838   7.956  11.577 -0.2043  0.6905 -0.2587
  554MOL0     H76425   2.891   8.069  11.696  1.1700  0.5399 -0.5104
  554MOL0     H76426   2.844   8.257  11.566  1.8334 -1.0338 -2.3120
  554MOL0     H76427   2.703   8.167  11.612  0.0465  2.0497  0.0579
  554MOL0     H76428   2.707   8.077  11.357 -2.4030  0.5326 -0.0186
  554MOL0     H76429   2.830   8.190  11.330  0.2548 -0.7228 -0.5529
  554MOL0     H76430   2.625   8.302  11.275 -0.5261 -2.5753 -0.6974
  554MOL0     H76431   2.672   8.365  11.447 -0.0893 -0.1449  0.5651
  554MOL0     H76432   3.171   8.274  11.072  0.2467 -0.3747 -1.3915
  554MOL0     H76433   3.022   8.355  10.870  0.4214  1.6760 -1.6765
  554MOL0     H76434   2.629   8.610  10.845 -1.4651 -0.8620 -1.1400
  554MOL0     H76435   2.440   8.691  10.698 -0.3023  1.5569  5.1507
  554MOL0     H76436   1.021   9.683   9.798 -0.6140  0.2834 -0.6174
  554MOL0     H76437   0.777   9.727   9.748  0.1646  1.4149  0.1036
  554MOL0     H76438   0.405   9.714   9.646 -0.6967  1.6660  2.0310
  554MOL0     H76439   0.187   9.720   9.545 -1.5020  0.5352  0.0385
  554MOL0     H76440  -0.145   9.476   9.756 -2.2180  0.0418 -1.1516
  554MOL0     H76441  -0.105   9.646   9.735  3.0993  1.9784 -2.5782
  554MOL0     H76442  -0.246   9.493   9.513 -0.7921 -1.4075  1.1545
  554MOL0     H76443  -0.262   9.663   9.535 -3.7208 -1.5767 -0.9900
  554MOL0     H76444  -0.372   9.425   9.677  2.2000  0.8494  3.9006
  554MOL0     H76445  -0.391   9.580   9.767 -0.7554  2.8059 -0.5779
  554MOL0     H76446  -0.516   9.531   9.485 -0.7944 -1.3817 -0.1783
  554MOL0     H76447  -0.496   9.691   9.576 -3.1372  0.5139  1.8141
  554MOL0     H76448  -0.848   9.505   9.719 -0.3370 -0.3705 -1.1282
  554MOL0     H76449   0.065   9.386   9.774  0.5622  0.1559  1.2370
  554MOL0     H76450   0.222   9.247   9.885 -0.2613 -0.0821 -0.7824
  554MOL0     H76451   0.400   9.277   9.887 -0.8433 -1.7861  0.3847
  554MOL0     H76452   0.306   9.365   9.993  2.6267  0.7766 -0.9045
  555MOL0     O76453   9.622   6.468   5.583 -0.5881 -0.0327 -0.4319
  555MOL0     C76454   9.542   6.556   5.562  0.4550 -0.7242  0.1440
  555MOL0     O76455   9.551   6.660   5.476  0.0088  1.0721 -0.4600
  555MOL0     C76456   9.656   6.681   5.397 -0.3662 -0.3039  0.8406
  555MOL0     C76457   9.694   6.616   5.273 -0.4543  0.6400  0.9632
  555MOL0     C76458   9.807   6.657   5.203  0.0534  0.9618  0.2229
  555MOL0     C76459   9.897   6.754   5.257 -0.7307  0.4733 -0.5484
  555MOL0     O76460  10.016   6.798   5.201 -0.2521  0.3483  0.4571
  555MOL0     C76461  10.059   6.729   5.081  0.2744  0.6779 -0.6368
  555MOL0     C76462  10.163   6.807   5.009 -0.3076 -0.1361  0.2376
  555MOL0     C76463  10.297   6.825   5.095  0.9067 -0.2766 -0.3040
  555MOL0     C76464  10.376   6.955   5.049  1.0910  0.9224 -0.1733
  555MOL0     C76465  10.495   6.993   5.144  0.2556 -1.1534 -0.1139
  555MOL0     C76466  10.617   6.913   5.111  0.7189 -0.0766  0.4532
  555MOL0     C76467  10.747   6.982   5.163  0.3475  0.1200 -0.4362
  555MOL0     C76468  10.864   6.881   5.192  0.0440  0.0662  0.2216
  555MOL0     N76469  10.968   6.953   5.270 -0.7966 -0.5984 -0.3842
  555MOL0     C76470  11.093   6.990   5.228 -0.1905  0.9701  0.0129
  555MOL0     C76471  11.144   7.059   5.336  0.5725  0.1336 -0.0791
  555MOL0     C76472  11.271   7.134   5.342 -0.0518 -0.0618  0.3340
  555MOL0     C76473  11.389   7.047   5.369  0.3431  0.0309 -1.2590
  555MOL0     C76474  11.376   6.967   5.502  0.5036  0.3563  0.3926
  555MOL0     C76475  11.324   6.829   5.478  0.1581 -0.4872 -0.1855
  555MOL0     O76476  11.321   6.756   5.603  0.3082 -0.3455  0.9884
  555MOL0     C76477  11.192   6.738   5.655 -0.5074  0.2891 -0.8254
  555MOL0     C76478  11.182   6.692   5.791 -0.5259 -0.5830  0.4588
  555MOL0     C76479  11.063   6.664   5.857 -0.1800 -0.0565  0.0594
  555MOL0     C76480  11.064   6.618   6.003 -0.0945  0.4620 -0.5563
  555MOL0     C76481  10.946   6.678   5.794  0.3478  0.5151 -0.1902
  555MOL0     C76482  10.821   6.643   5.858 -0.2581 -0.3473 -0.0565
  555MOL0     O76483  10.768   6.521   5.855  1.2185 -0.0624  0.1493
  555MOL0     C76484  10.801   6.437   5.747 -0.5759  0.4764 -0.0117
  555MOL0     C76485  10.918   6.361   5.755 -0.8627 -0.1077  0.1964
  555MOL0     C76486  10.964   6.265   5.663 -0.1208  0.7983 -0.2956
  555MOL0     C76487  10.891   6.244   5.546  0.6225  0.0524  0.6605
  555MOL0     O76488  10.927   6.160   5.437  0.2382  0.1791 -1.0736
  555MOL0     C76489  11.054   6.091   5.458  0.2700  0.0243  0.1422
  555MOL0     C76490  11.076   6.007   5.335 -0.5685 -0.0940  0.9249
  555MOL0     C76491  11.118   6.071   5.209 -0.3793 -0.3723  0.4595
  555MOL0     C76492  11.264   6.122   5.197  0.3189  0.3412 -0.0009
  555MOL0     C76493  11.359   6.055   5.095  0.0537 -0.6916 -0.2912
  555MOL0     C76494  11.480   6.147   5.058 -0.6834 -0.2609 -0.3070
  555MOL0     C76495  11.433   6.268   4.976 -0.0043 -0.1668 -0.5350
  555MOL0     C76496  11.540   6.343   4.904  0.1448  0.4802  0.5364
  555MOL0    Cl76497  11.671   6.368   5.024 -0.4407 -0.2387  0.4947
  555MOL0     C76498  10.771   6.319   5.536  0.4954  0.3898  0.1456
  555MOL0     C76499  10.729   6.412   5.635  0.4855 -0.4651 -0.0088
  555MOL0     O76500  10.779   6.725   5.940 -0.8456  0.5517  0.1220
  555MOL0     C76501  10.949   6.730   5.663 -0.1195  0.4433  0.0356
  555MOL0     C76502  11.063   6.749   5.599 -0.3672  0.6483 -0.3167
  555MOL0     N76503  11.057   7.057   5.440  0.7382  0.6410 -0.6973
  555MOL0     N76504  10.952   7.004   5.395 -0.3374 -0.1035  0.0289
  555MOL0     C76505   9.853   6.818   5.378 -0.2982  0.9261  0.2250
  555MOL0     C76506   9.737   6.781   5.444 -0.3377 -0.6289  0.4797
  555MOL0     C76507   9.411   6.541   5.634 -0.7942  0.2193 -0.0938
  555MOL0     C76508   9.375   6.411   5.673 -1.2275 -0.5942 -0.3110
  555MOL0     C76509   9.258   6.381   5.743 -0.0380 -0.0246 -0.3642
  555MOL0     C76510   9.164   6.479   5.770 -0.0470  0.6008 -0.2096
  555MOL0     O76511   9.044   6.468   5.835  0.5498 -0.0062 -0.2890
  555MOL0     C76512   9.016   6.352   5.919 -0.5006 -0.3410 -0.3477
  555MOL0     C76513   9.097   6.364   6.051  0.0683 -0.4231 -0.5464
  555MOL0     C76514   9.086   6.499   6.113 -0.1129  0.1528 -0.4682
  555MOL0     C76515   9.154   6.501   6.247  0.5654 -0.1335  0.1016
  555MOL0     C76516   9.112   6.607   6.335  1.0525  0.7512 -0.2813
  555MOL0     C76517   9.076   6.700   6.403  0.0338 -0.3384  0.1362
  555MOL0     C76518   9.196   6.608   5.739 -0.3391 -0.1790  0.6458
  555MOL0     C76519   9.316   6.641   5.669  0.0387 -0.9255  0.4904
  555MOL0     C76520   9.345   6.793   5.643 -0.4104 -0.5020  0.3603
  555MOL0     H76521   9.643   6.527   5.236 -1.7229  0.8366  2.1617
  555MOL0     H76522   9.823   6.610   5.107  1.7184  1.0531  0.4383
  555MOL0     H76523   9.973   6.732   5.012 -1.0192  2.6581  0.9448
  555MOL0     H76524  10.091   6.626   5.098 -0.8614  0.4636  0.3540
  555MOL0     H76525  10.185   6.747   4.920 -0.1786 -1.1295  0.9212
  555MOL0     H76526  10.120   6.901   4.975  1.4411  0.6521  0.1235
  555MOL0     H76527  10.268   6.828   5.200  1.5127 -1.5836 -0.0824
  555MOL0     H76528  10.352   6.734   5.071  3.4543  1.2142 -0.4612
  555MOL0     H76529  10.407   6.948   4.944  1.4772  1.2275 -0.0800
  555MOL0     H76530  10.307   7.040   5.044 -0.1604 -0.0498  0.1565
  555MOL0     H76531  10.470   6.959   5.245 -0.9204 -0.6828 -0.2292
  555MOL0     H76532  10.504   7.101   5.154 -4.0431 -0.6176 -0.1157
  555MOL0     H76533  10.608   6.809   5.145 -0.2177 -1.7532 -4.1395
  555MOL0     H76534  10.629   6.897   5.003  0.9809 -2.1488  0.7512
  555MOL0     H76535  10.723   7.035   5.256 -0.1725  0.4461 -0.7502
  555MOL0     H76536  10.770   7.060   5.090 -1.3166  1.2750  0.1837
  555MOL0     H76537  10.835   6.795   5.253  4.2431 -1.9409 -0.2106
  555MOL0     H76538  10.899   6.841   5.096 -2.4474  0.7446 -1.0472
  555MOL0     H76539  11.136   6.962   5.132 -0.5260 -3.2350  0.8975
  555MOL0     H76540  11.265   7.212   5.418 -0.1960 -0.3593  0.6313
  555MOL0     H76541  11.279   7.188   5.247 -1.3913  0.9071  0.7455
  555MOL0     H76542  11.402   6.991   5.276  1.8257 -1.4559 -0.2234
  555MOL0     H76543  11.467   7.123   5.376 -0.6039  0.8936  0.6482
  555MOL0     H76544  11.473   6.957   5.552  1.0715 -0.8266 -0.8717
  555MOL0     H76545  11.303   7.016   5.567 -2.5895 -0.9202 -1.8449
  555MOL0     H76546  11.226   6.829   5.429 -0.1367  1.1109  0.3239
  555MOL0     H76547  11.396   6.780   5.413 -0.0287  0.7508 -1.3588
  555MOL0     H76548  11.270   6.680   5.854  0.8824  1.5164 -1.0063
  555MOL0     H76549  11.159   6.640   6.051 -0.0395  0.7863 -0.8023
  555MOL0     H76550  11.051   6.510   6.008 -1.1940  0.3492 -3.3961
  555MOL0     H76551  10.984   6.658   6.066  1.6307  1.7525  0.8905
  555MOL0     H76552  10.987   6.391   5.833 -1.6300 -1.2216  1.3559
  555MOL0     H76553  11.055   6.211   5.685 -0.8142 -0.6230 -0.7812
  555MOL0     H76554  11.135   6.164   5.453 -0.1224  0.6372  2.1065
  555MOL0     H76555  11.060   6.041   5.555 -2.0525  0.6038  0.6422
  555MOL0     H76556  11.161   5.944   5.363 -1.1134 -2.6739 -2.4840
  555MOL0     H76557  10.997   5.933   5.319  1.6264 -2.5042  0.4788
  555MOL0     H76558  11.040   6.132   5.163 -2.5044 -3.3715 -0.2074
  555MOL0     H76559  11.111   5.981   5.147 -4.4419  0.2267 -0.2469
  555MOL0     H76560  11.314   6.112   5.294 -0.3284 -1.9856  0.1588
  555MOL0     H76561  11.259   6.228   5.170 -1.1104  0.2460 -0.1570
  555MOL0     H76562  11.389   5.960   5.140 -0.7664 -1.2738 -0.9560
  555MOL0     H76563  11.295   6.019   5.015 -1.9624 -0.4564  1.1482
  555MOL0     H76564  11.543   6.088   4.990  0.8985 -0.0391  0.9214
  555MOL0     H76565  11.532   6.186   5.146 -0.3440  2.5462 -1.6598
  555MOL0     H76566  11.390   6.347   5.039  2.9535  1.8983 -0.8996
  555MOL0     H76567  11.360   6.240   4.900  0.3431  1.4899 -1.5323
  555MOL0     H76568  11.507   6.445   4.883 -1.4953 -0.5327 -2.2049
  555MOL0     H76569  11.568   6.286   4.815 -0.5005  0.2046  0.5036
  555MOL0     H76570  10.703   6.294   5.455  1.5613 -4.5279  0.4537
  555MOL0     H76571  10.632   6.457   5.616  1.1693  0.4554 -1.5037
  555MOL0     H76572  10.855   6.741   5.611 -0.0320 -0.2533 -0.2855
  555MOL0     H76573  11.045   6.792   5.500 -1.7551 -1.9555 -1.2802
  555MOL0     H76574   9.920   6.886   5.430 -0.6932  0.4216  1.4303
  555MOL0     H76575   9.709   6.830   5.536 -0.4334  2.0923 -0.9130
  555MOL0     H76576   9.442   6.329   5.650 -0.3094 -0.5802  2.0511
  555MOL0     H76577   9.239   6.278   5.770 -3.3352  0.3978 -0.6465
  555MOL0     H76578   8.910   6.351   5.943 -1.1886  1.2771 -2.9384
  555MOL0     H76579   9.052   6.261   5.870  1.2175  0.4735 -0.6764
  555MOL0     H76580   9.200   6.340   6.023  0.9376  2.4184 -0.1159
  555MOL0     H76581   9.059   6.285   6.117 -0.1460  0.4308  0.3870
  555MOL0     H76582   9.134   6.581   6.060 -0.1067 -0.1581 -0.9533
  555MOL0     H76583   8.983   6.531   6.127 -0.6825 -0.6285 -2.4672
  555MOL0     H76584   9.263   6.499   6.249  0.5706 -0.4186 -0.2736
  555MOL0     H76585   9.135   6.406   6.297  1.8786 -2.4369 -3.4171
  555MOL0     H76586   9.028   6.779   6.458  0.6360 -0.7291  1.2689
  555MOL0     H76587   9.116   6.678   5.760  0.5577  0.7269  1.1577
  555MOL0     H76588   9.445   6.834   5.660  0.6538 -1.9076 -2.0397
  555MOL0     H76589   9.317   6.802   5.537  2.8108 -3.0623 -0.8549
  555MOL0     H76590   9.282   6.853   5.710  0.2660 -1.6497  2.0682
  556MOL0     O76591   7.146  10.512   6.437  0.0459 -0.0882 -0.2170
  556MOL0     C76592   7.101  10.509   6.326  1.3080  0.0056  0.0618
  556MOL0     O76593   6.985  10.573   6.290 -0.6050  0.0707 -0.3046
  556MOL0     C76594   6.909  10.640   6.384  0.4695 -0.2615  0.0877
  556MOL0     C76595   6.937  10.766   6.441 -0.1482  0.5684  0.8442
  556MOL0     C76596   6.852  10.819   6.534  0.0703 -0.2115  0.1978
  556MOL0     C76597   6.732  10.756   6.573 -0.1986 -0.1096  0.1205
  556MOL0     O76598   6.666  10.815   6.680 -1.0041  0.1101  0.0160
  556MOL0     C76599   6.524  10.831   6.672 -0.2126 -0.4788  1.0044
  556MOL0     C76600   6.482  10.941   6.771 -0.3825 -0.5382 -0.1060
  556MOL0     C76601   6.491  10.905   6.919  0.5727 -0.7959 -0.4819
  556MOL0     C76602   6.456  11.019   7.010 -0.3970  0.1027  0.1660
  556MOL0     C76603   6.424  10.958   7.154 -0.0861  0.1929  0.0375
  556MOL0     C76604   6.554  10.910   7.219 -1.1719  0.1520  1.5179
  556MOL0     C76605   6.514  10.867   7.367 -0.0977 -0.6393  0.8053
  556MOL0     C76606   6.629  10.863   7.469  0.2773 -0.3901 -0.4437
  556MOL0     N76607   6.724  10.761   7.416  0.0943 -1.0877 -0.2882
  556MOL0     C76608   6.717  10.627   7.439 -0.2182  0.1728 -0.1898
  556MOL0     C76609   6.841  10.586   7.399 -0.3253  0.0706  0.6517
  556MOL0     C76610   6.885  10.442   7.406  0.4851 -0.7079  0.6784
  556MOL0     C76611   6.993  10.407   7.516  0.8847 -0.0675 -0.8074
  556MOL0     C76612   7.136  10.452   7.475 -0.1284 -0.2989 -1.1949
  556MOL0     C76613   7.208  10.350   7.381  1.0445  0.3857  0.6468
  556MOL0     O76614   7.204  10.215   7.441 -0.2989 -0.5685  0.4022
  556MOL0     C76615   7.312  10.140   7.392  0.4573  1.0981 -0.5362
  556MOL0     C76616   7.286  10.030   7.308 -0.3842 -0.2470  0.3182
  556MOL0     C76617   7.390   9.942   7.270  0.8319 -1.1822 -0.0152
  556MOL0     C76618   7.370   9.836   7.161  1.4973 -0.1579 -0.9293
  556MOL0     C76619   7.511   9.949   7.346 -0.1830 -0.1847 -0.2328
  556MOL0     C76620   7.625   9.857   7.332 -0.2567  0.6707  0.4751
  556MOL0     O76621   7.741   9.900   7.389  1.0667 -0.4913  0.5375
  556MOL0     C76622   7.846   9.818   7.407 -0.5289  0.1715 -0.1028
  556MOL0     C76623   7.839   9.694   7.475 -0.2703  0.9483  0.4692
  556MOL0     C76624   7.956   9.613   7.474  0.5138  0.5680 -0.3332
  556MOL0     C76625   8.079   9.660   7.427 -0.0696  0.1083  0.5636
  556MOL0     O76626   8.197   9.597   7.436 -0.1309  0.2526 -0.1177
  556MOL0     C76627   8.220   9.513   7.552  1.4686 -0.0568  0.9347
  556MOL0     C76628   8.372   9.484   7.568 -0.2462  0.4623  0.5401
  556MOL0     C76629   8.411   9.366   7.662  0.1095 -0.4176  0.9338
  556MOL0     C76630   8.548   9.378   7.702  0.2079  0.0775 -0.3965
  556MOL0     C76631   8.583   9.274   7.814 -0.0827 -0.1762 -0.0058
  556MOL0     C76632   8.597   9.133   7.777 -0.0781  0.7552 -0.4956
  556MOL0     C76633   8.679   9.051   7.885 -0.2045  0.1415  0.3078
  556MOL0     C76634   8.650   8.897   7.875  0.3021 -1.6764 -0.2371
  556MOL0    Cl76635   8.674   8.833   7.692  0.6708 -0.2827 -0.1162
  556MOL0     C76636   8.083   9.788   7.385  0.3812  0.4911 -0.2600
  556MOL0     C76637   7.963   9.864   7.361  0.5251  0.3311 -0.8409
  556MOL0     O76638   7.615   9.748   7.267  0.4351 -0.2010  0.0226
  556MOL0     C76639   7.534  10.060   7.428 -0.1009 -0.1007 -0.1860
  556MOL0     C76640   7.432  10.152   7.456 -0.0011  0.2871 -0.4465
  556MOL0     N76641   6.916  10.690   7.345 -0.1596  0.0547 -0.2256
  556MOL0     N76642   6.844  10.800   7.351 -0.6547  0.2488  0.6858
  556MOL0     C76643   6.711  10.632   6.525  0.0955  0.3216 -0.1771
  556MOL0     C76644   6.788  10.574   6.423 -0.0655  0.3674 -0.5272
  556MOL0     C76645   7.189  10.467   6.209  0.8270  0.7201  0.0776
  556MOL0     C76646   7.132  10.442   6.084  0.1863  0.8293 -0.4475
  556MOL0     C76647   7.199  10.430   5.964  0.6773  0.6246  0.0371
  556MOL0     C76648   7.337  10.417   5.968 -0.2192 -0.6696 -0.2844
  556MOL0     O76649   7.416  10.393   5.856 -0.1176  0.4492  0.6355
  556MOL0     C76650   7.367  10.334   5.736  1.2315  0.0780 -0.3050
  556MOL0     C76651   7.324  10.451   5.654 -0.6465 -0.0025  0.7282
  556MOL0     C76652   7.444  10.539   5.610 -0.6498  0.0724 -0.0517
  556MOL0     C76653   7.399  10.640   5.508 -0.2528  0.2122  0.1186
  556MOL0     C76654   7.330  10.750   5.573 -0.7223 -0.0757  0.1720
  556MOL0     C76655   7.274  10.844   5.625  0.1864  0.8284  0.2048
  556MOL0     C76656   7.400  10.434   6.089 -1.0588 -0.0609 -0.6601
  556MOL0     C76657   7.335  10.469   6.210 -0.4026 -0.1732 -0.3452
  556MOL0     C76658   7.401  10.493   6.340  0.1761 -0.3236 -0.2076
  556MOL0     H76659   7.018  10.825   6.400 -0.4925  0.1406 -0.5210
  556MOL0     H76660   6.874  10.913   6.584  0.7323 -0.2237 -0.0648
  556MOL0     H76661   6.469  10.744   6.708 -1.1994 -0.3319 -0.0765
  556MOL0     H76662   6.491  10.851   6.570 -0.7602 -2.0955  0.8299
  556MOL0     H76663   6.542  11.032   6.766 -0.1286 -0.5710  1.7398
  556MOL0     H76664   6.380  10.975   6.747  0.2834 -0.0355 -2.4704
  556MOL0     H76665   6.413  10.831   6.937 -2.0164  1.2266 -2.5498
  556MOL0     H76666   6.592  10.870   6.939  1.1378  1.3386  0.7652
  556MOL0     H76667   6.540  11.089   7.016  1.1513 -1.4391 -1.9608
  556MOL0     H76668   6.372  11.060   6.953  2.0317 -0.9806 -4.6928
  556MOL0     H76669   6.345  10.883   7.150  1.3615 -1.4177  0.7448
  556MOL0     H76670   6.387  11.041   7.215  2.0614  0.8406  0.5450
  556MOL0     H76671   6.585  10.817   7.170 -2.8939  0.9382 -1.3503
  556MOL0     H76672   6.629  10.989   7.217 -1.9936  1.1865 -4.0454
  556MOL0     H76673   6.456  10.775   7.368 -1.5736  0.2551  0.5406
  556MOL0     H76674   6.433  10.928   7.406  0.1564 -0.4401  1.0278
  556MOL0     H76675   6.675  10.962   7.479  0.8333 -0.8153  1.4918
  556MOL0     H76676   6.586  10.835   7.565 -0.5126 -1.2556 -1.0273
  556MOL0     H76677   6.630  10.572   7.475 -0.6911  0.4600 -0.8560
  556MOL0     H76678   6.928  10.407   7.311 -0.5606  3.1943 -1.4441
  556MOL0     H76679   6.793  10.387   7.426 -1.6822  1.7337 -1.7805
  556MOL0     H76680   6.956  10.459   7.604 -2.2424 -1.1037 -1.3842
  556MOL0     H76681   7.002  10.298   7.522  1.3350 -0.1522 -2.3488
  556MOL0     H76682   7.124  10.546   7.421 -1.6862  0.5347  0.4826
  556MOL0     H76683   7.200  10.477   7.560 -0.8980 -0.9442 -0.4006
  556MOL0     H76684   7.163  10.340   7.282  0.7440  0.2368  0.7965
  556MOL0     H76685   7.306  10.389   7.352  0.9823 -0.4694 -0.7716
  556MOL0     H76686   7.187  10.029   7.261  0.7512  1.8568 -2.4272
  556MOL0     H76687   7.369   9.737   7.207  1.5997 -0.5829 -1.8342
  556MOL0     H76688   7.451   9.853   7.089  0.4996  0.4930 -1.9270
  556MOL0     H76689   7.276   9.849   7.107  1.7839  1.1928 -1.1585
  556MOL0     H76690   7.752   9.654   7.527 -0.6828  1.9771  0.5785
  556MOL0     H76691   7.927   9.519   7.519 -0.6102  1.6493  1.3247
  556MOL0     H76692   8.182   9.562   7.642 -0.6453 -0.6504  0.4364
  556MOL0     H76693   8.151   9.429   7.536 -1.6495  2.3366  0.7125
  556MOL0     H76694   8.414   9.470   7.468  0.4108  1.0539  0.7190
  556MOL0     H76695   8.401   9.580   7.613 -0.3190  0.4833  0.5421
  556MOL0     H76696   8.405   9.266   7.617  0.5196 -2.0707  4.2352
  556MOL0     H76697   8.344   9.364   7.748 -0.7990 -1.7824  0.2415
  556MOL0     H76698   8.562   9.478   7.744  0.7053 -0.1415 -0.0347
  556MOL0     H76699   8.610   9.371   7.612 -0.3087 -1.0056 -0.6877
  556MOL0     H76700   8.675   9.308   7.862 -0.5788  1.2123  0.0020
  556MOL0     H76701   8.498   9.278   7.883 -0.5177 -0.9976 -0.4826
  556MOL0     H76702   8.644   9.142   7.678 -5.0954  1.5012 -3.1528
  556MOL0     H76703   8.499   9.085   7.767  0.7817 -1.2387  0.2534
  556MOL0     H76704   8.672   9.085   7.989 -0.2551  1.9347 -0.2364
  556MOL0     H76705   8.785   9.060   7.861 -0.1571  1.9531  1.0144
  556MOL0     H76706   8.550   8.872   7.913  0.2187 -2.0085 -0.6748
  556MOL0     H76707   8.710   8.853   7.955 -1.6903 -0.2869  2.1803
  556MOL0     H76708   8.170   9.834   7.340 -0.1808 -0.9228 -2.9774
  556MOL0     H76709   7.965   9.962   7.315 -0.5911  0.3703 -0.8312
  556MOL0     H76710   7.627  10.075   7.481 -1.0137  0.8985  1.2207
  556MOL0     H76711   7.450  10.230   7.529  2.8109  1.1807 -1.9597
  556MOL0     H76712   6.628  10.579   6.570  1.2487 -0.5081  1.0517
  556MOL0     H76713   6.767  10.472   6.393  3.2128  0.1741 -2.6346
  556MOL0     H76714   7.024  10.454   6.074  0.2576  0.4682 -1.8367
  556MOL0     H76715   7.154  10.428   5.866  2.9032  0.0244 -1.0390
  556MOL0     H76716   7.436  10.272   5.677  2.5647  0.5219  0.7211
  556MOL0     H76717   7.289  10.262   5.764  1.7613 -0.3913 -0.0099
  556MOL0     H76718   7.260  10.515   5.716  0.1122  1.2599  0.2574
  556MOL0     H76719   7.276  10.420   5.561  3.3104  4.1117 -3.2824
  556MOL0     H76720   7.480  10.592   5.698 -3.2619 -0.3216  1.3471
  556MOL0     H76721   7.526  10.477   5.570 -0.7408  0.6874 -1.2391
  556MOL0     H76722   7.334  10.608   5.426 -1.2084  3.7307 -0.6525
  556MOL0     H76723   7.488  10.692   5.471 -2.2554  3.0412 -1.0765
  556MOL0     H76724   7.247  10.941   5.663 -0.0316  0.2454  1.6346
  556MOL0     H76725   7.507  10.419   6.084 -1.0416  0.1183 -6.3816
  556MOL0     H76726   7.510  10.488   6.331  0.1621 -3.5945  0.3488
  556MOL0     H76727   7.374  10.590   6.384  3.3960 -0.3087  2.0945
  556MOL0     H76728   7.379  10.420   6.418  0.9194 -1.1326 -0.7313
  557MOL0     O76729   4.062   8.187   8.858  0.1539 -0.5101 -0.2150
  557MOL0     C76730   4.122   8.287   8.896 -0.0420  0.8741  0.6503
  557MOL0     O76731   4.059   8.402   8.919 -0.5226 -0.3606  0.2094
  557MOL0     C76732   3.921   8.403   8.899  0.1604  0.0735  0.1926
  557MOL0     C76733   3.816   8.338   8.977  0.7795  0.1927  1.5025
  557MOL0     C76734   3.684   8.325   8.908  0.0508  0.7857 -0.5886
  557MOL0     C76735   3.664   8.386   8.785 -0.1822  0.2461 -0.9785
  557MOL0     O76736   3.543   8.383   8.726  1.0657  0.2714  0.3384
  557MOL0     C76737   3.523   8.377   8.579  0.4610  0.8504  0.1339
  557MOL0     C76738   3.372   8.366   8.539  0.5436 -0.2757  0.6986
  557MOL0     C76739   3.294   8.484   8.601 -0.3217 -0.0242 -0.2008
  557MOL0     C76740   3.146   8.502   8.575  1.1808  1.2718  0.6826
  557MOL0     C76741   3.089   8.625   8.651  0.3706  0.1025  0.2735
  557MOL0     C76742   3.052   8.577   8.791  0.4509  0.1065 -0.3753
  557MOL0     C76743   3.023   8.712   8.862 -0.1912 -0.1221 -0.1690
  557MOL0     C76744   2.981   8.693   9.016  0.1242 -0.1227  0.3673
  557MOL0     N76745   2.968   8.823   9.084 -0.1188 -0.1992  0.2957
  557MOL0     C76746   3.075   8.903   9.108 -0.3677 -0.6813 -0.0208
  557MOL0     C76747   3.024   9.012   9.176 -0.2536  0.2811  0.2994
  557MOL0     C76748   3.085   9.140   9.218  0.1099 -0.6745 -0.4585
  557MOL0     C76749   3.207   9.128   9.314 -0.5223  0.3625 -0.2649
  557MOL0     C76750   3.240   9.274   9.361  0.5263 -0.2419 -0.9189
  557MOL0     C76751   3.365   9.296   9.450 -0.5954  0.0485  0.4533
  557MOL0     O76752   3.489   9.307   9.375 -0.8258  0.3621  0.4777
  557MOL0     C76753   3.599   9.321   9.452  0.1600 -0.1583 -0.4521
  557MOL0     C76754   3.607   9.378   9.576 -0.8546 -0.2177 -0.7714
  557MOL0     C76755   3.721   9.383   9.653  0.5852 -0.6187  0.5371
  557MOL0     C76756   3.722   9.451   9.781 -0.2328 -0.4689  0.2315
  557MOL0     C76757   3.838   9.328   9.602 -0.4147  0.4232  0.2133
  557MOL0     C76758   3.962   9.295   9.684 -0.0285  0.3738  0.2838
  557MOL0     O76759   4.071   9.233   9.610 -0.3948 -0.5242 -0.2579
  557MOL0     C76760   4.188   9.201   9.664  0.4903  0.4352  0.5770
  557MOL0     C76761   4.237   9.236   9.796  0.0058  1.2058  0.8410
  557MOL0     C76762   4.350   9.172   9.839  0.0461  0.2834  0.4548
  557MOL0     C76763   4.429   9.088   9.759 -0.3817 -1.2025  0.3266
  557MOL0     O76764   4.544   9.045   9.807  0.0195  0.7804 -0.4954
  557MOL0     C76765   4.620   8.942   9.732  0.9641  0.4235 -0.3274
  557MOL0     C76766   4.733   8.913   9.824 -0.0847 -0.0171  0.2169
  557MOL0     C76767   4.686   8.838   9.946 -0.8336  0.6453  0.1168
  557MOL0     C76768   4.796   8.784  10.035  0.2477 -0.0128  0.0167
  557MOL0     C76769   4.743   8.709  10.166  0.1085  0.4025  0.4284
  557MOL0     C76770   4.695   8.555  10.147 -0.8045  0.3321  0.5769
  557MOL0     C76771   4.823   8.464  10.139 -0.3287 -0.2076  0.4057
  557MOL0     C76772   4.775   8.322  10.107 -0.3132  0.3162  0.3518
  557MOL0    Cl76773   4.891   8.195  10.131 -0.4481 -0.0196  0.1653
  557MOL0     C76774   4.387   9.061   9.624  0.4971 -0.3166  0.2728
  557MOL0     C76775   4.263   9.115   9.582 -0.8940  0.0037  0.0734
  557MOL0     O76776   3.960   9.320   9.802  0.3687 -0.5734  0.2294
  557MOL0     C76777   3.836   9.274   9.472 -0.8120 -0.6454  0.0205
  557MOL0     C76778   3.715   9.275   9.403 -0.5174  0.0315 -0.3194
  557MOL0     N76779   2.890   8.990   9.195 -0.4043  0.5921 -0.1112
  557MOL0     N76780   2.859   8.871   9.147  0.7967  0.1937 -0.2410
  557MOL0     C76781   3.766   8.454   8.717 -0.0497  0.1413 -0.1350
  557MOL0     C76782   3.890   8.446   8.775 -0.0946 -0.5389 -0.1387
  557MOL0     C76783   4.258   8.285   8.952 -0.8872  0.5134  0.8807
  557MOL0     C76784   4.283   8.315   9.089  0.9434 -0.0694  1.0460
  557MOL0     C76785   4.414   8.339   9.131 -0.1679 -0.3720  0.3681
  557MOL0     C76786   4.517   8.339   9.039  0.0755 -0.4573  0.0192
  557MOL0     O76787   4.635   8.385   9.091 -0.0021  0.1566 -0.4320
  557MOL0     C76788   4.702   8.284   9.171 -0.2015 -0.6931 -0.3590
  557MOL0     C76789   4.825   8.234   9.104  0.1948 -0.3273  0.9009
  557MOL0     C76790   4.901   8.343   9.017 -0.0467 -0.1987 -0.2045
  557MOL0     C76791   5.037   8.295   9.004 -0.1623  1.1235 -0.7282
  557MOL0     C76792   5.106   8.383   8.917  0.3676 -0.1227 -0.0522
  557MOL0     C76793   5.161   8.444   8.831 -0.4074 -0.7270 -1.2607
  557MOL0     C76794   4.496   8.314   8.905 -0.5495 -0.9976 -0.0016
  557MOL0     C76795   4.367   8.273   8.858 -0.3081 -1.0418  0.1699
  557MOL0     C76796   4.358   8.226   8.715 -0.4223 -0.7692 -0.1194
  557MOL0     H76797   3.820   8.293   9.075 -1.1794 -1.2302  0.9877
  557MOL0     H76798   3.600   8.282   8.962 -0.6982  2.2409 -0.5434
  557MOL0     H76799   3.576   8.290   8.539 -1.2611 -0.1465 -0.0539
  557MOL0     H76800   3.563   8.462   8.523 -1.7399  1.0007 -1.3278
  557MOL0     H76801   3.367   8.363   8.430  0.0123  0.0714  0.7103
  557MOL0     H76802   3.329   8.271   8.573  0.2215 -1.0974 -1.7630
  557MOL0     H76803   3.307   8.499   8.709 -2.9301 -0.6801  0.2782
  557MOL0     H76804   3.350   8.566   8.555  0.4968 -0.4660 -0.0065
  557MOL0     H76805   3.143   8.526   8.469  1.2530  2.4631  0.9382
  557MOL0     H76806   3.090   8.410   8.593 -1.6373  2.9009  0.6928
  557MOL0     H76807   3.003   8.673   8.603 -0.1906  0.0089  1.1593
  557MOL0     H76808   3.163   8.705   8.657  0.1451  0.6827 -3.0069
  557MOL0     H76809   2.973   8.502   8.782  1.2749 -0.7122 -0.8177
  557MOL0     H76810   3.139   8.534   8.841 -1.0191 -2.5333  0.0843
  557MOL0     H76811   2.947   8.767   8.805  0.8391  0.6069 -0.8712
  557MOL0     H76812   3.112   8.775   8.865  0.6588 -1.0580 -2.6831
  557MOL0     H76813   2.896   8.627   9.032  0.0006  0.0186  0.2963
  557MOL0     H76814   3.066   8.648   9.069  0.4576  2.6414  2.3972
  557MOL0     H76815   3.180   8.892   9.081 -0.3109 -1.3531  0.4332
  557MOL0     H76816   2.999   9.190   9.263 -0.0738 -0.1060 -1.4137
  557MOL0     H76817   3.117   9.198   9.131  1.4458 -0.5995  0.0576
  557MOL0     H76818   3.172   9.064   9.396 -1.7429  1.2635 -0.0462
  557MOL0     H76819   3.294   9.083   9.267 -2.6562 -1.9829 -2.2640
  557MOL0     H76820   3.241   9.335   9.270 -1.1548 -1.7936 -2.0640
  557MOL0     H76821   3.160   9.311   9.426  2.3775  0.9244  0.8010
  557MOL0     H76822   3.343   9.383   9.513 -2.6496  0.5302 -0.8179
  557MOL0     H76823   3.372   9.209   9.516 -0.7876 -1.4042 -1.3629
  557MOL0     H76824   3.511   9.414   9.609 -0.4308  0.5088 -0.3129
  557MOL0     H76825   3.635   9.516   9.777  0.4329  0.4321 -0.1144
  557MOL0     H76826   3.806   9.521   9.788 -0.9495  0.2750  2.0766
  557MOL0     H76827   3.734   9.388   9.870 -1.5222 -0.6652  0.2801
  557MOL0     H76828   4.204   9.313   9.865  2.1139  2.4234  0.5792
  557MOL0     H76829   4.398   9.197   9.933  2.1181 -1.3173 -0.0941
  557MOL0     H76830   4.554   8.856   9.718  0.8562  0.0757  1.9487
  557MOL0     H76831   4.650   8.989   9.638  1.6893 -1.2957 -1.0010
  557MOL0     H76832   4.812   8.858   9.772  1.4714  0.5170  1.9278
  557MOL0     H76833   4.788   9.004   9.849  1.7520 -1.2465  0.8033
  557MOL0     H76834   4.620   8.757   9.918 -1.2306  0.6938  0.8774
  557MOL0     H76835   4.631   8.903  10.015  1.9416  2.2098  1.0265
  557MOL0     H76836   4.861   8.866  10.068  1.0247 -1.0183  1.0543
  557MOL0     H76837   4.855   8.718   9.970  0.7127 -2.2622  2.5474
  557MOL0     H76838   4.830   8.711  10.232  1.1163  3.8789 -0.7700
  557MOL0     H76839   4.659   8.766  10.206 -1.9325 -0.8739 -1.7953
  557MOL0     H76840   4.627   8.557  10.062  0.1628  0.8959 -0.2024
  557MOL0     H76841   4.633   8.529  10.233 -1.5504  2.9186  0.9287
  557MOL0     H76842   4.875   8.476  10.234 -2.4844  0.5648  1.5569
  557MOL0     H76843   4.887   8.496  10.056 -1.2366  0.6215  0.0133
  557MOL0     H76844   4.742   8.330  10.003 -0.0770  0.8971  0.3212
  557MOL0     H76845   4.684   8.311  10.167 -1.3546  2.6355 -0.6749
  557MOL0     H76846   4.455   9.014   9.553  0.4652 -2.8534  1.7802
  557MOL0     H76847   4.230   9.109   9.479  1.0953 -2.1106 -0.5463
  557MOL0     H76848   3.914   9.214   9.426  0.9447  1.9474 -0.5761
  557MOL0     H76849   3.726   9.236   9.302  2.6077  3.7662 -1.6790
  557MOL0     H76850   3.747   8.490   8.617 -1.8076  2.3318  0.9089
  557MOL0     H76851   3.973   8.471   8.709  1.8945 -4.4215  0.6059
  557MOL0     H76852   4.202   8.318   9.161  0.1615 -1.9249  0.3045
  557MOL0     H76853   4.429   8.370   9.234 -3.8030  0.7375  0.7040
  557MOL0     H76854   4.735   8.329   9.265 -1.7844 -4.2424  2.0755
  557MOL0     H76855   4.643   8.204   9.215  0.8424 -0.5192  1.4452
  557MOL0     H76856   4.802   8.152   9.035  1.1534 -0.7364  1.0594
  557MOL0     H76857   4.878   8.178   9.181 -2.4165  0.4158  3.3999
  557MOL0     H76858   4.855   8.368   8.922  0.7696  1.5926 -0.1803
  557MOL0     H76859   4.896   8.439   9.070  0.2469 -0.5877  0.5544
  557MOL0     H76860   5.044   8.193   8.963  0.5457  0.3732  1.1472
  557MOL0     H76861   5.082   8.284   9.103  0.2799 -2.1639 -1.1575
  557MOL0     H76862   5.218   8.484   8.750  0.1004 -3.4326 -2.3673
  557MOL0     H76863   4.584   8.310   8.842  1.7388  2.4351  2.6756
  557MOL0     H76864   4.329   8.121   8.714 -1.5692 -0.4780  0.7153
  557MOL0     H76865   4.292   8.282   8.647  0.2306  2.5278  1.7562
  557MOL0     H76866   4.461   8.232   8.677 -0.2475  0.2171  0.4732
  558MOL0     O76867  11.429  10.526   1.429  0.5547 -0.2442 -0.0141
  558MOL0     C76868  11.532  10.463   1.448 -0.6771  0.4425  0.1072
  558MOL0     O76869  11.537  10.341   1.489  0.1479  0.2701 -0.1983
  558MOL0     C76870  11.421  10.267   1.483 -0.8254 -0.2568 -0.2913
  558MOL0     C76871  11.363  10.213   1.369 -0.1921 -0.5912 -0.7594
  558MOL0     C76872  11.245  10.132   1.369  1.2432 -0.4818 -0.1581
  558MOL0     C76873  11.181  10.105   1.491 -0.5280 -0.7838 -1.1375
  558MOL0     O76874  11.064  10.028   1.489 -0.1953  0.0275  0.2317
  558MOL0     C76875  10.997  10.000   1.608 -0.6331 -0.3509 -0.6853
  558MOL0     C76876  10.877   9.921   1.568  0.7807 -0.0101 -0.4473
  558MOL0     C76877  10.924   9.790   1.504  0.6470 -0.1737 -0.3262
  558MOL0     C76878  10.824   9.675   1.537  0.5357 -0.2419  0.0876
  558MOL0     C76879  10.846   9.606   1.675  0.5567 -0.7411  0.3110
  558MOL0     C76880  10.750   9.490   1.688 -0.4391  0.0617  0.0202
  558MOL0     C76881  10.790   9.433   1.825 -0.6322  0.1809 -0.6795
  558MOL0     C76882  10.679   9.376   1.910  0.4260  0.1397  0.4593
  558MOL0     N76883  10.574   9.476   1.940 -0.8997 -0.1414  0.3038
  558MOL0     C76884  10.443   9.450   1.942 -0.3379 -0.1986  1.2233
  558MOL0     C76885  10.385   9.566   1.993 -0.1873  0.3008 -0.3681
  558MOL0     C76886  10.233   9.578   2.016 -0.4905 -0.3869  0.0900
  558MOL0     C76887  10.158   9.533   1.894 -0.9010 -0.8083  0.6714
  558MOL0     C76888  10.019   9.582   1.901  0.1167 -0.0139  0.5940
  558MOL0     C76889   9.926   9.560   1.780  0.0922 -0.2689  0.4222
  558MOL0     O76890   9.799   9.634   1.792 -0.1634  0.3977  0.5853
  558MOL0     C76891   9.707   9.647   1.695  0.4753 -0.3514 -0.5434
  558MOL0     C76892   9.720   9.597   1.566 -0.4214  0.5337  0.6320
  558MOL0     C76893   9.625   9.618   1.462 -0.5102  0.5917  0.0562
  558MOL0     C76894   9.650   9.563   1.326  0.8018  0.7541  0.2294
  558MOL0     C76895   9.508   9.676   1.500 -0.3401 -0.6150  0.1576
  558MOL0     C76896   9.390   9.697   1.408 -0.4214  0.7867 -0.0268
  558MOL0     O76897   9.422   9.764   1.298  0.6916 -0.1121  0.0665
  558MOL0     C76898   9.334   9.769   1.194  0.9861 -0.3465 -0.5410
  558MOL0     C76899   9.262   9.657   1.145  0.9315 -0.0402 -0.1997
  558MOL0     C76900   9.166   9.674   1.047  1.3324 -0.4073 -0.2967
  558MOL0     C76901   9.145   9.799   0.990  0.0405 -0.3680  0.7030
  558MOL0     O76902   9.050   9.843   0.904 -0.2280  0.0705 -0.9292
  558MOL0     C76903   8.931   9.764   0.882 -0.8484  0.2910  0.9918
  558MOL0     C76904   8.827   9.840   0.812 -0.2179 -0.3692  0.3606
  558MOL0     C76905   8.875   9.860   0.665  0.2037 -0.3606 -0.4907
  558MOL0     C76906   8.776   9.959   0.604  0.2981  0.0053  0.9477
  558MOL0     C76907   8.831  10.009   0.467 -0.5690  0.4693 -0.5904
  558MOL0     C76908   8.724  10.090   0.388 -0.1977 -0.0768 -0.8149
  558MOL0     C76909   8.668  10.206   0.464  0.2069  0.2626 -0.1696
  558MOL0     C76910   8.568  10.279   0.378 -0.0647 -1.0210  0.6524
  558MOL0    Cl76911   8.662  10.350   0.245  0.4298  0.2249  0.1551
  558MOL0     C76912   9.226   9.909   1.032 -0.7490  0.2639  1.1186
  558MOL0     C76913   9.324   9.895   1.128  0.1719 -0.0494  0.1258
  558MOL0     O76914   9.274   9.664   1.446 -0.1687  0.1113 -0.5568
  558MOL0     C76915   9.491   9.732   1.631 -0.1969  0.6575  0.5866
  558MOL0     C76916   9.594   9.721   1.729  0.9187 -0.2794  0.8829
  558MOL0     N76917  10.491   9.647   2.027  0.0775 -0.0532  0.2719
  558MOL0     N76918  10.601   9.594   1.996  0.4326  0.0311  0.9266
  558MOL0     C76919  11.243  10.157   1.614  0.0565  0.0254  0.9664
  558MOL0     C76920  11.356  10.238   1.604 -0.7425 -0.5455 -0.0789
  558MOL0     C76921  11.668  10.525   1.433 -0.2430  0.3776 -0.5599
  558MOL0     C76922  11.760  10.484   1.332 -0.1033 -0.8082  0.4625
  558MOL0     C76923  11.879  10.556   1.318  0.1466 -0.4668  0.0173
  558MOL0     C76924  11.910  10.664   1.398  0.2421 -0.4141  0.0084
  558MOL0     O76925  12.023  10.740   1.393  0.2460  0.0775 -0.6425
  558MOL0     C76926  12.104  10.743   1.278 -0.0024 -0.4163  0.0508
  558MOL0     C76927  12.180  10.881   1.281 -0.1502 -0.7044 -0.1384
  558MOL0     C76928  12.234  10.917   1.145 -0.1576  1.0929  0.8984
  558MOL0     C76929  12.129  10.983   1.054 -0.8610 -0.9822 -0.8782
  558MOL0     C76930  12.176  11.014   0.919  1.1147  0.8179 -0.2171
  558MOL0     C76931  12.220  11.055   0.815 -0.3118  0.4753  0.6333
  558MOL0     C76932  11.828  10.688   1.498 -0.0955 -0.4563 -0.0297
  558MOL0     C76933  11.697  10.634   1.514 -1.0699  0.1084 -0.5522
  558MOL0     C76934  11.609  10.689   1.629  0.1945 -0.7939  0.8992
  558MOL0     H76935  11.402  10.245   1.272  1.1233 -2.8399 -1.0372
  558MOL0     H76936  11.200  10.103   1.274  1.5936  0.2884 -0.5747
  558MOL0     H76937  10.973  10.094   1.659 -2.1972 -1.8363  1.5054
  558MOL0     H76938  11.059   9.947   1.681 -1.2751 -1.3587 -0.8588
  558MOL0     H76939  10.814   9.914   1.657  0.4450  2.4318 -0.4363
  558MOL0     H76940  10.819   9.974   1.492  1.3841  1.6362  0.1965
  558MOL0     H76941  10.907   9.807   1.397 -1.5244 -2.0802 -0.3653
  558MOL0     H76942  11.026   9.769   1.536  0.4251 -1.1682 -0.2585
  558MOL0     H76943  10.722   9.716   1.534  1.2299  1.5839 -3.4351
  558MOL0     H76944  10.835   9.601   1.457  1.7837  0.6135 -0.5575
  558MOL0     H76945  10.821   9.670   1.760 -0.0738  2.4393 -2.0697
  558MOL0     H76946  10.952   9.579   1.680  1.2017  0.4218 -3.4003
  558MOL0     H76947  10.648   9.529   1.687 -0.2426  1.0100 -4.4419
  558MOL0     H76948  10.757   9.411   1.612  0.4021  0.5371 -0.4173
  558MOL0     H76949  10.839   9.503   1.894  0.3781 -0.7729 -0.3917
  558MOL0     H76950  10.851   9.344   1.806 -0.5345  0.3802 -1.3076
  558MOL0     H76951  10.623   9.291   1.868  1.1857 -0.6203  0.9523
  558MOL0     H76952  10.725   9.347   2.005 -1.2204  0.0392  1.2547
  558MOL0     H76953  10.392   9.358   1.914 -0.6241  0.7276 -1.6263
  558MOL0     H76954  10.204   9.678   2.047 -0.8030 -1.0739  2.1671
  558MOL0     H76955  10.224   9.509   2.101 -0.2077 -0.1934  0.2793
  558MOL0     H76956  10.203   9.581   1.807 -0.7952  2.1684  2.2049
  558MOL0     H76957  10.160   9.424   1.890  0.9966 -0.7769 -1.0405
  558MOL0     H76958   9.959   9.548   1.986 -2.2824 -0.8393 -1.3142
  558MOL0     H76959  10.032   9.690   1.916  0.4799  0.5448 -2.8765
  558MOL0     H76960   9.977   9.593   1.688  0.9469 -2.6432 -0.0165
  558MOL0     H76961   9.910   9.453   1.771  0.2443 -0.2479 -0.1790
  558MOL0     H76962   9.809   9.539   1.545 -0.3922  0.6026  0.5615
  558MOL0     H76963   9.724   9.629   1.281  0.4522 -0.3181 -2.0648
  558MOL0     H76964   9.555   9.561   1.271  1.0066  1.0161 -0.1361
  558MOL0     H76965   9.687   9.460   1.319 -1.9900 -0.2568 -1.1941
  558MOL0     H76966   9.293   9.559   1.180  1.2378 -0.2741 -1.1155
  558MOL0     H76967   9.099   9.593   1.019 -0.4390  0.7052  0.5172
  558MOL0     H76968   8.973   9.682   0.823  0.4259  1.4768  0.1942
  558MOL0     H76969   8.893   9.728   0.978 -0.6530  0.9391  1.3138
  558MOL0     H76970   8.727   9.795   0.815 -0.3668 -0.1240 -0.5108
  558MOL0     H76971   8.816   9.940   0.855 -1.0825  0.5556 -1.8130
  558MOL0     H76972   8.863   9.772   0.602  2.0622 -0.3268 -0.9580
  558MOL0     H76973   8.972   9.910   0.653  0.5912 -1.1477 -0.6802
  558MOL0     H76974   8.760  10.046   0.669  1.7012  0.8108  0.2794
  558MOL0     H76975   8.683   9.905   0.585  0.1586 -0.1836  2.1061
  558MOL0     H76976   8.923  10.068   0.473 -2.0208  3.3099 -3.5185
  558MOL0     H76977   8.861   9.922   0.407  0.8690  1.6825 -1.7060
  558MOL0     H76978   8.635  10.028   0.371 -0.2412 -0.7917  1.5390
  558MOL0     H76979   8.786  10.121   0.305  3.9165  0.3530  2.1233
  558MOL0     H76980   8.746  10.272   0.502  0.2661 -0.4591  1.0160
  558MOL0     H76981   8.613  10.172   0.552  3.3646  1.6008  2.5306
  558MOL0     H76982   8.507  10.359   0.421 -1.7567 -0.4976 -2.4393
  558MOL0     H76983   8.493  10.216   0.329 -0.2389 -1.4722  1.4974
  558MOL0     H76984   9.195  10.004   0.990  0.4372 -0.0236 -0.5232
  558MOL0     H76985   9.377   9.980   1.170  0.6781  0.4526 -1.4493
  558MOL0     H76986   9.402   9.792   1.649 -0.7052  0.3480 -0.7428
  558MOL0     H76987   9.567   9.770   1.822 -2.4879  2.6695 -1.3962
  558MOL0     H76988  11.199  10.142   1.712 -0.7676  4.2005  1.4097
  558MOL0     H76989  11.397  10.273   1.698  0.8460 -2.3425 -0.0623
  558MOL0     H76990  11.730  10.399   1.272 -0.1270 -1.3297  1.2013
  558MOL0     H76991  11.954  10.521   1.248  2.3206 -1.4284  2.6889
  558MOL0     H76992  12.171  10.657   1.268  1.7816  0.9031  0.1940
  558MOL0     H76993  12.036  10.746   1.192  0.0006  1.6922  0.0737
  558MOL0     H76994  12.257  10.892   1.358 -1.4070  5.2420  0.7647
  558MOL0     H76995  12.106  10.955   1.312 -3.2287 -2.9924 -1.4811
  558MOL0     H76996  12.317  10.984   1.170  0.9083 -0.7171  2.4638
  558MOL0     H76997  12.280  10.835   1.089  1.5148  1.7000  1.3045
  558MOL0     H76998  12.099  11.081   1.092  1.1381 -0.5469 -0.3018
  558MOL0     H76999  12.039  10.922   1.045 -1.9502  0.5060 -0.3537
  558MOL0     H77000  12.254  11.101   0.724  0.4508 -3.5952 -1.3905
  558MOL0     H77001  11.864  10.772   1.557  3.0173 -1.1700 -0.7560
  558MOL0     H77002  11.656  10.659   1.723  2.7095 -5.2022 -1.4485
  558MOL0     H77003  11.608  10.799   1.627 -0.4978 -0.7889 -0.8534
  558MOL0     H77004  11.507  10.651   1.624 -0.7111  1.5636 -0.4443
  559MOL0     O77005   9.874   4.432   9.032  0.6149  0.1962  1.3462
  559MOL0     C77006   9.799   4.353   9.087  0.1651 -0.0748  0.1768
  559MOL0     O77007   9.829   4.226   9.114  0.0823 -0.3687 -0.1784
  559MOL0     C77008   9.959   4.189   9.093 -0.0931  0.1190  0.7346
  559MOL0     C77009  10.062   4.249   9.167 -1.6219  0.5869  0.2584
  559MOL0     C77010  10.191   4.201   9.166 -0.5395 -0.2661 -0.2319
  559MOL0     C77011  10.227   4.099   9.085 -0.4276 -0.7109 -0.4000
  559MOL0     O77012  10.354   4.067   9.069 -0.0184 -0.1116  0.0764
  559MOL0     C77013  10.393   3.996   8.943 -0.8441  0.3301 -0.2596
  559MOL0     C77014  10.546   3.978   8.933  0.3919 -0.2287 -0.1248
  559MOL0     C77015  10.604   3.888   9.041  0.0761  0.4362  0.1972
  559MOL0     C77016  10.755   3.861   9.034  0.0024  0.2186  0.7058
  559MOL0     C77017  10.806   3.790   9.165 -0.3153 -0.4651 -0.4295
  559MOL0     C77018  10.739   3.660   9.187  0.2388  0.1626  0.2112
  559MOL0     C77019  10.748   3.607   9.325  1.0437 -0.3599  0.5411
  559MOL0     C77020  10.703   3.451   9.338 -0.1078 -0.1881  0.1396
  559MOL0     N77021  10.791   3.349   9.278  0.1039 -0.4776  0.4445
  559MOL0     C77022  10.898   3.359   9.186  0.2328 -0.6209  0.6420
  559MOL0     C77023  10.925   3.231   9.151 -1.2579  0.2083  0.6088
  559MOL0     C77024  11.017   3.193   9.035 -0.0580  0.1807  0.8307
  559MOL0     C77025  11.154   3.175   9.092 -0.4477  0.6333 -0.5169
  559MOL0     C77026  11.243   3.101   8.985 -0.5469 -0.2528 -0.1976
  559MOL0     C77027  11.363   3.035   9.048  0.8922 -0.6290 -0.4030
  559MOL0     O77028  11.391   2.919   8.971  0.2995  0.4165  0.4980
  559MOL0     C77029  11.493   2.841   9.007 -0.1707 -0.0329  0.2305
  559MOL0     C77030  11.489   2.712   8.955  0.1112  0.1449  0.2633
  559MOL0     C77031  11.592   2.624   8.977  0.6327  1.1327  0.5575
  559MOL0     C77032  11.572   2.496   8.899 -0.0889 -0.0374  1.1782
  559MOL0     C77033  11.709   2.657   9.054 -0.4093 -0.1166  0.0735
  559MOL0     C77034  11.817   2.563   9.088 -0.2069 -0.2592  2.0986
  559MOL0     O77035  11.907   2.603   9.181 -0.0472  0.5059 -0.4187
  559MOL0     C77036  11.987   2.504   9.239  0.6703  0.5970 -0.0491
  559MOL0     C77037  11.924   2.415   9.337 -1.1194 -0.3348  0.6102
  559MOL0     C77038  12.000   2.305   9.373 -0.1687  0.1714  0.1287
  559MOL0     C77039  12.135   2.281   9.330 -0.2338 -0.0275  0.1492
  559MOL0     O77040  12.201   2.172   9.374 -0.4274  0.0151 -0.4450
  559MOL0     C77041  12.312   2.115   9.314 -0.3898 -0.3868  0.0140
  559MOL0     C77042  12.440   2.163   9.377 -0.6359 -0.4348 -0.5783
  559MOL0     C77043  12.452   2.131   9.534 -0.0244  0.3616  0.9186
  559MOL0     C77044  12.564   2.211   9.593  0.2767  0.2472 -0.6363
  559MOL0     C77045  12.552   2.210   9.748 -0.6909 -0.9139  0.1389
  559MOL0     C77046  12.648   2.324   9.813 -0.1667  0.7444 -0.4601
  559MOL0     C77047  12.789   2.349   9.748  0.2970  0.0894  0.0735
  559MOL0     C77048  12.879   2.222   9.751 -0.0670 -0.6303  0.1321
  559MOL0    Cl77049  12.940   2.189   9.912 -0.3906  0.0402  0.1588
  559MOL0     C77050  12.186   2.362   9.236 -0.8099 -1.1469 -0.3360
  559MOL0     C77051  12.116   2.475   9.195  0.7977 -0.5278  0.6624
  559MOL0     O77052  11.822   2.456   9.034  0.1770  1.1762  0.5007
  559MOL0     C77053  11.704   2.786   9.117 -0.0702 -0.1444 -0.1441
  559MOL0     C77054  11.602   2.875   9.089 -0.6260  0.0970  0.3181
  559MOL0     N77055  10.859   3.141   9.232  0.9170  0.6879  0.0010
  559MOL0     N77056  10.780   3.215   9.310 -0.8513  0.0868  0.6682
  559MOL0     C77057  10.123   4.038   9.005  0.1432 -0.0771 -0.3935
  559MOL0     C77058   9.987   4.076   9.024 -0.0206 -0.7085  0.1251
  559MOL0     C77059   9.664   4.393   9.136  0.6981 -0.0780  0.7890
  559MOL0     C77060   9.572   4.292   9.178  0.8135 -0.7002 -0.4741
  559MOL0     C77061   9.441   4.320   9.209 -0.1972 -0.3028  0.4087
  559MOL0     C77062   9.393   4.453   9.208  0.4154  0.8156 -0.0360
  559MOL0     O77063   9.259   4.465   9.244  0.3329 -0.3653  0.1435
  559MOL0     C77064   9.191   4.586   9.276 -1.6926 -0.3304 -0.4712
  559MOL0     C77065   9.089   4.621   9.170 -0.9674  0.2620  0.8457
  559MOL0     C77066   8.952   4.542   9.172 -0.3739  0.9839  0.3370
  559MOL0     C77067   8.884   4.546   9.306 -1.0129  0.1482  0.3101
  559MOL0     C77068   8.738   4.552   9.293 -0.3489 -0.7105 -0.2781
  559MOL0     C77069   8.613   4.549   9.286 -0.3021 -0.5349 -0.1837
  559MOL0     C77070   9.474   4.554   9.174  0.1963  0.0137  0.6335
  559MOL0     C77071   9.611   4.530   9.131 -0.0274  0.5248  0.5033
  559MOL0     C77072   9.688   4.652   9.074 -0.7273 -0.0229 -0.5614
  559MOL0     H77073  10.052   4.333   9.235 -2.6023  2.0152 -1.5429
  559MOL0     H77074  10.273   4.242   9.224  1.6122  3.4571 -5.1730
  559MOL0     H77075  10.351   4.061   8.866 -0.6925 -1.0062 -1.4965
  559MOL0     H77076  10.338   3.902   8.936  2.2813 -1.9462  2.3355
  559MOL0     H77077  10.557   3.937   8.832  0.1978 -0.4208 -0.0669
  559MOL0     H77078  10.594   4.077   8.937  0.8970 -0.4987  0.9685
  559MOL0     H77079  10.597   3.933   9.141  0.6527 -3.3645  2.1329
  559MOL0     H77080  10.565   3.786   9.036  1.0734  0.0883 -1.8492
  559MOL0     H77081  10.799   3.815   8.946  2.6671  2.5848  0.6349
  559MOL0     H77082  10.806   3.954   9.005  3.3482 -2.0715 -1.4733
  559MOL0     H77083  10.791   3.856   9.252 -0.3980  0.3292 -1.0341
  559MOL0     H77084  10.913   3.767   9.158 -0.4598 -1.1920 -0.2629
  559MOL0     H77085  10.635   3.659   9.153  1.7217  0.8963 -5.3723
  559MOL0     H77086  10.784   3.589   9.117 -1.8757  0.7452 -1.8992
  559MOL0     H77087  10.679   3.668   9.384  0.5933 -1.1441  0.8410
  559MOL0     H77088  10.848   3.626   9.366  0.1754  2.1504  1.7196
  559MOL0     H77089  10.683   3.434   9.444  0.7141 -1.9191  0.0471
  559MOL0     H77090  10.608   3.433   9.285 -1.0414  0.8562  1.4045
  559MOL0     H77091  10.938   3.451   9.147  0.3710 -0.7101  0.5732
  559MOL0     H77092  11.030   3.261   8.950  0.4526  1.8349  2.1689
  559MOL0     H77093  10.973   3.102   8.994  2.0912 -2.2775  3.6202
  559MOL0     H77094  11.210   3.267   9.106 -0.1540  0.3496  0.1869
  559MOL0     H77095  11.157   3.116   9.184  1.4246  1.7088  0.1584
  559MOL0     H77096  11.180   3.023   8.941  1.3253 -3.1347  1.8990
  559MOL0     H77097  11.277   3.182   8.919 -0.1114  1.1456  1.6798
  559MOL0     H77098  11.451   3.100   9.056 -0.5935  1.3331  0.9381
  559MOL0     H77099  11.343   3.010   9.153 -1.4106  2.6193  0.0787
  559MOL0     H77100  11.397   2.686   8.903 -1.3788  3.1388  1.1712
  559MOL0     H77101  11.645   2.496   8.817  0.3262  0.6637  1.5435
  559MOL0     H77102  11.471   2.471   8.863 -1.2754  2.1377  2.7662
  559MOL0     H77103  11.599   2.408   8.959  0.3048 -1.4481 -0.9457
  559MOL0     H77104  11.824   2.419   9.379 -0.9510  0.1163  0.9767
  559MOL0     H77105  11.969   2.227   9.442 -0.1307  1.7227  1.9863
  559MOL0     H77106  12.298   2.007   9.314 -1.4497 -0.3038 -2.1662
  559MOL0     H77107  12.321   2.141   9.208 -0.7238  1.2817  0.3570
  559MOL0     H77108  12.526   2.116   9.328 -0.8341 -4.0561  2.1474
  559MOL0     H77109  12.448   2.271   9.366 -5.0463  0.2942  1.3417
  559MOL0     H77110  12.475   2.026   9.554  2.9781  0.9246  0.8277
  559MOL0     H77111  12.357   2.148   9.586 -0.5341  2.0922 -0.5036
  559MOL0     H77112  12.544   2.316   9.568  0.4875  0.0646 -1.6141
  559MOL0     H77113  12.668   2.202   9.559  0.7688 -1.3389  1.1628
  559MOL0     H77114  12.448   2.204   9.781 -0.3449 -1.7882  1.1236
  559MOL0     H77115  12.581   2.108   9.773 -1.0220 -0.9686  0.2995
  559MOL0     H77116  12.656   2.316   9.922  1.8292  0.9955 -0.5629
  559MOL0     H77117  12.598   2.420   9.795  1.2554  0.9759 -4.0439
  559MOL0     H77118  12.848   2.416   9.810  1.3539 -1.4751  0.8419
  559MOL0     H77119  12.772   2.412   9.660 -5.4402 -0.3576  0.4976
  559MOL0     H77120  12.968   2.250   9.693  0.6052  0.1778  1.5043
  559MOL0     H77121  12.835   2.133   9.704  0.4378 -0.7098 -0.2039
  559MOL0     H77122  12.285   2.354   9.194  1.1793  1.0723  3.3775
  559MOL0     H77123  12.165   2.535   9.119 -1.6225  1.3469  0.4268
  559MOL0     H77124  11.779   2.820   9.188 -0.9557 -1.3502  1.4536
  559MOL0     H77125  11.613   2.973   9.133 -0.2035  0.5759 -0.8172
  559MOL0     H77126  10.142   3.951   8.943  1.4300  1.3435 -2.0919
  559MOL0     H77127   9.913   4.010   8.981  0.4213 -1.4995  0.5449
  559MOL0     H77128   9.589   4.185   9.187 -2.5044 -1.2592  0.2555
  559MOL0     H77129   9.387   4.232   9.243 -1.6068 -0.3785 -1.8136
  559MOL0     H77130   9.147   4.558   9.373 -1.4865  1.0637  0.0579
  559MOL0     H77131   9.251   4.676   9.295 -0.2906 -1.9886  4.3390
  559MOL0     H77132   9.131   4.630   9.070  1.3392  2.5878  1.9044
  559MOL0     H77133   9.061   4.725   9.191  0.0077  1.0227 -1.3436
  559MOL0     H77134   8.884   4.575   9.093 -0.9362 -1.2272 -0.1492
  559MOL0     H77135   8.968   4.435   9.155 -0.2431  0.7260  1.9902
  559MOL0     H77136   8.925   4.632   9.360  0.6008  0.3123 -1.0868
  559MOL0     H77137   8.912   4.454   9.358 -1.0205  0.7430  1.3825
  559MOL0     H77138   8.509   4.528   9.301 -0.5150  0.4144 -0.2675
  559MOL0     H77139   9.440   4.657   9.166  2.1826  0.5712 -2.2688
  559MOL0     H77140   9.638   4.749   9.081  2.1195  1.7917 -2.9670
  559MOL0     H77141   9.787   4.661   9.120 -0.6861 -0.3265 -0.5904
  559MOL0     H77142   9.707   4.641   8.967  1.6028  1.8411 -0.4265
  560MOL0     O77143   9.822   5.155  10.397  0.2732  0.1576  0.5021
  560MOL0     C77144   9.780   5.104  10.502 -0.7431 -0.1078 -0.3364
  560MOL0     O77145   9.834   5.124  10.620 -0.6584  0.1824 -0.3239
  560MOL0     C77146   9.964   5.157  10.631 -0.4692 -0.3011  0.5281
  560MOL0     C77147  10.067   5.059  10.595  0.0040 -0.1183 -1.0893
  560MOL0     C77148  10.200   5.088  10.619 -0.0712  0.0624  0.5062
  560MOL0     C77149  10.240   5.213  10.665  0.3137  0.6517 -1.0685
  560MOL0     O77150  10.368   5.260  10.679  0.4324  0.1373 -0.3741
  560MOL0     C77151  10.463   5.206  10.579  0.7744 -0.9805  0.7709
  560MOL0     C77152  10.572   5.125  10.644  0.0441 -1.4404 -0.5033
  560MOL0     C77153  10.673   5.225  10.704 -0.0774  0.2715 -0.4883
  560MOL0     C77154  10.805   5.158  10.732  0.7532  0.7188  0.1674
  560MOL0     C77155  10.884   5.265  10.811 -0.0329  0.0012  0.2039
  560MOL0     C77156  11.016   5.210  10.870  0.8652 -0.2725 -0.0267
  560MOL0     C77157  11.103   5.315  10.937  0.6303 -0.3999 -0.4508
  560MOL0     C77158  11.227   5.264  11.013  0.1780  0.8117 -0.4542
  560MOL0     N77159  11.321   5.200  10.916 -0.1910 -0.7726  1.1402
  560MOL0     C77160  11.371   5.277  10.814  0.3876  0.3798  0.0647
  560MOL0     C77161  11.473   5.195  10.757  1.1191 -0.4571  0.4596
  560MOL0     C77162  11.526   5.216  10.617  0.7776  0.2264 -0.5476
  560MOL0     C77163  11.677   5.218  10.614  0.3448  0.1237  0.2904
  560MOL0     C77164  11.749   5.327  10.693  0.3116 -0.1824  0.4712
  560MOL0     C77165  11.900   5.321  10.678  0.0441  0.6068  0.2143
  560MOL0     O77166  11.943   5.348  10.551 -0.4671  0.3068 -0.0923
  560MOL0     C77167  12.080   5.332  10.529  0.9967 -0.4153  0.4986
  560MOL0     C77168  12.123   5.345  10.392 -0.0059  0.2893  0.6499
  560MOL0     C77169  12.264   5.355  10.357 -0.1179  0.6466 -0.1740
  560MOL0     C77170  12.299   5.371  10.208 -0.1010  0.2403 -0.2202
  560MOL0     C77171  12.360   5.359  10.462  0.5067  0.6283 -0.1382
  560MOL0     C77172  12.509   5.388  10.445 -0.1857 -0.0349 -0.5928
  560MOL0     O77173  12.584   5.346  10.550 -0.0042 -0.4773 -0.4471
  560MOL0     C77174  12.717   5.381  10.568  0.2396  0.2888 -0.0063
  560MOL0     C77175  12.814   5.343  10.473 -0.2087 -1.1050  0.3939
  560MOL0     C77176  12.952   5.374  10.495 -0.5602  0.5534 -1.0896
  560MOL0     C77177  12.989   5.436  10.618 -0.3133  0.1830  0.5301
  560MOL0     O77178  13.120   5.475  10.634  0.7447  0.2007 -0.0863
  560MOL0     C77179  13.207   5.366  10.620 -0.9505  0.5791 -1.4494
  560MOL0     C77180  13.335   5.378  10.693 -0.8947  0.1847 -0.1854
  560MOL0     C77181  13.433   5.475  10.632  0.4440 -0.3578 -0.6503
  560MOL0     C77182  13.566   5.498  10.703 -0.6680 -0.0664 -0.8130
  560MOL0     C77183  13.645   5.600  10.616 -0.3659 -0.2711 -0.2283
  560MOL0     C77184  13.690   5.726  10.696  0.1007 -0.5011  0.3202
  560MOL0     C77185  13.734   5.840  10.602  0.0622 -0.5119 -0.5964
  560MOL0     C77186  13.875   5.817  10.560 -0.1031 -0.0124  0.1532
  560MOL0    Cl77187  13.934   5.953  10.471  0.2417 -0.1820  0.2722
  560MOL0     C77188  12.887   5.478  10.702 -0.4061 -0.5072 -1.5061
  560MOL0     C77189  12.755   5.455  10.678  1.1903 -0.2983  0.0509
  560MOL0     O77190  12.542   5.458  10.352 -0.3145 -0.5518 -0.2924
  560MOL0     C77191  12.308   5.333  10.594  0.6141  0.3718  0.0096
  560MOL0     C77192  12.174   5.311  10.625  0.0358 -0.5376  0.4493
  560MOL0     N77193  11.473   5.080  10.837  0.4413 -0.0816 -0.7397
  560MOL0     N77194  11.379   5.077  10.919  1.2646 -0.1345  0.0272
  560MOL0     C77195  10.141   5.303  10.694 -0.0278 -0.5311  0.3111
  560MOL0     C77196  10.008   5.280  10.673  0.7038  0.4418 -0.2766
  560MOL0     C77197   9.644   5.043  10.516 -0.6142  0.4231 -1.2875
  560MOL0     C77198   9.566   5.070  10.632 -0.8139 -0.3854 -0.6387
  560MOL0     C77199   9.444   5.015  10.652  0.0170 -0.0853 -1.1073
  560MOL0     C77200   9.394   4.922  10.568 -0.6597  0.8216  0.5591
  560MOL0     O77201   9.264   4.867  10.583  0.3796 -0.6013 -0.3808
  560MOL0     C77202   9.220   4.846  10.725  0.5553  1.1460 -0.6451
  560MOL0     C77203   9.101   4.734  10.722 -0.8041  0.2137 -0.0512
  560MOL0     C77204   9.080   4.668  10.854 -0.6508 -0.2393 -0.2774
  560MOL0     C77205   9.061   4.762  10.968 -0.2890  0.1790 -0.4161
  560MOL0     C77206   8.931   4.823  10.976 -0.4247 -0.8381  0.1632
  560MOL0     C77207   8.816   4.865  10.977 -0.2842  0.3969  0.9816
  560MOL0     C77208   9.464   4.888  10.454  0.4271 -0.3776 -0.1022
  560MOL0     C77209   9.588   4.950  10.427  0.3847  0.1410 -0.4771
  560MOL0     C77210   9.674   4.907  10.315 -0.1102 -1.2691 -0.4902
  560MOL0     H77211  10.038   4.960  10.563 -0.1181 -1.2359  2.1590
  560MOL0     H77212  10.282   5.018  10.610  2.1797  2.1831  2.7781
  560MOL0     H77213  10.499   5.292  10.521 -3.2158  0.4532  0.1162
  560MOL0     H77214  10.405   5.151  10.505 -0.9625 -0.4854  1.7056
  560MOL0     H77215  10.530   5.074  10.731 -1.4522  1.1376  0.3921
  560MOL0     H77216  10.611   5.057  10.567  1.1103 -0.4627 -0.8529
  560MOL0     H77217  10.701   5.319  10.654 -1.9551  0.0723 -2.0792
  560MOL0     H77218  10.639   5.248  10.805 -0.7571 -0.8601 -0.4420
  560MOL0     H77219  10.795   5.068  10.794  1.4788  1.7113  1.7802
  560MOL0     H77220  10.858   5.130  10.641 -2.1047 -1.0506 -1.1019
  560MOL0     H77221  10.827   5.300  10.898  0.0355  0.7929 -0.0592
  560MOL0     H77222  10.907   5.343  10.737 -0.0312 -1.2774 -1.1838
  560MOL0     H77223  10.985   5.142  10.950 -0.5769 -0.8750 -1.0532
  560MOL0     H77224  11.067   5.157  10.788  1.1268 -0.2074  0.0942
  560MOL0     H77225  11.044   5.361  11.017  1.8955 -0.7203  0.6910
  560MOL0     H77226  11.122   5.399  10.870 -0.5497  0.7948  0.6428
  560MOL0     H77227  11.275   5.354  11.054 -1.3254  1.5559 -0.2622
  560MOL0     H77228  11.207   5.194  11.094 -0.5683  1.5445  0.0130
  560MOL0     H77229  11.334   5.372  10.777  1.0497  1.0697  1.1470
  560MOL0     H77230  11.492   5.313  10.579 -0.3168 -0.8550 -2.4414
  560MOL0     H77231  11.490   5.143  10.544  0.5839 -1.8701  1.5273
  560MOL0     H77232  11.722   5.120  10.634  2.2740  0.5800 -1.4528
  560MOL0     H77233  11.699   5.235  10.508  1.0052 -1.0933  0.2127
  560MOL0     H77234  11.706   5.424  10.667 -2.1648 -1.2165  0.4586
  560MOL0     H77235  11.727   5.324  10.801  0.0213  2.5537  0.5559
  560MOL0     H77236  11.941   5.393  10.749 -0.6700  0.8368  0.4110
  560MOL0     H77237  11.930   5.217  10.694 -2.1725 -0.9419 -4.0826
  560MOL0     H77238  12.050   5.351  10.312 -0.5369  0.6588  1.1544
  560MOL0     H77239  12.343   5.469  10.186  1.1405 -0.4231 -0.7818
  560MOL0     H77240  12.207   5.362  10.149 -0.8246 -0.7804  1.0107
  560MOL0     H77241  12.370   5.296  10.171  0.8992  1.5011 -0.9417
  560MOL0     H77242  12.777   5.287  10.388 -0.9879 -0.4671  0.3016
  560MOL0     H77243  13.031   5.353  10.423  0.3438 -3.2482  0.8013
  560MOL0     H77244  13.160   5.269  10.642  0.8771 -0.1491 -0.5718
  560MOL0     H77245  13.243   5.360  10.517 -1.0837 -0.6514 -1.4445
  560MOL0     H77246  13.310   5.402  10.796 -0.1334 -0.4807  0.1590
  560MOL0     H77247  13.386   5.281  10.692 -0.3254  0.4850 -0.4062
  560MOL0     H77248  13.390   5.574  10.611 -0.4249 -1.2025 -3.2659
  560MOL0     H77249  13.453   5.432  10.533  0.3636 -0.6059 -0.5590
  560MOL0     H77250  13.617   5.402  10.704 -0.6185 -0.1005  2.2574
  560MOL0     H77251  13.539   5.536  10.802 -0.8835  2.2773 -1.6848
  560MOL0     H77252  13.736   5.557  10.572  0.5933  1.8002 -0.4063
  560MOL0     H77253  13.583   5.634  10.533 -0.1049 -1.5684 -0.9885
  560MOL0     H77254  13.777   5.703  10.759  2.2473  1.4151 -1.7561
  560MOL0     H77255  13.608   5.758  10.760 -0.0689  1.1876 -0.6655
  560MOL0     H77256  13.723   5.931  10.662  3.3471  0.6504 -1.5392
  560MOL0     H77257  13.679   5.848  10.508  0.1458 -0.5962 -0.6542
  560MOL0     H77258  13.881   5.721  10.507  0.0002 -0.5307  1.0923
  560MOL0     H77259  13.943   5.806  10.645 -0.6726 -1.2033  0.4750
  560MOL0     H77260  12.921   5.532  10.790 -1.0048 -2.3139 -0.1065
  560MOL0     H77261  12.682   5.498  10.745  1.1179  0.8608 -0.7347
  560MOL0     H77262  12.378   5.331  10.677  1.0675 -0.4944 -0.3939
  560MOL0     H77263  12.156   5.306  10.732  0.1124 -2.3273  0.4125
  560MOL0     H77264  10.177   5.403  10.714  1.5953 -0.8453 -0.8132
  560MOL0     H77265   9.947   5.359  10.715  3.5348  2.2552  0.6991
  560MOL0     H77266   9.594   5.139  10.711  1.8867 -2.8749  0.7769
  560MOL0     H77267   9.387   5.031  10.742 -0.4723  2.2425 -1.7604
  560MOL0     H77268   9.304   4.815  10.788 -2.7641 -2.5790  2.4947
  560MOL0     H77269   9.179   4.931  10.781  0.6693 -0.9691  3.0105
  560MOL0     H77270   9.120   4.650  10.655  1.7717 -1.8874  3.0272
  560MOL0     H77271   9.007   4.787  10.701 -0.9610 -0.3796 -0.9099
  560MOL0     H77272   9.001   4.592  10.851  3.1397 -4.7328  1.0184
  560MOL0     H77273   9.176   4.623  10.879 -0.9105 -1.0529 -0.7138
  560MOL0     H77274   9.131   4.846  10.961 -1.1821  1.2564  2.0918
  560MOL0     H77275   9.086   4.712  11.062  1.8108 -0.5313 -1.2854
  560MOL0     H77276   8.724   4.920  10.989 -0.6138  0.5967 -1.7211
  560MOL0     H77277   9.415   4.814  10.392 -1.2781  0.9142 -0.3692
  560MOL0     H77278   9.779   4.897  10.343 -0.8364  0.0028  3.2607
  560MOL0     H77279   9.642   4.803  10.298  0.3830 -1.7113  1.1906
  560MOL0     H77280   9.663   4.967  10.224  3.0958  1.9464  1.0123
  561MOL0     O77281   7.203   4.444   3.774 -0.1341 -0.6730  0.7096
  561MOL0     C77282   7.305   4.500   3.814  1.0150  0.1695  0.8873
  561MOL0     O77283   7.307   4.642   3.831 -0.5806  0.1381  0.1693
  561MOL0     C77284   7.199   4.709   3.873 -0.0444  0.3706 -0.0523
  561MOL0     C77285   7.093   4.657   3.948  0.5842 -0.8826 -0.5974
  561MOL0     C77286   6.975   4.743   3.970  0.1122 -0.1693  0.9129
  561MOL0     C77287   6.977   4.878   3.922 -0.6834 -0.3579 -0.5227
  561MOL0     O77288   6.867   4.947   3.935  0.5375 -0.4322 -0.5859
  561MOL0     C77289   6.871   5.075   4.002  1.0394  0.1018 -1.3442
  561MOL0     C77290   6.741   5.158   3.967 -0.4536 -0.9896 -0.2175
  561MOL0     C77291   6.611   5.086   3.993  0.8317  0.2380  0.4267
  561MOL0     C77292   6.493   5.176   4.009  0.4299 -0.2993  0.1465
  561MOL0     C77293   6.412   5.139   4.137 -0.9493 -0.0902 -0.2986
  561MOL0     C77294   6.278   5.216   4.157  0.6094  0.1915  0.3239
  561MOL0     C77295   6.155   5.153   4.089 -0.3072  0.2851  0.0178
  561MOL0     C77296   6.015   5.201   4.150 -0.2603  0.4137 -0.6117
  561MOL0     N77297   5.902   5.150   4.065  0.0402 -0.2281  0.5185
  561MOL0     C77298   5.819   5.218   3.997  0.6626  0.4114  0.1978
  561MOL0     C77299   5.724   5.145   3.941  0.0416 -0.3908 -0.4993
  561MOL0     C77300   5.611   5.174   3.849 -0.5080 -0.0606 -0.0191
  561MOL0     C77301   5.631   5.162   3.697 -0.1146  0.5296 -0.0396
  561MOL0     C77302   5.630   5.007   3.659 -0.0726  0.1309 -0.4579
  561MOL0     C77303   5.668   4.959   3.515  0.7822  0.0363  0.4956
  561MOL0     O77304   5.637   5.053   3.412 -0.3798  0.3412 -0.0531
  561MOL0     C77305   5.506   5.071   3.374 -0.0636  0.1370  0.1457
  561MOL0     C77306   5.391   5.005   3.428 -0.7444 -0.2916 -0.5501
  561MOL0     C77307   5.269   5.012   3.361  0.2373  0.4585 -0.7948
  561MOL0     C77308   5.157   4.934   3.420  0.1240  0.0606 -0.1838
  561MOL0     C77309   5.249   5.092   3.247  1.0422  0.8307 -0.7702
  561MOL0     C77310   5.131   5.086   3.158 -0.0807  0.0938  0.1144
  561MOL0     O77311   5.101   5.199   3.086  0.0273 -0.3732  0.8336
  561MOL0     C77312   4.977   5.183   3.025  0.2342  0.1079  0.0322
  561MOL0     C77313   4.976   5.135   2.895  0.7381 -1.1299  0.1267
  561MOL0     C77314   4.861   5.108   2.834 -0.1855  0.7809 -0.4261
  561MOL0     C77315   4.744   5.143   2.893  0.3175  0.0506  0.5034
  561MOL0     O77316   4.621   5.145   2.839 -0.1246  0.2720 -0.1649
  561MOL0     C77317   4.612   5.167   2.696 -0.0751 -0.3677  0.9034
  561MOL0     C77318   4.463   5.144   2.665 -0.2842  0.2854  0.0559
  561MOL0     C77319   4.432   4.993   2.664 -0.1480 -0.1487 -1.0868
  561MOL0     C77320   4.288   4.973   2.636 -0.4528  0.3324 -0.8402
  561MOL0     C77321   4.280   4.840   2.559  0.6031 -0.2069  0.3979
  561MOL0     C77322   4.135   4.792   2.529 -0.0523 -0.2917  0.5832
  561MOL0     C77323   4.067   4.725   2.644  0.5741 -0.5967 -0.7593
  561MOL0     C77324   3.910   4.745   2.630 -0.1307 -0.3764 -0.8020
  561MOL0    Cl77325   3.891   4.913   2.661 -0.1204 -0.3214  0.1346
  561MOL0     C77326   4.740   5.211   3.014 -0.0082 -0.1956 -0.4834
  561MOL0     C77327   4.861   5.222   3.087 -0.4033 -0.4776  0.0333
  561MOL0     O77328   5.070   4.974   3.150 -0.4393  0.1579  0.2117
  561MOL0     C77329   5.362   5.157   3.196  0.8748  0.8298  0.3865
  561MOL0     C77330   5.485   5.147   3.263 -0.4420  0.0046  0.5146
  561MOL0     N77331   5.743   5.020   3.995 -0.4203 -0.0379 -0.2584
  561MOL0     N77332   5.842   5.024   4.078 -0.7156 -1.1812  0.4414
  561MOL0     C77333   7.086   4.926   3.844 -0.4566  0.2151 -0.0086
  561MOL0     C77334   7.189   4.841   3.824 -0.4587 -0.0342 -0.4444
  561MOL0     C77335   7.429   4.427   3.836 -0.0767  0.7933  0.3011
  561MOL0     C77336   7.544   4.504   3.855  0.5203  0.5649 -0.0744
  561MOL0     C77337   7.670   4.444   3.872 -0.3627 -0.6165 -0.6806
  561MOL0     C77338   7.693   4.306   3.868 -0.3969 -0.7089 -1.0471
  561MOL0     O77339   7.824   4.257   3.861 -0.2387  0.2488  0.2565
  561MOL0     C77340   7.838   4.120   3.887  0.8003 -0.5633 -0.0160
  561MOL0     C77341   7.978   4.075   3.920 -0.8787  0.3220  0.4041
  561MOL0     C77342   8.030   4.116   4.061  0.3346  1.1595  0.0912
  561MOL0     C77343   8.167   4.041   4.104 -0.2070 -0.0560  0.5097
  561MOL0     C77344   8.282   4.128   4.087  0.1465  0.2413  0.5984
  561MOL0     C77345   8.386   4.203   4.100  0.4073  0.5540  0.5930
  561MOL0     C77346   7.579   4.233   3.865  0.0437  0.0192  0.8372
  561MOL0     C77347   7.444   4.287   3.862 -0.4988  0.0410 -0.3283
  561MOL0     C77348   7.340   4.202   3.896  0.5091  0.1720 -0.3408
  561MOL0     H77349   7.093   4.553   3.980  2.9248 -0.2934  1.5970
  561MOL0     H77350   6.887   4.695   4.010 -0.1910 -0.6639 -0.3033
  561MOL0     H77351   6.968   5.126   3.998  0.2714  2.0195  1.3474
  561MOL0     H77352   6.869   5.043   4.107  2.7196 -1.9728 -1.8857
  561MOL0     H77353   6.736   5.243   4.036 -0.6056 -1.8487  0.8743
  561MOL0     H77354   6.740   5.198   3.866 -2.4652  0.3696  0.2775
  561MOL0     H77355   6.582   5.011   3.920 -2.8005 -0.1568  2.0678
  561MOL0     H77356   6.626   5.033   4.088  3.7609  0.6729  0.2913
  561MOL0     H77357   6.525   5.279   3.993 -0.0241 -0.3549 -1.1910
  561MOL0     H77358   6.426   5.176   3.923  2.6321 -0.3670 -1.6522
  561MOL0     H77359   6.478   5.184   4.210  3.1985 -2.3106 -2.3258
  561MOL0     H77360   6.393   5.032   4.155 -2.7675 -0.1248 -2.0154
  561MOL0     H77361   6.262   5.213   4.265  0.5519 -0.7546  0.3005
  561MOL0     H77362   6.294   5.320   4.129 -0.4463 -0.1414 -1.6770
  561MOL0     H77363   6.159   5.046   4.110  1.0250  0.5326  1.2338
  561MOL0     H77364   6.157   5.179   3.983 -0.0469  2.9568  0.6160
  561MOL0     H77365   5.998   5.175   4.255 -0.7761 -0.3873 -0.8882
  561MOL0     H77366   6.026   5.309   4.163  2.1122 -0.1264  3.7892
  561MOL0     H77367   5.832   5.323   3.973  0.1059  0.5723  0.5668
  561MOL0     H77368   5.585   5.279   3.866 -1.4573 -0.3698  0.5501
  561MOL0     H77369   5.522   5.120   3.884 -0.4731 -0.5749 -0.7142
  561MOL0     H77370   5.561   5.227   3.644  0.6691 -0.1447 -1.9907
  561MOL0     H77371   5.733   5.196   3.674 -0.0963 -0.2312 -1.1803
  561MOL0     H77372   5.694   4.961   3.735 -1.3752 -0.9359  0.0158
  561MOL0     H77373   5.527   4.983   3.685  0.5680 -0.3346  1.8362
  561MOL0     H77374   5.774   4.935   3.506  0.4967 -2.1121  2.2230
  561MOL0     H77375   5.618   4.866   3.487 -1.1921  1.1911 -0.0124
  561MOL0     H77376   5.391   4.946   3.519  0.4941 -0.3789 -0.5901
  561MOL0     H77377   5.117   4.858   3.353  1.1452  0.4351 -1.2684
  561MOL0     H77378   5.081   5.005   3.455  1.3926  2.2728 -1.6238
  561MOL0     H77379   5.191   4.875   3.506  1.0678 -0.0371 -0.6124
  561MOL0     H77380   5.072   5.130   2.845  1.2244  0.5811  0.8033
  561MOL0     H77381   4.872   5.097   2.726  0.2709  4.6612 -0.9055
  561MOL0     H77382   4.636   5.269   2.666 -2.9286 -0.0400 -0.6232
  561MOL0     H77383   4.672   5.097   2.638 -1.0329  1.4818 -2.6059
  561MOL0     H77384   4.400   5.206   2.730  0.4690 -0.9755  2.0775
  561MOL0     H77385   4.442   5.183   2.565  1.5364 -1.3508 -1.0297
  561MOL0     H77386   4.455   4.945   2.759 -0.3910  1.1183 -0.3652
  561MOL0     H77387   4.497   4.947   2.589 -1.0239 -1.9741 -0.7907
  561MOL0     H77388   4.246   5.052   2.574 -1.0262  0.2789 -0.5291
  561MOL0     H77389   4.229   4.956   2.727  0.4494 -3.6670 -0.7833
  561MOL0     H77390   4.333   4.852   2.464 -1.1780  2.9855 -0.3391
  561MOL0     H77391   4.341   4.765   2.611  2.5452  1.5356  0.7669
  561MOL0     H77392   4.127   4.739   2.434 -0.3326 -2.0008  1.5225
  561MOL0     H77393   4.081   4.884   2.506  0.1672 -0.1520  0.6172
  561MOL0     H77394   4.108   4.769   2.735 -0.2963 -0.8766 -0.2206
  561MOL0     H77395   4.088   4.618   2.651  1.5761 -0.2839  2.0966
  561MOL0     H77396   3.861   4.692   2.713  1.7701  2.9600  2.7455
  561MOL0     H77397   3.874   4.721   2.529  1.2454 -0.2888 -1.3306
  561MOL0     H77398   4.650   5.255   3.054 -1.7044  0.5487 -4.5571
  561MOL0     H77399   4.868   5.277   3.180  2.7384 -0.9078  0.1710
  561MOL0     H77400   5.375   5.216   3.106  1.8880 -0.4275 -0.3321
  561MOL0     H77401   5.573   5.198   3.223 -0.8118 -0.0419 -0.3870
  561MOL0     H77402   7.099   5.027   3.806  0.1655  0.4466  0.7994
  561MOL0     H77403   7.259   4.889   3.756 -0.2328  0.5130  0.1597
  561MOL0     H77404   7.540   4.612   3.864  1.1739  0.6166 -0.3813
  561MOL0     H77405   7.758   4.505   3.888 -1.5459  1.0225 -0.1115
  561MOL0     H77406   7.783   4.084   3.975  2.6160  0.8369  1.7722
  561MOL0     H77407   7.803   4.060   3.802 -1.0684 -2.2115  1.8260
  561MOL0     H77408   8.038   4.114   3.837 -3.2900  4.3172  0.3031
  561MOL0     H77409   7.974   3.966   3.916 -4.2492  0.3811 -0.5174
  561MOL0     H77410   8.035   4.225   4.073  1.5844  0.9599  1.6654
  561MOL0     H77411   7.950   4.094   4.133  2.4911 -0.4101  2.1444
  561MOL0     H77412   8.187   3.955   4.041 -0.6817  1.4748 -1.8460
  561MOL0     H77413   8.161   4.002   4.206 -1.9628  1.5961  1.1032
  561MOL0     H77414   8.465   4.275   4.088  1.7462 -1.0008 -0.3448
  561MOL0     H77415   7.598   4.126   3.856  2.1248  0.5087 -1.3409
  561MOL0     H77416   7.266   4.202   3.816 -2.8721  1.1311  2.5158
  561MOL0     H77417   7.376   4.101   3.917 -1.4303 -0.2191  1.4045
  561MOL0     H77418   7.297   4.247   3.986  0.9163  1.0947 -0.6001
  562MOL0     O77419   7.962  10.486   5.965  0.1806 -0.2419  0.1407
  562MOL0     C77420   7.938  10.381   6.016  0.1196  1.0760 -0.1870
  562MOL0     O77421   7.942  10.353   6.153 -0.3234  0.6312 -0.5669
  562MOL0     C77422   7.960  10.463   6.245  0.1027  0.3388 -1.0272
  562MOL0     C77423   8.097  10.501   6.276 -0.0570  0.3617  0.4943
  562MOL0     C77424   8.128  10.610   6.362  1.0812 -0.4702 -0.2131
  562MOL0     C77425   8.014  10.684   6.416  0.2183 -0.0920 -0.9811
  562MOL0     O77426   8.043  10.800   6.480 -0.1050  0.4012 -0.1847
  562MOL0     C77427   7.960  10.910   6.459  0.1772  0.0648  0.1920
  562MOL0     C77428   8.030  11.046   6.486 -0.3478 -1.6411  0.2800
  562MOL0     C77429   8.058  11.078   6.629 -0.2506  0.3318 -0.2808
  562MOL0     C77430   8.144  11.204   6.646 -0.2291 -0.1727 -0.2648
  562MOL0     C77431   8.152  11.255   6.798 -1.1372 -1.0052  0.2062
  562MOL0     C77432   8.253  11.172   6.865 -0.0092  1.0592 -0.1978
  562MOL0     C77433   8.255  11.203   7.021 -0.0286 -0.0196 -0.1016
  562MOL0     C77434   8.387  11.174   7.085 -0.4528  1.3540 -0.0415
  562MOL0     N77435   8.502  11.259   7.054 -0.4884 -0.4978 -0.6841
  562MOL0     C77436   8.623  11.260   7.126 -0.3749  0.0140 -0.1479
  562MOL0     C77437   8.688  11.356   7.061  0.4275  0.3933  0.1402
  562MOL0     C77438   8.829  11.395   7.083 -0.7013  0.9012 -0.3360
  562MOL0     C77439   8.935  11.300   7.014  0.2971  0.1730  0.2728
  562MOL0     C77440   9.070  11.372   7.007 -0.5062 -0.4969  0.6781
  562MOL0     C77441   9.175  11.279   6.929 -0.5577 -0.5284 -0.1016
  562MOL0     O77442   9.289  11.363   6.896 -0.8013 -0.7156  0.5400
  562MOL0     C77443   9.393  11.387   6.984 -0.4311  0.5166 -0.0899
  562MOL0     C77444   9.504  11.453   6.925 -0.1024  0.0631 -0.0530
  562MOL0     C77445   9.621  11.459   7.003  0.4326 -0.4457  0.6012
  562MOL0     C77446   9.745  11.525   6.945  0.1297  1.0525  0.1410
  562MOL0     C77447   9.619  11.421   7.138 -0.1393 -0.1967 -0.4182
  562MOL0     C77448   9.732  11.444   7.224  0.3271  0.0834 -0.6924
  562MOL0     O77449   9.765  11.330   7.281 -0.3476  0.3410 -0.2357
  562MOL0     C77450   9.877  11.338   7.368  0.3089  0.8964  0.6577
  562MOL0     C77451  10.007  11.343   7.305  0.0228  1.1599 -1.0134
  562MOL0     C77452  10.120  11.345   7.391  0.9997 -0.2148  0.4912
  562MOL0     C77453  10.109  11.340   7.525  0.3413  1.1013 -0.1375
  562MOL0     O77454  10.230  11.341   7.581  0.2376  0.0589  0.3336
  562MOL0     C77455  10.232  11.340   7.725 -0.7770 -0.4867 -0.1072
  562MOL0     C77456  10.378  11.329   7.775  0.9100  0.6905  0.1021
  562MOL0     C77457  10.394  11.387   7.908  0.2462 -0.0210  0.1812
  562MOL0     C77458  10.537  11.367   7.950 -0.4952  0.2014  0.4811
  562MOL0     C77459  10.596  11.491   8.016  0.4021 -0.6846  0.2703
  562MOL0     C77460  10.742  11.467   8.047  0.0111 -0.4782  0.3831
  562MOL0     C77461  10.814  11.601   8.087 -0.4886 -0.5457 -0.3504
  562MOL0     C77462  10.955  11.571   8.155 -0.4259  0.3443  0.5732
  562MOL0    Cl77463  11.054  11.469   8.054 -0.1600  0.1389  0.4031
  562MOL0     C77464   9.982  11.324   7.583  0.4482  0.5526 -0.0028
  562MOL0     C77465   9.873  11.328   7.501 -0.1079  0.3728  0.0164
  562MOL0     O77466   9.793  11.549   7.240 -0.5936 -0.5701  0.6843
  562MOL0     C77467   9.500  11.364   7.194  0.6693 -0.4453  0.8009
  562MOL0     C77468   9.389  11.344   7.118 -0.0393  0.0059  0.3096
  562MOL0     N77469   8.615  11.406   6.955  0.3537  0.6719  0.2565
  562MOL0     N77470   8.500  11.353   6.954 -0.8256 -0.5481 -0.3034
  562MOL0     C77471   7.886  10.633   6.401  0.3147 -0.0606  0.4098
  562MOL0     C77472   7.852  10.524   6.309 -0.2486  0.3109 -0.1714
  562MOL0     C77473   7.892  10.260   5.951  0.8001  0.4019 -0.0076
  562MOL0     C77474   7.927  10.134   5.985 -0.3749  0.2935 -0.1743
  562MOL0     C77475   7.887  10.014   5.919 -0.1795 -0.1173  0.5069
  562MOL0     C77476   7.800  10.029   5.812 -0.1646 -0.3123  0.8428
  562MOL0     O77477   7.739   9.919   5.743 -0.0326  0.0899 -0.5090
  562MOL0     C77478   7.616   9.936   5.659  0.5575 -0.7102 -0.3699
  562MOL0     C77479   7.493   9.981   5.742  0.4049  0.0146 -0.5239
  562MOL0     C77480   7.475   9.896   5.867 -0.4107  0.2869 -0.5925
  562MOL0     C77481   7.322   9.869   5.900  0.5812  0.1121 -1.6940
  562MOL0     C77482   7.263   9.990   5.955 -0.0624 -0.0453 -0.0710
  562MOL0     C77483   7.238  10.096   6.010 -0.2462 -0.2800  0.7160
  562MOL0     C77484   7.758  10.157   5.775 -0.6126 -0.3063 -0.1765
  562MOL0     C77485   7.800  10.273   5.836  0.1978 -0.1916 -0.9527
  562MOL0     C77486   7.752  10.410   5.790 -0.1532  0.6153  0.2112
  562MOL0     H77487   8.180  10.450   6.228  0.1599  0.0407  1.1957
  562MOL0     H77488   8.229  10.640   6.386  0.1056  1.3835  2.0921
  562MOL0     H77489   7.883  10.897   6.536  1.6145  0.4182  1.7347
  562MOL0     H77490   7.920  10.904   6.357 -0.3719 -1.0200  0.4617
  562MOL0     H77491   8.116  11.056   6.418 -1.6176  2.2706 -1.0270
  562MOL0     H77492   7.961  11.118   6.441 -0.8611 -2.4678 -0.2669
  562MOL0     H77493   7.964  11.088   6.684 -0.6674  0.3077 -0.9743
  562MOL0     H77494   8.107  10.995   6.681  0.1570  2.6282  3.4030
  562MOL0     H77495   8.240  11.180   6.598 -0.9618  0.4756 -2.1499
  562MOL0     H77496   8.101  11.281   6.580  2.6029  2.6426  0.8821
  562MOL0     H77497   8.055  11.250   6.849 -0.9736  0.0641  0.6447
  562MOL0     H77498   8.165  11.364   6.798 -1.1330 -1.0001  1.0828
  562MOL0     H77499   8.233  11.067   6.844  2.8586 -0.3843  3.1504
  562MOL0     H77500   8.353  11.189   6.824 -0.3565  0.6109 -1.2543
  562MOL0     H77501   8.169  11.160   7.074 -0.3139  1.9130  1.1188
  562MOL0     H77502   8.238  11.310   7.037 -1.6420 -0.5204  2.0534
  562MOL0     H77503   8.355  11.165   7.189 -2.4966  1.0120 -0.6563
  562MOL0     H77504   8.415  11.073   7.055 -2.0950  1.6309 -2.9052
  562MOL0     H77505   8.660  11.205   7.212  0.3233 -0.8903 -1.0130
  562MOL0     H77506   8.851  11.388   7.190 -0.6528 -1.5746 -0.4637
  562MOL0     H77507   8.853  11.499   7.060  0.9069  0.3690 -1.1883
  562MOL0     H77508   8.934  11.213   7.080  0.4278 -1.4960 -1.8465
  562MOL0     H77509   8.883  11.292   6.918 -1.8041  1.6952  1.2092
  562MOL0     H77510   9.060  11.470   6.959  2.1597 -1.1459 -1.4535
  562MOL0     H77511   9.112  11.383   7.107  3.1861 -0.1553 -0.7681
  562MOL0     H77512   9.192  11.185   6.982 -4.1238 -1.3701 -0.1915
  562MOL0     H77513   9.136  11.258   6.829  1.0737 -2.6317 -0.3607
  562MOL0     H77514   9.503  11.487   6.821  3.0026  0.2986 -0.0969
  562MOL0     H77515   9.838  11.510   7.000 -0.5251 -0.1826  0.9589
  562MOL0     H77516   9.723  11.632   6.948  1.8804  1.4366  0.2377
  562MOL0     H77517   9.772  11.482   6.848 -0.9374 -1.0868  0.7314
  562MOL0     H77518  10.022  11.340   7.198  0.3351  0.0851 -0.9554
  562MOL0     H77519  10.220  11.358   7.349  0.1514 -0.4397 -1.7215
  562MOL0     H77520  10.181  11.433   7.754 -2.0372 -0.2215 -2.8629
  562MOL0     H77521  10.173  11.257   7.765  1.1022 -2.5047 -1.3377
  562MOL0     H77522  10.409  11.224   7.784 -1.1123  0.2248  4.0627
  562MOL0     H77523  10.441  11.381   7.702  1.3956  1.1706  0.8525
  562MOL0     H77524  10.322  11.338   7.974  0.2229  1.7512  1.5384
  562MOL0     H77525  10.366  11.492   7.898 -1.6653  0.1101  4.4811
  562MOL0     H77526  10.598  11.357   7.860 -0.2375  0.8598  0.5771
  562MOL0     H77527  10.538  11.275   8.009  1.7990  0.1732  0.5184
  562MOL0     H77528  10.585  11.582   7.956  0.4505 -0.5565  0.4560
  562MOL0     H77529  10.537  11.516   8.104 -1.3685 -2.5588 -0.2986
  562MOL0     H77530  10.785  11.439   7.950 -0.6460 -0.2779  0.0280
  562MOL0     H77531  10.753  11.384   8.117 -1.3271 -1.8187 -0.9067
  562MOL0     H77532  10.754  11.662   8.155  2.6518  1.6127  0.7125
  562MOL0     H77533  10.830  11.661   7.998  2.7419 -0.2158  0.3305
  562MOL0     H77534  10.937  11.519   8.249 -0.4370 -0.0432  0.3579
  562MOL0     H77535  11.013  11.661   8.177  0.8559 -0.0676 -0.8964
  562MOL0     H77536   9.956  11.312   7.687 -0.7865 -2.6115 -0.5683
  562MOL0     H77537   9.775  11.317   7.547 -0.3379  0.4899 -0.4389
  562MOL0     H77538   9.489  11.354   7.302 -0.5001  0.8611  0.8454
  562MOL0     H77539   9.300  11.300   7.162 -1.2126 -0.1883 -2.1226
  562MOL0     H77540   7.801  10.693   6.435  0.6604 -0.3682  1.8854
  562MOL0     H77541   7.752  10.487   6.292 -0.0537 -0.1222 -0.4153
  562MOL0     H77542   7.992  10.120   6.071 -1.9345  0.0598  1.0101
  562MOL0     H77543   7.935   9.921   5.947  2.0633  0.6884 -0.4273
  562MOL0     H77544   7.626  10.013   5.582 -1.2168 -0.7105 -0.6294
  562MOL0     H77545   7.593   9.838   5.615  0.8073 -0.6052 -0.7418
  562MOL0     H77546   7.401   9.984   5.682  1.3684  1.2751 -2.0076
  562MOL0     H77547   7.512  10.082   5.780  1.5379 -1.0855  2.0032
  562MOL0     H77548   7.525   9.801   5.850 -0.4619  0.2087 -0.3095
  562MOL0     H77549   7.523   9.946   5.953  1.3172 -1.3756 -0.5348
  562MOL0     H77550   7.313   9.788   5.973  2.9550  1.2077 -0.0278
  562MOL0     H77551   7.271   9.835   5.809 -0.6521  1.7754 -1.6722
  562MOL0     H77552   7.213  10.187   6.061 -0.4252  1.0542 -1.6125
  562MOL0     H77553   7.694  10.167   5.688 -0.5473 -1.1346 -0.3303
  562MOL0     H77554   7.837  10.466   5.750 -1.0268  4.1270  2.7308
  562MOL0     H77555   7.662  10.397   5.729 -1.4087 -1.0908  2.2757
  562MOL0     H77556   7.712  10.470   5.873 -2.0034  1.4169 -1.1690
  563MOL0     O77557  10.048   9.972   3.140  0.4134 -0.2289 -0.1656
  563MOL0     C77558  10.062   9.989   3.260 -0.3540  0.0596 -0.0720
  563MOL0     O77559   9.957  10.021   3.349  0.3383 -0.3025  0.4233
  563MOL0     C77560   9.836  10.056   3.299  0.2161 -1.0162 -0.5326
  563MOL0     C77561   9.803  10.124   3.181 -0.3718  0.1754 -0.0941
  563MOL0     C77562   9.672  10.161   3.161 -0.3343 -1.0361 -0.3786
  563MOL0     C77563   9.569  10.118   3.249  0.5111 -1.0829 -0.0798
  563MOL0     O77564   9.436  10.148   3.228 -0.6642 -0.0280  0.5786
  563MOL0     C77565   9.405  10.152   3.091  0.0397  0.0612  0.2704
  563MOL0     C77566   9.262  10.111   3.066  0.0302 -0.4020 -1.0891
  563MOL0     C77567   9.165  10.204   3.142  0.3726  0.2971 -0.5914
  563MOL0     C77568   9.155  10.343   3.078 -0.6699  0.6407  0.1367
  563MOL0     C77569   9.018  10.406   3.124  0.0164  0.3672  0.2023
  563MOL0     C77570   8.982  10.525   3.031  0.2250  0.3765 -0.8766
  563MOL0     C77571   8.852  10.585   3.087 -0.1707 -0.1669 -0.2182
  563MOL0     C77572   8.804  10.715   3.011 -0.3915  0.3996  0.2728
  563MOL0     N77573   8.671  10.760   3.033 -0.9835  0.0230 -0.4568
  563MOL0     C77574   8.566  10.717   2.952  1.0639  0.2011  0.2371
  563MOL0     C77575   8.458  10.778   3.004 -0.4848 -0.4468 -0.4195
  563MOL0     C77576   8.324  10.749   2.958 -0.2745  0.8000  0.0729
  563MOL0     C77577   8.206  10.847   2.995  0.2653  0.3650  0.3669
  563MOL0     C77578   8.173  10.830   3.155 -0.0195 -1.2002 -0.1038
  563MOL0     C77579   8.100  10.956   3.194  0.0971 -0.2058 -0.2192
  563MOL0     O77580   8.179  11.079   3.187  0.2566  0.0315  0.0183
  563MOL0     C77581   8.209  11.143   3.300 -0.3779  0.4514  0.3767
  563MOL0     C77582   8.334  11.128   3.357  0.8518 -0.5545 -0.0432
  563MOL0     C77583   8.377  11.186   3.477  0.6253  0.0896 -0.0719
  563MOL0     C77584   8.508  11.157   3.530 -0.1752  0.5218  0.4102
  563MOL0     C77585   8.289  11.289   3.537 -0.7177 -0.3350  0.1060
  563MOL0     C77586   8.327  11.361   3.660  0.3695 -0.6636 -0.6871
  563MOL0     O77587   8.257  11.474   3.681  0.4114 -0.3698  0.8744
  563MOL0     C77588   8.285  11.555   3.786  0.0101  0.1708 -0.2247
  563MOL0     C77589   8.367  11.664   3.766  0.1941  0.3163  0.0808
  563MOL0     C77590   8.402  11.748   3.868 -0.0528 -0.5736 -0.6915
  563MOL0     C77591   8.341  11.730   3.992  0.0141 -0.0007  0.7399
  563MOL0     O77592   8.379  11.813   4.094  0.4250  0.1059 -0.3108
  563MOL0     C77593   8.413  11.762   4.228 -0.5982 -0.7094 -0.5479
  563MOL0     C77594   8.474  11.872   4.326  0.4938  0.0325  0.1330
  563MOL0     C77595   8.523  12.012   4.269 -0.2904  0.2775 -0.7017
  563MOL0     C77596   8.636  12.004   4.171 -1.6071  0.1151 -0.2700
  563MOL0     C77597   8.695  12.135   4.156 -0.1970  0.1103  0.1025
  563MOL0     C77598   8.655  12.196   4.019  0.4317 -0.2678  0.0299
  563MOL0     C77599   8.522  12.268   4.033  0.2999  0.2219  0.0537
  563MOL0     C77600   8.486  12.325   3.898  0.3046 -0.4873 -0.5531
  563MOL0    Cl77601   8.594  12.473   3.853 -0.2090 -0.0775  0.1182
  563MOL0     C77602   8.250  11.620   4.007 -0.0559 -0.4383 -0.7266
  563MOL0     C77603   8.223  11.530   3.903 -0.5920  0.0614 -0.5946
  563MOL0     O77604   8.393  11.304   3.752 -0.1051 -0.2864 -0.2337
  563MOL0     C77605   8.168  11.318   3.465 -0.6059  0.3695 -0.2321
  563MOL0     C77606   8.128  11.246   3.349  0.5012 -0.0988 -1.0591
  563MOL0     N77607   8.495  10.853   3.115 -0.3929 -0.4061 -0.2681
  563MOL0     N77608   8.622  10.834   3.136  0.3945 -0.2629 -0.0502
  563MOL0     C77609   9.603  10.051   3.363  0.6968 -1.0399 -0.0041
  563MOL0     C77610   9.731  10.029   3.391  0.1086  0.5069 -0.6276
  563MOL0     C77611  10.190   9.984   3.326 -0.2518 -0.3176  0.2170
  563MOL0     C77612  10.301  10.051   3.260  0.1243 -0.0170 -0.4464
  563MOL0     C77613  10.432  10.044   3.311  0.0942  0.0529  0.0047
  563MOL0     C77614  10.453   9.977   3.435  0.0263  0.6905  0.5894
  563MOL0     O77615  10.569   9.962   3.497 -0.3608  0.3434  0.3058
  563MOL0     C77616  10.699   9.987   3.439  0.6317  0.5975 -0.1070
  563MOL0     C77617  10.784  10.072   3.543 -0.0308 -0.1377 -0.5241
  563MOL0     C77618  10.937  10.089   3.498  0.4806 -0.8606  0.2166
  563MOL0     C77619  11.021  10.195   3.570  0.0235 -0.4340  0.3455
  563MOL0     C77620  10.969  10.331   3.547  0.4144  0.6424 -0.0001
  563MOL0     C77621  10.921  10.441   3.534 -0.9271 -0.0123  0.4798
  563MOL0     C77622  10.341   9.930   3.506  0.1956  0.4755  0.8012
  563MOL0     C77623  10.215   9.915   3.445  1.2541 -0.4602 -0.4865
  563MOL0     C77624  10.098   9.847   3.518 -0.1343  0.2767 -0.0073
  563MOL0     H77625   9.884  10.147   3.113 -0.3171  1.4307  0.3603
  563MOL0     H77626   9.649  10.206   3.065  1.6509  0.3794 -0.2541
  563MOL0     H77627   9.460  10.082   3.028  1.2237 -1.2895  2.6877
  563MOL0     H77628   9.432  10.255   3.066  3.1525 -0.7513 -0.0932
  563MOL0     H77629   9.247  10.111   2.958  1.8178 -1.5370 -1.3934
  563MOL0     H77630   9.239  10.012   3.108 -1.6123 -0.2411 -1.5773
  563MOL0     H77631   9.071  10.147   3.148  0.1506  0.7614  0.6486
  563MOL0     H77632   9.184  10.212   3.249  0.1196  2.1941 -0.6442
  563MOL0     H77633   9.245  10.396   3.111  0.0298 -0.8835  0.8019
  563MOL0     H77634   9.158  10.343   2.968  1.0887 -0.0072  0.1511
  563MOL0     H77635   9.022  10.443   3.226  0.6380  0.9178 -0.0132
  563MOL0     H77636   8.929  10.344   3.114  1.1123 -1.3174  0.3392
  563MOL0     H77637   9.049  10.612   3.036 -0.5293  0.9252  0.0207
  563MOL0     H77638   8.975  10.492   2.927  0.8753 -1.5498 -0.3611
  563MOL0     H77639   8.869  10.629   3.186 -1.6552 -2.4986  1.1867
  563MOL0     H77640   8.769  10.514   3.082  1.0656 -1.5875 -2.6576
  563MOL0     H77641   8.869  10.797   3.042 -0.6860  0.4812  0.7020
  563MOL0     H77642   8.807  10.686   2.906 -1.8575 -1.7385  0.7517
  563MOL0     H77643   8.562  10.659   2.861 -0.6467  0.6575 -0.0256
  563MOL0     H77644   8.304  10.649   2.998 -3.6636  1.0663 -0.6267
  563MOL0     H77645   8.321  10.732   2.850  0.5958  0.8981  0.0272
  563MOL0     H77646   8.221  10.950   2.962  1.8199  0.8769  2.4685
  563MOL0     H77647   8.115  10.805   2.951  0.4394  0.4431 -0.0741
  563MOL0     H77648   8.108  10.743   3.163 -0.6236 -0.8630 -1.1460
  563MOL0     H77649   8.264  10.814   3.214 -0.8586 -2.0394  0.9960
  563MOL0     H77650   8.020  10.970   3.121  1.7115 -2.8422 -2.7164
  563MOL0     H77651   8.064  10.931   3.294  1.5036 -0.9284  0.1295
  563MOL0     H77652   8.396  11.058   3.302 -0.4514 -1.6991 -0.1001
  563MOL0     H77653   8.564  11.101   3.454 -2.4451  0.6124 -1.4378
  563MOL0     H77654   8.490  11.100   3.621  2.7456  1.3690  1.6253
  563MOL0     H77655   8.567  11.246   3.553  2.3633 -1.4182  2.0051
  563MOL0     H77656   8.418  11.691   3.674  1.9038  2.1472  1.4643
  563MOL0     H77657   8.470  11.831   3.849 -3.8477  2.5774 -2.0939
  563MOL0     H77658   8.324  11.720   4.275 -0.3738 -0.8220 -0.2144
  563MOL0     H77659   8.479  11.676   4.217  0.1480 -0.5973  2.3291
  563MOL0     H77660   8.395  11.900   4.395  2.2407  1.5855  1.6181
  563MOL0     H77661   8.557  11.822   4.377  2.6982  1.2275 -2.0799
  563MOL0     H77662   8.556  12.072   4.355  1.3021  0.0104 -1.1041
  563MOL0     H77663   8.440  12.052   4.210  0.7901 -2.3226 -4.3116
  563MOL0     H77664   8.610  11.950   4.080  0.0251 -0.5443 -0.3827
  563MOL0     H77665   8.705  11.943   4.230 -1.0572 -0.0760 -1.1043
  563MOL0     H77666   8.666  12.214   4.226  0.8681  2.1476 -1.6316
  563MOL0     H77667   8.802  12.119   4.142 -0.4761 -0.4854 -1.6929
  563MOL0     H77668   8.644  12.119   3.942 -2.3930  0.1901 -0.1524
  563MOL0     H77669   8.734  12.268   3.998 -0.4959  0.9532  0.6016
  563MOL0     H77670   8.529  12.356   4.099  1.6909  1.2456 -1.3920
  563MOL0     H77671   8.436  12.202   4.047 -0.7003  0.7908 -2.7732
  563MOL0     H77672   8.385  12.367   3.901  0.6280  0.3024  2.3257
  563MOL0     H77673   8.499  12.239   3.833 -2.7620 -2.2210  0.9228
  563MOL0     H77674   8.202  11.607   4.104 -0.0406  0.8975 -0.5146
  563MOL0     H77675   8.158  11.444   3.917 -1.2957  0.6485 -0.1245
  563MOL0     H77676   8.097  11.392   3.503 -2.1757 -1.6403  0.9828
  563MOL0     H77677   8.033  11.259   3.298  0.1596  0.9766 -0.1997
  563MOL0     H77678   9.522  10.010   3.423  0.5517  0.5369  0.9437
  563MOL0     H77679   9.755   9.976   3.483  0.1573  1.5450 -0.0332
  563MOL0     H77680  10.266  10.100   3.170 -1.8370  1.1079  0.8478
  563MOL0     H77681  10.517  10.090   3.261 -0.3300  0.4882 -0.3270
  563MOL0     H77682  10.743   9.887   3.434 -0.9026 -0.0353 -3.3307
  563MOL0     H77683  10.705  10.031   3.339  0.8617  0.4292 -0.1688
  563MOL0     H77684  10.790  10.032   3.644  1.9486  0.1366 -0.4857
  563MOL0     H77685  10.735  10.169   3.554  0.9975  0.3205  0.1659
  563MOL0     H77686  10.985   9.994   3.523  3.4896  0.8848  1.6071
  563MOL0     H77687  10.934  10.115   3.392 -0.8124  2.3778  0.9434
  563MOL0     H77688  11.122  10.195   3.528 -0.7793 -0.4769 -1.6968
  563MOL0     H77689  11.030  10.179   3.678 -1.0871  1.9092  0.8614
  563MOL0     H77690  10.879  10.534   3.501  1.6780  0.8379 -0.7055
  563MOL0     H77691  10.351   9.875   3.599 -0.8798  1.8772  1.7901
  563MOL0     H77692  10.027   9.910   3.571  0.3427 -0.8163  2.0333
  563MOL0     H77693  10.062   9.772   3.447 -0.6109  1.9801 -1.6606
  563MOL0     H77694  10.143   9.796   3.604  1.6891  1.1247 -0.3984
  564MOL0     O77695  11.104   2.428   4.836 -0.5130  0.1519 -0.2401
  564MOL0     C77696  11.207   2.490   4.824 -0.3005 -0.0623  0.3370
  564MOL0     O77697  11.328   2.444   4.850 -0.0659 -0.1394  0.2180
  564MOL0     C77698  11.331   2.315   4.892  0.1889  0.0472 -0.7147
  564MOL0     C77699  11.259   2.254   5.000  1.1167  0.6277  0.0864
  564MOL0     C77700  11.280   2.115   5.025  0.0475 -0.1726  1.0242
  564MOL0     C77701  11.366   2.032   4.950 -0.4044  0.4066  0.4638
  564MOL0     O77702  11.401   1.907   4.992  0.0822  0.6589  0.1932
  564MOL0     C77703  11.288   1.820   5.027  0.1217  0.9099 -0.5107
  564MOL0     C77704  11.341   1.677   5.042 -0.3685  0.2949  0.5118
  564MOL0     C77705  11.469   1.670   5.133 -0.1676  0.1378 -0.6700
  564MOL0     C77706  11.530   1.527   5.149 -0.6086 -0.4983 -0.1991
  564MOL0     C77707  11.646   1.541   5.241 -0.1519  0.7398 -0.0293
  564MOL0     C77708  11.698   1.409   5.297 -0.1813  0.0662 -0.0320
  564MOL0     C77709  11.837   1.406   5.352 -1.5748 -0.2615  0.3063
  564MOL0     C77710  11.851   1.504   5.472 -0.4127  0.3622 -0.1750
  564MOL0     N77711  11.754   1.473   5.581  0.2834 -0.0340  0.1905
  564MOL0     C77712  11.735   1.352   5.640  0.3153  0.1957 -0.1117
  564MOL0     C77713  11.631   1.378   5.728 -0.2320  0.3575 -0.1592
  564MOL0     C77714  11.565   1.271   5.807 -0.3190  0.4949 -0.7461
  564MOL0     C77715  11.450   1.205   5.733 -0.6209 -0.4989 -0.5646
  564MOL0     C77716  11.398   1.091   5.812  0.5922  0.7725  0.6347
  564MOL0     C77717  11.244   1.081   5.801 -0.0094  0.3219  0.2454
  564MOL0     O77718  11.201   0.961   5.856 -0.1681 -0.3837  0.1538
  564MOL0     C77719  11.072   0.925   5.829 -0.0985 -0.3645 -1.1100
  564MOL0     C77720  11.055   0.790   5.847  0.2786  0.1097  0.2991
  564MOL0     C77721  10.930   0.728   5.822  0.7801  0.4274 -0.1106
  564MOL0     C77722  10.920   0.577   5.825  0.0283  0.9892 -0.2472
  564MOL0     C77723  10.815   0.817   5.804  0.4918 -0.2394 -1.7185
  564MOL0     C77724  10.684   0.758   5.787  1.1637  0.1621 -0.2399
  564MOL0     O77725  10.607   0.816   5.688 -0.7019  0.4594 -1.1191
  564MOL0     C77726  10.488   0.750   5.653 -0.7131 -0.3411  0.5655
  564MOL0     C77727  10.392   0.702   5.747  0.1918  0.4579  0.0752
  564MOL0     C77728  10.271   0.661   5.689  0.1263 -0.5104  0.6155
  564MOL0     C77729  10.238   0.656   5.553  0.2491 -0.0579  0.0690
  564MOL0     O77730  10.116   0.612   5.511  0.7125  0.0966 -0.4044
  564MOL0     C77731  10.051   0.699   5.418  0.1218 -0.5735 -0.0234
  564MOL0     C77732   9.904   0.671   5.436  1.4848  0.2087  0.2000
  564MOL0     C77733   9.859   0.524   5.400  0.2122 -0.6620 -0.2024
  564MOL0     C77734   9.727   0.488   5.477 -0.3601 -0.2279 -0.5564
  564MOL0     C77735   9.599   0.577   5.452  0.9327  0.0631 -0.4156
  564MOL0     C77736   9.551   0.562   5.311 -0.3505 -0.0394  0.1552
  564MOL0     C77737   9.411   0.624   5.311  0.2949  0.2655  0.1975
  564MOL0     C77738   9.334   0.597   5.179 -1.0437  0.4427  0.1492
  564MOL0    Cl77739   9.358   0.735   5.072 -0.2110 -0.7507  0.4108
  564MOL0     C77740  10.333   0.709   5.463 -0.3618 -0.0213  0.0269
  564MOL0     C77741  10.458   0.760   5.514 -0.7517  0.9044 -0.1038
  564MOL0     O77742  10.649   0.664   5.869 -0.2467 -0.5596  0.5899
  564MOL0     C77743  10.835   0.955   5.782  0.7010  0.1981 -0.7427
  564MOL0     C77744  10.964   1.010   5.807 -0.3544 -0.5069  1.3381
  564MOL0     N77745  11.580   1.503   5.705 -0.3863  0.4413 -0.1809
  564MOL0     N77746  11.658   1.562   5.623  0.4087  0.0187  0.0803
  564MOL0     C77747  11.428   2.091   4.845  0.3722  1.1303 -0.8772
  564MOL0     C77748  11.397   2.222   4.810  0.6985 -0.2348  0.5340
  564MOL0     C77749  11.190   2.635   4.783  0.3054  1.4030 -0.0429
  564MOL0     C77750  11.076   2.692   4.824 -0.4608 -0.0200  0.5145
  564MOL0     C77751  11.046   2.824   4.780  0.3948  0.4468 -0.0755
  564MOL0     C77752  11.143   2.896   4.715 -0.7971  0.9431  0.1889
  564MOL0     O77753  11.114   3.035   4.696 -0.1276 -0.3580  0.1417
  564MOL0     C77754  11.019   3.101   4.786 -0.1763 -0.3866 -0.0131
  564MOL0     C77755  10.997   3.244   4.740 -0.9097  0.0907  0.0527
  564MOL0     C77756  11.108   3.351   4.790 -0.0704  0.1585 -0.5210
  564MOL0     C77757  11.042   3.500   4.799 -0.3671 -0.3430 -0.6064
  564MOL0     C77758  11.144   3.603   4.853  0.7561  0.3093 -0.1326
  564MOL0     C77759  11.219   3.682   4.907  0.0560 -0.2161 -0.5277
  564MOL0     C77760  11.263   2.835   4.670  0.5263 -0.2403 -0.6760
  564MOL0     C77761  11.287   2.701   4.714  0.7562 -0.3312  0.6147
  564MOL0     C77762  11.416   2.639   4.668  0.1803  0.3444  0.6249
  564MOL0     H77763  11.188   2.317   5.053 -1.4415 -2.2127  0.2863
  564MOL0     H77764  11.217   2.078   5.105 -4.6879  1.2476 -1.6711
  564MOL0     H77765  11.211   1.819   4.949 -0.0502  3.2085 -0.4241
  564MOL0     H77766  11.245   1.845   5.125  0.8937 -1.8665  0.6662
  564MOL0     H77767  11.270   1.597   5.064  1.2266 -0.9738  1.3213
  564MOL0     H77768  11.381   1.646   4.945  0.0812 -2.8067  1.5659
  564MOL0     H77769  11.549   1.733   5.094 -0.4511  0.2178 -1.1300
  564MOL0     H77770  11.433   1.703   5.231  1.3507  0.0119 -0.0414
  564MOL0     H77771  11.458   1.454   5.187  1.4315 -2.1771  0.5770
  564MOL0     H77772  11.557   1.491   5.049  0.9847  3.9485 -1.6053
  564MOL0     H77773  11.646   1.624   5.312  1.9480  0.2939  0.5699
  564MOL0     H77774  11.722   1.566   5.166 -2.2427  0.0243 -2.5501
  564MOL0     H77775  11.620   1.379   5.368  0.4701 -1.8796 -0.0766
  564MOL0     H77776  11.703   1.336   5.216  0.4313  0.7103 -0.5871
  564MOL0     H77777  11.913   1.435   5.279 -2.0165  0.3211  0.0707
  564MOL0     H77778  11.862   1.307   5.391 -1.0926 -1.2683 -2.3793
  564MOL0     H77779  11.953   1.522   5.506 -0.5436  2.1168 -0.5753
  564MOL0     H77780  11.823   1.602   5.432  0.1593 -0.4232 -2.6754
  564MOL0     H77781  11.801   1.266   5.634  2.8585  2.0766 -0.9675
  564MOL0     H77782  11.528   1.313   5.901  0.4495 -0.5672  0.0599
  564MOL0     H77783  11.642   1.203   5.844 -1.1710 -0.2946 -0.3760
  564MOL0     H77784  11.383   1.291   5.721 -0.5000  0.3509  3.5336
  564MOL0     H77785  11.474   1.174   5.631 -2.8604 -1.2225 -0.9446
  564MOL0     H77786  11.453   1.004   5.776  0.6476  0.6449  1.0254
  564MOL0     H77787  11.418   1.106   5.919 -0.3996 -0.5466  1.0359
  564MOL0     H77788  11.203   1.164   5.859 -0.9595  1.4422 -1.8760
  564MOL0     H77789  11.222   1.081   5.693  2.2005 -0.5875 -0.2594
  564MOL0     H77790  11.145   0.729   5.852  0.8734  1.0378  1.3312
  564MOL0     H77791  10.853   0.547   5.906 -1.3674  2.1834 -0.9295
  564MOL0     H77792  11.018   0.528   5.825 -0.4086  0.0416  1.0869
  564MOL0     H77793  10.867   0.544   5.735 -2.2638 -2.2036  2.0253
  564MOL0     H77794  10.419   0.697   5.852  1.8521 -0.5993 -0.3544
  564MOL0     H77795  10.202   0.612   5.757 -1.8892 -1.1976 -1.7680
  564MOL0     H77796  10.075   0.805   5.426 -1.4738  0.1291 -3.0589
  564MOL0     H77797  10.077   0.666   5.317 -2.2155 -0.7076 -0.6385
  564MOL0     H77798   9.874   0.690   5.540 -3.1260 -1.3148 -0.6260
  564MOL0     H77799   9.838   0.742   5.384 -0.7529  0.1334  2.7058
  564MOL0     H77800   9.941   0.462   5.438 -0.2751  1.3681  5.0059
  564MOL0     H77801   9.841   0.513   5.292  1.0512  0.5325 -0.4809
  564MOL0     H77802   9.743   0.507   5.583  1.7812  0.5481 -0.9654
  564MOL0     H77803   9.708   0.382   5.458  0.8019 -0.3334 -1.2266
  564MOL0     H77804   9.523   0.552   5.527  0.5171  1.8255 -0.2055
  564MOL0     H77805   9.629   0.680   5.476  0.3052 -0.0317  0.8897
  564MOL0     H77806   9.544   0.460   5.274 -0.3606  0.6763 -1.9684
  564MOL0     H77807   9.616   0.623   5.247  0.4259 -1.7987 -0.7989
  564MOL0     H77808   9.426   0.730   5.330 -0.6284  0.2055  1.3725
  564MOL0     H77809   9.364   0.579   5.399  2.9164  0.2063  1.6580
  564MOL0     H77810   9.227   0.582   5.197 -1.6024 -0.8716 -3.4260
  564MOL0     H77811   9.364   0.505   5.128  0.7077  0.0372  1.7758
  564MOL0     H77812  10.323   0.691   5.357  1.0136 -0.0893 -0.1053
  564MOL0     H77813  10.533   0.788   5.440 -0.5283  1.0357  0.1714
  564MOL0     H77814  10.748   1.020   5.774 -0.3475 -1.2384 -1.6039
  564MOL0     H77815  10.988   1.115   5.792  0.0524 -0.7090  0.5205
  564MOL0     H77816  11.504   2.042   4.785 -0.0940 -0.5936 -0.1097
  564MOL0     H77817  11.461   2.266   4.734 -0.2153 -0.4463 -0.3826
  564MOL0     H77818  11.001   2.643   4.884  0.2100 -0.2052  1.2188
  564MOL0     H77819  10.952   2.868   4.811  1.1632  2.8372 -0.9744
  564MOL0     H77820  10.918   3.062   4.771 -0.4433  0.4269 -0.3978
  564MOL0     H77821  11.043   3.090   4.892 -1.5386 -4.3993  0.0113
  564MOL0     H77822  10.906   3.266   4.797 -0.1953 -0.6787  1.5474
  564MOL0     H77823  10.981   3.251   4.632 -1.9935  0.2495  0.2018
  564MOL0     H77824  11.134   3.323   4.892  0.3678  0.9449 -0.4102
  564MOL0     H77825  11.188   3.338   4.717  0.1300  0.3210 -0.3303
  564MOL0     H77826  10.948   3.494   4.855 -0.4884  1.6828 -0.5324
  564MOL0     H77827  11.016   3.527   4.697 -0.9995  1.8795  0.0986
  564MOL0     H77828  11.290   3.747   4.953  1.4779  1.0125 -4.1294
  564MOL0     H77829  11.347   2.887   4.624 -0.7382  2.7229  0.1163
  564MOL0     H77830  11.482   2.710   4.616  0.8129 -0.1691  0.7200
  564MOL0     H77831  11.477   2.603   4.751  2.3435 -0.8082 -1.3526
  564MOL0     H77832  11.409   2.559   4.594  1.4844  0.9399 -0.1815
  565MOL0     O77833   3.067   7.887   6.235  0.1596 -0.0110  0.8317
  565MOL0     C77834   2.985   7.813   6.280 -0.4704 -0.2675 -0.0466
  565MOL0     O77835   3.003   7.673   6.293 -0.1432  0.6438 -0.1090
  565MOL0     C77836   3.126   7.631   6.247 -0.0788  0.9963  0.1879
  565MOL0     C77837   3.254   7.643   6.316 -0.1571  0.9880 -0.8558
  565MOL0     C77838   3.372   7.594   6.263  0.1975  0.0715  0.3066
  565MOL0     C77839   3.369   7.541   6.135 -0.1335  0.4835  0.5016
  565MOL0     O77840   3.485   7.514   6.068  0.1938 -0.2163  0.0730
  565MOL0     C77841   3.610   7.581   6.097  1.3413  0.3243  0.1301
  565MOL0     C77842   3.721   7.567   5.995 -0.6103 -0.5078  0.0135
  565MOL0     C77843   3.849   7.652   5.993  0.0731  0.0994 -0.2943
  565MOL0     C77844   3.921   7.652   6.138  0.1671  0.5714 -0.3036
  565MOL0     C77845   4.029   7.768   6.140  0.7226  0.4477  0.3701
  565MOL0     C77846   4.133   7.737   6.029 -0.6456 -0.0497 -0.3023
  565MOL0     C77847   4.269   7.805   6.060  0.4895  0.2193  0.9046
  565MOL0     C77848   4.284   7.945   5.971 -0.6724  0.1446 -0.4196
  565MOL0     N77849   4.191   8.062   5.993 -0.3033 -0.8419  0.8498
  565MOL0     C77850   4.065   8.089   5.941 -0.5689  0.9510  0.0983
  565MOL0     C77851   4.036   8.207   5.993  0.3863 -0.4682 -0.0615
  565MOL0     C77852   3.915   8.305   5.958  0.5840  0.9340 -0.1871
  565MOL0     C77853   3.768   8.248   5.940  0.4611  0.2962 -0.0550
  565MOL0     C77854   3.734   8.112   6.015 -0.8119  0.7392 -0.2882
  565MOL0     C77855   3.656   8.021   5.925  0.2650 -0.1924  0.0975
  565MOL0     O77856   3.741   7.989   5.808 -0.1845  0.1063 -0.5437
  565MOL0     C77857   3.698   7.878   5.734 -0.5836  0.1771  0.5513
  565MOL0     C77858   3.578   7.804   5.749 -0.1132 -0.2322  0.4568
  565MOL0     C77859   3.547   7.694   5.673  0.6024 -0.6590  0.8020
  565MOL0     C77860   3.431   7.605   5.713 -0.5371 -0.1463 -0.7777
  565MOL0     C77861   3.627   7.672   5.554  0.8811  0.2504 -0.9360
  565MOL0     C77862   3.601   7.560   5.467  0.2137  0.5281  0.1849
  565MOL0     O77863   3.476   7.518   5.457 -0.9010 -0.0766 -0.1404
  565MOL0     C77864   3.449   7.397   5.399 -0.2446 -0.4270  0.0969
  565MOL0     C77865   3.394   7.303   5.479 -0.0893  0.4671 -0.0066
  565MOL0     C77866   3.345   7.187   5.418 -0.6743  0.5204 -0.2866
  565MOL0     C77867   3.368   7.160   5.283  0.1621  0.1848 -0.3753
  565MOL0     O77868   3.310   7.047   5.223  0.4390 -0.6317 -0.3569
  565MOL0     C77869   3.280   6.938   5.306 -0.6830  0.0909 -0.3944
  565MOL0     C77870   3.301   6.810   5.227 -0.2537  0.2337 -0.1009
  565MOL0     C77871   3.332   6.698   5.331 -0.8227  0.0125  0.4101
  565MOL0     C77872   3.207   6.630   5.380  0.3078 -0.4724  0.1735
  565MOL0     C77873   3.226   6.512   5.481 -0.7397 -0.2809 -0.2746
  565MOL0     C77874   3.097   6.453   5.533 -0.0231 -0.5703  0.5758
  565MOL0     C77875   3.106   6.312   5.583  0.0555  0.4559  0.2389
  565MOL0     C77876   2.985   6.288   5.669  0.4806  1.1907  0.0432
  565MOL0    Cl77877   3.025   6.138   5.758  0.6394  0.4759 -0.7406
  565MOL0     C77878   3.440   7.245   5.201 -0.5437 -0.0075  0.3806
  565MOL0     C77879   3.484   7.369   5.267  0.7666  0.2681  0.4970
  565MOL0     O77880   3.701   7.512   5.403  0.3258 -0.8226 -0.6404
  565MOL0     C77881   3.739   7.752   5.536 -0.0645 -0.2842 -1.0955
  565MOL0     C77882   3.777   7.844   5.623 -0.1401 -0.3402  0.4072
  565MOL0     N77883   4.141   8.264   6.066  0.4321 -0.6880  0.0512
  565MOL0     N77884   4.239   8.169   6.061  0.0999  0.1215  0.5211
  565MOL0     C77885   3.244   7.531   6.056 -0.6198  0.0335 -0.3382
  565MOL0     C77886   3.125   7.566   6.122  0.1415 -0.3614 -0.1258
  565MOL0     C77887   2.862   7.866   6.333 -0.0766 -0.4505  0.3237
  565MOL0     C77888   2.783   7.788   6.420 -0.9705  0.3756  0.2794
  565MOL0     C77889   2.683   7.838   6.488 -0.3201 -0.6718 -0.5000
  565MOL0     C77890   2.635   7.967   6.479  0.1813  0.7929  0.4225
  565MOL0     O77891   2.533   8.009   6.564  0.6910  0.5306 -0.1352
  565MOL0     C77892   2.464   8.131   6.555 -0.8637  0.3788 -0.1275
  565MOL0     C77893   2.320   8.112   6.606 -0.1657 -0.1595  0.5338
  565MOL0     C77894   2.243   8.004   6.523 -0.8091 -0.4714  0.4709
  565MOL0     C77895   2.094   7.994   6.560  0.3859  0.1557 -0.0853
  565MOL0     C77896   2.019   7.923   6.457  1.0092 -0.2818  0.1632
  565MOL0     C77897   1.955   7.878   6.369 -0.3086  1.6040 -0.2073
  565MOL0     C77898   2.703   8.046   6.385 -0.1178 -0.2318 -0.0277
  565MOL0     C77899   2.806   7.997   6.305 -0.7694  0.1022  0.0096
  565MOL0     C77900   2.863   8.100   6.216 -0.5137 -0.5209  0.2937
  565MOL0     H77901   3.261   7.694   6.412  0.4156  1.3843 -1.1022
  565MOL0     H77902   3.466   7.606   6.315  1.1213 -0.7733 -1.0852
  565MOL0     H77903   3.642   7.546   6.196 -0.2170 -0.3356  0.4276
  565MOL0     H77904   3.602   7.690   6.101  3.9668  0.5417  2.1810
  565MOL0     H77905   3.758   7.464   5.993  1.3874  0.0198  3.4718
  565MOL0     H77906   3.665   7.593   5.905 -0.3919 -0.1881 -0.0317
  565MOL0     H77907   3.912   7.614   5.913 -0.4857  3.4281 -2.5150
  565MOL0     H77908   3.843   7.756   5.961  3.9469 -0.3728 -3.1156
  565MOL0     H77909   3.848   7.672   6.217  0.3705  2.9658 -0.6600
  565MOL0     H77910   3.968   7.553   6.145  1.3391  1.0397 -1.2442
  565MOL0     H77911   4.074   7.775   6.240  1.5039 -0.6234  0.1198
  565MOL0     H77912   3.986   7.862   6.107 -1.4467 -1.2578 -2.0907
  565MOL0     H77913   4.156   7.630   6.034  2.6197  0.4942 -1.2127
  565MOL0     H77914   4.102   7.756   5.925  0.5209 -1.3636 -0.9090
  565MOL0     H77915   4.354   7.741   6.035  1.6519  2.1465 -0.3072
  565MOL0     H77916   4.282   7.815   6.168  0.6328 -2.8528  1.2808
  565MOL0     H77917   4.388   7.976   5.981 -0.2506 -0.8067 -1.6047
  565MOL0     H77918   4.266   7.930   5.864  0.1762 -2.0106 -0.3197
  565MOL0     H77919   4.015   8.038   5.859  0.6543 -0.0028 -0.0818
  565MOL0     H77920   3.949   8.354   5.867  1.4430  0.6651 -0.0226
  565MOL0     H77921   3.910   8.381   6.037 -0.5746  2.5828 -1.7812
  565MOL0     H77922   3.689   8.320   5.962  1.7019  1.5064  0.5889
  565MOL0     H77923   3.761   8.231   5.832 -0.6131  1.0006 -0.1115
  565MOL0     H77924   3.824   8.058   6.045 -0.4276  0.5422 -1.6949
  565MOL0     H77925   3.671   8.130   6.102  1.7008  0.7032  1.6703
  565MOL0     H77926   3.625   7.939   5.991 -1.0666  1.1128  1.1644
  565MOL0     H77927   3.565   8.073   5.895 -0.8139 -1.6185  0.7991
  565MOL0     H77928   3.518   7.837   5.833  2.9608 -1.6427  3.4569
  565MOL0     H77929   3.334   7.635   5.674  0.0740  1.1474 -1.3352
  565MOL0     H77930   3.424   7.612   5.822 -2.2939  2.4632 -0.9806
  565MOL0     H77931   3.459   7.502   5.689  1.0581  0.7836 -3.2982
  565MOL0     H77932   3.380   7.333   5.583  1.9095  3.9128 -0.5795
  565MOL0     H77933   3.287   7.127   5.487 -2.9588  3.3068  0.4232
  565MOL0     H77934   3.348   6.932   5.392  0.7193 -1.3817 -1.5456
  565MOL0     H77935   3.177   6.937   5.343  0.1706  0.4329  2.2286
  565MOL0     H77936   3.217   6.795   5.158 -0.2701  1.8579 -0.4537
  565MOL0     H77937   3.390   6.816   5.164  1.2677  1.2814  2.0275
  565MOL0     H77938   3.398   6.734   5.410 -0.5954 -0.3904  0.4063
  565MOL0     H77939   3.384   6.617   5.281 -0.4014 -0.1928  1.1621
  565MOL0     H77940   3.146   6.598   5.295 -0.3750  0.6957  0.1942
  565MOL0     H77941   3.149   6.706   5.433  0.4487  1.1554 -1.8664
  565MOL0     H77942   3.286   6.428   5.445  4.5854  0.8919  4.4882
  565MOL0     H77943   3.293   6.557   5.554 -0.7266  0.1967 -0.5758
  565MOL0     H77944   3.015   6.451   5.461 -1.1345 -1.9306  1.8216
  565MOL0     H77945   3.066   6.523   5.610  0.0583  0.1590 -0.0411
  565MOL0     H77946   3.188   6.315   5.656 -1.5738 -2.9465  2.4271
  565MOL0     H77947   3.129   6.253   5.494 -0.1399  2.0137 -0.8785
  565MOL0     H77948   2.895   6.276   5.609 -0.4040 -4.4189  1.9368
  565MOL0     H77949   2.986   6.373   5.738  1.3500  0.0406  1.5269
  565MOL0     H77950   3.449   7.229   5.094  2.7288 -1.8299  0.8079
  565MOL0     H77951   3.536   7.447   5.211  2.9304 -1.2117  0.3299
  565MOL0     H77952   3.805   7.733   5.452  2.5285  3.5846 -0.2115
  565MOL0     H77953   3.859   7.905   5.588  0.3380 -1.4282 -0.4334
  565MOL0     H77954   3.242   7.502   5.951 -2.2985  0.7765 -0.5322
  565MOL0     H77955   3.032   7.546   6.070  0.2006  0.5861 -0.6359
  565MOL0     H77956   2.810   7.684   6.438 -0.9254 -0.1807 -2.4625
  565MOL0     H77957   2.641   7.778   6.568  1.4729 -1.6631 -0.2558
  565MOL0     H77958   2.517   8.210   6.609 -1.8770 -1.2000  3.4615
  565MOL0     H77959   2.458   8.150   6.448 -1.2773 -1.1255 -0.3882
  565MOL0     H77960   2.283   8.215   6.601  1.8765  0.6042  0.0747
  565MOL0     H77961   2.323   8.093   6.713  2.6034  1.4749  0.8531
  565MOL0     H77962   2.250   8.030   6.417  0.8889 -2.5528 -0.0087
  565MOL0     H77963   2.288   7.905   6.538  1.8835  0.7006  0.7668
  565MOL0     H77964   2.053   8.095   6.555 -1.8105 -0.6240  0.8636
  565MOL0     H77965   2.081   7.950   6.660  0.3966  1.4020  0.4822
  565MOL0     H77966   1.905   7.833   6.285  2.6658  0.4639 -1.4860
  565MOL0     H77967   2.670   8.150   6.385 -2.7661 -0.9747  1.1201
  565MOL0     H77968   2.896   8.056   6.122 -0.1861  0.2579  0.0280
  565MOL0     H77969   2.797   8.184   6.190  0.8228 -0.1693 -2.1930
  565MOL0     H77970   2.951   8.143   6.266 -0.8063 -0.0071  0.3799
  566MOL0     O77971  10.279   8.630  11.445  0.0461  0.5718  0.2612
  566MOL0     C77972  10.226   8.740  11.434 -0.2382 -0.0899  0.3552
  566MOL0     O77973  10.292   8.860  11.426  1.2292 -0.2757  0.3150
  566MOL0     C77974  10.425   8.866  11.441  0.3863  0.3825 -0.3996
  566MOL0     C77975  10.500   8.807  11.547  0.1066 -1.2850 -0.3245
  566MOL0     C77976  10.641   8.817  11.555  0.4361 -0.9917 -0.3745
  566MOL0     C77977  10.715   8.890  11.464 -0.1263 -0.0162  0.7180
  566MOL0     O77978  10.852   8.903  11.466 -0.0357  0.7903 -0.4148
  566MOL0     C77979  10.926   8.822  11.557  0.3054 -0.2086 -0.3106
  566MOL0     C77980  11.067   8.877  11.583 -0.2850  0.2350  0.8473
  566MOL0     C77981  11.130   8.793  11.697  0.9701 -0.1760 -0.5102
  566MOL0     C77982  11.259   8.852  11.751  1.2447  0.4296  0.0158
  566MOL0     C77983  11.369   8.867  11.648  0.4687 -0.0076 -0.1971
  566MOL0     C77984  11.491   8.957  11.695  0.2951  0.4053  0.4981
  566MOL0     C77985  11.616   8.949  11.595  0.3267 -0.1203 -0.0412
  566MOL0     C77986  11.736   9.000  11.674 -0.5642  0.0367  1.0787
  566MOL0     N77987  11.865   8.968  11.607 -0.1869 -0.0043  0.7797
  566MOL0     C77988  11.956   8.871  11.635  0.7015  0.0534 -0.7481
  566MOL0     C77989  12.068   8.916  11.585  0.3833  0.7511  0.4878
  566MOL0     C77990  12.211   8.862  11.606  0.4313  0.3755  0.0263
  566MOL0     C77991  12.299   8.969  11.684 -0.0674  0.8698  0.2514
  566MOL0     C77992  12.454   8.943  11.656  0.8157 -0.5137 -0.1309
  566MOL0     C77993  12.536   9.035  11.748 -0.1116  0.9279 -0.9961
  566MOL0     O77994  12.486   9.168  11.765  0.1634 -0.0485  0.7186
  566MOL0     C77995  12.523   9.262  11.672  0.4144  0.2097  0.7343
  566MOL0     C77996  12.576   9.246  11.543  0.5142 -0.7134  0.2927
  566MOL0     C77997  12.596   9.356  11.462 -0.2696 -0.5950 -0.2874
  566MOL0     C77998  12.665   9.323  11.334  0.9874 -0.6051  0.4585
  566MOL0     C77999  12.550   9.486  11.485  0.9876 -0.2434 -0.2154
  566MOL0     C78000  12.566   9.601  11.390 -0.0147  0.0170  0.5976
  566MOL0     O78001  12.603   9.719  11.450  0.2183 -0.1465  0.4427
  566MOL0     C78002  12.563   9.831  11.379  0.5592  0.4497 -0.1643
  566MOL0     C78003  12.640   9.867  11.270  0.1917  0.3251 -1.3941
  566MOL0     C78004  12.599   9.974  11.194  0.4340  0.6917 -0.4010
  566MOL0     C78005  12.477  10.035  11.222  0.1218 -0.4201  0.7717
  566MOL0     O78006  12.419  10.132  11.139 -0.1586 -0.4062  0.3752
  566MOL0     C78007  12.503  10.241  11.095  0.3281  0.1938 -0.0148
  566MOL0     C78008  12.517  10.352  11.190 -0.0181 -0.0513 -0.1733
  566MOL0     C78009  12.385  10.394  11.260  0.4328  0.4382 -0.1261
  566MOL0     C78010  12.347  10.539  11.215  1.2227  0.0845  0.3690
  566MOL0     C78011  12.305  10.550  11.071 -0.2233 -0.3285 -0.0624
  566MOL0     C78012  12.336  10.692  11.007 -0.4003  1.3209 -0.1419
  566MOL0     C78013  12.485  10.721  10.991  0.8207  0.0482 -0.5206
  566MOL0     C78014  12.504  10.860  10.937  0.7190  0.1653  0.3743
  566MOL0    Cl78015  12.671  10.909  10.897  0.4699 -0.1830 -0.2276
  566MOL0     C78016  12.412  10.004  11.343 -0.9163  0.6516 -0.3320
  566MOL0     C78017  12.450   9.897  11.421 -0.3185  0.3809 -0.2101
  566MOL0     O78018  12.531   9.583  11.275 -0.0052 -0.2074  0.4169
  566MOL0     C78019  12.488   9.493  11.613  0.2371  0.0521 -0.5356
  566MOL0     C78020  12.462   9.385  11.702  0.6608  0.3846 -0.1256
  566MOL0     N78021  12.057   9.034  11.515 -0.6023  0.2944 -0.4016
  566MOL0     N78022  11.927   9.062  11.529 -0.0673 -0.0719 -0.4440
  566MOL0     C78023  10.639   8.955  11.365  0.4872 -0.3708 -0.4125
  566MOL0     C78024  10.500   8.939  11.348 -0.0144  0.7025 -0.7305
  566MOL0     C78025  10.081   8.760  11.443  0.4945 -0.1124  0.5197
  566MOL0     C78026  10.020   8.889  11.427 -0.5075 -0.1016  0.0746
  566MOL0     C78027   9.878   8.911  11.453 -0.4421 -0.5314  0.6283
  566MOL0     C78028   9.799   8.801  11.473  0.8141  0.0110  0.0086
  566MOL0     O78029   9.666   8.819  11.495 -0.1313  0.1456  0.2257
  566MOL0     C78030   9.587   8.720  11.548 -0.0001 -0.0241  0.6142
  566MOL0     C78031   9.466   8.784  11.621 -0.3714 -0.1903 -0.1114
  566MOL0     C78032   9.510   8.845  11.759  0.1357 -0.5650 -0.1772
  566MOL0     C78033   9.388   8.918  11.827 -0.8483  1.0607  0.8616
  566MOL0     C78034   9.285   8.815  11.840  0.4357 -1.3237  0.1292
  566MOL0     C78035   9.192   8.743  11.861 -0.2726  0.0629  0.2813
  566MOL0     C78036   9.857   8.676  11.491  0.5561 -0.6089  0.0506
  566MOL0     C78037   9.997   8.654  11.474 -0.4637  0.3106  0.3997
  566MOL0     C78038  10.029   8.502  11.477 -0.6722  0.4185 -0.0133
  566MOL0     H78039  10.435   8.772  11.626 -0.2855  0.9243  0.3972
  566MOL0     H78040  10.682   8.770  11.644  1.3554 -0.7884 -0.6852
  566MOL0     H78041  10.932   8.724  11.510  2.5206  0.6824 -2.0689
  566MOL0     H78042  10.883   8.833  11.657  0.5522  3.5217 -0.4520
  566MOL0     H78043  11.118   8.860  11.488 -0.4999  0.3638  0.7080
  566MOL0     H78044  11.073   8.983  11.610  0.9393  0.4610 -0.2339
  566MOL0     H78045  11.056   8.788  11.777  1.2436  2.1725 -0.0652
  566MOL0     H78046  11.150   8.692  11.659 -1.2234 -1.5542  1.6553
  566MOL0     H78047  11.237   8.942  11.810  0.9499 -0.5674  1.4892
  566MOL0     H78048  11.291   8.773  11.819  1.4070 -0.3487 -0.9428
  566MOL0     H78049  11.325   8.907  11.556 -0.5405 -0.3033  0.1466
  566MOL0     H78050  11.415   8.772  11.617  0.5384  0.4133 -1.4677
  566MOL0     H78051  11.460   9.062  11.700 -0.3524  0.3542 -1.6128
  566MOL0     H78052  11.513   8.922  11.797 -2.0886 -1.2523  0.5257
  566MOL0     H78053  11.601   9.010  11.506  2.4106  0.4413 -0.0568
  566MOL0     H78054  11.639   8.843  11.581 -1.7119 -0.3791 -2.1615
  566MOL0     H78055  11.707   9.105  11.664  1.9204  0.7126  0.3993
  566MOL0     H78056  11.731   8.964  11.777  0.6207  1.1352  1.5371
  566MOL0     H78057  11.955   8.803  11.720 -0.7483  1.1857  0.2103
  566MOL0     H78058  12.258   8.846  11.509 -0.0129  0.3986 -0.1935
  566MOL0     H78059  12.211   8.765  11.656  1.8042  0.1918 -0.2937
  566MOL0     H78060  12.281   9.071  11.650 -0.7981  0.4083 -0.7878
  566MOL0     H78061  12.283   8.955  11.792 -1.7187  1.4826  0.1099
  566MOL0     H78062  12.480   8.843  11.692 -0.3697 -1.4965 -1.8491
  566MOL0     H78063  12.471   8.958  11.549 -0.1948 -0.4818 -0.2999
  566MOL0     H78064  12.527   8.984  11.844 -1.4297 -0.1426 -1.6628
  566MOL0     H78065  12.642   9.039  11.720  0.2954  0.5840  0.3843
  566MOL0     H78066  12.626   9.151  11.527 -0.8763 -1.4075 -0.0826
  566MOL0     H78067  12.749   9.393  11.328  2.3278 -2.2425 -0.4738
  566MOL0     H78068  12.594   9.326  11.251  0.1216 -1.9260  1.1192
  566MOL0     H78069  12.703   9.221  11.342  0.4858 -0.7233  1.4609
  566MOL0     H78070  12.729   9.806  11.257  0.0314 -0.2975  0.2099
  566MOL0     H78071  12.659   9.990  11.105  0.6051 -2.1237 -0.8770
  566MOL0     H78072  12.606  10.209  11.082  0.2087  0.6547 -2.6085
  566MOL0     H78073  12.476  10.293  11.003  4.4691  1.1698 -0.8475
  566MOL0     H78074  12.573  10.315  11.277 -1.1815  0.7876  0.9802
  566MOL0     H78075  12.565  10.437  11.141 -0.6098  0.2111 -0.3020
  566MOL0     H78076  12.405  10.397  11.367  1.1029  0.6298 -0.2559
  566MOL0     H78077  12.310  10.316  11.246  0.2350  1.1286 -4.1565
  566MOL0     H78078  12.426  10.601  11.258 -0.1256  0.2449  2.8049
  566MOL0     H78079  12.263  10.586  11.266  0.0865 -0.4998 -0.8975
  566MOL0     H78080  12.336  10.464  11.011  0.4072  1.3157 -2.2326
  566MOL0     H78081  12.196  10.541  11.067 -0.1314 -1.2012 -1.3757
  566MOL0     H78082  12.300  10.779  11.063  2.0247  3.2543 -1.3862
  566MOL0     H78083  12.290  10.702  10.909 -0.7574  1.1504  0.0086
  566MOL0     H78084  12.525  10.645  10.924  0.2459 -2.1629  1.4966
  566MOL0     H78085  12.530  10.717  11.091 -2.0879 -0.5186  0.8846
  566MOL0     H78086  12.459  10.944  10.991  0.5269  1.0645 -1.1499
  566MOL0     H78087  12.451  10.852  10.842  1.2737  2.1279 -0.1553
  566MOL0     H78088  12.330  10.069  11.373 -1.4985 -0.1242 -0.2214
  566MOL0     H78089  12.390   9.852  11.499 -2.6021 -0.7724 -2.4652
  566MOL0     H78090  12.433   9.585  11.631 -1.8760 -0.8695 -1.8159
  566MOL0     H78091  12.416   9.403  11.798  0.3028  0.3820 -0.2944
  566MOL0     H78092  10.675   9.020  11.285 -2.0965  0.4607 -1.0116
  566MOL0     H78093  10.436   8.980  11.271  1.4213  1.6303 -1.4688
  566MOL0     H78094  10.080   8.975  11.399  1.4289 -1.1300  0.8475
  566MOL0     H78095   9.845   9.014  11.455 -2.1281 -1.0526  2.8200
  566MOL0     H78096   9.545   8.662  11.465  1.4035 -2.0155  1.2015
  566MOL0     H78097   9.634   8.653  11.621 -0.0764  1.3174  1.9426
  566MOL0     H78098   9.397   8.702  11.644  1.0216 -1.5756 -0.6517
  566MOL0     H78099   9.420   8.861  11.559  1.4248  3.2071  2.4385
  566MOL0     H78100   9.545   8.764  11.823 -2.4340 -1.5168  0.1491
  566MOL0     H78101   9.591   8.917  11.752  0.1475 -0.4576  0.9171
  566MOL0     H78102   9.362   8.997  11.756  2.8395  0.0377 -1.9422
  566MOL0     H78103   9.410   8.955  11.927  1.1264 -1.5034  1.4792
  566MOL0     H78104   9.099   8.689  11.865  0.9356 -2.2226 -0.7262
  566MOL0     H78105   9.794   8.592  11.518  1.9843 -1.0601  2.1591
  566MOL0     H78106  10.053   8.456  11.381  4.0256  2.1819  0.0560
  566MOL0     H78107  10.106   8.481  11.552  0.5868 -1.5312 -1.7539
  566MOL0     H78108   9.935   8.454  11.506 -0.6052  0.0811 -0.3599
  567MOL0     O78109  10.906  10.222   7.913 -0.1916  0.6977 -1.0279
  567MOL0     C78110  11.007  10.271   7.861 -0.3748 -0.4198  0.0985
  567MOL0     O78111  11.132  10.232   7.886  0.6391 -0.2536  0.6169
  567MOL0     C78112  11.155  10.130   7.975 -0.9086  0.4193  0.0246
  567MOL0     C78113  11.119  10.125   8.110 -0.2768  0.1330 -0.5381
  567MOL0     C78114  11.158  10.007   8.186 -0.3418  0.1310  0.9114
  567MOL0     C78115  11.212   9.892   8.120 -0.8164  0.2734 -0.2141
  567MOL0     O78116  11.224   9.765   8.174 -0.0336 -0.0810 -0.3674
  567MOL0     C78117  11.215   9.750   8.311  0.7012 -0.1605  0.3870
  567MOL0     C78118  11.290   9.629   8.352  0.0719  0.4050 -0.2010
  567MOL0     C78119  11.208   9.492   8.351  0.9255 -0.1670  1.2104
  567MOL0     C78120  11.250   9.399   8.228  0.0971 -0.4766 -0.6536
  567MOL0     C78121  11.178   9.260   8.208 -0.0725  0.8501 -0.5482
  567MOL0     C78122  11.034   9.283   8.177 -0.2646  0.1940  0.3748
  567MOL0     C78123  10.953   9.151   8.188 -0.5214 -0.2140 -0.4850
  567MOL0     C78124  10.816   9.164   8.129 -0.3747 -0.1828 -0.3335
  567MOL0     N78125  10.738   9.038   8.144  0.0970  0.2183 -0.1702
  567MOL0     C78126  10.771   8.915   8.106  0.3252  0.1699  0.0611
  567MOL0     C78127  10.672   8.837   8.150 -0.5041 -0.5761 -0.3320
  567MOL0     C78128  10.681   8.693   8.152 -0.6719  0.9521  0.3610
  567MOL0     C78129  10.549   8.629   8.136 -0.1008  0.1662  0.1457
  567MOL0     C78130  10.487   8.605   7.999 -0.2721 -0.9828 -0.3123
  567MOL0     C78131  10.343   8.553   8.005 -0.4486 -0.6987 -0.3027
  567MOL0     O78132  10.264   8.596   7.891 -0.1911 -0.7671  0.0459
  567MOL0     C78133  10.127   8.580   7.880  0.5814 -0.4656  0.0293
  567MOL0     C78134  10.051   8.652   7.784  0.9493 -0.3031  0.5758
  567MOL0     C78135   9.912   8.658   7.797 -0.6143 -0.2257  1.1091
  567MOL0     C78136   9.839   8.749   7.702 -0.4557 -0.3580  0.7052
  567MOL0     C78137   9.843   8.582   7.893 -0.1807  0.1119 -0.8400
  567MOL0     C78138   9.691   8.577   7.907  0.4155  0.1936  0.4585
  567MOL0     O78139   9.652   8.491   8.003 -0.0963  0.3116 -0.2269
  567MOL0     C78140   9.521   8.472   8.019  0.1404 -0.0254 -0.1366
  567MOL0     C78141   9.444   8.426   7.912 -0.9781  0.0492  1.0052
  567MOL0     C78142   9.307   8.403   7.929  0.0621 -0.1589  0.7147
  567MOL0     C78143   9.247   8.440   8.045  0.3312 -0.2892  0.1398
  567MOL0     O78144   9.107   8.420   8.051  0.3935 -0.3171  0.8474
  567MOL0     C78145   9.032   8.492   8.160 -0.0650 -0.2275 -0.0347
  567MOL0     C78146   8.873   8.496   8.123  0.2644 -0.4465  0.2873
  567MOL0     C78147   8.779   8.563   8.235 -0.5222 -0.2843  0.7205
  567MOL0     C78148   8.622   8.545   8.210 -0.1290 -0.4144 -0.2779
  567MOL0     C78149   8.534   8.571   8.343  0.9311  0.9084  0.1742
  567MOL0     C78150   8.388   8.504   8.326  0.6155 -0.2992  0.3687
  567MOL0     C78151   8.401   8.353   8.366  0.1763  0.2127 -0.1036
  567MOL0     C78152   8.259   8.292   8.384 -0.9159  0.2406 -0.2972
  567MOL0    Cl78153   8.182   8.293   8.225  0.0171  0.3682  0.4283
  567MOL0     C78154   9.327   8.481   8.152 -0.4900  0.1479 -0.5909
  567MOL0     C78155   9.462   8.501   8.142 -0.2251  0.4260  0.2645
  567MOL0     O78156   9.611   8.648   7.848 -0.7881  0.3962  0.7153
  567MOL0     C78157   9.929   8.507   7.978 -0.4710 -0.0493 -0.4882
  567MOL0     C78158  10.065   8.508   7.982 -0.4071 -0.3663 -0.0215
  567MOL0     N78159  10.570   8.913   8.209 -0.2726  1.0152  0.6639
  567MOL0     N78160  10.620   9.031   8.205  0.5458  0.4273  0.0640
  567MOL0     C78161  11.254   9.906   7.989 -0.7963 -1.0063  0.4691
  567MOL0     C78162  11.226  10.023   7.921 -0.2903  0.0354  0.8770
  567MOL0     C78163  10.976  10.375   7.760 -0.5082 -0.1541 -0.6470
  567MOL0     C78164  10.841  10.394   7.722  0.8856 -0.2249  0.3323
  567MOL0     C78165  10.794  10.498   7.642  0.1489 -0.3986  0.3813
  567MOL0     C78166  10.895  10.577   7.584 -0.1174 -0.1202  0.0734
  567MOL0     O78167  10.873  10.681   7.495  0.4703  0.1863 -0.3989
  567MOL0     C78168  10.740  10.735   7.478 -1.1782  0.1088  0.2284
  567MOL0     C78169  10.671  10.674   7.354 -0.1820 -0.1630  0.3428
  567MOL0     C78170  10.532  10.725   7.323  0.6286  0.3889  0.6512
  567MOL0     C78171  10.461  10.667   7.200 -0.3546  0.0793  1.7056
  567MOL0     C78172  10.490  10.745   7.080  0.3104  0.2459 -0.0226
  567MOL0     C78173  10.488  10.805   6.970 -0.3753  0.6104  0.3006
  567MOL0     C78174  11.030  10.556   7.609 -1.1855 -0.3920 -0.3811
  567MOL0     C78175  11.072  10.462   7.704  0.2656  0.0898 -0.1918
  567MOL0     C78176  11.217  10.468   7.749 -0.5252 -0.0498  0.4820
  567MOL0     H78177  11.056  10.200   8.157  1.6553  1.1989  0.4614
  567MOL0     H78178  11.123   9.998   8.289  1.5526 -0.6237  1.5343
  567MOL0     H78179  11.110   9.748   8.338  0.2938  2.1413 -0.8046
  567MOL0     H78180  11.268   9.827   8.369 -0.3236  0.4148  0.5725
  567MOL0     H78181  11.380   9.605   8.294  1.6768 -2.3713  3.0852
  567MOL0     H78182  11.324   9.638   8.455 -0.2561 -2.1929  0.2064
  567MOL0     H78183  11.231   9.446   8.448  4.2821  0.9109  1.0838
  567MOL0     H78184  11.102   9.516   8.347  0.6274 -1.5048  0.5347
  567MOL0     H78185  11.233   9.457   8.137  0.5712 -0.6528 -0.8564
  567MOL0     H78186  11.357   9.377   8.228 -0.3273 -2.7909 -1.1618
  567MOL0     H78187  11.188   9.190   8.292  2.5837  1.0241 -0.6152
  567MOL0     H78188  11.222   9.213   8.120  0.0401  2.3762 -1.3326
  567MOL0     H78189  10.980   9.357   8.237 -0.3916 -0.2165  0.7704
  567MOL0     H78190  11.020   9.313   8.072  1.0793 -0.9645 -0.1733
  567MOL0     H78191  10.946   9.131   8.295  2.5963 -2.0706 -0.4948
  567MOL0     H78192  11.007   9.063   8.152 -1.2531 -0.5391 -0.8079
  567MOL0     H78193  10.764   9.253   8.166 -1.0443 -1.6145  2.4274
  567MOL0     H78194  10.824   9.167   8.020  0.7642 -1.8531 -0.3350
  567MOL0     H78195  10.854   8.873   8.051 -1.3178 -0.2905 -2.2286
  567MOL0     H78196  10.720   8.675   8.253 -3.4643  0.8014  1.4873
  567MOL0     H78197  10.745   8.646   8.076  0.9107 -2.0044  3.2767
  567MOL0     H78198  10.567   8.532   8.184 -0.0030  1.5106  3.0377
  567MOL0     H78199  10.473   8.681   8.195 -1.1078  1.4199 -2.1291
  567MOL0     H78200  10.496   8.695   7.936  3.9732 -1.9512 -1.3869
  567MOL0     H78201  10.551   8.532   7.950  1.9824 -1.1024  2.5272
  567MOL0     H78202  10.330   8.445   8.013 -5.4469 -0.4338 -1.1362
  567MOL0     H78203  10.302   8.593   8.098  0.8023  0.9499 -0.4019
  567MOL0     H78204  10.093   8.699   7.695  0.1812  0.5468  0.6406
  567MOL0     H78205   9.759   8.691   7.654 -1.9434  0.8026  1.6772
  567MOL0     H78206   9.901   8.795   7.625 -2.3717  0.4923 -0.4193
  567MOL0     H78207   9.785   8.833   7.746  0.2170  0.3782  0.1390
  567MOL0     H78208   9.488   8.418   7.813 -0.6334  1.0405  1.0652
  567MOL0     H78209   9.249   8.355   7.851  1.0292 -0.1921 -0.0031
  567MOL0     H78210   9.044   8.428   8.248 -2.4364  1.6468  1.8226
  567MOL0     H78211   9.059   8.593   8.191 -1.2418  0.4252 -1.0449
  567MOL0     H78212   8.867   8.550   8.028 -1.3880 -2.1745 -0.6675
  567MOL0     H78213   8.826   8.398   8.109 -4.3471  1.7722 -2.0697
  567MOL0     H78214   8.800   8.670   8.247 -4.6052  0.6371  1.1134
  567MOL0     H78215   8.810   8.513   8.327  1.6174  1.4163  1.0115
  567MOL0     H78216   8.591   8.449   8.168 -1.9801  0.4006 -0.8690
  567MOL0     H78217   8.587   8.619   8.138 -2.4352 -1.1505  0.0188
  567MOL0     H78218   8.589   8.535   8.430 -1.0030 -1.4339  0.5447
  567MOL0     H78219   8.529   8.679   8.358 -1.7232  0.6705  1.5606
  567MOL0     H78220   8.356   8.529   8.224  2.4864  1.4615  0.1411
  567MOL0     H78221   8.314   8.537   8.399 -0.3989 -2.0751  0.2178
  567MOL0     H78222   8.449   8.335   8.463 -3.5177 -2.9127  1.3931
  567MOL0     H78223   8.449   8.297   8.284  1.0480 -2.1686  1.8957
  567MOL0     H78224   8.194   8.357   8.444 -1.1831  0.9536 -1.3260
  567MOL0     H78225   8.270   8.193   8.428 -1.6294 -0.5393 -1.8198
  567MOL0     H78226   9.284   8.504   8.249  0.2853  0.7615 -0.3762
  567MOL0     H78227   9.519   8.547   8.222  3.4902 -1.9302 -0.7390
  567MOL0     H78228   9.896   8.437   8.055  3.2214  0.0941  1.4455
  567MOL0     H78229  10.116   8.445   8.054 -0.3706 -1.1208 -0.6930
  567MOL0     H78230  11.310   9.828   7.937 -1.7640 -2.2028  1.1579
  567MOL0     H78231  11.243  10.027   7.814 -0.3226  4.7166  0.8336
  567MOL0     H78232  10.760  10.326   7.748 -1.0263  2.1037  0.8318
  567MOL0     H78233  10.692  10.500   7.605  0.2018 -2.5082  0.0202
  567MOL0     H78234  10.674  10.729   7.564 -0.3305 -1.6392  0.7881
  567MOL0     H78235  10.753  10.843   7.466  0.3845 -0.1063 -0.1763
  567MOL0     H78236  10.655  10.567   7.364  1.1907 -0.3323  0.9033
  567MOL0     H78237  10.734  10.694   7.267  1.0580 -0.7369  1.0831
  567MOL0     H78238  10.466  10.698   7.405 -3.4544  4.3320 -0.9171
  567MOL0     H78239  10.534  10.834   7.314  0.0629  0.5157  1.9420
  567MOL0     H78240  10.353  10.682   7.202 -0.0791  4.2161 -1.1409
  567MOL0     H78241  10.485  10.562   7.182  1.1947  1.0133 -3.0278
  567MOL0     H78242  10.499  10.860   6.879  1.3592 -0.9198 -0.5002
  567MOL0     H78243  11.099  10.622   7.556  0.9977 -1.2944  1.1798
  567MOL0     H78244  11.272  10.558   7.719 -0.9613  1.3541  3.4972
  567MOL0     H78245  11.219  10.459   7.858  0.4158  0.1395  0.4924
  567MOL0     H78246  11.270  10.383   7.705  1.6813  0.8996  1.1363
  568MOL0     O78247   3.901   8.775   7.572  0.8155 -0.0761 -0.4548
  568MOL0     C78248   3.939   8.663   7.607  0.6260 -0.2666  0.4789
  568MOL0     O78249   3.939   8.622   7.740  0.5434 -0.5642 -0.0421
  568MOL0     C78250   3.962   8.716   7.841  0.2336  0.6974  0.4873
  568MOL0     C78251   3.961   8.649   7.969 -0.0838  0.7143  0.3039
  568MOL0     C78252   3.983   8.710   8.087 -0.3761 -0.0140  0.5792
  568MOL0     C78253   3.983   8.851   8.093 -0.1440 -0.1930 -0.0127
  568MOL0     O78254   4.004   8.917   8.219 -0.2482  0.1454  0.1571
  568MOL0     C78255   3.995   9.059   8.223 -0.1374  0.4441  0.2440
  568MOL0     C78256   3.977   9.085   8.376  0.8768 -0.2760  0.8683
  568MOL0     C78257   3.841   9.046   8.433 -0.8528  0.4566 -0.4756
  568MOL0     C78258   3.830   8.919   8.526 -0.7718  1.2956 -0.0429
  568MOL0     C78259   3.916   8.918   8.650 -0.4986 -1.3340  0.3033
  568MOL0     C78260   3.893   9.045   8.736  0.2694 -0.0806  1.0014
  568MOL0     C78261   3.971   9.054   8.863 -0.5383  1.0885  0.7407
  568MOL0     C78262   3.948   9.187   8.931  0.3398 -0.0052 -0.2372
  568MOL0     N78263   4.039   9.207   9.042 -0.5130  0.1523 -0.3322
  568MOL0     C78264   4.131   9.305   9.053 -0.4238 -0.4005 -0.1012
  568MOL0     C78265   4.200   9.295   9.170 -0.6992  0.1834  0.0092
  568MOL0     C78266   4.317   9.387   9.206 -0.1751  0.9737 -0.1052
  568MOL0     C78267   4.343   9.380   9.355  0.2713 -0.1394 -0.1190
  568MOL0     C78268   4.453   9.477   9.407 -0.0155  0.0846 -0.3625
  568MOL0     C78269   4.492   9.456   9.552 -0.0850  0.4959 -0.0026
  568MOL0     O78270   4.573   9.562   9.596  0.4745  0.5438  0.4190
  568MOL0     C78271   4.668   9.526   9.688 -0.6107  0.5863 -0.1455
  568MOL0     C78272   4.652   9.440   9.801  0.5328 -1.0853 -0.5247
  568MOL0     C78273   4.757   9.414   9.898 -0.7308  0.3351 -0.4847
  568MOL0     C78274   4.730   9.302   9.995 -0.7335 -0.0403 -0.5017
  568MOL0     C78275   4.887   9.465   9.877 -0.8284  0.3183  0.1856
  568MOL0     C78276   5.007   9.422   9.954  1.0228 -0.1871  0.5311
  568MOL0     O78277   5.093   9.532   9.974  0.3863  0.2465  0.3709
  568MOL0     C78278   5.225   9.491  10.014  1.3387 -0.0149  0.6562
  568MOL0     C78279   5.259   9.506  10.144 -0.1514  0.0440 -0.3742
  568MOL0     C78280   5.388   9.485  10.193 -0.6274  0.6762 -0.1041
  568MOL0     C78281   5.495   9.440  10.112  0.0658  0.8163  0.9039
  568MOL0     O78282   5.624   9.422  10.162  0.5995 -0.1273 -0.0547
  568MOL0     C78283   5.731   9.349  10.089  0.9071 -0.3551  0.5627
  568MOL0     C78284   5.835   9.309  10.181 -1.2285 -0.5697  0.4456
  568MOL0     C78285   5.963   9.278  10.107 -0.1963 -0.4598  0.7749
  568MOL0     C78286   6.066   9.271  10.218  0.4262 -0.0151  0.1784
  568MOL0     C78287   6.205   9.257  10.162 -0.5340  0.2167 -0.8839
  568MOL0     C78288   6.312   9.251  10.275 -0.1739 -0.0003 -0.4815
  568MOL0     C78289   6.315   9.371  10.383  0.4581 -0.4065  0.4650
  568MOL0     C78290   6.425   9.357  10.489 -0.0008  0.1269 -0.1450
  568MOL0    Cl78291   6.580   9.384  10.415  0.3540  0.3267  0.2215
  568MOL0     C78292   5.458   9.425   9.976 -0.9321 -0.2128  0.6761
  568MOL0     C78293   5.326   9.456   9.926 -0.6970 -0.7128  0.1087
  568MOL0     O78294   5.031   9.307   9.965  0.2416  0.0584 -0.0921
  568MOL0     C78295   4.895   9.553   9.769 -0.8024 -0.8629  0.9332
  568MOL0     C78296   4.796   9.580   9.670  1.0122 -1.1581 -0.7263
  568MOL0     N78297   4.141   9.193   9.233 -0.0217 -0.3454 -0.0922
  568MOL0     N78298   4.048   9.142   9.162  0.0573 -0.0448 -0.3774
  568MOL0     C78299   3.969   8.917   7.966 -0.3135  0.9110  0.3830
  568MOL0     C78300   3.963   8.854   7.840 -0.4905  0.3502  1.3277
  568MOL0     C78301   4.000   8.577   7.493 -0.0708 -0.2988 -1.1236
  568MOL0     C78302   3.992   8.630   7.364 -0.5798 -0.4720 -0.0300
  568MOL0     C78303   4.073   8.583   7.255 -0.1852  0.4419 -0.2116
  568MOL0     C78304   4.154   8.473   7.280 -0.1640  0.0350  0.1686
  568MOL0     O78305   4.234   8.409   7.188  0.4116 -0.4495 -0.1821
  568MOL0     C78306   4.158   8.348   7.087 -0.2347  0.2472  0.4904
  568MOL0     C78307   4.237   8.263   6.993 -0.2360  0.2343  0.1810
  568MOL0     C78308   4.265   8.120   7.046  0.0909  0.5686  0.0373
  568MOL0     C78309   4.296   8.009   6.932  0.1875  0.1942 -0.2674
  568MOL0     C78310   4.353   7.883   6.986 -0.0204  0.3091  0.8706
  568MOL0     C78311   4.394   7.783   7.033  0.1536  0.6040 -0.9618
  568MOL0     C78312   4.164   8.418   7.411  0.1087  0.1822 -0.4935
  568MOL0     C78313   4.085   8.467   7.521  0.2021 -0.0487 -0.2307
  568MOL0     C78314   4.117   8.409   7.659 -0.6270 -0.0197 -0.4277
  568MOL0     H78315   3.958   8.541   7.966 -0.1845  0.7328 -1.6025
  568MOL0     H78316   3.987   8.663   8.185  2.7234  0.7289  0.9007
  568MOL0     H78317   3.905   9.092   8.170 -2.1423  0.4688  3.3731
  568MOL0     H78318   4.080   9.123   8.198 -2.7788  4.4326  0.6272
  568MOL0     H78319   4.067   9.039   8.418  3.4562  0.3726 -3.4116
  568MOL0     H78320   3.990   9.193   8.389 -2.1517  0.1457  1.1767
  568MOL0     H78321   3.819   9.135   8.493  0.7720  1.2531 -0.9990
  568MOL0     H78322   3.769   9.043   8.351 -2.1260  2.2432  0.5101
  568MOL0     H78323   3.724   8.905   8.549 -0.5778  1.5200  1.0139
  568MOL0     H78324   3.853   8.827   8.472  1.1658  0.4958  1.9934
  568MOL0     H78325   4.022   8.909   8.623 -1.0722 -3.0012 -1.6464
  568MOL0     H78326   3.898   8.827   8.709  0.7739 -1.6001  0.3040
  568MOL0     H78327   3.921   9.136   8.682 -2.1888  0.4729  0.5228
  568MOL0     H78328   3.791   9.058   8.774  1.2009 -1.3346  4.2533
  568MOL0     H78329   4.079   9.048   8.849 -0.4025  3.0119  0.6612
  568MOL0     H78330   3.945   8.974   8.933 -1.9399 -0.0932 -1.0649
  568MOL0     H78331   3.960   9.281   8.877  0.7453  0.8944  1.3634
  568MOL0     H78332   3.845   9.169   8.963  0.1224 -2.1052 -1.8584
  568MOL0     H78333   4.159   9.375   8.974  3.4541  0.3918  1.7579
  568MOL0     H78334   4.277   9.486   9.183 -0.3677  1.1596  0.9719
  568MOL0     H78335   4.402   9.360   9.142  0.6538  1.0657  0.9281
  568MOL0     H78336   4.251   9.404   9.408 -1.7753 -1.3673 -2.8511
  568MOL0     H78337   4.358   9.274   9.376 -3.9982 -1.1056 -1.0111
  568MOL0     H78338   4.545   9.472   9.348  3.5587 -2.0165  4.6917
  568MOL0     H78339   4.410   9.577   9.405  0.1229  0.1349 -0.9026
  568MOL0     H78340   4.402   9.451   9.614  0.3897  2.2507  0.8787
  568MOL0     H78341   4.547   9.362   9.564  1.9605  1.6997  0.4559
  568MOL0     H78342   4.557   9.389   9.812 -0.6199  0.6682 -1.7410
  568MOL0     H78343   4.622   9.293  10.011 -0.8198 -0.8250 -1.4558
  568MOL0     H78344   4.776   9.304  10.094 -2.5996 -3.0054  0.5644
  568MOL0     H78345   4.762   9.208   9.951 -1.9471 -0.6673 -0.0870
  568MOL0     H78346   5.185   9.529  10.221 -1.0019 -2.0870 -0.4901
  568MOL0     H78347   5.414   9.508  10.295  0.9786 -0.3381 -0.2560
  568MOL0     H78348   5.680   9.257  10.058  0.5106 -0.0289  0.2401
  568MOL0     H78349   5.765   9.405  10.002 -1.1412 -0.0750 -0.1104
  568MOL0     H78350   5.843   9.385  10.260  0.4573  0.2703 -0.4619
  568MOL0     H78351   5.808   9.217  10.233  0.2836 -1.1157  0.3203
  568MOL0     H78352   5.998   9.358  10.042 -0.4096 -0.3074  0.8498
  568MOL0     H78353   5.955   9.195  10.037 -0.0535  1.6256 -1.8479
  568MOL0     H78354   6.052   9.188  10.288  0.8797  1.9481  2.7705
  568MOL0     H78355   6.075   9.363  10.276  0.0398  0.2192 -0.1313
  568MOL0     H78356   6.211   9.160  10.113 -2.7929 -0.6817  0.4699
  568MOL0     H78357   6.233   9.345  10.102 -0.1573 -0.4284 -1.6716
  568MOL0     H78358   6.412   9.239  10.231 -0.1230  0.1691 -0.4147
  568MOL0     H78359   6.302   9.157  10.329  1.2907  0.5802  0.8837
  568MOL0     H78360   6.218   9.376  10.434  0.4844 -0.9491  0.5702
  568MOL0     H78361   6.326   9.472  10.341 -3.0859  0.4773  1.3208
  568MOL0     H78362   6.431   9.253  10.523  0.1734 -1.4389 -4.3903
  568MOL0     H78363   6.392   9.417  10.574  0.0871 -0.0399  0.0078
  568MOL0     H78364   5.525   9.388   9.899  0.7045 -0.3171  2.0892
  568MOL0     H78365   5.312   9.439   9.819  1.8517 -1.6534 -0.1627
  568MOL0     H78366   4.982   9.612   9.746 -0.6667 -1.2719  0.3720
  568MOL0     H78367   4.817   9.664   9.605  0.9871  1.7817  2.7163
  568MOL0     H78368   3.957   9.024   7.968 -2.9848  0.6666  0.8912
  568MOL0     H78369   3.947   8.916   7.752  0.1760 -2.2371 -0.7235
  568MOL0     H78370   3.936   8.720   7.340  2.5120  1.7272  0.3447
  568MOL0     H78371   4.060   8.634   7.161  1.4464  0.6649 -0.3569
  568MOL0     H78372   4.062   8.307   7.121  0.6414 -1.7668  0.6786
  568MOL0     H78373   4.118   8.425   7.020  0.5871  1.8576  1.8063
  568MOL0     H78374   4.333   8.311   6.970  0.5032 -0.4201  1.7329
  568MOL0     H78375   4.191   8.264   6.894  0.9381  0.1113 -0.3857
  568MOL0     H78376   4.352   8.118   7.112  0.1002  0.2072  0.0131
  568MOL0     H78377   4.185   8.078   7.107  0.6055  0.0103  0.3431
  568MOL0     H78378   4.372   8.043   6.860  2.0840 -2.6865  0.1935
  568MOL0     H78379   4.205   7.979   6.880  0.7170 -3.7650  0.8193
  568MOL0     H78380   4.421   7.687   7.072 -1.6928 -0.0430 -1.1697
  568MOL0     H78381   4.240   8.343   7.434  3.1516  3.3239  0.5452
  568MOL0     H78382   4.214   8.357   7.661  0.0878  1.2660 -0.2321
  568MOL0     H78383   4.138   8.489   7.731  1.5806  0.5449 -1.5931
  568MOL0     H78384   4.037   8.343   7.691  0.9012 -3.0993 -2.4318
  569MOL0     O78385   9.540   3.518   8.568 -0.3399  0.5015  0.8950
  569MOL0     C78386   9.488   3.426   8.507  0.5372  1.0883 -0.2856
  569MOL0     O78387   9.435   3.426   8.375  0.0643  0.2126 -0.4534
  569MOL0     C78388   9.505   3.493   8.287 -0.1599  0.4302  0.3702
  569MOL0     C78389   9.626   3.442   8.229 -0.1363  0.6525  0.1714
  569MOL0     C78390   9.695   3.521   8.136 -0.2538  0.3648 -0.1134
  569MOL0     C78391   9.634   3.642   8.091 -0.2220  0.1605 -1.1971
  569MOL0     O78392   9.696   3.711   7.995 -0.4718  0.3745 -0.1255
  569MOL0     C78393   9.743   3.837   8.046 -0.4354 -0.0755  0.5441
  569MOL0     C78394   9.731   3.949   7.945  0.1706 -0.4330  1.1346
  569MOL0     C78395   9.818   3.923   7.820 -0.1724 -0.0496 -0.5885
  569MOL0     C78396   9.946   4.013   7.819  0.2066 -0.0350 -0.2137
  569MOL0     C78397  10.066   3.959   7.725 -0.3749 -0.4053  0.2239
  569MOL0     C78398  10.014   3.928   7.582 -0.0424 -0.1917  0.0393
  569MOL0     C78399  10.121   3.894   7.482  0.0709  0.2951  0.1896
  569MOL0     C78400  10.191   3.757   7.495 -0.3713 -0.0126 -0.3927
  569MOL0     N78401  10.301   3.730   7.401 -0.4256  0.6508 -0.4336
  569MOL0     C78402  10.345   3.609   7.363 -0.1478  0.6301 -0.8845
  569MOL0     C78403  10.455   3.624   7.295 -0.0857 -0.0764  0.4184
  569MOL0     C78404  10.538   3.514   7.232  0.2812  0.6918  0.9869
  569MOL0     C78405  10.617   3.574   7.104 -0.1073  0.4246 -0.4175
  569MOL0     C78406  10.695   3.475   7.030 -0.4121 -0.3765  0.2506
  569MOL0     C78407  10.625   3.366   6.953 -0.0289 -0.2086 -0.9444
  569MOL0     O78408  10.557   3.410   6.842  0.0010 -0.2892  0.4087
  569MOL0     C78409  10.464   3.320   6.794  1.1884 -0.4155  0.4650
  569MOL0     C78410  10.466   3.176   6.792  0.0301 -0.6843 -0.4689
  569MOL0     C78411  10.376   3.103   6.719 -0.0779 -0.0331 -0.1601
  569MOL0     C78412  10.370   2.948   6.729 -0.6406 -0.6194 -0.1393
  569MOL0     C78413  10.273   3.173   6.645  0.6771 -0.4969 -0.4212
  569MOL0     C78414  10.180   3.100   6.558  0.1027  0.2849 -0.4920
  569MOL0     O78415  10.062   3.062   6.623  0.4312  0.3356 -0.2042
  569MOL0     C78416   9.963   3.006   6.545 -1.4802 -0.4293  0.2487
  569MOL0     C78417   9.848   3.084   6.526 -0.5020  0.0194 -0.2499
  569MOL0     C78418   9.733   3.017   6.469  0.0818  0.0098 -0.1996
  569MOL0     C78419   9.732   2.883   6.429 -0.5190  0.6506  0.4992
  569MOL0     O78420   9.630   2.804   6.378 -0.1510 -0.2274  0.3271
  569MOL0     C78421   9.517   2.863   6.321  1.0881 -0.1126 -0.0225
  569MOL0     C78422   9.396   2.763   6.328  0.0993 -0.0274 -0.2669
  569MOL0     C78423   9.270   2.839   6.273 -0.1384  0.2193 -0.3431
  569MOL0     C78424   9.157   2.744   6.249 -0.3919 -0.6600 -0.0411
  569MOL0     C78425   9.021   2.819   6.215 -1.3630 -0.1183 -0.9931
  569MOL0     C78426   8.911   2.726   6.149  0.1668 -0.9847 -0.4630
  569MOL0     C78427   8.845   2.631   6.249 -0.3082  0.5058  0.0014
  569MOL0     C78428   8.742   2.535   6.194 -0.5718 -0.1851 -0.2762
  569MOL0    Cl78429   8.608   2.636   6.130  0.0668  0.2541  0.2070
  569MOL0     C78430   9.851   2.817   6.455 -0.5519  0.4264 -1.0231
  569MOL0     C78431   9.968   2.873   6.511 -0.1921  0.3211 -0.0450
  569MOL0     O78432  10.193   3.108   6.433 -0.9466 -0.2779 -0.6620
  569MOL0     C78433  10.273   3.312   6.646 -0.0484 -0.2028  1.4957
  569MOL0     C78434  10.363   3.384   6.715 -0.6563 -0.0160 -0.0901
  569MOL0     N78435  10.479   3.765   7.300  0.3961  0.2028 -0.1256
  569MOL0     N78436  10.386   3.828   7.366  1.0713 -0.5702  0.5804
  569MOL0     C78437   9.510   3.674   8.139 -0.6482 -0.3312 -0.4661
  569MOL0     C78438   9.451   3.614   8.245  0.4065  0.3080 -0.1867
  569MOL0     C78439   9.459   3.307   8.591 -0.9842 -0.4685 -0.2306
  569MOL0     C78440   9.387   3.203   8.528 -0.6220 -0.4594 -1.2907
  569MOL0     C78441   9.358   3.087   8.599  0.1165  0.2571  0.3388
  569MOL0     C78442   9.384   3.069   8.729  0.1157  0.5474  0.6463
  569MOL0     O78443   9.352   2.947   8.784  0.1677  0.5290 -0.1344
  569MOL0     C78444   9.363   2.927   8.920 -0.8099 -0.1228 -0.4602
  569MOL0     C78445   9.276   2.806   8.972 -0.1629 -0.4235  0.2527
  569MOL0     C78446   9.287   2.767   9.120  0.2750 -0.2184  0.7020
  569MOL0     C78447   9.367   2.636   9.147 -0.8428 -0.8461  0.3356
  569MOL0     C78448   9.497   2.652   9.080  0.2099  0.2004  0.6820
  569MOL0     C78449   9.603   2.647   9.021  0.9182  0.2899 -0.2126
  569MOL0     C78450   9.450   3.175   8.800  0.4004 -1.5186  1.0369
  569MOL0     C78451   9.482   3.296   8.738  0.1880 -0.1705  0.2747
  569MOL0     C78452   9.542   3.401   8.819 -0.0311 -0.6049 -0.3664
  569MOL0     H78453   9.647   3.338   8.254 -0.1864  1.1074  2.3020
  569MOL0     H78454   9.791   3.489   8.096  0.7547  0.6873  1.9006
  569MOL0     H78455   9.847   3.824   8.076 -0.4069 -1.3475 -0.0776
  569MOL0     H78456   9.682   3.871   8.131 -3.4186  0.2076 -1.5472
  569MOL0     H78457   9.625   3.960   7.916  0.2681 -1.8443  0.0735
  569MOL0     H78458   9.765   4.039   7.995 -1.8101  0.4773  0.9514
  569MOL0     H78459   9.850   3.818   7.822 -0.6419 -0.1940 -0.4320
  569MOL0     H78460   9.754   3.948   7.734 -1.6478  1.3182  0.8358
  569MOL0     H78461   9.919   4.114   7.788 -1.3357  0.0522  1.2808
  569MOL0     H78462   9.989   4.015   7.919  0.8771 -0.9300 -0.4698
  569MOL0     H78463  10.091   3.868   7.780  2.3411  1.7005  2.7752
  569MOL0     H78464  10.149   4.031   7.728  0.3852 -1.2803  0.8174
  569MOL0     H78465   9.934   3.855   7.598 -2.2866  2.1834  0.3560
  569MOL0     H78466   9.977   4.027   7.554  2.1307  0.6943  0.0783
  569MOL0     H78467  10.203   3.966   7.480  0.8733 -0.5772 -2.5145
  569MOL0     H78468  10.069   3.911   7.387  0.1842 -0.9431 -0.1090
  569MOL0     H78469  10.219   3.742   7.599 -1.3879  1.3909  0.1068
  569MOL0     H78470  10.118   3.675   7.493 -2.1593  1.4161  1.9648
  569MOL0     H78471  10.294   3.520   7.399 -2.7250  1.4353 -2.2670
  569MOL0     H78472  10.477   3.438   7.183  1.6749 -1.0879  1.8699
  569MOL0     H78473  10.611   3.472   7.302  0.7062 -1.4852 -0.6468
  569MOL0     H78474  10.540   3.625   7.046 -3.5287 -0.7581  2.7159
  569MOL0     H78475  10.698   3.636   7.144  1.9886 -1.1089 -2.0389
  569MOL0     H78476  10.752   3.546   6.969 -3.2700  3.4230  1.6301
  569MOL0     H78477  10.763   3.434   7.105  1.4746  0.5029 -0.8918
  569MOL0     H78478  10.697   3.295   6.912  1.6066 -0.0809  1.4605
  569MOL0     H78479  10.559   3.319   7.026 -0.3698  1.4377 -0.1461
  569MOL0     H78480  10.547   3.124   6.841  0.6338  1.7261  1.3030
  569MOL0     H78481  10.268   2.914   6.751 -1.7023  2.0742 -0.4970
  569MOL0     H78482  10.445   2.915   6.800 -2.7371  0.0292  2.5515
  569MOL0     H78483  10.386   2.908   6.628 -0.0651 -3.3780  0.9508
  569MOL0     H78484   9.832   3.188   6.553 -3.6911 -0.5337  0.4594
  569MOL0     H78485   9.636   3.065   6.457 -1.0224 -0.9290  3.7005
  569MOL0     H78486   9.487   2.943   6.389  0.8836 -2.6451  3.1436
  569MOL0     H78487   9.542   2.901   6.222 -1.8031  1.7070 -0.1718
  569MOL0     H78488   9.420   2.675   6.269  0.5566 -1.1465  1.5181
  569MOL0     H78489   9.372   2.739   6.432  1.1599 -0.8817 -0.2028
  569MOL0     H78490   9.301   2.880   6.176  0.8815 -1.7938 -0.9226
  569MOL0     H78491   9.258   2.919   6.346 -0.7232  0.2646 -0.4888
  569MOL0     H78492   9.149   2.673   6.333  1.8090  0.4410  1.1686
  569MOL0     H78493   9.195   2.692   6.161  0.9180  0.4942 -0.1849
  569MOL0     H78494   8.988   2.863   6.310 -1.7793 -0.6324 -0.8978
  569MOL0     H78495   9.053   2.892   6.140  1.8544 -2.8226 -2.4953
  569MOL0     H78496   8.951   2.669   6.065  0.0059  0.7820 -1.7888
  569MOL0     H78497   8.838   2.792   6.100 -0.4233  1.1144  2.8691
  569MOL0     H78498   8.800   2.694   6.326 -0.0642  0.3739  0.2533
  569MOL0     H78499   8.932   2.578   6.289 -0.2320 -0.8917 -1.8542
  569MOL0     H78500   8.697   2.484   6.281 -1.8317  1.4466  0.0766
  569MOL0     H78501   8.789   2.469   6.120  1.9661  1.8495 -0.6073
  569MOL0     H78502   9.855   2.710   6.439  0.2063  0.6510 -2.4547
  569MOL0     H78503  10.060   2.820   6.533 -0.3515 -0.1424 -0.4799
  569MOL0     H78504  10.194   3.361   6.590  0.3825 -0.7457  0.3690
  569MOL0     H78505  10.349   3.491   6.722  1.8623  0.4148 -0.6050
  569MOL0     H78506   9.478   3.771   8.103  2.9964  1.4938  0.7011
  569MOL0     H78507   9.366   3.649   8.303  1.1306  0.4022  0.8532
  569MOL0     H78508   9.355   3.218   8.425  2.1644  0.6717 -2.0886
  569MOL0     H78509   9.313   3.007   8.541 -1.3523  0.1267  1.6042
  569MOL0     H78510   9.469   2.908   8.940 -1.3776 -1.4256  1.6239
  569MOL0     H78511   9.340   3.016   8.980 -0.2999  0.4700 -1.1195
  569MOL0     H78512   9.300   2.721   8.907  1.2262  1.8005 -2.3293
  569MOL0     H78513   9.171   2.820   8.945 -0.4535  0.6782  1.8475
  569MOL0     H78514   9.334   2.848   9.177 -3.0449  0.0977  3.3499
  569MOL0     H78515   9.185   2.776   9.159  1.1210  2.5772  2.5568
  569MOL0     H78516   9.323   2.544   9.107 -0.1585 -0.5087 -1.2743
  569MOL0     H78517   9.373   2.620   9.255 -3.3594  1.5005  0.9136
  569MOL0     H78518   9.686   2.651   8.954  1.6779  1.4252  0.7447
  569MOL0     H78519   9.472   3.178   8.907  0.2064  3.3605  1.1901
  569MOL0     H78520   9.475   3.486   8.803  0.6459  0.2377  1.0493
  569MOL0     H78521   9.534   3.381   8.926  1.4450  2.1581  0.3733
  569MOL0     H78522   9.645   3.427   8.791  0.4750 -0.3433  1.6103
  570MOL0     O78523   5.316   7.813   2.612 -0.2128 -0.1256 -0.2455
  570MOL0     C78524   5.214   7.789   2.541  0.5591 -0.5722 -0.1258
  570MOL0     O78525   5.202   7.742   2.411  0.8262  0.2409  0.0214
  570MOL0     C78526   5.324   7.724   2.346  0.0784 -0.0519  0.3751
  570MOL0     C78527   5.370   7.596   2.310  0.1361 -0.1864  0.6882
  570MOL0     C78528   5.481   7.571   2.231  0.2164 -0.1043  0.6418
  570MOL0     C78529   5.567   7.680   2.202 -0.7477 -0.4268  0.0903
  570MOL0     O78530   5.676   7.666   2.117 -0.5884  0.0342 -0.4886
  570MOL0     C78531   5.648   7.625   1.986 -0.5460  0.3370  0.5274
  570MOL0     C78532   5.768   7.670   1.904 -0.6304  0.2036 -0.0101
  570MOL0     C78533   5.729   7.663   1.760  0.0738 -0.2731  0.5441
  570MOL0     C78534   5.844   7.684   1.673 -0.2380  0.2901  0.6941
  570MOL0     C78535   5.816   7.664   1.517  0.3638  0.2015  0.2445
  570MOL0     C78536   5.908   7.750   1.423 -0.4227 -0.5218  0.2784
  570MOL0     C78537   6.049   7.696   1.393 -0.4432  0.1138 -0.7281
  570MOL0     C78538   6.048   7.557   1.327  0.2867  0.0837 -0.0310
  570MOL0     N78539   6.132   7.544   1.209  0.5262 -0.7470  0.1491
  570MOL0     C78540   6.263   7.573   1.209  0.1532 -0.1666  1.0864
  570MOL0     C78541   6.309   7.529   1.088  0.4537 -1.2011  0.3414
  570MOL0     C78542   6.447   7.531   1.024 -0.0112 -0.3477  0.0021
  570MOL0     C78543   6.528   7.663   1.021 -1.0259  0.4389  0.0310
  570MOL0     C78544   6.455   7.784   0.962 -0.5680  0.2122 -0.0666
  570MOL0     C78545   6.356   7.843   1.055  1.3313 -0.7186 -1.1700
  570MOL0     O78546   6.344   7.989   1.031 -0.1507  0.5385 -0.8561
  570MOL0     C78547   6.259   8.049   1.115  0.4496  0.3413  0.3846
  570MOL0     C78548   6.305   8.149   1.201  0.1450  0.0259  0.1223
  570MOL0     C78549   6.216   8.225   1.276  0.0251  0.2184  0.0862
  570MOL0     C78550   6.269   8.339   1.359  0.1974  0.8594 -0.5780
  570MOL0     C78551   6.077   8.183   1.281 -0.2612  0.2464  0.1718
  570MOL0     C78552   5.968   8.237   1.373  1.3520 -0.0400  0.0220
  570MOL0     O78553   5.946   8.369   1.371 -0.5564  0.3931 -0.4353
  570MOL0     C78554   5.867   8.417   1.470  0.1419 -0.4006  0.8366
  570MOL0     C78555   5.906   8.512   1.561  0.3496 -0.3646  0.2517
  570MOL0     C78556   5.823   8.583   1.656 -0.2970  0.1246 -0.5030
  570MOL0     C78557   5.686   8.568   1.641 -0.3436 -0.3172 -0.4453
  570MOL0     O78558   5.591   8.650   1.709 -0.9015 -0.5145 -0.0008
  570MOL0     C78559   5.642   8.746   1.807  0.0838  0.6280  0.4751
  570MOL0     C78560   5.524   8.837   1.875 -1.3264  0.8722 -0.0460
  570MOL0     C78561   5.452   8.925   1.770  0.7196  0.8777 -0.2206
  570MOL0     C78562   5.531   9.049   1.747 -0.1767 -0.4544  0.5071
  570MOL0     C78563   5.463   9.130   1.627  0.2992 -0.2736  0.1675
  570MOL0     C78564   5.497   9.281   1.641 -0.1946 -0.1055 -0.1384
  570MOL0     C78565   5.630   9.318   1.593 -0.4910  0.9355 -0.7055
  570MOL0     C78566   5.684   9.444   1.644 -0.5704 -0.1093  0.2208
  570MOL0    Cl78567   5.817   9.504   1.536 -0.2092 -0.2784 -0.1441
  570MOL0     C78568   5.651   8.461   1.560  0.1715  0.5788  0.4451
  570MOL0     C78569   5.732   8.380   1.477  0.1510  0.8580 -0.4653
  570MOL0     O78570   5.905   8.153   1.440 -0.3619 -0.0341  0.4139
  570MOL0     C78571   6.036   8.075   1.198 -0.9836  1.1283 -0.2752
  570MOL0     C78572   6.123   8.009   1.110 -0.3606 -0.4986  0.9889
  570MOL0     N78573   6.198   7.474   1.017 -0.0062 -0.2500 -0.0490
  570MOL0     N78574   6.098   7.477   1.097  0.8137  0.4368  0.2353
  570MOL0     C78575   5.530   7.807   2.254  0.1273  0.1506  0.7012
  570MOL0     C78576   5.411   7.830   2.313 -0.5611  0.1585  0.0823
  570MOL0     C78577   5.086   7.824   2.600 -0.1874 -0.0490  0.1801
  570MOL0     C78578   4.997   7.908   2.536 -0.2551  0.0293  0.7725
  570MOL0     C78579   4.884   7.967   2.591  0.3259  0.1339 -0.3180
  570MOL0     C78580   4.839   7.924   2.721  0.1225  0.4280 -0.2120
  570MOL0     O78581   4.729   7.985   2.777 -0.2594  0.1784 -0.1936
  570MOL0     C78582   4.630   7.904   2.835 -0.5225  0.8361  0.2643
  570MOL0     C78583   4.626   7.911   2.989 -1.0078 -0.6244 -0.0089
  570MOL0     C78584   4.534   7.810   3.046  0.2030 -0.9566  0.4625
  570MOL0     C78585   4.596   7.766   3.181  0.2466 -0.6722 -0.5407
  570MOL0     C78586   4.715   7.683   3.161 -0.3040  0.1147 -0.9004
  570MOL0     C78587   4.815   7.617   3.140 -0.8632  0.4997 -0.4309
  570MOL0     C78588   4.920   7.836   2.791 -0.3878  0.4950  0.1882
  570MOL0     C78589   5.038   7.784   2.729 -0.0691 -1.0478  0.3669
  570MOL0     C78590   5.126   7.707   2.825 -0.0177 -0.1627  0.0530
  570MOL0     H78591   5.309   7.513   2.344 -2.2324  0.6637 -1.2034
  570MOL0     H78592   5.513   7.480   2.181 -0.5238  0.4235 -0.8461
  570MOL0     H78593   5.562   7.679   1.946  1.7670  1.2085 -3.8456
  570MOL0     H78594   5.626   7.518   1.979 -0.5556  0.4521 -2.2713
  570MOL0     H78595   5.798   7.773   1.927  2.1478 -0.7982  1.2320
  570MOL0     H78596   5.857   7.611   1.924 -0.5188  1.3939  3.6984
  570MOL0     H78597   5.690   7.565   1.730  0.9626 -1.0765  1.8980
  570MOL0     H78598   5.658   7.745   1.742 -1.0832 -1.1020  1.1699
  570MOL0     H78599   5.877   7.787   1.686 -4.7299  2.0113  0.3924
  570MOL0     H78600   5.924   7.613   1.696 -0.0640 -0.7884 -2.7110
  570MOL0     H78601   5.715   7.698   1.495  1.2068  2.0624 -0.9430
  570MOL0     H78602   5.819   7.556   1.502  2.5019  0.4118 -1.2808
  570MOL0     H78603   5.851   7.770   1.332  0.0518  2.5559  0.5470
  570MOL0     H78604   5.930   7.849   1.464 -1.0747  0.3811 -1.4585
  570MOL0     H78605   6.111   7.700   1.483 -0.8820  0.1489 -0.4216
  570MOL0     H78606   6.102   7.769   1.333  0.5624 -1.7232 -2.1880
  570MOL0     H78607   6.062   7.483   1.407 -1.5454 -1.0980 -0.7406
  570MOL0     H78608   5.951   7.532   1.284  0.1463  0.6908 -0.0630
  570MOL0     H78609   6.322   7.630   1.281  0.7759  0.6764 -0.0490
  570MOL0     H78610   6.435   7.503   0.919  1.0976  2.5553 -1.0007
  570MOL0     H78611   6.511   7.457   1.073  0.0499  0.4200  1.1085
  570MOL0     H78612   6.556   7.684   1.125  2.0258  2.7652 -1.0929
  570MOL0     H78613   6.613   7.637   0.957 -3.0798 -0.8243 -2.3773
  570MOL0     H78614   6.531   7.860   0.945 -0.2588 -0.0602  0.0955
  570MOL0     H78615   6.411   7.759   0.865 -0.2366  2.8222 -0.9815
  570MOL0     H78616   6.265   7.785   1.039  0.6601 -0.5154  1.4486
  570MOL0     H78617   6.378   7.818   1.159  2.0203  0.2211 -1.0716
  570MOL0     H78618   6.410   8.175   1.199  0.1661 -0.0881 -0.7409
  570MOL0     H78619   6.190   8.415   1.367  0.7979  1.6296 -1.6291
  570MOL0     H78620   6.360   8.374   1.309  0.2215 -1.3541 -2.2349
  570MOL0     H78621   6.286   8.312   1.463 -1.4196  1.9383  0.0031
  570MOL0     H78622   6.010   8.539   1.566 -0.1126  1.3226  2.4861
  570MOL0     H78623   5.861   8.651   1.731 -2.9950  0.2470  0.8581
  570MOL0     H78624   5.688   8.686   1.887 -1.2455 -0.7171  0.2873
  570MOL0     H78625   5.717   8.795   1.745 -0.7148 -0.8461 -1.7676
  570MOL0     H78626   5.449   8.777   1.928  0.4548  0.0768  1.6846
  570MOL0     H78627   5.570   8.900   1.951 -0.2821 -0.9403  0.8799
  570MOL0     H78628   5.357   8.962   1.809 -0.6419  0.6869 -3.1155
  570MOL0     H78629   5.438   8.875   1.674 -3.5816 -0.9561  1.1454
  570MOL0     H78630   5.634   9.028   1.716 -0.4088 -0.3246 -0.3877
  570MOL0     H78631   5.534   9.114   1.835  1.1438 -0.3062  0.3740
  570MOL0     H78632   5.474   9.082   1.529 -0.2626 -2.1247  0.9580
  570MOL0     H78633   5.356   9.128   1.649  0.1396  0.1479 -0.5519
  570MOL0     H78634   5.471   9.325   1.738 -2.0919  1.9717 -1.4969
  570MOL0     H78635   5.429   9.330   1.572  1.6551  0.6449 -1.5190
  570MOL0     H78636   5.633   9.324   1.484 -1.6679 -2.6766 -1.0563
  570MOL0     H78637   5.701   9.239   1.622 -1.0409  0.5117 -0.4919
  570MOL0     H78638   5.705   9.440   1.751  0.7587 -1.5555 -0.0646
  570MOL0     H78639   5.603   9.518   1.643  0.2983  0.8806  0.8074
  570MOL0     H78640   5.548   8.426   1.551 -0.3215  2.1227 -0.3113
  570MOL0     H78641   5.670   8.316   1.416 -2.0223  0.3111  2.1186
  570MOL0     H78642   5.932   8.047   1.216 -1.2872  3.0708  1.3599
  570MOL0     H78643   6.081   7.932   1.046  0.1249 -0.3739  0.5202
  570MOL0     H78644   5.601   7.888   2.245 -1.1723  1.5827  2.5069
  570MOL0     H78645   5.374   7.928   2.342 -1.1362  0.0842 -0.3787
  570MOL0     H78646   5.025   7.936   2.435 -2.2005 -2.3051 -0.4995
  570MOL0     H78647   4.824   8.041   2.540  3.4260  1.3564 -2.5376
  570MOL0     H78648   4.533   7.922   2.787 -1.1554 -2.7147 -0.0652
  570MOL0     H78649   4.648   7.801   2.804 -0.8567  0.5709  0.9618
  570MOL0     H78650   4.590   8.010   3.018 -2.3143 -0.7019 -1.2684
  570MOL0     H78651   4.729   7.903   3.026 -0.8500  0.1928 -0.2459
  570MOL0     H78652   4.440   7.865   3.045  0.1461 -1.0634 -0.0597
  570MOL0     H78653   4.529   7.723   2.981 -0.0342  0.4077 -1.4429
  570MOL0     H78654   4.517   7.700   3.219  0.0555 -0.8220 -1.1868
  570MOL0     H78655   4.612   7.846   3.253 -4.9293 -0.7214  1.0817
  570MOL0     H78656   4.902   7.558   3.119  0.0197  2.4999 -3.0276
  570MOL0     H78657   4.905   7.808   2.894  1.9631 -1.6754  0.0343
  570MOL0     H78658   5.155   7.775   2.905  0.1679 -0.0016 -0.1483
  570MOL0     H78659   5.071   7.627   2.873 -0.8971  0.4963  0.1715
  570MOL0     H78660   5.209   7.659   2.771  2.2076  2.3421  0.9942
  571MOL0     O78661  11.055   7.359   4.367  0.0674 -0.2677 -0.1121
  571MOL0     C78662  11.097   7.333   4.253  1.2526 -0.5633  0.0213
  571MOL0     O78663  11.040   7.373   4.140 -0.0462  0.4732 -0.1730
  571MOL0     C78664  10.914   7.420   4.147  0.3443  0.4544 -0.3755
  571MOL0     C78665  10.803   7.337   4.111  0.1493  0.0489  0.4554
  571MOL0     C78666  10.672   7.385   4.119  0.0038  0.6776  0.6203
  571MOL0     C78667  10.644   7.518   4.161 -0.9117 -0.2359 -0.2440
  571MOL0     O78668  10.506   7.551   4.151 -0.3867  0.0100 -0.7488
  571MOL0     C78669  10.471   7.679   4.204 -0.7008  0.0871 -0.0081
  571MOL0     C78670  10.320   7.709   4.191  0.3828  0.4349 -0.1893
  571MOL0     C78671  10.293   7.844   4.141 -0.3546 -0.7282 -0.1645
  571MOL0     C78672  10.146   7.875   4.143 -0.9473  0.0449  0.2353
  571MOL0     C78673  10.040   7.771   4.108 -1.2275 -0.3521  0.4598
  571MOL0     C78674   9.908   7.846   4.134 -0.3719  0.0838 -0.2617
  571MOL0     C78675   9.792   7.760   4.095 -0.5029 -0.6020 -0.1157
  571MOL0     C78676   9.760   7.660   4.211  0.0486  0.5582 -0.0607
  571MOL0     N78677   9.633   7.586   4.191 -0.2328  0.1599 -0.7920
  571MOL0     C78678   9.601   7.517   4.074 -0.5471 -0.5484  0.3537
  571MOL0     C78679   9.470   7.487   4.095 -0.2730  0.1821 -0.7937
  571MOL0     C78680   9.381   7.420   4.004  0.5683  0.7841  0.0544
  571MOL0     C78681   9.290   7.534   3.955  1.0348  0.2683  0.4829
  571MOL0     C78682   9.182   7.513   3.839 -0.7966  0.1926  0.4184
  571MOL0     C78683   9.061   7.426   3.885  0.3752 -0.9128 -0.6228
  571MOL0     O78684   8.942   7.476   3.815  0.1564 -0.3317 -0.5625
  571MOL0     C78685   8.819   7.436   3.859  0.8787 -0.0868  0.0291
  571MOL0     C78686   8.799   7.321   3.932  0.0829  0.1075  0.1524
  571MOL0     C78687   8.673   7.279   3.980  0.2305  0.1730 -0.0741
  571MOL0     C78688   8.673   7.145   4.052 -0.0123 -0.1507 -0.4291
  571MOL0     C78689   8.554   7.351   3.938 -0.7554  0.0660  0.2172
  571MOL0     C78690   8.418   7.307   3.970  0.2083  0.1301  0.0219
  571MOL0     O78691   8.334   7.406   4.025  0.2197 -0.0164 -0.7304
  571MOL0     C78692   8.205   7.392   4.077 -0.3416  0.8986 -0.3724
  571MOL0     C78693   8.116   7.494   4.049 -0.2288 -0.0899 -0.4007
  571MOL0     C78694   7.984   7.489   4.095 -1.1091  0.2598  0.8127
  571MOL0     C78695   7.932   7.376   4.165  0.3815  0.2220 -0.1254
  571MOL0     O78696   7.797   7.364   4.180 -0.3048  0.5151 -0.5604
  571MOL0     C78697   7.769   7.353   4.325  0.1784  0.4982 -0.0121
  571MOL0     C78698   7.719   7.209   4.371 -0.2146  0.4218  0.1160
  571MOL0     C78699   7.573   7.171   4.357  0.0051  0.3259  0.6068
  571MOL0     C78700   7.552   7.109   4.226 -0.2843  0.3379  1.0065
  571MOL0     C78701   7.420   7.023   4.230  0.6094 -0.4326  0.4472
  571MOL0     C78702   7.439   6.878   4.264 -1.0092 -0.3600 -0.5722
  571MOL0     C78703   7.301   6.813   4.282 -0.2568 -0.9282 -0.5345
  571MOL0     C78704   7.311   6.660   4.298 -0.4109 -0.1540  0.2623
  571MOL0    Cl78705   7.421   6.622   4.443 -0.1897 -0.0472 -0.1311
  571MOL0     C78706   8.023   7.269   4.189  0.4415 -0.1154  0.1780
  571MOL0     C78707   8.157   7.283   4.155  0.1409  0.5083  0.4034
  571MOL0     O78708   8.384   7.187   3.949 -0.6974 -0.1623  0.0440
  571MOL0     C78709   8.580   7.464   3.854  0.4325  0.1229  0.0223
  571MOL0     C78710   8.706   7.501   3.809  0.9512 -0.1321  0.1103
  571MOL0     N78711   9.425   7.531   4.220 -0.7178 -0.3589 -0.5797
  571MOL0     N78712   9.526   7.584   4.277 -0.1239  0.3196  0.7436
  571MOL0     C78713  10.760   7.599   4.180  0.6410  0.3986 -0.3228
  571MOL0     C78714  10.888   7.549   4.186  0.3805  1.0291 -0.6264
  571MOL0     C78715  11.218   7.243   4.233  0.1872 -0.3139  0.1169
  571MOL0     C78716  11.286   7.257   4.112  0.6208 -0.6511 -0.2421
  571MOL0     C78717  11.403   7.179   4.084 -0.2343  0.7725 -0.8901
  571MOL0     C78718  11.445   7.087   4.182  0.3231  0.0376  0.0517
  571MOL0     O78719  11.549   7.004   4.177 -1.3012  0.3410 -0.0281
  571MOL0     C78720  11.667   7.044   4.104  0.3723  0.4991 -0.8707
  571MOL0     C78721  11.652   6.975   3.967  0.7373  1.1018  1.7900
  571MOL0     C78722  11.788   6.977   3.882 -0.6544  0.4990 -0.6605
  571MOL0     C78723  11.813   7.112   3.805 -0.3189 -0.2848 -0.4406
  571MOL0     C78724  11.909   7.074   3.698  0.1927  0.7212  0.9366
  571MOL0     C78725  11.995   7.035   3.624  0.7964  0.0133  0.7222
  571MOL0     C78726  11.380   7.080   4.306  0.6769  0.1290 -0.2558
  571MOL0     C78727  11.260   7.152   4.330 -1.0324  1.0609  1.4046
  571MOL0     C78728  11.218   7.160   4.475  0.7784 -0.2690 -0.0807
  571MOL0     H78729  10.822   7.243   4.060  1.6685  0.8424 -0.5249
  571MOL0     H78730  10.598   7.319   4.077  2.2832 -1.7349  0.1409
  571MOL0     H78731  10.524   7.754   4.145  1.0114 -0.3716  0.8915
  571MOL0     H78732  10.501   7.679   4.310 -0.2936 -1.8471 -0.0823
  571MOL0     H78733  10.287   7.633   4.119  0.3432 -0.8819  1.1824
  571MOL0     H78734  10.275   7.683   4.287 -0.3187 -0.5866 -0.7776
  571MOL0     H78735  10.343   7.930   4.188 -0.9940  0.9378 -2.3396
  571MOL0     H78736  10.333   7.847   4.040  0.3050 -0.2348  0.1002
  571MOL0     H78737  10.131   7.903   4.248 -1.8391 -0.2531  0.1958
  571MOL0     H78738  10.137   7.960   4.075  1.2841 -1.0107 -1.4997
  571MOL0     H78739  10.042   7.692   4.184 -1.6169  0.7340  1.6303
  571MOL0     H78740  10.060   7.735   4.007 -0.5474  0.3596  0.3322
  571MOL0     H78741   9.902   7.863   4.242  0.1951  0.3611 -0.2738
  571MOL0     H78742   9.893   7.938   4.079 -3.5867 -0.4746 -0.5272
  571MOL0     H78743   9.811   7.702   4.004  1.9718 -0.7370  0.4184
  571MOL0     H78744   9.716   7.836   4.072  1.1567  0.4671 -2.4413
  571MOL0     H78745   9.838   7.584   4.219 -0.4137  0.2392  1.8871
  571MOL0     H78746   9.758   7.711   4.307 -0.2244  0.4849 -0.0275
  571MOL0     H78747   9.658   7.494   3.984 -1.2686  0.3684 -0.3533
  571MOL0     H78748   9.318   7.350   4.060  0.1465  0.6749 -0.5435
  571MOL0     H78749   9.436   7.378   3.919 -2.0549 -0.4702 -1.1491
  571MOL0     H78750   9.238   7.571   4.044 -0.2767 -1.9622  0.7496
  571MOL0     H78751   9.353   7.609   3.907  3.0858 -3.0171 -2.4392
  571MOL0     H78752   9.146   7.613   3.813  0.5237  1.2769  2.4613
  571MOL0     H78753   9.234   7.462   3.758 -1.3395 -2.6359  1.7314
  571MOL0     H78754   9.086   7.320   3.883  0.2520 -0.9373 -1.9182
  571MOL0     H78755   9.048   7.457   3.989 -1.8615 -1.2940 -0.7439
  571MOL0     H78756   8.889   7.264   3.951  0.1890  0.4733  0.8113
  571MOL0     H78757   8.765   7.117   4.104  0.6907  2.3850 -0.1426
  571MOL0     H78758   8.664   7.063   3.980 -0.3812 -0.8024  0.3489
  571MOL0     H78759   8.587   7.137   4.119  0.0607 -4.1051 -0.5781
  571MOL0     H78760   8.163   7.572   3.990  1.7847  0.5054  1.8171
  571MOL0     H78761   7.910   7.565   4.069 -0.5793  0.6014  0.2881
  571MOL0     H78762   7.843   7.403   4.389 -0.0563  1.4670 -0.4827
  571MOL0     H78763   7.686   7.420   4.348 -0.0203 -0.0500  0.9159
  571MOL0     H78764   7.782   7.140   4.313  0.7619 -1.3497  3.0475
  571MOL0     H78765   7.739   7.190   4.477  0.4016 -0.1920 -0.0988
  571MOL0     H78766   7.508   7.257   4.378 -1.1562 -0.5723  0.8216
  571MOL0     H78767   7.561   7.092   4.432 -0.5822 -0.7930 -0.6354
  571MOL0     H78768   7.639   7.046   4.206  0.4204  1.0910  1.6467
  571MOL0     H78769   7.537   7.191   4.156 -4.0167  0.6346  1.9492
  571MOL0     H78770   7.344   7.066   4.296  0.8280  1.7142 -0.6107
  571MOL0     H78771   7.373   7.039   4.132 -3.0129 -1.9004  1.7859
  571MOL0     H78772   7.493   6.880   4.360 -2.0703  0.1964  0.0350
  571MOL0     H78773   7.498   6.831   4.185  0.0099 -1.6606  0.9097
  571MOL0     H78774   7.235   6.832   4.197 -0.0812  0.8926 -0.3041
  571MOL0     H78775   7.256   6.863   4.369  2.6315  3.2458 -1.1219
  571MOL0     H78776   7.341   6.595   4.216 -0.3898 -1.3472  1.1937
  571MOL0     H78777   7.209   6.625   4.320  1.3493 -3.6693  4.2856
  571MOL0     H78778   7.989   7.170   4.217 -0.8674 -0.2588 -1.6689
  571MOL0     H78779   8.227   7.204   4.178 -1.2322 -1.2212 -1.0585
  571MOL0     H78780   8.493   7.511   3.810  1.2482  0.5298 -1.2436
  571MOL0     H78781   8.725   7.581   3.738  2.2628 -0.8450 -0.3676
  571MOL0     H78782  10.746   7.703   4.207  0.5773 -0.3447  2.8972
  571MOL0     H78783  10.956   7.625   4.223 -0.1423  0.1239  2.4546
  571MOL0     H78784  11.270   7.333   4.036  0.6595 -1.0090 -0.6077
  571MOL0     H78785  11.461   7.192   3.993  3.4383 -1.7575  0.8369
  571MOL0     H78786  11.685   7.152   4.098 -0.1736  0.5480 -1.8806
  571MOL0     H78787  11.755   7.009   4.158  0.5854  0.5583 -1.1755
  571MOL0     H78788  11.578   7.021   3.902 -0.3024 -3.8999 -1.0708
  571MOL0     H78789  11.618   6.872   3.984 -2.5131  1.7859  0.2191
  571MOL0     H78790  11.864   6.951   3.956 -1.0322  1.8242  0.2236
  571MOL0     H78791  11.780   6.893   3.813 -1.1808 -0.3078  0.3627
  571MOL0     H78792  11.855   7.189   3.869 -3.5410 -0.2599  1.8938
  571MOL0     H78793  11.725   7.157   3.758  0.4817  1.0814 -0.6773
  571MOL0     H78794  12.064   7.013   3.545  3.6250  2.9695  2.1258
  571MOL0     H78795  11.427   7.018   4.382  1.2349  1.0405  0.1733
  571MOL0     H78796  11.235   7.260   4.515 -0.0727  0.1071 -0.6325
  571MOL0     H78797  11.111   7.136   4.480  1.0982 -2.2132 -1.3588
  571MOL0     H78798  11.273   7.105   4.552  0.7419  1.4352  1.2377
  572MOL0     O78799   1.736   4.294   4.309  0.3604  0.1422 -0.6943
  572MOL0     C78800   1.618   4.270   4.318 -1.0839  0.0129  0.1992
  572MOL0     O78801   1.564   4.143   4.300  0.2260 -0.4712 -0.5065
  572MOL0     C78802   1.641   4.037   4.271  0.7019 -0.4061  0.4161
  572MOL0     C78803   1.717   4.026   4.157  1.2513  0.4311 -0.4716
  572MOL0     C78804   1.789   3.909   4.130 -0.8946  0.6613  0.4572
  572MOL0     C78805   1.778   3.798   4.214 -0.6543  0.6409  0.2756
  572MOL0     O78806   1.860   3.689   4.178  0.1968  0.5047 -0.6928
  572MOL0     C78807   1.920   3.621   4.297  0.4468 -0.2515 -0.0790
  572MOL0     C78808   1.996   3.499   4.247 -0.0500 -0.3469  0.1699
  572MOL0     C78809   2.129   3.537   4.177  0.6210  0.5258 -0.4769
  572MOL0     C78810   2.202   3.406   4.134  0.2276 -0.4903  0.1869
  572MOL0     C78811   2.316   3.428   4.028  0.6054  0.9923  0.2709
  572MOL0     C78812   2.436   3.498   4.092  0.5780 -0.0650 -0.8059
  572MOL0     C78813   2.540   3.551   3.996 -0.8404  0.5114 -0.1778
  572MOL0     C78814   2.484   3.676   3.923 -0.2130  0.4467  0.7011
  572MOL0     N78815   2.602   3.753   3.864  0.1729  0.1239  0.1861
  572MOL0     C78816   2.676   3.838   3.933 -0.8251 -0.4222  0.9926
  572MOL0     C78817   2.767   3.897   3.846 -0.6252 -0.3951  0.6261
  572MOL0     C78818   2.862   4.009   3.867 -0.2353  0.0575 -0.2068
  572MOL0     C78819   3.008   3.972   3.822  0.1320 -0.3156  0.0823
  572MOL0     C78820   3.087   4.105   3.800  0.2804 -0.3544  0.0388
  572MOL0     C78821   3.021   4.210   3.707 -0.2833 -0.0424  0.2304
  572MOL0     O78822   3.004   4.139   3.582 -0.2043  0.5824  0.0874
  572MOL0     C78823   2.975   4.216   3.471 -0.0418 -0.1988  0.0991
  572MOL0     C78824   2.898   4.158   3.372  0.5437  0.3123  0.6744
  572MOL0     C78825   2.859   4.220   3.249 -0.3928 -0.2430  0.0353
  572MOL0     C78826   2.768   4.138   3.167  0.2464 -0.3025  0.0151
  572MOL0     C78827   2.904   4.350   3.233 -0.4337 -0.8005  0.1403
  572MOL0     C78828   2.861   4.443   3.129  0.7321 -0.2810 -0.5808
  572MOL0     O78829   2.869   4.576   3.138 -0.5298  0.1052 -0.7604
  572MOL0     C78830   2.838   4.643   3.024 -0.7230 -0.6289 -0.0912
  572MOL0     C78831   2.715   4.683   2.985  0.5646  0.1167  0.4084
  572MOL0     C78832   2.689   4.759   2.870  0.2054  0.3961 -0.8879
  572MOL0     C78833   2.795   4.771   2.780 -0.1652  0.4097 -0.9949
  572MOL0     O78834   2.770   4.849   2.674 -0.1194  0.4711  0.0390
  572MOL0     C78835   2.867   4.875   2.574  0.1127 -0.7242  0.3990
  572MOL0     C78836   2.937   5.011   2.601 -0.6961 -1.0050 -0.3552
  572MOL0     C78837   2.854   5.146   2.606 -0.4058 -0.6697 -0.3212
  572MOL0     C78838   2.866   5.222   2.745 -0.2327  0.7876 -0.1659
  572MOL0     C78839   2.810   5.140   2.862  0.4855  0.1545  0.1295
  572MOL0     C78840   2.655   5.110   2.855 -0.3462  0.0323 -0.6434
  572MOL0     C78841   2.573   5.231   2.871 -0.0612  0.6071 -0.4254
  572MOL0     C78842   2.420   5.206   2.864  1.0123  0.2504 -0.9704
  572MOL0    Cl78843   2.366   5.151   3.025 -0.0026 -0.2424 -0.3802
  572MOL0     C78844   2.915   4.714   2.810 -0.7508 -0.5302  0.4064
  572MOL0     C78845   2.937   4.645   2.928 -0.3172 -0.1853  0.3621
  572MOL0     O78846   2.831   4.384   3.025 -0.7221 -0.2579 -0.3773
  572MOL0     C78847   2.985   4.413   3.329 -0.0150 -0.1847  0.4090
  572MOL0     C78848   3.016   4.346   3.444  0.3521  0.1050 -0.8429
  572MOL0     N78849   2.737   3.852   3.720 -0.0325 -0.4414  1.0775
  572MOL0     N78850   2.648   3.756   3.735 -0.2402  0.6665 -0.5763
  572MOL0     C78851   1.700   3.813   4.334 -0.3801  0.3559  0.2811
  572MOL0     C78852   1.623   3.923   4.351  0.6389  0.1772 -0.0961
  572MOL0     C78853   1.518   4.379   4.347  0.4747  0.5842 -0.3056
  572MOL0     C78854   1.377   4.353   4.329  0.4237  0.7665  0.7737
  572MOL0     C78855   1.278   4.448   4.355  0.2700  0.3741  0.1725
  572MOL0     C78856   1.313   4.581   4.376 -1.1311 -0.4184 -0.8304
  572MOL0     O78857   1.224   4.687   4.375 -0.1890  0.0220 -0.3177
  572MOL0     C78858   1.105   4.676   4.294  0.4453  0.6798  0.1475
  572MOL0     C78859   1.035   4.812   4.274  0.0418  0.2387 -0.0941
  572MOL0     C78860   1.120   4.939   4.265  0.3581  0.7304  1.2647
  572MOL0     C78861   1.242   4.929   4.171 -0.7249  0.7151  0.2237
  572MOL0     C78862   1.203   4.864   4.043 -0.6291 -1.0056  0.0407
  572MOL0     C78863   1.164   4.815   3.947  0.0445  1.5838  0.7597
  572MOL0     C78864   1.445   4.604   4.416 -1.0535  0.3128  0.4345
  572MOL0     C78865   1.542   4.510   4.401  0.4660  0.5390 -0.3934
  572MOL0     C78866   1.692   4.553   4.418 -0.3748 -0.3221 -0.7074
  572MOL0     H78867   1.727   4.113   4.092  1.6900 -0.9736 -2.3652
  572MOL0     H78868   1.849   3.898   4.040 -1.5185 -1.2253  0.2151
  572MOL0     H78869   1.842   3.586   4.365  0.1676  0.8976  0.2039
  572MOL0     H78870   1.975   3.685   4.367  0.9765 -0.4589 -0.2995
  572MOL0     H78871   2.014   3.430   4.330 -1.8420 -1.9529 -0.7103
  572MOL0     H78872   1.930   3.446   4.179 -1.1088 -2.0199  2.3955
  572MOL0     H78873   2.098   3.592   4.087  0.2046  4.2531  1.7528
  572MOL0     H78874   2.191   3.591   4.249 -0.3193 -3.4412  3.7661
  572MOL0     H78875   2.246   3.368   4.226  0.9096  0.2676  0.1809
  572MOL0     H78876   2.131   3.339   4.084  1.7517 -1.3998 -0.8465
  572MOL0     H78877   2.272   3.493   3.952 -0.6107 -1.2958 -1.1192
  572MOL0     H78878   2.355   3.343   3.971 -1.7830 -0.4972  0.6974
  572MOL0     H78879   2.396   3.579   4.152  2.4333  2.0401 -2.2583
  572MOL0     H78880   2.484   3.433   4.165  1.7131  0.7968 -0.7659
  572MOL0     H78881   2.575   3.480   3.921 -1.3886 -0.3978  0.4116
  572MOL0     H78882   2.630   3.565   4.057  1.1657  0.5891 -2.9497
  572MOL0     H78883   2.420   3.655   3.837  0.9306 -0.0028 -0.0509
  572MOL0     H78884   2.437   3.742   3.997 -1.7591 -0.5314  0.6333
  572MOL0     H78885   2.676   3.857   4.040  1.2349 -0.0888  0.9777
  572MOL0     H78886   2.874   4.026   3.974 -1.6878  3.5542 -0.4600
  572MOL0     H78887   2.824   4.101   3.822  0.8015 -0.2035 -1.6832
  572MOL0     H78888   3.052   3.914   3.905  2.7193  1.2748 -0.0465
  572MOL0     H78889   2.997   3.915   3.730  1.5706 -0.1175 -0.2389
  572MOL0     H78890   3.094   4.150   3.899 -1.3535  0.6822 -0.2729
  572MOL0     H78891   3.181   4.070   3.757 -0.3388 -3.4557  0.9992
  572MOL0     H78892   2.929   4.257   3.744  1.5756  1.4899  3.3364
  572MOL0     H78893   3.087   4.296   3.689  0.3459 -0.5902 -0.1146
  572MOL0     H78894   2.863   4.057   3.393  0.2827  0.7099  2.3042
  572MOL0     H78895   2.807   4.118   3.066 -2.5536 -1.6643 -0.9069
  572MOL0     H78896   2.667   4.176   3.153 -0.6606 -3.4856 -4.2765
  572MOL0     H78897   2.743   4.042   3.212  2.4605 -2.0467 -2.1825
  572MOL0     H78898   2.649   4.649   3.064 -1.1261 -1.1612 -1.4494
  572MOL0     H78899   2.601   4.809   2.830 -0.4758 -1.5832 -2.0147
  572MOL0     H78900   2.935   4.794   2.545  0.4265 -0.2968 -0.0892
  572MOL0     H78901   2.818   4.891   2.477  3.8357  3.1822 -1.1826
  572MOL0     H78902   2.992   5.000   2.695  1.4253 -1.1804 -1.5561
  572MOL0     H78903   3.018   5.027   2.530  0.2441 -2.7368  0.2989
  572MOL0     H78904   2.751   5.116   2.584  0.3491 -3.1361 -0.7604
  572MOL0     H78905   2.885   5.217   2.529  1.1753 -2.2721 -1.2378
  572MOL0     H78906   2.816   5.317   2.729 -3.0310 -1.0254 -3.3779
  572MOL0     H78907   2.970   5.228   2.778  0.1020  1.8358 -1.3505
  572MOL0     H78908   2.872   5.050   2.868  1.9311  0.9755 -1.7486
  572MOL0     H78909   2.829   5.196   2.954  0.2720 -0.1983  0.3962
  572MOL0     H78910   2.618   5.045   2.935  0.1005 -0.9466 -1.2069
  572MOL0     H78911   2.629   5.046   2.770 -2.5257 -0.0589  0.0362
  572MOL0     H78912   2.596   5.305   2.794  0.4257  2.9675  1.8502
  572MOL0     H78913   2.599   5.268   2.970  0.4167 -0.2882 -0.2088
  572MOL0     H78914   2.390   5.132   2.789  0.5422  0.6533 -1.1923
  572MOL0     H78915   2.368   5.301   2.843  0.0846 -0.4488 -1.9375
  572MOL0     H78916   3.001   4.706   2.744 -1.5035 -2.5129 -0.4071
  572MOL0     H78917   3.038   4.606   2.943  0.5760  1.4871 -0.9216
  572MOL0     H78918   3.024   4.513   3.318 -0.5449 -0.1265 -1.3423
  572MOL0     H78919   3.093   4.397   3.502  1.4272 -4.1075  1.8338
  572MOL0     H78920   1.704   3.721   4.392  0.6881  2.1906  3.3473
  572MOL0     H78921   1.556   3.939   4.435 -1.7685 -0.7923 -1.6987
  572MOL0     H78922   1.347   4.253   4.302  1.1325  0.3455  1.5054
  572MOL0     H78923   1.174   4.417   4.360  0.3262  0.3848  1.9118
  572MOL0     H78924   1.122   4.640   4.192  1.1843  0.8188  0.2179
  572MOL0     H78925   1.033   4.610   4.342  0.6961 -0.9492 -1.6466
  572MOL0     H78926   0.961   4.822   4.354 -2.0255  0.7550 -1.9615
  572MOL0     H78927   0.975   4.805   4.183 -0.9364 -3.2130  0.6511
  572MOL0     H78928   1.056   5.023   4.234  2.6455  3.0239  2.3311
  572MOL0     H78929   1.153   4.972   4.364  3.4554  0.2853  0.4775
  572MOL0     H78930   1.319   4.870   4.221 -2.3563 -0.6263  1.2587
  572MOL0     H78931   1.291   5.021   4.140  0.6036  0.7114  2.1419
  572MOL0     H78932   1.119   4.766   3.863  2.4086 -0.0481  0.3440
  572MOL0     H78933   1.469   4.709   4.433  0.1274  0.2223 -0.5902
  572MOL0     H78934   1.741   4.474   4.475  0.8957 -0.3514 -1.7647
  572MOL0     H78935   1.746   4.558   4.322  0.3598  2.9118 -0.2634
  572MOL0     H78936   1.716   4.645   4.472 -1.2067 -0.1544 -0.6194
  573MOL0     O78937   3.061   4.174   8.645 -0.5237 -0.0797  0.3714
  573MOL0     C78938   2.967   4.103   8.612 -0.1816 -0.3254  0.2582
  573MOL0     O78939   2.960   4.030   8.497 -0.6317 -0.3003 -0.2632
  573MOL0     C78940   3.073   3.950   8.480  0.4451 -0.0917  0.7964
  573MOL0     C78941   3.065   3.825   8.541  0.3709  1.1037  0.3489
  573MOL0     C78942   3.180   3.742   8.536  0.4156 -0.8689  0.2781
  573MOL0     C78943   3.301   3.793   8.487  0.0996  0.2424 -0.8219
  573MOL0     O78944   3.415   3.723   8.475 -0.2921  0.8451 -0.4057
  573MOL0     C78945   3.423   3.595   8.553 -1.3008 -0.1432 -0.3603
  573MOL0     C78946   3.562   3.540   8.525  0.2507 -0.0074 -1.1845
  573MOL0     C78947   3.566   3.507   8.377  0.1485 -0.0728 -0.8166
  573MOL0     C78948   3.701   3.430   8.363  0.7414 -0.0159  0.3444
  573MOL0     C78949   3.746   3.421   8.214  0.4257 -0.3847 -0.2891
  573MOL0     C78950   3.716   3.278   8.142 -0.5110  0.2380 -0.5573
  573MOL0     C78951   3.752   3.274   7.988  0.9796  0.7865 -0.3107
  573MOL0     C78952   3.706   3.145   7.920  0.1790  0.6003 -0.3695
  573MOL0     N78953   3.784   3.131   7.792 -0.4504  1.0110 -0.6883
  573MOL0     C78954   3.815   3.002   7.748 -0.5223 -0.2950  0.5426
  573MOL0     C78955   3.864   3.027   7.626  0.3845 -0.5358  1.0491
  573MOL0     C78956   3.914   2.923   7.532  0.5220  0.3841 -0.4587
  573MOL0     C78957   4.057   2.894   7.584 -0.5679  0.6694 -0.1963
  573MOL0     C78958   4.134   2.807   7.478  0.8465  0.2419  0.6729
  573MOL0     C78959   4.286   2.804   7.505  0.0716  0.2679  0.2317
  573MOL0     O78960   4.293   2.743   7.631 -0.6546 -0.1984  0.5992
  573MOL0     C78961   4.427   2.748   7.674 -0.2357  0.4677 -0.6991
  573MOL0     C78962   4.450   2.815   7.798  0.9260 -0.0776  0.1076
  573MOL0     C78963   4.570   2.822   7.856  0.1781 -1.4121 -0.0392
  573MOL0     C78964   4.578   2.895   7.997 -0.6251  0.5035 -0.1595
  573MOL0     C78965   4.679   2.766   7.787 -0.8121  0.4249 -0.2323
  573MOL0     C78966   4.817   2.764   7.850  0.5339  0.1171  0.2477
  573MOL0     O78967   4.919   2.812   7.769 -0.0046  0.1390  0.1709
  573MOL0     C78968   5.040   2.848   7.830  0.7555 -0.2948 -0.2581
  573MOL0     C78969   5.154   2.761   7.827 -0.0379  0.5729 -0.7119
  573MOL0     C78970   5.264   2.799   7.904 -0.5559  0.6139  0.3880
  573MOL0     C78971   5.272   2.917   7.975 -0.3468 -0.5580  0.0160
  573MOL0     O78972   5.388   2.932   8.040 -1.0124 -1.1910  0.7365
  573MOL0     C78973   5.435   3.062   8.098  0.6714 -1.0347  0.8243
  573MOL0     C78974   5.565   3.045   8.161  0.2182  0.2494 -0.8433
  573MOL0     C78975   5.679   3.028   8.061  0.3434  0.1635  0.3897
  573MOL0     C78976   5.816   3.009   8.130  0.7174 -0.1696  0.4239
  573MOL0     C78977   5.912   2.949   8.032 -0.6400 -0.4894 -0.0338
  573MOL0     C78978   6.046   2.937   8.116 -0.2715 -0.9592  0.0548
  573MOL0     C78979   6.157   2.883   8.027  0.2970  0.3397  0.4745
  573MOL0     C78980   6.140   2.728   7.989  0.8011  0.2266  0.0989
  573MOL0    Cl78981   6.273   2.713   7.884 -0.0621 -0.0129  0.7222
  573MOL0     C78982   5.165   3.000   7.977  0.5028  0.0919  0.1742
  573MOL0     C78983   5.051   2.961   7.910  0.3097  0.3979  0.3610
  573MOL0     O78984   4.834   2.712   7.956  0.7091 -0.4191  0.2380
  573MOL0     C78985   4.668   2.707   7.666 -0.5308 -0.2158  0.9609
  573MOL0     C78986   4.543   2.702   7.604 -0.9865 -0.5846 -0.1022
  573MOL0     N78987   3.865   3.166   7.606 -1.2170 -1.3282 -0.2244
  573MOL0     N78988   3.804   3.224   7.703  0.0759  0.4663  0.5788
  573MOL0     C78989   3.307   3.916   8.434  0.4123  0.5686 -0.0337
  573MOL0     C78990   3.191   4.001   8.431  0.1530 -0.7957 -0.1224
  573MOL0     C78991   2.839   4.099   8.689  0.2116  0.2801  0.3957
  573MOL0     C78992   2.723   4.083   8.616 -0.5542 -0.0865  0.1721
  573MOL0     C78993   2.596   4.082   8.678 -0.7912  0.7895  0.7038
  573MOL0     C78994   2.583   4.106   8.816  0.3592 -0.5023 -0.8185
  573MOL0     O78995   2.470   4.109   8.890  0.3855 -0.1324  0.0766
  573MOL0     C78996   2.345   4.066   8.832 -1.4530  1.0388  0.2502
  573MOL0     C78997   2.335   3.906   8.824  0.1211 -0.1054  0.9184
  573MOL0     C78998   2.375   3.835   8.949  0.1901 -0.0711  0.1134
  573MOL0     C78999   2.520   3.806   8.955  0.6194 -0.0125 -0.2573
  573MOL0     C79000   2.531   3.683   9.039 -0.4209  0.2948 -0.3759
  573MOL0     C79001   2.523   3.579   9.108 -0.1502 -0.1053 -0.2472
  573MOL0     C79002   2.699   4.128   8.889 -0.1844  1.4899  0.2066
  573MOL0     C79003   2.830   4.120   8.834 -0.9380  0.4097  0.0926
  573MOL0     C79004   2.951   4.136   8.923 -0.3371 -0.2050  0.7859
  573MOL0     H79005   2.984   3.786   8.601  1.3999 -0.1697  0.9762
  573MOL0     H79006   3.178   3.644   8.582 -1.6923  0.1454  2.5959
  573MOL0     H79007   3.352   3.521   8.518 -0.0581 -0.8290 -1.5331
  573MOL0     H79008   3.415   3.601   8.662 -0.2555 -2.7171 -0.0870
  573MOL0     H79009   3.636   3.613   8.558  0.2749 -0.7456  0.4317
  573MOL0     H79010   3.579   3.452   8.587 -1.0892  0.2592 -0.3876
  573MOL0     H79011   3.482   3.443   8.349  0.0760  0.3385 -1.5705
  573MOL0     H79012   3.563   3.597   8.315 -2.1441 -0.3561 -1.1976
  573MOL0     H79013   3.770   3.496   8.417  0.1370  1.2126 -0.3204
  573MOL0     H79014   3.702   3.334   8.415  0.0162 -1.6208 -2.3638
  573MOL0     H79015   3.854   3.442   8.215  0.2091  0.7975 -0.3011
  573MOL0     H79016   3.691   3.502   8.165 -0.7025  2.3589  4.8518
  573MOL0     H79017   3.768   3.198   8.195 -1.4592  0.3871  0.6469
  573MOL0     H79018   3.607   3.267   8.152 -0.4778  0.6698  0.4189
  573MOL0     H79019   3.860   3.277   7.974  1.2198 -1.1418  0.7621
  573MOL0     H79020   3.703   3.357   7.937  1.3326 -1.5333 -4.9757
  573MOL0     H79021   3.724   3.059   7.985 -1.1428 -0.0278 -0.8082
  573MOL0     H79022   3.599   3.163   7.907  0.6487  2.8977 -1.6082
  573MOL0     H79023   3.813   2.907   7.801  2.0576 -0.6851  0.0722
  573MOL0     H79024   3.892   2.961   7.432 -6.3248  1.1975  0.8800
  573MOL0     H79025   3.851   2.835   7.543  0.4624  0.6382  1.6080
  573MOL0     H79026   4.101   2.994   7.584 -2.7535  1.6979 -0.0789
  573MOL0     H79027   4.057   2.836   7.677 -2.9607 -0.2501 -0.6920
  573MOL0     H79028   4.100   2.704   7.467 -1.6236  0.9353  1.0724
  573MOL0     H79029   4.125   2.864   7.385  1.6085  1.0760  1.1040
  573MOL0     H79030   4.342   2.749   7.428  2.4149  1.7376  0.7967
  573MOL0     H79031   4.331   2.903   7.512  0.4124  0.4426 -2.8042
  573MOL0     H79032   4.366   2.854   7.854 -1.3466  0.9511 -3.6659
  573MOL0     H79033   4.488   2.888   8.058 -2.6063  0.2050 -2.8938
  573MOL0     H79034   4.594   3.000   7.970 -0.6300  0.7577  0.8156
  573MOL0     H79035   4.660   2.853   8.057 -1.0504 -1.0882 -0.6414
  573MOL0     H79036   5.144   2.663   7.782  0.9846  0.8542 -1.5946
  573MOL0     H79037   5.350   2.734   7.916  0.7622  1.8351 -1.8398
  573MOL0     H79038   5.440   3.146   8.027  0.7077 -0.1230  1.8803
  573MOL0     H79039   5.371   3.080   8.185  0.0819 -3.5613  0.9807
  573MOL0     H79040   5.587   3.123   8.235 -2.0069  2.9072 -2.7771
  573MOL0     H79041   5.561   2.949   8.215  3.6910  0.9697  0.9904
  573MOL0     H79042   5.691   3.114   7.995  0.4218 -0.0034  0.1836
  573MOL0     H79043   5.656   2.946   7.992 -0.0578  0.3386  0.3108
  573MOL0     H79044   5.803   2.952   8.222 -1.5338 -0.2339  0.1407
  573MOL0     H79045   5.848   3.108   8.164  0.6297 -0.9713  3.0408
  573MOL0     H79046   5.885   2.849   7.996 -0.3031 -0.6011  0.0191
  573MOL0     H79047   5.921   3.014   7.945  3.5337 -0.7721  0.0185
  573MOL0     H79048   6.029   2.858   8.190  1.6446  0.7641  2.5354
  573MOL0     H79049   6.070   3.028   8.172 -5.1286  0.0247  0.9775
  573MOL0     H79050   6.255   2.908   8.068  0.9843 -0.8365 -0.3747
  573MOL0     H79051   6.175   2.944   7.938 -2.1857 -1.2762 -1.2710
  573MOL0     H79052   6.041   2.717   7.942 -1.6280  4.3022  3.5549
  573MOL0     H79053   6.146   2.662   8.076  0.4757  0.5034  0.3364
  573MOL0     H79054   5.155   3.091   8.034  0.6680  0.2255 -0.0121
  573MOL0     H79055   4.968   3.025   7.936  0.7825  0.8445  0.8176
  573MOL0     H79056   4.757   2.675   7.614 -1.6602  0.5989 -1.6382
  573MOL0     H79057   4.534   2.668   7.502 -0.3968 -0.8460 -0.0725
  573MOL0     H79058   3.399   3.959   8.396  0.1853  1.8237  0.8015
  573MOL0     H79059   3.200   4.103   8.395 -1.7207 -1.0450 -1.4157
  573MOL0     H79060   2.724   4.076   8.508 -1.0128 -1.3625  0.2319
  573MOL0     H79061   2.511   4.074   8.611  0.4685 -2.5253 -0.7141
  573MOL0     H79062   2.257   4.100   8.887 -1.4196 -0.7795  1.5048
  573MOL0     H79063   2.335   4.123   8.739 -0.6675  0.4688 -0.2007
  573MOL0     H79064   2.407   3.876   8.748  0.9724  2.7670  0.4717
  573MOL0     H79065   2.236   3.878   8.787  0.2301 -0.6992  1.0731
  573MOL0     H79066   2.339   3.890   9.037 -1.5537 -1.2053  0.1572
  573MOL0     H79067   2.323   3.739   8.960  0.8773 -0.6104 -1.1670
  573MOL0     H79068   2.569   3.892   9.001 -3.3614  1.7484  1.1347
  573MOL0     H79069   2.562   3.777   8.858  0.1700 -1.9694  0.0735
  573MOL0     H79070   2.511   3.491   9.167  0.7214 -0.3877 -0.4648
  573MOL0     H79071   2.683   4.146   8.994 -2.8761 -4.8364  1.3639
  573MOL0     H79072   2.914   4.118   9.024 -0.6374  0.0457  0.7202
  573MOL0     H79073   3.030   4.064   8.899 -0.9913 -0.9918  0.9512
  573MOL0     H79074   2.998   4.235   8.920  1.7268 -1.1106  1.1484
  574MOL0     O79075   5.218  10.540   2.707  0.0016 -0.9287 -0.4377
  574MOL0     C79076   5.125  10.460   2.709 -0.0835 -0.7323 -0.5193
  574MOL0     O79077   5.155  10.330   2.750  0.7788 -0.0790 -0.6069
  574MOL0     C79078   5.280  10.299   2.781 -0.1589 -0.0509 -0.3473
  574MOL0     C79079   5.366  10.229   2.698 -0.1181 -0.2356 -0.0677
  574MOL0     C79080   5.492  10.176   2.731 -0.0312 -1.0971 -0.7771
  574MOL0     C79081   5.532  10.188   2.861 -0.3936  0.3627 -0.1784
  574MOL0     O79082   5.651  10.131   2.916  0.1450 -0.9466 -0.4883
  574MOL0     C79083   5.731  10.035   2.838 -0.0213  0.5268  0.9842
  574MOL0     C79084   5.678   9.888   2.864  0.6481 -0.0341 -0.4017
  574MOL0     C79085   5.663   9.830   3.003  0.1541  0.1596 -0.3617
  574MOL0     C79086   5.761   9.875   3.111  0.6833 -0.7943 -1.0260
  574MOL0     C79087   5.701   9.852   3.250 -0.5460  0.8483 -0.1465
  574MOL0     C79088   5.685   9.706   3.282 -0.3438  0.8772 -0.5281
  574MOL0     C79089   5.817   9.623   3.280  0.4164 -0.3140 -0.1191
  574MOL0     C79090   5.789   9.493   3.366  1.1980 -0.6850  0.0880
  574MOL0     N79091   5.779   9.511   3.509 -0.6192 -0.1040 -1.6449
  574MOL0     C79092   5.698   9.443   3.595 -0.7036 -1.3081  0.3310
  574MOL0     C79093   5.739   9.491   3.718  0.1348  0.8932  0.4514
  574MOL0     C79094   5.692   9.444   3.843 -0.3489  1.1723 -0.4877
  574MOL0     C79095   5.632   9.559   3.924 -0.4578 -0.1910  0.0430
  574MOL0     C79096   5.562   9.496   4.043 -0.3217 -0.2383  0.0570
  574MOL0     C79097   5.515   9.602   4.140 -1.2647 -0.4419  0.0218
  574MOL0     O79098   5.485   9.546   4.269 -0.3622 -0.5202  0.1782
  574MOL0     C79099   5.393   9.445   4.285  0.6165 -0.7543  1.1354
  574MOL0     C79100   5.295   9.400   4.189  0.4243 -0.3513  0.1970
  574MOL0     C79101   5.204   9.296   4.216  0.8577 -0.3793  0.2034
  574MOL0     C79102   5.109   9.256   4.105 -0.7950  0.2721 -0.7739
  574MOL0     C79103   5.227   9.216   4.330  0.9335 -0.0986  0.3913
  574MOL0     C79104   5.149   9.097   4.363  0.6795 -0.0972 -0.4560
  574MOL0     O79105   5.011   9.097   4.370 -0.1404  0.0267  0.0435
  574MOL0     C79106   4.955   8.980   4.398  0.2774 -0.7354  0.1962
  574MOL0     C79107   4.924   8.952   4.531  0.2921  0.2969 -1.0007
  574MOL0     C79108   4.838   8.842   4.552  0.1630 -0.7244  0.2740
  574MOL0     C79109   4.806   8.749   4.446 -0.1402  0.6475  0.9363
  574MOL0     O79110   4.743   8.636   4.488 -0.2564  0.0978  0.5851
  574MOL0     C79111   4.605   8.658   4.479 -0.1779  0.3602 -0.0120
  574MOL0     C79112   4.549   8.545   4.556 -0.2451  0.4181  0.0866
  574MOL0     C79113   4.563   8.584   4.706 -0.9957  0.8336  0.4439
  574MOL0     C79114   4.533   8.477   4.803 -0.1620  0.2333 -0.0160
  574MOL0     C79115   4.519   8.517   4.951  0.2656 -0.4350 -0.0628
  574MOL0     C79116   4.525   8.395   5.045 -0.6258 -0.7481  0.8571
  574MOL0     C79117   4.485   8.449   5.183  0.0621 -1.0628 -0.5058
  574MOL0     C79118   4.558   8.571   5.244  0.0061 -0.2066  0.3514
  574MOL0    Cl79119   4.731   8.532   5.271  0.0500  0.0573 -0.6645
  574MOL0     C79120   4.852   8.769   4.318  0.5969  0.3570 -1.1390
  574MOL0     C79121   4.912   8.890   4.300 -0.7086  0.8497  0.7664
  574MOL0     O79122   5.221   9.009   4.400 -0.0240  0.2590 -0.9065
  574MOL0     C79123   5.330   9.250   4.418  0.2805  1.1442  0.4171
  574MOL0     C79124   5.401   9.370   4.404  0.6454 -0.4570 -0.5920
  574MOL0     N79125   5.834   9.589   3.698 -0.5163 -0.5130  0.3432
  574MOL0     N79126   5.863   9.596   3.575  0.1715  0.3035 -0.8943
  574MOL0     C79127   5.458  10.270   2.952  0.0398  0.6763  0.0031
  574MOL0     C79128   5.331  10.320   2.911 -0.8058  0.1163 -0.3094
  574MOL0     C79129   4.985  10.483   2.670 -0.3891  0.0297  0.1393
  574MOL0     C79130   4.902  10.368   2.660  0.4785 -0.0842 -0.9645
  574MOL0     C79131   4.763  10.383   2.634 -0.2417  0.4410  0.5297
  574MOL0     C79132   4.706  10.506   2.607  0.3048 -0.4434 -0.1900
  574MOL0     O79133   4.572  10.514   2.591 -0.2692 -0.0948 -0.0946
  574MOL0     C79134   4.504  10.641   2.566  0.3683  0.2167 -0.4774
  574MOL0     C79135   4.359  10.632   2.531  0.8518  0.6091 -0.3567
  574MOL0     C79136   4.337  10.574   2.391 -0.0915  1.0801 -0.3158
  574MOL0     C79137   4.223  10.474   2.369  0.6824 -0.3265 -0.0284
  574MOL0     C79138   4.193  10.475   2.220 -0.4306 -0.1412 -0.8746
  574MOL0     C79139   4.185  10.482   2.107 -0.5136 -0.1120  0.1209
  574MOL0     C79140   4.800  10.613   2.602 -0.0758  0.4128  0.5071
  574MOL0     C79141   4.935  10.610   2.637  0.1826 -0.3255  0.4340
  574MOL0     C79142   4.999  10.745   2.650 -0.3823  0.5217  0.8104
  574MOL0     H79143   5.329  10.199   2.600 -0.0243  0.0063 -0.1767
  574MOL0     H79144   5.532  10.105   2.659 -2.3146 -1.6205 -1.5998
  574MOL0     H79145   5.828  10.047   2.888  0.1322  0.0759  0.7962
  574MOL0     H79146   5.737  10.043   2.729 -0.1089 -3.0318  0.5969
  574MOL0     H79147   5.576   9.887   2.825  0.4288  2.9303 -0.1866
  574MOL0     H79148   5.754   9.828   2.814  2.8096  0.4487  2.0737
  574MOL0     H79149   5.566   9.866   3.037 -0.3238 -0.8366 -0.6232
  574MOL0     H79150   5.663   9.720   3.001 -0.9312  0.1598 -1.2660
  574MOL0     H79151   5.855   9.821   3.097  3.0916  2.3654  1.3405
  574MOL0     H79152   5.773   9.984   3.111 -0.1734 -0.6943 -1.5836
  574MOL0     H79153   5.607   9.908   3.258 -1.0711 -0.0598  0.2285
  574MOL0     H79154   5.770   9.887   3.328 -0.2955 -0.5055  0.2678
  574MOL0     H79155   5.649   9.705   3.385 -1.9625  1.0036 -1.0787
  574MOL0     H79156   5.611   9.662   3.215  0.8789 -1.1330 -0.6517
  574MOL0     H79157   5.904   9.680   3.313  1.1179 -1.9850  1.0368
  574MOL0     H79158   5.846   9.595   3.179  1.4310  1.2786 -0.2985
  574MOL0     H79159   5.695   9.451   3.329  0.5026  1.4025 -0.6582
  574MOL0     H79160   5.856   9.409   3.346 -0.9197 -2.2338 -0.9236
  574MOL0     H79161   5.631   9.365   3.563 -0.5904 -0.9069 -0.9462
  574MOL0     H79162   5.773   9.393   3.896 -0.6654  1.0603 -0.1064
  574MOL0     H79163   5.612   9.372   3.822  2.4463 -1.4180 -3.2467
  574MOL0     H79164   5.714   9.628   3.946  2.0506 -3.4228  1.7294
  574MOL0     H79165   5.549   9.604   3.869 -0.5588 -3.5010 -2.8964
  574MOL0     H79166   5.489   9.427   4.000  1.2914 -2.6558  0.9502
  574MOL0     H79167   5.626   9.424   4.096 -2.4254 -1.0338  1.6271
  574MOL0     H79168   5.586   9.685   4.146 -1.5045 -0.2389  0.0595
  574MOL0     H79169   5.432   9.656   4.093  2.2866  2.2824 -3.7870
  574MOL0     H79170   5.280   9.455   4.097 -2.5747 -1.6764 -0.2213
  574MOL0     H79171   5.020   9.210   4.149  0.1185 -2.2998 -1.4439
  574MOL0     H79172   5.162   9.183   4.044  1.2868  0.0349  1.1599
  574MOL0     H79173   5.076   9.339   4.042 -2.1426  1.3545  1.2280
  574MOL0     H79174   4.948   9.024   4.609  1.2905 -0.0569 -0.9644
  574MOL0     H79175   4.813   8.846   4.658 -1.3339 -0.7837 -0.0502
  574MOL0     H79176   4.576   8.755   4.518 -3.0090 -0.0427 -0.8838
  574MOL0     H79177   4.569   8.639   4.377  1.7596  0.3351 -0.7379
  574MOL0     H79178   4.443   8.531   4.534 -0.4716 -0.0933  1.4134
  574MOL0     H79179   4.600   8.451   4.533 -0.9858  0.3155 -1.2786
  574MOL0     H79180   4.501   8.673   4.718 -1.4289  0.6478 -0.3226
  574MOL0     H79181   4.667   8.611   4.723 -0.3887 -0.1195 -1.5340
  574MOL0     H79182   4.614   8.403   4.795 -1.1752 -1.1136  1.5590
  574MOL0     H79183   4.435   8.442   4.769  0.1015  1.4731 -2.1931
  574MOL0     H79184   4.594   8.592   4.977 -0.6488  0.6775 -0.5201
  574MOL0     H79185   4.423   8.569   4.965 -0.4589 -1.3525 -1.4411
  574MOL0     H79186   4.625   8.351   5.038  0.8357  2.3899  0.2817
  574MOL0     H79187   4.457   8.317   5.010 -1.0188  0.1409 -0.4541
  574MOL0     H79188   4.486   8.368   5.256 -0.5325  0.4258  1.2159
  574MOL0     H79189   4.378   8.472   5.179 -0.3600 -1.7712  3.0759
  574MOL0     H79190   4.513   8.587   5.342  0.6173 -1.6617  0.8944
  574MOL0     H79191   4.555   8.660   5.181  1.1937 -0.2120  0.2533
  574MOL0     H79192   4.832   8.704   4.234 -2.6150  2.3359 -2.0868
  574MOL0     H79193   4.953   8.908   4.201 -0.1077  0.9199  1.0284
  574MOL0     H79194   5.336   9.190   4.508 -5.0610 -0.6057 -0.0177
  574MOL0     H79195   5.467   9.405   4.482 -1.3451 -2.8160  2.4210
  574MOL0     H79196   5.499  10.298   3.048 -0.0517 -2.6012  1.1093
  574MOL0     H79197   5.266  10.362   2.987  0.1750 -0.9312  1.1638
  574MOL0     H79198   4.932  10.267   2.685 -2.0087 -0.2596  1.9716
  574MOL0     H79199   4.708  10.289   2.636 -0.7046  0.4673 -3.1188
  574MOL0     H79200   4.511  10.697   2.660  1.7059 -0.7815  0.0487
  574MOL0     H79201   4.554  10.691   2.482  1.4034 -0.4176 -0.2598
  574MOL0     H79202   4.310  10.730   2.536 -1.0292 -0.3288  0.7257
  574MOL0     H79203   4.316  10.575   2.613  0.7972  3.0685  1.4408
  574MOL0     H79204   4.304  10.662   2.334 -0.9575  1.1321  0.2591
  574MOL0     H79205   4.423  10.524   2.345  0.7944  0.1958  2.1512
  574MOL0     H79206   4.131  10.482   2.427  0.2669  0.5721 -0.7799
  574MOL0     H79207   4.278  10.383   2.395  1.0620 -1.7645 -4.8271
  574MOL0     H79208   4.185  10.483   2.000 -2.2384 -5.5075 -0.2578
  574MOL0     H79209   4.757  10.706   2.568 -0.2191  1.0024  2.2113
  574MOL0     H79210   4.986  10.800   2.743  0.8927  2.7663 -0.2649
  574MOL0     H79211   5.103  10.729   2.621 -1.4892  0.0900 -3.8442
  574MOL0     H79212   4.950  10.813   2.580  1.7618  1.7858  0.4574
  575MOL0     O79213   0.659   2.357   4.698 -0.0511  0.1142 -0.3059
  575MOL0     C79214   0.717   2.263   4.754  0.1367 -0.4921  1.1084
  575MOL0     O79215   0.847   2.225   4.725  0.0261  1.7173 -0.4764
  575MOL0     C79216   0.922   2.279   4.620  0.7021 -0.6490  0.8562
  575MOL0     C79217   1.031   2.353   4.648 -0.4258 -0.0674  0.7016
  575MOL0     C79218   1.107   2.421   4.541 -0.2426 -0.0784 -0.3186
  575MOL0     C79219   1.063   2.413   4.409 -0.2174  0.3622  0.5675
  575MOL0     O79220   1.142   2.478   4.309  0.7492  0.1831 -0.0781
  575MOL0     C79221   1.102   2.466   4.171 -0.1891  0.0183  0.1122
  575MOL0     C79222   1.158   2.563   4.068 -0.2564  0.6035 -0.0800
  575MOL0     C79223   1.300   2.585   4.072 -0.6734  0.0883  0.1663
  575MOL0     C79224   1.335   2.728   4.001 -0.0236 -0.5451 -1.2136
  575MOL0     C79225   1.481   2.736   3.974 -0.8976 -0.9497 -0.3364
  575MOL0     C79226   1.509   2.847   3.875  0.5056  0.3332 -0.1218
  575MOL0     C79227   1.662   2.859   3.864  0.1185  0.1544 -0.2631
  575MOL0     C79228   1.719   2.995   3.829  0.3622 -0.4628  0.2230
  575MOL0     N79229   1.863   3.009   3.852 -0.5876 -0.4042 -0.8288
  575MOL0     C79230   1.965   2.951   3.772 -0.2022 -0.4138  0.6869
  575MOL0     C79231   2.076   2.990   3.834 -0.1373 -0.0950  0.7257
  575MOL0     C79232   2.217   2.952   3.806 -1.0456 -0.1981 -0.0632
  575MOL0     C79233   2.278   3.031   3.684 -0.1405 -0.3773 -0.2248
  575MOL0     C79234   2.311   3.178   3.719 -0.4153  0.3815  0.0884
  575MOL0     C79235   2.332   3.256   3.589  0.2909 -0.4145  0.4412
  575MOL0     O79236   2.352   3.396   3.616  0.3392  0.0039 -0.1712
  575MOL0     C79237   2.440   3.465   3.530 -0.2855  0.4787  1.3512
  575MOL0     C79238   2.575   3.470   3.563 -0.1491  0.9710  0.2197
  575MOL0     C79239   2.661   3.549   3.483 -0.3192  0.5143  0.2586
  575MOL0     C79240   2.807   3.554   3.515  1.0950  0.3475 -0.0252
  575MOL0     C79241   2.611   3.616   3.371 -0.5876 -0.2558 -0.0171
  575MOL0     C79242   2.699   3.688   3.264  0.0810 -0.2828 -0.6848
  575MOL0     O79243   2.814   3.633   3.235 -0.0949 -0.4637  0.5045
  575MOL0     C79244   2.913   3.700   3.165  0.6069 -0.4052 -0.1106
  575MOL0     C79245   2.958   3.825   3.204 -0.0678  1.0152 -0.0662
  575MOL0     C79246   3.068   3.891   3.136 -0.4374  0.1947 -0.4281
  575MOL0     C79247   3.121   3.838   3.026 -0.2607  0.3780  0.8077
  575MOL0     O79248   3.200   3.921   2.950 -0.4359 -0.2994 -0.1268
  575MOL0     C79249   3.279   3.867   2.851  0.9569 -0.7039  0.7251
  575MOL0     C79250   3.399   3.786   2.889  1.0379 -0.4568  0.6427
  575MOL0     C79251   3.491   3.882   2.971 -0.7771 -0.5965 -0.0793
  575MOL0     C79252   3.580   3.804   3.065 -0.6080  0.6193  0.4478
  575MOL0     C79253   3.696   3.891   3.118  0.2581  0.1473  0.4829
  575MOL0     C79254   3.831   3.827   3.117  0.8532  0.5743 -0.1965
  575MOL0     C79255   3.944   3.925   3.174 -0.9611  0.4062  0.7648
  575MOL0     C79256   4.005   4.026   3.077 -0.5078  0.3435  0.0203
  575MOL0    Cl79257   4.102   3.940   2.948 -0.0673 -0.2103 -0.0636
  575MOL0     C79258   3.071   3.713   2.974 -0.1512 -0.0995  0.0159
  575MOL0     C79259   2.973   3.648   3.051  0.0490  0.1400  0.5989
  575MOL0     O79260   2.645   3.774   3.205  0.2941 -0.3628 -0.1761
  575MOL0     C79261   2.473   3.606   3.346 -0.2029  0.4230  0.4786
  575MOL0     C79262   2.389   3.533   3.424  0.2838  0.3976 -0.1662
  575MOL0     N79263   2.051   3.071   3.937  0.7026 -0.9246 -0.5089
  575MOL0     N79264   1.921   3.080   3.953  0.0888 -0.6517  0.3326
  575MOL0     C79265   0.939   2.345   4.386 -0.5496 -0.4702 -0.5696
  575MOL0     C79266   0.870   2.279   4.486 -0.2625 -0.2351  0.2936
  575MOL0     C79267   0.661   2.206   4.874  0.0469 -0.2292  0.5004
  575MOL0     C79268   0.600   2.082   4.876  0.0815  0.1463  0.0603
  575MOL0     C79269   0.561   2.021   4.994  0.2767  0.8911  0.4793
  575MOL0     C79270   0.597   2.075   5.114  0.1007  1.0599 -0.4942
  575MOL0     O79271   0.570   2.021   5.241 -0.6707  0.4268  0.1680
  575MOL0     C79272   0.532   1.885   5.261 -0.0729  0.8487 -0.0705
  575MOL0     C79273   0.523   1.848   5.410 -0.2608 -0.0403  0.0057
  575MOL0     C79274   0.642   1.876   5.504 -0.4791  0.5907  0.1439
  575MOL0     C79275   0.636   1.821   5.647 -0.2760  0.2641 -0.5213
  575MOL0     C79276   0.740   1.877   5.733  0.1044  0.4851 -0.6653
  575MOL0     C79277   0.811   1.934   5.816  0.0106  0.4045  0.5650
  575MOL0     C79278   0.669   2.197   5.116  0.7223  0.4924  0.1439
  575MOL0     C79279   0.697   2.268   4.993  0.8071  0.4167 -0.0557
  575MOL0     C79280   0.773   2.399   4.999 -0.2403  0.4809  0.0239
  575MOL0     H79281   1.056   2.354   4.754 -2.4565 -1.0499  1.2363
  575MOL0     H79282   1.192   2.487   4.551  0.8474 -1.7758  2.9224
  575MOL0     H79283   0.994   2.464   4.156 -0.1107  1.2801 -0.7881
  575MOL0     H79284   1.145   2.374   4.130  1.4651 -1.1631  3.9920
  575MOL0     H79285   1.136   2.531   3.965  1.5151 -2.0876  0.2710
  575MOL0     H79286   1.100   2.653   4.090 -3.9981 -1.6506  0.1179
  575MOL0     H79287   1.349   2.563   4.167 -0.6084 -0.1701  0.0740
  575MOL0     H79288   1.346   2.513   4.004 -1.7771  1.0243 -1.6688
  575MOL0     H79289   1.277   2.735   3.908 -1.4537 -1.0560 -0.3860
  575MOL0     H79290   1.308   2.811   4.066  1.3884 -1.3252  0.4553
  575MOL0     H79291   1.510   2.642   3.926 -0.7788 -1.3140  0.4245
  575MOL0     H79292   1.539   2.756   4.065 -2.5636  0.8331  0.4041
  575MOL0     H79293   1.457   2.824   3.781 -1.3487  0.1469  0.9041
  575MOL0     H79294   1.465   2.945   3.897  0.8796  0.7704 -1.2155
  575MOL0     H79295   1.702   2.775   3.806 -0.0357 -0.4577  0.5143
  575MOL0     H79296   1.696   2.856   3.968  0.9651  0.6635 -0.5103
  575MOL0     H79297   1.705   3.009   3.721  0.3649  0.5401  0.3446
  575MOL0     H79298   1.671   3.068   3.895 -1.3305  0.1550 -1.5847
  575MOL0     H79299   1.959   2.874   3.696  1.6757 -0.2520  0.3214
  575MOL0     H79300   2.217   2.846   3.780  2.7160 -0.2190 -0.6379
  575MOL0     H79301   2.290   2.958   3.888  3.8149 -1.3995 -3.8006
  575MOL0     H79302   2.370   2.978   3.656 -1.5737 -4.4882  2.0054
  575MOL0     H79303   2.211   3.018   3.599 -1.5045 -2.4672  1.0721
  575MOL0     H79304   2.228   3.219   3.777  0.6397  2.1431  0.3996
  575MOL0     H79305   2.405   3.176   3.773 -0.4491 -1.0952  0.1368
  575MOL0     H79306   2.427   3.223   3.547 -1.2862 -1.5582 -2.4828
  575MOL0     H79307   2.242   3.245   3.528 -1.5929 -0.0848  2.9699
  575MOL0     H79308   2.603   3.429   3.659 -0.3815  1.1179  0.3532
  575MOL0     H79309   2.851   3.653   3.499 -1.5051  1.7992  1.1484
  575MOL0     H79310   2.850   3.469   3.462  0.2046 -0.5349  0.6129
  575MOL0     H79311   2.821   3.532   3.622 -1.2355 -0.5724  0.1467
  575MOL0     H79312   2.938   3.845   3.308  1.2488 -3.6800  1.3460
  575MOL0     H79313   3.095   3.988   3.177 -3.1807 -0.0610  2.3684
  575MOL0     H79314   3.217   3.808   2.781  1.3971 -1.2189  0.7635
  575MOL0     H79315   3.312   3.952   2.790  1.7407 -0.1527  1.8952
  575MOL0     H79316   3.366   3.710   2.961  0.1904  1.4019  2.2935
  575MOL0     H79317   3.457   3.743   2.806 -0.8493  3.2202 -2.9446
  575MOL0     H79318   3.430   3.942   3.038 -0.7786 -0.4222 -0.2376
  575MOL0     H79319   3.548   3.944   2.902 -1.4885 -0.8390 -0.9069
  575MOL0     H79320   3.620   3.730   2.996 -0.8875  0.7918  0.0988
  575MOL0     H79321   3.532   3.758   3.152 -1.0501 -0.5637 -0.3939
  575MOL0     H79322   3.692   3.985   3.061 -0.8688  0.0504  0.3871
  575MOL0     H79323   3.670   3.925   3.219 -0.5993 -2.1720  1.1072
  575MOL0     H79324   3.859   3.788   3.019 -1.6039 -0.2168 -0.6341
  575MOL0     H79325   3.828   3.742   3.186 -0.8147 -0.3170 -1.3297
  575MOL0     H79326   4.025   3.865   3.217 -2.6414 -1.5821  1.3056
  575MOL0     H79327   3.913   3.977   3.265  0.3648  0.4991  1.1902
  575MOL0     H79328   4.076   4.093   3.126 -1.6461  0.6228  1.3495
  575MOL0     H79329   3.921   4.085   3.038  0.6648  1.8281 -0.3447
  575MOL0     H79330   3.101   3.675   2.877  2.4104 -3.0629  1.7683
  575MOL0     H79331   2.927   3.559   3.009 -0.9974  1.2608 -0.7024
  575MOL0     H79332   2.420   3.642   3.259 -2.3301 -0.2388  1.4218
  575MOL0     H79333   2.281   3.530   3.412 -0.3261  1.1184  3.7449
  575MOL0     H79334   0.892   2.349   4.289 -3.7636  0.3604  0.9029
  575MOL0     H79335   0.775   2.231   4.466  0.4703 -1.3791 -0.6431
  575MOL0     H79336   0.588   2.033   4.780  1.7413 -0.5869  0.2014
  575MOL0     H79337   0.518   1.922   5.001  2.2682 -0.0495 -0.0150
  575MOL0     H79338   0.437   1.861   5.212  2.3531 -0.1833 -4.9452
  575MOL0     H79339   0.600   1.813   5.216 -2.1415 -1.0438 -0.3709
  575MOL0     H79340   0.497   1.742   5.420 -0.2290  0.0650  1.4043
  575MOL0     H79341   0.446   1.917   5.445  0.4796  2.6642 -3.1844
  575MOL0     H79342   0.722   1.834   5.442  0.1116 -1.2253  2.0478
  575MOL0     H79343   0.645   1.985   5.501 -0.6042  0.5729 -1.3581
  575MOL0     H79344   0.645   1.712   5.653 -1.2987  0.2131  0.4331
  575MOL0     H79345   0.539   1.847   5.691 -1.3954 -0.7025 -2.2774
  575MOL0     H79346   0.868   1.981   5.894  1.0833 -1.6020  1.0451
  575MOL0     H79347   0.698   2.239   5.212  0.0373 -0.1513  0.6424
  575MOL0     H79348   0.703   2.480   4.977  0.0868  1.5036  2.4683
  575MOL0     H79349   0.810   2.403   5.102  2.1545 -4.5555 -0.3518
  575MOL0     H79350   0.851   2.408   4.924 -1.5405 -0.1675 -1.4673
  576MOL0     O79351   0.034  10.532   5.508 -0.8515  0.4317  0.2876
  576MOL0     C79352   0.022  10.435   5.576  0.3544 -0.0917 -0.6965
  576MOL0     O79353  -0.092  10.353   5.573 -0.0722 -0.2247  0.0724
  576MOL0     C79354  -0.195  10.351   5.486 -0.8292 -0.5688  0.4561
  576MOL0     C79355  -0.271  10.230   5.472  0.8337  0.0688 -0.6491
  576MOL0     C79356  -0.379  10.209   5.385  0.0349 -0.2870 -0.1432
  576MOL0     C79357  -0.419  10.316   5.301 -0.3219 -1.0088 -0.7969
  576MOL0     O79358  -0.511  10.312   5.204  0.0652 -0.7833 -0.5935
  576MOL0     C79359  -0.590  10.193   5.203 -0.6486  0.3555  0.0929
  576MOL0     C79360  -0.691  10.212   5.091 -0.1496  0.7241 -0.2668
  576MOL0     C79361  -0.628  10.247   4.952  0.6267  0.4675 -0.8442
  576MOL0     C79362  -0.751  10.245   4.858  0.2419  1.0523  0.3308
  576MOL0     C79363  -0.724  10.277   4.709  0.6088  0.1090 -0.1069
  576MOL0     C79364  -0.634  10.169   4.639  0.2381 -0.0215  0.4877
  576MOL0     C79365  -0.623  10.190   4.481 -1.3851  0.1352 -1.1249
  576MOL0     C79366  -0.520  10.094   4.422 -0.3683 -0.3951 -0.3460
  576MOL0     N79367  -0.379  10.127   4.458 -0.0780 -0.5253  0.0257
  576MOL0     C79368  -0.283  10.034   4.474 -1.0048  0.2673  0.4743
  576MOL0     C79369  -0.168  10.099   4.474 -0.9228 -0.5437 -0.3072
  576MOL0     C79370  -0.026  10.058   4.495  0.3488  0.5032 -0.2017
  576MOL0     C79371   0.014   9.936   4.399 -0.1361  0.1296 -0.2190
  576MOL0     C79372   0.035   9.979   4.249  0.0275 -0.1181 -0.4781
  576MOL0     C79373   0.047   9.866   4.148 -0.0228 -0.5735 -1.4762
  576MOL0     O79374  -0.069   9.784   4.155  0.1463  0.9622 -0.0772
  576MOL0     C79375  -0.109   9.690   4.050  0.5424 -0.5398 -0.1735
  576MOL0     C79376  -0.020   9.659   3.941 -0.1126  0.2343  0.0111
  576MOL0     C79377  -0.058   9.572   3.838  0.3385 -0.7100  0.3266
  576MOL0     C79378   0.046   9.558   3.724  0.5837  0.3505  0.4883
  576MOL0     C79379  -0.181   9.515   3.835  0.2990 -0.2860 -0.1386
  576MOL0     C79380  -0.235   9.438   3.723  0.0943 -0.8544 -0.2421
  576MOL0     O79381  -0.348   9.360   3.741 -0.1449 -0.8253 -0.1443
  576MOL0     C79382  -0.402   9.284   3.639 -0.1410  0.1310  0.2670
  576MOL0     C79383  -0.356   9.149   3.624  0.0678 -0.1725 -0.3926
  576MOL0     C79384  -0.426   9.069   3.537 -0.4039 -0.1684 -0.3811
  576MOL0     C79385  -0.525   9.113   3.447 -0.6067  0.4700 -0.1776
  576MOL0     O79386  -0.569   9.016   3.358  0.0369  0.2461  0.0009
  576MOL0     C79387  -0.678   9.040   3.271 -0.4774 -0.2160  0.6305
  576MOL0     C79388  -0.740   8.906   3.214  0.1988  0.9022  0.6247
  576MOL0     C79389  -0.861   8.911   3.114  0.1545 -0.9048 -0.0982
  576MOL0     C79390  -0.903   8.786   3.046  0.1208  0.5241  0.3412
  576MOL0     C79391  -0.987   8.809   2.926 -0.0303 -0.2868 -0.2210
  576MOL0     C79392  -0.911   8.852   2.797  0.3081  0.2516 -0.2374
  576MOL0     C79393  -1.003   8.921   2.701  0.2712  0.3096 -0.1365
  576MOL0     C79394  -1.135   8.847   2.674  0.0719 -0.2845 -0.3460
  576MOL0    Cl79395  -1.134   8.663   2.624  0.0407  0.0614 -0.4153
  576MOL0     C79396  -0.554   9.245   3.463  0.5979 -0.4311  0.9107
  576MOL0     C79397  -0.507   9.333   3.560 -0.1968  0.7199  0.3622
  576MOL0     O79398  -0.186   9.462   3.616 -0.4298 -0.1117 -0.3118
  576MOL0     C79399  -0.268   9.537   3.952 -0.6561 -0.6196 -0.2613
  576MOL0     C79400  -0.237   9.633   4.049  0.5253  0.4522 -0.5495
  576MOL0     N79401  -0.186  10.230   4.456 -0.2673  0.3346  0.1438
  576MOL0     N79402  -0.319  10.248   4.451 -0.3087  0.0213 -0.2201
  576MOL0     C79403  -0.342  10.434   5.314 -0.4597 -0.6807 -0.1404
  576MOL0     C79404  -0.236  10.453   5.401 -0.0016 -0.1745  0.9184
  576MOL0     C79405   0.127  10.385   5.672  0.2469  0.4844 -0.0367
  576MOL0     C79406   0.105  10.278   5.762  0.7075 -0.3635  0.6565
  576MOL0     C79407   0.207  10.237   5.854  0.6481  0.2443  0.2246
  576MOL0     C79408   0.326  10.299   5.860 -0.2989 -0.4236 -1.0190
  576MOL0     O79409   0.418  10.266   5.960  0.6428  0.5542  0.9086
  576MOL0     C79410   0.521  10.346   6.010 -0.6284  0.3353  0.5344
  576MOL0     C79411   0.464  10.456   6.105  0.1598  0.2975 -0.5167
  576MOL0     C79412   0.558  10.482   6.220 -0.1405  0.0909  0.5853
  576MOL0     C79413   0.522  10.610   6.300  0.7228 -0.2707 -0.6003
  576MOL0     C79414   0.533  10.737   6.236  0.3334 -1.1428  0.7720
  576MOL0     C79415   0.530  10.850   6.190 -0.0183 -0.1803  0.4269
  576MOL0     C79416   0.348  10.400   5.770  0.1818  0.2836 -0.3043
  576MOL0     C79417   0.255  10.451   5.673  0.3527  0.2487 -0.0315
  576MOL0     C79418   0.301  10.577   5.606  0.6058  0.8406  0.3272
  576MOL0     H79419  -0.251  10.152   5.545  1.8660  0.9157  0.0063
  576MOL0     H79420  -0.423  10.110   5.388  0.4809 -0.4824  0.0150
  576MOL0     H79421  -0.635  10.176   5.301 -1.9590  1.0926 -0.3476
  576MOL0     H79422  -0.528  10.108   5.173 -1.8123 -0.8203  0.9203
  576MOL0     H79423  -0.739  10.115   5.077  0.8381  0.0860  0.5552
  576MOL0     H79424  -0.760  10.291   5.121 -0.6150  0.0644  0.4621
  576MOL0     H79425  -0.577  10.343   4.969  1.3501 -0.1008  0.3372
  576MOL0     H79426  -0.560  10.169   4.919  0.4991 -1.1438  2.3058
  576MOL0     H79427  -0.804  10.151   4.876  0.0961  1.1114  0.2136
  576MOL0     H79428  -0.819  10.323   4.893  1.0724  2.3335 -0.8012
  576MOL0     H79429  -0.671  10.372   4.715 -0.2713  0.6609 -0.8421
  576MOL0     H79430  -0.816  10.290   4.652 -1.1109  0.1418  2.5166
  576MOL0     H79431  -0.530  10.166   4.673 -0.5093  0.2473  2.9793
  576MOL0     H79432  -0.678  10.070   4.644  0.5101 -0.2833 -1.4387
  576MOL0     H79433  -0.586  10.290   4.454  1.6538 -0.6229 -0.1493
  576MOL0     H79434  -0.711  10.175   4.418 -2.7449  2.0415  0.2276
  576MOL0     H79435  -0.548   9.991   4.446 -1.3995  0.4615  2.5475
  576MOL0     H79436  -0.524  10.090   4.313  0.5749  0.8852 -0.4528
  576MOL0     H79437  -0.299   9.927   4.472 -1.2746  0.2923  1.0971
  576MOL0     H79438  -0.018  10.025   4.599 -5.6544 -1.8236 -0.1032
  576MOL0     H79439   0.038  10.140   4.460 -0.1095  0.3173 -1.5447
  576MOL0     H79440   0.106   9.896   4.443 -1.3897 -2.2593  0.3905
  576MOL0     H79441  -0.067   9.865   4.421 -0.0148 -0.0109 -0.2195
  576MOL0     H79442  -0.039  10.050   4.210  1.5711  1.1394 -1.2591
  576MOL0     H79443   0.126  10.040   4.249 -1.6730  2.6001 -0.9368
  576MOL0     H79444   0.071   9.918   4.055  1.4329  1.2060 -0.1707
  576MOL0     H79445   0.141   9.815   4.171  1.6718  3.6645  2.3775
  576MOL0     H79446   0.080   9.700   3.934  0.2652 -0.9988 -3.2677
  576MOL0     H79447   0.058   9.456   3.686  0.1711  1.1707 -1.9684
  576MOL0     H79448   0.149   9.581   3.756  1.3143 -1.0422 -0.7620
  576MOL0     H79449   0.026   9.624   3.640  1.5869 -2.2519 -1.9591
  576MOL0     H79450  -0.272   9.113   3.684 -1.8712 -1.0162  1.9643
  576MOL0     H79451  -0.398   8.964   3.525 -1.0705 -0.5950  1.4656
  576MOL0     H79452  -0.753   9.095   3.329 -0.0158  0.6607  0.4130
  576MOL0     H79453  -0.650   9.104   3.187  1.8257 -0.1785  1.3693
  576MOL0     H79454  -0.667   8.847   3.157 -0.8618 -2.6332  2.5999
  576MOL0     H79455  -0.770   8.847   3.301 -1.2442 -2.5743 -1.9947
  576MOL0     H79456  -0.844   8.986   3.035  0.9772  1.5171  2.2277
  576MOL0     H79457  -0.950   8.943   3.168  0.9914 -0.2616  0.9311
  576MOL0     H79458  -0.948   8.727   3.127  1.4067 -2.4845 -1.0228
  576MOL0     H79459  -0.816   8.726   3.022 -2.1654 -2.6701 -0.5864
  576MOL0     H79460  -1.038   8.713   2.914 -2.7191  0.7386  2.1362
  576MOL0     H79461  -1.064   8.885   2.939 -0.8550 -1.0937 -0.2638
  576MOL0     H79462  -0.854   8.769   2.753 -1.6987 -2.7864  2.4444
  576MOL0     H79463  -0.830   8.917   2.831  0.6325 -0.5914  0.6345
  576MOL0     H79464  -0.947   8.945   2.610  2.7138 -0.5528  1.0518
  576MOL0     H79465  -1.027   9.019   2.745 -0.2646 -0.6163  1.7501
  576MOL0     H79466  -1.183   8.905   2.595  1.1927  0.7107 -0.3315
  576MOL0     H79467  -1.190   8.863   2.766  1.4069  0.1435  0.4058
  576MOL0     H79468  -0.633   9.283   3.399 -1.5844  0.7244  4.0612
  576MOL0     H79469  -0.532   9.439   3.560  0.5935  0.9178 -0.0145
  576MOL0     H79470  -0.356   9.476   3.967 -1.2826  0.1522 -0.7481
  576MOL0     H79471  -0.304   9.660   4.130  0.7517  2.4132 -0.9683
  576MOL0     H79472  -0.378  10.516   5.253  0.0759 -0.0228  0.4138
  576MOL0     H79473  -0.183  10.548   5.404 -0.0679 -0.0884 -0.1816
  576MOL0     H79474   0.012  10.223   5.760  0.9924 -1.1334 -4.0329
  576MOL0     H79475   0.190  10.164   5.932 -1.1584 -0.5263 -0.8155
  576MOL0     H79476   0.598  10.285   6.058 -0.2512 -2.0141 -2.7017
  576MOL0     H79477   0.568  10.394   5.923  1.6432  3.0158  3.0083
  576MOL0     H79478   0.366  10.432   6.147  1.7439 -3.6676  1.4532
  576MOL0     H79479   0.451  10.549   6.050 -2.1089  0.4891  0.2312
  576MOL0     H79480   0.555  10.400   6.292 -0.6242  0.1532  0.6431
  576MOL0     H79481   0.655  10.505   6.174 -0.3576 -1.6855 -0.8951
  576MOL0     H79482   0.586  10.610   6.389 -1.0579 -3.5471  0.8089
  576MOL0     H79483   0.417  10.595   6.324 -0.4917  3.3041 -2.8839
  576MOL0     H79484   0.531  10.955   6.172 -0.0498 -0.3244 -0.4426
  576MOL0     H79485   0.445  10.449   5.775  1.1481 -1.5729  0.1016
  576MOL0     H79486   0.401  10.610   5.636  0.8505 -0.1158  0.6118
  576MOL0     H79487   0.299  10.574   5.497 -4.6040  1.2820  0.1339
  576MOL0     H79488   0.234  10.660   5.632 -2.2908 -2.0149  2.8451
  577MOL0     O79489  10.687   3.378   2.009 -0.0640 -0.3780 -0.5442
  577MOL0     C79490  10.598   3.374   1.934  0.4975  0.6431  1.3146
  577MOL0     O79491  10.599   3.428   1.811  0.4362  0.7235 -0.1106
  577MOL0     C79492  10.707   3.493   1.767 -0.0236  0.3795 -1.1527
  577MOL0     C79493  10.679   3.603   1.689 -0.5268  0.4848  0.3408
  577MOL0     C79494  10.778   3.685   1.632 -0.0859  0.1669 -1.2006
  577MOL0     C79495  10.913   3.649   1.642 -0.0369  0.9210 -0.0633
  577MOL0     O79496  11.010   3.723   1.587  0.5474  0.0916  1.1332
  577MOL0     C79497  10.974   3.805   1.471 -0.2637  0.2358 -0.8846
  577MOL0     C79498  11.105   3.867   1.424  0.0657 -0.2910  0.7405
  577MOL0     C79499  11.172   3.967   1.528 -0.1534  0.0594  0.0211
  577MOL0     C79500  11.307   4.029   1.485  0.7596 -0.6055 -0.6389
  577MOL0     C79501  11.363   4.132   1.586  0.0615 -0.1528  0.3472
  577MOL0     C79502  11.274   4.242   1.633 -0.2611 -0.3485  0.2201
  577MOL0     C79503  11.355   4.331   1.723  0.1882 -0.1700  0.0627
  577MOL0     C79504  11.442   4.447   1.659 -0.2499 -0.2187  0.5056
  577MOL0     N79505  11.531   4.498   1.761  0.3509 -0.4504  0.6220
  577MOL0     C79506  11.545   4.624   1.804 -0.8219 -0.1469  0.4753
  577MOL0     C79507  11.630   4.627   1.907 -0.7162 -1.2446  0.3063
  577MOL0     C79508  11.679   4.757   1.972  0.3241 -0.8050 -0.3311
  577MOL0     C79509  11.826   4.757   2.024  1.1717 -0.4516  0.1027
  577MOL0     C79510  11.863   4.858   2.139  0.5843 -0.3923 -1.3668
  577MOL0     C79511  11.836   4.999   2.100  0.1044 -0.8407  0.5482
  577MOL0     O79512  11.909   5.043   1.974 -0.0844 -0.4770  0.1894
  577MOL0     C79513  12.002   5.143   1.995 -0.4916  0.2726  0.0519
  577MOL0     C79514  12.013   5.219   1.888  0.3407 -0.0683  0.5578
  577MOL0     C79515  12.116   5.315   1.865  1.0792 -0.2393 -0.2895
  577MOL0     C79516  12.122   5.382   1.733  0.5294  0.1163 -0.2622
  577MOL0     C79517  12.201   5.345   1.978  0.2720  0.2649 -0.0598
  577MOL0     C79518  12.302   5.451   1.968  0.5631 -0.6070 -0.0811
  577MOL0     O79519  12.413   5.439   2.045  0.4490  0.7945 -0.0858
  577MOL0     C79520  12.524   5.513   2.019 -0.8746 -0.3522  1.6468
  577MOL0     C79521  12.580   5.498   1.898  1.0123 -0.5809  0.3690
  577MOL0     C79522  12.717   5.542   1.875  0.4520 -1.1044  0.5376
  577MOL0     C79523  12.797   5.593   1.979 -0.3585  0.2932  0.1038
  577MOL0     O79524  12.929   5.614   1.949 -0.6354 -1.0821 -0.2482
  577MOL0     C79525  13.023   5.623   2.065 -0.1501  0.4467 -0.3494
  577MOL0     C79526  13.160   5.582   2.027  0.1139  0.3328 -0.4043
  577MOL0     C79527  13.250   5.686   1.968 -0.5414  0.0044  0.0125
  577MOL0     C79528  13.391   5.631   1.939  0.7842  0.6364 -0.1595
  577MOL0     C79529  13.482   5.755   1.909  0.1246  0.5289  0.0456
  577MOL0     C79530  13.625   5.710   1.870 -0.0000  0.1700 -0.7791
  577MOL0     C79531  13.701   5.841   1.832  0.4926  0.3655  0.6258
  577MOL0     C79532  13.852   5.813   1.815 -0.2278  1.3152  0.2764
  577MOL0    Cl79533  13.878   5.765   1.653  0.2526 -0.1927  0.0367
  577MOL0     C79534  12.737   5.611   2.107  0.8056  0.4231 -0.2287
  577MOL0     C79535  12.600   5.562   2.123 -0.5275  0.9983 -0.3013
  577MOL0     O79536  12.264   5.558   1.909 -0.2360  0.4062 -0.4415
  577MOL0     C79537  12.195   5.258   2.087 -0.1726  0.1697  0.3278
  577MOL0     C79538  12.101   5.152   2.094 -0.3143 -0.5610  0.9638
  577MOL0     N79539  11.658   4.497   1.933 -0.3610  1.0848 -0.3376
  577MOL0     N79540  11.606   4.429   1.840  0.2883  1.1071  0.1234
  577MOL0     C79541  10.942   3.524   1.706 -0.3342 -0.5484 -0.5206
  577MOL0     C79542  10.843   3.443   1.773 -0.3665 -0.0564  0.2045
  577MOL0     C79543  10.464   3.326   1.982 -0.2022  0.1020 -0.0491
  577MOL0     C79544  10.357   3.332   1.892  0.4697  0.5832  0.8298
  577MOL0     C79545  10.227   3.297   1.925  0.1612 -0.5447  0.6299
  577MOL0     C79546  10.200   3.233   2.052 -1.0840  0.0056  1.5114
  577MOL0     O79547  10.063   3.203   2.087 -0.4618 -0.6105 -0.0325
  577MOL0     C79548   9.960   3.217   1.990  0.1470 -0.4070  0.1274
  577MOL0     C79549   9.826   3.157   2.038 -0.3268 -0.2696  0.2405
  577MOL0     C79550   9.797   3.015   1.991  0.7834 -0.4699  0.2088
  577MOL0     C79551   9.859   2.922   2.094  0.4878  0.2686 -0.3624
  577MOL0     C79552   9.846   2.774   2.058  0.3364  0.4854 -0.5713
  577MOL0     C79553   9.843   2.659   2.008  0.1147 -0.3441  0.2654
  577MOL0     C79554  10.303   3.232   2.145 -0.1202 -0.0231 -0.1910
  577MOL0     C79555  10.431   3.264   2.106 -0.8900  0.0667  0.6344
  577MOL0     C79556  10.545   3.238   2.211  0.1347  0.3483 -0.6239
  577MOL0     H79557  10.579   3.642   1.670 -0.3254  1.0554  0.4531
  577MOL0     H79558  10.728   3.773   1.591 -4.2583 -1.3587  0.1107
  577MOL0     H79559  10.912   3.888   1.506 -0.5513 -0.6201  0.7154
  577MOL0     H79560  10.918   3.751   1.394 -0.9619  0.8085 -0.7844
  577MOL0     H79561  11.175   3.785   1.404  0.6453  0.1620  0.8892
  577MOL0     H79562  11.098   3.922   1.330  3.2166 -1.3125 -0.2276
  577MOL0     H79563  11.098   4.048   1.533  0.7744  0.9928 -0.8677
  577MOL0     H79564  11.170   3.922   1.627 -0.8769  1.1350  0.5220
  577MOL0     H79565  11.378   3.947   1.475 -0.3905 -1.8873  1.1367
  577MOL0     H79566  11.295   4.087   1.393 -3.6981  1.0980  0.7307
  577MOL0     H79567  11.458   4.175   1.552 -0.3099  1.0924  0.8012
  577MOL0     H79568  11.398   4.078   1.675 -0.1035 -0.8584 -0.0152
  577MOL0     H79569  11.230   4.293   1.547  0.5718  1.2372  0.7084
  577MOL0     H79570  11.190   4.203   1.692 -0.3239  2.6053  2.3094
  577MOL0     H79571  11.408   4.260   1.787  1.1425 -1.9472 -2.5288
  577MOL0     H79572  11.290   4.383   1.793  0.2364 -0.4211  0.2922
  577MOL0     H79573  11.505   4.405   1.580 -3.5756 -0.5301 -2.1903
  577MOL0     H79574  11.374   4.528   1.631  1.5874  0.9901 -0.6799
  577MOL0     H79575  11.498   4.706   1.752  1.2374  0.2061 -0.9041
  577MOL0     H79576  11.615   4.782   2.057 -0.7139  0.8427 -1.5173
  577MOL0     H79577  11.689   4.834   1.895 -0.7213  0.4887  0.7802
  577MOL0     H79578  11.834   4.661   2.076  1.5978  1.1441  3.2507
  577MOL0     H79579  11.897   4.755   1.941  0.4238 -1.6591 -0.5253
  577MOL0     H79580  11.805   4.840   2.231 -0.2289  1.7949 -1.3944
  577MOL0     H79581  11.964   4.839   2.178 -0.4023 -0.5806  1.3658
  577MOL0     H79582  11.732   5.018   2.073  0.0706 -0.1131  1.1612
  577MOL0     H79583  11.869   5.054   2.188  0.6387  0.6787 -0.5614
  577MOL0     H79584  11.946   5.212   1.803  3.1317 -0.0287 -1.8033
  577MOL0     H79585  12.219   5.378   1.682  3.1549  1.1473  4.1035
  577MOL0     H79586  12.083   5.484   1.734  1.8409  0.7367  3.1332
  577MOL0     H79587  12.057   5.321   1.670  2.0821 -1.2225 -0.6329
  577MOL0     H79588  12.522   5.450   1.819 -0.5422 -1.3727  1.9157
  577MOL0     H79589  12.759   5.543   1.775  0.2469 -0.7160  0.4520
  577MOL0     H79590  13.031   5.721   2.114  2.6013  0.5743 -0.8733
  577MOL0     H79591  12.993   5.550   2.140  2.9826 -5.6356 -4.2151
  577MOL0     H79592  13.205   5.535   2.115  1.3145 -0.0940 -1.2349
  577MOL0     H79593  13.142   5.503   1.953  0.6420  0.0934 -0.2821
  577MOL0     H79594  13.277   5.772   2.031  2.2120  0.0544 -1.1046
  577MOL0     H79595  13.191   5.731   1.888 -0.9396 -0.8522 -0.1866
  577MOL0     H79596  13.379   5.562   1.855 -1.5759  2.3120 -1.2909
  577MOL0     H79597  13.439   5.591   2.029  0.2134  0.8999  0.2651
  577MOL0     H79598  13.445   5.817   1.827 -1.9009  3.2792  2.8234
  577MOL0     H79599  13.486   5.813   2.001 -2.1454 -1.0867  1.2709
  577MOL0     H79600  13.610   5.649   1.780 -4.5689 -2.0208  1.1213
  577MOL0     H79601  13.683   5.654   1.944  0.3653 -0.6184 -1.6376
  577MOL0     H79602  13.692   5.917   1.910  1.1206  0.4886  0.5870
  577MOL0     H79603  13.655   5.882   1.743  0.7491 -0.0832  0.2810
  577MOL0     H79604  13.880   5.731   1.882 -0.3677  1.2597  0.2693
  577MOL0     H79605  13.905   5.902   1.847 -0.9799  1.9021 -0.0745
  577MOL0     H79606  12.793   5.644   2.193  0.3685  1.0033 -0.1619
  577MOL0     H79607  12.557   5.541   2.221 -0.9178 -1.3979 -0.9424
  577MOL0     H79608  12.272   5.282   2.159 -0.1839  1.0631  0.0538
  577MOL0     H79609  12.084   5.091   2.183  3.0054 -1.0864  1.3739
  577MOL0     H79610  11.044   3.487   1.706 -0.0782  0.0702  0.9895
  577MOL0     H79611  10.868   3.355   1.830 -1.0090 -0.6008 -0.3328
  577MOL0     H79612  10.369   3.381   1.796  1.8812  0.6839  1.0459
  577MOL0     H79613  10.154   3.310   1.846  0.5283  1.9244  0.6195
  577MOL0     H79614   9.947   3.320   1.954  1.9206 -0.3232 -0.3498
  577MOL0     H79615   9.996   3.169   1.899 -0.0672 -1.2595  0.4817
  577MOL0     H79616   9.764   3.226   1.979  0.9984 -0.7507 -1.8237
  577MOL0     H79617   9.804   3.175   2.143 -4.9973  2.1463 -0.8603
  577MOL0     H79618   9.689   2.996   1.989  0.6105 -0.6360  3.6705
  577MOL0     H79619   9.834   2.996   1.890 -1.5771 -1.2252 -0.5744
  577MOL0     H79620   9.836   2.942   2.199  3.5347  0.0488  0.4345
  577MOL0     H79621   9.964   2.951   2.106 -0.1005  1.5652  2.3104
  577MOL0     H79622   9.844   2.567   1.953 -3.0872 -1.6447  2.0863
  577MOL0     H79623  10.309   3.159   2.225  0.2942  0.1537 -0.0562
  577MOL0     H79624  10.510   3.193   2.305  2.0762 -0.8346 -0.4123
  577MOL0     H79625  10.623   3.182   2.159 -0.7313 -1.5416  0.0207
  577MOL0     H79626  10.581   3.339   2.232 -1.0757  0.6894 -0.1034
  578MOL0     O79627   2.072   8.313   8.422  0.3039  0.5389  0.1556
  578MOL0     C79628   1.969   8.359   8.458 -0.3655  0.2504 -0.4588
  578MOL0     O79629   1.959   8.480   8.528  0.3572 -0.5423  0.3115
  578MOL0     C79630   2.068   8.550   8.572  0.0605 -0.6782  0.0808
  578MOL0     C79631   2.063   8.692   8.570  0.9518 -0.2124  0.2278
  578MOL0     C79632   2.158   8.767   8.642  0.4125  0.4995 -0.5534
  578MOL0     C79633   2.266   8.706   8.701  0.6912 -0.0931  0.1351
  578MOL0     O79634   2.367   8.782   8.750  0.4204 -0.5027 -0.7122
  578MOL0     C79635   2.333   8.846   8.881  0.1072  1.0742 -0.4971
  578MOL0     C79636   2.401   8.981   8.880  0.7229 -0.3415 -0.4591
  578MOL0     C79637   2.551   8.959   8.871 -0.4199 -0.4960  0.4492
  578MOL0     C79638   2.631   9.088   8.841 -0.5487 -0.2866 -0.5826
  578MOL0     C79639   2.592   9.201   8.938 -0.0552 -0.1010  0.5093
  578MOL0     C79640   2.630   9.158   9.076 -0.6952  0.3010  0.1589
  578MOL0     C79641   2.607   9.269   9.182  0.8826 -0.6320 -0.2911
  578MOL0     C79642   2.463   9.314   9.206 -0.0284  0.2370 -0.4158
  578MOL0     N79643   2.465   9.435   9.292 -0.1461 -0.3941  1.0773
  578MOL0     C79644   2.426   9.439   9.424 -0.5784 -0.8760 -0.3577
  578MOL0     C79645   2.424   9.569   9.462  0.6288 -0.3567 -0.3343
  578MOL0     C79646   2.387   9.623   9.599 -0.7169  0.1448 -0.3623
  578MOL0     C79647   2.513   9.662   9.677  0.2181 -0.4519 -0.2168
  578MOL0     C79648   2.612   9.546   9.709 -0.5616  0.5619  0.0099
  578MOL0     C79649   2.689   9.577   9.834 -0.3481  0.7698 -0.2449
  578MOL0     O79650   2.765   9.688   9.812  0.0221 -0.7596  0.9800
  578MOL0     C79651   2.855   9.726   9.907  0.5661 -0.0402 -0.0655
  578MOL0     C79652   2.907   9.854   9.885  0.3481 -0.6154 -0.3934
  578MOL0     C79653   3.004   9.900   9.972  0.0885 -0.2200 -0.1357
  578MOL0     C79654   3.039  10.040   9.938 -0.1419 -0.4932  0.2250
  578MOL0     C79655   3.046   9.820  10.085  0.5344 -0.0483 -0.3833
  578MOL0     C79656   3.154   9.860  10.174 -0.0850  0.9967  0.0810
  578MOL0     O79657   3.254   9.932  10.120 -0.2475  0.3004  0.7997
  578MOL0     C79658   3.375   9.957  10.186 -0.0237  0.4356  0.3295
  578MOL0     C79659   3.388   9.983  10.322  0.4114 -0.6220 -0.4313
  578MOL0     C79660   3.517  10.033  10.378 -0.1774  0.1793  0.7587
  578MOL0     C79661   3.628  10.047  10.294  0.2847 -0.0053  0.5332
  578MOL0     O79662   3.741  10.102  10.356  0.0018  0.3146 -0.0393
  578MOL0     C79663   3.844  10.138  10.263 -0.1198  0.0030  0.3505
  578MOL0     C79664   3.949  10.194  10.353  0.7212 -0.0516 -1.0134
  578MOL0     C79665   4.074  10.238  10.283 -0.1653 -0.4339  0.4742
  578MOL0     C79666   4.201  10.204  10.350  0.3646  0.3710 -0.5404
  578MOL0     C79667   4.336  10.262  10.287 -0.3595 -0.2259 -0.5826
  578MOL0     C79668   4.450  10.164  10.315 -0.2491 -0.3276  0.2921
  578MOL0     C79669   4.496  10.162  10.461 -0.9070  0.2605  0.2422
  578MOL0     C79670   4.562  10.296  10.496 -0.0965 -0.1848  0.2979
  578MOL0    Cl79671   4.606  10.404  10.358 -0.1300  0.0381 -0.5288
  578MOL0     C79672   3.613  10.018  10.158  0.2454 -0.9239 -0.7537
  578MOL0     C79673   3.486   9.982  10.104  0.1415  0.3955 -0.0006
  578MOL0     O79674   3.145   9.834  10.294 -0.0394 -0.6374  0.9273
  578MOL0     C79675   2.990   9.694  10.106  0.1641  0.1942  0.2903
  578MOL0     C79676   2.895   9.646  10.019  0.5774 -0.3111  0.2297
  578MOL0     N79677   2.476   9.633   9.355 -0.6856 -0.3505  0.4412
  578MOL0     N79678   2.485   9.560   9.249  0.2908 -0.1645 -0.4262
  578MOL0     C79679   2.273   8.571   8.705 -0.0552  0.1093  0.2473
  578MOL0     C79680   2.179   8.490   8.645 -1.2986  0.1939  0.7450
  578MOL0     C79681   1.833   8.299   8.420 -0.2165  0.0201  0.2459
  578MOL0     C79682   1.724   8.364   8.477 -0.9535 -0.4396  0.8098
  578MOL0     C79683   1.600   8.334   8.427  0.3198  0.2510  0.6717
  578MOL0     C79684   1.573   8.227   8.340  0.1504  0.4721  0.1469
  578MOL0     O79685   1.445   8.214   8.295  0.3927 -0.2023  0.0057
  578MOL0     C79686   1.427   8.140   8.170 -0.3988 -0.4903 -0.1508
  578MOL0     C79687   1.276   8.140   8.139 -0.9704  0.3977  0.7802
  578MOL0     C79688   1.183   8.078   8.241 -0.0450 -1.1021  0.4808
  578MOL0     C79689   1.040   8.125   8.223  0.4267 -0.2412 -0.4682
  578MOL0     C79690   0.945   8.038   8.289  0.6583  0.8630 -0.2723
  578MOL0     C79691   0.851   7.967   8.329 -0.4370  0.4701  0.8874
  578MOL0     C79692   1.679   8.147   8.294 -0.3578  0.5495  0.0119
  578MOL0     C79693   1.811   8.187   8.329  0.1849  0.8254  0.4097
  578MOL0     C79694   1.922   8.101   8.284  0.5110  0.5393  0.0233
  578MOL0     H79695   1.992   8.734   8.500 -0.8874 -0.6383  1.7606
  578MOL0     H79696   2.156   8.875   8.645  0.6598  0.4841  0.7420
  578MOL0     H79697   2.366   8.783   8.963  1.2665  2.9007  0.5171
  578MOL0     H79698   2.225   8.859   8.880  0.0893  0.9303 -0.4249
  578MOL0     H79699   2.361   9.042   8.799  0.9871 -0.0297 -0.3617
  578MOL0     H79700   2.374   9.029   8.975  0.7321 -0.1079 -0.5745
  578MOL0     H79701   2.588   8.909   8.961 -2.2043  2.1211  2.8185
  578MOL0     H79702   2.564   8.895   8.784 -1.2566 -0.2386  0.1201
  578MOL0     H79703   2.739   9.075   8.840 -0.3029  1.3856  0.4981
  578MOL0     H79704   2.591   9.122   8.745 -1.4301  0.0512 -0.1133
  578MOL0     H79705   2.484   9.210   8.932 -0.1881 -2.1422 -1.9013
  578MOL0     H79706   2.645   9.289   8.900  0.1399 -0.5511 -0.2871
  578MOL0     H79707   2.575   9.066   9.098 -1.7843  1.2120  1.4497
  578MOL0     H79708   2.737   9.142   9.091 -1.2278 -1.2890  3.1685
  578MOL0     H79709   2.656   9.363   9.157 -1.8851  1.4593  1.5435
  578MOL0     H79710   2.649   9.229   9.275  0.2860  0.3256  0.4014
  578MOL0     H79711   2.414   9.339   9.112 -0.2088 -0.3557 -0.4842
  578MOL0     H79712   2.404   9.231   9.248 -1.5284  0.4165 -2.0832
  578MOL0     H79713   2.390   9.365   9.495 -1.8019  0.1182  0.0969
  578MOL0     H79714   2.330   9.552   9.659  2.5064 -2.3057  0.0638
  578MOL0     H79715   2.318   9.703   9.570 -0.1063  0.8327  0.0433
  578MOL0     H79716   2.558   9.742   9.618 -1.1309  0.7223  0.3137
  578MOL0     H79717   2.489   9.718   9.768  1.4827 -0.5613  0.2100
  578MOL0     H79718   2.576   9.445   9.731  4.3474 -0.9585  2.6459
  578MOL0     H79719   2.678   9.544   9.621 -1.0116  1.5522 -0.3684
  578MOL0     H79720   2.615   9.588   9.914  0.0034 -2.5969  0.6928
  578MOL0     H79721   2.756   9.495   9.861  0.1857  1.2989  0.0889
  578MOL0     H79722   2.872   9.923   9.810 -1.0570 -2.0673 -1.1284
  578MOL0     H79723   2.959  10.103   9.897  1.1431  0.5566 -0.7635
  578MOL0     H79724   3.126  10.023   9.874 -0.0488 -0.0840  0.2376
  578MOL0     H79725   3.067  10.099  10.025  0.6825 -2.2211  1.1644
  578MOL0     H79726   3.307   9.976  10.393 -1.0177  1.4289 -1.7320
  578MOL0     H79727   3.535  10.043  10.485  5.1535 -0.5500  0.2354
  578MOL0     H79728   3.891  10.049  10.219  0.9322  1.1275 -0.8770
  578MOL0     H79729   3.810  10.196  10.177 -3.7052 -0.2589  1.4640
  578MOL0     H79730   3.905  10.284  10.398 -0.9467 -2.0557  1.6701
  578MOL0     H79731   3.962  10.133  10.443 -2.8770  1.6313  0.8805
  578MOL0     H79732   4.083  10.346  10.265 -0.9917 -0.4424 -0.0241
  578MOL0     H79733   4.069  10.196  10.182 -1.1306  0.5547  0.0896
  578MOL0     H79734   4.186  10.096  10.341  0.5967  0.5322 -4.6140
  578MOL0     H79735   4.201  10.244  10.452 -0.0403  2.2014 -1.2232
  578MOL0     H79736   4.312  10.266  10.180  1.7095  0.6162 -1.0651
  578MOL0     H79737   4.351  10.364  10.322  0.5123 -0.0934 -1.2996
  578MOL0     H79738   4.537  10.197  10.257  0.7128 -0.0314  1.8252
  578MOL0     H79739   4.413  10.063  10.295  3.1637 -1.6071 -0.2336
  578MOL0     H79740   4.562  10.080  10.492 -1.8140  0.0437  1.7168
  578MOL0     H79741   4.408  10.144  10.524 -1.0654  0.6679  0.1415
  578MOL0     H79742   4.660  10.280  10.543  1.3269 -0.2771 -2.4841
  578MOL0     H79743   4.489  10.353  10.553  0.6045 -0.1926  1.2316
  578MOL0     H79744   3.699  10.030  10.092  1.1982 -0.2522  0.5471
  578MOL0     H79745   3.489   9.972   9.996  1.9446 -1.3610  0.1464
  578MOL0     H79746   3.029   9.634  10.188  1.8108 -1.5299 -1.6510
  578MOL0     H79747   2.853   9.547  10.032 -1.1283  0.4303  0.7267
  578MOL0     H79748   2.361   8.523   8.746 -0.6424 -0.8982  0.3751
  578MOL0     H79749   2.174   8.384   8.668 -2.7043  0.3691  1.3627
  578MOL0     H79750   1.726   8.440   8.554  0.2499  1.1550 -0.7049
  578MOL0     H79751   1.517   8.396   8.458 -0.3940  0.1881 -0.9810
  578MOL0     H79752   1.482   8.187   8.088  0.0716 -0.3318  0.2552
  578MOL0     H79753   1.472   8.042   8.188  1.9365  1.0641  3.6887
  578MOL0     H79754   1.263   8.094   8.040 -1.2460  0.4403  0.7954
  578MOL0     H79755   1.245   8.243   8.119  1.5837  0.6559 -2.9793
  578MOL0     H79756   1.173   7.970   8.223 -0.6566 -0.9679 -0.0069
  578MOL0     H79757   1.212   8.096   8.345  1.1430  0.9602 -0.1552
  578MOL0     H79758   1.017   8.120   8.116  1.1110 -0.9221 -0.6006
  578MOL0     H79759   1.031   8.229   8.255 -0.5497 -0.1099 -1.1277
  578MOL0     H79760   0.771   7.901   8.356  0.6937 -1.5638 -0.4705
  578MOL0     H79761   1.661   8.061   8.230 -0.6650 -1.5789  2.7983
  578MOL0     H79762   1.967   8.049   8.370  0.4864  0.0793 -0.2352
  578MOL0     H79763   1.884   8.022   8.219  0.3241  2.0934 -1.8285
  578MOL0     H79764   1.993   8.154   8.220  0.8251 -2.0585 -1.9829
  579MOL0     O79765   2.401   4.656   2.492  0.4543  0.5830 -0.1953
  579MOL0     C79766   2.339   4.725   2.420  0.7261  0.0268  0.7672
  579MOL0     O79767   2.328   4.705   2.280  0.0440 -0.1016  0.6017
  579MOL0     C79768   2.434   4.640   2.226  0.4483  0.4472 -0.3049
  579MOL0     C79769   2.452   4.497   2.239 -0.2562  0.4067 -0.4807
  579MOL0     C79770   2.558   4.430   2.180 -1.0005  0.2872 -0.8469
  579MOL0     C79771   2.656   4.497   2.115 -0.2432  0.3403  0.1147
  579MOL0     O79772   2.757   4.444   2.052 -0.1845  0.0911 -0.2572
  579MOL0     C79773   2.808   4.313   2.110 -0.3784 -0.7349  0.3668
  579MOL0     C79774   2.954   4.294   2.063  0.8363  0.0725  0.1542
  579MOL0     C79775   2.968   4.287   1.911  0.9575  0.0826 -0.1198
  579MOL0     C79776   3.117   4.258   1.881 -1.3513  0.1628 -0.4099
  579MOL0     C79777   3.148   4.304   1.732  0.0939 -0.4297  0.0180
  579MOL0     C79778   3.270   4.231   1.672 -0.0413  0.3390 -1.0247
  579MOL0     C79779   3.311   4.294   1.538 -0.7531 -0.5693  0.8747
  579MOL0     C79780   3.430   4.227   1.469 -0.3289  0.5843  0.0050
  579MOL0     N79781   3.556   4.235   1.541  0.2335  0.5534  0.3351
  579MOL0     C79782   3.603   4.356   1.608  0.8138  0.5175 -0.2783
  579MOL0     C79783   3.673   4.311   1.710  0.6966 -0.5751 -0.3872
  579MOL0     C79784   3.733   4.384   1.835  0.4972  0.0992 -0.2853
  579MOL0     C79785   3.887   4.367   1.846 -0.4817  0.0983 -0.0239
  579MOL0     C79786   3.965   4.436   1.956  0.6011  1.0423  0.7341
  579MOL0     C79787   4.115   4.393   1.961  0.3102 -0.2374  0.5973
  579MOL0     O79788   4.163   4.425   2.089 -0.4751 -0.2892 -1.1348
  579MOL0     C79789   4.276   4.500   2.100 -0.0202 -0.5669  0.2258
  579MOL0     C79790   4.266   4.636   2.110  0.4414 -0.2555 -0.5370
  579MOL0     C79791   4.381   4.724   2.136  0.3892  0.0241  0.8543
  579MOL0     C79792   4.348   4.869   2.143 -0.7831 -0.8479  0.6478
  579MOL0     C79793   4.509   4.669   2.148  0.6755  0.1163 -0.5101
  579MOL0     C79794   4.628   4.753   2.196 -0.1466 -0.1828  0.3671
  579MOL0     O79795   4.604   4.866   2.263 -0.3794 -0.8586 -0.0907
  579MOL0     C79796   4.698   4.963   2.304 -0.0519 -0.2130 -0.3740
  579MOL0     C79797   4.637   5.084   2.344  0.6348 -0.1823  0.8317
  579MOL0     C79798   4.717   5.191   2.379  0.0388 -0.5468 -0.3317
  579MOL0     C79799   4.853   5.180   2.380 -0.2947  0.4901 -0.4569
  579MOL0     O79800   4.921   5.284   2.430  0.1270  0.8402  0.3494
  579MOL0     C79801   5.016   5.255   2.530 -0.2529  0.0238  0.3097
  579MOL0     C79802   5.156   5.297   2.486  0.3070  0.6872  0.0751
  579MOL0     C79803   5.255   5.253   2.589  0.3007  0.1181 -0.2822
  579MOL0     C79804   5.274   5.363   2.705 -0.3685  0.2155 -0.0289
  579MOL0     C79805   5.356   5.309   2.824 -0.3927  0.4578  1.1705
  579MOL0     C79806   5.504   5.317   2.793 -0.5255 -0.9511  0.0617
  579MOL0     C79807   5.579   5.275   2.917 -0.1419  0.3093 -0.6305
  579MOL0     C79808   5.729   5.303   2.912 -0.6829  0.8115 -0.1886
  579MOL0    Cl79809   5.826   5.224   3.044 -0.4674  0.2358  0.5698
  579MOL0     C79810   4.911   5.053   2.362 -0.5130 -0.2707  1.2152
  579MOL0     C79811   4.836   4.947   2.324  0.1457 -0.4272 -0.7995
  579MOL0     O79812   4.739   4.702   2.180  0.7874 -0.4315  0.1850
  579MOL0     C79813   4.520   4.533   2.123 -0.5012  0.2146 -0.0045
  579MOL0     C79814   4.407   4.451   2.110 -0.0862  0.3454 -0.7801
  579MOL0     N79815   3.684   4.174   1.697  0.5529 -1.7382  0.0683
  579MOL0     N79816   3.612   4.125   1.602 -0.0381 -0.0261  0.2592
  579MOL0     C79817   2.628   4.632   2.078  0.5020  1.1669 -0.1059
  579MOL0     C79818   2.516   4.707   2.134 -0.3194 -0.3342  0.7243
  579MOL0     C79819   2.227   4.808   2.480  0.1570  0.9615 -0.2007
  579MOL0     C79820   2.125   4.846   2.400 -0.5280 -0.2573  0.2851
  579MOL0     C79821   2.017   4.927   2.436 -0.2844 -0.2224 -0.1788
  579MOL0     C79822   2.007   4.972   2.568  0.1085  0.0677 -0.1726
  579MOL0     O79823   1.889   5.036   2.600  0.6190 -0.0373 -0.2870
  579MOL0     C79824   1.858   5.037   2.735  0.3117 -0.5758  0.1196
  579MOL0     C79825   1.740   5.125   2.765 -0.5816 -0.7980 -1.5365
  579MOL0     C79826   1.607   5.089   2.707 -0.3713 -0.2319 -0.1011
  579MOL0     C79827   1.498   5.181   2.766  0.3933 -0.2137 -1.3513
  579MOL0     C79828   1.370   5.157   2.696 -0.1005  0.5230 -0.7261
  579MOL0     C79829   1.274   5.127   2.640  0.5386 -0.1039  0.0952
  579MOL0     C79830   2.107   4.932   2.655  0.1320 -0.2362 -0.0666
  579MOL0     C79831   2.216   4.859   2.618 -0.3768 -0.4706  0.0879
  579MOL0     C79832   2.320   4.827   2.719 -0.1009  0.5132  1.2031
  579MOL0     H79833   2.371   4.441   2.284  0.6492 -0.6347 -0.1099
  579MOL0     H79834   2.576   4.324   2.192 -0.1148  0.3590 -1.4575
  579MOL0     H79835   2.747   4.240   2.056  0.5571 -1.3293  0.0840
  579MOL0     H79836   2.798   4.304   2.218 -2.8644  3.9176  0.7800
  579MOL0     H79837   3.029   4.353   2.117  0.1824 -0.2494  1.4431
  579MOL0     H79838   2.967   4.189   2.092 -0.0911 -0.3244 -0.7934
  579MOL0     H79839   2.902   4.212   1.866 -0.2400  1.5885 -0.9533
  579MOL0     H79840   2.938   4.379   1.859 -0.3097 -1.5594 -2.4969
  579MOL0     H79841   3.188   4.303   1.952  1.0962 -3.8730  0.0522
  579MOL0     H79842   3.134   4.152   1.903  0.2604 -0.4922 -4.0580
  579MOL0     H79843   3.159   4.413   1.734  1.7975 -0.5273 -1.4114
  579MOL0     H79844   3.060   4.274   1.675 -0.4892 -3.7147  2.3677
  579MOL0     H79845   3.348   4.250   1.747 -0.2712 -0.7527 -0.5009
  579MOL0     H79846   3.258   4.124   1.655 -3.0722  0.4277 -0.0215
  579MOL0     H79847   3.318   4.402   1.546 -0.8239 -0.4786 -0.1863
  579MOL0     H79848   3.230   4.267   1.470  0.6379 -0.7201 -0.7819
  579MOL0     H79849   3.412   4.119   1.462  0.4905  0.2584  2.1646
  579MOL0     H79850   3.442   4.261   1.366  2.1322  0.0051  0.0420
  579MOL0     H79851   3.566   4.456   1.587 -2.5949 -0.4006  0.7301
  579MOL0     H79852   3.686   4.348   1.927  2.7912 -1.7971  0.2496
  579MOL0     H79853   3.722   4.492   1.824  0.1097 -0.0391 -1.3174
  579MOL0     H79854   3.904   4.259   1.857  0.4404 -0.0700 -2.5124
  579MOL0     H79855   3.935   4.391   1.751  1.4076 -1.3227  0.5037
  579MOL0     H79856   3.963   4.545   1.964 -0.8500  1.1093 -0.1692
  579MOL0     H79857   3.914   4.404   2.047 -2.3201 -0.7164 -1.3540
  579MOL0     H79858   4.112   4.284   1.949 -2.1551 -0.0770 -0.9423
  579MOL0     H79859   4.168   4.449   1.884 -0.3227 -2.1399 -1.3256
  579MOL0     H79860   4.170   4.686   2.099  0.2027  0.1734  2.4915
  579MOL0     H79861   4.427   4.926   2.095 -1.6360 -0.1947  0.0009
  579MOL0     H79862   4.345   4.903   2.247 -1.4575 -0.3335  0.4690
  579MOL0     H79863   4.254   4.889   2.091 -1.5713  2.6677  3.0804
  579MOL0     H79864   4.528   5.087   2.350  0.7036  3.0812  2.2820
  579MOL0     H79865   4.677   5.287   2.410 -1.6045 -0.7556 -1.6928
  579MOL0     H79866   4.989   5.317   2.616  1.5680  0.3665  0.6897
  579MOL0     H79867   5.024   5.149   2.555 -0.7742  0.2841  1.6206
  579MOL0     H79868   5.181   5.253   2.389  0.2996 -0.4254  0.5572
  579MOL0     H79869   5.169   5.403   2.464 -2.9478  1.1116 -0.4427
  579MOL0     H79870   5.348   5.231   2.536  1.8027 -2.0962  2.9247
  579MOL0     H79871   5.229   5.155   2.630 -1.2522 -0.0058 -1.4445
  579MOL0     H79872   5.171   5.370   2.741 -0.1390  0.8765  0.5270
  579MOL0     H79873   5.302   5.465   2.678  1.7697 -0.7206 -1.7267
  579MOL0     H79874   5.322   5.366   2.910 -1.4234  0.8093  0.5498
  579MOL0     H79875   5.326   5.206   2.842 -0.4112  0.3537  0.5589
  579MOL0     H79876   5.530   5.420   2.767 -1.9695 -0.7090 -0.5001
  579MOL0     H79877   5.538   5.261   2.705 -1.5922  0.2448 -1.1691
  579MOL0     H79878   5.572   5.166   2.926  2.6141  0.1229  0.1723
  579MOL0     H79879   5.530   5.322   3.002 -1.2488 -0.4997 -0.8046
  579MOL0     H79880   5.738   5.411   2.923  0.1895  0.6345  1.0498
  579MOL0     H79881   5.768   5.269   2.816  0.6955 -0.9652  0.9300
  579MOL0     H79882   5.018   5.034   2.365 -0.6872 -2.0139 -0.6618
  579MOL0     H79883   4.891   4.855   2.305 -0.3737 -0.8231 -0.4087
  579MOL0     H79884   4.619   4.488   2.125 -0.5895  0.0279  1.6949
  579MOL0     H79885   4.424   4.344   2.098 -3.4598 -0.2740 -1.1866
  579MOL0     H79886   2.696   4.682   2.009 -0.0834  0.8730 -0.9051
  579MOL0     H79887   2.523   4.815   2.123  2.1788 -0.5583 -0.7196
  579MOL0     H79888   2.121   4.811   2.297 -0.2113 -0.7701  0.4441
  579MOL0     H79889   1.934   4.940   2.367  0.6174 -2.1658 -1.7186
  579MOL0     H79890   1.844   4.932   2.764  1.5989 -0.1413  2.6386
  579MOL0     H79891   1.940   5.073   2.797  0.3777 -0.0422 -0.2745
  579MOL0     H79892   1.763   5.229   2.741 -1.0406 -0.6639 -1.4063
  579MOL0     H79893   1.722   5.119   2.873 -1.5182 -0.5211 -1.6704
  579MOL0     H79894   1.610   5.104   2.599 -1.6184  0.4471 -0.0522
  579MOL0     H79895   1.595   4.981   2.723 -2.0166  0.1325  1.4539
  579MOL0     H79896   1.538   5.282   2.756  3.6184 -1.1293  0.6341
  579MOL0     H79897   1.473   5.163   2.871 -1.7678  0.3943 -1.7090
  579MOL0     H79898   1.186   5.087   2.594  0.6783  1.2564 -1.4819
  579MOL0     H79899   2.113   4.984   2.750  2.7406  3.2845 -1.9495
  579MOL0     H79900   2.267   4.848   2.813 -2.3970 -0.2892  0.1851
  579MOL0     H79901   2.343   4.720   2.713 -2.2135  0.0747 -3.8724
  579MOL0     H79902   2.415   4.877   2.701  0.2121  0.3879  2.3768
  580MOL0     O79903  11.318   6.887   5.013 -0.6119 -0.3504 -0.1826
  580MOL0     C79904  11.366   6.836   4.916  0.4666  0.8245 -0.0004
  580MOL0     O79905  11.490   6.774   4.907 -0.1670 -0.8859  0.2267
  580MOL0     C79906  11.596   6.800   4.989 -0.3159  0.6297  0.7132
  580MOL0     C79907  11.606   6.915   5.067 -0.3781 -0.8395 -1.3265
  580MOL0     C79908  11.719   6.942   5.144 -0.1752  0.7477  0.1811
  580MOL0     C79909  11.808   6.835   5.164 -0.3223 -0.3642 -0.3614
  580MOL0     O79910  11.914   6.832   5.251 -0.6330 -0.0116  0.8266
  580MOL0     C79911  11.990   6.955   5.267  0.4084 -0.1764  0.0948
  580MOL0     C79912  12.113   6.937   5.360  0.5422 -0.2215 -0.6464
  580MOL0     C79913  12.090   6.845   5.492  0.0375 -0.6846  0.1452
  580MOL0     C79914  12.218   6.824   5.570 -0.5784 -0.6124 -0.1577
  580MOL0     C79915  12.179   6.770   5.710 -0.1844  0.5305  0.3071
  580MOL0     C79916  12.090   6.849   5.794 -0.3853  0.2455 -0.7678
  580MOL0     C79917  12.098   6.801   5.943 -0.7064  0.3118 -0.5012
  580MOL0     C79918  12.190   6.882   6.034 -0.3258 -0.8468  0.8963
  580MOL0     N79919  12.325   6.898   5.975  1.2283  1.0349  0.3451
  580MOL0     C79920  12.420   6.801   5.964 -0.3857 -0.4602 -0.4448
  580MOL0     C79921  12.504   6.844   5.870  1.1181 -0.5368  0.1457
  580MOL0     C79922  12.612   6.765   5.800  0.2901 -0.9605 -0.0930
  580MOL0     C79923  12.753   6.798   5.863  0.7398 -0.2807 -0.6268
  580MOL0     C79924  12.792   6.951   5.855  0.9662 -0.3002  0.3082
  580MOL0     C79925  12.934   6.982   5.899  0.7404  0.7120  0.2344
  580MOL0     O79926  13.040   6.958   5.795  0.0650 -0.2553 -0.0143
  580MOL0     C79927  13.167   7.001   5.803 -0.9715  0.4027 -0.1759
  580MOL0     C79928  13.257   6.956   5.712  0.8559 -0.8427  0.1546
  580MOL0     C79929  13.386   7.022   5.690  0.8798 -0.2841 -0.0850
  580MOL0     C79930  13.474   6.978   5.573 -0.0263  0.3663 -0.3716
  580MOL0     C79931  13.426   7.124   5.785 -0.7246 -0.0277  0.4006
  580MOL0     C79932  13.566   7.191   5.784 -0.0276  1.1811  0.4806
  580MOL0     O79933  13.602   7.250   5.899 -0.3932 -0.4423 -0.0703
  580MOL0     C79934  13.728   7.297   5.921 -0.0909 -0.0144  0.4353
  580MOL0     C79935  13.763   7.427   5.894  0.0586 -0.6435  0.3641
  580MOL0     C79936  13.890   7.486   5.911 -0.6463 -0.2392 -0.5459
  580MOL0     C79937  13.994   7.410   5.964  1.1798 -0.1828  0.8596
  580MOL0     O79938  14.118   7.459   5.990  0.5759 -0.0555 -0.6786
  580MOL0     C79939  14.191   7.410   6.104 -0.8552  0.0227 -0.4759
  580MOL0     C79940  14.294   7.307   6.059  0.0289 -0.2947 -1.7348
  580MOL0     C79941  14.357   7.237   6.184  0.0821 -1.0080  0.3481
  580MOL0     C79942  14.454   7.119   6.144  0.1338 -0.4582 -0.8346
  580MOL0     C79943  14.568   7.157   6.042 -0.5454 -0.2125 -0.1121
  580MOL0     C79944  14.657   7.039   5.994 -0.1100  0.7071 -0.5334
  580MOL0     C79945  14.764   7.083   5.898 -0.4353 -0.2307 -0.3853
  580MOL0     C79946  14.852   7.205   5.936 -0.2988 -0.6912 -0.0463
  580MOL0    Cl79947  14.992   7.239   5.820  0.4350  0.3522 -0.2979
  580MOL0     C79948  13.968   7.273   5.981  1.0662  0.4710  0.2915
  580MOL0     C79949  13.839   7.218   5.959  0.2142 -0.8716  0.3638
  580MOL0     O79950  13.641   7.182   5.686  0.0791 -0.1074  0.0963
  580MOL0     C79951  13.341   7.152   5.891  0.9129 -0.8628  0.1977
  580MOL0     C79952  13.212   7.091   5.899 -0.3051 -0.3804 -0.2640
  580MOL0     N79953  12.475   6.978   5.847 -0.1964  0.1418 -0.4156
  580MOL0     N79954  12.363   7.007   5.901 -0.9000  0.4945 -0.3430
  580MOL0     C79955  11.813   6.722   5.074 -0.7262 -0.0590 -0.2407
  580MOL0     C79956  11.696   6.703   4.998 -0.0358  0.5797  1.0354
  580MOL0     C79957  11.277   6.829   4.790 -0.7272  0.7223  0.0523
  580MOL0     C79958  11.162   6.909   4.781 -0.5728 -0.1753  0.5828
  580MOL0     C79959  11.075   6.902   4.668  0.5678  0.3457 -0.7653
  580MOL0     C79960  11.097   6.808   4.571  0.1151  0.2837  0.8023
  580MOL0     O79961  11.009   6.806   4.465  0.0464 -0.0700  0.3144
  580MOL0     C79962  11.066   6.793   4.335 -0.5425  0.1474  0.1523
  580MOL0     C79963  10.970   6.854   4.235 -0.5573 -0.1891  0.6760
  580MOL0     C79964  10.989   6.807   4.090 -0.2294 -0.5475  0.4300
  580MOL0     C79965  11.105   6.875   4.011 -0.6524 -0.7558 -0.4466
  580MOL0     C79966  11.239   6.838   4.043 -0.5552  0.9682 -0.3567
  580MOL0     C79967  11.348   6.787   4.066  0.7685  0.4443  0.3738
  580MOL0     C79968  11.207   6.720   4.586 -0.2023  1.2398 -0.1886
  580MOL0     C79969  11.299   6.733   4.688 -0.4132 -0.5662 -0.1228
  580MOL0     C79970  11.399   6.632   4.691  0.0795  0.4267  0.4809
  580MOL0     H79971  11.534   6.997   5.071  1.2760  0.6605 -1.3400
  580MOL0     H79972  11.725   7.028   5.211 -0.6009  1.5930 -0.8473
  580MOL0     H79973  11.924   7.035   5.304  3.1783  2.7999 -0.9712
  580MOL0     H79974  12.036   6.992   5.175  2.8652  2.8501  2.3064
  580MOL0     H79975  12.196   6.902   5.298 -1.0956 -0.2612 -2.8925
  580MOL0     H79976  12.136   7.039   5.393 -2.1679 -0.1819  1.5069
  580MOL0     H79977  12.024   6.902   5.559  3.4792  3.8667  0.1137
  580MOL0     H79978  12.052   6.750   5.452 -0.3464 -1.0414  1.3167
  580MOL0     H79979  12.285   6.744   5.537 -1.3398 -1.8960  1.2785
  580MOL0     H79980  12.282   6.913   5.574 -1.2350 -0.1305  0.0038
  580MOL0     H79981  12.274   6.746   5.757  1.0848 -0.2126 -2.4337
  580MOL0     H79982  12.129   6.674   5.694 -1.3541  1.5899 -3.8791
  580MOL0     H79983  12.128   6.952   5.795 -0.5963  0.3748  2.0564
  580MOL0     H79984  11.983   6.846   5.769 -1.2092 -2.8981  2.3266
  580MOL0     H79985  12.129   6.697   5.943 -3.6594 -0.6573  0.5878
  580MOL0     H79986  12.000   6.805   5.991  0.4574 -0.8414  2.1484
  580MOL0     H79987  12.148   6.981   6.052  2.3464  0.9581 -1.8279
  580MOL0     H79988  12.194   6.830   6.130 -1.3698 -3.0117 -0.1686
  580MOL0     H79989  12.418   6.699   6.001 -0.0621 -0.0571  0.7401
  580MOL0     H79990  12.622   6.792   5.694  2.5759 -1.1054  0.0436
  580MOL0     H79991  12.585   6.659   5.807 -0.9216 -0.5756  1.9224
  580MOL0     H79992  12.748   6.758   5.965  1.4378 -1.9669 -1.2187
  580MOL0     H79993  12.826   6.739   5.808  1.5689  0.1190  0.0165
  580MOL0     H79994  12.784   6.984   5.751  1.2146 -1.7157 -0.1901
  580MOL0     H79995  12.730   7.010   5.923  0.4660 -0.5876  0.1115
  580MOL0     H79996  12.921   7.087   5.930 -2.5026 -0.0961  2.0297
  580MOL0     H79997  12.951   6.931   5.994 -0.8792 -1.4359 -0.5508
  580MOL0     H79998  13.224   6.880   5.643  1.4208 -1.9464  1.0643
  580MOL0     H79999  13.419   6.899   5.520 -1.8058  1.1534  0.2379
  580MOL0     H80000  13.567   6.934   5.610  0.7772  0.6412 -2.0186
  580MOL0     H80001  13.490   7.061   5.505 -1.8582  1.6972  0.7174
  580MOL0     H80002  13.686   7.495   5.859 -0.3810 -2.2018 -1.9076
  580MOL0     H80003  13.911   7.592   5.903 -1.4954 -0.0945 -1.0183
  580MOL0     H80004  14.245   7.494   6.148 -0.6614  0.8286 -2.1907
  580MOL0     H80005  14.121   7.364   6.175 -0.3089  1.1826  0.8695
  580MOL0     H80006  14.251   7.222   6.005  0.4594 -0.9872 -1.0149
  580MOL0     H80007  14.376   7.352   6.002  2.0121 -1.4964  0.0079
  580MOL0     H80008  14.275   7.199   6.246 -0.8806  1.6376  0.8299
  580MOL0     H80009  14.414   7.317   6.232 -0.4905  1.7220 -3.0882
  580MOL0     H80010  14.388   7.038   6.115 -0.6583 -0.1563  0.0784
  580MOL0     H80011  14.495   7.090   6.241  1.0932 -2.1945 -1.7155
  580MOL0     H80012  14.513   7.178   5.950 -0.2220 -3.3538 -1.1413
  580MOL0     H80013  14.627   7.246   6.067 -0.7621  0.2111 -1.0719
  580MOL0     H80014  14.597   6.962   5.944 -0.2325  0.6642 -0.3266
  580MOL0     H80015  14.718   7.003   6.077 -0.1441  2.3400  0.2373
  580MOL0     H80016  14.714   7.106   5.803  0.7693  0.2998 -0.9108
  580MOL0     H80017  14.834   7.000   5.886 -0.5244 -0.1820 -1.3740
  580MOL0     H80018  14.890   7.178   6.035  1.2209 -1.1432 -0.7281
  580MOL0     H80019  14.813   7.307   5.936  4.7506  1.5807 -1.9451
  580MOL0     H80020  14.044   7.209   6.026  3.0235  2.0426 -0.6345
  580MOL0     H80021  13.827   7.111   5.973  1.0539 -1.1294 -0.7445
  580MOL0     H80022  13.373   7.235   5.953  0.9593  0.2265 -1.2326
  580MOL0     H80023  13.140   7.128   5.972 -0.3640  0.9167 -0.9545
  580MOL0     H80024  11.897   6.654   5.084 -0.0491  0.8800  0.7362
  580MOL0     H80025  11.704   6.616   4.934  1.2589  1.3523  0.0682
  580MOL0     H80026  11.145   6.979   4.862 -1.6043 -1.9233  1.9308
  580MOL0     H80027  10.989   6.966   4.649  0.9851  0.7010 -1.5363
  580MOL0     H80028  11.165   6.840   4.326 -0.0236 -0.1098  3.2603
  580MOL0     H80029  11.083   6.687   4.318  0.4513  0.2544  0.4082
  580MOL0     H80030  10.990   6.962   4.228  0.5862 -0.2930  1.8808
  580MOL0     H80031  10.868   6.833   4.268 -0.4030  0.8835  1.9601
  580MOL0     H80032  10.997   6.698   4.088  2.4273 -0.5242  2.7144
  580MOL0     H80033  10.893   6.824   4.042  0.8737  1.5326 -1.2125
  580MOL0     H80034  11.107   6.985   4.017 -1.2707 -0.7387 -0.4645
  580MOL0     H80035  11.088   6.854   3.905 -1.6067  1.8157 -0.8862
  580MOL0     H80036  11.445   6.742   4.078  1.5095  2.0578  0.6683
  580MOL0     H80037  11.227   6.651   4.505  3.0821  0.9935  0.6804
  580MOL0     H80038  11.390   6.586   4.790  1.2067  0.0196  0.4132
  580MOL0     H80039  11.377   6.560   4.611  2.4488  1.2039 -0.9810
  580MOL0     H80040  11.497   6.679   4.677 -0.7103  3.2825  3.3022
  581MOL0     O80041   8.098   6.244   4.011  0.0162  0.0008  0.5263
  581MOL0     C80042   8.129   6.131   3.975 -0.0745 -0.5941 -1.0293
  581MOL0     O80043   8.042   6.026   3.980  0.3608  0.1942 -0.0415
  581MOL0     C80044   7.908   6.037   4.009 -0.7557 -0.7119 -1.1503
  581MOL0     C80045   7.811   5.986   3.920 -0.4630 -0.0270  1.2429
  581MOL0     C80046   7.681   5.991   3.944  0.2447  0.6455 -0.5388
  581MOL0     C80047   7.637   6.031   4.065 -0.7456 -0.5832 -0.5710
  581MOL0     O80048   7.507   6.034   4.096  0.3929  0.1424  0.5197
  581MOL0     C80049   7.424   5.917   4.073  0.6296  0.2778  0.7211
  581MOL0     C80050   7.293   5.937   4.137 -0.8933  0.1101  1.3661
  581MOL0     C80051   7.182   5.836   4.076  0.3530  0.4190 -0.3103
  581MOL0     C80052   7.125   5.886   3.938  0.5552 -0.8613 -0.1606
  581MOL0     C80053   7.065   5.781   3.859  0.1350  1.1471 -0.0184
  581MOL0     C80054   6.928   5.738   3.924 -0.2026  0.3093 -0.4353
  581MOL0     C80055   6.845   5.657   3.818  0.4066 -0.1529 -0.0734
  581MOL0     C80056   6.768   5.548   3.872 -0.0845  0.1659 -0.4799
  581MOL0     N80057   6.695   5.587   3.995  0.0944  0.5218 -0.7838
  581MOL0     C80058   6.579   5.666   3.991  0.1141 -1.5092 -0.2049
  581MOL0     C80059   6.510   5.654   4.108  0.4070 -1.0204  0.4846
  581MOL0     C80060   6.369   5.718   4.142 -0.3036 -0.2956  0.3679
  581MOL0     C80061   6.354   5.706   4.294 -0.2422  0.3236 -0.0751
  581MOL0     C80062   6.220   5.765   4.345  0.0049 -0.0060  0.2189
  581MOL0     C80063   6.174   5.708   4.485  0.4337  0.0578  0.0580
  581MOL0     O80064   6.124   5.570   4.484 -0.6347 -0.2058  0.2958
  581MOL0     C80065   5.998   5.545   4.436 -0.0934  0.4205  0.0294
  581MOL0     C80066   5.966   5.405   4.435 -0.1020  0.0642  0.5211
  581MOL0     C80067   5.843   5.349   4.409 -0.2434  0.4156 -0.4927
  581MOL0     C80068   5.806   5.214   4.468  0.3636 -0.1566  0.4088
  581MOL0     C80069   5.738   5.431   4.367  0.3702  0.3488 -0.4253
  581MOL0     C80070   5.619   5.369   4.318  0.0885 -0.7589  0.3232
  581MOL0     O80071   5.637   5.260   4.243  0.9708  0.4523 -0.1087
  581MOL0     C80072   5.528   5.182   4.202 -0.0595  0.3739  0.7802
  581MOL0     C80073   5.538   5.045   4.232  0.1206 -0.3101  0.4987
  581MOL0     C80074   5.439   4.954   4.211  1.1699  0.0098 -0.0600
  581MOL0     C80075   5.321   4.989   4.148 -0.3571  0.3245  0.1898
  581MOL0     O80076   5.226   4.891   4.137  0.0457 -0.3296  0.0486
  581MOL0     C80077   5.098   4.935   4.101  1.0024  0.5172 -0.5257
  581MOL0     C80078   5.072   4.952   3.952  0.9463  1.0207 -0.5241
  581MOL0     C80079   4.926   4.903   3.922  0.0119  0.2643  0.7479
  581MOL0     C80080   4.888   4.912   3.771 -0.1156 -0.3570 -0.4955
  581MOL0     C80081   4.740   4.903   3.746 -0.7795 -0.0078 -0.4258
  581MOL0     C80082   4.702   4.944   3.598  0.3490 -1.1368 -0.2113
  581MOL0     C80083   4.567   5.012   3.591 -0.5163 -1.0416  0.4978
  581MOL0     C80084   4.515   4.999   3.450 -0.0447 -0.4116 -0.6681
  581MOL0    Cl80085   4.603   5.082   3.320  0.2501 -0.0255  0.3120
  581MOL0     C80086   5.312   5.120   4.095  0.3672 -0.5853  0.5108
  581MOL0     C80087   5.412   5.214   4.128  0.4122 -0.1033 -0.2131
  581MOL0     O80088   5.519   5.406   4.366  0.2393 -0.2139  0.5092
  581MOL0     C80089   5.767   5.570   4.348 -0.1630 -0.1168 -0.0220
  581MOL0     C80090   5.895   5.624   4.393  0.7382 -0.2434  0.3269
  581MOL0     N80091   6.595   5.567   4.183  0.1522 -0.2763  0.0516
  581MOL0     N80092   6.699   5.522   4.118  0.1893 -0.4679  0.0319
  581MOL0     C80093   7.725   6.082   4.158 -0.3263 -0.3958 -0.3043
  581MOL0     C80094   7.859   6.095   4.128 -0.6274  0.7065  0.1876
  581MOL0     C80095   8.272   6.096   3.949 -0.3249 -0.4733  0.4723
  581MOL0     C80096   8.303   5.957   3.937  0.6803  0.0110  0.3720
  581MOL0     C80097   8.432   5.909   3.899 -0.4288  0.6997  0.8421
  581MOL0     C80098   8.535   5.998   3.873  0.0319 -1.1034  0.4648
  581MOL0     O80099   8.662   5.970   3.840  0.2679  0.4027  0.7593
  581MOL0     C80100   8.702   5.846   3.785 -0.2851 -0.2319 -1.2578
  581MOL0     C80101   8.755   5.761   3.900  0.5604  0.6616  0.1188
  581MOL0     C80102   8.889   5.813   3.935  0.4525 -0.8905 -1.1033
  581MOL0     C80103   8.929   5.735   4.062 -0.7735  0.1941 -0.0176
  581MOL0     C80104   9.026   5.825   4.133  0.3116 -0.8116 -0.5001
  581MOL0     C80105   9.111   5.892   4.193  0.2342  0.1982  1.1906
  581MOL0     C80106   8.502   6.140   3.888 -0.3962  0.4725 -0.4162
  581MOL0     C80107   8.377   6.189   3.927  0.1604  0.3482  0.4539
  581MOL0     C80108   8.361   6.338   3.955  0.2794  0.4826  0.1737
  581MOL0     H80109   7.844   5.943   3.825 -3.0724  1.9234 -0.7163
  581MOL0     H80110   7.611   5.946   3.874 -2.1780 -1.5239  2.9653
  581MOL0     H80111   7.485   5.835   4.110  3.0789  1.3808 -0.6410
  581MOL0     H80112   7.395   5.897   3.969 -2.8459  0.8631  1.4710
  581MOL0     H80113   7.302   5.921   4.245 -0.8045 -1.8691  1.1013
  581MOL0     H80114   7.257   6.039   4.116 -2.8894 -0.4071  2.0438
  581MOL0     H80115   7.235   5.743   4.051  2.3695  1.8002 -1.4822
  581MOL0     H80116   7.106   5.824   4.153  0.0930  0.9120 -0.4870
  581MOL0     H80117   7.046   5.958   3.960  0.4108 -0.8317 -0.7511
  581MOL0     H80118   7.206   5.937   3.884  1.8215 -0.8720  1.6523
  581MOL0     H80119   7.134   5.697   3.857 -1.0438  0.1562  0.1152
  581MOL0     H80120   7.050   5.823   3.759 -0.4315  0.3100 -0.2914
  581MOL0     H80121   6.947   5.665   4.004 -1.4074  0.7011  0.2314
  581MOL0     H80122   6.865   5.813   3.971 -0.1627 -0.1153  0.3260
  581MOL0     H80123   6.909   5.613   3.742 -0.0806 -0.2331 -0.4451
  581MOL0     H80124   6.781   5.733   3.772  0.2581  0.1273  0.5843
  581MOL0     H80125   6.701   5.507   3.795  0.3331  0.7607 -1.1823
  581MOL0     H80126   6.826   5.462   3.906 -1.4337 -0.8121 -0.5949
  581MOL0     H80127   6.546   5.729   3.909 -1.5954  0.9629  2.2259
  581MOL0     H80128   6.302   5.661   4.077  0.0658 -1.5822  1.0744
  581MOL0     H80129   6.360   5.824   4.117 -0.9340  0.0794  2.0569
  581MOL0     H80130   6.357   5.599   4.314 -2.3057 -0.0668 -1.5317
  581MOL0     H80131   6.431   5.757   4.354  1.3868  0.0030 -1.8049
  581MOL0     H80132   6.225   5.874   4.341 -4.4706  0.3596 -0.4738
  581MOL0     H80133   6.141   5.736   4.275 -1.2719 -1.0422  1.9953
  581MOL0     H80134   6.260   5.699   4.553  1.6755 -0.8408 -1.5583
  581MOL0     H80135   6.105   5.780   4.531  1.3960  0.7077  0.5397
  581MOL0     H80136   6.042   5.347   4.487 -1.1652 -1.2314  0.6956
  581MOL0     H80137   5.865   5.193   4.558 -0.0789  1.7524  1.1934
  581MOL0     H80138   5.824   5.136   4.394 -1.7204  1.6286 -2.1559
  581MOL0     H80139   5.701   5.212   4.499  0.4583  1.2899  0.8706
  581MOL0     H80140   5.623   5.001   4.283 -0.6944 -1.3632  0.9846
  581MOL0     H80141   5.468   4.851   4.227 -0.3113 -0.8992 -2.6105
  581MOL0     H80142   5.025   4.869   4.149  1.0144  0.9838  0.1489
  581MOL0     H80143   5.067   5.028   4.150  1.8833  1.5872 -1.9247
  581MOL0     H80144   5.071   5.058   3.921  0.3118  0.3963 -2.8612
  581MOL0     H80145   5.138   4.895   3.886 -1.8046  0.6905 -3.2184
  581MOL0     H80146   4.857   4.946   3.995  0.0477 -2.1606  2.3538
  581MOL0     H80147   4.919   4.794   3.933 -2.9104  0.1025 -1.5708
  581MOL0     H80148   4.933   4.837   3.706 -0.7163 -1.3828  0.2507
  581MOL0     H80149   4.916   5.014   3.741  1.2946 -1.2813 -2.5338
  581MOL0     H80150   4.689   4.814   3.783  2.0250 -0.0939  3.9017
  581MOL0     H80151   4.704   4.976   3.820  2.3987  1.0195  0.2761
  581MOL0     H80152   4.708   4.858   3.530  0.4534  0.0501 -1.7538
  581MOL0     H80153   4.776   5.015   3.561  0.2293 -0.9411 -0.0733
  581MOL0     H80154   4.577   5.118   3.616  1.8627 -1.3254  0.9434
  581MOL0     H80155   4.498   4.980   3.671  0.3060 -0.1330  1.6052
  581MOL0     H80156   4.425   5.060   3.450  0.7270  0.9482  3.0989
  581MOL0     H80157   4.494   4.897   3.415 -0.6039  0.7525 -4.1406
  581MOL0     H80158   5.233   5.163   4.034  1.0919 -1.6118 -1.2356
  581MOL0     H80159   5.413   5.316   4.089  1.1767  0.6165  1.6116
  581MOL0     H80160   5.701   5.636   4.292  0.5280 -1.5234 -2.6238
  581MOL0     H80161   5.906   5.732   4.389  0.6111 -0.2212  0.5545
  581MOL0     H80162   7.698   6.139   4.247  0.0603 -2.6012  1.3266
  581MOL0     H80163   7.933   6.124   4.202  2.7066 -1.9468 -1.7789
  581MOL0     H80164   8.231   5.877   3.949  1.7063 -0.9067  0.6935
  581MOL0     H80165   8.450   5.805   3.874  0.2077  0.6526  1.4727
  581MOL0     H80166   8.624   5.783   3.741 -0.4887 -1.0691  0.2310
  581MOL0     H80167   8.783   5.865   3.714  0.3106  2.1234 -0.0341
  581MOL0     H80168   8.763   5.655   3.873 -0.5351  0.5007  0.3539
  581MOL0     H80169   8.685   5.756   3.984  1.4317 -2.6573  0.7634
  581MOL0     H80170   8.973   5.798   3.866  1.8372 -2.7394  0.8602
  581MOL0     H80171   8.874   5.921   3.949 -1.3146 -0.9578 -2.2401
  581MOL0     H80172   8.985   5.648   4.026  1.6646  1.5581  0.2282
  581MOL0     H80173   8.842   5.712   4.124 -0.4273  0.8771  0.7436
  581MOL0     H80174   9.180   5.936   4.261 -1.0446  1.6646  1.6050
  581MOL0     H80175   8.591   6.202   3.883  0.8306 -1.2132 -0.3392
  581MOL0     H80176   8.440   6.390   3.900 -0.1698 -0.3228 -1.2722
  581MOL0     H80177   8.269   6.360   3.901 -0.5125 -1.5980  0.5804
  581MOL0     H80178   8.356   6.357   4.063 -0.1576 -1.6305  0.5809
  582MOL0     O80179   6.774   2.388  11.436 -0.0125 -0.1346 -0.5963
  582MOL0     C80180   6.688   2.438  11.510  0.3568 -0.1710  0.5475
  582MOL0     O80181   6.698   2.560  11.581  0.1933  0.3670  0.5744
  582MOL0     C80182   6.822   2.624  11.575  0.6586  0.0930 -0.1858
  582MOL0     C80183   6.871   2.664  11.457 -0.6161 -0.8873  0.6422
  582MOL0     C80184   7.002   2.730  11.463 -0.0546  0.8294  0.1728
  582MOL0     C80185   7.070   2.758  11.580  1.1100 -0.3745 -0.1490
  582MOL0     O80186   7.177   2.840  11.559 -0.0806 -0.5133  0.3468
  582MOL0     C80187   7.226   2.916  11.674  0.6614  0.0280 -0.0811
  582MOL0     C80188   7.330   3.019  11.642  0.0153  0.3420  0.2089
  582MOL0     C80189   7.466   2.939  11.664 -0.9783 -0.4639 -0.2619
  582MOL0     C80190   7.516   2.946  11.803  0.6062 -0.4632 -0.9179
  582MOL0     C80191   7.662   2.892  11.817  0.6951 -0.2024  0.4319
  582MOL0     C80192   7.720   2.877  11.960  0.5066 -0.2448 -0.2660
  582MOL0     C80193   7.864   2.909  11.943  0.7117 -0.0209  0.1687
  582MOL0     C80194   7.947   2.897  12.076  0.0180  0.8460 -0.5592
  582MOL0     N80195   8.098   2.895  12.057 -0.2151 -0.0303  0.1449
  582MOL0     C80196   8.176   2.806  11.984 -0.7724 -0.7930  0.0936
  582MOL0     C80197   8.304   2.843  11.995 -0.5213  0.4289 -0.4397
  582MOL0     C80198   8.425   2.783  11.926  0.5962 -1.3775  1.2752
  582MOL0     C80199   8.453   2.870  11.793  0.0878 -0.5582 -0.2769
  582MOL0     C80200   8.588   2.852  11.733  0.8039 -0.2114  0.1688
  582MOL0     C80201   8.592   2.903  11.592 -0.2652  0.0385  0.3893
  582MOL0     O80202   8.555   3.044  11.570  0.0480 -0.0785 -0.2163
  582MOL0     C80203   8.647   3.146  11.581 -0.1275 -0.2926 -0.2532
  582MOL0     C80204   8.782   3.122  11.629 -0.5835 -1.6557 -0.1101
  582MOL0     C80205   8.873   3.225  11.650  0.3468  0.3288 -0.2002
  582MOL0     C80206   9.003   3.196  11.711  0.8963  0.4534 -0.3331
  582MOL0     C80207   8.840   3.362  11.609  0.4872 -0.0478 -0.2564
  582MOL0     C80208   8.938   3.467  11.613  0.1248  0.1796 -0.7027
  582MOL0     O80209   8.915   3.561  11.523  0.2814  0.0131  0.2151
  582MOL0     C80210   8.969   3.687  11.539  0.3411  0.1946  1.1082
  582MOL0     C80211   9.108   3.709  11.548  0.6801  0.2689 -0.3031
  582MOL0     C80212   9.155   3.836  11.583  0.1281  0.1448  0.6759
  582MOL0     C80213   9.076   3.950  11.591  0.7418  0.3507 -0.6951
  582MOL0     O80214   9.120   4.077  11.613 -0.5930  0.4968  0.3156
  582MOL0     C80215   9.176   4.146  11.502  0.6890  0.2639  0.7555
  582MOL0     C80216   9.319   4.211  11.547 -0.0522  0.4426 -0.3372
  582MOL0     C80217   9.381   4.284  11.430 -0.2564 -0.4964  0.2618
  582MOL0     C80218   9.518   4.331  11.466 -0.7307 -0.8653 -0.3089
  582MOL0     C80219   9.576   4.406  11.344  0.2586  0.2106 -0.2321
  582MOL0     C80220   9.715   4.467  11.359 -1.1156  0.4218 -0.0715
  582MOL0     C80221   9.781   4.506  11.229 -0.2126  0.3378  0.9195
  582MOL0     C80222   9.905   4.585  11.262 -0.3941  0.1834  0.5384
  582MOL0    Cl80223  10.015   4.490  11.359 -0.2499 -0.2180 -0.0932
  582MOL0     C80224   8.938   3.923  11.600  0.2782  0.7197  0.1495
  582MOL0     C80225   8.883   3.795  11.578  0.0926  0.7407 -0.5275
  582MOL0     O80226   9.024   3.471  11.701  0.3992  0.0466  0.2704
  582MOL0     C80227   8.704   3.386  11.554 -0.0021  0.9272 -0.4543
  582MOL0     C80228   8.611   3.276  11.533 -0.2218 -0.4174 -0.3246
  582MOL0     N80229   8.311   2.959  12.070  0.2970  0.0480 -0.2272
  582MOL0     N80230   8.182   2.991  12.097  0.3752 -0.4275  0.0103
  582MOL0     C80231   7.013   2.722  11.703  0.4088 -0.4491 -0.9386
  582MOL0     C80232   6.883   2.666  11.699 -0.1106 -0.4820 -0.3360
  582MOL0     C80233   6.562   2.355  11.538 -0.3838 -0.0706 -0.0531
  582MOL0     C80234   6.550   2.233  11.472 -0.0112  0.1026  0.2107
  582MOL0     C80235   6.436   2.144  11.502 -0.4687  0.6804  0.2078
  582MOL0     C80236   6.344   2.182  11.602 -0.0312  0.4751 -0.2784
  582MOL0     O80237   6.243   2.095  11.638 -0.4851  0.7053 -0.3941
  582MOL0     C80238   6.143   2.105  11.537  0.2551  1.1648 -0.0747
  582MOL0     C80239   6.001   2.083  11.586  0.1913  0.4195 -0.3347
  582MOL0     C80240   5.975   2.162  11.716 -0.2103 -0.5834 -0.9521
  582MOL0     C80241   5.827   2.158  11.768  0.4120  0.2970  0.4601
  582MOL0     C80242   5.759   2.288  11.772 -0.2378  0.5616  0.2736
  582MOL0     C80243   5.705   2.389  11.752 -0.1615  0.0284  0.3828
  582MOL0     C80244   6.365   2.295  11.677 -0.7610  0.3674 -0.4583
  582MOL0     C80245   6.467   2.388  11.639  0.1529  0.9094  0.1440
  582MOL0     C80246   6.460   2.512  11.722 -0.4892  1.0088  0.4509
  582MOL0     H80247   6.819   2.648  11.363  1.7134  2.4659 -1.4708
  582MOL0     H80248   7.053   2.769  11.375  1.6964  1.3007  1.3547
  582MOL0     H80249   7.253   2.855  11.761 -0.4336  1.2588  1.1830
  582MOL0     H80250   7.135   2.965  11.710  0.1035 -0.7810 -0.3608
  582MOL0     H80251   7.311   3.063  11.543  1.4758  1.1847  0.2782
  582MOL0     H80252   7.333   3.104  11.711  2.2655  2.1738 -1.9611
  582MOL0     H80253   7.463   2.835  11.629 -0.1959 -0.1203 -1.4219
  582MOL0     H80254   7.541   2.992  11.605  0.4109 -0.3982  1.4924
  582MOL0     H80255   7.530   3.048  11.838  1.7602 -1.2124  0.9695
  582MOL0     H80256   7.456   2.898  11.881 -1.3738  2.6550 -0.3585
  582MOL0     H80257   7.730   2.956  11.759 -1.1418  0.0252 -1.6378
  582MOL0     H80258   7.672   2.798  11.762  3.3806  0.9005 -1.1296
  582MOL0     H80259   7.664   2.939  12.031 -1.9825 -0.4845 -1.8586
  582MOL0     H80260   7.713   2.772  11.991  0.8259 -0.4873 -0.9911
  582MOL0     H80261   7.874   3.010  11.903 -3.0225 -0.2632 -1.7432
  582MOL0     H80262   7.907   2.836  11.874 -1.2625 -0.6248 -0.4852
  582MOL0     H80263   7.935   2.991  12.131 -0.3603  1.1781 -1.1948
  582MOL0     H80264   7.911   2.816  12.141  1.1349 -0.0617 -1.0341
  582MOL0     H80265   8.135   2.718  11.936 -0.8169 -0.5997 -0.2293
  582MOL0     H80266   8.404   2.683  11.887 -2.1146  0.0845 -1.4506
  582MOL0     H80267   8.511   2.788  11.994  1.2829  1.6302  0.3645
  582MOL0     H80268   8.387   2.833  11.714  2.6928 -2.7959 -1.5847
  582MOL0     H80269   8.440   2.976  11.815 -0.2131 -0.9780  1.8123
  582MOL0     H80270   8.669   2.906  11.784  1.9128  0.3000 -2.0024
  582MOL0     H80271   8.605   2.744  11.731 -2.1539 -0.7376 -0.7567
  582MOL0     H80272   8.695   2.882  11.565  0.6325  1.8158  2.1585
  582MOL0     H80273   8.525   2.842  11.531 -1.8894  2.8404 -0.8866
  582MOL0     H80274   8.825   3.022  11.633  2.7576 -0.3209  2.3307
  582MOL0     H80275   9.087   3.216  11.644  2.5469 -1.9423  0.8728
  582MOL0     H80276   9.007   3.090  11.738 -1.9404  0.1454 -0.8290
  582MOL0     H80277   9.021   3.256  11.801  2.2385 -0.8755  0.3264
  582MOL0     H80278   9.178   3.626  11.542  0.3975 -0.8089  5.6471
  582MOL0     H80279   9.263   3.851  11.585  0.3356 -1.2461  0.8425
  582MOL0     H80280   9.183   4.078  11.416  0.3925  3.9269 -2.4206
  582MOL0     H80281   9.116   4.229  11.464 -0.2895 -1.4017 -1.5578
  582MOL0     H80282   9.303   4.276  11.633 -0.4472 -1.5004  1.1155
  582MOL0     H80283   9.380   4.129  11.586 -2.9654 -0.7147  2.2207
  582MOL0     H80284   9.319   4.371  11.405  1.6667  1.5724  2.2419
  582MOL0     H80285   9.383   4.213  11.347  0.3462 -1.2739  0.9254
  582MOL0     H80286   9.573   4.242  11.496 -2.0720 -0.7472  2.9154
  582MOL0     H80287   9.526   4.388  11.559  1.1068 -2.4381  0.5612
  582MOL0     H80288   9.576   4.338  11.257  1.2570  4.0041 -3.5067
  582MOL0     H80289   9.512   4.487  11.307 -2.9756 -2.0323  0.0570
  582MOL0     H80290   9.776   4.382  11.393 -5.1141 -2.8953 -0.3732
  582MOL0     H80291   9.715   4.546  11.435  1.4650  0.7847 -0.3538
  582MOL0     H80292   9.712   4.563  11.166  1.0728  0.8699 -0.0405
  582MOL0     H80293   9.803   4.407  11.188  0.5062  0.8022  0.1647
  582MOL0     H80294   9.880   4.674  11.320  1.6372 -0.9925  3.4824
  582MOL0     H80295   9.956   4.608  11.168  1.6281  1.2955  1.8411
  582MOL0     H80296   8.877   4.003  11.639  2.3030  1.8898  1.0713
  582MOL0     H80297   8.776   3.780  11.592 -0.0138  0.8264 -1.2102
  582MOL0     H80298   8.683   3.490  11.532  1.4683  1.2701 -0.3297
  582MOL0     H80299   8.514   3.312  11.501 -0.1469  1.0205  0.9521
  582MOL0     H80300   7.057   2.730  11.802 -0.9652  0.5297 -0.3738
  582MOL0     H80301   6.826   2.648  11.789  1.7861  1.0950  1.2629
  582MOL0     H80302   6.630   2.209  11.403  1.5568  1.9438  1.2915
  582MOL0     H80303   6.436   2.048  11.452  2.7396  0.8346 -0.3335
  582MOL0     H80304   6.148   2.198  11.480  1.1573  2.9323  2.6931
  582MOL0     H80305   6.163   2.026  11.464  0.7929  0.3754  0.9150
  582MOL0     H80306   5.965   1.980  11.596 -2.6253  1.5250  2.5714
  582MOL0     H80307   5.943   2.123  11.502 -0.0426 -2.3909 -1.6355
  582MOL0     H80308   6.038   2.125  11.797 -0.7023 -1.9991 -1.1831
  582MOL0     H80309   5.994   2.266  11.688 -0.6782  0.2385  1.5159
  582MOL0     H80310   5.823   2.117  11.869  1.2597 -0.5996  0.1410
  582MOL0     H80311   5.767   2.094  11.703 -2.1277  1.9138  1.0572
  582MOL0     H80312   5.643   2.476  11.742 -1.5616 -1.0748 -1.2145
  582MOL0     H80313   6.296   2.333  11.752 -0.3619  1.7193 -0.7516
  582MOL0     H80314   6.454   2.599  11.656  2.3125 -0.4920 -2.0260
  582MOL0     H80315   6.373   2.520  11.788 -2.0360  3.2187 -1.6942
  582MOL0     H80316   6.550   2.526  11.781  0.0723 -0.4296 -0.0084
  583MOL0     O80317   2.141  10.125   3.376  0.5557  0.6719  0.0217
  583MOL0     C80318   2.120  10.077   3.268 -0.2560 -0.0674  0.3686
  583MOL0     O80319   2.110   9.948   3.241 -1.2156  0.3167  0.6710
  583MOL0     C80320   2.064   9.871   3.347 -0.8043  0.0583 -0.3665
  583MOL0     C80321   2.143   9.766   3.396  0.7911  0.7580  0.3287
  583MOL0     C80322   2.078   9.682   3.500  0.1700 -0.3717  0.1158
  583MOL0     C80323   1.957   9.714   3.558  0.3458 -0.0840  0.5166
  583MOL0     O80324   1.906   9.662   3.668  0.4210 -0.3390 -0.8302
  583MOL0     C80325   1.950   9.526   3.717 -0.0289 -0.2553 -0.2229
  583MOL0     C80326   2.026   9.545   3.850 -0.2534  0.2734  0.5283
  583MOL0     C80327   2.076   9.418   3.920 -0.2939 -1.0604  0.3964
  583MOL0     C80328   2.170   9.356   3.816 -0.3280 -0.2831  0.5289
  583MOL0     C80329   2.241   9.237   3.863  0.1985  0.2248  0.4847
  583MOL0     C80330   2.357   9.195   3.776  0.6412 -0.1163 -0.3944
  583MOL0     C80331   2.430   9.062   3.817  0.3328  0.8220 -0.0469
  583MOL0     C80332   2.504   8.990   3.707 -0.2861  0.0330  0.0349
  583MOL0     N80333   2.643   9.046   3.707 -0.6509 -0.1412  0.9549
  583MOL0     C80334   2.677   9.176   3.657 -0.0124 -0.4720 -0.3750
  583MOL0     C80335   2.806   9.193   3.699  0.3979  0.4521 -0.0225
  583MOL0     C80336   2.867   9.325   3.710 -0.1210  0.2673  0.3143
  583MOL0     C80337   3.012   9.318   3.726  0.0992  0.5096  0.9314
  583MOL0     C80338   3.090   9.452   3.734  0.5565 -0.8868  0.4083
  583MOL0     C80339   3.064   9.510   3.879 -0.7396 -0.0222  0.0724
  583MOL0     O80340   3.124   9.645   3.872 -0.8994 -0.0757 -0.4489
  583MOL0     C80341   3.168   9.713   3.985  0.2282  1.0449  0.2798
  583MOL0     C80342   3.117   9.675   4.105 -0.9716 -0.5520 -0.4943
  583MOL0     C80343   3.158   9.740   4.225  0.4930  0.7329 -0.1508
  583MOL0     C80344   3.084   9.690   4.346  0.1952  0.8109 -0.2104
  583MOL0     C80345   3.271   9.833   4.216  0.1449  0.1274 -0.5529
  583MOL0     C80346   3.316   9.913   4.343 -0.1839 -0.7320  0.4305
  583MOL0     O80347   3.278   9.876   4.461  0.5185  0.1963 -0.2319
  583MOL0     C80348   3.302   9.955   4.578  0.0374 -0.0754 -0.3082
  583MOL0     C80349   3.423  10.004   4.630 -1.4329  0.3140 -0.7809
  583MOL0     C80350   3.430  10.074   4.756  0.1610  0.3050  0.5968
  583MOL0     C80351   3.318  10.081   4.834 -0.0440 -0.0111 -1.3513
  583MOL0     O80352   3.321  10.152   4.956  0.7024  0.1220  0.4251
  583MOL0     C80353   3.306  10.289   4.925 -0.5310  0.6441 -0.8290
  583MOL0     C80354   3.225  10.345   5.034  0.4442  0.5403 -0.0777
  583MOL0     C80355   3.208  10.502   5.028 -0.2212 -0.1174 -0.2622
  583MOL0     C80356   3.334  10.593   5.043 -0.2639  0.3960 -0.7577
  583MOL0     C80357   3.290  10.738   5.031 -0.4639 -0.1672 -0.6220
  583MOL0     C80358   3.416  10.821   5.047  0.0990  0.3440 -0.1139
  583MOL0     C80359   3.386  10.967   5.016  0.6954 -0.0460 -1.0185
  583MOL0     C80360   3.518  11.050   5.021  0.1755  0.4232  0.7772
  583MOL0    Cl80361   3.497  11.206   4.945  0.1348  0.4340 -0.5087
  583MOL0     C80362   3.196  10.028   4.792  0.5108  0.0519  0.7902
  583MOL0     C80363   3.186   9.968   4.666 -0.1531 -0.3295 -0.8064
  583MOL0     O80364   3.404   9.997   4.321  1.4427 -0.1400  0.2931
  583MOL0     C80365   3.323   9.865   4.091  0.6747  0.3757 -0.4584
  583MOL0     C80366   3.265   9.812   3.977  0.4167  0.2649 -1.2692
  583MOL0     N80367   2.855   9.075   3.748  0.5759 -0.2613 -0.7779
  583MOL0     N80368   2.760   8.986   3.751 -0.8451 -0.3497  0.5358
  583MOL0     C80369   1.889   9.817   3.497 -0.1598 -0.2314  0.0913
  583MOL0     C80370   1.937   9.895   3.388 -1.5811  0.0477 -0.1222
  583MOL0     C80371   2.138  10.172   3.154  0.2372 -0.9222  0.3156
  583MOL0     C80372   2.256  10.167   3.078  0.1482  0.4969  0.3608
  583MOL0     C80373   2.271  10.260   2.969 -0.3683 -0.2492 -0.1519
  583MOL0     C80374   2.161  10.351   2.945 -0.4264 -0.0334 -0.1697
  583MOL0     O80375   2.151  10.445   2.845  0.0574 -0.1321  0.4708
  583MOL0     C80376   2.262  10.451   2.756 -0.0738  0.4243 -0.8096
  583MOL0     C80377   2.235  10.545   2.633  0.1864  0.7886 -0.8340
  583MOL0     C80378   2.141  10.667   2.670  0.2402 -0.7152 -0.1180
  583MOL0     C80379   2.101  10.743   2.538 -0.5211 -0.0449 -0.3322
  583MOL0     C80380   2.207  10.824   2.503 -0.6132 -0.6941  0.5540
  583MOL0     C80381   2.313  10.877   2.465 -0.2541 -0.2669  0.3876
  583MOL0     C80382   2.047  10.346   3.021  0.1828 -0.1291 -1.0579
  583MOL0     C80383   2.033  10.258   3.118 -0.3763  0.1291 -0.2228
  583MOL0     C80384   1.903  10.246   3.192  0.1516  0.6999 -0.8447
  583MOL0     H80385   2.245   9.750   3.363  0.3928  2.6393 -2.1219
  583MOL0     H80386   2.135   9.609   3.558 -2.0881 -0.3873  2.4547
  583MOL0     H80387   2.003   9.470   3.639 -3.9458 -1.7001 -2.0911
  583MOL0     H80388   1.861   9.473   3.752 -1.0603  2.0698  0.8944
  583MOL0     H80389   2.106   9.616   3.828 -1.0176  0.7345 -0.9045
  583MOL0     H80390   1.953   9.585   3.922 -0.6828  0.2825  0.0977
  583MOL0     H80391   2.127   9.452   4.011 -1.0835  0.7013  0.2262
  583MOL0     H80392   1.992   9.353   3.944 -1.3116 -0.4941 -1.4870
  583MOL0     H80393   2.127   9.331   3.719  3.4231  0.7185 -1.6106
  583MOL0     H80394   2.244   9.434   3.795  0.9751 -1.6280 -0.1100
  583MOL0     H80395   2.169   9.154   3.856  1.4546 -0.7810 -4.9996
  583MOL0     H80396   2.270   9.256   3.967  1.3033 -1.9349  0.6357
  583MOL0     H80397   2.327   9.189   3.671  0.4855 -2.8338 -0.2492
  583MOL0     H80398   2.423   9.282   3.789 -0.5229  0.9975 -1.7279
  583MOL0     H80399   2.350   8.996   3.853  1.9468 -1.0050  0.4024
  583MOL0     H80400   2.499   9.078   3.900  0.4938 -0.6075  0.1252
  583MOL0     H80401   2.532   8.889   3.739  0.0480  1.2066  3.9305
  583MOL0     H80402   2.442   8.988   3.616 -0.7445  0.6162  0.3338
  583MOL0     H80403   2.612   9.252   3.616 -0.6557 -0.1963  1.0849
  583MOL0     H80404   2.821   9.371   3.798  2.6859  1.7039  1.1409
  583MOL0     H80405   2.829   9.371   3.618 -1.8870 -4.0903 -1.3928
  583MOL0     H80406   3.031   9.248   3.808 -0.8997  1.3246  1.8881
  583MOL0     H80407   3.054   9.269   3.637 -2.6370 -0.2667 -0.0219
  583MOL0     H80408   3.196   9.438   3.711  0.4716  0.5909 -1.0475
  583MOL0     H80409   3.056   9.522   3.657  0.4478 -3.1402 -1.7103
  583MOL0     H80410   2.958   9.525   3.902 -0.2406  0.9574  1.9329
  583MOL0     H80411   3.101   9.444   3.957  0.0693 -3.1256 -2.6992
  583MOL0     H80412   3.043   9.597   4.120  0.8433 -1.9585  2.0034
  583MOL0     H80413   2.998   9.628   4.322  0.7660  0.0128 -0.2249
  583MOL0     H80414   3.035   9.775   4.394 -0.7811 -0.3268  0.8830
  583MOL0     H80415   3.146   9.635   4.418 -0.2113  2.1553  1.2217
  583MOL0     H80416   3.515   9.984   4.576  0.1643 -1.6855  2.3663
  583MOL0     H80417   3.512  10.122   4.810 -1.0199 -0.8134  3.6295
  583MOL0     H80418   3.406  10.334   4.918  0.1953 -0.3607  1.8536
  583MOL0     H80419   3.243  10.308   4.837 -1.9723 -2.8132 -0.7072
  583MOL0     H80420   3.122  10.307   5.041  1.0289 -0.8163  1.8475
  583MOL0     H80421   3.265  10.323   5.133 -1.0437  0.7863  0.6168
  583MOL0     H80422   3.138  10.534   5.105  0.1230  0.5936 -0.2438
  583MOL0     H80423   3.160  10.522   4.931  0.4356  0.8793 -0.3930
  583MOL0     H80424   3.402  10.567   4.961  0.3709  0.9628 -0.4237
  583MOL0     H80425   3.383  10.580   5.141 -1.8478  0.2712  0.0427
  583MOL0     H80426   3.253  10.764   4.931  0.1052  4.0192  0.0773
  583MOL0     H80427   3.213  10.756   5.108 -1.0282  2.5715 -1.6851
  583MOL0     H80428   3.496  10.787   4.981  1.0269  0.2438  1.0360
  583MOL0     H80429   3.453  10.826   5.149 -0.6950  0.9841  0.1628
  583MOL0     H80430   3.316  11.015   5.085 -0.1989 -0.5627 -1.5393
  583MOL0     H80431   3.338  10.977   4.918 -0.0244 -1.0770 -0.7865
  583MOL0     H80432   3.596  10.995   4.966 -0.8339 -1.4778  1.1685
  583MOL0     H80433   3.556  11.065   5.123  0.9514  0.7104  0.4556
  583MOL0     H80434   3.109  10.032   4.856 -2.2772 -2.6847 -2.4685
  583MOL0     H80435   3.097   9.910   4.642  0.2609 -1.2435 -0.2014
  583MOL0     H80436   3.396   9.945   4.080  1.1391  0.3976  2.1308
  583MOL0     H80437   3.292   9.864   3.886  0.8458 -2.1728 -2.6082
  583MOL0     H80438   1.786   9.841   3.522 -0.7467 -2.3043 -0.1565
  583MOL0     H80439   1.874   9.977   3.356 -1.8162  1.9399  4.4124
  583MOL0     H80440   2.336  10.095   3.093  0.1692  0.1509 -1.2524
  583MOL0     H80441   2.363  10.254   2.911  2.0262  0.1180  3.2649
  583MOL0     H80442   2.345  10.486   2.818  0.4034 -1.8465 -0.0660
  583MOL0     H80443   2.279  10.350   2.718  0.8879  1.1492 -2.4287
  583MOL0     H80444   2.180  10.486   2.559 -1.3954  0.0494  0.8462
  583MOL0     H80445   2.331  10.575   2.589  1.5543 -0.6725  0.9465
  583MOL0     H80446   2.046  10.642   2.719 -0.8485  2.2564 -0.5400
  583MOL0     H80447   2.195  10.734   2.738 -1.2940 -1.6825  2.1596
  583MOL0     H80448   2.007  10.798   2.541 -0.5558  0.0721 -2.3995
  583MOL0     H80449   2.088  10.662   2.465  2.8370 -0.2065 -0.9338
  583MOL0     H80450   2.406  10.923   2.439  1.1418 -1.9236  2.1609
  583MOL0     H80451   1.966  10.417   3.002  1.2323  1.2921 -0.3922
  583MOL0     H80452   1.827  10.190   3.136  0.9925 -2.0476  0.6081
  583MOL0     H80453   1.908  10.212   3.295 -0.1949  1.4880 -0.5624
  583MOL0     H80454   1.852  10.341   3.208  3.6170  2.1925  3.1625
  584MOL0     O80455   8.957   4.084  10.490 -0.8473  0.2751 -0.5288
  584MOL0     C80456   8.903   4.191  10.473  0.1508 -0.4764  0.0584
  584MOL0     O80457   8.907   4.266  10.360  0.1748  0.6503 -0.0205
  584MOL0     C80458   8.957   4.206  10.246  0.2080 -0.0378 -0.0617
  584MOL0     C80459   8.923   4.083  10.200  0.4363 -0.6862  0.9638
  584MOL0     C80460   8.966   4.039  10.073 -0.3014 -0.0447 -0.2748
  584MOL0     C80461   9.064   4.113  10.005 -0.7083  0.1843  0.2548
  584MOL0     O80462   9.135   4.060   9.897 -0.7776 -0.2098  0.2085
  584MOL0     C80463   9.148   3.917   9.890  0.4905 -0.8433 -0.0256
  584MOL0     C80464   9.237   3.878   9.769 -0.2150  0.2930  0.1009
  584MOL0     C80465   9.309   3.747   9.792 -0.8780  0.1093 -0.2787
  584MOL0     C80466   9.392   3.699   9.679 -0.1920 -0.1430  0.3291
  584MOL0     C80467   9.438   3.556   9.668  0.6186 -0.6668 -0.6477
  584MOL0     C80468   9.480   3.535   9.520  0.0244 -0.0819  0.0713
  584MOL0     C80469   9.514   3.388   9.482  0.1274 -0.1782  1.2423
  584MOL0     C80470   9.530   3.376   9.326  0.4792  0.0810 -0.2997
  584MOL0     N80471   9.553   3.234   9.295  1.3329 -0.1291  0.3369
  584MOL0     C80472   9.686   3.192   9.264  0.2793  0.1322 -0.8476
  584MOL0     C80473   9.661   3.082   9.187  0.0106  1.3028  0.2369
  584MOL0     C80474   9.772   2.988   9.145 -0.5356  0.2846  0.8031
  584MOL0     C80475   9.800   2.900   9.267 -0.4642 -0.2596  0.1648
  584MOL0     C80476   9.946   2.856   9.277 -0.1018 -0.8223 -0.2123
  584MOL0     C80477   9.976   2.731   9.355 -0.4980  0.2452  0.0662
  584MOL0     O80478   9.951   2.630   9.252  0.0249  0.1411 -0.0109
  584MOL0     C80479  10.044   2.528   9.219  0.6270 -0.2009  0.1094
  584MOL0     C80480  10.036   2.488   9.083  0.0869  0.5413 -0.0188
  584MOL0     C80481  10.142   2.400   9.033  0.5062  0.2963 -1.0752
  584MOL0     C80482  10.138   2.349   8.891 -0.2978  0.0377  0.1160
  584MOL0     C80483  10.243   2.355   9.121  0.2947 -0.7912 -0.0546
  584MOL0     C80484  10.337   2.256   9.086  0.3713  0.1066  1.3318
  584MOL0     O80485  10.470   2.290   9.077  0.4604 -0.2069 -0.0928
  584MOL0     C80486  10.571   2.206   9.042  0.1912  0.5204 -0.2160
  584MOL0     C80487  10.691   2.213   9.113  0.7438  0.5426 -0.0454
  584MOL0     C80488  10.791   2.127   9.091 -0.8321  0.4644  0.3728
  584MOL0     C80489  10.778   2.035   8.983 -0.9292 -0.6489 -0.4416
  584MOL0     O80490  10.885   1.958   8.970 -0.5083 -0.0820 -0.0857
  584MOL0     C80491  10.906   1.894   8.849  0.5228  0.1631 -0.2464
  584MOL0     C80492  11.052   1.883   8.840  0.4488 -0.4452  0.2878
  584MOL0     C80493  11.130   2.014   8.824  0.1438  0.1219  0.4411
  584MOL0     C80494  11.280   1.991   8.798 -1.1656 -0.7026 -0.1306
  584MOL0     C80495  11.355   1.946   8.925 -0.3196  0.2615  0.3787
  584MOL0     C80496  11.501   1.894   8.891 -0.5081 -0.1847 -1.2765
  584MOL0     C80497  11.584   2.013   8.834 -0.3100  0.5001 -0.4173
  584MOL0     C80498  11.734   1.985   8.849 -1.5717 -0.2041 -0.3389
  584MOL0    Cl80499  11.763   1.823   8.762  0.8008  0.1363  0.1601
  584MOL0     C80500  10.656   2.024   8.912 -0.3573  0.1496  0.2491
  584MOL0     C80501  10.546   2.106   8.943 -0.1708  0.4138  0.1318
  584MOL0     O80502  10.286   2.142   9.075  0.5446 -0.5052 -0.0492
  584MOL0     C80503  10.242   2.404   9.252 -0.5814 -0.0642 -0.4087
  584MOL0     C80504  10.151   2.493   9.297  1.1788  0.3046 -0.8091
  584MOL0     N80505   9.524   3.060   9.174  0.5284 -0.4194  0.6279
  584MOL0     N80506   9.460   3.158   9.230  0.8433  0.6742 -0.1520
  584MOL0     C80507   9.090   4.247  10.045 -1.0264 -0.8584  0.1242
  584MOL0     C80508   9.045   4.288  10.173 -0.3960  0.4359 -0.3048
  584MOL0     C80509   8.812   4.249  10.573 -0.4364  0.7961 -1.0507
  584MOL0     C80510   8.844   4.370  10.630  0.2736  0.5479 -0.5073
  584MOL0     C80511   8.784   4.419  10.745  0.1039 -0.2203  0.0960
  584MOL0     C80512   8.679   4.351  10.807  0.5132 -0.3200 -0.7960
  584MOL0     O80513   8.614   4.411  10.917  0.3033 -0.0263  0.5331
  584MOL0     C80514   8.495   4.343  10.963 -0.1831 -1.2029 -0.1568
  584MOL0     C80515   8.432   4.424  11.076 -0.0509 -0.0966 -0.5802
  584MOL0     C80516   8.514   4.423  11.201  0.0766 -0.3730 -0.9240
  584MOL0     C80517   8.450   4.505  11.316 -0.5898 -1.7646  0.9877
  584MOL0     C80518   8.471   4.657  11.298  1.4160  0.2407 -0.2218
  584MOL0     C80519   8.492   4.782  11.288 -0.9551  1.0241  0.1527
  584MOL0     C80520   8.645   4.223  10.750  0.1572  0.0962 -0.3194
  584MOL0     C80521   8.712   4.173  10.637 -0.4686  0.3401 -0.6444
  584MOL0     C80522   8.648   4.045  10.578 -0.7862  0.1116  0.0002
  584MOL0     H80523   8.854   4.018  10.254  0.3625  0.7684  2.7055
  584MOL0     H80524   8.943   3.934  10.057 -0.1103 -0.8423  3.6024
  584MOL0     H80525   9.051   3.868   9.883  0.0061 -0.5263  3.0404
  584MOL0     H80526   9.199   3.874   9.976 -0.2311  0.0408  0.8692
  584MOL0     H80527   9.175   3.870   9.679 -0.0451 -3.8044  0.1308
  584MOL0     H80528   9.315   3.954   9.758 -0.1960  0.6369  2.1871
  584MOL0     H80529   9.377   3.772   9.874 -2.7478  2.5916  0.6376
  584MOL0     H80530   9.243   3.665   9.818 -1.1545  0.9712  1.9379
  584MOL0     H80531   9.340   3.738   9.591  1.0306  2.6454  0.7216
  584MOL0     H80532   9.483   3.761   9.679  0.0501 -0.4302 -1.9993
  584MOL0     H80533   9.350   3.494   9.689  1.0097 -0.3977  2.1991
  584MOL0     H80534   9.507   3.534   9.750 -0.2298 -1.4007 -0.0995
  584MOL0     H80535   9.391   3.562   9.462 -1.1430 -2.5999  0.5584
  584MOL0     H80536   9.569   3.597   9.507 -1.1594  2.5882  3.3154
  584MOL0     H80537   9.436   3.319   9.514  0.5037 -2.2280 -1.8053
  584MOL0     H80538   9.607   3.354   9.530  1.7581  0.7400 -1.0572
  584MOL0     H80539   9.442   3.401   9.266 -0.5212 -0.4281  0.8897
  584MOL0     H80540   9.620   3.430   9.295 -1.3687  3.8302  0.2928
  584MOL0     H80541   9.782   3.227   9.300  0.1745 -1.2001  0.8896
  584MOL0     H80542   9.865   3.031   9.106  0.2486  1.5461  3.7435
  584MOL0     H80543   9.736   2.926   9.062  0.7794 -2.0411  1.8507
  584MOL0     H80544   9.791   2.958   9.359 -3.5510  1.0003 -0.8137
  584MOL0     H80545   9.731   2.817   9.284 -1.3182  0.6247  1.1055
  584MOL0     H80546   9.995   2.845   9.180 -1.8056  0.0314 -1.2167
  584MOL0     H80547  10.003   2.936   9.327 -1.1152 -0.4276  0.3482
  584MOL0     H80548  10.081   2.734   9.385 -0.3625  2.8492 -0.4460
  584MOL0     H80549   9.912   2.724   9.443 -0.6442  2.4330  0.1884
  584MOL0     H80550   9.964   2.524   9.011 -0.0335  0.7667  0.2112
  584MOL0     H80551  10.055   2.404   8.847  0.0289  0.1489 -0.3665
  584MOL0     H80552  10.138   2.241   8.875  0.6184 -0.0488  0.6036
  584MOL0     H80553  10.225   2.379   8.832 -0.3841 -2.4253 -1.3852
  584MOL0     H80554  10.707   2.274   9.201  0.0745 -1.0138  1.2086
  584MOL0     H80555  10.885   2.134   9.144 -0.9073 -1.6138  0.8939
  584MOL0     H80556  10.854   1.799   8.834  1.0433  0.2197 -2.7510
  584MOL0     H80557  10.859   1.957   8.773 -4.3902 -1.8823  0.7160
  584MOL0     H80558  11.089   1.835   8.931  2.3291  1.3189  0.5247
  584MOL0     H80559  11.072   1.810   8.760 -0.6447 -0.0506 -0.3773
  584MOL0     H80560  11.109   2.076   8.912 -1.8135 -1.4767  1.1922
  584MOL0     H80561  11.085   2.062   8.737  0.4769 -0.4708 -0.0654
  584MOL0     H80562  11.327   2.080   8.755 -0.2075 -1.6509 -1.0890
  584MOL0     H80563  11.287   1.907   8.728  0.0891 -1.4498  0.8509
  584MOL0     H80564  11.351   2.031   8.993 -2.7189  0.4643  0.0687
  584MOL0     H80565  11.302   1.860   8.967 -1.0972 -1.0538 -2.9263
  584MOL0     H80566  11.493   1.801   8.834  0.3599 -2.0793  1.4768
  584MOL0     H80567  11.541   1.866   8.989 -1.5212 -0.5365 -0.9527
  584MOL0     H80568  11.567   2.101   8.896  0.1353 -1.8608  3.3942
  584MOL0     H80569  11.567   2.022   8.727  0.2598 -6.1232 -1.5023
  584MOL0     H80570  11.763   1.979   8.954 -1.5925  1.3600 -0.2225
  584MOL0     H80571  11.784   2.071   8.804 -1.1824 -1.2800 -2.1105
  584MOL0     H80572  10.643   1.948   8.835 -4.0329  0.7551  0.0648
  584MOL0     H80573  10.466   2.107   8.869 -1.6756  1.1185  1.7217
  584MOL0     H80574  10.325   2.383   9.319 -1.0823 -0.2067  0.1799
  584MOL0     H80575  10.166   2.555   9.385  1.3285  1.2562 -1.4932
  584MOL0     H80576   9.166   4.300   9.987  0.5531 -2.8781  0.2242
  584MOL0     H80577   9.063   4.385  10.218 -1.8649  0.4068  0.3936
  584MOL0     H80578   8.927   4.426  10.589  0.5446 -0.9635 -2.1562
  584MOL0     H80579   8.815   4.506  10.803  0.7488  0.7745 -1.6782
  584MOL0     H80580   8.425   4.325  10.881 -0.2151  1.1694 -0.7065
  584MOL0     H80581   8.523   4.246  11.005  2.2006  0.1560  1.6587
  584MOL0     H80582   8.336   4.378  11.100 -1.4718  2.5622 -0.7413
  584MOL0     H80583   8.417   4.527  11.042  0.7808  0.7830  1.5604
  584MOL0     H80584   8.527   4.321  11.238  0.7020 -0.3732 -1.1323
  584MOL0     H80585   8.615   4.459  11.179  1.3386 -1.4952  2.3405
  584MOL0     H80586   8.492   4.478  11.413  1.7736  0.0450  0.5577
  584MOL0     H80587   8.342   4.485  11.315 -1.0821  0.5132 -0.1181
  584MOL0     H80588   8.499   4.886  11.266 -0.3377  0.7637 -0.9634
  584MOL0     H80589   8.573   4.159  10.800  2.8664 -3.6963 -0.8478
  584MOL0     H80590   8.575   4.070  10.500 -0.9648 -0.5655 -0.0477
  584MOL0     H80591   8.721   3.982  10.527 -0.2516  0.4679  0.3110
  584MOL0     H80592   8.618   3.989  10.667  4.6096 -1.7611  0.9854
  585MOL0     O80593   9.139   0.150   4.830  0.2789 -0.2671  0.9351
  585MOL0     C80594   9.027   0.182   4.787  0.6901  0.3816 -0.1070
  585MOL0     O80595   8.914   0.186   4.866  0.3775 -0.2845  0.3280
  585MOL0     C80596   8.919   0.117   4.982 -0.0057 -0.1083  0.3940
  585MOL0     C80597   8.823   0.018   5.003  0.5711 -0.2721  0.2086
  585MOL0     C80598   8.828  -0.049   5.129  0.6202 -0.7311 -0.3803
  585MOL0     C80599   8.927  -0.031   5.230  0.0756  0.3837  0.2138
  585MOL0     O80600   8.939  -0.099   5.345  0.3048  0.1176  0.7832
  585MOL0     C80601   8.832  -0.193   5.377 -0.0195 -0.1410  0.5416
  585MOL0     C80602   8.857  -0.258   5.512 -0.3239 -0.2338  0.3920
  585MOL0     C80603   8.876  -0.164   5.633 -0.7552  0.0416  0.5676
  585MOL0     C80604   8.893  -0.249   5.754 -0.7378  0.1957  0.2900
  585MOL0     C80605   8.890  -0.181   5.890  0.2845 -0.5021  0.3291
  585MOL0     C80606   9.009  -0.082   5.897  0.6020 -0.1517  0.6167
  585MOL0     C80607   9.033   0.003   6.020  0.4665 -0.0737 -0.1738
  585MOL0     C80608   9.088  -0.073   6.143  0.3806 -0.7334 -0.4786
  585MOL0     N80609   9.209  -0.146   6.099  1.5915  0.7810 -0.2049
  585MOL0     C80610   9.330  -0.089   6.071  0.0339 -0.0031  0.1308
  585MOL0     C80611   9.410  -0.188   6.028 -1.0503  0.5911 -0.4077
  585MOL0     C80612   9.550  -0.167   5.983  0.6307  0.4888 -0.5897
  585MOL0     C80613   9.654  -0.195   6.101 -0.2087 -0.5187 -0.4810
  585MOL0     C80614   9.776  -0.097   6.096  0.4901 -0.4683  0.3844
  585MOL0     C80615   9.867  -0.125   5.988  0.1205  0.2812  0.0940
  585MOL0     O80616   9.961  -0.020   5.987  0.1240 -0.4786 -0.0177
  585MOL0     C80617  10.087  -0.060   5.958 -0.8869 -0.4576  0.3585
  585MOL0     C80618  10.187  -0.041   6.052 -0.6623 -0.4495 -0.9054
  585MOL0     C80619  10.323  -0.087   6.026  0.2830 -0.4689 -0.2121
  585MOL0     C80620  10.414  -0.085   6.144 -0.1235  0.0071 -0.3798
  585MOL0     C80621  10.354  -0.136   5.893  0.1825 -0.6616 -0.3645
  585MOL0     C80622  10.479  -0.187   5.847  0.4115 -0.0754  0.8708
  585MOL0     O80623  10.475  -0.257   5.729 -0.3249 -0.1889 -0.0695
  585MOL0     C80624  10.596  -0.307   5.688 -0.6808 -0.3546  0.7633
  585MOL0     C80625  10.641  -0.267   5.558 -0.1998  0.9166  0.3720
  585MOL0     C80626  10.776  -0.298   5.514  0.5426 -0.3438  0.2991
  585MOL0     C80627  10.860  -0.376   5.596 -1.0281  0.4285 -0.3755
  585MOL0     O80628  10.995  -0.409   5.576  0.0923  0.8420  0.3441
  585MOL0     C80629  11.074  -0.349   5.467  1.0679 -0.1886 -0.0813
  585MOL0     C80630  11.116  -0.202   5.484 -0.4117  0.1958  0.2764
  585MOL0     C80631  11.226  -0.156   5.384  0.2614  0.0854  1.2214
  585MOL0     C80632  11.263   0.001   5.395  0.5094 -0.0220 -0.1488
  585MOL0     C80633  11.350   0.034   5.274 -0.1785  0.3339  0.2661
  585MOL0     C80634  11.419   0.175   5.292  0.3768  1.7319  0.6294
  585MOL0     C80635  11.531   0.193   5.195 -0.1320  1.0222 -0.6451
  585MOL0     C80636  11.503   0.206   5.046 -0.7272  1.1765 -0.4336
  585MOL0    Cl80637  11.377   0.330   5.009 -0.1487  0.2213 -0.6890
  585MOL0     C80638  10.816  -0.421   5.714  0.5597 -0.3197  0.0334
  585MOL0     C80639  10.683  -0.385   5.761  0.2366  0.4531 -0.2630
  585MOL0     O80640  10.576  -0.172   5.915  0.1272 -0.2564  0.1701
  585MOL0     C80641  10.245  -0.149   5.804 -0.1799 -0.0334  0.0425
  585MOL0     C80642  10.120  -0.120   5.834  0.2555 -0.3731 -0.3006
  585MOL0     N80643   9.335  -0.298   6.031 -0.3724 -0.0862 -0.2894
  585MOL0     N80644   9.219  -0.286   6.085 -0.5918 -0.4330 -1.1342
  585MOL0     C80645   9.012   0.080   5.201  0.3377 -0.9053 -0.0613
  585MOL0     C80646   9.015   0.148   5.074  1.1417  0.4844 -0.1145
  585MOL0     C80647   9.021   0.224   4.646  0.7150  0.8060 -0.0393
  585MOL0     C80648   8.929   0.323   4.616  0.2690 -0.1242  0.9478
  585MOL0     C80649   8.911   0.367   4.487  0.1112 -0.6523  0.6930
  585MOL0     C80650   8.989   0.322   4.379 -0.5957  0.9534  0.5118
  585MOL0     O80651   8.951   0.352   4.248 -0.0529 -0.4174 -0.1989
  585MOL0     C80652   9.052   0.335   4.151 -0.5545 -0.1736  0.0883
  585MOL0     C80653   8.998   0.350   4.012 -0.6613 -0.4046  0.1102
  585MOL0     C80654   8.922   0.221   3.968  0.9539  0.0084 -0.8684
  585MOL0     C80655   8.781   0.258   3.925 -0.2977 -0.2807  0.2084
  585MOL0     C80656   8.773   0.361   3.814  0.1234 -0.1925  0.7896
  585MOL0     C80657   8.756   0.444   3.730  0.4615 -0.2707  0.6484
  585MOL0     C80658   9.093   0.233   4.410  0.0991 -0.0762  0.0442
  585MOL0     C80659   9.111   0.183   4.539 -0.5604  0.1571  0.0530
  585MOL0     C80660   9.216   0.072   4.560  1.0340 -0.1637  0.2399
  585MOL0     H80661   8.756  -0.016   4.924 -0.6580 -1.0776  1.5398
  585MOL0     H80662   8.750  -0.123   5.146  1.2074 -0.9948  1.3079
  585MOL0     H80663   8.822  -0.273   5.303 -0.3305 -0.8738  1.3545
  585MOL0     H80664   8.732  -0.153   5.391  0.6597  1.1489  1.9322
  585MOL0     H80665   8.778  -0.330   5.537 -0.9558  0.4664  0.4677
  585MOL0     H80666   8.937  -0.331   5.497 -1.1713 -0.8615 -1.2488
  585MOL0     H80667   8.968  -0.108   5.615 -0.0647 -0.8036  1.3840
  585MOL0     H80668   8.798  -0.088   5.640 -2.3157 -1.0929 -2.5340
  585MOL0     H80669   8.818  -0.328   5.763  0.3451 -0.8237  0.7482
  585MOL0     H80670   8.987  -0.302   5.736  0.1480  2.5938 -3.2465
  585MOL0     H80671   8.901  -0.255   5.969  1.5893  0.7717  1.3641
  585MOL0     H80672   8.793  -0.131   5.903 -1.0400 -2.7817 -0.1646
  585MOL0     H80673   9.099  -0.135   5.866  0.0739 -1.8663  1.8486
  585MOL0     H80674   8.999  -0.003   5.822  2.4804  1.9214  2.4066
  585MOL0     H80675   8.934   0.042   6.047  0.5993  1.8204 -2.1665
  585MOL0     H80676   9.095   0.092   6.004  3.0651 -1.2601  2.5137
  585MOL0     H80677   9.123  -0.002   6.218 -0.1752  0.5442 -1.3910
  585MOL0     H80678   9.018  -0.147   6.184  0.2551 -1.8382 -2.5419
  585MOL0     H80679   9.337   0.019   6.082  0.1579 -0.1431  1.5856
  585MOL0     H80680   9.561  -0.060   5.960  4.5199  0.5385  0.6649
  585MOL0     H80681   9.574  -0.232   5.898  0.9094 -1.5624  0.9945
  585MOL0     H80682   9.604  -0.177   6.197  0.1553  0.9193 -0.5484
  585MOL0     H80683   9.690  -0.298   6.092  1.1093 -0.2410  1.1536
  585MOL0     H80684   9.741   0.006   6.089  1.9774  0.0959  0.9797
  585MOL0     H80685   9.838  -0.094   6.186  0.2025 -2.0486  0.6797
  585MOL0     H80686   9.913  -0.221   6.014 -1.0696  0.4459  3.2377
  585MOL0     H80687   9.817  -0.129   5.891 -0.6015 -0.0646  0.4670
  585MOL0     H80688  10.164  -0.003   6.151  0.4143  1.0765 -1.2151
  585MOL0     H80689  10.425  -0.181   6.194  3.0709 -0.6899 -2.1802
  585MOL0     H80690  10.356  -0.028   6.218  1.8035 -1.1565  2.1616
  585MOL0     H80691  10.511  -0.035   6.146 -0.0751 -0.0490 -1.1193
  585MOL0     H80692  10.572  -0.219   5.489  1.2080  2.3734 -0.0797
  585MOL0     H80693  10.804  -0.274   5.412  0.5044 -0.5357  0.2451
  585MOL0     H80694  11.163  -0.412   5.472  1.6192  0.2082 -2.9873
  585MOL0     H80695  11.042  -0.369   5.364  1.7662 -2.9663  0.1810
  585MOL0     H80696  11.033  -0.136   5.455  1.8445  2.3535 -1.7878
  585MOL0     H80697  11.144  -0.181   5.587  2.2607  1.8265 -0.6810
  585MOL0     H80698  11.188  -0.183   5.285  0.3962 -2.6811  1.8210
  585MOL0     H80699  11.322  -0.204   5.406  2.1756  2.1348 -2.0136
  585MOL0     H80700  11.312   0.021   5.491 -1.2074 -0.7584  0.9373
  585MOL0     H80701  11.176   0.067   5.387 -0.0447 -0.9918 -3.6927
  585MOL0     H80702  11.425  -0.045   5.269  1.3100  1.5355  2.0710
  585MOL0     H80703  11.297   0.027   5.179  3.1717 -3.0073 -1.6390
  585MOL0     H80704  11.457   0.181   5.395  0.3388 -0.1884  0.7951
  585MOL0     H80705  11.346   0.256   5.285  0.5847  1.7638 -3.0430
  585MOL0     H80706  11.601   0.110   5.198  0.8359  1.8139 -0.6768
  585MOL0     H80707  11.586   0.285   5.217  2.4257 -0.6735  0.4765
  585MOL0     H80708  11.457   0.111   5.015 -0.9585  0.6795  1.3376
  585MOL0     H80709  11.603   0.234   5.010 -1.4712  2.1411 -1.8358
  585MOL0     H80710  10.883  -0.482   5.774  0.4242  1.6607  2.3358
  585MOL0     H80711  10.653  -0.406   5.863 -1.7745  3.2579 -0.1592
  585MOL0     H80712  10.262  -0.188   5.703  0.9459  4.6580 -1.8314
  585MOL0     H80713  10.045  -0.135   5.757  2.4869  1.0202 -2.9167
  585MOL0     H80714   9.084   0.109   5.276 -2.4123  1.0039  2.0087
  585MOL0     H80715   9.085   0.230   5.061  0.8078  0.7059 -0.5365
  585MOL0     H80716   8.848   0.361   4.679 -2.5599 -0.1065 -2.3754
  585MOL0     H80717   8.835   0.436   4.454  0.9116 -0.5442 -1.0808
  585MOL0     H80718   9.136   0.402   4.172 -2.1675  2.1169 -0.4330
  585MOL0     H80719   9.078   0.228   4.149 -0.4840 -0.1428 -1.0794
  585MOL0     H80720   9.074   0.352   3.933 -0.9119  1.9952 -0.1260
  585MOL0     H80721   8.937   0.440   3.998 -0.4909 -0.1821  0.7673
  585MOL0     H80722   8.965   0.172   3.880 -1.3109 -1.0228 -1.4694
  585MOL0     H80723   8.914   0.145   4.046 -0.8055  1.7622  0.7678
  585MOL0     H80724   8.717   0.285   4.009 -1.7638 -3.1677  0.1110
  585MOL0     H80725   8.741   0.161   3.896  0.2370 -0.5217  0.2573
  585MOL0     H80726   8.751   0.522   3.657  2.1979 -1.1003 -0.4165
  585MOL0     H80727   9.158   0.198   4.331 -0.2698 -1.8883  0.5022
  585MOL0     H80728   9.278   0.102   4.645 -1.0324 -0.6700  2.0252
  585MOL0     H80729   9.164  -0.023   4.575  0.7714  0.1058  1.1115
  585MOL0     H80730   9.271   0.061   4.466  1.3898  0.2249  0.3996
  586MOL0     O80731   1.001   4.811   7.720  0.6565  0.1367 -0.4122
  586MOL0     C80732   0.957   4.704   7.759  0.1683 -0.1558  0.2016
  586MOL0     O80733   1.033   4.603   7.817  0.1091 -0.4413  0.3798
  586MOL0     C80734   1.164   4.626   7.849  0.1932  0.5184 -0.4460
  586MOL0     C80735   1.258   4.628   7.755 -0.0100 -0.2603 -0.0853
  586MOL0     C80736   1.391   4.650   7.793  0.0717 -0.2015 -0.4659
  586MOL0     C80737   1.431   4.684   7.923  0.2766 -0.0014  0.1413
  586MOL0     O80738   1.560   4.723   7.942 -0.2205  0.1510  0.0107
  586MOL0     C80739   1.613   4.705   8.074 -1.8460  0.1867  0.1739
  586MOL0     C80740   1.758   4.740   8.067 -0.4072 -0.1727  0.0454
  586MOL0     C80741   1.778   4.894   8.042 -0.3732  0.9160 -0.5484
  586MOL0     C80742   1.927   4.930   8.047  0.3334 -1.2167 -0.3297
  586MOL0     C80743   1.937   5.069   7.974  1.1922  0.8350 -0.5892
  586MOL0     C80744   1.892   5.171   8.070 -0.8283  0.3208 -0.1573
  586MOL0     C80745   1.984   5.285   8.058 -0.4908 -0.2207 -0.0338
  586MOL0     C80746   1.938   5.404   8.147  0.8734  0.9610  0.2375
  586MOL0     N80747   2.024   5.515   8.114 -0.1729  0.2328  0.3536
  586MOL0     C80748   1.998   5.605   8.001  0.5725  0.3805 -0.9230
  586MOL0     C80749   2.115   5.673   7.988  1.1146  0.1203  0.3734
  586MOL0     C80750   2.141   5.798   7.905 -0.1666  0.7639 -0.1695
  586MOL0     C80751   2.157   5.757   7.754 -0.2340 -0.0434  0.6323
  586MOL0     C80752   2.183   5.867   7.655 -0.0974  0.0441 -0.0392
  586MOL0     C80753   2.288   5.968   7.708  0.0030  0.8720  0.4810
  586MOL0     O80754   2.410   5.885   7.715 -0.1282 -0.8538 -0.0399
  586MOL0     C80755   2.508   5.915   7.625  0.1235  1.1661 -0.1936
  586MOL0     C80756   2.614   5.827   7.619 -1.1548 -0.4832  0.1866
  586MOL0     C80757   2.729   5.851   7.545  0.4098 -0.5839 -0.4054
  586MOL0     C80758   2.832   5.748   7.557  0.1047 -0.3486  0.0640
  586MOL0     C80759   2.745   5.973   7.472  1.0926 -0.1408 -0.1300
  586MOL0     C80760   2.853   6.000   7.379  0.0983 -0.7347  0.5664
  586MOL0     O80761   2.928   5.900   7.322 -0.0737  0.3717 -0.6403
  586MOL0     C80762   3.037   5.949   7.248 -0.1096 -0.3626  0.3012
  586MOL0     C80763   3.023   5.971   7.103 -0.1096 -0.6207  0.5640
  586MOL0     C80764   3.135   6.004   7.019 -0.1848 -0.2267 -0.2121
  586MOL0     C80765   3.262   6.010   7.068 -0.6440  0.8180 -0.0466
  586MOL0     O80766   3.363   6.048   6.980  0.7302  0.1279  0.0838
  586MOL0     C80767   3.498   6.040   7.014  0.3008 -0.3626 -0.8111
  586MOL0     C80768   3.581   6.084   6.892 -0.0452 -0.3619 -0.8396
  586MOL0     C80769   3.565   5.972   6.788 -0.0654  0.1073 -0.2303
  586MOL0     C80770   3.585   6.026   6.651 -0.5696 -0.5641  0.4829
  586MOL0     C80771   3.474   5.993   6.551 -0.1299  0.3808 -0.2846
  586MOL0     C80772   3.353   6.078   6.590  0.9651  0.1578 -0.6884
  586MOL0     C80773   3.228   6.052   6.504  0.2786  0.7949  0.2106
  586MOL0     C80774   3.168   5.910   6.525 -0.1054 -0.4205 -0.3858
  586MOL0    Cl80775   3.007   5.924   6.454 -0.2151  0.0799  0.3676
  586MOL0     C80776   3.285   5.982   7.208  0.0769  0.4539 -0.1681
  586MOL0     C80777   3.173   5.954   7.294 -0.0597  0.2476  0.2461
  586MOL0     O80778   2.871   6.120   7.363  0.2483  0.4049  0.3640
  586MOL0     C80779   2.640   6.072   7.485 -0.0203  0.1773 -0.7760
  586MOL0     C80780   2.525   6.038   7.557  1.1737  0.4817  0.2818
  586MOL0     N80781   2.200   5.639   8.098 -0.1272  0.1708  0.5382
  586MOL0     N80782   2.147   5.548   8.174  0.2548 -0.0675 -0.3846
  586MOL0     C80783   1.334   4.678   8.027 -0.8450 -1.4483  0.0471
  586MOL0     C80784   1.196   4.656   7.991 -0.0481 -0.7057  0.9289
  586MOL0     C80785   0.816   4.685   7.735 -0.0808 -0.1685 -0.6534
  586MOL0     C80786   0.762   4.561   7.781 -0.0736  0.5601  0.5981
  586MOL0     C80787   0.630   4.523   7.759  0.4268  0.1967 -0.1868
  586MOL0     C80788   0.551   4.587   7.670  0.5044  0.1394 -0.0198
  586MOL0     O80789   0.425   4.541   7.650 -0.4342  0.1750  0.3516
  586MOL0     C80790   0.339   4.621   7.559  0.5237  0.5962  0.2913
  586MOL0     C80791   0.194   4.555   7.570 -0.1853 -0.6800 -0.3998
  586MOL0     C80792   0.135   4.568   7.713 -0.7094  0.3447  0.0398
  586MOL0     C80793   0.108   4.708   7.753 -0.1988 -0.2775  0.0949
  586MOL0     C80794   0.008   4.713   7.863  0.2418  0.5864 -0.1019
  586MOL0     C80795  -0.081   4.736   7.944  0.4229 -0.5671 -0.1625
  586MOL0     C80796   0.612   4.706   7.611 -0.5660 -0.2632 -0.1390
  586MOL0     C80797   0.730   4.764   7.648 -0.3623  0.1942 -0.6622
  586MOL0     C80798   0.766   4.888   7.579 -0.5963 -0.0613  0.5681
  586MOL0     H80799   1.239   4.605   7.650  3.7204 -1.0255 -0.7165
  586MOL0     H80800   1.463   4.642   7.713 -0.9838  0.2780 -1.4887
  586MOL0     H80801   1.623   4.597   8.089  2.0798  0.3463 -0.2847
  586MOL0     H80802   1.572   4.770   8.153 -0.2797  1.3208  0.0998
  586MOL0     H80803   1.811   4.707   8.157  2.4999 -1.5178 -1.9959
  586MOL0     H80804   1.810   4.686   7.988 -1.3145 -2.8122  1.1308
  586MOL0     H80805   1.738   4.921   7.943  0.4664 -3.4323 -2.2770
  586MOL0     H80806   1.739   4.952   8.127  1.7104  1.2553  0.2332
  586MOL0     H80807   1.969   4.935   8.148 -3.4204  2.5535  1.3775
  586MOL0     H80808   1.995   4.859   7.999  0.1850 -0.6715 -1.3595
  586MOL0     H80809   1.874   5.066   7.885  2.1985 -0.1833 -1.2830
  586MOL0     H80810   2.040   5.080   7.940  0.8997  3.3480 -0.8089
  586MOL0     H80811   1.790   5.202   8.046 -0.1710  1.5171 -1.5343
  586MOL0     H80812   1.900   5.141   8.175 -0.2037  0.1949 -0.2341
  586MOL0     H80813   1.982   5.312   7.952  0.5127 -1.4517 -0.3884
  586MOL0     H80814   2.086   5.263   8.091 -0.1147 -0.7464 -1.4502
  586MOL0     H80815   1.833   5.415   8.121  0.5586  0.3711  1.2157
  586MOL0     H80816   1.951   5.381   8.253  1.3649  0.6177  0.1109
  586MOL0     H80817   1.907   5.618   7.945 -1.3745 -0.6378  1.7753
  586MOL0     H80818   2.230   5.853   7.938 -0.5923  0.6057  1.2941
  586MOL0     H80819   2.064   5.875   7.907  1.0477  2.0333 -1.1181
  586MOL0     H80820   2.240   5.686   7.746 -1.1580 -1.1454  0.4509
  586MOL0     H80821   2.066   5.705   7.723  1.1233 -0.6707 -2.7321
  586MOL0     H80822   2.200   5.835   7.552  1.0489 -1.7280  0.6466
  586MOL0     H80823   2.092   5.928   7.650  1.0016  1.8023  0.4029
  586MOL0     H80824   2.287   6.054   7.641 -0.4775  0.2039 -0.3808
  586MOL0     H80825   2.252   6.003   7.806 -2.8117 -3.4524  1.2615
  586MOL0     H80826   2.610   5.738   7.680 -3.1511 -2.6173 -2.7928
  586MOL0     H80827   2.917   5.788   7.613 -0.0024 -1.1343  0.8052
  586MOL0     H80828   2.861   5.717   7.456  1.8946  1.7143 -0.1402
  586MOL0     H80829   2.802   5.660   7.614  3.5429 -1.9634 -0.3761
  586MOL0     H80830   2.924   5.941   7.069  0.4141 -2.7351  0.7551
  586MOL0     H80831   3.131   6.019   6.912 -0.1989 -0.9199 -0.3184
  586MOL0     H80832   3.532   6.094   7.103 -0.0475 -0.9523 -0.3086
  586MOL0     H80833   3.515   5.941   7.056  1.4410  0.6704  1.3383
  586MOL0     H80834   3.538   6.178   6.857 -2.9727 -0.8179  1.1578
  586MOL0     H80835   3.687   6.090   6.918 -0.1742 -2.2827  0.3658
  586MOL0     H80836   3.465   5.928   6.784  0.6368 -1.6742  0.8012
  586MOL0     H80837   3.632   5.891   6.818  1.5176  1.6036  0.4214
  586MOL0     H80838   3.672   5.973   6.612 -1.6324 -1.9212 -0.1016
  586MOL0     H80839   3.613   6.132   6.643  4.2237 -1.7787 -2.5302
  586MOL0     H80840   3.501   6.005   6.446 -2.9053  0.0290 -1.1100
  586MOL0     H80841   3.448   5.887   6.564  1.9363 -0.4251 -2.1791
  586MOL0     H80842   3.378   6.183   6.574 -1.0071  0.7347 -0.1915
  586MOL0     H80843   3.328   6.065   6.696  0.5164  5.2630  0.0903
  586MOL0     H80844   3.241   6.061   6.395 -0.7802 -2.1221 -0.2458
  586MOL0     H80845   3.160   6.134   6.526  2.3074  2.5910  0.1063
  586MOL0     H80846   3.173   5.890   6.633  1.1640  0.2209 -0.3081
  586MOL0     H80847   3.220   5.825   6.481  2.4780  0.2923  1.0585
  586MOL0     H80848   3.384   5.996   7.250 -0.4214  1.1503  0.8017
  586MOL0     H80849   3.191   5.947   7.401  2.0119  1.0590 -0.0196
  586MOL0     H80850   2.640   6.159   7.420 -4.2911 -0.1833 -1.5633
  586MOL0     H80851   2.451   6.118   7.559  0.9187  0.3820  4.2928
  586MOL0     H80852   1.366   4.693   8.130 -1.0918 -3.1659  0.4017
  586MOL0     H80853   1.122   4.665   8.070 -1.9116  0.5790 -0.8537
  586MOL0     H80854   0.823   4.503   7.850 -0.9082 -2.6147 -1.1443
  586MOL0     H80855   0.595   4.432   7.807 -0.8983  1.0759  0.5521
  586MOL0     H80856   0.328   4.728   7.576  1.2873  1.1343 -2.2481
  586MOL0     H80857   0.378   4.610   7.457  1.3193 -3.0795  0.8599
  586MOL0     H80858   0.208   4.449   7.546  2.8669 -0.3266 -0.5804
  586MOL0     H80859   0.120   4.592   7.498  1.4598 -0.4164 -2.0051
  586MOL0     H80860   0.045   4.508   7.731 -2.0977  2.3514  0.1202
  586MOL0     H80861   0.207   4.527   7.784 -3.4260 -0.0228  2.8360
  586MOL0     H80862   0.074   4.763   7.665 -4.1308 -0.4331  1.3199
  586MOL0     H80863   0.204   4.752   7.782  0.6035 -1.7132 -0.2666
  586MOL0     H80864  -0.147   4.762   8.024 -0.3978 -0.1339 -0.9651
  586MOL0     H80865   0.555   4.760   7.537  1.2603  0.1693 -1.2987
  586MOL0     H80866   0.684   4.945   7.536  0.2445  1.9552  1.4841
  586MOL0     H80867   0.821   4.953   7.649  0.3897  1.7259 -1.7339
  586MOL0     H80868   0.836   4.861   7.500  1.3135  0.1064  2.0993
  587MOL0     O80869   3.393   2.606   4.228 -0.5227 -0.0225  0.3501
  587MOL0     C80870   3.404   2.725   4.188  0.1811  0.4247 -0.3638
  587MOL0     O80871   3.470   2.820   4.253  0.1720 -0.7429  0.3381
  587MOL0     C80872   3.539   2.789   4.369  0.0324  0.5952  0.6030
  587MOL0     C80873   3.628   2.888   4.411  0.8414 -0.4374  0.0813
  587MOL0     C80874   3.720   2.887   4.523  0.3673  0.0688 -0.0902
  587MOL0     C80875   3.717   2.770   4.604 -0.9097 -0.0799  0.1841
  587MOL0     O80876   3.794   2.769   4.718 -0.1899 -0.1583 -0.6795
  587MOL0     C80877   3.872   2.658   4.764  0.2775  0.4390 -1.2472
  587MOL0     C80878   4.007   2.638   4.684 -0.6097 -0.7039  0.6796
  587MOL0     C80879   4.121   2.716   4.757  0.1872 -0.3335  0.0602
  587MOL0     C80880   4.239   2.713   4.660 -0.9569  0.0674 -0.4678
  587MOL0     C80881   4.357   2.803   4.706  0.3251  0.5047 -0.2900
  587MOL0     C80882   4.482   2.793   4.617 -0.0743  0.6152 -0.1954
  587MOL0     C80883   4.599   2.882   4.665  0.6560 -1.1960  0.3212
  587MOL0     C80884   4.563   3.029   4.700  0.3751 -0.9076  0.5239
  587MOL0     N80885   4.562   3.117   4.581 -0.8692 -0.1117  0.2753
  587MOL0     C80886   4.470   3.089   4.483 -0.4890  0.3260  0.2117
  587MOL0     C80887   4.522   3.140   4.365 -0.1781  0.8667  0.2181
  587MOL0     C80888   4.455   3.111   4.231  0.2726 -0.8799  0.5989
  587MOL0     C80889   4.479   3.208   4.112  0.2719 -0.1148  0.0557
  587MOL0     C80890   4.613   3.205   4.037  0.7624  0.1433  0.3967
  587MOL0     C80891   4.650   3.077   3.947 -0.1646 -0.4412 -0.4909
  587MOL0     O80892   4.766   3.106   3.870 -0.2158 -0.6484 -0.6001
  587MOL0     C80893   4.895   3.101   3.918  0.4624 -0.0411 -0.5136
  587MOL0     C80894   4.927   3.077   4.054  0.6702 -0.2438  0.2743
  587MOL0     C80895   5.054   3.076   4.095  0.0663 -0.0676 -0.5097
  587MOL0     C80896   5.075   3.031   4.241 -0.8805  0.4487  0.7811
  587MOL0     C80897   5.165   3.106   4.007 -0.1196  0.2535 -0.0622
  587MOL0     C80898   5.300   3.132   4.046  0.0102  0.5726  0.5122
  587MOL0     O80899   5.325   3.211   4.154  0.0347  0.1953 -0.5045
  587MOL0     C80900   5.444   3.205   4.219  0.4204  0.5575 -0.7017
  587MOL0     C80901   5.469   3.092   4.297 -0.4925  0.1630  0.5547
  587MOL0     C80902   5.592   3.087   4.363 -0.2961 -0.1631  0.4254
  587MOL0     C80903   5.673   3.204   4.361  0.0637  0.1752  0.5496
  587MOL0     O80904   5.776   3.199   4.450 -0.1117 -0.1133  0.0176
  587MOL0     C80905   5.874   3.089   4.436 -0.4251  0.1298 -0.5805
  587MOL0     C80906   6.019   3.153   4.468  0.2872  0.5947  0.0501
  587MOL0     C80907   6.132   3.044   4.455  0.1346 -0.0754  0.1592
  587MOL0     C80908   6.166   2.997   4.309  0.3558  0.9005  0.7126
  587MOL0     C80909   6.276   2.891   4.312  0.6224 -0.3614  0.4016
  587MOL0     C80910   6.289   2.815   4.170 -0.9963 -0.4420 -0.5231
  587MOL0     C80911   6.370   2.687   4.187 -0.4217 -0.5288  0.7593
  587MOL0     C80912   6.406   2.615   4.060 -0.3206 -0.4847 -0.7385
  587MOL0    Cl80913   6.256   2.548   3.997 -0.1991  0.4953  0.1166
  587MOL0     C80914   5.645   3.320   4.288  0.4715  0.3385  0.6369
  587MOL0     C80915   5.527   3.320   4.215  0.4250  0.3522  1.5522
  587MOL0     O80916   5.388   3.088   3.973  0.0295  0.5229  0.9069
  587MOL0     C80917   5.131   3.130   3.875  0.5266 -0.3422 -0.5362
  587MOL0     C80918   5.000   3.123   3.832 -0.1671 -0.2879  0.2904
  587MOL0     N80919   4.652   3.183   4.386  0.4813  0.6009  0.4863
  587MOL0     N80920   4.671   3.170   4.519  0.5409  0.4643  0.7309
  587MOL0     C80921   3.623   2.664   4.572  0.1562 -0.9663 -0.4513
  587MOL0     C80922   3.535   2.674   4.463 -0.4416  0.3017  0.0922
  587MOL0     C80923   3.363   2.765   4.050 -0.6774  0.0140  0.3381
  587MOL0     C80924   3.412   2.875   3.983 -0.5789 -0.7629 -0.0491
  587MOL0     C80925   3.368   2.914   3.857  0.6419 -0.3775  0.4119
  587MOL0     C80926   3.270   2.843   3.786  1.4407 -0.4778  0.2489
  587MOL0     O80927   3.218   2.880   3.656 -0.5674 -0.2087 -0.2634
  587MOL0     C80928   3.250   3.004   3.593 -0.2572 -0.3614 -0.0205
  587MOL0     C80929   3.386   2.997   3.515 -0.4616 -0.2033 -0.7740
  587MOL0     C80930   3.437   3.139   3.475 -0.2002  0.4974  0.2481
  587MOL0     C80931   3.581   3.156   3.525  0.0077  0.2576 -0.2086
  587MOL0     C80932   3.594   3.159   3.673 -0.5404  0.6635  0.5461
  587MOL0     C80933   3.622   3.167   3.794  0.2258 -0.0187  0.2035
  587MOL0     C80934   3.227   2.725   3.844 -0.0691 -0.1674  1.0000
  587MOL0     C80935   3.261   2.687   3.970  0.3042 -0.3236 -0.2058
  587MOL0     C80936   3.196   2.566   4.022  0.1712  0.0245  0.0795
  587MOL0     H80937   3.624   2.975   4.347 -3.3649 -1.1194 -0.8995
  587MOL0     H80938   3.783   2.971   4.550  2.2295 -1.4880  0.6490
  587MOL0     H80939   3.808   2.570   4.751 -4.8657  3.4719  0.5431
  587MOL0     H80940   3.882   2.650   4.873 -4.0834 -2.9893 -0.8041
  587MOL0     H80941   4.037   2.533   4.675  2.4922  0.0324  1.0617
  587MOL0     H80942   3.999   2.673   4.581 -0.1676 -0.5557  0.6935
  587MOL0     H80943   4.091   2.819   4.781 -1.0107 -1.1686  2.5432
  587MOL0     H80944   4.141   2.661   4.850  0.6185  1.1665  0.8918
  587MOL0     H80945   4.277   2.612   4.641 -3.3776 -1.2930  1.4087
  587MOL0     H80946   4.203   2.742   4.561  2.5676  1.9936 -1.3716
  587MOL0     H80947   4.379   2.792   4.812  2.3302  1.0178 -0.6240
  587MOL0     H80948   4.317   2.904   4.703 -2.6849 -0.5932 -1.7030
  587MOL0     H80949   4.525   2.693   4.607  2.0593  1.3796  0.8939
  587MOL0     H80950   4.450   2.824   4.517 -2.4386  1.0828  0.6404
  587MOL0     H80951   4.672   2.879   4.584 -0.0346  1.6513 -0.5253
  587MOL0     H80952   4.636   2.828   4.753  0.1244 -3.3140 -0.6925
  587MOL0     H80953   4.472   3.038   4.759 -1.8129  0.7068 -2.7947
  587MOL0     H80954   4.645   3.077   4.755  0.1680  0.6020 -0.4110
  587MOL0     H80955   4.375   3.037   4.493  0.7564 -1.9091  1.2585
  587MOL0     H80956   4.347   3.125   4.233  0.4329  0.5698  0.3658
  587MOL0     H80957   4.471   3.009   4.197  0.2233  0.0248 -2.4771
  587MOL0     H80958   4.403   3.190   4.035 -0.6644 -1.9459  1.3558
  587MOL0     H80959   4.459   3.311   4.143 -0.9310  0.7486 -3.1586
  587MOL0     H80960   4.622   3.296   3.976  1.2764 -0.6039 -0.6671
  587MOL0     H80961   4.692   3.220   4.111  0.6168  1.0197  0.3918
  587MOL0     H80962   4.673   2.992   4.012  1.1189  0.5811  0.4561
  587MOL0     H80963   4.564   3.057   3.883  1.0657  0.8988 -2.7016
  587MOL0     H80964   4.848   3.058   4.127  1.4372 -2.1706  0.6381
  587MOL0     H80965   5.179   3.041   4.273  0.1260 -1.9074 -1.4301
  587MOL0     H80966   5.053   2.925   4.255 -0.2685  0.1961 -0.0344
  587MOL0     H80967   5.005   3.083   4.307 -1.2557  1.2013 -0.1871
  587MOL0     H80968   5.398   3.010   4.288  0.6152 -0.6125 -2.9553
  587MOL0     H80969   5.629   2.994   4.404 -0.8855 -1.0517 -0.9865
  587MOL0     H80970   5.851   3.002   4.498 -0.0207  0.5863  0.2275
  587MOL0     H80971   5.878   3.060   4.330  0.3766 -0.9053 -0.2844
  587MOL0     H80972   6.054   3.217   4.387  0.2885  1.5370  0.7816
  587MOL0     H80973   6.032   3.204   4.564 -1.9268  2.6230 -0.6458
  587MOL0     H80974   6.100   2.951   4.502 -0.3487  0.7072  1.4381
  587MOL0     H80975   6.219   3.082   4.509 -0.5713  0.9182  0.6332
  587MOL0     H80976   6.191   3.081   4.243  0.9883  0.7856  0.7997
  587MOL0     H80977   6.074   2.954   4.267  0.5778  0.7663  0.3619
  587MOL0     H80978   6.372   2.938   4.335  0.5790  1.0767 -2.0938
  587MOL0     H80979   6.253   2.804   4.375  2.2695 -0.0482  1.4947
  587MOL0     H80980   6.344   2.884   4.105 -3.5450  0.2995 -2.0334
  587MOL0     H80981   6.191   2.792   4.126 -1.2862  3.6031 -2.4207
  587MOL0     H80982   6.316   2.611   4.245 -0.0715  0.7082  2.7965
  587MOL0     H80983   6.455   2.711   4.251 -0.7699  2.9520  0.1103
  587MOL0     H80984   6.484   2.540   4.069 -0.4936 -1.2029 -3.8649
  587MOL0     H80985   6.435   2.701   3.998  1.3255  2.0486  3.1633
  587MOL0     H80986   5.717   3.402   4.290 -1.0667  1.7371  0.4284
  587MOL0     H80987   5.500   3.398   4.144 -0.6817 -1.0877  0.3513
  587MOL0     H80988   5.212   3.161   3.809 -0.4812 -0.1396 -1.7133
  587MOL0     H80989   4.986   3.131   3.725  0.0720  0.7580  0.3232
  587MOL0     H80990   3.620   2.566   4.619  1.8360 -0.8927 -0.1357
  587MOL0     H80991   3.475   2.588   4.435 -1.2576  1.0633 -0.5653
  587MOL0     H80992   3.490   2.935   4.028 -0.9929 -1.0844  1.1416
  587MOL0     H80993   3.422   2.989   3.800  0.0551 -1.0051 -1.0386
  587MOL0     H80994   3.167   3.020   3.523 -0.7280 -3.9396 -0.5129
  587MOL0     H80995   3.269   3.082   3.667  2.1146  1.2308 -2.1667
  587MOL0     H80996   3.368   2.943   3.422 -0.8407 -2.5471  0.5761
  587MOL0     H80997   3.463   2.950   3.576 -1.2373 -2.6568 -1.5911
  587MOL0     H80998   3.439   3.150   3.366  1.1112 -2.7273 -0.1860
  587MOL0     H80999   3.373   3.219   3.513 -2.0132  0.0322 -1.6540
  587MOL0     H81000   3.642   3.239   3.487 -0.5097  1.0260  0.6135
  587MOL0     H81001   3.635   3.065   3.496  0.4605  0.6368 -0.5710
  587MOL0     H81002   3.658   3.185   3.894  1.7592 -0.5790 -0.2193
  587MOL0     H81003   3.154   2.666   3.789 -1.1292  0.1089  2.0585
  587MOL0     H81004   3.171   2.589   4.126 -0.2068  0.4144 -0.0905
  587MOL0     H81005   3.097   2.551   3.976 -0.2358 -0.4489  1.0876
  587MOL0     H81006   3.267   2.483   4.017  3.2309  2.4575  0.0305
  588MOL0     O81007   9.544  10.244   1.403 -0.1204  0.3870  0.0320
  588MOL0     C81008   9.543  10.278   1.522 -1.6060  0.4310  1.2581
  588MOL0     O81009   9.637  10.356   1.582 -0.5517 -0.7307  0.1181
  588MOL0     C81010   9.708  10.438   1.500  0.4535 -0.0773  0.1189
  588MOL0     C81011   9.844  10.421   1.512  0.2487  0.4881 -0.6961
  588MOL0     C81012   9.926  10.500   1.426  0.0856 -0.2790 -1.1609
  588MOL0     C81013   9.876  10.591   1.329 -0.3080 -0.8337 -0.5646
  588MOL0     O81014   9.961  10.667   1.254  0.1462 -0.2050  0.8530
  588MOL0     C81015   9.956  10.622   1.116  0.2121  0.4409 -1.0657
  588MOL0     C81016  10.047  10.495   1.089  0.2995  0.2323 -0.2013
  588MOL0     C81017  10.200  10.544   1.113  1.1161  0.4513 -0.1202
  588MOL0     C81018  10.253  10.471   1.234  0.4004 -0.2943 -0.2366
  588MOL0     C81019  10.402  10.448   1.227  0.6560 -0.3224 -0.7401
  588MOL0     C81020  10.465  10.379   1.349 -0.5527  0.5532 -0.3769
  588MOL0     C81021  10.596  10.297   1.319  0.0096  0.2929  0.8983
  588MOL0     C81022  10.589  10.155   1.269  0.2672 -0.2317  0.1445
  588MOL0     N81023  10.497  10.078   1.345 -0.8874 -0.3815  0.1870
  588MOL0     C81024  10.528  10.035   1.469 -0.7559 -0.5309 -0.5116
  588MOL0     C81025  10.417   9.973   1.514  0.3695 -0.4590  0.9899
  588MOL0     C81026  10.419   9.935   1.658  0.2841  0.3834 -0.0191
  588MOL0     C81027  10.341  10.035   1.743 -0.0867  0.2851  0.5034
  588MOL0     C81028  10.351  10.011   1.893 -0.3007 -0.2658 -0.0413
  588MOL0     C81029  10.494  10.018   1.954 -0.0608  0.0924  0.0797
  588MOL0     O81030  10.561  10.137   1.901  0.3521  0.3146 -0.2148
  588MOL0     C81031  10.696  10.151   1.923 -0.2516  0.3957  0.5110
  588MOL0     C81032  10.778  10.060   2.005 -0.2531  0.2577  0.7286
  588MOL0     C81033  10.924  10.076   2.015  0.1750 -1.0289  0.3226
  588MOL0     C81034  11.009   9.957   2.073  0.4881  0.2081  0.4611
  588MOL0     C81035  10.973  10.194   1.966  0.1700  0.5461 -0.4727
  588MOL0     C81036  11.112  10.228   1.998  0.2967  0.2672 -0.3477
  588MOL0     O81037  11.149  10.221   2.130  0.1278  0.3948  0.0572
  588MOL0     C81038  11.275  10.249   2.176 -0.1455 -0.9937 -0.7688
  588MOL0     C81039  11.374  10.162   2.136  0.1166 -0.1412  0.3388
  588MOL0     C81040  11.500  10.179   2.181 -0.0552 -0.2829 -1.0584
  588MOL0     C81041  11.533  10.271   2.277 -0.0961  0.7857 -0.0354
  588MOL0     O81042  11.661  10.278   2.325 -0.1614  0.2588 -0.2126
  588MOL0     C81043  11.718  10.398   2.373  0.6100 -0.3740  0.3521
  588MOL0     C81044  11.870  10.379   2.389  0.4831 -0.3872  0.3109
  588MOL0     C81045  11.941  10.415   2.260  0.6009 -0.2748 -0.1205
  588MOL0     C81046  12.088  10.411   2.290  0.0624 -0.3246 -0.0996
  588MOL0     C81047  12.171  10.410   2.162  0.6930  1.0673 -0.1624
  588MOL0     C81048  12.317  10.408   2.194 -0.0658 -0.2097  0.6554
  588MOL0     C81049  12.399  10.367   2.069  0.3298  0.3196  0.8209
  588MOL0     C81050  12.547  10.364   2.081  0.0865  0.6819 -0.4302
  588MOL0    Cl81051  12.611  10.328   1.921  0.2027 -0.1892  0.5243
  588MOL0     C81052  11.427  10.354   2.323  0.4494  0.7185  0.1217
  588MOL0     C81053  11.298  10.339   2.280  0.6848 -0.2514 -0.3603
  588MOL0     O81054  11.178  10.264   1.907  0.3651  0.4873 -0.7641
  588MOL0     C81055  10.893  10.288   1.893 -0.7250  0.6185  0.1489
  588MOL0     C81056  10.757  10.265   1.873  0.1808 -0.6595  0.2363
  588MOL0     N81057  10.317   9.969   1.415 -0.2208  0.4270  0.6214
  588MOL0     N81058  10.373  10.035   1.311 -0.5324  0.2617 -0.0606
  588MOL0     C81059   9.738  10.610   1.326  0.4238  0.0965  0.1051
  588MOL0     C81060   9.651  10.536   1.410  0.1701  0.3858 -0.1767
  588MOL0     C81061   9.443  10.214   1.608  1.2998 -0.2806 -0.1726
  588MOL0     C81062   9.462  10.244   1.746 -0.1836  0.6994 -0.3706
  588MOL0     C81063   9.370  10.205   1.840 -0.4652 -0.2060 -0.4967
  588MOL0     C81064   9.263  10.130   1.802  0.2547 -0.0907  1.0704
  588MOL0     O81065   9.173  10.099   1.895  0.7137 -0.3690  0.4160
  588MOL0     C81066   9.090   9.992   1.873 -0.8774  0.4102  0.2005
  588MOL0     C81067   9.156   9.855   1.878  0.1221  0.0014 -0.0104
  588MOL0     C81068   9.076   9.751   1.810  0.7244  0.0366  0.0719
  588MOL0     C81069   9.152   9.619   1.787 -0.3798  0.0184 -0.9537
  588MOL0     C81070   9.165   9.539   1.912  0.2851  0.7422 -0.1234
  588MOL0     C81071   9.187   9.469   2.010 -0.4461 -0.0039  0.8803
  588MOL0     C81072   9.257  10.093   1.672  0.2792 -0.6596  0.1117
  588MOL0     C81073   9.338  10.135   1.571  0.1891 -0.3482 -0.8960
  588MOL0     C81074   9.297  10.095   1.425 -0.2012 -0.4644 -0.9905
  588MOL0     H81075   9.877  10.337   1.571 -2.3643 -2.0392 -2.5751
  588MOL0     H81076  10.030  10.469   1.434  0.6710  1.9097  1.6615
  588MOL0     H81077  10.001  10.703   1.058  2.1786 -0.8565 -1.4617
  588MOL0     H81078   9.854  10.603   1.080  0.3552  1.9073 -2.3152
  588MOL0     H81079  10.022  10.409   1.153  1.6646 -0.7802 -0.9710
  588MOL0     H81080  10.031  10.462   0.986  4.3127  2.4917 -1.7924
  588MOL0     H81081  10.261  10.514   1.027 -0.3268  0.1482 -1.0556
  588MOL0     H81082  10.209  10.651   1.131 -0.3654  0.3743  1.3304
  588MOL0     H81083  10.218  10.519   1.326 -1.0508 -3.2842  0.9127
  588MOL0     H81084  10.206  10.372   1.239 -0.6915  0.2559  1.5754
  588MOL0     H81085  10.447  10.547   1.227  2.2979 -1.0333  0.0501
  588MOL0     H81086  10.424  10.408   1.127 -1.3808  3.9292 -3.1907
  588MOL0     H81087  10.491  10.452   1.425 -1.3983 -2.8091  3.5045
  588MOL0     H81088  10.393  10.322   1.407 -1.5319  3.2632  1.2277
  588MOL0     H81089  10.660  10.297   1.408  0.3349  1.2346  0.6796
  588MOL0     H81090  10.653  10.349   1.241 -0.5153  1.1770  1.0821
  588MOL0     H81091  10.559  10.171   1.165  1.0029 -2.9938 -0.5671
  588MOL0     H81092  10.688  10.108   1.269  1.0854  1.4027  0.0920
  588MOL0     H81093  10.621  10.054   1.522  1.3744  1.1374 -4.4162
  588MOL0     H81094  10.519   9.924   1.701  0.3127  1.4849  0.2148
  588MOL0     H81095  10.367   9.839   1.668 -1.0204  0.8801 -1.6108
  588MOL0     H81096  10.384  10.135   1.731 -1.9713  1.1017  0.1829
  588MOL0     H81097  10.234  10.037   1.720 -0.3484  4.3577  1.2475
  588MOL0     H81098  10.284  10.085   1.937  0.7610  0.5535  0.2577
  588MOL0     H81099  10.312   9.912   1.919 -1.4982  0.4586  1.0830
  588MOL0     H81100  10.483  10.026   2.063 -0.3912  0.4944  0.0199
  588MOL0     H81101  10.561   9.933   1.937  0.7063  0.6518  0.2591
  588MOL0     H81102  10.726   9.973   2.044  0.1981 -0.4875 -0.3004
  588MOL0     H81103  11.115   9.979   2.088  0.2824  1.1076  0.6348
  588MOL0     H81104  11.003   9.870   2.007  4.4575 -0.0954  0.2285
  588MOL0     H81105  10.969   9.933   2.172  1.5505  2.1126  1.4043
  588MOL0     H81106  11.361  10.081   2.064 -0.0102 -0.1437  0.3649
  588MOL0     H81107  11.579  10.116   2.141  1.4990  1.1813 -0.3821
  588MOL0     H81108  11.706  10.486   2.310  1.5991 -0.3485  0.1907
  588MOL0     H81109  11.675  10.422   2.471 -0.5880  1.5305 -0.5846
  588MOL0     H81110  11.909  10.443   2.468 -1.4354  0.6406  0.4698
  588MOL0     H81111  11.902  10.276   2.410  0.8834 -0.6323 -1.3022
  588MOL0     H81112  11.928  10.519   2.229  0.3232  0.5396  2.4422
  588MOL0     H81113  11.914  10.345   2.181 -0.7990  1.0766 -0.9059
  588MOL0     H81114  12.118  10.318   2.340 -0.5370 -1.0361 -1.0225
  588MOL0     H81115  12.113  10.498   2.351 -1.2886  1.0747 -1.4433
  588MOL0     H81116  12.161  10.314   2.110  3.2184  2.0667 -2.7509
  588MOL0     H81117  12.151  10.498   2.099 -0.2661  1.9973  1.3761
  588MOL0     H81118  12.344  10.332   2.268  1.9198 -0.6324 -0.4477
  588MOL0     H81119  12.355  10.503   2.233 -0.6805 -0.1803  1.2058
  588MOL0     H81120  12.381  10.453   2.004  0.8342  2.2578  3.0636
  588MOL0     H81121  12.359  10.275   2.028  1.4947  0.0465  0.2604
  588MOL0     H81122  12.572  10.286   2.154 -3.1732  0.9508  1.1394
  588MOL0     H81123  12.577  10.459   2.126 -0.1003  0.1893  0.7775
  588MOL0     H81124  11.439  10.421   2.408  1.8984  0.3062  0.2600
  588MOL0     H81125  11.215  10.397   2.319 -1.1488 -1.9663 -1.4918
  588MOL0     H81126  10.927  10.386   1.860 -2.0457  0.5325 -1.5841
  588MOL0     H81127  10.706  10.345   1.821 -1.4266 -0.8650  1.4580
  588MOL0     H81128   9.690  10.696   1.280  1.4017  1.6041  1.7900
  588MOL0     H81129   9.546  10.561   1.423  0.4661  1.0074  1.2583
  588MOL0     H81130   9.557  10.286   1.777  0.7281 -2.4873  1.5435
  588MOL0     H81131   9.402  10.213   1.943 -1.1517  1.3310 -0.3658
  588MOL0     H81132   9.018  10.003   1.954 -2.5083 -0.8527 -1.0144
  588MOL0     H81133   9.038  10.001   1.777  1.3050 -1.2804 -1.2405
  588MOL0     H81134   9.166   9.824   1.982 -0.8755  3.0142  1.1080
  588MOL0     H81135   9.254   9.872   1.832 -0.1749  0.5075 -0.4708
  588MOL0     H81136   8.989   9.729   1.873 -1.6460  3.2039 -1.7820
  588MOL0     H81137   9.044   9.796   1.715 -0.3088  1.5778  1.1072
  588MOL0     H81138   9.255   9.645   1.762 -0.0676  0.3939  0.6603
  588MOL0     H81139   9.100   9.560   1.711 -3.7291  1.5559 -0.0678
  588MOL0     H81140   9.210   9.420   2.103  1.6341  2.0494  1.5165
  588MOL0     H81141   9.164  10.043   1.645 -1.2277  1.3176  1.3243
  588MOL0     H81142   9.272  10.187   1.371 -1.3715 -0.2203 -0.0818
  588MOL0     H81143   9.390  10.058   1.382  0.1217 -0.8994  0.0380
  588MOL0     H81144   9.207  10.032   1.427 -0.8200  0.3940 -1.1027
  589MOL0     O81145   7.003   3.197   0.240 -0.0122  0.0938 -0.2684
  589MOL0     C81146   6.925   3.291   0.246 -0.9021  0.0010  0.3961
  589MOL0     O81147   6.946   3.404   0.327  1.1679 -0.2757 -0.6680
  589MOL0     C81148   7.051   3.415   0.413 -0.2557  0.5106  0.6766
  589MOL0     C81149   7.109   3.307   0.490 -0.6059 -0.7473  0.2601
  589MOL0     C81150   7.213   3.343   0.580 -0.2332 -0.2278  0.3743
  589MOL0     C81151   7.255   3.477   0.593 -0.5343  0.9437 -0.6208
  589MOL0     O81152   7.351   3.510   0.687 -0.2652  0.5073 -0.5676
  589MOL0     C81153   7.431   3.633   0.664 -0.3146  0.1939 -0.0593
  589MOL0     C81154   7.536   3.645   0.773 -0.0276 -0.6302  0.1671
  589MOL0     C81155   7.644   3.758   0.751 -0.0934 -0.1205  0.3788
  589MOL0     C81156   7.768   3.753   0.843 -0.6244 -0.6145 -0.6645
  589MOL0     C81157   7.873   3.857   0.810  0.2443  0.2282  0.7540
  589MOL0     C81158   7.998   3.851   0.906 -0.6533  0.2273 -0.0102
  589MOL0     C81159   8.041   4.001   0.933 -0.2674  0.9061  0.2138
  589MOL0     C81160   8.157   4.015   1.029  0.5088 -0.6043 -0.5231
  589MOL0     N81161   8.287   4.027   0.963  0.0694 -0.0496 -0.0721
  589MOL0     C81162   8.359   4.147   0.956 -0.4859 -0.2479 -0.0368
  589MOL0     C81163   8.476   4.115   0.894  0.4784  0.4451  0.4094
  589MOL0     C81164   8.590   4.215   0.863 -0.1172  0.1791 -0.4355
  589MOL0     C81165   8.701   4.198   0.974  0.4140 -0.8201  0.6232
  589MOL0     C81166   8.815   4.094   0.948 -0.4318  0.1671  0.6426
  589MOL0     C81167   8.904   4.083   1.067 -0.8834 -0.8403 -0.1849
  589MOL0     O81168   9.027   4.008   1.029  0.4329  0.5311 -0.7895
  589MOL0     C81169   9.138   4.074   0.987  0.6166  0.0253 -0.7234
  589MOL0     C81170   9.136   4.206   0.942 -0.0356  1.5666  0.2800
  589MOL0     C81171   9.256   4.265   0.877 -0.3012  0.1780  0.0098
  589MOL0     C81172   9.238   4.411   0.843  0.4061 -0.7979 -0.5690
  589MOL0     C81173   9.369   4.188   0.857 -1.0721 -0.1399 -1.0191
  589MOL0     C81174   9.492   4.238   0.797  0.3016 -0.2977 -1.4052
  589MOL0     O81175   9.483   4.351   0.719  0.0912  0.4392  0.4045
  589MOL0     C81176   9.564   4.374   0.610 -0.0789 -0.9994 -0.7237
  589MOL0     C81177   9.588   4.282   0.504 -0.5767 -0.0227  0.4445
  589MOL0     C81178   9.673   4.316   0.400 -0.3638 -0.5180  0.1076
  589MOL0     C81179   9.726   4.444   0.394  0.4885  0.8346  0.5818
  589MOL0     O81180   9.789   4.493   0.286  0.4512  0.0413  0.6193
  589MOL0     C81181   9.932   4.519   0.297  0.0037 -0.6021 -0.4918
  589MOL0     C81182  10.015   4.397   0.257 -0.2691  0.2574 -0.3514
  589MOL0     C81183  10.154   4.407   0.314  0.1194 -0.0363 -0.1952
  589MOL0     C81184  10.241   4.501   0.226  0.3696 -0.2172  0.6188
  589MOL0     C81185  10.380   4.524   0.286  1.0333 -0.0389  0.0025
  589MOL0     C81186  10.461   4.616   0.196  1.9633  0.4832  0.8913
  589MOL0     C81187  10.593   4.651   0.265  0.1873  0.3789  0.0267
  589MOL0     C81188  10.683   4.720   0.164 -0.7301  0.0054 -0.6114
  589MOL0    Cl81189  10.652   4.898   0.147 -0.5115 -0.3956 -0.0602
  589MOL0     C81190   9.688   4.535   0.492 -1.0022 -0.1733 -0.1119
  589MOL0     C81191   9.621   4.497   0.603 -0.1501  0.1300  0.8636
  589MOL0     O81192   9.598   4.179   0.826  0.0832  0.4768  0.2243
  589MOL0     C81193   9.372   4.060   0.917 -0.2050  0.0774  0.5234
  589MOL0     C81194   9.259   4.005   0.984 -1.8982 -0.9150 -0.5333
  589MOL0     N81195   8.462   3.981   0.848 -0.2324 -0.6040  0.4660
  589MOL0     N81196   8.352   3.927   0.889 -0.3807  0.1887 -0.3731
  589MOL0     C81197   7.203   3.579   0.511 -0.0664 -0.9350 -0.5628
  589MOL0     C81198   7.092   3.550   0.433 -0.9599 -0.3938  0.3572
  589MOL0     C81199   6.806   3.291   0.155  0.0317 -0.3432  0.3394
  589MOL0     C81200   6.699   3.386   0.177 -0.5602 -0.2720 -0.1072
  589MOL0     C81201   6.586   3.393   0.101  1.1333  0.0941  0.2558
  589MOL0     C81202   6.575   3.319  -0.015  0.6283  0.4231  0.0976
  589MOL0     O81203   6.477   3.334  -0.114  0.5262  0.5542  0.0127
  589MOL0     C81204   6.360   3.416  -0.083  0.1108 -0.1193 -0.0155
  589MOL0     C81205   6.399   3.562  -0.116  0.2047  0.0484  0.0735
  589MOL0     C81206   6.430   3.582  -0.267 -0.7311  0.2221  0.8560
  589MOL0     C81207   6.502   3.718  -0.284  0.8335 -0.2925  0.5662
  589MOL0     C81208   6.539   3.742  -0.426 -0.4329  0.3179 -0.0362
  589MOL0     C81209   6.579   3.760  -0.542  1.3811  0.1477 -0.5484
  589MOL0     C81210   6.678   3.225  -0.042  1.1133  0.0558  0.8977
  589MOL0     C81211   6.787   3.207   0.043  0.1609  0.3385 -0.3359
  589MOL0     C81212   6.868   3.085   0.014 -1.6011 -0.1480 -0.0074
  589MOL0     H81213   7.085   3.202   0.476  2.1267 -1.6094  1.4623
  589MOL0     H81214   7.259   3.257   0.627 -0.5432 -0.4163  0.3362
  589MOL0     H81215   7.366   3.721   0.668 -0.2030  0.5525 -3.2661
  589MOL0     H81216   7.481   3.626   0.567 -0.1279  0.9904 -0.0233
  589MOL0     H81217   7.480   3.660   0.866 -2.8585 -0.1066 -1.5285
  589MOL0     H81218   7.586   3.550   0.794 -1.5671 -1.4572  0.2332
  589MOL0     H81219   7.687   3.759   0.651 -0.1048  3.1460  0.2975
  589MOL0     H81220   7.591   3.852   0.771  1.1462  0.8782 -0.8520
  589MOL0     H81221   7.732   3.765   0.946 -2.1811 -0.7317 -1.1671
  589MOL0     H81222   7.824   3.660   0.842  0.7824  0.1983 -1.1534
  589MOL0     H81223   7.829   3.958   0.807  0.9015  0.5113  0.5489
  589MOL0     H81224   7.903   3.835   0.708  1.6446  2.1221  0.6957
  589MOL0     H81225   7.979   3.802   1.002 -2.3205 -0.9190 -0.8767
  589MOL0     H81226   8.079   3.794   0.860 -1.3190 -3.0554  2.5029
  589MOL0     H81227   7.953   4.043   0.982 -2.6111 -1.9049 -1.2644
  589MOL0     H81228   8.074   4.041   0.836  2.8884 -4.0074 -1.1005
  589MOL0     H81229   8.135   4.108   1.083  1.6311 -1.5499  1.7033
  589MOL0     H81230   8.177   3.941   1.107  1.3354  0.4870  0.3504
  589MOL0     H81231   8.346   4.244   1.003 -0.4470  0.0347 -0.6034
  589MOL0     H81232   8.552   4.317   0.856  0.9850  0.6148 -0.2988
  589MOL0     H81233   8.628   4.182   0.766  1.2098 -1.4681  0.5810
  589MOL0     H81234   8.738   4.302   0.976  1.7433 -1.2274 -0.8227
  589MOL0     H81235   8.657   4.187   1.073 -2.6362  0.3757 -0.4847
  589MOL0     H81236   8.763   4.000   0.927  0.5390 -0.3116  0.2932
  589MOL0     H81237   8.868   4.126   0.858  1.7104  2.3030  2.5285
  589MOL0     H81238   8.938   4.183   1.097  3.5231 -1.7612 -1.4161
  589MOL0     H81239   8.848   4.037   1.148 -0.5331 -0.4510  0.2801
  589MOL0     H81240   9.049   4.271   0.947 -2.6854 -1.5319 -1.4290
  589MOL0     H81241   9.268   4.435   0.740  2.4094  1.2341  0.3881
  589MOL0     H81242   9.302   4.473   0.907 -0.0645 -1.0609  0.1635
  589MOL0     H81243   9.137   4.448   0.859  1.2356  2.3595 -1.8111
  589MOL0     H81244   9.542   4.184   0.510  0.1290 -0.4817 -1.3289
  589MOL0     H81245   9.697   4.240   0.326 -0.8358  0.5043 -1.1260
  589MOL0     H81246   9.962   4.610   0.244 -2.1439  0.0746 -0.6656
  589MOL0     H81247   9.948   4.534   0.404 -0.8679  0.2383 -0.4557
  589MOL0     H81248   9.974   4.299   0.283 -0.1614 -0.0941 -1.4840
  589MOL0     H81249  10.025   4.409   0.149  2.1680  0.6944 -0.1200
  589MOL0     H81250  10.191   4.305   0.314 -1.0607 -0.5293 -2.4007
  589MOL0     H81251  10.146   4.446   0.416 -0.2189 -0.6829  0.0278
  589MOL0     H81252  10.196   4.601   0.222  2.7738  0.9178 -2.9071
  589MOL0     H81253  10.249   4.466   0.122 -0.2904 -0.0459  0.5089
  589MOL0     H81254  10.378   4.560   0.389 -1.8447 -1.4312  0.5513
  589MOL0     H81255  10.425   4.425   0.293 -1.8086 -1.3866  0.9735
  589MOL0     H81256  10.414   4.714   0.185  0.7594 -0.0764  0.8723
  589MOL0     H81257  10.480   4.577   0.096  0.1982  1.2664  0.2256
  589MOL0     H81258  10.643   4.557   0.291 -1.9898 -1.4706 -1.9614
  589MOL0     H81259  10.568   4.713   0.352  1.7500  0.4910  0.4255
  589MOL0     H81260  10.673   4.672   0.067 -4.2280  4.5617 -2.9180
  589MOL0     H81261  10.785   4.691   0.194 -1.1730 -2.3945 -1.2385
  589MOL0     H81262   9.723   4.634   0.464 -0.0190 -0.7018 -0.8261
  589MOL0     H81263   9.614   4.568   0.684 -3.3647  1.1048 -0.1323
  589MOL0     H81264   9.454   3.993   0.896 -2.3553 -2.9774  1.1397
  589MOL0     H81265   9.270   3.900   1.007  1.2610 -0.5223  0.1485
  589MOL0     H81266   7.242   3.681   0.508 -3.7411  0.6034 -0.5728
  589MOL0     H81267   7.043   3.625   0.372  1.1678  2.1800  1.6303
  589MOL0     H81268   6.712   3.450   0.264  1.6402  1.0831 -1.3340
  589MOL0     H81269   6.508   3.459   0.139 -1.1917 -0.9605 -2.4039
  589MOL0     H81270   6.273   3.378  -0.138  0.0620 -0.0975  0.0454
  589MOL0     H81271   6.325   3.401   0.020  2.2172 -2.5059  0.4382
  589MOL0     H81272   6.497   3.575  -0.069  0.4445  2.2108 -0.8795
  589MOL0     H81273   6.329   3.639  -0.081 -1.8732 -1.9385  0.4834
  589MOL0     H81274   6.490   3.498  -0.302  2.3511  1.5767  2.4687
  589MOL0     H81275   6.333   3.582  -0.317 -0.7169 -0.4563  0.8308
  589MOL0     H81276   6.590   3.726  -0.219  1.0365 -1.8991  0.5229
  589MOL0     H81277   6.429   3.799  -0.272 -1.5566 -1.7282 -2.8413
  589MOL0     H81278   6.603   3.784  -0.643 -1.1138  1.0773 -0.9899
  589MOL0     H81279   6.664   3.159  -0.127  0.9302  0.5238  0.5613
  589MOL0     H81280   6.955   3.128  -0.036 -0.3550 -2.1149  0.3595
  589MOL0     H81281   6.902   3.034   0.104 -1.4346 -0.5051 -0.2650
  589MOL0     H81282   6.819   3.005  -0.043 -2.8958  2.1458 -2.3063
  590MOL0     O81283   2.766   7.141   8.049  0.4832 -0.1047 -0.2242
  590MOL0     C81284   2.672   7.216   8.028 -0.2383 -0.7235  0.1695
  590MOL0     O81285   2.586   7.202   7.917 -0.5953 -0.1049 -0.4839
  590MOL0     C81286   2.570   7.091   7.838  0.2490 -0.3248  0.2189
  590MOL0     C81287   2.505   6.971   7.887  0.1522  0.0196  0.1836
  590MOL0     C81288   2.489   6.864   7.791 -0.4367 -0.0203 -0.1219
  590MOL0     C81289   2.542   6.876   7.666  0.0161  0.5351 -0.4100
  590MOL0     O81290   2.526   6.774   7.573  0.3105 -0.4249 -0.7272
  590MOL0     C81291   2.476   6.807   7.440 -0.4227  0.0822  0.8368
  590MOL0     C81292   2.409   6.678   7.368  0.3308  0.0174  0.4362
  590MOL0     C81293   2.351   6.704   7.229 -1.7583 -0.5709 -0.4291
  590MOL0     C81294   2.274   6.589   7.161  0.0976 -0.7402 -0.0121
  590MOL0     C81295   2.203   6.645   7.031  0.5778  0.5839  0.8645
  590MOL0     C81296   2.098   6.543   6.971  0.3954 -0.1749 -0.7192
  590MOL0     C81297   1.985   6.503   7.073  0.1115  0.1489 -0.6335
  590MOL0     C81298   1.988   6.351   7.116  0.1396 -0.1531  0.7223
  590MOL0     N81299   1.958   6.267   7.002 -0.1920  1.2581  0.7180
  590MOL0     C81300   1.847   6.259   6.924 -1.2222  0.3051  0.2380
  590MOL0     C81301   1.871   6.161   6.824 -0.2877 -0.2119  0.0560
  590MOL0     C81302   1.775   6.108   6.713  0.4777 -0.7739  0.1618
  590MOL0     C81303   1.642   6.061   6.761  0.4344 -0.0738  0.2086
  590MOL0     C81304   1.521   6.171   6.757 -0.3198  0.2802 -0.7474
  590MOL0     C81305   1.387   6.114   6.817 -0.4669 -0.5683 -0.5801
  590MOL0     O81306   1.360   5.991   6.748  0.1992 -0.2438 -0.2268
  590MOL0     C81307   1.280   5.999   6.638 -0.6028  1.2541 -0.4456
  590MOL0     C81308   1.324   5.927   6.531 -0.0446 -0.8535  0.0362
  590MOL0     C81309   1.248   5.929   6.407 -0.8717  0.7085  0.4160
  590MOL0     C81310   1.318   5.868   6.286 -1.0984  0.7293  0.6406
  590MOL0     C81311   1.130   6.005   6.397  0.3017 -0.0507 -0.7797
  590MOL0     C81312   1.049   6.031   6.278  1.3689  0.3701 -0.3520
  590MOL0     O81313   1.120   6.034   6.163 -0.5089  0.7905  0.4388
  590MOL0     C81314   1.066   6.091   6.050 -0.3470 -0.2618 -1.2648
  590MOL0     C81315   0.951   6.034   5.993 -0.6826 -0.4312  0.6988
  590MOL0     C81316   0.902   6.099   5.880  0.4151  0.0266  1.3290
  590MOL0     C81317   0.971   6.202   5.817  0.0748 -0.5766  0.2092
  590MOL0     O81318   0.929   6.252   5.694  0.3160  0.4592 -0.8964
  590MOL0     C81319   1.004   6.327   5.596  0.1313  0.8153 -0.2915
  590MOL0     C81320   0.906   6.427   5.528 -0.1667  0.6454 -0.2603
  590MOL0     C81321   0.801   6.353   5.438  0.0518  0.0658 -0.5569
  590MOL0     C81322   0.713   6.449   5.371  0.1964 -0.0921  0.1189
  590MOL0     C81323   0.643   6.399   5.244  0.5238 -0.2226 -0.4027
  590MOL0     C81324   0.568   6.270   5.269  1.2287 -0.2682 -0.6902
  590MOL0     C81325   0.488   6.238   5.147 -0.2033  0.4345  0.3351
  590MOL0     C81326   0.374   6.137   5.176 -1.3313  0.5392 -0.6716
  590MOL0    Cl81327   0.433   5.992   5.258 -0.0672 -0.1769  0.3261
  590MOL0     C81328   1.100   6.239   5.865  0.3926  0.0258  0.4115
  590MOL0     C81329   1.142   6.190   5.989 -0.0607 -0.3553 -0.4067
  590MOL0     O81330   0.926   6.061   6.288  0.3057  0.5517  0.2016
  590MOL0     C81331   1.088   6.070   6.510 -0.2835 -0.0454 -0.1678
  590MOL0     C81332   1.160   6.065   6.629  0.0591  0.5094  0.4644
  590MOL0     N81333   2.002   6.121   6.847  0.5325  0.5759 -0.4015
  590MOL0     N81334   2.052   6.178   6.951 -0.5552 -0.2484 -0.0731
  590MOL0     C81335   2.604   6.992   7.621 -0.0036  0.3435 -0.3968
  590MOL0     C81336   2.618   7.104   7.707  0.3327  0.3665 -0.6294
  590MOL0     C81337   2.648   7.331   8.118 -0.2228  0.4271 -0.0867
  590MOL0     C81338   2.585   7.447   8.067 -0.8272 -0.2483 -0.5612
  590MOL0     C81339   2.567   7.558   8.143  0.7729 -0.4482 -0.6165
  590MOL0     C81340   2.597   7.558   8.283 -0.4457  0.1342 -0.0919
  590MOL0     O81341   2.566   7.665   8.376 -0.0216  0.4219 -0.2927
  590MOL0     C81342   2.516   7.790   8.338  1.0755 -0.8299 -0.0087
  590MOL0     C81343   2.464   7.859   8.458 -0.5950  0.7804  0.3260
  590MOL0     C81344   2.576   7.920   8.546 -1.7427  0.1585  0.6663
  590MOL0     C81345   2.638   8.046   8.491  0.1439  0.5752  1.0088
  590MOL0     C81346   2.526   8.146   8.495 -0.3447  0.3652 -1.2384
  590MOL0     C81347   2.431   8.221   8.499 -0.3861  0.7572 -0.0229
  590MOL0     C81348   2.654   7.442   8.340 -0.6145  0.3919 -0.8171
  590MOL0     C81349   2.687   7.330   8.255 -0.6358 -0.7419  0.7780
  590MOL0     C81350   2.741   7.212   8.325  0.1440  0.2246 -0.3315
  590MOL0     H81351   2.463   6.960   7.987  0.9004  0.9311  0.6051
  590MOL0     H81352   2.447   6.771   7.828 -0.4807  0.0965  0.1249
  590MOL0     H81353   2.567   6.833   7.387 -0.2502 -0.9111  0.6255
  590MOL0     H81354   2.410   6.894   7.444 -0.2355  0.1911  3.1315
  590MOL0     H81355   2.482   6.599   7.348 -0.4322 -0.2633 -1.4787
  590MOL0     H81356   2.333   6.636   7.434 -3.0647  0.9108 -2.5712
  590MOL0     H81357   2.287   6.794   7.227 -0.1664  0.6030 -0.8082
  590MOL0     H81358   2.441   6.731   7.172  1.0457  0.2582  3.9686
  590MOL0     H81359   2.337   6.503   7.136 -0.2900 -1.0843  0.1783
  590MOL0     H81360   2.199   6.559   7.235 -0.1213  1.3172  0.6624
  590MOL0     H81361   2.278   6.657   6.952  0.4262 -2.2644  0.1394
  590MOL0     H81362   2.148   6.739   7.040 -0.4771  0.0504  0.3002
  590MOL0     H81363   2.056   6.580   6.876  0.7646 -3.8587 -2.4932
  590MOL0     H81364   2.146   6.450   6.938 -2.6706 -2.2188  0.1613
  590MOL0     H81365   1.890   6.526   7.025 -0.1405  1.9216  0.6239
  590MOL0     H81366   1.976   6.574   7.155  0.7055 -1.0213  0.4777
  590MOL0     H81367   2.088   6.335   7.158 -0.3147 -1.7100  1.2868
  590MOL0     H81368   1.915   6.327   7.194 -0.1099  0.9997  0.8665
  590MOL0     H81369   1.756   6.318   6.928 -1.3504  0.2255 -0.8949
  590MOL0     H81370   1.827   6.022   6.671  0.8903 -1.3651  1.8172
  590MOL0     H81371   1.751   6.183   6.637 -1.7329 -0.4357  1.1041
  590MOL0     H81372   1.609   5.990   6.685  0.7318  0.4167 -0.3887
  590MOL0     H81373   1.640   6.013   6.859 -2.5157 -1.2302 -0.3166
  590MOL0     H81374   1.556   6.255   6.817 -1.1225  0.4048 -0.4586
  590MOL0     H81375   1.497   6.208   6.657 -0.8152  4.3948  0.7020
  590MOL0     H81376   1.400   6.110   6.925  2.7248  2.7685 -0.6697
  590MOL0     H81377   1.320   6.198   6.796 -0.1550 -0.3597 -0.7425
  590MOL0     H81378   1.418   5.880   6.560 -1.9129 -2.8999  3.3392
  590MOL0     H81379   1.250   5.829   6.211 -2.2481 -2.2429  3.0266
  590MOL0     H81380   1.364   5.774   6.317  0.6465  1.4718  0.4593
  590MOL0     H81381   1.393   5.934   6.240  0.2703 -1.3381 -0.2540
  590MOL0     H81382   0.895   5.962   6.053 -1.4600  0.2716  0.8286
  590MOL0     H81383   0.815   6.062   5.827  1.8231 -1.8815  0.1930
  590MOL0     H81384   1.090   6.384   5.631 -0.5317  2.9922 -1.9521
  590MOL0     H81385   1.037   6.275   5.505 -4.2995  1.8837 -2.8020
  590MOL0     H81386   0.860   6.495   5.600 -0.7225  0.5428 -0.5111
  590MOL0     H81387   0.965   6.488   5.459 -0.5386  2.2996  0.8235
  590MOL0     H81388   0.738   6.296   5.508  0.4260  2.7783  2.2236
  590MOL0     H81389   0.847   6.283   5.368  0.2094  1.5841 -2.0264
  590MOL0     H81390   0.767   6.540   5.345  1.8719 -1.7766 -2.7167
  590MOL0     H81391   0.631   6.469   5.441  1.3113  1.4694  1.0382
  590MOL0     H81392   0.581   6.484   5.214 -0.3113 -0.1691  1.3900
  590MOL0     H81393   0.713   6.375   5.163  0.1932  1.4623 -1.2350
  590MOL0     H81394   0.503   6.270   5.356 -1.2055 -1.2874 -2.4102
  590MOL0     H81395   0.634   6.184   5.283 -0.5150 -1.2916  2.0041
  590MOL0     H81396   0.555   6.194   5.072  2.0300  1.3511  1.6660
  590MOL0     H81397   0.452   6.333   5.107  2.5156  0.9700 -1.1451
  590MOL0     H81398   0.325   6.108   5.082  1.9980  2.1461 -3.1270
  590MOL0     H81399   0.304   6.193   5.238 -0.9140 -1.9303  2.2215
  590MOL0     H81400   1.163   6.304   5.806 -0.1738  2.4126  2.2661
  590MOL0     H81401   1.238   6.228   6.021  1.6100 -2.2456 -2.7694
  590MOL0     H81402   0.999   6.133   6.512 -0.3492 -0.0927 -1.1769
  590MOL0     H81403   1.122   6.111   6.719  0.9859 -1.3426  1.8685
  590MOL0     H81404   2.641   6.987   7.519 -2.6088  0.4320 -1.4335
  590MOL0     H81405   2.674   7.192   7.678  2.6313 -0.2804  1.4348
  590MOL0     H81406   2.565   7.478   7.965 -0.0674  1.4240 -0.2367
  590MOL0     H81407   2.532   7.653   8.102 -3.0809 -1.5805 -0.3627
  590MOL0     H81408   2.599   7.845   8.292 -0.2537  0.7786 -0.5847
  590MOL0     H81409   2.436   7.788   8.264 -0.8814 -0.2780  1.9586
  590MOL0     H81410   2.410   7.795   8.528 -0.0229  0.3460  0.3848
  590MOL0     H81411   2.391   7.939   8.444  1.0946  2.7998  2.1120
  590MOL0     H81412   2.544   7.940   8.649  1.0246 -0.1411  1.6782
  590MOL0     H81413   2.663   7.853   8.549  0.8854  3.3332  2.3933
  590MOL0     H81414   2.667   8.039   8.385 -0.1261 -2.4103  1.0589
  590MOL0     H81415   2.734   8.064   8.542  2.7387  0.1455 -3.1949
  590MOL0     H81416   2.341   8.280   8.493 -1.0153 -0.2819 -3.1970
  590MOL0     H81417   2.680   7.443   8.445 -1.1606 -2.3769 -0.5872
  590MOL0     H81418   2.680   7.125   8.299  1.1875  0.1726 -2.9372
  590MOL0     H81419   2.844   7.197   8.293 -0.1255 -0.2637 -1.0070
  590MOL0     H81420   2.749   7.220   8.434  1.8304  2.1559 -0.5355
  591MOL0     O81421   6.858   8.137   3.491 -0.1178 -0.6241 -0.4747
  591MOL0     C81422   6.882   8.067   3.391 -0.3376  0.5181 -0.5057
  591MOL0     O81423   6.824   8.078   3.271 -0.2437 -0.2296 -0.0735
  591MOL0     C81424   6.705   8.139   3.263  0.9787  0.1743 -0.3705
  591MOL0     C81425   6.704   8.267   3.202 -0.4380  0.4336  0.1147
  591MOL0     C81426   6.591   8.347   3.182 -0.1515 -0.3286 -0.2179
  591MOL0     C81427   6.466   8.294   3.222  0.0538  0.1620  0.7546
  591MOL0     O81428   6.342   8.365   3.229  0.4767  0.3773  0.0621
  591MOL0     C81429   6.334   8.482   3.142  0.0903  0.7848  0.6033
  591MOL0     C81430   6.186   8.529   3.145  0.4630 -0.6867 -0.5643
  591MOL0     C81431   6.083   8.419   3.117 -1.0140 -0.7772  0.3902
  591MOL0     C81432   6.015   8.366   3.238  0.4143 -0.4882  0.4807
  591MOL0     C81433   5.916   8.247   3.216  0.6672 -0.0016 -0.1832
  591MOL0     C81434   5.981   8.122   3.166  0.1293 -0.0907  0.4369
  591MOL0     C81435   6.089   8.054   3.253 -0.3803  0.5350  0.0746
  591MOL0     C81436   6.068   8.062   3.410 -0.0750 -0.1061  0.1053
  591MOL0     N81437   6.136   7.960   3.492 -0.7795 -0.1601  0.1558
  591MOL0     C81438   6.087   7.841   3.541  0.9657 -0.7686 -0.3990
  591MOL0     C81439   6.187   7.776   3.593  0.1662  0.2442  0.5796
  591MOL0     C81440   6.176   7.635   3.643  0.0453  0.1414  0.0119
  591MOL0     C81441   6.197   7.628   3.794  0.9063  0.7599 -0.2560
  591MOL0     C81442   6.211   7.483   3.843  0.2464  1.3119 -0.3274
  591MOL0     C81443   6.347   7.406   3.842 -0.1408 -0.4269  0.2749
  591MOL0     O81444   6.383   7.379   3.706  0.2205 -0.2019 -0.1991
  591MOL0     C81445   6.376   7.256   3.659 -0.1313  0.7039  0.1506
  591MOL0     C81446   6.359   7.134   3.739 -0.4515 -0.0564 -0.6629
  591MOL0     C81447   6.368   7.013   3.671  0.4163 -0.5155 -0.4201
  591MOL0     C81448   6.359   6.895   3.762 -0.1565  0.5442  0.1235
  591MOL0     C81449   6.372   7.007   3.533 -1.2676  0.3037  0.5067
  591MOL0     C81450   6.365   6.887   3.451 -0.4529 -0.1816 -0.6676
  591MOL0     O81451   6.360   6.907   3.311  0.1061  0.0551 -0.3033
  591MOL0     C81452   6.373   6.805   3.221  0.2374 -0.6004 -0.3007
  591MOL0     C81453   6.490   6.726   3.221  0.4297 -0.5388  0.6838
  591MOL0     C81454   6.497   6.626   3.119  0.1221  0.8337 -1.2694
  591MOL0     C81455   6.406   6.606   3.021  0.6469 -0.0045 -0.1256
  591MOL0     O81456   6.444   6.526   2.929 -0.5065  0.5789  0.8563
  591MOL0     C81457   6.358   6.409   2.903 -0.6127 -0.2946  0.0803
  591MOL0     C81458   6.398   6.340   2.770 -0.2242 -0.1663 -0.0877
  591MOL0     C81459   6.347   6.194   2.776 -0.6265 -0.0389  0.3661
  591MOL0     C81460   6.378   6.127   2.638 -0.7290 -1.0902 -0.1048
  591MOL0     C81461   6.523   6.090   2.639 -0.2564 -0.1986 -0.2158
  591MOL0     C81462   6.567   5.997   2.529  0.0487  0.2515  0.8957
  591MOL0     C81463   6.710   5.944   2.525  0.0725  0.0193 -0.3976
  591MOL0     C81464   6.716   5.793   2.488 -0.4034 -0.6853 -0.2161
  591MOL0    Cl81465   6.879   5.741   2.532  0.2337 -0.2366  0.1732
  591MOL0     C81466   6.289   6.680   3.023  0.1541 -0.5402 -0.5660
  591MOL0     C81467   6.267   6.771   3.129  0.0681  0.5705  0.2569
  591MOL0     O81468   6.355   6.779   3.509 -0.3106 -0.3736  0.0861
  591MOL0     C81469   6.395   7.125   3.460  0.6729  0.4615 -0.1462
  591MOL0     C81470   6.389   7.247   3.525  0.6651  0.0916 -0.1357
  591MOL0     N81471   6.305   7.852   3.576  0.0974 -0.3416  0.1091
  591MOL0     N81472   6.267   7.968   3.510 -0.3003 -0.1117 -0.4743
  591MOL0     C81473   6.467   8.162   3.272 -0.0129  0.1808  0.7426
  591MOL0     C81474   6.577   8.083   3.298 -1.0590  0.0045  0.4580
  591MOL0     C81475   6.985   7.956   3.386 -0.9491 -0.6702  0.0307
  591MOL0     C81476   6.953   7.839   3.321 -0.3314 -0.0939  0.1714
  591MOL0     C81477   7.054   7.738   3.300  0.1102 -0.1860 -0.8086
  591MOL0     C81478   7.190   7.764   3.357 -0.5806  0.3639 -0.1342
  591MOL0     O81479   7.296   7.673   3.368  0.2904  0.5609  0.5944
  591MOL0     C81480   7.274   7.537   3.338 -0.0696  0.8539 -0.0315
  591MOL0     C81481   7.401   7.458   3.371 -0.5402 -0.3107 -0.6838
  591MOL0     C81482   7.515   7.468   3.267 -0.0277 -0.8282 -0.2421
  591MOL0     C81483   7.618   7.584   3.292  0.1920 -0.2798  0.1598
  591MOL0     C81484   7.728   7.545   3.376 -1.3384 -0.0192  0.3463
  591MOL0     C81485   7.829   7.522   3.439 -0.1779  0.9116  0.5332
  591MOL0     C81486   7.218   7.887   3.423 -0.0673 -0.0492  0.4738
  591MOL0     C81487   7.113   7.977   3.449  0.5013  0.2465 -0.0829
  591MOL0     C81488   7.152   8.104   3.530 -0.6535 -0.3487  0.4420
  591MOL0     H81489   6.800   8.315   3.192 -0.5351  0.6632  0.2627
  591MOL0     H81490   6.601   8.452   3.157  1.5880  0.2123  2.3285
  591MOL0     H81491   6.366   8.458   3.040  0.4222 -0.1807  0.9279
  591MOL0     H81492   6.404   8.560   3.173  1.4118 -0.9809  2.3278
  591MOL0     H81493   6.150   8.583   3.234 -1.1319 -2.8823  0.1933
  591MOL0     H81494   6.182   8.608   3.070 -0.7683 -0.6215 -0.4416
  591MOL0     H81495   6.005   8.458   3.051 -0.0625  0.7485  0.0981
  591MOL0     H81496   6.131   8.345   3.053 -1.6901 -0.7684 -0.1306
  591MOL0     H81497   6.099   8.330   3.299  2.3561 -0.0327 -1.7755
  591MOL0     H81498   5.960   8.445   3.290 -0.7576 -1.5412  0.8937
  591MOL0     H81499   5.841   8.274   3.141  2.0692 -0.7171 -1.9008
  591MOL0     H81500   5.859   8.215   3.304 -1.2616  0.6412 -1.1573
  591MOL0     H81501   5.911   8.052   3.120  1.1943  0.2824 -1.8729
  591MOL0     H81502   6.038   8.145   3.076  2.0760 -4.8902  0.1701
  591MOL0     H81503   6.186   8.102   3.236  1.9961 -3.1028  2.1261
  591MOL0     H81504   6.087   7.948   3.228  0.1185 -0.0998  2.4925
  591MOL0     H81505   6.101   8.162   3.440 -3.9487  0.7680  2.1610
  591MOL0     H81506   5.961   8.067   3.431  0.3337 -0.2627  2.4592
  591MOL0     H81507   5.988   7.796   3.539  0.7714 -0.4379  0.9697
  591MOL0     H81508   6.243   7.576   3.579  2.3006  2.7850 -0.2528
  591MOL0     H81509   6.070   7.616   3.628 -0.4686  3.3899 -1.1182
  591MOL0     H81510   6.292   7.680   3.811  0.2792  1.8540  0.0068
  591MOL0     H81511   6.120   7.684   3.848  0.5744  1.3994 -1.3576
  591MOL0     H81512   6.177   7.487   3.947 -1.8130 -2.6736 -0.6592
  591MOL0     H81513   6.144   7.420   3.784 -0.3769  0.9074  0.7889
  591MOL0     H81514   6.413   7.488   3.872 -2.6484  2.6338 -1.8879
  591MOL0     H81515   6.356   7.320   3.909  0.4817  0.9368  2.0153
  591MOL0     H81516   6.329   7.136   3.843  4.2716  0.3628  0.9348
  591MOL0     H81517   6.259   6.856   3.743  0.7497 -1.9944  0.2313
  591MOL0     H81518   6.387   6.922   3.864  1.0640  0.3762 -0.1449
  591MOL0     H81519   6.430   6.818   3.729  2.1911  2.9125 -0.7309
  591MOL0     H81520   6.565   6.754   3.294 -1.5073 -0.5421  2.7857
  591MOL0     H81521   6.586   6.563   3.112 -1.3961 -1.9966  1.7826
  591MOL0     H81522   6.375   6.344   2.988  1.4008 -0.4925 -0.4220
  591MOL0     H81523   6.252   6.438   2.901  0.0528  2.4054 -0.3686
  591MOL0     H81524   6.349   6.386   2.684  0.9398  1.0164 -0.1429
  591MOL0     H81525   6.506   6.358   2.763  0.1269 -1.6952  0.7627
  591MOL0     H81526   6.239   6.195   2.797 -0.6060  1.2673  0.4946
  591MOL0     H81527   6.397   6.144   2.859  2.2826  1.4412 -0.3754
  591MOL0     H81528   6.349   6.180   2.546  0.5709  0.2748  0.2445
  591MOL0     H81529   6.321   6.034   2.624  0.2467 -1.6976 -0.1521
  591MOL0     H81530   6.583   6.181   2.630 -0.3810  0.1411  2.0069
  591MOL0     H81531   6.546   6.037   2.731 -2.2150 -0.7587 -0.0040
  591MOL0     H81532   6.547   6.051   2.436  1.1994 -0.9776 -0.0927
  591MOL0     H81533   6.504   5.908   2.527  0.3829 -0.1300 -3.9445
  591MOL0     H81534   6.741   5.950   2.630  1.0186 -1.5729 -0.5553
  591MOL0     H81535   6.774   6.006   2.461  1.6065 -0.9175  0.1686
  591MOL0     H81536   6.687   5.786   2.382 -1.9942 -1.6164  0.2530
  591MOL0     H81537   6.641   5.736   2.543 -0.1294  0.6193  1.6029
  591MOL0     H81538   6.210   6.662   2.951 -1.7429  0.1662  1.2323
  591MOL0     H81539   6.181   6.835   3.144 -0.4560 -0.5045  2.1201
  591MOL0     H81540   6.425   7.119   3.356  0.0869  1.6768 -0.4031
  591MOL0     H81541   6.396   7.344   3.478 -0.4676  0.9441  1.3594
  591MOL0     H81542   6.383   8.123   3.328  0.5475  1.7710  2.8323
  591MOL0     H81543   6.569   7.980   3.331  2.5339 -1.5331 -2.7094
  591MOL0     H81544   6.851   7.822   3.288  0.5094 -2.1764 -1.5807
  591MOL0     H81545   7.026   7.640   3.264  0.8166 -1.3747  1.6492
  591MOL0     H81546   7.190   7.494   3.392  0.1028  1.3107  0.6135
  591MOL0     H81547   7.257   7.528   3.230  0.6092 -2.9991  0.0538
  591MOL0     H81548   7.380   7.353   3.390 -1.1495  0.1558  1.4855
  591MOL0     H81549   7.450   7.492   3.463 -0.1327 -1.8001 -0.3326
  591MOL0     H81550   7.554   7.366   3.257 -1.2471 -1.4807  1.1271
  591MOL0     H81551   7.463   7.487   3.173 -0.3954 -1.5074 -0.1848
  591MOL0     H81552   7.571   7.678   3.323 -0.6259 -1.3603  2.3816
  591MOL0     H81553   7.662   7.597   3.192 -0.4824 -0.2426 -0.1354
  591MOL0     H81554   7.913   7.491   3.498 -0.6330  2.2957  1.9661
  591MOL0     H81555   7.320   7.899   3.460 -0.8791  1.9993  2.3144
  591MOL0     H81556   7.108   8.093   3.630  1.0159 -0.9433  1.1490
  591MOL0     H81557   7.260   8.119   3.530 -0.5666 -0.9362  0.2172
  591MOL0     H81558   7.111   8.197   3.491  1.6393  0.5698  0.1030
  592MOL0     O81559   7.227   5.715   1.042 -0.2527 -0.4479 -0.2980
  592MOL0     C81560   7.243   5.738   1.165 -0.0945  0.3099  0.1837
  592MOL0     O81561   7.146   5.772   1.258  0.2006 -0.5053 -0.1407
  592MOL0     C81562   7.027   5.817   1.206  0.2158 -0.1189 -0.2754
  592MOL0     C81563   6.908   5.740   1.212  0.0396  0.3505  0.1311
  592MOL0     C81564   6.797   5.775   1.135 -0.2660  0.3225  0.2415
  592MOL0     C81565   6.800   5.895   1.068  0.3346 -0.1313 -0.9083
  592MOL0     O81566   6.686   5.916   1.002  0.6047  0.3923  0.1483
  592MOL0     C81567   6.662   6.057   0.966 -0.2318 -0.3531 -0.4273
  592MOL0     C81568   6.518   6.070   0.906  0.1908 -0.1208 -0.0302
  592MOL0     C81569   6.504   6.207   0.842  1.1345 -0.6101  0.7056
  592MOL0     C81570   6.357   6.241   0.796 -0.7268  0.0438 -0.1830
  592MOL0     C81571   6.333   6.349   0.686  0.2306 -0.6284  0.1528
  592MOL0     C81572   6.376   6.281   0.545  0.4447  0.2933 -0.1012
  592MOL0     C81573   6.377   6.378   0.429 -0.3673  0.6834  0.4390
  592MOL0     C81574   6.494   6.478   0.458 -0.5506  0.1245  0.3076
  592MOL0     N81575   6.551   6.549   0.343 -0.0955 -1.2464  0.5778
  592MOL0     C81576   6.641   6.501   0.248  0.1363  0.5899 -0.1943
  592MOL0     C81577   6.656   6.603   0.159 -0.0412  0.7889  0.2260
  592MOL0     C81578   6.744   6.603   0.037 -0.6389 -0.2211  0.7317
  592MOL0     C81579   6.876   6.662   0.081 -0.1407 -0.3888  0.2823
  592MOL0     C81580   6.982   6.662  -0.028  0.8846  0.5474  0.0828
  592MOL0     C81581   7.118   6.686   0.023  0.1242 -0.4343  0.6083
  592MOL0     O81582   7.171   6.588   0.115  0.0037  0.1348 -0.0616
  592MOL0     C81583   7.303   6.607   0.139 -0.6000 -0.3333 -0.4027
  592MOL0     C81584   7.401   6.532   0.078  0.2640  0.2680 -0.1061
  592MOL0     C81585   7.541   6.546   0.088  0.5465  0.1287  0.5488
  592MOL0     C81586   7.624   6.467  -0.015  0.7180 -0.1115  0.2083
  592MOL0     C81587   7.585   6.657   0.166  0.0652 -0.7907  0.4354
  592MOL0     C81588   7.732   6.700   0.168  0.2589 -0.6282 -0.1156
  592MOL0     O81589   7.809   6.676   0.060  0.5877  0.1424 -0.7320
  592MOL0     C81590   7.950   6.691   0.054 -0.3432  0.9078 -0.0672
  592MOL0     C81591   8.025   6.768   0.137 -1.0979  1.0144 -0.5196
  592MOL0     C81592   8.160   6.797   0.107  0.3571 -0.3861  0.5684
  592MOL0     C81593   8.222   6.734   0.001  0.2627  0.1947 -0.2581
  592MOL0     O81594   8.355   6.749  -0.038 -0.0769  0.2295  0.0315
  592MOL0     C81595   8.442   6.858   0.014 -0.3159 -0.0259 -1.1343
  592MOL0     C81596   8.518   6.789   0.125 -0.8093 -0.2256  0.1192
  592MOL0     C81597   8.620   6.889   0.195 -0.3585  0.3228 -0.4753
  592MOL0     C81598   8.741   6.927   0.107  0.1007  0.1451  0.2647
  592MOL0     C81599   8.874   6.905   0.177  0.8304  0.5033 -0.8408
  592MOL0     C81600   8.967   7.005   0.113  0.0900 -0.7649 -0.7267
  592MOL0     C81601   9.107   6.991   0.169 -0.8278 -0.9160  0.6111
  592MOL0     C81602   9.208   7.099   0.120  0.4672  0.0242 -0.1787
  592MOL0    Cl81603   9.166   7.251   0.185  0.1112  0.5357  0.0433
  592MOL0     C81604   8.146   6.645  -0.069 -0.2218  0.4559  1.0917
  592MOL0     C81605   8.009   6.627  -0.053  0.0397  0.5094 -0.3254
  592MOL0     O81606   7.766   6.760   0.267 -0.9298  0.1262 -0.1685
  592MOL0     C81607   7.488   6.726   0.240 -0.3827 -0.7758  0.9992
  592MOL0     C81608   7.350   6.694   0.233 -0.5220  0.3807 -0.3851
  592MOL0     N81609   6.577   6.715   0.193  0.2637  0.4124  0.1636
  592MOL0     N81610   6.519   6.681   0.302 -0.2922 -0.2249 -0.4046
  592MOL0     C81611   6.911   5.978   1.072  0.5899 -0.2855 -0.3780
  592MOL0     C81612   7.025   5.942   1.146 -0.0310  0.5872 -0.2540
  592MOL0     C81613   7.384   5.714   1.212  1.1251 -0.3302  0.1252
  592MOL0     C81614   7.404   5.731   1.354  0.0081  0.4192 -0.0079
  592MOL0     C81615   7.528   5.721   1.416 -0.8860 -0.4203 -0.2308
  592MOL0     C81616   7.631   5.692   1.338 -0.3095 -0.2226 -0.2341
  592MOL0     O81617   7.744   5.688   1.410 -0.2818  0.2659  0.2581
  592MOL0     C81618   7.859   5.625   1.341  0.7967 -0.1726  0.1726
  592MOL0     C81619   7.972   5.588   1.441 -0.3830 -0.5578  0.0744
  592MOL0     C81620   8.064   5.486   1.383  0.0937  0.2262  0.4225
  592MOL0     C81621   8.201   5.475   1.464  0.4698 -0.4813 -0.0126
  592MOL0     C81622   8.297   5.574   1.408  1.0709 -1.2265  0.1641
  592MOL0     C81623   8.351   5.682   1.376  0.5647  0.1657  0.5214
  592MOL0     C81624   7.617   5.666   1.201 -0.1866 -0.0399  1.1036
  592MOL0     C81625   7.494   5.679   1.134  0.6073 -0.7007 -0.2554
  592MOL0     C81626   7.505   5.669   0.981 -1.0874  0.0999 -0.0246
  592MOL0     H81627   6.902   5.657   1.282 -1.5150 -0.0095 -0.3907
  592MOL0     H81628   6.709   5.714   1.122  0.8392 -1.0806 -1.0626
  592MOL0     H81629   6.735   6.071   0.886  1.3975 -2.0714  0.6697
  592MOL0     H81630   6.679   6.128   1.047 -2.7756 -2.5844  2.3132
  592MOL0     H81631   6.532   5.991   0.832  5.1535  0.5388 -0.0887
  592MOL0     H81632   6.440   6.048   0.980 -2.2376 -0.2349 -2.4681
  592MOL0     H81633   6.535   6.283   0.914  1.8572  0.9271 -1.1448
  592MOL0     H81634   6.562   6.215   0.749 -2.2389 -0.6253 -1.5899
  592MOL0     H81635   6.308   6.150   0.760 -1.6230  1.5873 -3.2562
  592MOL0     H81636   6.304   6.278   0.885  0.6178  3.7172 -0.7067
  592MOL0     H81637   6.388   6.439   0.714  0.8613 -0.8476 -0.3747
  592MOL0     H81638   6.229   6.384   0.690  1.2802  2.8805  0.9215
  592MOL0     H81639   6.476   6.237   0.554 -0.4090 -2.5428 -2.8247
  592MOL0     H81640   6.308   6.199   0.520  1.6452 -0.4852 -0.8992
  592MOL0     H81641   6.287   6.436   0.411  0.9264  2.1477 -1.6920
  592MOL0     H81642   6.396   6.316   0.341 -1.4342 -0.1105  0.7403
  592MOL0     H81643   6.459   6.544   0.538  1.4236 -0.3417  1.6381
  592MOL0     H81644   6.574   6.419   0.505  0.2963  2.3920  1.9084
  592MOL0     H81645   6.700   6.410   0.252  1.4689  1.4646  2.0518
  592MOL0     H81646   6.699   6.655  -0.048 -0.1875 -2.5789 -1.0889
  592MOL0     H81647   6.755   6.500  -0.001  0.8710 -0.2065  1.0636
  592MOL0     H81648   6.856   6.764   0.113  1.0669  0.2748 -0.9774
  592MOL0     H81649   6.910   6.606   0.168 -0.3336 -1.1995 -0.1543
  592MOL0     H81650   6.978   6.567  -0.081 -1.4515 -1.7620  3.9194
  592MOL0     H81651   6.953   6.739  -0.100 -0.0532 -1.5387 -1.8712
  592MOL0     H81652   7.185   6.695  -0.063 -2.3460  0.3610 -1.3265
  592MOL0     H81653   7.124   6.782   0.075 -0.6360 -0.2895  0.4404
  592MOL0     H81654   7.368   6.453   0.012 -3.3220 -1.6399  3.4666
  592MOL0     H81655   7.584   6.374  -0.055  0.0594 -0.1984  1.0405
  592MOL0     H81656   7.728   6.443   0.006  0.7563 -0.4379 -0.3312
  592MOL0     H81657   7.636   6.528  -0.105  2.9634 -0.0224  0.5091
  592MOL0     H81658   7.986   6.824   0.222 -2.5266 -2.3953  1.2722
  592MOL0     H81659   8.215   6.877   0.155  1.3962 -0.4518 -0.4758
  592MOL0     H81660   8.501   6.892  -0.072 -2.1804  1.5765 -1.8642
  592MOL0     H81661   8.388   6.943   0.056 -0.4793 -0.7935  0.2755
  592MOL0     H81662   8.450   6.742   0.196  0.6312 -3.8333 -0.7060
  592MOL0     H81663   8.580   6.712   0.078  1.0232  1.0895  0.2599
  592MOL0     H81664   8.644   6.844   0.292 -0.6096  1.0206 -0.0891
  592MOL0     H81665   8.568   6.975   0.238  0.1982  0.1504  0.5741
  592MOL0     H81666   8.731   7.033   0.081  0.4842  0.1721  0.2102
  592MOL0     H81667   8.738   6.873   0.012 -3.2591  0.8475 -0.1283
  592MOL0     H81668   8.861   6.936   0.281 -2.0355 -1.0766 -0.6406
  592MOL0     H81669   8.907   6.801   0.171  0.1732  0.2758 -0.5982
  592MOL0     H81670   8.930   7.105   0.138  1.7411 -0.1466 -0.6859
  592MOL0     H81671   8.974   6.990   0.005  0.1897 -0.4313 -0.7669
  592MOL0     H81672   9.140   6.888   0.152 -1.0129 -0.9982  0.7510
  592MOL0     H81673   9.096   7.006   0.277  2.1545  0.7404  0.8003
  592MOL0     H81674   9.196   7.096   0.011  0.7554  1.8183 -0.2864
  592MOL0     H81675   9.305   7.066   0.157 -0.7804 -5.4651 -0.8370
  592MOL0     H81676   8.201   6.596  -0.149  0.1625  2.2203  0.2027
  592MOL0     H81677   7.958   6.561  -0.123  0.8397 -1.1837  0.6060
  592MOL0     H81678   7.528   6.803   0.304  3.3890 -1.0508 -0.7757
  592MOL0     H81679   7.274   6.744   0.293 -0.1369  0.7149 -0.1708
  592MOL0     H81680   6.906   6.076   1.025 -0.6978 -0.4055 -0.5181
  592MOL0     H81681   7.109   6.011   1.149  0.2767  0.1971  0.1570
  592MOL0     H81682   7.330   5.774   1.420  1.7478  1.5502  1.2770
  592MOL0     H81683   7.538   5.740   1.523  0.4614  2.3079 -0.7493
  592MOL0     H81684   7.830   5.540   1.279 -1.0693 -1.0189  2.0414
  592MOL0     H81685   7.907   5.698   1.275  2.5262  0.0855  1.6193
  592MOL0     H81686   7.932   5.552   1.536 -1.5020 -0.9554 -0.5372
  592MOL0     H81687   8.025   5.681   1.466 -1.6649 -0.0488  1.0089
  592MOL0     H81688   8.017   5.387   1.382 -2.4962  1.3698  0.0728
  592MOL0     H81689   8.081   5.509   1.278 -1.5602 -2.3619 -0.5159
  592MOL0     H81690   8.241   5.374   1.449  0.2290 -0.5162 -0.4368
  592MOL0     H81691   8.176   5.488   1.569  1.2127 -0.4262  0.1625
  592MOL0     H81692   8.414   5.767   1.359  0.0056  1.1653  2.9022
  592MOL0     H81693   7.705   5.635   1.145  0.5940  1.0444  1.6793
  592MOL0     H81694   7.455   5.580   0.943  0.9772 -2.2493  2.3606
  592MOL0     H81695   7.471   5.765   0.940 -0.3239  1.6122  2.5703
  592MOL0     H81696   7.611   5.659   0.957 -1.1889 -2.2930  0.3751
  593MOL0     O81697  11.299   8.536   0.498  0.0065  0.2068 -0.3158
  593MOL0     C81698  11.309   8.434   0.566 -0.1452 -0.5517 -0.0915
  593MOL0     O81699  11.425   8.373   0.600 -0.6611 -0.2714 -0.0283
  593MOL0     C81700  11.552   8.417   0.561  0.2457 -0.4497 -0.4015
  593MOL0     C81701  11.667   8.389   0.637 -0.0482  0.3068  0.2749
  593MOL0     C81702  11.789   8.448   0.614 -0.8204  0.2330  0.0218
  593MOL0     C81703  11.812   8.535   0.508 -0.0942 -0.1488  0.1415
  593MOL0     O81704  11.935   8.590   0.477 -0.0094  0.3544 -0.3775
  593MOL0     C81705  12.056   8.571   0.560  0.1025 -0.2170  0.1663
  593MOL0     C81706  12.177   8.655   0.504 -0.4268  1.3566 -0.0750
  593MOL0     C81707  12.308   8.635   0.583  0.0387 -0.4765  0.4203
  593MOL0     C81708  12.418   8.738   0.548  0.0227 -0.0373  0.5680
  593MOL0     C81709  12.547   8.707   0.618 -0.7757 -0.8541 -0.1464
  593MOL0     C81710  12.669   8.795   0.570  0.2822 -0.1667 -0.3817
  593MOL0     C81711  12.786   8.775   0.666  0.6221  0.7437 -0.7146
  593MOL0     C81712  12.917   8.858   0.650 -0.6704 -0.7743  0.5107
  593MOL0     N81713  12.962   8.880   0.509 -0.6115  0.2749 -0.4719
  593MOL0     C81714  12.898   8.971   0.423 -0.2937  0.9175 -0.3105
  593MOL0     C81715  12.979   8.982   0.315  0.6931 -0.2319 -0.3246
  593MOL0     C81716  12.938   9.067   0.188 -0.4667  0.5408  0.5778
  593MOL0     C81717  13.066   9.130   0.134 -0.1687  0.1218 -0.1734
  593MOL0     C81718  13.051   9.222   0.019  1.2232 -0.5727 -0.2425
  593MOL0     C81719  13.168   9.310  -0.026 -0.6818 -0.5480  0.5584
  593MOL0     O81720  13.216   9.397   0.079 -0.1034 -0.1934 -1.1715
  593MOL0     C81721  13.152   9.514   0.104 -0.5302 -0.1970 -0.7151
  593MOL0     C81722  13.074   9.580   0.008 -0.4045 -0.1566 -0.2891
  593MOL0     C81723  13.050   9.710   0.022  0.0812 -0.2678 -0.3391
  593MOL0     C81724  12.974   9.772  -0.091  0.1247  0.4551 -0.3710
  593MOL0     C81725  13.102   9.793   0.128 -0.4196  0.3087  0.4130
  593MOL0     C81726  13.084   9.939   0.138 -0.6883 -0.0027 -1.1220
  593MOL0     O81727  13.188   9.996   0.205  0.3821  0.3329 -0.6183
  593MOL0     C81728  13.172  10.121   0.251 -0.5428  0.0084  0.4017
  593MOL0     C81729  13.239  10.226   0.180 -0.3127  0.2270 -0.6088
  593MOL0     C81730  13.232  10.357   0.233 -1.0549  1.1239  0.2034
  593MOL0     C81731  13.175  10.380   0.358  0.3952 -0.1221  1.0976
  593MOL0     O81732  13.173  10.516   0.387 -0.6473  0.2410  0.0429
  593MOL0     C81733  13.138  10.558   0.518 -0.3834  0.2267 -0.2271
  593MOL0     C81734  12.984  10.584   0.520 -0.3305 -0.9332  0.1650
  593MOL0     C81735  12.947  10.693   0.617  0.0914 -0.2240 -0.1772
  593MOL0     C81736  12.795  10.706   0.626  0.0113 -1.0894 -0.0380
  593MOL0     C81737  12.774  10.821   0.721  0.3370 -0.0473  0.6387
  593MOL0     C81738  12.636  10.830   0.788 -0.2890  0.1619  0.5134
  593MOL0     C81739  12.639  10.929   0.908  0.0287  0.2751 -0.2776
  593MOL0     C81740  12.583  11.065   0.875 -0.2873 -0.0568  0.4313
  593MOL0    Cl81741  12.517  11.119   1.027 -0.4005 -0.0199  0.2480
  593MOL0     C81742  13.109  10.272   0.423  0.2982 -0.9503 -0.8660
  593MOL0     C81743  13.114  10.142   0.370  0.3145 -0.8509 -0.1708
  593MOL0     O81744  12.985  10.001   0.099 -0.4339  0.0441 -0.0658
  593MOL0     C81745  13.166   9.725   0.229  1.5167  0.2447  0.3757
  593MOL0     C81746  13.194   9.585   0.216 -0.5836 -0.4834 -0.3255
  593MOL0     N81747  13.091   8.900   0.339  0.1561 -0.5847 -0.4489
  593MOL0     N81748  13.079   8.837   0.453 -0.2603  0.1072 -0.9448
  593MOL0     C81749  11.700   8.571   0.430  0.5961  0.4489 -0.1202
  593MOL0     C81750  11.574   8.521   0.463  0.1754 -0.1117 -0.4615
  593MOL0     C81751  11.188   8.371   0.625  0.2541  0.1971  0.5504
  593MOL0     C81752  11.209   8.317   0.754  0.1611 -0.1410 -0.0910
  593MOL0     C81753  11.102   8.264   0.832  0.2107  0.1246  0.0877
  593MOL0     C81754  10.974   8.248   0.776  0.7548 -0.0017  0.5781
  593MOL0     O81755  10.882   8.183   0.855  0.3563 -0.2285 -0.1489
  593MOL0     C81756  10.739   8.208   0.837  0.1918  0.0291  1.1556
  593MOL0     C81757  10.697   8.346   0.874 -0.1250 -0.5520 -0.3950
  593MOL0     C81758  10.745   8.397   1.007 -0.4892 -0.7598  0.1744
  593MOL0     C81759  10.629   8.435   1.111 -0.2869 -0.1675 -0.2667
  593MOL0     C81760  10.571   8.562   1.058 -0.1709  0.5125 -0.7491
  593MOL0     C81761  10.530   8.657   0.993 -1.4385  0.7782  0.3444
  593MOL0     C81762  10.953   8.296   0.646  0.4137 -0.0719 -0.4351
  593MOL0     C81763  11.058   8.351   0.571 -0.1244  0.3021 -0.5396
  593MOL0     C81764  11.023   8.403   0.435  1.0901  0.3820  0.2787
  593MOL0     H81765  11.651   8.328   0.725 -1.5731  0.5329  0.1900
  593MOL0     H81766  11.869   8.438   0.688 -0.0228  1.6100 -0.6052
  593MOL0     H81767  12.075   8.463   0.560 -1.9367 -0.6366  2.0601
  593MOL0     H81768  12.042   8.599   0.664  2.7140  0.1077  0.5004
  593MOL0     H81769  12.193   8.625   0.400 -4.1884 -0.6916 -0.2181
  593MOL0     H81770  12.139   8.758   0.506 -1.8949  0.9082 -1.9654
  593MOL0     H81771  12.279   8.649   0.688 -0.9831 -1.8968  0.3612
  593MOL0     H81772  12.347   8.534   0.568 -0.3176 -0.6540  0.6576
  593MOL0     H81773  12.432   8.736   0.439  1.3772 -1.4472  0.7433
  593MOL0     H81774  12.374   8.838   0.561 -0.2086  0.0526 -0.7575
  593MOL0     H81775  12.571   8.603   0.597  1.7899 -1.4077  4.2722
  593MOL0     H81776  12.525   8.724   0.724  1.7202  0.5188  0.2504
  593MOL0     H81777  12.695   8.773   0.466  0.1482 -0.5817 -0.3292
  593MOL0     H81778  12.651   8.902   0.579  3.2740  0.3789  0.3842
  593MOL0     H81779  12.809   8.669   0.652 -1.9710 -0.1842  1.1700
  593MOL0     H81780  12.757   8.778   0.772  3.7446 -1.3632  0.3350
  593MOL0     H81781  12.908   8.955   0.699 -0.2470 -0.8552  0.7476
  593MOL0     H81782  12.996   8.798   0.696 -0.8774  0.0895  2.0817
  593MOL0     H81783  12.804   9.023   0.439 -0.2944  1.4987 -1.9917
  593MOL0     H81784  12.850   9.129   0.206 -0.7117  0.5684 -0.6403
  593MOL0     H81785  12.904   8.995   0.113 -1.6847  0.3139  1.3139
  593MOL0     H81786  13.108   9.189   0.217 -0.7293  0.3977 -0.0840
  593MOL0     H81787  13.130   9.046   0.106 -2.3472 -1.7416  0.0957
  593MOL0     H81788  13.019   9.167  -0.070  2.7392  0.5462 -1.5522
  593MOL0     H81789  12.987   9.298   0.064 -1.7301 -2.2323 -1.3388
  593MOL0     H81790  13.246   9.241  -0.058 -0.0881  1.0183 -1.6796
  593MOL0     H81791  13.159   9.356  -0.125  1.2127  2.5615  1.6781
  593MOL0     H81792  13.039   9.526  -0.080  0.0800 -0.3902 -0.3472
  593MOL0     H81793  12.879   9.813  -0.056 -0.4810 -1.7771  0.8372
  593MOL0     H81794  12.948   9.691  -0.161  1.5628 -0.6349  0.2985
  593MOL0     H81795  13.041   9.841  -0.143 -0.1175  0.2684 -0.9503
  593MOL0     H81796  13.299  10.200   0.094 -0.5311 -1.0372 -0.4081
  593MOL0     H81797  13.280  10.440   0.181 -1.3251  1.1674  0.0232
  593MOL0     H81798  13.177  10.496   0.599 -0.6449  1.2164  0.6792
  593MOL0     H81799  13.194  10.651   0.533  0.3058  0.1629 -2.1186
  593MOL0     H81800  12.944  10.613   0.423  1.1336 -1.3769 -0.6008
  593MOL0     H81801  12.941  10.490   0.558  2.5151 -1.8899  1.3199
  593MOL0     H81802  12.988  10.792   0.593  0.4108  0.3967  2.6176
  593MOL0     H81803  12.991  10.658   0.710 -0.1823  0.0928  0.0728
  593MOL0     H81804  12.755  10.615   0.671  1.0952 -0.3776  2.6292
  593MOL0     H81805  12.759  10.729   0.526 -0.8451  2.3643  0.9047
  593MOL0     H81806  12.846  10.816   0.804  1.9675  3.1956 -0.4152
  593MOL0     H81807  12.803  10.916   0.676  2.6639 -1.3023 -0.7091
  593MOL0     H81808  12.615  10.736   0.840  0.1136  1.3235  2.8851
  593MOL0     H81809  12.555  10.859   0.720 -0.6279 -1.8593  0.0014
  593MOL0     H81810  12.737  10.952   0.950 -0.8456  2.7185  0.5671
  593MOL0     H81811  12.584  10.876   0.986 -0.4928 -0.8507 -1.3740
  593MOL0     H81812  12.503  11.058   0.801  0.2427  0.2377 -0.1719
  593MOL0     H81813  12.662  11.126   0.832 -0.4434 -1.4402 -2.0257
  593MOL0     H81814  13.076  10.300   0.523  0.9095  0.2178 -0.9755
  593MOL0     H81815  13.078  10.059   0.431  0.8458 -0.1742  1.1045
  593MOL0     H81816  13.193   9.775   0.322 -0.4638  0.8430  0.6724
  593MOL0     H81817  13.251   9.546   0.300 -0.5604 -0.4891 -0.3437
  593MOL0     H81818  11.691   8.644   0.350 -3.6568 -0.6062 -0.8447
  593MOL0     H81819  11.502   8.563   0.394  2.2332 -1.4056 -3.6168
  593MOL0     H81820  11.307   8.305   0.797 -0.8012 -1.1747  1.9593
  593MOL0     H81821  11.133   8.220   0.926 -0.0748  0.9650  0.5877
  593MOL0     H81822  10.712   8.198   0.731 -1.6484 -0.4940  1.6495
  593MOL0     H81823  10.685   8.133   0.895 -1.1535 -1.4908 -1.8453
  593MOL0     H81824  10.587   8.345   0.875 -0.2039  1.3405 -1.0825
  593MOL0     H81825  10.726   8.424   0.802 -0.7367  0.4702  0.4398
  593MOL0     H81826  10.815   8.339   1.068  2.2049  2.4438  0.4590
  593MOL0     H81827  10.810   8.483   0.986 -2.2120 -0.0322 -2.5487
  593MOL0     H81828  10.668   8.450   1.212 -0.0524 -2.0854 -0.0398
  593MOL0     H81829  10.553   8.356   1.112 -1.2049  0.6786 -0.8328
  593MOL0     H81830  10.489   8.742   0.943 -1.0043  0.6278 -0.2840
  593MOL0     H81831  10.854   8.280   0.604 -0.3294  1.9346  0.4352
  593MOL0     H81832  11.112   8.367   0.382  2.3589  2.1381  1.0927
  593MOL0     H81833  10.935   8.363   0.385  0.2361  1.7435  0.6369
  593MOL0     H81834  11.025   8.512   0.424  1.4690  0.4118  0.6108
  594MOL0     O81835   9.129   2.583  11.273  0.4988 -0.0167 -1.0107
  594MOL0     C81836   9.068   2.499  11.342  0.2884 -0.8475  0.0317
  594MOL0     O81837   9.021   2.528  11.474  0.0907  0.5707 -0.1138
  594MOL0     C81838   9.077   2.634  11.543  0.0438  1.0735  0.2488
  594MOL0     C81839   9.181   2.611  11.635  0.1976 -1.0648 -0.8105
  594MOL0     C81840   9.242   2.714  11.696  0.2879 -0.3307 -0.3007
  594MOL0     C81841   9.209   2.846  11.669 -0.8814  0.2556 -0.2170
  594MOL0     O81842   9.280   2.954  11.720  0.0491 -0.5086  0.1522
  594MOL0     C81843   9.373   2.925  11.827  0.0226  0.7114 -0.6851
  594MOL0     C81844   9.407   3.057  11.906 -0.4031 -0.2412  0.8026
  594MOL0     C81845   9.497   3.162  11.830 -0.8658 -0.1417 -0.5938
  594MOL0     C81846   9.608   3.208  11.925  0.1843 -0.0056  0.6277
  594MOL0     C81847   9.695   3.322  11.868 -0.0812  0.4236  1.1063
  594MOL0     C81848   9.735   3.416  11.986 -0.7160  0.9343  0.2822
  594MOL0     C81849   9.844   3.520  11.964 -0.0905 -0.6322  1.2080
  594MOL0     C81850   9.865   3.562  11.819 -0.5746  0.7676 -0.0203
  594MOL0     N81851   9.992   3.634  11.801  0.5429 -0.2438  0.6419
  594MOL0     C81852  10.079   3.609  11.701 -0.2862  0.0162  0.4990
  594MOL0     C81853  10.169   3.709  11.721  0.3130 -0.4054 -0.2903
  594MOL0     C81854  10.303   3.712  11.645 -0.2266  0.0269 -0.0151
  594MOL0     C81855  10.288   3.685  11.491  0.2099  0.2225 -0.0521
  594MOL0     C81856  10.383   3.764  11.404  0.3581 -0.9454 -0.2872
  594MOL0     C81857  10.520   3.759  11.463  0.3784  0.1473 -0.0218
  594MOL0     O81858  10.603   3.807  11.354 -0.6219 -0.4395  0.7843
  594MOL0     C81859  10.737   3.797  11.378  0.4061 -0.2007  0.3124
  594MOL0     C81860  10.823   3.820  11.271  0.1560  0.4930  0.1931
  594MOL0     C81861  10.962   3.787  11.287 -0.1154 -1.1167  0.0945
  594MOL0     C81862  11.049   3.801  11.159  0.6299 -0.1963  0.1474
  594MOL0     C81863  11.016   3.749  11.412  0.0565  0.0948 -0.2484
  594MOL0     C81864  11.160   3.735  11.447 -0.2119 -1.2613 -0.4366
  594MOL0     O81865  11.189   3.735  11.583  0.3860  0.4765  1.1184
  594MOL0     C81866  11.314   3.686  11.616  0.7992  0.0033 -0.3610
  594MOL0     C81867  11.315   3.551  11.663  0.8004  0.7942 -0.2193
  594MOL0     C81868  11.437   3.490  11.695 -0.1358 -0.7426  1.0192
  594MOL0     C81869  11.553   3.574  11.698  0.9682  0.6049  0.4571
  594MOL0     O81870  11.669   3.506  11.739  0.0293 -0.0117 -0.0706
  594MOL0     C81871  11.794   3.574  11.736  0.6522 -0.4254 -0.8132
  594MOL0     C81872  11.901   3.484  11.790 -1.0229  0.9586 -0.5502
  594MOL0     C81873  12.041   3.552  11.796 -0.2696 -0.4661 -0.7748
  594MOL0     C81874  12.121   3.517  11.923  0.3138 -0.5564 -0.1674
  594MOL0     C81875  12.260   3.577  11.905 -0.6171 -0.0176 -0.3598
  594MOL0     C81876  12.353   3.563  12.026  0.2378  0.0239 -0.0570
  594MOL0     C81877  12.502   3.590  11.978  0.7153  0.5840  0.2515
  594MOL0     C81878  12.603   3.549  12.093  0.1880 -0.0979 -0.4862
  594MOL0    Cl81879  12.772   3.581  12.042 -0.3142 -0.1550  0.5925
  594MOL0     C81880  11.552   3.708  11.647  0.4455  0.3429 -0.0688
  594MOL0     C81881  11.427   3.760  11.607  0.6061 -0.7650 -0.2903
  594MOL0     O81882  11.234   3.707  11.355 -0.6331 -1.0487 -0.7750
  594MOL0     C81883  10.923   3.740  11.516 -0.8374  0.4473  0.0348
  594MOL0     C81884  10.790   3.762  11.504  0.0871 -0.3344  1.1845
  594MOL0     N81885  10.130   3.791  11.815 -0.2229 -0.5252 -0.1512
  594MOL0     N81886  10.023   3.747  11.869  0.1930  0.6786 -0.4358
  594MOL0     C81887   9.114   2.870  11.578  0.8310 -0.6206  0.0108
  594MOL0     C81888   9.045   2.768  11.519 -1.2913 -0.1587 -0.1075
  594MOL0     C81889   9.016   2.373  11.290 -1.0144 -0.1778 -0.5323
  594MOL0     C81890   8.903   2.317  11.355 -0.5091 -0.6238  0.5617
  594MOL0     C81891   8.834   2.219  11.293 -0.9645  0.2771  0.2439
  594MOL0     C81892   8.887   2.149  11.182 -0.5931 -0.3637 -0.3584
  594MOL0     O81893   8.828   2.043  11.123 -0.0062 -0.4110  0.8078
  594MOL0     C81894   8.691   2.063  11.084 -0.6236  0.7661 -0.6578
  594MOL0     C81895   8.659   1.948  10.995 -1.2811 -1.2719 -0.0819
  594MOL0     C81896   8.504   1.948  10.970  0.2445 -0.3427  0.0113
  594MOL0     C81897   8.474   1.856  10.853 -0.3232 -0.3293  0.0203
  594MOL0     C81898   8.334   1.840  10.815 -0.2763 -0.5181 -0.3915
  594MOL0     C81899   8.221   1.816  10.783 -0.0035  0.1728  0.0114
  594MOL0     C81900   9.012   2.192  11.133  0.5875  0.3607 -0.1305
  594MOL0     C81901   9.074   2.310  11.177 -0.1504  0.9817 -0.2309
  594MOL0     C81902   9.201   2.346  11.106 -0.6688 -0.8225 -0.3158
  594MOL0     H81903   9.210   2.509  11.657 -0.8104 -1.2180 -0.1090
  594MOL0     H81904   9.317   2.688  11.770  0.3135  0.0754 -0.1817
  594MOL0     H81905   9.460   2.887  11.774 -0.0805 -1.0507  0.3309
  594MOL0     H81906   9.327   2.851  11.893 -0.6708 -0.6757 -2.6341
  594MOL0     H81907   9.322   3.110  11.951 -0.5494  1.3778 -1.2466
  594MOL0     H81908   9.456   3.018  11.995  0.0069 -0.6874  0.3832
  594MOL0     H81909   9.536   3.106  11.745 -1.9091 -2.8496  0.6190
  594MOL0     H81910   9.437   3.251  11.808 -0.8190 -0.4123 -1.9035
  594MOL0     H81911   9.564   3.251  12.015  2.9068  2.9029  0.7486
  594MOL0     H81912   9.669   3.122  11.951  0.8090  0.1351 -0.2915
  594MOL0     H81913   9.643   3.376  11.789  1.3899 -0.9859 -0.9440
  594MOL0     H81914   9.786   3.276  11.826 -0.2589 -0.3115  1.5060
  594MOL0     H81915   9.648   3.481  11.998 -1.2189  0.7401 -1.9335
  594MOL0     H81916   9.746   3.361  12.079 -2.0665  0.7479  0.3400
  594MOL0     H81917   9.944   3.485  11.992  0.0879 -0.0449  1.3221
  594MOL0     H81918   9.822   3.612  12.018 -2.0606  0.0577 -0.6173
  594MOL0     H81919   9.878   3.467  11.766  0.9447  0.6717  0.4946
  594MOL0     H81920   9.776   3.612  11.779 -3.0284 -3.7059 -0.8006
  594MOL0     H81921  10.084   3.523  11.636 -2.6514  1.3012 -1.5576
  594MOL0     H81922  10.384   3.649  11.682 -1.0600 -0.1812  1.5181
  594MOL0     H81923  10.345   3.812  11.657  2.8700 -1.2565  0.7566
  594MOL0     H81924  10.304   3.578  11.471  0.4529  0.3615 -0.6249
  594MOL0     H81925  10.193   3.720  11.448  1.3408  1.7798 -1.3834
  594MOL0     H81926  10.377   3.721  11.304  3.9316 -0.6899 -0.7301
  594MOL0     H81927  10.353   3.869  11.403 -0.8898 -1.2851 -0.1574
  594MOL0     H81928  10.536   3.806  11.559 -1.2570 -1.2079  0.9838
  594MOL0     H81929  10.547   3.656  11.489  0.3599  0.1506  0.0116
  594MOL0     H81930  10.775   3.851  11.179 -2.6432  0.2629  1.4418
  594MOL0     H81931  11.075   3.704  11.116  0.3971  0.8529 -2.6139
  594MOL0     H81932  11.141   3.856  11.180  0.3551  1.0044 -1.5628
  594MOL0     H81933  10.994   3.854  11.080 -2.3567 -0.6893  1.7266
  594MOL0     H81934  11.218   3.503  11.666  0.7098  1.0049  0.8053
  594MOL0     H81935  11.440   3.386  11.728  2.7984 -1.3694 -0.8299
  594MOL0     H81936  11.816   3.596  11.632 -2.1383  1.3208 -1.1480
  594MOL0     H81937  11.789   3.670  11.788 -0.8007  0.2316 -2.0697
  594MOL0     H81938  11.864   3.454  11.889  1.1122  0.5150  0.1668
  594MOL0     H81939  11.901   3.396  11.725  1.3884  0.5570 -0.1064
  594MOL0     H81940  12.034   3.661  11.786 -2.7145 -0.5459 -0.5324
  594MOL0     H81941  12.097   3.529  11.705  2.4384 -0.1542  0.7181
  594MOL0     H81942  12.130   3.409  11.935  0.1598 -0.6246 -0.6316
  594MOL0     H81943  12.081   3.571  12.010  2.0516 -0.6520  0.7266
  594MOL0     H81944  12.304   3.537  11.813 -1.1177 -1.4732  0.0160
  594MOL0     H81945  12.239   3.681  11.878  0.5407  0.2888 -0.1062
  594MOL0     H81946  12.338   3.465  12.072  1.1948 -0.0805  0.0489
  594MOL0     H81947  12.322   3.635  12.102 -1.1551 -1.4653  0.8426
  594MOL0     H81948  12.514   3.691  11.939  0.0950  0.0519 -1.3901
  594MOL0     H81949  12.520   3.514  11.901 -1.7630 -1.6223  1.6695
  594MOL0     H81950  12.601   3.444  12.124 -1.2793 -0.0675 -0.4275
  594MOL0     H81951  12.578   3.615  12.176 -0.8006  1.8874 -2.2439
  594MOL0     H81952  11.644   3.765  11.647 -0.1409  1.4318  2.3841
  594MOL0     H81953  11.417   3.864  11.575 -0.5412 -0.1847  1.7635
  594MOL0     H81954  10.948   3.693  11.611 -0.9389 -0.7606 -0.5206
  594MOL0     H81955  10.729   3.739  11.591  3.0178 -0.5307  3.3718
  594MOL0     H81956   9.098   2.973  11.548  0.0092 -0.0304  2.2248
  594MOL0     H81957   8.962   2.792  11.454 -1.5115 -2.9685 -1.0233
  594MOL0     H81958   8.866   2.353  11.450  1.0940 -1.0313  1.3785
  594MOL0     H81959   8.740   2.193  11.341 -0.2888  1.2658  2.2393
  594MOL0     H81960   8.633   2.057  11.176 -1.7352  0.3872 -1.3557
  594MOL0     H81961   8.672   2.160  11.037  0.0494  2.1666  1.7942
  594MOL0     H81962   8.690   1.856  11.046 -0.8817 -0.8614  0.4212
  594MOL0     H81963   8.715   1.950  10.901  2.3587  1.2338  1.9339
  594MOL0     H81964   8.437   1.920  11.051  1.2967 -1.4220  0.5328
  594MOL0     H81965   8.483   2.050  10.936  0.3613 -0.2228  0.2948
  594MOL0     H81966   8.522   1.759  10.871 -0.8032 -0.4041  1.0200
  594MOL0     H81967   8.525   1.902  10.768  5.0678  1.4605  3.6786
  594MOL0     H81968   8.116   1.801  10.764 -0.2505  1.4073  0.2904
  594MOL0     H81969   9.059   2.142  11.049  0.6456  1.3425 -0.7033
  594MOL0     H81970   9.266   2.414  11.161  2.0098  0.7578 -4.8940
  594MOL0     H81971   9.263   2.259  11.084  1.9576  0.6347  0.8313
  594MOL0     H81972   9.166   2.392  11.013  1.1013  0.6551 -0.2960
  595MOL0     O81973   5.803   1.612   0.661 -0.4077 -0.1526  0.4656
  595MOL0     C81974   5.756   1.720   0.619 -0.1066  0.4291 -0.1716
  595MOL0     O81975   5.834   1.825   0.569  0.4115  0.2889  0.0163
  595MOL0     C81976   5.966   1.795   0.560 -0.0436 -0.3268  0.0287
  595MOL0     C81977   6.009   1.762   0.429 -1.3383 -0.1124 -0.3432
  595MOL0     C81978   6.143   1.716   0.411  0.3069 -0.0954  0.4038
  595MOL0     C81979   6.239   1.718   0.511 -0.2744  0.2857  0.0622
  595MOL0     O81980   6.371   1.684   0.488 -0.1936 -0.2394  0.4202
  595MOL0     C81981   6.438   1.691   0.357  0.0699 -0.0251 -0.4500
  595MOL0     C81982   6.435   1.826   0.283  0.4548 -0.7681 -0.8725
  595MOL0     C81983   6.479   1.798   0.139  0.3267  0.1234 -0.6481
  595MOL0     C81984   6.365   1.734   0.060  0.9809 -0.3620  0.4691
  595MOL0     C81985   6.378   1.711  -0.097  0.5365  0.0569  0.0260
  595MOL0     C81986   6.490   1.622  -0.147 -0.6355 -0.2130 -0.0939
  595MOL0     C81987   6.457   1.479  -0.109  0.7799 -0.3103  0.1509
  595MOL0     C81988   6.324   1.421  -0.176  0.4404  0.1590 -0.5811
  595MOL0     N81989   6.351   1.418  -0.317  0.1100 -0.4293  0.4421
  595MOL0     C81990   6.438   1.329  -0.378 -0.1286 -0.2079 -0.1354
  595MOL0     C81991   6.439   1.362  -0.506 -0.6360  0.6798  0.8560
  595MOL0     C81992   6.526   1.295  -0.604  0.5343 -0.4440 -0.1422
  595MOL0     C81993   6.674   1.344  -0.620 -0.1050  0.0109 -0.6108
  595MOL0     C81994   6.696   1.480  -0.695  0.2955 -0.6405  0.7549
  595MOL0     C81995   6.626   1.607  -0.634 -0.0929 -1.1221 -0.2966
  595MOL0     O81996   6.684   1.665  -0.509 -0.4323 -0.0073  1.0998
  595MOL0     C81997   6.813   1.708  -0.513  0.2718 -1.1869  0.0931
  595MOL0     C81998   6.878   1.705  -0.395 -0.6408 -0.4467  0.7876
  595MOL0     C81999   7.013   1.752  -0.381  0.0011 -0.1767 -1.2309
  595MOL0     C82000   7.073   1.739  -0.240 -0.3105  0.2973 -0.9922
  595MOL0     C82001   7.075   1.800  -0.493 -0.7546 -0.9417 -0.0780
  595MOL0     C82002   7.217   1.844  -0.492 -0.2961 -0.3372 -0.1630
  595MOL0     O82003   7.293   1.820  -0.383  0.0766 -0.6977 -0.2863
  595MOL0     C82004   7.422   1.868  -0.377  1.6423  0.2276 -0.1158
  595MOL0     C82005   7.534   1.787  -0.411  1.0540 -0.1354 -0.1523
  595MOL0     C82006   7.662   1.833  -0.400 -0.8038  0.1058 -0.1735
  595MOL0     C82007   7.682   1.966  -0.361 -0.4417  0.1670 -0.1171
  595MOL0     O82008   7.800   2.034  -0.354 -0.3210  0.3158 -1.2535
  595MOL0     C82009   7.911   1.979  -0.427  0.2458  0.9575 -0.8563
  595MOL0     C82010   8.011   1.891  -0.341  0.7765 -0.2418  0.4677
  595MOL0     C82011   8.101   1.966  -0.249  0.8458  0.1646 -0.2306
  595MOL0     C82012   8.174   1.874  -0.156 -0.3124 -0.6627 -0.9300
  595MOL0     C82013   8.297   1.950  -0.102 -0.5181 -0.7060 -0.5141
  595MOL0     C82014   8.401   1.866  -0.024  0.0156  0.7971 -0.6258
  595MOL0     C82015   8.523   1.958   0.017  0.2229  0.7194  1.0565
  595MOL0     C82016   8.631   1.889   0.081 -0.4490  0.6310  0.4499
  595MOL0    Cl82017   8.576   1.808   0.238 -0.0650 -0.2288 -0.3812
  595MOL0     C82018   7.574   2.043  -0.321  0.6061  0.4918  0.2843
  595MOL0     C82019   7.444   1.992  -0.332  0.3620  0.3483  0.1615
  595MOL0     O82020   7.258   1.884  -0.597 -0.2291 -0.0979 -0.0911
  595MOL0     C82021   7.005   1.815  -0.612  0.7126  0.1084  0.7168
  595MOL0     C82022   6.878   1.767  -0.625  0.2171 -0.4612 -0.5402
  595MOL0     N82023   6.349   1.461  -0.529  0.6077 -0.1722  0.3591
  595MOL0     N82024   6.300   1.504  -0.415 -0.1439  0.3924  0.8509
  595MOL0     C82025   6.189   1.755   0.638  0.3353  0.9853  0.2075
  595MOL0     C82026   6.057   1.777   0.666 -0.1940 -0.1679 -0.2221
  595MOL0     C82027   5.613   1.744   0.616  0.0589 -0.3110 -0.5403
  595MOL0     C82028   5.559   1.849   0.534 -0.1858  0.8115 -0.0464
  595MOL0     C82029   5.430   1.885   0.535 -0.1199  0.0174 -0.2059
  595MOL0     C82030   5.335   1.825   0.610  0.5352 -0.3091 -0.0517
  595MOL0     O82031   5.203   1.874   0.594  0.4997 -0.2697  0.1328
  595MOL0     C82032   5.098   1.830   0.687 -0.5718 -0.4340 -0.3020
  595MOL0     C82033   4.965   1.908   0.679 -0.9260  0.4114 -0.6104
  595MOL0     C82034   4.933   1.967   0.547  0.0255  0.3439 -0.3786
  595MOL0     C82035   4.792   2.019   0.548  0.0728  0.1585  0.0063
  595MOL0     C82036   4.777   2.089   0.421 -0.0770  0.1311  0.0641
  595MOL0     C82037   4.762   2.128   0.308 -0.5564 -0.1416  0.4520
  595MOL0     C82038   5.379   1.718   0.693  0.3990 -1.1064 -0.0539
  595MOL0     C82039   5.512   1.681   0.695 -0.0224 -0.0605  0.0792
  595MOL0     C82040   5.544   1.575   0.796  0.5043  0.2752  0.8280
  595MOL0     H82041   5.947   1.756   0.340  0.2003 -1.3504 -1.3773
  595MOL0     H82042   6.168   1.689   0.309 -0.4765 -1.0089  0.4413
  595MOL0     H82043   6.397   1.606   0.301 -0.5242  0.9684 -1.5702
  595MOL0     H82044   6.544   1.666   0.363  0.3305  1.3174  0.9549
  595MOL0     H82045   6.332   1.861   0.291  0.0777 -2.1867  0.9676
  595MOL0     H82046   6.494   1.902   0.334 -1.6458  1.4417 -1.5506
  595MOL0     H82047   6.500   1.892   0.087 -3.7042  1.2619 -0.5610
  595MOL0     H82048   6.568   1.734   0.142  0.7815  0.6914 -1.5268
  595MOL0     H82049   6.338   1.645   0.117 -1.0354 -0.4513 -0.5482
  595MOL0     H82050   6.279   1.801   0.072 -0.1881 -1.5414 -0.9689
  595MOL0     H82051   6.405   1.813  -0.123  1.5021  0.3845  2.0857
  595MOL0     H82052   6.280   1.685  -0.137  0.2525 -0.6091  1.0810
  595MOL0     H82053   6.506   1.639  -0.254  0.9140 -0.5932  0.0516
  595MOL0     H82054   6.581   1.641  -0.089  0.3191 -0.0438 -1.5915
  595MOL0     H82055   6.457   1.466  -0.001  2.8253  1.1327  0.3793
  595MOL0     H82056   6.544   1.424  -0.146  0.8022 -0.4507  0.4196
  595MOL0     H82057   6.311   1.319  -0.139  4.3861 -1.4077 -2.8331
  595MOL0     H82058   6.230   1.469  -0.150 -0.6772 -1.7727 -0.8880
  595MOL0     H82059   6.496   1.264  -0.314 -2.7543 -2.7433 -0.1400
  595MOL0     H82060   6.482   1.313  -0.703 -0.4732 -1.2072  0.1502
  595MOL0     H82061   6.524   1.189  -0.578  0.4412 -1.1027 -2.6007
  595MOL0     H82062   6.718   1.369  -0.523 -0.4033  0.6829 -0.6428
  595MOL0     H82063   6.727   1.256  -0.658  1.5617  0.2099  1.1109
  595MOL0     H82064   6.801   1.512  -0.698  0.0763  0.1489  1.2854
  595MOL0     H82065   6.664   1.457  -0.797  1.6179 -3.9503  0.9680
  595MOL0     H82066   6.624   1.686  -0.710 -0.7694  0.2939  1.1341
  595MOL0     H82067   6.518   1.598  -0.623 -0.1038 -2.3085 -1.1021
  595MOL0     H82068   6.823   1.671  -0.308 -2.5893  1.6680  0.4932
  595MOL0     H82069   7.173   1.697  -0.256 -1.0375 -1.2903 -1.5449
  595MOL0     H82070   7.017   1.667  -0.179  2.8778 -1.6391 -0.0752
  595MOL0     H82071   7.091   1.835  -0.191  0.6321 -0.9294  1.2094
  595MOL0     H82072   7.514   1.685  -0.442  1.5977 -0.6466  1.1242
  595MOL0     H82073   7.755   1.777  -0.400 -0.2766  0.6904  3.5337
  595MOL0     H82074   7.885   1.917  -0.513 -1.0476  0.1242  0.1032
  595MOL0     H82075   7.963   2.057  -0.484  1.6980  0.5118 -0.1953
  595MOL0     H82076   7.950   1.815  -0.292  0.3828 -2.7596 -3.3972
  595MOL0     H82077   8.077   1.832  -0.406 -0.8381 -2.0972  0.4288
  595MOL0     H82078   8.034   2.027  -0.188 -0.8576 -2.0235  0.2349
  595MOL0     H82079   8.169   2.032  -0.304  0.2702  2.8702  2.0566
  595MOL0     H82080   8.200   1.782  -0.210 -1.3203 -1.4467 -0.1400
  595MOL0     H82081   8.110   1.854  -0.069  3.9473  1.5756  3.1149
  595MOL0     H82082   8.350   2.009  -0.178 -3.1521  1.6933 -0.6262
  595MOL0     H82083   8.262   2.022  -0.028  0.9885  1.0983 -1.4544
  595MOL0     H82084   8.431   1.775  -0.076 -1.7439  0.2370 -0.7157
  595MOL0     H82085   8.351   1.818   0.061 -1.2947 -1.5334 -2.5999
  595MOL0     H82086   8.481   2.043   0.072 -2.0469 -0.0466  0.6142
  595MOL0     H82087   8.562   2.001  -0.075 -4.4620 -1.9434 -2.6041
  595MOL0     H82088   8.714   1.957   0.101 -0.0065 -0.1082  1.2089
  595MOL0     H82089   8.675   1.815   0.013 -1.3716 -0.8148  1.3769
  595MOL0     H82090   7.597   2.135  -0.269  3.8392  0.2009 -0.4100
  595MOL0     H82091   7.357   2.049  -0.301 -0.4004  0.2960 -1.7216
  595MOL0     H82092   7.053   1.874  -0.689  1.6762  1.7868  2.4940
  595MOL0     H82093   6.820   1.769  -0.717  0.5448  0.7849 -0.7353
  595MOL0     H82094   6.261   1.747   0.719  2.4846  0.4514 -1.6521
  595MOL0     H82095   6.026   1.786   0.770 -3.0802  0.9659 -1.0731
  595MOL0     H82096   5.623   1.912   0.474  0.3987 -1.7507 -2.2836
  595MOL0     H82097   5.409   1.968   0.469 -1.0524  0.1290  0.2202
  595MOL0     H82098   5.088   1.721   0.682 -0.7278 -0.3597 -2.7533
  595MOL0     H82099   5.138   1.852   0.786  0.3297  1.7903 -1.0909
  595MOL0     H82100   4.967   1.989   0.752 -0.3937 -0.7000  0.6539
  595MOL0     H82101   4.879   1.845   0.706 -0.8731  0.8033  0.4967
  595MOL0     H82102   5.005   2.046   0.524  1.3007 -0.6648  0.0127
  595MOL0     H82103   4.942   1.890   0.469  2.0281 -0.8443  0.9396
  595MOL0     H82104   4.769   2.083   0.634 -0.0846 -1.3649  1.1458
  595MOL0     H82105   4.722   1.936   0.555  0.5301 -0.1018  3.7158
  595MOL0     H82106   4.762   2.143   0.202  2.9832  0.9395  0.4758
  595MOL0     H82107   5.304   1.674   0.758  0.4965  0.4470  1.1632
  595MOL0     H82108   5.600   1.488   0.762  0.8241  1.1416 -1.0097
  595MOL0     H82109   5.598   1.633   0.871  1.6924  1.2992 -0.7541
  595MOL0     H82110   5.455   1.529   0.840 -1.2582  2.8256  0.2036
  596MOL0     O82111  10.998   7.724  10.017 -0.1120 -0.6547  0.0150
  596MOL0     C82112  11.024   7.621  10.078  0.3010  0.2231 -0.5316
  596MOL0     O82113  11.065   7.615  10.204  0.0139  0.1027 -0.0933
  596MOL0     C82114  11.135   7.719  10.252 -0.0536 -0.9722 -0.6995
  596MOL0     C82115  11.245   7.775  10.186  0.4550  0.0292 -0.7373
  596MOL0     C82116  11.310   7.889  10.239  0.0032  0.1502 -0.0775
  596MOL0     C82117  11.265   7.946  10.366 -0.2535 -0.5256  0.2488
  596MOL0     O82118  11.312   8.052  10.429 -0.0335  0.9637 -0.1341
  596MOL0     C82119  11.390   8.146  10.353 -0.5671 -0.2740 -0.1688
  596MOL0     C82120  11.324   8.218  10.232  0.0950  0.5443  1.0287
  596MOL0     C82121  11.392   8.349  10.186  0.1795 -0.2972 -0.0490
  596MOL0     C82122  11.318   8.408  10.069  0.0655  0.4407  0.3005
  596MOL0     C82123  11.377   8.533  10.018 -0.2408 -0.0602 -0.0732
  596MOL0     C82124  11.350   8.561   9.869 -0.1294  0.5427  0.6923
  596MOL0     C82125  11.425   8.666   9.810 -0.3276 -0.1353 -0.3406
  596MOL0     C82126  11.578   8.632   9.815 -0.9270 -0.3737  0.4409
  596MOL0     N82127  11.648   8.735   9.740 -0.2683 -0.7270  0.0263
  596MOL0     C82128  11.708   8.710   9.621  0.3086  0.5442 -0.5350
  596MOL0     C82129  11.755   8.828   9.578 -0.2259 -0.8868 -0.7688
  596MOL0     C82130  11.799   8.854   9.437 -1.2634 -0.2221 -0.1325
  596MOL0     C82131  11.941   8.917   9.446 -0.6046 -0.1670 -0.2048
  596MOL0     C82132  11.987   8.953   9.305  0.0941 -0.7178  0.4028
  596MOL0     C82133  12.134   9.009   9.291  0.4446 -0.4644 -0.2314
  596MOL0     O82134  12.143   9.128   9.360 -0.0571 -0.6188  0.2688
  596MOL0     C82135  12.257   9.124   9.442  1.0682  0.5886  0.2209
  596MOL0     C82136  12.375   9.090   9.386 -0.4511 -0.1815 -0.0649
  596MOL0     C82137  12.494   9.092   9.458  0.4157  0.4762  0.1301
  596MOL0     C82138  12.609   9.033   9.386  0.6062  0.4665 -0.1073
  596MOL0     C82139  12.478   9.136   9.591  0.0165 -0.2730 -0.3284
  596MOL0     C82140  12.592   9.133   9.683  0.0033  0.5025  0.7732
  596MOL0     O82141  12.565   9.100   9.810  0.2162 -0.1929 -0.0869
  596MOL0     C82142  12.663   9.083   9.898 -0.1785 -0.2766 -0.9798
  596MOL0     C82143  12.649   9.144  10.026  0.1409  0.1256 -0.5210
  596MOL0     C82144  12.743   9.140  10.122 -1.2364  0.7841  0.2113
  596MOL0     C82145  12.859   9.063  10.104 -0.0297  0.3776  0.3318
  596MOL0     O82146  12.961   9.045  10.193  0.4384 -0.3197  0.6561
  596MOL0     C82147  12.923   8.976  10.308 -0.5897 -0.3207  0.2049
  596MOL0     C82148  13.006   9.033  10.418 -0.2924 -0.8296 -0.3640
  596MOL0     C82149  13.044   8.939  10.534 -0.1560 -0.1295  0.4178
  596MOL0     C82150  13.142   9.010  10.625  0.0379  0.2955 -0.0983
  596MOL0     C82151  13.154   8.932  10.756 -0.1521  0.4741 -0.4229
  596MOL0     C82152  13.042   8.969  10.850  0.1287  0.7400 -0.2520
  596MOL0     C82153  13.073   8.893  10.980 -0.1608 -0.0410 -0.1550
  596MOL0     C82154  12.963   8.920  11.087 -0.4282  0.0747  0.4834
  596MOL0    Cl82155  12.941   9.083  11.146 -0.1975 -0.0292 -0.3304
  596MOL0     C82156  12.885   9.010   9.980  0.3962 -0.5081 -0.1870
  596MOL0     C82157  12.779   9.010   9.880 -0.1264  0.4248  0.1358
  596MOL0     O82158  12.702   9.162   9.637 -0.0759 -0.0926 -0.2825
  596MOL0     C82159  12.351   9.163   9.650 -1.2210  0.1933  0.0055
  596MOL0     C82160  12.235   9.159   9.580  0.7869  0.8136 -0.6622
  596MOL0     N82161  11.740   8.921   9.680 -0.1583 -0.2697 -0.1640
  596MOL0     N82162  11.689   8.861   9.780 -0.1750 -0.4486 -0.6975
  596MOL0     C82163  11.151   7.891  10.424  0.3909 -0.2647  0.1401
  596MOL0     C82164  11.094   7.770  10.378 -0.6854 -0.0954  0.3604
  596MOL0     C82165  10.967   7.491  10.018 -0.6668 -0.2379 -0.1447
  596MOL0     C82166  10.926   7.397  10.111  0.7429  0.6018 -0.5870
  596MOL0     C82167  10.869   7.275  10.072  0.5061 -0.3429  0.2158
  596MOL0     C82168  10.856   7.242   9.936 -0.3222  0.1110  0.1488
  596MOL0     O82169  10.816   7.119   9.880  0.6249 -0.6496 -0.1335
  596MOL0     C82170  10.760   7.027   9.974 -0.0857  0.4202 -0.3102
  596MOL0     C82171  10.872   6.936  10.028 -0.1523 -0.1164  0.1737
  596MOL0     C82172  10.953   6.867   9.915  0.5709  0.1958 -1.0350
  596MOL0     C82173  11.067   6.791   9.975  0.4357  0.5193  0.1086
  596MOL0     C82174  11.017   6.673  10.046  0.0042  0.1661 -0.4115
  596MOL0     C82175  10.976   6.566  10.092  0.6346 -0.5268  0.5397
  596MOL0     C82176  10.892   7.339   9.842 -0.0601 -0.6143 -1.1736
  596MOL0     C82177  10.957   7.457   9.880  0.0581 -0.2497  0.0837
  596MOL0     C82178  11.020   7.537   9.775 -0.8483  0.5379  0.6172
  596MOL0     H82179  11.272   7.737  10.088 -0.3751  0.3626 -1.1014
  596MOL0     H82180  11.396   7.922  10.182 -1.9064 -0.1011 -3.4157
  596MOL0     H82181  11.487   8.098  10.336 -0.4575 -0.2107  0.2644
  596MOL0     H82182  11.422   8.216  10.430  0.8686  1.7524 -2.4754
  596MOL0     H82183  11.321   8.144  10.151  2.8648 -0.1373  1.4552
  596MOL0     H82184  11.220   8.245  10.254 -0.8152 -1.2078 -0.7764
  596MOL0     H82185  11.385   8.424  10.266 -3.0293 -0.3245 -0.1743
  596MOL0     H82186  11.497   8.331  10.165  0.1585  1.4984 -1.9728
  596MOL0     H82187  11.321   8.342   9.982  0.5478  2.5958 -1.4279
  596MOL0     H82188  11.212   8.411  10.096 -0.5088 -3.5726 -0.8677
  596MOL0     H82189  11.483   8.537  10.045 -0.5882 -1.4391  1.7502
  596MOL0     H82190  11.334   8.615  10.077  1.3955 -2.2079  4.5946
  596MOL0     H82191  11.376   8.472   9.812 -2.7823  1.2423 -1.8865
  596MOL0     H82192  11.242   8.579   9.864 -0.4305 -0.8736  1.6242
  596MOL0     H82193  11.403   8.765   9.851 -1.9322  0.3096 -2.1519
  596MOL0     H82194  11.396   8.667   9.705 -3.4840 -0.0346  0.4343
  596MOL0     H82195  11.614   8.630   9.919 -1.5012 -2.1478  0.6376
  596MOL0     H82196  11.599   8.538   9.763 -0.0123  0.0665 -0.0151
  596MOL0     H82197  11.714   8.618   9.564 -2.6729 -1.4466  2.0607
  596MOL0     H82198  11.721   8.915   9.392 -1.3753 -2.7209 -3.8781
  596MOL0     H82199  11.813   8.765   9.374  2.6362  0.8338 -1.0465
  596MOL0     H82200  11.949   9.006   9.508  0.4764  0.2740 -0.9498
  596MOL0     H82201  12.015   8.856   9.499  0.2344  3.6925  3.6255
  596MOL0     H82202  11.975   8.856   9.254  0.6578 -0.6024  0.0492
  596MOL0     H82203  11.925   9.032   9.261  3.2674  2.1359  0.7281
  596MOL0     H82204  12.200   8.933   9.334  1.7913  1.1437  0.6838
  596MOL0     H82205  12.152   9.019   9.184 -1.0572  2.0421 -0.3256
  596MOL0     H82206  12.384   9.060   9.282  2.8856 -0.7922  0.2702
  596MOL0     H82207  12.582   8.994   9.287 -0.7045 -2.0341  1.1455
  596MOL0     H82208  12.627   8.940   9.441 -2.8813 -0.1162  0.2722
  596MOL0     H82209  12.702   9.088   9.373  0.1103  1.6505  1.1415
  596MOL0     H82210  12.554   9.195  10.036 -0.4434 -0.9072 -0.6524
  596MOL0     H82211  12.737   9.181  10.223 -3.0064  0.2515  0.3602
  596MOL0     H82212  12.817   8.985  10.332 -0.2792 -0.9982  1.9761
  596MOL0     H82213  12.957   8.873  10.293  1.7377  0.2012  1.5243
  596MOL0     H82214  13.099   9.063  10.369 -1.7832  0.9324 -2.3020
  596MOL0     H82215  12.959   9.128  10.443 -1.8094 -1.9155  1.1443
  596MOL0     H82216  13.097   8.859  10.481  0.0601 -1.0757  2.0083
  596MOL0     H82217  12.961   8.889  10.585 -0.2814 -4.2514 -3.2008
  596MOL0     H82218  13.102   9.111  10.641 -0.6002  0.5295 -2.6551
  596MOL0     H82219  13.239   9.023  10.578  0.0086  1.2697  0.0831
  596MOL0     H82220  13.159   8.823  10.743  0.5248  0.1729  1.9003
  596MOL0     H82221  13.252   8.947  10.803  1.1749 -0.7884 -2.5900
  596MOL0     H82222  12.949   8.932  10.807 -0.4718  1.2741  0.5508
  596MOL0     H82223  13.038   9.077  10.869 -1.8647  0.4739  1.1479
  596MOL0     H82224  13.170   8.937  11.005  0.2521  0.8078 -2.8607
  596MOL0     H82225  13.071   8.785  10.962 -1.4357  0.0730 -0.8143
  596MOL0     H82226  12.991   8.850  11.167 -0.7519 -2.9071 -1.8411
  596MOL0     H82227  12.871   8.887  11.037  1.3264  2.2362 -4.7890
  596MOL0     H82228  12.975   8.955   9.957 -0.6697 -1.9378 -1.1094
  596MOL0     H82229  12.799   8.952   9.791  1.6028  0.7096  0.3057
  596MOL0     H82230  12.350   9.196   9.753 -0.5403  0.8430 -0.1868
  596MOL0     H82231  12.141   9.177   9.631  0.0769 -1.0852 -1.2489
  596MOL0     H82232  11.106   7.942  10.509 -3.8037  1.7007 -2.8856
  596MOL0     H82233  11.015   7.725  10.438  3.9495 -4.9708  3.7106
  596MOL0     H82234  10.933   7.408  10.218  0.4190 -4.3763  0.2084
  596MOL0     H82235  10.857   7.192  10.140  2.1076 -1.4856 -0.8226
  596MOL0     H82236  10.690   7.082  10.038  1.5913  0.4139  1.6375
  596MOL0     H82237  10.698   6.967   9.907 -1.4803  0.8352  0.5691
  596MOL0     H82238  10.830   6.852  10.085  1.2973 -2.2090 -1.6696
  596MOL0     H82239  10.938   6.992  10.095  1.1572 -0.8888 -0.4159
  596MOL0     H82240  10.888   6.799   9.860 -1.0243  0.8269 -0.0080
  596MOL0     H82241  10.995   6.939   9.845 -1.1425 -0.3841 -2.7350
  596MOL0     H82242  11.132   6.853  10.038 -2.4153  1.7409  2.0826
  596MOL0     H82243  11.125   6.749   9.892  1.0337 -0.6828  1.1053
  596MOL0     H82244  10.936   6.476  10.134  0.7104 -1.7687 -1.8819
  596MOL0     H82245  10.879   7.308   9.739 -0.0242 -0.1501 -1.3187
  596MOL0     H82246  11.115   7.569   9.819  0.6639 -3.8740  1.1649
  596MOL0     H82247  11.041   7.480   9.683  0.5003 -1.4891  2.0911
  596MOL0     H82248  10.960   7.626   9.754 -0.9880  0.8402  2.1631
  597MOL0     O82249   9.832   4.428   6.524 -0.2891  0.0216  0.2620
  597MOL0     C82250   9.924   4.492   6.478 -0.3289  0.4579 -0.7952
  597MOL0     O82251   9.929   4.535   6.346 -0.2809  0.0904  0.3203
  597MOL0     C82252   9.821   4.515   6.260  0.0475 -0.1587 -0.1060
  597MOL0     C82253   9.694   4.577   6.282  0.1608 -0.0553 -0.7825
  597MOL0     C82254   9.591   4.559   6.196  0.3024 -0.1830  0.4730
  597MOL0     C82255   9.609   4.480   6.090  0.3597 -0.3312 -0.5434
  597MOL0     O82256   9.500   4.459   6.010 -0.5819  0.3286 -0.4837
  597MOL0     C82257   9.482   4.317   5.975  0.1711 -1.6813  1.1387
  597MOL0     C82258   9.352   4.298   5.896  0.0636 -0.0464 -0.0335
  597MOL0     C82259   9.228   4.350   5.970 -0.0914  0.4285 -0.5076
  597MOL0     C82260   9.107   4.335   5.879  0.0700 -0.8357 -0.9340
  597MOL0     C82261   8.991   4.393   5.962 -0.3231  0.0005 -0.3131
  597MOL0     C82262   8.865   4.376   5.882 -0.3351 -0.4188 -0.0196
  597MOL0     C82263   8.742   4.419   5.963  0.0474 -0.4803 -0.4405
  597MOL0     C82264   8.612   4.447   5.890  0.1109  0.2349 -0.4055
  597MOL0     N82265   8.582   4.585   5.876 -0.1503  0.0904  0.5749
  597MOL0     C82266   8.627   4.669   5.771  1.1034  0.5477  0.5188
  597MOL0     C82267   8.561   4.787   5.793 -0.0853 -0.4860  0.2420
  597MOL0     C82268   8.577   4.907   5.705  0.0742  0.7289  0.1148
  597MOL0     C82269   8.470   4.926   5.602  0.2380 -0.5634 -0.4157
  597MOL0     C82270   8.495   5.055   5.519 -0.7881  0.5605 -0.7775
  597MOL0     C82271   8.371   5.079   5.439  0.3869  0.0643 -0.2268
  597MOL0     O82272   8.405   5.171   5.332 -0.7240 -0.1139  0.2549
  597MOL0     C82273   8.307   5.238   5.260  0.3420 -0.2656 -0.7332
  597MOL0     C82274   8.181   5.180   5.236  0.0153  0.4017 -0.4202
  597MOL0     C82275   8.093   5.233   5.143 -0.2374  0.2622 -0.0983
  597MOL0     C82276   7.963   5.164   5.127  0.2958  0.8980 -0.3213
  597MOL0     C82277   8.117   5.354   5.070 -0.2694  0.4132 -0.3655
  597MOL0     C82278   8.026   5.418   4.977 -0.4656  0.4102  0.2313
  597MOL0     O82279   8.067   5.535   4.930  0.0799  0.0455  0.3990
  597MOL0     C82280   7.979   5.607   4.853  0.5677  0.4909 -0.6314
  597MOL0     C82281   7.986   5.613   4.718  0.0681 -0.2893  0.3131
  597MOL0     C82282   7.892   5.689   4.645 -0.3902  1.2314 -0.1332
  597MOL0     C82283   7.807   5.770   4.702  0.1014  1.2730 -0.1736
  597MOL0     O82284   7.729   5.867   4.647  0.0269 -0.1475  0.0413
  597MOL0     C82285   7.731   5.887   4.500 -0.2035 -0.6645 -0.3721
  597MOL0     C82286   7.598   5.939   4.464  0.0690 -0.1770  1.0913
  597MOL0     C82287   7.575   6.083   4.518  0.1337 -0.1825 -0.3059
  597MOL0     C82288   7.459   6.157   4.446 -0.4275  0.0060 -0.2302
  597MOL0     C82289   7.431   6.297   4.504 -0.0332 -0.9475 -0.4921
  597MOL0     C82290   7.354   6.283   4.643  0.1659  0.2281  0.1432
  597MOL0     C82291   7.311   6.420   4.688  0.1098  0.4446  0.7565
  597MOL0     C82292   7.222   6.408   4.824  0.0979 -0.5307  1.2018
  597MOL0    Cl82293   7.313   6.327   4.949  0.4467 -0.0382  0.1077
  597MOL0     C82294   7.799   5.768   4.837  0.1352 -0.3315  1.0250
  597MOL0     C82295   7.877   5.686   4.913 -0.1928 -0.4643 -0.0120
  597MOL0     O82296   7.917   5.371   4.954  0.0233 -0.0727 -0.9769
  597MOL0     C82297   8.244   5.413   5.097 -0.1037 -0.3108 -0.8995
  597MOL0     C82298   8.342   5.350   5.181  0.5253 -0.0152  0.6599
  597MOL0     N82299   8.481   4.782   5.910 -0.7362  0.2446 -0.2646
  597MOL0     N82300   8.491   4.658   5.948  0.0446  0.1832 -0.4511
  597MOL0     C82301   9.735   4.437   6.051 -0.6956  1.3637 -0.1636
  597MOL0     C82302   9.843   4.444   6.135  0.9236 -0.2321 -0.2429
  597MOL0     C82303  10.039   4.539   6.563  0.9353 -0.1237 -0.1138
  597MOL0     C82304  10.099   4.662   6.540  0.2299 -0.2410 -0.2347
  597MOL0     C82305  10.200   4.726   6.618  0.0701 -0.3326 -0.8865
  597MOL0     C82306  10.247   4.658   6.730  0.3000 -0.4513  0.3413
  597MOL0     O82307  10.349   4.708   6.795 -0.3906  0.8713  0.5076
  597MOL0     C82308  10.354   4.699   6.942 -0.6862  0.0668  0.7025
  597MOL0     C82309  10.458   4.611   6.998 -0.0190  0.0578  1.0993
  597MOL0     C82310  10.467   4.612   7.147 -0.0434  0.4003 -0.5180
  597MOL0     C82311  10.606   4.648   7.189 -0.8278  0.5746 -0.2173
  597MOL0     C82312  10.642   4.785   7.141 -0.4933 -0.2833 -0.4875
  597MOL0     C82313  10.658   4.895   7.096  0.4194 -0.2003  0.5311
  597MOL0     C82314  10.199   4.534   6.749  0.6194  0.4222  0.6514
  597MOL0     C82315  10.094   4.473   6.674  0.7131  0.2987 -0.3087
  597MOL0     C82316  10.039   4.333   6.720  0.0953  0.5938  0.1146
  597MOL0     H82317   9.679   4.635   6.373  0.1234 -2.0089  0.5232
  597MOL0     H82318   9.495   4.606   6.215 -0.6451 -2.2800  1.2026
  597MOL0     H82319   9.468   4.272   6.074  0.4937 -1.9080  1.0810
  597MOL0     H82320   9.560   4.257   5.928 -0.3812 -2.4325  1.1564
  597MOL0     H82321   9.364   4.346   5.799 -2.2940 -0.6810 -0.7121
  597MOL0     H82322   9.334   4.190   5.883  0.4954 -0.2263  0.7623
  597MOL0     H82323   9.217   4.299   6.066  1.9442 -1.2225 -1.0727
  597MOL0     H82324   9.245   4.456   5.990  0.9893 -0.3591  3.6431
  597MOL0     H82325   9.126   4.398   5.791  1.1208  1.1198  0.6195
  597MOL0     H82326   9.088   4.232   5.847  0.7015 -0.3822 -2.9435
  597MOL0     H82327   9.011   4.499   5.982  1.9397 -0.6371  1.1307
  597MOL0     H82328   8.982   4.343   6.058  1.4588 -1.0806 -0.6679
  597MOL0     H82329   8.865   4.437   5.791  1.4583  0.3415  0.4345
  597MOL0     H82330   8.852   4.276   5.839 -1.2225  0.1395 -1.1111
  597MOL0     H82331   8.768   4.515   6.009 -0.7036 -0.9554  1.0128
  597MOL0     H82332   8.725   4.343   6.039  1.2613  1.4712  1.9153
  597MOL0     H82333   8.624   4.395   5.794  1.2457  1.2667 -0.8507
  597MOL0     H82334   8.536   4.396   5.950  0.0570  1.1406  0.3109
  597MOL0     H82335   8.701   4.642   5.697  1.2921  1.2124  0.4552
  597MOL0     H82336   8.671   4.904   5.650  0.4749  2.9316  0.5997
  597MOL0     H82337   8.570   4.990   5.775 -2.1314  1.0651 -0.4311
  597MOL0     H82338   8.465   4.841   5.533 -0.1409 -0.6269 -0.3131
  597MOL0     H82339   8.377   4.936   5.660 -0.0012  4.1601 -1.2285
  597MOL0     H82340   8.507   5.143   5.584 -0.4241 -0.6866  0.9361
  597MOL0     H82341   8.585   5.047   5.458 -0.0878 -0.1189  0.3140
  597MOL0     H82342   8.326   4.989   5.397 -0.3753 -0.0166  0.7470
  597MOL0     H82343   8.292   5.127   5.498  1.8074  4.2247 -1.3163
  597MOL0     H82344   8.156   5.078   5.265 -2.7499  0.6800 -1.4880
  597MOL0     H82345   7.878   5.230   5.148  0.3644  0.7294  0.5373
  597MOL0     H82346   7.956   5.089   5.206  1.8295  2.5942  1.5379
  597MOL0     H82347   7.958   5.129   5.024  0.1939 -2.0854  0.6178
  597MOL0     H82348   8.065   5.547   4.681  1.3011 -1.5651  4.5737
  597MOL0     H82349   7.910   5.688   4.537 -1.3491 -1.9243 -0.3560
  597MOL0     H82350   7.820   5.937   4.461 -0.9769  1.1462  0.0959
  597MOL0     H82351   7.733   5.791   4.447  0.5724  0.1561 -1.8894
  597MOL0     H82352   7.587   5.931   4.355 -0.4739  1.4244  1.0137
  597MOL0     H82353   7.519   5.870   4.494 -0.2630 -0.6855 -0.7795
  597MOL0     H82354   7.668   6.141   4.520  0.6897 -1.0601 -0.1850
  597MOL0     H82355   7.553   6.076   4.624  0.6277  2.9697  0.1162
  597MOL0     H82356   7.369   6.095   4.448 -0.3031 -0.4022 -3.2637
  597MOL0     H82357   7.484   6.169   4.341  1.1095 -1.1021 -0.0340
  597MOL0     H82358   7.517   6.364   4.507 -1.4161  0.9036 -0.0815
  597MOL0     H82359   7.360   6.342   4.435 -0.9499  0.1948  1.1397
  597MOL0     H82360   7.420   6.242   4.721 -0.4718  0.4693  0.8203
  597MOL0     H82361   7.267   6.221   4.622  0.6850 -0.0778 -1.2307
  597MOL0     H82362   7.253   6.467   4.608 -0.8455  0.7166  1.5873
  597MOL0     H82363   7.408   6.468   4.704  1.6502 -3.0873  3.3293
  597MOL0     H82364   7.124   6.362   4.812  0.5210 -0.8051 -2.6205
  597MOL0     H82365   7.207   6.515   4.843  1.4421  0.5326 -2.7468
  597MOL0     H82366   7.726   5.827   4.891 -0.3057 -0.9455  1.1118
  597MOL0     H82367   7.867   5.685   5.021  0.4228 -0.5138  0.0504
  597MOL0     H82368   8.288   5.495   5.042  3.1446 -1.6865 -0.6311
  597MOL0     H82369   8.444   5.383   5.199  0.8378 -1.8487  2.6208
  597MOL0     H82370   9.745   4.373   5.963 -2.0311 -2.2656  2.0881
  597MOL0     H82371   9.940   4.406   6.104  0.8189 -0.7865  0.0994
  597MOL0     H82372  10.058   4.721   6.459 -1.6772 -1.5061 -0.2707
  597MOL0     H82373  10.218   4.831   6.602  2.0595 -0.1576  1.7575
  597MOL0     H82374  10.368   4.797   6.988 -2.4506 -0.1681  1.8328
  597MOL0     H82375  10.252   4.682   6.978 -0.4317 -1.5545  0.7609
  597MOL0     H82376  10.555   4.644   6.958  0.7985 -2.3627  0.9265
  597MOL0     H82377  10.441   4.510   6.962 -0.0303  0.6208 -0.5861
  597MOL0     H82378  10.394   4.679   7.194 -2.1212 -1.5115 -0.8648
  597MOL0     H82379  10.452   4.512   7.190 -0.6832  0.5241 -0.4412
  597MOL0     H82380  10.680   4.577   7.150  0.7413  0.6143  2.4488
  597MOL0     H82381  10.613   4.642   7.298 -1.6714 -1.8419 -0.2460
  597MOL0     H82382  10.669   4.996   7.063 -0.1099 -0.8896 -1.9553
  597MOL0     H82383  10.256   4.481   6.824 -0.6010 -1.6418  0.2164
  597MOL0     H82384  10.094   4.299   6.809 -0.1122 -2.5316 -0.8328
  597MOL0     H82385   9.937   4.344   6.756  0.2196  3.9456 -0.2131
  597MOL0     H82386  10.040   4.258   6.640 -0.7473  2.4878 -1.7665
  598MOL0     O82387   5.686   0.316  11.027  0.6086 -0.4137  0.1623
  598MOL0     C82388   5.680   0.392  10.924  0.3143  0.1411  0.6930
  598MOL0     O82389   5.560   0.439  10.875 -0.2620  0.0023  0.6014
  598MOL0     C82390   5.452   0.448  10.954 -0.4157  0.0514  0.1150
  598MOL0     C82391   5.453   0.511  11.076  0.4477 -0.3105  0.5445
  598MOL0     C82392   5.336   0.504  11.162  0.7233 -0.0987 -0.8722
  598MOL0     C82393   5.225   0.417  11.122  0.2565 -0.7573 -0.6910
  598MOL0     O82394   5.127   0.376  11.208  0.3715 -0.0143  0.6198
  598MOL0     C82395   4.994   0.421  11.181 -0.6673 -0.1482 -1.0091
  598MOL0     C82396   4.902   0.389  11.301  0.0366  0.2934  0.3012
  598MOL0     C82397   4.911   0.488  11.416  0.0732  0.6422  1.0189
  598MOL0     C82398   4.809   0.448  11.525  0.3547 -0.6241 -0.4968
  598MOL0     C82399   4.779   0.571  11.617  0.0918  1.5982  0.1476
  598MOL0     C82400   4.704   0.527  11.749 -0.4934  0.5807  0.2962
  598MOL0     C82401   4.688   0.641  11.844 -0.6257 -0.2361  0.1059
  598MOL0     C82402   4.806   0.673  11.932 -0.9611  0.0234 -0.4048
  598MOL0     N82403   4.826   0.575  12.046 -0.7222  0.4589  0.6793
  598MOL0     C82404   4.878   0.445  12.038 -0.0939 -1.4760  0.4534
  598MOL0     C82405   4.870   0.392  12.162 -0.1567 -0.2751  0.0147
  598MOL0     C82406   4.905   0.238  12.193 -0.0056 -0.6669  0.2533
  598MOL0     C82407   5.056   0.230  12.184  0.3042 -0.0063 -0.1250
  598MOL0     C82408   5.107   0.086  12.205 -0.9881  0.5667  0.3089
  598MOL0     C82409   5.267   0.090  12.211  0.0835 -0.3787 -0.2612
  598MOL0     O82410   5.333   0.164  12.104  0.6848  0.2421  0.1731
  598MOL0     C82411   5.463   0.132  12.078  0.2570  0.2776 -1.1502
  598MOL0     C82412   5.549   0.075  12.173  0.1876  0.5681 -0.1578
  598MOL0     C82413   5.688   0.056  12.143  0.0208  0.1635 -0.6048
  598MOL0     C82414   5.761  -0.001  12.263 -0.0757  0.0300 -0.1699
  598MOL0     C82415   5.739   0.084  12.014  0.1057  0.2322  0.3425
  598MOL0     C82416   5.883   0.060  11.977 -0.6070 -0.2101 -0.7019
  598MOL0     O82417   5.958   0.010  12.079  0.3772 -0.9590  0.3279
  598MOL0     C82418   6.085  -0.027  12.042  0.2238 -0.0922  0.9745
  598MOL0     C82419   6.186   0.057  11.998 -0.3952 -0.6358 -0.3779
  598MOL0     C82420   6.318   0.011  11.997 -0.0544 -0.4452 -0.5526
  598MOL0     C82421   6.348  -0.121  12.037  0.1399 -0.2441 -0.1714
  598MOL0     O82422   6.478  -0.149  12.046 -0.0990 -0.5670  0.0614
  598MOL0     C82423   6.516  -0.260  11.958 -0.0586 -0.7886  0.4794
  598MOL0     C82424   6.491  -0.238  11.804 -0.0171 -0.5002 -1.4991
  598MOL0     C82425   6.568  -0.328  11.701  0.0758 -0.1337  0.1384
  598MOL0     C82426   6.492  -0.362  11.566  0.2910 -0.1571 -0.2928
  598MOL0     C82427   6.584  -0.468  11.485  0.6949 -0.3902 -0.3964
  598MOL0     C82428   6.731  -0.444  11.486  0.1535  0.5167 -0.1046
  598MOL0     C82429   6.795  -0.558  11.407  0.1459  0.3696  0.2820
  598MOL0     C82430   6.943  -0.528  11.397 -0.3712 -0.3424  0.2521
  598MOL0    Cl82431   7.026  -0.614  11.520 -0.7306  0.1449  0.1049
  598MOL0     C82432   6.246  -0.203  12.081  0.1094 -0.9691 -0.3082
  598MOL0     C82433   6.110  -0.164  12.067  0.1080 -0.3978 -0.0769
  598MOL0     O82434   5.912   0.096  11.864 -0.0241  0.1798 -0.3673
  598MOL0     C82435   5.643   0.142  11.921  0.0883  0.3009 -0.1856
  598MOL0     C82436   5.511   0.156  11.952  0.0468  0.3538 -0.4171
  598MOL0     N82437   4.837   0.490  12.248  0.4653  0.3446 -0.6030
  598MOL0     N82438   4.803   0.595  12.179  0.5663 -0.1211  0.1780
  598MOL0     C82439   5.235   0.341  11.007 -0.3223 -0.4924 -0.1977
  598MOL0     C82440   5.338   0.373  10.917  0.2343  1.0819  0.1342
  598MOL0     C82441   5.809   0.415  10.853  0.3048 -1.0278  0.5414
  598MOL0     C82442   5.927   0.433  10.928 -0.1410  0.4375 -0.0095
  598MOL0     C82443   6.052   0.447  10.868 -0.4671 -0.3145 -0.3499
  598MOL0     C82444   6.060   0.454  10.729 -0.0909  0.2624 -0.9292
  598MOL0     O82445   6.176   0.494  10.679  0.2961  0.6254  0.4817
  598MOL0     C82446   6.175   0.599  10.574 -0.3695 -0.3290 -0.3957
  598MOL0     C82447   6.124   0.734  10.638  0.6836  0.0290 -0.1124
  598MOL0     C82448   6.121   0.845  10.541 -0.7948 -0.0733  0.2343
  598MOL0     C82449   6.256   0.912  10.521  0.6893 -0.7124  0.1931
  598MOL0     C82450   6.297   0.990  10.638  0.0768  0.0959  0.2872
  598MOL0     C82451   6.323   1.030  10.746  0.1732 -0.3652 -1.2258
  598MOL0     C82452   5.948   0.425  10.657 -0.9919 -0.1874  0.3953
  598MOL0     C82453   5.822   0.411  10.718  0.1671  0.5643  0.4151
  598MOL0     C82454   5.701   0.391  10.619 -1.7857  0.4879 -0.3075
  598MOL0     H82455   5.539   0.553  11.127  0.3913 -2.9173  3.0446
  598MOL0     H82456   5.324   0.544  11.262  0.3394 -0.6473 -0.6893
  598MOL0     H82457   4.960   0.400  11.080 -0.2042  0.0479 -1.2055
  598MOL0     H82458   4.995   0.530  11.178 -1.4412  0.1748  3.1630
  598MOL0     H82459   4.797   0.386  11.269 -0.2854 -0.1120  1.3631
  598MOL0     H82460   4.946   0.294  11.334 -1.6418 -0.2105  1.2055
  598MOL0     H82461   5.012   0.507  11.454  0.4519  1.7089 -0.4050
  598MOL0     H82462   4.871   0.580  11.372 -0.1497  0.5385  1.0010
  598MOL0     H82463   4.712   0.409  11.491 -0.1993  1.4300 -1.3856
  598MOL0     H82464   4.845   0.367  11.590 -3.5715 -0.8603  1.6877
  598MOL0     H82465   4.714   0.639  11.560 -1.8893 -0.7605 -0.5751
  598MOL0     H82466   4.872   0.625  11.636 -0.0014  1.6649  0.4064
  598MOL0     H82467   4.601   0.504  11.719 -1.2473  1.0450  2.3820
  598MOL0     H82468   4.751   0.435  11.784  2.2246  0.9975 -1.8888
  598MOL0     H82469   4.591   0.634  11.894 -0.8528 -0.3763 -0.3468
  598MOL0     H82470   4.674   0.723  11.773  1.3579 -1.1567 -1.4845
  598MOL0     H82471   4.903   0.668  11.883 -1.1485 -0.2644 -0.7546
  598MOL0     H82472   4.785   0.773  11.970 -1.0981  0.0884 -0.6528
  598MOL0     H82473   4.902   0.386  11.950  1.0220 -1.1338  0.5163
  598MOL0     H82474   4.864   0.178  12.111 -0.0324 -0.7237  0.3083
  598MOL0     H82475   4.866   0.213  12.292 -2.0926 -2.2993 -0.8827
  598MOL0     H82476   5.093   0.268  12.089 -1.1759 -2.7852 -1.9227
  598MOL0     H82477   5.098   0.296  12.261 -0.1813 -0.2306  0.3397
  598MOL0     H82478   5.073   0.053  12.304 -1.0604 -0.4487 -0.0438
  598MOL0     H82479   5.073   0.020  12.125 -1.5452  2.8203 -1.3972
  598MOL0     H82480   5.290   0.138  12.306 -0.0043 -0.7571 -0.0508
  598MOL0     H82481   5.295  -0.015  12.212  2.2059  0.0766 -2.1398
  598MOL0     H82482   5.511   0.052  12.273  1.3746 -1.5233 -0.1417
  598MOL0     H82483   5.845   0.060  12.298  2.3908 -1.3290 -3.2621
  598MOL0     H82484   5.808  -0.092  12.226  0.0382  0.9625 -2.5033
  598MOL0     H82485   5.694  -0.014  12.349 -3.9200  1.2666 -2.6943
  598MOL0     H82486   6.168   0.163  11.981  0.2316 -0.4455  0.0801
  598MOL0     H82487   6.387   0.087  11.962  0.4923  0.8834  3.0633
  598MOL0     H82488   6.621  -0.280  11.983  0.6365  3.1777  1.3809
  598MOL0     H82489   6.460  -0.348  11.992 -0.3582  0.5410  3.7599
  598MOL0     H82490   6.383  -0.247  11.787 -0.1581  0.3343 -1.0648
  598MOL0     H82491   6.526  -0.137  11.781 -1.2290  0.9216  2.2459
  598MOL0     H82492   6.584  -0.428  11.742  2.4560 -0.4821 -1.4809
  598MOL0     H82493   6.669  -0.291  11.684  1.4577 -2.0506  3.3191
  598MOL0     H82494   6.486  -0.273  11.502  1.3945  0.4731  0.4445
  598MOL0     H82495   6.393  -0.405  11.583 -0.0878  1.3396  1.6237
  598MOL0     H82496   6.580  -0.558  11.546  1.8176  1.5964  2.8468
  598MOL0     H82497   6.545  -0.482  11.384 -0.4445 -1.5659  0.1705
  598MOL0     H82498   6.766  -0.448  11.589  1.2649 -1.2424 -0.5082
  598MOL0     H82499   6.755  -0.345  11.446 -0.5658  0.5349 -0.5090
  598MOL0     H82500   6.764  -0.559  11.302  0.4993 -1.2370  0.1650
  598MOL0     H82501   6.775  -0.657  11.450  2.2117 -0.9140 -1.4889
  598MOL0     H82502   6.972  -0.424  11.414 -0.8614  0.2356 -2.0397
  598MOL0     H82503   6.981  -0.554  11.298  1.3158  2.6077 -0.0043
  598MOL0     H82504   6.263  -0.305  12.114  1.8265 -1.1630 -1.6557
  598MOL0     H82505   6.031  -0.230  12.100 -0.2537  0.1577  0.1854
  598MOL0     H82506   5.680   0.176  11.824  3.8360  1.0137  1.3080
  598MOL0     H82507   5.444   0.178  11.870 -0.0776  2.0847  0.1120
  598MOL0     H82508   5.147   0.284  10.979 -1.8734  2.8507 -2.6842
  598MOL0     H82509   5.343   0.325  10.820 -1.7459  0.9777  0.0566
  598MOL0     H82510   5.925   0.438  11.036 -0.2444  0.1553  0.0015
  598MOL0     H82511   6.138   0.464  10.932 -1.1180 -0.3938  0.5579
  598MOL0     H82512   6.281   0.605  10.545  0.8894 -2.5814  3.0872
  598MOL0     H82513   6.116   0.574  10.485  0.3318  1.1730 -1.3400
  598MOL0     H82514   6.187   0.758  10.724 -0.7512  0.6810  0.7769
  598MOL0     H82515   6.025   0.719  10.682  1.7539  0.8369  2.8017
  598MOL0     H82516   6.102   0.804  10.441  1.6794 -0.6260 -0.0794
  598MOL0     H82517   6.043   0.916  10.570  0.4999  1.7391 -0.5598
  598MOL0     H82518   6.254   0.973  10.430  0.2602 -0.9685  0.0265
  598MOL0     H82519   6.329   0.834  10.497 -0.5751 -1.8242 -0.1364
  598MOL0     H82520   6.343   1.061  10.847  0.8429 -3.2323 -0.3813
  598MOL0     H82521   5.969   0.414  10.551  1.1438  3.1993  0.3557
  598MOL0     H82522   5.662   0.290  10.637  0.2213 -0.4052 -0.6194
  598MOL0     H82523   5.618   0.461  10.630  0.2780  3.0179  0.0569
  598MOL0     H82524   5.739   0.390  10.516  0.5853 -2.1249  0.4723
  599MOL0     O82525   4.177   7.687  11.050  0.9888  0.5967 -0.6018
  599MOL0     C82526   4.195   7.808  11.037 -0.2196  0.3019  0.1840
  599MOL0     O82527   4.308   7.870  10.992  0.3600 -0.3432  0.1803
  599MOL0     C82528   4.384   7.779  10.927  0.6169  0.3665  0.4514
  599MOL0     C82529   4.398   7.792  10.791 -0.5347  0.0513  0.1178
  599MOL0     C82530   4.491   7.713  10.722  0.4560  0.5633 -0.3017
  599MOL0     C82531   4.559   7.611  10.793 -0.2677 -0.9852  0.0294
  599MOL0     O82532   4.634   7.519  10.726 -0.1303  0.1462  0.4393
  599MOL0     C82533   4.704   7.565  10.606  0.7633  0.5034  0.4072
  599MOL0     C82534   4.825   7.479  10.575  0.0964  0.2835 -0.0550
  599MOL0     C82535   4.787   7.331  10.544  0.3713 -0.7446  0.2750
  599MOL0     C82536   4.705   7.317  10.419  0.6784  0.4523 -0.2289
  599MOL0     C82537   4.691   7.168  10.379 -0.2726  0.7107 -0.6983
  599MOL0     C82538   4.581   7.147  10.270  0.5672 -0.8896 -0.0692
  599MOL0     C82539   4.562   7.000  10.233  0.0046 -0.1549  0.5860
  599MOL0     C82540   4.450   6.978  10.122  0.2253  0.7184  0.3926
  599MOL0     N82541   4.507   6.899  10.015  0.3747  0.1570  0.6419
  599MOL0     C82542   4.608   6.936   9.921  0.0100 -0.2840  0.1714
  599MOL0     C82543   4.608   6.843   9.824  0.3759 -0.0572  0.2005
  599MOL0     C82544   4.717   6.842   9.726  0.1217  0.3778  0.0815
  599MOL0     C82545   4.643   6.794   9.608  0.4783  0.4368 -0.0339
  599MOL0     C82546   4.721   6.794   9.477 -0.8727  0.3530 -0.6242
  599MOL0     C82547   4.847   6.709   9.493  0.6020  0.1171 -0.4837
  599MOL0     O82548   4.902   6.681   9.361  0.0909 -0.2793 -1.0169
  599MOL0     C82549   4.992   6.597   9.331 -0.3759 -0.6445  0.2688
  599MOL0     C82550   5.022   6.582   9.194 -0.0341 -0.2963 -0.8863
  599MOL0     C82551   5.134   6.506   9.152  0.0710 -0.0757 -0.7742
  599MOL0     C82552   5.165   6.490   9.008  0.4909  0.2290 -0.1076
  599MOL0     C82553   5.213   6.442   9.258  0.7461 -1.0524  0.6768
  599MOL0     C82554   5.330   6.371   9.225  0.2338  0.6067 -0.6924
  599MOL0     O82555   5.367   6.282   9.322 -0.1080 -0.2659 -0.0614
  599MOL0     C82556   5.464   6.185   9.304 -0.1835  0.5573  0.1193
  599MOL0     C82557   5.499   6.126   9.181  0.3407 -1.0876  0.4514
  599MOL0     C82558   5.589   6.019   9.179  0.1990  0.5783  1.0641
  599MOL0     C82559   5.660   5.981   9.290  0.4240  0.0996  0.2882
  599MOL0     O82560   5.767   5.892   9.276  0.4741 -0.0042  0.4974
  599MOL0     C82561   5.830   5.836   9.389  0.1251 -0.3918 -1.2577
  599MOL0     C82562   5.921   5.721   9.341  1.0319 -0.6193 -0.5694
  599MOL0     C82563   6.057   5.776   9.285 -0.1094 -0.1931 -0.3202
  599MOL0     C82564   6.165   5.790   9.380 -0.5096 -1.0622  0.9923
  599MOL0     C82565   6.293   5.870   9.331  0.6666 -0.0817 -0.2410
  599MOL0     C82566   6.382   5.774   9.258  0.4736 -0.5113  0.3019
  599MOL0     C82567   6.467   5.688   9.347  0.2462  0.1244 -1.0100
  599MOL0     C82568   6.573   5.606   9.268  0.4218  0.4668 -0.6049
  599MOL0    Cl82569   6.488   5.489   9.155  0.3818 -0.0017 -0.3982
  599MOL0     C82570   5.641   6.050   9.412  0.0826 -0.5967  0.2383
  599MOL0     C82571   5.540   6.143   9.422  1.3388 -0.6443  0.0219
  599MOL0     O82572   5.403   6.406   9.128  0.0542 -0.9612  0.5206
  599MOL0     C82573   5.165   6.453   9.393 -0.5973  0.4442 -0.3127
  599MOL0     C82574   5.054   6.521   9.423  0.2916 -0.0558  0.1770
  599MOL0     N82575   4.515   6.745   9.863 -1.1249  0.0157 -0.2186
  599MOL0     N82576   4.461   6.782   9.977  0.2709  0.8354  0.7247
  599MOL0     C82577   4.547   7.603  10.930 -0.2849  0.4043 -0.4747
  599MOL0     C82578   4.456   7.686  10.993 -1.0153  0.0046 -0.0616
  599MOL0     C82579   4.089   7.890  11.088 -0.1144  0.4413  0.1307
  599MOL0     C82580   4.068   7.910  11.226  0.2759  0.6576 -0.0914
  599MOL0     C82581   3.952   7.972  11.272  0.5413 -0.3995  1.5999
  599MOL0     C82582   3.858   8.028  11.176 -0.7063  0.5367 -0.2031
  599MOL0     O82583   3.756   8.110  11.208  0.8074  0.4347  0.2522
  599MOL0     C82584   3.704   8.124  11.337  0.7533  0.1052  0.1064
  599MOL0     C82585   3.592   8.228  11.336  0.7126  0.3438 -0.3911
  599MOL0     C82586   3.644   8.368  11.351  0.8757  0.3620  0.1507
  599MOL0     C82587   3.524   8.466  11.346  0.5238 -0.0746  0.6912
  599MOL0     C82588   3.458   8.476  11.211 -0.0333  0.4567 -0.2318
  599MOL0     C82589   3.386   8.497  11.118 -0.0432 -0.5731 -0.0219
  599MOL0     C82590   3.898   8.030  11.043 -0.0922  0.9589 -0.4040
  599MOL0     C82591   4.011   7.960  10.991  0.3492 -0.0229  0.3040
  599MOL0     C82592   4.051   7.972  10.842 -0.0350 -0.8217 -0.1714
  599MOL0     H82593   4.350   7.866  10.728 -1.2326  1.1129  1.8114
  599MOL0     H82594   4.502   7.727  10.615  1.5473  3.3801  0.0962
  599MOL0     H82595   4.740   7.667  10.625 -0.5185  1.1467 -0.5117
  599MOL0     H82596   4.633   7.568  10.523 -1.6692 -1.6823  2.2693
  599MOL0     H82597   4.896   7.523  10.504  1.4862 -1.5649  0.1238
  599MOL0     H82598   4.876   7.473  10.671  0.4950 -1.2673 -0.3440
  599MOL0     H82599   4.882   7.281  10.521  1.0078  1.6688 -2.9880
  599MOL0     H82600   4.739   7.282  10.630  0.1966 -0.9506  0.0596
  599MOL0     H82601   4.605   7.354  10.444 -0.0570 -2.0596  0.8540
  599MOL0     H82602   4.747   7.374  10.336 -0.7368  2.1276  0.1443
  599MOL0     H82603   4.654   7.111  10.465  1.6316 -2.5648 -1.8797
  599MOL0     H82604   4.787   7.122  10.354  0.8831  1.8648  1.3621
  599MOL0     H82605   4.485   7.183  10.309  0.2162 -0.6308 -1.1404
  599MOL0     H82606   4.603   7.203  10.178 -0.3406 -0.4146 -0.0104
  599MOL0     H82607   4.544   6.943  10.325 -3.8509  0.3675  0.2999
  599MOL0     H82608   4.655   6.956  10.196  0.4104 -0.5602  2.0144
  599MOL0     H82609   4.388   6.899  10.166  0.5690  0.8787  1.1872
  599MOL0     H82610   4.406   7.073  10.091 -0.1258  0.5450  0.3575
  599MOL0     H82611   4.687   7.008   9.933  0.4000 -0.9501  1.9726
  599MOL0     H82612   4.798   6.776   9.760 -1.0419 -1.1741 -0.0756
  599MOL0     H82613   4.740   6.948   9.711  0.3167  0.5936  1.6794
  599MOL0     H82614   4.604   6.694   9.630  1.3238  0.1655  0.2519
  599MOL0     H82615   4.558   6.863   9.600  0.6234  0.5772 -0.3776
  599MOL0     H82616   4.655   6.755   9.399  0.9575 -2.3953 -0.9510
  599MOL0     H82617   4.743   6.896   9.446 -0.2146  0.4810  0.2119
  599MOL0     H82618   4.912   6.767   9.559 -2.7715  2.0909  1.4083
  599MOL0     H82619   4.811   6.616   9.537 -0.6968  0.8163 -0.0121
  599MOL0     H82620   4.958   6.632   9.122  1.1326  3.7725  0.6148
  599MOL0     H82621   5.082   6.534   8.952  0.8379  3.3961  1.5955
  599MOL0     H82622   5.192   6.385   8.994  0.3253  0.2678 -0.7840
  599MOL0     H82623   5.252   6.541   8.964  0.6531 -1.3220 -1.6763
  599MOL0     H82624   5.443   6.144   9.089  1.8403 -1.0758 -0.4913
  599MOL0     H82625   5.624   5.987   9.081 -1.4221  3.3304 -0.5847
  599MOL0     H82626   5.899   5.903   9.440 -2.8764  0.9684  1.3537
  599MOL0     H82627   5.759   5.796   9.462 -0.0534  2.0867  0.0247
  599MOL0     H82628   5.948   5.645   9.416  1.0477 -1.3468 -1.2988
  599MOL0     H82629   5.853   5.664   9.276 -2.5965 -0.2552  2.5542
  599MOL0     H82630   6.037   5.877   9.247  2.2726  0.0922 -0.9731
  599MOL0     H82631   6.085   5.719   9.195  2.3550  2.3242 -1.2818
  599MOL0     H82632   6.197   5.690   9.411 -1.4176 -1.5890  0.2854
  599MOL0     H82633   6.125   5.840   9.468  1.4926  0.5081  1.0776
  599MOL0     H82634   6.258   5.941   9.256 -0.0433 -1.1007 -0.9175
  599MOL0     H82635   6.347   5.922   9.410 -1.0319  2.0240 -0.3816
  599MOL0     H82636   6.446   5.845   9.206 -1.7811  1.8022  0.4895
  599MOL0     H82637   6.320   5.716   9.190 -1.6128  2.4080 -0.4753
  599MOL0     H82638   6.400   5.630   9.411  0.7004  0.5541 -0.1290
  599MOL0     H82639   6.527   5.753   9.411  0.2205 -1.5606  0.8490
  599MOL0     H82640   6.625   5.550   9.346 -0.9746  1.1635  0.8707
  599MOL0     H82641   6.631   5.682   9.215  0.8245  0.0883 -0.7038
  599MOL0     H82642   5.692   6.019   9.502  0.5757  0.4723  0.3354
  599MOL0     H82643   5.508   6.189   9.516  0.3638  2.3819 -1.6594
  599MOL0     H82644   5.221   6.396   9.467  0.3912 -1.9168 -2.7150
  599MOL0     H82645   5.016   6.531   9.524 -1.4947  0.5581 -0.5129
  599MOL0     H82646   4.604   7.528  10.983 -2.3135 -1.5082 -0.8650
  599MOL0     H82647   4.448   7.681  11.101 -1.9584 -0.1926 -0.1307
  599MOL0     H82648   4.120   7.854  11.302  0.3313  1.0376  0.1542
  599MOL0     H82649   3.910   7.980  11.372 -0.9756 -1.2640  1.0722
  599MOL0     H82650   3.652   8.034  11.373 -1.2919  1.5598  0.9316
  599MOL0     H82651   3.784   8.152  11.406  1.7476 -0.6225 -0.7125
  599MOL0     H82652   3.530   8.198  11.421  0.2760 -0.2337 -0.9113
  599MOL0     H82653   3.531   8.214  11.247  0.1272 -2.9197  0.3937
  599MOL0     H82654   3.690   8.363  11.451 -2.0831  4.9087  2.0587
  599MOL0     H82655   3.717   8.395  11.274 -0.3914  1.3784 -0.7451
  599MOL0     H82656   3.563   8.563  11.377  2.2588  0.0761 -1.6962
  599MOL0     H82657   3.442   8.432  11.410 -1.5893 -0.9603 -2.2559
  599MOL0     H82658   3.319   8.497  11.035  0.1702  1.6049 -0.2506
  599MOL0     H82659   3.852   8.093  10.968  0.1366 -1.5266 -2.7886
  599MOL0     H82660   4.042   7.871  10.801  0.2665 -1.1369  0.5130
  599MOL0     H82661   3.978   8.037  10.794  0.4371  0.4707  0.7884
  599MOL0     H82662   4.151   8.015  10.837  0.9176 -3.0003 -0.8816
  600MOL0     O82663   9.260   1.346   6.502 -0.5131  0.8366  1.0642
  600MOL0     C82664   9.210   1.440   6.569 -0.5727 -0.1556 -0.3681
  600MOL0     O82665   9.104   1.520   6.529 -0.2533  0.1137  0.0555
  600MOL0     C82666   9.028   1.501   6.418 -0.6249  0.8765 -0.6574
  600MOL0     C82667   9.034   1.398   6.321  0.6994 -0.8300 -0.4227
  600MOL0     C82668   8.967   1.410   6.202  0.0923 -0.3419  0.4613
  600MOL0     C82669   8.871   1.508   6.172 -0.4111  0.0235 -0.6217
  600MOL0     O82670   8.802   1.515   6.056 -0.4328  1.0618 -0.1912
  600MOL0     C82671   8.816   1.625   5.963 -0.3841 -0.2137 -0.0721
  600MOL0     C82672   8.967   1.657   5.916  0.2416 -0.4743 -0.1021
  600MOL0     C82673   8.964   1.719   5.775 -0.0707 -0.2053 -0.0491
  600MOL0     C82674   9.103   1.726   5.715  0.0964  0.3909  0.9439
  600MOL0     C82675   9.100   1.811   5.582 -1.0144 -0.6649  0.7543
  600MOL0     C82676   9.230   1.822   5.504 -0.2342 -0.3221  0.3079
  600MOL0     C82677   9.333   1.923   5.559 -0.3241  0.4356  0.4476
  600MOL0     C82678   9.297   2.067   5.515  0.2081 -0.3831  0.7546
  600MOL0     N82679   9.386   2.171   5.564  0.1736 -1.0953  0.2320
  600MOL0     C82680   9.517   2.188   5.529 -0.5734 -0.6427 -0.1095
  600MOL0     C82681   9.548   2.299   5.603 -1.4102  0.0931 -0.6134
  600MOL0     C82682   9.683   2.356   5.620 -0.3862 -0.4002  0.8586
  600MOL0     C82683   9.777   2.278   5.711  0.2488  1.0844  0.2064
  600MOL0     C82684   9.808   2.128   5.672 -0.1829 -0.1079  0.5145
  600MOL0     C82685   9.897   2.048   5.769 -0.4123 -1.0697 -0.2798
  600MOL0     O82686  10.038   2.083   5.757 -0.4879  0.7747 -0.0628
  600MOL0     C82687  10.124   2.017   5.843 -0.1758  0.4309  0.5324
  600MOL0     C82688  10.250   2.082   5.863  0.6647 -0.6539 -0.1826
  600MOL0     C82689  10.350   2.028   5.945  0.1259 -0.4484 -0.5966
  600MOL0     C82690  10.459   2.121   5.970  0.6423 -0.0888 -0.4317
  600MOL0     C82691  10.327   1.904   6.019  0.0431 -0.7045  0.2916
  600MOL0     C82692  10.427   1.845   6.105  0.3468  0.4054 -0.1145
  600MOL0     O82693  10.549   1.901   6.121 -0.5646 -0.3883 -0.3159
  600MOL0     C82694  10.670   1.845   6.154  0.6021 -0.3475  0.1914
  600MOL0     C82695  10.785   1.916   6.118  0.2232  1.2416  0.1880
  600MOL0     C82696  10.908   1.876   6.148 -0.8766  0.4104 -1.6182
  600MOL0     C82697  10.929   1.774   6.244  0.0205  0.4647  0.8016
  600MOL0     O82698  11.059   1.736   6.274  0.3576 -0.3384 -0.3080
  600MOL0     C82699  11.076   1.604   6.332 -0.5174  0.0788 -0.9358
  600MOL0     C82700  11.215   1.592   6.401  0.4289  0.4605  0.0796
  600MOL0     C82701  11.203   1.512   6.534 -0.3920 -0.0496 -0.5090
  600MOL0     C82702  11.149   1.367   6.513  0.6117 -0.1437  0.5727
  600MOL0     C82703  11.209   1.253   6.610  0.2790 -1.0660  0.4194
  600MOL0     C82704  11.162   1.281   6.751 -0.8024 -0.1076 -0.5562
  600MOL0     C82705  11.222   1.185   6.845 -0.2780 -0.2788  0.2577
  600MOL0     C82706  11.154   1.043   6.837  0.6150 -0.2739 -0.6852
  600MOL0    Cl82707  11.000   1.050   6.927  0.1670  0.0040 -0.2038
  600MOL0     C82708  10.817   1.697   6.270 -0.5907 -0.3563  0.9261
  600MOL0     C82709  10.688   1.725   6.225 -0.4688 -0.3919  0.6986
  600MOL0     O82710  10.388   1.741   6.153  0.1432 -0.3864 -0.1644
  600MOL0     C82711  10.198   1.847   6.002  0.8272 -0.9656 -0.0029
  600MOL0     C82712  10.106   1.904   5.916 -0.3048  0.2720  0.6070
  600MOL0     N82713   9.439   2.351   5.665  0.2716 -0.3782 -0.5738
  600MOL0     N82714   9.342   2.281   5.628  0.0103  0.4101  0.1643
  600MOL0     C82715   8.867   1.605   6.275  1.0236  0.2748  0.4160
  600MOL0     C82716   8.936   1.600   6.393  0.2170  0.0307 -0.3139
  600MOL0     C82717   9.307   1.493   6.673  0.7845  0.4068 -0.2851
  600MOL0     C82718   9.428   1.431   6.693 -0.1849  0.8863  0.4637
  600MOL0     C82719   9.527   1.480   6.781 -0.3950 -0.2763 -0.1824
  600MOL0     C82720   9.518   1.600   6.845  0.3738  0.1944 -0.5043
  600MOL0     O82721   9.625   1.643   6.922 -0.0956 -0.2386 -0.0222
  600MOL0     C82722   9.654   1.570   7.041 -0.0410  0.5250 -0.6682
  600MOL0     C82723   9.768   1.643   7.115  0.0256  0.4613 -0.8510
  600MOL0     C82724   9.779   1.594   7.264  0.4642 -0.2471  0.0732
  600MOL0     C82725   9.900   1.660   7.337  0.1509 -0.0318  0.6748
  600MOL0     C82726  10.025   1.618   7.274  0.6011  0.0827  0.7515
  600MOL0     C82727  10.134   1.594   7.225  0.2191 -0.1780  0.0795
  600MOL0     C82728   9.393   1.662   6.834  0.6114 -0.4245  0.0782
  600MOL0     C82729   9.287   1.614   6.750 -0.6663  0.1583 -0.4711
  600MOL0     C82730   9.159   1.688   6.755  1.1641 -0.3890 -0.2003
  600MOL0     H82731   9.093   1.307   6.331  0.0357 -1.0201  2.7851
  600MOL0     H82732   8.980   1.340   6.119  4.7933 -0.3490  0.9267
  600MOL0     H82733   8.765   1.713   6.003 -0.6943  0.7570 -2.4576
  600MOL0     H82734   8.772   1.599   5.867  3.0492 -2.8191 -1.1510
  600MOL0     H82735   9.028   1.708   5.991  1.5184 -1.4617 -0.4363
  600MOL0     H82736   9.007   1.556   5.900 -0.5394 -0.3016 -4.5769
  600MOL0     H82737   8.902   1.651   5.717  1.5601 -1.8301  0.0285
  600MOL0     H82738   8.926   1.822   5.768 -0.6153 -0.3242  1.0056
  600MOL0     H82739   9.174   1.768   5.788  1.2151 -2.7233  1.8301
  600MOL0     H82740   9.131   1.621   5.699 -1.4321  0.1693 -0.4876
  600MOL0     H82741   9.066   1.910   5.615  2.3411  0.6047  0.7386
  600MOL0     H82742   9.023   1.772   5.514 -0.4344  1.1786 -1.0947
  600MOL0     H82743   9.279   1.724   5.507 -0.9172 -0.6584  0.9471
  600MOL0     H82744   9.205   1.829   5.397  0.1334 -0.4631  0.2120
  600MOL0     H82745   9.430   1.900   5.514  0.3754  3.7040  0.0134
  600MOL0     H82746   9.333   1.926   5.668 -2.3764  2.1440  0.4654
  600MOL0     H82747   9.290   2.074   5.406  1.7624  2.4379  0.7614
  600MOL0     H82748   9.195   2.072   5.555 -0.2426 -1.6328 -0.1427
  600MOL0     H82749   9.585   2.135   5.462 -0.5524  1.4226 -1.8170
  600MOL0     H82750   9.670   2.453   5.667  1.7960 -1.3282  3.6403
  600MOL0     H82751   9.729   2.375   5.523 -0.3188  0.2625  1.0184
  600MOL0     H82752   9.872   2.331   5.698 -0.6689  2.0252 -5.0322
  600MOL0     H82753   9.737   2.282   5.812  0.1352  0.1982  0.2044
  600MOL0     H82754   9.711   2.076   5.670  0.7996 -2.0575  0.7653
  600MOL0     H82755   9.848   2.119   5.570 -0.8968  0.2045  0.1982
  600MOL0     H82756   9.868   2.072   5.872 -1.6152  0.3308 -0.9209
  600MOL0     H82757   9.868   1.943   5.761 -0.8337 -1.2927  2.8477
  600MOL0     H82758  10.260   2.184   5.826 -1.6219  0.3333  1.6895
  600MOL0     H82759  10.446   2.215   5.916  1.3436  1.6802  2.2641
  600MOL0     H82760  10.557   2.084   5.939  0.0824 -0.8455 -1.3662
  600MOL0     H82761  10.452   2.138   6.078 -2.2917 -0.4379 -0.4764
  600MOL0     H82762  10.767   2.003   6.056 -0.4364  2.0029  1.4077
  600MOL0     H82763  11.004   1.921   6.121  1.6719 -4.3853 -1.6342
  600MOL0     H82764  11.008   1.571   6.411 -1.9777  2.5631 -1.0519
  600MOL0     H82765  11.080   1.528   6.253  0.7525 -1.2106  0.3176
  600MOL0     H82766  11.287   1.550   6.330 -0.3606 -0.1917 -0.3523
  600MOL0     H82767  11.246   1.693   6.429  2.1565 -0.1643  0.5469
  600MOL0     H82768  11.142   1.569   6.605  1.6123  0.9656  0.4802
  600MOL0     H82769  11.302   1.506   6.580  0.6672  3.8105 -1.9440
  600MOL0     H82770  11.162   1.334   6.410  0.1596 -3.3140  1.4338
  600MOL0     H82771  11.042   1.363   6.533 -0.0123 -1.9116 -2.4804
  600MOL0     H82772  11.165   1.158   6.581  1.5263 -2.0107  1.5126
  600MOL0     H82773  11.316   1.246   6.590  0.4140 -0.3351  0.8420
  600MOL0     H82774  11.055   1.260   6.745 -0.5383 -1.1607 -2.3517
  600MOL0     H82775  11.189   1.381   6.785 -0.3197 -0.3871 -0.0931
  600MOL0     H82776  11.222   1.235   6.943  1.4922  1.4584 -0.5484
  600MOL0     H82777  11.330   1.171   6.832 -0.2015  0.3540  0.1575
  600MOL0     H82778  11.233   0.981   6.881  1.4520  2.1190  1.4558
  600MOL0     H82779  11.131   1.008   6.735 -0.5637 -1.1791 -0.1268
  600MOL0     H82780  10.825   1.614   6.339 -0.8214  0.3372  1.7953
  600MOL0     H82781  10.607   1.654   6.235  1.0444 -2.5010 -1.1211
  600MOL0     H82782  10.168   1.748   6.035 -0.7374 -0.9820 -1.3345
  600MOL0     H82783  10.020   1.854   5.872 -0.2143  2.2170 -2.0024
  600MOL0     H82784   8.790   1.681   6.267 -0.5121 -1.0310  1.8115
  600MOL0     H82785   8.906   1.671   6.470 -1.0793 -0.2772 -0.5246
  600MOL0     H82786   9.454   1.345   6.633 -5.4541 -1.5438  1.1012
  600MOL0     H82787   9.627   1.440   6.793 -0.4287 -0.2929  0.0532
  600MOL0     H82788   9.566   1.568   7.105  0.2479 -0.9355 -0.2851
  600MOL0     H82789   9.684   1.467   7.018  1.1464  0.8778 -0.7998
  600MOL0     H82790   9.755   1.750   7.100  0.8979  1.0704  2.2006
  600MOL0     H82791   9.864   1.626   7.064 -2.0830 -1.8677 -4.5077
  600MOL0     H82792   9.689   1.622   7.318  1.1033  0.1613  0.9483
  600MOL0     H82793   9.781   1.484   7.263  0.0507 -0.2584 -0.4701
  600MOL0     H82794   9.885   1.640   7.444 -0.3689  0.1176  0.6304
  600MOL0     H82795   9.893   1.768   7.320  1.4771 -0.0881 -0.3901
  600MOL0     H82796  10.236   1.584   7.193  1.0413 -0.0388  2.4525
  600MOL0     H82797   9.389   1.757   6.886 -0.0965  0.7117 -1.8952
  600MOL0     H82798   9.164   1.739   6.851 -0.0854  0.4819 -0.5851
  600MOL0     H82799   9.158   1.747   6.663  0.7162 -0.6838 -0.3882
  600MOL0     H82800   9.067   1.630   6.756  0.3140  0.7905 -2.5208
  601MOL0     O82801   4.560   5.240   7.151  0.4001 -0.4720  0.8163
  601MOL0     C82802   4.579   5.333   7.222  0.4907 -1.3643  0.2096
  601MOL0     O82803   4.476   5.422   7.250 -0.4846  0.0857  0.0679
  601MOL0     C82804   4.345   5.392   7.234  1.0153  0.3771 -0.7483
  601MOL0     C82805   4.284   5.346   7.118 -0.0643 -0.1792  0.0121
  601MOL0     C82806   4.148   5.331   7.111  0.2971 -0.0881  0.2305
  601MOL0     C82807   4.065   5.361   7.223 -0.5399 -0.6885 -0.1259
  601MOL0     O82808   3.929   5.335   7.223  0.2280 -0.3410  0.1431
  601MOL0     C82809   3.911   5.192   7.233 -0.9253 -0.0433  0.3997
  601MOL0     C82810   3.773   5.151   7.186  0.0832  0.2370 -0.3134
  601MOL0     C82811   3.775   5.166   7.032 -0.5711 -0.4832 -0.0748
  601MOL0     C82812   3.844   5.046   6.960 -0.0025  0.0437  0.5080
  601MOL0     C82813   3.863   5.079   6.812 -0.0894 -0.0893  0.4501
  601MOL0     C82814   3.981   5.180   6.799 -0.0842  0.2095  0.1499
  601MOL0     C82815   4.013   5.201   6.651  0.0757 -0.2219  0.0185
  601MOL0     C82816   4.113   5.312   6.638  0.1070  0.0224 -0.4907
  601MOL0     N82817   4.249   5.251   6.619  0.3316 -1.2150 -0.8172
  601MOL0     C82818   4.344   5.223   6.718  0.3241 -0.6769  0.2800
  601MOL0     C82819   4.463   5.196   6.647  1.3199  0.4004 -0.2624
  601MOL0     C82820   4.590   5.151   6.705 -0.4531 -0.3473  0.4376
  601MOL0     C82821   4.687   5.132   6.588  0.2898 -0.1758 -0.3130
  601MOL0     C82822   4.824   5.105   6.648 -0.5865 -0.0676  0.2836
  601MOL0     C82823   4.895   5.236   6.678  0.0968 -0.0341 -0.3962
  601MOL0     O82824   5.031   5.203   6.712 -0.1979 -0.4958  0.3796
  601MOL0     C82825   5.122   5.307   6.737 -0.7945  0.0610 -0.7188
  601MOL0     C82826   5.259   5.290   6.689 -0.7320 -0.4757  0.7401
  601MOL0     C82827   5.356   5.391   6.692  0.1375  0.1969 -1.3327
  601MOL0     C82828   5.481   5.346   6.625 -0.0837 -0.2369  0.1290
  601MOL0     C82829   5.322   5.513   6.769 -0.4778  0.3106  0.2897
  601MOL0     C82830   5.413   5.628   6.784  0.3646 -0.4157 -0.1353
  601MOL0     O82831   5.361   5.748   6.812  0.8254  0.9275 -0.2131
  601MOL0     C82832   5.434   5.861   6.808  0.5434  0.3988  0.6182
  601MOL0     C82833   5.571   5.880   6.833 -0.1027 -0.6218  0.6783
  601MOL0     C82834   5.625   6.009   6.819 -0.3988  0.2261 -0.5329
  601MOL0     C82835   5.552   6.114   6.777 -0.7685  0.9125  0.6768
  601MOL0     O82836   5.604   6.247   6.758  0.0609  0.4406 -0.6398
  601MOL0     C82837   5.535   6.344   6.840  0.6125 -0.0450  0.0239
  601MOL0     C82838   5.591   6.329   6.985 -0.9645 -0.8396 -0.3350
  601MOL0     C82839   5.556   6.445   7.080 -0.3400 -0.7075 -0.8606
  601MOL0     C82840   5.403   6.476   7.069  0.1601  0.4992  0.3054
  601MOL0     C82841   5.352   6.577   7.171  0.9459 -0.3981 -0.0180
  601MOL0     C82842   5.400   6.714   7.138  0.2586 -0.5523  0.3386
  601MOL0     C82843   5.345   6.817   7.245  0.2273  0.4980  0.1643
  601MOL0     C82844   5.386   6.779   7.383 -0.3760 -0.4719 -0.6328
  601MOL0    Cl82845   5.567   6.764   7.389 -0.0732  0.5076  0.0128
  601MOL0     C82846   5.420   6.096   6.741  0.1705 -0.6462  0.7156
  601MOL0     C82847   5.357   5.973   6.762 -0.4539  0.0120 -1.3612
  601MOL0     O82848   5.528   5.595   6.787 -0.5857  0.1641 -0.2609
  601MOL0     C82849   5.182   5.534   6.806 -0.4009  0.2825  0.5339
  601MOL0     C82850   5.091   5.427   6.806 -0.5350  0.6812 -0.3586
  601MOL0     N82851   4.432   5.193   6.512  0.7504  0.2793 -0.6009
  601MOL0     N82852   4.305   5.238   6.498 -0.5582 -0.9195 -0.1282
  601MOL0     C82853   4.122   5.416   7.336 -0.8655 -0.4172  0.2648
  601MOL0     C82854   4.257   5.439   7.341 -1.1349  0.0250  0.6511
  601MOL0     C82855   4.699   5.359   7.305  0.0409 -0.2663 -0.2841
  601MOL0     C82856   4.679   5.394   7.442 -0.0329 -0.4931 -0.1651
  601MOL0     C82857   4.786   5.435   7.518 -0.2334 -0.7009  0.2823
  601MOL0     C82858   4.912   5.410   7.474  0.5712 -0.7083 -0.3167
  601MOL0     O82859   5.011   5.441   7.561  0.1901 -0.0150  0.6978
  601MOL0     C82860   5.147   5.421   7.522  0.0087  0.2210 -0.6639
  601MOL0     C82861   5.204   5.523   7.423 -0.0957  0.4524 -0.0909
  601MOL0     C82862   5.225   5.659   7.486 -0.3518 -0.6064  0.2581
  601MOL0     C82863   5.320   5.748   7.411 -0.7234 -0.7376  0.1148
  601MOL0     C82864   5.266   5.786   7.285  0.1074  0.5750  0.1141
  601MOL0     C82865   5.228   5.814   7.178  1.1270 -0.0925  0.5177
  601MOL0     C82866   4.933   5.365   7.345 -0.0797  0.6429 -0.6001
  601MOL0     C82867   4.828   5.347   7.255  0.3650 -0.1969 -0.2657
  601MOL0     C82868   4.858   5.332   7.105  0.1020 -0.1729  0.2004
  601MOL0     H82869   4.332   5.338   7.021 -0.2016  1.6196 -0.2374
  601MOL0     H82870   4.110   5.293   7.016  0.4282 -0.4030  0.3021
  601MOL0     H82871   3.925   5.165   7.339 -1.7118  1.8231  1.0233
  601MOL0     H82872   3.982   5.146   7.164 -0.3457  2.0101 -0.4581
  601MOL0     H82873   3.753   5.045   7.204  0.5633  0.4009  1.3241
  601MOL0     H82874   3.697   5.213   7.233  0.5786  0.8870 -0.3607
  601MOL0     H82875   3.670   5.157   7.001 -0.7593 -0.5435  0.5708
  601MOL0     H82876   3.807   5.268   7.011 -1.6875 -0.2978 -0.9361
  601MOL0     H82877   3.936   5.013   7.008 -1.2274 -2.8475  1.0736
  601MOL0     H82878   3.783   4.957   6.980 -0.5454  0.6687  1.7409
  601MOL0     H82879   3.772   5.122   6.770 -1.6221 -0.9428  2.6992
  601MOL0     H82880   3.899   4.993   6.754  3.3943 -1.4201  4.1058
  601MOL0     H82881   3.956   5.275   6.847 -1.2065 -1.0131  2.1417
  601MOL0     H82882   4.073   5.132   6.837 -0.6873 -1.8268 -0.8355
  601MOL0     H82883   3.924   5.229   6.595 -0.8386 -3.1126 -0.1416
  601MOL0     H82884   4.058   5.114   6.600 -4.1295 -3.6421  1.5091
  601MOL0     H82885   4.091   5.363   6.544 -0.3978  0.7077 -0.0094
  601MOL0     H82886   4.100   5.377   6.726  1.3090 -0.4515  0.0712
  601MOL0     H82887   4.334   5.244   6.824  1.9019  3.2367 -0.1713
  601MOL0     H82888   4.591   5.068   6.776  0.2726 -1.7962 -1.2027
  601MOL0     H82889   4.613   5.242   6.763  0.7094  0.9446 -1.9046
  601MOL0     H82890   4.661   5.049   6.521  1.7151  1.3529 -2.9129
  601MOL0     H82891   4.698   5.227   6.535 -1.1589 -0.2730 -0.8397
  601MOL0     H82892   4.817   5.048   6.741  0.2705  1.0867  1.0659
  601MOL0     H82893   4.883   5.061   6.566  3.6215  4.2375  0.5920
  601MOL0     H82894   4.892   5.294   6.586 -0.1230  0.2929 -0.1845
  601MOL0     H82895   4.842   5.286   6.760  1.1044 -0.1705  0.3600
  601MOL0     H82896   5.274   5.201   6.628  1.2460  2.8386 -4.2666
  601MOL0     H82897   5.562   5.356   6.697  0.3655 -0.7708 -0.2863
  601MOL0     H82898   5.490   5.397   6.529 -0.2739  0.4445  0.4731
  601MOL0     H82899   5.481   5.239   6.598  0.6578  0.5285 -3.4366
  601MOL0     H82900   5.634   5.799   6.869  0.1763 -1.2460 -1.1126
  601MOL0     H82901   5.727   6.021   6.855 -1.3822 -0.5053  2.8662
  601MOL0     H82902   5.555   6.441   6.794  2.2975  0.0352  0.8299
  601MOL0     H82903   5.427   6.333   6.840  0.2328  2.8019 -1.1081
  601MOL0     H82904   5.557   6.230   7.018  2.8683 -2.2125 -0.0262
  601MOL0     H82905   5.700   6.322   6.984 -0.4860  1.9162  4.3735
  601MOL0     H82906   5.617   6.530   7.050 -1.2600 -0.6239 -2.6140
  601MOL0     H82907   5.577   6.428   7.186 -0.8026 -0.1363 -0.6752
  601MOL0     H82908   5.351   6.382   7.087 -2.5771  1.8874  0.2811
  601MOL0     H82909   5.377   6.507   6.967  2.1096 -0.4161 -0.5154
  601MOL0     H82910   5.243   6.576   7.165  0.9443  0.3953 -0.2181
  601MOL0     H82911   5.381   6.544   7.271  1.3599  1.4696  0.5181
  601MOL0     H82912   5.372   6.737   7.035  1.1358 -0.9026  0.0071
  601MOL0     H82913   5.509   6.721   7.134  0.2512  4.6260  2.2399
  601MOL0     H82914   5.238   6.808   7.227  0.2275  2.9364 -1.5999
  601MOL0     H82915   5.378   6.919   7.221  0.7766  0.2190 -0.2980
  601MOL0     H82916   5.337   6.686   7.414 -0.8076 -0.7999 -2.1864
  601MOL0     H82917   5.354   6.862   7.445  0.7842  1.0289 -1.9530
  601MOL0     H82918   5.359   6.173   6.694  0.4856 -0.0714  1.2159
  601MOL0     H82919   5.253   5.960   6.735 -1.1171  1.0731  0.5117
  601MOL0     H82920   5.161   5.624   6.862 -0.8386 -1.3210  3.1254
  601MOL0     H82921   4.997   5.442   6.859  0.2778 -1.5388  1.8970
  601MOL0     H82922   4.066   5.453   7.422  1.7983 -0.2375  2.0680
  601MOL0     H82923   4.292   5.499   7.425 -1.7808  0.9891  0.2504
  601MOL0     H82924   4.580   5.379   7.485 -0.1656  0.9935  0.0916
  601MOL0     H82925   4.772   5.458   7.623 -3.6371 -2.0958  0.2753
  601MOL0     H82926   5.200   5.448   7.613 -1.6654  3.4233 -0.5055
  601MOL0     H82927   5.159   5.315   7.499 -0.0394  0.1756 -0.4795
  601MOL0     H82928   5.136   5.533   7.338  1.3901 -0.3971 -1.4468
  601MOL0     H82929   5.299   5.478   7.392  0.2460  1.0348  0.1078
  601MOL0     H82930   5.126   5.705   7.491 -0.7128 -1.4789  1.9573
  601MOL0     H82931   5.268   5.649   7.586  0.4724  2.7679  0.3419
  601MOL0     H82932   5.423   5.711   7.405  0.3318  2.0896 -0.7529
  601MOL0     H82933   5.336   5.838   7.471  0.2134  0.8079 -2.2780
  601MOL0     H82934   5.195   5.849   7.082 -2.1845  3.1135  2.5549
  601MOL0     H82935   5.031   5.338   7.309  1.8846  3.0948  2.3590
  601MOL0     H82936   4.914   5.241   7.083 -0.5138 -0.2265 -1.2115
  601MOL0     H82937   4.764   5.331   7.049 -0.3587  0.0259  0.9501
  601MOL0     H82938   4.919   5.418   7.076 -1.5190  0.5274 -1.2913
  602MOL0     O82939  10.517   7.732   0.790 -0.5770  0.0325 -0.2748
  602MOL0     C82940  10.539   7.660   0.884  0.5841 -0.2323  0.1814
  602MOL0     O82941  10.655   7.641   0.945 -0.8523  0.3362  0.3888
  602MOL0     C82942  10.770   7.677   0.872 -0.7031  0.2857 -0.7790
  602MOL0     C82943  10.817   7.811   0.888  0.2357  0.7127 -0.0414
  602MOL0     C82944  10.943   7.840   0.841 -0.1670  0.2855 -0.5550
  602MOL0     C82945  11.017   7.743   0.780  1.0746  0.9405 -0.0579
  602MOL0     O82946  11.138   7.779   0.727 -0.1002  0.1504  0.8175
  602MOL0     C82947  11.185   7.907   0.688 -0.0935 -0.9349  0.6343
  602MOL0     C82948  11.306   7.892   0.599  0.3358  0.2215 -0.0613
  602MOL0     C82949  11.421   8.003   0.613 -0.7532 -0.4261  0.5373
  602MOL0     C82950  11.554   7.943   0.565  0.6414  0.3592 -0.0949
  602MOL0     C82951  11.667   8.044   0.582  0.4822 -1.0905  0.0418
  602MOL0     C82952  11.799   7.970   0.557  0.8491 -0.5462 -0.0518
  602MOL0     C82953  11.921   8.066   0.571 -0.9579 -0.0066  0.5709
  602MOL0     C82954  12.037   8.022   0.474  0.2721  0.3906  0.1205
  602MOL0     N82955  12.168   8.079   0.514  0.0921 -1.2677 -0.3795
  602MOL0     C82956  12.289   8.017   0.483 -0.1147 -0.5466  0.7121
  602MOL0     C82957  12.372   8.055   0.582 -1.0655 -0.1592  0.3422
  602MOL0     C82958  12.505   7.990   0.622  0.3748  0.1326 -0.3342
  602MOL0     C82959  12.627   8.070   0.577  0.4096 -0.7250  0.1729
  602MOL0     C82960  12.630   8.225   0.620 -0.2410  0.0508 -0.7034
  602MOL0     C82961  12.635   8.232   0.769  0.2139 -0.4375  0.0520
  602MOL0     O82962  12.691   8.361   0.794 -0.4400  0.1345 -0.6621
  602MOL0     C82963  12.810   8.392   0.848  0.4760  0.0577  0.2521
  602MOL0     C82964  12.818   8.520   0.911  0.1881 -0.0991 -0.7245
  602MOL0     C82965  12.937   8.563   0.965  0.2223 -1.0101  0.2368
  602MOL0     C82966  12.938   8.697   1.035 -0.6308 -0.2736  0.3106
  602MOL0     C82967  13.056   8.477   0.967  1.3418  0.3656 -1.2660
  602MOL0     C82968  13.191   8.519   1.020 -0.5864 -1.0640  0.2222
  602MOL0     O82969  13.207   8.643   1.075  0.1987  0.1789 -0.1902
  602MOL0     C82970  13.325   8.659   1.128  0.3634 -0.6085 -0.9389
  602MOL0     C82971  13.349   8.631   1.261  0.0048  0.9540 -0.6296
  602MOL0     C82972  13.464   8.669   1.323  0.9669 -0.8698  0.1733
  602MOL0     C82973  13.569   8.737   1.249 -0.6143  0.3058  0.6912
  602MOL0     O82974  13.692   8.767   1.296 -1.0040  0.7770  0.0246
  602MOL0     C82975  13.714   8.748   1.444 -0.8748  0.0381  0.1456
  602MOL0     C82976  13.865   8.757   1.472  0.1669  0.3000  0.0046
  602MOL0     C82977  13.911   8.899   1.458 -0.3773 -0.1615  0.2472
  602MOL0     C82978  14.069   8.893   1.465  0.3350 -0.0152 -0.1269
  602MOL0     C82979  14.108   8.866   1.621 -1.0621 -0.5678  0.1147
  602MOL0     C82980  14.262   8.866   1.656 -0.6640 -0.1806  0.4434
  602MOL0     C82981  14.332   8.990   1.624 -0.0700 -0.2116  0.1649
  602MOL0     C82982  14.487   8.972   1.628  0.7112 -0.0111  0.2650
  602MOL0    Cl82983  14.559   8.914   1.474 -0.1843  0.4607  0.1770
  602MOL0     C82984  13.536   8.771   1.124 -0.5992  0.0223  0.5966
  602MOL0     C82985  13.418   8.734   1.055 -0.4078 -0.4506 -0.4459
  602MOL0     O82986  13.284   8.438   1.000 -0.1458 -0.5070  0.0369
  602MOL0     C82987  13.034   8.349   0.916  0.3972  0.0490  0.2939
  602MOL0     C82988  12.919   8.308   0.849 -0.9016  0.7319 -1.1129
  602MOL0     N82989  12.321   8.164   0.646  0.1058 -1.0316  0.5211
  602MOL0     N82990  12.199   8.176   0.603  0.4052 -0.1098  0.0469
  602MOL0     C82991  10.978   7.609   0.763 -0.2739 -0.1666  0.1440
  602MOL0     C82992  10.853   7.581   0.819 -0.0785 -0.5914  0.4096
  602MOL0     C82993  10.418   7.597   0.941  0.7287 -0.0899 -0.0095
  602MOL0     C82994  10.429   7.519   1.061 -0.5322  0.6710  0.0013
  602MOL0     C82995  10.314   7.462   1.121 -0.2904 -0.1026  0.4675
  602MOL0     C82996  10.184   7.477   1.070 -0.3177  1.0191  1.0257
  602MOL0     O82997  10.069   7.421   1.116 -0.3655  0.4815  0.0151
  602MOL0     C82998  10.078   7.296   1.186  0.6553 -0.4392 -0.5267
  602MOL0     C82999  10.143   7.176   1.109  0.2594  1.0244  0.1043
  602MOL0     C83000  10.038   7.124   1.011  0.3301 -0.0118  0.4447
  602MOL0     C83001  10.104   7.010   0.943  0.2251 -0.9123  0.3091
  602MOL0     C83002  10.016   6.961   0.838 -0.2069  0.1146 -0.4841
  602MOL0     C83003   9.942   6.923   0.747  0.5950  0.7144 -1.1337
  602MOL0     C83004  10.177   7.547   0.948  0.3098  0.9498  0.0533
  602MOL0     C83005  10.288   7.606   0.886 -0.1012 -1.0061  0.5373
  602MOL0     C83006  10.241   7.685   0.766  0.2469 -0.7626 -0.4768
  602MOL0     H83007  10.757   7.883   0.944  0.8734  1.5428 -0.3970
  602MOL0     H83008  11.005   7.927   0.858 -0.6766  0.1977  2.1799
  602MOL0     H83009  11.211   7.970   0.774 -0.2901 -1.5052  1.1214
  602MOL0     H83010  11.106   7.969   0.645  0.2060  0.7457  2.3808
  602MOL0     H83011  11.350   7.795   0.622  1.2175  0.8351  0.9534
  602MOL0     H83012  11.272   7.889   0.496  2.4666 -2.1434 -0.7940
  602MOL0     H83013  11.409   8.086   0.542  2.4035  0.6976  1.1471
  602MOL0     H83014  11.431   8.034   0.717  1.8599  0.3246  0.1331
  602MOL0     H83015  11.572   7.856   0.628 -0.6224 -2.3512 -3.1256
  602MOL0     H83016  11.536   7.922   0.459 -0.0524  2.7387 -0.4988
  602MOL0     H83017  11.656   8.090   0.681  1.2577 -0.5051 -0.1387
  602MOL0     H83018  11.654   8.125   0.509  0.5948  1.5413  2.7588
  602MOL0     H83019  11.808   7.893   0.634 -1.6417 -0.2367  0.6571
  602MOL0     H83020  11.798   7.924   0.458  1.9152  0.2182 -0.4361
  602MOL0     H83021  11.948   8.057   0.676 -1.1283 -0.5838  0.5726
  602MOL0     H83022  11.895   8.171   0.561  1.1781  0.7512  2.2697
  602MOL0     H83023  12.051   7.915   0.459 -0.5559  0.5221 -1.9429
  602MOL0     H83024  12.009   8.060   0.375 -3.1462 -2.7913 -0.3134
  602MOL0     H83025  12.302   7.920   0.436  4.4091  0.5145 -0.8162
  602MOL0     H83026  12.509   7.882   0.600 -0.6694 -0.7596  3.1603
  602MOL0     H83027  12.502   7.995   0.732  0.2549  2.6404 -0.3960
  602MOL0     H83028  12.717   8.023   0.618  0.3592  0.8924  2.3190
  602MOL0     H83029  12.637   8.065   0.468  1.8032  0.5939  0.1963
  602MOL0     H83030  12.724   8.272   0.589  0.2429  0.9948  1.9139
  602MOL0     H83031  12.552   8.276   0.564 -1.2006 -0.4915  0.1146
  602MOL0     H83032  12.534   8.224   0.810  1.1439 -0.2739  2.5523
  602MOL0     H83033  12.694   8.147   0.804  2.4196  2.1625  3.3786
  602MOL0     H83034  12.740   8.596   0.911  1.5399  1.3958  1.3057
  602MOL0     H83035  13.011   8.766   0.991  1.7501 -2.2238  1.0367
  602MOL0     H83036  12.963   8.682   1.141 -0.2366 -4.0417 -0.2060
  602MOL0     H83037  12.841   8.749   1.037 -1.7972 -2.0838 -2.8150
  602MOL0     H83038  13.263   8.587   1.312 -1.0451  1.0897 -2.2247
  602MOL0     H83039  13.474   8.649   1.430 -0.5285 -0.1213  0.4804
  602MOL0     H83040  13.665   8.833   1.493 -1.3103 -1.2920  2.1528
  602MOL0     H83041  13.683   8.653   1.488  0.2561  0.4271  1.9031
  602MOL0     H83042  13.889   8.727   1.574 -0.6162 -2.9405 -0.6453
  602MOL0     H83043  13.907   8.684   1.402 -1.4086 -0.6982  0.0536
  602MOL0     H83044  13.877   8.962   1.541 -3.0437 -0.0854 -0.8161
  602MOL0     H83045  13.884   8.935   1.358  0.7317 -2.1871 -0.8529
  602MOL0     H83046  14.091   8.994   1.428 -0.5614 -0.9495 -3.6205
  602MOL0     H83047  14.116   8.817   1.403 -0.7534 -1.5671  0.8841
  602MOL0     H83048  14.047   8.935   1.680  0.5869  2.3137 -1.3474
  602MOL0     H83049  14.080   8.766   1.653 -0.3584 -0.7346  0.2340
  602MOL0     H83050  14.317   8.781   1.613  1.7308 -0.4005  3.5979
  602MOL0     H83051  14.258   8.847   1.764 -0.6816 -0.5497  0.3806
  602MOL0     H83052  14.308   9.075   1.688 -0.7290  0.1624 -0.5668
  602MOL0     H83053  14.314   9.016   1.520 -1.5164 -2.7083 -0.2852
  602MOL0     H83054  14.524   8.920   1.716 -0.0693  1.1579  1.3253
  602MOL0     H83055  14.524   9.075   1.635 -0.3737  0.3426  1.0787
  602MOL0     H83056  13.611   8.829   1.070  1.9715 -0.1461  3.6804
  602MOL0     H83057  13.406   8.770   0.954  1.2840  0.0526 -0.5024
  602MOL0     H83058  13.118   8.281   0.918  0.8999  0.6861  1.1608
  602MOL0     H83059  12.914   8.203   0.821 -1.7048 -0.1210  1.8942
  602MOL0     H83060  11.049   7.538   0.721  2.2003  2.0663  0.2866
  602MOL0     H83061  10.821   7.478   0.828 -0.8937 -0.3119  0.8364
  602MOL0     H83062  10.519   7.516   1.122 -0.5437  1.0074  0.0362
  602MOL0     H83063  10.326   7.393   1.203  0.1904 -2.6194 -1.6127
  602MOL0     H83064  10.133   7.306   1.280 -0.0693 -2.4372  0.1568
  602MOL0     H83065   9.975   7.275   1.215  0.4472  0.2946 -0.7057
  602MOL0     H83066  10.156   7.090   1.175 -3.1696  0.1863 -0.1041
  602MOL0     H83067  10.234   7.217   1.065  0.1887  3.2120  1.8416
  602MOL0     H83068   9.942   7.091   1.053  0.2926  0.2231  0.5459
  602MOL0     H83069   9.998   7.200   0.944 -2.2906  0.2528  2.1374
  602MOL0     H83070  10.125   6.941   1.025 -1.8142 -2.4282 -0.3612
  602MOL0     H83071  10.200   7.046   0.907  1.7792 -4.5504  0.3421
  602MOL0     H83072   9.875   6.884   0.674  0.8877 -0.9793 -0.5418
  602MOL0     H83073  10.075   7.545   0.912 -0.1116 -2.4204  1.1328
  602MOL0     H83074  10.135   7.685   0.741  0.3539  2.4380 -1.3903
  602MOL0     H83075  10.257   7.790   0.791 -1.3749 -0.4189 -0.8008
  602MOL0     H83076  10.302   7.666   0.677 -0.6603 -0.6397 -1.1333
  603MOL0     O83077   6.682   7.332   7.352 -0.4545  0.1411 -0.2406
  603MOL0     C83078   6.666   7.307   7.234 -0.3706  0.4966  1.1380
  603MOL0     O83079   6.764   7.277   7.148  0.0867  0.2313 -0.6155
  603MOL0     C83080   6.886   7.264   7.207 -0.0810 -0.7268 -0.3356
  603MOL0     C83081   6.934   7.136   7.237  0.0514 -0.6048 -0.4639
  603MOL0     C83082   7.054   7.118   7.308 -0.6115 -0.5936  0.6074
  603MOL0     C83083   7.147   7.220   7.323  0.3957  0.7969  0.1315
  603MOL0     O83084   7.269   7.193   7.381 -0.0063 -0.3235 -0.4247
  603MOL0     C83085   7.380   7.215   7.290 -0.6809  0.9633  0.0040
  603MOL0     C83086   7.411   7.098   7.200  0.0993  0.9195  0.3452
  603MOL0     C83087   7.521   7.126   7.096 -0.4820 -0.8548 -0.0960
  603MOL0     C83088   7.517   7.029   6.985  0.7551  0.6658  0.6971
  603MOL0     C83089   7.632   7.039   6.898 -0.3269  0.0077 -0.6093
  603MOL0     C83090   7.771   7.002   6.976  0.2347 -0.3539 -0.4596
  603MOL0     C83091   7.766   6.875   7.059  0.1860 -0.2086  0.5189
  603MOL0     C83092   7.773   6.747   6.989 -0.4808 -0.3723 -0.2920
  603MOL0     N83093   7.769   6.639   7.091 -0.3466  0.0741 -0.2764
  603MOL0     C83094   7.650   6.592   7.144  0.8928  0.1444  0.1156
  603MOL0     C83095   7.687   6.488   7.230 -0.4670 -0.0588 -0.9630
  603MOL0     C83096   7.599   6.386   7.291 -0.1650  0.1850  0.5151
  603MOL0     C83097   7.449   6.398   7.257 -0.0089 -0.3996  0.3047
  603MOL0     C83098   7.377   6.277   7.295  0.3930 -0.3401 -0.1627
  603MOL0     C83099   7.223   6.296   7.266 -0.2849  0.2421 -0.0481
  603MOL0     O83100   7.160   6.167   7.279  0.6006 -0.0827 -0.5275
  603MOL0     C83101   7.023   6.159   7.278  0.7125 -1.1172  0.5534
  603MOL0     C83102   6.928   6.245   7.217 -0.9433 -0.0541  0.6316
  603MOL0     C83103   6.791   6.215   7.207  0.4667 -0.1890 -0.0806
  603MOL0     C83104   6.706   6.332   7.148 -0.2140 -0.0738 -0.3680
  603MOL0     C83105   6.740   6.097   7.267  0.2964 -0.1655 -0.0344
  603MOL0     C83106   6.603   6.077   7.285  0.7946  1.1777 -0.4989
  603MOL0     O83107   6.533   6.187   7.303  0.0790  0.4256 -0.4865
  603MOL0     C83108   6.393   6.189   7.304 -0.0556  0.0170  0.3352
  603MOL0     C83109   6.317   6.255   7.199 -1.0766  0.4435 -0.4624
  603MOL0     C83110   6.178   6.259   7.194 -0.1259 -0.3268  0.2031
  603MOL0     C83111   6.109   6.204   7.303  0.7582 -0.8333 -0.0979
  603MOL0     O83112   5.972   6.208   7.314  0.3110 -0.7959  0.3708
  603MOL0     C83113   5.897   6.296   7.223  0.5012 -1.0866 -0.7073
  603MOL0     C83114   5.911   6.449   7.252  0.5579  0.0359  0.0124
  603MOL0     C83115   5.853   6.477   7.384  0.6492  0.6568 -0.2748
  603MOL0     C83116   5.884   6.612   7.440  0.1888 -0.9320  0.6200
  603MOL0     C83117   6.030   6.650   7.472 -0.5496  0.3864 -1.0691
  603MOL0     C83118   6.036   6.773   7.562 -0.3910 -1.2255 -0.3115
  603MOL0     C83119   6.178   6.811   7.596 -1.0192  0.0513  0.0074
  603MOL0     C83120   6.214   6.814   7.742 -0.1160  0.6104 -0.2243
  603MOL0    Cl83121   6.268   6.660   7.812 -0.0036  0.1887 -0.0513
  603MOL0     C83122   6.176   6.127   7.397 -0.5009 -0.3971 -0.6050
  603MOL0     C83123   6.320   6.119   7.402 -0.0963  0.1737  0.0740
  603MOL0     O83124   6.556   5.962   7.277 -0.0921  0.1125 -0.2891
  603MOL0     C83125   6.840   6.006   7.320 -0.9279 -0.0389  0.0009
  603MOL0     C83126   6.980   6.032   7.325  0.1221  0.4538 -0.2218
  603MOL0     N83127   7.824   6.489   7.227 -0.1735 -0.0704 -0.3081
  603MOL0     N83128   7.877   6.574   7.148  0.4612 -0.5618  0.0983
  603MOL0     C83129   7.104   7.348   7.310  0.0658  0.2180 -0.1465
  603MOL0     C83130   6.976   7.372   7.245 -0.1621  0.7129  0.2460
  603MOL0     C83131   6.529   7.322   7.174  0.0590  0.7246 -1.4468
  603MOL0     C83132   6.508   7.282   7.039  0.0673 -0.6366 -0.2076
  603MOL0     C83133   6.381   7.312   6.972 -0.5544  1.2130  0.1693
  603MOL0     C83134   6.283   7.386   7.037  0.0352 -0.5988  0.5023
  603MOL0     O83135   6.160   7.425   6.977 -0.3572 -0.3403  1.4786
  603MOL0     C83136   6.048   7.376   7.052  0.3819 -0.4990  0.3511
  603MOL0     C83137   5.916   7.417   7.000  0.1484 -0.4285  0.1491
  603MOL0     C83138   5.908   7.577   6.972  0.1040  0.9183 -0.3073
  603MOL0     C83139   5.839   7.601   6.841 -0.4029  0.1847  1.3008
  603MOL0     C83140   5.697   7.554   6.837 -0.3771 -0.1110  0.4328
  603MOL0     C83141   5.583   7.517   6.823  0.4864 -0.0822  0.2443
  603MOL0     C83142   6.306   7.420   7.167 -0.3967 -0.7068 -0.3574
  603MOL0     C83143   6.424   7.392   7.235 -0.3372 -0.5460 -0.0256
  603MOL0     C83144   6.417   7.440   7.382 -0.0948  0.0035 -0.5180
  603MOL0     H83145   6.866   7.051   7.230  0.0824 -0.7178  0.4888
  603MOL0     H83146   7.086   7.023   7.350 -1.0917 -1.4534 -0.8749
  603MOL0     H83147   7.471   7.214   7.350 -0.3949 -2.9077 -0.2239
  603MOL0     H83148   7.372   7.309   7.235 -1.9020  1.3527  0.8005
  603MOL0     H83149   7.434   7.005   7.253  2.1035 -0.2387 -2.3016
  603MOL0     H83150   7.323   7.062   7.147  0.6833  0.6507 -0.4625
  603MOL0     H83151   7.512   7.230   7.063 -2.7445 -1.2693 -1.0019
  603MOL0     H83152   7.621   7.127   7.140  1.6198  1.0201 -4.2751
  603MOL0     H83153   7.504   6.925   7.015 -1.1611  0.5263 -0.4527
  603MOL0     H83154   7.426   7.043   6.926 -0.7168 -0.7000  2.5067
  603MOL0     H83155   7.646   7.139   6.855 -0.4315 -0.9410 -3.0352
  603MOL0     H83156   7.610   6.969   6.817 -0.3046 -0.9006  0.1572
  603MOL0     H83157   7.862   6.992   6.915  0.4820 -1.0547  0.0163
  603MOL0     H83158   7.791   7.086   7.044 -3.0208 -1.9821  2.8679
  603MOL0     H83159   7.684   6.872   7.131 -0.4047 -1.6298 -0.1752
  603MOL0     H83160   7.855   6.878   7.122  0.2354 -0.3132  0.4548
  603MOL0     H83161   7.685   6.746   6.925 -2.3481  1.4889  2.0593
  603MOL0     H83162   7.863   6.727   6.930  1.5550  0.9634  2.1495
  603MOL0     H83163   7.551   6.625   7.115  1.9464  1.8914 -1.8089
  603MOL0     H83164   7.627   6.382   7.396  1.4684 -0.9947  0.0683
  603MOL0     H83165   7.632   6.288   7.255 -1.0727  0.3225 -0.7938
  603MOL0     H83166   7.417   6.489   7.308 -0.2189  0.1947 -0.8622
  603MOL0     H83167   7.443   6.413   7.149  0.4329  0.4131  0.3918
  603MOL0     H83168   7.413   6.190   7.240  0.7022  0.0169 -0.5281
  603MOL0     H83169   7.392   6.250   7.400 -2.9016 -4.5655 -0.4742
  603MOL0     H83170   7.179   6.365   7.339  0.6712  2.1953 -1.2443
  603MOL0     H83171   7.200   6.341   7.169 -1.1071  1.6206  0.7534
  603MOL0     H83172   6.968   6.342   7.186  0.7885 -0.8927  0.0993
  603MOL0     H83173   6.619   6.291   7.096 -0.6171 -2.4409  1.9512
  603MOL0     H83174   6.763   6.386   7.071 -0.5037 -2.7309 -2.5808
  603MOL0     H83175   6.657   6.391   7.226  0.1624 -1.7619  1.2018
  603MOL0     H83176   6.378   6.295   7.118  0.0477 -0.6694 -0.2113
  603MOL0     H83177   6.136   6.305   7.105  1.2830  0.6074 -0.0140
  603MOL0     H83178   5.926   6.270   7.120  2.8279 -0.4788 -0.2524
  603MOL0     H83179   5.790   6.280   7.236  0.0473  2.8935  1.8832
  603MOL0     H83180   6.014   6.484   7.246  0.7312 -0.6738 -3.2203
  603MOL0     H83181   5.865   6.505   7.170  0.2528 -0.4220 -0.1333
  603MOL0     H83182   5.898   6.397   7.444  0.6094  0.0628 -1.0169
  603MOL0     H83183   5.745   6.457   7.391  0.5622  1.5202  1.2082
  603MOL0     H83184   5.829   6.612   7.534 -2.2533 -1.2492 -0.7437
  603MOL0     H83185   5.838   6.685   7.374 -1.4722  1.7076  4.3474
  603MOL0     H83186   6.057   6.561   7.530  0.2963  0.5281 -1.2399
  603MOL0     H83187   6.098   6.671   7.389 -0.3910  3.2636 -0.2880
  603MOL0     H83188   5.976   6.754   7.651  2.3161 -2.0077  1.4388
  603MOL0     H83189   5.983   6.858   7.516 -1.8542 -1.4288  0.8998
  603MOL0     H83190   6.202   6.905   7.544  1.5004 -1.3014 -1.4799
  603MOL0     H83191   6.233   6.730   7.547 -1.7538 -1.0462  0.9504
  603MOL0     H83192   6.138   6.862   7.805  1.2156  2.0703  0.3320
  603MOL0     H83193   6.300   6.878   7.762 -2.1629  3.9200 -1.1377
  603MOL0     H83194   6.120   6.081   7.477 -1.5032 -0.7860 -1.5115
  603MOL0     H83195   6.370   6.066   7.482 -1.3645 -2.4876 -0.7871
  603MOL0     H83196   6.813   5.911   7.367  1.1942  0.5216  2.6609
  603MOL0     H83197   7.039   5.952   7.366 -3.1215 -1.1667  1.6963
  603MOL0     H83198   7.164   7.433   7.340 -1.0607  0.4316  1.6413
  603MOL0     H83199   6.943   7.475   7.243 -2.3833  0.0489  0.1901
  603MOL0     H83200   6.580   7.225   6.981 -0.5351 -0.1038 -1.5123
  603MOL0     H83201   6.356   7.292   6.869 -2.8433  2.3667  0.4320
  603MOL0     H83202   6.053   7.267   7.042  1.8573 -0.3331 -1.2717
  603MOL0     H83203   6.054   7.391   7.160  1.3999  1.6216  0.0498
  603MOL0     H83204   5.835   7.387   7.066 -1.3079 -1.1080 -1.8799
  603MOL0     H83205   5.889   7.370   6.906  0.1953 -2.4961  1.1257
  603MOL0     H83206   5.846   7.604   7.058  0.9759 -1.3184  1.1241
  603MOL0     H83207   5.999   7.637   6.978  2.0015 -1.6277 -1.6786
  603MOL0     H83208   5.894   7.541   6.768 -0.0095 -1.9517  3.2268
  603MOL0     H83209   5.831   7.703   6.803 -0.0283  0.1371  1.0903
  603MOL0     H83210   5.481   7.486   6.807  0.6006  0.1497 -1.1021
  603MOL0     H83211   6.235   7.483   7.220  2.4904  1.2180  1.5526
  603MOL0     H83212   6.423   7.352   7.447 -0.0619  0.9686  0.8223
  603MOL0     H83213   6.506   7.501   7.402  0.4965 -1.3647  1.3754
  603MOL0     H83214   6.331   7.502   7.407  1.9434  2.5153  0.8621
  604MOL0     O83215   5.337   3.608   6.608  0.2682 -0.1624 -0.0263
  604MOL0     C83216   5.356   3.726   6.590  0.2494  0.5777 -0.4661
  604MOL0     O83217   5.462   3.783   6.515  0.6333 -0.0509 -0.7951
  604MOL0     C83218   5.573   3.707   6.495  0.3366  0.0098 -0.8474
  604MOL0     C83219   5.672   3.703   6.590  0.4379  0.0023 -1.0004
  604MOL0     C83220   5.790   3.634   6.566 -0.1075  0.3894  0.0925
  604MOL0     C83221   5.803   3.562   6.444  0.2329 -0.0631  0.2046
  604MOL0     O83222   5.924   3.496   6.435  0.5111  0.6834 -0.0401
  604MOL0     C83223   5.944   3.393   6.333  0.1035  0.3679  0.1786
  604MOL0     C83224   6.096   3.351   6.313  0.6036  1.2488 -0.2001
  604MOL0     C83225   6.129   3.227   6.222  0.2618 -0.6998  0.0547
  604MOL0     C83226   6.072   3.096   6.282  0.2401 -0.3533  0.0546
  604MOL0     C83227   6.013   2.994   6.177  0.2320  0.0650 -0.1379
  604MOL0     C83228   5.878   3.052   6.142  0.9619 -0.3659 -0.5362
  604MOL0     C83229   5.834   3.001   6.011 -0.4414 -0.5377  0.3806
  604MOL0     C83230   5.700   3.055   5.961 -0.0242  1.1909 -0.2410
  604MOL0     N83231   5.646   2.993   5.839 -0.7241  0.0857 -0.3404
  604MOL0     C83232   5.518   2.942   5.826  0.1286 -1.4236 -0.1546
  604MOL0     C83233   5.503   2.898   5.704 -0.1525 -0.1851  0.1829
  604MOL0     C83234   5.381   2.837   5.653 -0.0023  0.1724 -0.1445
  604MOL0     C83235   5.326   2.726   5.748  0.4952 -0.1127  0.1703
  604MOL0     C83236   5.233   2.620   5.695 -0.2693  0.2413  0.3619
  604MOL0     C83237   5.297   2.494   5.669  0.2233 -0.5243 -0.3055
  604MOL0     O83238   5.195   2.390   5.667  0.3015 -0.0260  0.1008
  604MOL0     C83239   5.237   2.254   5.660  0.2409 -1.0854 -0.4394
  604MOL0     C83240   5.145   2.159   5.701 -0.0808 -0.4243  0.1353
  604MOL0     C83241   5.188   2.028   5.706 -0.1636  0.1870 -0.1351
  604MOL0     C83242   5.096   1.919   5.766  0.4926  0.0392  0.0654
  604MOL0     C83243   5.318   1.981   5.657  0.3208 -0.6857 -0.6007
  604MOL0     C83244   5.342   1.829   5.642 -0.8559 -0.9204  0.1616
  604MOL0     O83245   5.240   1.745   5.600  0.7043  0.2397 -0.5244
  604MOL0     C83246   5.265   1.609   5.590  0.2475 -0.4756 -0.8688
  604MOL0     C83247   5.215   1.524   5.687  0.3607 -0.0330  0.3901
  604MOL0     C83248   5.250   1.389   5.685  0.2901 -0.1851  0.4133
  604MOL0     C83249   5.326   1.332   5.573  0.8779 -0.1397  0.3063
  604MOL0     O83250   5.364   1.205   5.562 -0.1791  0.3864  0.3177
  604MOL0     C83251   5.304   1.106   5.649  0.2619  0.1211 -0.5273
  604MOL0     C83252   5.284   0.967   5.601  0.5126  0.2011  0.4438
  604MOL0     C83253   5.153   0.910   5.665  0.1359 -0.4794 -0.1899
  604MOL0     C83254   5.154   0.918   5.816  0.1188  0.0803 -0.1756
  604MOL0     C83255   5.050   0.814   5.866  0.3284  0.2373  0.3487
  604MOL0     C83256   4.898   0.842   5.847 -0.1521 -0.2840  0.5989
  604MOL0     C83257   4.838   0.951   5.939  0.2194 -0.5181 -0.0319
  604MOL0     C83258   4.821   0.893   6.080 -0.2297 -0.5028  0.3486
  604MOL0    Cl83259   4.787   1.019   6.214 -0.0798 -0.3538  0.2466
  604MOL0     C83260   5.353   1.422   5.471  0.0006  0.7194 -0.7580
  604MOL0     C83261   5.335   1.563   5.478 -0.8960  0.1906  0.5621
  604MOL0     O83262   5.457   1.791   5.665 -0.3512  0.3279  0.4913
  604MOL0     C83263   5.409   2.077   5.617 -0.3134  0.0772  0.1487
  604MOL0     C83264   5.367   2.215   5.618  0.6742 -0.4277 -1.1847
  604MOL0     N83265   5.626   2.894   5.641 -0.0110  0.7199 -0.0313
  604MOL0     N83266   5.707   2.958   5.719  0.2918  1.1574 -0.0854
  604MOL0     C83267   5.698   3.555   6.354  0.2296 -0.8175  1.1961
  604MOL0     C83268   5.580   3.629   6.381  0.2803  0.1476 -0.9068
  604MOL0     C83269   5.253   3.823   6.624  0.1916 -0.2314 -0.0252
  604MOL0     C83270   5.202   3.909   6.524 -0.3362 -0.1222 -0.9355
  604MOL0     C83271   5.103   4.000   6.550 -0.8471 -1.2526  0.5646
  604MOL0     C83272   5.059   4.008   6.677  0.7078 -1.4017 -0.4962
  604MOL0     O83273   4.976   4.109   6.730 -0.1179  0.2526 -0.3209
  604MOL0     C83274   4.973   4.227   6.653 -0.0013 -1.2486 -0.4032
  604MOL0     C83275   4.884   4.329   6.725 -0.8618 -0.5889  0.3752
  604MOL0     C83276   4.946   4.345   6.869  0.0388 -0.7963 -0.5476
  604MOL0     C83277   4.885   4.467   6.933 -0.5099 -0.1761  0.6465
  604MOL0     C83278   4.910   4.462   7.074  0.0154  0.4426 -0.5091
  604MOL0     C83279   4.929   4.458   7.190 -0.3181  0.0992  0.2285
  604MOL0     C83280   5.103   3.922   6.776  0.2690 -0.1891 -0.1444
  604MOL0     C83281   5.199   3.820   6.751 -0.9417 -0.7255 -0.6719
  604MOL0     C83282   5.254   3.732   6.870  0.1146  0.2873 -0.2698
  604MOL0     H83283   5.653   3.766   6.676 -0.4566  0.5102 -1.5561
  604MOL0     H83284   5.869   3.642   6.639 -0.4627  0.1874  0.5082
  604MOL0     H83285   5.905   3.419   6.234  1.3328 -1.7655 -0.9343
  604MOL0     H83286   5.885   3.306   6.361 -1.8684  1.2186 -1.0613
  604MOL0     H83287   6.168   3.426   6.276  1.1075  0.7184 -0.3137
  604MOL0     H83288   6.127   3.332   6.416  1.4384 -0.2445 -0.7020
  604MOL0     H83289   6.078   3.243   6.127 -1.7349 -0.7104  1.0697
  604MOL0     H83290   6.238   3.217   6.216  0.3896  0.0524  0.9468
  604MOL0     H83291   6.160   3.052   6.331  0.5569 -2.1233 -1.9274
  604MOL0     H83292   5.990   3.119   6.350 -1.3429  3.1243 -2.6822
  604MOL0     H83293   6.007   2.895   6.223  0.4977  0.2077  0.2088
  604MOL0     H83294   6.069   2.995   6.083 -1.4505  1.1384 -1.1897
  604MOL0     H83295   5.801   3.024   6.215 -1.9262  1.4973 -2.6494
  604MOL0     H83296   5.868   3.160   6.129  0.8709 -0.4516 -1.1735
  604MOL0     H83297   5.827   2.892   6.009  1.2095 -0.6907  0.8412
  604MOL0     H83298   5.906   3.038   5.937 -2.8210 -0.1639 -1.8925
  604MOL0     H83299   5.628   3.032   6.040  4.4053 -1.5729  3.5525
  604MOL0     H83300   5.713   3.162   5.949  1.3406  1.2848  1.6115
  604MOL0     H83301   5.442   2.970   5.898  1.0110  3.3386 -0.7241
  604MOL0     H83302   5.401   2.785   5.558 -2.2875  0.4000 -0.7996
  604MOL0     H83303   5.307   2.913   5.630  0.8289  0.1732 -3.3178
  604MOL0     H83304   5.410   2.670   5.791  1.6197 -1.2666 -3.2719
  604MOL0     H83305   5.275   2.783   5.827  1.6256  0.9835  0.1402
  604MOL0     H83306   5.154   2.608   5.770 -1.5046 -0.8796 -1.0367
  604MOL0     H83307   5.189   2.662   5.603 -1.7980 -0.8448  0.5603
  604MOL0     H83308   5.351   2.499   5.574  0.9639 -0.9277  0.0947
  604MOL0     H83309   5.378   2.466   5.736  0.5043 -0.3449 -0.5642
  604MOL0     H83310   5.045   2.194   5.724  0.3177  0.6201  0.3192
  604MOL0     H83311   5.057   1.848   5.693  0.2207 -1.0120  1.2004
  604MOL0     H83312   5.012   1.974   5.808  1.9911  1.7373  0.9571
  604MOL0     H83313   5.153   1.868   5.845 -1.1320 -0.4626  0.9670
  604MOL0     H83314   5.177   1.574   5.775  3.0984 -0.1821  1.7746
  604MOL0     H83315   5.235   1.321   5.769  0.2278 -1.7797 -0.8405
  604MOL0     H83316   5.357   1.107   5.745  1.3107  0.4184 -1.0838
  604MOL0     H83317   5.207   1.152   5.668  1.5289  3.2718 -0.9062
  604MOL0     H83318   5.272   0.965   5.493 -1.3561 -3.2875  0.5536
  604MOL0     H83319   5.368   0.899   5.622 -2.5723 -3.9591  0.6502
  604MOL0     H83320   5.150   0.808   5.624 -1.0730 -0.4248 -0.2614
  604MOL0     H83321   5.061   0.953   5.626 -1.3344  1.6857  4.8069
  604MOL0     H83322   5.112   1.011   5.855 -0.7550 -0.4040  0.0800
  604MOL0     H83323   5.255   0.905   5.856 -0.0717  0.7462  0.5337
  604MOL0     H83324   5.065   0.722   5.809 -2.4104 -0.1101  0.0413
  604MOL0     H83325   5.062   0.797   5.974 -5.5466  0.9584  1.4561
  604MOL0     H83326   4.847   0.756   5.892  0.8582 -0.3539  1.6810
  604MOL0     H83327   4.867   0.849   5.742 -2.5829  1.4758  1.3500
  604MOL0     H83328   4.741   0.987   5.905  0.5893  1.6056  0.9584
  604MOL0     H83329   4.899   1.041   5.947  1.1226 -0.9313 -1.7898
  604MOL0     H83330   4.906   0.833   6.114  0.1678  0.7780  1.7181
  604MOL0     H83331   4.739   0.824   6.062  0.8608 -1.8730  0.5090
  604MOL0     H83332   5.419   1.385   5.393 -0.5594 -2.1248  0.0314
  604MOL0     H83333   5.364   1.626   5.394  0.0313 -2.2575 -1.0724
  604MOL0     H83334   5.504   2.036   5.584  0.6425  1.6648  0.8313
  604MOL0     H83335   5.426   2.301   5.588 -2.2689  2.2142  0.0645
  604MOL0     H83336   5.691   3.489   6.268 -2.4098  0.6542  0.1556
  604MOL0     H83337   5.488   3.626   6.324 -0.5675 -0.2686  0.4392
  604MOL0     H83338   5.246   3.914   6.424 -0.6396 -2.2176 -1.2107
  604MOL0     H83339   5.072   4.069   6.472 -0.2205 -0.4878  0.9707
  604MOL0     H83340   5.076   4.263   6.656 -0.3184 -0.3706  1.0514
  604MOL0     H83341   4.948   4.209   6.549  1.9676  0.3046 -1.2133
  604MOL0     H83342   4.781   4.294   6.736 -0.3884 -2.6091 -0.9221
  604MOL0     H83343   4.894   4.425   6.675  1.5113 -0.3848  1.0946
  604MOL0     H83344   4.927   4.263   6.939  0.7708  0.6237  1.4044
  604MOL0     H83345   5.053   4.367   6.858 -0.2107 -0.4166 -2.5404
  604MOL0     H83346   4.779   4.464   6.906  0.1464 -0.6999 -2.2417
  604MOL0     H83347   4.936   4.554   6.888  1.0650 -1.7415 -0.7528
  604MOL0     H83348   4.969   4.471   7.288  1.5319  2.2633 -0.7145
  604MOL0     H83349   5.058   3.940   6.873 -1.3013  0.7660 -1.0042
  604MOL0     H83350   5.363   3.726   6.866  0.1175  0.0926  0.0750
  604MOL0     H83351   5.222   3.782   6.962 -0.8424  1.6918 -1.3238
  604MOL0     H83352   5.218   3.630   6.861  2.9966 -0.9861  1.2099
  605MOL0     O83353   7.713   0.233   5.943 -0.1729 -0.3875 -0.9706
  605MOL0     C83354   7.770   0.193   6.051 -0.3309 -0.0923  0.0860
  605MOL0     O83355   7.814   0.067   6.072  0.4914  0.1062  0.1431
  605MOL0     C83356   7.836  -0.015   5.972  0.0172  0.4374 -1.0277
  605MOL0     C83357   7.736  -0.100   5.919  0.0365 -0.1244 -0.4528
  605MOL0     C83358   7.776  -0.192   5.822 -0.0521 -0.6613  0.5939
  605MOL0     C83359   7.908  -0.191   5.765 -0.0268  0.5320 -1.6248
  605MOL0     O83360   7.938  -0.292   5.679 -0.3315 -0.9684 -0.1547
  605MOL0     C83361   8.025  -0.391   5.738 -0.2656  0.5492  0.2950
  605MOL0     C83362   8.012  -0.508   5.636  1.0538 -0.1935 -0.1227
  605MOL0     C83363   8.074  -0.641   5.674  0.4409  0.1401  0.7259
  605MOL0     C83364   8.223  -0.642   5.706 -0.3080 -0.0769  0.4188
  605MOL0     C83365   8.262  -0.788   5.739 -0.0067 -0.5416  0.1416
  605MOL0     C83366   8.400  -0.771   5.802  1.2677 -0.3544 -0.9894
  605MOL0     C83367   8.443  -0.897   5.878 -0.3203  0.0228  0.2401
  605MOL0     C83368   8.342  -0.942   5.982 -0.1658 -0.0304  0.6059
  605MOL0     N83369   8.401  -1.021   6.089 -0.6258 -1.1808 -0.4081
  605MOL0     C83370   8.484  -0.981   6.185 -0.5588  0.1017  0.2636
  605MOL0     C83371   8.493  -1.090   6.269  0.1269 -0.6144 -0.1334
  605MOL0     C83372   8.562  -1.091   6.401  0.1510  0.4943  0.1125
  605MOL0     C83373   8.488  -1.005   6.509 -0.4127  0.9691  0.1840
  605MOL0     C83374   8.549  -1.053   6.639 -0.1966  0.0793 -0.1090
  605MOL0     C83375   8.485  -0.970   6.761 -0.0042 -0.0750  0.8013
  605MOL0     O83376   8.528  -0.837   6.745  0.4271 -0.0923 -0.6073
  605MOL0     C83377   8.650  -0.793   6.798  0.9660  0.1834  0.1701
  605MOL0     C83378   8.654  -0.658   6.820  0.4688  0.3619  0.4828
  605MOL0     C83379   8.766  -0.599   6.873 -0.2879 -0.3952 -0.3414
  605MOL0     C83380   8.762  -0.447   6.883 -0.4718  0.4370  0.4251
  605MOL0     C83381   8.889  -0.674   6.911  0.0625  0.0484 -0.5080
  605MOL0     C83382   9.009  -0.614   6.977  0.1994  0.8150  0.6236
  605MOL0     O83383   9.101  -0.699   7.051 -0.2044  0.2812 -0.6943
  605MOL0     C83384   9.190  -0.648   7.139 -0.7421  0.3303  0.5164
  605MOL0     C83385   9.274  -0.542   7.106  0.3629 -0.4506 -0.1148
  605MOL0     C83386   9.359  -0.480   7.195 -0.0620  0.3616  1.1830
  605MOL0     C83387   9.353  -0.521   7.330  0.3018 -0.5367 -0.2832
  605MOL0     O83388   9.435  -0.448   7.407 -0.2083 -0.5829  0.8182
  605MOL0     C83389   9.504  -0.524   7.510  0.6265  0.1266 -0.0734
  605MOL0     C83390   9.615  -0.444   7.582  0.8973 -0.4254 -0.3519
  605MOL0     C83391   9.700  -0.526   7.670  0.2060 -0.0118 -0.4505
  605MOL0     C83392   9.814  -0.443   7.723  0.5929 -0.0020 -0.1930
  605MOL0     C83393   9.919  -0.540   7.778  0.2200  0.5100  0.2230
  605MOL0     C83394  10.038  -0.464   7.853 -0.2618  0.0526  0.2844
  605MOL0     C83395  10.083  -0.550   7.967  0.3913  0.4041 -0.4452
  605MOL0     C83396  10.177  -0.465   8.049 -0.1605 -0.9565 -0.4698
  605MOL0    Cl83397  10.318  -0.423   7.958 -0.8452  0.2784 -0.1915
  605MOL0     C83398   9.255  -0.619   7.364  0.1560  0.1939  0.5330
  605MOL0     C83399   9.181  -0.692   7.267  0.2527  0.2237  0.1461
  605MOL0     O83400   9.024  -0.492   6.953  0.9598  0.2617 -0.5932
  605MOL0     C83401   8.876  -0.810   6.900 -0.0006  0.1937 -0.6499
  605MOL0     C83402   8.759  -0.871   6.848  0.2168  0.5576 -0.7055
  605MOL0     N83403   8.429  -1.184   6.210  0.0686  0.2283  0.4199
  605MOL0     N83404   8.365  -1.149   6.099 -0.1440 -0.3544 -0.1958
  605MOL0     C83405   7.994  -0.094   5.814 -0.5509  0.5487 -0.9421
  605MOL0     C83406   7.961   0.002   5.913  1.1276  0.4502  0.2932
  605MOL0     C83407   7.812   0.292   6.157  0.3171 -0.7291 -0.7073
  605MOL0     C83408   7.928   0.265   6.237  0.2227 -0.0643  0.9713
  605MOL0     C83409   7.968   0.350   6.341  0.3184  0.1572 -0.2680
  605MOL0     C83410   7.892   0.459   6.376  0.8705 -0.2072 -0.7314
  605MOL0     O83411   7.918   0.547   6.471 -0.1890 -0.1946 -0.1198
  605MOL0     C83412   8.035   0.525   6.564 -0.5501 -0.0865  0.4644
  605MOL0     C83413   8.005   0.602   6.686  0.0852 -0.9367 -0.2038
  605MOL0     C83414   8.120   0.622   6.786  0.7884  0.1803 -0.8103
  605MOL0     C83415   8.199   0.742   6.743 -0.6094  0.8120  0.0301
  605MOL0     C83416   8.318   0.758   6.832  0.7275 -0.0434  1.1341
  605MOL0     C83417   8.403   0.791   6.912 -0.6650 -0.1118  0.2514
  605MOL0     C83418   7.779   0.479   6.294  0.8893 -0.4250 -0.5059
  605MOL0     C83419   7.729   0.399   6.189 -0.1441  0.9615  0.0000
  605MOL0     C83420   7.600   0.427   6.112  0.4269 -0.7557 -1.1144
  605MOL0     H83421   7.633  -0.103   5.952  0.7678 -2.3503  1.9569
  605MOL0     H83422   7.706  -0.266   5.787  0.1062 -0.4629 -0.1677
  605MOL0     H83423   7.983  -0.415   5.836 -1.2555 -1.3950 -0.5495
  605MOL0     H83424   8.124  -0.345   5.740 -0.0706  0.1124  1.4391
  605MOL0     H83425   7.906  -0.531   5.621  1.2074 -4.3573  3.2190
  605MOL0     H83426   8.059  -0.487   5.540  2.0865 -0.0749  0.3952
  605MOL0     H83427   8.016  -0.702   5.744 -0.2335 -2.0711 -1.5956
  605MOL0     H83428   8.055  -0.704   5.586  0.3136 -0.7743  1.3957
  605MOL0     H83429   8.286  -0.596   5.630  2.5155 -0.5256  2.3372
  605MOL0     H83430   8.230  -0.579   5.794  0.8835  1.2030 -0.5486
  605MOL0     H83431   8.263  -0.856   5.653  0.5340 -3.2164  2.1306
  605MOL0     H83432   8.185  -0.829   5.805 -1.6368  0.5401 -1.0095
  605MOL0     H83433   8.479  -0.744   5.730  0.3433  1.6734 -1.3197
  605MOL0     H83434   8.393  -0.681   5.864  2.1601 -0.7472 -0.2916
  605MOL0     H83435   8.539  -0.872   5.923  0.0160  1.2344 -1.0802
  605MOL0     H83436   8.454  -0.975   5.801 -3.2418  0.9888 -1.3582
  605MOL0     H83437   8.290  -0.853   6.019 -0.8997 -1.1096  2.3559
  605MOL0     H83438   8.271  -1.010   5.935 -2.1255  1.3800  1.3740
  605MOL0     H83439   8.539  -0.887   6.188  0.1246 -0.3171  1.5514
  605MOL0     H83440   8.661  -1.050   6.377  0.7684  0.0714  1.7842
  605MOL0     H83441   8.588  -1.194   6.429  1.8079 -0.0985 -3.0815
  605MOL0     H83442   8.500  -0.898   6.495 -2.2837  1.1508 -0.2770
  605MOL0     H83443   8.378  -1.005   6.510 -0.4656  2.1082 -1.4676
  605MOL0     H83444   8.544  -1.162   6.642 -2.5366  0.0952 -1.6281
  605MOL0     H83445   8.655  -1.028   6.650  0.2443 -1.5836 -0.3386
  605MOL0     H83446   8.376  -0.981   6.750 -0.2423  0.2041  2.5809
  605MOL0     H83447   8.508  -1.006   6.862 -1.2472  4.6260  3.0124
  605MOL0     H83448   8.569  -0.597   6.792  0.9337  0.9504  0.3295
  605MOL0     H83449   8.821  -0.406   6.800 -0.5401 -1.1756 -0.4771
  605MOL0     H83450   8.802  -0.410   6.978 -0.4872  0.4608  0.4221
  605MOL0     H83451   8.658  -0.414   6.874 -0.0603  1.0990 -3.6761
  605MOL0     H83452   9.267  -0.505   7.004  1.6591  3.2844  0.9707
  605MOL0     H83453   9.434  -0.410   7.159 -0.6980  0.5849  0.2556
  605MOL0     H83454   9.426  -0.540   7.585 -1.0412 -0.0654 -1.7908
  605MOL0     H83455   9.535  -0.624   7.476 -2.7392 -0.9629 -0.2691
  605MOL0     H83456   9.679  -0.399   7.506  2.7662 -1.9016  0.2648
  605MOL0     H83457   9.567  -0.373   7.651 -1.6612  0.1375 -2.5535
  605MOL0     H83458   9.736  -0.610   7.611 -2.8225 -0.9052 -1.2341
  605MOL0     H83459   9.643  -0.574   7.750 -0.2369 -2.9103 -2.3683
  605MOL0     H83460   9.785  -0.385   7.811  2.8391 -0.2600  0.7825
  605MOL0     H83461   9.853  -0.377   7.645 -0.2600 -0.9148 -1.4224
  605MOL0     H83462   9.877  -0.604   7.857  2.2968  2.1542  2.8500
  605MOL0     H83463   9.963  -0.591   7.692 -1.7383  3.6468 -2.8667
  605MOL0     H83464   9.998  -0.370   7.892 -1.4022 -1.6461  3.7245
  605MOL0     H83465  10.116  -0.445   7.780  0.7726 -0.3866  1.2319
  605MOL0     H83466  10.112  -0.646   7.925 -1.6083 -0.5909  0.3318
  605MOL0     H83467   9.998  -0.563   8.035 -0.1685  3.3404 -0.4414
  605MOL0     H83468  10.205  -0.518   8.140  4.0874  2.6108  0.6654
  605MOL0     H83469  10.137  -0.368   8.081  1.5495 -1.2144  2.9180
  605MOL0     H83470   9.223  -0.645   7.464 -4.4598  0.7048 -0.5671
  605MOL0     H83471   9.117  -0.776   7.290 -0.4649 -0.0880 -2.6544
  605MOL0     H83472   8.946  -0.876   6.951 -0.2919  1.4449  1.4570
  605MOL0     H83473   8.745  -0.978   6.840  0.3904  0.5368 -0.7100
  605MOL0     H83474   8.100  -0.099   5.789  1.3961  1.2272  5.3707
  605MOL0     H83475   8.040   0.071   5.941 -1.1447  3.4756 -0.2892
  605MOL0     H83476   7.986   0.177   6.211 -0.6586 -0.2892 -0.3656
  605MOL0     H83477   8.055   0.315   6.395  1.3582  1.9392 -0.7356
  605MOL0     H83478   8.052   0.420   6.588  3.7853  0.2827 -0.1417
  605MOL0     H83479   8.124   0.556   6.509 -0.4068  0.0343  0.7646
  605MOL0     H83480   7.931   0.537   6.733  1.7783 -2.4627  0.4513
  605MOL0     H83481   7.955   0.697   6.664  1.2254  0.0072  1.0826
  605MOL0     H83482   8.071   0.645   6.881  0.6134 -3.5197  0.1178
  605MOL0     H83483   8.173   0.527   6.794 -1.0822 -0.8796 -0.6023
  605MOL0     H83484   8.129   0.826   6.745  1.3039  2.5683 -1.2955
  605MOL0     H83485   8.231   0.718   6.641 -1.0574 -0.5876  0.2045
  605MOL0     H83486   8.479   0.829   6.977 -0.3801  0.3833 -0.3612
  605MOL0     H83487   7.721   0.571   6.295 -0.4833 -1.2157 -2.0848
  605MOL0     H83488   7.532   0.341   6.110 -1.2693  0.4257  1.1009
  605MOL0     H83489   7.541   0.509   6.154  0.3566 -0.8463 -1.0345
  605MOL0     H83490   7.634   0.447   6.011  1.3003 -1.0051 -0.8810
  606MOL0     O83491  10.434   0.351   5.109 -0.3629  0.4851 -0.4488
  606MOL0     C83492  10.468   0.465   5.146  0.2270  0.1120 -0.6261
  606MOL0     O83493  10.399   0.587   5.125  0.1589  0.0108 -0.5685
  606MOL0     C83494  10.265   0.595   5.095 -0.2010  0.4797  0.3526
  606MOL0     C83495  10.217   0.719   5.055  0.1825 -0.6209 -0.4149
  606MOL0     C83496  10.078   0.746   5.046 -0.7231 -0.2205  1.4535
  606MOL0     C83497   9.988   0.640   5.043  0.0724 -0.0674 -1.3149
  606MOL0     O83498   9.856   0.650   5.009  0.5539  0.3324  0.4954
  606MOL0     C83499   9.831   0.698   4.871 -0.0665 -0.0973 -0.5744
  606MOL0     C83500   9.682   0.723   4.859  0.0325 -0.2796  0.5979
  606MOL0     C83501   9.612   0.597   4.840  0.1866  0.0856  0.4856
  606MOL0     C83502   9.621   0.486   4.945  0.5136 -0.1933  0.2348
  606MOL0     C83503   9.531   0.368   4.907 -0.6896 -0.1616 -0.8351
  606MOL0     C83504   9.589   0.246   4.992  0.1539 -0.0727  0.1598
  606MOL0     C83505   9.495   0.121   4.987 -0.5789  0.5342  0.1079
  606MOL0     C83506   9.373   0.141   5.078 -0.3229  0.1071  0.2583
  606MOL0     N83507   9.391   0.159   5.218  0.3641  0.5688  0.5690
  606MOL0     C83508   9.458   0.073   5.305 -0.4826  0.4754 -0.5291
  606MOL0     C83509   9.471   0.142   5.416  0.7909 -0.7244  0.3719
  606MOL0     C83510   9.514   0.096   5.550 -0.3798 -0.7505  1.0149
  606MOL0     C83511   9.400   0.027   5.623  0.4206  0.4733  0.5959
  606MOL0     C83512   9.263   0.103   5.642  0.1631  0.0203 -0.9454
  606MOL0     C83513   9.281   0.245   5.704 -1.1687 -0.7501  0.5062
  606MOL0     O83514   9.334   0.227   5.834  0.0209  0.1831 -0.5872
  606MOL0     C83515   9.426   0.319   5.874 -0.3444  1.1508 -0.0621
  606MOL0     C83516   9.429   0.452   5.845 -0.2899  0.6847  0.1938
  606MOL0     C83517   9.538   0.529   5.874  0.5836  0.0379  0.4998
  606MOL0     C83518   9.531   0.675   5.845  0.0512  0.0613  0.2627
  606MOL0     C83519   9.647   0.470   5.946  0.2274 -0.4723  0.1183
  606MOL0     C83520   9.765   0.544   5.996 -0.8134 -0.6125 -0.3520
  606MOL0     O83521   9.794   0.674   5.950 -0.2672  0.3382 -0.3472
  606MOL0     C83522   9.896   0.726   6.007  0.3002 -0.2593 -0.6290
  606MOL0     C83523   9.885   0.845   6.082 -0.0732 -0.8455  0.2208
  606MOL0     C83524  10.000   0.910   6.130  0.1642  0.5867  0.9003
  606MOL0     C83525  10.126   0.851   6.111 -1.0321  0.4687  0.7868
  606MOL0     O83526  10.236   0.903   6.177  0.6159 -0.4037  0.0517
  606MOL0     C83527  10.318   0.797   6.230 -0.3326 -0.3820 -0.7849
  606MOL0     C83528  10.403   0.849   6.346 -0.5665 -0.1985 -0.6465
  606MOL0     C83529  10.322   0.884   6.472  0.1767  0.7055 -0.4117
  606MOL0     C83530  10.399   0.958   6.578  0.5790  0.9342 -1.0278
  606MOL0     C83531  10.515   0.880   6.636 -0.4257 -1.0190 -0.7386
  606MOL0     C83532  10.545   0.903   6.792  0.2759  0.0689  0.7434
  606MOL0     C83533  10.608   1.036   6.828  0.0678 -0.0126 -0.3669
  606MOL0     C83534  10.592   1.075   6.976  0.3178 -0.6809  0.0263
  606MOL0    Cl83535  10.640   0.932   7.075  0.2922  0.0810 -0.0835
  606MOL0     C83536  10.134   0.739   6.019 -0.7840  0.4715  0.4323
  606MOL0     C83537  10.022   0.677   5.975  0.4187  0.0312  0.3391
  606MOL0     O83538   9.825   0.499   6.097 -1.3940 -0.1901  0.0631
  606MOL0     C83539   9.646   0.340   5.975 -0.0587 -0.0339 -0.6427
  606MOL0     C83540   9.535   0.260   5.943 -0.2278 -0.3872 -0.5896
  606MOL0     N83541   9.394   0.252   5.401 -0.0443  0.1666 -0.2842
  606MOL0     N83542   9.339   0.266   5.288  0.1357  0.4210  0.1310
  606MOL0     C83543  10.033   0.510   5.076  0.7907  0.1754 -0.1332
  606MOL0     C83544  10.169   0.486   5.104 -0.0925 -0.4247  0.1412
  606MOL0     C83545  10.589   0.477   5.228 -0.2367 -0.1760 -0.2424
  606MOL0     C83546  10.670   0.593   5.207 -0.6945  0.4365 -0.1013
  606MOL0     C83547  10.790   0.605   5.275  0.5270 -0.1151  0.1084
  606MOL0     C83548  10.839   0.504   5.352 -0.5770 -0.8355 -0.0378
  606MOL0     O83549  10.971   0.521   5.393  0.2327  0.0851  0.4957
  606MOL0     C83550  11.029   0.415   5.478  0.0045  0.1212 -0.3369
  606MOL0     C83551  11.166   0.454   5.519  0.7285  1.1050 -1.1161
  606MOL0     C83552  11.221   0.341   5.618 -0.3850  0.3066  0.5434
  606MOL0     C83553  11.371   0.367   5.651 -0.2441 -0.8206 -0.0132
  606MOL0     C83554  11.385   0.497   5.713 -0.2698 -0.1711  0.7789
  606MOL0     C83555  11.397   0.607   5.755 -0.5583  0.2924 -0.8182
  606MOL0     C83556  10.764   0.391   5.365 -1.2737  0.4240 -0.2907
  606MOL0     C83557  10.643   0.376   5.307  0.8184 -0.3665 -0.4358
  606MOL0     C83558  10.584   0.236   5.322 -0.4521 -0.4783  0.5232
  606MOL0     H83559  10.283   0.806   5.060 -2.7940  1.9025 -2.0149
  606MOL0     H83560  10.045   0.847   5.024 -1.4762 -1.0669 -1.8903
  606MOL0     H83561   9.870   0.628   4.797 -0.6586  0.7554 -1.7284
  606MOL0     H83562   9.879   0.795   4.857 -1.8023  1.0546  0.8874
  606MOL0     H83563   9.654   0.771   4.954  4.7344 -1.3936  2.8520
  606MOL0     H83564   9.654   0.797   4.784 -0.0461  1.2081  2.0335
  606MOL0     H83565   9.511   0.631   4.816 -0.2630  0.4056  2.6735
  606MOL0     H83566   9.641   0.540   4.750  1.5162 -1.3798  1.7664
  606MOL0     H83567   9.724   0.455   4.962  0.7868  0.7624  0.4104
  606MOL0     H83568   9.576   0.515   5.040 -2.3207  2.6899 -1.7554
  606MOL0     H83569   9.536   0.346   4.799 -0.8475 -1.0553 -0.6715
  606MOL0     H83570   9.427   0.388   4.931 -1.2873  0.6458 -3.6625
  606MOL0     H83571   9.681   0.212   4.942  0.6749 -0.3586  1.2801
  606MOL0     H83572   9.623   0.270   5.093 -0.1008  0.8545  0.0360
  606MOL0     H83573   9.546   0.029   5.013  1.2960  1.4158 -0.2896
  606MOL0     H83574   9.459   0.112   4.883  2.7615  0.8930 -1.1999
  606MOL0     H83575   9.322   0.228   5.035  0.6978  0.8887  0.6119
  606MOL0     H83576   9.319   0.049   5.052  2.6388 -2.0393  1.2755
  606MOL0     H83577   9.491  -0.030   5.291  0.3662  0.6032  0.3861
  606MOL0     H83578   9.549   0.185   5.603 -1.8287  0.0483  0.6752
  606MOL0     H83579   9.597   0.025   5.545  0.9547  0.6921  2.0261
  606MOL0     H83580   9.369  -0.062   5.567  0.7280  0.0749  1.0421
  606MOL0     H83581   9.426   0.002   5.726 -1.8437  2.1541  1.6529
  606MOL0     H83582   9.208   0.106   5.547 -1.1370 -0.2351 -0.2240
  606MOL0     H83583   9.203   0.036   5.703  0.0863  0.1248 -0.9066
  606MOL0     H83584   9.319   0.321   5.635 -1.6760  0.1846  1.2407
  606MOL0     H83585   9.179   0.277   5.727 -0.4451 -0.3303  3.6153
  606MOL0     H83586   9.332   0.486   5.811 -2.4602 -1.2592  3.7668
  606MOL0     H83587   9.531   0.735   5.937  2.7603 -0.6695  0.7996
  606MOL0     H83588   9.445   0.705   5.785  0.1302  2.0033  1.0443
  606MOL0     H83589   9.618   0.709   5.788 -0.2710 -1.3520 -1.1219
  606MOL0     H83590   9.786   0.890   6.083 -0.1629 -1.0066 -0.6834
  606MOL0     H83591   9.981   0.995   6.195 -0.0438  0.1844  1.3770
  606MOL0     H83592  10.255   0.714   6.264 -0.3669  0.1201  0.4320
  606MOL0     H83593  10.385   0.764   6.150  0.8157  0.3560 -0.1572
  606MOL0     H83594  10.483   0.780   6.377 -2.3001 -1.8673  0.2882
  606MOL0     H83595  10.454   0.938   6.308 -0.5769 -0.0457 -0.2985
  606MOL0     H83596  10.272   0.798   6.518 -4.0063  2.4016 -1.3751
  606MOL0     H83597  10.231   0.938   6.445 -0.1451 -0.6499 -2.2376
  606MOL0     H83598  10.329   0.988   6.656 -0.7524  1.2613 -2.2936
  606MOL0     H83599  10.424   1.057   6.539 -0.7125  1.1901 -1.2600
  606MOL0     H83600  10.492   0.774   6.629  0.0636 -1.4044  2.1296
  606MOL0     H83601  10.603   0.908   6.578 -1.2383  0.8259 -1.1697
  606MOL0     H83602  10.614   0.828   6.833  0.7813  1.2187  2.0613
  606MOL0     H83603  10.448   0.899   6.842  0.8346  4.3319  2.5911
  606MOL0     H83604  10.567   1.119   6.770  0.0396  0.2695  0.0482
  606MOL0     H83605  10.716   1.027   6.814  1.3540  2.5335  5.0041
  606MOL0     H83606  10.489   1.108   6.993  1.3363  2.4115  0.8255
  606MOL0     H83607  10.664   1.152   7.005 -0.2198 -1.2920  3.4404
  606MOL0     H83608  10.232   0.697   5.999 -1.9641 -1.9096 -0.8075
  606MOL0     H83609  10.029   0.588   5.913  2.1095  0.0994  0.3684
  606MOL0     H83610   9.727   0.279   6.012 -0.9100  0.0507  1.5209
  606MOL0     H83611   9.539   0.157   5.974  1.7655 -0.7280 -1.8581
  606MOL0     H83612   9.960   0.429   5.077 -1.0850  1.7772 -0.7777
  606MOL0     H83613  10.194   0.388   5.142 -0.1260 -0.5550 -0.1671
  606MOL0     H83614  10.653   0.664   5.127  1.6539  0.9009 -0.2732
  606MOL0     H83615  10.839   0.700   5.255 -0.8541  0.9167  1.3800
  606MOL0     H83616  10.970   0.405   5.570  0.6490  0.7228  0.1484
  606MOL0     H83617  11.029   0.332   5.407 -3.6880  1.1019 -1.7299
  606MOL0     H83618  11.153   0.548   5.572 -3.2003 -0.8361  1.9741
  606MOL0     H83619  11.229   0.468   5.431  0.5922  1.7040 -1.1182
  606MOL0     H83620  11.167   0.331   5.713  0.4259 -2.0310  0.8170
  606MOL0     H83621  11.198   0.251   5.561 -0.6121  0.6243  0.1201
  606MOL0     H83622  11.428   0.366   5.557 -0.9708 -0.5680 -0.4657
  606MOL0     H83623  11.418   0.288   5.711  1.9041  2.1996  2.6152
  606MOL0     H83624  11.409   0.697   5.811  1.0943 -1.9870  2.8623
  606MOL0     H83625  10.803   0.311   5.427  0.7294  0.6510 -1.1680
  606MOL0     H83626  10.582   0.181   5.228 -0.2341  3.0297 -1.7550
  606MOL0     H83627  10.645   0.179   5.392  0.2106 -0.0571  0.3084
  606MOL0     H83628  10.486   0.240   5.370  0.7975 -2.9913  3.6462
  607MOL0     O83629   4.320   0.301  10.380  0.5494 -0.4605  0.6227
  607MOL0     C83630   4.388   0.227  10.455 -0.5697  0.3895 -0.0772
  607MOL0     O83631   4.504   0.271  10.510 -0.1040  0.1331 -0.9873
  607MOL0     C83632   4.555   0.400  10.490 -0.2020 -0.0563  0.7000
  607MOL0     C83633   4.473   0.518  10.485  0.0665 -0.7050  0.7987
  607MOL0     C83634   4.531   0.648  10.468 -1.3763  0.3216 -0.0421
  607MOL0     C83635   4.668   0.656  10.436 -0.3389  0.3876  0.3899
  607MOL0     O83636   4.698   0.772  10.380  0.0039 -0.1988  0.7350
  607MOL0     C83637   4.821   0.813  10.332 -0.5582  0.5481 -0.1808
  607MOL0     C83638   4.919   0.865  10.439 -0.1074  0.4457 -0.6993
  607MOL0     C83639   4.873   0.994  10.492  0.0227 -1.2363  0.2194
  607MOL0     C83640   4.931   1.023  10.627  0.2100 -0.2038  0.4615
  607MOL0     C83641   4.868   1.155  10.679  0.4650  0.0817 -0.4181
  607MOL0     C83642   4.957   1.192  10.797  1.1868 -0.1161  0.0683
  607MOL0     C83643   4.879   1.298  10.885  0.2245  0.5682  0.0130
  607MOL0     C83644   4.781   1.226  10.977 -0.2710  0.3623  0.5012
  607MOL0     N83645   4.680   1.315  11.038  0.7288 -0.5872  0.2181
  607MOL0     C83646   4.557   1.353  10.985  0.6358  0.2880 -0.1429
  607MOL0     C83647   4.494   1.419  11.085 -0.4391 -0.3814  0.0040
  607MOL0     C83648   4.358   1.479  11.079 -0.5316  0.1410 -0.8121
  607MOL0     C83649   4.346   1.582  10.966  0.1479 -1.0124 -0.4155
  607MOL0     C83650   4.433   1.714  10.978 -0.0137  0.1269 -0.8012
  607MOL0     C83651   4.575   1.712  10.911  0.3551  0.4057  0.0868
  607MOL0     O83652   4.563   1.669  10.776  0.1547  0.6204 -0.0284
  607MOL0     C83653   4.676   1.620  10.723 -0.0561  0.0816  0.0027
  607MOL0     C83654   4.660   1.552  10.605  0.0720  0.2560  0.4959
  607MOL0     C83655   4.767   1.488  10.532 -0.0736  0.4975  0.2346
  607MOL0     C83656   4.731   1.415  10.402  0.2491  0.1995 -0.1388
  607MOL0     C83657   4.898   1.502  10.576 -0.8844 -0.0915 -0.6371
  607MOL0     C83658   5.021   1.443  10.507  0.2313 -0.4663 -0.0419
  607MOL0     O83659   5.125   1.425  10.598 -0.3744  0.3710  0.9106
  607MOL0     C83660   5.239   1.347  10.564  0.0854 -0.3293  1.0203
  607MOL0     C83661   5.228   1.221  10.511 -1.0263  0.4677 -0.7571
  607MOL0     C83662   5.331   1.133  10.508  0.6361  0.3388 -0.1450
  607MOL0     C83663   5.456   1.171  10.550  0.5839  0.7659  1.3628
  607MOL0     O83664   5.551   1.070  10.547 -0.6744  0.6040  0.7000
  607MOL0     C83665   5.689   1.110  10.552 -0.7778 -0.2226 -0.2787
  607MOL0     C83666   5.745   1.145  10.412 -0.0663  0.0934  0.0508
  607MOL0     C83667   5.898   1.146  10.399  1.6216 -0.1801  0.2997
  607MOL0     C83668   5.953   1.231  10.515 -0.4235  0.7854 -0.5528
  607MOL0     C83669   6.099   1.259  10.482 -0.0518 -0.2575  0.6857
  607MOL0     C83670   6.167   1.360  10.578  0.1242  0.1964  0.0155
  607MOL0     C83671   6.299   1.420  10.520  0.0004  0.7644  0.2966
  607MOL0     C83672   6.330   1.558  10.573  0.7035 -0.0874 -0.5246
  607MOL0    Cl83673   6.491   1.590  10.519  0.7019  0.2861  0.1023
  607MOL0     C83674   5.472   1.299  10.598 -0.0926  0.2080 -1.2903
  607MOL0     C83675   5.361   1.388  10.611 -0.4261  0.0344 -0.1022
  607MOL0     O83676   5.012   1.407  10.386 -0.1032  0.2346 -0.0420
  607MOL0     C83677   4.912   1.585  10.693 -0.3911 -0.1772  0.2509
  607MOL0     C83678   4.809   1.633  10.769  0.2391 -0.2211 -0.2088
  607MOL0     N83679   4.587   1.436  11.184  0.6740 -0.9098  0.1344
  607MOL0     N83680   4.704   1.391  11.152  0.0919 -0.5105  0.1112
  607MOL0     C83681   4.748   0.533  10.434  0.6654 -0.6214 -0.2188
  607MOL0     C83682   4.690   0.417  10.478  0.4468  0.5117 -0.6802
  607MOL0     C83683   4.355   0.083  10.488  0.1158 -0.3368  1.2026
  607MOL0     C83684   4.456   0.006  10.549 -0.1711  0.8666 -0.0381
  607MOL0     C83685   4.445  -0.135  10.573 -0.3440 -1.9635 -0.1724
  607MOL0     C83686   4.327  -0.197  10.532  0.2818 -0.0244  1.1508
  607MOL0     O83687   4.312  -0.332  10.538  0.0269  0.0898 -0.2546
  607MOL0     C83688   4.199  -0.389  10.463 -0.3699  0.2832  0.2865
  607MOL0     C83689   4.193  -0.546  10.484 -0.5732  0.2229  0.3109
  607MOL0     C83690   4.082  -0.606  10.387  0.4554 -0.9780 -1.0945
  607MOL0     C83691   4.080  -0.761  10.417  0.0471  0.4225 -0.2553
  607MOL0     C83692   3.986  -0.773  10.523 -0.3911 -0.1304 -0.9172
  607MOL0     C83693   3.898  -0.780  10.614 -0.3980  0.4436 -0.6211
  607MOL0     C83694   4.222  -0.114  10.456 -0.4551 -0.0205 -0.1704
  607MOL0     C83695   4.235   0.021  10.444 -0.6797  0.3145  0.4613
  607MOL0     C83696   4.123   0.093  10.367  1.0835  0.7114 -0.2769
  607MOL0     H83697   4.366   0.510  10.495 -0.2994  0.7964 -1.1277
  607MOL0     H83698   4.465   0.734  10.466 -0.5781  0.9387 -0.1489
  607MOL0     H83699   4.802   0.898  10.265  1.4217  2.8029  1.9153
  607MOL0     H83700   4.869   0.744  10.262  1.6386  1.1166  0.6825
  607MOL0     H83701   4.933   0.780  10.508 -1.4105 -0.6481 -1.7169
  607MOL0     H83702   5.021   0.883  10.405  0.3283  0.5907  0.6077
  607MOL0     H83703   4.907   1.080  10.434 -0.6279 -0.9262  0.2839
  607MOL0     H83704   4.764   0.987  10.505  0.0641 -0.8498  0.8111
  607MOL0     H83705   4.901   0.940  10.692 -1.7751 -0.7901 -1.0998
  607MOL0     H83706   5.040   1.024  10.619  0.1937  0.7291  0.3079
  607MOL0     H83707   4.766   1.125  10.706 -0.5429  2.7393 -1.0144
  607MOL0     H83708   4.862   1.230  10.600 -1.0221 -1.4831 -1.9120
  607MOL0     H83709   4.978   1.100  10.851  0.6026 -0.4082 -0.1889
  607MOL0     H83710   5.051   1.232  10.758  1.2348  0.7266  1.0014
  607MOL0     H83711   4.816   1.368  10.828 -1.8250 -1.5580 -0.5116
  607MOL0     H83712   4.955   1.341  10.950  0.8983 -0.2959 -0.1822
  607MOL0     H83713   4.729   1.141  10.933 -0.3799 -1.0735  3.1626
  607MOL0     H83714   4.839   1.185  11.060 -1.3059  0.3828  1.2589
  607MOL0     H83715   4.512   1.327  10.890  0.0312  1.4254 -0.1833
  607MOL0     H83716   4.338   1.520  11.178  1.3662 -0.0704 -0.3157
  607MOL0     H83717   4.292   1.393  11.070 -0.9229  0.1627  1.4228
  607MOL0     H83718   4.371   1.532  10.872 -3.5847 -0.2304 -1.9742
  607MOL0     H83719   4.238   1.599  10.963  0.3887  1.0775  0.5094
  607MOL0     H83720   4.371   1.796  10.940 -1.6423  0.5673  2.4621
  607MOL0     H83721   4.452   1.720  11.085  1.7400  0.2937 -1.0973
  607MOL0     H83722   4.637   1.802  10.924  0.6345  0.2454 -0.1067
  607MOL0     H83723   4.629   1.633  10.964 -1.5886 -2.1161 -1.4787
  607MOL0     H83724   4.556   1.542  10.575  0.8812  1.7676 -3.4585
  607MOL0     H83725   4.748   1.307  10.400 -1.8277 -0.3291  2.9478
  607MOL0     H83726   4.781   1.465  10.319 -1.3139  0.3450 -1.0262
  607MOL0     H83727   4.629   1.433  10.366 -0.1191 -1.2627  0.0839
  607MOL0     H83728   5.124   1.200  10.487 -1.5171 -0.5577  1.9104
  607MOL0     H83729   5.311   1.035  10.465 -0.8306  1.1138 -1.2981
  607MOL0     H83730   5.706   1.194  10.621 -3.3948 -1.1843  1.6866
  607MOL0     H83731   5.747   1.026  10.592  1.8741  0.1566 -2.9972
  607MOL0     H83732   5.708   1.064  10.348  1.3030 -0.3132 -0.2573
  607MOL0     H83733   5.700   1.236  10.372 -0.6066  0.0772  0.6066
  607MOL0     H83734   5.929   1.167  10.296  0.9921 -0.7569 -0.0229
  607MOL0     H83735   5.930   1.042  10.416 -1.5972 -1.0752  1.6643
  607MOL0     H83736   5.948   1.183  10.613 -1.9096  1.5526 -0.2266
  607MOL0     H83737   5.903   1.327  10.527 -2.3475  0.1253 -2.7039
  607MOL0     H83738   6.156   1.166  10.492  0.4563  0.2683  3.7110
  607MOL0     H83739   6.093   1.295  10.379 -2.8299  1.0288  1.1888
  607MOL0     H83740   6.191   1.303  10.668  2.6167 -0.0013 -0.6941
  607MOL0     H83741   6.094   1.438  10.600 -1.7765 -0.7758 -2.3314
  607MOL0     H83742   6.284   1.419  10.411  3.9983 -0.4031 -0.4289
  607MOL0     H83743   6.387   1.356  10.533  0.2733  0.9533 -0.5599
  607MOL0     H83744   6.319   1.563  10.682 -2.3603 -2.4919 -0.5744
  607MOL0     H83745   6.257   1.624  10.527 -1.4194 -3.9223 -3.2275
  607MOL0     H83746   5.569   1.333  10.634  0.6560  1.4992 -4.1957
  607MOL0     H83747   5.370   1.489  10.651 -0.5602  0.0557 -0.1244
  607MOL0     H83748   5.014   1.578  10.730 -0.2247 -0.4261 -0.2419
  607MOL0     H83749   4.844   1.684  10.858  2.3637 -1.7508 -0.0966
  607MOL0     H83750   4.853   0.524  10.406  0.8063  0.8004 -0.2631
  607MOL0     H83751   4.752   0.331  10.503 -2.1202 -0.4501  3.1961
  607MOL0     H83752   4.550   0.053  10.578  2.6073 -2.4357 -2.6758
  607MOL0     H83753   4.525  -0.191  10.620  0.7654 -0.9030 -0.7619
  607MOL0     H83754   4.100  -0.353  10.494 -0.8754  0.8613 -1.8128
  607MOL0     H83755   4.224  -0.364  10.359  0.7466 -0.5912  0.3288
  607MOL0     H83756   4.174  -0.563  10.590  1.1498  0.8521  0.7558
  607MOL0     H83757   4.289  -0.593  10.463  0.9051  3.8273 -2.0051
  607MOL0     H83758   3.987  -0.560  10.415 -0.4451 -1.4568 -3.1588
  607MOL0     H83759   4.094  -0.574  10.283 -2.3841  1.6471 -0.7443
  607MOL0     H83760   4.174  -0.804  10.453  1.4634  2.5736 -1.1531
  607MOL0     H83761   4.042  -0.810  10.327  0.9227 -2.9251  1.0581
  607MOL0     H83762   3.826  -0.805  10.689  1.3482 -2.4654  0.2385
  607MOL0     H83763   4.130  -0.152  10.414 -0.3991 -0.5172  0.1520
  607MOL0     H83764   4.154   0.113  10.264  1.1608  0.1662 -0.3629
  607MOL0     H83765   4.037   0.027  10.375  1.5857 -0.0153 -0.8067
  607MOL0     H83766   4.090   0.184  10.419 -0.0361  0.2471 -0.1654
  608MOL0     O83767   6.829   4.915   7.319 -0.5896  0.2164 -0.1105
  608MOL0     C83768   6.792   4.870   7.429 -0.1646 -0.6941  0.8579
  608MOL0     O83769   6.826   4.912   7.549 -0.3493 -0.6394 -0.1275
  608MOL0     C83770   6.917   5.023   7.557  0.2977  0.0912  0.3406
  608MOL0     C83771   7.032   5.002   7.634  0.5375  0.4280 -0.1045
  608MOL0     C83772   7.124   5.109   7.642  0.2758 -0.0206  0.1027
  608MOL0     C83773   7.096   5.230   7.566 -0.0220  0.3114 -0.4959
  608MOL0     O83774   7.172   5.342   7.583 -0.3781 -0.4761  0.2665
  608MOL0     C83775   7.262   5.370   7.692 -0.4702  0.2638 -0.3317
  608MOL0     C83776   7.411   5.386   7.641 -0.7022  1.2178 -0.4474
  608MOL0     C83777   7.430   5.519   7.563  0.3749  0.1253 -0.5243
  608MOL0     C83778   7.546   5.513   7.462 -0.2789 -0.4356 -0.3216
  608MOL0     C83779   7.598   5.647   7.414  0.1784 -0.2495 -0.2289
  608MOL0     C83780   7.701   5.631   7.295  0.6644  0.3703 -0.2330
  608MOL0     C83781   7.831   5.577   7.349 -0.0645 -0.6213  0.4377
  608MOL0     C83782   7.948   5.560   7.247  1.0691  0.1943  1.2859
  608MOL0     N83783   8.043   5.476   7.318 -0.9601  0.1075 -0.0279
  608MOL0     C83784   8.169   5.509   7.364  0.6521  0.4638 -0.5052
  608MOL0     C83785   8.228   5.396   7.395 -0.2894  0.2245 -0.1545
  608MOL0     C83786   8.366   5.393   7.452 -0.4519  0.4082  0.5454
  608MOL0     C83787   8.396   5.498   7.565 -0.8548 -0.4551 -0.6224
  608MOL0     C83788   8.302   5.500   7.690 -0.6810  0.5407  0.4261
  608MOL0     C83789   8.358   5.572   7.815 -0.1886  0.8421  0.1901
  608MOL0     O83790   8.265   5.596   7.919 -0.1884 -0.2846  0.1711
  608MOL0     C83791   8.253   5.499   8.012  0.0650  0.4222 -0.1478
  608MOL0     C83792   8.232   5.547   8.140  0.4342  0.0151  1.0116
  608MOL0     C83793   8.234   5.472   8.254  0.2665  0.1202  0.5791
  608MOL0     C83794   8.211   5.537   8.391 -0.3240  0.0670 -0.5632
  608MOL0     C83795   8.259   5.330   8.243 -1.0959  0.5389  0.6184
  608MOL0     C83796   8.266   5.227   8.354  0.2121  0.4662  0.0761
  608MOL0     O83797   8.276   5.274   8.484  0.3381  0.3406  1.3125
  608MOL0     C83798   8.292   5.185   8.596 -0.0465  0.3032  0.1080
  608MOL0     C83799   8.230   5.066   8.634 -0.4426  0.2094  0.2886
  608MOL0     C83800   8.273   4.994   8.751 -0.0155 -0.0492 -1.0445
  608MOL0     C83801   8.370   5.050   8.839 -0.1887 -0.2077 -0.9055
  608MOL0     O83802   8.422   4.964   8.933 -0.4812  0.1396 -0.1313
  608MOL0     C83803   8.505   5.010   9.050 -0.7329 -1.4224  0.3354
  608MOL0     C83804   8.546   4.887   9.143  0.0754 -0.3192  0.0349
  608MOL0     C83805   8.593   4.926   9.283 -0.3009 -0.0416  0.8624
  608MOL0     C83806   8.742   4.951   9.294  0.0584 -0.1302  1.1789
  608MOL0     C83807   8.784   4.947   9.438 -0.4310 -0.4827  0.3846
  608MOL0     C83808   8.931   4.936   9.453  0.0248 -0.4851 -1.0318
  608MOL0     C83809   8.982   4.967   9.596  0.4522 -0.7398 -0.5209
  608MOL0     C83810   9.136   4.968   9.604  0.0102 -1.7773 -0.7651
  608MOL0    Cl83811   9.214   4.801   9.564  0.0231 -0.2986  0.6067
  608MOL0     C83812   8.416   5.186   8.814 -0.4989  0.4955 -0.3099
  608MOL0     C83813   8.363   5.247   8.699  0.2797  0.7439  0.2317
  608MOL0     O83814   8.268   5.108   8.322 -0.8552 -0.4554  0.1838
  608MOL0     C83815   8.271   5.282   8.113 -0.0978 -0.6693  0.5552
  608MOL0     C83816   8.268   5.366   7.995 -1.0028  0.3266 -0.2830
  608MOL0     N83817   8.143   5.288   7.360 -0.0705  0.2362 -0.4298
  608MOL0     N83818   8.030   5.335   7.326  0.2752 -1.0135  0.1522
  608MOL0     C83819   6.982   5.239   7.482  0.0614  0.6729 -1.6509
  608MOL0     C83820   6.892   5.138   7.484 -0.7309  0.0001  0.3289
  608MOL0     C83821   6.688   4.759   7.410 -0.3649 -0.2503  0.0071
  608MOL0     C83822   6.663   4.670   7.522 -0.0704 -0.0940 -0.4385
  608MOL0     C83823   6.581   4.561   7.501  0.1058  0.0970  0.4470
  608MOL0     C83824   6.530   4.518   7.376 -0.2701 -0.1376  0.0596
  608MOL0     O83825   6.448   4.414   7.379 -0.0971  0.0906 -0.2082
  608MOL0     C83826   6.427   4.334   7.264  0.5911 -0.5208 -1.1051
  608MOL0     C83827   6.328   4.223   7.290  0.3091  0.6813  0.6072
  608MOL0     C83828   6.187   4.295   7.284  0.6727 -0.1020  0.1148
  608MOL0     C83829   6.074   4.198   7.321 -0.1261  0.1300  0.0805
  608MOL0     C83830   5.951   4.263   7.273 -1.0957 -0.3296  0.1829
  608MOL0     C83831   5.863   4.344   7.248 -1.0966  1.1334  0.0306
  608MOL0     C83832   6.543   4.608   7.272  0.2208  0.2627 -0.4254
  608MOL0     C83833   6.624   4.725   7.288 -0.1401  0.0924 -0.5765
  608MOL0     C83834   6.632   4.817   7.168  0.3543  0.9536 -0.3590
  608MOL0     H83835   7.039   4.909   7.690  0.2754  0.7593  0.4865
  608MOL0     H83836   7.216   5.090   7.698  1.6476 -0.6372 -2.2157
  608MOL0     H83837   7.250   5.301   7.777  1.1995 -0.7183 -0.8365
  608MOL0     H83838   7.230   5.462   7.741  2.1197 -0.3522  2.9145
  608MOL0     H83839   7.480   5.382   7.726  2.4654 -2.9723 -2.8623
  608MOL0     H83840   7.428   5.303   7.571  0.9972  3.3363 -2.7596
  608MOL0     H83841   7.335   5.539   7.513 -1.1562  0.6582  2.3271
  608MOL0     H83842   7.437   5.602   7.634  2.3417  0.1153 -0.6505
  608MOL0     H83843   7.625   5.453   7.507 -2.6521 -3.0101  0.7020
  608MOL0     H83844   7.515   5.455   7.374  1.6833 -1.1925 -0.5515
  608MOL0     H83845   7.648   5.697   7.498  1.4602  1.9223 -2.1921
  608MOL0     H83846   7.513   5.704   7.375 -0.8561 -1.1435  0.6381
  608MOL0     H83847   7.647   5.566   7.226  2.1991  0.7210 -1.8403
  608MOL0     H83848   7.715   5.728   7.247  1.5042 -0.2953 -1.3782
  608MOL0     H83849   7.807   5.473   7.372  1.2140 -0.8946  0.6281
  608MOL0     H83850   7.869   5.633   7.435  0.5309  1.7446 -1.2537
  608MOL0     H83851   7.915   5.513   7.154  3.0037  0.5439  0.3833
  608MOL0     H83852   7.990   5.654   7.209  1.3355 -0.3857  0.1136
  608MOL0     H83853   8.218   5.605   7.383 -0.4441  0.9462 -0.0202
  608MOL0     H83854   8.432   5.405   7.366  0.2639 -3.0342  0.4396
  608MOL0     H83855   8.379   5.290   7.489 -0.1562  1.2379  2.9503
  608MOL0     H83856   8.500   5.479   7.594 -0.5147  1.3402 -0.5831
  608MOL0     H83857   8.395   5.597   7.520 -0.1883 -0.0801  0.1629
  608MOL0     H83858   8.217   5.554   7.647  2.0593  1.0734 -5.2001
  608MOL0     H83859   8.275   5.395   7.706  2.6896 -0.5217 -0.1672
  608MOL0     H83860   8.437   5.508   7.856 -0.1545 -0.1730 -1.3824
  608MOL0     H83861   8.391   5.671   7.781 -1.6729  0.2627 -3.3423
  608MOL0     H83862   8.211   5.653   8.156 -2.5539 -0.6180  2.0180
  608MOL0     H83863   8.109   5.521   8.428 -0.2655 -2.3403 -1.2942
  608MOL0     H83864   8.240   5.642   8.383 -0.5835  0.0794 -1.4652
  608MOL0     H83865   8.282   5.494   8.462  0.0315 -0.8524 -1.4592
  608MOL0     H83866   8.162   5.011   8.569 -1.7002 -0.6550  2.2369
  608MOL0     H83867   8.226   4.899   8.776 -2.1693  1.3522  0.5863
  608MOL0     H83868   8.584   5.076   9.013 -2.5691 -0.1043 -1.4165
  608MOL0     H83869   8.441   5.074   9.112  1.5261  0.9362  0.3976
  608MOL0     H83870   8.456   4.826   9.156  0.8509 -1.3330  0.7472
  608MOL0     H83871   8.624   4.827   9.094  0.9680  1.1799 -0.4492
  608MOL0     H83872   8.561   4.850   9.353  0.8145 -1.8476 -0.4996
  608MOL0     H83873   8.540   5.018   9.311 -2.3940 -0.4230 -1.4513
  608MOL0     H83874   8.772   5.045   9.246  0.7124 -1.7685 -1.8769
  608MOL0     H83875   8.783   4.869   9.235  0.4742  1.2499 -0.5160
  608MOL0     H83876   8.748   5.042   9.479 -1.2760 -0.8971  0.6197
  608MOL0     H83877   8.740   4.861   9.489  0.2680  0.0190  1.8815
  608MOL0     H83878   8.980   5.007   9.386  2.3990  1.0735  2.0596
  608MOL0     H83879   8.961   4.841   9.409 -0.4876 -0.0793 -2.2943
  608MOL0     H83880   8.934   4.902   9.670 -2.9765  2.3061  0.2022
  608MOL0     H83881   8.940   5.063   9.626 -3.6801 -3.0567  2.2240
  608MOL0     H83882   9.158   4.980   9.711 -3.5858 -2.4538  0.1953
  608MOL0     H83883   9.192   5.045   9.550  1.8331 -1.5815  1.2393
  608MOL0     H83884   8.493   5.232   8.874 -1.2095  3.5452 -1.5803
  608MOL0     H83885   8.388   5.352   8.694  0.0283  0.8674  1.4250
  608MOL0     H83886   8.283   5.176   8.092 -1.4777 -0.6990 -0.1808
  608MOL0     H83887   8.290   5.315   7.901  0.3202 -2.7930  1.5727
  608MOL0     H83888   6.972   5.328   7.420  0.3870  0.8289 -1.4845
  608MOL0     H83889   6.797   5.129   7.433 -1.6369  1.0881  1.7529
  608MOL0     H83890   6.706   4.681   7.621  1.3340 -1.3385 -0.8823
  608MOL0     H83891   6.555   4.495   7.583  0.0752 -0.0022  0.3579
  608MOL0     H83892   6.383   4.397   7.186 -1.9015 -1.2136 -0.3631
  608MOL0     H83893   6.521   4.299   7.221 -1.0892 -1.4833 -4.3777
  608MOL0     H83894   6.351   4.171   7.383  1.8796  1.1967  0.5459
  608MOL0     H83895   6.342   4.149   7.210  1.8464  1.0062  0.5365
  608MOL0     H83896   6.185   4.362   7.371 -0.1005 -1.9939  1.6296
  608MOL0     H83897   6.174   4.346   7.188  3.3196 -0.5187 -0.5221
  608MOL0     H83898   6.069   4.174   7.427  2.1837  0.1798  0.2402
  608MOL0     H83899   6.081   4.102   7.269 -1.2432 -0.3895  0.8680
  608MOL0     H83900   5.780   4.411   7.237 -1.6485  0.7642  1.6864
  608MOL0     H83901   6.492   4.593   7.178  0.3468  2.8422 -0.9975
  608MOL0     H83902   6.550   4.790   7.100  0.4192  1.0485 -0.4748
  608MOL0     H83903   6.613   4.921   7.195 -1.9880  0.4003  0.4188
  608MOL0     H83904   6.731   4.814   7.122  1.1579  0.2464  1.3333
  609MOL0     O83905   0.847   9.051  10.177  0.4319 -0.5762  0.0057
  609MOL0     C83906   0.768   9.128  10.230  0.2997  0.5571  0.2139
  609MOL0     O83907   0.795   9.218  10.328 -0.1853 -0.1383  0.0547
  609MOL0     C83908   0.923   9.220  10.387  0.3214 -1.0171 -0.3998
  609MOL0     C83909   0.977   9.345  10.412 -0.7026 -0.5113 -0.1861
  609MOL0     C83910   1.106   9.360  10.475  0.6833 -0.1962 -0.2858
  609MOL0     C83911   1.168   9.247  10.529 -1.0152  0.7335  0.0803
  609MOL0     O83912   1.290   9.274  10.582  0.4748 -0.6358 -0.4319
  609MOL0     C83913   1.315   9.211  10.712 -0.1706  0.9378  0.1054
  609MOL0     C83914   1.207   9.268  10.816  0.3863  0.2798 -0.0850
  609MOL0     C83915   1.174   9.416  10.813 -0.0861 -0.4947 -0.0140
  609MOL0     C83916   1.113   9.474  10.942 -0.5146  0.7487  0.2315
  609MOL0     C83917   1.072   9.620  10.930  0.6183 -0.2255 -0.6464
  609MOL0     C83918   0.917   9.623  10.911 -0.4430  0.7433  0.1837
  609MOL0     C83919   0.865   9.765  10.903 -0.5406  0.6565  0.5815
  609MOL0     C83920   0.710   9.760  10.883  0.4285 -0.4187  0.7170
  609MOL0     N83921   0.635   9.891  10.867  0.1190  0.6236 -0.5488
  609MOL0     C83922   0.681  10.011  10.919  0.1538  0.0571 -0.2212
  609MOL0     C83923   0.610  10.103  10.853  0.1858  0.2812 -0.5255
  609MOL0     C83924   0.637  10.247  10.882 -0.2453  0.0552  0.0146
  609MOL0     C83925   0.531  10.351  10.834  0.8596  0.6191  0.0609
  609MOL0     C83926   0.386  10.315  10.869  0.8798  0.1977  1.1990
  609MOL0     C83927   0.376  10.257  11.007 -0.0614 -0.5538  0.2445
  609MOL0     O83928   0.418  10.341  11.110  0.5472  0.0334  0.1299
  609MOL0     C83929   0.472  10.288  11.223 -0.0467  0.3555  0.4785
  609MOL0     C83930   0.502  10.383  11.315  0.4657 -0.5101 -0.6646
  609MOL0     C83931   0.561  10.351  11.440  0.5561  0.9725 -1.1581
  609MOL0     C83932   0.564  10.462  11.542  0.4595 -0.6783 -0.2800
  609MOL0     C83933   0.600  10.220  11.471  0.3548 -0.3434 -0.1493
  609MOL0     C83934   0.666  10.181  11.588 -0.3606 -0.1502  0.7096
  609MOL0     O83935   0.652  10.047  11.629 -0.3510 -0.0752  0.0232
  609MOL0     C83936   0.720   9.988  11.727  0.0193  0.3409  0.2049
  609MOL0     C83937   0.774  10.043  11.849  0.1071  0.7182 -0.9959
  609MOL0     C83938   0.842   9.957  11.944  0.5778 -1.2941 -0.0215
  609MOL0     C83939   0.835   9.820  11.928  0.5022  0.5361  0.1807
  609MOL0     O83940   0.903   9.729  12.005 -0.0918 -0.5209 -0.0955
  609MOL0     C83941   0.834   9.688  12.123  0.0110  0.8203 -0.0399
  609MOL0     C83942   0.910   9.565  12.186 -0.5126  0.0825 -0.0670
  609MOL0     C83943   0.873   9.566  12.337 -0.7076 -0.2989  0.7485
  609MOL0     C83944   0.727   9.523  12.363  0.1688 -0.4508  0.5121
  609MOL0     C83945   0.697   9.382  12.321 -0.2251  0.6333 -0.1186
  609MOL0     C83946   0.567   9.328  12.381  0.6134 -0.8796  0.4838
  609MOL0     C83947   0.432   9.397  12.353 -0.7102 -0.2946 -0.7002
  609MOL0     C83948   0.313   9.304  12.394 -0.7872  0.8767  0.1918
  609MOL0    Cl83949   0.174   9.398  12.378  0.4547 -0.2555  0.0018
  609MOL0     C83950   0.768   9.761  11.818  0.5468 -0.1576 -0.0277
  609MOL0     C83951   0.717   9.846  11.714 -0.2287 -0.5953 -0.1363
  609MOL0     O83952   0.746  10.261  11.632  0.3879  0.2834 -0.3916
  609MOL0     C83953   0.550  10.121  11.380 -0.7165 -0.9566 -0.0893
  609MOL0     C83954   0.482  10.150  11.263  0.3510 -0.2463 -0.4524
  609MOL0     N83955   0.522  10.043  10.758 -0.8064 -0.1173 -0.3746
  609MOL0     N83956   0.539   9.917  10.772  0.0022 -0.2007  0.3036
  609MOL0     C83957   1.116   9.113  10.494 -1.0616 -0.1802  0.4343
  609MOL0     C83958   0.997   9.107  10.432 -1.5279  0.3326 -0.3499
  609MOL0     C83959   0.623   9.115  10.189 -0.9502 -0.3541 -0.6584
  609MOL0     C83960   0.534   9.156  10.286  0.2446 -0.2223  0.3795
  609MOL0     C83961   0.395   9.152  10.280 -0.4490 -0.2213  1.2490
  609MOL0     C83962   0.334   9.114  10.159 -0.8290 -0.0391  0.1873
  609MOL0     O83963   0.200   9.125  10.146  0.3619 -0.1325  0.1051
  609MOL0     C83964   0.125   9.033  10.074  0.1057  0.3440 -0.1330
  609MOL0     C83965   0.131   8.886  10.121  0.9494  0.0719 -0.2734
  609MOL0     C83966   0.083   8.868  10.263 -0.3212 -0.4451 -0.5096
  609MOL0     C83967   0.087   8.727  10.311  0.6553  0.1749  0.2205
  609MOL0     C83968   0.227   8.681  10.315  1.3146  0.7095  0.2072
  609MOL0     C83969   0.331   8.625  10.311 -0.6974 -0.7191 -0.5217
  609MOL0     C83970   0.418   9.066  10.047 -0.3299 -0.1125 -1.4820
  609MOL0     C83971   0.561   9.073  10.067  0.2411 -0.2267 -0.8247
  609MOL0     C83972   0.646   9.034   9.952  0.7879  0.8399  0.4522
  609MOL0     H83973   0.921   9.435  10.388  0.1187 -0.0972 -0.5715
  609MOL0     H83974   1.148   9.460  10.478  0.4021 -0.0732 -0.4333
  609MOL0     H83975   1.410   9.247  10.754  0.2071 -1.7197  1.7611
  609MOL0     H83976   1.322   9.102  10.701 -0.0109  1.1481 -2.6389
  609MOL0     H83977   1.115   9.211  10.805  0.3020  0.1403  1.1476
  609MOL0     H83978   1.231   9.237  10.919 -2.7972 -1.4018  0.2761
  609MOL0     H83979   1.273   9.460  10.797  0.0294 -0.6529  0.2705
  609MOL0     H83980   1.112   9.435  10.724  0.9126  1.3121 -0.3557
  609MOL0     H83981   1.036   9.403  10.973  1.9986 -2.0001  0.6717
  609MOL0     H83982   1.191   9.474  11.019 -1.7678 -1.8127  1.6444
  609MOL0     H83983   1.117   9.675  10.846 -2.6027  1.3465 -1.5278
  609MOL0     H83984   1.096   9.671  11.024  2.2378 -2.1807  0.0930
  609MOL0     H83985   0.899   9.569  10.817  0.2418  1.9350 -0.6567
  609MOL0     H83986   0.867   9.571  10.994 -1.0491 -1.1983 -1.3106
  609MOL0     H83987   0.907   9.822  10.821 -2.4183  1.0659 -0.1567
  609MOL0     H83988   0.888   9.812  10.999  1.1786 -0.7303  0.8849
  609MOL0     H83989   0.687   9.702  10.793  1.5620  1.8773 -1.1666
  609MOL0     H83990   0.666   9.716  10.973  0.8397  2.9466  2.7544
  609MOL0     H83991   0.756  10.035  10.994  0.2324  0.8768 -0.5490
  609MOL0     H83992   0.734  10.281  10.844  0.9737 -2.2442  0.8915
  609MOL0     H83993   0.664  10.252  10.988 -1.0912 -1.9522  0.3692
  609MOL0     H83994   0.553  10.451  10.872 -2.1351  1.6228 -0.5833
  609MOL0     H83995   0.530  10.350  10.725 -2.2613 -0.2468 -0.0104
  609MOL0     H83996   0.326  10.407  10.874 -1.5440 -0.9365 -2.4526
  609MOL0     H83997   0.343  10.247  10.794 -0.9610  1.3130  1.1704
  609MOL0     H83998   0.270  10.243  11.032 -1.0620  3.1411 -1.1832
  609MOL0     H83999   0.426  10.160  11.010  0.7145 -0.2576 -1.6402
  609MOL0     H84000   0.466  10.484  11.299 -1.1337 -0.6851  1.4022
  609MOL0     H84001   0.668  10.490  11.562  0.7639 -2.0352  0.1596
  609MOL0     H84002   0.516  10.447  11.639 -0.0857  1.8795 -0.0946
  609MOL0     H84003   0.514  10.546  11.494 -1.0821  0.4870  3.0665
  609MOL0     H84004   0.770  10.149  11.872  0.6946 -0.0249  3.4078
  609MOL0     H84005   0.891   9.986  12.036 -3.2493 -1.7423  2.3973
  609MOL0     H84006   0.820   9.754  12.209 -1.7903 -0.4749  0.7458
  609MOL0     H84007   0.735   9.645  12.105  0.9905 -1.6689  0.1096
  609MOL0     H84008   0.873   9.471  12.146 -0.7722 -0.1608  0.7109
  609MOL0     H84009   1.016   9.577  12.162 -0.3831  1.2658  0.9854
  609MOL0     H84010   0.898   9.668  12.368 -2.5640  1.5318 -3.0904
  609MOL0     H84011   0.939   9.500  12.393 -0.9340 -0.2637  1.0639
  609MOL0     H84012   0.656   9.584  12.307 -1.7292 -1.4396  1.7460
  609MOL0     H84013   0.709   9.545  12.469  0.0627  1.2416  0.1831
  609MOL0     H84014   0.687   9.373  12.212  0.0441 -4.3610  0.0178
  609MOL0     H84015   0.782   9.319  12.351  0.1041  0.9162 -0.4361
  609MOL0     H84016   0.573   9.316  12.489 -2.4771  1.3994  1.0299
  609MOL0     H84017   0.559   9.226  12.342 -1.4156 -0.9596  1.0255
  609MOL0     H84018   0.417   9.422  12.248 -1.5909  0.1299 -0.4892
  609MOL0     H84019   0.435   9.494  12.405 -3.1399 -2.3296  3.8336
  609MOL0     H84020   0.332   9.264  12.494 -0.6594 -1.4732 -0.7136
  609MOL0     H84021   0.309   9.214  12.332  2.5953  0.5770  0.2139
  609MOL0     H84022   0.770   9.652  11.812 -1.6799 -0.1944 -0.9433
  609MOL0     H84023   0.669   9.802  11.627  0.7408 -0.0132 -0.9877
  609MOL0     H84024   0.577  10.017  11.396  2.4450 -0.3017 -0.5771
  609MOL0     H84025   0.458  10.069  11.195  1.5222  0.6179 -1.9979
  609MOL0     H84026   1.169   9.030  10.540  0.4190  1.2994  1.4919
  609MOL0     H84027   0.958   9.006  10.425  2.4229 -1.5101  1.5220
  609MOL0     H84028   0.584   9.178  10.380  3.9090  0.0383 -1.4513
  609MOL0     H84029   0.342   9.173  10.372 -1.3342 -0.5646  0.8235
  609MOL0     H84030   0.024   9.074  10.067  0.2102  0.4342 -1.3584
  609MOL0     H84031   0.173   9.036   9.976  2.2250  0.8984  0.8598
  609MOL0     H84032   0.235   8.858  10.107  1.9335  2.2573  1.9595
  609MOL0     H84033   0.063   8.822  10.064  0.7804 -0.0396  0.0495
  609MOL0     H84034   0.148   8.935  10.322  0.4636  0.6500 -2.5308
  609MOL0     H84035  -0.016   8.911  10.274  0.4458  1.4800 -0.7910
  609MOL0     H84036   0.029   8.661  10.247 -2.3263  3.1335 -0.3857
  609MOL0     H84037   0.046   8.732  10.412  1.7169  1.5576  0.6180
  609MOL0     H84038   0.420   8.569  10.332  0.9055  2.2675  1.2990
  609MOL0     H84039   0.372   9.017   9.962 -2.1326 -1.1536  0.0051
  609MOL0     H84040   0.745   9.076   9.934  1.4582 -1.4507 -1.7914
  609MOL0     H84041   0.664   8.926   9.946 -1.5463  0.4447 -0.8553
  609MOL0     H84042   0.589   9.051   9.860 -2.9266 -3.9510  1.4566
  610MOL0     O84043   8.534   7.601   0.618  0.4116  0.3016 -0.7943
  610MOL0     C84044   8.457   7.668   0.548 -0.2311 -0.1471  0.4816
  610MOL0     O84045   8.494   7.740   0.436 -0.5678  0.9467 -0.3469
  610MOL0     C84046   8.620   7.735   0.383  0.0142  0.4087 -0.6236
  610MOL0     C84047   8.660   7.850   0.310 -0.2862 -0.3288  0.0027
  610MOL0     C84048   8.794   7.849   0.256  0.8631 -0.1668  0.5320
  610MOL0     C84049   8.875   7.739   0.256 -0.0792 -0.4688  0.4233
  610MOL0     O84050   9.001   7.754   0.192  0.5045 -0.4627 -0.0454
  610MOL0     C84051   9.103   7.656   0.198  0.3808  1.3396 -0.1272
  610MOL0     C84052   9.245   7.715   0.184 -0.6436 -0.7812 -0.5575
  610MOL0     C84053   9.266   7.812   0.060  0.5593  0.4366 -0.5403
  610MOL0     C84054   9.255   7.733  -0.062  0.4607 -0.7780  0.2064
  610MOL0     C84055   9.294   7.822  -0.191  0.1195 -0.7420 -0.4724
  610MOL0     C84056   9.289   7.730  -0.313 -0.2217 -0.4335  0.3950
  610MOL0     C84057   9.329   7.803  -0.440 -0.6430  0.3847 -0.2289
  610MOL0     C84058   9.301   7.721  -0.565 -0.8036  0.4613 -0.0580
  610MOL0     N84059   9.409   7.620  -0.594  0.5867  0.2028  0.2384
  610MOL0     C84060   9.532   7.643  -0.647  0.8263 -0.0343 -0.4241
  610MOL0     C84061   9.588   7.527  -0.662 -0.0183 -1.1195 -0.5326
  610MOL0     C84062   9.717   7.512  -0.724 -0.3242  0.6001  0.1117
  610MOL0     C84063   9.748   7.383  -0.788 -0.2779 -0.1835 -0.3470
  610MOL0     C84064   9.893   7.386  -0.848  1.2586 -0.2910 -0.2075
  610MOL0     C84065   9.988   7.321  -0.749  0.8259  0.7976 -0.7479
  610MOL0     O84066  10.001   7.374  -0.618 -0.0649 -0.6605 -0.0022
  610MOL0     C84067  10.097   7.335  -0.532  1.3296 -1.2418 -0.3368
  610MOL0     C84068  10.209   7.260  -0.570 -0.0108 -0.7913 -0.1873
  610MOL0     C84069  10.297   7.204  -0.477  0.5943  1.1281  0.4150
  610MOL0     C84070  10.411   7.126  -0.534  0.0142 -0.1977  0.2824
  610MOL0     C84071  10.275   7.233  -0.333  0.2949 -0.2681 -0.0675
  610MOL0     C84072  10.355   7.173  -0.231  0.8452 -0.4763 -0.1329
  610MOL0     O84073  10.292   7.149  -0.107 -0.2423 -0.0662  0.5929
  610MOL0     C84074  10.367   7.099  -0.001 -0.5972  0.5808 -0.8553
  610MOL0     C84075  10.419   7.187   0.078 -0.5776 -0.7336 -0.5185
  610MOL0     C84076  10.519   7.152   0.181  0.3646 -0.4706  0.2200
  610MOL0     C84077  10.555   7.019   0.189 -0.1663  0.3798 -0.7721
  610MOL0     O84078  10.644   6.992   0.290  0.0915  0.1475  0.5018
  610MOL0     C84079  10.736   6.881   0.286  0.3447 -0.1521  0.0940
  610MOL0     C84080  10.672   6.764   0.360 -0.4864  0.1524 -0.1416
  610MOL0     C84081  10.752   6.630   0.371 -0.2738  0.3486  0.1312
  610MOL0     C84082  10.702   6.531   0.482  1.3512 -0.1259 -0.1870
  610MOL0     C84083  10.764   6.389   0.482 -0.0334 -0.6939  0.5504
  610MOL0     C84084  10.695   6.275   0.558 -0.1805 -0.4410  0.0716
  610MOL0     C84085  10.659   6.307   0.702 -1.4089  0.0652  0.2376
  610MOL0     C84086  10.783   6.329   0.793  0.0374 -0.1630  0.8527
  610MOL0    Cl84087  10.753   6.341   0.965  0.2564 -0.6589  0.0422
  610MOL0     C84088  10.510   6.928   0.090  0.6960 -0.9173  0.6932
  610MOL0     C84089  10.406   6.963  -0.002  0.0380  0.2187 -0.2311
  610MOL0     O84090  10.472   7.143  -0.252 -0.5032 -0.6087  0.6666
  610MOL0     C84091  10.164   7.324  -0.296  0.0395  0.2707  0.7035
  610MOL0     C84092  10.089   7.380  -0.403  0.6189  0.3054  0.0738
  610MOL0     N84093   9.495   7.438  -0.620 -0.6654  0.3987  0.1905
  610MOL0     N84094   9.393   7.490  -0.574  0.9348  0.0624 -0.0530
  610MOL0     C84095   8.838   7.632   0.329  0.2288 -0.1036 -0.2483
  610MOL0     C84096   8.710   7.629   0.386  0.3407 -0.0538 -0.5207
  610MOL0     C84097   8.318   7.665   0.594  0.4526 -0.1645  0.0584
  610MOL0     C84098   8.286   7.665   0.730  0.4092 -0.0982 -0.6514
  610MOL0     C84099   8.147   7.661   0.762 -0.4104 -0.2661  0.9091
  610MOL0     C84100   8.047   7.674   0.665  0.4363  0.5766  0.2616
  610MOL0     O84101   7.914   7.685   0.712 -0.6601  0.5125  0.9662
  610MOL0     C84102   7.814   7.740   0.626  0.5401 -1.2083 -0.3373
  610MOL0     C84103   7.700   7.783   0.707  0.8039 -0.6631  0.6374
  610MOL0     C84104   7.620   7.660   0.738  0.0134  0.3601  0.5328
  610MOL0     C84105   7.491   7.704   0.816 -0.5590  0.2251  0.5932
  610MOL0     C84106   7.452   7.598   0.900  0.1153 -0.6475  0.0642
  610MOL0     C84107   7.403   7.513   0.970 -0.4077  0.3907 -0.0481
  610MOL0     C84108   8.085   7.663   0.529 -0.0338  0.4333 -0.7211
  610MOL0     C84109   8.222   7.654   0.491 -0.3976 -0.2278  1.7741
  610MOL0     C84110   8.245   7.650   0.343  0.2017  0.1085 -0.9134
  610MOL0     H84111   8.590   7.932   0.302 -0.1874 -0.2667 -0.2628
  610MOL0     H84112   8.813   7.937   0.195 -0.2546  0.1063  0.5514
  610MOL0     H84113   9.102   7.578   0.121  0.9047 -1.5092  2.5420
  610MOL0     H84114   9.095   7.613   0.298  0.9253  3.5732  0.9329
  610MOL0     H84115   9.270   7.768   0.276 -0.1267 -2.3228  0.2413
  610MOL0     H84116   9.312   7.628   0.182 -0.7876 -0.8846 -1.7276
  610MOL0     H84117   9.197   7.898   0.062  1.8465  1.4976  0.6358
  610MOL0     H84118   9.362   7.862   0.073  0.2909  0.6799  0.6903
  610MOL0     H84119   9.331   7.655  -0.059  0.1868 -1.0568 -0.0443
  610MOL0     H84120   9.155   7.691  -0.075 -1.0495  2.6819 -0.3486
  610MOL0     H84121   9.399   7.849  -0.174  0.2816 -3.3625  4.8444
  610MOL0     H84122   9.225   7.906  -0.205 -0.3114 -1.4071 -2.7072
  610MOL0     H84123   9.354   7.644  -0.299 -2.0284 -1.9605 -0.1740
  610MOL0     H84124   9.186   7.694  -0.323 -1.2105  0.4138  5.1475
  610MOL0     H84125   9.433   7.837  -0.436 -0.8315  0.8628  2.7162
  610MOL0     H84126   9.267   7.893  -0.443 -0.6045  0.4085 -0.2919
  610MOL0     H84127   9.205   7.667  -0.559  0.9596 -2.8590  0.7687
  610MOL0     H84128   9.297   7.786  -0.652 -1.7496  1.0405  0.3999
  610MOL0     H84129   9.585   7.731  -0.681 -0.7453  0.6647 -1.1663
  610MOL0     H84130   9.791   7.534  -0.646 -0.8537  1.6467  0.3412
  610MOL0     H84131   9.727   7.599  -0.790 -0.0114 -0.3527 -1.1377
  610MOL0     H84132   9.756   7.309  -0.708  2.2046  2.2728  1.8428
  610MOL0     H84133   9.664   7.345  -0.847 -2.2536 -1.5357  3.0379
  610MOL0     H84134   9.897   7.333  -0.943 -3.7283 -2.0505  0.2855
  610MOL0     H84135   9.934   7.486  -0.862 -0.5893  0.2015 -2.6300
  610MOL0     H84136   9.952   7.217  -0.747 -1.1349  1.3434 -2.7776
  610MOL0     H84137  10.088   7.309  -0.791  1.5400 -0.2252  1.1149
  610MOL0     H84138  10.233   7.242  -0.674  1.4327  1.7510 -0.3777
  610MOL0     H84139  10.397   7.084  -0.635  0.2001  1.3281 -0.3967
  610MOL0     H84140  10.437   7.040  -0.471  1.3301  0.0870  0.1557
  610MOL0     H84141  10.501   7.185  -0.520  1.0625 -2.1747  2.3966
  610MOL0     H84142  10.391   7.292   0.076 -0.3579 -0.6910 -2.3524
  610MOL0     H84143  10.563   7.220   0.254  3.0279 -0.3462 -1.3830
  610MOL0     H84144  10.753   6.845   0.184  0.4323 -0.1098  0.0933
  610MOL0     H84145  10.834   6.907   0.329  0.1350  1.2055 -0.2066
  610MOL0     H84146  10.647   6.796   0.461 -0.5051  0.6157 -0.2899
  610MOL0     H84147  10.574   6.741   0.318 -0.4183  0.2188 -0.3374
  610MOL0     H84148  10.858   6.649   0.386  0.4796 -3.3499  0.6192
  610MOL0     H84149  10.746   6.584   0.271 -1.8721 -0.3196  0.4997
  610MOL0     H84150  10.595   6.511   0.471  1.2173  0.7194 -0.5516
  610MOL0     H84151  10.718   6.573   0.582 -1.7366 -0.0323  0.3433
  610MOL0     H84152  10.766   6.350   0.380 -2.2714 -1.7464  0.8616
  610MOL0     H84153  10.867   6.405   0.515  0.6823 -4.4274  0.5936
  610MOL0     H84154  10.759   6.186   0.549  0.4650  0.1896 -3.0398
  610MOL0     H84155  10.605   6.242   0.506 -1.9926  3.0016  0.7229
  610MOL0     H84156  10.591   6.236   0.749 -1.1109  1.1463  2.4311
  610MOL0     H84157  10.598   6.397   0.708  0.6117  1.3894  2.7004
  610MOL0     H84158  10.831   6.425   0.775 -1.2675  0.4983  0.7467
  610MOL0     H84159  10.854   6.247   0.780  0.2733  0.3898 -2.1059
  610MOL0     H84160  10.552   6.828   0.101 -1.2452 -2.0037 -1.1383
  610MOL0     H84161  10.363   6.888  -0.067  1.5600  0.4013 -1.5143
  610MOL0     H84162  10.149   7.355  -0.193  3.2278  0.3867  1.2173
  610MOL0     H84163  10.011   7.446  -0.367 -1.6276 -1.5377 -1.0756
  610MOL0     H84164   8.904   7.547   0.343  2.6343  1.9373  1.7402
  610MOL0     H84165   8.679   7.533   0.426  0.0525 -0.3725 -1.4750
  610MOL0     H84166   8.353   7.659   0.815  1.5999  2.4138 -1.3081
  610MOL0     H84167   8.107   7.643   0.861 -3.5666 -3.4537 -0.7166
  610MOL0     H84168   7.842   7.830   0.571 -3.3153  0.2672 -0.2001
  610MOL0     H84169   7.776   7.680   0.543 -2.1708  1.0264 -0.8912
  610MOL0     H84170   7.640   7.852   0.647 -0.5017  0.0196  2.6096
  610MOL0     H84171   7.722   7.851   0.790 -1.7610  0.2766  0.6144
  610MOL0     H84172   7.594   7.609   0.644  1.4860 -3.0279  1.8159
  610MOL0     H84173   7.690   7.593   0.790  2.2263 -1.3643 -4.0929
  610MOL0     H84174   7.402   7.720   0.755  0.3752  3.0703 -0.1904
  610MOL0     H84175   7.508   7.798   0.870 -1.0561  0.5655  0.1643
  610MOL0     H84176   7.369   7.433   1.034  0.2921 -0.6515 -0.9414
  610MOL0     H84177   8.006   7.662   0.455 -0.2517 -0.5143 -0.4917
  610MOL0     H84178   8.162   7.594   0.298 -2.4364  2.0469  1.1393
  610MOL0     H84179   8.251   7.751   0.301 -0.8644  1.5196  2.0505
  610MOL0     H84180   8.335   7.595   0.315 -0.5254 -3.7029  3.1584
  611MOL0     O84181  10.924   3.509   2.472 -0.5096  0.7434 -0.0240
  611MOL0     C84182  10.851   3.571   2.543 -0.7653  0.1697 -0.6356
  611MOL0     O84183  10.775   3.664   2.506  0.5285  0.3748  0.3544
  611MOL0     C84184  10.787   3.734   2.384 -0.4194  0.6382 -0.2096
  611MOL0     C84185  10.805   3.871   2.386  0.2298 -0.0269  0.8485
  611MOL0     C84186  10.814   3.947   2.266  0.1139  1.0584 -1.3114
  611MOL0     C84187  10.778   3.882   2.148 -0.1588  0.2906 -0.1047
  611MOL0     O84188  10.754   3.953   2.037 -0.6272  0.9145  0.2846
  611MOL0     C84189  10.814   3.904   1.916 -0.0789 -0.2856 -0.4081
  611MOL0     C84190  10.852   4.019   1.828  0.5730 -0.2167 -0.4654
  611MOL0     C84191  10.956   4.106   1.889 -0.4720 -0.3436  1.2312
  611MOL0     C84192  11.092   4.057   1.919 -0.2283  0.8294  0.0411
  611MOL0     C84193  11.167   4.153   2.008  0.9369 -0.3122 -0.4147
  611MOL0     C84194  11.305   4.125   2.064  0.0510 -0.3291 -0.0707
  611MOL0     C84195  11.358   4.259   2.115  0.1841  1.2974 -0.4417
  611MOL0     C84196  11.491   4.246   2.194 -0.7667 -0.2349 -0.2957
  611MOL0     N84197  11.471   4.167   2.317 -0.2822  0.3185 -0.1631
  611MOL0     C84198  11.433   4.204   2.439  0.9754 -0.2991 -0.1270
  611MOL0     C84199  11.465   4.098   2.527  0.3468 -0.1679 -0.1633
  611MOL0     C84200  11.445   4.099   2.673 -0.0383 -0.7925 -0.5051
  611MOL0     C84201  11.542   4.195   2.739  0.2002 -0.6595 -0.2883
  611MOL0     C84202  11.544   4.197   2.893 -0.3481  0.2354 -0.3735
  611MOL0     C84203  11.430   4.281   2.953 -0.8164 -0.3483 -0.4839
  611MOL0     O84204  11.453   4.420   2.911  0.3143  0.5612 -0.9240
  611MOL0     C84205  11.344   4.513   2.919 -0.1088 -0.1944  0.9994
  611MOL0     C84206  11.219   4.471   2.966  0.4831 -0.3074  0.4531
  611MOL0     C84207  11.111   4.555   2.968  0.7161 -0.0826  0.1598
  611MOL0     C84208  10.982   4.527   3.042 -0.7899 -0.7730  0.3640
  611MOL0     C84209  11.130   4.689   2.917  0.2912  0.0272  0.1883
  611MOL0     C84210  11.024   4.787   2.907 -0.0141  0.4895  0.3823
  611MOL0     O84211  10.948   4.775   2.794  0.1728  0.1357 -0.7636
  611MOL0     C84212  10.831   4.848   2.800 -0.4220  0.7198 -0.7188
  611MOL0     C84213  10.830   4.977   2.749  0.2125 -0.9498 -0.5944
  611MOL0     C84214  10.709   5.049   2.741 -0.2952  0.4748 -0.9934
  611MOL0     C84215  10.583   4.986   2.767 -0.2132 -0.8550  0.1379
  611MOL0     O84216  10.482   5.069   2.730  0.2522  0.4801  0.3078
  611MOL0     C84217  10.358   5.007   2.707 -0.3311 -0.1949  0.3577
  611MOL0     C84218  10.254   5.115   2.685  0.2131 -0.6648  0.1572
  611MOL0     C84219  10.246   5.154   2.531  0.0925  0.4610 -0.5844
  611MOL0     C84220  10.221   5.307   2.515 -0.2051  0.3022 -0.5769
  611MOL0     C84221  10.088   5.343   2.583 -1.1349 -0.3105 -0.2616
  611MOL0     C84222  10.041   5.485   2.550 -0.4266 -0.3764 -0.1715
  611MOL0     C84223   9.990   5.498   2.405 -0.9736  0.0893  0.8506
  611MOL0     C84224   9.947   5.647   2.382  0.3336  0.5205 -0.4861
  611MOL0    Cl84225   9.889   5.660   2.208  0.0269 -0.0913 -0.0310
  611MOL0     C84226  10.584   4.855   2.811  0.4779  0.3150  0.8581
  611MOL0     C84227  10.707   4.787   2.823  0.4054 -0.7575 -0.5905
  611MOL0     O84228  11.037   4.889   2.978 -0.3680  0.9637  0.6535
  611MOL0     C84229  11.262   4.736   2.876 -0.6931  0.5195 -0.4398
  611MOL0     C84230  11.367   4.638   2.873  0.1116 -0.2610 -0.2203
  611MOL0     N84231  11.529   3.997   2.460 -1.0350 -0.4477  0.4134
  611MOL0     N84232  11.526   4.040   2.334 -0.7852  0.0616  0.6601
  611MOL0     C84233  10.760   3.740   2.150 -0.6976  0.3210  0.3434
  611MOL0     C84234  10.759   3.666   2.268 -0.8457  0.3569  0.3973
  611MOL0     C84235  10.853   3.534   2.683 -0.8711 -0.8059 -1.1771
  611MOL0     C84236  10.843   3.648   2.768  0.1312  0.6721  0.1915
  611MOL0     C84237  10.848   3.618   2.907  0.6986  0.3178  0.5837
  611MOL0     C84238  10.848   3.490   2.965  0.3271  0.3100 -0.6110
  611MOL0     O84239  10.835   3.478   3.107  0.5858  0.3245  1.0223
  611MOL0     C84240  10.804   3.589   3.180 -0.4752  1.4097 -0.4655
  611MOL0     C84241  10.938   3.658   3.212 -0.9588  0.4013  0.5487
  611MOL0     C84242  10.933   3.737   3.343 -1.1741 -0.7046  0.2292
  611MOL0     C84243  11.060   3.834   3.354 -0.3377  0.3546 -0.8307
  611MOL0     C84244  11.075   3.900   3.492 -0.2530  1.5680  0.5389
  611MOL0     C84245  11.112   3.960   3.586 -0.8120 -0.1988  0.8496
  611MOL0     C84246  10.852   3.377   2.873 -1.1885  0.2040 -0.7292
  611MOL0     C84247  10.863   3.408   2.738  0.8403  0.5937 -0.1904
  611MOL0     C84248  10.870   3.276   2.658 -0.3633 -0.5919  1.3645
  611MOL0     H84249  10.832   3.926   2.476 -2.1638  0.8240  1.1163
  611MOL0     H84250  10.845   4.050   2.255 -1.7689  1.7555 -0.3934
  611MOL0     H84251  10.726   3.866   1.862 -0.0067 -0.7090 -0.2272
  611MOL0     H84252  10.897   3.835   1.930 -0.4362 -0.6964 -0.2932
  611MOL0     H84253  10.858   3.991   1.723 -2.7177  1.7633 -1.3268
  611MOL0     H84254  10.771   4.093   1.832  0.0533 -0.8016  2.1028
  611MOL0     H84255  10.965   4.191   1.821 -0.9105 -1.3979 -0.1967
  611MOL0     H84256  10.914   4.147   1.982 -0.2617  3.3602 -0.1480
  611MOL0     H84257  11.083   3.958   1.966 -0.5561 -0.7689 -3.0954
  611MOL0     H84258  11.153   4.036   1.830  1.3791  1.7304  0.8845
  611MOL0     H84259  11.098   4.197   2.081 -0.5975  1.2972 -2.6874
  611MOL0     H84260  11.174   4.236   1.936 -0.0672 -2.0478 -2.6424
  611MOL0     H84261  11.296   4.056   2.149 -1.1687  1.4057  1.2869
  611MOL0     H84262  11.369   4.091   1.982 -0.2794  0.0436 -0.4871
  611MOL0     H84263  11.277   4.288   2.181  0.4429  0.5184  0.2416
  611MOL0     H84264  11.367   4.335   2.037  0.7489  0.9985 -0.6815
  611MOL0     H84265  11.567   4.208   2.124 -0.4557  3.6870 -2.3886
  611MOL0     H84266  11.524   4.345   2.227  1.4832 -2.0007  3.4648
  611MOL0     H84267  11.396   4.303   2.462  1.6208  0.5380 -2.4683
  611MOL0     H84268  11.444   4.001   2.722 -1.0909 -0.5557 -0.0112
  611MOL0     H84269  11.344   4.135   2.698  0.2657  1.5666 -2.3344
  611MOL0     H84270  11.644   4.166   2.714 -0.1847 -1.0118 -1.4933
  611MOL0     H84271  11.515   4.297   2.710 -0.2503 -0.2771  1.3685
  611MOL0     H84272  11.539   4.096   2.934 -0.2177  0.6230  0.6573
  611MOL0     H84273  11.641   4.232   2.930 -1.4101  1.9805  0.9598
  611MOL0     H84274  11.336   4.235   2.923  0.0161 -2.6288  0.1912
  611MOL0     H84275  11.440   4.272   3.061  0.1899  1.8837 -0.3338
  611MOL0     H84276  11.204   4.373   3.010 -2.1327 -0.1140  0.1287
  611MOL0     H84277  10.982   4.462   3.130  1.3901 -0.4548  0.6504
  611MOL0     H84278  10.921   4.475   2.967  2.4638 -1.7463 -1.8563
  611MOL0     H84279  10.946   4.627   3.071  1.4006  0.3066 -0.4465
  611MOL0     H84280  10.918   5.031   2.717  1.1777 -0.3792  2.6013
  611MOL0     H84281  10.719   5.151   2.705 -1.2890  0.4071 -1.4969
  611MOL0     H84282  10.364   4.947   2.615 -1.5185 -1.1523  0.8801
  611MOL0     H84283  10.330   4.936   2.785 -1.5342  0.1419  0.2617
  611MOL0     H84284  10.155   5.075   2.712 -1.0353 -0.1994 -3.2452
  611MOL0     H84285  10.277   5.199   2.751  0.9567  0.5179 -1.5501
  611MOL0     H84286  10.161   5.094   2.498 -1.0916 -0.4461  3.5394
  611MOL0     H84287  10.332   5.130   2.468 -1.7350 -2.9029 -2.0650
  611MOL0     H84288  10.205   5.328   2.409 -3.0182  2.9617  0.2141
  611MOL0     H84289  10.300   5.364   2.565 -0.9601  0.0612  0.9754
  611MOL0     H84290  10.008   5.269   2.573 -0.5566 -1.3835  2.3339
  611MOL0     H84291  10.122   5.340   2.687  0.0506 -0.7268 -0.6486
  611MOL0     H84292  10.126   5.554   2.554  0.0407 -0.9416 -0.3192
  611MOL0     H84293   9.970   5.516   2.627  0.6029 -0.1910  0.7288
  611MOL0     H84294   9.914   5.420   2.399 -0.6864 -0.4087  3.0737
  611MOL0     H84295  10.061   5.467   2.327 -1.1157 -1.5526  1.3471
  611MOL0     H84296  10.034   5.713   2.393 -0.0030  1.2451 -1.9566
  611MOL0     H84297   9.866   5.673   2.450  1.8407  2.8701  0.5316
  611MOL0     H84298  10.500   4.791   2.836  0.5735 -0.3650 -0.5226
  611MOL0     H84299  10.708   4.688   2.867  1.9157  0.1319  1.5231
  611MOL0     H84300  11.270   4.831   2.824  0.6309  0.2941 -0.6993
  611MOL0     H84301  11.463   4.666   2.829 -0.3596  1.8793 -0.0186
  611MOL0     H84302  10.734   3.691   2.056  0.1153  0.5521 -0.0109
  611MOL0     H84303  10.727   3.563   2.255  0.5981 -0.1632  0.8142
  611MOL0     H84304  10.854   3.753   2.742 -0.7814  0.6466 -0.3576
  611MOL0     H84305  10.855   3.703   2.975  1.8605  0.3359  0.4600
  611MOL0     H84306  10.721   3.647   3.138 -1.5724  1.2424  1.3888
  611MOL0     H84307  10.774   3.552   3.278 -1.8685 -0.6640 -1.6001
  611MOL0     H84308  10.973   3.728   3.136 -0.5249  0.2568  0.6124
  611MOL0     H84309  11.007   3.573   3.212 -1.9085 -0.3943  0.2747
  611MOL0     H84310  10.839   3.791   3.358 -0.8523 -0.5941  2.1756
  611MOL0     H84311  10.931   3.664   3.425  0.0327  0.1430  1.0589
  611MOL0     H84312  11.066   3.911   3.276 -0.6983  1.2835  0.0325
  611MOL0     H84313  11.156   3.785   3.335  0.7456  0.4785  3.3172
  611MOL0     H84314  11.145   4.007   3.676 -2.9467 -1.4706  2.3881
  611MOL0     H84315  10.862   3.276   2.912  1.0352 -0.4446 -2.7145
  611MOL0     H84316  10.814   3.191   2.696 -1.5632 -0.0081  0.9525
  611MOL0     H84317  10.837   3.306   2.558  0.4556 -0.2822  1.1703
  611MOL0     H84318  10.971   3.234   2.667  0.5493  1.1768  0.1481
  612MOL0     O84319   1.743   4.393   5.416  0.3214 -0.0624 -0.2372
  612MOL0     C84320   1.675   4.291   5.385 -0.3659 -1.1860 -0.3362
  612MOL0     O84321   1.728   4.161   5.385 -0.2557  0.0780 -0.4525
  612MOL0     C84322   1.871   4.150   5.397 -0.1659 -0.1953  0.3407
  612MOL0     C84323   1.937   4.148   5.521  0.2471 -0.4225  0.3537
  612MOL0     C84324   2.068   4.108   5.531 -0.1937  0.6313 -0.0740
  612MOL0     C84325   2.151   4.081   5.419 -0.1959 -0.5825  1.1821
  612MOL0     O84326   2.282   4.061   5.440  0.6062  0.4017 -0.7802
  612MOL0     C84327   2.365   4.060   5.331 -0.8205 -0.6511  0.2570
  612MOL0     C84328   2.504   4.069   5.381  0.3678  0.4417  0.1361
  612MOL0     C84329   2.596   4.118   5.277 -0.1502  0.7759 -0.3092
  612MOL0     C84330   2.737   4.112   5.317 -0.3402 -0.7101 -0.9133
  612MOL0     C84331   2.825   4.190   5.215 -0.3750 -1.1624 -0.1817
  612MOL0     C84332   2.978   4.186   5.237  0.1551 -0.3557 -0.1037
  612MOL0     C84333   3.059   4.231   5.114 -0.4664 -0.8149  1.1117
  612MOL0     C84334   3.043   4.379   5.074  0.1118  0.1027  0.0247
  612MOL0     N84335   3.117   4.410   4.948  0.9789  0.0653 -0.0129
  612MOL0     C84336   3.181   4.328   4.865  0.2131 -0.1067  0.0634
  612MOL0     C84337   3.235   4.413   4.769  0.9900 -0.1321  1.4097
  612MOL0     C84338   3.309   4.366   4.650  0.4724  0.1634  0.2305
  612MOL0     C84339   3.393   4.468   4.572  0.1433  0.3894  0.4661
  612MOL0     C84340   3.461   4.404   4.449  0.1017  1.0560  0.3423
  612MOL0     C84341   3.442   4.475   4.318 -0.0572  0.7323  0.4442
  612MOL0     O84342   3.290   4.482   4.302  0.0100  0.0799 -0.4067
  612MOL0     C84343   3.254   4.522   4.172 -0.4111 -0.1680 -0.5603
  612MOL0     C84344   3.125   4.499   4.129  0.1601 -0.5366 -0.0972
  612MOL0     C84345   3.077   4.545   4.001  0.3485 -0.5060  0.0785
  612MOL0     C84346   2.935   4.518   3.965  0.6960 -0.6730  0.3819
  612MOL0     C84347   3.166   4.603   3.909 -0.2617 -0.0218 -0.2354
  612MOL0     C84348   3.138   4.625   3.764  0.0516  0.5309 -0.8379
  612MOL0     O84349   3.207   4.732   3.713  0.8280  0.0147  1.0054
  612MOL0     C84350   3.175   4.756   3.580  0.7222 -0.4551  0.4515
  612MOL0     C84351   3.111   4.876   3.537 -0.4536 -0.5564 -0.5689
  612MOL0     C84352   3.101   4.909   3.404 -0.4441  0.6460 -0.5356
  612MOL0     C84353   3.156   4.828   3.308 -0.4768 -0.3881 -0.4266
  612MOL0     O84354   3.150   4.878   3.184 -0.1060  0.2247 -0.4268
  612MOL0     C84355   3.227   4.806   3.084  0.5299  0.0522 -0.7107
  612MOL0     C84356   3.207   4.874   2.946 -0.3222  0.0692  0.0283
  612MOL0     C84357   3.292   4.811   2.839  0.0039 -1.0668 -0.4418
  612MOL0     C84358   3.308   4.897   2.715  0.0900  0.2000  0.8792
  612MOL0     C84359   3.396   4.821   2.608 -0.4250  0.3566  0.1023
  612MOL0     C84360   3.419   4.918   2.494  0.2717 -0.5283 -0.6081
  612MOL0     C84361   3.545   5.001   2.527 -0.0210 -0.2554 -0.4003
  612MOL0     C84362   3.535   5.146   2.474  0.3168  0.5491 -0.1129
  612MOL0    Cl84363   3.693   5.235   2.492 -0.3181  0.0056  0.1609
  612MOL0     C84364   3.230   4.716   3.349 -0.3750  0.0742 -2.0417
  612MOL0     C84365   3.228   4.672   3.482 -0.0781 -0.6726 -0.3719
  612MOL0     O84366   3.059   4.551   3.708 -1.0303  0.0536 -0.0366
  612MOL0     C84367   3.302   4.624   3.948  1.0236  0.0364 -0.7628
  612MOL0     C84368   3.346   4.585   4.078  0.3109 -0.9493 -0.2627
  612MOL0     N84369   3.209   4.541   4.811 -0.8860  1.0260  0.6015
  612MOL0     N84370   3.133   4.539   4.913  0.0925 -0.4621  0.6605
  612MOL0     C84371   2.082   4.082   5.294 -0.1291 -0.2300  0.4279
  612MOL0     C84372   1.945   4.118   5.281  0.7558 -0.7764 -0.4564
  612MOL0     C84373   1.531   4.299   5.342  0.6851  0.0152  0.5072
  612MOL0     C84374   1.482   4.202   5.246 -0.7793  0.9824 -0.0724
  612MOL0     C84375   1.347   4.201   5.208  0.5626 -0.0300 -0.5649
  612MOL0     C84376   1.255   4.294   5.260 -0.5642  0.8695  1.0899
  612MOL0     O84377   1.138   4.325   5.202  0.7295  0.5552 -0.1004
  612MOL0     C84378   1.096   4.236   5.095  0.3524  0.4510  0.1492
  612MOL0     C84379   0.959   4.272   5.024 -0.0716 -0.0044 -0.4336
  612MOL0     C84380   0.825   4.274   5.104 -0.8329  0.3506 -0.3001
  612MOL0     C84381   0.794   4.144   5.180 -0.6082  0.5019 -0.0351
  612MOL0     C84382   0.688   4.157   5.280 -1.3783  0.6708  0.4784
  612MOL0     C84383   0.595   4.196   5.351 -0.1681 -0.7039  0.3161
  612MOL0     C84384   1.296   4.381   5.345  1.0386  0.0237 -0.2396
  612MOL0     C84385   1.430   4.392   5.395 -0.1068 -0.5032  1.3372
  612MOL0     C84386   1.463   4.497   5.499 -0.5908 -0.0544 -0.3779
  612MOL0     H84387   1.885   4.185   5.609 -0.2165 -1.1994  0.4080
  612MOL0     H84388   2.111   4.126   5.629 -1.4375  1.0747  0.4022
  612MOL0     H84389   2.359   4.143   5.260  0.5633 -1.9186 -1.4333
  612MOL0     H84390   2.353   3.966   5.276  2.9744 -0.9467 -0.3521
  612MOL0     H84391   2.510   4.134   5.469  1.8501 -2.9526  2.7717
  612MOL0     H84392   2.530   3.971   5.423  0.7545  1.3766  2.1847
  612MOL0     H84393   2.582   4.049   5.194  1.1344 -2.3897  1.8862
  612MOL0     H84394   2.578   4.221   5.246  0.4423  1.3947  1.2905
  612MOL0     H84395   2.752   4.147   5.420  1.7594 -1.4029 -0.9243
  612MOL0     H84396   2.768   4.007   5.318 -2.4232 -1.3475 -0.5110
  612MOL0     H84397   2.792   4.293   5.219 -2.4930 -1.8328  2.0029
  612MOL0     H84398   2.815   4.150   5.114  1.3952 -1.0390 -0.4388
  612MOL0     H84399   3.002   4.246   5.326  0.8655 -1.3482  0.3974
  612MOL0     H84400   2.999   4.087   5.278  0.5812 -0.0111  0.5376
  612MOL0     H84401   3.048   4.161   5.031 -1.9317 -0.6688  1.1515
  612MOL0     H84402   3.162   4.222   5.150  0.1869 -0.4419 -0.5891
  612MOL0     H84403   2.937   4.398   5.056  0.2790  1.6391  0.5578
  612MOL0     H84404   3.078   4.441   5.157  0.8522  0.0932 -0.2679
  612MOL0     H84405   3.184   4.220   4.871 -1.4270 -0.0919  1.9027
  612MOL0     H84406   3.234   4.316   4.588  0.1953  1.6555 -0.6639
  612MOL0     H84407   3.377   4.288   4.686 -2.0217 -1.1629  2.5288
  612MOL0     H84408   3.322   4.540   4.531 -0.5811 -2.5984 -4.2910
  612MOL0     H84409   3.468   4.512   4.637  0.3837  0.4438  0.1540
  612MOL0     H84410   3.568   4.412   4.471  1.2087 -3.8924 -1.7336
  612MOL0     H84411   3.430   4.300   4.435 -1.3057  1.4522  0.3598
  612MOL0     H84412   3.457   4.583   4.322 -0.1714  0.8528 -1.4557
  612MOL0     H84413   3.500   4.437   4.234  1.0191  3.0526  0.0698
  612MOL0     H84414   3.058   4.454   4.202  2.2558 -0.4717  1.9984
  612MOL0     H84415   2.871   4.536   4.052  0.2783  4.1361 -0.6485
  612MOL0     H84416   2.930   4.417   3.923  2.3404 -0.9697  0.8534
  612MOL0     H84417   2.899   4.586   3.888 -0.3686  1.6236  2.7510
  612MOL0     H84418   3.070   4.948   3.608  0.0677 -0.3275 -0.4941
  612MOL0     H84419   3.035   4.991   3.380 -0.9696 -0.4275 -3.0384
  612MOL0     H84420   3.326   4.817   3.128  0.6385  0.6687 -1.1059
  612MOL0     H84421   3.190   4.703   3.083 -4.1308  1.4095  1.9009
  612MOL0     H84422   3.101   4.859   2.920 -0.0826 -0.1662 -0.8673
  612MOL0     H84423   3.216   4.981   2.966 -2.0538  0.2058  0.2697
  612MOL0     H84424   3.267   4.707   2.813  2.9214 -1.1939 -3.3307
  612MOL0     H84425   3.391   4.804   2.885 -1.8934  1.3538  4.8651
  612MOL0     H84426   3.359   4.992   2.733  2.7697  0.0390 -4.2904
  612MOL0     H84427   3.210   4.918   2.671  0.0705 -1.5734 -0.0141
  612MOL0     H84428   3.480   4.782   2.666 -3.1099 -2.1652  2.6171
  612MOL0     H84429   3.339   4.736   2.571 -0.4741  0.4217  0.0274
  612MOL0     H84430   3.331   4.977   2.466 -0.2435  0.5050  2.7609
  612MOL0     H84431   3.446   4.844   2.418 -0.8414 -0.1478 -1.3835
  612MOL0     H84432   3.624   4.936   2.491 -1.2418 -1.6712 -0.5952
  612MOL0     H84433   3.557   5.013   2.636  0.3498 -3.3428 -0.0097
  612MOL0     H84434   3.459   5.198   2.533 -0.6417  0.0729 -0.8879
  612MOL0     H84435   3.499   5.141   2.370  0.2626 -1.7160 -0.0352
  612MOL0     H84436   3.289   4.660   3.278  2.6808 -1.0920  1.1512
  612MOL0     H84437   3.281   4.579   3.501 -0.8612 -1.6273 -2.5423
  612MOL0     H84438   3.374   4.668   3.880  1.5648 -1.4143 -1.1628
  612MOL0     H84439   3.447   4.620   4.100  0.0617 -0.6813  0.4947
  612MOL0     H84440   2.117   4.043   5.198 -0.9434  3.4650 -1.5871
  612MOL0     H84441   1.898   4.109   5.184 -0.8028  1.4565  0.0260
  612MOL0     H84442   1.558   4.129   5.220  1.0038  3.1823 -1.5287
  612MOL0     H84443   1.302   4.125   5.145 -0.6912  0.7297 -0.6151
  612MOL0     H84444   1.170   4.229   5.015  3.2255 -2.4404  2.7710
  612MOL0     H84445   1.080   4.133   5.129  0.5655  0.1716 -0.5721
  612MOL0     H84446   0.958   4.216   4.931  0.0704  1.1499 -1.1455
  612MOL0     H84447   0.964   4.374   4.983  1.6104 -1.8135 -5.4292
  612MOL0     H84448   0.839   4.353   5.178  2.5384  0.1212 -0.5462
  612MOL0     H84449   0.745   4.300   5.033 -1.0955 -1.3363 -0.6763
  612MOL0     H84450   0.882   4.113   5.237  1.8985  0.7192 -3.4746
  612MOL0     H84451   0.769   4.058   5.117  3.0289 -0.0188 -1.0003
  612MOL0     H84452   0.516   4.239   5.408  2.6124  4.9984  0.4926
  612MOL0     H84453   1.221   4.436   5.401 -0.3906 -0.0231 -2.0496
  612MOL0     H84454   1.463   4.456   5.600 -0.3892  0.3903 -0.1978
  612MOL0     H84455   1.561   4.544   5.490 -0.2235 -0.9637 -1.4372
  612MOL0     H84456   1.397   4.583   5.489 -1.1290 -0.5042 -0.7732
  613MOL0     O84457   1.448  11.266   3.054 -1.2138 -0.4655 -0.3691
  613MOL0     C84458   1.426  11.378   3.107 -0.0630 -0.6670  1.0910
  613MOL0     O84459   1.503  11.492   3.096  0.2967  0.2764 -0.5577
  613MOL0     C84460   1.612  11.483   3.022 -1.0260  0.4923 -0.1817
  613MOL0     C84461   1.615  11.479   2.877  0.1985  0.3491 -0.8174
  613MOL0     C84462   1.732  11.476   2.813 -1.7254 -0.1512 -0.0076
  613MOL0     C84463   1.857  11.476   2.878 -0.4487 -0.7714  0.0131
  613MOL0     O84464   1.983  11.480   2.822  0.2174  0.0240  0.2857
  613MOL0     C84465   1.992  11.528   2.683  0.1403 -0.3722  0.1991
  613MOL0     C84466   1.979  11.685   2.667  0.0622 -0.7717 -0.7256
  613MOL0     C84467   2.107  11.757   2.708  0.1874 -0.2142  0.6909
  613MOL0     C84468   2.093  11.909   2.679 -0.7240  1.0063  0.5106
  613MOL0     C84469   2.213  11.989   2.709  0.0133  0.0094 -0.2886
  613MOL0     C84470   2.193  12.139   2.680  0.0001  0.8699 -0.0390
  613MOL0     C84471   2.329  12.212   2.711 -0.4936  1.1133 -0.2331
  613MOL0     C84472   2.313  12.367   2.713 -0.0976  0.4294  0.0645
  613MOL0     N84473   2.441  12.436   2.725 -0.3990  0.3745 -0.0793
  613MOL0     C84474   2.500  12.469   2.845 -1.4721 -0.5662  0.2563
  613MOL0     C84475   2.626  12.504   2.811  0.4336 -0.3183  0.3143
  613MOL0     C84476   2.739  12.547   2.902  0.3392  0.8755  0.1298
  613MOL0     C84477   2.710  12.678   2.987  0.2876  0.4307  1.1794
  613MOL0     C84478   2.705  12.804   2.904 -0.4883  0.2441  0.0707
  613MOL0     C84479   2.636  12.916   2.992 -0.0752  0.4560  0.0364
  613MOL0     O84480   2.603  13.031   2.903 -0.2791 -0.6225 -0.2519
  613MOL0     C84481   2.711  13.106   2.860 -0.1884 -0.5173  0.2487
  613MOL0     C84482   2.687  13.207   2.767  0.5836 -0.5590  0.5529
  613MOL0     C84483   2.791  13.276   2.693  0.4254 -0.5755 -0.1355
  613MOL0     C84484   2.760  13.376   2.582  0.0234  1.0128 -0.0134
  613MOL0     C84485   2.924  13.244   2.727  0.1751 -0.6212  0.2603
  613MOL0     C84486   3.033  13.302   2.650 -1.2926 -0.2765 -0.2261
  613MOL0     O84487   3.137  13.211   2.647 -0.5753  0.2725 -0.0794
  613MOL0     C84488   3.227  13.223   2.548 -0.1336  0.6758 -0.4592
  613MOL0     C84489   3.201  13.272   2.423 -0.1052 -0.5335  0.3431
  613MOL0     C84490   3.302  13.294   2.326  0.8591 -0.7858  0.6652
  613MOL0     C84491   3.435  13.264   2.350 -0.2291 -0.0476  0.9630
  613MOL0     O84492   3.546  13.262   2.270 -0.6320 -0.6292 -0.2951
  613MOL0     C84493   3.545  13.342   2.147 -0.2336 -0.6421  0.7334
  613MOL0     C84494   3.679  13.394   2.107  0.2304 -0.2171  0.1873
  613MOL0     C84495   3.762  13.475   2.204 -0.0117  0.3550 -0.2604
  613MOL0     C84496   3.882  13.395   2.256  0.6000  0.8757 -0.6572
  613MOL0     C84497   3.978  13.361   2.143 -0.4071 -0.2642 -0.5573
  613MOL0     C84498   4.111  13.316   2.210  1.1218  0.1633  0.8404
  613MOL0     C84499   4.212  13.287   2.094 -0.0271 -0.7360  0.3071
  613MOL0     C84500   4.292  13.421   2.050  0.1416 -0.0371  0.5011
  613MOL0    Cl84501   4.355  13.408   1.888 -0.0316 -0.3061  0.8705
  613MOL0     C84502   3.461  13.225   2.476 -0.8916 -0.0658  0.8229
  613MOL0     C84503   3.365  13.193   2.570 -0.1124  1.1221 -0.8549
  613MOL0     O84504   3.040  13.419   2.615  0.5614 -0.1074  0.2884
  613MOL0     C84505   2.950  13.145   2.824  0.1874 -0.1928  0.0593
  613MOL0     C84506   2.846  13.086   2.891  0.8066  0.2895 -0.6315
  613MOL0     N84507   2.641  12.513   2.674 -0.1209  0.6429 -0.0367
  613MOL0     N84508   2.530  12.466   2.625  0.1166  0.0332  0.1061
  613MOL0     C84509   1.854  11.461   3.015 -0.2588  0.3955 -0.2342
  613MOL0     C84510   1.732  11.458   3.086  0.4989 -0.5080  0.1542
  613MOL0     C84511   1.294  11.416   3.172  0.2550  0.3730 -0.7229
  613MOL0     C84512   1.292  11.481   3.300  0.0746 -0.2664  0.5213
  613MOL0     C84513   1.171  11.511   3.356 -0.1168  0.2515  0.6160
  613MOL0     C84514   1.047  11.469   3.308  0.4668  0.0499 -0.8340
  613MOL0     O84515   0.929  11.508   3.367  0.2136  0.3182 -0.0084
  613MOL0     C84516   0.923  11.551   3.504 -0.4657 -0.2299 -0.5044
  613MOL0     C84517   0.807  11.479   3.567 -0.0287 -0.8260 -0.1525
  613MOL0     C84518   0.668  11.512   3.501 -0.0705  0.3411 -0.0492
  613MOL0     C84519   0.564  11.432   3.584 -0.0127  0.1146  0.7803
  613MOL0     C84520   0.428  11.445   3.542 -0.0035 -0.9355  0.1361
  613MOL0     C84521   0.325  11.457   3.493 -0.1504  0.3494  0.2711
  613MOL0     C84522   1.053  11.406   3.190  0.2878  0.0400 -0.1779
  613MOL0     C84523   1.170  11.371   3.119 -0.1018  0.3285  1.5300
  613MOL0     C84524   1.159  11.295   2.986  0.2344 -0.2433  0.1931
  613MOL0     H84525   1.517  11.482   2.831 -2.2229  1.6545  3.7737
  613MOL0     H84526   1.724  11.475   2.705  0.1235  4.7316 -0.4591
  613MOL0     H84527   1.907  11.482   2.631  0.7101 -2.8236  1.2876
  613MOL0     H84528   2.086  11.500   2.634 -0.4257  1.6560 -2.2284
  613MOL0     H84529   1.954  11.717   2.566 -4.1473  0.7925  0.5674
  613MOL0     H84530   1.901  11.723   2.734  0.0997 -0.1560 -1.0338
  613MOL0     H84531   2.128  11.738   2.813  0.1313  1.4792  1.0436
  613MOL0     H84532   2.199  11.729   2.657  0.4195  1.0081  0.4087
  613MOL0     H84533   2.064  11.922   2.574 -0.2654 -0.9262  0.1092
  613MOL0     H84534   2.013  11.961   2.732 -2.3812  1.6496 -2.3986
  613MOL0     H84535   2.304  11.951   2.661  0.0367  0.0229 -0.2545
  613MOL0     H84536   2.229  11.973   2.816  2.0573  0.1715 -0.5315
  613MOL0     H84537   2.167  12.157   2.575 -0.1094  0.9501  0.0009
  613MOL0     H84538   2.115  12.169   2.751 -0.7667  0.6677 -0.7779
  613MOL0     H84539   2.397  12.165   2.639 -1.4323 -2.9477  1.2120
  613MOL0     H84540   2.356  12.184   2.813 -0.8229  0.5871 -0.2853
  613MOL0     H84541   2.267  12.392   2.617 -1.5517 -0.0562  0.6175
  613MOL0     H84542   2.244  12.413   2.784  1.0570  0.1889  1.4076
  613MOL0     H84543   2.456  12.453   2.943 -1.2509  0.0450  0.4581
  613MOL0     H84544   2.829  12.559   2.841 -0.1197 -1.0976 -1.0477
  613MOL0     H84545   2.752  12.471   2.980  0.0133  2.0523  1.3616
  613MOL0     H84546   2.610  12.659   3.027  0.4272 -2.7477  0.2416
  613MOL0     H84547   2.787  12.693   3.063  1.2381  2.0297 -0.0328
  613MOL0     H84548   2.810  12.827   2.884 -0.5627  1.9258  1.4159
  613MOL0     H84549   2.649  12.784   2.812 -0.9239 -0.8877  0.5542
  613MOL0     H84550   2.542  12.874   3.030  0.0350 -1.3214 -1.5021
  613MOL0     H84551   2.687  12.952   3.082  0.8359  2.8388 -1.3347
  613MOL0     H84552   2.582  13.219   2.742  0.6753  0.9848  0.8117
  613MOL0     H84553   2.792  13.469   2.629  3.0109 -1.3766  3.2177
  613MOL0     H84554   2.651  13.370   2.574 -0.1024 -1.8483  2.1131
  613MOL0     H84555   2.803  13.359   2.483 -1.1246 -2.0605 -0.1078
  613MOL0     H84556   3.103  13.293   2.381  0.9034  0.3343 -1.7125
  613MOL0     H84557   3.279  13.329   2.226 -1.0585  0.2132  1.3980
  613MOL0     H84558   3.512  13.281   2.062 -2.6765  0.9707  0.4216
  613MOL0     H84559   3.471  13.423   2.145  0.4957  0.0482 -0.9276
  613MOL0     H84560   3.739  13.310   2.069  0.2141 -0.3504  0.4551
  613MOL0     H84561   3.659  13.460   2.022 -0.7699 -0.9545 -0.1594
  613MOL0     H84562   3.696  13.515   2.282 -0.7742 -0.3711 -0.5306
  613MOL0     H84563   3.816  13.554   2.151 -0.4605 -0.0054 -1.2688
  613MOL0     H84564   3.848  13.301   2.300  1.0726  0.7965 -0.4516
  613MOL0     H84565   3.936  13.449   2.335  0.6837  1.9591 -1.4380
  613MOL0     H84566   3.935  13.280   2.083  1.3503 -0.1221 -2.0812
  613MOL0     H84567   3.996  13.451   2.083 -0.0096 -0.5428 -0.8595
  613MOL0     H84568   4.095  13.228   2.273  0.9254  0.3463  1.0486
  613MOL0     H84569   4.154  13.388   2.279  1.9884 -0.6837  1.2117
  613MOL0     H84570   4.159  13.259   2.003 -3.0427  2.3465  0.9243
  613MOL0     H84571   4.274  13.201   2.122  0.2901 -0.2706  1.0599
  613MOL0     H84572   4.377  13.436   2.118 -0.6644  1.4747  1.2184
  613MOL0     H84573   4.231  13.512   2.047  0.3631  0.1036 -2.7442
  613MOL0     H84574   3.561  13.204   2.512 -1.4880  0.4789  2.9340
  613MOL0     H84575   3.383  13.150   2.668 -5.4259 -0.1597 -0.0939
  613MOL0     H84576   3.054  13.121   2.846  0.4391  2.4151  2.2169
  613MOL0     H84577   2.867  13.013   2.969  1.0960  1.6815  0.6480
  613MOL0     H84578   1.941  11.447   3.078 -0.9469 -0.5872  0.5383
  613MOL0     H84579   1.732  11.462   3.194  1.5898  3.4925  0.1565
  613MOL0     H84580   1.383  11.486   3.360 -1.9475  1.0730  3.7141
  613MOL0     H84581   1.173  11.575   3.443 -2.0885  0.1132  0.8172
  613MOL0     H84582   1.015  11.535   3.562  0.0005  2.3026 -0.4242
  613MOL0     H84583   0.910  11.658   3.524  1.0189 -0.0312 -0.4620
  613MOL0     H84584   0.806  11.516   3.670 -2.1462  5.2459 -1.9458
  613MOL0     H84585   0.824  11.371   3.562 -0.4877 -0.9572  0.8124
  613MOL0     H84586   0.654  11.620   3.495 -0.2510  0.2815 -0.6990
  613MOL0     H84587   0.666  11.476   3.398 -0.3747  2.8630 -0.9869
  613MOL0     H84588   0.571  11.472   3.686 -0.3367  0.5927  0.6195
  613MOL0     H84589   0.594  11.327   3.578 -1.7498 -0.5131  2.0629
  613MOL0     H84590   0.227  11.466   3.449 -0.1984  1.3112  0.5665
  613MOL0     H84591   0.963  11.375   3.139 -0.3841 -0.9171  1.4934
  613MOL0     H84592   1.068  11.234   2.985 -0.5827  0.9222 -0.4628
  613MOL0     H84593   1.161  11.366   2.902 -0.2230  1.3092  1.4596
  613MOL0     H84594   1.244  11.230   2.963  1.2936  0.2320  2.4766
  614MOL0     O84595   1.687   4.809   3.217  0.4276  0.2890 -0.0006
  614MOL0     C84596   1.669   4.923   3.176 -0.5478  0.1980 -0.1330
  614MOL0     O84597   1.755   5.006   3.118 -0.2229 -0.5929  0.6720
  614MOL0     C84598   1.887   4.978   3.130 -0.5982 -0.0777  0.7785
  614MOL0     C84599   1.939   4.878   3.049 -0.1413 -0.0433  0.0819
  614MOL0     C84600   2.066   4.821   3.066  0.3107 -0.4403  0.2444
  614MOL0     C84601   2.154   4.876   3.161  0.1514  0.2320  1.1060
  614MOL0     O84602   2.280   4.827   3.193  0.5036 -0.6881 -0.6347
  614MOL0     C84603   2.297   4.690   3.185 -0.3367 -0.2129  0.1188
  614MOL0     C84604   2.416   4.634   3.265 -0.6238 -0.1354  0.5758
  614MOL0     C84605   2.389   4.622   3.413  0.3791 -0.5302  1.5169
  614MOL0     C84606   2.328   4.742   3.484 -0.0613 -0.2022 -0.1525
  614MOL0     C84607   2.347   4.736   3.631  0.0410  0.6329 -0.3706
  614MOL0     C84608   2.251   4.624   3.691  0.2474  0.1545 -0.3745
  614MOL0     C84609   2.332   4.512   3.748  0.4511  0.3707  0.4947
  614MOL0     C84610   2.238   4.403   3.801  0.5794  0.8036  0.9135
  614MOL0     N84611   2.158   4.329   3.704  0.3170  0.1482  0.1460
  614MOL0     C84612   2.176   4.323   3.567  0.6342 -0.1988  0.0834
  614MOL0     C84613   2.068   4.252   3.518 -1.2164 -0.7183  0.7666
  614MOL0     C84614   2.053   4.201   3.378 -0.0194 -0.2239 -0.0679
  614MOL0     C84615   2.178   4.136   3.323 -0.1319 -0.3867  0.4290
  614MOL0     C84616   2.233   4.020   3.413 -0.2275 -0.4239 -0.2773
  614MOL0     C84617   2.375   3.986   3.357 -0.6690 -0.4185 -0.6657
  614MOL0     O84618   2.462   4.101   3.373  0.2470  0.0384 -0.9059
  614MOL0     C84619   2.500   4.135   3.500 -0.3837  0.0252 -0.0722
  614MOL0     C84620   2.572   4.259   3.512  0.6285 -0.6826 -0.1650
  614MOL0     C84621   2.610   4.313   3.632  0.0944  0.5971 -0.6711
  614MOL0     C84622   2.694   4.441   3.618  0.5061 -0.2294  0.7791
  614MOL0     C84623   2.588   4.241   3.751  0.1351  0.0710 -0.1873
  614MOL0     C84624   2.613   4.286   3.890 -1.2398 -0.0315 -0.5532
  614MOL0     O84625   2.602   4.189   3.994  0.5798 -0.5264  0.0539
  614MOL0     C84626   2.648   4.224   4.119  0.6017  0.2092 -1.1806
  614MOL0     C84627   2.780   4.242   4.139 -0.7406  0.5889 -0.1686
  614MOL0     C84628   2.838   4.282   4.259 -0.5251 -0.4719 -0.7652
  614MOL0     C84629   2.758   4.324   4.365  0.3858 -0.6273 -0.3087
  614MOL0     O84630   2.802   4.360   4.494  0.4654  0.4465 -0.8260
  614MOL0     C84631   2.919   4.432   4.514 -0.0134 -0.5534  0.9711
  614MOL0     C84632   2.886   4.583   4.525 -0.3029 -0.6032 -0.2968
  614MOL0     C84633   2.781   4.618   4.632 -0.6731 -0.0240 -0.4078
  614MOL0     C84634   2.785   4.557   4.767 -0.2348  0.1220  0.4585
  614MOL0     C84635   2.699   4.634   4.862  0.5685  0.2819 -0.1839
  614MOL0     C84636   2.717   4.582   5.001 -0.5658  0.0186  0.1202
  614MOL0     C84637   2.656   4.687   5.102  0.4445  0.0259  0.3616
  614MOL0     C84638   2.678   4.631   5.242 -0.3182  0.1202  0.2300
  614MOL0    Cl84639   2.846   4.644   5.284  0.0008  0.2302 -0.0229
  614MOL0     C84640   2.620   4.313   4.349 -0.7290 -0.0467  0.5807
  614MOL0     C84641   2.564   4.261   4.224  0.4038 -0.8839  0.3030
  614MOL0     O84642   2.634   4.402   3.910  0.1646 -0.3296 -0.7680
  614MOL0     C84643   2.535   4.112   3.736  1.1503  0.1574 -1.0333
  614MOL0     C84644   2.486   4.063   3.616 -0.2383 -0.0752  0.3121
  614MOL0     N84645   1.987   4.227   3.619  0.0244  0.2942  0.5718
  614MOL0     N84646   2.037   4.270   3.725  0.1642 -0.1265 -0.7183
  614MOL0     C84647   2.113   4.990   3.221  0.2423 -0.2670  0.2096
  614MOL0     C84648   1.985   5.043   3.208 -0.2921 -0.1687  0.0429
  614MOL0     C84649   1.523   4.952   3.163 -0.6748  0.1794  0.0584
  614MOL0     C84650   1.437   4.840   3.162  0.1947  0.1070 -0.2495
  614MOL0     C84651   1.299   4.860   3.123 -0.0939 -0.1281  0.2507
  614MOL0     C84652   1.253   4.988   3.095  1.0988 -0.0312  0.5011
  614MOL0     O84653   1.117   5.000   3.053  0.9946 -0.3577  0.4760
  614MOL0     C84654   1.046   5.124   3.060  0.2564  0.5027 -1.0745
  614MOL0     C84655   0.913   5.116   2.985  0.5248  0.7643  0.1115
  614MOL0     C84656   0.934   5.094   2.839 -0.4128 -0.3630  0.1247
  614MOL0     C84657   0.847   5.196   2.759 -0.6675 -0.2043  0.1343
  614MOL0     C84658   0.713   5.177   2.807  0.5176  0.2289  0.4218
  614MOL0     C84659   0.603   5.162   2.857  0.1707  0.3312  0.6849
  614MOL0     C84660   1.339   5.106   3.106 -0.2751  0.2844  0.0243
  614MOL0     C84661   1.466   5.085   3.144 -0.6778  0.4183 -0.2107
  614MOL0     C84662   1.560   5.215   3.153 -0.7431  0.1696 -0.1057
  614MOL0     H84663   1.866   4.821   2.992  1.1386 -1.7494  0.0831
  614MOL0     H84664   2.106   4.740   3.006 -0.3954  1.4431 -3.0436
  614MOL0     H84665   2.305   4.658   3.081 -0.5797  2.1656 -0.7028
  614MOL0     H84666   2.203   4.649   3.225  0.2779 -2.0025 -0.1654
  614MOL0     H84667   2.457   4.540   3.229  0.8684  0.2008  1.3269
  614MOL0     H84668   2.497   4.708   3.258  0.1934 -0.9913  0.8556
  614MOL0     H84669   2.310   4.547   3.425 -0.5594  0.5881  2.5433
  614MOL0     H84670   2.485   4.605   3.462  3.0333  2.8960 -1.8692
  614MOL0     H84671   2.385   4.830   3.450  0.3653 -0.4048  0.0239
  614MOL0     H84672   2.224   4.757   3.457 -0.2026 -0.8537  0.0226
  614MOL0     H84673   2.320   4.830   3.679 -1.3841 -0.3119  0.7351
  614MOL0     H84674   2.448   4.719   3.669 -0.8315  1.2699  2.4172
  614MOL0     H84675   2.182   4.669   3.762 -0.4019 -1.9761  0.4327
  614MOL0     H84676   2.195   4.586   3.605  2.0581 -4.4030  0.1205
  614MOL0     H84677   2.396   4.547   3.829  2.4214  0.2200 -0.9220
  614MOL0     H84678   2.389   4.464   3.667 -0.1703 -0.5503  0.5827
  614MOL0     H84679   2.298   4.334   3.861 -0.2575 -0.5250  0.2785
  614MOL0     H84680   2.169   4.449   3.872  2.7769  0.0355  3.7503
  614MOL0     H84681   2.257   4.363   3.506 -0.5530  0.1315 -1.3239
  614MOL0     H84682   2.035   4.286   3.312 -2.6957 -1.0813 -0.5621
  614MOL0     H84683   1.973   4.127   3.380 -1.5933  1.3544  3.1930
  614MOL0     H84684   2.150   4.090   3.228 -1.4939 -2.8622  1.9169
  614MOL0     H84685   2.254   4.212   3.301 -2.0273  0.8113 -2.5375
  614MOL0     H84686   2.243   4.046   3.519  2.8096 -0.0671 -0.5535
  614MOL0     H84687   2.168   3.932   3.407  0.3531 -0.8812  0.0515
  614MOL0     H84688   2.422   3.895   3.396  2.3265  1.8700  1.5826
  614MOL0     H84689   2.357   3.968   3.251  1.2094 -2.2784 -0.7394
  614MOL0     H84690   2.581   4.304   3.414 -0.1725 -1.2599 -0.5183
  614MOL0     H84691   2.647   4.530   3.662  0.9903  0.0837  0.6797
  614MOL0     H84692   2.707   4.476   3.515 -1.3493  1.4274  1.0334
  614MOL0     H84693   2.790   4.431   3.671  1.0778  2.5993  0.4829
  614MOL0     H84694   2.849   4.223   4.057  0.0654  0.3282  0.5465
  614MOL0     H84695   2.945   4.292   4.275 -0.7430 -0.7802  1.1420
  614MOL0     H84696   2.963   4.388   4.604  0.3177  0.8706  1.5334
  614MOL0     H84697   2.990   4.412   4.434 -3.3430 -0.5816 -2.2818
  614MOL0     H84698   2.986   4.620   4.552 -0.4962  1.5706 -2.2979
  614MOL0     H84699   2.867   4.636   4.432  1.7372 -0.6157 -0.7845
  614MOL0     H84700   2.678   4.605   4.598 -1.0712  0.4227  0.5815
  614MOL0     H84701   2.787   4.727   4.645  1.1809 -0.2241  0.6982
  614MOL0     H84702   2.889   4.565   4.803  0.2628 -0.8926 -0.6970
  614MOL0     H84703   2.754   4.454   4.749  0.6728 -0.0982  0.0604
  614MOL0     H84704   2.726   4.740   4.861  1.8821  0.0176 -2.7701
  614MOL0     H84705   2.594   4.617   4.835  0.9530 -0.1972 -1.4545
  614MOL0     H84706   2.825   4.579   5.019 -0.6933  2.7447  1.9877
  614MOL0     H84707   2.664   4.487   5.014 -0.1352 -0.4056 -1.0208
  614MOL0     H84708   2.548   4.690   5.085  0.5258 -1.4134 -0.6003
  614MOL0     H84709   2.685   4.792   5.095  0.4935 -0.0913 -2.1293
  614MOL0     H84710   2.638   4.530   5.254  0.1988 -0.0313  0.7215
  614MOL0     H84711   2.626   4.684   5.322 -0.4385 -2.5062  1.9925
  614MOL0     H84712   2.560   4.359   4.427  0.5488  0.6276  1.2031
  614MOL0     H84713   2.457   4.273   4.214  0.5428  0.1385 -0.1032
  614MOL0     H84714   2.526   4.043   3.819  0.4898 -0.1837 -1.3800
  614MOL0     H84715   2.429   3.971   3.612 -0.2726 -0.0077 -1.4193
  614MOL0     H84716   2.178   5.046   3.288  1.7217 -2.1046  0.3942
  614MOL0     H84717   1.963   5.129   3.270 -1.1527 -1.3270  1.4132
  614MOL0     H84718   1.456   4.740   3.200 -0.1637  1.5637  4.4313
  614MOL0     H84719   1.230   4.777   3.108 -0.0978 -0.0210 -0.3348
  614MOL0     H84720   1.025   5.142   3.166  0.6099  0.8867 -1.0661
  614MOL0     H84721   1.106   5.207   3.021 -0.1827  0.6562 -1.4280
  614MOL0     H84722   0.879   5.219   3.004  1.9771  1.5144 -1.1505
  614MOL0     H84723   0.843   5.051   3.039  0.4375  1.5915  1.0258
  614MOL0     H84724   1.039   5.113   2.816 -0.6041 -0.2305 -0.6863
  614MOL0     H84725   0.892   4.997   2.809 -3.5328  1.1895 -0.9615
  614MOL0     H84726   0.838   5.170   2.653 -0.4316 -0.6820  0.2300
  614MOL0     H84727   0.879   5.299   2.776 -1.9564  0.6181 -2.0395
  614MOL0     H84728   0.513   5.136   2.908  0.4712 -1.5204  0.3568
  614MOL0     H84729   1.298   5.204   3.086 -0.9427 -0.0876 -0.4497
  614MOL0     H84730   1.512   5.313   3.149  0.0480  0.5285 -1.3968
  614MOL0     H84731   1.621   5.209   3.244 -1.1613 -1.0925  0.1152
  614MOL0     H84732   1.632   5.211   3.070 -0.8761 -0.8595 -0.1892
  615MOL0     O84733   3.788   1.424   5.203 -0.0654 -0.4106 -0.1117
  615MOL0     C84734   3.811   1.437   5.322  0.7364 -0.7627 -0.2565
  615MOL0     O84735   3.708   1.463   5.416 -0.6686  0.2730 -0.3206
  615MOL0     C84736   3.579   1.470   5.365 -0.2271  0.6598 -0.5751
  615MOL0     C84737   3.504   1.358   5.316  0.3650 -0.2438  0.7985
  615MOL0     C84738   3.374   1.376   5.265 -0.1440 -0.0314  0.2900
  615MOL0     C84739   3.307   1.500   5.266  0.3641 -0.9293 -0.4816
  615MOL0     O84740   3.178   1.508   5.223 -0.4980 -0.1472  0.3710
  615MOL0     C84741   3.140   1.628   5.148 -0.2697  0.6936  0.1425
  615MOL0     C84742   2.994   1.617   5.117  0.5427 -0.0506 -0.2414
  615MOL0     C84743   2.901   1.624   5.231 -0.8844 -0.1782  1.0881
  615MOL0     C84744   2.785   1.528   5.224  0.3854  0.5769  0.3681
  615MOL0     C84745   2.662   1.585   5.146  0.5349  0.2902 -0.3094
  615MOL0     C84746   2.543   1.496   5.167 -0.1738 -0.6497  0.2183
  615MOL0     C84747   2.422   1.550   5.091  0.6848 -0.3156 -0.4212
  615MOL0     C84748   2.327   1.640   5.169 -0.7377  0.9409 -0.0941
  615MOL0     N84749   2.388   1.752   5.236  0.1691 -0.9498  0.4045
  615MOL0     C84750   2.412   1.764   5.372 -0.0307 -0.6164  0.0325
  615MOL0     C84751   2.429   1.896   5.400  0.4183  0.1060  0.4975
  615MOL0     C84752   2.459   1.948   5.537 -0.3457 -0.6760 -0.0214
  615MOL0     C84753   2.603   1.918   5.578  0.0532 -0.8578  0.6804
  615MOL0     C84754   2.707   1.999   5.481  0.3409 -0.3791 -0.5462
  615MOL0     C84755   2.845   1.972   5.526 -1.0454  0.9684  0.2369
  615MOL0     O84756   2.875   1.830   5.500 -0.0309 -0.2579 -0.0794
  615MOL0     C84757   2.983   1.771   5.553 -0.0333  0.0177 -0.2186
  615MOL0     C84758   3.098   1.850   5.588 -0.3311 -1.1925 -0.1241
  615MOL0     C84759   3.216   1.801   5.628 -1.4496  0.3137  0.0192
  615MOL0     C84760   3.323   1.903   5.674  0.4238 -0.6186 -0.5766
  615MOL0     C84761   3.229   1.656   5.640 -0.4856 -0.2211  0.1861
  615MOL0     C84762   3.351   1.585   5.691 -0.1328 -1.1048  1.0898
  615MOL0     O84763   3.453   1.671   5.720  0.7049  0.0751  0.0940
  615MOL0     C84764   3.582   1.633   5.749 -0.4055  0.2421  0.6456
  615MOL0     C84765   3.683   1.694   5.683 -0.7451  0.0951  0.4050
  615MOL0     C84766   3.819   1.658   5.719  0.1801 -0.7586 -0.4358
  615MOL0     C84767   3.855   1.573   5.825  0.4717 -0.3466 -0.3567
  615MOL0     O84768   3.987   1.565   5.862 -0.0616 -0.1330  0.0456
  615MOL0     C84769   4.020   1.533   6.002  0.4545 -0.1002  0.2159
  615MOL0     C84770   4.166   1.556   6.025  0.7177  0.3311  0.4972
  615MOL0     C84771   4.189   1.707   6.018 -0.8563  0.0405  0.2517
  615MOL0     C84772   4.338   1.734   6.049 -0.2227 -0.4671 -0.7852
  615MOL0     C84773   4.364   1.876   6.019 -0.1091 -0.0309  0.5795
  615MOL0     C84774   4.515   1.908   6.025 -0.1652  0.2370 -0.1691
  615MOL0     C84775   4.611   1.842   5.920  0.5150 -0.0668  0.6271
  615MOL0     C84776   4.544   1.843   5.779 -0.0785 -0.7259 -0.2848
  615MOL0    Cl84777   4.680   1.838   5.665 -0.1821  0.0519 -0.0415
  615MOL0     C84778   3.753   1.496   5.880 -0.6387 -0.3711 -0.5851
  615MOL0     C84779   3.626   1.533   5.846 -0.3181 -0.5024  0.9508
  615MOL0     O84780   3.359   1.464   5.684  0.3930  0.2480  0.0430
  615MOL0     C84781   3.111   1.584   5.621  0.5768 -0.5404  0.4670
  615MOL0     C84782   2.988   1.639   5.582  0.2190 -0.3367  0.9228
  615MOL0     N84783   2.423   1.961   5.282 -0.1589  0.3883  0.1028
  615MOL0     N84784   2.400   1.881   5.187  0.0600  0.3356 -0.3321
  615MOL0     C84785   3.376   1.610   5.323  0.9714  0.0144  0.4940
  615MOL0     C84786   3.512   1.606   5.368 -0.3815  0.9094  1.3660
  615MOL0     C84787   3.954   1.426   5.364 -0.3183 -0.2819  0.0941
  615MOL0     C84788   3.989   1.454   5.499 -0.2514 -0.5253  0.1866
  615MOL0     C84789   4.123   1.447   5.537  0.3272  0.5885  0.1017
  615MOL0     C84790   4.221   1.401   5.453 -0.4146 -0.2231  0.2690
  615MOL0     O84791   4.350   1.365   5.503  0.4423 -0.2061 -0.3182
  615MOL0     C84792   4.383   1.395   5.635 -0.2037  0.5873 -0.0571
  615MOL0     C84793   4.529   1.347   5.659 -0.2192 -0.6460 -0.4908
  615MOL0     C84794   4.576   1.397   5.805 -0.5279 -0.6062  0.7280
  615MOL0     C84795   4.726   1.442   5.806 -1.0194 -0.6664  0.0003
  615MOL0     C84796   4.820   1.334   5.782  0.4988 -0.3256 -0.5256
  615MOL0     C84797   4.886   1.242   5.736 -0.0389  0.0831  0.1413
  615MOL0     C84798   4.190   1.366   5.320  0.0721 -0.6668 -0.5289
  615MOL0     C84799   4.062   1.381   5.274  0.5601  0.4336  0.2780
  615MOL0     C84800   4.046   1.336   5.128  1.3383 -0.3498 -0.2954
  615MOL0     H84801   3.549   1.259   5.307  0.4773 -0.2389  1.2377
  615MOL0     H84802   3.331   1.285   5.227 -3.1387  1.7029 -0.8378
  615MOL0     H84803   3.195   1.654   5.057  2.7267  1.7009  2.1291
  615MOL0     H84804   3.147   1.722   5.203 -0.0614  2.0721 -2.1218
  615MOL0     H84805   2.953   1.700   5.058 -1.3575 -0.7512  0.0088
  615MOL0     H84806   2.977   1.525   5.061 -1.0662  1.4131 -2.3198
  615MOL0     H84807   2.958   1.580   5.313  3.6578 -2.0025 -2.5547
  615MOL0     H84808   2.869   1.725   5.257 -1.4987 -0.9840  3.7458
  615MOL0     H84809   2.814   1.436   5.172  0.9814  2.2213 -2.4421
  615MOL0     H84810   2.757   1.512   5.328 -0.6892  0.0605  0.0099
  615MOL0     H84811   2.686   1.584   5.039 -3.4216 -3.1252 -1.4060
  615MOL0     H84812   2.645   1.688   5.177  0.1704  0.4320 -0.9609
  615MOL0     H84813   2.574   1.402   5.120  1.7804 -0.5855  1.2882
  615MOL0     H84814   2.527   1.495   5.275 -0.0363  0.5459  0.2582
  615MOL0     H84815   2.367   1.467   5.044 -0.3133  2.2545 -4.2902
  615MOL0     H84816   2.449   1.611   5.004  2.7319  1.6082  1.4304
  615MOL0     H84817   2.270   1.685   5.088  0.4730 -1.5124 -2.4666
  615MOL0     H84818   2.262   1.586   5.239 -1.5610 -0.0226 -1.5409
  615MOL0     H84819   2.409   1.684   5.445 -3.1462  0.4286  1.1916
  615MOL0     H84820   2.391   1.898   5.607 -0.2334 -1.1293 -0.2330
  615MOL0     H84821   2.434   2.054   5.541 -0.0624 -0.6497  2.5451
  615MOL0     H84822   2.614   1.940   5.685  2.5462 -3.5137  1.0908
  615MOL0     H84823   2.616   1.811   5.561 -1.4148 -1.0587  0.7041
  615MOL0     H84824   2.703   1.961   5.379  1.6924  0.0594 -0.7806
  615MOL0     H84825   2.681   2.105   5.482 -0.4207 -0.5332  1.5471
  615MOL0     H84826   2.913   2.040   5.475 -0.5569 -2.0381 -3.6389
  615MOL0     H84827   2.859   1.985   5.634  0.5822 -1.1577  0.3569
  615MOL0     H84828   3.100   1.956   5.564 -2.2806 -1.0603  0.1083
  615MOL0     H84829   3.360   1.899   5.777 -2.3868  2.6610  0.7332
  615MOL0     H84830   3.295   2.006   5.650  2.7694  0.5586  1.3467
  615MOL0     H84831   3.417   1.901   5.619  2.8747  3.2593  2.8824
  615MOL0     H84832   3.687   1.761   5.598  3.2312 -3.9335 -3.0807
  615MOL0     H84833   3.901   1.700   5.660 -1.3813  0.7248 -1.6612
  615MOL0     H84834   3.969   1.597   6.074  2.7379 -0.0516  1.8959
  615MOL0     H84835   3.987   1.430   6.018 -1.6798  0.1264 -2.0852
  615MOL0     H84836   4.191   1.529   6.128 -0.0840  1.2367  0.9505
  615MOL0     H84837   4.227   1.492   5.960  1.9444  0.6333  1.3147
  615MOL0     H84838   4.125   1.772   6.078 -0.2625  1.6008 -0.7359
  615MOL0     H84839   4.184   1.751   5.918  5.8390  2.9382  0.6284
  615MOL0     H84840   4.408   1.668   5.996  2.5972 -0.6874  2.8156
  615MOL0     H84841   4.353   1.729   6.157  1.1132  2.7279 -0.7256
  615MOL0     H84842   4.332   1.894   5.916 -1.1917  0.4712  0.9919
  615MOL0     H84843   4.308   1.946   6.082  1.6775  2.1355 -0.0858
  615MOL0     H84844   4.548   1.876   6.124  0.0007 -1.2406 -0.6653
  615MOL0     H84845   4.526   2.016   6.029 -0.2504  0.2542  4.1513
  615MOL0     H84846   4.615   1.737   5.950  1.2555 -0.1320  0.3249
  615MOL0     H84847   4.711   1.885   5.919  0.5348 -0.0567 -1.3814
  615MOL0     H84848   4.472   1.923   5.759  2.1843  1.5852  0.2864
  615MOL0     H84849   4.482   1.753   5.772  1.1501 -2.0053  3.1206
  615MOL0     H84850   3.777   1.416   5.950 -0.1193 -2.0821 -2.6202
  615MOL0     H84851   3.545   1.479   5.894  1.1989 -5.6066 -1.4848
  615MOL0     H84852   3.109   1.477   5.641  0.7867 -0.8743 -1.2033
  615MOL0     H84853   2.905   1.572   5.559 -0.6510  1.2489 -0.8732
  615MOL0     H84854   3.320   1.702   5.305 -1.9130 -2.0204 -2.0827
  615MOL0     H84855   3.560   1.685   5.424  0.5098  0.2779  1.5088
  615MOL0     H84856   3.913   1.473   5.575 -0.7928  0.0013 -0.4799
  615MOL0     H84857   4.137   1.458   5.644 -2.0835 -2.6499  0.9058
  615MOL0     H84858   4.380   1.504   5.645  3.1332  0.9844 -1.6955
  615MOL0     H84859   4.321   1.347   5.711  0.0836  0.6145  0.1967
  615MOL0     H84860   4.599   1.396   5.590 -1.9142  0.7761 -1.2988
  615MOL0     H84861   4.533   1.239   5.643 -4.3166 -0.7012 -2.4261
  615MOL0     H84862   4.503   1.465   5.850 -3.0238 -3.4139  1.1876
  615MOL0     H84863   4.568   1.315   5.877 -1.7716  1.5049  3.1478
  615MOL0     H84864   4.737   1.483   5.907 -1.2559  0.7962 -0.5389
  615MOL0     H84865   4.745   1.526   5.739 -2.1564  0.6963  1.3002
  615MOL0     H84866   4.943   1.161   5.695  0.0903  0.9098 -1.4244
  615MOL0     H84867   4.273   1.328   5.261  1.7709  0.3741  1.0644
  615MOL0     H84868   4.139   1.290   5.093  2.2535  2.4063 -1.7719
  615MOL0     H84869   3.968   1.259   5.117 -0.5723  1.5783 -1.0485
  615MOL0     H84870   4.016   1.424   5.070  1.3953 -0.2802 -0.2201
  616MOL0     O84871   7.762   6.832   5.409 -0.0594 -0.2298 -0.1629
  616MOL0     C84872   7.755   6.727   5.345 -0.8408  1.4705  0.6669
  616MOL0     O84873   7.841   6.693   5.241  0.0433  0.9921  0.1128
  616MOL0     C84874   7.951   6.760   5.201  0.7245 -0.4121  0.1402
  616MOL0     C84875   8.077   6.743   5.265  0.3772 -0.2137 -0.3705
  616MOL0     C84876   8.186   6.804   5.193  1.5388  0.8484 -1.6311
  616MOL0     C84877   8.174   6.892   5.093  0.1898  0.4067 -0.0725
  616MOL0     O84878   8.272   6.970   5.054  0.0114  0.0773 -0.0342
  616MOL0     C84879   8.409   6.935   5.093  0.2605 -0.5986  0.3203
  616MOL0     C84880   8.500   7.004   4.994 -0.0816 -0.8150  0.5384
  616MOL0     C84881   8.643   7.007   5.041  0.4521 -0.9076 -0.9318
  616MOL0     C84882   8.673   7.094   5.168 -0.4997  0.6879 -0.4277
  616MOL0     C84883   8.655   7.245   5.148 -0.1842 -0.0144  0.0768
  616MOL0     C84884   8.685   7.318   5.277  0.5606 -0.2646  0.1202
  616MOL0     C84885   8.675   7.471   5.270 -0.9698  0.4683  1.2833
  616MOL0     C84886   8.535   7.529   5.224 -0.4470 -0.8269 -0.0764
  616MOL0     N84887   8.430   7.468   5.302  0.3108 -0.2736 -0.3888
  616MOL0     C84888   8.351   7.369   5.268 -0.3322 -0.4047  1.0564
  616MOL0     C84889   8.271   7.346   5.365  0.8905  0.3651  0.4430
  616MOL0     C84890   8.163   7.237   5.393  0.0304  0.7117 -0.0967
  616MOL0     C84891   8.217   7.091   5.382 -0.1254  0.1309 -0.3310
  616MOL0     C84892   8.333   7.056   5.484  0.1100  0.1732  0.3623
  616MOL0     C84893   8.322   6.907   5.535 -0.0643 -0.3961 -0.7360
  616MOL0     O84894   8.409   6.906   5.643  0.2086 -0.2210  0.2046
  616MOL0     C84895   8.487   6.792   5.648 -0.6154 -0.2343 -0.1343
  616MOL0     C84896   8.620   6.817   5.606 -0.3796  0.2622 -0.1398
  616MOL0     C84897   8.714   6.713   5.596  0.6537 -0.6183 -0.4622
  616MOL0     C84898   8.855   6.761   5.554 -0.8104  0.3017  0.2856
  616MOL0     C84899   8.666   6.579   5.613  0.1182  1.0962 -0.2998
  616MOL0     C84900   8.760   6.468   5.588  0.6682 -0.1638 -0.0695
  616MOL0     O84901   8.763   6.366   5.676 -0.6408 -0.4644 -0.2439
  616MOL0     C84902   8.824   6.244   5.668  0.3868 -0.0378 -0.5199
  616MOL0     C84903   8.908   6.206   5.559 -0.0107  0.5719  0.0828
  616MOL0     C84904   8.947   6.077   5.562 -0.2992 -0.2074  0.5402
  616MOL0     C84905   8.917   5.984   5.655 -0.5193 -0.2265 -0.7720
  616MOL0     O84906   8.971   5.862   5.635 -0.0145 -0.1085 -0.4337
  616MOL0     C84907   8.895   5.737   5.645  0.1747 -0.5646 -0.1205
  616MOL0     C84908   8.994   5.624   5.647  0.6828  0.3767 -0.0850
  616MOL0     C84909   9.070   5.597   5.784 -0.0726 -0.6465  0.4260
  616MOL0     C84910   9.175   5.498   5.764 -0.5691  0.1710  0.3702
  616MOL0     C84911   9.141   5.365   5.703 -0.4387 -0.1097  0.4147
  616MOL0     C84912   9.263   5.264   5.682  0.1664 -0.8514 -0.5948
  616MOL0     C84913   9.338   5.294   5.560 -0.2017 -0.0422  0.9951
  616MOL0     C84914   9.444   5.188   5.546  0.1255  0.0758 -0.0084
  616MOL0    Cl84915   9.543   5.186   5.388 -0.1045 -0.2115 -0.1029
  616MOL0     C84916   8.824   6.019   5.755 -1.1833 -0.4806  0.0826
  616MOL0     C84917   8.781   6.148   5.764  0.7065  0.3783  0.4167
  616MOL0     O84918   8.824   6.473   5.481  0.9378  0.5097 -0.2275
  616MOL0     C84919   8.537   6.556   5.647 -0.3258 -0.3256  0.1458
  616MOL0     C84920   8.448   6.660   5.659  1.1401 -0.9292 -0.0600
  616MOL0     N84921   8.298   7.435   5.464 -0.0918 -0.2864  0.1283
  616MOL0     N84922   8.398   7.506   5.427  0.3668 -0.2079  0.5723
  616MOL0     C84923   8.054   6.899   5.028 -0.2981 -0.1090 -0.4921
  616MOL0     C84924   7.941   6.836   5.081 -0.2862  0.1718  0.2851
  616MOL0     C84925   7.646   6.626   5.359 -0.0448 -0.6233 -0.1387
  616MOL0     C84926   7.682   6.487   5.337  0.5139  0.1948 -0.7536
  616MOL0     C84927   7.591   6.387   5.339 -0.1182 -0.1904  0.0072
  616MOL0     C84928   7.458   6.409   5.363  0.7241 -0.0947 -0.1416
  616MOL0     O84929   7.360   6.306   5.355  0.0231 -0.4177 -0.0570
  616MOL0     C84930   7.406   6.165   5.367 -0.5541 -0.8421 -0.6541
  616MOL0     C84931   7.428   6.092   5.244  0.3463  1.0047  0.3026
  616MOL0     C84932   7.476   5.944   5.279  0.0175  0.2898  0.2437
  616MOL0     C84933   7.625   5.945   5.320  0.2318  0.2214  0.6304
  616MOL0     C84934   7.716   5.993   5.218  0.7140  1.0220 -0.1957
  616MOL0     C84935   7.780   6.015   5.122 -0.4954  0.5815  0.6245
  616MOL0     C84936   7.416   6.540   5.394  0.5880  0.2974 -0.5891
  616MOL0     C84937   7.506   6.649   5.382  0.5357 -0.3939 -0.4128
  616MOL0     C84938   7.448   6.798   5.420  0.0888  0.2506 -0.0497
  616MOL0     H84939   8.079   6.686   5.357 -1.1650  0.4376  0.1002
  616MOL0     H84940   8.273   6.785   5.255 -1.6183  0.7814  3.2996
  616MOL0     H84941   8.441   6.832   5.112 -0.1098 -0.5898  1.0429
  616MOL0     H84942   8.430   6.986   5.188  1.4191  1.3299 -0.9020
  616MOL0     H84943   8.488   6.958   4.895  3.5757 -2.8764  0.8806
  616MOL0     H84944   8.469   7.109   4.987  1.1599 -0.3172  1.9934
  616MOL0     H84945   8.671   6.902   5.057  0.4225 -0.7435  0.2528
  616MOL0     H84946   8.696   7.050   4.955  0.1737 -1.1845 -1.2472
  616MOL0     H84947   8.606   7.065   5.250  2.3084 -0.1489  1.7160
  616MOL0     H84948   8.776   7.077   5.199 -0.8045 -0.2923  0.0721
  616MOL0     H84949   8.552   7.263   5.115  0.5174  2.9461 -0.7873
  616MOL0     H84950   8.719   7.278   5.066  0.9974 -2.5303 -0.1040
  616MOL0     H84951   8.633   7.271   5.361  0.5059 -3.5862 -1.6383
  616MOL0     H84952   8.791   7.310   5.302  0.5771  3.2630  1.9020
  616MOL0     H84953   8.754   7.507   5.203  1.6192 -0.6564  3.5522
  616MOL0     H84954   8.702   7.506   5.370  3.1973  2.7067 -0.3654
  616MOL0     H84955   8.532   7.636   5.245 -1.4587 -0.8836  0.1443
  616MOL0     H84956   8.517   7.521   5.117 -1.8883  3.0039 -0.2893
  616MOL0     H84957   8.354   7.334   5.165  3.5609 -0.7857  1.1553
  616MOL0     H84958   8.073   7.251   5.332 -0.8864 -0.8439  0.8373
  616MOL0     H84959   8.135   7.232   5.498  2.3339 -0.2350  0.5448
  616MOL0     H84960   8.130   7.025   5.394  0.6691 -1.3100 -1.9340
  616MOL0     H84961   8.253   7.088   5.279  2.8307  1.6655  0.5643
  616MOL0     H84962   8.433   7.073   5.443 -0.0735  3.5550  1.0252
  616MOL0     H84963   8.326   7.116   5.575 -0.2088 -1.3401  1.3772
  616MOL0     H84964   8.221   6.888   5.572  0.1027  1.0219  0.5444
  616MOL0     H84965   8.342   6.831   5.459 -2.6395 -1.2648 -0.6281
  616MOL0     H84966   8.650   6.920   5.596 -1.3992  0.4433 -1.6895
  616MOL0     H84967   8.870   6.784   5.448  2.8732 -1.0386  0.3880
  616MOL0     H84968   8.932   6.685   5.570  0.6754  1.6229 -0.4327
  616MOL0     H84969   8.884   6.850   5.610 -2.0088 -0.9579  3.1255
  616MOL0     H84970   8.946   6.286   5.496  1.5385  2.3607  2.9965
  616MOL0     H84971   9.007   6.043   5.478  1.0909  1.4099  0.8303
  616MOL0     H84972   8.834   5.734   5.735  0.4555 -1.1403  0.0558
  616MOL0     H84973   8.842   5.729   5.549 -1.1367  4.1794 -0.0266
  616MOL0     H84974   8.924   5.542   5.631 -0.6231  1.9359 -3.2461
  616MOL0     H84975   9.060   5.624   5.560  0.6027  1.9146 -0.1769
  616MOL0     H84976   9.000   5.568   5.863  2.0448 -0.6847  2.3912
  616MOL0     H84977   9.113   5.694   5.808 -1.9324  0.1349  0.8098
  616MOL0     H84978   9.221   5.481   5.862 -0.0945 -3.1038 -0.3270
  616MOL0     H84979   9.252   5.538   5.697  0.5195 -0.1959  1.3535
  616MOL0     H84980   9.069   5.325   5.775 -0.1676  2.2582  2.1327
  616MOL0     H84981   9.082   5.374   5.612 -1.4860  0.2892  1.1095
  616MOL0     H84982   9.219   5.164   5.688 -3.4965  0.6445  0.0884
  616MOL0     H84983   9.335   5.278   5.763  2.1909  1.1608 -2.5897
  616MOL0     H84984   9.371   5.397   5.547  0.3898 -0.4317 -0.8248
  616MOL0     H84985   9.264   5.273   5.483 -1.4046  1.0804  1.8052
  616MOL0     H84986   9.401   5.090   5.568 -0.5533  0.6122  1.1463
  616MOL0     H84987   9.522   5.210   5.620  0.1776  0.1723 -0.0917
  616MOL0     H84988   8.778   5.944   5.819  0.9166 -0.4944  1.6796
  616MOL0     H84989   8.704   6.170   5.837  0.2520 -4.0663  1.5871
  616MOL0     H84990   8.521   6.449   5.661  0.5851 -0.7613 -1.8475
  616MOL0     H84991   8.345   6.629   5.675  0.2300  0.8048 -2.1108
  616MOL0     H84992   8.037   6.954   4.936 -0.5855 -0.3218 -0.5690
  616MOL0     H84993   7.849   6.836   5.023  1.6217 -1.4862 -3.0302
  616MOL0     H84994   7.785   6.458   5.318  1.6245  3.2863 -0.0761
  616MOL0     H84995   7.631   6.289   5.316  0.1998  0.5032 -2.6037
  616MOL0     H84996   7.481   6.157   5.446 -3.2586  2.2834  2.6000
  616MOL0     H84997   7.321   6.124   5.422 -2.0366  0.4832 -1.8620
  616MOL0     H84998   7.494   6.126   5.163  1.3805  0.3156  0.8257
  616MOL0     H84999   7.326   6.085   5.206  0.4371 -0.1711  0.2438
  616MOL0     H85000   7.415   5.906   5.362  0.1573  4.7400  2.6939
  616MOL0     H85001   7.472   5.869   5.199  0.3975 -1.2949  1.6476
  616MOL0     H85002   7.656   5.841   5.334  1.1604  0.2115 -1.2089
  616MOL0     H85003   7.643   6.000   5.413 -1.2242 -0.7422  1.5295
  616MOL0     H85004   7.852   6.040   5.047  0.3178  0.2683  1.2805
  616MOL0     H85005   7.312   6.547   5.424  1.8225  0.6023  4.5479
  616MOL0     H85006   7.469   6.830   5.523  0.6115  0.3943 -0.1974
  616MOL0     H85007   7.495   6.870   5.352  0.9182 -0.1866  0.0504
  616MOL0     H85008   7.341   6.791   5.400 -0.1068  0.6843  0.7961
  617MOL0     O85009   4.805  10.508   4.204 -0.0004  0.1258 -0.3940
  617MOL0     C85010   4.699  10.525   4.264 -0.0433 -0.7836  0.1850
  617MOL0     O85011   4.683  10.549   4.397  0.2517 -0.0920 -0.1009
  617MOL0     C85012   4.795  10.591   4.474  0.3372  0.0663  0.0258
  617MOL0     C85013   4.877  10.706   4.444 -0.1210  0.9551  0.0636
  617MOL0     C85014   4.984  10.739   4.519  0.6042 -0.0928 -0.0977
  617MOL0     C85015   5.007  10.666   4.633  0.2880 -0.1719  0.5602
  617MOL0     O85016   5.092  10.700   4.729  0.3931 -0.5875 -0.8332
  617MOL0     C85017   5.239  10.687   4.703  0.1374  1.0311  0.4889
  617MOL0     C85018   5.314  10.817   4.698  0.6760 -0.4093 -0.0700
  617MOL0     C85019   5.310  10.913   4.821 -0.5688  0.4851 -0.6567
  617MOL0     C85020   5.389  10.853   4.926  0.5902 -0.0433 -0.5637
  617MOL0     C85021   5.361  10.942   5.051  0.7245  0.2885  0.2109
  617MOL0     C85022   5.443  10.892   5.171 -0.5051 -0.5085  0.2597
  617MOL0     C85023   5.586  10.907   5.145  0.4817 -0.0093  0.5353
  617MOL0     C85024   5.665  10.901   5.277  0.5002 -0.4790  0.4132
  617MOL0     N85025   5.642  11.021   5.360 -0.2799 -0.3017  0.6703
  617MOL0     C85026   5.703  11.038   5.475 -0.2440 -0.0993  0.3915
  617MOL0     C85027   5.707  11.174   5.495  0.3471 -0.1657 -0.2227
  617MOL0     C85028   5.760  11.269   5.602 -0.0067 -0.0665  0.3273
  617MOL0     C85029   5.883  11.355   5.550  0.5173  0.3769 -0.2115
  617MOL0     C85030   5.861  11.507   5.540  0.6172  0.0058 -0.0684
  617MOL0     C85031   5.729  11.554   5.475 -0.1790  0.6207  0.1245
  617MOL0     O85032   5.703  11.683   5.514  0.0612 -0.5167 -0.9013
  617MOL0     C85033   5.567  11.723   5.524 -0.5881 -0.0614  0.0459
  617MOL0     C85034   5.550  11.850   5.575 -0.0279 -0.1085  0.0880
  617MOL0     C85035   5.418  11.898   5.603  0.0314  0.4582  0.2385
  617MOL0     C85036   5.412  12.036   5.662  0.3308 -0.5628 -0.0996
  617MOL0     C85037   5.305  11.812   5.582 -0.1474 -0.4086 -0.4536
  617MOL0     C85038   5.170  11.836   5.645  0.8619  0.1697  0.6186
  617MOL0     O85039   5.061  11.769   5.579 -0.1501 -0.6554  0.0215
  617MOL0     C85040   4.932  11.768   5.625  0.5952 -1.0423 -0.0562
  617MOL0     C85041   4.836  11.726   5.531 -0.2307 -0.5325  0.2049
  617MOL0     C85042   4.704  11.719   5.566  0.1361  0.2652  0.0502
  617MOL0     C85043   4.659  11.747   5.695 -0.5128  0.6788  0.4954
  617MOL0     O85044   4.523  11.733   5.705  0.7499 -0.5278  0.7004
  617MOL0     C85045   4.467  11.688   5.825 -0.1425  0.5723  0.2190
  617MOL0     C85046   4.312  11.721   5.839 -0.4017  0.2162  0.2690
  617MOL0     C85047   4.293  11.874   5.846 -0.0606 -0.5645  0.3858
  617MOL0     C85048   4.134  11.905   5.824 -0.5696  0.2529  0.5110
  617MOL0     C85049   4.110  12.057   5.838  0.4028 -0.3605 -0.1051
  617MOL0     C85050   3.960  12.084   5.815  0.9865 -0.5003  0.4682
  617MOL0     C85051   3.909  12.195   5.912  0.0150  0.1443  0.1167
  617MOL0     C85052   3.772  12.248   5.864 -0.3533  0.4786 -0.3934
  617MOL0    Cl85053   3.625  12.157   5.894  0.2652 -0.1228  0.1602
  617MOL0     C85054   4.756  11.778   5.788 -0.0402  0.7773 -0.8807
  617MOL0     C85055   4.892  11.789   5.760  0.1253  0.4184 -0.6575
  617MOL0     O85056   5.155  11.922   5.724 -1.1491 -0.3180 -0.2017
  617MOL0     C85057   5.333  11.694   5.514 -0.0972 -0.8393  0.3158
  617MOL0     C85058   5.458  11.647   5.489 -0.6154  0.3597  0.5088
  617MOL0     N85059   5.642  11.242   5.393 -0.2693 -0.5000  0.4182
  617MOL0     N85060   5.608  11.149   5.314  0.0718 -0.1630  0.3869
  617MOL0     C85061   4.927  10.562   4.678  0.1689  0.6970 -0.2091
  617MOL0     C85062   4.821  10.516   4.588 -1.0530  0.1558  0.1290
  617MOL0     C85063   4.573  10.548   4.191  0.3404  0.4575 -0.3671
  617MOL0     C85064   4.475  10.641   4.241 -0.3156  0.2813  0.2601
  617MOL0     C85065   4.360  10.666   4.161  0.3527  0.1642 -0.3349
  617MOL0     C85066   4.330  10.596   4.042 -0.7763 -0.0542  0.2813
  617MOL0     O85067   4.220  10.624   3.979  0.1582 -0.0278 -0.0560
  617MOL0     C85068   4.168  10.525   3.885  0.1690  0.7662  0.6016
  617MOL0     C85069   4.036  10.560   3.819 -0.4116 -0.5006 -0.1583
  617MOL0     C85070   4.000  10.462   3.713  0.3201 -0.1439 -0.7327
  617MOL0     C85071   3.865  10.482   3.641 -0.1395 -0.5060  0.8984
  617MOL0     C85072   3.872  10.611   3.569  0.6713  0.1782 -0.6905
  617MOL0     C85073   3.868  10.715   3.510  0.0995 -0.4070 -0.0057
  617MOL0     C85074   4.423  10.508   3.994 -0.2861  1.0072 -0.0258
  617MOL0     C85075   4.547  10.485   4.062 -1.1349 -0.0733  0.0674
  617MOL0     C85076   4.642  10.381   4.000  0.3692 -0.2347  0.7237
  617MOL0     H85077   4.847  10.768   4.360  2.1065  0.2079 -1.3490
  617MOL0     H85078   5.057  10.816   4.497 -1.0086  2.4664  2.7029
  617MOL0     H85079   5.249  10.617   4.619 -1.9530  2.1584 -0.8161
  617MOL0     H85080   5.280  10.632   4.787 -1.5119 -2.8137 -0.9873
  617MOL0     H85081   5.418  10.794   4.674  1.2664  1.0266  0.9823
  617MOL0     H85082   5.279  10.875   4.612 -0.1226 -0.7580  0.0060
  617MOL0     H85083   5.345  11.015   4.806 -1.6154  0.9832  0.1456
  617MOL0     H85084   5.206  10.910   4.857 -0.3553  0.2472 -0.0474
  617MOL0     H85085   5.359  10.754   4.961  0.2165  0.7685  1.6102
  617MOL0     H85086   5.492  10.856   4.889 -0.0941  1.3876 -2.5672
  617MOL0     H85087   5.255  10.928   5.071  1.2111 -2.7000  1.4114
  617MOL0     H85088   5.385  11.043   5.017 -0.9951 -0.9615 -5.8174
  617MOL0     H85089   5.411  10.955   5.254  0.8247  2.2923 -1.2176
  617MOL0     H85090   5.419  10.788   5.195 -2.2098  0.0106  0.9765
  617MOL0     H85091   5.616  10.989   5.081 -2.5696  0.2543 -0.7341
  617MOL0     H85092   5.602  10.809   5.100 -2.9545 -0.0443 -0.9321
  617MOL0     H85093   5.624  10.815   5.330  0.6115  0.0757  1.4164
  617MOL0     H85094   5.772  10.884   5.262  0.7886  1.5858 -0.2266
  617MOL0     H85095   5.732  10.957   5.541 -3.7463 -1.6391  0.2476
  617MOL0     H85096   5.801  11.215   5.687  2.9096  0.4884 -0.6385
  617MOL0     H85097   5.678  11.328   5.644 -0.1756  1.2280 -1.6974
  617MOL0     H85098   5.977  11.334   5.601  0.1927  0.6274  0.5018
  617MOL0     H85099   5.917  11.314   5.455 -1.1908  1.3169 -1.2821
  617MOL0     H85100   5.871  11.545   5.642  0.2946 -0.6253  0.2061
  617MOL0     H85101   5.936  11.559   5.480  0.8062  1.8067  1.6536
  617MOL0     H85102   5.736  11.547   5.367  0.1324  1.2647  0.0946
  617MOL0     H85103   5.657  11.477   5.504  3.3341 -2.7088  0.8659
  617MOL0     H85104   5.634  11.919   5.581  0.9585 -0.9808 -2.5309
  617MOL0     H85105   5.394  12.036   5.770 -0.4046  1.7248 -0.1649
  617MOL0     H85106   5.322  12.085   5.623  1.7346  0.8681 -1.6989
  617MOL0     H85107   5.496  12.094   5.624  0.1925 -0.5534 -0.4009
  617MOL0     H85108   4.868  11.698   5.431  0.9356 -0.0210  0.4153
  617MOL0     H85109   4.633  11.693   5.487  2.4717 -2.9453 -1.2379
  617MOL0     H85110   4.473  11.579   5.839 -0.1982  0.8176  2.6024
  617MOL0     H85111   4.516  11.721   5.917  2.7614 -5.7711  1.5409
  617MOL0     H85112   4.263  11.679   5.751  1.4305  1.9053 -1.6747
  617MOL0     H85113   4.277  11.677   5.933  0.6097 -0.4356  0.3540
  617MOL0     H85114   4.337  11.931   5.764  2.4929 -0.9982  1.3686
  617MOL0     H85115   4.324  11.910   5.945 -0.5649 -0.6744  0.5913
  617MOL0     H85116   4.087  11.852   5.907 -0.6128 -0.5623 -0.0213
  617MOL0     H85117   4.095  11.863   5.730  1.6439 -2.6170  0.7504
  617MOL0     H85118   4.135  12.100   5.936 -2.8288  0.3760  0.5072
  617MOL0     H85119   4.161  12.120   5.764  2.0046  0.6228  1.7270
  617MOL0     H85120   3.893  11.998   5.829 -2.8679  1.7384 -2.2633
  617MOL0     H85121   3.945  12.123   5.714 -1.5849 -0.4481  0.7833
  617MOL0     H85122   3.989  12.269   5.925 -0.7942  1.1469 -0.4788
  617MOL0     H85123   3.904  12.148   6.011 -2.3087  0.7291  0.3163
  617MOL0     H85124   3.775  12.261   5.755 -2.0407  2.2552 -0.2883
  617MOL0     H85125   3.754  12.346   5.908 -0.9802  1.4337 -2.6138
  617MOL0     H85126   4.721  11.798   5.889  0.5337 -1.3970 -0.1877
  617MOL0     H85127   4.961  11.824   5.836  1.8014 -0.7234 -1.5829
  617MOL0     H85128   5.256  11.620   5.494 -1.7421  0.3919  1.7193
  617MOL0     H85129   5.471  11.551   5.442 -1.4165 -0.1756  1.3490
  617MOL0     H85130   4.943  10.524   4.778  1.9187  0.6663 -0.4730
  617MOL0     H85131   4.761  10.429   4.613 -0.3262  0.0518  1.6322
  617MOL0     H85132   4.501  10.713   4.318  0.2432  1.6119 -1.1340
  617MOL0     H85133   4.278  10.734   4.184  0.6417  0.0002  1.2810
  617MOL0     H85134   4.233  10.523   3.798 -2.0371  2.1005 -1.1837
  617MOL0     H85135   4.170  10.421   3.921 -0.5534  0.8050  0.7848
  617MOL0     H85136   4.054  10.652   3.763 -1.2150 -2.0361 -3.1888
  617MOL0     H85137   3.954  10.564   3.891 -0.9755 -0.9324 -0.7645
  617MOL0     H85138   4.084  10.468   3.643 -1.0478 -1.7322 -2.6262
  617MOL0     H85139   3.998  10.364   3.763  2.5982  0.3536  0.4548
  617MOL0     H85140   3.772  10.475   3.698 -0.7969  0.5378  0.0089
  617MOL0     H85141   3.863  10.408   3.560 -0.6489 -0.1826  0.6085
  617MOL0     H85142   3.857  10.808   3.458  1.2002 -2.1701 -3.6524
  617MOL0     H85143   4.408  10.450   3.903  0.2390 -0.6181  0.8972
  617MOL0     H85144   4.711  10.441   3.940  0.1539  1.1890  1.8553
  617MOL0     H85145   4.698  10.312   4.064  3.2588  1.9568  0.7830
  617MOL0     H85146   4.578  10.318   3.938  0.5377  0.4465 -0.1594
  618MOL0     O85147   7.035   7.443   4.140 -0.7442  0.7028 -0.0147
  618MOL0     C85148   7.153   7.423   4.154  0.8049  0.9145 -0.4052
  618MOL0     O85149   7.207   7.295   4.161 -0.6604 -0.5190 -0.3309
  618MOL0     C85150   7.124   7.199   4.213 -0.9654  0.0579 -0.1327
  618MOL0     C85151   7.084   7.091   4.133  0.8494 -0.0105  0.8011
  618MOL0     C85152   6.986   7.001   4.179 -0.2676 -0.5813  0.4642
  618MOL0     C85153   6.942   7.009   4.319 -0.2514  0.1789 -0.9769
  618MOL0     O85154   6.855   6.911   4.360  0.3843  0.0635 -0.5510
  618MOL0     C85155   6.758   6.959   4.456 -0.9426 -0.3053 -0.7042
  618MOL0     C85156   6.650   6.856   4.500 -0.0174 -0.1618 -0.4598
  618MOL0     C85157   6.574   6.820   4.375  0.3201  0.6958  0.1435
  618MOL0     C85158   6.448   6.730   4.399  0.1835  0.1748  0.6724
  618MOL0     C85159   6.470   6.590   4.460  0.7444  0.7190  0.6946
  618MOL0     C85160   6.335   6.519   4.469 -0.2283  0.5902 -0.2213
  618MOL0     C85161   6.367   6.376   4.485  0.0843 -0.5863  0.0314
  618MOL0     C85162   6.251   6.282   4.537  0.3739  0.8303 -0.9061
  618MOL0     N85163   6.123   6.281   4.468 -0.8831 -0.7631  0.1681
  618MOL0     C85164   6.043   6.390   4.458 -1.1494  0.8248  0.0192
  618MOL0     C85165   5.978   6.367   4.338  0.3634 -0.6988 -0.7925
  618MOL0     C85166   5.882   6.461   4.266 -0.7306  0.1824 -0.8349
  618MOL0     C85167   5.918   6.468   4.113 -0.5057 -0.5952 -1.4193
  618MOL0     C85168   5.796   6.521   4.032  0.1903  0.7240  0.1460
  618MOL0     C85169   5.758   6.663   4.092  0.2858  0.5954 -0.0056
  618MOL0     O85170   5.674   6.722   3.996  0.0037 -0.6842 -0.6521
  618MOL0     C85171   5.740   6.811   3.922 -0.3354 -0.6372 -0.1689
  618MOL0     C85172   5.871   6.877   3.940  0.0536  0.2853 -0.2120
  618MOL0     C85173   5.912   6.995   3.871 -0.1091  0.0795 -0.1128
  618MOL0     C85174   6.056   7.028   3.886  0.2591  0.2051 -0.3692
  618MOL0     C85175   5.823   7.062   3.784  0.3540 -0.4773 -0.3747
  618MOL0     C85176   5.850   7.194   3.713 -0.3154 -0.3001 -0.0377
  618MOL0     O85177   5.783   7.227   3.597  0.9567  0.8426  1.5514
  618MOL0     C85178   5.818   7.329   3.506 -0.6862  0.2114  1.5505
  618MOL0     C85179   5.953   7.375   3.492  0.5016  0.3060 -0.4988
  618MOL0     C85180   5.992   7.474   3.399  0.5178  0.0973  0.0755
  618MOL0     C85181   5.886   7.531   3.328  0.2494  0.6898  0.0096
  618MOL0     O85182   5.914   7.632   3.244 -0.7115  0.0376 -0.3082
  618MOL0     C85183   5.873   7.605   3.105 -0.3682 -0.3401  0.1614
  618MOL0     C85184   5.782   7.715   3.044 -0.2097 -0.2025  0.6581
  618MOL0     C85185   5.692   7.788   3.130 -0.6535 -0.2508  0.6270
  618MOL0     C85186   5.610   7.882   3.055 -0.3348 -0.8500 -0.1326
  618MOL0     C85187   5.525   7.976   3.136 -0.6435  0.6780 -0.8735
  618MOL0     C85188   5.470   8.098   3.058  0.2680 -0.5167  0.2545
  618MOL0     C85189   5.396   8.199   3.144  0.1732  0.0405 -0.3104
  618MOL0     C85190   5.340   8.316   3.064 -0.0797  0.9467  0.0109
  618MOL0    Cl85191   5.212   8.274   2.946 -0.1566  0.1671 -0.0467
  618MOL0     C85192   5.755   7.482   3.338 -0.0734  0.4974 -0.5859
  618MOL0     C85193   5.721   7.374   3.419  0.6467  0.0878 -0.8167
  618MOL0     O85194   5.932   7.262   3.771  0.5202  0.0937  0.3651
  618MOL0     C85195   5.697   7.006   3.765 -0.3782 -0.3902  0.4360
  618MOL0     C85196   5.664   6.880   3.833 -0.2485 -0.0617 -0.1092
  618MOL0     N85197   6.005   6.237   4.296  0.2184  1.0600 -0.1346
  618MOL0     N85198   6.098   6.188   4.377 -0.2268 -0.0257 -0.0090
  618MOL0     C85199   7.010   7.103   4.399 -1.1838 -0.7100  0.1448
  618MOL0     C85200   7.095   7.202   4.348  0.6248  1.0302  0.5611
  618MOL0     C85201   7.242   7.543   4.188  0.5420  0.4751  0.7822
  618MOL0     C85202   7.379   7.512   4.224 -0.2423  0.1250 -0.1182
  618MOL0     C85203   7.473   7.609   4.257  0.6363  0.1867  0.9731
  618MOL0     C85204   7.428   7.743   4.251  0.5955  0.4413  0.6104
  618MOL0     O85205   7.517   7.840   4.270 -0.3454  1.1360 -0.4459
  618MOL0     C85206   7.550   7.899   4.149 -0.8753  0.0879  0.5571
  618MOL0     C85207   7.683   7.955   4.193  0.7081 -0.1184  0.7281
  618MOL0     C85208   7.746   8.041   4.079  0.9935 -0.3315 -0.3991
  618MOL0     C85209   7.797   7.958   3.957  0.2002 -0.0557  0.7997
  618MOL0     C85210   7.931   7.897   3.996  0.4524  0.2415  0.2900
  618MOL0     C85211   8.034   7.842   4.027  0.9955  0.1566  0.3707
  618MOL0     C85212   7.300   7.785   4.208 -0.0508  0.3925  0.3566
  618MOL0     C85213   7.203   7.678   4.188  0.3481 -0.6467  0.3729
  618MOL0     C85214   7.053   7.719   4.181 -0.4823  0.4933 -0.3612
  618MOL0     H85215   7.118   7.091   4.029  0.0056  1.1959  0.4925
  618MOL0     H85216   6.932   6.933   4.114 -0.1379  1.1484 -1.5616
  618MOL0     H85217   6.708   7.042   4.405 -2.6813 -1.2787 -0.6378
  618MOL0     H85218   6.806   6.997   4.547 -2.2892 -1.0075  0.3213
  618MOL0     H85219   6.688   6.763   4.541 -0.1054 -0.3979 -0.9077
  618MOL0     H85220   6.579   6.893   4.575 -0.0384 -1.2304  0.0550
  618MOL0     H85221   6.532   6.911   4.330  2.9938  2.5071  1.0455
  618MOL0     H85222   6.637   6.768   4.302  1.3280 -0.7786  1.9957
  618MOL0     H85223   6.380   6.783   4.466 -1.9031 -2.0728  0.4499
  618MOL0     H85224   6.400   6.726   4.301  1.3851  2.9782 -0.1432
  618MOL0     H85225   6.526   6.583   4.553  1.3324 -3.1770  0.2353
  618MOL0     H85226   6.533   6.533   4.390  0.9491  1.7766 -0.0174
  618MOL0     H85227   6.288   6.561   4.559  0.0972  2.6443 -0.9489
  618MOL0     H85228   6.271   6.533   4.381 -1.2008  1.0011  0.5222
  618MOL0     H85229   6.444   6.377   4.563 -2.5429  3.5211  3.0158
  618MOL0     H85230   6.393   6.354   4.381  0.2099 -1.7287  0.2967
  618MOL0     H85231   6.276   6.176   4.537  0.2814  0.7778  0.9843
  618MOL0     H85232   6.224   6.306   4.640  0.6946 -1.0407 -0.3649
  618MOL0     H85233   6.032   6.484   4.512  2.8342  2.5439 -1.7461
  618MOL0     H85234   5.879   6.558   4.315  0.1032 -0.3678  0.3569
  618MOL0     H85235   5.785   6.416   4.289 -0.7771  1.1268  1.0056
  618MOL0     H85236   6.011   6.524   4.097 -0.2126 -0.3171  0.9041
  618MOL0     H85237   5.933   6.366   4.076 -0.5556 -1.3997  0.6460
  618MOL0     H85238   5.823   6.517   3.927  1.1495 -3.6111  0.3659
  618MOL0     H85239   5.708   6.457   4.044  0.4738  0.2331 -0.3376
  618MOL0     H85240   5.692   6.648   4.178 -0.7818 -0.2011 -0.9343
  618MOL0     H85241   5.840   6.727   4.126 -0.1759  1.0727  0.2307
  618MOL0     H85242   5.940   6.849   4.019  0.1258 -1.0973 -0.7356
  618MOL0     H85243   6.067   7.129   3.928 -1.3278  0.1358  0.2745
  618MOL0     H85244   6.107   7.021   3.789  0.6241  2.2246 -0.3593
  618MOL0     H85245   6.110   6.961   3.953  1.1865  2.5045  1.3346
  618MOL0     H85246   6.017   7.336   3.571 -1.4909 -0.9368  0.5897
  618MOL0     H85247   6.095   7.501   3.379  0.3282  0.1111 -0.9233
  618MOL0     H85248   5.963   7.594   3.045 -1.3410 -1.3287 -1.1957
  618MOL0     H85249   5.819   7.511   3.086  1.0330 -0.5090 -4.0828
  618MOL0     H85250   5.849   7.788   2.999  0.5638 -0.3288  1.5704
  618MOL0     H85251   5.722   7.683   2.958  1.0912 -0.1371 -0.3004
  618MOL0     H85252   5.751   7.841   3.205  0.8618  0.2414 -0.8423
  618MOL0     H85253   5.612   7.728   3.176  0.9249 -1.7827  1.5005
  618MOL0     H85254   5.533   7.831   2.997 -0.0918 -1.5455  0.1516
  618MOL0     H85255   5.670   7.949   2.993 -0.0532 -1.6689 -0.7640
  618MOL0     H85256   5.452   7.923   3.198 -0.7274  2.3432  0.5554
  618MOL0     H85257   5.593   8.024   3.207 -0.1015  2.1859 -2.3372
  618MOL0     H85258   5.402   8.058   2.982  2.1646  0.7568 -2.2496
  618MOL0     H85259   5.547   8.149   3.000  2.2384  0.1873  3.2611
  618MOL0     H85260   5.471   8.231   3.217  2.2743 -1.2901 -1.7519
  618MOL0     H85261   5.310   8.158   3.196  0.1920  1.4005  0.8343
  618MOL0     H85262   5.423   8.359   3.006 -0.6746 -1.7815 -3.1674
  618MOL0     H85263   5.298   8.392   3.131 -1.4802  0.2803 -0.0818
  618MOL0     H85264   5.673   7.534   3.288 -0.2666  2.3340  1.4711
  618MOL0     H85265   5.624   7.325   3.421  1.1263 -0.9898 -2.1181
  618MOL0     H85266   5.634   7.055   3.692  0.6598  1.0928  0.4713
  618MOL0     H85267   5.563   6.842   3.826 -1.1088  2.4002 -4.4118
  618MOL0     H85268   6.983   7.099   4.504  2.5097  0.1327  1.2752
  618MOL0     H85269   7.145   7.276   4.410  0.3498  0.9923  0.8351
  618MOL0     H85270   7.414   7.410   4.216 -0.8522 -0.0477 -0.6761
  618MOL0     H85271   7.573   7.582   4.290  1.7764  2.7627 -0.0831
  618MOL0     H85272   7.559   7.813   4.082  2.8857 -0.0341  1.0262
  618MOL0     H85273   7.475   7.966   4.106 -1.0672 -1.8296 -2.3562
  618MOL0     H85274   7.753   7.872   4.209 -1.1587 -1.9868 -0.2738
  618MOL0     H85275   7.675   8.013   4.285  1.2322 -0.9084  1.2835
  618MOL0     H85276   7.675   8.118   4.048 -0.8229 -1.7681  0.0009
  618MOL0     H85277   7.828   8.105   4.112 -0.9580  1.3814  1.4296
  618MOL0     H85278   7.810   8.011   3.863  2.6696 -1.9610 -0.0430
  618MOL0     H85279   7.729   7.877   3.927  0.6184 -0.7663  1.7145
  618MOL0     H85280   8.124   7.798   4.066  0.5859  0.8600  2.2036
  618MOL0     H85281   7.278   7.891   4.205 -1.2148  0.1792  0.7113
  618MOL0     H85282   7.041   7.826   4.194 -0.8044  0.5664 -1.1946
  618MOL0     H85283   7.021   7.684   4.082 -1.0646  2.9076 -1.0723
  618MOL0     H85284   7.006   7.661   4.261 -0.9421  0.2862 -0.7799
  619MOL0     O85285   7.038   6.856   2.851  0.2621 -0.5828 -0.4107
  619MOL0     C85286   7.066   6.780   2.762 -0.5517  0.0404 -0.2787
  619MOL0     O85287   7.192   6.747   2.715  0.8904  0.1631  0.6679
  619MOL0     C85288   7.307   6.797   2.762  0.2242 -0.0997  1.0338
  619MOL0     C85289   7.408   6.705   2.739 -0.7710  1.0347 -0.7076
  619MOL0     C85290   7.535   6.735   2.789  0.6096 -0.6382  1.0831
  619MOL0     C85291   7.557   6.845   2.874  0.8386 -0.4953  1.4498
  619MOL0     O85292   7.689   6.868   2.897  0.2485  1.3987  0.4313
  619MOL0     C85293   7.727   6.966   2.982 -0.1121 -0.3597 -0.2299
  619MOL0     C85294   7.875   6.959   2.996  0.1807 -0.1246  0.2700
  619MOL0     C85295   7.933   7.062   3.097  0.1925  0.3014 -0.5948
  619MOL0     C85296   7.941   7.206   3.057  1.0564  0.2436  0.7731
  619MOL0     C85297   7.996   7.292   3.174 -0.3661 -0.5789 -0.1106
  619MOL0     C85298   8.077   7.408   3.119 -0.5820  0.3621  0.4088
  619MOL0     C85299   8.110   7.512   3.227 -0.7279 -0.2538  0.3509
  619MOL0     C85300   8.257   7.559   3.221  0.2337  0.0755  0.7045
  619MOL0     N85301   8.274   7.681   3.295  0.4694 -0.4856 -0.4500
  619MOL0     C85302   8.269   7.696   3.433  0.2322  1.4613  0.4951
  619MOL0     C85303   8.298   7.819   3.463  1.2907  0.0700 -0.0734
  619MOL0     C85304   8.324   7.886   3.598  0.2221 -0.0843  1.0552
  619MOL0     C85305   8.438   7.822   3.672 -0.3940  0.2463 -0.4526
  619MOL0     C85306   8.460   7.883   3.815 -0.4050  0.3058 -0.3551
  619MOL0     C85307   8.551   8.008   3.800  0.6159  0.3516 -0.4995
  619MOL0     O85308   8.466   8.129   3.794  0.3000 -0.1077  0.2338
  619MOL0     C85309   8.532   8.247   3.789  0.3011 -0.3953 -0.3602
  619MOL0     C85310   8.641   8.269   3.876  0.4417 -0.3991  0.4290
  619MOL0     C85311   8.714   8.390   3.883 -1.1695 -0.3803  1.4489
  619MOL0     C85312   8.843   8.390   3.967  0.1455 -0.0958 -0.9135
  619MOL0     C85313   8.678   8.499   3.796  0.0033 -0.1552 -0.6137
  619MOL0     C85314   8.744   8.627   3.813 -0.2816 -0.2959  1.0287
  619MOL0     O85315   8.721   8.703   3.707  0.9343  0.0813 -0.2468
  619MOL0     C85316   8.777   8.829   3.713 -0.3853 -0.0757  0.1670
  619MOL0     C85317   8.812   8.914   3.825  0.7558  0.8888 -0.4390
  619MOL0     C85318   8.880   9.039   3.811 -0.3365  0.4895 -0.1359
  619MOL0     C85319   8.902   9.088   3.684  0.1863  0.3426  0.0569
  619MOL0     O85320   8.951   9.215   3.672  0.5235 -0.0130 -0.3346
  619MOL0     C85321   9.025   9.245   3.557  0.0713  0.5923  0.4571
  619MOL0     C85322   9.044   9.399   3.529 -0.0844 -0.1518 -0.0056
  619MOL0     C85323   8.925   9.485   3.553 -0.4121 -0.2604 -0.9670
  619MOL0     C85324   8.796   9.427   3.491 -0.4265 -1.0496  0.2238
  619MOL0     C85325   8.676   9.517   3.496  0.3541  0.8476  0.3286
  619MOL0     C85326   8.551   9.424   3.461  0.1754  0.4153  0.0673
  619MOL0     C85327   8.426   9.513   3.455  0.0920  0.3479 -0.2057
  619MOL0     C85328   8.291   9.435   3.441 -0.6567 -0.4403  0.5982
  619MOL0    Cl85329   8.154   9.515   3.359 -0.3057 -0.2353 -0.2014
  619MOL0     C85330   8.874   9.003   3.575  0.2410  0.1126  0.3811
  619MOL0     C85331   8.819   8.874   3.587  0.4516 -0.2725  1.0918
  619MOL0     O85332   8.808   8.656   3.911 -0.0911 -0.4894  0.5238
  619MOL0     C85333   8.569   8.483   3.707 -0.1282  0.5796  0.6005
  619MOL0     C85334   8.500   8.358   3.699  0.5407  0.2943 -0.5313
  619MOL0     N85335   8.327   7.882   3.341 -1.2571  0.2187 -0.2702
  619MOL0     N85336   8.299   7.803   3.239  0.0831 -0.3088  0.0290
  619MOL0     C85337   7.447   6.931   2.905 -0.9126 -0.2785 -0.5588
  619MOL0     C85338   7.327   6.907   2.840 -0.0443 -0.5464  0.1652
  619MOL0     C85339   6.951   6.725   2.684  0.2418  0.1680  0.0173
  619MOL0     C85340   6.983   6.683   2.553 -0.6656 -0.4808  0.1454
  619MOL0     C85341   6.892   6.628   2.466  0.3044  0.7238  0.0067
  619MOL0     C85342   6.760   6.609   2.510  0.7114 -0.3032  0.4816
  619MOL0     O85343   6.670   6.559   2.414 -0.7414 -0.4943  0.3595
  619MOL0     C85344   6.534   6.510   2.448 -0.3294  0.2667 -0.1146
  619MOL0     C85345   6.482   6.414   2.341 -0.4473  0.6988  0.2917
  619MOL0     C85346   6.417   6.489   2.222  1.0646 -0.6310  0.3146
  619MOL0     C85347   6.362   6.391   2.118 -0.2574 -0.3513 -0.2038
  619MOL0     C85348   6.266   6.446   2.031  0.2408 -0.2392 -0.4540
  619MOL0     C85349   6.180   6.488   1.960 -0.2911  0.1142  0.5683
  619MOL0     C85350   6.725   6.638   2.642 -0.1991 -0.2780  0.4514
  619MOL0     C85351   6.817   6.705   2.729  0.3560  0.4456  0.6529
  619MOL0     C85352   6.765   6.742   2.864  0.8921  0.2930  0.2553
  619MOL0     H85353   7.403   6.614   2.680  0.8068 -0.6451  1.5406
  619MOL0     H85354   7.617   6.668   2.764  2.0741  1.6293 -0.5430
  619MOL0     H85355   7.685   6.941   3.080  1.8314 -1.2105  0.4215
  619MOL0     H85356   7.695   7.065   2.947  0.1322 -0.3321 -0.3798
  619MOL0     H85357   7.904   6.862   3.037 -1.4404 -1.8651 -2.4474
  619MOL0     H85358   7.919   6.965   2.896  1.0143 -1.1414  0.5521
  619MOL0     H85359   7.878   7.058   3.192 -0.5022 -1.2308 -1.0292
  619MOL0     H85360   8.039   7.039   3.111 -0.1003 -1.7961 -1.4615
  619MOL0     H85361   8.002   7.222   2.967 -1.3253 -1.3968 -1.2923
  619MOL0     H85362   7.842   7.244   3.031  1.5212 -1.1040 -4.0605
  619MOL0     H85363   8.049   7.240   3.255  0.4124  0.6485  0.1982
  619MOL0     H85364   7.912   7.340   3.225  1.2676  1.6100  0.6710
  619MOL0     H85365   8.175   7.374   3.083 -1.6583 -3.1973  0.4805
  619MOL0     H85366   8.022   7.460   3.040 -1.2033  1.4006  1.4928
  619MOL0     H85367   8.116   7.464   3.325  1.1152 -0.5513  0.1332
  619MOL0     H85368   8.037   7.593   3.228  0.7949  1.1881 -0.2518
  619MOL0     H85369   8.325   7.478   3.250  1.3239 -0.7529 -3.4849
  619MOL0     H85370   8.287   7.586   3.119 -1.8143  3.2987  0.8210
  619MOL0     H85371   8.221   7.628   3.503 -1.0573  1.8720  0.0326
  619MOL0     H85372   8.237   7.875   3.664 -0.8481  3.0806  0.3151
  619MOL0     H85373   8.341   7.992   3.580 -1.6133 -0.2366 -2.2683
  619MOL0     H85374   8.422   7.715   3.687 -0.2103  0.0335 -1.6668
  619MOL0     H85375   8.532   7.828   3.615  0.5655  0.0606  1.0444
  619MOL0     H85376   8.366   7.899   3.870 -0.9415 -3.0446 -0.1315
  619MOL0     H85377   8.513   7.813   3.880 -1.2399 -0.6080 -0.6388
  619MOL0     H85378   8.603   8.009   3.897 -0.1266  0.4995 -0.0912
  619MOL0     H85379   8.615   7.997   3.713  2.5066  2.4414  0.5337
  619MOL0     H85380   8.666   8.192   3.949 -1.0827 -2.3338 -0.9830
  619MOL0     H85381   8.817   8.452   4.054  0.6969  0.2880 -1.0192
  619MOL0     H85382   8.927   8.441   3.920  1.0890  1.0340  1.8190
  619MOL0     H85383   8.886   8.292   3.990  0.8614  0.5554  0.6659
  619MOL0     H85384   8.776   8.886   3.923  0.2638 -1.8560 -1.3362
  619MOL0     H85385   8.904   9.092   3.903  0.6711 -2.6239  1.5455
  619MOL0     H85386   9.123   9.198   3.549  0.6360  1.9835 -1.9853
  619MOL0     H85387   8.971   9.208   3.468 -0.1513  0.0718  0.8042
  619MOL0     H85388   9.123   9.434   3.597  2.0008  0.1828 -2.4258
  619MOL0     H85389   9.065   9.415   3.423  1.1522  0.0875  0.2568
  619MOL0     H85390   8.936   9.580   3.500 -0.9647 -1.4626 -3.3566
  619MOL0     H85391   8.913   9.503   3.661  2.5308  3.0093 -1.0165
  619MOL0     H85392   8.769   9.346   3.559 -3.4722 -0.6485 -0.3998
  619MOL0     H85393   8.823   9.388   3.392  0.6540 -1.1933  0.5593
  619MOL0     H85394   8.668   9.546   3.602  1.5577 -1.3398  1.0944
  619MOL0     H85395   8.663   9.599   3.425 -0.7596  0.4995  0.1165
  619MOL0     H85396   8.545   9.343   3.535  1.5616 -0.6520 -0.9570
  619MOL0     H85397   8.567   9.374   3.366 -0.5053  1.3786 -0.5772
  619MOL0     H85398   8.441   9.578   3.368  1.7702  0.4266  0.0997
  619MOL0     H85399   8.410   9.579   3.541 -1.2338  1.4281 -1.2436
  619MOL0     H85400   8.263   9.387   3.535  3.7852 -3.6047  0.6419
  619MOL0     H85401   8.317   9.358   3.367  0.4974  1.9503 -1.6299
  619MOL0     H85402   8.897   9.039   3.475  0.5565 -2.1218 -0.4060
  619MOL0     H85403   8.787   8.815   3.501 -2.5184 -1.3487  2.7739
  619MOL0     H85404   8.533   8.555   3.634  3.5233  0.4498 -1.5983
  619MOL0     H85405   8.414   8.345   3.634 -0.2011 -0.2807  0.5275
  619MOL0     H85406   7.466   7.012   2.975 -0.5835 -0.5208 -0.3657
  619MOL0     H85407   7.239   6.963   2.872  0.3141 -0.0430  0.2950
  619MOL0     H85408   7.080   6.698   2.507 -0.4074  1.2005  1.1520
  619MOL0     H85409   6.922   6.607   2.364  0.1980  0.2153  0.0759
  619MOL0     H85410   6.546   6.457   2.543  1.5779  0.6270 -0.1239
  619MOL0     H85411   6.464   6.594   2.457 -2.2801 -1.5008  3.1495
  619MOL0     H85412   6.406   6.344   2.379 -1.8529  1.0965 -1.6299
  619MOL0     H85413   6.571   6.364   2.301 -0.6638  0.0301  0.6216
  619MOL0     H85414   6.335   6.555   2.253  0.3012 -1.5090  0.2371
  619MOL0     H85415   6.495   6.550   2.176 -1.1015  1.9871 -0.1489
  619MOL0     H85416   6.318   6.299   2.158 -1.4582 -1.7590 -4.2723
  619MOL0     H85417   6.453   6.353   2.069 -0.3083  1.7014 -2.0230
  619MOL0     H85418   6.108   6.533   1.895 -0.4065  0.0900  0.6779
  619MOL0     H85419   6.622   6.621   2.670  0.1828 -2.2197  0.8770
  619MOL0     H85420   6.818   6.676   2.933  2.0460  0.2027 -0.6666
  619MOL0     H85421   6.788   6.844   2.894 -1.0201  0.6208  0.6837
  619MOL0     H85422   6.659   6.724   2.883  0.9511 -0.1973  0.1484
  620MOL0     O85423   3.187  10.097  10.644  0.3913 -0.5352 -0.0326
  620MOL0     C85424   3.190  10.184  10.552 -0.2682  0.4798 -0.2774
  620MOL0     O85425   3.296  10.263  10.522 -0.1885 -0.7687  0.3654
  620MOL0     C85426   3.392  10.285  10.615  0.1215  0.0830  0.4635
  620MOL0     C85427   3.371  10.290  10.750  0.0303 -0.1472 -0.4909
  620MOL0     C85428   3.463  10.340  10.839  0.3731  0.2278  0.1787
  620MOL0     C85429   3.596  10.374  10.801  0.8106  0.7474  0.5351
  620MOL0     O85430   3.678  10.444  10.890  0.0958  0.9474 -0.5395
  620MOL0     C85431   3.820  10.432  10.897  0.6053  0.0859  0.9029
  620MOL0     C85432   3.867  10.424  11.034  1.1961 -0.2195  0.8894
  620MOL0     C85433   4.017  10.393  11.032 -0.3966  0.2188 -0.3717
  620MOL0     C85434   4.051  10.322  11.165  0.3073 -0.2414 -0.0827
  620MOL0     C85435   4.201  10.326  11.203 -0.8500  0.0894 -0.0195
  620MOL0     C85436   4.226  10.205  11.296 -0.1585  0.1653 -0.2297
  620MOL0     C85437   4.377  10.188  11.328 -1.1364 -0.6383  0.0930
  620MOL0     C85438   4.465  10.130  11.223  0.2170 -0.8458 -0.3167
  620MOL0     N85439   4.612  10.143  11.263 -0.2230  0.1006  0.4542
  620MOL0     C85440   4.676  10.120  11.380  0.7455  0.2637  0.5670
  620MOL0     C85441   4.806  10.142  11.352  0.3640  0.0023 -0.8061
  620MOL0     C85442   4.923  10.137  11.451 -0.3034 -0.6784 -0.9068
  620MOL0     C85443   4.922  10.002  11.525  0.3417 -0.4807  0.4302
  620MOL0     C85444   5.019   9.966  11.639  0.1416 -0.1660  0.6665
  620MOL0     C85445   5.005   9.821  11.694 -0.1711  0.4743 -0.2236
  620MOL0     O85446   5.120   9.786  11.766  0.9364 -0.2787  0.3091
  620MOL0     C85447   5.230   9.725  11.706 -0.3596  0.3618 -0.5326
  620MOL0     C85448   5.269   9.733  11.570 -0.0583  0.0014 -0.9747
  620MOL0     C85449   5.394   9.686  11.525  0.0798  0.6918 -0.3976
  620MOL0     C85450   5.437   9.717  11.390 -0.0648  0.2594  0.3877
  620MOL0     C85451   5.472   9.610  11.614 -0.1363  0.2184 -0.4683
  620MOL0     C85452   5.596   9.538  11.578 -0.0485  0.3243  0.0153
  620MOL0     O85453   5.658   9.465  11.680  0.4899 -0.0839  0.6036
  620MOL0     C85454   5.755   9.373  11.652  0.2912 -0.3309  0.2194
  620MOL0     C85455   5.867   9.379  11.559  0.6443  0.3371 -0.1303
  620MOL0     C85456   5.962   9.270  11.554 -0.2760 -0.6201  0.6946
  620MOL0     C85457   5.948   9.164  11.643 -1.1050  0.0189  0.9617
  620MOL0     O85458   6.043   9.062  11.670  0.2249 -0.8351 -0.7057
  620MOL0     C85459   6.180   9.076  11.613  0.4606 -0.2753  0.7567
  620MOL0     C85460   6.286   8.991  11.678  0.4187  0.4759  0.8570
  620MOL0     C85461   6.387   8.939  11.578  0.1392 -0.1346 -0.7504
  620MOL0     C85462   6.497   8.851  11.639  0.5023 -0.2884  0.3508
  620MOL0     C85463   6.607   8.797  11.531  0.4491 -0.5026 -0.2566
  620MOL0     C85464   6.696   8.694  11.606  0.4328 -0.5077 -0.0827
  620MOL0     C85465   6.786   8.626  11.496 -0.6638 -0.2041  0.1532
  620MOL0     C85466   6.889   8.525  11.568  0.1187 -1.3687  0.1617
  620MOL0    Cl85467   7.006   8.442  11.462  0.3796  0.1802  0.4273
  620MOL0     C85468   5.838   9.163  11.721  0.3914  0.9195  0.4939
  620MOL0     C85469   5.736   9.259  11.722  0.5827  0.1607 -0.2689
  620MOL0     O85470   5.617   9.519  11.459 -0.2733  0.2356 -0.5276
  620MOL0     C85471   5.417   9.577  11.744  0.0500  0.4336  0.2858
  620MOL0     C85472   5.303   9.643  11.791 -0.5540  0.5957 -0.2797
  620MOL0     N85473   4.814  10.167  11.212 -0.0761  0.0247 -0.1409
  620MOL0     N85474   4.695  10.178  11.163 -0.5872 -0.4296  0.3313
  620MOL0     C85475   3.626  10.345  10.663 -0.4533 -0.8255 -0.4291
  620MOL0     C85476   3.523  10.313  10.578 -0.0024  0.0162 -1.2662
  620MOL0     C85477   3.076  10.196  10.460 -0.2545  0.4048  0.0093
  620MOL0     C85478   3.071  10.306  10.363 -0.9439 -0.4352 -0.6781
  620MOL0     C85479   2.970  10.317  10.265 -0.1597  0.4349 -1.0201
  620MOL0     C85480   2.881  10.213  10.246  0.0370  0.9840 -0.2930
  620MOL0     O85481   2.793  10.241  10.153 -0.1546 -0.0417 -0.9007
  620MOL0     C85482   2.663  10.179  10.125  0.0637 -0.5143 -0.8518
  620MOL0     C85483   2.677  10.045  10.061 -0.2150  0.5452 -0.3455
  620MOL0     C85484   2.552   9.967  10.032  0.3040 -0.9419  0.4558
  620MOL0     C85485   2.428  10.003  10.118  0.3976 -0.2702  0.0540
  620MOL0     C85486   2.322   9.907  10.110 -0.0028 -0.9775  0.3088
  620MOL0     C85487   2.231   9.831  10.087  0.0487  0.9204 -0.7836
  620MOL0     C85488   2.889  10.105  10.336  0.5051  0.0681 -0.7142
  620MOL0     C85489   2.981  10.093  10.444  0.6893  0.7077  0.9046
  620MOL0     C85490   2.967   9.961  10.522  0.2988 -1.0057 -0.1822
  620MOL0     H85491   3.268  10.277  10.782  0.2854 -0.8609  0.0696
  620MOL0     H85492   3.432  10.353  10.942 -1.6020  1.5952 -0.5421
  620MOL0     H85493   3.852  10.526  10.849  0.7226  0.9754  2.6427
  620MOL0     H85494   3.857  10.356  10.828 -1.0621  2.8479 -3.4771
  620MOL0     H85495   3.862  10.526  11.073 -2.4397  0.3657 -0.6633
  620MOL0     H85496   3.803  10.355  11.091 -0.9429 -0.5594 -1.7379
  620MOL0     H85497   4.061  10.331  10.953  4.9375  1.8975  0.8685
  620MOL0     H85498   4.063  10.491  11.017  1.3363 -0.5990 -0.6066
  620MOL0     H85499   3.995  10.372  11.244  1.3786  2.8796 -1.1398
  620MOL0     H85500   4.016  10.219  11.155  1.1277 -0.4127 -1.6206
  620MOL0     H85501   4.231  10.419  11.253  1.1134 -0.6360  0.2005
  620MOL0     H85502   4.266  10.312  11.117  1.7013 -1.3784  2.0212
  620MOL0     H85503   4.168  10.197  11.388  0.3777  0.5029  0.1455
  620MOL0     H85504   4.189  10.116  11.243  0.8806 -0.2967 -0.2267
  620MOL0     H85505   4.372  10.122  11.415 -2.0215  0.5144  0.9440
  620MOL0     H85506   4.425  10.281  11.363 -0.8838 -0.7260 -0.0128
  620MOL0     H85507   4.424  10.029  11.211 -0.4693 -0.3984 -1.9331
  620MOL0     H85508   4.446  10.187  11.132  0.4500  0.1635  0.2475
  620MOL0     H85509   4.635  10.102  11.479  0.4475  1.3858  0.6611
  620MOL0     H85510   4.901  10.209  11.530 -2.1897 -2.9199  0.7863
  620MOL0     H85511   5.013  10.152  11.391  0.5888 -1.5733  0.1597
  620MOL0     H85512   4.826  10.007  11.577  2.0825  1.3573  3.7720
  620MOL0     H85513   4.918   9.914  11.460  1.2234 -0.5306  0.4259
  620MOL0     H85514   5.118   9.991  11.600 -1.8694  1.5313 -4.1643
  620MOL0     H85515   5.005  10.036  11.721 -0.2616  0.2022  0.2932
  620MOL0     H85516   4.915   9.820  11.755 -0.3689  0.3746 -0.5135
  620MOL0     H85517   4.979   9.754  11.611 -0.2798  0.7544 -0.4177
  620MOL0     H85518   5.206   9.800  11.514 -1.3608 -1.0850 -0.8483
  620MOL0     H85519   5.448   9.632  11.322  2.4337  0.9782 -0.1865
  620MOL0     H85520   5.538   9.753  11.408  1.3543 -1.5218 -3.0286
  620MOL0     H85521   5.373   9.794  11.346 -0.6905 -1.4623 -1.9002
  620MOL0     H85522   5.867   9.466  11.494 -1.6985  0.5097 -0.0076
  620MOL0     H85523   6.050   9.293  11.495 -0.0518 -1.3883  0.7192
  620MOL0     H85524   6.167   9.043  11.510 -0.6028 -1.7208  1.3172
  620MOL0     H85525   6.209   9.181  11.612 -2.7472  0.7237  0.3700
  620MOL0     H85526   6.352   9.037  11.752  3.1106  0.1723 -1.1818
  620MOL0     H85527   6.238   8.906  11.727 -0.8370 -0.6742 -2.1354
  620MOL0     H85528   6.427   9.026  11.525 -0.6392  0.8480  0.2382
  620MOL0     H85529   6.333   8.868  11.514 -0.2406  1.0423 -1.7879
  620MOL0     H85530   6.443   8.764  11.675  0.7931 -0.4930  0.2972
  620MOL0     H85531   6.550   8.908  11.716  1.4061 -0.8422  0.1567
  620MOL0     H85532   6.558   8.749  11.446 -0.0928  1.4886 -1.1334
  620MOL0     H85533   6.672   8.875  11.490 -0.2606  0.1561 -0.1535
  620MOL0     H85534   6.634   8.614  11.647 -4.2296  0.0223 -5.0170
  620MOL0     H85535   6.765   8.740  11.677 -1.4577  3.1844 -0.4172
  620MOL0     H85536   6.843   8.704  11.445 -1.1546 -0.4908 -0.8544
  620MOL0     H85537   6.725   8.573  11.422 -0.7740 -1.4861  1.1329
  620MOL0     H85538   6.826   8.441  11.602 -0.9822 -1.3353 -1.6818
  620MOL0     H85539   6.947   8.564  11.652  0.1307 -6.1605  2.7713
  620MOL0     H85540   5.813   9.083  11.790 -1.3214 -0.2757 -1.3941
  620MOL0     H85541   5.644   9.246  11.779  0.0900  1.1837 -0.8061
  620MOL0     H85542   5.474   9.512  11.809  1.2394 -1.4646 -2.4673
  620MOL0     H85543   5.274   9.624  11.894  0.1285  1.7044  0.1364
  620MOL0     H85544   3.726  10.367  10.626  0.5351  1.5800  3.0960
  620MOL0     H85545   3.564  10.303  10.477  0.9009  0.0087 -0.9088
  620MOL0     H85546   3.144  10.386  10.362 -2.4457  1.0041 -0.3290
  620MOL0     H85547   2.958  10.409  10.209 -0.5346 -0.0174 -1.6965
  620MOL0     H85548   2.601  10.169  10.215  0.1956  0.1464 -0.6825
  620MOL0     H85549   2.615  10.244  10.051 -1.4776 -0.3780  0.2333
  620MOL0     H85550   2.735   9.979  10.125  1.0550  2.5814  0.7368
  620MOL0     H85551   2.736  10.057   9.970  3.4483 -1.3162  1.5751
  620MOL0     H85552   2.531   9.990   9.927  1.7784  1.8588  0.6832
  620MOL0     H85553   2.577   9.860  10.039 -0.7042 -1.4123 -2.1375
  620MOL0     H85554   2.399  10.103  10.084  4.3766  0.2450 -2.4955
  620MOL0     H85555   2.440  10.003  10.226 -0.8422 -1.0958  0.2195
  620MOL0     H85556   2.152   9.761  10.065 -0.5501  1.4557 -0.3746
  620MOL0     H85557   2.812  10.030  10.322  1.3963 -0.4870 -3.2438
  620MOL0     H85558   2.903   9.971  10.610  0.1491  0.0141 -0.3865
  620MOL0     H85559   2.915   9.896  10.451 -2.7954 -1.0712  1.9399
  620MOL0     H85560   3.066   9.923  10.546  1.6892  0.0226 -3.6761
  621MOL0     O85561   3.134   5.670   9.321  0.7979  0.3972  0.2365
  621MOL0     C85562   3.065   5.600   9.396 -0.4914  0.4822 -0.1652
  621MOL0     O85563   3.098   5.568   9.530  0.3076  0.0015  0.5259
  621MOL0     C85564   3.192   5.647   9.591  0.2987  0.7372  0.5111
  621MOL0     C85565   3.326   5.652   9.562  0.4735  0.0703  0.0688
  621MOL0     C85566   3.409   5.743   9.630 -0.3892  0.5311  0.6667
  621MOL0     C85567   3.372   5.821   9.737  0.4725  0.4668  0.5110
  621MOL0     O85568   3.459   5.890   9.813 -0.5277 -0.8061 -0.6605
  621MOL0     C85569   3.498   6.022   9.756  0.8000  0.5235 -0.6197
  621MOL0     C85570   3.466   6.133   9.852  0.3814  0.0744  0.4460
  621MOL0     C85571   3.563   6.154   9.961  0.1159 -0.5080  0.6514
  621MOL0     C85572   3.678   6.252   9.916 -0.9879  0.4692  0.1276
  621MOL0     C85573   3.794   6.240  10.026 -0.2500 -0.4667  1.1385
  621MOL0     C85574   3.907   6.330   9.987 -0.3739  0.2544  0.5415
  621MOL0     C85575   4.028   6.327  10.082 -0.6713  0.5272  0.1728
  621MOL0     C85576   4.102   6.192  10.067 -0.3375 -0.0059 -0.1733
  621MOL0     N85577   4.235   6.189  10.138  0.1080  0.7596 -0.1975
  621MOL0     C85578   4.252   6.226  10.271  0.9936 -0.1375  0.0910
  621MOL0     C85579   4.381   6.252  10.288  0.5789 -0.6806 -0.0929
  621MOL0     C85580   4.444   6.299  10.420  0.0720 -0.1248  0.4087
  621MOL0     C85581   4.563   6.218  10.472 -0.5593  0.8236 -0.2454
  621MOL0     C85582   4.607   6.268  10.609 -0.1072  0.6054  0.4698
  621MOL0     C85583   4.738   6.188  10.643  0.0664 -0.9736  0.1246
  621MOL0     O85584   4.709   6.051  10.663 -0.0448  0.1545 -0.0766
  621MOL0     C85585   4.807   5.965  10.694  0.6672 -0.5447  0.2411
  621MOL0     C85586   4.932   5.997  10.762  0.0268 -0.3397 -0.0026
  621MOL0     C85587   5.032   5.897  10.767  0.2215 -0.0624 -0.8536
  621MOL0     C85588   5.176   5.924  10.815 -0.5897 -0.0396  0.1825
  621MOL0     C85589   5.000   5.763  10.732  0.0415  0.2039  0.6153
  621MOL0     C85590   5.097   5.651  10.737  0.8980  0.1683 -0.3421
  621MOL0     O85591   5.050   5.533  10.774  1.0993  0.0462 -0.4080
  621MOL0     C85592   5.140   5.431  10.798  0.2248  0.5029  0.2298
  621MOL0     C85593   5.148   5.317  10.717  0.6978 -0.6244  0.1588
  621MOL0     C85594   5.250   5.219  10.729 -0.8587  0.0502 -0.1612
  621MOL0     C85595   5.339   5.232  10.830 -0.2378  1.0341 -0.4213
  621MOL0     O85596   5.430   5.133  10.857  0.0354 -0.2513 -0.0087
  621MOL0     C85597   5.473   5.036  10.757  0.5775 -0.6523 -0.2804
  621MOL0     C85598   5.602   4.963  10.801  0.6230 -0.0119 -0.4365
  621MOL0     C85599   5.729   5.038  10.759  0.1916  0.2433 -0.9128
  621MOL0     C85600   5.757   5.148  10.861 -0.3761  0.8240  0.4066
  621MOL0     C85601   5.898   5.211  10.846 -0.0718  0.1729  0.3412
  621MOL0     C85602   5.955   5.243  10.704 -0.6449 -0.0046 -0.4941
  621MOL0     C85603   6.086   5.327  10.710 -0.2420 -0.7598  0.1148
  621MOL0     C85604   6.144   5.365  10.570  0.0400 -0.0275 -0.5936
  621MOL0    Cl85605   6.129   5.241  10.452  0.3290  0.3674 -0.0528
  621MOL0     C85606   5.321   5.341  10.921  0.5509  0.3069 -0.7297
  621MOL0     C85607   5.231   5.445  10.906 -0.0130  0.4890  0.9088
  621MOL0     O85608   5.206   5.676  10.684  0.8250  0.7243  0.3389
  621MOL0     C85609   4.869   5.729  10.678 -0.3089 -0.5136  0.0066
  621MOL0     C85610   4.779   5.834  10.659  0.7300 -0.1073  0.8849
  621MOL0     N85611   4.438   6.224  10.165 -0.2532  0.1065 -0.3940
  621MOL0     N85612   4.354   6.195  10.075  0.0328  0.5606 -0.6132
  621MOL0     C85613   3.239   5.806   9.764 -0.2124  0.6992  0.5358
  621MOL0     C85614   3.148   5.720   9.695 -0.0138  0.3055  0.6299
  621MOL0     C85615   2.963   5.519   9.323 -0.5257  0.6205  0.3470
  621MOL0     C85616   2.944   5.548   9.190 -0.2918 -0.1001 -0.7068
  621MOL0     C85617   2.845   5.486   9.118 -0.2623  0.2496 -0.0876
  621MOL0     C85618   2.754   5.400   9.171 -1.0072  0.0632 -1.2551
  621MOL0     O85619   2.659   5.332   9.108  0.4136 -0.0654  0.5309
  621MOL0     C85620   2.600   5.388   8.990 -1.1579 -0.4192  0.4644
  621MOL0     C85621   2.451   5.412   9.004  0.1679  0.8185  0.1880
  621MOL0     C85622   2.418   5.472   9.140  0.5771 -0.1876  0.1610
  621MOL0     C85623   2.273   5.512   9.155 -0.5126 -1.1101  0.5705
  621MOL0     C85624   2.253   5.617   9.057 -0.2764  0.2112 -0.0738
  621MOL0     C85625   2.211   5.711   9.003  0.5570 -0.4203  0.3013
  621MOL0     C85626   2.770   5.371   9.314 -0.5726  0.3414  0.2209
  621MOL0     C85627   2.879   5.422   9.381  0.3720  0.0825  0.0510
  621MOL0     C85628   2.895   5.358   9.521 -0.7187  0.2151  0.0901
  621MOL0     H85629   3.371   5.606   9.475  2.3460  1.4185  0.2525
  621MOL0     H85630   3.514   5.742   9.604 -1.1245  0.1290 -2.6709
  621MOL0     H85631   3.443   6.041   9.663 -0.4049  2.6903  0.4681
  621MOL0     H85632   3.606   6.020   9.738  1.2159  0.5941  1.6066
  621MOL0     H85633   3.454   6.227   9.796  3.0166 -0.1740 -0.6869
  621MOL0     H85634   3.370   6.109   9.897 -0.5975 -2.1116 -2.5038
  621MOL0     H85635   3.516   6.187  10.054  0.6281 -0.5403  0.9280
  621MOL0     H85636   3.604   6.057   9.991 -1.5200 -1.3411  0.2695
  621MOL0     H85637   3.720   6.218   9.821 -1.1085 -0.6402  0.4590
  621MOL0     H85638   3.637   6.354   9.908 -0.6019  0.7108  1.0369
  621MOL0     H85639   3.831   6.138  10.041  0.2290 -0.1317  2.3503
  621MOL0     H85640   3.762   6.271  10.126 -1.9204 -1.2395  0.8787
  621MOL0     H85641   3.935   6.292   9.889 -2.1231 -0.1351  0.1625
  621MOL0     H85642   3.864   6.431   9.987 -3.1649 -0.8021 -1.8210
  621MOL0     H85643   3.992   6.341  10.185  2.4828 -0.3426  1.5091
  621MOL0     H85644   4.091   6.414  10.066 -2.9280  1.8324 -2.5142
  621MOL0     H85645   4.037   6.109  10.097  0.8489  0.1262  3.1404
  621MOL0     H85646   4.123   6.175   9.961  1.0006  1.4270 -0.1803
  621MOL0     H85647   4.171   6.227  10.343  0.8693 -0.4663 -0.0402
  621MOL0     H85648   4.366   6.289  10.496 -0.7867  0.3474 -0.3891
  621MOL0     H85649   4.477   6.403  10.422 -1.4083  0.4519 -1.6227
  621MOL0     H85650   4.538   6.111  10.469 -0.9920  0.9107  0.1645
  621MOL0     H85651   4.650   6.232  10.406  1.3209  1.4784  2.2194
  621MOL0     H85652   4.618   6.374  10.586 -1.2213  0.3712 -1.3572
  621MOL0     H85653   4.532   6.258  10.688  0.7447  1.4483  1.4327
  621MOL0     H85654   4.817   6.208  10.570  0.2868  0.3861  0.6844
  621MOL0     H85655   4.788   6.233  10.730 -2.1379 -0.3446  1.1388
  621MOL0     H85656   4.940   6.099  10.798 -1.6180  0.4518 -1.7153
  621MOL0     H85657   5.178   6.019  10.869  0.1131 -0.7128  1.3814
  621MOL0     H85658   5.241   5.923  10.727  1.2391 -0.3760  1.4735
  621MOL0     H85659   5.207   5.849  10.889 -2.6715 -0.3533  0.8213
  621MOL0     H85660   5.067   5.302  10.645  0.3534  2.6414 -0.2787
  621MOL0     H85661   5.240   5.131  10.667 -1.4497  1.6506 -2.4762
  621MOL0     H85662   5.389   4.966  10.756 -0.6112  0.7385 -1.7547
  621MOL0     H85663   5.487   5.090  10.663  0.3768  1.9814  1.0956
  621MOL0     H85664   5.600   4.923  10.903 -1.7887 -2.7939 -1.4436
  621MOL0     H85665   5.607   4.865  10.754  1.6251  0.2705 -0.9487
  621MOL0     H85666   5.726   5.095  10.665 -0.4390  0.6599 -0.6532
  621MOL0     H85667   5.813   4.971  10.741  0.5239  0.7069 -1.1117
  621MOL0     H85668   5.758   5.103  10.961  1.5514  1.1288  0.5532
  621MOL0     H85669   5.677   5.223  10.862 -2.9280 -1.6987  0.9999
  621MOL0     H85670   5.897   5.304  10.903  2.0979  0.7915 -0.5165
  621MOL0     H85671   5.973   5.147  10.894  0.3029  0.9746  0.8507
  621MOL0     H85672   5.885   5.310  10.653  2.1673  1.2328 -3.0483
  621MOL0     H85673   5.971   5.153  10.645 -1.4293  0.8850 -2.1591
  621MOL0     H85674   6.164   5.268  10.758  0.2812 -0.7949 -0.7549
  621MOL0     H85675   6.068   5.418  10.768  0.2842 -0.5393 -0.0601
  621MOL0     H85676   6.250   5.389  10.585 -0.0095 -0.0225 -0.2338
  621MOL0     H85677   6.108   5.462  10.536  1.3236 -0.1224 -2.3691
  621MOL0     H85678   5.386   5.342  11.008  0.4099  0.2436 -0.6222
  621MOL0     H85679   5.223   5.538  10.962  1.1461 -0.4769  2.7770
  621MOL0     H85680   4.847   5.633  10.633 -1.2898  1.4661 -4.3255
  621MOL0     H85681   4.682   5.818  10.615 -0.6285  4.1563  1.8621
  621MOL0     H85682   3.204   5.870   9.845  1.4445  1.2579  0.8486
  621MOL0     H85683   3.046   5.716   9.732  0.3104 -0.8954  1.4414
  621MOL0     H85684   3.011   5.614   9.136  0.0551  1.6376  1.6989
  621MOL0     H85685   2.836   5.500   9.011  0.6318 -1.4665 -0.4227
  621MOL0     H85686   2.637   5.484   8.954 -1.2992 -1.1218 -1.6764
  621MOL0     H85687   2.627   5.319   8.910  0.2141  0.4667  0.1305
  621MOL0     H85688   2.392   5.319   8.999 -1.4837  1.8187  0.2824
  621MOL0     H85689   2.421   5.479   8.923 -0.4305  0.7310  0.3277
  621MOL0     H85690   2.452   5.412   9.225 -0.0304 -1.3798 -0.4089
  621MOL0     H85691   2.480   5.561   9.157 -0.0731  0.1454  0.8089
  621MOL0     H85692   2.251   5.570   9.246  0.8263  1.0687 -0.4033
  621MOL0     H85693   2.201   5.430   9.145 -0.7831 -0.8229  0.1646
  621MOL0     H85694   2.170   5.802   8.963  2.8359  1.6872  2.3990
  621MOL0     H85695   2.703   5.299   9.359 -1.6376  1.2739  0.1635
  621MOL0     H85696   2.995   5.315   9.534 -0.8282 -0.4196 -0.9872
  621MOL0     H85697   2.882   5.436   9.596 -0.2317 -0.1411  0.5533
  621MOL0     H85698   2.818   5.282   9.539 -1.5192  1.2867  1.3706
  622MOL0     O85699   4.485   7.380   8.524 -0.4351  0.5592  1.0754
  622MOL0     C85700   4.594   7.326   8.508  0.1871 -0.6580 -0.2351
  622MOL0     O85701   4.721   7.385   8.500 -0.1298 -0.3883  0.0973
  622MOL0     C85702   4.746   7.519   8.533  0.0721  0.3324 -0.3415
  622MOL0     C85703   4.678   7.626   8.468 -0.9957  0.2497 -0.1714
  622MOL0     C85704   4.724   7.758   8.486  0.0746 -0.6278  0.3953
  622MOL0     C85705   4.832   7.790   8.563  0.2018 -0.1609 -0.0106
  622MOL0     O85706   4.866   7.925   8.567  0.5557 -0.5146 -0.0435
  622MOL0     C85707   4.913   7.971   8.697  0.2459 -0.4666 -0.0355
  622MOL0     C85708   4.910   8.124   8.704  0.3754  0.1517 -0.0233
  622MOL0     C85709   4.788   8.189   8.621  0.5544  0.1918  0.1356
  622MOL0     C85710   4.799   8.345   8.616  0.1680 -0.0133 -0.8578
  622MOL0     C85711   4.717   8.404   8.501  0.8249  0.0865  0.6325
  622MOL0     C85712   4.733   8.556   8.491 -0.3191  0.4025 -0.5296
  622MOL0     C85713   4.869   8.617   8.480 -1.3874  0.2904  0.5715
  622MOL0     C85714   4.958   8.580   8.356  0.2028  0.8006 -0.5622
  622MOL0     N85715   5.095   8.553   8.392  0.4347 -0.1408 -0.3761
  622MOL0     C85716   5.203   8.634   8.357  0.8335  0.1173 -0.1762
  622MOL0     C85717   5.311   8.558   8.366  0.7207  0.4603 -0.7110
  622MOL0     C85718   5.463   8.593   8.352 -0.2846 -0.2235  0.4019
  622MOL0     C85719   5.527   8.571   8.491  0.4259  0.1406  1.1508
  622MOL0     C85720   5.647   8.657   8.508 -0.1421  0.1383  0.8815
  622MOL0     C85721   5.762   8.639   8.402  0.1648 -0.2054  0.1524
  622MOL0     O85722   5.885   8.693   8.467  0.7544 -0.0888  0.2502
  622MOL0     C85723   5.998   8.698   8.390  0.2081  0.6945 -0.4644
  622MOL0     C85724   6.103   8.731   8.468 -0.4349 -0.5288  0.4343
  622MOL0     C85725   6.235   8.729   8.422 -0.4372  0.1541  0.3888
  622MOL0     C85726   6.352   8.742   8.518 -1.1094 -0.2234 -0.5740
  622MOL0     C85727   6.257   8.702   8.282  0.4343 -0.6799 -0.3202
  622MOL0     C85728   6.377   8.722   8.210  0.1318 -0.8360  0.2310
  622MOL0     O85729   6.398   8.642   8.108 -0.7870  0.2973 -0.5155
  622MOL0     C85730   6.520   8.652   8.042  0.0241 -0.6665 -0.0845
  622MOL0     C85731   6.521   8.746   7.940 -0.4221  0.2879 -0.2181
  622MOL0     C85732   6.644   8.779   7.878 -0.6246 -0.0364 -0.3983
  622MOL0     C85733   6.766   8.709   7.905 -0.1428 -0.0667  0.3922
  622MOL0     O85734   6.881   8.747   7.834  0.4861 -0.0692  0.1511
  622MOL0     C85735   6.968   8.635   7.802 -0.0380  0.8748 -0.0904
  622MOL0     C85736   7.094   8.694   7.730 -0.6536 -0.1118  0.2490
  622MOL0     C85737   7.069   8.745   7.591  0.6819 -0.8161 -0.0029
  622MOL0     C85738   7.184   8.821   7.534 -0.0995  0.2415 -0.5335
  622MOL0     C85739   7.323   8.760   7.533  0.1572 -0.7304 -0.4661
  622MOL0     C85740   7.321   8.618   7.477  0.6489 -0.1063  1.4691
  622MOL0     C85741   7.453   8.544   7.465 -0.4773 -0.0692  0.3507
  622MOL0     C85742   7.443   8.393   7.435  0.7003  0.2139 -0.8394
  622MOL0    Cl85743   7.348   8.386   7.279  0.3358 -0.1127  0.2783
  622MOL0     C85744   6.757   8.605   8.005  0.0469 -1.2958  0.4370
  622MOL0     C85745   6.633   8.573   8.065 -0.1237 -0.0922 -0.0947
  622MOL0     O85746   6.452   8.810   8.255  0.3257 -0.8039  0.8217
  622MOL0     C85747   6.140   8.677   8.204  0.5779  0.1367 -0.4110
  622MOL0     C85748   6.013   8.663   8.255 -0.5770  0.0553 -0.8392
  622MOL0     N85749   5.268   8.432   8.413  0.8729 -0.2129 -0.6715
  622MOL0     N85750   5.144   8.430   8.433  0.4714  0.2652 -0.3132
  622MOL0     C85751   4.901   7.689   8.634  0.1018  0.3419  0.5856
  622MOL0     C85752   4.860   7.552   8.606  0.4321 -0.3063  0.1513
  622MOL0     C85753   4.595   7.178   8.467  0.3661  0.3303 -0.4089
  622MOL0     C85754   4.468   7.118   8.443  0.7746  0.3818 -0.4283
  622MOL0     C85755   4.462   6.996   8.383 -0.3556 -0.5530  0.5525
  622MOL0     C85756   4.576   6.915   8.372  0.5033 -0.5624  0.7400
  622MOL0     O85757   4.563   6.783   8.320 -0.3758  0.3712  0.0998
  622MOL0     C85758   4.491   6.683   8.409 -0.0185 -0.1431  0.2773
  622MOL0     C85759   4.597   6.611   8.490 -0.1292 -0.1323  0.5204
  622MOL0     C85760   4.673   6.515   8.396  0.1817 -0.1766  0.2747
  622MOL0     C85761   4.609   6.370   8.388  0.5277 -0.5866 -0.0217
  622MOL0     C85762   4.625   6.306   8.265 -0.9129  0.3426  0.4753
  622MOL0     C85763   4.652   6.253   8.164 -0.5210 -0.0264 -0.7038
  622MOL0     C85764   4.699   6.961   8.416 -0.8481 -0.5184  0.7357
  622MOL0     C85765   4.711   7.099   8.460  0.2067  0.3099 -0.0490
  622MOL0     C85766   4.856   7.145   8.493 -0.2088  0.2716 -0.1378
  622MOL0     H85767   4.597   7.611   8.397 -0.7977 -2.1762  0.0445
  622MOL0     H85768   4.683   7.847   8.441  1.6482  0.4121  0.9478
  622MOL0     H85769   5.015   7.933   8.708 -0.1603 -1.0498  2.1554
  622MOL0     H85770   4.853   7.934   8.780 -0.2450  2.7807  1.2101
  622MOL0     H85771   4.896   8.155   8.808  0.1500 -0.8625  0.2591
  622MOL0     H85772   4.999   8.170   8.660 -0.9627  2.0812 -0.8390
  622MOL0     H85773   4.777   8.148   8.521 -0.1640  0.0173  0.2825
  622MOL0     H85774   4.691   8.170   8.668  0.2173  1.8851  0.1878
  622MOL0     H85775   4.751   8.397   8.699  0.7438 -0.3505 -0.3033
  622MOL0     H85776   4.902   8.377   8.597  0.3397 -0.3308 -0.4920
  622MOL0     H85777   4.610   8.390   8.520  1.0806  0.0593  2.1969
  622MOL0     H85778   4.732   8.350   8.407 -2.6593  0.8368 -0.4946
  622MOL0     H85779   4.679   8.597   8.405 -1.9480  1.3307  0.8621
  622MOL0     H85780   4.677   8.609   8.569 -1.3139  0.7385 -1.4522
  622MOL0     H85781   4.934   8.601   8.567  3.3688 -2.3065 -2.9844
  622MOL0     H85782   4.859   8.726   8.476 -1.1478  0.3110  0.4922
  622MOL0     H85783   4.909   8.496   8.305 -1.2683  0.3305  1.5059
  622MOL0     H85784   4.957   8.673   8.298 -2.5748  1.8653  0.9882
  622MOL0     H85785   5.195   8.737   8.327  1.3563 -0.0117 -0.7734
  622MOL0     H85786   5.483   8.698   8.329  2.9067 -0.9592 -0.6160
  622MOL0     H85787   5.515   8.534   8.276  1.8790  1.0571  0.8225
  622MOL0     H85788   5.455   8.586   8.572  0.2992 -2.8104  1.7019
  622MOL0     H85789   5.557   8.465   8.492  2.0785  0.5516 -0.5609
  622MOL0     H85790   5.620   8.764   8.510 -1.8350 -0.2039 -0.5041
  622MOL0     H85791   5.680   8.629   8.608  2.4420 -0.2562 -0.0038
  622MOL0     H85792   5.784   8.533   8.387 -2.7494 -0.9481  0.4518
  622MOL0     H85793   5.733   8.689   8.309 -2.3501 -0.6053  0.6328
  622MOL0     H85794   6.088   8.743   8.575 -0.7915  0.4933  0.2775
  622MOL0     H85795   6.386   8.846   8.514  0.3323 -0.5829  0.9305
  622MOL0     H85796   6.437   8.683   8.483  0.9145  2.3455 -0.3442
  622MOL0     H85797   6.336   8.723   8.625 -1.1218  2.0013 -0.1133
  622MOL0     H85798   6.429   8.799   7.922  1.3622  2.8704 -2.4709
  622MOL0     H85799   6.656   8.863   7.809  4.3869 -0.4814 -0.4440
  622MOL0     H85800   6.997   8.579   7.891 -3.1137 -1.4781 -0.3941
  622MOL0     H85801   6.909   8.573   7.734 -0.6552 -0.2406  1.4266
  622MOL0     H85802   7.137   8.770   7.796  0.5858 -0.0549 -0.6098
  622MOL0     H85803   7.167   8.614   7.722  0.1645  0.7436 -1.0953
  622MOL0     H85804   6.984   8.814   7.586 -0.1615 -1.6539  1.9143
  622MOL0     H85805   7.044   8.663   7.523  0.4040  2.0679 -3.6934
  622MOL0     H85806   7.187   8.921   7.579 -3.3105  0.1896  0.0260
  622MOL0     H85807   7.161   8.853   7.432  2.3054  3.7401 -0.1626
  622MOL0     H85808   7.389   8.830   7.481 -1.9142  2.1018  0.5198
  622MOL0     H85809   7.360   8.754   7.636 -0.9723  1.2219  0.0999
  622MOL0     H85810   7.293   8.635   7.373  2.5521 -0.8665  0.7807
  622MOL0     H85811   7.245   8.558   7.526  0.8910 -0.6795  1.1531
  622MOL0     H85812   7.507   8.555   7.559  2.1691 -2.3387 -0.7402
  622MOL0     H85813   7.526   8.587   7.395 -1.2017  0.5821 -0.0253
  622MOL0     H85814   7.397   8.341   7.519  1.2944  1.5778  0.3882
  622MOL0     H85815   7.538   8.348   7.406 -0.3882 -2.4800 -0.4887
  622MOL0     H85816   6.844   8.549   8.036  1.9547  1.1217 -0.2453
  622MOL0     H85817   6.630   8.488   8.133  2.8119 -0.0146  0.2797
  622MOL0     H85818   6.148   8.691   8.096 -1.5706  1.0785 -0.4878
  622MOL0     H85819   5.934   8.637   8.186 -1.2137  2.0829 -0.9288
  622MOL0     H85820   4.990   7.715   8.690  2.0856  0.2547 -2.3299
  622MOL0     H85821   4.923   7.475   8.650  0.7149 -1.9320 -2.8843
  622MOL0     H85822   4.376   7.175   8.457 -0.5475 -1.4555 -1.1701
  622MOL0     H85823   4.368   6.957   8.344  1.9505 -4.0094 -2.2093
  622MOL0     H85824   4.423   6.749   8.464 -2.1144 -1.3298 -0.7774
  622MOL0     H85825   4.435   6.611   8.349  0.2511  0.9537 -1.3656
  622MOL0     H85826   4.561   6.550   8.574 -4.2592  0.3214 -0.7248
  622MOL0     H85827   4.658   6.688   8.538 -0.2775 -0.2637  0.9303
  622MOL0     H85828   4.675   6.559   8.296 -0.6924  0.5955  0.5873
  622MOL0     H85829   4.779   6.513   8.426 -0.1772  1.9765  1.9338
  622MOL0     H85830   4.504   6.375   8.416  0.6615 -2.6884  1.0739
  622MOL0     H85831   4.652   6.312   8.471 -0.7659 -0.0100  1.0847
  622MOL0     H85832   4.689   6.198   8.079 -1.1357  0.2483 -1.1530
  622MOL0     H85833   4.784   6.894   8.424 -0.5804 -0.7223 -2.5928
  622MOL0     H85834   4.919   7.060   8.518 -0.7201 -0.7332 -2.0944
  622MOL0     H85835   4.901   7.191   8.405  6.1006 -1.0737  1.8681
  622MOL0     H85836   4.853   7.212   8.579 -2.8700 -3.8868  3.4373
  623MOL0     O85837   2.565   1.151   7.795  0.7972  0.0465  0.2493
  623MOL0     C85838   2.602   1.240   7.717  0.6884 -0.7100  0.5004
  623MOL0     O85839   2.634   1.216   7.581 -0.3061 -0.8390  0.0576
  623MOL0     C85840   2.679   1.089   7.556 -0.7316 -0.2585  0.3141
  623MOL0     C85841   2.592   0.991   7.527  0.2170  0.6850  0.3123
  623MOL0     C85842   2.647   0.863   7.501 -0.9650 -0.6769  0.8750
  623MOL0     C85843   2.791   0.837   7.490  0.6280 -0.3452  0.1616
  623MOL0     O85844   2.847   0.716   7.462 -0.7477  0.0192  0.5111
  623MOL0     C85845   2.767   0.589   7.456 -0.2458 -0.4557 -0.2978
  623MOL0     C85846   2.859   0.468   7.498 -0.5038 -0.4663 -0.0020
  623MOL0     C85847   2.977   0.442   7.406  0.1499  0.0892 -0.1735
  623MOL0     C85848   3.072   0.346   7.477  0.2627 -0.2723  0.6039
  623MOL0     C85849   3.176   0.299   7.371  0.8805  0.2378 -0.1901
  623MOL0     C85850   3.236   0.160   7.400 -0.6522  0.2669 -0.2491
  623MOL0     C85851   3.358   0.123   7.318 -0.8283  0.8447 -0.3578
  623MOL0     C85852   3.468   0.227   7.343 -0.3509  0.3560 -0.2325
  623MOL0     N85853   3.598   0.155   7.326 -0.6525  0.1181  0.4277
  623MOL0     C85854   3.651   0.134   7.197  0.4309  0.2004 -0.5823
  623MOL0     C85855   3.765   0.055   7.216 -0.8459 -0.6474 -0.3060
  623MOL0     C85856   3.864   0.007   7.115 -0.9376 -0.3073  0.4066
  623MOL0     C85857   3.812  -0.128   7.067 -0.4041 -0.1736 -0.5354
  623MOL0     C85858   3.900  -0.183   6.950  0.6142  0.1598 -0.3837
  623MOL0     C85859   4.053  -0.197   6.987 -0.3750 -0.6541 -0.5394
  623MOL0     O85860   4.079  -0.274   7.106 -0.5579 -0.1667 -0.1672
  623MOL0     C85861   4.210  -0.287   7.157 -0.1788  0.0340  1.1646
  623MOL0     C85862   4.237  -0.276   7.292  0.4153  0.8090  0.7471
  623MOL0     C85863   4.365  -0.285   7.344  0.6764  0.3659  0.6692
  623MOL0     C85864   4.358  -0.266   7.490 -0.8511  0.4636  0.5869
  623MOL0     C85865   4.477  -0.313   7.261 -0.6365 -0.8689  0.1452
  623MOL0     C85866   4.623  -0.317   7.312 -0.2174  0.3169  0.1633
  623MOL0     O85867   4.725  -0.347   7.213  0.5609  0.4951 -0.4367
  623MOL0     C85868   4.854  -0.310   7.227 -0.1609  0.9877 -0.2222
  623MOL0     C85869   4.944  -0.370   7.134  0.8489 -0.3326 -0.9291
  623MOL0     C85870   5.078  -0.337   7.132  0.0518  0.1788 -0.0018
  623MOL0     C85871   5.126  -0.247   7.223 -0.1780 -0.0359 -0.1119
  623MOL0     O85872   5.252  -0.219   7.253  0.0258 -0.5490 -0.0054
  623MOL0     C85873   5.331  -0.177   7.140  0.5612 -0.4033 -0.5730
  623MOL0     C85874   5.464  -0.112   7.187 -0.1786 -0.0230  0.7538
  623MOL0     C85875   5.550  -0.204   7.271 -0.7290  0.2179  0.0784
  623MOL0     C85876   5.699  -0.166   7.269  1.0222 -0.4489  0.6985
  623MOL0     C85877   5.746  -0.183   7.409  0.4532 -0.1478 -0.6101
  623MOL0     C85878   5.727  -0.056   7.493  0.2506 -0.4784 -0.8374
  623MOL0     C85879   5.797  -0.087   7.623 -0.1404  0.3741  0.2642
  623MOL0     C85880   5.789   0.034   7.715  0.5971 -0.2774  0.4175
  623MOL0    Cl85881   5.876   0.000   7.860 -0.0075  0.0685 -0.1523
  623MOL0     C85882   5.038  -0.183   7.315 -0.9722  0.6718  0.6944
  623MOL0     C85883   4.899  -0.214   7.316  0.1605 -0.3979  0.0368
  623MOL0     O85884   4.651  -0.302   7.430  0.4216 -0.0150  0.4709
  623MOL0     C85885   4.449  -0.334   7.121  0.0312 -0.8751 -0.1551
  623MOL0     C85886   4.317  -0.324   7.067 -0.4524 -0.4913 -0.9669
  623MOL0     N85887   3.775   0.035   7.357 -0.0141 -0.4254  0.8656
  623MOL0     N85888   3.679   0.103   7.419  0.0673  0.4797 -0.3479
  623MOL0     C85889   2.871   0.948   7.523 -0.4809  0.5595  0.3009
  623MOL0     C85890   2.816   1.068   7.560  0.6954 -0.1024  0.2397
  623MOL0     C85891   2.594   1.385   7.766 -0.1587 -0.3069 -0.1155
  623MOL0     C85892   2.607   1.496   7.677  0.3255  0.6693 -0.3389
  623MOL0     C85893   2.601   1.620   7.730  0.8868  0.9544  0.3928
  623MOL0     C85894   2.601   1.653   7.865 -0.4683  0.3140  0.5037
  623MOL0     O85895   2.593   1.789   7.900 -0.2807  0.2112 -1.1425
  623MOL0     C85896   2.653   1.828   8.022 -0.0266  0.3153  0.2368
  623MOL0     C85897   2.812   1.799   8.039 -0.4563 -0.1633  0.0974
  623MOL0     C85898   2.891   1.866   8.148 -0.7935  0.0654  0.3910
  623MOL0     C85899   3.038   1.869   8.112 -0.7119  0.6239 -0.3007
  623MOL0     C85900   3.111   1.933   8.221 -0.3956  0.6914 -0.4821
  623MOL0     C85901   3.136   2.008   8.316 -0.2776  0.6656  0.1999
  623MOL0     C85902   2.602   1.546   7.950  0.0936  0.4157 -0.3040
  623MOL0     C85903   2.605   1.416   7.902  0.1982  0.8356 -0.5323
  623MOL0     C85904   2.620   1.309   8.007  0.0994  0.6128  0.5066
  623MOL0     H85905   2.484   0.994   7.527 -0.0114 -1.9718  3.4168
  623MOL0     H85906   2.581   0.778   7.490 -2.2237 -0.5168  5.3098
  623MOL0     H85907   2.733   0.564   7.355 -1.4761 -3.3602  0.7343
  623MOL0     H85908   2.681   0.592   7.523  0.2106  1.1471  0.2676
  623MOL0     H85909   2.888   0.495   7.601 -0.8594  1.0207 -0.2725
  623MOL0     H85910   2.801   0.375   7.504 -2.5804  0.8001  0.2524
  623MOL0     H85911   2.923   0.396   7.322 -0.0089  1.6462 -0.9532
  623MOL0     H85912   3.021   0.539   7.383  0.3012 -0.0268 -0.3772
  623MOL0     H85913   3.125   0.394   7.561 -0.7126  2.0312 -0.0260
  623MOL0     H85914   3.017   0.256   7.507 -0.7621 -1.4879 -4.1628
  623MOL0     H85915   3.262   0.367   7.368  0.7894  0.4299  1.1631
  623MOL0     H85916   3.130   0.291   7.272  0.5429 -1.3784  0.0659
  623MOL0     H85917   3.263   0.169   7.506  0.1219  2.2380 -0.5829
  623MOL0     H85918   3.162   0.080   7.387  1.5798 -1.7591 -1.3218
  623MOL0     H85919   3.331   0.127   7.212 -0.9311  1.0928 -0.3235
  623MOL0     H85920   3.391   0.021   7.337  1.2955  1.6312  0.5053
  623MOL0     H85921   3.469   0.307   7.268  3.4152  0.1643 -0.5707
  623MOL0     H85922   3.454   0.272   7.442 -1.1980  3.4251 -1.6142
  623MOL0     H85923   3.608   0.169   7.103 -0.8739 -2.5396 -1.1038
  623MOL0     H85924   3.965   0.009   7.157 -1.8867 -1.0239  2.8908
  623MOL0     H85925   3.862   0.081   7.035  2.5622 -0.1828  0.2842
  623MOL0     H85926   3.819  -0.202   7.147  1.4846 -1.7083 -2.0367
  623MOL0     H85927   3.710  -0.107   7.033 -0.7599 -0.5423  0.2666
  623MOL0     H85928   3.859  -0.283   6.934  0.5721  0.4387 -2.3381
  623MOL0     H85929   3.892  -0.120   6.861 -1.4297  0.2395 -0.1920
  623MOL0     H85930   4.085  -0.257   6.902 -1.6168 -1.8803 -0.1751
  623MOL0     H85931   4.107  -0.102   6.993 -2.4114  0.4557  3.0605
  623MOL0     H85932   4.145  -0.257   7.346 -1.0587  0.4376 -1.4937
  623MOL0     H85933   4.264  -0.215   7.514 -1.1318  1.0369 -1.5130
  623MOL0     H85934   4.437  -0.194   7.513  0.4632  1.1235 -4.6600
  623MOL0     H85935   4.360  -0.358   7.548 -2.0259 -0.3061 -0.5589
  623MOL0     H85936   4.889  -0.448   7.082  0.3152 -1.7929  1.6666
  623MOL0     H85937   5.141  -0.382   7.056 -1.8817 -2.5825 -0.1381
  623MOL0     H85938   5.347  -0.251   7.061 -2.9375 -1.1669 -0.7588
  623MOL0     H85939   5.280  -0.094   7.089 -0.9410  0.1003  1.5740
  623MOL0     H85940   5.527  -0.102   7.098  0.4796  1.9346  1.3737
  623MOL0     H85941   5.448  -0.013   7.231  0.1139  0.3487  0.0411
  623MOL0     H85942   5.537  -0.309   7.244  1.6423 -0.4628  1.3397
  623MOL0     H85943   5.500  -0.199   7.368  1.7046 -3.0774  1.6668
  623MOL0     H85944   5.723  -0.070   7.223  2.6376 -0.5384  1.3261
  623MOL0     H85945   5.745  -0.244   7.209 -3.8423 -0.8771 -3.1605
  623MOL0     H85946   5.703  -0.264   7.469 -1.1332  0.5084 -0.8059
  623MOL0     H85947   5.853  -0.203   7.410 -0.1539 -4.3641  1.4578
  623MOL0     H85948   5.622  -0.031   7.512  0.1018 -0.0122 -2.1482
  623MOL0     H85949   5.776   0.027   7.441 -2.2272  0.9771 -0.9934
  623MOL0     H85950   5.900  -0.117   7.605 -0.0378  0.3539  0.8565
  623MOL0     H85951   5.739  -0.163   7.676 -0.2187  0.0191 -0.3320
  623MOL0     H85952   5.686   0.047   7.748  0.5168  0.4843 -0.1215
  623MOL0     H85953   5.820   0.121   7.657 -3.1555 -0.3963 -2.1010
  623MOL0     H85954   5.077  -0.108   7.383 -0.0947  0.7240  0.1503
  623MOL0     H85955   4.842  -0.162   7.393  2.5236 -0.4668  1.9712
  623MOL0     H85956   4.535  -0.369   7.065  2.7089 -0.6952  3.4587
  623MOL0     H85957   4.302  -0.349   6.963 -1.7148  1.2743 -1.2402
  623MOL0     H85958   2.977   0.932   7.513 -0.6671 -0.2510 -0.5029
  623MOL0     H85959   2.876   1.157   7.577 -0.1543  0.5380 -0.0304
  623MOL0     H85960   2.621   1.479   7.570  0.7602  0.1802 -0.2029
  623MOL0     H85961   2.608   1.711   7.671  0.3930 -0.7323 -2.4666
  623MOL0     H85962   2.627   1.934   8.017 -0.8052  0.1980  1.2766
  623MOL0     H85963   2.598   1.787   8.108 -1.9324  0.1449 -0.9945
  623MOL0     H85964   2.853   1.817   7.939 -3.5798 -1.2459 -1.5250
  623MOL0     H85965   2.828   1.691   8.044 -4.4231 -0.9626 -0.9803
  623MOL0     H85966   2.852   1.967   8.159  0.2985  0.3905  1.6234
  623MOL0     H85967   2.888   1.811   8.242  0.6319 -2.9711 -1.1937
  623MOL0     H85968   3.055   1.926   8.020  0.1372 -1.0856 -1.2646
  623MOL0     H85969   3.085   1.770   8.103  2.0367  1.8012  0.0384
  623MOL0     H85970   3.161   2.063   8.405  1.8114  0.1283  0.0077
  623MOL0     H85971   2.600   1.556   8.058 -1.5774 -2.3449  0.0154
  623MOL0     H85972   2.631   1.359   8.103 -3.1076 -1.4879  2.1521
  623MOL0     H85973   2.528   1.250   8.022 -1.3182  3.0277  2.0710
  623MOL0     H85974   2.707   1.244   7.993  2.0238  2.4814  2.9367
  624MOL0     O85975   1.429   6.273  10.507 -0.0472 -0.0192  0.9945
  624MOL0     C85976   1.409   6.310  10.387 -0.0637 -0.2404 -0.3466
  624MOL0     O85977   1.283   6.341  10.339  0.8536  0.1765 -0.8177
  624MOL0     C85978   1.169   6.305  10.416  0.3790  0.6792  0.0294
  624MOL0     C85979   1.066   6.248  10.337 -0.0241 -0.0292 -0.3198
  624MOL0     C85980   0.950   6.202  10.405 -0.4042 -0.9646 -0.6240
  624MOL0     C85981   0.938   6.210  10.549  0.5519  0.1721 -0.7190
  624MOL0     O85982   0.837   6.159  10.628 -1.2348  0.2656 -0.3122
  624MOL0     C85983   0.721   6.133  10.557  0.8086 -0.1732  0.4798
  624MOL0     C85984   0.587   6.155  10.634 -0.1374 -0.9856  0.4893
  624MOL0     C85985   0.458   6.137  10.535 -0.9671 -0.4443 -0.0358
  624MOL0     C85986   0.322   6.119  10.593  0.3522 -0.3999 -1.5480
  624MOL0     C85987   0.206   6.122  10.488  0.3892 -0.0984 -0.4078
  624MOL0     C85988   0.162   6.260  10.430 -0.5693 -0.2796  0.3701
  624MOL0     C85989   0.104   6.366  10.521 -0.5958 -0.1087  0.1913
  624MOL0     C85990   0.215   6.453  10.583 -0.0625 -0.2372  0.8807
  624MOL0     N85991   0.163   6.498  10.710 -0.0235  0.2100 -0.1585
  624MOL0     C85992   0.077   6.608  10.723 -0.9885  0.2273  0.0833
  624MOL0     C85993   0.060   6.618  10.856  1.1944 -0.1814  0.2726
  624MOL0     C85994   0.004   6.730  10.932  0.7831  0.1417  0.5855
  624MOL0     C85995  -0.047   6.685  11.074  0.0429 -0.7328  0.6012
  624MOL0     C85996  -0.179   6.755  11.109 -0.6419 -0.4536  0.0007
  624MOL0     C85997  -0.280   6.678  11.201  0.1716 -1.1315 -0.0372
  624MOL0     O85998  -0.228   6.667  11.328 -0.1612 -0.7557  0.4614
  624MOL0     C85999  -0.174   6.548  11.371  0.4072  0.4695 -0.0199
  624MOL0     C86000  -0.152   6.435  11.292 -1.2290 -0.0716  0.4784
  624MOL0     C86001  -0.092   6.320  11.342 -0.3172 -0.0422  0.8483
  624MOL0     C86002  -0.086   6.194  11.255  0.0104  0.6112  0.1781
  624MOL0     C86003  -0.049   6.315  11.477 -0.6224 -0.4710  0.0053
  624MOL0     C86004   0.000   6.195  11.547  0.1167 -0.4115 -0.1439
  624MOL0     O86005  -0.019   6.213  11.679  0.1827  0.3267 -0.6422
  624MOL0     C86006   0.053   6.144  11.770  0.3396  0.8246 -0.7751
  624MOL0     C86007   0.032   6.018  11.811 -0.5769  0.1850  0.0291
  624MOL0     C86008   0.113   5.952  11.911 -0.4537 -0.4150  0.7268
  624MOL0     C86009   0.231   6.012  11.957  0.5222  0.0620 -0.8720
  624MOL0     O86010   0.300   5.939  12.041  0.0697 -0.0688  0.4405
  624MOL0     C86011   0.439   5.945  12.028 -0.4193  0.2206  0.2444
  624MOL0     C86012   0.466   5.909  11.871 -0.2103  0.1505  0.3461
  624MOL0     C86013   0.612   5.876  11.842  0.5790  0.4600  0.0917
  624MOL0     C86014   0.638   5.825  11.701  0.3338  0.6342  0.6198
  624MOL0     C86015   0.770   5.742  11.696 -0.7049 -0.3353  0.3620
  624MOL0     C86016   0.813   5.728  11.542  0.4148  0.4433  0.3617
  624MOL0     C86017   0.956   5.662  11.545  0.7127 -0.4573 -0.7565
  624MOL0     C86018   1.030   5.653  11.408 -0.4973  0.0689 -1.3769
  624MOL0    Cl86019   1.010   5.783  11.292 -0.3332 -0.1387 -0.3127
  624MOL0     C86020   0.235   6.159  11.944 -0.1749  0.5878 -0.5254
  624MOL0     C86021   0.147   6.217  11.847 -0.6568 -0.8898  0.0250
  624MOL0     O86022   0.074   6.118  11.492 -0.6809  0.6363 -0.1632
  624MOL0     C86023  -0.054   6.439  11.546 -0.2338 -0.6211 -0.0312
  624MOL0     C86024  -0.111   6.556  11.497 -0.3586  0.6765  0.3714
  624MOL0     N86025   0.120   6.513  10.923 -0.1879 -0.7160 -0.0204
  624MOL0     N86026   0.182   6.446  10.831 -0.2653  0.4174  0.0139
  624MOL0     C86027   1.032   6.293  10.619 -0.0621 -0.5543  0.5014
  624MOL0     C86028   1.148   6.337  10.558 -0.1964 -0.3770  0.8295
  624MOL0     C86029   1.525   6.346  10.297 -0.3377 -0.3209 -0.4764
  624MOL0     C86030   1.496   6.446  10.201 -0.6212 -0.5063  0.0405
  624MOL0     C86031   1.598   6.502  10.124 -0.1860  0.2579 -0.3896
  624MOL0     C86032   1.728   6.460  10.132  0.2618  0.7115  0.2463
  624MOL0     O86033   1.831   6.518  10.072 -0.2817  0.1060 -0.2688
  624MOL0     C86034   1.843   6.488   9.938 -0.2981  0.5814  0.3646
  624MOL0     C86035   1.985   6.432   9.920  0.9883  0.4696  0.6253
  624MOL0     C86036   2.090   6.540   9.952  0.1013  0.4641 -0.2148
  624MOL0     C86037   2.226   6.490   9.943  0.2901 -0.3060  0.3013
  624MOL0     C86038   2.268   6.430   9.821 -0.1926 -0.6787  0.5050
  624MOL0     C86039   2.299   6.378   9.714 -0.2420 -0.5097 -0.6452
  624MOL0     C86040   1.759   6.351  10.213  1.1143  0.5545 -0.2839
  624MOL0     C86041   1.660   6.295  10.301 -0.9450  0.1361  0.4960
  624MOL0     C86042   1.698   6.183  10.383 -0.0895  0.5792 -0.2583
  624MOL0     H86043   1.080   6.220  10.233 -2.3332 -1.5393 -0.3098
  624MOL0     H86044   0.871   6.154  10.349 -0.0135  0.1751 -2.2046
  624MOL0     H86045   0.728   6.026  10.534 -0.7815 -0.5254  1.4655
  624MOL0     H86046   0.712   6.195  10.467  1.7788 -1.6491 -0.7079
  624MOL0     H86047   0.584   6.081  10.714  0.4268  2.0729  3.6203
  624MOL0     H86048   0.590   6.254  10.683  1.7411 -1.0587  0.6131
  624MOL0     H86049   0.460   6.222  10.467  1.2500 -0.0235  0.4717
  624MOL0     H86050   0.473   6.047  10.475 -0.8877 -0.8786  0.6168
  624MOL0     H86051   0.322   6.025  10.649 -2.4610  0.6545  0.4951
  624MOL0     H86052   0.301   6.206  10.656 -1.8131 -0.7528 -1.7005
  624MOL0     H86053   0.120   6.076  10.538 -0.0658  1.2179  0.0643
  624MOL0     H86054   0.233   6.058  10.403 -0.8034  0.2751 -1.0891
  624MOL0     H86055   0.248   6.304  10.378 -1.3734  1.1051  0.1718
  624MOL0     H86056   0.098   6.247  10.342 -0.2519 -0.0455  0.0977
  624MOL0     H86057   0.042   6.312  10.593 -0.1190  0.7155  1.2488
  624MOL0     H86058   0.039   6.430  10.460 -2.5394 -1.5202  0.6823
  624MOL0     H86059   0.305   6.396  10.607  0.1952 -0.1175  0.2205
  624MOL0     H86060   0.242   6.538  10.520 -0.7682  0.1255  1.0579
  624MOL0     H86061   0.026   6.672  10.652  0.1343  0.8554 -0.1912
  624MOL0     H86062  -0.074   6.777  10.871 -0.3965 -0.9885  1.1916
  624MOL0     H86063   0.086   6.799  10.958  0.3506 -0.2562  3.2230
  624MOL0     H86064  -0.062   6.577  11.081 -0.7840 -0.6039  0.9178
  624MOL0     H86065   0.039   6.689  11.142  0.6390 -1.0574 -0.1094
  624MOL0     H86066  -0.146   6.853  11.147 -1.5109  0.7352 -2.1354
  624MOL0     H86067  -0.241   6.764  11.020 -2.8686  3.2588  1.6980
  624MOL0     H86068  -0.375   6.730  11.211 -0.4096 -1.9172 -1.2962
  624MOL0     H86069  -0.304   6.585  11.150 -3.7131 -0.6116  0.5935
  624MOL0     H86070  -0.187   6.427  11.189 -3.0499  1.1007  0.9578
  624MOL0     H86071   0.014   6.170  11.219 -0.7025 -2.2140 -0.2256
  624MOL0     H86072  -0.157   6.187  11.171  0.8266 -0.4803 -0.4563
  624MOL0     H86073  -0.118   6.108  11.315  1.8454 -0.0535  0.2585
  624MOL0     H86074  -0.045   5.971  11.751 -1.7671  2.1093 -0.0334
  624MOL0     H86075   0.099   5.844  11.914  0.1360 -0.4807  1.6461
  624MOL0     H86076   0.467   6.049  12.048  3.4663 -0.6632  0.1903
  624MOL0     H86077   0.494   5.876  12.092 -0.3073 -0.6656 -0.7736
  624MOL0     H86078   0.404   5.825  11.839 -0.8227  1.7086 -2.9826
  624MOL0     H86079   0.445   5.997  11.810 -0.4580  0.9219  1.5217
  624MOL0     H86080   0.638   5.796  11.912 -0.6134  1.4940  1.7834
  624MOL0     H86081   0.673   5.963  11.868 -1.3248  1.0545  3.0406
  624MOL0     H86082   0.632   5.914  11.637 -5.1832 -0.0470 -0.3776
  624MOL0     H86083   0.562   5.751  11.670  0.9181 -0.2859  1.3474
  624MOL0     H86084   0.847   5.797  11.751 -1.6079 -0.6768  2.0255
  624MOL0     H86085   0.758   5.643  11.741 -1.0184  0.3626  1.8603
  624MOL0     H86086   0.826   5.831  11.506  0.4292  0.0720 -0.7337
  624MOL0     H86087   0.738   5.687  11.474 -0.5295  2.8724 -0.1864
  624MOL0     H86088   0.944   5.557  11.575 -0.1098 -0.6785 -1.7858
  624MOL0     H86089   1.027   5.710  11.612 -0.4722 -1.5193  1.3721
  624MOL0     H86090   0.994   5.560  11.364  1.0906 -3.6318  4.1378
  624MOL0     H86091   1.138   5.638  11.419 -0.6412 -1.0392 -1.3860
  624MOL0     H86092   0.312   6.219  11.992  0.5724  0.3470 -1.3803
  624MOL0     H86093   0.171   6.321  11.832  3.0911 -1.4329  1.2607
  624MOL0     H86094  -0.022   6.442  11.649 -1.1181 -1.3839  0.2845
  624MOL0     H86095  -0.135   6.639  11.563 -0.6332 -0.4752  1.7760
  624MOL0     H86096   1.010   6.325  10.721 -0.0679  0.4900  0.1844
  624MOL0     H86097   1.218   6.393  10.619 -0.6420 -1.4223  2.3695
  624MOL0     H86098   1.402   6.498  10.189 -0.0008  0.4459 -0.8777
  624MOL0     H86099   1.574   6.586  10.060  0.1503  1.8942  1.5061
  624MOL0     H86100   1.772   6.412   9.905  0.2238 -0.5436  1.7177
  624MOL0     H86101   1.817   6.582   9.888  2.0174  1.3338  0.4664
  624MOL0     H86102   2.010   6.390   9.822  1.6673 -2.3078  1.8952
  624MOL0     H86103   2.001   6.346   9.987  0.4151  0.3823  0.6516
  624MOL0     H86104   2.078   6.627   9.886  1.9467 -2.5930 -5.1498
  624MOL0     H86105   2.077   6.570  10.056 -2.2936 -0.0130 -0.3119
  624MOL0     H86106   2.237   6.412  10.019  0.7556 -2.1750 -1.6086
  624MOL0     H86107   2.289   6.570   9.982 -0.6734 -0.7514  3.0163
  624MOL0     H86108   2.326   6.337   9.619  0.5837  1.3259 -1.2392
  624MOL0     H86109   1.854   6.299  10.204 -0.8444 -2.8966 -4.9846
  624MOL0     H86110   1.698   6.207  10.490  0.7539  0.0579 -0.1313
  624MOL0     H86111   1.631   6.098  10.366  1.8959 -1.0809 -0.1897
  624MOL0     H86112   1.793   6.142  10.349 -1.2699 -5.2905  2.2276
  625MOL0     O86113   8.184   8.354  10.633 -0.0513 -0.0203  0.3660
  625MOL0     C86114   8.098   8.438  10.605  1.1089 -0.2049  0.8002
  625MOL0     O86115   8.112   8.524  10.498 -0.0024 -0.0911  0.4621
  625MOL0     C86116   8.225   8.537  10.418  0.5846 -0.3348 -0.7592
  625MOL0     C86117   8.201   8.609  10.301  0.2569 -0.1369 -0.2844
  625MOL0     C86118   8.304   8.629  10.206  0.7866  0.3058 -0.0738
  625MOL0     C86119   8.435   8.577  10.225  0.0397 -0.2991 -0.5853
  625MOL0     O86120   8.538   8.586  10.137 -0.9200  0.4773  0.4992
  625MOL0     C86121   8.672   8.541  10.175 -0.8741  0.2150 -0.0647
  625MOL0     C86122   8.766   8.575  10.059 -0.3046  0.8336  0.0819
  625MOL0     C86123   8.906   8.545  10.077  0.9058  0.8005 -0.6450
  625MOL0     C86124   9.000   8.551   9.950 -0.0728 -0.3179 -0.4942
  625MOL0     C86125   9.143   8.532   9.991 -0.3010 -0.2378  0.5911
  625MOL0     C86126   9.234   8.602   9.879 -0.6318 -0.4847  0.4488
  625MOL0     C86127   9.219   8.539   9.741  1.0203 -1.0267  0.9021
  625MOL0     C86128   9.272   8.628   9.625  0.4808  0.3604 -0.3460
  625MOL0     N86129   9.412   8.652   9.630  0.5310 -0.2896 -0.1021
  625MOL0     C86130   9.506   8.552   9.627  0.0268 -1.0269 -0.7910
  625MOL0     C86131   9.620   8.616   9.640 -0.7589  0.1613 -0.0003
  625MOL0     C86132   9.750   8.547   9.629 -0.7682 -0.2512 -0.9484
  625MOL0     C86133   9.789   8.506   9.767 -0.2875  0.2530 -0.2751
  625MOL0     C86134   9.866   8.379   9.765 -0.4969  0.0395 -0.7829
  625MOL0     C86135   9.954   8.365   9.894 -0.7689  0.3552 -0.7272
  625MOL0     O86136  10.044   8.249   9.898  0.2663  0.0720 -0.2043
  625MOL0     C86137   9.997   8.125   9.871  0.7347 -0.6361  0.1236
  625MOL0     C86138   9.912   8.067   9.970  0.5908  0.4497 -0.2997
  625MOL0     C86139   9.852   7.947   9.937 -0.0417 -0.7706  1.2540
  625MOL0     C86140   9.734   7.903  10.019  0.4143 -0.3243  0.2680
  625MOL0     C86141   9.910   7.865   9.830  0.3354 -0.3989  0.1661
  625MOL0     C86142   9.865   7.727   9.805 -0.3189 -0.2284 -0.6460
  625MOL0     O86143   9.853   7.694   9.679  0.2305  0.8822  0.4323
  625MOL0     C86144   9.801   7.571   9.651  0.4388  0.3438 -0.1056
  625MOL0     C86145   9.709   7.502   9.729  0.4608 -0.4106  0.2077
  625MOL0     C86146   9.652   7.386   9.681  0.7350 -1.0186 -0.5981
  625MOL0     C86147   9.687   7.329   9.560 -0.6330  0.6430  0.1153
  625MOL0     O86148   9.613   7.217   9.508  0.2578  0.3083 -0.1475
  625MOL0     C86149   9.673   7.142   9.409 -0.8907 -0.0414 -0.2082
  625MOL0     C86150   9.620   6.997   9.396 -0.3544 -0.1290 -0.0749
  625MOL0     C86151   9.659   6.911   9.519 -0.2529 -0.6344  0.0917
  625MOL0     C86152   9.609   6.766   9.510 -0.0776  0.3997  0.7756
  625MOL0     C86153   9.637   6.674   9.624  0.6257 -0.1490  0.0052
  625MOL0     C86154   9.778   6.629   9.657  0.0404 -0.8711  0.1716
  625MOL0     C86155   9.866   6.607   9.530  0.7436  0.0988  0.1195
  625MOL0     C86156   9.993   6.536   9.574 -0.5599 -0.6407  0.0715
  625MOL0    Cl86157  10.085   6.643   9.701  0.5089  0.0400 -0.3910
  625MOL0     C86158   9.788   7.392   9.487  0.0354 -0.2799 -0.8451
  625MOL0     C86159   9.844   7.506   9.538  0.0581  0.5731  1.0714
  625MOL0     O86160   9.881   7.651   9.904 -0.5331 -0.1550  0.2212
  625MOL0     C86161  10.001   7.929   9.741 -0.1185 -0.4162  0.2712
  625MOL0     C86162  10.045   8.054   9.768 -0.8609 -0.3907  0.3509
  625MOL0     N86163   9.607   8.750   9.650 -0.5127  0.0998  0.1602
  625MOL0     N86164   9.480   8.768   9.648  0.9494  0.0280  0.0568
  625MOL0     C86165   8.457   8.511  10.350  0.1752 -0.4523  0.0368
  625MOL0     C86166   8.361   8.497  10.451  0.1243  0.3616  0.2000
  625MOL0     C86167   7.980   8.453  10.691 -0.4746 -0.5841  0.7260
  625MOL0     C86168   7.892   8.558  10.664  0.1213 -0.4594 -0.3586
  625MOL0     C86169   7.799   8.600  10.762  0.2051  0.1575  0.2769
  625MOL0     C86170   7.782   8.530  10.879 -0.1006 -0.3921  0.3537
  625MOL0     O86171   7.698   8.570  10.977 -0.6969  0.1593  0.5307
  625MOL0     C86172   7.709   8.707  11.032 -0.1248  0.1930  0.0475
  625MOL0     C86173   7.809   8.716  11.151  0.1633  0.3592 -0.3573
  625MOL0     C86174   7.955   8.682  11.124  0.0989 -0.1988 -0.6701
  625MOL0     C86175   8.024   8.661  11.253  0.4802  0.7402  0.4568
  625MOL0     C86176   8.161   8.611  11.239 -0.0950  0.9860  0.0348
  625MOL0     C86177   8.272   8.562  11.223 -0.0758 -0.3939  0.5516
  625MOL0     C86178   7.856   8.411  10.898  0.7353 -0.9405 -0.4752
  625MOL0     C86179   7.959   8.380  10.812  1.1486  0.1246  0.3822
  625MOL0     C86180   8.027   8.253  10.847  0.2348 -0.8094 -0.1025
  625MOL0     H86181   8.106   8.657  10.284  1.0175  1.8081  0.6875
  625MOL0     H86182   8.281   8.686  10.117 -0.2104  2.6017  1.5373
  625MOL0     H86183   8.685   8.435  10.196  0.7980 -0.0028 -1.8978
  625MOL0     H86184   8.702   8.604  10.260 -0.9126  4.2125 -2.7201
  625MOL0     H86185   8.736   8.511   9.976  0.7079  1.6450 -0.9567
  625MOL0     H86186   8.754   8.680  10.031 -0.9703  0.9011  0.5929
  625MOL0     H86187   8.958   8.599  10.157  0.0081 -1.4256  1.5824
  625MOL0     H86188   8.910   8.440  10.107 -0.0894  1.0985  0.6223
  625MOL0     H86189   8.979   8.472   9.877  1.2111 -1.7264  0.5954
  625MOL0     H86190   8.991   8.647   9.898 -0.3564  0.2672  0.6145
  625MOL0     H86191   9.170   8.426   9.992 -1.6260 -0.6005 -0.0103
  625MOL0     H86192   9.166   8.580  10.087 -0.5806 -0.1370  0.6090
  625MOL0     H86193   9.216   8.710   9.872 -2.9733 -0.7307  1.7152
  625MOL0     H86194   9.339   8.584   9.904 -0.4909 -1.0732 -0.5214
  625MOL0     H86195   9.112   8.523   9.725  0.8959  1.4568 -1.5517
  625MOL0     H86196   9.275   8.445   9.750  0.6340 -1.2553  0.9258
  625MOL0     H86197   9.264   8.571   9.532  0.1711  1.4207 -0.9928
  625MOL0     H86198   9.206   8.715   9.624 -0.2145 -0.1092  1.5773
  625MOL0     H86199   9.487   8.446   9.622 -2.1540 -0.6253 -4.1508
  625MOL0     H86200   9.819   8.616   9.581  0.2765 -2.2451 -2.4851
  625MOL0     H86201   9.745   8.459   9.564  0.7927 -0.6783 -0.5208
  625MOL0     H86202   9.862   8.583   9.796  1.5516 -1.5358  0.0579
  625MOL0     H86203   9.713   8.513   9.845  1.1276 -0.9253  1.2899
  625MOL0     H86204   9.804   8.289   9.763 -0.5840  0.0907 -0.3994
  625MOL0     H86205   9.939   8.374   9.684  2.6491  1.0595  1.7801
  625MOL0     H86206  10.016   8.452   9.918  1.9244 -1.4946 -0.3947
  625MOL0     H86207   9.884   8.363   9.978  0.1859  0.6072  0.0990
  625MOL0     H86208   9.875   8.130  10.051  3.8028 -1.9990  3.4939
  625MOL0     H86209   9.775   7.845  10.102 -2.6553  1.4757  3.2440
  625MOL0     H86210   9.668   7.850   9.950  0.8439  1.2736 -1.4681
  625MOL0     H86211   9.678   7.987  10.061  0.3297  1.5403 -3.1623
  625MOL0     H86212   9.663   7.545   9.817 -1.1304 -1.0298 -0.2929
  625MOL0     H86213   9.567   7.343   9.733 -0.1614 -2.3616 -3.0329
  625MOL0     H86214   9.657   7.190   9.312 -0.4434 -0.8694 -0.7025
  625MOL0     H86215   9.782   7.133   9.413 -0.7879 -0.3245 -2.3581
  625MOL0     H86216   9.512   7.010   9.385 -0.2662  4.9596  2.2666
  625MOL0     H86217   9.662   6.946   9.308  2.1041  0.2735  0.8047
  625MOL0     H86218   9.618   6.968   9.603 -0.7318 -0.8770  0.0221
  625MOL0     H86219   9.769   6.913   9.520 -0.2593  0.0714  0.4154
  625MOL0     H86220   9.657   6.715   9.425 -1.5413 -1.1702  0.8382
  625MOL0     H86221   9.501   6.774   9.496  0.3048  2.2841 -1.8238
  625MOL0     H86222   9.596   6.712   9.718  0.0369  0.0377 -0.3236
  625MOL0     H86223   9.582   6.582   9.603  0.3415  0.2182 -0.8638
  625MOL0     H86224   9.775   6.532   9.708 -2.5614  0.0846  2.0494
  625MOL0     H86225   9.821   6.708   9.718  1.6039 -0.7304 -1.0523
  625MOL0     H86226   9.879   6.704   9.482 -1.7631  1.2094  1.4774
  625MOL0     H86227   9.812   6.542   9.461  2.2690 -0.2877 -0.7545
  625MOL0     H86228  10.055   6.509   9.489 -0.5589 -1.1772  0.2413
  625MOL0     H86229   9.957   6.436   9.598 -0.9662 -0.3855  0.5732
  625MOL0     H86230   9.824   7.359   9.390 -1.7342 -0.6862 -1.4167
  625MOL0     H86231   9.924   7.552   9.481  0.3187  0.1156  1.0625
  625MOL0     H86232  10.042   7.863   9.665  2.5562  0.0026  1.2145
  625MOL0     H86233  10.123   8.087   9.700  0.6586 -1.8469  1.3333
  625MOL0     H86234   8.549   8.465  10.383  1.0923  2.1327  1.3770
  625MOL0     H86235   8.385   8.439  10.540 -2.8173 -2.1345 -0.4465
  625MOL0     H86236   7.908   8.612  10.571 -2.7563 -1.9863 -1.8903
  625MOL0     H86237   7.745   8.685  10.723  1.5933  1.0922  0.3288
  625MOL0     H86238   7.743   8.771  10.951 -1.1296 -0.6708 -1.0891
  625MOL0     H86239   7.610   8.748  11.054 -1.5188 -0.3017 -4.3150
  625MOL0     H86240   7.770   8.649  11.228  1.7646  1.1682  1.2416
  625MOL0     H86241   7.801   8.813  11.202  2.2248  0.2866  0.1689
  625MOL0     H86242   7.972   8.589  11.070  2.1741  0.6138 -1.5478
  625MOL0     H86243   8.003   8.757  11.059  0.2159  0.3675  0.0523
  625MOL0     H86244   7.969   8.585  11.309  2.1600 -3.1230 -2.6904
  625MOL0     H86245   8.025   8.749  11.318  1.6984  0.5447  0.7274
  625MOL0     H86246   8.373   8.528  11.215  0.0482  0.0851 -0.1050
  625MOL0     H86247   7.835   8.353  10.988  1.3462 -0.0515  0.2494
  625MOL0     H86248   7.980   8.199  10.929 -1.5459 -2.2495 -1.9787
  625MOL0     H86249   8.014   8.181  10.766 -0.8917 -1.4752  0.6514
  625MOL0     H86250   8.131   8.265  10.879 -0.4495 -0.7635  2.2483
  626MOL0     O86251   3.688   8.458   9.769 -0.3463  0.1531 -0.1558
  626MOL0     C86252   3.611   8.363   9.786  0.5103  0.1763 -0.4505
  626MOL0     O86253   3.649   8.237   9.837 -0.3728 -0.1747 -0.7643
  626MOL0     C86254   3.783   8.213   9.857 -0.1122  0.0992 -0.8432
  626MOL0     C86255   3.864   8.296   9.938  0.7101 -0.2097 -0.2181
  626MOL0     C86256   3.999   8.263   9.960  0.1542 -0.7119  0.6385
  626MOL0     C86257   4.061   8.148   9.906  0.0840 -0.2996 -0.0568
  626MOL0     O86258   4.187   8.107   9.930 -0.1013 -0.2812  0.0118
  626MOL0     C86259   4.268   8.175  10.037  0.0743 -0.6188  0.2625
  626MOL0     C86260   4.391   8.080  10.073 -0.5455  0.2244  0.3164
  626MOL0     C86261   4.361   7.977  10.181 -0.5339 -0.7289 -0.7518
  626MOL0     C86262   4.483   7.883  10.213  0.3030  0.1105  0.0995
  626MOL0     C86263   4.467   7.786  10.339  0.6428  0.2047  0.3446
  626MOL0     C86264   4.338   7.700  10.345 -0.3434 -1.0883 -0.7930
  626MOL0     C86265   4.347   7.604  10.234 -0.0413  0.4146  0.3400
  626MOL0     C86266   4.250   7.490  10.247 -0.4982  0.0390  0.1105
  626MOL0     N86267   4.113   7.537  10.242 -0.2765 -0.4037  0.5165
  626MOL0     C86268   4.045   7.561  10.130 -0.5167  0.3426  0.2203
  626MOL0     C86269   3.921   7.579  10.171  0.5448 -0.0362  0.6443
  626MOL0     C86270   3.808   7.622  10.076 -0.7981 -0.6357  0.3573
  626MOL0     C86271   3.783   7.770  10.100  0.3863 -0.4736 -0.5177
  626MOL0     C86272   3.650   7.815  10.028  0.5476 -0.4240 -1.0355
  626MOL0     C86273   3.526   7.793  10.124  0.8804  0.4861  0.5832
  626MOL0     O86274   3.539   7.892  10.223  0.5804  0.3300  0.5431
  626MOL0     C86275   3.480   7.857  10.342  0.3909 -0.2447  0.5789
  626MOL0     C86276   3.535   7.884  10.465 -0.8734 -0.0320  0.5621
  626MOL0     C86277   3.483   7.848  10.589 -0.2482  1.2691 -0.0132
  626MOL0     C86278   3.580   7.862  10.696 -0.1209  0.1916  0.5891
  626MOL0     C86279   3.357   7.788  10.576  0.2704 -0.1353  0.4703
  626MOL0     C86280   3.281   7.745  10.705  0.8142 -0.5404  0.8364
  626MOL0     O86281   3.166   7.674  10.695 -0.2004 -0.4944  0.0769
  626MOL0     C86282   3.119   7.577  10.786 -0.5924  0.2491  0.5138
  626MOL0     C86283   2.989   7.531  10.775 -0.0991  0.3628  0.8381
  626MOL0     C86284   2.928   7.448  10.869  0.2291 -0.0599  0.3410
  626MOL0     C86285   3.008   7.412  10.979 -0.5038 -0.5565 -0.1449
  626MOL0     O86286   2.942   7.335  11.069 -0.0549  0.5071  0.2400
  626MOL0     C86287   3.016   7.258  11.164 -0.3013 -0.7309 -0.2897
  626MOL0     C86288   2.916   7.169  11.243 -0.3557  0.8370 -0.1083
  626MOL0     C86289   2.900   7.204  11.393 -0.5919  0.2086  0.8562
  626MOL0     C86290   2.839   7.086  11.471 -0.3972  0.4090 -0.5702
  626MOL0     C86291   2.780   7.115  11.620 -0.2875 -0.0969 -0.2878
  626MOL0     C86292   2.643   7.172  11.620  0.5066  0.1526  0.9471
  626MOL0     C86293   2.597   7.198  11.763 -0.4332  0.2827  0.0629
  626MOL0     C86294   2.450   7.220  11.775  0.6586  0.3789 -0.6434
  626MOL0    Cl86295   2.366   7.068  11.769  0.3528  0.2260  0.2581
  626MOL0     C86296   3.153   7.445  10.981  0.5279  0.4694 -0.5881
  626MOL0     C86297   3.205   7.528  10.886  0.3775  0.8352  0.2150
  626MOL0     O86298   3.324   7.794  10.810 -0.4331  0.2719  0.0987
  626MOL0     C86299   3.292   7.770  10.462 -0.1283  0.0978  0.8092
  626MOL0     C86300   3.353   7.794  10.335 -0.1926  0.5290  0.1268
  626MOL0     N86301   3.914   7.573  10.310  0.5349 -0.1442 -0.1225
  626MOL0     N86302   4.032   7.558  10.352 -0.1873  0.8069 -0.2622
  626MOL0     C86303   3.984   8.067   9.824  0.1656  0.2592  0.1798
  626MOL0     C86304   3.851   8.104   9.801  0.3907  0.6715  0.5717
  626MOL0     C86305   3.471   8.388   9.763 -1.0343  0.0395  0.1491
  626MOL0     C86306   3.387   8.281   9.769  0.7922 -0.9259  0.8090
  626MOL0     C86307   3.245   8.290   9.745  1.2558 -0.8208  0.1107
  626MOL0     C86308   3.192   8.415   9.731  0.4079  0.4316  0.1566
  626MOL0     O86309   3.054   8.427   9.706 -0.3898 -0.1533 -0.1433
  626MOL0     C86310   2.969   8.462   9.819 -0.1189  0.4065  0.0952
  626MOL0     C86311   2.934   8.340   9.895 -0.5631 -0.4791  0.7472
  626MOL0     C86312   2.868   8.217   9.826 -0.6980  0.3696 -0.2240
  626MOL0     C86313   2.720   8.231   9.806 -0.3131 -0.3526 -0.3356
  626MOL0     C86314   2.665   8.115   9.733 -0.0334 -0.5101 -1.0018
  626MOL0     C86315   2.621   8.017   9.674 -0.9055 -0.2420 -0.3918
  626MOL0     C86316   3.275   8.525   9.739 -0.8137  0.0035 -0.3400
  626MOL0     C86317   3.413   8.518   9.740  0.2242  0.2540 -0.2231
  626MOL0     C86318   3.498   8.644   9.763  0.1333 -0.1638  0.3567
  626MOL0     H86319   3.822   8.381   9.991  1.0481  0.3421 -0.8307
  626MOL0     H86320   4.055   8.338  10.015 -1.0375  1.6146 -1.1834
  626MOL0     H86321   4.208   8.187  10.127 -0.5569  0.9844 -0.3414
  626MOL0     H86322   4.303   8.273  10.002  2.6629 -1.8695 -1.0082
  626MOL0     H86323   4.433   8.028   9.987 -0.6114 -3.3319  2.2364
  626MOL0     H86324   4.477   8.139  10.106 -0.1825  0.6630 -1.3470
  626MOL0     H86325   4.339   8.024  10.278 -0.6939 -4.7397  1.3852
  626MOL0     H86326   4.279   7.913  10.148  2.6543 -4.7065 -1.6925
  626MOL0     H86327   4.497   7.819  10.125  1.1939  0.1354  0.2132
  626MOL0     H86328   4.575   7.941  10.224  1.9925 -1.2080 -4.4957
  626MOL0     H86329   4.454   7.857  10.421  1.3245 -0.3864  0.9749
  626MOL0     H86330   4.552   7.718  10.352 -0.7453 -1.3652  1.6209
  626MOL0     H86331   4.326   7.665  10.448 -0.7928  2.7516  0.6011
  626MOL0     H86332   4.249   7.759  10.320 -0.6115 -0.9478  0.4595
  626MOL0     H86333   4.448   7.563  10.221  0.3055  1.9744 -3.1941
  626MOL0     H86334   4.341   7.657  10.138  2.4797  0.9641  0.4134
  626MOL0     H86335   4.272   7.427  10.160 -0.1472 -1.7633  1.4586
  626MOL0     H86336   4.271   7.426  10.333  0.5103 -1.6177 -1.2891
  626MOL0     H86337   4.077   7.565  10.027 -0.3297 -1.7324  0.1574
  626MOL0     H86338   3.720   7.565  10.108 -1.1854  0.0077  0.4648
  626MOL0     H86339   3.847   7.607   9.975  1.6150  4.0156  0.3142
  626MOL0     H86340   3.774   7.800  10.205 -0.3014  1.6206 -1.1284
  626MOL0     H86341   3.870   7.825  10.065  0.3815 -1.9173 -3.0635
  626MOL0     H86342   3.661   7.923  10.015 -2.9563  0.2324  0.2757
  626MOL0     H86343   3.627   7.772   9.931  1.6388 -2.8771 -0.2722
  626MOL0     H86344   3.429   7.808  10.076  1.8821  0.3453 -1.5923
  626MOL0     H86345   3.531   7.690  10.160 -1.2559  0.5214  1.1305
  626MOL0     H86346   3.630   7.936  10.468 -0.5207 -0.6133 -0.2078
  626MOL0     H86347   3.584   7.947  10.765  1.1707 -0.3402  1.2058
  626MOL0     H86348   3.681   7.854  10.654  0.2009 -0.8344  1.5030
  626MOL0     H86349   3.583   7.783  10.772  2.2895 -1.2697 -0.8783
  626MOL0     H86350   2.927   7.564  10.692  0.0981  1.0371  0.9519
  626MOL0     H86351   2.827   7.410  10.870  0.1188  0.0576 -1.7696
  626MOL0     H86352   3.101   7.204  11.120  1.2970  1.9531 -0.7676
  626MOL0     H86353   3.048   7.335  11.234 -1.0703  1.2615 -2.0089
  626MOL0     H86354   2.819   7.163  11.195 -0.9056 -0.2478  1.0823
  626MOL0     H86355   2.943   7.063  11.242 -2.0306  0.2844  2.5446
  626MOL0     H86356   2.839   7.295  11.399 -0.2740  0.9701 -3.7093
  626MOL0     H86357   2.993   7.238  11.440 -0.6090  1.8794 -0.1935
  626MOL0     H86358   2.911   7.007  11.494 -2.8175 -2.0572 -0.9304
  626MOL0     H86359   2.752   7.050  11.415  0.0153 -2.6412  0.5930
  626MOL0     H86360   2.769   7.024  11.680 -0.2949 -0.0596 -0.2328
  626MOL0     H86361   2.843   7.178  11.682 -0.0539  0.2518 -0.8655
  626MOL0     H86362   2.578   7.096  11.577  0.3745 -1.9671  4.4637
  626MOL0     H86363   2.628   7.265  11.563  0.4818 -0.2341  0.3218
  626MOL0     H86364   2.650   7.288  11.797 -2.3364  1.2173  0.6836
  626MOL0     H86365   2.625   7.119  11.833  4.0816 -0.4742 -2.2274
  626MOL0     H86366   2.415   7.296  11.704 -0.3977 -0.3574 -0.9442
  626MOL0     H86367   2.429   7.260  11.875  1.9396 -1.4825  0.4236
  626MOL0     H86368   3.222   7.410  11.058  1.4331  1.2388 -1.0232
  626MOL0     H86369   3.312   7.544  10.889  0.3357  0.9975  0.9172
  626MOL0     H86370   3.189   7.738  10.457 -0.5318  1.5498 -2.3865
  626MOL0     H86371   3.297   7.773  10.244 -0.0729 -2.9803  0.7524
  626MOL0     H86372   4.011   7.976   9.772  0.4555 -0.2074  1.1306
  626MOL0     H86373   3.780   8.040   9.750 -0.1708 -2.2519  4.5982
  626MOL0     H86374   3.433   8.185   9.788 -2.1466 -2.3376  1.3276
  626MOL0     H86375   3.185   8.199   9.742  0.4530 -0.2879 -0.6769
  626MOL0     H86376   3.017   8.530   9.891 -1.4566 -0.0556  1.4628
  626MOL0     H86377   2.882   8.509   9.773 -0.1841 -0.5504 -0.7936
  626MOL0     H86378   2.859   8.379   9.965 -0.5434  1.7730 -0.3697
  626MOL0     H86379   3.023   8.307   9.949  1.0567  0.1162 -1.4057
  626MOL0     H86380   2.918   8.204   9.730 -0.6542  2.5008 -0.5411
  626MOL0     H86381   2.878   8.132   9.895 -1.3816  1.5228  1.3603
  626MOL0     H86382   2.701   8.326   9.756 -2.3044 -0.2437  0.5330
  626MOL0     H86383   2.682   8.239   9.908  0.1319  0.2951 -0.2151
  626MOL0     H86384   2.588   7.936   9.612 -2.8228  0.1828  0.0215
  626MOL0     H86385   3.226   8.621   9.737  0.0085  0.4354 -0.4476
  626MOL0     H86386   3.435   8.730   9.740  0.7469 -0.4336 -2.9042
  626MOL0     H86387   3.535   8.655   9.865  0.5147 -3.0347  0.6214
  626MOL0     H86388   3.583   8.647   9.694  0.9874  2.0495  1.4232
  627MOL0     O86389  10.289   2.434   3.226  0.4023 -0.2289 -0.6638
  627MOL0     C86390  10.320   2.469   3.115  0.2372  0.6692  0.3495
  627MOL0     O86391  10.442   2.518   3.083  0.2370 -0.1777  0.4303
  627MOL0     C86392  10.519   2.571   3.181  0.5348  0.6203 -0.2927
  627MOL0     C86393  10.552   2.704   3.160  0.2429 -0.1701 -0.8889
  627MOL0     C86394  10.636   2.760   3.257 -0.5162 -1.3580 -0.2016
  627MOL0     C86395  10.687   2.696   3.372  0.1002 -0.1114 -0.2159
  627MOL0     O86396  10.770   2.773   3.448  0.5254 -0.0153 -0.6958
  627MOL0     C86397  10.835   2.721   3.565  0.9167  0.1331  0.1698
  627MOL0     C86398  10.737   2.737   3.690  0.7871  0.2147  0.7097
  627MOL0     C86399  10.763   2.631   3.789 -0.2782 -0.1324  0.3644
  627MOL0     C86400  10.680   2.643   3.924  0.3945  0.6688 -0.4379
  627MOL0     C86401  10.662   2.498   3.987  0.4757 -0.1222 -0.1820
  627MOL0     C86402  10.620   2.506   4.141 -0.0046 -0.2835  0.8524
  627MOL0     C86403  10.543   2.384   4.198  0.2948  0.7121 -0.1970
  627MOL0     C86404  10.624   2.246   4.174 -0.3603  0.5056 -0.5607
  627MOL0     N86405  10.750   2.233   4.249  0.6144 -0.6021 -1.1418
  627MOL0     C86406  10.762   2.236   4.378 -0.6415 -0.6275 -1.2750
  627MOL0     C86407  10.891   2.219   4.402  0.4337 -0.4229 -0.0837
  627MOL0     C86408  10.980   2.217   4.527  0.2249 -0.9428  0.2614
  627MOL0     C86409  11.049   2.079   4.529 -0.1975 -0.6851  0.3306
  627MOL0     C86410  11.136   2.060   4.656  0.5144 -0.7262  0.2307
  627MOL0     C86411  11.196   1.921   4.646 -0.2010 -0.1034 -0.0311
  627MOL0     O86412  11.296   1.910   4.544  0.1857  0.8211 -0.1020
  627MOL0     C86413  11.358   1.790   4.523  0.8699  0.5429  0.2563
  627MOL0     C86414  11.349   1.679   4.615 -0.6468  0.2285  0.9358
  627MOL0     C86415  11.406   1.557   4.583 -0.6535  0.7545 -0.6723
  627MOL0     C86416  11.390   1.437   4.685  0.1887  0.4466  0.7586
  627MOL0     C86417  11.489   1.547   4.465 -1.1360 -0.7189  0.0374
  627MOL0     C86418  11.574   1.427   4.444 -0.5564 -0.6964  0.4805
  627MOL0     O86419  11.708   1.454   4.443  0.2395 -0.3825 -0.8449
  627MOL0     C86420  11.800   1.353   4.418  0.8759 -0.1828  0.0780
  627MOL0     C86421  11.906   1.332   4.501 -0.1673 -0.0574  0.1952
  627MOL0     C86422  12.012   1.243   4.471 -0.5561  0.1092  0.0982
  627MOL0     C86423  11.992   1.159   4.369 -0.1933  0.2205  0.1138
  627MOL0     O86424  12.087   1.059   4.342  0.1343 -0.5309 -0.1587
  627MOL0     C86425  12.040   0.933   4.280  0.6669 -0.1457 -0.5310
  627MOL0     C86426  12.143   0.817   4.298 -0.7680  0.0564  0.2875
  627MOL0     C86427  12.228   0.796   4.168 -0.0399 -1.0218 -0.1122
  627MOL0     C86428  12.323   0.680   4.185  0.4242  0.0631  0.6334
  627MOL0     C86429  12.403   0.644   4.050  0.2644  0.1371  0.7690
  627MOL0     C86430  12.504   0.759   4.020  0.1509 -0.2484  0.0216
  627MOL0     C86431  12.569   0.754   3.877  0.0714  0.4727 -0.3729
  627MOL0     C86432  12.623   0.888   3.836 -0.3256 -1.1485  0.1375
  627MOL0    Cl86433  12.682   0.886   3.670  0.1498 -0.0174  0.4901
  627MOL0     C86434  11.881   1.177   4.283  0.2759  0.2314 -0.1538
  627MOL0     C86435  11.788   1.273   4.307 -0.1196  0.1775  0.4384
  627MOL0     O86436  11.516   1.322   4.421 -0.3027  0.0709  0.0747
  627MOL0     C86437  11.508   1.655   4.380 -0.4096 -0.0537  0.6027
  627MOL0     C86438  11.437   1.776   4.409  0.0611  0.6210  0.0023
  627MOL0     N86439  10.963   2.221   4.288 -0.1757  0.0117 -0.2362
  627MOL0     N86440  10.871   2.241   4.189  0.5104  0.3013  0.4821
  627MOL0     C86441  10.654   2.562   3.388  0.0900  0.1244  0.6153
  627MOL0     C86442  10.570   2.494   3.288 -0.0083 -0.2786 -0.7362
  627MOL0     C86443  10.230   2.438   2.996 -0.3014  0.3057 -1.1063
  627MOL0     C86444  10.094   2.437   3.021  0.6568  0.3525  0.6969
  627MOL0     C86445  10.003   2.401   2.923  0.3166  0.0109  0.4013
  627MOL0     C86446  10.043   2.365   2.795  0.7192 -1.1840 -0.6930
  627MOL0     O86447   9.936   2.339   2.704  0.0083  0.2628 -0.0563
  627MOL0     C86448   9.917   2.441   2.596 -0.0925 -0.0474 -0.1812
  627MOL0     C86449   9.771   2.496   2.610 -0.3327  0.5619  0.8086
  627MOL0     C86450   9.741   2.612   2.511  0.5132 -0.0883 -0.1519
  627MOL0     C86451   9.674   2.558   2.386 -0.9279 -0.1215 -0.2953
  627MOL0     C86452   9.626   2.655   2.289  0.9277 -0.7043  0.6493
  627MOL0     C86453   9.566   2.743   2.225 -0.8285 -0.2639 -0.2695
  627MOL0     C86454  10.178   2.350   2.771 -0.2315  0.2598 -0.1990
  627MOL0     C86455  10.276   2.385   2.876  0.5307  0.0656  0.1622
  627MOL0     C86456  10.417   2.344   2.859 -0.4115 -0.3150 -0.6760
  627MOL0     H86457  10.509   2.763   3.079 -1.5954  0.2178  0.3217
  627MOL0     H86458  10.667   2.863   3.247 -0.7618 -1.3457 -0.9243
  627MOL0     H86459  10.924   2.778   3.590  2.9374 -1.4771 -2.7839
  627MOL0     H86460  10.865   2.616   3.569  5.8766  1.3529  1.3981
  627MOL0     H86461  10.755   2.831   3.743 -1.2103  0.9629  0.1524
  627MOL0     H86462  10.633   2.727   3.657  1.3079 -1.8259 -0.4811
  627MOL0     H86463  10.745   2.538   3.734  0.5619  0.0431 -0.2240
  627MOL0     H86464  10.869   2.630   3.815 -0.1978  0.7764  0.0948
  627MOL0     H86465  10.737   2.706   3.994  2.6087  0.3608 -1.8416
  627MOL0     H86466  10.586   2.692   3.900 -0.0207 -0.0642 -0.3419
  627MOL0     H86467  10.753   2.439   3.974  0.4180 -0.0769 -0.8305
  627MOL0     H86468  10.589   2.445   3.925  0.5130  1.3987 -1.6159
  627MOL0     H86469  10.710   2.510   4.203 -0.0008  0.9021  0.7901
  627MOL0     H86470  10.562   2.596   4.163 -2.3524 -2.2610  3.6026
  627MOL0     H86471  10.449   2.368   4.144 -0.6186 -2.6704  2.1250
  627MOL0     H86472  10.517   2.394   4.303 -2.4123 -0.8005 -0.6338
  627MOL0     H86473  10.558   2.162   4.195  0.5843  0.1704  1.2380
  627MOL0     H86474  10.656   2.245   4.069 -3.1352  1.7535 -1.4999
  627MOL0     H86475  10.682   2.251   4.450 -0.0824  1.8858 -1.0741
  627MOL0     H86476  10.913   2.239   4.611  0.7739  1.9659  0.0367
  627MOL0     H86477  11.044   2.305   4.515  0.1405 -0.3366  3.3120
  627MOL0     H86478  10.967   2.008   4.544 -1.3975  0.1898 -1.6239
  627MOL0     H86479  11.101   2.050   4.437 -2.4488 -1.0403 -0.8985
  627MOL0     H86480  11.210   2.140   4.647 -1.5966  1.1077 -2.7583
  627MOL0     H86481  11.070   2.066   4.743 -1.1759  1.9527 -1.0923
  627MOL0     H86482  11.233   1.900   4.747 -0.8887  1.4223  0.5579
  627MOL0     H86483  11.115   1.850   4.625  0.0141 -0.1211 -0.8444
  627MOL0     H86484  11.288   1.672   4.704 -1.1689  0.0026  0.5637
  627MOL0     H86485  11.384   1.474   4.788 -2.4486  1.5891  0.2943
  627MOL0     H86486  11.473   1.370   4.663  1.6222  2.3787 -0.0110
  627MOL0     H86487  11.302   1.384   4.646  2.3645 -0.7020 -3.1215
  627MOL0     H86488  11.926   1.411   4.573  1.0088  1.6703 -1.8957
  627MOL0     H86489  12.104   1.222   4.525  3.5909  2.6709 -5.0431
  627MOL0     H86490  11.945   0.899   4.323  1.6595 -1.8580  0.4223
  627MOL0     H86491  12.036   0.955   4.173  1.5409  0.1507 -0.5151
  627MOL0     H86492  12.208   0.854   4.378 -0.2909 -0.9937  0.4109
  627MOL0     H86493  12.108   0.720   4.334 -0.9689  0.5729  1.5707
  627MOL0     H86494  12.267   0.894   4.141 -1.1646 -0.8120 -1.0660
  627MOL0     H86495  12.161   0.767   4.087  1.6059 -1.3870 -1.3886
  627MOL0     H86496  12.269   0.589   4.212  1.5757 -1.1596 -0.9837
  627MOL0     H86497  12.396   0.702   4.263  1.0255  0.6100 -0.0687
  627MOL0     H86498  12.449   0.545   4.052 -1.8163 -0.8670  1.0181
  627MOL0     H86499  12.340   0.647   3.961 -0.1172 -3.0245  0.8182
  627MOL0     H86500  12.588   0.748   4.088 -0.0161 -2.3704 -0.0499
  627MOL0     H86501  12.455   0.856   4.032  2.3697  1.2931 -2.2387
  627MOL0     H86502  12.498   0.718   3.802  0.9209 -2.6830  0.1837
  627MOL0     H86503  12.649   0.680   3.876 -0.7279 -0.4189 -0.6103
  627MOL0     H86504  12.710   0.912   3.899  0.1610  2.3862 -1.6466
  627MOL0     H86505  12.544   0.963   3.850  0.8261  0.4222 -1.4206
  627MOL0     H86506  11.872   1.113   4.196 -2.0219  0.8621 -0.4428
  627MOL0     H86507  11.713   1.281   4.229 -0.1807 -3.2506  0.0013
  627MOL0     H86508  11.578   1.647   4.297  1.1325 -1.5200  1.9689
  627MOL0     H86509  11.449   1.856   4.336  1.4160  0.3083 -0.1466
  627MOL0     H86510  10.681   2.502   3.474 -3.7536 -2.2009  0.4223
  627MOL0     H86511  10.552   2.388   3.302 -0.1278 -0.1042  0.5172
  627MOL0     H86512  10.052   2.455   3.119  0.4874  2.3295  0.3113
  627MOL0     H86513   9.898   2.401   2.948  0.0708  1.2561 -0.4994
  627MOL0     H86514   9.979   2.531   2.600 -5.8832  4.5778 -0.3803
  627MOL0     H86515   9.926   2.390   2.499 -0.3019 -0.8370  0.2081
  627MOL0     H86516   9.754   2.538   2.709 -0.5812  0.4898  0.7957
  627MOL0     H86517   9.696   2.417   2.600 -1.3599  1.8346 -3.0548
  627MOL0     H86518   9.663   2.674   2.558  0.1409 -1.1966  0.7380
  627MOL0     H86519   9.826   2.679   2.492 -0.8972  2.0607  0.6927
  627MOL0     H86520   9.595   2.490   2.418  1.4056 -1.8765  2.1614
  627MOL0     H86521   9.745   2.505   2.321 -1.9529  1.8108 -3.1987
  627MOL0     H86522   9.513   2.823   2.177  2.4782  1.3609 -1.4693
  627MOL0     H86523  10.208   2.319   2.671  2.0543  2.4837 -0.2938
  627MOL0     H86524  10.437   2.299   2.762  0.5842  0.5205 -0.8770
  627MOL0     H86525  10.466   2.442   2.852 -0.0429 -0.3355  1.0544
  627MOL0     H86526  10.454   2.287   2.945 -0.7624  0.7183  0.1918
  628MOL0     O86527   1.095   2.502   2.499 -0.8740 -0.4677 -0.4518
  628MOL0     C86528   1.106   2.381   2.507  0.2324 -0.2276 -0.1807
  628MOL0     O86529   1.223   2.310   2.504  0.2173  0.4607  0.7792
  628MOL0     C86530   1.341   2.363   2.521 -0.1448  0.8990  0.6345
  628MOL0     C86531   1.373   2.461   2.619  0.1964 -0.5903 -0.2327
  628MOL0     C86532   1.496   2.516   2.640 -1.1127  0.2239 -0.4846
  628MOL0     C86533   1.600   2.476   2.553 -0.1404 -0.5539 -0.6888
  628MOL0     O86534   1.719   2.544   2.577  0.4042  0.4394 -0.3800
  628MOL0     C86535   1.841   2.495   2.520 -0.7400 -0.3557  0.5496
  628MOL0     C86536   1.964   2.571   2.590  0.2060  0.1263  0.3370
  628MOL0     C86537   2.117   2.549   2.558 -0.5486 -0.6688  0.7824
  628MOL0     C86538   2.213   2.640   2.626  0.5054  0.6383 -0.2721
  628MOL0     C86539   2.348   2.674   2.552 -0.0562 -0.5648 -0.3528
  628MOL0     C86540   2.428   2.549   2.523 -0.4274 -0.2807 -0.3177
  628MOL0     C86541   2.558   2.574   2.447  0.8049  0.5635  0.0103
  628MOL0     C86542   2.546   2.641   2.307 -0.3987 -0.2583  0.7103
  628MOL0     N86543   2.681   2.646   2.242  0.3147  0.3312  0.2430
  628MOL0     C86544   2.780   2.731   2.268 -0.0480 -0.1991  0.0888
  628MOL0     C86545   2.888   2.706   2.192  0.1972  0.6752  0.3248
  628MOL0     C86546   3.030   2.753   2.199  0.1629  0.3212 -0.2669
  628MOL0     C86547   3.066   2.854   2.094 -0.2519  0.1170  1.0885
  628MOL0     C86548   3.212   2.887   2.086 -0.1247  0.4144 -0.7634
  628MOL0     C86549   3.296   2.766   2.083  0.8963  0.1993  0.1393
  628MOL0     O86550   3.252   2.680   1.971  0.3347 -0.1657 -0.6205
  628MOL0     C86551   3.321   2.679   1.851 -0.4412  0.0454  0.3533
  628MOL0     C86552   3.304   2.565   1.765 -0.4662 -0.5074 -1.2135
  628MOL0     C86553   3.357   2.555   1.638 -0.6593 -0.6136  0.6005
  628MOL0     C86554   3.323   2.419   1.562 -0.6079 -1.0273  1.2702
  628MOL0     C86555   3.433   2.663   1.587 -0.7937  0.1589 -0.0477
  628MOL0     C86556   3.480   2.675   1.447 -0.4834  1.2089 -0.4921
  628MOL0     O86557   3.457   2.564   1.365 -0.5474  0.2260  0.3899
  628MOL0     C86558   3.537   2.541   1.251 -0.0288 -0.8838  0.3742
  628MOL0     C86559   3.677   2.555   1.241  0.4922  0.3100 -0.2931
  628MOL0     C86560   3.750   2.530   1.121 -0.6470  0.5095 -0.7363
  628MOL0     C86561   3.683   2.481   1.005 -0.4913  0.4202 -1.1133
  628MOL0     O86562   3.755   2.442   0.887  0.9943  1.1026  0.2062
  628MOL0     C86563   3.686   2.500   0.775 -0.1782  0.5205 -0.2818
  628MOL0     C86564   3.626   2.395   0.690  0.0861 -0.0884 -0.0122
  628MOL0     C86565   3.727   2.324   0.600  0.3534 -0.2954 -0.2202
  628MOL0     C86566   3.656   2.232   0.505 -0.6660 -0.5432  0.0669
  628MOL0     C86567   3.738   2.148   0.408 -0.4729  0.0728  0.8920
  628MOL0     C86568   3.773   2.237   0.289  0.1386 -0.6617 -0.6650
  628MOL0     C86569   3.889   2.167   0.217 -0.4674 -1.1575  0.3578
  628MOL0     C86570   3.863   2.026   0.174 -0.1288 -0.0367 -0.5271
  628MOL0    Cl86571   3.992   1.980   0.058  0.0389  0.2276  0.6958
  628MOL0     C86572   3.550   2.464   1.017 -0.1556  1.3058  0.1884
  628MOL0     C86573   3.475   2.493   1.136  0.7236 -1.2261  0.1736
  628MOL0     O86574   3.560   2.764   1.417  0.0023  0.2120  0.0127
  628MOL0     C86575   3.464   2.767   1.677 -0.1760 -0.2177 -0.5157
  628MOL0     C86576   3.417   2.769   1.808 -0.5277 -0.3068  0.1219
  628MOL0     N86577   2.835   2.610   2.112 -0.0701 -0.4637 -0.1633
  628MOL0     N86578   2.719   2.566   2.145 -0.6075 -0.6060  0.5011
  628MOL0     C86579   1.582   2.379   2.456  0.9201 -0.5436  0.5361
  628MOL0     C86580   1.453   2.318   2.444  0.1319 -0.2270 -0.4850
  628MOL0     C86581   0.971   2.310   2.522 -0.2133  0.1575  0.0793
  628MOL0     C86582   0.960   2.177   2.480  0.0502 -0.4128 -0.2735
  628MOL0     C86583   0.850   2.095   2.515  0.0917  0.5845 -0.0744
  628MOL0     C86584   0.734   2.148   2.581 -0.6893  0.4120 -0.1859
  628MOL0     O86585   0.630   2.073   2.636  1.1208  0.4031 -0.9495
  628MOL0     C86586   0.616   1.940   2.596 -0.1041  0.5925  0.2470
  628MOL0     C86587   0.483   1.894   2.663  0.2624 -0.3596 -0.2653
  628MOL0     C86588   0.359   1.981   2.609  0.3331 -0.3596 -0.1103
  628MOL0     C86589   0.227   1.949   2.685  0.1909  1.1303  0.2476
  628MOL0     C86590   0.184   1.807   2.685  0.7650  0.4024  0.2016
  628MOL0     C86591   0.144   1.691   2.691  0.3656 -0.3560  0.4209
  628MOL0     C86592   0.745   2.278   2.613 -0.0080  0.3001 -1.1758
  628MOL0     C86593   0.850   2.361   2.575  0.0295 -0.4283 -0.4676
  628MOL0     C86594   0.836   2.512   2.608 -0.4794  0.7847  0.1543
  628MOL0     H86595   1.287   2.495   2.676 -0.5088  0.3582 -1.8139
  628MOL0     H86596   1.512   2.582   2.725  0.9321 -3.1179  1.9841
  628MOL0     H86597   1.844   2.538   2.420 -1.8555  1.6108  1.3020
  628MOL0     H86598   1.865   2.389   2.528  2.3761  0.2191  0.1388
  628MOL0     H86599   1.947   2.671   2.551  1.5012 -0.3938 -1.7231
  628MOL0     H86600   1.950   2.571   2.699 -1.3465  1.8573  0.1877
  628MOL0     H86601   2.157   2.451   2.586  1.5566 -0.3387 -0.8623
  628MOL0     H86602   2.126   2.559   2.450 -3.3886 -1.5558  0.3911
  628MOL0     H86603   2.172   2.734   2.665  2.7171  1.4913  0.1847
  628MOL0     H86604   2.237   2.591   2.721 -0.3478  4.7283  2.3510
  628MOL0     H86605   2.414   2.744   2.603  0.0505 -0.7008 -0.3043
  628MOL0     H86606   2.325   2.719   2.455 -0.2182 -0.5060 -0.2872
  628MOL0     H86607   2.459   2.495   2.613 -1.2769 -1.6321 -0.8024
  628MOL0     H86608   2.363   2.482   2.466  0.6847  0.1976 -2.2219
  628MOL0     H86609   2.610   2.478   2.438 -0.6587 -0.5013  1.9502
  628MOL0     H86610   2.612   2.644   2.511 -3.7957  3.2979  1.3862
  628MOL0     H86611   2.489   2.575   2.241  2.6709 -3.3234  0.8570
  628MOL0     H86612   2.498   2.739   2.314 -1.3952 -0.7305  0.7409
  628MOL0     H86613   2.774   2.806   2.347  1.4996 -0.8280  0.8533
  628MOL0     H86614   3.076   2.659   2.166 -3.7786 -1.1753 -2.1654
  628MOL0     H86615   3.049   2.782   2.302  0.3671 -1.4719  0.2462
  628MOL0     H86616   3.030   2.818   1.998 -1.5373  2.9150  0.3982
  628MOL0     H86617   3.007   2.944   2.117  2.2694  2.4228 -0.7543
  628MOL0     H86618   3.226   2.952   2.000  3.0974 -0.3660 -0.9588
  628MOL0     H86619   3.254   2.935   2.175  0.2233  0.0916 -0.7518
  628MOL0     H86620   3.401   2.793   2.073  0.9975  0.0329  0.6814
  628MOL0     H86621   3.289   2.702   2.172  0.5144 -2.2954 -1.5569
  628MOL0     H86622   3.250   2.474   1.789  1.4855 -2.0984 -2.5539
  628MOL0     H86623   3.409   2.387   1.502 -0.7953  0.8148 -0.0624
  628MOL0     H86624   3.244   2.434   1.488 -0.0501  0.2211  0.9006
  628MOL0     H86625   3.292   2.341   1.632 -0.7548  0.6655  3.1729
  628MOL0     H86626   3.727   2.590   1.331  0.6033  2.1417 -1.0200
  628MOL0     H86627   3.856   2.543   1.140 -0.7662  1.0579 -0.4183
  628MOL0     H86628   3.610   2.575   0.796 -1.6523 -1.4517  2.0006
  628MOL0     H86629   3.762   2.552   0.715  0.0875  0.7491  0.2469
  628MOL0     H86630   3.575   2.322   0.754  0.6725 -1.0958 -0.6677
  628MOL0     H86631   3.546   2.435   0.627 -0.2461 -1.0532 -0.2075
  628MOL0     H86632   3.800   2.265   0.656 -0.6617 -0.8576  0.5323
  628MOL0     H86633   3.790   2.392   0.542  2.1748 -1.4066  0.3813
  628MOL0     H86634   3.582   2.297   0.456 -1.8029 -2.9604 -1.6099
  628MOL0     H86635   3.599   2.160   0.564 -0.7417  0.3955  1.1799
  628MOL0     H86636   3.822   2.100   0.460  1.1933  3.2731  1.4250
  628MOL0     H86637   3.669   2.075   0.365 -0.2435  1.6586 -2.4658
  628MOL0     H86638   3.802   2.337   0.323 -2.2167 -1.1058  3.2785
  628MOL0     H86639   3.691   2.255   0.218  1.6983 -0.4915 -2.4886
  628MOL0     H86640   3.978   2.168   0.280  1.5770 -0.0501 -2.3407
  628MOL0     H86641   3.914   2.219   0.123  2.1491 -1.8878  0.5695
  628MOL0     H86642   3.759   2.006   0.147 -1.0090 -0.2028  2.5939
  628MOL0     H86643   3.878   1.960   0.260 -0.3832  0.1537 -0.3366
  628MOL0     H86644   3.480   2.426   0.943 -2.8537  1.6488  2.3554
  628MOL0     H86645   3.368   2.479   1.120  0.8225 -3.8001  1.3583
  628MOL0     H86646   3.535   2.844   1.649 -1.6244  1.7066  0.9118
  628MOL0     H86647   3.453   2.840   1.881  0.7763  0.4757 -1.2294
  628MOL0     H86648   1.655   2.350   2.382  0.6301  0.1340 -0.0251
  628MOL0     H86649   1.434   2.242   2.369  2.6190 -5.1705  3.2786
  628MOL0     H86650   1.037   2.131   2.420 -1.3556 -2.5115 -0.5560
  628MOL0     H86651   0.845   1.992   2.480  1.7075 -0.3234  2.1113
  628MOL0     H86652   0.604   1.930   2.488  0.9734 -1.8850  0.2811
  628MOL0     H86653   0.701   1.877   2.626  0.5883  1.1879 -0.4404
  628MOL0     H86654   0.491   1.911   2.771 -2.2263 -0.9198  0.0842
  628MOL0     H86655   0.466   1.787   2.648  0.8867 -0.7446  1.5573
  628MOL0     H86656   0.374   2.087   2.632 -3.2112  0.2315 -0.0201
  628MOL0     H86657   0.345   1.973   2.501 -2.1328 -1.6172  0.2197
  628MOL0     H86658   0.156   2.019   2.639 -0.6435 -0.2024 -0.5637
  628MOL0     H86659   0.241   1.977   2.790 -0.3050  1.2785  0.2768
  628MOL0     H86660   0.121   1.587   2.694 -0.7283 -0.2003 -1.3149
  628MOL0     H86661   0.664   2.322   2.669  0.2196 -0.0723 -0.5458
  628MOL0     H86662   0.731   2.539   2.625 -1.0121 -2.8505  3.9991
  628MOL0     H86663   0.882   2.540   2.703 -2.2145  2.9298  0.4485
  628MOL0     H86664   0.866   2.571   2.521  1.5207 -1.7449 -1.0126
  629MOL0     O86665   0.615   3.244   5.860  0.3838  0.1541  0.0118
  629MOL0     C86666   0.709   3.203   5.788  0.1645 -0.2496 -0.2332
  629MOL0     O86667   0.704   3.190   5.646 -0.5842 -0.1437  0.2744
  629MOL0     C86668   0.591   3.219   5.577  0.0901  0.8238 -0.5331
  629MOL0     C86669   0.581   3.303   5.468  0.6670  0.6396  0.3671
  629MOL0     C86670   0.458   3.303   5.397 -0.6853  0.1011  0.9614
  629MOL0     C86671   0.348   3.224   5.435 -0.9061  0.5027 -1.8625
  629MOL0     O86672   0.242   3.245   5.357 -0.0335  0.4513  0.0654
  629MOL0     C86673   0.115   3.205   5.404 -0.4684  0.3801  0.0032
  629MOL0     C86674   0.051   3.300   5.510 -0.2493 -0.2720  0.7063
  629MOL0     C86675  -0.103   3.290   5.526 -1.0214  0.7039 -0.2522
  629MOL0     C86676  -0.142   3.369   5.650 -0.3835  0.1538  0.2628
  629MOL0     C86677  -0.099   3.518   5.642  0.1516 -0.2416  0.1033
  629MOL0     C86678  -0.184   3.601   5.748 -0.0292 -0.0419  0.7054
  629MOL0     C86679  -0.175   3.750   5.732 -0.7004 -0.6484 -0.0850
  629MOL0     C86680  -0.254   3.824   5.832 -0.3126 -1.0564 -0.1606
  629MOL0     N86681  -0.227   3.965   5.834 -0.4617  0.7525  0.7169
  629MOL0     C86682  -0.298   4.066   5.781  0.0440  0.1033  0.2845
  629MOL0     C86683  -0.227   4.179   5.813 -0.7303 -0.4248  0.5951
  629MOL0     C86684  -0.252   4.328   5.774  0.0130 -0.4776 -0.2801
  629MOL0     C86685  -0.156   4.402   5.678 -0.3223  0.0038 -0.9118
  629MOL0     C86686  -0.187   4.547   5.624 -0.1921  0.4552 -0.0554
  629MOL0     C86687  -0.057   4.621   5.591  0.1777 -0.1297  0.0105
  629MOL0     O86688  -0.088   4.758   5.577  0.0328 -0.0454  0.5652
  629MOL0     C86689   0.015   4.844   5.556  0.1313  0.5909 -1.6623
  629MOL0     C86690  -0.009   4.981   5.560  0.7773 -0.1372  0.4716
  629MOL0     C86691   0.086   5.084   5.569  0.1164 -0.3382  0.1021
  629MOL0     C86692   0.038   5.233   5.566 -0.3469 -0.5216 -0.0967
  629MOL0     C86693   0.222   5.050   5.584  0.0416  0.6108 -1.5198
  629MOL0     C86694   0.324   5.151   5.600  0.4211 -0.6808  0.2235
  629MOL0     O86695   0.439   5.121   5.541 -0.3508 -0.2849 -0.2180
  629MOL0     C86696   0.538   5.213   5.554  0.4276  0.1262  0.6495
  629MOL0     C86697   0.649   5.197   5.638 -0.0209  0.3865 -0.4162
  629MOL0     C86698   0.766   5.280   5.627  0.4250 -0.1084  0.5901
  629MOL0     C86699   0.776   5.375   5.532  0.2419 -0.2046 -0.3061
  629MOL0     O86700   0.879   5.465   5.548  0.8425  0.1724  0.2542
  629MOL0     C86701   0.930   5.536   5.428  0.1457  0.2869 -0.3221
  629MOL0     C86702   1.076   5.584   5.451 -0.2512 -0.2280 -0.0828
  629MOL0     C86703   1.170   5.462   5.454 -0.1305  0.4893 -0.5373
  629MOL0     C86704   1.330   5.487   5.473  0.6278  0.0086  0.2234
  629MOL0     C86705   1.408   5.362   5.476 -0.3112 -0.0822  0.0342
  629MOL0     C86706   1.561   5.394   5.475  0.2307  0.4379 -0.0645
  629MOL0     C86707   1.627   5.392   5.608 -0.3746  1.1515  0.1632
  629MOL0     C86708   1.623   5.519   5.693 -0.1923 -0.8809 -0.1631
  629MOL0    Cl86709   1.689   5.666   5.608 -0.3112 -0.8522  0.1771
  629MOL0     C86710   0.674   5.396   5.440 -0.1903  0.3388 -0.4626
  629MOL0     C86711   0.551   5.330   5.461  1.0819  0.0089  0.3806
  629MOL0     O86712   0.298   5.250   5.657 -0.1283 -0.4946 -0.6026
  629MOL0     C86713   0.252   4.915   5.577  0.9614  0.1112 -0.1223
  629MOL0     C86714   0.155   4.815   5.558  0.7017 -0.7200 -0.7984
  629MOL0     N86715  -0.114   4.143   5.883  0.3246 -0.5991  0.4136
  629MOL0     N86716  -0.122   4.016   5.899  0.1673  0.0458 -1.1021
  629MOL0     C86717   0.361   3.138   5.545 -0.1013 -0.4171  0.9392
  629MOL0     C86718   0.482   3.141   5.609  0.8936 -0.5893  0.0871
  629MOL0     C86719   0.836   3.150   5.861  0.2774 -0.5802  0.5535
  629MOL0     C86720   0.935   3.083   5.780 -0.2200 -0.4356 -0.1765
  629MOL0     C86721   1.050   3.035   5.833  0.3080  0.2621 -0.4488
  629MOL0     C86722   1.074   3.052   5.964 -0.1482  0.4866  0.1114
  629MOL0     O86723   1.182   3.013   6.037  0.4898 -0.4518  0.4486
  629MOL0     C86724   1.290   2.948   5.965  0.0160 -0.6927  0.5626
  629MOL0     C86725   1.369   2.878   6.076  0.4858 -0.0542  0.8136
  629MOL0     C86726   1.461   2.764   6.023  0.0940 -0.3825  0.7756
  629MOL0     C86727   1.573   2.726   6.115 -0.0372 -0.3846  0.2078
  629MOL0     C86728   1.521   2.680   6.248 -0.0894 -0.4182  0.7200
  629MOL0     C86729   1.459   2.636   6.343 -0.1860 -0.5785 -0.4013
  629MOL0     C86730   0.978   3.104   6.054 -0.6972 -0.3529 -0.4047
  629MOL0     C86731   0.865   3.158   5.999  0.3575  0.0672 -0.5813
  629MOL0     C86732   0.779   3.203   6.104 -0.0903  0.5943 -0.6186
  629MOL0     H86733   0.672   3.357   5.447  0.4733  0.7314 -0.2712
  629MOL0     H86734   0.451   3.374   5.315 -1.6494  0.4558  1.3368
  629MOL0     H86735   0.118   3.103   5.444  0.7091 -0.4613 -2.1048
  629MOL0     H86736   0.042   3.202   5.322 -1.4886  0.5936  0.8748
  629MOL0     H86737   0.098   3.267   5.604  1.7540 -0.5530 -0.3432
  629MOL0     H86738   0.088   3.397   5.476  1.3842 -1.2313 -0.3898
  629MOL0     H86739  -0.146   3.318   5.430 -0.9248 -0.9443 -0.8053
  629MOL0     H86740  -0.130   3.185   5.538  0.4444  0.1170 -1.6973
  629MOL0     H86741  -0.252   3.361   5.650 -0.3424 -0.9246  2.0815
  629MOL0     H86742  -0.113   3.312   5.739 -0.6236  1.8578  1.4777
  629MOL0     H86743  -0.124   3.552   5.541  0.1993  1.0985  0.5201
  629MOL0     H86744   0.007   3.540   5.651  0.2032  0.0798 -1.1239
  629MOL0     H86745  -0.291   3.581   5.740 -0.9867  3.2839  3.1874
  629MOL0     H86746  -0.152   3.568   5.847  0.8289  0.8295  0.7300
  629MOL0     H86747  -0.213   3.780   5.634 -0.0787  0.9872  0.1436
  629MOL0     H86748  -0.071   3.784   5.735  0.1532 -2.6271 -2.8473
  629MOL0     H86749  -0.358   3.816   5.800 -0.0381  0.8130 -1.6743
  629MOL0     H86750  -0.250   3.782   5.933 -0.6219  1.3712  0.9532
  629MOL0     H86751  -0.394   4.054   5.732 -0.4449 -0.2464  1.3010
  629MOL0     H86752  -0.283   4.388   5.860 -1.1016  0.3198 -1.2021
  629MOL0     H86753  -0.347   4.328   5.719  0.6629  0.5266 -1.4476
  629MOL0     H86754  -0.058   4.404   5.727 -0.3417 -3.5285 -0.4678
  629MOL0     H86755  -0.141   4.340   5.590  0.3257 -0.8587 -0.2089
  629MOL0     H86756  -0.264   4.539   5.546 -0.5374 -1.4963  0.4282
  629MOL0     H86757  -0.244   4.593   5.706 -0.4500 -0.5915  0.3681
  629MOL0     H86758   0.021   4.605   5.667 -0.3910 -0.3011  0.5662
  629MOL0     H86759  -0.018   4.579   5.498  2.5503  1.9099 -0.0002
  629MOL0     H86760  -0.115   4.996   5.539  1.4224  2.0277 -1.6360
  629MOL0     H86761  -0.050   5.251   5.503  0.7283  1.3983 -1.1338
  629MOL0     H86762   0.113   5.288   5.509  0.2839  1.2864  2.3362
  629MOL0     H86763   0.032   5.274   5.667 -2.2536 -1.2626  0.1390
  629MOL0     H86764   0.638   5.116   5.709  1.3872  1.0105  0.5825
  629MOL0     H86765   0.843   5.263   5.702 -0.3775 -1.7298  1.1086
  629MOL0     H86766   0.931   5.471   5.340 -1.9918 -2.2978  1.4185
  629MOL0     H86767   0.870   5.622   5.400 -1.2846 -0.2066  1.0816
  629MOL0     H86768   1.103   5.656   5.373 -1.7457 -0.6135 -1.0059
  629MOL0     H86769   1.079   5.642   5.543 -3.8535 -0.4537  0.3308
  629MOL0     H86770   1.144   5.401   5.367 -1.6030  3.8493 -2.6749
  629MOL0     H86771   1.132   5.397   5.533 -4.1839  1.0205 -1.8190
  629MOL0     H86772   1.346   5.544   5.565 -2.2231  1.5580 -0.1238
  629MOL0     H86773   1.360   5.545   5.384 -0.9611 -0.7255 -0.8306
  629MOL0     H86774   1.365   5.318   5.567 -1.2689  0.1359 -0.3057
  629MOL0     H86775   1.380   5.302   5.388  2.0029 -2.4945  0.8065
  629MOL0     H86776   1.572   5.496   5.438  1.5401  0.1766 -0.4656
  629MOL0     H86777   1.608   5.320   5.409 -1.0236 -1.3637  0.9628
  629MOL0     H86778   1.732   5.362   5.598 -0.8394 -1.5970  2.2383
  629MOL0     H86779   1.576   5.314   5.666  3.2682  0.4127  2.7356
  629MOL0     H86780   1.671   5.514   5.791 -2.2950  0.1347  0.9893
  629MOL0     H86781   1.523   5.549   5.724  1.5434  3.1398  2.3922
  629MOL0     H86782   0.680   5.465   5.356 -4.7589 -0.2584 -1.5716
  629MOL0     H86783   0.469   5.351   5.393  0.6238  1.1187  1.2501
  629MOL0     H86784   0.355   4.884   5.594  0.9795  0.3913  0.2745
  629MOL0     H86785   0.188   4.712   5.548 -2.0381 -1.6685 -0.8936
  629MOL0     H86786   0.282   3.070   5.574  0.6900 -1.8571 -0.1566
  629MOL0     H86787   0.489   3.076   5.696 -0.7939  0.2789  0.9198
  629MOL0     H86788   0.913   3.065   5.675  2.9328 -0.3404 -0.9559
  629MOL0     H86789   1.125   3.000   5.762 -1.0663 -2.2420 -0.7748
  629MOL0     H86790   1.248   2.883   5.888 -1.9939  4.4630 -3.2142
  629MOL0     H86791   1.358   3.014   5.911  0.1170 -1.8893 -0.8265
  629MOL0     H86792   1.291   2.840   6.143 -1.5056  0.0783 -1.3006
  629MOL0     H86793   1.425   2.963   6.117  0.4907  1.1906 -1.5998
  629MOL0     H86794   1.397   2.681   5.990  0.2474  0.0007 -0.5332
  629MOL0     H86795   1.511   2.798   5.932  0.0283 -0.3206  0.7622
  629MOL0     H86796   1.640   2.809   6.136  0.4382 -1.1672  1.9581
  629MOL0     H86797   1.633   2.656   6.056 -1.0031 -0.7302 -0.3991
  629MOL0     H86798   1.408   2.613   6.435  0.1216  1.4281  0.3286
  629MOL0     H86799   1.006   3.104   6.159 -0.6961 -3.5159 -0.2990
  629MOL0     H86800   0.826   3.200   6.202  3.1181  0.3248 -2.0589
  629MOL0     H86801   0.738   3.302   6.080  1.7528  1.7384  0.6678
  629MOL0     H86802   0.689   3.140   6.105 -0.8988  1.7144  0.3874
  630MOL0     O86803   7.337   3.670   7.764 -0.3987  0.3118 -0.1544
  630MOL0     C86804   7.362   3.635   7.882  0.1299 -0.1616  0.6133
  630MOL0     O86805   7.281   3.663   7.991  0.1511  0.6234 -0.1062
  630MOL0     C86806   7.143   3.677   7.989 -0.4319 -0.2195  0.0238
  630MOL0     C86807   7.096   3.725   8.113 -1.0320  0.5587  0.5291
  630MOL0     C86808   6.968   3.762   8.124 -0.0463 -0.2398 -0.2131
  630MOL0     C86809   6.876   3.740   8.019  0.0352  0.0928 -0.4023
  630MOL0     O86810   6.748   3.772   8.042  0.6327  0.1094  0.6855
  630MOL0     C86811   6.717   3.905   8.005  0.4279  0.0619  0.2789
  630MOL0     C86812   6.565   3.942   8.019  0.1954  0.4483 -0.2688
  630MOL0     C86813   6.474   3.829   7.970  0.2695 -0.0765 -0.8438
  630MOL0     C86814   6.335   3.845   8.020  0.0957  0.5168  0.2009
  630MOL0     C86815   6.233   3.758   7.934  0.1252 -0.3210 -0.5807
  630MOL0     C86816   6.091   3.818   7.974  0.1011  0.3733  0.0343
  630MOL0     C86817   5.984   3.715   7.970 -0.0276  0.2511 -1.2781
  630MOL0     C86818   5.859   3.763   8.039  0.0044 -0.1091  0.1842
  630MOL0     N86819   5.749   3.665   8.017 -0.6696  1.2234 -0.0122
  630MOL0     C86820   5.652   3.674   7.916  0.2314 -0.0067  0.0889
  630MOL0     C86821   5.569   3.564   7.925  0.3303 -1.1677 -0.5872
  630MOL0     C86822   5.463   3.532   7.818  0.4904 -0.8118 -0.0337
  630MOL0     C86823   5.316   3.529   7.865 -0.7688 -0.1501 -0.5393
  630MOL0     C86824   5.230   3.471   7.751 -0.2177 -0.0292 -0.1403
  630MOL0     C86825   5.122   3.383   7.798 -0.0285  0.5653 -0.1697
  630MOL0     O86826   5.024   3.348   7.693  0.0079 -0.5075  0.0365
  630MOL0     C86827   5.026   3.224   7.632 -0.1350 -0.9116  0.0447
  630MOL0     C86828   4.899   3.172   7.605 -0.3077  0.2500  0.0547
  630MOL0     C86829   4.884   3.052   7.538  0.4140  1.4060  0.9150
  630MOL0     C86830   4.743   3.016   7.497 -0.8195 -0.6493 -0.1657
  630MOL0     C86831   4.997   2.964   7.514  0.4640  0.0721  0.1920
  630MOL0     C86832   4.999   2.835   7.444  1.0931 -0.0056  0.3188
  630MOL0     O86833   5.122   2.802   7.386 -0.0015 -0.3140  0.2133
  630MOL0     C86834   5.158   2.674   7.363 -0.5972 -0.4473  0.5543
  630MOL0     C86835   5.242   2.652   7.254  0.4345  0.2313  0.6528
  630MOL0     C86836   5.312   2.531   7.237 -0.3036 -0.4965 -0.2988
  630MOL0     C86837   5.298   2.425   7.326  0.0575 -0.1806  0.2322
  630MOL0     O86838   5.360   2.298   7.320 -0.2714  0.1948 -0.1507
  630MOL0     C86839   5.443   2.268   7.215  0.3124  0.1643  0.1545
  630MOL0     C86840   5.520   2.153   7.253 -0.8518  0.0527 -0.1561
  630MOL0     C86841   5.605   2.105   7.136 -0.0783  0.3373  0.2646
  630MOL0     C86842   5.726   2.016   7.191 -0.4289  1.1165  0.2853
  630MOL0     C86843   5.784   1.933   7.075  0.0675 -0.2815 -0.0641
  630MOL0     C86844   5.853   2.033   6.977 -0.2680 -0.6457 -0.6746
  630MOL0     C86845   5.916   1.969   6.859  0.3404  0.5059  0.6240
  630MOL0     C86846   5.828   1.933   6.743 -0.1540  0.3039  0.2132
  630MOL0    Cl86847   5.894   1.817   6.609  0.2157  0.0512 -0.1613
  630MOL0     C86848   5.203   2.449   7.430  0.4294  0.3051 -0.6786
  630MOL0     C86849   5.141   2.570   7.454  0.7645  0.6170 -0.0791
  630MOL0     O86850   4.900   2.760   7.449  0.2794  0.1660 -0.4892
  630MOL0     C86851   5.123   3.022   7.541  0.0376 -0.5015 -0.4085
  630MOL0     C86852   5.136   3.153   7.598 -0.2615 -0.0034 -0.2620
  630MOL0     N86853   5.620   3.490   8.029  0.4266 -0.2098 -0.0207
  630MOL0     N86854   5.728   3.547   8.078 -0.7627  0.9002 -0.0823
  630MOL0     C86855   6.922   3.694   7.896  0.2447 -0.1973  0.3499
  630MOL0     C86856   7.055   3.665   7.874  0.4203 -0.3989 -0.5915
  630MOL0     C86857   7.499   3.576   7.896 -0.4971 -1.4786  0.5770
  630MOL0     C86858   7.513   3.495   8.009  0.2083 -0.1863 -0.0239
  630MOL0     C86859   7.628   3.426   8.041  0.5753 -0.3495 -0.4445
  630MOL0     C86860   7.732   3.445   7.954 -0.6849  0.0459 -0.2524
  630MOL0     O86861   7.848   3.385   7.980  0.3660  0.6121 -0.4927
  630MOL0     C86862   7.906   3.421   8.104  0.1095  0.4002 -0.3333
  630MOL0     C86863   7.988   3.551   8.092  0.2337  0.0919 -0.1038
  630MOL0     C86864   8.057   3.572   8.227 -0.7796 -0.8439  0.6979
  630MOL0     C86865   8.199   3.499   8.226  0.2038 -0.3550 -0.1990
  630MOL0     C86866   8.292   3.560   8.138  0.1225 -0.0012 -0.8641
  630MOL0     C86867   8.376   3.607   8.059 -0.5453 -1.1578 -0.8492
  630MOL0     C86868   7.725   3.535   7.850  0.0696 -0.4927 -0.0690
  630MOL0     C86869   7.619   3.603   7.809 -0.3403  0.7849  0.3878
  630MOL0     C86870   7.629   3.698   7.694  0.5020  0.1816 -0.6535
  630MOL0     H86871   7.171   3.739   8.191  0.2548 -0.0771 -0.5414
  630MOL0     H86872   6.935   3.821   8.209  0.7693  1.0978 -0.7943
  630MOL0     H86873   6.746   3.926   7.902 -1.8110  1.0858 -0.2048
  630MOL0     H86874   6.779   3.973   8.064  0.9956  1.1021 -1.4510
  630MOL0     H86875   6.549   3.954   8.126  1.7352  2.0731 -0.1886
  630MOL0     H86876   6.544   4.036   7.967  1.4534  0.0500 -1.5690
  630MOL0     H86877   6.487   3.812   7.863 -0.9251  0.0603 -1.0275
  630MOL0     H86878   6.508   3.734   8.012  0.4955 -0.9947 -2.9753
  630MOL0     H86879   6.342   3.832   8.128  3.5555  1.5643  0.2125
  630MOL0     H86880   6.307   3.950   8.013  1.4216  1.0735  2.2414
  630MOL0     H86881   6.250   3.662   7.985  0.2734  1.2084  2.4784
  630MOL0     H86882   6.247   3.751   7.826 -2.4661  4.3501 -1.5017
  630MOL0     H86883   6.103   3.856   8.075 -1.0614  0.4776  0.1514
  630MOL0     H86884   6.060   3.898   7.905 -0.8684 -0.3368 -0.3755
  630MOL0     H86885   6.014   3.628   8.030  0.0131 -0.8304 -2.7971
  630MOL0     H86886   5.971   3.680   7.867  2.9853  1.7176 -2.2645
  630MOL0     H86887   5.867   3.782   8.147  0.8603  0.1329  0.0822
  630MOL0     H86888   5.828   3.854   7.988  1.5214  0.9771  1.1395
  630MOL0     H86889   5.647   3.759   7.849 -1.4545  0.0517  0.2573
  630MOL0     H86890   5.492   3.446   7.756  2.0475  1.6971 -3.1081
  630MOL0     H86891   5.471   3.618   7.751  1.8194  1.9178  3.3287
  630MOL0     H86892   5.316   3.458   7.948  2.1522 -2.6595 -2.4624
  630MOL0     H86893   5.265   3.620   7.898  0.6108  0.7026 -0.6624
  630MOL0     H86894   5.178   3.554   7.704 -2.4088 -0.4190  1.4314
  630MOL0     H86895   5.289   3.416   7.677  0.4483 -3.2322  2.5263
  630MOL0     H86896   5.163   3.290   7.839  0.6251  0.4077 -1.1317
  630MOL0     H86897   5.073   3.437   7.879  0.2643 -0.5100  0.7563
  630MOL0     H86898   4.803   3.218   7.629  0.0888  1.5814 -0.8201
  630MOL0     H86899   4.682   3.106   7.484 -1.8423 -1.4546 -1.0684
  630MOL0     H86900   4.704   2.932   7.555 -1.6778 -0.6116 -0.6663
  630MOL0     H86901   4.738   2.964   7.402  1.9948 -1.5820  0.1143
  630MOL0     H86902   5.253   2.726   7.175 -0.7332  1.9322  1.9999
  630MOL0     H86903   5.381   2.529   7.154  1.7238  2.0814  1.1735
  630MOL0     H86904   5.380   2.244   7.128 -1.8189 -0.7221  1.8309
  630MOL0     H86905   5.509   2.352   7.194 -0.0755  0.1113 -1.4115
  630MOL0     H86906   5.582   2.182   7.339  0.1036  0.5387 -0.9859
  630MOL0     H86907   5.462   2.067   7.289 -0.9750  0.1678 -0.0802
  630MOL0     H86908   5.642   2.195   7.087 -1.2196  0.1958 -0.8962
  630MOL0     H86909   5.546   2.044   7.067 -1.0210  0.5462  0.8589
  630MOL0     H86910   5.700   1.940   7.265  2.4539  0.9664  1.2609
  630MOL0     H86911   5.792   2.088   7.240 -0.8235  2.0205 -0.4710
  630MOL0     H86912   5.856   1.856   7.106  0.7416  0.3139 -0.1371
  630MOL0     H86913   5.703   1.881   7.022 -0.6531 -3.0719  3.3425
  630MOL0     H86914   5.936   2.076   7.034 -0.1068 -4.3495  2.2809
  630MOL0     H86915   5.780   2.108   6.944 -1.1492 -2.0526 -2.0025
  630MOL0     H86916   5.960   1.872   6.883 -2.8907 -1.8442 -2.0286
  630MOL0     H86917   5.990   2.038   6.814  0.3185  0.8685  1.1425
  630MOL0     H86918   5.803   2.027   6.693 -2.6088 -0.4546 -0.1388
  630MOL0     H86919   5.739   1.886   6.787 -1.5520 -1.1158 -3.6753
  630MOL0     H86920   5.200   2.365   7.499  0.5275  1.4659  0.7910
  630MOL0     H86921   5.095   2.589   7.551  3.9734  0.1111  1.6992
  630MOL0     H86922   5.217   2.972   7.519 -0.3019 -0.4764 -2.0673
  630MOL0     H86923   5.237   3.188   7.617 -0.4704 -0.1488  1.2722
  630MOL0     H86924   6.858   3.664   7.813 -0.0266  2.7091 -0.5982
  630MOL0     H86925   7.084   3.622   7.779 -2.2237  0.7724 -2.0609
  630MOL0     H86926   7.434   3.480   8.081  0.5670 -1.5228  0.1228
  630MOL0     H86927   7.615   3.362   8.127 -3.5724  3.0494  1.8257
  630MOL0     H86928   7.836   3.435   8.187  1.9902  0.1263  1.3890
  630MOL0     H86929   7.968   3.338   8.138 -1.6489 -0.9511 -0.3242
  630MOL0     H86930   7.925   3.638   8.072 -0.4466  0.5031  3.1454
  630MOL0     H86931   8.063   3.524   8.018 -1.7791  0.7566 -2.5016
  630MOL0     H86932   8.075   3.676   8.254  0.9409 -1.3896  1.8918
  630MOL0     H86933   8.002   3.526   8.310  0.3200 -0.5356  1.6280
  630MOL0     H86934   8.195   3.400   8.180 -0.1094 -0.4354  0.0039
  630MOL0     H86935   8.227   3.498   8.332 -2.0722  3.2687  0.6180
  630MOL0     H86936   8.445   3.663   7.999  1.5539 -1.1925  1.3792
  630MOL0     H86937   7.817   3.549   7.793 -0.5536 -1.7472 -1.4465
  630MOL0     H86938   7.547   3.683   7.623 -2.8086 -0.9827  3.0371
  630MOL0     H86939   7.631   3.798   7.737  1.0368  0.2241 -0.7717
  630MOL0     H86940   7.727   3.686   7.646  1.7762 -0.5145  1.9364
  631MOL0     O86941   1.615   4.288   8.220  0.0345 -0.0080  0.8431
  631MOL0     C86942   1.663   4.294   8.107  0.4555  0.1526  0.0614
  631MOL0     O86943   1.590   4.272   7.993 -0.3115  0.4259  0.5672
  631MOL0     C86944   1.452   4.242   7.996 -0.6109 -0.9578 -0.1605
  631MOL0     C86945   1.356   4.330   7.953 -0.1509  0.9405 -0.1720
  631MOL0     C86946   1.217   4.294   7.952 -0.3261  0.4897 -0.1929
  631MOL0     C86947   1.179   4.164   7.983  0.4740 -0.4598 -0.5338
  631MOL0     O86948   1.049   4.123   7.987  0.4950 -0.7653 -0.3970
  631MOL0     C86949   0.957   4.171   7.884  0.6783 -0.7187 -0.4890
  631MOL0     C86950   0.826   4.089   7.898 -0.3917 -0.3322  0.5874
  631MOL0     C86951   0.723   4.128   7.788 -0.0912  0.1088  0.1219
  631MOL0     C86952   0.591   4.074   7.813  0.3676  0.2360  0.2911
  631MOL0     C86953   0.491   4.116   7.712  0.7567  0.1711 -0.5334
  631MOL0     C86954   0.345   4.098   7.752 -0.2955 -0.6753  0.6432
  631MOL0     C86955   0.248   4.100   7.630  0.2884  0.4051 -0.1345
  631MOL0     C86956   0.110   4.034   7.668  0.5451 -0.1098 -0.7083
  631MOL0     N86957  -0.004   4.090   7.589  0.2380  0.5344  0.3261
  631MOL0     C86958  -0.009   4.074   7.455 -0.4442 -0.4090  0.4014
  631MOL0     C86959  -0.119   4.138   7.419 -0.8377 -0.1399 -1.2782
  631MOL0     C86960  -0.155   4.160   7.273  0.6578 -0.6841  0.2651
  631MOL0     C86961  -0.226   4.041   7.212 -0.1931  0.4105  0.2032
  631MOL0     C86962  -0.365   3.983   7.246  0.4968 -0.0305  0.3973
  631MOL0     C86963  -0.461   4.099   7.276  0.0626 -0.1132  0.1029
  631MOL0     O86964  -0.590   4.056   7.317  0.0378 -0.3572 -0.3739
  631MOL0     C86965  -0.686   4.145   7.370 -0.3197  0.2360  0.4240
  631MOL0     C86966  -0.800   4.090   7.435  0.2153 -0.4495  1.2624
  631MOL0     C86967  -0.901   4.165   7.496  0.6247  0.3228  0.0361
  631MOL0     C86968  -1.011   4.103   7.568 -0.2517  0.6617 -0.0598
  631MOL0     C86969  -0.897   4.307   7.484  0.6070 -0.3970 -0.0762
  631MOL0     C86970  -1.002   4.394   7.528  0.4587 -0.3228  0.2648
  631MOL0     O86971  -0.958   4.509   7.581  0.1659 -0.0535  0.3794
  631MOL0     C86972  -1.038   4.583   7.668  1.2885 -0.2925  0.2769
  631MOL0     C86973  -1.146   4.528   7.742 -0.4739 -0.4570  0.5558
  631MOL0     C86974  -1.218   4.602   7.822  0.4436 -0.5070 -0.3164
  631MOL0     C86975  -1.205   4.741   7.830 -0.4248  0.2392 -0.4361
  631MOL0     O86976  -1.303   4.806   7.905 -0.6373 -0.3922  0.0757
  631MOL0     C86977  -1.290   4.949   7.933  0.3405 -0.7395  0.2356
  631MOL0     C86978  -1.421   4.980   8.005 -0.0556 -0.4391 -0.0462
  631MOL0     C86979  -1.450   5.129   8.004 -0.0026 -0.6387  0.2452
  631MOL0     C86980  -1.562   5.180   8.086  0.7382 -0.8779 -0.6360
  631MOL0     C86981  -1.584   5.331   8.062  0.3645  0.7115  0.7123
  631MOL0     C86982  -1.686   5.391   8.164  0.1805 -0.7557  0.1893
  631MOL0     C86983  -1.715   5.533   8.110 -0.1803  0.2207  0.1972
  631MOL0     C86984  -1.814   5.599   8.205  0.5973 -0.2741 -0.3044
  631MOL0    Cl86985  -1.847   5.766   8.148  0.3381 -0.1221  0.2621
  631MOL0     C86986  -1.107   4.806   7.755  0.2145  0.6804  0.4746
  631MOL0     C86987  -1.024   4.726   7.683 -1.4258  0.5496 -0.4209
  631MOL0     O86988  -1.119   4.362   7.506 -0.3356  0.2580 -0.1748
  631MOL0     C86989  -0.786   4.363   7.423 -0.1311  0.1331 -0.0876
  631MOL0     C86990  -0.681   4.285   7.359  0.7505 -1.0622 -1.2716
  631MOL0     N86991  -0.186   4.201   7.531 -0.0309  1.1309  0.3052
  631MOL0     N86992  -0.115   4.162   7.636  0.5614  0.4823  0.2289
  631MOL0     C86993   1.277   4.077   8.039  0.6480 -0.1902  0.0410
  631MOL0     C86994   1.414   4.120   8.041 -0.2754  0.8201 -0.0405
  631MOL0     C86995   1.803   4.362   8.112  0.4588  0.0199 -0.1888
  631MOL0     C86996   1.869   4.368   8.235  0.8820 -0.9753  0.0200
  631MOL0     C86997   1.989   4.433   8.246 -0.4911 -0.5309 -0.4250
  631MOL0     C86998   2.053   4.485   8.136  0.1578 -0.5610  0.7035
  631MOL0     O86999   2.172   4.554   8.138 -0.0606  0.4077  0.1525
  631MOL0     C87000   2.286   4.474   8.181  0.6293 -0.0325 -0.8064
  631MOL0     C87001   2.349   4.389   8.073 -0.2624 -0.2321  0.2636
  631MOL0     C87002   2.399   4.475   7.953  0.4041 -1.3651 -0.4562
  631MOL0     C87003   2.531   4.549   7.983 -0.2126 -0.0883  0.8446
  631MOL0     C87004   2.577   4.624   7.868 -0.8944 -0.3338  0.9739
  631MOL0     C87005   2.625   4.676   7.770  0.0349 -0.8474 -0.6108
  631MOL0     C87006   1.996   4.480   8.013  1.0360 -0.2144 -0.0346
  631MOL0     C87007   1.869   4.416   7.994 -0.5671 -0.7712 -0.8547
  631MOL0     C87008   1.822   4.396   7.855  0.1017 -1.0815 -1.0392
  631MOL0     H87009   1.376   4.435   7.940 -0.8935  0.9806 -1.1334
  631MOL0     H87010   1.149   4.368   7.911  0.3261  0.0521 -2.1251
  631MOL0     H87011   0.994   4.141   7.785 -1.3392 -2.2352 -0.8671
  631MOL0     H87012   0.943   4.279   7.889  0.6992 -0.7723  0.9702
  631MOL0     H87013   0.843   3.981   7.899 -0.0600 -0.2959 -0.1430
  631MOL0     H87014   0.770   4.109   7.990  0.3131 -3.0207  1.6857
  631MOL0     H87015   0.712   4.236   7.778 -3.1745 -0.0266  1.0001
  631MOL0     H87016   0.759   4.102   7.688 -1.7189  3.3328 -1.4557
  631MOL0     H87017   0.599   3.965   7.825  1.5653  0.4536  1.8920
  631MOL0     H87018   0.550   4.115   7.906 -1.4494 -1.8641  0.5022
  631MOL0     H87019   0.510   4.070   7.614 -0.0170  0.5123 -0.8545
  631MOL0     H87020   0.495   4.225   7.698  1.5506  0.0070 -1.7659
  631MOL0     H87021   0.340   3.998   7.795 -1.2580 -0.5857  0.7802
  631MOL0     H87022   0.311   4.170   7.827 -1.3613 -1.3682  0.8567
  631MOL0     H87023   0.287   4.042   7.546  0.8643  1.0450 -0.3187
  631MOL0     H87024   0.226   4.202   7.597 -1.3315  0.3431  0.6365
  631MOL0     H87025   0.115   3.927   7.648  3.2927  0.3759 -3.3345
  631MOL0     H87026   0.096   4.046   7.776 -2.0307  1.5294 -1.1310
  631MOL0     H87027   0.065   4.035   7.385  0.7718  1.1917  0.7350
  631MOL0     H87028  -0.063   4.178   7.217  2.2947  0.5095  3.1203
  631MOL0     H87029  -0.222   4.246   7.269  0.6547 -0.7464 -1.9341
  631MOL0     H87030  -0.232   4.052   7.103 -1.5285 -1.3587  0.0304
  631MOL0     H87031  -0.155   3.960   7.228  0.0522  0.7938  1.0698
  631MOL0     H87032  -0.402   3.941   7.151  0.6253  4.4985 -1.9286
  631MOL0     H87033  -0.369   3.901   7.318  2.1764 -1.9264 -1.5219
  631MOL0     H87034  -0.422   4.157   7.360 -1.5640  2.3176 -0.7135
  631MOL0     H87035  -0.480   4.168   7.194 -1.5172 -1.9503 -1.1902
  631MOL0     H87036  -0.804   3.981   7.444  0.2726 -0.4618  1.1306
  631MOL0     H87037  -1.095   4.102   7.499  0.9176  2.1217 -1.5895
  631MOL0     H87038  -1.061   4.161   7.646 -3.7265 -0.0259 -1.5875
  631MOL0     H87039  -0.980   4.007   7.611 -1.3844  1.0511  1.7220
  631MOL0     H87040  -1.158   4.421   7.729  1.5751 -0.4674 -2.0015
  631MOL0     H87041  -1.301   4.558   7.876  1.6538 -0.1849  1.9444
  631MOL0     H87042  -1.199   4.959   7.993 -1.4328 -1.3892  3.2533
  631MOL0     H87043  -1.283   5.004   7.839  2.0263 -0.7856  0.2972
  631MOL0     H87044  -1.506   4.923   7.966  0.1537 -0.6651 -0.1751
  631MOL0     H87045  -1.412   4.938   8.105  1.0964 -2.1290 -0.8092
  631MOL0     H87046  -1.479   5.152   7.901 -2.5396  1.8492  1.3480
  631MOL0     H87047  -1.359   5.183   8.030  0.1642 -0.8585  0.1139
  631MOL0     H87048  -1.552   5.172   8.195 -1.5128  0.5201 -0.2588
  631MOL0     H87049  -1.649   5.123   8.052 -2.1741  1.6795  1.8902
  631MOL0     H87050  -1.487   5.380   8.065  1.2539 -1.0246  2.6605
  631MOL0     H87051  -1.624   5.339   7.960 -0.2854  0.5881  0.9502
  631MOL0     H87052  -1.629   5.387   8.257 -0.1650  0.1364  0.4477
  631MOL0     H87053  -1.777   5.332   8.177  0.6296 -1.4283  0.3603
  631MOL0     H87054  -1.738   5.544   8.004  0.7494 -1.2339 -0.2003
  631MOL0     H87055  -1.622   5.590   8.115 -0.2798  0.6764 -2.0626
  631MOL0     H87056  -1.766   5.608   8.303  0.7707 -0.1525 -0.3984
  631MOL0     H87057  -1.908   5.548   8.225  0.9197 -0.3053  1.3369
  631MOL0     H87058  -1.087   4.913   7.758  2.8617  0.5141 -3.5005
  631MOL0     H87059  -0.945   4.775   7.627  0.3243 -0.5578  0.9624
  631MOL0     H87060  -0.788   4.471   7.415 -0.0781 -0.0080 -3.6407
  631MOL0     H87061  -0.597   4.333   7.311  1.2305  1.0677  1.4770
  631MOL0     H87062   1.247   3.980   8.077 -2.3368  0.5374 -0.1578
  631MOL0     H87063   1.498   4.062   8.079  0.5859  1.7993 -0.4030
  631MOL0     H87064   1.824   4.327   8.325 -1.1154  0.7172 -0.1326
  631MOL0     H87065   2.031   4.435   8.346  0.1443 -4.9771 -0.3867
  631MOL0     H87066   2.368   4.529   8.228 -0.1220 -0.4612  1.1305
  631MOL0     H87067   2.266   4.395   8.254  0.9842  0.6134  0.0104
  631MOL0     H87068   2.264   4.331   8.037 -1.0721  1.8138 -1.3166
  631MOL0     H87069   2.435   4.333   8.110  0.1221 -0.1663 -0.5186
  631MOL0     H87070   2.419   4.413   7.865 -0.3337  0.3373 -1.8785
  631MOL0     H87071   2.323   4.548   7.924 -0.0753 -0.7303  2.1343
  631MOL0     H87072   2.614   4.481   8.005  0.2839  0.0078 -0.6807
  631MOL0     H87073   2.507   4.621   8.061  0.8765 -0.4389  1.5306
  631MOL0     H87074   2.651   4.709   7.672  0.4509 -3.1520 -1.3409
  631MOL0     H87075   2.043   4.521   7.924  3.1499 -2.6114 -0.1641
  631MOL0     H87076   1.765   4.485   7.825  1.8120  0.3277 -0.3384
  631MOL0     H87077   1.915   4.381   7.798  0.9680 -1.9537  0.5423
  631MOL0     H87078   1.757   4.310   7.839 -1.8958  0.1186  0.1867
  632MOL0     O87079   1.552   8.535   7.962  0.6632 -0.7121 -0.0819
  632MOL0     C87080   1.524   8.652   7.913 -0.8270  0.3049  1.2409
  632MOL0     O87081   1.513   8.683   7.774  0.5452 -0.4042 -0.0684
  632MOL0     C87082   1.547   8.588   7.680  0.2132 -0.6733  0.0944
  632MOL0     C87083   1.662   8.507   7.684  0.5848  0.4036 -0.1715
  632MOL0     C87084   1.696   8.416   7.584 -0.4418  0.0716 -0.6651
  632MOL0     C87085   1.615   8.422   7.462  0.8768  0.9661  0.5327
  632MOL0     O87086   1.619   8.328   7.362  0.7397 -0.0333 -0.2173
  632MOL0     C87087   1.724   8.231   7.352  0.4533 -0.0419 -0.4343
  632MOL0     C87088   1.854   8.293   7.295 -1.1013 -0.0670 -0.1135
  632MOL0     C87089   1.973   8.193   7.320  0.1782 -0.1326  0.5738
  632MOL0     C87090   2.109   8.254   7.271  0.5830  0.8255  0.0059
  632MOL0     C87091   2.202   8.140   7.286  0.3136  0.3957  0.3684
  632MOL0     C87092   2.343   8.200   7.235  0.8406 -0.0942  0.0950
  632MOL0     C87093   2.439   8.098   7.207  0.0431 -0.1744 -0.6460
  632MOL0     C87094   2.480   7.990   7.311  0.2058  0.4514  0.1048
  632MOL0     N87095   2.561   8.039   7.420 -0.2010 -1.0090  0.3498
  632MOL0     C87096   2.518   8.118   7.525 -0.6628  0.1061 -0.1580
  632MOL0     C87097   2.626   8.140   7.596  0.4114 -1.4311  0.3591
  632MOL0     C87098   2.625   8.221   7.720  0.1178 -0.2412  0.7126
  632MOL0     C87099   2.678   8.359   7.698 -0.3822  0.0889 -0.1435
  632MOL0     C87100   2.688   8.431   7.835  0.1816  0.1058  0.1727
  632MOL0     C87101   2.775   8.561   7.833  0.2561  2.0815 -0.1447
  632MOL0     O87102   2.775   8.628   7.710  0.1459 -0.8003  0.4173
  632MOL0     C87103   2.662   8.704   7.680  0.9733 -0.5637  0.0407
  632MOL0     C87104   2.554   8.734   7.768 -0.5636  0.2648 -0.2436
  632MOL0     C87105   2.458   8.824   7.733 -1.1432  0.1220  0.6996
  632MOL0     C87106   2.353   8.855   7.840  1.0347 -0.1127  0.5596
  632MOL0     C87107   2.450   8.883   7.604  0.2306  0.6784  0.5165
  632MOL0     C87108   2.352   8.991   7.569 -0.7609  0.0909  0.1771
  632MOL0     O87109   2.343   9.092   7.662  0.0316 -0.4386  0.2692
  632MOL0     C87110   2.282   9.216   7.643 -0.5544 -0.3480  0.1494
  632MOL0     C87111   2.170   9.246   7.713 -1.1085  0.4277 -0.4345
  632MOL0     C87112   2.110   9.370   7.714 -0.2117 -0.3790 -0.4280
  632MOL0     C87113   2.151   9.469   7.619  0.3463  0.4580 -0.0330
  632MOL0     O87114   2.081   9.588   7.594  0.4163 -0.2230  0.4150
  632MOL0     C87115   2.034   9.605   7.460  0.2442  0.8823 -0.5749
  632MOL0     C87116   2.046   9.753   7.432 -0.2857  0.6978  0.6478
  632MOL0     C87117   1.965   9.857   7.510  0.5595 -0.0297  0.5461
  632MOL0     C87118   2.049   9.981   7.538 -0.2008  0.2639 -0.2832
  632MOL0     C87119   2.049  10.070   7.421 -0.3196 -0.2123  0.7266
  632MOL0     C87120   2.144  10.186   7.428  0.8004 -0.3254  0.0297
  632MOL0     C87121   2.086  10.295   7.334  0.6954 -0.1972  0.2257
  632MOL0     C87122   2.167  10.423   7.328 -0.1392 -0.4231 -0.0381
  632MOL0    Cl87123   2.347  10.387   7.299  0.3995  0.5784 -0.2310
  632MOL0     C87124   2.266   9.438   7.539  0.0402 -0.7975  0.6763
  632MOL0     C87125   2.333   9.316   7.557  0.6442 -0.0609  0.9053
  632MOL0     O87126   2.302   8.990   7.458  0.0602 -0.9000 -0.6094
  632MOL0     C87127   2.542   8.838   7.510  1.3470 -0.9536 -0.4783
  632MOL0     C87128   2.648   8.751   7.551  1.0028 -0.3701  0.3510
  632MOL0     N87129   2.733   8.078   7.543  0.1395 -0.3345 -0.2899
  632MOL0     N87130   2.693   8.019   7.435 -0.5089 -0.0145 -0.1216
  632MOL0     C87131   1.506   8.515   7.453 -0.1043  0.2299  0.1614
  632MOL0     C87132   1.468   8.592   7.566  0.1337 -0.1691  0.6268
  632MOL0     C87133   1.492   8.769   8.008 -0.3862  0.0152  0.3163
  632MOL0     C87134   1.471   8.896   7.957  1.0299 -0.5057 -0.0228
  632MOL0     C87135   1.460   9.008   8.036  0.1861  0.4389  0.5234
  632MOL0     C87136   1.462   9.000   8.172 -0.7206  0.1601  0.5797
  632MOL0     O87137   1.439   9.118   8.243  0.2758  0.1175 -0.4615
  632MOL0     C87138   1.557   9.173   8.296  0.5272  0.3713 -0.0458
  632MOL0     C87139   1.526   9.325   8.309  0.3973  0.3999  0.8162
  632MOL0     C87140   1.645   9.402   8.361 -0.1729  0.3381  0.1807
  632MOL0     C87141   1.622   9.540   8.422  0.2105  0.3203  0.8091
  632MOL0     C87142   1.599   9.527   8.561  0.5025 -0.1232  0.0585
  632MOL0     C87143   1.596   9.500   8.676 -0.5056 -0.1544  0.1145
  632MOL0     C87144   1.476   8.870   8.230 -0.2417  0.3824 -0.1390
  632MOL0     C87145   1.492   8.758   8.153 -0.2212 -0.0619  0.3049
  632MOL0     C87146   1.510   8.630   8.216 -0.0635  0.1850 -0.9245
  632MOL0     H87147   1.732   8.514   7.767 -2.5704  2.2702  2.6372
  632MOL0     H87148   1.788   8.359   7.575 -1.8374 -2.0098 -3.1502
  632MOL0     H87149   1.703   8.153   7.278  3.1481 -1.5553  0.2496
  632MOL0     H87150   1.726   8.170   7.443 -1.1924 -1.6471 -1.3947
  632MOL0     H87151   1.850   8.313   7.187 -0.0604  1.2171  0.0586
  632MOL0     H87152   1.882   8.380   7.356  2.5128  0.6925 -2.4910
  632MOL0     H87153   1.976   8.163   7.425  1.9175 -0.9953  0.3100
  632MOL0     H87154   1.945   8.107   7.260  1.2476  0.5633 -1.0105
  632MOL0     H87155   2.092   8.290   7.169 -1.7157 -1.3493 -0.4724
  632MOL0     H87156   2.132   8.339   7.336 -1.5718  0.1083  1.8397
  632MOL0     H87157   2.162   8.065   7.217 -3.2846  3.3413 -1.0886
  632MOL0     H87158   2.214   8.095   7.385  0.4868  1.7370  0.9722
  632MOL0     H87159   2.321   8.257   7.144 -0.7809 -1.6039 -0.5256
  632MOL0     H87160   2.387   8.267   7.309  1.2008 -0.4007  0.1591
  632MOL0     H87161   2.525   8.148   7.162 -0.6515  0.2393 -1.5306
  632MOL0     H87162   2.402   8.046   7.118  0.9546 -0.4223 -0.8873
  632MOL0     H87163   2.388   7.949   7.354  1.4264 -1.0761  1.3943
  632MOL0     H87164   2.529   7.905   7.262  1.1259  2.3560 -2.5691
  632MOL0     H87165   2.416   8.151   7.545 -1.1662  1.4684 -4.1181
  632MOL0     H87166   2.690   8.157   7.781  0.2761 -0.3342  0.4443
  632MOL0     H87167   2.523   8.227   7.761 -0.7136 -1.7681 -1.0153
  632MOL0     H87168   2.783   8.360   7.668 -0.2022  2.1037  0.4672
  632MOL0     H87169   2.626   8.410   7.616 -0.8304  0.5222  0.4002
  632MOL0     H87170   2.586   8.445   7.871 -0.5092 -1.0571 -1.2341
  632MOL0     H87171   2.743   8.353   7.889  0.0627 -1.3415 -1.6982
  632MOL0     H87172   2.768   8.622   7.923  1.6824  1.1813  0.6128
  632MOL0     H87173   2.872   8.510   7.837 -1.1918 -0.7918  0.6599
  632MOL0     H87174   2.547   8.684   7.864  1.7923 -0.1037 -0.2087
  632MOL0     H87175   2.374   8.948   7.893 -0.3060  0.7709 -0.3943
  632MOL0     H87176   2.340   8.772   7.910  4.2065  0.9859  2.6912
  632MOL0     H87177   2.254   8.863   7.793  0.8570 -0.3507  0.8869
  632MOL0     H87178   2.129   9.174   7.782 -0.8192  1.4221  0.8178
  632MOL0     H87179   2.015   9.373   7.766 -0.0017 -3.3836  0.3152
  632MOL0     H87180   2.096   9.551   7.387 -0.6861 -0.6459 -0.2659
  632MOL0     H87181   1.929   9.580   7.443  0.6540 -0.8554 -0.7950
  632MOL0     H87182   2.152   9.778   7.437 -0.1821  1.0257 -1.7436
  632MOL0     H87183   2.022   9.775   7.327  1.3696 -0.4990 -0.0297
  632MOL0     H87184   1.939   9.813   7.606 -3.9698 -0.1902 -0.5402
  632MOL0     H87185   1.872   9.879   7.457  0.0928 -0.4700  1.1839
  632MOL0     H87186   2.153   9.968   7.569 -0.2571 -0.0827 -0.2366
  632MOL0     H87187   2.000  10.035   7.620  0.1662 -0.3084  0.3206
  632MOL0     H87188   2.081  10.006   7.338  0.4626 -0.1774  0.9981
  632MOL0     H87189   1.949  10.111   7.403 -0.1788 -0.8863 -2.0493
  632MOL0     H87190   2.243  10.161   7.389  0.8498  2.3372 -1.8507
  632MOL0     H87191   2.152  10.214   7.533  0.4292 -3.1368  0.8780
  632MOL0     H87192   1.995  10.334   7.380  1.5076  1.1954  0.7114
  632MOL0     H87193   2.068  10.252   7.235 -0.4790 -1.8048  1.0788
  632MOL0     H87194   2.168  10.476   7.424 -0.1351 -1.4241  0.5289
  632MOL0     H87195   2.131  10.492   7.252 -1.3876 -0.2470  0.6815
  632MOL0     H87196   2.298   9.512   7.466 -1.8624 -0.2191  0.3827
  632MOL0     H87197   2.425   9.294   7.505  0.3957 -0.3632  0.5901
  632MOL0     H87198   2.533   8.868   7.406 -0.8195 -0.8189 -0.2987
  632MOL0     H87199   2.725   8.718   7.481  1.6880  1.2412  0.3068
  632MOL0     H87200   1.440   8.507   7.367  0.0157  0.0136  0.0899
  632MOL0     H87201   1.378   8.653   7.560  0.1018 -0.1311  1.4430
  632MOL0     H87202   1.477   8.913   7.850 -1.1437 -1.2657 -0.3076
  632MOL0     H87203   1.450   9.108   7.995  3.1651 -0.0269 -1.6419
  632MOL0     H87204   1.578   9.121   8.390  0.2413  1.0102  0.3782
  632MOL0     H87205   1.640   9.163   8.226 -1.0306 -1.0524 -1.8048
  632MOL0     H87206   1.445   9.336   8.381 -1.6431  1.4606 -1.4868
  632MOL0     H87207   1.478   9.367   8.220 -0.6858  1.0837  1.6992
  632MOL0     H87208   1.682   9.328   8.433 -0.4771  1.8807  1.9990
  632MOL0     H87209   1.722   9.414   8.284 -0.1388  0.9546  0.3094
  632MOL0     H87210   1.542   9.595   8.373  1.3475  3.6237  2.3983
  632MOL0     H87211   1.714   9.595   8.400 -0.8742  1.5722 -0.7447
  632MOL0     H87212   1.612   9.480   8.780  3.8065  2.0321  0.0668
  632MOL0     H87213   1.478   8.861   8.338  0.6663 -0.5395 -0.2101
  632MOL0     H87214   1.602   8.581   8.184 -0.2262 -1.0333  0.3763
  632MOL0     H87215   1.508   8.645   8.324 -3.8739 -1.0477 -0.6628
  632MOL0     H87216   1.429   8.559   8.197  0.9143 -0.9810 -0.8426
  633MOL0     O87217   1.121  11.194   1.756  0.0796  0.2619 -0.3531
  633MOL0     C87218   1.163  11.077   1.744 -0.9488 -0.4159  0.3227
  633MOL0     O87219   1.082  10.966   1.717  0.4422  0.8289  0.7538
  633MOL0     C87220   0.949  10.969   1.745 -0.0390 -0.4400 -0.2543
  633MOL0     C87221   0.863  10.913   1.657 -0.2083 -0.1277  0.7863
  633MOL0     C87222   0.723  10.922   1.668 -0.2257 -0.9523  0.7261
  633MOL0     C87223   0.665  10.984   1.780 -1.7266 -0.3148  0.5560
  633MOL0     O87224   0.527  10.972   1.805 -0.3196  0.0238  0.4220
  633MOL0     C87225   0.478  11.022   1.924 -0.8263 -0.6971  0.4959
  633MOL0     C87226   0.325  11.009   1.912 -0.0796  0.4640  0.2940
  633MOL0     C87227   0.257  11.072   1.795 -0.5427  0.3436 -0.3692
  633MOL0     C87228   0.109  11.052   1.809 -0.8060  0.3617 -0.0795
  633MOL0     C87229   0.021  11.124   1.706  0.2546 -0.5044  0.1435
  633MOL0     C87230  -0.127  11.098   1.703  0.7622  0.5230 -0.0946
  633MOL0     C87231  -0.190  11.129   1.571  0.5985  0.5840 -0.1871
  633MOL0     C87232  -0.177  11.276   1.524  0.2733 -0.2130  0.1168
  633MOL0     N87233  -0.237  11.368   1.622 -1.0898 -0.5455 -0.0752
  633MOL0     C87234  -0.372  11.394   1.623 -0.9123  0.0056 -0.4689
  633MOL0     C87235  -0.385  11.497   1.714 -0.7314 -0.1956  0.1144
  633MOL0     C87236  -0.505  11.566   1.751  0.0381 -0.7145 -0.3752
  633MOL0     C87237  -0.502  11.699   1.692 -0.0463 -0.0667 -0.3268
  633MOL0     C87238  -0.608  11.792   1.749 -0.9292  0.5835  0.3971
  633MOL0     C87239  -0.571  11.847   1.884 -0.2519  0.1459  0.8242
  633MOL0     O87240  -0.478  11.956   1.873 -0.8759  0.4411 -0.1790
  633MOL0     C87241  -0.425  12.005   1.991 -0.1661  0.7583  0.2626
  633MOL0     C87242  -0.354  12.124   1.978 -0.3974  0.4001  0.0817
  633MOL0     C87243  -0.295  12.196   2.079  0.7118 -0.5736  0.0954
  633MOL0     C87244  -0.216  12.322   2.043 -0.5364 -0.2006 -0.2257
  633MOL0     C87245  -0.324  12.155   2.213 -0.2022  0.1542  0.2056
  633MOL0     C87246  -0.278  12.234   2.339  1.1823  0.6576  0.3223
  633MOL0     O87247  -0.255  12.362   2.329 -0.8833 -0.0025 -0.5537
  633MOL0     C87248  -0.189  12.413   2.443 -1.0854  0.6558  0.1529
  633MOL0     C87249  -0.265  12.496   2.532  0.1947  0.0213 -0.2963
  633MOL0     C87250  -0.190  12.574   2.633 -0.1607  0.2197  0.1641
  633MOL0     C87251  -0.046  12.564   2.649  0.1162  1.0325 -0.4078
  633MOL0     O87252   0.031  12.633   2.735  0.2106  0.1722 -0.3767
  633MOL0     C87253  -0.018  12.742   2.810  0.7688  0.4017  0.1742
  633MOL0     C87254   0.094  12.797   2.890  0.0774  0.1981 -0.2146
  633MOL0     C87255   0.235  12.802   2.832  0.2072  0.3369  0.3575
  633MOL0     C87256   0.311  12.910   2.900  0.3791 -0.0340  0.3991
  633MOL0     C87257   0.450  12.923   2.842  0.3889  0.2114 -0.1942
  633MOL0     C87258   0.517  13.046   2.898 -0.3065  0.1870 -0.0820
  633MOL0     C87259   0.654  13.055   2.835  0.4299  0.0218 -0.4362
  633MOL0     C87260   0.749  13.158   2.904 -0.1850  0.0498  0.7850
  633MOL0    Cl87261   0.790  13.124   3.080 -0.0301  0.0285  0.4529
  633MOL0     C87262   0.019  12.469   2.567  0.3804 -0.4295  0.1945
  633MOL0     C87263  -0.053  12.398   2.467 -0.0677  0.0743 -0.7450
  633MOL0     O87264  -0.275  12.173   2.447  0.2752  0.3173  0.4716
  633MOL0     C87265  -0.400  12.036   2.229  0.4669 -0.4140  0.7313
  633MOL0     C87266  -0.444  11.958   2.120 -0.3335 -0.8977  0.2195
  633MOL0     N87267  -0.258  11.518   1.776 -0.4751 -0.1765  0.3655
  633MOL0     N87268  -0.167  11.450   1.708 -0.1308 -0.1924  0.6403
  633MOL0     C87269   0.752  11.040   1.872 -1.1890 -0.4995  0.3509
  633MOL0     C87270   0.895  11.038   1.856  0.4368 -0.1549 -0.4696
  633MOL0     C87271   1.317  11.060   1.765  0.7783  0.5231  0.7772
  633MOL0     C87272   1.374  10.976   1.666 -0.1032  0.3907  0.1426
  633MOL0     C87273   1.518  10.960   1.670 -0.3407  0.6576  0.5479
  633MOL0     C87274   1.595  11.020   1.770  0.9923  0.2689  0.0551
  633MOL0     O87275   1.732  10.999   1.782 -0.6049  0.6373  0.2305
  633MOL0     C87276   1.809  10.983   1.657  0.4347  0.3902  0.4654
  633MOL0     C87277   1.857  10.834   1.630  0.0277 -1.3296 -0.2714
  633MOL0     C87278   2.010  10.832   1.597 -1.0005 -0.2007 -0.2051
  633MOL0     C87279   2.042  10.698   1.535 -0.0724  0.1851  0.5504
  633MOL0     C87280   1.972  10.670   1.405  0.0604  0.0741 -0.2798
  633MOL0     C87281   1.927  10.618   1.306  0.4527  0.3360  0.7803
  633MOL0     C87282   1.531  11.103   1.860 -0.5907  0.2204 -0.2211
  633MOL0     C87283   1.390  11.127   1.862 -0.0361 -0.1751  0.2990
  633MOL0     C87284   1.338  11.203   1.979  0.6639  0.2703 -0.4663
  633MOL0     H87285   0.915  10.856   1.580  2.1725  1.7012  0.9316
  633MOL0     H87286   0.656  10.883   1.592 -1.3752  2.0566  0.0449
  633MOL0     H87287   0.509  11.125   1.944  1.5500 -1.4066  0.7525
  633MOL0     H87288   0.524  10.964   2.005 -1.0917 -0.0483  1.1193
  633MOL0     H87289   0.297  10.904   1.904  1.6798 -0.4021  3.5493
  633MOL0     H87290   0.284  11.049   2.006  1.5373  2.1402  0.3432
  633MOL0     H87291   0.285  11.176   1.777 -0.4962  0.1153 -1.6907
  633MOL0     H87292   0.286  11.015   1.707  0.0757 -2.0385  1.2668
  633MOL0     H87293   0.084  10.947   1.823 -0.1341  0.4730  2.5421
  633MOL0     H87294   0.081  11.095   1.906  5.4081  1.7188  1.5932
  633MOL0     H87295   0.054  11.078   1.612 -2.4342 -1.3751 -0.4735
  633MOL0     H87296   0.031  11.233   1.706 -1.3080 -0.3120 -1.4561
  633MOL0     H87297  -0.139  10.991   1.721 -0.7844  0.3432 -1.8294
  633MOL0     H87298  -0.178  11.156   1.781  0.1184 -1.2894  0.8816
  633MOL0     H87299  -0.295  11.101   1.584  0.1867  1.1208 -2.0295
  633MOL0     H87300  -0.138  11.064   1.500  0.5855 -2.4294  2.3781
  633MOL0     H87301  -0.072  11.295   1.497 -0.1305  0.7878 -0.8016
  633MOL0     H87302  -0.239  11.293   1.436 -2.5957 -2.4194  1.5434
  633MOL0     H87303  -0.450  11.339   1.571 -0.3396 -0.8465 -0.4497
  633MOL0     H87304  -0.498  11.584   1.859 -1.3749  2.7447 -0.7612
  633MOL0     H87305  -0.591  11.505   1.721 -0.2371  0.3737 -1.8894
  633MOL0     H87306  -0.408  11.754   1.705  0.1062 -0.2332 -0.7059
  633MOL0     H87307  -0.524  11.699   1.584 -0.4506  1.2379 -0.2723
  633MOL0     H87308  -0.635  11.875   1.683  0.1117  0.2168 -0.5093
  633MOL0     H87309  -0.698  11.730   1.760 -0.5955 -0.9035 -3.5362
  633MOL0     H87310  -0.661  11.889   1.928 -2.9076 -1.4939 -2.5073
  633MOL0     H87311  -0.532  11.762   1.942 -0.7088  0.2822  1.3369
  633MOL0     H87312  -0.346  12.161   1.876 -1.2058 -0.6872 -0.4005
  633MOL0     H87313  -0.213  12.319   1.934  1.1393 -0.8080 -0.1864
  633MOL0     H87314  -0.122  12.335   2.097 -1.9624  1.4565  2.0070
  633MOL0     H87315  -0.274  12.406   2.082 -3.2712 -2.2500  0.4597
  633MOL0     H87316  -0.371  12.513   2.519 -0.2874 -1.0216  1.8673
  633MOL0     H87317  -0.238  12.630   2.712 -0.0952 -2.4144  2.2113
  633MOL0     H87318  -0.045  12.829   2.749  0.3042  0.2218  0.1193
  633MOL0     H87319  -0.106  12.717   2.870 -0.3290 -0.0480 -1.5458
  633MOL0     H87320   0.055  12.891   2.931  0.6895  0.7483 -0.8745
  633MOL0     H87321   0.101  12.726   2.973  2.9563  0.1537 -0.3866
  633MOL0     H87322   0.236  12.812   2.723  1.9602 -0.6208  0.2446
  633MOL0     H87323   0.285  12.706   2.849 -0.5151 -0.2388 -0.6905
  633MOL0     H87324   0.304  12.906   3.009 -2.5410  3.1285  0.5127
  633MOL0     H87325   0.257  13.000   2.869 -1.4088 -2.1785 -3.4857
  633MOL0     H87326   0.501  12.830   2.869  2.0675  0.9528 -0.7065
  633MOL0     H87327   0.458  12.913   2.733 -0.4665 -1.0389 -0.1702
  633MOL0     H87328   0.520  13.036   3.007  2.0944 -1.3877 -0.2028
  633MOL0     H87329   0.458  13.137   2.887 -1.2884 -0.2335  1.4084
  633MOL0     H87330   0.641  13.081   2.730  0.9735  0.0793 -0.4918
  633MOL0     H87331   0.696  12.954   2.841  2.2480  0.6911 -1.2914
  633MOL0     H87332   0.706  13.258   2.897 -0.6630 -0.2854 -3.7051
  633MOL0     H87333   0.846  13.159   2.852 -0.2070  1.3344  0.7370
  633MOL0     H87334   0.126  12.455   2.575  0.9473  3.0763  0.5528
  633MOL0     H87335   0.011  12.341   2.400  3.2137  2.1548  0.3613
  633MOL0     H87336  -0.412  11.995   2.329 -0.5822  0.8107  1.1323
  633MOL0     H87337  -0.507  11.870   2.130  0.3999 -1.3614  0.8618
  633MOL0     H87338   0.715  11.072   1.969  1.1882 -0.7901  1.4301
  633MOL0     H87339   0.961  11.084   1.929  0.5224  1.2171 -1.3725
  633MOL0     H87340   1.318  10.928   1.586 -0.5153  3.2270 -1.3896
  633MOL0     H87341   1.569  10.901   1.595 -4.0439 -2.1800 -0.0007
  633MOL0     H87342   1.749  11.028   1.578  0.2326  1.0106  0.9590
  633MOL0     H87343   1.903  11.039   1.657  2.1828 -2.3398  0.1683
  633MOL0     H87344   1.795  10.793   1.550 -0.3968 -1.8077  0.2969
  633MOL0     H87345   1.841  10.782   1.725 -2.3168 -1.2790 -0.5936
  633MOL0     H87346   2.038  10.908   1.523  2.9496 -1.8697 -0.6286
  633MOL0     H87347   2.069  10.846   1.687 -1.0723 -0.3526 -0.1337
  633MOL0     H87348   2.018  10.618   1.607 -1.3419  1.1377  1.2325
  633MOL0     H87349   2.145  10.701   1.501  0.1064 -0.9218  0.9464
  633MOL0     H87350   1.882  10.580   1.217 -1.2063  2.4701  0.6206
  633MOL0     H87351   1.593  11.163   1.926  0.3262  1.2968 -1.9849
  633MOL0     H87352   1.328  11.309   1.957  1.3098  0.4844  0.1932
  633MOL0     H87353   1.241  11.164   2.010  1.5624 -3.3585 -1.7214
  633MOL0     H87354   1.396  11.209   2.072 -1.9573 -0.3301  1.3003
  634MOL0     O87355  10.208   6.761   5.497 -0.0259  0.6476 -0.5324
  634MOL0     C87356  10.252   6.652   5.505  0.7884  0.5731  0.0810
  634MOL0     O87357  10.373   6.621   5.554 -0.4196  0.2140 -0.4723
  634MOL0     C87358  10.455   6.725   5.589  0.0323  0.1931  0.2369
  634MOL0     C87359  10.468   6.764   5.723  0.5263  0.0566  1.0327
  634MOL0     C87360  10.553   6.870   5.756 -0.0287  0.1453  0.1072
  634MOL0     C87361  10.625   6.939   5.658 -0.0826 -0.9960 -0.1004
  634MOL0     O87362  10.709   7.043   5.676  0.2648 -0.2412 -0.0956
  634MOL0     C87363  10.776   7.061   5.798 -0.1844 -0.0131 -0.1492
  634MOL0     C87364  10.896   7.156   5.777  0.2653 -0.5691  0.0249
  634MOL0     C87365  11.008   7.144   5.887  0.2427 -0.5668 -0.7988
  634MOL0     C87366  11.106   7.022   5.882 -0.7053  0.1506  0.0025
  634MOL0     C87367  11.224   7.051   5.983  0.0745 -0.2285  0.4078
  634MOL0     C87368  11.316   7.169   5.943 -0.0107 -0.1423 -0.7326
  634MOL0     C87369  11.459   7.155   6.006 -0.1323 -0.0241  0.2661
  634MOL0     C87370  11.461   7.162   6.157  0.0514 -0.0753 -1.0403
  634MOL0     N87371  11.599   7.144   6.200  0.2897 -0.3843  0.3453
  634MOL0     C87372  11.637   7.039   6.276 -0.1648 -0.0056  0.8205
  634MOL0     C87373  11.756   7.072   6.316 -0.2819  0.1806 -0.6244
  634MOL0     C87374  11.819   6.985   6.422  0.5784  0.1075  0.2214
  634MOL0     C87375  11.962   6.946   6.402 -0.1266  0.2155  0.3248
  634MOL0     C87376  12.058   7.063   6.428  0.3046 -0.7251 -0.3888
  634MOL0     C87377  12.204   7.026   6.401  0.0912  0.3581 -1.6128
  634MOL0     O87378  12.289   7.141   6.405  0.4598 -0.1236  0.3608
  634MOL0     C87379  12.427   7.122   6.383  1.1499 -0.3398  0.4336
  634MOL0     C87380  12.490   7.017   6.319  0.0449  0.4962 -0.4243
  634MOL0     C87381  12.622   7.000   6.299 -0.7917 -0.9420 -0.2082
  634MOL0     C87382  12.668   6.856   6.258 -0.1612  0.3407  0.5212
  634MOL0     C87383  12.709   7.110   6.341 -1.1147 -0.2799  0.2989
  634MOL0     C87384  12.860   7.097   6.323  0.1331 -0.6426 -0.6933
  634MOL0     O87385  12.921   7.214   6.337  0.3309 -0.2250  0.9800
  634MOL0     C87386  13.051   7.247   6.311 -1.1340  0.1180 -0.7492
  634MOL0     C87387  13.085   7.380   6.330 -0.4947 -0.0018  0.9229
  634MOL0     C87388  13.210   7.429   6.294  0.0682  0.1851 -0.7513
  634MOL0     C87389  13.312   7.348   6.243  0.2203 -0.2348  0.9112
  634MOL0     O87390  13.443   7.386   6.214  0.7826  0.0451  0.6226
  634MOL0     C87391  13.490   7.490   6.308 -0.4006 -0.4232 -0.0719
  634MOL0     C87392  13.646   7.490   6.308 -0.4657  0.1967 -0.0409
  634MOL0     C87393  13.704   7.588   6.417  0.8035 -0.0944 -0.6313
  634MOL0     C87394  13.859   7.573   6.420 -1.0513  0.3940 -0.3639
  634MOL0     C87395  13.929   7.602   6.296 -0.3312 -0.5453 -1.0183
  634MOL0     C87396  13.885   7.736   6.233  0.6059  0.0282 -0.4594
  634MOL0     C87397  13.993   7.801   6.152  0.0156  1.2472  0.4791
  634MOL0     C87398  13.949   7.944   6.109  0.4994  0.8428  0.8279
  634MOL0    Cl87399  14.064   7.987   5.985  0.5801  0.3880 -0.1131
  634MOL0     C87400  13.278   7.213   6.237  0.2668 -0.2606 -0.4349
  634MOL0     C87401  13.149   7.159   6.270  0.0898  0.4972 -0.2259
  634MOL0     O87402  12.912   6.986   6.312  0.0621 -0.1629 -0.3795
  634MOL0     C87403  12.647   7.221   6.406  0.4969 -0.7980  0.8180
  634MOL0     C87404  12.506   7.228   6.416  0.0790 -0.4938 -0.0986
  634MOL0     N87405  11.798   7.185   6.260  0.0752 -0.4920 -0.2016
  634MOL0     N87406  11.695   7.234   6.199 -0.2861  0.3834  0.5513
  634MOL0     C87407  10.619   6.892   5.531 -0.0127  0.4844  0.0416
  634MOL0     C87408  10.530   6.795   5.495 -0.5402  0.1511  0.4669
  634MOL0     C87409  10.159   6.548   5.456 -0.3848  0.5194  0.9788
  634MOL0     C87410  10.022   6.549   5.474  0.0788  0.4135 -0.0709
  634MOL0     C87411   9.935   6.436   5.449 -0.9149 -0.7697  0.6518
  634MOL0     C87412   9.983   6.326   5.380 -0.0246 -0.0533 -0.1210
  634MOL0     O87413   9.914   6.216   5.339  0.2210  1.2138 -0.2972
  634MOL0     C87414   9.770   6.216   5.357  0.9222  0.3491 -0.3386
  634MOL0     C87415   9.708   6.098   5.290 -0.3909  0.1297  0.1397
  634MOL0     C87416   9.667   6.139   5.149  0.4263  0.6190 -0.2802
  634MOL0     C87417   9.781   6.147   5.054 -0.9459  0.4464 -0.4998
  634MOL0     C87418   9.738   6.189   4.920 -0.0417  0.4949  0.4429
  634MOL0     C87419   9.726   6.237   4.812  0.2354  0.0228 -0.1262
  634MOL0     C87420  10.122   6.324   5.340  0.8893  0.2741 -0.0265
  634MOL0     C87421  10.209   6.425   5.388  0.1180 -0.1496  0.0385
  634MOL0     C87422  10.352   6.411   5.339 -0.1153  0.8333  0.1082
  634MOL0     H87423  10.414   6.711   5.801  2.7361 -1.5089  1.6021
  634MOL0     H87424  10.560   6.904   5.859 -2.0934  0.3475  0.2213
  634MOL0     H87425  10.827   6.974   5.840 -1.3977  0.5109  2.6371
  634MOL0     H87426  10.710   7.110   5.870  0.5530  0.8873 -0.0755
  634MOL0     H87427  10.939   7.132   5.679 -0.7144 -0.9422 -0.3240
  634MOL0     H87428  10.859   7.259   5.774 -0.5519 -0.8478  0.4043
  634MOL0     H87429  11.066   7.236   5.898 -3.5046  1.8090  1.1511
  634MOL0     H87430  10.966   7.126   5.987  2.4125  1.6751  0.6488
  634MOL0     H87431  11.061   6.934   5.928  2.1919 -1.8238 -0.6640
  634MOL0     H87432  11.143   6.999   5.781 -2.3072 -0.1497 -0.5372
  634MOL0     H87433  11.276   6.957   6.005 -0.3414 -0.4434  0.4845
  634MOL0     H87434  11.174   7.086   6.074 -1.5874  1.0526 -0.9316
  634MOL0     H87435  11.312   7.170   5.834  0.2627  0.2004 -0.7414
  634MOL0     H87436  11.262   7.262   5.966 -2.1163 -1.4300 -0.1832
  634MOL0     H87437  11.527   7.229   5.962  0.4678 -1.1745 -0.7956
  634MOL0     H87438  11.493   7.056   5.973 -2.2900 -1.0691  1.0263
  634MOL0     H87439  11.424   7.259   6.192 -0.4439 -0.8883  0.8361
  634MOL0     H87440  11.393   7.093   6.209  0.7853  0.9593  1.4804
  634MOL0     H87441  11.580   6.947   6.288 -0.2060 -0.6209 -2.9143
  634MOL0     H87442  11.759   6.894   6.411 -1.5607  1.2870  1.4493
  634MOL0     H87443  11.816   7.024   6.524  1.4883 -0.3155  0.4199
  634MOL0     H87444  11.998   6.866   6.468 -0.5137  0.1072  0.4077
  634MOL0     H87445  11.967   6.902   6.302 -2.8296  1.9389 -0.6827
  634MOL0     H87446  12.039   7.156   6.374 -1.0855 -0.2385  0.8418
  634MOL0     H87447  12.052   7.075   6.537 -1.4716  1.6013 -0.6588
  634MOL0     H87448  12.241   6.951   6.472 -0.2066  2.6933  1.2191
  634MOL0     H87449  12.212   6.990   6.298  2.0480 -2.2761 -0.6569
  634MOL0     H87450  12.421   6.937   6.293 -0.4203  0.0339  1.9569
  634MOL0     H87451  12.713   6.810   6.347 -2.1199 -0.1292  1.3241
  634MOL0     H87452  12.725   6.875   6.167 -2.4467  0.4161 -0.9670
  634MOL0     H87453  12.589   6.791   6.219 -0.8504  1.2672  0.3199
  634MOL0     H87454  13.013   7.451   6.371 -1.3831  0.4146 -1.2337
  634MOL0     H87455  13.222   7.536   6.306  0.1632  0.0618  0.3582
  634MOL0     H87456  13.458   7.586   6.266 -2.0053 -0.9753 -0.1919
  634MOL0     H87457  13.444   7.475   6.407 -2.2020 -1.8606 -1.0698
  634MOL0     H87458  13.682   7.388   6.326 -1.0118 -0.3866 -1.9911
  634MOL0     H87459  13.673   7.518   6.206 -0.8221  1.2084  0.1297
  634MOL0     H87460  13.670   7.554   6.515  0.2936 -0.0873 -0.8025
  634MOL0     H87461  13.681   7.694   6.402  0.0120 -0.2630 -0.6524
  634MOL0     H87462  13.885   7.469   6.443  2.1351  0.6196 -2.3815
  634MOL0     H87463  13.888   7.645   6.497  0.7764  1.5343 -2.0174
  634MOL0     H87464  14.036   7.610   6.320 -0.8430 -0.9312  1.7200
  634MOL0     H87465  13.917   7.517   6.229  0.5822 -0.4303 -1.3438
  634MOL0     H87466  13.852   7.804   6.312  0.8418  0.6174 -0.8709
  634MOL0     H87467  13.808   7.718   6.157  3.0977  1.7647 -3.6076
  634MOL0     H87468  14.003   7.740   6.061  0.1688  0.2930  1.1247
  634MOL0     H87469  14.093   7.804   6.196  0.2374  0.1831  0.0924
  634MOL0     H87470  13.956   8.015   6.192 -1.1030  0.6763  1.1402
  634MOL0     H87471  13.852   7.944   6.060 -0.8880 -3.6655  3.0021
  634MOL0     H87472  13.354   7.145   6.199  3.2468  2.5825 -0.0611
  634MOL0     H87473  13.125   7.053   6.263  0.3941  0.3689  0.6049
  634MOL0     H87474  12.719   7.300   6.426  1.2068 -1.1359 -0.3103
  634MOL0     H87475  12.460   7.315   6.463 -0.2903 -0.7342 -0.0114
  634MOL0     H87476  10.686   6.946   5.465  1.8812  2.5357  3.3356
  634MOL0     H87477  10.518   6.765   5.392 -2.6122 -1.3845  1.0991
  634MOL0     H87478   9.991   6.633   5.536  0.5186  1.1504 -0.8262
  634MOL0     H87479   9.833   6.452   5.484 -1.9192  0.5448 -2.5346
  634MOL0     H87480   9.746   6.209   5.464 -0.7277  1.3968 -0.6100
  634MOL0     H87481   9.731   6.312   5.325  1.9688  0.5491 -1.0641
  634MOL0     H87482   9.633   6.047   5.350  2.2598 -0.2153  3.4696
  634MOL0     H87483   9.785   6.022   5.272 -1.2816 -0.4770 -1.2411
  634MOL0     H87484   9.604   6.059   5.108 -1.2526  0.5184  2.2585
  634MOL0     H87485   9.594   6.221   5.146 -2.4898 -1.8280 -1.3375
  634MOL0     H87486   9.828   6.049   5.048 -2.2400 -0.2077 -0.2451
  634MOL0     H87487   9.860   6.211   5.093 -0.0567 -1.3938  0.8234
  634MOL0     H87488   9.700   6.289   4.722  0.2881 -0.9250 -0.6934
  634MOL0     H87489  10.148   6.240   5.276  2.6449  0.5709  0.2433
  634MOL0     H87490  10.362   6.330   5.267 -1.1874 -0.5213  1.4299
  634MOL0     H87491  10.386   6.505   5.294 -2.6595  1.0995 -1.4693
  634MOL0     H87492  10.415   6.403   5.428  0.6594 -0.7402 -0.5411
  635MOL0     O87493   9.144   7.639   7.035  0.0740 -0.4547  0.4389
  635MOL0     C87494   9.143   7.743   7.106  1.0373  0.4171 -0.2148
  635MOL0     O87495   9.238   7.834   7.121 -0.4024  0.1611 -0.4070
  635MOL0     C87496   9.347   7.835   7.046 -0.2441  0.2555  0.0765
  635MOL0     C87497   9.468   7.859   7.115  0.3889  0.1097 -0.3132
  635MOL0     C87498   9.587   7.853   7.047 -0.3667  0.1716  0.1088
  635MOL0     C87499   9.590   7.827   6.906  0.6944  0.6771 -0.2080
  635MOL0     O87500   9.704   7.829   6.841 -0.3286 -0.8863 -0.1392
  635MOL0     C87501   9.798   7.730   6.892  0.1393  0.2983 -0.2596
  635MOL0     C87502   9.932   7.803   6.886  0.4970  0.7325  0.1541
  635MOL0     C87503  10.048   7.709   6.909 -0.0226 -0.2673  0.2182
  635MOL0     C87504  10.067   7.701   7.064  0.7511  0.1956  0.1992
  635MOL0     C87505  10.203   7.626   7.090  0.0557  0.1393  0.8699
  635MOL0     C87506  10.220   7.612   7.235 -0.2587  1.1020  0.2526
  635MOL0     C87507  10.342   7.536   7.267 -0.0250  0.5444 -1.2521
  635MOL0     C87508  10.367   7.534   7.419 -0.4940  0.3490  0.8351
  635MOL0     N87509  10.324   7.412   7.489  0.4624  0.2392 -0.6868
  635MOL0     C87510  10.193   7.383   7.506 -0.0145  0.5023 -0.0398
  635MOL0     C87511  10.191   7.266   7.576 -0.8787 -0.1526  0.4097
  635MOL0     C87512  10.063   7.189   7.618 -0.1651 -0.4518 -0.1671
  635MOL0     C87513   9.964   7.274   7.695  0.3401  0.0052 -0.0782
  635MOL0     C87514  10.026   7.313   7.830  1.1851  0.2440  0.2541
  635MOL0     C87515  10.077   7.193   7.904  0.1056 -0.3520 -0.7455
  635MOL0     O87516  10.097   7.214   8.046  0.3081 -0.0356  0.5685
  635MOL0     C87517  10.233   7.249   8.073  0.6964  0.4020 -0.8483
  635MOL0     C87518  10.258   7.256   8.216  0.2303 -0.1994  0.7607
  635MOL0     C87519  10.385   7.287   8.265  0.2444 -1.1204 -0.0430
  635MOL0     C87520  10.405   7.281   8.411  0.3103  0.6100 -0.9656
  635MOL0     C87521  10.492   7.315   8.177  0.0339 -0.0830 -0.2042
  635MOL0     C87522  10.640   7.340   8.216  0.8735  0.1293 -0.6354
  635MOL0     O87523  10.725   7.402   8.124 -0.1778 -0.4301 -0.1640
  635MOL0     C87524  10.855   7.420   8.148 -1.2397  0.4876 -0.0522
  635MOL0     C87525  10.933   7.313   8.192 -0.2253 -1.1710 -0.1552
  635MOL0     C87526  11.075   7.333   8.218  0.0736 -0.4423  0.2824
  635MOL0     C87527  11.137   7.449   8.168  0.2099 -1.0909  0.2983
  635MOL0     O87528  11.270   7.464   8.149 -0.3162 -0.3229  0.7745
  635MOL0     C87529  11.339   7.347   8.085  0.2081  1.3824 -0.0201
  635MOL0     C87530  11.318   7.351   7.936 -0.1065 -0.2557 -1.2221
  635MOL0     C87531  11.375   7.221   7.868  0.6527 -0.8870 -0.4442
  635MOL0     C87532  11.364   7.223   7.715 -0.3288  0.1572  0.0049
  635MOL0     C87533  11.434   7.104   7.656  0.3546 -0.5326 -0.0952
  635MOL0     C87534  11.436   7.131   7.506 -0.6216 -0.2169  0.0533
  635MOL0     C87535  11.300   7.153   7.433  0.4440  0.1431  0.0567
  635MOL0     C87536  11.310   7.100   7.289 -0.2082 -0.8602 -0.1117
  635MOL0    Cl87537  11.449   7.184   7.211 -0.2540 -0.4057  0.1256
  635MOL0     C87538  11.060   7.549   8.110  0.2817  0.5869  0.2984
  635MOL0     C87539  10.917   7.539   8.106  0.0108 -0.1921  0.4737
  635MOL0     O87540  10.676   7.305   8.330 -0.2945  0.4782  0.3193
  635MOL0     C87541  10.468   7.309   8.038  1.0583  0.1231  0.1861
  635MOL0     C87542  10.342   7.286   7.986 -0.1699 -0.5357  0.4516
  635MOL0     N87543  10.324   7.220   7.573  0.1092  0.7808  0.2604
  635MOL0     N87544  10.400   7.311   7.525 -0.3736  0.5251  0.5862
  635MOL0     C87545   9.464   7.809   6.838  0.4570  0.2349 -0.8533
  635MOL0     C87546   9.345   7.811   6.910 -0.2900 -0.5693  0.4008
  635MOL0     C87547   9.021   7.769   7.187  0.0906  0.8139 -0.0384
  635MOL0     C87548   8.975   7.665   7.261 -0.1985  0.4457 -0.1126
  635MOL0     C87549   8.869   7.678   7.348 -0.6891  0.1832 -0.4466
  635MOL0     C87550   8.811   7.805   7.353  0.1949 -0.5707 -0.2983
  635MOL0     O87551   8.701   7.826   7.427 -1.1757  1.2629 -0.6198
  635MOL0     C87552   8.579   7.765   7.380 -0.0316  1.0048 -0.0790
  635MOL0     C87553   8.465   7.828   7.461  0.2548  0.7187  0.6320
  635MOL0     C87554   8.475   7.980   7.467 -0.1478 -0.1729 -0.4519
  635MOL0     C87555   8.557   8.046   7.570  0.1588  0.8773  0.0763
  635MOL0     C87556   8.499   8.025   7.703  0.6431 -0.6841  0.1781
  635MOL0     C87557   8.459   8.012   7.818  0.0488 -0.2905  0.2298
  635MOL0     C87558   8.854   7.910   7.271  0.0202  0.6461 -0.1936
  635MOL0     C87559   8.956   7.890   7.181  0.2598 -0.2105 -0.3762
  635MOL0     C87560   8.994   8.009   7.094  0.2676 -0.5126  0.0824
  635MOL0     H87561   9.470   7.877   7.222 -0.6895 -0.8578 -0.1108
  635MOL0     H87562   9.674   7.880   7.105 -2.2979  1.5447  2.5948
  635MOL0     H87563   9.785   7.634   6.841  0.8538  0.1034 -0.0770
  635MOL0     H87564   9.786   7.708   6.998 -0.8773  1.0183 -0.2068
  635MOL0     H87565   9.949   7.842   6.785  1.7507 -0.9119 -0.3173
  635MOL0     H87566   9.932   7.889   6.954 -0.5081  3.3966 -2.9343
  635MOL0     H87567  10.028   7.610   6.868 -2.0508  0.6941 -1.3335
  635MOL0     H87568  10.139   7.750   6.864  0.5121 -0.7778  0.8252
  635MOL0     H87569  10.084   7.803   7.100 -0.8113  0.7757 -0.6370
  635MOL0     H87570   9.982   7.656   7.115 -0.2343 -0.4392 -1.9063
  635MOL0     H87571  10.276   7.695   7.047 -1.4802  1.3426  0.0552
  635MOL0     H87572  10.204   7.528   7.040 -0.6677  0.4108  0.3004
  635MOL0     H87573  10.235   7.713   7.274 -1.4651  1.1900  0.5243
  635MOL0     H87574  10.130   7.570   7.282 -0.6506  1.1533 -0.4416
  635MOL0     H87575  10.424   7.597   7.227  0.4417  1.4813  0.9359
  635MOL0     H87576  10.340   7.434   7.228 -1.9150  0.4584 -1.0008
  635MOL0     H87577  10.470   7.565   7.440 -0.3793  1.1701 -0.8300
  635MOL0     H87578  10.306   7.609   7.471 -0.6138 -0.6348  2.1776
  635MOL0     H87579  10.101   7.433   7.477 -0.3398 -1.4927 -2.9056
  635MOL0     H87580  10.087   7.099   7.675 -0.3312 -0.7254 -0.5255
  635MOL0     H87581  10.012   7.151   7.529 -2.7075 -0.6283  1.2653
  635MOL0     H87582   9.932   7.363   7.640 -1.4624 -2.3185 -3.0755
  635MOL0     H87583   9.879   7.208   7.712  2.5307 -2.7383  0.9109
  635MOL0     H87584  10.104   7.389   7.820 -1.2568  2.7845 -0.8927
  635MOL0     H87585   9.946   7.363   7.885  2.4472  2.9202 -0.1550
  635MOL0     H87586  10.001   7.116   7.893 -0.3870 -0.0328  0.2861
  635MOL0     H87587  10.168   7.156   7.855  1.5138 -0.3274  1.7096
  635MOL0     H87588  10.170   7.230   8.274  0.4200 -1.3491  0.5506
  635MOL0     H87589  10.467   7.359   8.456  0.2602 -1.1847  2.4867
  635MOL0     H87590  10.448   7.183   8.431 -1.0016  0.2664  0.2998
  635MOL0     H87591  10.310   7.283   8.465  1.5220  1.8793  1.2477
  635MOL0     H87592  10.896   7.217   8.226 -1.5014 -0.8994 -0.7106
  635MOL0     H87593  11.137   7.258   8.267  1.5034 -0.3041 -1.2240
  635MOL0     H87594  11.446   7.351   8.108 -0.1563 -0.2949  2.3395
  635MOL0     H87595  11.305   7.252   8.129 -0.2972  1.7348  0.3568
  635MOL0     H87596  11.213   7.367   7.909  0.4841 -1.4328 -4.8431
  635MOL0     H87597  11.376   7.433   7.894  0.6195 -0.5850 -0.8686
  635MOL0     H87598  11.319   7.137   7.910  0.6188  0.3630  2.2666
  635MOL0     H87599  11.481   7.205   7.887 -0.2297 -4.6602  2.4510
  635MOL0     H87600  11.419   7.309   7.676  1.7506 -0.6692  0.9664
  635MOL0     H87601  11.260   7.222   7.680 -0.3451 -0.7705  0.0573
  635MOL0     H87602  11.532   7.084   7.702 -0.1870 -1.2114  0.8024
  635MOL0     H87603  11.375   7.013   7.670 -0.4552 -0.1272 -0.7741
  635MOL0     H87604  11.487   7.040   7.475  1.6739  1.2807 -0.8145
  635MOL0     H87605  11.505   7.214   7.491 -1.1083 -0.0206 -1.1778
  635MOL0     H87606  11.266   7.257   7.443  0.0495 -0.1161  1.8206
  635MOL0     H87607  11.221   7.102   7.489  0.7082  2.0804  2.4111
  635MOL0     H87608  11.226   7.113   7.220  1.4117  0.9346 -1.8921
  635MOL0     H87609  11.327   6.993   7.298 -2.2443 -1.6038 -3.5001
  635MOL0     H87610  11.094   7.643   8.068 -2.4678  1.9448  0.8408
  635MOL0     H87611  10.851   7.612   8.061  1.8102  0.3416 -1.4693
  635MOL0     H87612  10.544   7.325   7.962  0.7720 -2.7780 -0.8217
  635MOL0     H87613  10.336   7.280   7.878  1.8195  3.0191 -0.0043
  635MOL0     H87614   9.459   7.798   6.730  1.3573  0.5929 -0.9421
  635MOL0     H87615   9.247   7.814   6.863  0.0647  1.1107 -0.3111
  635MOL0     H87616   9.032   7.573   7.260  0.2043  0.6105 -3.7408
  635MOL0     H87617   8.842   7.598   7.415  0.6575  0.8969  1.0133
  635MOL0     H87618   8.573   7.786   7.273 -0.5177 -1.7274 -0.6528
  635MOL0     H87619   8.579   7.656   7.386 -0.9633  1.0203  0.2830
  635MOL0     H87620   8.453   7.783   7.560  3.1664  1.2589  1.3149
  635MOL0     H87621   8.381   7.804   7.395  0.9499 -2.3603  0.7011
  635MOL0     H87622   8.518   8.012   7.372  0.2897 -0.5080 -0.3716
  635MOL0     H87623   8.375   8.022   7.478 -0.7170 -1.5119 -0.3481
  635MOL0     H87624   8.553   8.154   7.555 -1.7046  0.8806  0.4566
  635MOL0     H87625   8.664   8.023   7.572  0.3258  1.6281  1.5143
  635MOL0     H87626   8.408   8.007   7.913 -0.0026 -2.1956  0.1418
  635MOL0     H87627   8.804   8.007   7.270 -0.0831  0.5880 -0.5928
  635MOL0     H87628   8.903   8.033   7.038 -0.6088 -1.7608  0.9184
  635MOL0     H87629   9.027   8.098   7.149 -0.2327 -0.1014 -0.2650
  635MOL0     H87630   9.067   7.993   7.014 -1.4789  4.1163 -2.8835
  636MOL0     O87631   4.836   2.233   6.166 -0.1568  0.8137  0.2228
  636MOL0     C87632   4.954   2.219   6.201  0.2498  0.2999  0.0093
  636MOL0     O87633   5.019   2.102   6.225  1.1353 -0.8366  0.1239
  636MOL0     C87634   4.955   1.984   6.218 -0.2566 -0.1050 -0.0343
  636MOL0     C87635   4.844   1.951   6.304 -0.0357  0.1252  0.3446
  636MOL0     C87636   4.772   1.836   6.273 -0.9590  0.6344  0.1459
  636MOL0     C87637   4.813   1.741   6.183 -0.0655  0.4460  0.3058
  636MOL0     O87638   4.742   1.627   6.153  0.3023  0.1911  0.2439
  636MOL0     C87639   4.643   1.583   6.247 -0.0698  0.2810  0.8545
  636MOL0     C87640   4.571   1.466   6.187 -0.9054  0.1161 -0.0701
  636MOL0     C87641   4.475   1.396   6.281  0.7958  0.3995 -0.9258
  636MOL0     C87642   4.399   1.476   6.392 -0.1612 -0.0638  0.0260
  636MOL0     C87643   4.287   1.384   6.453 -0.4279  0.3892  0.5043
  636MOL0     C87644   4.197   1.451   6.566  0.3299  0.0771  0.0596
  636MOL0     C87645   4.078   1.372   6.591  0.5483  0.0349  0.9769
  636MOL0     C87646   3.955   1.463   6.638 -0.1439 -0.3377  0.0334
  636MOL0     N87647   3.958   1.464   6.783 -0.0561  0.5005  0.4160
  636MOL0     C87648   3.878   1.389   6.861 -0.0499 -0.1231 -0.1055
  636MOL0     C87649   3.912   1.413   6.988 -0.5411 -0.6127 -0.0035
  636MOL0     C87650   3.866   1.337   7.106  0.0697 -0.9586 -0.0252
  636MOL0     C87651   3.710   1.324   7.118 -0.3146 -0.4700 -0.0115
  636MOL0     C87652   3.644   1.459   7.149  0.0989 -0.1446  0.5877
  636MOL0     C87653   3.495   1.457   7.165 -0.4240 -0.0094 -0.4670
  636MOL0     O87654   3.458   1.596   7.200 -0.3290  0.1813  0.4028
  636MOL0     C87655   3.328   1.626   7.233 -0.5386  0.2570  0.8508
  636MOL0     C87656   3.218   1.536   7.196 -0.3143  0.0076  0.5845
  636MOL0     C87657   3.079   1.578   7.222 -0.5099 -0.3776  0.2285
  636MOL0     C87658   2.957   1.498   7.158  0.6477 -0.0364 -1.2727
  636MOL0     C87659   3.055   1.694   7.304 -0.0426  1.0206 -0.8095
  636MOL0     C87660   2.927   1.715   7.364 -0.4806  0.2529 -0.3648
  636MOL0     O87661   2.898   1.839   7.404  0.0934  0.6564  0.0098
  636MOL0     C87662   2.761   1.865   7.392 -0.0020  0.3975  0.5937
  636MOL0     C87663   2.695   1.920   7.509 -0.2782 -0.0950 -0.0498
  636MOL0     C87664   2.561   1.954   7.500  0.8420 -0.5511 -0.6685
  636MOL0     C87665   2.486   1.936   7.382  0.2419  0.9704 -0.9871
  636MOL0     O87666   2.348   1.978   7.383 -0.6288  0.1747 -0.7618
  636MOL0     C87667   2.248   1.904   7.307 -0.1314  0.5286 -0.3336
  636MOL0     C87668   2.111   1.939   7.370 -0.9323 -0.4935 -0.1061
  636MOL0     C87669   2.112   1.927   7.533 -0.3287 -0.4774 -0.0472
  636MOL0     C87670   2.141   1.787   7.591 -0.7579 -0.1963  0.3903
  636MOL0     C87671   2.129   1.784   7.739 -0.2610 -0.2730  0.4331
  636MOL0     C87672   2.219   1.680   7.797  0.0377  0.0078  0.5692
  636MOL0     C87673   2.191   1.656   7.943 -0.1801 -0.6218 -0.4973
  636MOL0     C87674   2.245   1.757   8.045  1.0053  1.0872  0.2266
  636MOL0    Cl87675   2.336   1.668   8.172  0.1840  0.3369 -0.2745
  636MOL0     C87676   2.556   1.893   7.269 -0.1756  0.4856 -0.1695
  636MOL0     C87677   2.688   1.862   7.276  0.2554  0.5365  0.3049
  636MOL0     O87678   2.844   1.622   7.373  0.2350 -0.1107  0.2844
  636MOL0     C87679   3.162   1.775   7.337 -0.2924 -0.5839 -0.8613
  636MOL0     C87680   3.291   1.745   7.303 -0.2269  0.6817  0.6079
  636MOL0     N87681   4.024   1.491   6.986 -0.4124 -0.6155 -0.3264
  636MOL0     N87682   4.042   1.526   6.863 -0.9762 -0.7674 -0.4228
  636MOL0     C87683   4.933   1.772   6.117 -0.3739  0.0170  0.0754
  636MOL0     C87684   5.002   1.892   6.126  0.1107 -0.4833  0.3983
  636MOL0     C87685   5.035   2.331   6.225  0.4634 -0.4934  0.7565
  636MOL0     C87686   5.085   2.360   6.356  0.1544  0.4210 -0.3183
  636MOL0     C87687   5.185   2.456   6.380  1.1695 -0.9811  0.6312
  636MOL0     C87688   5.215   2.554   6.285 -0.8934  0.7232 -0.7464
  636MOL0     O87689   5.312   2.646   6.317  0.3205  0.3490 -0.3293
  636MOL0     C87690   5.377   2.742   6.230  0.4082 -0.7661 -0.3636
  636MOL0     C87691   5.472   2.831   6.324  1.0015  0.5063  0.2780
  636MOL0     C87692   5.607   2.776   6.350  0.1270 -0.0684 -0.2929
  636MOL0     C87693   5.611   2.671   6.468  0.3467 -0.1906 -0.5514
  636MOL0     C87694   5.741   2.675   6.530 -0.8713  0.0100 -0.1529
  636MOL0     C87695   5.849   2.703   6.583 -1.4498  0.3888  0.0629
  636MOL0     C87696   5.159   2.536   6.156  0.1784 -0.1451 -0.1642
  636MOL0     C87697   5.070   2.429   6.126  1.0534 -0.4941 -0.1410
  636MOL0     C87698   5.031   2.406   5.978  0.3668 -0.6179  0.1023
  636MOL0     H87699   4.812   2.031   6.370 -0.7639  0.9315 -0.9363
  636MOL0     H87700   4.682   1.819   6.330 -0.7964 -0.6460  0.0478
  636MOL0     H87701   4.575   1.665   6.271  0.0198  0.2616  1.1878
  636MOL0     H87702   4.685   1.554   6.344  2.2097  1.9917  0.4952
  636MOL0     H87703   4.510   1.498   6.102 -1.4730 -2.8962 -0.9192
  636MOL0     H87704   4.644   1.392   6.154  0.9962  0.7551  2.3984
  636MOL0     H87705   4.396   1.350   6.220 -0.1038 -1.5235  1.5035
  636MOL0     H87706   4.533   1.315   6.328 -1.7575 -0.5004  0.9032
  636MOL0     H87707   4.465   1.517   6.469 -0.2178  1.4354 -0.6980
  636MOL0     H87708   4.352   1.560   6.340 -0.2419 -0.6730 -0.9216
  636MOL0     H87709   4.321   1.295   6.507  1.3754  0.7326  0.0021
  636MOL0     H87710   4.229   1.349   6.367  0.2938  1.3743 -0.4089
  636MOL0     H87711   4.252   1.472   6.658 -1.1342 -0.4814  1.0977
  636MOL0     H87712   4.181   1.552   6.528 -1.3379 -0.2068 -0.0707
  636MOL0     H87713   4.101   1.281   6.648 -2.8396 -1.6594 -0.0803
  636MOL0     H87714   4.046   1.329   6.496  0.7976  1.7347  0.0819
  636MOL0     H87715   3.965   1.565   6.601  0.1544  0.5366  2.3551
  636MOL0     H87716   3.862   1.424   6.596 -1.1130 -1.2229  2.7686
  636MOL0     H87717   3.799   1.335   6.811 -0.5494  2.3071 -2.0846
  636MOL0     H87718   3.907   1.389   7.193 -0.6462  0.4494 -0.5004
  636MOL0     H87719   3.908   1.236   7.103 -1.2382 -1.7055  3.0309
  636MOL0     H87720   3.656   1.304   7.025  1.1375  0.6242 -1.1367
  636MOL0     H87721   3.679   1.255   7.197 -2.6675  1.1586  0.6106
  636MOL0     H87722   3.681   1.502   7.242  1.4484 -1.8400  0.8953
  636MOL0     H87723   3.665   1.531   7.070 -1.3146  0.9076  1.1394
  636MOL0     H87724   3.446   1.419   7.075  0.5933 -2.9173  0.0975
  636MOL0     H87725   3.476   1.375   7.234  0.8180 -0.7133 -0.9247
  636MOL0     H87726   3.244   1.440   7.152  1.5450  1.0673 -0.8008
  636MOL0     H87727   2.969   1.434   7.070 -1.5253 -2.7575  0.2288
  636MOL0     H87728   2.899   1.580   7.115  0.1772  0.5845  0.4590
  636MOL0     H87729   2.905   1.429   7.226 -0.6535  0.9268 -1.2584
  636MOL0     H87730   2.746   1.931   7.604 -0.7528 -0.5171  0.2642
  636MOL0     H87731   2.506   1.998   7.583  0.0589 -5.5632  1.8248
  636MOL0     H87732   2.241   1.934   7.202 -2.0975 -1.2255 -0.7619
  636MOL0     H87733   2.275   1.798   7.312  0.5891  0.5670 -2.3279
  636MOL0     H87734   2.091   2.043   7.343 -1.4046 -0.6833 -0.5032
  636MOL0     H87735   2.025   1.882   7.332 -1.6967 -0.1352  1.0283
  636MOL0     H87736   2.016   1.959   7.574  0.6358  1.4804  0.8139
  636MOL0     H87737   2.191   1.990   7.576 -0.0744 -0.7373 -0.1281
  636MOL0     H87738   2.242   1.754   7.565 -0.5809  0.4579  0.2243
  636MOL0     H87739   2.070   1.713   7.554 -0.6541 -0.6316  1.0451
  636MOL0     H87740   2.163   1.884   7.770  2.2103 -1.6290  2.3925
  636MOL0     H87741   2.023   1.769   7.763 -0.6181 -4.0834 -2.5459
  636MOL0     H87742   2.321   1.714   7.779  0.7239 -1.1156  2.1291
  636MOL0     H87743   2.209   1.584   7.745  0.0364 -0.2361  1.0161
  636MOL0     H87744   2.239   1.563   7.972  0.0407 -0.2055  0.5197
  636MOL0     H87745   2.085   1.642   7.967 -0.4435  1.4055 -0.2310
  636MOL0     H87746   2.161   1.805   8.095 -2.0684 -0.8148 -2.6984
  636MOL0     H87747   2.321   1.826   8.006  0.6472  2.0626  1.1921
  636MOL0     H87748   2.503   1.896   7.175 -1.4905 -0.9633  0.4933
  636MOL0     H87749   2.746   1.832   7.189 -0.7708  1.7920 -0.8636
  636MOL0     H87750   3.148   1.868   7.391  0.3414 -0.8653 -0.1909
  636MOL0     H87751   3.358   1.831   7.308 -2.1742  2.2186  2.5513
  636MOL0     H87752   4.970   1.698   6.047  1.2737  2.3470 -1.7160
  636MOL0     H87753   5.085   1.913   6.059  0.7897  3.3909  2.1944
  636MOL0     H87754   5.064   2.296   6.441  1.0682  1.4932  0.7604
  636MOL0     H87755   5.213   2.462   6.484 -2.1208 -2.2619  1.7308
  636MOL0     H87756   5.440   2.689   6.158  0.4040 -1.2056 -0.0392
  636MOL0     H87757   5.301   2.810   6.190 -0.2633 -0.0643  1.9803
  636MOL0     H87758   5.416   2.851   6.416  2.4870 -3.6148  2.3300
  636MOL0     H87759   5.498   2.922   6.269 -2.4069  2.3883  1.4664
  636MOL0     H87760   5.635   2.713   6.265  0.9227  1.3471 -1.1288
  636MOL0     H87761   5.686   2.852   6.357  0.5138 -0.4501 -0.4689
  636MOL0     H87762   5.604   2.571   6.425 -0.1579 -1.8957  3.1921
  636MOL0     H87763   5.533   2.682   6.543  2.7731 -1.4447  2.3344
  636MOL0     H87764   5.944   2.725   6.628 -1.3259  1.4949 -0.7124
  636MOL0     H87765   5.204   2.594   6.076 -1.6499  3.4349  1.2170
  636MOL0     H87766   5.092   2.474   5.917  2.9082 -0.5645  2.5115
  636MOL0     H87767   5.067   2.305   5.954  1.4356 -0.6107  1.5700
  636MOL0     H87768   4.923   2.422   5.963  0.4196 -1.5829 -1.5593
  637MOL0     O87769   4.257   5.578   5.039  0.2553  0.3499  0.4625
  637MOL0     C87770   4.296   5.510   4.942  0.4698 -0.0020  0.1281
  637MOL0     O87771   4.219   5.427   4.859 -0.3277  0.3272 -0.3836
  637MOL0     C87772   4.080   5.444   4.862  0.0817  0.8027  0.2264
  637MOL0     C87773   4.001   5.340   4.851  0.1521  0.6167  0.5181
  637MOL0     C87774   3.857   5.352   4.824 -0.9029 -0.1875 -0.3215
  637MOL0     C87775   3.807   5.480   4.827  0.1704  0.5819  0.2513
  637MOL0     O87776   3.671   5.492   4.795 -0.0834 -0.5252 -0.2792
  637MOL0     C87777   3.588   5.603   4.844  0.3416 -0.4571  0.0060
  637MOL0     C87778   3.569   5.573   4.996  0.4939  0.5471  0.1542
  637MOL0     C87779   3.505   5.696   5.062 -0.6372 -0.9754  0.4538
  637MOL0     C87780   3.487   5.668   5.212 -0.3324 -0.1116 -0.0852
  637MOL0     C87781   3.410   5.778   5.277 -0.4384 -0.4224  0.6920
  637MOL0     C87782   3.381   5.766   5.423  0.3451 -0.6758 -0.3047
  637MOL0     C87783   3.273   5.873   5.468 -0.8539  0.3817  0.2019
  637MOL0     C87784   3.220   5.861   5.608 -0.6256 -0.4423  0.9527
  637MOL0     N87785   3.312   5.790   5.704  0.2345 -0.4943  0.2757
  637MOL0     C87786   3.341   5.657   5.711 -0.5157  0.5936 -0.0412
  637MOL0     C87787   3.433   5.636   5.805 -0.5822 -0.1419  0.7308
  637MOL0     C87788   3.481   5.505   5.854  0.0035 -0.7691 -0.2599
  637MOL0     C87789   3.617   5.501   5.918  0.1915 -0.6127  0.1827
  637MOL0     C87790   3.649   5.362   5.972 -1.4659  0.5195  0.0915
  637MOL0     C87791   3.784   5.378   6.044 -0.3189  0.3608 -0.5106
  637MOL0     O87792   3.896   5.431   5.963  1.2526 -0.2170  0.5317
  637MOL0     C87793   4.022   5.434   6.012 -0.5093  0.3027 -0.2955
  637MOL0     C87794   4.106   5.519   5.940 -0.0540  0.2503 -0.3262
  637MOL0     C87795   4.239   5.539   5.987  1.0193 -1.0499  0.5387
  637MOL0     C87796   4.308   5.638   5.898  0.2789  0.1537 -0.6125
  637MOL0     C87797   4.287   5.485   6.109 -0.4946 -0.4214  0.4443
  637MOL0     C87798   4.412   5.523   6.173  0.2395 -0.4753  0.3601
  637MOL0     O87799   4.463   5.440   6.268 -0.2088  0.3526  0.0239
  637MOL0     C87800   4.580   5.482   6.334  0.0019  0.5664  0.2613
  637MOL0     C87801   4.587   5.498   6.474  0.4933  0.4617  0.0158
  637MOL0     C87802   4.704   5.534   6.541  0.0697 -0.4273 -0.3390
  637MOL0     C87803   4.813   5.575   6.477  0.2957 -0.6466  0.5485
  637MOL0     O87804   4.895   5.654   6.556 -0.7283 -0.0436 -0.6607
  637MOL0     C87805   4.986   5.749   6.499 -0.2388 -0.0196  0.3303
  637MOL0     C87806   5.121   5.673   6.487  0.5621 -1.2812 -0.6627
  637MOL0     C87807   5.236   5.774   6.457  0.6204 -0.1540 -0.7029
  637MOL0     C87808   5.362   5.713   6.394  0.5544  0.0426 -1.1781
  637MOL0     C87809   5.464   5.826   6.342 -0.3878  0.5537  0.2385
  637MOL0     C87810   5.545   5.882   6.458  0.4813 -0.1673 -0.2346
  637MOL0     C87811   5.667   5.949   6.391 -0.3285 -0.3289  0.0980
  637MOL0     C87812   5.739   6.039   6.491  0.0091 -0.8778  0.3424
  637MOL0    Cl87813   5.904   6.090   6.445  0.2183  0.2640 -0.8202
  637MOL0     C87814   4.812   5.566   6.332  0.0149 -0.2768  0.0276
  637MOL0     C87815   4.700   5.512   6.263 -0.1515  0.0458 -1.0920
  637MOL0     O87816   4.446   5.641   6.166  0.5265 -0.0141  0.3145
  637MOL0     C87817   4.200   5.391   6.175 -0.5523 -0.7409  0.0887
  637MOL0     C87818   4.070   5.361   6.124  0.1846  0.7265 -0.2232
  637MOL0     N87819   3.462   5.763   5.857 -0.4056  0.2569  0.3993
  637MOL0     N87820   3.394   5.860   5.788 -0.1486  0.6906 -0.8837
  637MOL0     C87821   3.891   5.590   4.851  0.7782  0.7198 -0.4833
  637MOL0     C87822   4.026   5.567   4.866 -0.2667 -0.4957  0.4979
  637MOL0     C87823   4.445   5.498   4.923 -0.4358  0.2294  0.2219
  637MOL0     C87824   4.533   5.548   5.014 -0.3110  0.3210 -0.4571
  637MOL0     C87825   4.667   5.554   4.988 -0.3247 -0.1795  0.2269
  637MOL0     C87826   4.728   5.513   4.870 -0.2325  0.4273 -0.2294
  637MOL0     O87827   4.863   5.528   4.838 -0.0425  0.3843  0.5366
  637MOL0     C87828   4.960   5.511   4.938 -0.0607  0.2536  0.3485
  637MOL0     C87829   5.060   5.625   4.927  0.3017 -0.2332 -0.6985
  637MOL0     C87830   4.993   5.759   4.962 -0.0744 -0.7251 -0.5784
  637MOL0     C87831   5.059   5.878   4.891  0.2833 -0.7235 -0.5840
  637MOL0     C87832   5.199   5.884   4.927 -0.7191 -0.3469 -0.8657
  637MOL0     C87833   5.308   5.878   4.977 -0.0256 -0.6074 -0.6172
  637MOL0     C87834   4.641   5.458   4.780 -0.2322 -0.7673 -0.2726
  637MOL0     C87835   4.502   5.441   4.806 -0.0865  0.0579  0.2022
  637MOL0     C87836   4.428   5.352   4.706  0.0893  0.0181  0.3196
  637MOL0     H87837   4.055   5.249   4.828 -1.9570 -0.5785  0.0050
  637MOL0     H87838   3.788   5.270   4.812 -1.8016  0.3598  0.9212
  637MOL0     H87839   3.497   5.592   4.785  1.5207 -2.2792 -1.5783
  637MOL0     H87840   3.634   5.701   4.829 -0.5216  0.1504  1.1283
  637MOL0     H87841   3.498   5.489   4.996  1.5227 -0.3666 -1.2307
  637MOL0     H87842   3.661   5.551   5.052  2.3968  0.1938 -2.8808
  637MOL0     H87843   3.564   5.788   5.054 -1.5008 -0.3125  1.4494
  637MOL0     H87844   3.407   5.706   5.016 -0.6616 -2.2111  0.1812
  637MOL0     H87845   3.430   5.575   5.226  3.7737 -2.6999  1.2138
  637MOL0     H87846   3.584   5.642   5.255  0.6999  3.0084 -0.2446
  637MOL0     H87847   3.315   5.780   5.222  0.9056 -0.1259 -1.7169
  637MOL0     H87848   3.449   5.878   5.257 -5.5611  1.6635 -0.5782
  637MOL0     H87849   3.336   5.669   5.446  0.0056  0.2830  3.9172
  637MOL0     H87850   3.480   5.775   5.467  1.3836  0.3668 -2.6890
  637MOL0     H87851   3.191   5.865   5.396 -1.0888  3.3934 -0.0122
  637MOL0     H87852   3.324   5.966   5.442  2.4551 -1.3720 -0.0678
  637MOL0     H87853   3.205   5.957   5.657 -0.3396 -0.3546  0.8683
  637MOL0     H87854   3.123   5.811   5.599  0.7946 -3.1208 -1.0412
  637MOL0     H87855   3.298   5.573   5.656  0.1668  0.6307 -0.6523
  637MOL0     H87856   3.469   5.436   5.770 -1.5707 -0.3026 -0.4592
  637MOL0     H87857   3.411   5.465   5.928  0.8632 -0.2396  0.8760
  637MOL0     H87858   3.694   5.528   5.845 -1.4020 -0.1677 -1.4061
  637MOL0     H87859   3.622   5.575   5.999  0.3950 -0.3706 -0.0499
  637MOL0     H87860   3.582   5.314   6.043  0.3432 -0.6290  1.1121
  637MOL0     H87861   3.652   5.302   5.880  1.6379  0.3283  0.2179
  637MOL0     H87862   3.773   5.451   6.125 -1.6955  1.9604 -2.0456
  637MOL0     H87863   3.804   5.281   6.090 -1.0231  0.4751  0.0612
  637MOL0     H87864   4.071   5.537   5.839  3.3625  2.8310 -1.2142
  637MOL0     H87865   4.411   5.603   5.885  0.1695  0.1157 -1.4447
  637MOL0     H87866   4.302   5.741   5.935  0.1855  0.4762 -1.5005
  637MOL0     H87867   4.264   5.640   5.797 -1.8577 -1.1164  0.2277
  637MOL0     H87868   4.491   5.477   6.519  1.3237 -1.1839  1.1143
  637MOL0     H87869   4.699   5.537   6.650  0.3045 -0.7959 -0.3168
  637MOL0     H87870   4.960   5.795   6.403 -0.6794  2.8692  1.7152
  637MOL0     H87871   4.995   5.833   6.569 -1.0297 -1.4604  2.2197
  637MOL0     H87872   5.139   5.634   6.588  0.3226 -2.1658 -0.9582
  637MOL0     H87873   5.121   5.592   6.414  0.2205  0.1462 -2.3047
  637MOL0     H87874   5.278   5.815   6.549 -1.6012 -1.9966  1.2438
  637MOL0     H87875   5.216   5.856   6.387  1.4585  0.4386 -0.2764
  637MOL0     H87876   5.334   5.642   6.316  0.2332 -3.4520  1.8483
  637MOL0     H87877   5.399   5.654   6.479 -2.8520  0.1223  0.5474
  637MOL0     H87878   5.523   5.767   6.272  1.8010  1.5697  1.1337
  637MOL0     H87879   5.411   5.902   6.284 -3.1175 -0.4598  1.2748
  637MOL0     H87880   5.577   5.801   6.523  0.3466 -1.8784 -2.2103
  637MOL0     H87881   5.488   5.949   6.523  0.8626  0.5413 -0.6022
  637MOL0     H87882   5.645   6.005   6.299  1.3111 -0.7942 -0.6043
  637MOL0     H87883   5.732   5.868   6.359 -0.1133  0.3020 -1.1059
  637MOL0     H87884   5.755   5.990   6.587 -0.2930  0.8020  1.3004
  637MOL0     H87885   5.682   6.130   6.515 -0.0865 -1.0349  0.7221
  637MOL0     H87886   4.909   5.595   6.292  0.0935 -0.5374  0.0299
  637MOL0     H87887   4.700   5.490   6.157  1.1835 -0.2055 -1.0568
  637MOL0     H87888   4.235   5.349   6.269 -0.2974 -0.7251  0.0019
  637MOL0     H87889   3.997   5.305   6.182  1.9062  0.6572  2.0237
  637MOL0     H87890   3.850   5.690   4.858 -0.6882  0.0678  0.7094
  637MOL0     H87891   4.089   5.655   4.872  0.5175 -1.0423  0.4735
  637MOL0     H87892   4.502   5.590   5.109  1.2556 -0.8874  0.6472
  637MOL0     H87893   4.717   5.618   5.059  2.2752 -0.7959 -0.9369
  637MOL0     H87894   4.919   5.491   5.037 -3.5253 -0.7319 -1.1392
  637MOL0     H87895   5.012   5.417   4.918  1.7378  1.3033 -0.2184
  637MOL0     H87896   5.097   5.630   4.824  0.8115  1.0923 -0.4720
  637MOL0     H87897   5.145   5.605   4.994  0.6384 -2.3471 -1.6748
  637MOL0     H87898   4.886   5.768   4.940  0.1883  0.9112 -1.3524
  637MOL0     H87899   5.014   5.774   5.068  2.7569  2.4009 -1.4041
  637MOL0     H87900   5.001   5.970   4.905 -1.8624 -1.9143 -1.2698
  637MOL0     H87901   5.048   5.866   4.783 -0.0210 -1.9008 -0.4290
  637MOL0     H87902   5.406   5.863   5.018 -1.4138 -3.5979  2.0819
  637MOL0     H87903   4.670   5.437   4.677  1.5024  1.1502 -0.2338
  637MOL0     H87904   4.395   5.261   4.756  2.4440 -0.9468  0.2469
  637MOL0     H87905   4.347   5.398   4.648 -0.1474 -0.5160  0.2203
  637MOL0     H87906   4.503   5.318   4.634  1.4610  0.6742  1.3801
  638MOL0     O87907   1.975   5.535   3.893 -0.2257 -0.6078  0.2473
  638MOL0     C87908   1.889   5.624   3.907 -0.4508 -0.3344 -0.5230
  638MOL0     O87909   1.917   5.759   3.925 -0.1961 -0.3048  0.5532
  638MOL0     C87910   2.044   5.801   3.944 -0.9462 -0.4023 -0.2243
  638MOL0     C87911   2.068   5.933   3.898 -0.1899  1.0162  0.0247
  638MOL0     C87912   2.197   5.987   3.899  0.3125  0.2280 -0.5569
  638MOL0     C87913   2.308   5.918   3.974 -1.0133 -0.5176 -0.6243
  638MOL0     O87914   2.446   5.959   3.986 -0.1246  0.2673  0.2164
  638MOL0     C87915   2.487   6.097   3.962  0.8170  0.3151 -0.2048
  638MOL0     C87916   2.633   6.116   3.981 -0.8442  0.2652  0.1857
  638MOL0     C87917   2.711   6.011   4.070  1.5668 -0.3355 -1.4488
  638MOL0     C87918   2.854   6.070   4.109 -0.0856 -0.4652  1.3206
  638MOL0     C87919   2.939   6.000   4.218 -0.7317  0.3705 -0.5861
  638MOL0     C87920   3.088   6.043   4.222 -0.0208 -0.6026  0.8759
  638MOL0     C87921   3.187   5.939   4.286  0.0192 -0.6603 -0.3746
  638MOL0     C87922   3.334   5.980   4.282  0.0231 -0.8680  1.0298
  638MOL0     N87923   3.423   5.881   4.348  0.1756 -0.6177 -0.6527
  638MOL0     C87924   3.460   5.763   4.287 -0.1362  1.0049 -0.2801
  638MOL0     C87925   3.508   5.686   4.381 -0.4615 -0.1090  0.2758
  638MOL0     C87926   3.559   5.550   4.357  0.7991 -0.2882  0.2505
  638MOL0     C87927   3.701   5.550   4.325 -0.1725  1.0461 -1.0974
  638MOL0     C87928   3.796   5.565   4.450  0.1379  0.3433  0.5316
  638MOL0     C87929   3.944   5.547   4.407  0.2751  0.2415 -0.1276
  638MOL0     O87930   4.032   5.597   4.502  0.2546 -1.1765  0.2027
  638MOL0     C87931   4.166   5.613   4.466  0.4555 -0.1455 -0.9085
  638MOL0     C87932   4.229   5.560   4.362 -0.6338  0.1311  0.6043
  638MOL0     C87933   4.365   5.573   4.333  0.2304 -0.2543  0.1595
  638MOL0     C87934   4.421   5.505   4.212  0.1027  0.2380  1.4553
  638MOL0     C87935   4.447   5.645   4.425 -1.4152 -0.0319 -0.5784
  638MOL0     C87936   4.596   5.657   4.414 -0.9738 -0.0949 -0.1915
  638MOL0     O87937   4.653   5.759   4.481  0.1631 -0.3601 -0.5528
  638MOL0     C87938   4.787   5.765   4.492  0.0697  0.7898  0.1875
  638MOL0     C87939   4.866   5.668   4.553  0.5674  0.0140 -0.1734
  638MOL0     C87940   5.007   5.671   4.540 -0.0455  0.0503 -0.7281
  638MOL0     C87941   5.068   5.779   4.469 -0.0300  0.0822 -0.6297
  638MOL0     O87942   5.200   5.788   4.439 -0.0765 -0.3250  0.5470
  638MOL0     C87943   5.291   5.679   4.480 -0.1839 -0.6344 -0.2656
  638MOL0     C87944   5.352   5.698   4.616 -0.1586  0.1806 -0.5670
  638MOL0     C87945   5.415   5.835   4.653  0.7443  0.1398 -0.3869
  638MOL0     C87946   5.510   5.893   4.559  0.3062  0.2553  0.4443
  638MOL0     C87947   5.603   5.989   4.637  0.1408  0.2547 -0.7541
  638MOL0     C87948   5.700   6.065   4.545  0.4553 -0.1889 -0.3449
  638MOL0     C87949   5.803   6.156   4.626  0.5959  0.1733  0.4163
  638MOL0     C87950   5.737   6.286   4.675  0.0655 -0.4162 -0.2856
  638MOL0    Cl87951   5.856   6.377   4.770  0.6506 -0.4221 -0.1735
  638MOL0     C87952   4.984   5.874   4.421 -0.0722 -0.2197 -0.3273
  638MOL0     C87953   4.845   5.874   4.424  0.4996 -0.4541  0.4945
  638MOL0     O87954   4.662   5.563   4.364 -0.1565 -0.1417 -0.1433
  638MOL0     C87955   4.388   5.697   4.548 -0.0342 -0.7476  0.1625
  638MOL0     C87956   4.252   5.678   4.569  0.2893 -0.3523  0.0729
  638MOL0     N87957   3.502   5.751   4.508 -0.7583 -0.2483  0.9837
  638MOL0     N87958   3.459   5.871   4.481  0.2477 -0.0527 -0.5923
  638MOL0     C87959   2.271   5.803   4.042  0.4504  0.0038  0.6130
  638MOL0     C87960   2.144   5.751   4.029 -0.3446  0.3099  0.3655
  638MOL0     C87961   1.747   5.579   3.897  0.0825 -0.6832 -1.3313
  638MOL0     C87962   1.720   5.446   3.866  0.4548  0.0303  0.1285
  638MOL0     C87963   1.596   5.396   3.865  0.4385 -0.1529 -0.2011
  638MOL0     C87964   1.481   5.482   3.886 -0.2178 -0.3520 -0.4417
  638MOL0     O87965   1.352   5.431   3.892 -0.2719  0.1443 -0.4398
  638MOL0     C87966   1.329   5.288   3.862  1.0837 -0.9508  0.9453
  638MOL0     C87967   1.178   5.245   3.850  0.1742 -0.6218  0.4295
  638MOL0     C87968   1.106   5.256   3.989  0.3805 -0.6682 -1.1453
  638MOL0     C87969   1.082   5.397   4.030  0.1118  0.4652 -0.8881
  638MOL0     C87970   0.995   5.390   4.150 -0.1781 -0.4557  0.3159
  638MOL0     C87971   0.928   5.411   4.250 -0.0046 -0.4625  1.2121
  638MOL0     C87972   1.494   5.617   3.907 -0.5325 -0.0753 -0.3706
  638MOL0     C87973   1.631   5.662   3.925  0.1068 -0.0065 -0.2009
  638MOL0     C87974   1.642   5.815   3.955 -1.0652 -0.3240  0.3501
  638MOL0     H87975   1.980   5.977   3.851  0.9192  1.6730 -1.5464
  638MOL0     H87976   2.205   6.084   3.850  0.9160  0.3050 -0.3181
  638MOL0     H87977   2.433   6.167   4.026  0.3843  0.8894 -1.1684
  638MOL0     H87978   2.453   6.132   3.864  0.0960  0.5829  0.1282
  638MOL0     H87979   2.683   6.123   3.884 -1.0159  1.0573  0.1542
  638MOL0     H87980   2.653   6.215   4.021  2.4955 -1.3840  3.2595
  638MOL0     H87981   2.648   5.985   4.155  0.6695 -0.5589 -2.1740
  638MOL0     H87982   2.738   5.919   4.017  3.4458 -1.2862  0.9818
  638MOL0     H87983   2.911   6.081   4.016 -1.7738  0.0755  0.3112
  638MOL0     H87984   2.835   6.172   4.140 -1.6459 -0.3917  0.2165
  638MOL0     H87985   2.936   5.892   4.198 -3.0611  0.1520  0.6120
  638MOL0     H87986   2.891   6.011   4.315  2.5189 -0.1675  1.2325
  638MOL0     H87987   3.118   6.068   4.120 -0.8643  0.5731  0.8989
  638MOL0     H87988   3.096   6.144   4.264 -0.8025  0.8438 -2.1992
  638MOL0     H87989   3.179   5.843   4.234 -0.0712 -2.1523  2.2146
  638MOL0     H87990   3.146   5.922   4.386 -0.2221 -0.3244 -0.4159
  638MOL0     H87991   3.358   5.975   4.175  0.8165 -1.2335  1.2191
  638MOL0     H87992   3.355   6.082   4.313  2.0769 -0.3003 -1.8049
  638MOL0     H87993   3.439   5.741   4.182 -2.1429 -0.6218  0.3847
  638MOL0     H87994   3.502   5.505   4.275 -2.9297  0.1774  2.3677
  638MOL0     H87995   3.534   5.496   4.449  1.7150 -0.1893  0.5656
  638MOL0     H87996   3.728   5.459   4.271 -0.5645 -0.4703  1.1794
  638MOL0     H87997   3.730   5.631   4.256  2.6770 -1.1560 -2.6985
  638MOL0     H87998   3.774   5.657   4.505 -2.1392 -0.6009  1.3084
  638MOL0     H87999   3.772   5.491   4.526 -1.9083  0.3893 -0.0247
  638MOL0     H88000   3.963   5.440   4.392  1.0288  0.1359  1.4344
  638MOL0     H88001   3.973   5.597   4.314  1.6774 -1.1613 -0.4746
  638MOL0     H88002   4.172   5.499   4.293 -1.4913  1.1505  0.3963
  638MOL0     H88003   4.490   5.422   4.235  1.5129  0.8428 -0.3660
  638MOL0     H88004   4.464   5.578   4.144  2.3920 -3.2407 -1.2284
  638MOL0     H88005   4.344   5.454   4.154  2.5885  0.6383 -2.5620
  638MOL0     H88006   4.814   5.591   4.608  0.5589 -0.0431 -0.2622
  638MOL0     H88007   5.064   5.587   4.581  0.8791 -0.8009 -3.5527
  638MOL0     H88008   5.241   5.586   4.453 -1.5542  0.1035 -0.3147
  638MOL0     H88009   5.374   5.672   4.409  0.4765  0.7314  0.3147
  638MOL0     H88010   5.266   5.677   4.681 -1.3087  1.3830 -1.6597
  638MOL0     H88011   5.420   5.612   4.620 -0.5646 -0.1101  1.5217
  638MOL0     H88012   5.467   5.825   4.749 -0.2567 -2.2378 -0.0277
  638MOL0     H88013   5.336   5.911   4.657 -1.6167 -1.8930 -3.5545
  638MOL0     H88014   5.462   5.947   4.476 -1.1069 -1.4719  0.0762
  638MOL0     H88015   5.579   5.818   4.520 -2.6518 -3.5161  1.8823
  638MOL0     H88016   5.547   6.066   4.690  3.0350  0.9775  1.5245
  638MOL0     H88017   5.654   5.926   4.711 -1.9230 -0.4894  0.1027
  638MOL0     H88018   5.660   6.109   4.453 -1.4711 -0.9404  0.0848
  638MOL0     H88019   5.758   5.979   4.510 -0.0157 -1.6304  2.2153
  638MOL0     H88020   5.891   6.175   4.564 -0.1800  2.4478 -0.0813
  638MOL0     H88021   5.835   6.108   4.719 -1.6959  0.4668  1.4112
  638MOL0     H88022   5.641   6.276   4.727 -0.9832  1.2974 -1.7401
  638MOL0     H88023   5.711   6.349   4.590  3.3808  1.7133  0.1072
  638MOL0     H88024   5.038   5.959   4.379 -0.4827 -0.0909 -0.6041
  638MOL0     H88025   4.779   5.955   4.393  0.5832 -0.3520  0.5841
  638MOL0     H88026   4.454   5.754   4.613 -1.6622  2.2204 -0.6236
  638MOL0     H88027   4.209   5.731   4.653  0.1623  0.1550 -0.3013
  638MOL0     H88028   2.353   5.751   4.089 -0.2866 -0.9840  0.8540
  638MOL0     H88029   2.128   5.657   4.081  0.1439  0.4861  0.8442
  638MOL0     H88030   1.793   5.369   3.846  0.0325 -0.2688 -0.2622
  638MOL0     H88031   1.588   5.292   3.837  1.0102 -0.2258 -0.0980
  638MOL0     H88032   1.373   5.261   3.766  0.0114 -1.8765  0.6948
  638MOL0     H88033   1.373   5.225   3.940  0.7825 -0.2772  1.6792
  638MOL0     H88034   1.160   5.142   3.817  1.3361 -1.0757  1.1081
  638MOL0     H88035   1.132   5.312   3.777  3.7326  2.9871  1.1143
  638MOL0     H88036   1.010   5.203   3.985 -0.6646  0.8965  0.8503
  638MOL0     H88037   1.157   5.195   4.064 -2.5710 -1.6448  0.2246
  638MOL0     H88038   1.032   5.451   3.949 -1.7269 -1.1505 -0.9100
  638MOL0     H88039   1.175   5.443   4.065 -0.0535  0.0592  0.0978
  638MOL0     H88040   0.879   5.423   4.344 -2.9765 -2.3937  0.0900
  638MOL0     H88041   1.400   5.670   3.911  0.1906  1.4067 -1.6968
  638MOL0     H88042   1.540   5.852   3.973 -1.9103 -1.3500 -1.9670
  638MOL0     H88043   1.680   5.841   4.055 -0.6985 -1.9793  0.6728
  638MOL0     H88044   1.699   5.860   3.873 -1.7867 -0.2385 -0.1116
  639MOL0     O88045  10.560   0.669   1.845 -0.4756 -0.2347 -0.2267
  639MOL0     C88046  10.576   0.794   1.837  0.0184  0.4496  0.3130
  639MOL0     O88047  10.629   0.853   1.730 -0.3291  0.3043  0.1540
  639MOL0     C88048  10.690   0.770   1.638 -0.0436 -0.3705  0.5007
  639MOL0     C88049  10.637   0.770   1.509 -0.2123  1.0872 -0.1857
  639MOL0     C88050  10.692   0.698   1.407 -0.3486  0.0562  0.6908
  639MOL0     C88051  10.812   0.637   1.429 -0.2283 -0.3712  0.1327
  639MOL0     O88052  10.862   0.593   1.315  0.0110  0.0405 -0.2545
  639MOL0     C88053  10.959   0.492   1.316 -0.4297  0.6594 -0.3620
  639MOL0     C88054  10.950   0.435   1.172 -0.4479  0.3303 -0.1451
  639MOL0     C88055  10.821   0.338   1.160 -0.7654 -0.0237  0.4681
  639MOL0     C88056  10.823   0.208   1.242 -0.1334 -0.5339  0.7535
  639MOL0     C88057  10.701   0.131   1.200 -0.1304  0.3575  0.3174
  639MOL0     C88058  10.687   0.013   1.297 -0.4050  0.2904  0.1284
  639MOL0     C88059  10.546  -0.049   1.266 -0.6966  0.9860  0.5738
  639MOL0     C88060  10.553  -0.201   1.309 -0.2520 -0.7682  0.3995
  639MOL0     N88061  10.554  -0.208   1.458  0.7438  0.1193  0.5497
  639MOL0     C88062  10.430  -0.200   1.530 -0.7598 -0.0382  0.0243
  639MOL0     C88063  10.474  -0.247   1.650  0.4830 -0.4241  0.2070
  639MOL0     C88064  10.381  -0.272   1.769 -0.3426  0.2431  0.3705
  639MOL0     C88065  10.404  -0.171   1.872 -0.1653  0.2034  0.1357
  639MOL0     C88066  10.535  -0.185   1.941 -0.5297 -0.7186 -0.4551
  639MOL0     C88067  10.551  -0.092   2.065  0.0656  0.2946  0.0633
  639MOL0     O88068  10.483   0.032   2.043  0.6788 -0.8694  0.0958
  639MOL0     C88069  10.536   0.143   2.105  0.8788 -0.0129  0.5798
  639MOL0     C88070  10.583   0.144   2.233 -0.0561  0.6656 -0.0807
  639MOL0     C88071  10.642   0.258   2.284  0.8072 -0.0911  0.7541
  639MOL0     C88072  10.696   0.227   2.423 -0.4409  0.4983  0.3347
  639MOL0     C88073  10.638   0.381   2.213  0.6090  0.0291 -0.4518
  639MOL0     C88074  10.696   0.509   2.269 -0.0655  0.1908  0.6125
  639MOL0     O88075  10.709   0.617   2.176 -0.2259 -0.8369  0.0972
  639MOL0     C88076  10.768   0.734   2.214  0.2525  0.7550 -0.1191
  639MOL0     C88077  10.733   0.801   2.327 -0.4096  0.3492  0.0014
  639MOL0     C88078  10.787   0.917   2.358 -0.1424 -0.9199 -0.6039
  639MOL0     C88079  10.880   0.984   2.279  0.2572 -0.0888  0.0177
  639MOL0     O88080  10.927   1.106   2.327 -0.6702 -0.2081 -0.2114
  639MOL0     C88081  10.961   1.213   2.243 -0.6931  0.7275  1.0968
  639MOL0     C88082  10.970   1.350   2.310  0.7683  0.1804 -0.2578
  639MOL0     C88083  11.002   1.465   2.206 -0.7821  0.1308 -0.3718
  639MOL0     C88084  10.897   1.584   2.219 -0.4511 -0.1293 -0.1263
  639MOL0     C88085  10.937   1.659   2.354 -0.4807  0.2314  0.0946
  639MOL0     C88086  10.917   1.818   2.350 -0.6467  1.0299  0.0248
  639MOL0     C88087  11.019   1.887   2.446 -0.2536 -0.1415 -0.1955
  639MOL0     C88088  10.979   2.029   2.450 -0.2505  0.2330  0.2135
  639MOL0    Cl88089  11.009   2.096   2.285  0.0088 -0.3070 -0.4040
  639MOL0     C88090  10.909   0.926   2.155  0.6721 -0.0267  0.1153
  639MOL0     C88091  10.849   0.806   2.122  0.6351  0.3460 -0.2595
  639MOL0     O88092  10.739   0.505   2.384  0.1940  0.1022  0.0333
  639MOL0     C88093  10.586   0.384   2.092 -0.6094  0.7811  0.2760
  639MOL0     C88094  10.532   0.267   2.032 -0.3341  0.2029 -0.0735
  639MOL0     N88095  10.604  -0.285   1.645  0.2851  0.5379 -0.1940
  639MOL0     N88096  10.647  -0.267   1.531  0.1691 -0.3723 -1.0603
  639MOL0     C88097  10.874   0.635   1.556 -0.0169 -0.2162  0.5280
  639MOL0     C88098  10.810   0.700   1.668  0.7957  0.8866  0.5243
  639MOL0     C88099  10.550   0.882   1.955  0.0766 -0.3285  0.5253
  639MOL0     C88100  10.629   0.992   1.967  0.2844 -1.2081  0.3421
  639MOL0     C88101  10.606   1.087   2.070 -0.6042  0.1878  1.4580
  639MOL0     C88102  10.513   1.070   2.171  1.1227 -0.6966  1.1215
  639MOL0     O88103  10.471   1.171   2.258  0.3243 -0.3472  0.2869
  639MOL0     C88104  10.578   1.255   2.292 -0.2573  1.0627 -0.0333
  639MOL0     C88105  10.523   1.313   2.425 -0.7781 -0.4807  0.3475
  639MOL0     C88106  10.604   1.430   2.467  0.8737 -0.4673  0.1675
  639MOL0     C88107  10.548   1.499   2.598  0.9746  0.8564 -0.5914
  639MOL0     C88108  10.644   1.612   2.636  0.0489  0.6223  0.5802
  639MOL0     C88109  10.718   1.703   2.649 -0.1239  0.1831  0.0944
  639MOL0     C88110  10.424   0.965   2.143  0.1705 -0.0728  1.0942
  639MOL0     C88111  10.452   0.866   2.051  0.0047  0.3504 -0.0478
  639MOL0     C88112  10.350   0.753   2.052 -0.1072 -0.4458  0.1306
  639MOL0     H88113  10.546   0.827   1.496 -2.0759 -0.9186  2.8500
  639MOL0     H88114  10.661   0.720   1.305  1.6076  0.8260  0.2226
  639MOL0     H88115  10.937   0.424   1.398 -1.8189  0.8111 -0.5911
  639MOL0     H88116  11.063   0.527   1.325 -0.1979 -0.3310  1.2660
  639MOL0     H88117  10.929   0.516   1.101  0.6106 -1.5351 -2.7296
  639MOL0     H88118  11.035   0.378   1.135 -0.3394 -0.0964  0.7250
  639MOL0     H88119  10.734   0.396   1.193 -0.8761 -0.0082  0.1477
  639MOL0     H88120  10.812   0.322   1.052  0.5205 -0.3468  0.4006
  639MOL0     H88121  10.919   0.162   1.217 -0.0019  0.0102  0.2378
  639MOL0     H88122  10.824   0.229   1.350  0.0663  3.2255  0.1633
  639MOL0     H88123  10.712   0.094   1.098 -1.1614 -0.8282  0.6081
  639MOL0     H88124  10.619   0.203   1.192  0.1362  0.7352  0.8516
  639MOL0     H88125  10.772  -0.051   1.270 -0.2683  0.5779 -0.1263
  639MOL0     H88126  10.692   0.044   1.402 -0.3015 -2.6862  1.1021
  639MOL0     H88127  10.526  -0.046   1.158 -1.0102 -2.8629  0.3913
  639MOL0     H88128  10.470   0.006   1.321  0.2853  1.7872  1.1664
  639MOL0     H88129  10.471  -0.254   1.261 -0.8881  0.8776 -0.3902
  639MOL0     H88130  10.647  -0.245   1.275 -0.1112  1.5962 -2.7062
  639MOL0     H88131  10.329  -0.166   1.509 -0.1040  1.3131 -1.0900
  639MOL0     H88132  10.419  -0.365   1.812  1.5466  1.7350  2.1754
  639MOL0     H88133  10.278  -0.277   1.734  0.0895  0.1266 -0.9634
  639MOL0     H88134  10.395  -0.069   1.834  1.6092  1.3123  2.4266
  639MOL0     H88135  10.322  -0.179   1.944 -0.8586  1.2647 -0.5233
  639MOL0     H88136  10.548  -0.291   1.966 -0.9956 -1.1046 -1.7939
  639MOL0     H88137  10.616  -0.158   1.872 -1.1565  1.8428 -0.3015
  639MOL0     H88138  10.501  -0.131   2.154  1.6921 -2.5937 -0.1563
  639MOL0     H88139  10.658  -0.077   2.085  0.0973 -0.9316  0.9472
  639MOL0     H88140  10.582   0.047   2.282 -0.0578  1.2953  1.2083
  639MOL0     H88141  10.791   0.277   2.443  0.2058 -0.5544 -0.0389
  639MOL0     H88142  10.698   0.118   2.438 -3.6508  0.2531 -0.2848
  639MOL0     H88143  10.627   0.266   2.498  1.1518 -1.3023  2.9287
  639MOL0     H88144  10.655   0.748   2.380  2.1834 -3.3645  0.4706
  639MOL0     H88145  10.762   0.987   2.437  3.0712  1.0668 -1.1491
  639MOL0     H88146  11.059   1.197   2.197 -0.8075  0.3701  0.9790
  639MOL0     H88147  10.879   1.229   2.173 -0.7217 -2.9486  0.1190
  639MOL0     H88148  10.890   1.372   2.382  0.4376 -0.4940 -0.4164
  639MOL0     H88149  11.061   1.346   2.371  1.1199  0.8656 -0.7173
  639MOL0     H88150  10.981   1.432   2.103  1.9670 -1.0898 -0.6211
  639MOL0     H88151  11.108   1.491   2.204 -0.3059 -1.6690 -0.3228
  639MOL0     H88152  10.794   1.554   2.240 -0.5867 -0.1765 -0.8243
  639MOL0     H88153  10.897   1.653   2.134 -0.9384 -2.9749 -2.5927
  639MOL0     H88154  10.863   1.621   2.426 -0.6896 -0.8270 -0.6645
  639MOL0     H88155  11.038   1.633   2.385  0.8001 -1.6842 -4.8182
  639MOL0     H88156  10.819   1.837   2.396 -0.2049  1.4730  0.8002
  639MOL0     H88157  10.920   1.859   2.249 -0.4646  1.9140  0.3830
  639MOL0     H88158  11.115   1.890   2.395 -1.8573  3.9394 -3.5174
  639MOL0     H88159  11.015   1.835   2.542  0.8257 -0.6777 -0.4269
  639MOL0     H88160  11.028   2.094   2.524  0.6745 -0.1791 -0.0253
  639MOL0     H88161  10.872   2.033   2.472 -0.5063 -2.6293 -0.1893
  639MOL0     H88162  10.990   0.966   2.095  2.6889 -3.5793  0.1847
  639MOL0     H88163  10.875   0.749   2.033 -2.3273  0.5016 -1.3295
  639MOL0     H88164  10.573   0.474   2.033 -0.5483  0.1515 -0.7162
  639MOL0     H88165  10.505   0.284   1.928  1.5980  0.5757 -0.5556
  639MOL0     H88166  10.970   0.586   1.567  1.6242  1.6263 -3.4758
  639MOL0     H88167  10.860   0.704   1.764  1.7533 -0.2504  0.0982
  639MOL0     H88168  10.718   1.015   1.908 -0.4024 -0.1547 -0.3087
  639MOL0     H88169  10.665   1.178   2.060  1.1895 -0.9088  1.5593
  639MOL0     H88170  10.671   1.202   2.315 -2.9155 -2.8768  2.8535
  639MOL0     H88171  10.592   1.332   2.216 -2.3897  1.6727  0.1440
  639MOL0     H88172  10.526   1.231   2.496  1.8115 -1.3616 -0.6538
  639MOL0     H88173  10.424   1.357   2.411 -0.6864 -0.5689 -0.7446
  639MOL0     H88174  10.708   1.411   2.495  0.2331 -2.6377  1.2691
  639MOL0     H88175  10.595   1.508   2.392 -3.7444  0.6021  1.4913
  639MOL0     H88176  10.545   1.427   2.680  3.1966  1.4789  0.1012
  639MOL0     H88177  10.449   1.545   2.585  0.7408  1.2855  2.0710
  639MOL0     H88178  10.777   1.792   2.662 -0.0749  0.1797 -0.1000
  639MOL0     H88179  10.335   0.966   2.206 -0.5308  0.8632  0.1278
  639MOL0     H88180  10.249   0.794   2.036  0.5083  0.6909 -1.0517
  639MOL0     H88181  10.373   0.688   1.967  1.5789  1.4459 -0.9265
  639MOL0     H88182  10.346   0.702   2.148 -1.7296  0.0359  0.3588
  640MOL0     O88183   3.997   2.723   0.213 -0.6019  0.3462 -0.7363
  640MOL0     C88184   3.925   2.696   0.119 -0.2913 -0.1854  0.7676
  640MOL0     O88185   3.964   2.720  -0.008  0.8356 -0.0496  0.5326
  640MOL0     C88186   4.088   2.745  -0.048 -0.6078  0.1224 -0.7396
  640MOL0     C88187   4.098   2.822  -0.168 -0.0511  0.4714 -0.4624
  640MOL0     C88188   4.226   2.859  -0.214 -0.2523 -0.0915 -0.1539
  640MOL0     C88189   4.345   2.806  -0.157  0.5242  0.6276 -0.1284
  640MOL0     O88190   4.460   2.841  -0.229 -0.0352 -0.2661 -0.4400
  640MOL0     C88191   4.593   2.804  -0.172  0.1469 -0.1577  0.6071
  640MOL0     C88192   4.687   2.853  -0.276  0.3416  0.8798 -0.0548
  640MOL0     C88193   4.829   2.845  -0.233 -0.2140  0.3049  0.2218
  640MOL0     C88194   4.919   2.932  -0.318  0.9877  0.4625  0.4148
  640MOL0     C88195   5.066   2.884  -0.306 -0.1508 -0.9499 -0.3918
  640MOL0     C88196   5.136   2.919  -0.172  0.3737  0.4485 -0.0555
  640MOL0     C88197   5.273   2.872  -0.151 -0.2240 -0.0438  0.5625
  640MOL0     C88198   5.293   2.723  -0.150  0.6618  0.1000 -0.9087
  640MOL0     N88199   5.432   2.696  -0.115 -0.0697 -0.6683 -0.5791
  640MOL0     C88200   5.544   2.716  -0.191 -0.9663 -0.1342  0.3155
  640MOL0     C88201   5.646   2.713  -0.100  0.3951 -0.9149  0.0369
  640MOL0     C88202   5.789   2.746  -0.120  0.1152 -0.3161  1.3562
  640MOL0     C88203   5.886   2.632  -0.077 -0.0231  0.2862  0.3311
  640MOL0     C88204   5.941   2.663   0.064 -0.4627  0.5872  0.6255
  640MOL0     C88205   6.025   2.544   0.123 -0.7053  0.7211 -1.3939
  640MOL0     O88206   6.101   2.478   0.026  0.5371  1.0031 -0.0407
  640MOL0     C88207   6.198   2.531  -0.059 -0.8180 -0.0430  0.6618
  640MOL0     C88208   6.276   2.642  -0.019  0.2077  1.0662  0.0490
  640MOL0     C88209   6.386   2.680  -0.098  0.0101  0.4002 -0.4681
  640MOL0     C88210   6.478   2.796  -0.044 -0.0486  0.1324  0.2455
  640MOL0     C88211   6.403   2.614  -0.219  0.1341  0.1323 -0.4756
  640MOL0     C88212   6.506   2.666  -0.312 -0.2191  0.3757  0.3312
  640MOL0     O88213   6.631   2.687  -0.258  0.3826  0.7671  0.1316
  640MOL0     C88214   6.736   2.696  -0.351  0.2870  0.3450 -0.0576
  640MOL0     C88215   6.821   2.586  -0.372 -0.0237  0.4063 -0.4134
  640MOL0     C88216   6.929   2.596  -0.466  0.0753 -0.6226  0.4067
  640MOL0     C88217   6.965   2.718  -0.515 -0.0604 -0.2972  0.5434
  640MOL0     O88218   7.057   2.733  -0.606  0.0989  0.0571 -0.2472
  640MOL0     C88219   7.179   2.764  -0.544 -0.5669 -0.4377 -0.6780
  640MOL0     C88220   7.295   2.753  -0.647 -0.3789  0.2709 -0.8462
  640MOL0     C88221   7.414   2.838  -0.612 -0.4394  0.4341  0.1209
  640MOL0     C88222   7.489   2.776  -0.491 -0.0829  0.3510  0.1352
  640MOL0     C88223   7.612   2.861  -0.441  0.0868 -0.1382 -0.1504
  640MOL0     C88224   7.650   2.846  -0.298 -0.4247 -1.1940  0.4807
  640MOL0     C88225   7.766   2.949  -0.269 -0.0522  0.3128 -0.3637
  640MOL0     C88226   7.779   2.969  -0.118  0.2210 -0.6044 -0.2525
  640MOL0    Cl88227   7.675   3.092  -0.053 -0.0318 -0.2585 -0.0281
  640MOL0     C88228   6.889   2.837  -0.472  0.5029 -0.0256  1.1643
  640MOL0     C88229   6.770   2.829  -0.395  0.2935  0.2590 -0.4500
  640MOL0     O88230   6.475   2.673  -0.430 -0.8790 -0.4298  0.0977
  640MOL0     C88231   6.314   2.507  -0.262 -0.4449 -0.6697  0.5192
  640MOL0     C88232   6.207   2.468  -0.184 -0.2132  0.8193  0.9287
  640MOL0     N88233   5.597   2.686   0.028 -0.1170 -0.4951 -0.0333
  640MOL0     N88234   5.463   2.686   0.021 -0.3490  0.1689 -0.2651
  640MOL0     C88235   4.330   2.730  -0.045  0.5340  0.5223 -0.0142
  640MOL0     C88236   4.206   2.701   0.016 -0.6474 -0.1548  0.3786
  640MOL0     C88237   3.796   2.636   0.157  1.0769  0.7129  1.1405
  640MOL0     C88238   3.757   2.642   0.292  0.2335 -0.8704  0.4457
  640MOL0     C88239   3.633   2.595   0.342 -0.4360 -0.3301  0.0893
  640MOL0     C88240   3.536   2.547   0.254 -0.0527  0.4614 -0.1063
  640MOL0     O88241   3.427   2.503   0.320  0.1100 -0.4002 -0.1030
  640MOL0     C88242   3.309   2.457   0.262 -0.5579 -0.4081 -0.0933
  640MOL0     C88243   3.223   2.414   0.381 -0.1232 -0.1823 -0.7734
  640MOL0     C88244   3.299   2.313   0.468  0.5847 -0.7103 -1.0487
  640MOL0     C88245   3.223   2.221   0.565  0.4782 -0.4282 -0.2412
  640MOL0     C88246   3.147   2.295   0.668 -0.0063  1.0711 -0.6494
  640MOL0     C88247   3.091   2.367   0.745 -0.3928  0.7675 -0.7242
  640MOL0     C88248   3.573   2.539   0.114  0.1462 -0.0189  0.0695
  640MOL0     C88249   3.703   2.579   0.067  0.3425  0.9782 -0.0694
  640MOL0     C88250   3.720   2.576  -0.082  0.8558 -0.1895  0.4267
  640MOL0     H88251   4.009   2.856  -0.219  0.5855  1.6042 -0.8478
  640MOL0     H88252   4.230   2.928  -0.297  3.5529  0.2548  0.1154
  640MOL0     H88253   4.593   2.696  -0.158 -1.3334 -0.2943 -0.2854
  640MOL0     H88254   4.609   2.860  -0.079 -2.0058  3.5599 -1.0035
  640MOL0     H88255   4.676   2.786  -0.362  0.7371 -0.5188  0.9465
  640MOL0     H88256   4.673   2.956  -0.310 -0.7319  0.9349  0.5028
  640MOL0     H88257   4.833   2.882  -0.130  1.0587  3.4636 -0.8488
  640MOL0     H88258   4.864   2.742  -0.238 -0.6226  0.1841 -0.2317
  640MOL0     H88259   4.880   2.937  -0.420  1.7993  1.5589  0.1484
  640MOL0     H88260   4.908   3.033  -0.279  1.1926  1.0889 -1.0745
  640MOL0     H88261   5.126   2.915  -0.393  1.5965 -0.3007  0.9894
  640MOL0     H88262   5.068   2.775  -0.302 -1.0537 -0.9429  0.8123
  640MOL0     H88263   5.130   3.027  -0.160  0.9627  0.4607  0.1688
  640MOL0     H88264   5.069   2.882  -0.093  0.3867 -0.6771 -0.5497
  640MOL0     H88265   5.311   2.909  -0.055  0.6775 -2.8537  1.3974
  640MOL0     H88266   5.344   2.909  -0.226 -1.6156 -1.1792 -1.3929
  640MOL0     H88267   5.229   2.667  -0.080 -0.8680 -2.3336 -3.9761
  640MOL0     H88268   5.276   2.681  -0.249  0.5945 -2.3185  0.0471
  640MOL0     H88269   5.547   2.741  -0.296 -2.6100 -3.2938 -0.6078
  640MOL0     H88270   5.812   2.839  -0.069 -0.4051  0.7323 -0.2529
  640MOL0     H88271   5.803   2.759  -0.228  0.3418 -2.4092  1.0784
  640MOL0     H88272   5.854   2.528  -0.083  1.9606 -0.2990 -1.1917
  640MOL0     H88273   5.974   2.634  -0.142  0.5436 -1.0088  1.0105
  640MOL0     H88274   6.004   2.752   0.061  1.5744 -0.7225 -3.2059
  640MOL0     H88275   5.855   2.686   0.127  2.3269  0.0062  5.0550
  640MOL0     H88276   6.091   2.585   0.200 -2.8274  1.0746  0.3442
  640MOL0     H88277   5.967   2.464   0.170  1.5954 -1.1111 -1.4606
  640MOL0     H88278   6.254   2.682   0.080 -1.9064  1.1860 -0.4176
  640MOL0     H88279   6.428   2.848   0.038  1.4613  0.9942  0.6496
  640MOL0     H88280   6.508   2.868  -0.121  0.5762 -0.2129  0.1572
  640MOL0     H88281   6.566   2.745  -0.004  1.0119  3.6167  2.8206
  640MOL0     H88282   6.789   2.509  -0.302  0.5723 -0.6038 -1.2301
  640MOL0     H88283   6.991   2.513  -0.500  2.1522  0.6605  0.9187
  640MOL0     H88284   7.171   2.868  -0.512  1.2153 -0.8098  1.1780
  640MOL0     H88285   7.202   2.700  -0.458 -1.5015  0.1027 -0.0061
  640MOL0     H88286   7.324   2.649  -0.665  3.4250  1.1443 -0.5915
  640MOL0     H88287   7.265   2.794  -0.743 -1.2435 -2.5394 -1.8691
  640MOL0     H88288   7.376   2.938  -0.590 -3.0417 -0.2479 -0.9232
  640MOL0     H88289   7.478   2.846  -0.701 -0.2606  1.0230  0.2966
  640MOL0     H88290   7.513   2.672  -0.513 -2.8584  0.1159 -2.4734
  640MOL0     H88291   7.414   2.767  -0.411  0.1245 -0.3401  0.2515
  640MOL0     H88292   7.702   2.836  -0.497 -0.2107 -0.2191 -0.6008
  640MOL0     H88293   7.597   2.966  -0.468  0.0776  0.1163  0.8007
  640MOL0     H88294   7.683   2.743  -0.280  1.5872 -0.4651  1.2117
  640MOL0     H88295   7.561   2.869  -0.238 -0.3718 -1.0314  0.4981
  640MOL0     H88296   7.762   3.046  -0.321  0.4095 -0.3912 -1.7530
  640MOL0     H88297   7.845   2.882  -0.304 -0.1816 -1.6375  2.7260
  640MOL0     H88298   7.884   2.992  -0.097  0.4659 -1.6720 -0.2198
  640MOL0     H88299   7.768   2.871  -0.069  1.2737 -0.6360 -0.0486
  640MOL0     H88300   6.922   2.932  -0.513 -1.2751 -0.2510 -1.0358
  640MOL0     H88301   6.713   2.919  -0.373  0.4848  0.5548 -1.1239
  640MOL0     H88302   6.335   2.458  -0.356  1.3234 -1.5732  1.3311
  640MOL0     H88303   6.128   2.400  -0.214 -0.8034  2.0349 -0.3641
  640MOL0     H88304   4.421   2.689  -0.003  0.4304 -0.4858 -0.7286
  640MOL0     H88305   4.206   2.633   0.101 -1.9213 -0.2843  0.2920
  640MOL0     H88306   3.833   2.673   0.363 -0.0558 -0.1314  0.4375
  640MOL0     H88307   3.623   2.611   0.449  2.5283  0.2070  0.3898
  640MOL0     H88308   3.254   2.535   0.210  2.3650  0.8790 -1.4427
  640MOL0     H88309   3.325   2.372   0.195 -1.2181 -1.6661  1.2755
  640MOL0     H88310   3.125   2.373   0.356 -0.6747  0.0581  0.8768
  640MOL0     H88311   3.196   2.506   0.433 -1.3121  0.1100 -1.8772
  640MOL0     H88312   3.362   2.248   0.407  0.6847 -0.6416 -1.0202
  640MOL0     H88313   3.361   2.380   0.529 -1.6184  0.1086  0.4246
  640MOL0     H88314   3.295   2.147   0.601  0.4731 -0.2030  0.2331
  640MOL0     H88315   3.148   2.166   0.507  0.1828  0.2688 -0.5352
  640MOL0     H88316   3.049   2.443   0.808 -1.6271 -0.1933 -0.3504
  640MOL0     H88317   3.497   2.492   0.053 -1.3460 -0.7168  2.3519
  640MOL0     H88318   3.808   2.511  -0.089  0.4018 -0.9644  1.5501
  640MOL0     H88319   3.630   2.530  -0.124  1.7672 -0.1363 -1.7074
  640MOL0     H88320   3.736   2.673  -0.129 -2.0661  1.4286  2.4898
  641MOL0     O88321   3.619   0.109   4.867  0.3583 -0.7622 -0.3528
  641MOL0     C88322   3.720   0.143   4.921 -0.1822 -0.3687 -1.6227
  641MOL0     O88323   3.837   0.073   4.919  0.0040 -0.1153  0.2087
  641MOL0     C88324   3.849  -0.012   4.807  0.7601 -0.6081  0.3086
  641MOL0     C88325   3.895   0.038   4.682 -0.4839 -0.0139  0.5867
  641MOL0     C88326   3.901  -0.041   4.566 -0.4815  0.5487 -0.3431
  641MOL0     C88327   3.865  -0.177   4.570  0.0512 -0.1679 -0.3776
  641MOL0     O88328   3.879  -0.266   4.459 -0.1821 -0.1388 -0.8120
  641MOL0     C88329   4.010  -0.267   4.392 -0.3509  0.6529  1.2739
  641MOL0     C88330   4.138  -0.303   4.455  0.1302 -0.2918 -0.1741
  641MOL0     C88331   4.117  -0.394   4.574 -0.5811 -0.4337 -0.6544
  641MOL0     C88332   4.247  -0.458   4.624  0.0845 -0.0985  0.4732
  641MOL0     C88333   4.302  -0.582   4.544 -0.0273 -0.2709  0.3483
  641MOL0     C88334   4.309  -0.708   4.631 -0.4237 -0.0594  0.2041
  641MOL0     C88335   4.170  -0.772   4.668  0.5990 -0.1153  0.7444
  641MOL0     C88336   4.098  -0.733   4.797 -0.3716 -0.4295 -0.1765
  641MOL0     N88337   3.956  -0.778   4.783 -0.0335  0.0627 -0.1637
  641MOL0     C88338   3.917  -0.905   4.754 -0.0156  0.6973  0.7345
  641MOL0     C88339   3.781  -0.888   4.742 -0.2908 -0.3548 -0.6723
  641MOL0     C88340   3.682  -1.006   4.730  0.6064 -0.8769  0.4700
  641MOL0     C88341   3.575  -0.969   4.629 -1.1672  0.3122 -0.1603
  641MOL0     C88342   3.501  -1.094   4.577 -0.3006 -0.3452 -0.5933
  641MOL0     C88343   3.383  -1.065   4.495  0.0548 -0.6952  0.4241
  641MOL0     O88344   3.413  -0.981   4.386 -0.1966  0.1415 -0.4504
  641MOL0     C88345   3.439  -1.049   4.268 -0.5708  0.3800  0.7376
  641MOL0     C88346   3.427  -0.971   4.144  0.2706  0.9104  0.1757
  641MOL0     C88347   3.442  -1.031   4.017  0.8205  0.2527  0.7333
  641MOL0     C88348   3.418  -0.947   3.894 -0.6255  0.8425  0.1918
  641MOL0     C88349   3.494  -1.167   4.006  0.3612  0.4234 -0.8208
  641MOL0     C88350   3.526  -1.236   3.877 -0.6206  0.0361 -0.8564
  641MOL0     O88351   3.510  -1.372   3.881  0.2454  0.7121 -0.1980
  641MOL0     C88352   3.596  -1.450   3.803 -0.6783 -0.2688  0.3738
  641MOL0     C88353   3.543  -1.530   3.708  0.9829 -0.1122 -0.3847
  641MOL0     C88354   3.614  -1.613   3.620 -0.0825 -0.7560  0.3610
  641MOL0     C88355   3.754  -1.619   3.633  0.6645 -0.1260 -0.2718
  641MOL0     O88356   3.836  -1.697   3.559  0.8351 -0.8644  0.4535
  641MOL0     C88357   3.792  -1.767   3.441 -0.5531  0.2247  0.1576
  641MOL0     C88358   3.913  -1.864   3.391 -0.1461  0.1866  0.8111
  641MOL0     C88359   4.049  -1.801   3.372  0.3970  0.0721 -0.6659
  641MOL0     C88360   4.151  -1.893   3.304 -0.2321  0.4407 -0.3509
  641MOL0     C88361   4.279  -1.822   3.303  0.0097  0.0125  1.0661
  641MOL0     C88362   4.391  -1.912   3.254  0.1655  0.2923 -0.4392
  641MOL0     C88363   4.525  -1.841   3.248 -1.0437 -0.1392  0.3911
  641MOL0     C88364   4.546  -1.757   3.114  0.2005  0.7480 -0.4910
  641MOL0    Cl88365   4.561  -1.872   2.980 -0.0956  0.1648  0.0390
  641MOL0     C88366   3.818  -1.540   3.720  0.9838 -0.0549 -1.0128
  641MOL0     C88367   3.740  -1.451   3.807 -0.0540 -0.0164 -0.4074
  641MOL0     O88368   3.581  -1.167   3.794  0.1839 -0.7558  0.4509
  641MOL0     C88369   3.498  -1.240   4.128 -0.7807  0.1259  0.2535
  641MOL0     C88370   3.472  -1.185   4.257 -0.7532 -0.3971 -0.5514
  641MOL0     N88371   3.742  -0.754   4.763 -0.6199  0.4937  0.2108
  641MOL0     N88372   3.851  -0.687   4.776 -0.4021 -0.3261  0.2574
  641MOL0     C88373   3.812  -0.222   4.693  0.1436  0.4830  1.2098
  641MOL0     C88374   3.794  -0.137   4.805  0.3237  0.0154 -0.4069
  641MOL0     C88375   3.721   0.265   5.001 -0.1488  0.4918 -0.3062
  641MOL0     C88376   3.831   0.351   4.997 -0.5275  0.4990 -0.2341
  641MOL0     C88377   3.831   0.480   5.048  0.1528  0.2444 -0.0172
  641MOL0     C88378   3.715   0.529   5.111  0.8800 -0.2764 -0.3769
  641MOL0     O88379   3.707   0.656   5.162  0.3351 -0.9675  0.0796
  641MOL0     C88380   3.617   0.676   5.275  0.2718 -0.3929  0.6475
  641MOL0     C88381   3.648   0.813   5.332  0.3931 -0.1928  0.4779
  641MOL0     C88382   3.800   0.843   5.352  0.3485 -0.7642  0.0760
  641MOL0     C88383   3.872   0.738   5.431 -0.2790 -0.1881  0.0942
  641MOL0     C88384   4.002   0.800   5.472 -0.0048  0.2396  0.0999
  641MOL0     C88385   4.105   0.849   5.508 -0.3504 -0.1690 -0.4598
  641MOL0     C88386   3.604   0.441   5.115 -0.2392  0.8163  0.0434
  641MOL0     C88387   3.603   0.308   5.067 -0.0344 -0.3786 -0.5537
  641MOL0     C88388   3.466   0.243   5.079  0.2178  0.0778  0.2062
  641MOL0     H88389   3.918   0.144   4.668 -5.3773  0.9230 -2.8578
  641MOL0     H88390   3.928  -0.002   4.468  1.7480 -2.0470 -0.8823
  641MOL0     H88391   4.028  -0.172   4.341 -3.8116  0.0121 -1.5590
  641MOL0     H88392   3.991  -0.331   4.305  3.5770 -1.6721  1.9271
  641MOL0     H88393   4.189  -0.360   4.376 -1.2957 -1.9673  0.0296
  641MOL0     H88394   4.193  -0.218   4.496 -0.7283 -0.1506  0.7274
  641MOL0     H88395   4.077  -0.332   4.654 -0.4727  1.2928 -1.8697
  641MOL0     H88396   4.048  -0.476   4.551 -0.1701 -0.5298 -1.5943
  641MOL0     H88397   4.329  -0.385   4.625  1.0892 -1.2105  0.8272
  641MOL0     H88398   4.235  -0.481   4.731  1.0890 -0.6274  0.4779
  641MOL0     H88399   4.401  -0.558   4.504 -0.4833  1.4335  0.1663
  641MOL0     H88400   4.240  -0.605   4.456 -0.3872 -3.6818  1.3553
  641MOL0     H88401   4.369  -0.783   4.579 -1.7033 -1.4096  0.6010
  641MOL0     H88402   4.371  -0.694   4.720 -1.7325  0.7520  1.0323
  641MOL0     H88403   4.196  -0.878   4.672  3.3835  0.1402 -3.6563
  641MOL0     H88404   4.104  -0.761   4.581  1.1676  1.9619  0.5106
  641MOL0     H88405   4.143  -0.778   4.887  0.8304  0.7410 -0.1703
  641MOL0     H88406   4.098  -0.624   4.795 -2.8259 -0.2659 -5.1164
  641MOL0     H88407   3.979  -0.992   4.736 -1.6516 -0.6813  1.4578
  641MOL0     H88408   3.639  -1.033   4.827 -0.1008 -1.9128 -0.1093
  641MOL0     H88409   3.746  -1.086   4.692  0.7466  0.1221 -1.5326
  641MOL0     H88410   3.503  -0.895   4.664 -1.2582  0.7154 -1.1798
  641MOL0     H88411   3.624  -0.924   4.543 -0.5262 -1.8430 -0.9795
  641MOL0     H88412   3.573  -1.156   4.523  1.0330  0.6906 -0.0689
  641MOL0     H88413   3.472  -1.154   4.664 -0.0986 -0.2471 -0.4576
  641MOL0     H88414   3.340  -1.163   4.476  0.8557 -1.4965  2.5193
  641MOL0     H88415   3.304  -1.014   4.551 -0.7630 -1.3119 -0.1559
  641MOL0     H88416   3.391  -0.869   4.154  0.5202  0.9467  0.7054
  641MOL0     H88417   3.509  -0.897   3.859  0.8646 -2.2867 -0.8617
  641MOL0     H88418   3.339  -0.877   3.919 -1.5786 -0.3946  0.7606
  641MOL0     H88419   3.364  -1.002   3.816 -1.8401  0.2372  1.4277
  641MOL0     H88420   3.435  -1.536   3.696  0.9555 -0.9400  0.2028
  641MOL0     H88421   3.561  -1.674   3.548 -1.0510  0.2197  0.2195
  641MOL0     H88422   3.694  -1.808   3.463 -1.1411  2.0159  1.0445
  641MOL0     H88423   3.778  -1.691   3.363 -1.8885 -1.4839 -1.3545
  641MOL0     H88424   3.914  -1.954   3.453 -0.6351 -2.9767 -3.3057
  641MOL0     H88425   3.883  -1.896   3.291 -2.7856  2.9035  0.5878
  641MOL0     H88426   4.095  -1.771   3.466  0.6377 -2.6953  0.1928
  641MOL0     H88427   4.040  -1.712   3.309 -1.2218 -0.4934 -1.3025
  641MOL0     H88428   4.115  -1.917   3.204 -0.5034  0.6215 -0.2990
  641MOL0     H88429   4.149  -1.983   3.366 -1.6051  0.6423 -0.0589
  641MOL0     H88430   4.271  -1.735   3.238 -1.5095 -1.5675 -0.9832
  641MOL0     H88431   4.322  -1.797   3.401  3.4802 -0.6020 -0.1439
  641MOL0     H88432   4.370  -1.965   3.160  1.6671 -3.3178  1.0811
  641MOL0     H88433   4.411  -1.986   3.332 -0.1672  2.3479  1.6845
  641MOL0     H88434   4.612  -1.906   3.263 -1.1692 -0.3243  0.3171
  641MOL0     H88435   4.533  -1.778   3.337 -1.5207  1.1041 -0.4233
  641MOL0     H88436   4.633  -1.692   3.118 -0.2050  1.3198 -0.7637
  641MOL0     H88437   4.461  -1.688   3.104  0.1371  0.5317 -1.5185
  641MOL0     H88438   3.926  -1.546   3.732  1.1462  1.0364 -1.7461
  641MOL0     H88439   3.782  -1.403   3.895  1.8840 -1.3068 -0.5770
  641MOL0     H88440   3.540  -1.340   4.124  3.3065  1.6729 -0.2069
  641MOL0     H88441   3.491  -1.258   4.335 -1.2263 -3.1900 -2.8422
  641MOL0     H88442   3.779  -0.325   4.702  0.6360  0.1603 -0.3685
  641MOL0     H88443   3.758  -0.167   4.903  5.0460 -2.1523  0.9731
  641MOL0     H88444   3.916   0.316   4.939 -0.9940  1.9226 -1.8476
  641MOL0     H88445   3.915   0.549   5.053  2.1161 -2.0619  0.5208
  641MOL0     H88446   3.514   0.679   5.239  0.7168 -1.1592 -0.7905
  641MOL0     H88447   3.649   0.594   5.341  2.2977  0.1751  0.4343
  641MOL0     H88448   3.591   0.833   5.423  0.1484  0.0779  0.2669
  641MOL0     H88449   3.626   0.891   5.259  0.4651  0.7194  1.4081
  641MOL0     H88450   3.842   0.849   5.251  0.3305  1.4319  0.1346
  641MOL0     H88451   3.808   0.939   5.405 -0.2831 -0.4824 -0.3284
  641MOL0     H88452   3.899   0.650   5.373  4.2226  0.8719  0.2065
  641MOL0     H88453   3.807   0.716   5.516 -0.6763  3.4170  0.9059
  641MOL0     H88454   4.187   0.893   5.561  0.0742 -1.0044 -0.4218
  641MOL0     H88455   3.509   0.471   5.160  0.1600 -0.4601  1.8810
  641MOL0     H88456   3.433   0.203   5.176 -4.3644 -0.2400 -1.2322
  641MOL0     H88457   3.396   0.323   5.054 -0.3191 -0.0722  1.1804
  641MOL0     H88458   3.442   0.158   5.015  0.3013  2.1671 -2.8008
  642MOL0     O88459   2.598   7.927   1.994 -0.6334  0.0103 -0.0447
  642MOL0     C88460   2.576   8.039   1.951 -0.3935 -0.0494  0.3756
  642MOL0     O88461   2.649   8.114   1.858 -0.7121  0.2498  0.2413
  642MOL0     C88462   2.776   8.066   1.840 -0.0371  0.0552  0.1355
  642MOL0     C88463   2.866   8.050   1.943  0.0887  0.5838  0.1915
  642MOL0     C88464   2.996   8.013   1.934  0.0574  0.2394  0.0830
  642MOL0     C88465   3.057   7.987   1.810  1.5523  0.4511 -0.3413
  642MOL0     O88466   3.191   7.978   1.800  0.0773  0.1950  0.1123
  642MOL0     C88467   3.245   7.850   1.798  0.9990 -0.4870  0.2149
  642MOL0     C88468   3.334   7.826   1.679 -0.3568  0.3821  0.9172
  642MOL0     C88469   3.418   7.692   1.694  0.1545  0.5896  0.5458
  642MOL0     C88470   3.547   7.717   1.774  0.0315  0.4950 -0.1503
  642MOL0     C88471   3.589   7.597   1.863  0.1701  0.5141  0.2947
  642MOL0     C88472   3.646   7.479   1.779 -0.2304  0.2891 -0.3850
  642MOL0     C88473   3.789   7.488   1.726  0.1020 -1.1319 -0.1184
  642MOL0     C88474   3.809   7.391   1.604 -0.1649  0.4074  0.0296
  642MOL0     N88475   3.945   7.377   1.556  0.4377 -0.2626 -0.4314
  642MOL0     C88476   4.002   7.423   1.445  0.0565  0.0691 -0.2991
  642MOL0     C88477   4.120   7.365   1.419 -0.2191  0.0659  0.3543
  642MOL0     C88478   4.199   7.370   1.283  0.4090  0.9218 -0.1310
  642MOL0     C88479   4.349   7.392   1.286  0.8902  0.3738 -0.0980
  642MOL0     C88480   4.383   7.542   1.313 -0.4356 -0.4657  0.6501
  642MOL0     C88481   4.545   7.554   1.319 -0.4868 -0.5932 -0.3496
  642MOL0     O88482   4.597   7.564   1.455  0.1470 -0.1286 -0.2097
  642MOL0     C88483   4.732   7.605   1.462 -0.0421  0.1748  0.2414
  642MOL0     C88484   4.786   7.614   1.592 -0.7037 -1.5968 -0.1166
  642MOL0     C88485   4.919   7.635   1.627 -0.0824  0.1910 -0.8710
  642MOL0     C88486   4.954   7.610   1.769  0.3590 -0.6699 -1.3785
  642MOL0     C88487   5.010   7.664   1.524  0.4974  0.0365 -0.0215
  642MOL0     C88488   5.146   7.714   1.552 -0.2216 -0.4039 -0.6475
  642MOL0     O88489   5.165   7.776   1.676  0.7806  0.2511 -0.2133
  642MOL0     C88490   5.275   7.846   1.707  0.3268 -0.2756  0.1597
  642MOL0     C88491   5.373   7.904   1.617  0.3523  0.0665 -0.5662
  642MOL0     C88492   5.485   7.966   1.663 -0.1419 -0.7326 -0.1085
  642MOL0     C88493   5.499   7.990   1.802  0.4104  0.8194  0.0026
  642MOL0     O88494   5.610   8.039   1.867  0.6547 -0.6188  0.3474
  642MOL0     C88495   5.714   8.091   1.776 -0.1814 -0.3197 -0.9051
  642MOL0     C88496   5.819   8.162   1.853 -0.0090  0.1859  0.0397
  642MOL0     C88497   5.930   8.204   1.757 -0.4268  0.3142  0.7669
  642MOL0     C88498   6.032   8.306   1.829 -0.2811  0.0062  0.1214
  642MOL0     C88499   6.158   8.354   1.746 -0.3076  0.7295  0.4345
  642MOL0     C88500   6.215   8.503   1.779  0.7573 -0.4078 -1.0748
  642MOL0     C88501   6.335   8.538   1.688  0.5041  0.7332 -0.1801
  642MOL0     C88502   6.443   8.440   1.694 -0.2308 -0.2505  0.3068
  642MOL0    Cl88503   6.494   8.415   1.857  0.0131  0.2138 -0.2294
  642MOL0     C88504   5.401   7.939   1.888  0.6097 -0.4035  0.0000
  642MOL0     C88505   5.292   7.867   1.841 -0.5211 -1.4278 -0.8876
  642MOL0     O88506   5.229   7.700   1.462  0.0219 -0.3334  0.5471
  642MOL0     C88507   4.965   7.647   1.389  0.8939 -0.6399 -0.2424
  642MOL0     C88508   4.827   7.625   1.363 -0.1581  0.4899  0.5430
  642MOL0     N88509   4.129   7.271   1.515 -0.1956  0.0884  0.0418
  642MOL0     N88510   4.037   7.282   1.602  0.5686 -0.0896 -0.6505
  642MOL0     C88511   2.965   7.988   1.702 -0.0998 -0.0018 -0.9000
  642MOL0     C88512   2.829   8.038   1.715 -0.3589 -1.2332 -0.1127
  642MOL0     C88513   2.472   8.104   2.033  0.9014 -0.4409 -0.0805
  642MOL0     C88514   2.478   8.082   2.170  1.0917  0.1008  0.0861
  642MOL0     C88515   2.378   8.136   2.254  0.4692  0.2224  0.3615
  642MOL0     C88516   2.259   8.197   2.196 -0.4181 -0.7748 -0.1213
  642MOL0     O88517   2.167   8.238   2.290 -0.1413 -0.4720  0.2251
  642MOL0     C88518   2.029   8.239   2.248  0.0678  0.2160  0.9247
  642MOL0     C88519   1.952   8.323   2.343 -0.1754 -0.5225 -1.2465
  642MOL0     C88520   1.961   8.274   2.492 -0.3884 -0.2142 -0.3741
  642MOL0     C88521   1.907   8.365   2.595  0.8320  0.6918  0.0523
  642MOL0     C88522   1.767   8.399   2.565  0.1649 -0.3720 -0.1059
  642MOL0     C88523   1.663   8.443   2.524 -0.5679  0.2010  0.8778
  642MOL0     C88524   2.260   8.221   2.060  0.6770 -0.9149 -0.0136
  642MOL0     C88525   2.361   8.175   1.976  0.7284 -0.5536 -0.6253
  642MOL0     C88526   2.356   8.198   1.829 -0.5087  0.8673 -0.3772
  642MOL0     H88527   2.827   8.071   2.042 -0.5833 -0.1532  0.0918
  642MOL0     H88528   3.063   7.993   2.017 -0.0106 -2.0524 -0.3574
  642MOL0     H88529   3.162   7.779   1.800  1.4046 -0.9487  1.4415
  642MOL0     H88530   3.303   7.820   1.886 -2.1518 -0.3110  2.5142
  642MOL0     H88531   3.263   7.813   1.598 -1.3405 -1.4310  2.0161
  642MOL0     H88532   3.393   7.916   1.657 -0.5966  0.2941 -0.1120
  642MOL0     H88533   3.350   7.617   1.735 -1.3919  2.2532  1.1425
  642MOL0     H88534   3.452   7.654   1.597  0.4996 -0.2682  0.9938
  642MOL0     H88535   3.616   7.751   1.696 -1.0227  0.5806 -1.0714
  642MOL0     H88536   3.525   7.799   1.843 -2.5845 -0.9528  0.8937
  642MOL0     H88537   3.497   7.573   1.918 -0.2906  1.5781  0.0306
  642MOL0     H88538   3.665   7.626   1.936 -1.3631  0.4911  1.9705
  642MOL0     H88539   3.650   7.386   1.836 -1.3742  0.2302 -0.3774
  642MOL0     H88540   3.574   7.464   1.697 -1.6213  2.5463  0.3259
  642MOL0     H88541   3.870   7.481   1.798  1.9549 -0.6645 -2.0484
  642MOL0     H88542   3.790   7.591   1.688 -0.4511 -0.2650  2.0866
  642MOL0     H88543   3.764   7.295   1.630  2.6750 -1.3076 -0.8591
  642MOL0     H88544   3.750   7.420   1.516 -0.8723  0.8198  0.6318
  642MOL0     H88545   3.945   7.498   1.389  2.4593  1.0933 -1.5201
  642MOL0     H88546   4.155   7.451   1.224 -2.3438 -0.0864  0.3846
  642MOL0     H88547   4.173   7.278   1.230 -1.4384  0.1891  1.9078
  642MOL0     H88548   4.407   7.333   1.358  2.2344  1.0476 -0.5827
  642MOL0     H88549   4.378   7.381   1.181  1.8997 -0.3796  0.2426
  642MOL0     H88550   4.345   7.601   1.229 -1.7239  0.2641  1.7217
  642MOL0     H88551   4.336   7.585   1.401 -2.2058 -3.5295  1.3633
  642MOL0     H88552   4.593   7.478   1.257  1.8148  1.0210 -0.6724
  642MOL0     H88553   4.569   7.649   1.269 -1.2253 -0.7396 -1.0072
  642MOL0     H88554   4.716   7.600   1.674 -2.0528 -0.4421 -1.0324
  642MOL0     H88555   4.959   7.695   1.837  1.6176 -0.9076 -1.1497
  642MOL0     H88556   5.050   7.558   1.764 -0.8009 -3.0860 -0.2877
  642MOL0     H88557   4.882   7.535   1.805  0.2104  0.0116 -0.2404
  642MOL0     H88558   5.375   7.889   1.509 -1.3915  1.1818 -0.7951
  642MOL0     H88559   5.565   7.992   1.594 -0.2988 -1.7592 -0.6927
  642MOL0     H88560   5.770   8.015   1.721  1.1411  0.3394 -0.5249
  642MOL0     H88561   5.681   8.168   1.706  1.5929 -1.0902 -2.7106
  642MOL0     H88562   5.783   8.248   1.910  1.6763  0.1989  1.1871
  642MOL0     H88563   5.874   8.105   1.929  0.4264 -1.3521 -1.3650
  642MOL0     H88564   5.889   8.261   1.673  1.0662  1.7315  0.9440
  642MOL0     H88565   5.982   8.117   1.717 -1.0958  0.7101 -1.0699
  642MOL0     H88566   6.054   8.276   1.932  0.4061 -1.9984 -0.5392
  642MOL0     H88567   5.976   8.398   1.844  2.2832  1.7659 -0.4421
  642MOL0     H88568   6.234   8.275   1.750 -1.1737 -0.3067 -1.6588
  642MOL0     H88569   6.123   8.360   1.643 -1.2423  3.2407  0.8254
  642MOL0     H88570   6.259   8.506   1.879  3.1305  1.3140 -2.0758
  642MOL0     H88571   6.130   8.570   1.777  2.0764  1.3789  0.1395
  642MOL0     H88572   6.360   8.638   1.726 -1.4299  1.6387 -1.1461
  642MOL0     H88573   6.304   8.555   1.585 -0.4445  0.3832  0.0376
  642MOL0     H88574   6.529   8.470   1.634  0.0154  1.2405  1.3309
  642MOL0     H88575   6.415   8.344   1.649  1.4400  0.0239 -1.4320
  642MOL0     H88576   5.399   7.940   1.996 -0.2139  2.5548  0.0333
  642MOL0     H88577   5.215   7.827   1.908  0.1585  0.8490  1.4062
  642MOL0     H88578   5.028   7.652   1.301 -1.3692  1.6659 -1.9160
  642MOL0     H88579   4.820   7.609   1.256  1.3396 -0.1670  0.5210
  642MOL0     H88580   3.011   7.964   1.607  2.3245 -0.8307  0.3827
  642MOL0     H88581   2.759   8.039   1.632 -2.3953  0.6890  1.5077
  642MOL0     H88582   2.548   8.015   2.217 -1.5512 -1.4676  2.0341
  642MOL0     H88583   2.398   8.133   2.360  2.0928 -0.1580  0.0771
  642MOL0     H88584   2.018   8.272   2.145 -1.0918 -0.9211  0.6618
  642MOL0     H88585   1.990   8.137   2.242  1.6144 -0.3453 -0.3176
  642MOL0     H88586   1.847   8.326   2.313 -0.5514 -1.2698 -0.0572
  642MOL0     H88587   1.987   8.426   2.337 -1.4558 -0.0773 -1.3804
  642MOL0     H88588   1.914   8.175   2.494  1.3102 -1.0813 -1.2887
  642MOL0     H88589   2.069   8.263   2.504 -0.2326 -0.2981 -1.7236
  642MOL0     H88590   1.961   8.460   2.590  1.8593  0.1305  0.2300
  642MOL0     H88591   1.919   8.324   2.696  1.2448 -0.2242 -0.3654
  642MOL0     H88592   1.579   8.492   2.478  1.9418  2.1232 -2.0516
  642MOL0     H88593   2.176   8.276   2.017 -1.4238 -2.2633  2.0960
  642MOL0     H88594   2.252   8.222   1.806 -1.1171 -0.1665  1.1587
  642MOL0     H88595   2.422   8.279   1.796  3.4990 -1.0989  2.0752
  642MOL0     H88596   2.379   8.102   1.782 -0.6866  0.5882  0.1061
  643MOL0     O88597   4.008   4.023   1.825 -0.0744 -0.3709  0.3102
  643MOL0     C88598   4.082   3.953   1.751 -0.1557 -0.0065  0.2901
  643MOL0     O88599   4.211   3.922   1.782  0.7403 -0.3221  0.5404
  643MOL0     C88600   4.275   3.960   1.897  0.4190 -0.5550  0.2744
  643MOL0     C88601   4.410   3.938   1.902  0.4852  1.1827  0.6739
  643MOL0     C88602   4.489   3.980   2.007 -0.5331 -0.1526 -0.6345
  643MOL0     C88603   4.434   4.058   2.111  0.0425 -0.8728 -0.6589
  643MOL0     O88604   4.504   4.107   2.228 -0.2824 -0.3523  1.0626
  643MOL0     C88605   4.625   4.039   2.273 -0.6336 -0.2181  0.5199
  643MOL0     C88606   4.730   4.137   2.327 -0.3032  0.4710  0.1820
  643MOL0     C88607   4.786   4.227   2.222  0.5177 -0.1465 -0.2791
  643MOL0     C88608   4.901   4.320   2.267 -1.1189  0.0973  0.6702
  643MOL0     C88609   4.959   4.414   2.161 -0.4594  0.6365  0.3555
  643MOL0     C88610   5.054   4.519   2.202 -0.8395  0.5016 -0.2878
  643MOL0     C88611   5.151   4.582   2.095 -0.6399 -0.4463 -0.0931
  643MOL0     C88612   5.250   4.488   2.025 -0.6275 -0.0917  0.3030
  643MOL0     N88613   5.349   4.415   2.115  0.5418 -0.1658  0.4067
  643MOL0     C88614   5.463   4.466   2.165  1.0103 -0.3853 -0.2688
  643MOL0     C88615   5.481   4.395   2.279 -0.8313 -0.2761 -0.2200
  643MOL0     C88616   5.587   4.429   2.390  0.6699 -0.4331 -0.0791
  643MOL0     C88617   5.554   4.393   2.538 -0.0355 -1.0241 -0.2434
  643MOL0     C88618   5.685   4.417   2.616 -0.1472 -0.1468 -0.2343
  643MOL0     C88619   5.660   4.414   2.761  0.0567 -0.3155 -0.6188
  643MOL0     O88620   5.789   4.436   2.822  0.0377 -0.3446 -0.8050
  643MOL0     C88621   5.834   4.376   2.940 -0.9886  0.1360 -0.4809
  643MOL0     C88622   5.978   4.388   2.964  0.6227 -0.1637 -0.7146
  643MOL0     C88623   6.036   4.321   3.071  0.1529  0.4731 -0.1141
  643MOL0     C88624   6.183   4.356   3.100 -0.3844 -1.0875  0.4595
  643MOL0     C88625   5.953   4.232   3.147  0.9489 -0.6275  0.5956
  643MOL0     C88626   6.012   4.135   3.239  0.0966 -0.7417 -1.1027
  643MOL0     O88627   5.964   4.012   3.240 -0.3801  0.3643 -0.4311
  643MOL0     C88628   5.978   3.930   3.352 -1.0648  0.4852 -0.8119
  643MOL0     C88629   5.881   3.869   3.422  0.0536 -0.3311 -0.6655
  643MOL0     C88630   5.906   3.786   3.543 -0.0267  0.6730 -0.4140
  643MOL0     C88631   6.037   3.764   3.581 -0.8243  1.2111 -0.4259
  643MOL0     O88632   6.048   3.695   3.698 -0.1301 -0.3609  0.9432
  643MOL0     C88633   6.177   3.674   3.749  0.0898 -0.0589 -0.7332
  643MOL0     C88634   6.164   3.561   3.840  0.2545  0.4968 -0.3859
  643MOL0     C88635   6.294   3.527   3.903  0.5245  0.0414  0.7013
  643MOL0     C88636   6.277   3.445   4.029 -0.2233 -0.0731 -0.7880
  643MOL0     C88637   6.425   3.428   4.080 -0.3913 -0.7439  0.7442
  643MOL0     C88638   6.448   3.337   4.203  0.3628 -0.2846 -0.3083
  643MOL0     C88639   6.605   3.330   4.224  0.6844  0.9719 -0.4967
  643MOL0     C88640   6.651   3.213   4.312  0.2825  0.8192  0.1754
  643MOL0    Cl88641   6.827   3.189   4.331 -0.1288  0.2014  0.5940
  643MOL0     C88642   6.140   3.804   3.487 -0.5162  0.0554  0.0423
  643MOL0     C88643   6.111   3.886   3.387 -0.4349 -0.8559  1.0337
  643MOL0     O88644   6.100   4.174   3.311  0.0366 -0.0213 -0.1790
  643MOL0     C88645   5.814   4.221   3.125 -0.0588 -0.3078 -0.0090
  643MOL0     C88646   5.755   4.301   3.027  0.1058 -0.3507  0.6325
  643MOL0     N88647   5.388   4.295   2.283 -0.6441 -0.1212  0.3200
  643MOL0     N88648   5.317   4.302   2.180 -0.6160 -0.0188 -0.3047
  643MOL0     C88649   4.295   4.095   2.104  0.3319 -0.1081 -0.2062
  643MOL0     C88650   4.218   4.038   2.005  0.2643  0.4987  0.2671
  643MOL0     C88651   4.024   3.902   1.620  0.2231 -0.1813 -0.6488
  643MOL0     C88652   3.893   3.915   1.592 -0.1459  0.7350  0.6991
  643MOL0     C88653   3.829   3.875   1.472  0.5930  0.4245 -1.2446
  643MOL0     C88654   3.900   3.825   1.374  0.5020  0.8295 -0.4312
  643MOL0     O88655   3.844   3.798   1.251 -0.1682 -1.0466 -0.6380
  643MOL0     C88656   3.920   3.744   1.136  0.1646 -0.6611 -1.1344
  643MOL0     C88657   3.837   3.738   1.011 -0.2110 -0.1384 -0.3418
  643MOL0     C88658   3.807   3.871   0.942  1.0262  0.4798  0.1603
  643MOL0     C88659   3.791   3.872   0.787 -0.2469  0.5756 -0.8628
  643MOL0     C88660   3.714   3.993   0.740  0.1739 -0.6461 -0.3639
  643MOL0     C88661   3.662   4.094   0.694 -0.1509  0.2422 -0.4032
  643MOL0     C88662   4.028   3.778   1.409  0.7554  0.6406  1.3995
  643MOL0     C88663   4.086   3.815   1.532 -0.6770 -0.0251 -0.6552
  643MOL0     C88664   4.226   3.763   1.546  0.6868  0.1039  0.2235
  643MOL0     H88665   4.465   3.878   1.830  2.6484 -0.3644  3.4047
  643MOL0     H88666   4.596   3.972   1.989 -0.5097 -1.8384  0.0710
  643MOL0     H88667   4.660   3.972   2.194 -4.9075 -1.5629 -0.5178
  643MOL0     H88668   4.596   3.972   2.354 -0.4778 -1.2658 -0.2754
  643MOL0     H88669   4.682   4.197   2.404 -0.7542  1.7469 -1.0656
  643MOL0     H88670   4.819   4.091   2.373  1.6086  2.2854 -1.4924
  643MOL0     H88671   4.813   4.174   2.130 -0.0700 -3.6049  1.3574
  643MOL0     H88672   4.703   4.291   2.191 -2.5892 -2.8111  1.8199
  643MOL0     H88673   4.861   4.387   2.343 -3.5618 -2.0784  1.4589
  643MOL0     H88674   4.988   4.272   2.311  0.1070  3.1185  1.7564
  643MOL0     H88675   4.874   4.465   2.115 -0.9352  1.4233  2.0418
  643MOL0     H88676   5.002   4.346   2.086 -1.4353 -2.6838  2.5604
  643MOL0     H88677   4.995   4.602   2.242 -1.5587  0.9695 -2.1923
  643MOL0     H88678   5.116   4.468   2.276 -2.4216 -0.0969  0.6719
  643MOL0     H88679   5.201   4.664   2.149 -1.9199 -0.6342  1.4478
  643MOL0     H88680   5.099   4.639   2.017 -1.5322 -3.3249 -1.7425
  643MOL0     H88681   5.196   4.412   1.968  1.4698 -1.8170  0.5183
  643MOL0     H88682   5.310   4.545   1.954 -1.3265 -0.8719 -0.9698
  643MOL0     H88683   5.514   4.559   2.141  3.3287 -2.1215 -2.5190
  643MOL0     H88684   5.617   4.533   2.375 -1.4041  0.1443 -0.4543
  643MOL0     H88685   5.669   4.368   2.353 -0.2560 -1.2640 -0.7999
  643MOL0     H88686   5.469   4.453   2.573  1.1890  0.2001  0.7346
  643MOL0     H88687   5.515   4.292   2.547 -2.3335 -0.2420 -0.8034
  643MOL0     H88688   5.755   4.339   2.585 -2.3969 -2.3125 -0.2008
  643MOL0     H88689   5.723   4.517   2.596 -0.2701  0.1396  0.8873
  643MOL0     H88690   5.598   4.500   2.788  0.2347  0.6051 -2.9196
  643MOL0     H88691   5.615   4.324   2.802 -0.9769  0.4569 -0.0115
  643MOL0     H88692   6.032   4.458   2.901  0.4910  0.2201 -0.4024
  643MOL0     H88693   6.213   4.339   3.204  0.4201  0.0220  0.4320
  643MOL0     H88694   6.184   4.464   3.083 -0.6395 -0.9147  1.4704
  643MOL0     H88695   6.250   4.315   3.024 -1.7021  1.0118 -1.9852
  643MOL0     H88696   5.778   3.892   3.396 -1.5431 -3.3582  2.2757
  643MOL0     H88697   5.824   3.762   3.609 -1.5464  3.5151 -1.1287
  643MOL0     H88698   6.259   3.659   3.678 -1.6313 -0.3145 -2.7633
  643MOL0     H88699   6.219   3.750   3.817  1.0251 -2.3400  1.3842
  643MOL0     H88700   6.092   3.595   3.915  0.8064  1.3623 -0.2419
  643MOL0     H88701   6.117   3.475   3.792  2.6033 -0.6577 -0.7283
  643MOL0     H88702   6.340   3.621   3.937  0.8716  0.5127 -0.9854
  643MOL0     H88703   6.361   3.477   3.832  1.6050  3.5735 -0.9913
  643MOL0     H88704   6.223   3.350   4.018  0.0416 -0.6971  2.4241
  643MOL0     H88705   6.216   3.490   4.108  0.5401 -1.6930  0.7919
  643MOL0     H88706   6.480   3.388   3.995 -1.7466 -0.4707 -0.3024
  643MOL0     H88707   6.467   3.528   4.096 -1.7741  0.2714 -1.4355
  643MOL0     H88708   6.393   3.244   4.184 -0.1248 -0.4064  1.5548
  643MOL0     H88709   6.416   3.393   4.291 -2.1614  0.3754 -1.5692
  643MOL0     H88710   6.647   3.419   4.272  2.3774 -0.2432  0.3943
  643MOL0     H88711   6.649   3.326   4.124  1.3053  0.0902 -0.2072
  643MOL0     H88712   6.611   3.121   4.268 -0.6131  0.7436  1.1091
  643MOL0     H88713   6.609   3.222   4.412 -2.2562 -0.4407 -0.6973
  643MOL0     H88714   6.248   3.794   3.497  0.1458  3.4756 -2.0547
  643MOL0     H88715   6.198   3.919   3.332 -0.4024 -0.8336  1.0983
  643MOL0     H88716   5.746   4.159   3.182  1.5546 -1.7867  0.4132
  643MOL0     H88717   5.648   4.298   3.008 -0.3964 -0.9808  3.1344
  643MOL0     H88718   4.251   4.154   2.184  2.7386  3.4749 -1.2848
  643MOL0     H88719   4.115   4.063   2.026 -0.1608 -0.1468 -0.9382
  643MOL0     H88720   3.822   3.956   1.664 -2.3703  3.7473 -2.8282
  643MOL0     H88721   3.722   3.889   1.455  0.7269  2.9277 -0.4667
  643MOL0     H88722   4.006   3.810   1.117 -2.6212  3.4611 -0.8163
  643MOL0     H88723   3.954   3.645   1.168  0.9568  0.2918  1.2287
  643MOL0     H88724   3.739   3.693   1.024  0.4077 -2.7055 -3.4043
  643MOL0     H88725   3.886   3.678   0.933 -0.1754 -0.7430  0.1339
  643MOL0     H88726   3.715   3.907   0.988  0.0608  1.4098 -2.3386
  643MOL0     H88727   3.888   3.942   0.959  1.6081 -0.0350 -0.3791
  643MOL0     H88728   3.735   3.785   0.752 -0.1169  0.1395  0.0040
  643MOL0     H88729   3.893   3.867   0.748  1.7591  1.5855  3.6890
  643MOL0     H88730   3.606   4.176   0.652 -1.0396 -0.6013 -0.8911
  643MOL0     H88731   4.076   3.710   1.339  0.3393  0.3752  1.3719
  643MOL0     H88732   4.282   3.845   1.501 -0.3420  0.6943 -0.0260
  643MOL0     H88733   4.271   3.759   1.645  1.0919 -1.7211 -0.0117
  643MOL0     H88734   4.241   3.667   1.497  2.8022 -0.2178  1.3941
  644MOL0     O88735   0.753   1.853   8.885 -0.2189  0.1341  0.2011
  644MOL0     C88736   0.800   1.957   8.931 -0.2456 -0.0342 -0.5646
  644MOL0     O88737   0.898   1.969   9.028 -0.1221  0.0188  0.1707
  644MOL0     C88738   0.966   1.852   9.062  1.2296 -0.3728  0.8727
  644MOL0     C88739   0.945   1.783   9.179 -0.2557  0.6615 -0.3875
  644MOL0     C88740   1.031   1.679   9.216 -0.0618  0.3153  0.1020
  644MOL0     C88741   1.140   1.645   9.123  0.5709 -0.0701  0.5182
  644MOL0     O88742   1.233   1.543   9.147  0.1963  0.6376  0.3550
  644MOL0     C88743   1.209   1.444   9.246  0.3515 -0.2658 -0.7775
  644MOL0     C88744   1.334   1.350   9.252 -0.9110  0.1079 -0.1947
  644MOL0     C88745   1.466   1.424   9.261  0.1302  0.0989 -0.6893
  644MOL0     C88746   1.578   1.326   9.261 -0.3375 -0.0336 -0.6085
  644MOL0     C88747   1.682   1.391   9.165  0.4422 -1.1531 -0.1368
  644MOL0     C88748   1.810   1.303   9.139 -0.6189  0.4623 -0.9716
  644MOL0     C88749   1.907   1.313   9.257 -0.7449  0.7914  0.1471
  644MOL0     C88750   2.047   1.253   9.222 -0.1720 -0.5724 -0.2168
  644MOL0     N88751   2.136   1.227   9.336  0.6973 -0.1506 -0.0910
  644MOL0     C88752   2.102   1.257   9.464  1.0894  0.2175  0.1901
  644MOL0     C88753   2.206   1.217   9.540  0.0192 -0.6189 -0.2518
  644MOL0     C88754   2.199   1.226   9.687 -0.1832  0.5675  0.5510
  644MOL0     C88755   2.257   1.098   9.761 -0.0331  0.6213  0.5595
  644MOL0     C88756   2.333   1.125   9.888 -0.3209 -0.4313 -0.8524
  644MOL0     C88757   2.412   1.006   9.938  0.3094 -0.2635 -0.6045
  644MOL0     O88758   2.517   0.969   9.845 -0.5752  0.4291  0.7590
  644MOL0     C88759   2.639   1.023   9.872 -0.8310 -0.5978  1.0670
  644MOL0     C88760   2.685   1.122   9.964 -0.1693 -0.3941  0.2716
  644MOL0     C88761   2.820   1.153   9.983  0.4167 -0.1180  0.0385
  644MOL0     C88762   2.834   1.255  10.085 -0.5183 -0.6055 -0.5500
  644MOL0     C88763   2.917   1.093   9.906  0.0605 -0.4574  0.1437
  644MOL0     C88764   3.062   1.138   9.904 -0.1300 -0.0495  0.1647
  644MOL0     O88765   3.150   1.064   9.838 -0.0941 -0.0893  0.3181
  644MOL0     C88766   3.266   1.126   9.809 -0.2719 -0.2282  0.0936
  644MOL0     C88767   3.381   1.095   9.887  0.0964 -0.0283  0.2520
  644MOL0     C88768   3.502   1.168   9.882  1.4663 -0.0920  0.6123
  644MOL0     C88769   3.512   1.260   9.780 -0.3405 -0.3380 -0.1896
  644MOL0     O88770   3.635   1.330   9.778  0.0641 -0.6898 -0.4042
  644MOL0     C88771   3.631   1.446   9.698  1.1452 -0.3124  0.7975
  644MOL0     C88772   3.756   1.524   9.728  0.0275  0.3329  0.0325
  644MOL0     C88773   3.882   1.456   9.667 -0.4648 -0.4969 -0.2933
  644MOL0     C88774   4.009   1.543   9.700  0.2870  0.1326  0.1185
  644MOL0     C88775   4.140   1.480   9.648 -0.0857 -0.4506 -0.4120
  644MOL0     C88776   4.267   1.546   9.703  0.0948  0.2508  0.0511
  644MOL0     C88777   4.387   1.458   9.649  0.2341 -0.2834  0.4597
  644MOL0     C88778   4.515   1.520   9.708 -0.5327  0.7095 -0.7863
  644MOL0    Cl88779   4.554   1.435   9.848  0.2186 -0.0390 -0.1635
  644MOL0     C88780   3.395   1.292   9.699 -0.2018 -0.4015  0.3115
  644MOL0     C88781   3.278   1.224   9.711  1.6972 -1.1261  0.2058
  644MOL0     O88782   3.083   1.248   9.954 -0.6121  0.0217 -0.4537
  644MOL0     C88783   2.876   1.008   9.802  0.0204 -0.4985 -0.0005
  644MOL0     C88784   2.737   0.970   9.793 -0.0565  0.6071  0.3145
  644MOL0     N88785   2.302   1.161   9.454  0.4187  1.0550 -0.3418
  644MOL0     N88786   2.257   1.169   9.329  0.3174  0.1483 -0.2845
  644MOL0     C88787   1.161   1.714   9.002  0.7111  0.0580  0.0408
  644MOL0     C88788   1.068   1.821   8.973 -0.0512 -0.5334 -0.0820
  644MOL0     C88789   0.758   2.087   8.876 -0.5839 -0.5902  0.0114
  644MOL0     C88790   0.824   2.135   8.759  0.1287  0.1360  0.3823
  644MOL0     C88791   0.784   2.265   8.710 -0.5501  0.3337 -0.1813
  644MOL0     C88792   0.673   2.327   8.755 -0.3516  0.0685 -1.1956
  644MOL0     O88793   0.631   2.432   8.680 -0.6656  0.4480 -0.1341
  644MOL0     C88794   0.497   2.469   8.701 -0.1779  0.6575 -0.9464
  644MOL0     C88795   0.472   2.574   8.590  0.1079  0.0258  0.5073
  644MOL0     C88796   0.427   2.719   8.633 -0.1419 -0.0362 -0.1374
  644MOL0     C88797   0.390   2.811   8.507  0.0264  0.5928 -0.4304
  644MOL0     C88798   0.498   2.855   8.406  0.0025 -0.5282  0.2966
  644MOL0     C88799   0.580   2.900   8.331 -0.2398  0.1278 -0.1731
  644MOL0     C88800   0.609   2.268   8.863 -0.0827 -0.1425 -0.4227
  644MOL0     C88801   0.653   2.155   8.930 -0.2269 -0.3622 -0.3617
  644MOL0     C88802   0.581   2.100   9.055 -0.0892 -0.0238  0.2218
  644MOL0     H88803   0.878   1.817   9.257 -0.3105  1.7274 -0.8827
  644MOL0     H88804   1.009   1.635   9.313 -1.8660  1.5108  0.2885
  644MOL0     H88805   1.119   1.390   9.216 -0.5632  1.9396 -2.2041
  644MOL0     H88806   1.192   1.503   9.337 -2.2204 -1.1520 -0.6268
  644MOL0     H88807   1.326   1.282   9.337  2.1964  2.8617  2.6394
  644MOL0     H88808   1.344   1.295   9.158 -0.2324 -0.6153  0.2923
  644MOL0     H88809   1.482   1.502   9.185 -1.0040  0.3693 -0.6720
  644MOL0     H88810   1.475   1.478   9.356 -0.4071 -1.2411  0.1423
  644MOL0     H88811   1.612   1.320   9.365 -2.3186 -1.6171  0.0323
  644MOL0     H88812   1.546   1.223   9.241 -0.7579 -0.2272  0.9745
  644MOL0     H88813   1.712   1.495   9.180  0.7357 -0.4964 -4.2738
  644MOL0     H88814   1.633   1.394   9.067  2.1392 -0.2468 -0.9896
  644MOL0     H88815   1.772   1.202   9.117  0.7815 -1.1698  2.9697
  644MOL0     H88816   1.864   1.342   9.053  2.0104 -3.7941 -1.5736
  644MOL0     H88817   1.867   1.262   9.346  1.0363  1.0826  1.1490
  644MOL0     H88818   1.928   1.418   9.278 -0.3747  1.1739 -1.9529
  644MOL0     H88819   2.030   1.164   9.160  0.8963  0.5007 -2.1272
  644MOL0     H88820   2.108   1.318   9.159  0.7335 -0.8332  0.3823
  644MOL0     H88821   2.009   1.301   9.499  1.9752  1.2689  1.2727
  644MOL0     H88822   2.094   1.233   9.715 -0.4793 -2.4864  0.5542
  644MOL0     H88823   2.259   1.307   9.729  0.3670  0.6167 -0.3030
  644MOL0     H88824   2.170   1.039   9.788 -0.6131  1.2740  0.1462
  644MOL0     H88825   2.310   1.044   9.683  1.1252  1.3291  0.8245
  644MOL0     H88826   2.386   1.220   9.876 -2.3231  0.8089 -0.2553
  644MOL0     H88827   2.254   1.142   9.962 -0.1182  1.6979 -1.0540
  644MOL0     H88828   2.450   1.026  10.039 -1.8949 -0.1261  0.2377
  644MOL0     H88829   2.355   0.913   9.945 -1.6071  0.8912 -0.2448
  644MOL0     H88830   2.608   1.182  10.011 -0.3041 -2.6910  3.2338
  644MOL0     H88831   2.805   1.347  10.035  0.9613 -1.9737 -4.2922
  644MOL0     H88832   2.937   1.260  10.124 -0.1237  1.1852 -1.6899
  644MOL0     H88833   2.766   1.232  10.168 -2.1083  3.0939 -0.6610
  644MOL0     H88834   3.364   1.021   9.964 -2.6672 -2.3224 -2.3548
  644MOL0     H88835   3.592   1.145   9.938  3.9337  2.9384 -1.7481
  644MOL0     H88836   3.621   1.425   9.592 -4.1980  0.5563  0.8407
  644MOL0     H88837   3.545   1.506   9.729  1.0929 -0.8296  1.7254
  644MOL0     H88838   3.738   1.629   9.703 -1.6830 -0.2871 -1.5457
  644MOL0     H88839   3.766   1.525   9.837 -2.8796 -0.6207  0.3944
  644MOL0     H88840   3.865   1.448   9.559  0.1625  1.0028 -0.5275
  644MOL0     H88841   3.883   1.355   9.709  2.5942 -0.6006 -0.4365
  644MOL0     H88842   4.010   1.550   9.809 -0.2600 -2.0747  0.3264
  644MOL0     H88843   3.983   1.643   9.666  1.2646 -0.0614 -1.3111
  644MOL0     H88844   4.134   1.372   9.663 -2.8638 -0.5841 -1.8167
  644MOL0     H88845   4.151   1.485   9.539 -1.6569  0.7990 -0.5427
  644MOL0     H88846   4.251   1.548   9.811 -3.5376  1.9378 -0.3653
  644MOL0     H88847   4.260   1.652   9.679 -2.1293  0.3779  1.0258
  644MOL0     H88848   4.388   1.460   9.540 -1.8855 -0.3441  0.4053
  644MOL0     H88849   4.369   1.357   9.686  0.2328  0.0749  1.4764
  644MOL0     H88850   4.505   1.627   9.729 -1.0975  0.6153 -0.5677
  644MOL0     H88851   4.598   1.517   9.637 -1.2164  1.2868 -1.6363
  644MOL0     H88852   3.407   1.361   9.617  1.4897 -1.1785 -0.1452
  644MOL0     H88853   3.188   1.250   9.656  0.9090  0.5982  2.2157
  644MOL0     H88854   2.956   0.976   9.736  0.8670  0.8401  0.3255
  644MOL0     H88855   2.723   0.896   9.715  1.1732  1.8363 -1.1475
  644MOL0     H88856   1.245   1.686   8.940  2.6983  2.1695  1.6080
  644MOL0     H88857   1.093   1.882   8.887 -0.5622  2.3501  1.6853
  644MOL0     H88858   0.912   2.080   8.727  1.0216  2.9401 -2.5747
  644MOL0     H88859   0.837   2.319   8.632 -1.2823  0.6997 -0.4369
  644MOL0     H88860   0.422   2.391   8.687 -0.3100  0.5218  0.4252
  644MOL0     H88861   0.481   2.514   8.799  2.9515 -1.3287  0.6481
  644MOL0     H88862   0.395   2.524   8.530 -0.2039  0.8745  0.1832
  644MOL0     H88863   0.553   2.595   8.520 -0.5529 -2.8243 -1.2534
  644MOL0     H88864   0.351   2.707   8.711  0.0358 -0.8959 -0.0846
  644MOL0     H88865   0.517   2.770   8.669 -1.5289  1.5435  1.3053
  644MOL0     H88866   0.335   2.894   8.551 -1.3066 -1.9295  3.1998
  644MOL0     H88867   0.315   2.772   8.437  0.3656  2.5459 -1.9595
  644MOL0     H88868   0.657   2.942   8.269 -0.3587 -1.4000 -1.3913
  644MOL0     H88869   0.529   2.318   8.916  0.6104  1.2956 -0.6902
  644MOL0     H88870   0.655   2.089   9.133  0.2202  0.7073  0.0444
  644MOL0     H88871   0.506   2.170   9.094  0.4064 -0.3630  1.8131
  644MOL0     H88872   0.531   2.008   9.023  2.8436 -1.0049 -1.9408
  645MOL0     O88873  10.574   5.124   1.548 -0.2454 -0.4071  0.3813
  645MOL0     C88874  10.510   5.026   1.569  0.1014 -0.4125 -0.0110
  645MOL0     O88875  10.536   4.933   1.665 -0.5028 -0.2628  0.0760
  645MOL0     C88876  10.640   4.967   1.748 -0.3633  0.2544 -0.3204
  645MOL0     C88877  10.755   4.878   1.751 -0.4834  0.1672  0.2454
  645MOL0     C88878  10.858   4.898   1.842 -0.0580 -1.2528  0.7723
  645MOL0     C88879  10.852   5.015   1.929 -0.0911  0.3751  1.2013
  645MOL0     O88880  10.948   5.016   2.030 -0.5470  0.2611  0.5791
  645MOL0     C88881  11.075   5.051   1.969 -0.1193 -0.6792 -0.0791
  645MOL0     C88882  11.112   5.202   1.979 -0.2254 -0.0112  0.0512
  645MOL0     C88883  11.129   5.248   2.118 -0.0962 -0.8124  0.4050
  645MOL0     C88884  11.191   5.391   2.111  0.7070  0.5246  0.4002
  645MOL0     C88885  11.178   5.433   2.255  0.4316 -0.2762 -0.0881
  645MOL0     C88886  11.231   5.578   2.270  0.0361  0.5819  1.4272
  645MOL0     C88887  11.223   5.638   2.414 -0.3775  0.9880 -0.2152
  645MOL0     C88888  11.363   5.605   2.470  0.3666 -0.8765  0.5257
  645MOL0     N88889  11.400   5.696   2.581 -0.3702 -1.0479  0.5905
  645MOL0     C88890  11.425   5.644   2.707  0.7550 -0.0812 -0.4416
  645MOL0     C88891  11.435   5.758   2.777  0.5013 -1.1800  0.6022
  645MOL0     C88892  11.471   5.751   2.928 -0.5457  0.5772 -0.4206
  645MOL0     C88893  11.616   5.787   2.963  0.2041 -0.4893 -0.3117
  645MOL0     C88894  11.698   5.663   2.942 -0.5429 -0.0109  0.1053
  645MOL0     C88895  11.837   5.679   3.009 -0.4290  1.1348 -0.0423
  645MOL0     O88896  11.928   5.563   3.002  0.0803 -0.2519 -0.0466
  645MOL0     C88897  12.065   5.585   3.021 -0.3195 -0.5270  0.6512
  645MOL0     C88898  12.113   5.705   3.088  0.5447  0.3298  0.3694
  645MOL0     C88899  12.247   5.745   3.098 -0.4015  0.9789 -0.3750
  645MOL0     C88900  12.286   5.857   3.195  0.2058  0.1241 -0.2847
  645MOL0     C88901  12.342   5.665   3.029 -0.1974 -0.2595 -0.0299
  645MOL0     C88902  12.486   5.702   3.021  0.2854 -0.5397  0.4901
  645MOL0     O88903  12.566   5.602   2.960 -0.1682 -0.1483 -0.3582
  645MOL0     C88904  12.703   5.612   2.935 -0.3822  0.9084  0.0876
  645MOL0     C88905  12.760   5.568   2.817 -0.4512 -0.8615 -0.1278
  645MOL0     C88906  12.897   5.573   2.786 -0.8786 -0.4296 -0.3414
  645MOL0     C88907  12.985   5.614   2.888  0.8346  0.5244 -0.2689
  645MOL0     O88908  13.120   5.600   2.863 -0.3505 -0.3214 -0.1567
  645MOL0     C88909  13.215   5.565   2.966 -0.7718  0.1223 -0.2361
  645MOL0     C88910  13.338   5.486   2.901  0.3595  0.4459 -0.8731
  645MOL0     C88911  13.421   5.436   3.021  0.1798 -0.9576  0.0756
  645MOL0     C88912  13.568   5.461   2.998  0.0137 -0.0216  0.1711
  645MOL0     C88913  13.651   5.454   3.130 -0.0990 -0.3310  0.8377
  645MOL0     C88914  13.805   5.490   3.110  0.0440  0.6325 -0.4984
  645MOL0     C88915  13.829   5.640   3.069  0.0814 -0.2902 -0.0420
  645MOL0     C88916  13.983   5.666   3.057  0.0267 -0.4079  0.9390
  645MOL0    Cl88917  14.033   5.575   2.905  0.1327 -0.0886 -0.2393
  645MOL0     C88918  12.935   5.664   3.006  0.7451 -0.7018 -0.2359
  645MOL0     C88919  12.794   5.664   3.030  0.1996 -0.0146  0.3247
  645MOL0     O88920  12.528   5.812   3.054 -0.2120  0.1778 -0.0557
  645MOL0     C88921  12.299   5.540   2.978  0.6404  0.6717 -0.4206
  645MOL0     C88922  12.163   5.502   2.977 -0.5232  0.1888  0.3870
  645MOL0     N88923  11.424   5.879   2.703 -0.1530  0.7370  0.0379
  645MOL0     N88924  11.404   5.833   2.580  0.0227 -0.2941 -0.6259
  645MOL0     C88925  10.737   5.096   1.928  0.0776 -0.3487  0.2111
  645MOL0     C88926  10.636   5.072   1.837 -0.6658  0.4163  0.2353
  645MOL0     C88927  10.385   4.998   1.487 -0.0693 -0.4013  0.2585
  645MOL0     C88928  10.327   4.866   1.488 -0.0412  0.0419 -0.0810
  645MOL0     C88929  10.209   4.838   1.423  0.2383 -0.3370  0.9537
  645MOL0     C88930  10.151   4.927   1.330  0.5987  0.6367 -0.0786
  645MOL0     O88931  10.041   4.886   1.259 -0.5141 -0.9556 -0.4475
  645MOL0     C88932   9.976   4.977   1.169 -0.1653 -0.6874  0.1904
  645MOL0     C88933  10.075   5.002   1.052 -0.2093  0.1205  1.7383
  645MOL0     C88934  10.031   5.131   0.973  0.8860 -0.3096  0.4812
  645MOL0     C88935  10.139   5.192   0.878 -0.3595 -0.4024  0.5161
  645MOL0     C88936  10.281   5.195   0.931  0.6406  0.2024  0.2557
  645MOL0     C88937  10.390   5.184   0.980 -0.4778 -0.5434 -0.1862
  645MOL0     C88938  10.208   5.061   1.338  1.2925 -0.2384 -0.4599
  645MOL0     C88939  10.313   5.097   1.416  0.4843 -1.6066 -0.0613
  645MOL0     C88940  10.351   5.240   1.398  0.3653 -0.1788 -0.1955
  645MOL0     H88941  10.762   4.787   1.692 -2.6313 -0.3365  0.6684
  645MOL0     H88942  10.940   4.828   1.854  0.0257 -1.2382  0.2935
  645MOL0     H88943  11.093   5.002   1.873 -3.6298 -1.9967 -0.2341
  645MOL0     H88944  11.142   4.996   2.035 -1.9838 -1.3036  1.3923
  645MOL0     H88945  11.204   5.219   1.922 -1.2886 -2.5277 -2.6480
  645MOL0     H88946  11.041   5.265   1.926 -0.0072 -0.2209 -0.4942
  645MOL0     H88947  11.037   5.238   2.175 -0.5157 -0.1180 -0.1351
  645MOL0     H88948  11.192   5.179   2.176 -0.9806 -3.1890 -1.3337
  645MOL0     H88949  11.295   5.395   2.078  0.6193 -0.5175 -0.0435
  645MOL0     H88950  11.149   5.466   2.044 -2.3744 -1.7989 -0.4498
  645MOL0     H88951  11.227   5.361   2.321 -1.9682 -2.4109 -0.4728
  645MOL0     H88952  11.073   5.439   2.286 -0.1256  1.1888 -2.0355
  645MOL0     H88953  11.332   5.580   2.230 -0.6253  1.4116 -0.2944
  645MOL0     H88954  11.165   5.638   2.206  0.6056 -0.7118 -0.4642
  645MOL0     H88955  11.147   5.589   2.476 -1.9937  2.4202 -0.9887
  645MOL0     H88956  11.201   5.745   2.408 -0.0026  1.0562 -0.3954
  645MOL0     H88957  11.387   5.502   2.496  1.7221 -0.4564  1.0065
  645MOL0     H88958  11.437   5.625   2.392  1.8856 -0.5827  1.9879
  645MOL0     H88959  11.446   5.541   2.732  2.0721 -0.9766 -4.5225
  645MOL0     H88960  11.448   5.650   2.962  2.6109  0.1531  0.7437
  645MOL0     H88961  11.410   5.820   2.986 -0.3314 -0.0288  0.5444
  645MOL0     H88962  11.654   5.876   2.911  1.8988  0.0480  1.7339
  645MOL0     H88963  11.615   5.831   3.063  0.5915  4.2212 -2.1264
  645MOL0     H88964  11.644   5.576   2.981 -2.6264  1.6141  1.0401
  645MOL0     H88965  11.710   5.653   2.833 -2.9428  1.7690 -0.4121
  645MOL0     H88966  11.880   5.760   2.949 -1.6426  0.7871 -1.4409
  645MOL0     H88967  11.824   5.699   3.115  0.9681  1.3433  0.1169
  645MOL0     H88968  12.038   5.762   3.143 -4.6699 -2.7153 -2.7587
  645MOL0     H88969  12.201   5.871   3.262  0.2071  2.6496 -0.7250
  645MOL0     H88970  12.316   5.950   3.146  2.0803  0.6783  1.7795
  645MOL0     H88971  12.380   5.833   3.245  2.1424  3.3002 -2.0710
  645MOL0     H88972  12.696   5.525   2.741 -0.4641  0.3291 -0.8138
  645MOL0     H88973  12.922   5.535   2.687 -0.1289 -1.0775  0.0877
  645MOL0     H88974  13.259   5.646   3.025  1.1443 -2.3390  1.9661
  645MOL0     H88975  13.172   5.508   3.049  0.0644  1.5552  1.2372
  645MOL0     H88976  13.303   5.411   2.830 -1.0154  0.9321 -0.7416
  645MOL0     H88977  13.405   5.561   2.858 -0.1986  0.8885 -0.9704
  645MOL0     H88978  13.415   5.329   3.043  0.7974 -0.8895  0.5899
  645MOL0     H88979  13.388   5.491   3.110  0.1494  2.5902 -1.9536
  645MOL0     H88980  13.582   5.559   2.952  1.6341 -0.3508 -0.1275
  645MOL0     H88981  13.612   5.388   2.929 -1.2735 -0.8547  0.1954
  645MOL0     H88982  13.602   5.513   3.207  0.8760  2.0259 -0.2532
  645MOL0     H88983  13.638   5.350   3.161 -0.7689 -1.9371 -3.9794
  645MOL0     H88984  13.840   5.422   3.032  0.4976  1.5089 -1.0737
  645MOL0     H88985  13.860   5.476   3.204  0.8581  3.3941 -0.4815
  645MOL0     H88986  13.791   5.699   3.153  1.4375  0.5596  0.0099
  645MOL0     H88987  13.773   5.667   2.979 -0.5960  1.4933  0.8707
  645MOL0     H88988  14.047   5.632   3.139  3.7958 -1.1459 -2.0104
  645MOL0     H88989  14.001   5.772   3.038  2.7050 -0.5254  2.2547
  645MOL0     H88990  13.001   5.701   3.083  0.2323  0.6298 -0.4130
  645MOL0     H88991  12.755   5.693   3.127 -1.9261  1.6358 -0.9340
  645MOL0     H88992  12.363   5.468   2.928  0.9143  1.3949 -1.1379
  645MOL0     H88993  12.126   5.409   2.936 -1.8172  0.1516  1.5431
  645MOL0     H88994  10.740   5.181   1.995  1.5380 -0.3208  0.1296
  645MOL0     H88995  10.544   5.129   1.843 -2.0122 -1.4660 -1.3858
  645MOL0     H88996  10.372   4.794   1.555  1.2023  1.5377  0.7500
  645MOL0     H88997  10.161   4.741   1.426 -1.4778  0.3167 -1.7441
  645MOL0     H88998   9.894   4.920   1.124 -0.3728  0.3426 -0.7676
  645MOL0     H88999   9.952   5.074   1.211 -1.4594  0.6954 -3.3450
  645MOL0     H89000  10.077   4.921   0.979  2.0949 -0.8711  2.8142
  645MOL0     H89001  10.176   5.015   1.093 -0.0797 -1.2666  1.9067
  645MOL0     H89002   9.940   5.126   0.912  0.2414  1.1630  1.2674
  645MOL0     H89003  10.018   5.213   1.044 -3.6730 -0.2912 -0.1091
  645MOL0     H89004  10.113   5.296   0.856 -4.3802 -1.7793 -2.2789
  645MOL0     H89005  10.146   5.137   0.784 -4.1912  0.1788 -0.2693
  645MOL0     H89006  10.494   5.186   1.007 -0.3950  3.2799 -0.2412
  645MOL0     H89007  10.172   5.124   1.258 -1.3355 -1.4580 -0.3249
  645MOL0     H89008  10.362   5.275   1.501 -2.6844 -2.2107  0.9252
  645MOL0     H89009  10.433   5.248   1.325 -1.2854 -1.0862 -2.2506
  645MOL0     H89010  10.268   5.284   1.342  0.4842 -4.1851 -4.0995
  646MOL0     O89011   4.340   4.279   7.593  0.0113 -0.2091 -0.0805
  646MOL0     C89012   4.217   4.271   7.586  0.6864 -0.2474 -0.3903
  646MOL0     O89013   4.147   4.292   7.469 -0.7957 -0.2752  0.2354
  646MOL0     C89014   4.212   4.318   7.352  1.2539  0.1588  0.2077
  646MOL0     C89015   4.214   4.219   7.252  0.0626  0.3581  0.1971
  646MOL0     C89016   4.273   4.247   7.134 -0.8428 -1.0124 -0.6662
  646MOL0     C89017   4.341   4.367   7.109  0.0894 -0.4568 -0.1231
  646MOL0     O89018   4.407   4.400   6.992  0.1525  0.1809  0.4507
  646MOL0     C89019   4.376   4.339   6.863 -0.3293  0.6616 -0.5126
  646MOL0     C89020   4.394   4.437   6.753  0.1094 -0.0802 -0.5274
  646MOL0     C89021   4.373   4.367   6.620  0.0238 -0.2329 -0.1928
  646MOL0     C89022   4.404   4.474   6.516 -0.0357 -0.1621  1.1556
  646MOL0     C89023   4.380   4.416   6.374  0.0682  0.3202  0.1265
  646MOL0     C89024   4.376   4.521   6.259  1.2973 -0.3083  0.0222
  646MOL0     C89025   4.517   4.543   6.218  0.1678 -0.5301  0.3197
  646MOL0     C89026   4.534   4.646   6.106  0.1774 -0.4981  0.0169
  646MOL0     N89027   4.450   4.606   5.987 -0.4533 -0.4630  0.0007
  646MOL0     C89028   4.324   4.656   5.958  0.6443  1.4775 -0.3095
  646MOL0     C89029   4.284   4.568   5.864  0.1272  0.6920 -0.4076
  646MOL0     C89030   4.147   4.560   5.797  0.2448  0.0912 -0.6553
  646MOL0     C89031   4.032   4.618   5.883  0.1371 -0.5577 -0.5427
  646MOL0     C89032   4.003   4.526   6.004  0.1075  0.1514 -0.0323
  646MOL0     C89033   3.870   4.556   6.072 -0.4568 -0.4428 -0.3072
  646MOL0     O89034   3.768   4.511   5.991  0.6758  0.7076  0.2528
  646MOL0     C89035   3.640   4.560   6.028 -0.3307 -0.3183  0.3616
  646MOL0     C89036   3.541   4.504   5.954  0.5049  0.4931  0.2522
  646MOL0     C89037   3.406   4.541   5.959  0.3424  0.0454 -0.1038
  646MOL0     C89038   3.313   4.460   5.866 -0.4737 -0.2616 -1.6122
  646MOL0     C89039   3.365   4.651   6.034  0.0066 -0.0360  0.1862
  646MOL0     C89040   3.237   4.721   6.026  0.0633 -1.0242  0.1895
  646MOL0     O89041   3.156   4.705   5.914 -1.0927  0.9495  0.7496
  646MOL0     C89042   3.019   4.700   5.930 -0.1884 -0.9600  0.6298
  646MOL0     C89043   2.952   4.665   6.040 -0.0516 -0.5185 -0.1172
  646MOL0     C89044   2.809   4.685   6.045  0.4400 -0.6505  0.0776
  646MOL0     C89045   2.736   4.741   5.937 -0.5126 -0.2139  0.0829
  646MOL0     O89046   2.606   4.782   5.936 -0.2341  0.9546  0.5769
  646MOL0     C89047   2.519   4.702   6.019  0.2438 -0.9221 -0.5408
  646MOL0     C89048   2.382   4.701   5.940 -0.1966 -0.4933 -0.0073
  646MOL0     C89049   2.339   4.848   5.899 -0.1346  0.3265  0.3682
  646MOL0     C89050   2.211   4.860   5.813  0.2128 -0.0640 -0.1667
  646MOL0     C89051   2.169   5.006   5.798 -0.2853 -0.0869 -0.1195
  646MOL0     C89052   2.102   5.055   5.932 -0.5480  0.4183  0.1482
  646MOL0     C89053   1.990   5.150   5.912  0.2622  0.4455  0.4980
  646MOL0     C89054   1.942   5.218   6.051  0.0099 -0.1700 -0.8035
  646MOL0    Cl89055   1.824   5.351   6.003 -0.0297 -0.0362  0.4965
  646MOL0     C89056   2.812   4.763   5.817  0.4097  0.1952  0.4366
  646MOL0     C89057   2.947   4.736   5.817  0.5674  0.0384  0.1749
  646MOL0     O89058   3.215   4.805   6.110 -0.0105 -0.5107  0.1813
  646MOL0     C89059   3.458   4.690   6.138  0.6225  0.7691 -0.7158
  646MOL0     C89060   3.596   4.644   6.133  0.5216  0.5704 -0.3483
  646MOL0     N89061   4.386   4.480   5.840 -0.2095  0.0835 -0.5721
  646MOL0     N89062   4.491   4.507   5.903  0.3714 -0.1656 -0.0577
  646MOL0     C89063   4.349   4.463   7.209  0.1059 -0.2624  0.5520
  646MOL0     C89064   4.286   4.435   7.329 -0.1427 -0.1429 -0.7677
  646MOL0     C89065   4.132   4.244   7.699  0.7597  0.1342 -0.8315
  646MOL0     C89066   3.997   4.277   7.694 -0.3990 -0.4679 -0.5597
  646MOL0     C89067   3.911   4.253   7.800  0.1043  0.0910 -0.4419
  646MOL0     C89068   3.956   4.214   7.922  0.2343  0.8313 -0.0216
  646MOL0     O89069   3.866   4.213   8.026 -0.3269  0.0500 -0.0522
  646MOL0     C89070   3.900   4.289   8.147 -0.0703 -0.3451  0.5260
  646MOL0     C89071   3.961   4.204   8.259  0.0626  0.2511 -0.2278
  646MOL0     C89072   3.967   4.271   8.391 -0.1117  0.4397 -0.2048
  646MOL0     C89073   4.005   4.175   8.512 -0.1767 -0.3808  0.1029
  646MOL0     C89074   3.977   4.234   8.645  0.3691  0.1920 -0.8365
  646MOL0     C89075   3.951   4.285   8.752  0.9205 -0.8541  1.2023
  646MOL0     C89076   4.094   4.178   7.937 -0.5616 -0.1472 -0.3033
  646MOL0     C89077   4.182   4.190   7.828 -0.1152 -0.4756  0.5735
  646MOL0     C89078   4.322   4.162   7.854 -0.5192  0.5874 -0.2215
  646MOL0     H89079   4.166   4.122   7.262  0.8950 -0.3262 -1.9538
  646MOL0     H89080   4.264   4.168   7.060 -3.0915 -0.7211 -0.7655
  646MOL0     H89081   4.280   4.286   6.864  0.0829 -0.1034 -0.3900
  646MOL0     H89082   4.442   4.252   6.853 -0.2584  0.3774  1.8344
  646MOL0     H89083   4.329   4.522   6.778  3.8725  2.3786  2.1016
  646MOL0     H89084   4.498   4.471   6.751  0.4025 -0.4959  2.5524
  646MOL0     H89085   4.442   4.284   6.602 -1.1127 -1.4930  0.9418
  646MOL0     H89086   4.269   4.339   6.603 -0.4780  1.4161  0.0350
  646MOL0     H89087   4.343   4.564   6.521  0.4784  0.2936 -0.2063
  646MOL0     H89088   4.509   4.500   6.530 -0.3328  0.5087  2.2584
  646MOL0     H89089   4.279   4.377   6.385  0.2012  0.4137  2.2022
  646MOL0     H89090   4.447   4.332   6.356 -0.8397 -0.0117 -1.9697
  646MOL0     H89091   4.316   4.479   6.178 -1.1855  0.2765  1.4313
  646MOL0     H89092   4.321   4.611   6.290  1.1398 -0.5278  0.3884
  646MOL0     H89093   4.556   4.443   6.199  0.2701 -0.3796 -0.2959
  646MOL0     H89094   4.575   4.578   6.303 -0.8317  1.5776  0.2005
  646MOL0     H89095   4.498   4.741   6.145 -0.5431 -1.1819  1.0627
  646MOL0     H89096   4.639   4.650   6.074  0.1057  1.9810 -0.0739
  646MOL0     H89097   4.254   4.718   6.013  0.2291  1.6154 -0.9912
  646MOL0     H89098   4.116   4.462   5.760 -1.5462  0.5424 -0.4453
  646MOL0     H89099   4.148   4.618   5.704  0.1982  0.4006 -0.4642
  646MOL0     H89100   4.039   4.720   5.924 -2.0618 -1.2482  1.8440
  646MOL0     H89101   3.941   4.625   5.823  0.1596  0.6037 -0.4646
  646MOL0     H89102   4.015   4.421   5.973 -2.1600 -0.9667  2.4158
  646MOL0     H89103   4.065   4.546   6.092  0.8734  0.5227 -0.6401
  646MOL0     H89104   3.868   4.505   6.169 -1.3548 -0.7142 -0.4591
  646MOL0     H89105   3.880   4.664   6.074 -2.6032 -0.2136  1.3713
  646MOL0     H89106   3.564   4.436   5.873  0.2806  0.3645  0.2951
  646MOL0     H89107   3.215   4.446   5.913  0.2498 -0.5794 -0.1308
  646MOL0     H89108   3.344   4.357   5.848  0.4497 -0.3709  0.2980
  646MOL0     H89109   3.290   4.511   5.772 -2.7143  0.5805 -0.6856
  646MOL0     H89110   3.000   4.611   6.121  1.1662 -0.2432 -0.6313
  646MOL0     H89111   2.763   4.650   6.137  1.0846 -0.1017  0.6249
  646MOL0     H89112   2.548   4.597   6.028  0.9175 -0.5846  2.4102
  646MOL0     H89113   2.509   4.753   6.115 -1.5112 -0.2937 -1.0254
  646MOL0     H89114   2.381   4.637   5.852 -1.6619 -4.6326  2.6923
  646MOL0     H89115   2.314   4.647   6.008 -1.0337 -3.2004 -2.7751
  646MOL0     H89116   2.412   4.907   5.843 -0.7618  0.5769 -0.2086
  646MOL0     H89117   2.336   4.901   5.995  1.6223 -3.6449  2.8320
  646MOL0     H89118   2.129   4.807   5.861  1.4814 -2.1157 -0.1649
  646MOL0     H89119   2.223   4.804   5.720 -0.4701 -2.4912  1.1153
  646MOL0     H89120   2.257   5.069   5.781 -0.1739  0.3691  1.8822
  646MOL0     H89121   2.103   5.007   5.711 -1.1844 -3.1973  0.4156
  646MOL0     H89122   2.171   5.098   6.005 -0.5707 -0.5701  0.7581
  646MOL0     H89123   2.048   4.972   5.978  2.3824 -1.2738  0.8020
  646MOL0     H89124   1.902   5.095   5.878  0.0418  0.9184  0.2975
  646MOL0     H89125   2.007   5.219   5.829  2.2826  0.0522  0.5303
  646MOL0     H89126   2.017   5.259   6.118  0.0786  0.0003 -0.9863
  646MOL0     H89127   1.894   5.145   6.116 -1.5564  0.5534 -1.0984
  646MOL0     H89128   2.747   4.802   5.739 -0.0219 -0.6044  0.3898
  646MOL0     H89129   2.994   4.742   5.719 -1.6679 -0.1845 -0.9605
  646MOL0     H89130   3.425   4.746   6.225  0.1768  0.4018 -0.6404
  646MOL0     H89131   3.655   4.679   6.217 -0.8850  0.8498  0.5629
  646MOL0     H89132   4.401   4.556   7.190 -0.2665 -0.5484 -2.3147
  646MOL0     H89133   4.298   4.510   7.408  2.0255  0.5058 -1.6432
  646MOL0     H89134   3.964   4.305   7.594 -1.3759 -0.5759 -0.2672
  646MOL0     H89135   3.805   4.275   7.800 -0.1457 -1.0374 -0.0109
  646MOL0     H89136   3.964   4.376   8.131 -0.5459 -0.0522  0.1950
  646MOL0     H89137   3.800   4.316   8.183 -0.5028 -0.5296 -0.5273
  646MOL0     H89138   4.065   4.186   8.232  0.5477  0.4252  1.4610
  646MOL0     H89139   3.911   4.108   8.269  3.3148 -1.6883 -1.1962
  646MOL0     H89140   4.044   4.349   8.397  1.6588 -1.3716  2.5417
  646MOL0     H89141   3.869   4.311   8.419 -1.0675 -1.5959 -0.4708
  646MOL0     H89142   4.099   4.121   8.506 -0.3951 -0.6068 -1.4625
  646MOL0     H89143   3.939   4.089   8.505 -0.0898 -0.3944 -0.5818
  646MOL0     H89144   3.940   4.306   8.856  2.2856  0.4255  1.1075
  646MOL0     H89145   4.126   4.153   8.038 -1.1807 -1.6598 -0.4579
  646MOL0     H89146   4.379   4.255   7.870  2.6529 -1.5144  1.7921
  646MOL0     H89147   4.344   4.096   7.938  0.9459  0.4399 -0.6788
  646MOL0     H89148   4.388   4.119   7.778  0.6141  0.5605  0.7564
  647MOL0     O89149   8.277   0.490   1.714  0.2532  0.0151 -0.3928
  647MOL0     C89150   8.198   0.578   1.675 -0.3806 -0.5936 -0.7310
  647MOL0     O89151   8.233   0.715   1.657  0.9072  0.5437  0.6125
  647MOL0     C89152   8.357   0.748   1.701  0.2767 -0.3233  0.0048
  647MOL0     C89153   8.376   0.787   1.834 -1.2400 -0.0255  0.2941
  647MOL0     C89154   8.511   0.813   1.878  0.3097  0.4119  0.7422
  647MOL0     C89155   8.615   0.809   1.785  0.6353 -0.8296 -0.4015
  647MOL0     O89156   8.744   0.814   1.825 -0.5941 -0.8073  0.6480
  647MOL0     C89157   8.788   0.903   1.927 -0.1715 -1.0184 -0.8377
  647MOL0     C89158   8.936   0.895   1.904  0.6230  0.5717  0.3186
  647MOL0     C89159   8.973   0.953   1.765 -0.6793  0.9610  0.0035
  647MOL0     C89160   9.121   1.002   1.766 -0.8504 -0.2604 -0.1611
  647MOL0     C89161   9.189   0.995   1.628 -0.1657 -0.3706 -0.9278
  647MOL0     C89162   9.107   1.075   1.522 -0.2972  0.2579  0.4891
  647MOL0     C89163   9.203   1.119   1.403  0.9249 -0.3400  1.0812
  647MOL0     C89164   9.247   1.262   1.423  1.1782 -1.0140 -0.7251
  647MOL0     N89165   9.311   1.304   1.296  1.1349  0.2581 -0.6565
  647MOL0     C89166   9.439   1.326   1.268  0.8829  0.0554 -0.0386
  647MOL0     C89167   9.449   1.358   1.136  0.0877 -1.1133  0.1362
  647MOL0     C89168   9.579   1.400   1.066  0.8388  0.0394  0.2893
  647MOL0     C89169   9.608   1.548   1.067  0.5065 -0.1646  0.0321
  647MOL0     C89170   9.612   1.608   1.211 -0.3839 -0.0597 -0.4468
  647MOL0     C89171   9.652   1.755   1.213 -0.9810  0.4843 -0.1989
  647MOL0     O89172   9.797   1.748   1.236 -0.2155  0.5337  0.5319
  647MOL0     C89173   9.883   1.858   1.224 -0.1785  0.0563 -0.0548
  647MOL0     C89174   9.850   1.984   1.183  0.0409  0.1126 -0.1503
  647MOL0     C89175   9.949   2.085   1.173 -0.4812 -0.2660  0.0067
  647MOL0     C89176   9.901   2.219   1.149 -0.5255 -1.0934  0.7837
  647MOL0     C89177  10.083   2.056   1.206  0.3178 -0.4186  0.1076
  647MOL0     C89178  10.191   2.156   1.209  0.2392 -0.3342  0.1475
  647MOL0     O89179  10.302   2.098   1.167  0.1295 -0.1294 -0.3426
  647MOL0     C89180  10.393   2.198   1.131 -0.7671  0.5359 -1.2269
  647MOL0     C89181  10.514   2.221   1.196 -0.1287 -0.5209  0.2655
  647MOL0     C89182  10.608   2.303   1.129 -0.0940  0.6581 -0.1559
  647MOL0     C89183  10.584   2.359   1.002  0.2606 -0.1473  0.1580
  647MOL0     O89184  10.691   2.392   0.930 -0.3102 -0.5680  0.3266
  647MOL0     C89185  10.773   2.280   0.878  0.8339 -0.1665 -0.5328
  647MOL0     C89186  10.903   2.329   0.814 -0.2349 -0.5522 -0.0223
  647MOL0     C89187  10.993   2.212   0.783  0.4401 -0.3919 -0.1016
  647MOL0     C89188  11.098   2.240   0.672  0.3152  0.2251  0.1534
  647MOL0     C89189  11.194   2.347   0.696 -0.6573  0.4180 -0.2944
  647MOL0     C89190  11.266   2.339   0.833  0.1501  0.5861  0.0993
  647MOL0     C89191  11.336   2.460   0.879 -0.1932 -0.2841  0.6834
  647MOL0     C89192  11.460   2.448   0.966 -0.0512  1.1102  0.1826
  647MOL0    Cl89193  11.485   2.595   1.063 -0.2120 -0.2264 -0.0121
  647MOL0     C89194  10.459   2.346   0.951  1.1952 -0.7386 -0.8420
  647MOL0     C89195  10.363   2.262   1.010  0.7330 -0.5778 -0.3545
  647MOL0     O89196  10.176   2.270   1.249  0.0122  0.3907 -1.0113
  647MOL0     C89197  10.112   1.928   1.237  0.8254 -0.2260 -0.5331
  647MOL0     C89198  10.011   1.830   1.242  0.1005  0.3658 -0.0102
  647MOL0     N89199   9.328   1.390   1.092  0.0623  0.4067  0.6226
  647MOL0     N89200   9.244   1.366   1.182 -0.1418  0.1346  0.8053
  647MOL0     C89201   8.591   0.770   1.655 -0.2700  0.6648 -0.6440
  647MOL0     C89202   8.462   0.737   1.616 -0.1616  0.5280 -0.2560
  647MOL0     C89203   8.060   0.541   1.637  0.3634 -1.0655  0.2225
  647MOL0     C89204   7.987   0.646   1.568  0.1521 -0.0102  0.3313
  647MOL0     C89205   7.854   0.632   1.529 -0.2768 -0.1271  0.1644
  647MOL0     C89206   7.791   0.512   1.561  0.1767  0.0259 -0.0267
  647MOL0     O89207   7.664   0.493   1.510 -0.3259 -1.0565 -0.0890
  647MOL0     C89208   7.564   0.429   1.583 -0.5708  0.3454  0.1033
  647MOL0     C89209   7.519   0.510   1.709  0.2705  0.9786 -0.4133
  647MOL0     C89210   7.509   0.660   1.701 -0.2524 -0.5096  0.2905
  647MOL0     C89211   7.423   0.699   1.577  0.4253 -0.7507 -0.6152
  647MOL0     C89212   7.291   0.639   1.560  0.4269  1.2170  0.0719
  647MOL0     C89213   7.193   0.575   1.534  0.4472 -0.0818 -0.0586
  647MOL0     C89214   7.864   0.407   1.634 -0.3458  0.0450 -0.4572
  647MOL0     C89215   7.995   0.425   1.681 -0.0633  0.2593 -0.0632
  647MOL0     C89216   8.062   0.307   1.749 -0.7405 -0.4929  0.3950
  647MOL0     H89217   8.291   0.799   1.900 -2.7486 -1.9731 -1.1336
  647MOL0     H89218   8.524   0.833   1.984 -2.2209 -0.0225  1.1986
  647MOL0     H89219   8.756   0.870   2.026 -0.9186  0.8040 -0.4300
  647MOL0     H89220   8.769   1.010   1.913  1.9556 -0.6935 -1.6178
  647MOL0     H89221   8.988   0.963   1.972  4.4991  0.7695 -2.4902
  647MOL0     H89222   8.973   0.793   1.917  0.7134  0.7270  1.3525
  647MOL0     H89223   8.952   0.878   1.688 -0.8041  0.3806  0.5929
  647MOL0     H89224   8.904   1.034   1.740 -2.0202  0.0507  0.6419
  647MOL0     H89225   9.124   1.104   1.804  1.7072 -1.2364  2.6325
  647MOL0     H89226   9.175   0.942   1.840 -0.4400  2.1994  1.6386
  647MOL0     H89227   9.213   0.897   1.587 -2.7132 -2.1187  1.3937
  647MOL0     H89228   9.286   1.037   1.656 -1.5982  0.5138  3.4149
  647MOL0     H89229   9.043   0.997   1.481  1.7118 -1.9879  1.3689
  647MOL0     H89230   9.049   1.160   1.559 -1.0724 -0.8229  1.8799
  647MOL0     H89231   9.150   1.105   1.308 -0.4233 -0.2900  1.8091
  647MOL0     H89232   9.292   1.057   1.395  2.0646  1.4759 -2.3599
  647MOL0     H89233   9.170   1.331   1.460  2.1647  0.3426 -1.1020
  647MOL0     H89234   9.319   1.254   1.505  0.0903 -1.8106  0.1743
  647MOL0     H89235   9.514   1.300   1.342  2.0181  0.2602 -1.0770
  647MOL0     H89236   9.580   1.374   0.960 -2.3747  1.9638 -0.3593
  647MOL0     H89237   9.658   1.339   1.110  0.8106 -1.0603 -1.0876
  647MOL0     H89238   9.706   1.558   1.020  0.4349 -1.2693 -0.3981
  647MOL0     H89239   9.545   1.606   0.999 -0.9702 -0.2635  1.2634
  647MOL0     H89240   9.513   1.597   1.257 -0.1922 -1.9104 -0.4079
  647MOL0     H89241   9.683   1.555   1.274 -1.8012 -2.1393 -0.5090
  647MOL0     H89242   9.628   1.795   1.114 -0.5078 -3.2773 -1.9845
  647MOL0     H89243   9.600   1.810   1.292 -0.2083  1.4720 -0.3474
  647MOL0     H89244   9.746   2.013   1.173 -0.0511 -0.3593 -0.6088
  647MOL0     H89245   9.886   2.263   1.249  1.5990  0.4365  0.5016
  647MOL0     H89246   9.812   2.243   1.090 -1.3209  3.0194  3.2083
  647MOL0     H89247   9.981   2.275   1.100 -1.3840 -1.3642 -0.9801
  647MOL0     H89248  10.532   2.166   1.288 -1.6476 -0.6380  0.5222
  647MOL0     H89249  10.710   2.307   1.167  0.2023  1.3531 -0.9960
  647MOL0     H89250  10.799   2.216   0.963 -0.0348 -0.1313 -0.2306
  647MOL0     H89251  10.715   2.212   0.813  0.7020 -0.0016 -0.5885
  647MOL0     H89252  10.885   2.381   0.719  0.3770 -1.5165 -0.6778
  647MOL0     H89253  10.957   2.405   0.871  2.3789 -1.7773 -0.7209
  647MOL0     H89254  10.923   2.141   0.739  1.1051  0.2918 -2.3728
  647MOL0     H89255  11.033   2.168   0.875 -1.4505  0.8053  1.3839
  647MOL0     H89256  11.041   2.254   0.580 -1.2627 -2.5596  0.5953
  647MOL0     H89257  11.155   2.149   0.651  0.3306  0.1568  0.4848
  647MOL0     H89258  11.274   2.355   0.622  1.2116  1.1769  1.6775
  647MOL0     H89259  11.142   2.443   0.688 -0.1199  0.9626  1.9787
  647MOL0     H89260  11.338   2.259   0.817  1.0792  1.9280 -3.4497
  647MOL0     H89261  11.196   2.310   0.912  0.3090 -1.8450 -0.5743
  647MOL0     H89262  11.261   2.520   0.932 -2.4351 -1.8180 -0.5808
  647MOL0     H89263  11.359   2.523   0.793 -0.3649  0.6887  1.3312
  647MOL0     H89264  11.548   2.431   0.904 -0.4574 -0.6790  0.0529
  647MOL0     H89265  11.452   2.371   1.043  2.5626  2.1191  1.5968
  647MOL0     H89266  10.430   2.393   0.857 -1.3588 -0.8514 -0.1805
  647MOL0     H89267  10.267   2.251   0.960  0.8864 -0.2548 -0.7251
  647MOL0     H89268  10.214   1.894   1.253  1.2408  1.7403  1.3178
  647MOL0     H89269  10.030   1.729   1.279 -1.1879 -0.9178 -2.6017
  647MOL0     H89270   8.672   0.747   1.586  0.3964 -3.0646  1.1100
  647MOL0     H89271   8.432   0.695   1.521 -3.8830  0.0016  0.9683
  647MOL0     H89272   8.043   0.738   1.557  2.1122 -0.9403  2.0529
  647MOL0     H89273   7.813   0.720   1.481  2.2570 -0.9229 -4.0493
  647MOL0     H89274   7.471   0.427   1.526 -0.9575 -0.8929  0.7427
  647MOL0     H89275   7.596   0.328   1.608  2.7871  0.5475 -2.6181
  647MOL0     H89276   7.593   0.492   1.787  0.6188  3.4024 -0.1075
  647MOL0     H89277   7.421   0.474   1.744  1.4996 -0.5297  1.7321
  647MOL0     H89278   7.454   0.687   1.791  2.5416 -1.1411  2.3304
  647MOL0     H89279   7.607   0.707   1.693 -0.0904 -1.0501 -1.4748
  647MOL0     H89280   7.476   0.688   1.482  0.7915  3.9342 -1.1833
  647MOL0     H89281   7.417   0.808   1.575  0.6388 -0.6008  2.4450
  647MOL0     H89282   7.115   0.504   1.518 -0.5656  0.9580  0.1269
  647MOL0     H89283   7.817   0.311   1.650 -0.2561 -0.1634 -1.4043
  647MOL0     H89284   8.123   0.336   1.835  0.6379  0.7148 -0.9400
  647MOL0     H89285   7.989   0.235   1.788  0.3228 -0.6692  2.1728
  647MOL0     H89286   8.125   0.255   1.676  0.1079  2.6277 -1.2354
  648MOL0     O89287   0.791   6.809   0.561  0.5686 -0.0729  0.6120
  648MOL0     C89288   0.749   6.878   0.471  0.3888  0.1728 -0.5357
  648MOL0     O89289   0.813   6.973   0.408  0.1032  0.1309  0.7250
  648MOL0     C89290   0.939   6.945   0.367  0.1454  0.2200 -0.4395
  648MOL0     C89291   1.011   6.823   0.366 -0.9026  0.1089  0.5058
  648MOL0     C89292   1.148   6.813   0.316 -0.0207  0.7633 -0.1352
  648MOL0     C89293   1.219   6.930   0.275 -0.7190  1.0955 -0.3114
  648MOL0     O89294   1.356   6.930   0.221  0.3286 -0.5249 -0.1236
  648MOL0     C89295   1.438   6.814   0.243 -1.5757 -0.2408 -0.1555
  648MOL0     C89296   1.583   6.846   0.189 -0.9618  0.1995  0.2438
  648MOL0     C89297   1.649   6.970   0.267 -0.5371  0.1608 -0.2449
  648MOL0     C89298   1.800   6.997   0.228 -0.0990  0.2144 -0.8730
  648MOL0     C89299   1.840   7.103   0.342 -0.8225 -0.1278 -0.4387
  648MOL0     C89300   1.992   7.126   0.332 -0.0037 -0.0805  0.2342
  648MOL0     C89301   2.043   7.229   0.435  0.1598  1.0564 -0.4734
  648MOL0     C89302   2.042   7.166   0.577  0.1136  0.2882 -0.0763
  648MOL0     N89303   2.144   7.230   0.661  0.1484  0.1665  0.3799
  648MOL0     C89304   2.279   7.212   0.642 -0.3539 -0.7758 -0.2985
  648MOL0     C89305   2.336   7.285   0.745  0.5155  0.6728 -0.4167
  648MOL0     C89306   2.487   7.286   0.778  0.7036 -0.2519  0.5692
  648MOL0     C89307   2.548   7.430   0.803 -0.1910  0.5860 -0.2461
  648MOL0     C89308   2.532   7.501   0.666 -0.2994 -0.4860 -0.2250
  648MOL0     C89309   2.580   7.643   0.680 -0.3670 -0.0078  0.6138
  648MOL0     O89310   2.587   7.697   0.545  0.0567 -0.2280  0.1198
  648MOL0     C89311   2.625   7.827   0.537  0.5560  0.4113 -0.0151
  648MOL0     C89312   2.681   7.913   0.629 -0.0978  0.2546  0.2588
  648MOL0     C89313   2.694   8.056   0.612  0.0675  1.0510  0.4004
  648MOL0     C89314   2.761   8.120   0.724 -0.4946 -0.6024  0.1230
  648MOL0     C89315   2.639   8.123   0.495  0.9198  0.4525 -0.8110
  648MOL0     C89316   2.647   8.265   0.463  0.2332  0.8601 -0.3422
  648MOL0     O89317   2.613   8.354   0.570 -0.1000  0.5672 -0.2596
  648MOL0     C89318   2.616   8.486   0.554  0.5358 -0.1357  0.1528
  648MOL0     C89319   2.692   8.555   0.647 -0.2344 -1.0063 -0.4619
  648MOL0     C89320   2.712   8.698   0.629  0.4590  0.3394  0.3116
  648MOL0     C89321   2.649   8.762   0.527 -0.1402 -0.5050 -0.4273
  648MOL0     O89322   2.662   8.897   0.512 -0.9327  0.2681  0.2264
  648MOL0     C89323   2.687   8.991   0.613  0.0657  0.5068  0.3978
  648MOL0     C89324   2.685   9.123   0.545 -0.3201 -0.4626 -0.2820
  648MOL0     C89325   2.762   9.237   0.609 -0.4743 -0.0769 -0.3183
  648MOL0     C89326   2.706   9.280   0.746 -0.4244  0.0161  0.2262
  648MOL0     C89327   2.729   9.423   0.787 -1.2600 -0.5179  0.2785
  648MOL0     C89328   2.657   9.473   0.921 -0.8631  0.8224  0.0346
  648MOL0     C89329   2.695   9.610   0.953  0.1062 -0.0371  0.6367
  648MOL0     C89330   2.630   9.667   1.078  0.4879 -0.0495  1.1752
  648MOL0    Cl89331   2.644   9.566   1.228  0.2663 -0.0480 -0.6815
  648MOL0     C89332   2.566   8.691   0.447 -0.0760  0.0906 -0.6688
  648MOL0     C89333   2.546   8.556   0.461  0.6503  0.0213 -0.6243
  648MOL0     O89334   2.687   8.291   0.352 -0.1807  0.1597  0.5048
  648MOL0     C89335   2.593   8.028   0.392  0.3539  0.7474 -0.4776
  648MOL0     C89336   2.586   7.885   0.418  0.6860 -0.1985 -0.0818
  648MOL0     N89337   2.234   7.329   0.826  0.3164  0.2815 -0.0708
  648MOL0     N89338   2.115   7.297   0.778  0.7740 -0.2278 -0.4152
  648MOL0     C89339   1.151   7.054   0.295 -0.1130 -0.9723  0.4116
  648MOL0     C89340   1.012   7.059   0.336 -0.5411  0.3927  0.1727
  648MOL0     C89341   0.608   6.865   0.441  0.5062  0.7557 -0.3449
  648MOL0     C89342   0.529   6.980   0.435  0.3209 -0.1606  0.5120
  648MOL0     C89343   0.399   6.962   0.396  0.4955 -0.1184  0.4344
  648MOL0     C89344   0.348   6.840   0.355 -0.1568 -0.0665 -0.4577
  648MOL0     O89345   0.218   6.832   0.318  0.2084 -0.7845  0.4618
  648MOL0     C89346   0.184   6.800   0.184 -0.6049  0.2471  0.6889
  648MOL0     C89347   0.056   6.877   0.148  0.3015 -0.8515  0.3975
  648MOL0     C89348   0.046   6.910   0.001 -0.9364 -0.1426  0.3373
  648MOL0     C89349  -0.074   6.986  -0.047 -0.5528  0.1192 -0.2873
  648MOL0     C89350  -0.051   7.064  -0.172 -0.1169  0.7652  0.4989
  648MOL0     C89351  -0.042   7.138  -0.268  0.3580  0.1234 -0.7533
  648MOL0     C89352   0.426   6.729   0.369  0.6640 -0.4690  0.6880
  648MOL0     C89353   0.558   6.739   0.404 -0.2519 -0.1315  0.1371
  648MOL0     C89354   0.642   6.616   0.379 -0.4621 -0.6434 -0.3989
  648MOL0     H89355   0.961   6.732   0.397 -1.8901  1.0073  1.6487
  648MOL0     H89356   1.192   6.715   0.330 -1.1518 -0.0274 -1.8895
  648MOL0     H89357   1.398   6.725   0.193 -1.5319 -1.9082  2.5848
  648MOL0     H89358   1.445   6.793   0.350  0.9418  1.9432  0.2104
  648MOL0     H89359   1.646   6.757   0.190 -0.1511  0.7601 -0.1333
  648MOL0     H89360   1.573   6.873   0.084  1.1803 -0.4649 -0.1787
  648MOL0     H89361   1.596   7.064   0.248  0.4302  1.7250  3.7782
  648MOL0     H89362   1.645   6.948   0.375  1.2035  0.3128 -0.1213
  648MOL0     H89363   1.855   6.902   0.226  1.5871  1.1358 -0.6751
  648MOL0     H89364   1.807   7.040   0.128 -2.0696  0.8128 -0.7790
  648MOL0     H89365   1.819   7.064   0.442  3.1632 -3.1735 -0.5475
  648MOL0     H89366   1.782   7.195   0.331 -0.1022  0.9294  3.3723
  648MOL0     H89367   2.042   7.029   0.347  0.6852 -0.1515 -2.2229
  648MOL0     H89368   2.026   7.158   0.234 -1.7382 -2.3920 -1.2439
  648MOL0     H89369   1.983   7.321   0.437  1.9530  2.2793 -0.7695
  648MOL0     H89370   2.145   7.255   0.407  0.8389 -1.1765 -0.2478
  648MOL0     H89371   1.936   7.160   0.605 -0.6004  3.3978 -1.6841
  648MOL0     H89372   2.069   7.060   0.567 -1.8444 -0.1835 -0.7497
  648MOL0     H89373   2.334   7.156   0.569 -0.0463 -1.1944  0.2469
  648MOL0     H89374   2.531   7.238   0.689 -2.2940 -1.1590 -0.5440
  648MOL0     H89375   2.511   7.235   0.872  2.1182  0.5024  0.6345
  648MOL0     H89376   2.479   7.477   0.874 -0.1322  0.4414 -0.0949
  648MOL0     H89377   2.650   7.421   0.841 -0.2912 -0.9314 -0.2908
  648MOL0     H89378   2.594   7.444   0.597  0.4219 -0.6016  0.5079
  648MOL0     H89379   2.429   7.503   0.628 -0.5335  1.9236  0.3564
  648MOL0     H89380   2.521   7.707   0.745  2.0781  1.6603  1.3196
  648MOL0     H89381   2.677   7.644   0.730 -0.1287 -0.7905  0.1917
  648MOL0     H89382   2.744   7.864   0.703 -0.2883  1.3319  1.1719
  648MOL0     H89383   2.708   8.214   0.738 -0.6131 -0.5720 -0.4875
  648MOL0     H89384   2.861   8.148   0.688 -0.2045 -0.1765  1.2213
  648MOL0     H89385   2.763   8.060   0.816 -0.9988  0.8168  1.0967
  648MOL0     H89386   2.748   8.493   0.717  3.1472 -0.8648 -2.8136
  648MOL0     H89387   2.778   8.753   0.696  0.6653  2.0790 -1.2365
  648MOL0     H89388   2.608   8.987   0.689 -1.7061 -0.8271 -1.4062
  648MOL0     H89389   2.784   8.978   0.663  1.1183  1.4137 -1.3156
  648MOL0     H89390   2.722   9.110   0.443 -0.2407 -1.1605 -0.1691
  648MOL0     H89391   2.580   9.149   0.530  0.3809  1.8170 -1.7849
  648MOL0     H89392   2.761   9.327   0.547  1.9928  1.0826  1.1429
  648MOL0     H89393   2.869   9.215   0.618 -0.2535  1.2877  0.7175
  648MOL0     H89394   2.735   9.204   0.820  0.2805  1.8392  1.9340
  648MOL0     H89395   2.598   9.278   0.729 -0.1603 -2.2444 -1.7512
  648MOL0     H89396   2.834   9.452   0.794 -1.3759 -0.4925  2.4829
  648MOL0     H89397   2.695   9.481   0.700  1.2651 -2.2651 -2.0731
  648MOL0     H89398   2.679   9.401   0.999 -1.2661  0.4728 -0.1713
  648MOL0     H89399   2.549   9.470   0.906 -0.8410  2.0519 -0.5433
  648MOL0     H89400   2.677   9.674   0.866  0.4985 -2.1462 -1.0870
  648MOL0     H89401   2.803   9.609   0.964  0.3374 -2.4817 -1.0520
  648MOL0     H89402   2.527   9.698   1.058  2.2250  4.7831 -2.2215
  648MOL0     H89403   2.681   9.763   1.093 -3.3061  2.3589  0.1130
  648MOL0     H89404   2.521   8.743   0.363 -0.1234  0.8252 -0.1942
  648MOL0     H89405   2.476   8.516   0.389  1.5894  1.1277 -2.1960
  648MOL0     H89406   2.549   8.070   0.302  0.9202 -2.8549 -2.6667
  648MOL0     H89407   2.531   7.826   0.345  2.8276  0.3490 -2.2813
  648MOL0     H89408   1.191   7.145   0.253  0.1022 -1.7538 -1.1321
  648MOL0     H89409   0.969   7.159   0.339  1.7842  1.4402  0.9465
  648MOL0     H89410   0.574   7.076   0.457  1.8928 -1.2756  2.5150
  648MOL0     H89411   0.329   7.045   0.392  0.6618  0.0529  0.9111
  648MOL0     H89412   0.264   6.827   0.116  0.5056 -0.9087  1.4887
  648MOL0     H89413   0.168   6.692   0.178 -3.6151  0.5478  1.5296
  648MOL0     H89414   0.049   6.972   0.201 -0.7590  0.1441 -1.4040
  648MOL0     H89415  -0.035   6.821   0.175 -0.0916  0.8720  3.0373
  648MOL0     H89416   0.136   6.962  -0.030  0.4195 -2.3672  0.2813
  648MOL0     H89417   0.049   6.816  -0.056 -2.7278 -1.3654  2.1067
  648MOL0     H89418  -0.103   7.052   0.036 -2.6702 -0.6497 -0.3459
  648MOL0     H89419  -0.158   6.917  -0.065 -1.6060  1.2008  0.3403
  648MOL0     H89420  -0.021   7.181  -0.364 -0.9551 -1.2529 -1.7049
  648MOL0     H89421   0.377   6.636   0.340  4.1010 -2.3192  0.2465
  648MOL0     H89422   0.673   6.571   0.473 -1.9229 -3.2025 -1.0311
  648MOL0     H89423   0.593   6.534   0.325 -2.2338 -0.1051  0.3343
  648MOL0     H89424   0.729   6.636   0.316 -0.6382 -2.1187 -1.1666
  649MOL0     O89425   4.057   0.465   7.504  0.8306  0.5808 -0.1458
  649MOL0     C89426   4.075   0.346   7.505 -0.1496 -0.1353  0.0674
  649MOL0     O89427   4.016   0.263   7.604 -0.0655  0.1056  0.1099
  649MOL0     C89428   4.073   0.147   7.641  0.2385  0.4492 -1.0421
  649MOL0     C89429   4.201   0.140   7.713  0.9026 -0.4872  0.1198
  649MOL0     C89430   4.253   0.026   7.774  0.3344 -0.1146  0.2273
  649MOL0     C89431   4.183  -0.094   7.747  0.2213 -0.0156 -0.0324
  649MOL0     O89432   4.232  -0.210   7.795  0.2868  0.3600  0.4222
  649MOL0     C89433   4.170  -0.253   7.913  0.1833  0.2243 -0.2604
  649MOL0     C89434   4.222  -0.390   7.956  0.5815  0.3451 -1.0735
  649MOL0     C89435   4.369  -0.386   8.008 -0.1898  0.4305  0.2414
  649MOL0     C89436   4.395  -0.356   8.155 -0.5561  0.6908 -0.1143
  649MOL0     C89437   4.530  -0.420   8.201 -0.2890 -0.6788 -0.4618
  649MOL0     C89438   4.570  -0.362   8.337  0.0923 -0.7731  0.5988
  649MOL0     C89439   4.655  -0.232   8.323 -0.3977  0.2169 -0.2499
  649MOL0     C89440   4.804  -0.255   8.296 -0.0211  0.4813  1.4532
  649MOL0     N89441   4.882  -0.311   8.408 -0.0356 -0.6770  0.6742
  649MOL0     C89442   4.888  -0.442   8.455 -0.0868 -0.7288  0.6577
  649MOL0     C89443   4.971  -0.447   8.565  0.9019  0.6822  0.5640
  649MOL0     C89444   4.990  -0.570   8.652 -0.0005  0.9760  0.1848
  649MOL0     C89445   5.106  -0.648   8.597  0.6679 -0.2918 -0.9670
  649MOL0     C89446   5.246  -0.584   8.614  0.6353  0.3546  0.5038
  649MOL0     C89447   5.361  -0.676   8.574  0.5995  0.2752 -0.3541
  649MOL0     O89448   5.356  -0.711   8.439  0.3507  0.3509 -0.0095
  649MOL0     C89449   5.455  -0.799   8.402 -0.1471 -0.5022  0.6947
  649MOL0     C89450   5.467  -0.801   8.266 -0.3279  0.3987  0.3537
  649MOL0     C89451   5.584  -0.864   8.202  0.0332 -0.1033  0.1774
  649MOL0     C89452   5.591  -0.838   8.050 -0.5234  0.4621  0.0169
  649MOL0     C89453   5.677  -0.941   8.287 -0.6059  0.1044  0.9159
  649MOL0     C89454   5.794  -1.018   8.237  0.3316  0.4841  0.2892
  649MOL0     O89455   5.879  -1.079   8.332 -0.2668 -0.7408 -0.2947
  649MOL0     C89456   5.964  -1.176   8.284 -0.2916  0.5876  0.0070
  649MOL0     C89457   5.920  -1.310   8.283  0.7088  0.3179 -0.5860
  649MOL0     C89458   5.999  -1.406   8.218 -0.2198  0.7519 -0.4432
  649MOL0     C89459   6.121  -1.367   8.155 -0.1349 -0.1065  0.3416
  649MOL0     O89460   6.194  -1.449   8.070 -0.0814  0.4538 -0.3915
  649MOL0     C89461   6.151  -1.582   8.040  0.1821  0.5290 -0.0192
  649MOL0     C89462   6.205  -1.677   8.144  0.2424 -0.6758 -0.0886
  649MOL0     C89463   6.349  -1.648   8.192  0.0389 -0.0512 -1.4566
  649MOL0     C89464   6.458  -1.699   8.106  0.0035  0.1528 -0.0754
  649MOL0     C89465   6.606  -1.664   8.163  0.1307  0.2709 -0.0755
  649MOL0     C89466   6.645  -1.750   8.292  0.1783 -0.2033  1.3352
  649MOL0     C89467   6.795  -1.742   8.304 -0.5995  0.4992  0.0088
  649MOL0     C89468   6.836  -1.814   8.430  0.8239  0.5321  0.2522
  649MOL0    Cl89469   6.829  -1.991   8.401  0.0960  0.3437 -0.5985
  649MOL0     C89470   6.159  -1.232   8.167 -0.9731  0.5502  1.0184
  649MOL0     C89471   6.089  -1.140   8.246  0.2865 -0.5132  0.3566
  649MOL0     O89472   5.808  -1.032   8.117  0.1889 -0.8873  0.2916
  649MOL0     C89473   5.650  -0.948   8.417 -0.7291 -0.3300 -0.6206
  649MOL0     C89474   5.547  -0.877   8.480 -0.2595  0.3828  0.5301
  649MOL0     N89475   5.024  -0.323   8.579  0.2340  0.6057 -0.4210
  649MOL0     N89476   4.974  -0.244   8.488 -0.0589  0.4280  0.0406
  649MOL0     C89477   4.059  -0.097   7.681 -0.6554 -0.6537  0.0275
  649MOL0     C89478   4.008   0.019   7.620  0.2938 -0.1735  0.3591
  649MOL0     C89479   4.169   0.295   7.407 -0.4347  0.7116  0.3520
  649MOL0     C89480   4.135   0.189   7.335  0.7698 -0.0834 -0.1511
  649MOL0     C89481   4.226   0.124   7.254  0.1443  0.1666  0.0385
  649MOL0     C89482   4.353   0.189   7.232  0.4459 -0.1820  0.3438
  649MOL0     O89483   4.429   0.104   7.153 -0.1386  0.2802  0.7001
  649MOL0     C89484   4.567   0.152   7.127  0.6346  0.4105 -0.3674
  649MOL0     C89485   4.631   0.067   7.019  0.2887  0.1657  1.2129
  649MOL0     C89486   4.776   0.092   7.009 -0.8726  0.6065  0.2099
  649MOL0     C89487   4.833   0.037   6.872  0.8146 -0.4032 -0.0440
  649MOL0     C89488   4.830  -0.105   6.859  0.3587 -0.2171  0.2153
  649MOL0     C89489   4.846  -0.223   6.839  0.0049  0.0942  0.0327
  649MOL0     C89490   4.394   0.304   7.302 -0.4003 -0.8077  0.3612
  649MOL0     C89491   4.298   0.357   7.393 -0.3831 -0.2035  0.3167
  649MOL0     C89492   4.343   0.450   7.503 -0.3130 -0.6641 -0.3572
  649MOL0     H89493   4.250   0.237   7.721  2.0717 -1.1568  1.3677
  649MOL0     H89494   4.343   0.021   7.836  0.1433 -2.3868  0.4091
  649MOL0     H89495   4.064  -0.275   7.896 -0.7553  3.5797  0.6251
  649MOL0     H89496   4.181  -0.180   7.993  2.3401  3.4316 -3.1673
  649MOL0     H89497   4.158  -0.414   8.041  2.1436  1.4464  0.4945
  649MOL0     H89498   4.220  -0.463   7.874  0.9565 -0.3432 -0.4807
  649MOL0     H89499   4.407  -0.487   7.990 -0.7418 -0.0343  1.5522
  649MOL0     H89500   4.425  -0.316   7.946 -0.9332  0.3769 -0.5157
  649MOL0     H89501   4.391  -0.247   8.167 -0.2223  0.6020  0.9075
  649MOL0     H89502   4.313  -0.402   8.211 -0.2100 -1.3080 -1.1723
  649MOL0     H89503   4.616  -0.411   8.134 -0.2835 -0.3381 -0.4108
  649MOL0     H89504   4.513  -0.526   8.223 -0.5884 -0.7677 -1.0955
  649MOL0     H89505   4.480  -0.342   8.397  0.0607  2.1001 -0.2207
  649MOL0     H89506   4.621  -0.434   8.401  1.0267  0.2943  1.0924
  649MOL0     H89507   4.632  -0.177   8.415 -2.0938 -0.9633  0.0925
  649MOL0     H89508   4.611  -0.171   8.244 -0.2557 -1.3224 -1.5576
  649MOL0     H89509   4.809  -0.329   8.215 -2.8402  1.7947 -0.0773
  649MOL0     H89510   4.857  -0.171   8.250 -0.2478 -0.6211 -0.9953
  649MOL0     H89511   4.839  -0.526   8.407  2.3500 -1.1646 -1.2874
  649MOL0     H89512   4.897  -0.626   8.650  0.9838 -0.7691  0.8724
  649MOL0     H89513   5.015  -0.549   8.756  1.3596 -0.0355  0.0896
  649MOL0     H89514   5.108  -0.743   8.653 -3.1453 -0.8743 -1.5592
  649MOL0     H89515   5.096  -0.673   8.491  2.2589 -0.8300 -1.0168
  649MOL0     H89516   5.244  -0.494   8.551 -3.1710  0.0660 -0.0233
  649MOL0     H89517   5.267  -0.553   8.717  1.5881 -1.2412  0.8230
  649MOL0     H89518   5.458  -0.639   8.608  0.6145 -0.1116  0.0246
  649MOL0     H89519   5.343  -0.768   8.630 -0.5197  0.9662  0.4610
  649MOL0     H89520   5.405  -0.737   8.203  1.6169  1.0315 -0.9902
  649MOL0     H89521   5.697  -0.846   8.024 -0.1970  0.2315  1.3797
  649MOL0     H89522   5.541  -0.744   8.022 -2.0743  0.0386  1.2201
  649MOL0     H89523   5.537  -0.918   7.999 -3.0836  1.5144  0.9504
  649MOL0     H89524   5.821  -1.325   8.325  1.2992  3.1171  2.1233
  649MOL0     H89525   5.963  -1.509   8.224  3.4529 -0.6438  5.2074
  649MOL0     H89526   6.042  -1.590   8.042  0.2189  0.0742  0.1916
  649MOL0     H89527   6.183  -1.604   7.937 -2.8794  1.2993 -1.2535
  649MOL0     H89528   6.135  -1.662   8.227  0.3663 -0.4275 -0.0300
  649MOL0     H89529   6.211  -1.779   8.105 -0.2822 -0.7459  0.0137
  649MOL0     H89530   6.358  -1.694   8.291 -0.1053  1.1434 -0.8692
  649MOL0     H89531   6.347  -1.539   8.198 -0.6947 -0.0696 -1.3176
  649MOL0     H89532   6.446  -1.660   8.004  0.9512  0.2745 -0.1548
  649MOL0     H89533   6.432  -1.805   8.097 -1.5491  0.3768  1.4666
  649MOL0     H89534   6.674  -1.699   8.085  0.8907 -2.3096  1.6355
  649MOL0     H89535   6.625  -1.556   8.164 -2.1131  0.7348 -0.8038
  649MOL0     H89536   6.605  -1.851   8.280 -2.3094  0.1830  4.6877
  649MOL0     H89537   6.589  -1.710   8.377 -0.7894 -2.4978  1.8564
  649MOL0     H89538   6.823  -1.636   8.313  2.5893  0.2115 -3.7798
  649MOL0     H89539   6.842  -1.782   8.214 -1.6457  1.0887 -0.8297
  649MOL0     H89540   6.775  -1.778   8.513 -0.2386 -0.1185 -0.2332
  649MOL0     H89541   6.941  -1.793   8.453  0.7274  1.3171  0.0247
  649MOL0     H89542   6.254  -1.199   8.125 -1.1784 -2.0152 -1.7844
  649MOL0     H89543   6.127  -1.039   8.253  0.5602 -0.4267 -1.6089
  649MOL0     H89544   5.718  -1.013   8.471 -1.9599 -1.4143 -0.3052
  649MOL0     H89545   5.542  -0.888   8.588 -1.9740 -1.0709  0.3420
  649MOL0     H89546   4.018  -0.196   7.662  2.5022 -1.6064 -2.7820
  649MOL0     H89547   3.919   0.014   7.558 -1.3350  0.0134  2.5572
  649MOL0     H89548   4.033   0.155   7.324  0.9309 -0.0853 -1.9269
  649MOL0     H89549   4.204   0.037   7.193  1.5510  2.6124 -4.4854
  649MOL0     H89550   4.569   0.260   7.109  1.0294  0.4991  0.1715
  649MOL0     H89551   4.626   0.120   7.214  1.2543  2.2132 -0.0804
  649MOL0     H89552   4.575   0.089   6.928  1.0639 -0.0716  0.6688
  649MOL0     H89553   4.623  -0.040   7.040 -2.3758  0.5764  2.6652
  649MOL0     H89554   4.799   0.199   7.004  2.8243 -0.0394  0.0382
  649MOL0     H89555   4.825   0.042   7.093 -1.0076 -1.9326 -1.1018
  649MOL0     H89556   4.934   0.079   6.876  0.4886  0.8631 -2.8892
  649MOL0     H89557   4.775   0.084   6.792  1.0878  0.6818  0.3733
  649MOL0     H89558   4.854  -0.328   6.821 -1.0800  0.3558 -2.4364
  649MOL0     H89559   4.491   0.351   7.297 -1.5852  2.1205  2.2625
  649MOL0     H89560   4.446   0.481   7.487 -0.0041 -1.1587  0.6221
  649MOL0     H89561   4.284   0.543   7.496  0.2927  0.0064  2.3997
  649MOL0     H89562   4.322   0.416   7.604  0.2751  0.5965  0.2067
  650MOL0     O89563   6.721   4.147   5.234  0.3313 -0.5170  1.2805
  650MOL0     C89564   6.715   4.153   5.109 -0.1082 -0.2733 -0.7033
  650MOL0     O89565   6.820   4.162   5.029  0.2881 -0.0374  0.1184
  650MOL0     C89566   6.926   4.226   5.084 -0.5255  0.2267 -0.3958
  650MOL0     C89567   7.048   4.162   5.068  0.0877  0.4052 -0.1811
  650MOL0     C89568   7.171   4.233   5.071 -0.5324 -0.6503 -0.3595
  650MOL0     C89569   7.171   4.363   5.121  0.1514  0.0918  0.8125
  650MOL0     O89570   7.281   4.437   5.135 -0.3020 -0.5492 -0.1050
  650MOL0     C89571   7.387   4.432   5.030  0.1806  0.1649 -0.7953
  650MOL0     C89572   7.490   4.558   5.053  1.3178 -0.1658  0.3394
  650MOL0     C89573   7.632   4.533   5.003 -0.5817  0.8160 -0.2583
  650MOL0     C89574   7.698   4.411   5.044 -0.5914  0.2313 -0.5898
  650MOL0     C89575   7.846   4.419   5.027 -0.5690  0.1769  0.0923
  650MOL0     C89576   7.906   4.286   5.075 -0.4936 -0.3748 -0.3067
  650MOL0     C89577   8.061   4.277   5.063  0.6221  0.5019 -0.6297
  650MOL0     C89578   8.126   4.264   4.926 -0.2805  1.5024  0.5593
  650MOL0     N89579   8.272   4.238   4.935  0.7588  0.1900  0.3024
  650MOL0     C89580   8.357   4.198   4.828  0.0418  0.0631 -0.0822
  650MOL0     C89581   8.468   4.143   4.879  0.3790 -0.0634  0.1793
  650MOL0     C89582   8.586   4.080   4.808 -0.2312 -0.2964 -0.1201
  650MOL0     C89583   8.723   4.133   4.859 -1.0018 -0.1516  0.2371
  650MOL0     C89584   8.824   4.105   4.749  0.1286 -0.8230 -0.4259
  650MOL0     C89585   8.970   4.119   4.804  0.1308 -0.1014  0.5355
  650MOL0     O89586   9.006   4.255   4.822  0.1868 -0.4314  0.7386
  650MOL0     C89587   9.095   4.274   4.914  0.3447 -1.1547  0.3862
  650MOL0     C89588   9.218   4.205   4.934  0.8457 -0.1308  0.6699
  650MOL0     C89589   9.302   4.239   5.035  0.6297  0.1963  0.7200
  650MOL0     C89590   9.429   4.162   5.039  0.3062 -0.7535 -0.6213
  650MOL0     C89591   9.276   4.344   5.131  0.7185  0.5163  0.1434
  650MOL0     C89592   9.359   4.368   5.247  0.5510  0.4474 -1.2160
  650MOL0     O89593   9.290   4.415   5.355 -0.4526 -0.6034 -0.5323
  650MOL0     C89594   9.344   4.523   5.423 -0.1990 -0.4294 -0.6099
  650MOL0     C89595   9.285   4.531   5.554  0.4564 -0.4347  0.4522
  650MOL0     C89596   9.319   4.632   5.642  0.0344  0.9391 -0.4453
  650MOL0     C89597   9.416   4.726   5.613  0.6532 -0.4185  0.0732
  650MOL0     O89598   9.452   4.837   5.690 -0.0301  0.7124  0.2692
  650MOL0     C89599   9.464   4.791   5.830 -0.0911  0.6033  0.0063
  650MOL0     C89600   9.546   4.880   5.920 -0.0287 -0.5375  0.3772
  650MOL0     C89601   9.478   5.019   5.962 -0.0038  0.6630  0.0956
  650MOL0     C89602   9.400   4.988   6.088 -0.7223  1.1802  0.3096
  650MOL0     C89603   9.292   5.087   6.110  0.7907 -0.2969  0.3072
  650MOL0     C89604   9.243   5.091   6.254 -0.3779  1.1365 -0.1404
  650MOL0     C89605   9.091   5.119   6.266  0.2020  1.1811 -0.8576
  650MOL0     C89606   9.043   5.097   6.415 -0.2772 -0.0952  0.1510
  650MOL0    Cl89607   8.861   5.076   6.422 -0.0528 -0.3774  0.3952
  650MOL0     C89608   9.466   4.719   5.486 -0.2913 -0.3151 -0.3799
  650MOL0     C89609   9.442   4.613   5.395  0.2319  0.0671  0.4430
  650MOL0     O89610   9.486   4.359   5.233  0.1104 -0.2591  0.3063
  650MOL0     C89611   9.150   4.401   5.106 -0.1308 -0.9257  0.9554
  650MOL0     C89612   9.062   4.375   5.005 -0.2992 -0.4988  0.6045
  650MOL0     N89613   8.462   4.147   5.020 -0.2390 -0.1250 -0.7675
  650MOL0     N89614   8.339   4.198   5.042 -0.8545  0.1525  0.1348
  650MOL0     C89615   7.046   4.411   5.148  0.6749 -0.9591  0.0265
  650MOL0     C89616   6.921   4.350   5.142 -0.6516 -0.5375  0.0207
  650MOL0     C89617   6.582   4.148   5.043 -0.2476  0.1245  0.9309
  650MOL0     C89618   6.590   4.115   4.903  0.5827  0.6980 -0.0790
  650MOL0     C89619   6.471   4.114   4.827 -0.2559  0.2451 -0.2378
  650MOL0     C89620   6.344   4.118   4.883 -1.1633  0.0469  0.9844
  650MOL0     O89621   6.225   4.105   4.816  0.1952  0.0685 -0.2552
  650MOL0     C89622   6.245   4.026   4.695  0.5857  0.2170  0.8792
  650MOL0     C89623   6.095   4.022   4.634 -1.2513 -0.5066 -0.3899
  650MOL0     C89624   5.986   3.982   4.733  0.3711  0.1578 -0.6399
  650MOL0     C89625   5.988   3.834   4.770  0.6020  0.4470 -0.7883
  650MOL0     C89626   5.919   3.761   4.664 -0.5886 -0.7042  0.4035
  650MOL0     C89627   5.868   3.708   4.573  0.8545  0.3060  0.2607
  650MOL0     C89628   6.338   4.144   5.022 -0.4777  0.0157  0.3888
  650MOL0     C89629   6.455   4.166   5.104  0.1444 -0.4542 -0.5989
  650MOL0     C89630   6.434   4.188   5.247  1.3588 -0.3288 -0.0852
  650MOL0     H89631   7.057   4.057   5.039 -1.0062  0.1952  0.2163
  650MOL0     H89632   7.268   4.184   5.075 -0.9685 -1.4721  0.7269
  650MOL0     H89633   7.347   4.438   4.928 -3.0109 -1.1708  0.2472
  650MOL0     H89634   7.450   4.344   5.042  0.3967  0.3772 -0.3584
  650MOL0     H89635   7.445   4.649   5.011 -0.3337 -0.6348  1.0005
  650MOL0     H89636   7.487   4.578   5.161 -1.4143  0.3600  0.2358
  650MOL0     H89637   7.643   4.522   4.895  1.8590 -3.5044  0.2163
  650MOL0     H89638   7.694   4.605   5.057 -0.9819  0.3602  0.8332
  650MOL0     H89639   7.682   4.383   5.149  2.1501 -3.0478 -0.8460
  650MOL0     H89640   7.647   4.331   4.989 -0.0196 -0.1972 -0.5128
  650MOL0     H89641   7.888   4.500   5.087  1.0110 -0.4414 -0.1315
  650MOL0     H89642   7.864   4.452   4.924  0.9815 -0.5692  0.0991
  650MOL0     H89643   7.879   4.271   5.180 -1.9030 -0.4358 -0.6624
  650MOL0     H89644   7.851   4.208   5.022 -0.9542 -0.3476  0.1248
  650MOL0     H89645   8.071   4.188   5.126 -1.9805  0.9315  0.5265
  650MOL0     H89646   8.098   4.367   5.112 -1.3330  2.2475 -2.1567
  650MOL0     H89647   8.089   4.172   4.880  2.3466  0.7145 -0.1548
  650MOL0     H89648   8.103   4.349   4.862 -1.6828  2.4773  2.2758
  650MOL0     H89649   8.331   4.206   4.723 -3.5536  0.0957  0.6669
  650MOL0     H89650   8.572   4.100   4.701 -2.2784 -0.6821  0.0368
  650MOL0     H89651   8.581   3.971   4.820 -2.1560 -0.4330 -1.5924
  650MOL0     H89652   8.724   4.241   4.876  0.6465  0.0584 -0.9484
  650MOL0     H89653   8.743   4.073   4.949 -1.2817 -1.3488 -0.4765
  650MOL0     H89654   8.811   4.001   4.718  1.3947 -0.5038 -2.2263
  650MOL0     H89655   8.806   4.178   4.669  1.0636 -1.0372 -0.8386
  650MOL0     H89656   8.971   4.077   4.904  1.7691 -0.6267  0.3263
  650MOL0     H89657   9.042   4.059   4.748  0.5807  0.0417  0.9530
  650MOL0     H89658   9.256   4.140   4.856 -0.5624 -1.2153  0.8358
  650MOL0     H89659   9.453   4.116   5.135 -3.2039  2.3033  1.9977
  650MOL0     H89660   9.504   4.233   5.002 -0.5201  0.4440 -0.0728
  650MOL0     H89661   9.430   4.080   4.966 -1.0934 -3.1213  1.8345
  650MOL0     H89662   9.214   4.450   5.566  0.5822 -0.8251 -1.2137
  650MOL0     H89663   9.265   4.636   5.736  2.6918 -1.1071  1.3110
  650MOL0     H89664   9.364   4.776   5.872 -0.0377  4.6292  2.0745
  650MOL0     H89665   9.508   4.690   5.838 -1.1034  0.1562  0.0418
  650MOL0     H89666   9.579   4.832   6.012 -0.4988  1.7354  1.8076
  650MOL0     H89667   9.633   4.894   5.854  0.9452 -2.5930  1.1459
  650MOL0     H89668   9.417   5.056   5.879 -0.3779  0.1090  0.1161
  650MOL0     H89669   9.561   5.082   5.994  0.2403 -0.1978  1.2224
  650MOL0     H89670   9.466   4.991   6.175  1.4988  0.6523 -1.2649
  650MOL0     H89671   9.352   4.890   6.075  2.5160 -0.5904  0.7157
  650MOL0     H89672   9.328   5.183   6.071 -0.8977 -0.5310 -2.0365
  650MOL0     H89673   9.209   5.060   6.045  0.2792 -0.5052  1.0397
  650MOL0     H89674   9.292   5.164   6.319 -0.5598 -0.3574  1.7739
  650MOL0     H89675   9.265   4.993   6.297  2.9139  0.4582 -2.9597
  650MOL0     H89676   9.034   5.055   6.198  0.8313 -0.5383  0.1648
  650MOL0     H89677   9.066   5.222   6.241 -2.3499  1.2363  1.4700
  650MOL0     H89678   9.071   5.176   6.486 -2.4120 -0.1204  1.1203
  650MOL0     H89679   9.083   5.002   6.451  1.4664  0.1041 -1.1209
  650MOL0     H89680   9.523   4.804   5.449  0.2965 -0.6950 -0.3716
  650MOL0     H89681   9.493   4.623   5.299 -1.0318  2.0918 -0.0765
  650MOL0     H89682   9.123   4.474   5.181 -1.7152  0.9479 -1.3096
  650MOL0     H89683   8.971   4.430   4.985  1.5091  2.2638 -0.5459
  650MOL0     H89684   7.039   4.516   5.177 -2.7618 -1.4584  1.5118
  650MOL0     H89685   6.829   4.398   5.173 -0.5834 -0.7121  0.4913
  650MOL0     H89686   6.683   4.089   4.854  0.2459 -0.5295 -0.1067
  650MOL0     H89687   6.489   4.095   4.722 -2.4435 -0.7675 -0.4858
  650MOL0     H89688   6.308   4.084   4.626 -3.5792  4.3784  0.0515
  650MOL0     H89689   6.287   3.930   4.725 -0.2426 -0.4722 -0.1112
  650MOL0     H89690   6.100   3.943   4.559 -2.3042 -0.0336 -0.9715
  650MOL0     H89691   6.058   4.110   4.580 -1.6661 -0.3265  0.1727
  650MOL0     H89692   5.995   4.037   4.827  1.7615  1.6477 -1.6006
  650MOL0     H89693   5.887   4.006   4.693 -0.5343  0.4003  1.5779
  650MOL0     H89694   5.955   3.817   4.873 -0.4199  1.2401 -0.9691
  650MOL0     H89695   6.092   3.799   4.765  0.1250 -0.8652 -2.3581
  650MOL0     H89696   5.823   3.637   4.507  2.7985 -1.7940  1.0887
  650MOL0     H89697   6.242   4.150   5.073  0.3777  2.3972  1.9034
  650MOL0     H89698   6.466   4.103   5.308  1.1423 -0.1787  0.2387
  650MOL0     H89699   6.500   4.270   5.276 -0.0613  1.2036 -1.0283
  650MOL0     H89700   6.331   4.207   5.278  1.3996 -2.2710  1.4627
  651MOL0     O89701   1.514   2.477   7.290  0.5711 -0.4135 -0.4628
  651MOL0     C89702   1.595   2.562   7.260  0.3079  0.6018 -1.0335
  651MOL0     O89703   1.564   2.695   7.248 -0.2345  0.2591  0.1889
  651MOL0     C89704   1.438   2.746   7.257  0.8104 -0.2739 -0.1265
  651MOL0     C89705   1.353   2.723   7.362  0.0067 -0.3268 -0.4535
  651MOL0     C89706   1.223   2.776   7.362  0.3867  0.1015  0.2646
  651MOL0     C89707   1.170   2.848   7.253 -1.3266 -0.5105  0.6484
  651MOL0     O89708   1.042   2.881   7.250  0.2294  1.2109 -0.1146
  651MOL0     C89709   1.006   3.007   7.194  0.0043  0.2884 -0.8361
  651MOL0     C89710   0.851   3.021   7.216  0.2453  0.2136 -0.1369
  651MOL0     C89711   0.803   3.148   7.156 -0.1341  0.3311 -0.4389
  651MOL0     C89712   0.649   3.152   7.179 -0.2112  0.4847  0.4198
  651MOL0     C89713   0.616   3.296   7.197  0.1530  0.5536  0.4309
  651MOL0     C89714   0.463   3.332   7.208 -0.1615 -0.0706  1.0382
  651MOL0     C89715   0.441   3.477   7.253 -0.0111 -0.6781 -0.5639
  651MOL0     C89716   0.299   3.514   7.275  0.6034 -0.4132 -0.0079
  651MOL0     N89717   0.287   3.664   7.284  0.5053 -0.0877 -0.1492
  651MOL0     C89718   0.315   3.752   7.179  0.4038 -0.2881 -0.2289
  651MOL0     C89719   0.279   3.871   7.227  0.1971 -0.4271 -0.1878
  651MOL0     C89720   0.264   4.001   7.155  0.5094  0.3588  0.3766
  651MOL0     C89721   0.394   4.079   7.162 -1.0272  0.3182 -0.5887
  651MOL0     C89722   0.519   4.018   7.103  0.0995  0.3888 -0.3544
  651MOL0     C89723   0.639   4.112   7.098  0.8146  0.0745 -0.4254
  651MOL0     O89724   0.686   4.138   7.238 -0.1291  0.6061  0.0082
  651MOL0     C89725   0.795   4.223   7.242  0.1940  0.3096 -0.5398
  651MOL0     C89726   0.836   4.243   7.371  0.6427 -0.0633  0.4937
  651MOL0     C89727   0.950   4.308   7.395  0.2626 -0.6654  0.0074
  651MOL0     C89728   0.994   4.320   7.539 -0.5310  0.1555  0.4384
  651MOL0     C89729   1.028   4.368   7.290 -0.7427  0.2323  0.6770
  651MOL0     C89730   1.163   4.439   7.302 -0.0248 -0.0682  0.2216
  651MOL0     O89731   1.239   4.415   7.413  0.1849  0.9401  1.1353
  651MOL0     C89732   1.364   4.461   7.442  0.0013 -0.6094  0.1408
  651MOL0     C89733   1.424   4.395   7.549  0.2035 -0.3301  0.7966
  651MOL0     C89734   1.557   4.427   7.588  0.2563  0.1570 -0.7935
  651MOL0     C89735   1.620   4.537   7.536 -0.0044 -0.3601  0.5339
  651MOL0     O89736   1.739   4.585   7.601 -0.0079  0.3297  0.0524
  651MOL0     C89737   1.756   4.725   7.615 -0.3876  0.3277  0.0545
  651MOL0     C89738   1.888   4.765   7.684  0.2197  0.1240 -0.4689
  651MOL0     C89739   2.007   4.751   7.592 -0.9111  0.0630  0.0415
  651MOL0     C89740   2.138   4.753   7.678  0.2074 -0.3306  0.4642
  651MOL0     C89741   2.251   4.740   7.582 -0.2289 -0.1099 -0.2239
  651MOL0     C89742   2.247   4.849   7.466  0.0606  1.3258  0.8472
  651MOL0     C89743   2.383   4.876   7.406 -0.4970 -0.8212 -0.2811
  651MOL0     C89744   2.380   4.929   7.264 -0.5731 -0.2409 -0.2812
  651MOL0    Cl89745   2.324   5.101   7.276  0.2102  0.1641 -0.0579
  651MOL0     C89746   1.566   4.602   7.416 -0.3684  0.0779 -0.3609
  651MOL0     C89747   1.444   4.557   7.373 -0.5596  0.5513  0.9568
  651MOL0     O89748   1.200   4.510   7.208 -0.0871 -0.8198 -0.5085
  651MOL0     C89749   0.973   4.358   7.160  0.1248 -0.4424 -0.3997
  651MOL0     C89750   0.872   4.277   7.132  0.4546  0.9149 -0.6872
  651MOL0     N89751   0.236   3.858   7.362  0.5263  0.0917 -0.5865
  651MOL0     N89752   0.235   3.737   7.394  0.1818 -0.1839  0.0347
  651MOL0     C89753   1.263   2.877   7.151 -0.4821 -0.5495 -0.4847
  651MOL0     C89754   1.393   2.827   7.152  0.1355 -0.5817  0.5453
  651MOL0     C89755   1.743   2.521   7.245  0.8160  0.4161  1.3913
  651MOL0     C89756   1.830   2.622   7.192  0.1272  0.2077 -0.1562
  651MOL0     C89757   1.956   2.593   7.142 -0.3320  0.2810 -0.0976
  651MOL0     C89758   2.014   2.468   7.162  0.3809 -0.3128  0.2708
  651MOL0     O89759   2.146   2.448   7.119  0.0070 -0.3876  0.4179
  651MOL0     C89760   2.205   2.325   7.158  0.0374 -0.3636 -0.4094
  651MOL0     C89761   2.355   2.334   7.137  0.1609  0.0996  0.1923
  651MOL0     C89762   2.433   2.211   7.191  0.3617  0.4485 -0.0843
  651MOL0     C89763   2.587   2.244   7.169  0.3657 -0.6556 -0.4857
  651MOL0     C89764   2.626   2.250   7.032  0.4484  1.6911 -0.2081
  651MOL0     C89765   2.659   2.241   6.915  0.6398 -0.3485  0.9780
  651MOL0     C89766   1.929   2.367   7.223 -0.3969  0.0437 -0.3914
  651MOL0     C89767   1.793   2.389   7.267 -0.1765 -0.5618  0.4306
  651MOL0     C89768   1.709   2.271   7.310 -0.4854 -0.4710  0.5460
  651MOL0     H89769   1.399   2.668   7.443  1.2771 -0.2262 -1.0634
  651MOL0     H89770   1.163   2.738   7.444  1.8422 -1.5301  0.6479
  651MOL0     H89771   1.012   3.018   7.085  0.4007  0.6154 -0.7857
  651MOL0     H89772   1.070   3.079   7.246  0.2807  2.2760 -3.6608
  651MOL0     H89773   0.797   2.940   7.167  3.7128 -1.0810 -2.2413
  651MOL0     H89774   0.826   3.019   7.322  0.9257  1.6365  0.0664
  651MOL0     H89775   0.851   3.238   7.196 -1.1048  2.1079 -3.0556
  651MOL0     H89776   0.819   3.136   7.049 -3.1664 -1.3806 -0.8369
  651MOL0     H89777   0.580   3.124   7.099 -0.3599  2.7450 -0.3106
  651MOL0     H89778   0.613   3.093   7.264  0.6557 -0.1295  0.3725
  651MOL0     H89779   0.651   3.356   7.113  0.8865 -0.7365 -0.2100
  651MOL0     H89780   0.666   3.327   7.290  1.6666  2.6488 -0.9872
  651MOL0     H89781   0.423   3.321   7.107  0.5239  3.0394  0.3114
  651MOL0     H89782   0.408   3.258   7.266 -0.1839 -0.7924  0.1163
  651MOL0     H89783   0.491   3.539   7.178 -0.5343  0.1896 -0.2072
  651MOL0     H89784   0.489   3.496   7.349 -0.4330  2.8919 -0.9551
  651MOL0     H89785   0.248   3.483   7.184 -1.8602  0.3355  1.0447
  651MOL0     H89786   0.256   3.460   7.360 -1.6454  1.9603  0.4918
  651MOL0     H89787   0.360   3.733   7.082 -1.6732 -0.5930 -1.1883
  651MOL0     H89788   0.184   4.064   7.196 -0.2169 -0.6327  0.5106
  651MOL0     H89789   0.239   3.975   7.052  0.9726  1.0644  0.0784
  651MOL0     H89790   0.377   4.179   7.123 -1.1574  0.8910  0.8806
  651MOL0     H89791   0.419   4.100   7.266 -3.3629  0.7482 -0.0561
  651MOL0     H89792   0.545   3.922   7.149 -0.7499  1.2496  2.0631
  651MOL0     H89793   0.497   3.998   6.998 -3.3778 -0.0568  0.3606
  651MOL0     H89794   0.726   4.067   7.049  1.5334  1.6000 -0.6158
  651MOL0     H89795   0.604   4.197   7.039  1.8155  1.5649  1.0152
  651MOL0     H89796   0.777   4.202   7.452 -0.4252  0.8451  0.1922
  651MOL0     H89797   1.055   4.232   7.563  0.5152  0.8968  0.5707
  651MOL0     H89798   0.912   4.305   7.610 -2.3143  0.3979 -1.4747
  651MOL0     H89799   1.046   4.413   7.564  0.7047 -0.2513 -0.4985
  651MOL0     H89800   1.366   4.322   7.604 -0.6664  0.8749  1.5392
  651MOL0     H89801   1.603   4.372   7.669 -3.5140 -2.5240 -0.2252
  651MOL0     H89802   1.747   4.779   7.520 -3.2875 -0.0696  0.0069
  651MOL0     H89803   1.682   4.771   7.681 -0.9434  1.4154 -1.2639
  651MOL0     H89804   1.892   4.869   7.717  1.7093 -0.2930  0.7846
  651MOL0     H89805   1.906   4.699   7.770  0.3133  2.4401  1.4071
  651MOL0     H89806   2.008   4.835   7.521 -0.1683  1.2223  1.3739
  651MOL0     H89807   2.004   4.650   7.551  0.5350  0.0977 -0.2011
  651MOL0     H89808   2.132   4.685   7.764  1.1204 -1.6182 -0.4524
  651MOL0     H89809   2.148   4.846   7.735 -0.3639 -0.3044  0.5234
  651MOL0     H89810   2.342   4.726   7.641  0.2863 -3.9810 -1.6507
  651MOL0     H89811   2.228   4.650   7.523 -0.5741 -0.8871  1.0537
  651MOL0     H89812   2.214   4.946   7.506  0.9300  1.6568  0.7845
  651MOL0     H89813   2.173   4.817   7.392 -0.1262  2.8851  0.3239
  651MOL0     H89814   2.427   4.776   7.401 -0.3308 -0.7130 -1.0412
  651MOL0     H89815   2.442   4.943   7.469 -0.0141  0.0361 -1.6098
  651MOL0     H89816   2.307   4.881   7.198 -2.2861  0.6994  0.8535
  651MOL0     H89817   2.473   4.929   7.207 -1.6301  1.5572 -2.1799
  651MOL0     H89818   1.617   4.686   7.372 -1.2603  0.7768 -0.0872
  651MOL0     H89819   1.408   4.603   7.281  2.5891  0.3615 -0.5089
  651MOL0     H89820   1.023   4.392   7.070 -1.6244  2.7605 -0.3006
  651MOL0     H89821   0.834   4.266   7.031  1.8765  2.8210 -1.4799
  651MOL0     H89822   1.232   2.937   7.066  0.3573 -1.6203 -1.5836
  651MOL0     H89823   1.439   2.853   7.058 -0.3202 -0.2719  0.4051
  651MOL0     H89824   1.790   2.718   7.163 -2.9642  0.6414  4.4390
  651MOL0     H89825   2.009   2.668   7.085  1.5212 -0.1493  0.9982
  651MOL0     H89826   2.188   2.313   7.266 -0.0742 -2.0913 -0.5871
  651MOL0     H89827   2.164   2.243   7.099  0.5889 -1.1759  0.3006
  651MOL0     H89828   2.392   2.421   7.191  2.0161  0.0611 -0.9357
  651MOL0     H89829   2.371   2.353   7.030  0.7895  0.6591  0.3858
  651MOL0     H89830   2.406   2.186   7.294 -1.2816  1.4028 -0.2376
  651MOL0     H89831   2.402   2.127   7.128 -1.0676  0.1550  0.9606
  651MOL0     H89832   2.646   2.167   7.218 -1.3064 -0.9304  1.2096
  651MOL0     H89833   2.606   2.343   7.212 -2.9275  0.4460 -1.2198
  651MOL0     H89834   2.693   2.222   6.816 -3.0566 -0.2195 -0.4946
  651MOL0     H89835   1.979   2.272   7.237 -0.1303  0.3065  0.4928
  651MOL0     H89836   1.634   2.249   7.233 -1.5644 -0.9937  1.7138
  651MOL0     H89837   1.781   2.190   7.325 -0.0286 -0.2449 -0.3498
  651MOL0     H89838   1.660   2.286   7.406  4.2918 -0.3890  3.2548
  652MOL0     O89839   8.143   4.302  11.296  0.1389 -0.6077  0.3206
  652MOL0     C89840   8.115   4.268  11.407  0.1393  0.3758  0.5578
  652MOL0     O89841   8.114   4.346  11.521 -0.0580  0.0555 -0.5818
  652MOL0     C89842   8.163   4.482  11.525 -0.2262  1.0280  0.1954
  652MOL0     C89843   8.097   4.572  11.443 -0.7094  0.1015 -0.6668
  652MOL0     C89844   8.140   4.708  11.440 -0.2763  0.8159 -0.4454
  652MOL0     C89845   8.248   4.754  11.507 -0.2715 -0.5341 -1.2381
  652MOL0     O89846   8.283   4.889  11.511  0.1355  0.1915  0.1218
  652MOL0     C89847   8.302   4.945  11.644  0.3711  0.4832 -0.2427
  652MOL0     C89848   8.374   5.080  11.642 -0.2893 -0.1243  0.4953
  652MOL0     C89849   8.503   5.079  11.550  0.0442 -0.6401 -0.0391
  652MOL0     C89850   8.607   4.982  11.592  0.0106  0.2874 -0.5230
  652MOL0     C89851   8.752   5.024  11.561 -0.2324 -0.7286  0.2489
  652MOL0     C89852   8.781   4.998  11.405  0.1414  0.1772  0.3778
  652MOL0     C89853   8.919   5.043  11.377 -0.9822  0.5163 -0.2237
  652MOL0     C89854   8.946   5.191  11.381 -0.1987  0.0523 -0.6603
  652MOL0     N89855   8.891   5.255  11.262  0.2185  0.2755  0.4970
  652MOL0     C89856   8.939   5.222  11.138  0.3514 -0.4637 -0.8624
  652MOL0     C89857   8.839   5.277  11.061 -1.0962 -0.2413 -0.6640
  652MOL0     C89858   8.826   5.266  10.919 -0.6938  0.2488 -1.2033
  652MOL0     C89859   8.853   5.401  10.844  0.0924 -0.6329  0.0548
  652MOL0     C89860   8.842   5.416  10.690 -0.3667  0.2502 -0.5119
  652MOL0     C89861   8.904   5.292  10.614 -0.1199  0.6200  0.7086
  652MOL0     O89862   9.051   5.293  10.615 -0.1428 -0.9568 -0.5453
  652MOL0     C89863   9.116   5.390  10.539 -0.3731  1.1997  0.5244
  652MOL0     C89864   9.253   5.391  10.565  0.2452  1.0655 -0.7957
  652MOL0     C89865   9.344   5.480  10.499 -0.7018 -0.7290 -0.2700
  652MOL0     C89866   9.487   5.475  10.537  0.3214  0.3152 -0.4171
  652MOL0     C89867   9.287   5.569  10.403 -0.9456  0.1809 -0.4541
  652MOL0     C89868   9.368   5.682  10.340  0.0090 -0.0634  0.6952
  652MOL0     O89869   9.303   5.793  10.321 -0.0596  0.0166 -0.6814
  652MOL0     C89870   9.366   5.911  10.280  0.8586 -0.2442 -0.0520
  652MOL0     C89871   9.352   6.014  10.369 -0.3148  0.0328 -0.2460
  652MOL0     C89872   9.395   6.143  10.337 -0.1461 -0.7150 -0.8920
  652MOL0     C89873   9.449   6.179  10.208 -0.7947 -0.0862 -0.7076
  652MOL0     O89874   9.469   6.307  10.165  0.4876 -0.2864  0.3447
  652MOL0     C89875   9.426   6.414  10.248 -0.5910  0.7578  0.1188
  652MOL0     C89876   9.421   6.524  10.150 -0.4647  0.3248 -1.0585
  652MOL0     C89877   9.312   6.502  10.049 -0.5066 -0.1652  0.3195
  652MOL0     C89878   9.240   6.634  10.008 -0.2847  0.9478  0.2273
  652MOL0     C89879   9.143   6.634   9.883 -0.0451 -1.0303 -0.5657
  652MOL0     C89880   9.217   6.580   9.765  0.4847  0.5169  1.8177
  652MOL0     C89881   9.163   6.617   9.627  0.0092 -0.3737  1.1349
  652MOL0     C89882   9.194   6.511   9.515 -0.0331 -0.9136  0.7670
  652MOL0    Cl89883   9.364   6.499   9.468  0.0308 -0.0583 -0.1547
  652MOL0     C89884   9.463   6.069  10.116 -0.6673  0.0467  0.9345
  652MOL0     C89885   9.428   5.935  10.159 -0.5331 -0.4804 -0.5624
  652MOL0     O89886   9.490   5.660  10.323  0.7322  0.5635  0.0167
  652MOL0     C89887   9.147   5.564  10.379  0.5348  0.4528  0.5898
  652MOL0     C89888   9.064   5.476  10.444  0.2972 -0.9851 -1.4186
  652MOL0     N89889   8.747   5.347  11.132  0.9997  0.1586 -0.2358
  652MOL0     N89890   8.783   5.335  11.250  0.0124  0.2817 -0.7345
  652MOL0     C89891   8.300   4.661  11.597  0.1376  0.2389 -0.3829
  652MOL0     C89892   8.273   4.519  11.593  1.0206  0.4862 -0.1563
  652MOL0     C89893   8.096   4.119  11.433  0.0014  0.0724 -0.5835
  652MOL0     C89894   8.200   4.028  11.437 -0.6795 -0.2626  0.3124
  652MOL0     C89895   8.186   3.897  11.467  0.4965  0.0168 -0.1608
  652MOL0     C89896   8.064   3.849  11.492  1.0213  0.5859 -0.7978
  652MOL0     O89897   8.062   3.713  11.525 -0.6990  0.0135  0.2797
  652MOL0     C89898   7.954   3.634  11.467  0.1490 -0.6768 -0.7103
  652MOL0     C89899   7.977   3.485  11.459 -0.3846 -0.4683 -0.2567
  652MOL0     C89900   7.967   3.410  11.597 -0.4341  0.4574 -0.2501
  652MOL0     C89901   8.002   3.261  11.590  1.2822 -0.9494  0.3567
  652MOL0     C89902   8.079   3.219  11.707 -0.5757  0.2706 -0.0912
  652MOL0     C89903   8.156   3.196  11.803  0.7048  0.0228  0.1175
  652MOL0     C89904   7.949   3.938  11.505  0.3770  0.1693 -0.7617
  652MOL0     C89905   7.968   4.070  11.476  0.4820 -0.0592 -0.2882
  652MOL0     C89906   7.845   4.162  11.483 -0.5884  0.3899  0.2053
  652MOL0     H89907   8.002   4.547  11.397 -1.2346 -0.8993  0.8863
  652MOL0     H89908   8.088   4.767  11.365  0.9710  3.8810  0.9361
  652MOL0     H89909   8.362   4.888  11.715 -0.0785  0.3824  0.0578
  652MOL0     H89910   8.203   4.955  11.690  0.0318 -3.3783  0.1801
  652MOL0     H89911   8.307   5.162  11.615 -0.5934  0.5783  3.1570
  652MOL0     H89912   8.399   5.105  11.745  1.7644 -5.4722  1.6192
  652MOL0     H89913   8.479   5.059  11.445 -0.6811  1.7796 -0.3970
  652MOL0     H89914   8.547   5.179  11.551 -1.6214  0.1340 -0.4696
  652MOL0     H89915   8.607   4.985  11.701  1.1234  2.1350 -0.5299
  652MOL0     H89916   8.579   4.881  11.562 -3.6877  0.5741  1.4285
  652MOL0     H89917   8.826   4.973  11.624  1.6825  0.5447 -0.8833
  652MOL0     H89918   8.759   5.131  11.585 -2.2609 -1.1058  3.0519
  652MOL0     H89919   8.766   4.894  11.375 -0.3135  1.0633 -2.8241
  652MOL0     H89920   8.717   5.044  11.329  1.1706 -1.6022 -1.6623
  652MOL0     H89921   8.946   5.008  11.277  0.7871  3.6027 -0.9804
  652MOL0     H89922   8.978   4.997  11.456 -1.7763 -3.3813 -1.6661
  652MOL0     H89923   8.917   5.234  11.478 -4.1863 -2.7077 -0.3725
  652MOL0     H89924   9.053   5.213  11.377  0.1317 -1.2882  0.1323
  652MOL0     H89925   9.020   5.163  11.097  1.8593  0.9417 -0.0022
  652MOL0     H89926   8.726   5.226  10.897 -0.3409 -0.9888 -0.6543
  652MOL0     H89927   8.897   5.187  10.893 -2.1665 -0.9972 -1.6323
  652MOL0     H89928   8.787   5.478  10.886  1.3034  0.8975 -0.7206
  652MOL0     H89929   8.949   5.442  10.878 -0.5249  0.5597  0.4302
  652MOL0     H89930   8.736   5.422  10.666 -0.1465 -2.1322 -2.5228
  652MOL0     H89931   8.890   5.508  10.655  0.8997 -0.4764 -0.7622
  652MOL0     H89932   8.865   5.199  10.657 -1.4188  0.0450 -1.5478
  652MOL0     H89933   8.869   5.280  10.511  0.1788 -4.0128  0.9531
  652MOL0     H89934   9.304   5.329  10.637 -0.1877 -0.1877 -1.5380
  652MOL0     H89935   9.557   5.448  10.457  2.7320  1.4317  1.1805
  652MOL0     H89936   9.504   5.415  10.627  1.9671  3.7046  1.7604
  652MOL0     H89937   9.533   5.569  10.570  0.9752 -0.2960  0.4656
  652MOL0     H89938   9.308   5.999  10.467 -0.7821  3.3071  0.1660
  652MOL0     H89939   9.389   6.215  10.418  0.7816 -1.0829 -0.4772
  652MOL0     H89940   9.332   6.407  10.303 -0.2784  2.5340  0.9519
  652MOL0     H89941   9.508   6.422  10.321 -0.1730 -2.7277  0.2135
  652MOL0     H89942   9.405   6.616  10.207 -0.5689  1.5224 -2.9467
  652MOL0     H89943   9.517   6.544  10.102 -0.7915  0.7153 -1.5630
  652MOL0     H89944   9.231   6.440  10.089 -0.2246  0.2890  1.6621
  652MOL0     H89945   9.359   6.460   9.960  1.9525  3.6004 -0.4121
  652MOL0     H89946   9.316   6.710   9.993  3.1037 -2.4180 -1.3593
  652MOL0     H89947   9.181   6.668  10.094 -0.6946  2.1479 -0.4974
  652MOL0     H89948   9.049   6.583   9.905 -0.7565 -0.7900 -2.8267
  652MOL0     H89949   9.112   6.738   9.869 -1.5971 -1.1824  1.2749
  652MOL0     H89950   9.238   6.474   9.775 -0.5150  0.0511 -0.2966
  652MOL0     H89951   9.318   6.622   9.761 -0.6394  3.4034 -0.0979
  652MOL0     H89952   9.212   6.712   9.602  1.3964 -0.9460  1.5948
  652MOL0     H89953   9.056   6.638   9.628 -0.1375 -0.8960 -0.6543
  652MOL0     H89954   9.142   6.539   9.423  0.9211 -0.4069  0.3670
  652MOL0     H89955   9.164   6.409   9.543  0.3567 -1.7162 -1.4497
  652MOL0     H89956   9.500   6.093  10.017 -1.2022 -0.9235  0.4881
  652MOL0     H89957   9.449   5.849  10.096  0.7218  0.3322 -1.3065
  652MOL0     H89958   9.103   5.641  10.316 -2.1341 -2.1761 -0.9829
  652MOL0     H89959   8.956   5.479  10.440  0.1155 -1.9164  0.8701
  652MOL0     H89960   8.378   4.690  11.667  1.8253 -1.3916 -1.4790
  652MOL0     H89961   8.306   4.448  11.668 -3.2851 -1.1114  0.5687
  652MOL0     H89962   8.297   4.069  11.413 -1.7643  1.6833 -0.9422
  652MOL0     H89963   8.273   3.832  11.460 -0.4973 -1.3710 -0.0611
  652MOL0     H89964   7.863   3.662  11.521 -1.0468 -1.9472 -1.9751
  652MOL0     H89965   7.933   3.664  11.364  0.7204 -0.7826 -0.8611
  652MOL0     H89966   8.068   3.472  11.400 -1.1724 -0.8105 -1.4306
  652MOL0     H89967   7.907   3.449  11.383  0.3068 -0.2708 -1.0029
  652MOL0     H89968   8.034   3.461  11.666  0.0719 -2.2744  1.3808
  652MOL0     H89969   7.867   3.419  11.641 -0.5533  0.2433 -0.4702
  652MOL0     H89970   8.052   3.244  11.494 -1.7027  3.7283 -2.3979
  652MOL0     H89971   7.911   3.202  11.577  2.1413 -1.7401 -2.9927
  652MOL0     H89972   8.213   3.187  11.893  1.4861  1.6573 -0.1762
  652MOL0     H89973   7.853   3.891  11.522  1.1953 -1.2766  0.0376
  652MOL0     H89974   7.876   4.267  11.473 -3.3066  1.2954  0.4500
  652MOL0     H89975   7.771   4.138  11.407  1.3803  0.4167 -1.8342
  652MOL0     H89976   7.805   4.150  11.584 -2.0922 -0.6559 -0.4840
  653MOL0     O89977   5.930   0.506  10.298 -0.2841  0.7681 -0.4510
  653MOL0     C89978   5.963   0.612  10.253  0.3060 -0.7683  0.2935
  653MOL0     O89979   5.879   0.713  10.254  0.0726 -0.3812  0.0176
  653MOL0     C89980   5.764   0.717  10.323  0.3261 -0.1278 -0.2624
  653MOL0     C89981   5.649   0.753  10.261 -0.0797 -0.2948 -0.2026
  653MOL0     C89982   5.521   0.744  10.318 -0.4781  0.2089  0.7310
  653MOL0     C89983   5.507   0.716  10.458 -0.0108 -0.0310  0.1194
  653MOL0     O89984   5.392   0.728  10.529  0.3355  0.0347  0.0127
  653MOL0     C89985   5.310   0.610  10.528  0.7882 -0.1214 -0.6015
  653MOL0     C89986   5.196   0.639  10.622 -0.5982 -0.4874 -0.6093
  653MOL0     C89987   5.104   0.520  10.639  1.2481 -0.4735 -0.7609
  653MOL0     C89988   5.007   0.559  10.759  1.1090  0.5097  0.7681
  653MOL0     C89989   4.907   0.453  10.782 -0.1364  0.2709 -0.4185
  653MOL0     C89990   4.784   0.516  10.851  0.0324 -0.4573 -0.0148
  653MOL0     C89991   4.696   0.403  10.916  0.2808 -0.0950 -0.3091
  653MOL0     C89992   4.607   0.335  10.806 -0.1968 -0.0738  0.2185
  653MOL0     N89993   4.552   0.205  10.851  0.0274 -0.8189  1.3143
  653MOL0     C89994   4.416   0.181  10.869 -0.1165 -0.0996 -0.0833
  653MOL0     C89995   4.406   0.052  10.919 -0.2449  0.4562  0.9464
  653MOL0     C89996   4.277  -0.009  10.967  0.2882  0.6634  0.3023
  653MOL0     C89997   4.287  -0.067  11.110  0.5612 -0.0245 -0.6937
  653MOL0     C89998   4.147  -0.093  11.163 -0.2154  0.6331 -0.3400
  653MOL0     C89999   4.163  -0.207  11.258  0.3820 -0.2551  0.2947
  653MOL0     O90000   4.259  -0.177  11.361  0.9649  0.3722 -0.0357
  653MOL0     C90001   4.290  -0.281  11.452  0.3569 -0.9154 -0.1617
  653MOL0     C90002   4.219  -0.398  11.476 -0.1485 -0.6478  0.4734
  653MOL0     C90003   4.264  -0.504  11.552  1.1015 -0.5612  0.2750
  653MOL0     C90004   4.194  -0.633  11.538  0.1913  0.0430 -0.0313
  653MOL0     C90005   4.374  -0.480  11.636 -0.0311 -0.3533 -0.5083
  653MOL0     C90006   4.446  -0.589  11.716 -0.2831  0.2186  0.2062
  653MOL0     O90007   4.558  -0.546  11.769  0.2314  0.0746  0.0750
  653MOL0     C90008   4.638  -0.626  11.849 -0.7838 -0.2669 -0.7821
  653MOL0     C90009   4.580  -0.685  11.967  0.3555 -0.4490 -0.1072
  653MOL0     C90010   4.660  -0.761  12.050  0.0600  0.5010 -1.1539
  653MOL0     C90011   4.798  -0.774  12.030  0.1790 -0.1868 -0.5400
  653MOL0     O90012   4.875  -0.842  12.122 -0.1777 -0.4215  0.0728
  653MOL0     C90013   4.886  -0.787  12.255  0.0648  0.2055  0.8245
  653MOL0     C90014   4.979  -0.879  12.331 -0.5695  0.9433  1.4960
  653MOL0     C90015   5.022  -0.825  12.460  0.2641  0.3799  0.6613
  653MOL0     C90016   5.144  -0.893  12.509  0.2484 -0.1916  0.5310
  653MOL0     C90017   5.179  -0.850  12.647  0.0073 -0.2561  0.3873
  653MOL0     C90018   5.325  -0.877  12.696 -0.4969  0.7188 -0.3773
  653MOL0     C90019   5.325  -0.853  12.848 -0.0302  0.2275 -0.0262
  653MOL0     C90020   5.463  -0.843  12.913 -0.3979  0.1291 -0.2732
  653MOL0    Cl90021   5.575  -0.743  12.825 -0.0163  0.3695 -0.2258
  653MOL0     C90022   4.854  -0.718  11.915  0.2690  1.0199  0.2385
  653MOL0     C90023   4.772  -0.650  11.824  0.2359  1.3197  0.2886
  653MOL0     O90024   4.397  -0.704  11.724  0.0886 -0.3411  0.3744
  653MOL0     C90025   4.433  -0.346  11.634 -0.6257 -0.5711  0.8994
  653MOL0     C90026   4.389  -0.249  11.544  0.8219 -0.8055 -0.0723
  653MOL0     N90027   4.538  -0.002  10.918  0.8857  0.0228  0.2649
  653MOL0     N90028   4.616   0.089  10.874 -0.1925  1.0372 -0.3118
  653MOL0     C90029   5.621   0.701  10.530 -0.3455 -0.7792  0.7763
  653MOL0     C90030   5.751   0.701  10.463  0.0128 -0.3285  0.0057
  653MOL0     C90031   6.109   0.629  10.193  1.1651  0.8158  0.3319
  653MOL0     C90032   6.153   0.762  10.168 -0.0111 -0.1194 -0.1968
  653MOL0     C90033   6.292   0.793  10.133  0.4304 -0.6940  0.9041
  653MOL0     C90034   6.379   0.689  10.125 -0.0155 -0.3050 -0.6444
  653MOL0     O90035   6.519   0.706  10.094 -0.7867 -0.4295  0.8502
  653MOL0     C90036   6.577   0.833  10.055  0.5306 -0.3569  0.5336
  653MOL0     C90037   6.622   0.897  10.182  1.0203 -1.0317  0.3953
  653MOL0     C90038   6.710   1.021  10.140  0.4375  0.5448  0.1110
  653MOL0     C90039   6.778   1.103  10.253 -0.6902 -0.1346 -0.6967
  653MOL0     C90040   6.684   1.142  10.367 -0.5084 -0.7838 -0.5504
  653MOL0     C90041   6.603   1.159  10.449  0.8008 -0.5675  0.8336
  653MOL0     C90042   6.338   0.553  10.147  0.1234  0.8255 -0.0280
  653MOL0     C90043   6.202   0.525  10.172  0.6508  0.6545 -0.1311
  653MOL0     C90044   6.163   0.380  10.191  0.4389 -0.3542  0.4205
  653MOL0     H90045   5.654   0.776  10.155 -2.7143 -0.8397 -0.5163
  653MOL0     H90046   5.436   0.775  10.259 -0.5386 -0.8901  0.2201
  653MOL0     H90047   5.367   0.525  10.567  1.6438  0.1880 -1.1567
  653MOL0     H90048   5.265   0.602  10.428 -2.7162  1.4397  0.6826
  653MOL0     H90049   5.227   0.660  10.725 -0.2330 -0.7059 -0.6749
  653MOL0     H90050   5.143   0.727  10.583  0.1686  0.0247 -0.5078
  653MOL0     H90051   5.048   0.510  10.545 -1.3595 -1.0441  0.7511
  653MOL0     H90052   5.156   0.426  10.657  1.1223 -0.9671 -2.7569
  653MOL0     H90053   5.071   0.563  10.848 -0.5365 -1.2004  2.1080
  653MOL0     H90054   4.959   0.654  10.737  1.2271  0.7086  1.3447
  653MOL0     H90055   4.957   0.390  10.855  1.0036  0.2834 -1.1657
  653MOL0     H90056   4.879   0.390  10.697  0.9273 -0.1915 -0.4362
  653MOL0     H90057   4.802   0.587  10.932 -2.2924 -1.0954  1.1412
  653MOL0     H90058   4.719   0.573  10.784  3.3927  2.3306 -1.2218
  653MOL0     H90059   4.630   0.450  10.989 -0.1061 -0.4720 -0.4125
  653MOL0     H90060   4.754   0.329  10.971 -1.8553 -0.8182  1.0778
  653MOL0     H90061   4.526   0.403  10.779 -0.0857  1.6884  3.7929
  653MOL0     H90062   4.665   0.310  10.716 -0.0718 -1.4520  0.6596
  653MOL0     H90063   4.330   0.246  10.856 -1.9056 -1.7434  2.6147
  653MOL0     H90064   4.237  -0.083  10.898  3.7937  0.8383 -2.2235
  653MOL0     H90065   4.207   0.075  10.978 -0.2905  0.0264  1.6668
  653MOL0     H90066   4.348  -0.158  11.112  0.6132 -0.0521 -2.0923
  653MOL0     H90067   4.333   0.008  11.175 -1.4100 -1.2650  2.3072
  653MOL0     H90068   4.097  -0.014  11.218  0.0081  0.3319  0.3035
  653MOL0     H90069   4.076  -0.118  11.084  0.7820 -2.2299 -0.4691
  653MOL0     H90070   4.062  -0.223  11.298 -0.4218  3.5218  0.1460
  653MOL0     H90071   4.193  -0.293  11.198  0.2326 -1.8743  2.4359
  653MOL0     H90072   4.130  -0.405  11.414 -0.6269  2.7740  0.5632
  653MOL0     H90073   4.113  -0.645  11.611 -0.0700  1.4063 -0.0766
  653MOL0     H90074   4.249  -0.728  11.542 -0.9668 -0.6101  1.7315
  653MOL0     H90075   4.138  -0.637  11.444  1.1393 -0.3670 -0.5943
  653MOL0     H90076   4.474  -0.668  11.985 -0.1789 -0.6735 -2.6305
  653MOL0     H90077   4.615  -0.812  12.134  0.3760  1.0377 -0.6571
  653MOL0     H90078   4.918  -0.683  12.251 -1.9211  0.8798  1.0052
  653MOL0     H90079   4.789  -0.797  12.305 -1.0441  0.6067 -1.1448
  653MOL0     H90080   4.936  -0.978  12.348  1.9421 -0.5396 -0.1460
  653MOL0     H90081   5.069  -0.899  12.273  0.5937 -0.9766  3.8267
  653MOL0     H90082   4.936  -0.847  12.523 -1.6381 -1.6894 -2.3971
  653MOL0     H90083   5.040  -0.718  12.448  1.3254  0.0643 -1.0764
  653MOL0     H90084   5.220  -0.860  12.437  0.0252 -0.0886  0.3415
  653MOL0     H90085   5.137  -1.003  12.506 -0.1620 -0.2904 -4.4478
  653MOL0     H90086   5.151  -0.745  12.652 -0.7064 -0.3957 -0.5910
  653MOL0     H90087   5.115  -0.910  12.712  0.7889 -1.9601 -0.3473
  653MOL0     H90088   5.392  -0.802  12.652  0.1760  0.5304  0.3107
  653MOL0     H90089   5.375  -0.973  12.678 -0.8926 -0.2626  3.0811
  653MOL0     H90090   5.270  -0.940  12.885  1.2162 -2.2295 -3.4377
  653MOL0     H90091   5.267  -0.762  12.869  1.6120  1.2655  0.1808
  653MOL0     H90092   5.494  -0.948  12.916  1.4893  0.6633  1.2267
  653MOL0     H90093   5.455  -0.803  13.014  1.1982 -0.8882  0.3027
  653MOL0     H90094   4.957  -0.732  11.883 -0.4817 -0.9794 -1.5383
  653MOL0     H90095   4.820  -0.614  11.734 -0.1749  0.9607 -0.0781
  653MOL0     H90096   4.511  -0.312  11.702 -1.2152 -1.3398  1.9824
  653MOL0     H90097   4.428  -0.148  11.546  0.0023 -0.4809  1.9490
  653MOL0     H90098   5.612   0.709  10.638 -3.3520  0.1350  0.5436
  653MOL0     H90099   5.835   0.683  10.530  0.3842 -1.0703 -0.6385
  653MOL0     H90100   6.088   0.848  10.181 -1.5448 -1.4311  1.5664
  653MOL0     H90101   6.319   0.898  10.123 -0.5829 -0.5422 -0.6705
  653MOL0     H90102   6.653   0.822   9.978 -0.6067  1.3043 -0.9135
  653MOL0     H90103   6.502   0.891  10.000  1.0078  0.1844  0.4442
  653MOL0     H90104   6.680   0.826  10.240  2.6879 -0.1860 -0.1712
  653MOL0     H90105   6.531   0.930  10.234  1.4123  0.4064  0.2199
  653MOL0     H90106   6.790   0.983  10.077  1.0912  0.2755  1.0759
  653MOL0     H90107   6.631   1.083  10.096 -0.0468  0.3798  0.7255
  653MOL0     H90108   6.828   1.190  10.209 -2.2124  1.2273  0.1501
  653MOL0     H90109   6.855   1.035  10.291 -3.3672 -0.9587  3.9989
  653MOL0     H90110   6.534   1.181  10.527  0.9179 -0.3199  0.8678
  653MOL0     H90111   6.411   0.473  10.154  0.0207  0.8936  2.4300
  653MOL0     H90112   6.243   0.317  10.148  1.2570  0.8401  0.1370
  653MOL0     H90113   6.165   0.365  10.299 -3.3447  1.2710  0.8396
  653MOL0     H90114   6.062   0.366  10.151  0.9050 -1.4556 -0.4533
  654MOL0     O90115   0.200   5.587  10.930  0.2337 -0.7050  0.3776
  654MOL0     C90116   0.176   5.658  10.832  0.0328 -0.7939 -0.4832
  654MOL0     O90117   0.276   5.706  10.755  0.8194 -0.1100 -0.1729
  654MOL0     C90118   0.411   5.695  10.790 -0.4804  0.2554  0.3210
  654MOL0     C90119   0.492   5.645  10.688  0.4167 -0.8960 -0.1379
  654MOL0     C90120   0.631   5.656  10.689 -0.1360  0.9404 -0.2042
  654MOL0     C90121   0.694   5.707  10.811  0.1571  0.9932 -0.0231
  654MOL0     O90122   0.826   5.711  10.842 -0.1720 -0.3534 -0.3432
  654MOL0     C90123   0.915   5.665  10.738 -0.9159 -0.2082  0.6304
  654MOL0     C90124   0.949   5.776  10.636  0.1326 -0.6449 -0.3713
  654MOL0     C90125   1.097   5.765  10.590 -0.7549 -0.0671  0.0000
  654MOL0     C90126   1.137   5.872  10.487  0.0012 -0.3329  0.3340
  654MOL0     C90127   1.291   5.890  10.459 -0.3034 -0.0684 -0.5359
  654MOL0     C90128   1.362   5.774  10.391 -0.4220  0.0701  0.5499
  654MOL0     C90129   1.508   5.811  10.365 -0.1903 -0.3240 -0.0689
  654MOL0     C90130   1.597   5.691  10.370 -0.2223  0.3254 -1.0284
  654MOL0     N90131   1.727   5.721  10.304  0.0957 -0.1263 -0.0867
  654MOL0     C90132   1.837   5.777  10.360  0.4539 -0.0798  0.1750
  654MOL0     C90133   1.902   5.831  10.252 -1.1464 -0.6217  0.0157
  654MOL0     C90134   2.037   5.906  10.260 -0.2827  0.1948  0.3846
  654MOL0     C90135   2.065   5.985  10.132 -0.3364  0.1830 -0.9511
  654MOL0     C90136   2.194   6.067  10.136 -0.0116  0.2308  0.4057
  654MOL0     C90137   2.324   5.974  10.123  0.3093  0.1143 -0.4767
  654MOL0     O90138   2.447   6.050  10.118 -0.0050  0.3281  0.2421
  654MOL0     C90139   2.475   6.113  10.005 -0.1328 -0.3495  0.1208
  654MOL0     C90140   2.523   6.240  10.006 -0.5485  0.0524 -0.2178
  654MOL0     C90141   2.573   6.299   9.883  0.1165  0.2435 -0.3942
  654MOL0     C90142   2.622   6.438   9.874  0.0421  0.3060  0.6206
  654MOL0     C90143   2.571   6.215   9.766 -0.9114 -0.1732 -0.2734
  654MOL0     C90144   2.651   6.255   9.645 -0.6013 -0.0526  0.2347
  654MOL0     O90145   2.578   6.227   9.522 -0.3168  1.0791 -0.3977
  654MOL0     C90146   2.626   6.257   9.400 -1.1547  0.7939  0.1247
  654MOL0     C90147   2.753   6.209   9.362 -0.8462  0.3435  0.0408
  654MOL0     C90148   2.812   6.244   9.247  0.0989 -0.6820  0.4203
  654MOL0     C90149   2.747   6.332   9.156  0.3614 -0.8499  0.1871
  654MOL0     O90150   2.794   6.362   9.027 -0.0844 -0.0317 -0.0648
  654MOL0     C90151   2.906   6.292   8.985  0.2757  0.0863  0.5154
  654MOL0     C90152   2.918   6.309   8.832  0.0455 -0.3161 -0.1454
  654MOL0     C90153   3.036   6.237   8.773 -0.2845  0.8604 -0.7852
  654MOL0     C90154   3.022   6.195   8.624  0.3308  0.0085  0.2136
  654MOL0     C90155   3.155   6.116   8.584  0.9036  0.7199 -0.5939
  654MOL0     C90156   3.132   6.047   8.454 -0.2888 -0.5666  1.1159
  654MOL0     C90157   3.052   5.915   8.449 -0.0573  0.0441 -0.0997
  654MOL0     C90158   3.077   5.851   8.306  0.6096 -0.4128 -0.2359
  654MOL0    Cl90159   3.031   5.948   8.157 -0.4735 -0.2205  0.0720
  654MOL0     C90160   2.625   6.390   9.200  0.4021 -0.3345  0.0030
  654MOL0     C90161   2.573   6.352   9.320  0.9865 -0.2243  0.9915
  654MOL0     O90162   2.762   6.317   9.657 -0.0128  0.1358 -0.1816
  654MOL0     C90163   2.524   6.088   9.768  0.2577 -0.1053 -0.0563
  654MOL0     C90164   2.470   6.034   9.886  0.4938 -0.4290 -0.4609
  654MOL0     N90165   1.845   5.784  10.137  0.9039 -0.4049 -0.6130
  654MOL0     N90166   1.743   5.711  10.172 -1.6336 -0.2010  0.8045
  654MOL0     C90167   0.608   5.744  10.910 -0.7561  0.7291 -0.5049
  654MOL0     C90168   0.474   5.746  10.901  0.6247  0.0934 -0.3314
  654MOL0     C90169   0.029   5.669  10.791 -0.2045  0.4198 -0.1998
  654MOL0     C90170   0.000   5.706  10.662  0.1920 -0.1999  0.6016
  654MOL0     C90171  -0.138   5.739  10.624 -0.8718 -0.9864 -0.5166
  654MOL0     C90172  -0.237   5.719  10.704  0.6278  0.5558  0.1676
  654MOL0     O90173  -0.356   5.740  10.642  0.4577  0.0822  0.6902
  654MOL0     C90174  -0.478   5.759  10.717  0.1785  0.9180  0.0983
  654MOL0     C90175  -0.586   5.724  10.607 -0.1374  1.1057  0.1060
  654MOL0     C90176  -0.611   5.831  10.503 -0.3501 -0.9603  0.1334
  654MOL0     C90177  -0.594   5.976  10.558  0.0185  0.3575  0.0353
  654MOL0     C90178  -0.695   5.987  10.672  0.7506  1.0422  0.0548
  654MOL0     C90179  -0.774   5.992  10.763  0.0656 -0.8558  0.0090
  654MOL0     C90180  -0.207   5.680  10.842  0.1431 -0.4506  0.0008
  654MOL0     C90181  -0.079   5.643  10.881 -0.1356  0.3302  0.0250
  654MOL0     C90182  -0.065   5.617  11.029  0.4960 -0.0529  1.1490
  654MOL0     H90183   0.428   5.608  10.609 -1.0706  0.2187  0.5078
  654MOL0     H90184   0.702   5.621  10.615  0.2916 -0.1122  0.6827
  654MOL0     H90185   0.883   5.570  10.693  0.5922 -0.4345 -0.0508
  654MOL0     H90186   1.010   5.635  10.782  0.3617  0.4888 -1.4702
  654MOL0     H90187   0.888   5.773  10.545  0.2981 -0.0364 -0.5101
  654MOL0     H90188   0.929   5.875  10.678  2.0044  0.6918 -2.3650
  654MOL0     H90189   1.160   5.778  10.679 -0.2426  3.4355 -0.7365
  654MOL0     H90190   1.113   5.666  10.547 -0.9210  0.1298 -0.5150
  654MOL0     H90191   1.093   5.836  10.394  0.9061  2.1536 -1.1685
  654MOL0     H90192   1.100   5.972  10.513  0.9037  0.0579  0.1864
  654MOL0     H90193   1.332   5.898  10.560  0.2134 -0.1743 -0.7341
  654MOL0     H90194   1.315   5.988  10.416  0.9523 -0.2808 -0.3455
  654MOL0     H90195   1.366   5.688  10.459  0.1989 -0.3071  0.0388
  654MOL0     H90196   1.318   5.733  10.300 -0.7369  1.1253  0.2137
  654MOL0     H90197   1.547   5.889  10.431 -2.7262  0.5354  0.4896
  654MOL0     H90198   1.515   5.845  10.261 -0.8935 -0.6992 -0.2431
  654MOL0     H90199   1.622   5.658  10.471 -1.0279  0.8302 -0.6571
  654MOL0     H90200   1.554   5.607  10.315 -2.0028  0.2849  0.3523
  654MOL0     H90201   1.860   5.783  10.466  1.5358  0.2035 -0.0717
  654MOL0     H90202   2.117   5.833  10.265  0.6896  1.2038 -0.0358
  654MOL0     H90203   2.031   5.973  10.346 -1.7020  1.4790 -0.6482
  654MOL0     H90204   2.066   5.916  10.047  1.5924 -2.9657  1.3513
  654MOL0     H90205   1.984   6.057  10.120  0.4895  1.6228  1.4525
  654MOL0     H90206   2.192   6.135  10.050  0.9095 -1.4973 -1.0654
  654MOL0     H90207   2.189   6.121  10.230 -0.8212  0.2116  0.3810
  654MOL0     H90208   2.337   5.902  10.204  2.0151  0.8264 -0.0692
  654MOL0     H90209   2.321   5.913  10.032 -0.9252 -0.6509  0.0584
  654MOL0     H90210   2.531   6.291  10.102 -1.0007 -2.0199  0.9740
  654MOL0     H90211   2.560   6.509   9.928 -1.6052 -0.7877  0.2287
  654MOL0     H90212   2.606   6.475   9.772 -2.1965  0.3631  0.9597
  654MOL0     H90213   2.727   6.448   9.906 -0.4750 -1.4287  3.1548
  654MOL0     H90214   2.807   6.150   9.435 -1.1061 -0.8572 -0.7143
  654MOL0     H90215   2.905   6.192   9.230  1.1780  1.5698 -0.9551
  654MOL0     H90216   3.002   6.322   9.028 -0.0929  0.3997  1.1350
  654MOL0     H90217   2.878   6.187   8.998 -1.2869  0.5498  1.1935
  654MOL0     H90218   2.827   6.273   8.785  2.2159 -2.9044 -2.7162
  654MOL0     H90219   2.927   6.414   8.802 -0.0583  0.1579  1.3674
  654MOL0     H90220   3.060   6.150   8.834  2.2637  1.0313 -1.4434
  654MOL0     H90221   3.124   6.302   8.770  2.3244 -2.4689 -2.8953
  654MOL0     H90222   3.018   6.286   8.563 -0.0403  0.4700  0.9123
  654MOL0     H90223   2.932   6.133   8.621  0.4563 -0.3755  2.5269
  654MOL0     H90224   3.237   6.189   8.582 -0.4762  2.3206 -0.8232
  654MOL0     H90225   3.178   6.047   8.667  1.3479  0.2364 -1.1106
  654MOL0     H90226   3.231   6.024   8.414 -0.1710 -1.8263  2.0476
  654MOL0     H90227   3.106   6.126   8.384  1.0102 -2.2513 -1.3901
  654MOL0     H90228   2.949   5.945   8.471  0.8958  3.4688  0.3513
  654MOL0     H90229   3.088   5.854   8.532 -0.1552  1.3332  0.9120
  654MOL0     H90230   3.014   5.762   8.293 -0.6265  0.4190 -0.0543
  654MOL0     H90231   3.183   5.832   8.288  0.8714  1.3346 -0.6695
  654MOL0     H90232   2.571   6.450   9.128  0.6634 -1.8163 -1.4822
  654MOL0     H90233   2.481   6.398   9.355  2.3603  2.7302  1.0125
  654MOL0     H90234   2.530   6.035   9.673  3.8314  0.2474 -0.1478
  654MOL0     H90235   2.440   5.930   9.876  1.7662 -0.7199 -1.5025
  654MOL0     H90236   0.652   5.776  11.004  1.3023 -2.0137 -0.4328
  654MOL0     H90237   0.412   5.786  10.981 -1.9585 -0.5139 -1.9257
  654MOL0     H90238   0.072   5.737  10.586 -0.7482 -0.0120 -0.2359
  654MOL0     H90239  -0.143   5.760  10.518  0.1256  1.2090 -0.1816
  654MOL0     H90240  -0.480   5.685  10.798 -1.1653 -0.6132 -1.2762
  654MOL0     H90241  -0.486   5.858  10.764  2.5601  1.3543 -0.2897
  654MOL0     H90242  -0.681   5.716  10.661 -0.2300  1.2890 -0.0299
  654MOL0     H90243  -0.553   5.634  10.553 -2.5255  0.6102 -0.6181
  654MOL0     H90244  -0.536   5.821  10.424  2.0605  1.2631  1.9487
  654MOL0     H90245  -0.710   5.821  10.458 -0.6180 -1.5169  0.8171
  654MOL0     H90246  -0.632   6.050  10.487 -0.4945  2.5827  2.4991
  654MOL0     H90247  -0.488   5.983  10.582  0.0204 -0.0518  0.1668
  654MOL0     H90248  -0.846   6.010  10.840  0.4904 -2.6067  0.8502
  654MOL0     H90249  -0.286   5.676  10.915  0.8456  0.3267  0.8280
  654MOL0     H90250  -0.025   5.517  11.047 -0.1237 -0.4888  0.2258
  654MOL0     H90251   0.006   5.686  11.074  1.9743 -1.3324  0.8633
  654MOL0     H90252  -0.161   5.625  11.079 -0.9215  1.5748 -1.5519
  655MOL0     O90253  10.060   3.533   8.339 -0.1309  0.2874  0.5878
  655MOL0     C90254  10.046   3.430   8.276  0.5703 -0.3273  1.1739
  655MOL0     O90255  10.087   3.409   8.146  0.6175 -0.0384 -0.3126
  655MOL0     C90256  10.155   3.493   8.060 -0.0789  0.6030 -0.4692
  655MOL0     C90257  10.196   3.428   7.942 -0.3694  0.9351  0.3442
  655MOL0     C90258  10.268   3.491   7.843  0.0485 -0.7642  0.7227
  655MOL0     C90259  10.314   3.623   7.857 -0.3573 -0.2105 -0.3399
  655MOL0     O90260  10.396   3.689   7.764 -0.2339  0.1554  0.1930
  655MOL0     C90261  10.488   3.790   7.806  0.4142 -0.2409 -0.1113
  655MOL0     C90262  10.613   3.793   7.714 -0.3458  0.2570  0.2937
  655MOL0     C90263  10.713   3.668   7.739  0.8838  0.1961 -0.1397
  655MOL0     C90264  10.672   3.545   7.657 -0.4530  0.0300  0.7672
  655MOL0     C90265  10.741   3.418   7.702 -0.6225  0.3862  0.7183
  655MOL0     C90266  10.879   3.420   7.656 -0.8112  0.1158 -0.1871
  655MOL0     C90267  10.962   3.294   7.715 -0.5245  0.1816  0.8117
  655MOL0     C90268  11.114   3.325   7.712  0.1973 -0.2556 -0.4761
  655MOL0     N90269  11.177   3.213   7.790 -0.6166  0.0855 -0.1052
  655MOL0     C90270  11.262   3.228   7.902 -0.3025  0.2609  0.9337
  655MOL0     C90271  11.308   3.102   7.931  0.7168  0.6020  0.7760
  655MOL0     C90272  11.416   3.062   8.025  0.4694  0.4986  0.0802
  655MOL0     C90273  11.556   3.078   7.961  0.1471  0.3297  0.9587
  655MOL0     C90274  11.657   3.082   8.080  0.1678  0.6133  0.4983
  655MOL0     C90275  11.661   2.954   8.162 -0.9261 -0.5275  0.2473
  655MOL0     O90276  11.671   2.834   8.083 -0.0157  0.6714 -0.2220
  655MOL0     C90277  11.662   2.723   8.162 -0.4021 -0.7865  0.3211
  655MOL0     C90278  11.577   2.704   8.268  0.2331 -0.1449  0.4036
  655MOL0     C90279  11.573   2.587   8.330  0.3820  0.9591  0.0269
  655MOL0     C90280  11.459   2.576   8.430 -0.9163 -0.2059  0.4472
  655MOL0     C90281  11.660   2.482   8.297  0.3241  0.3094 -0.0647
  655MOL0     C90282  11.673   2.352   8.366 -0.5819  0.4138  0.2920
  655MOL0     O90283  11.803   2.298   8.361  0.2218  0.0642 -0.0296
  655MOL0     C90284  11.819   2.169   8.405 -0.2813 -0.0784  0.3167
  655MOL0     C90285  11.918   2.143   8.503 -0.6416  0.0772 -0.7229
  655MOL0     C90286  11.961   2.009   8.531  0.4752  0.2723  0.0815
  655MOL0     C90287  11.912   1.903   8.462  0.1332  0.1352 -0.7820
  655MOL0     O90288  11.964   1.773   8.476  1.2785 -0.3582  0.4160
  655MOL0     C90289  12.070   1.731   8.561  0.0762 -0.5655 -0.7164
  655MOL0     C90290  12.154   1.622   8.490 -0.3839 -0.1089 -0.3961
  655MOL0     C90291  12.194   1.506   8.582  0.5762  0.5598  0.4857
  655MOL0     C90292  12.293   1.550   8.688  0.0525  0.1066 -0.1237
  655MOL0     C90293  12.292   1.463   8.817  0.3131  0.7406 -0.6361
  655MOL0     C90294  12.333   1.317   8.803 -0.1205 -0.0634  0.0274
  655MOL0     C90295  12.489   1.293   8.762  0.6587 -0.9385  0.1881
  655MOL0     C90296  12.571   1.377   8.849 -0.2823  0.3050 -0.4654
  655MOL0    Cl90297  12.741   1.342   8.813 -0.2623 -0.1787  0.2577
  655MOL0     C90298  11.803   1.928   8.373 -0.5955  0.4807 -0.0526
  655MOL0     C90299  11.762   2.058   8.340  0.5867 -0.6320 -0.6534
  655MOL0     O90300  11.581   2.310   8.431  0.9057  0.3408 -0.0218
  655MOL0     C90301  11.744   2.506   8.190 -0.5110 -0.1086 -0.0285
  655MOL0     C90302  11.749   2.623   8.119 -0.6462 -0.5183  0.1680
  655MOL0     N90303  11.236   3.020   7.845 -0.0729 -0.3334 -0.8154
  655MOL0     N90304  11.163   3.081   7.764 -0.9909 -1.0110  0.2818
  655MOL0     C90305  10.277   3.691   7.978 -1.3625  0.0777 -0.6811
  655MOL0     C90306  10.191   3.630   8.073 -0.1681  0.3857 -0.5972
  655MOL0     C90307   9.968   3.310   8.325 -0.1697 -0.4259  0.3218
  655MOL0     C90308   9.951   3.193   8.254 -0.5388  0.5992 -0.7017
  655MOL0     C90309   9.873   3.080   8.298  0.4515 -1.3639  0.3544
  655MOL0     C90310   9.810   3.081   8.419 -0.4175  0.0352  0.7208
  655MOL0     O90311   9.737   2.969   8.451 -0.0765  0.8374  0.1855
  655MOL0     C90312   9.663   2.955   8.576  0.6699  0.1589  0.0294
  655MOL0     C90313   9.730   2.867   8.674 -0.5870  0.0533 -0.5182
  655MOL0     C90314   9.851   2.935   8.735  0.2863 -0.1651  0.0049
  655MOL0     C90315   9.930   2.850   8.834  0.2812  0.4213 -0.6524
  655MOL0     C90316  10.021   2.745   8.780 -0.2115  0.2364  0.7550
  655MOL0     C90317  10.092   2.665   8.723  0.6725  0.5922 -0.2798
  655MOL0     C90318   9.839   3.194   8.499  1.4387  0.4063 -0.2405
  655MOL0     C90319   9.911   3.307   8.450 -0.4552  0.0237  0.0712
  655MOL0     C90320   9.913   3.431   8.541  0.5598 -0.2846 -0.8393
  655MOL0     H90321  10.168   3.323   7.939 -0.3916  0.9521 -0.9924
  655MOL0     H90322  10.267   3.444   7.746 -0.3876  2.4626 -0.9947
  655MOL0     H90323  10.531   3.777   7.906  0.4079 -1.9876 -0.3108
  655MOL0     H90324  10.430   3.882   7.798 -2.3474 -1.6086  2.3251
  655MOL0     H90325  10.593   3.804   7.607 -0.2057 -1.5549  0.0586
  655MOL0     H90326  10.670   3.882   7.744 -0.6746  0.9987 -1.1942
  655MOL0     H90327  10.804   3.699   7.686 -0.8773  2.3942 -2.0869
  655MOL0     H90328  10.752   3.662   7.841  1.6291  1.4844 -0.3246
  655MOL0     H90329  10.567   3.524   7.675 -0.6305 -1.4448 -1.5264
  655MOL0     H90330  10.670   3.543   7.547 -1.3694 -1.9084  0.7691
  655MOL0     H90331  10.676   3.342   7.658 -1.3099  1.5705 -0.3565
  655MOL0     H90332  10.733   3.404   7.810 -3.2090  1.5662  0.7366
  655MOL0     H90333  10.882   3.431   7.547  1.2782  2.4380  0.0095
  655MOL0     H90334  10.927   3.508   7.697 -1.0410  0.5038 -0.7377
  655MOL0     H90335  10.936   3.213   7.646 -2.5436  1.5554 -0.1475
  655MOL0     H90336  10.937   3.271   7.819 -0.6123  0.3690  0.8322
  655MOL0     H90337  11.150   3.310   7.610  0.6573 -3.1514  0.0125
  655MOL0     H90338  11.134   3.421   7.759 -4.5605  0.4417  0.5996
  655MOL0     H90339  11.286   3.325   7.945  2.5818  0.3104 -0.5751
  655MOL0     H90340  11.404   2.954   8.039 -0.0439  0.6837  1.1637
  655MOL0     H90341  11.406   3.115   8.120 -1.0365 -2.5968  1.7828
  655MOL0     H90342  11.584   3.004   7.885 -0.8270  0.8678  0.0397
  655MOL0     H90343  11.560   3.172   7.905 -0.7739  0.2947  0.8096
  655MOL0     H90344  11.750   3.110   8.031 -0.6565  2.3611 -0.1691
  655MOL0     H90345  11.639   3.166   8.149  0.6740  0.9787  0.1876
  655MOL0     H90346  11.741   2.962   8.237 -2.3977 -0.9769  1.9159
  655MOL0     H90347  11.571   2.965   8.223 -0.2935  1.2624  0.9302
  655MOL0     H90348  11.510   2.784   8.299  0.4033  0.1316  0.0754
  655MOL0     H90349  11.503   2.558   8.529 -0.2110 -2.6435 -0.2416
  655MOL0     H90350  11.398   2.490   8.405  0.7139 -0.4579 -3.4131
  655MOL0     H90351  11.392   2.662   8.433  0.9721  1.4074 -0.8497
  655MOL0     H90352  11.955   2.230   8.556  0.1922 -0.4603 -0.4087
  655MOL0     H90353  12.041   2.004   8.603 -0.3778 -0.2044  1.0207
  655MOL0     H90354  12.144   1.805   8.593  0.3362 -1.7894  1.6867
  655MOL0     H90355  12.029   1.695   8.655 -0.7095  2.3306  0.1763
  655MOL0     H90356  12.112   1.580   8.399 -1.1103  1.1552 -0.6776
  655MOL0     H90357  12.247   1.672   8.461  0.2719 -1.3754 -0.5351
  655MOL0     H90358  12.248   1.434   8.520 -1.0644  0.6678 -1.1447
  655MOL0     H90359  12.102   1.468   8.627  0.7157  1.7498  1.8666
  655MOL0     H90360  12.286   1.656   8.715 -1.9957 -0.0632  0.1800
  655MOL0     H90361  12.392   1.547   8.641  0.2464  1.6050  0.1349
  655MOL0     H90362  12.338   1.506   8.906  3.1730 -3.1164  0.0409
  655MOL0     H90363  12.190   1.445   8.854  0.4443  0.8692 -0.2059
  655MOL0     H90364  12.267   1.275   8.727  1.2405  1.3691 -2.0601
  655MOL0     H90365  12.303   1.267   8.895 -2.3807 -1.1026 -1.1917
  655MOL0     H90366  12.511   1.326   8.661  3.0864 -2.2750  0.2030
  655MOL0     H90367  12.525   1.190   8.775  0.0608 -1.7895 -3.7642
  655MOL0     H90368  12.555   1.338   8.950  1.2465 -1.1907 -0.7391
  655MOL0     H90369  12.548   1.483   8.833  0.8791  0.3840 -1.8508
  655MOL0     H90370  11.756   1.849   8.316 -0.7535 -1.1974  2.2724
  655MOL0     H90371  11.681   2.069   8.268 -0.8320  0.9915  1.0752
  655MOL0     H90372  11.810   2.431   8.148  2.1200  0.7816  2.2285
  655MOL0     H90373  11.814   2.640   8.033 -0.6218 -0.4237  0.2057
  655MOL0     H90374  10.317   3.791   7.990  1.0052 -0.6521 -1.9248
  655MOL0     H90375  10.167   3.688   8.162 -1.5002 -0.6573 -0.2422
  655MOL0     H90376  10.003   3.178   8.160 -2.3038 -1.3083 -1.4545
  655MOL0     H90377   9.860   2.989   8.239 -0.2132 -1.2752  0.3568
  655MOL0     H90378   9.643   3.055   8.615  0.5817 -1.2391  4.0218
  655MOL0     H90379   9.562   2.913   8.565 -1.4302  3.8504  2.7810
  655MOL0     H90380   9.758   2.773   8.627 -0.8723  0.6143 -1.8871
  655MOL0     H90381   9.655   2.858   8.753  0.8465 -0.2632  0.8470
  655MOL0     H90382   9.920   2.973   8.658 -2.4980 -0.2837 -2.7512
  655MOL0     H90383   9.826   3.025   8.792  0.3898 -0.0086 -0.1959
  655MOL0     H90384   9.861   2.788   8.892  0.6316 -1.1330 -1.8294
  655MOL0     H90385   9.978   2.921   8.903 -1.0113  1.2867 -0.6090
  655MOL0     H90386  10.159   2.599   8.671 -1.0223 -1.7721  0.3765
  655MOL0     H90387   9.808   3.199   8.603  0.7571 -1.4246 -0.3170
  655MOL0     H90388   9.847   3.425   8.627  2.0014 -1.3974  0.2331
  655MOL0     H90389  10.010   3.457   8.586 -1.1646  1.2383  2.3493
  655MOL0     H90390   9.872   3.519   8.489  1.5322  1.7006  1.5682
  656MOL0     O90391   0.775  10.914   2.616  0.7909 -0.4626 -0.0175
  656MOL0     C90392   0.770  10.906   2.490  0.5913  0.0300 -0.4720
  656MOL0     O90393   0.837  10.828   2.406  0.4882  0.7885 -0.4149
  656MOL0     C90394   0.903  10.714   2.455 -0.3149 -1.5911  0.0452
  656MOL0     C90395   0.836  10.609   2.513 -0.8380  0.2724  0.6339
  656MOL0     C90396   0.899  10.485   2.541  1.0384 -0.0262  1.0589
  656MOL0     C90397   1.036  10.475   2.508 -0.1971 -0.1811 -0.1774
  656MOL0     O90398   1.100  10.359   2.552  0.9657  0.0317  0.7420
  656MOL0     C90399   1.242  10.363   2.595 -0.2113 -0.8714  0.1528
  656MOL0     C90400   1.302  10.225   2.588  0.3857 -1.1798 -0.0083
  656MOL0     C90401   1.240  10.139   2.703 -0.0600  0.5497  0.1911
  656MOL0     C90402   1.275   9.991   2.677  0.2671  1.2293 -0.5606
  656MOL0     C90403   1.215   9.915   2.787  1.7221 -0.2009 -0.2860
  656MOL0     C90404   1.259   9.766   2.778  0.7192  0.5979 -1.1357
  656MOL0     C90405   1.178   9.667   2.883  0.2901  0.5518 -0.6066
  656MOL0     C90406   1.034   9.648   2.853 -0.6976 -0.4434  0.1601
  656MOL0     N90407   0.957   9.600   2.967  0.1567 -0.7899  0.7000
  656MOL0     C90408   0.939   9.669   3.089 -0.6267 -0.5766 -0.1591
  656MOL0     C90409   0.872   9.579   3.163 -0.7179  0.1002 -0.2416
  656MOL0     C90410   0.838   9.590   3.309 -0.0236  0.6791 -0.1066
  656MOL0     C90411   0.717   9.687   3.330  0.7422  0.4693  0.0357
  656MOL0     C90412   0.586   9.608   3.294 -0.2068  0.8242  0.3673
  656MOL0     C90413   0.545   9.527   3.419  0.4699  0.5940  0.4156
  656MOL0     O90414   0.524   9.620   3.526  0.3668 -0.3504  0.2500
  656MOL0     C90415   0.501   9.575   3.649 -0.3914  0.4049 -0.3673
  656MOL0     C90416   0.520   9.666   3.751  0.2420  0.0088 -0.6922
  656MOL0     C90417   0.500   9.643   3.884  0.0677 -0.0941 -0.4547
  656MOL0     C90418   0.521   9.747   3.993  0.0496 -0.1382 -0.3533
  656MOL0     C90419   0.460   9.514   3.931 -0.6601 -0.3756  0.3903
  656MOL0     C90420   0.429   9.485   4.071  0.0204  0.1722  0.3041
  656MOL0     O90421   0.487   9.381   4.133  0.4526  0.1436 -0.1138
  656MOL0     C90422   0.462   9.362   4.274  0.1593 -0.3983  0.7253
  656MOL0     C90423   0.561   9.395   4.370  0.9268 -0.4012  0.2657
  656MOL0     C90424   0.551   9.366   4.502 -0.0633  0.9355  0.2758
  656MOL0     C90425   0.421   9.320   4.550 -0.0803  0.1672 -0.0770
  656MOL0     O90426   0.397   9.297   4.684  0.4104  0.1454  0.0144
  656MOL0     C90427   0.503   9.321   4.784 -0.4554 -0.9546  1.9130
  656MOL0     C90428   0.432   9.284   4.914  0.9202  0.0453 -0.9030
  656MOL0     C90429   0.394   9.138   4.923  0.6002 -1.0240  0.0704
  656MOL0     C90430   0.341   9.087   5.052 -0.2075 -0.0028 -0.6347
  656MOL0     C90431   0.424   9.118   5.175  0.3375  0.4055  0.5712
  656MOL0     C90432   0.565   9.062   5.166 -0.8835 -0.5630 -0.0031
  656MOL0     C90433   0.625   9.117   5.298 -0.7560  0.3037 -0.3145
  656MOL0     C90434   0.762   9.055   5.325  1.0813 -0.2626  1.0098
  656MOL0    Cl90435   0.850   9.102   5.472 -0.1349 -0.0813  0.2799
  656MOL0     C90436   0.323   9.293   4.454 -0.4140 -0.2396 -0.4718
  656MOL0     C90437   0.338   9.308   4.323 -0.0802  0.1250 -0.2970
  656MOL0     O90438   0.341   9.556   4.121 -0.5608 -0.1295 -0.2304
  656MOL0     C90439   0.442   9.413   3.840 -0.5709 -0.7495 -0.1280
  656MOL0     C90440   0.462   9.443   3.696  0.0423  0.1947  0.0672
  656MOL0     N90441   0.836   9.468   3.082 -1.1622  0.8097 -0.0969
  656MOL0     N90442   0.896   9.480   2.974 -0.1844 -0.3335  1.0094
  656MOL0     C90443   1.100  10.586   2.459 -1.0451 -0.0665  0.3302
  656MOL0     C90444   1.034  10.700   2.424 -0.4420  0.5916  0.4530
  656MOL0     C90445   0.668  10.990   2.417  0.3624 -0.0273  0.0476
  656MOL0     C90446   0.676  11.130   2.444  0.6685 -0.0402 -1.0574
  656MOL0     C90447   0.590  11.220   2.384 -0.3942  0.6234 -0.0945
  656MOL0     C90448   0.506  11.173   2.285  0.2177 -0.7788  0.0211
  656MOL0     O90449   0.423  11.255   2.210 -0.5466  0.6251 -0.4068
  656MOL0     C90450   0.450  11.397   2.192 -0.4677 -1.0214 -1.2659
  656MOL0     C90451   0.348  11.434   2.081  0.1050  0.1528  0.1394
  656MOL0     C90452   0.202  11.423   2.122 -1.3238 -0.7944 -0.3539
  656MOL0     C90453   0.113  11.444   1.992 -0.8610 -0.1421 -0.2814
  656MOL0     C90454  -0.021  11.484   2.036 -0.5461 -0.2696 -0.8710
  656MOL0     C90455  -0.134  11.516   2.067 -0.2779 -0.0945  0.0924
  656MOL0     C90456   0.480  11.038   2.272  0.5477 -0.2203  0.6206
  656MOL0     C90457   0.561  10.938   2.336 -0.1372 -0.4948 -0.7034
  656MOL0     C90458   0.548  10.789   2.311 -0.2184 -0.0290 -0.0959
  656MOL0     H90459   0.732  10.620   2.542 -1.8001 -1.9944 -1.6228
  656MOL0     H90460   0.846  10.415   2.605 -0.4627  0.0382 -0.0592
  656MOL0     H90461   1.247  10.396   2.699 -0.0974 -1.2642  0.2732
  656MOL0     H90462   1.303  10.427   2.530 -1.1490  0.5541  0.6306
  656MOL0     H90463   1.283  10.180   2.490  0.1135 -2.0888  0.4537
  656MOL0     H90464   1.409  10.237   2.604  0.2359 -0.0072  0.2242
  656MOL0     H90465   1.290  10.167   2.796  0.4393 -0.2468  0.1720
  656MOL0     H90466   1.134  10.165   2.707  0.3932  2.3655  1.1515
  656MOL0     H90467   1.227   9.960   2.584  1.5767  2.8915 -1.8495
  656MOL0     H90468   1.381   9.968   2.672  0.7395  2.2777  2.6144
  656MOL0     H90469   1.108   9.923   2.809  1.5660  0.7758 -1.3216
  656MOL0     H90470   1.255   9.962   2.877 -2.9701 -0.2590  2.1358
  656MOL0     H90471   1.256   9.721   2.678  2.0597  1.2445 -1.4904
  656MOL0     H90472   1.364   9.754   2.809 -0.4911 -1.5700  2.8323
  656MOL0     H90473   1.180   9.709   2.984  2.8354 -2.4038  0.7485
  656MOL0     H90474   1.228   9.570   2.890 -0.1474  0.4195  1.2983
  656MOL0     H90475   1.000   9.746   2.818 -1.8004 -1.3625 -1.5062
  656MOL0     H90476   1.022   9.573   2.774  0.4983  0.5475 -0.9963
  656MOL0     H90477   0.982   9.763   3.122  0.4090 -1.7965  2.2569
  656MOL0     H90478   0.926   9.626   3.364  0.9291 -0.2430 -0.9838
  656MOL0     H90479   0.811   9.491   3.348 -1.4706  0.6580 -1.1132
  656MOL0     H90480   0.717   9.733   3.429  0.0596  1.7320 -0.5225
  656MOL0     H90481   0.719   9.770   3.258 -2.6427  1.8891  1.3273
  656MOL0     H90482   0.500   9.667   3.260 -1.1555 -0.9108 -0.3729
  656MOL0     H90483   0.608   9.551   3.203 -0.9767 -1.1025  1.3386
  656MOL0     H90484   0.447   9.483   3.397  0.0871  0.4762  2.1827
  656MOL0     H90485   0.616   9.450   3.449  0.7791  0.0397 -1.5866
  656MOL0     H90486   0.558   9.762   3.718 -0.4477  0.3395 -0.5387
  656MOL0     H90487   0.428   9.784   4.036 -0.3015 -0.1461 -1.0874
  656MOL0     H90488   0.582   9.834   3.968  0.5038 -0.7482 -1.4954
  656MOL0     H90489   0.582   9.705   4.073  1.5723 -0.4491 -1.6224
  656MOL0     H90490   0.657   9.430   4.333  1.2214  0.4291  1.7169
  656MOL0     H90491   0.641   9.358   4.563 -0.6055  0.1295  1.0163
  656MOL0     H90492   0.595   9.267   4.766  0.1477  0.9168 -1.3149
  656MOL0     H90493   0.531   9.426   4.775 -0.5805 -0.9758  1.2705
  656MOL0     H90494   0.511   9.310   4.985  1.8940 -1.2351 -1.4989
  656MOL0     H90495   0.353   9.359   4.926  4.0580  3.9316 -1.9765
  656MOL0     H90496   0.480   9.081   4.886 -1.5620 -3.0157 -2.2893
  656MOL0     H90497   0.314   9.118   4.850 -0.6405  1.1311  0.7411
  656MOL0     H90498   0.315   8.981   5.040 -0.6273  0.0076  0.1454
  656MOL0     H90499   0.248   9.141   5.067 -0.0081 -0.0813  1.1262
  656MOL0     H90500   0.419   9.223   5.205  1.7950  0.3747  1.0114
  656MOL0     H90501   0.376   9.073   5.262 -1.3347  1.6054  0.3078
  656MOL0     H90502   0.615   9.090   5.073  0.3407 -0.6917  0.5959
  656MOL0     H90503   0.571   8.953   5.174 -1.4243 -0.7621 -1.8342
  656MOL0     H90504   0.560   9.090   5.382 -1.1427 -1.8846 -1.2397
  656MOL0     H90505   0.632   9.226   5.296 -0.7898  0.4028  2.0730
  656MOL0     H90506   0.835   9.072   5.246  2.6756  1.4295  2.7469
  656MOL0     H90507   0.743   8.947   5.328  1.1798 -0.3268 -0.1872
  656MOL0     H90508   0.235   9.246   4.496 -0.2008 -1.4261 -1.3158
  656MOL0     H90509   0.257   9.286   4.256 -0.5388  0.8311  0.0101
  656MOL0     H90510   0.409   9.313   3.868  2.9637 -2.9298 -2.8079
  656MOL0     H90511   0.447   9.367   3.620 -0.9628  0.3585  0.0946
  656MOL0     H90512   1.208  10.583   2.448 -0.9086 -1.6878  1.6030
  656MOL0     H90513   1.080  10.785   2.375 -1.8734  0.6272 -0.9144
  656MOL0     H90514   0.752  11.165   2.514 -0.4967  0.9011 -0.2177
  656MOL0     H90515   0.613  11.324   2.404  2.8593 -0.0416  0.1476
  656MOL0     H90516   0.427  11.457   2.281 -1.5384  0.6632 -2.6086
  656MOL0     H90517   0.555  11.417   2.169 -0.5297  0.4634 -0.4398
  656MOL0     H90518   0.359  11.366   1.996  4.0359  0.6718  0.0698
  656MOL0     H90519   0.368  11.535   2.044 -2.9689  0.8722  0.2208
  656MOL0     H90520   0.184  11.324   2.164 -2.4693 -0.4792 -0.0750
  656MOL0     H90521   0.177  11.495   2.200 -1.3149 -0.8136 -0.3338
  656MOL0     H90522   0.123  11.352   1.935 -0.5422 -0.3898  0.1641
  656MOL0     H90523   0.163  11.521   1.932  0.7745 -2.1388 -1.6204
  656MOL0     H90524  -0.237  11.538   2.082  0.3220  2.9534  0.3655
  656MOL0     H90525   0.403  11.010   2.200  0.0246  0.9180  0.7030
  656MOL0     H90526   0.496  10.736   2.392  1.1113  0.7485  1.3071
  656MOL0     H90527   0.489  10.772   2.220 -0.6426 -3.2316  0.6569
  656MOL0     H90528   0.641  10.732   2.308  0.6749  1.3949 -3.6283
  657MOL0     O90529   1.391   0.663  10.859 -0.4470 -0.0213 -0.4248
  657MOL0     C90530   1.419   0.755  10.784  0.7434  0.5453  0.1350
  657MOL0     O90531   1.537   0.815  10.766  0.2128  0.1508  0.6454
  657MOL0     C90532   1.651   0.793  10.843 -0.7487  0.5840  0.4567
  657MOL0     C90533   1.754   0.884  10.829  0.8989 -0.3749 -0.4713
  657MOL0     C90534   1.873   0.886  10.899 -0.2642  0.3276 -0.0973
  657MOL0     C90535   1.894   0.784  10.989  0.1678  0.7458  0.4188
  657MOL0     O90536   1.998   0.795  11.068 -1.0595 -0.6322  0.2673
  657MOL0     C90537   2.081   0.679  11.091 -0.9633  0.6472 -0.8702
  657MOL0     C90538   2.222   0.718  11.142 -1.0145  0.2772 -0.1709
  657MOL0     C90539   2.240   0.724  11.292  0.0853  0.1271 -0.1123
  657MOL0     C90540   2.361   0.803  11.338 -0.2625  0.2293 -0.4269
  657MOL0     C90541   2.495   0.745  11.272 -0.6843  0.3933  0.4145
  657MOL0     C90542   2.514   0.603  11.316  0.6943 -0.6509 -0.7080
  657MOL0     C90543   2.643   0.555  11.258 -0.6456 -0.4354  0.4488
  657MOL0     C90544   2.692   0.440  11.345  0.2532  0.3859 -0.4489
  657MOL0     N90545   2.831   0.407  11.334 -0.0949  0.2349  0.3685
  657MOL0     C90546   2.938   0.492  11.369 -0.3369 -0.6732  0.6118
  657MOL0     C90547   3.051   0.429  11.338 -0.4538  0.1044  0.6360
  657MOL0     C90548   3.183   0.498  11.380  0.4783  0.3712 -0.1062
  657MOL0     C90549   3.277   0.402  11.456  0.2313 -0.8166  0.0038
  657MOL0     C90550   3.324   0.285  11.362 -0.1622  0.4517 -0.0467
  657MOL0     C90551   3.365   0.159  11.432 -0.0310 -0.5162 -0.1434
  657MOL0     O90552   3.480   0.178  11.517 -0.4563  0.1304 -0.2656
  657MOL0     C90553   3.559   0.062  11.540 -0.0776 -0.1404 -0.3261
  657MOL0     C90554   3.694   0.056  11.506 -0.7821 -1.3131 -0.2498
  657MOL0     C90555   3.773  -0.056  11.539 -0.3955 -0.8353  0.3395
  657MOL0     C90556   3.917  -0.033  11.514  0.7227 -0.5527  0.6252
  657MOL0     C90557   3.709  -0.178  11.578  1.9629  0.1163  0.2053
  657MOL0     C90558   3.782  -0.303  11.600 -0.5639  0.1558  0.2467
  657MOL0     O90559   3.718  -0.394  11.683 -0.1147 -0.1674  0.0728
  657MOL0     C90560   3.789  -0.496  11.743  0.6508 -0.4982 -0.2886
  657MOL0     C90561   3.712  -0.608  11.782 -0.0526 -0.4335  1.0473
  657MOL0     C90562   3.770  -0.706  11.859  0.8281  0.0668  0.8762
  657MOL0     C90563   3.903  -0.706  11.884 -0.0365 -0.1338 -0.1586
  657MOL0     O90564   3.947  -0.818  11.954 -0.3157 -0.3192  0.0577
  657MOL0     C90565   4.017  -0.793  12.078  0.3523 -0.5191  0.2246
  657MOL0     C90566   4.165  -0.801  12.049  0.0683 -0.6202  0.6387
  657MOL0     C90567   4.206  -0.947  12.050 -0.5537 -0.5900 -0.7652
  657MOL0     C90568   4.188  -1.015  12.183  0.3839 -0.4044  0.3598
  657MOL0     C90569   4.253  -1.154  12.196 -0.6652 -0.0378  0.5769
  657MOL0     C90570   4.408  -1.148  12.170 -0.0712 -0.2611 -0.3403
  657MOL0     C90571   4.466  -1.291  12.176  0.2489 -0.6088 -0.5246
  657MOL0     C90572   4.620  -1.283  12.164  0.0085 -0.3608  0.6124
  657MOL0    Cl90573   4.683  -1.223  12.317  0.1594 -0.3400 -0.1660
  657MOL0     C90574   3.976  -0.601  11.845 -0.1532  0.5404 -0.4647
  657MOL0     C90575   3.925  -0.497  11.774 -0.9728  0.3434  0.4777
  657MOL0     O90576   3.892  -0.321  11.540 -0.6476  0.0891 -0.5638
  657MOL0     C90577   3.567  -0.175  11.594  0.1982 -0.1211  0.2349
  657MOL0     C90578   3.496  -0.050  11.594 -0.8992 -0.5131 -0.3254
  657MOL0     N90579   3.012   0.309  11.272  0.1173  0.9517 -0.5532
  657MOL0     N90580   2.880   0.299  11.275  0.6916 -0.6850 -0.4617
  657MOL0     C90581   1.797   0.677  10.996  0.0308 -0.1321  0.1543
  657MOL0     C90582   1.677   0.677  10.927  0.3263  0.0262  0.0277
  657MOL0     C90583   1.312   0.795  10.687  0.3978  0.0227 -0.5310
  657MOL0     C90584   1.225   0.706  10.616 -0.8950  0.4794  0.3481
  657MOL0     C90585   1.119   0.748  10.541 -0.6978 -0.3071 -0.0067
  657MOL0     C90586   1.094   0.886  10.517  0.5239  0.0561  0.3263
  657MOL0     O90587   0.995   0.933  10.436 -0.3533  0.2531  0.1451
  657MOL0     C90588   0.867   0.872  10.460  0.6578 -0.2858 -0.6356
  657MOL0     C90589   0.761   0.967  10.421  0.0875  1.0041 -0.4866
  657MOL0     C90590   0.715   0.962  10.276 -0.0732 -0.5300  0.1054
  657MOL0     C90591   0.588   1.043  10.254  0.7464 -0.0783 -1.0161
  657MOL0     C90592   0.469   0.980  10.321  0.8079  0.8329  0.4784
  657MOL0     C90593   0.368   0.932  10.376  0.3099  0.1383  0.0505
  657MOL0     C90594   1.183   0.975  10.571 -0.1986 -0.1311 -0.7620
  657MOL0     C90595   1.292   0.934  10.654 -1.0065  0.6649 -0.0042
  657MOL0     C90596   1.381   1.050  10.706 -0.6223 -0.1724  0.1615
  657MOL0     H90597   1.726   0.973  10.773  1.0241 -1.2785 -2.0087
  657MOL0     H90598   1.939   0.972  10.883  1.0119 -0.7264 -0.6961
  657MOL0     H90599   2.094   0.627  10.996  0.3860  0.9796 -0.8904
  657MOL0     H90600   2.038   0.616  11.169  0.9142  1.8604  1.2801
  657MOL0     H90601   2.295   0.642  11.112  0.2392  0.3293  2.4419
  657MOL0     H90602   2.249   0.812  11.092 -0.2676  0.3678  0.3936
  657MOL0     H90603   2.154   0.781  11.328  0.1820 -0.1230  0.5222
  657MOL0     H90604   2.241   0.628  11.344  2.8927  0.3829  0.4895
  657MOL0     H90605   2.354   0.908  11.309  0.6335  0.3075 -0.3959
  657MOL0     H90606   2.355   0.800  11.447  0.8255  2.3468 -0.2719
  657MOL0     H90607   2.581   0.800  11.313  0.3199  0.1623 -1.2896
  657MOL0     H90608   2.499   0.754  11.163  0.7190  1.4115  0.5222
  657MOL0     H90609   2.523   0.610  11.425 -0.4849 -1.5989 -0.5313
  657MOL0     H90610   2.440   0.532  11.279 -0.1277 -1.6534  2.5298
  657MOL0     H90611   2.716   0.636  11.261  0.0585 -1.0871  1.5992
  657MOL0     H90612   2.623   0.509  11.161  1.1335  0.4108 -0.3668
  657MOL0     H90613   2.688   0.474  11.449  3.1448  2.6798 -0.9458
  657MOL0     H90614   2.626   0.353  11.336 -0.6161  1.0001 -0.1832
  657MOL0     H90615   2.927   0.586  11.422  2.9491 -0.7806  1.7404
  657MOL0     H90616   3.170   0.583  11.448  2.0737  1.4384 -1.0650
  657MOL0     H90617   3.225   0.554  11.296  1.3969  2.2486  1.5122
  657MOL0     H90618   3.359   0.466  11.490  1.0523 -1.3105 -1.0024
  657MOL0     H90619   3.224   0.362  11.543  0.6984  0.8458  1.1073
  657MOL0     H90620   3.242   0.265  11.292 -0.5877  3.1168 -0.4075
  657MOL0     H90621   3.410   0.326  11.309 -0.0817 -0.4755 -0.6711
  657MOL0     H90622   3.283   0.109  11.484 -2.4431  0.1405 -3.0661
  657MOL0     H90623   3.392   0.091  11.351 -2.5428  0.0747 -1.5842
  657MOL0     H90624   3.740   0.145  11.463  1.2819 -3.3101 -2.5007
  657MOL0     H90625   3.984  -0.036  11.600  1.3753  2.2153  0.3111
  657MOL0     H90626   3.938   0.066  11.471  0.1158 -1.3629 -1.6751
  657MOL0     H90627   3.956  -0.117  11.457 -0.3554 -0.8419  0.2833
  657MOL0     H90628   3.607  -0.586  11.763  0.4546  1.7274  0.3946
  657MOL0     H90629   3.716  -0.790  11.903 -0.4320 -0.0213 -0.7384
  657MOL0     H90630   3.983  -0.692  12.103 -1.6148 -0.8861 -0.7391
  657MOL0     H90631   3.972  -0.849  12.161 -1.8364  0.4271 -0.2564
  657MOL0     H90632   4.191  -0.751  11.955 -1.7140  0.5073  0.7084
  657MOL0     H90633   4.220  -0.749  12.127  2.4715 -1.1157 -0.6142
  657MOL0     H90634   4.309  -0.959  12.016  0.2432  1.1326  0.8805
  657MOL0     H90635   4.150  -0.996  11.969  1.7705 -0.7525 -2.3920
  657MOL0     H90636   4.081  -1.018  12.206  0.7959  4.4306  4.5973
  657MOL0     H90637   4.228  -0.951  12.262  4.2007 -1.9636 -0.0489
  657MOL0     H90638   4.238  -1.204  12.292  3.0133 -1.3092  0.6246
  657MOL0     H90639   4.208  -1.211  12.114 -0.1653 -1.2641  1.1295
  657MOL0     H90640   4.453  -1.096  12.255  0.3111 -2.0567  0.6255
  657MOL0     H90641   4.415  -1.106  12.070  0.4879 -2.7554 -1.4304
  657MOL0     H90642   4.417  -1.357  12.104 -0.5827  0.5162 -1.0291
  657MOL0     H90643   4.448  -1.347  12.268  1.3730 -0.2461 -0.0681
  657MOL0     H90644   4.643  -1.220  12.079 -1.6014 -1.0052 -0.3528
  657MOL0     H90645   4.671  -1.379  12.153  0.7647  0.0479  0.4995
  657MOL0     H90646   4.081  -0.605  11.873 -0.7416  3.9740  3.0745
  657MOL0     H90647   3.989  -0.421  11.730 -2.8109  0.1802 -2.7199
  657MOL0     H90648   3.521  -0.272  11.605  3.5137 -2.0009 -0.9658
  657MOL0     H90649   3.391  -0.039  11.619 -0.9636  0.6972 -1.0509
  657MOL0     H90650   1.816   0.598  11.068 -1.2556  0.0635  0.7425
  657MOL0     H90651   1.613   0.589  10.931  2.1851 -1.3925  0.1533
  657MOL0     H90652   1.243   0.600  10.634  0.9596  0.7369  0.2586
  657MOL0     H90653   1.053   0.670  10.503 -0.4138 -1.0764  1.0123
  657MOL0     H90654   0.857   0.775  10.411  1.4425 -1.3158  1.1548
  657MOL0     H90655   0.868   0.859  10.568 -1.2836  0.1390 -0.5408
  657MOL0     H90656   0.790   1.062  10.466  2.6572 -0.3909  1.0686
  657MOL0     H90657   0.679   0.919  10.476  1.8536 -0.1805  1.2653
  657MOL0     H90658   0.797   0.991  10.211  1.5285 -1.4799  1.6238
  657MOL0     H90659   0.697   0.857  10.254  1.8362 -0.7338 -0.6311
  657MOL0     H90660   0.569   1.051  10.147 -0.3890  0.5065 -0.7868
  657MOL0     H90661   0.595   1.144  10.296 -1.6287  0.4864 -1.8124
  657MOL0     H90662   0.278   0.883  10.406  0.0175 -0.7141 -2.0185
  657MOL0     H90663   1.173   1.082  10.561 -0.3358  0.1524  1.8091
  657MOL0     H90664   1.410   1.030  10.810  0.3585 -4.0245 -0.6955
  657MOL0     H90665   1.474   1.062  10.650  0.3815  2.5504  2.1443
  657MOL0     H90666   1.315   1.135  10.688 -0.5191  0.0829  0.9497
  658MOL0     O90667   1.448   7.531   0.779  0.1617  0.5104 -0.6134
  658MOL0     C90668   1.362   7.560   0.690 -0.5358 -0.0668 -0.3297
  658MOL0     O90669   1.371   7.658   0.606  0.9878  0.0310 -0.3868
  658MOL0     C90670   1.460   7.759   0.630 -0.0734  0.0204  0.4799
  658MOL0     C90671   1.512   7.815   0.509 -0.0657 -1.1410 -0.3556
  658MOL0     C90672   1.621   7.913   0.518  0.4768  0.3471  0.4574
  658MOL0     C90673   1.664   7.954   0.639  0.4799  0.1233 -0.5416
  658MOL0     O90674   1.755   8.058   0.656  0.2570 -0.0741  0.2986
  658MOL0     C90675   1.716   8.190   0.594 -0.2341 -0.1612  0.4321
  658MOL0     C90676   1.816   8.295   0.648 -0.2260 -0.9015  0.1604
  658MOL0     C90677   1.777   8.426   0.582 -0.8109 -1.0836 -0.7706
  658MOL0     C90678   1.887   8.537   0.610  0.1382  0.1881  1.0450
  658MOL0     C90679   1.845   8.668   0.552 -0.5282  0.0746 -0.1873
  658MOL0     C90680   1.965   8.753   0.505 -0.3276 -0.3857  0.0250
  658MOL0     C90681   2.068   8.771   0.615  0.1693 -0.0757 -0.0608
  658MOL0     C90682   2.191   8.843   0.578  0.0649  0.8352  0.0729
  658MOL0     N90683   2.270   8.880   0.701  0.4421  0.3104  0.2449
  658MOL0     C90684   2.396   8.839   0.741  0.7392  0.5353  0.0744
  658MOL0     C90685   2.410   8.887   0.869  0.7875 -0.1632  0.1188
  658MOL0     C90686   2.521   8.870   0.961  0.0106  0.3193 -0.5172
  658MOL0     C90687   2.553   8.992   1.044 -0.1022 -0.9289 -0.3376
  658MOL0     C90688   2.681   8.969   1.124  0.2577 -0.4041 -0.3888
  658MOL0     C90689   2.806   9.004   1.040 -0.3842 -0.1021  0.1995
  658MOL0     O90690   2.926   8.988   1.125  0.0710  0.0620 -0.1694
  658MOL0     C90691   3.042   9.053   1.088  0.0536 -0.0147 -0.5676
  658MOL0     C90692   3.050   9.158   0.994 -0.2152  0.0229  0.2683
  658MOL0     C90693   3.178   9.191   0.952 -0.0832  0.0840  0.1372
  658MOL0     C90694   3.165   9.309   0.849  0.1431 -0.4316  0.9599
  658MOL0     C90695   3.298   9.122   0.993  0.4757  0.4932 -0.0238
  658MOL0     C90696   3.428   9.138   0.934 -0.3566  0.0177  0.2556
  658MOL0     O90697   3.517   9.033   0.947  0.4935 -0.7351 -0.3485
  658MOL0     C90698   3.649   9.053   0.918 -0.0609  0.3871 -1.0001
  658MOL0     C90699   3.716   9.176   0.908  0.2399  0.3878 -1.4403
  658MOL0     C90700   3.856   9.178   0.888 -0.9511 -0.0450  0.1746
  658MOL0     C90701   3.932   9.061   0.860  0.3731 -0.3535 -1.0643
  658MOL0     O90702   4.071   9.061   0.849  0.2829 -0.0149  0.3512
  658MOL0     C90703   4.134   8.943   0.798 -0.3497 -0.4324 -0.4780
  658MOL0     C90704   4.284   8.952   0.836 -0.2405 -0.2674 -0.0655
  658MOL0     C90705   4.310   8.966   0.984  0.8432  0.5803  0.1752
  658MOL0     C90706   4.439   9.028   1.011 -0.0608  0.0339 -0.5161
  658MOL0     C90707   4.462   9.076   1.146  0.1482  0.3404 -0.4249
  658MOL0     C90708   4.364   9.186   1.193  0.0441 -0.0807  0.3029
  658MOL0     C90709   4.352   9.318   1.114 -0.9995  0.6123  0.6404
  658MOL0     C90710   4.218   9.387   1.137 -0.0785 -0.2998  0.3076
  658MOL0    Cl90711   4.183   9.427   1.308 -0.0504  0.4667 -0.5031
  658MOL0     C90712   3.857   8.943   0.852  0.6379 -0.3717  0.1275
  658MOL0     C90713   3.721   8.937   0.890  0.3810 -0.0919  0.2039
  658MOL0     O90714   3.453   9.247   0.889  0.1361 -0.1171  0.4020
  658MOL0     C90715   3.280   9.024   1.095 -0.2525  0.0272 -0.4263
  658MOL0     C90716   3.153   8.994   1.146 -0.4975  0.2461 -0.1606
  658MOL0     N90717   2.295   8.950   0.910  1.0759  0.2681  0.0096
  658MOL0     N90718   2.213   8.942   0.806 -0.1451  0.4484 -0.0831
  658MOL0     C90719   1.609   7.900   0.755 -0.5283  0.9880  0.1535
  658MOL0     C90720   1.511   7.805   0.751  0.5166 -0.2204  0.2573
  658MOL0     C90721   1.239   7.473   0.691 -0.3797  0.4950 -0.7216
  658MOL0     C90722   1.163   7.456   0.812  0.9237 -0.8816  0.2925
  658MOL0     C90723   1.042   7.385   0.819  0.6751 -0.7179  0.0650
  658MOL0     C90724   1.000   7.332   0.696 -0.7174 -0.3454  0.1137
  658MOL0     O90725   0.874   7.269   0.681  0.2839  0.3190 -0.0405
  658MOL0     C90726   0.779   7.243   0.789  0.3459 -0.6097  0.3565
  658MOL0     C90727   0.689   7.126   0.751  0.5883  0.8769  0.6921
  658MOL0     C90728   0.614   7.072   0.870  0.1835  0.0874  0.2226
  658MOL0     C90729   0.497   6.979   0.844  0.1718 -0.1844 -0.5532
  658MOL0     C90730   0.542   6.846   0.800  1.6116  0.0894 -0.1008
  658MOL0     C90731   0.556   6.732   0.775  0.0336  0.3831  0.4953
  658MOL0     C90732   1.073   7.330   0.583  0.6299 -0.0650  0.4303
  658MOL0     C90733   1.190   7.405   0.579  0.4546 -0.3811 -0.3949
  658MOL0     C90734   1.266   7.390   0.447  0.1017 -0.0862 -0.6220
  658MOL0     H90735   1.472   7.789   0.412  0.6476  0.0554 -1.0016
  658MOL0     H90736   1.680   7.929   0.428 -0.3455 -1.0454 -0.3559
  658MOL0     H90737   1.618   8.219   0.632  0.1371  2.9989 -0.7064
  658MOL0     H90738   1.718   8.173   0.486  1.6008  1.1575  0.2085
  658MOL0     H90739   1.807   8.298   0.757 -0.0271  1.1549  0.1544
  658MOL0     H90740   1.920   8.274   0.621 -0.8476 -4.4747  0.0648
  658MOL0     H90741   1.765   8.419   0.473 -0.3279  0.7324 -0.9772
  658MOL0     H90742   1.686   8.462   0.629 -0.2453 -0.7698  0.1068
  658MOL0     H90743   1.881   8.549   0.719 -1.8722 -0.0008  0.9770
  658MOL0     H90744   1.986   8.501   0.579 -0.0039 -1.7528  2.6970
  658MOL0     H90745   1.780   8.715   0.626  1.1555  0.5465  1.0500
  658MOL0     H90746   1.783   8.649   0.463 -0.6320 -2.0808  0.2983
  658MOL0     H90747   2.007   8.700   0.418 -3.4180 -2.4443 -0.3617
  658MOL0     H90748   1.932   8.849   0.464  0.9443 -0.6372 -1.7128
  658MOL0     H90749   2.101   8.675   0.657  0.3494  0.2332  0.5246
  658MOL0     H90750   2.017   8.824   0.696  0.0903 -0.1005 -0.0947
  658MOL0     H90751   2.259   8.779   0.521  0.7553 -0.5063  2.2597
  658MOL0     H90752   2.179   8.939   0.527 -0.5944  1.0476  0.6172
  658MOL0     H90753   2.464   8.779   0.681  1.9971  0.3025  1.6655
  658MOL0     H90754   2.612   8.826   0.919 -1.6240 -0.8751 -3.0511
  658MOL0     H90755   2.489   8.793   1.031  0.9183 -0.5286 -1.0136
  658MOL0     H90756   2.571   9.082   0.984  0.0178  0.6757  1.9545
  658MOL0     H90757   2.467   9.017   1.107 -0.7637 -1.2919 -1.0834
  658MOL0     H90758   2.688   9.043   1.204 -2.3028  1.2407 -1.5317
  658MOL0     H90759   2.695   8.865   1.152  1.9319 -1.0573 -3.2791
  658MOL0     H90760   2.810   8.939   0.952 -0.0183  1.1240 -0.7213
  658MOL0     H90761   2.788   9.105   1.003 -2.2887 -0.7393 -0.7362
  658MOL0     H90762   2.963   9.211   0.958 -1.4984 -1.0712  1.5932
  658MOL0     H90763   3.263   9.358   0.838 -0.2745  0.0959 -0.7700
  658MOL0     H90764   3.097   9.391   0.874 -1.3965 -0.9379 -1.2737
  658MOL0     H90765   3.130   9.266   0.755  0.1496  0.7006  0.4185
  658MOL0     H90766   3.669   9.272   0.923 -1.5794 -0.7863  1.1596
  658MOL0     H90767   3.918   9.266   0.898  1.0368 -1.4451  0.9464
  658MOL0     H90768   4.099   8.850   0.844  2.3552 -1.0804  0.4432
  658MOL0     H90769   4.113   8.941   0.691 -0.2078  1.2670 -0.5692
  658MOL0     H90770   4.330   8.860   0.800  0.5460 -0.3340  1.0536
  658MOL0     H90771   4.323   9.037   0.780 -1.6270  0.4597  0.0275
  658MOL0     H90772   4.317   8.864   1.024 -1.2003  0.7874  1.1887
  658MOL0     H90773   4.219   9.013   1.023 -0.8723 -1.4207 -1.1674
  658MOL0     H90774   4.456   9.108   0.938  0.0512  3.8689  3.2897
  658MOL0     H90775   4.520   8.957   0.993  1.6183  1.4350  1.1323
  658MOL0     H90776   4.462   8.997   1.222 -1.4412  0.4436 -0.2868
  658MOL0     H90777   4.562   9.121   1.142 -0.2979  1.7383  1.9927
  658MOL0     H90778   4.393   9.215   1.294  2.2208  2.6048 -0.9492
  658MOL0     H90779   4.264   9.142   1.203 -0.4042  1.1109  1.2723
  658MOL0     H90780   4.362   9.306   1.006  1.0291 -0.6329  0.9139
  658MOL0     H90781   4.425   9.387   1.158 -0.0418  0.2788 -0.3696
  658MOL0     H90782   4.129   9.340   1.093  0.9405  0.6696 -3.1040
  658MOL0     H90783   4.218   9.473   1.069  1.4693 -3.5306 -4.2848
  658MOL0     H90784   3.903   8.846   0.834  1.5592 -0.5545  2.9548
  658MOL0     H90785   3.677   8.840   0.910 -0.3493  0.1141 -0.3289
  658MOL0     H90786   3.362   8.958   1.120 -0.9566  0.1199  2.4771
  658MOL0     H90787   3.145   8.907   1.210 -0.5699 -0.8822 -1.6663
  658MOL0     H90788   1.643   7.932   0.853  5.1895 -2.3387 -0.2841
  658MOL0     H90789   1.476   7.762   0.844 -0.9413  0.3677  0.0023
  658MOL0     H90790   1.194   7.501   0.905  2.8088  3.6407 -2.2152
  658MOL0     H90791   0.982   7.380   0.909 -2.0990 -0.3539 -1.6547
  658MOL0     H90792   0.843   7.203   0.868  1.2258  2.2084  1.2132
  658MOL0     H90793   0.731   7.340   0.808 -1.3936 -0.9530 -1.8085
  658MOL0     H90794   0.755   7.050   0.709  1.7927  1.5147  1.3791
  658MOL0     H90795   0.628   7.156   0.665  1.4896 -1.3682 -0.7983
  658MOL0     H90796   0.686   7.034   0.942 -0.0039  1.5717  1.2389
  658MOL0     H90797   0.575   7.166   0.912 -0.1790  0.3272 -0.6156
  658MOL0     H90798   0.433   7.027   0.770  2.4274  1.4606 -1.5570
  658MOL0     H90799   0.426   6.973   0.927 -1.8286 -0.9296 -2.2263
  658MOL0     H90800   0.570   6.628   0.751 -2.9726  0.3091 -1.4668
  658MOL0     H90801   1.038   7.284   0.491  1.7535  0.8263 -0.4773
  658MOL0     H90802   1.188   7.413   0.375 -0.2170 -0.0663 -0.2731
  658MOL0     H90803   1.344   7.467   0.445  0.3172 -0.3103 -0.8212
  658MOL0     H90804   1.313   7.291   0.445 -1.1484 -0.9556  3.3047
  659MOL0     O90805   3.013  10.390   2.060  0.3449 -0.0812 -1.1875
  659MOL0     C90806   2.920  10.369   1.977 -0.6995  0.1714 -1.4682
  659MOL0     O90807   2.805  10.448   1.958  0.9893  0.9993  0.4296
  659MOL0     C90808   2.786  10.559   2.038  0.4833 -0.7767  0.6197
  659MOL0     C90809   2.753  10.561   2.173  0.7624 -0.2000  0.2576
  659MOL0     C90810   2.696  10.677   2.236 -0.2761  0.1262 -0.2314
  659MOL0     C90811   2.694  10.798   2.178 -0.2801  0.9053  0.0654
  659MOL0     O90812   2.665  10.903   2.258 -0.2622  0.6398 -0.4479
  659MOL0     C90813   2.579  11.012   2.207 -0.2942  0.8714  0.3509
  659MOL0     C90814   2.626  11.147   2.256  0.3095  1.0298  0.2751
  659MOL0     C90815   2.759  11.193   2.200  0.5349 -0.6561 -0.4109
  659MOL0     C90816   2.793  11.340   2.250 -0.8711 -1.1871 -0.3074
  659MOL0     C90817   2.914  11.402   2.179  0.2678 -0.0259  0.5029
  659MOL0     C90818   3.042  11.315   2.195  1.4676 -0.2061  0.2463
  659MOL0     C90819   3.150  11.373   2.105 -0.0221  0.8070  0.8920
  659MOL0     C90820   3.142  11.329   1.957  0.4339  0.4828 -0.4704
  659MOL0     N90821   3.257  11.378   1.882 -0.3331 -0.1209  0.2330
  659MOL0     C90822   3.244  11.454   1.772 -0.8809  0.1015  0.4514
  659MOL0     C90823   3.369  11.473   1.726 -0.4499  0.3800  0.0179
  659MOL0     C90824   3.430  11.567   1.614 -0.6888  0.7945  0.1711
  659MOL0     C90825   3.474  11.696   1.677 -0.0114  0.0395  0.1153
  659MOL0     C90826   3.541  11.785   1.570 -0.2559 -0.8646  0.0341
  659MOL0     C90827   3.436  11.866   1.509  0.2463  0.0192 -0.7536
  659MOL0     O90828   3.493  11.941   1.405  0.2200 -0.0441 -0.3233
  659MOL0     C90829   3.407  12.005   1.318 -0.3038  0.5682 -0.1271
  659MOL0     C90830   3.269  11.998   1.325 -0.1450 -0.8418 -1.0440
  659MOL0     C90831   3.196  12.069   1.229  0.1186 -0.6390 -0.3884
  659MOL0     C90832   3.048  12.063   1.234  0.6265  0.0686  0.1087
  659MOL0     C90833   3.264  12.138   1.122  0.9055  0.0223  0.2237
  659MOL0     C90834   3.192  12.199   1.005 -0.4486  0.7918  0.8465
  659MOL0     O90835   3.070  12.264   1.016  0.1391  0.8251  0.4465
  659MOL0     C90836   2.994  12.311   0.909  0.2185  1.0932 -0.3668
  659MOL0     C90837   3.013  12.289   0.768 -0.0896  0.0695 -1.1508
  659MOL0     C90838   2.909  12.325   0.679  0.6330 -0.4389  0.0130
  659MOL0     C90839   2.804  12.404   0.722  0.9656 -0.3945 -0.7132
  659MOL0     O90840   2.689  12.421   0.647  0.3042  0.2869  0.1186
  659MOL0     C90841   2.625  12.547   0.622 -0.2585  0.1472 -0.0656
  659MOL0     C90842   2.727  12.628   0.526  0.1761 -0.1073 -0.1559
  659MOL0     C90843   2.766  12.560   0.395 -0.2128  0.0620  0.8562
  659MOL0     C90844   2.672  12.572   0.272 -0.0755 -0.0070  0.3861
  659MOL0     C90845   2.677  12.714   0.210 -0.1377  0.2895 -0.4825
  659MOL0     C90846   2.606  12.737   0.077  0.0069  0.0126  0.3368
  659MOL0     C90847   2.582  12.889   0.071 -1.1541  0.3972 -0.4628
  659MOL0     C90848   2.564  12.933  -0.077  0.4750  0.4932 -0.5663
  659MOL0    Cl90849   2.685  12.929  -0.201 -0.0236 -0.2007 -0.0464
  659MOL0     C90850   2.801  12.449   0.861  1.1476 -0.1041  0.4824
  659MOL0     C90851   2.883  12.390   0.956  0.0911 -0.1452  0.1968
  659MOL0     O90852   3.253  12.175   0.901  0.2512  0.2886  0.3089
  659MOL0     C90853   3.405  12.133   1.115  0.6339 -0.4579  0.1976
  659MOL0     C90854   3.472  12.069   1.214 -0.0528  0.7779  0.7064
  659MOL0     N90855   3.447  11.405   1.809 -1.4456  0.8892 -0.7154
  659MOL0     N90856   3.385  11.353   1.902 -0.3198 -0.0917  0.7365
  659MOL0     C90857   2.719  10.799   2.033 -0.4735  0.4114 -0.6398
  659MOL0     C90858   2.753  10.681   1.968  0.4531 -0.1602 -0.1958
  659MOL0     C90859   2.943  10.251   1.879  0.0268 -0.7732 -1.2802
  659MOL0     C90860   3.078  10.189   1.890  0.8784 -0.2311 -0.5518
  659MOL0     C90861   3.118  10.085   1.808  0.0367  0.4132  0.1919
  659MOL0     C90862   3.028  10.036   1.713  0.7116 -0.3215  0.0305
  659MOL0     O90863   3.071   9.940   1.617 -0.7758  0.0016 -0.1464
  659MOL0     C90864   3.015   9.803   1.633  0.1468  0.2791  0.5672
  659MOL0     C90865   3.067   9.721   1.758 -0.6311  0.0206  0.0374
  659MOL0     C90866   3.225   9.701   1.759  0.6800 -0.0216  0.0972
  659MOL0     C90867   3.267   9.569   1.834  0.7283 -0.1628  0.1074
  659MOL0     C90868   3.248   9.449   1.745  0.5959 -0.0343 -0.4877
  659MOL0     C90869   3.214   9.354   1.679  0.1080  0.3715 -0.2957
  659MOL0     C90870   2.901  10.087   1.702  0.9911  0.3374  0.3573
  659MOL0     C90871   2.857  10.198   1.782 -0.0989  0.8036  0.0383
  659MOL0     C90872   2.711  10.241   1.771 -0.4691 -0.3852 -0.1925
  659MOL0     H90873   2.765  10.469   2.229  0.0463 -0.1045  0.5833
  659MOL0     H90874   2.652  10.662   2.334 -2.9764  0.1671 -1.3469
  659MOL0     H90875   2.478  10.998   2.245 -0.4682 -0.1501 -0.4766
  659MOL0     H90876   2.578  11.009   2.098  0.3898  1.8529  0.3033
  659MOL0     H90877   2.545  11.218   2.239 -1.1599 -0.8511 -1.0184
  659MOL0     H90878   2.628  11.138   2.365  0.7342  0.4117  0.2203
  659MOL0     H90879   2.842  11.123   2.217  0.7996 -0.2235  0.1241
  659MOL0     H90880   2.741  11.200   2.093  0.2100 -1.6602 -0.4336
  659MOL0     H90881   2.710  11.410   2.242  1.1621  1.5939  1.3326
  659MOL0     H90882   2.813  11.317   2.355 -1.0609 -1.8516 -0.4109
  659MOL0     H90883   2.921  11.501   2.224  0.1226 -0.1190  0.7287
  659MOL0     H90884   2.887  11.419   2.074 -3.4940 -1.1553  1.1668
  659MOL0     H90885   3.069  11.315   2.301  0.2304  1.4443  0.6095
  659MOL0     H90886   3.021  11.212   2.168 -1.2112  0.2771  0.2205
  659MOL0     H90887   3.251  11.354   2.141 -0.2528 -3.3001 -0.1374
  659MOL0     H90888   3.139  11.482   2.097 -0.2375  0.6852 -1.1243
  659MOL0     H90889   3.156  11.221   1.958 -0.4392  0.3660 -0.6446
  659MOL0     H90890   3.043  11.356   1.920  0.5736 -0.3560 -1.4941
  659MOL0     H90891   3.153  11.505   1.745  0.1293  1.3060 -0.8089
  659MOL0     H90892   3.350  11.594   1.544 -2.6201  0.0142  1.9522
  659MOL0     H90893   3.517  11.522   1.565 -2.8882 -1.2594 -2.2270
  659MOL0     H90894   3.389  11.746   1.726 -0.7518 -1.4500  0.4213
  659MOL0     H90895   3.544  11.662   1.753 -1.4225  0.0432  1.4722
  659MOL0     H90896   3.616  11.844   1.623  0.5202 -0.9223 -0.9704
  659MOL0     H90897   3.591  11.724   1.494 -0.6827 -2.6712  1.1552
  659MOL0     H90898   3.358  11.797   1.478  0.8642 -0.4996 -1.1799
  659MOL0     H90899   3.399  11.926   1.592  0.4701  0.8012 -1.2035
  659MOL0     H90900   3.213  11.945   1.401 -0.2642 -0.6799 -1.0180
  659MOL0     H90901   2.997  12.159   1.227 -0.5337 -0.4268  1.2988
  659MOL0     H90902   3.007  12.025   1.328  3.6185  0.7823  1.8087
  659MOL0     H90903   3.023  12.004   1.145  1.0345 -1.3833  0.9221
  659MOL0     H90904   3.093  12.232   0.722 -0.4169  0.3830 -2.1415
  659MOL0     H90905   2.912  12.304   0.573 -2.3361 -0.0021 -0.2572
  659MOL0     H90906   2.530  12.540   0.570  0.2731 -0.3151 -0.9925
  659MOL0     H90907   2.617  12.602   0.717  1.5283 -0.9662  0.7977
  659MOL0     H90908   2.683  12.721   0.491 -2.8317 -2.3405 -2.9928
  659MOL0     H90909   2.820  12.631   0.583  0.9390 -0.3202 -1.3339
  659MOL0     H90910   2.770  12.452   0.411  1.9828  0.0292  0.4919
  659MOL0     H90911   2.863  12.595   0.357 -0.9149 -0.9285 -2.1457
  659MOL0     H90912   2.569  12.557   0.305  0.1632 -0.8495  0.7661
  659MOL0     H90913   2.698  12.505   0.190 -1.1392 -0.2818  0.2549
  659MOL0     H90914   2.638  12.777   0.290 -0.1911 -1.0557  0.5942
  659MOL0     H90915   2.783  12.736   0.191  0.2992  0.6407  1.9511
  659MOL0     H90916   2.516  12.678   0.097  1.6971 -1.9581  2.7421
  659MOL0     H90917   2.651  12.712  -0.019 -0.6680  0.8154 -0.2064
  659MOL0     H90918   2.668  12.939   0.117  1.0884 -1.2482 -2.5930
  659MOL0     H90919   2.491  12.912   0.127 -1.9734  1.0300 -1.9655
  659MOL0     H90920   2.534  13.038  -0.081 -3.9578 -0.5656  0.2192
  659MOL0     H90921   2.471  12.886  -0.111 -0.0703  0.9679  0.2385
  659MOL0     H90922   2.720  12.518   0.885 -0.2004  0.3713 -4.4823
  659MOL0     H90923   2.869  12.405   1.062  0.0004  2.5525 -0.1251
  659MOL0     H90924   3.461  12.185   1.039 -2.5730  1.1577 -1.2825
  659MOL0     H90925   3.580  12.072   1.220  0.2651 -1.6761 -1.6516
  659MOL0     H90926   2.721  10.890   1.974 -0.1932  0.4014 -0.6434
  659MOL0     H90927   2.758  10.683   1.859  0.1140  0.7618 -0.2085
  659MOL0     H90928   3.152  10.221   1.962  1.3429 -2.0902 -0.1520
  659MOL0     H90929   3.218  10.044   1.823  0.0809 -0.0054 -1.1152
  659MOL0     H90930   2.906   9.800   1.624  0.3345 -0.4211 -2.9802
  659MOL0     H90931   3.047   9.737   1.552 -3.8343 -2.8167  1.2100
  659MOL0     H90932   3.016   9.626   1.774  3.6073 -2.4605  0.1295
  659MOL0     H90933   3.048   9.767   1.856  1.1510 -2.3049  1.5801
  659MOL0     H90934   3.266   9.707   1.658  1.8252 -0.1821  0.5389
  659MOL0     H90935   3.268   9.787   1.811  0.7865  1.9415 -2.9690
  659MOL0     H90936   3.214   9.557   1.929  1.3199  4.4722  1.2739
  659MOL0     H90937   3.373   9.576   1.859  0.2522  2.4321  1.8020
  659MOL0     H90938   3.191   9.269   1.618  0.0065  0.9804 -1.1259
  659MOL0     H90939   2.820  10.046   1.641  2.5130 -1.1282 -0.7813
  659MOL0     H90940   2.703  10.349   1.763  1.9398 -0.2034 -0.7439
  659MOL0     H90941   2.673  10.192   1.681  0.2458 -0.7792 -0.2868
  659MOL0     H90942   2.665  10.216   1.868  0.2097  0.8650  0.4718
  660MOL0     O90943   8.771  10.585   9.298 -0.4906 -0.1412 -0.8062
  660MOL0     C90944   8.840  10.582   9.405 -0.0768 -0.2284  1.0576
  660MOL0     O90945   8.808  10.656   9.513  0.1950 -0.1223 -0.1728
  660MOL0     C90946   8.716  10.762   9.508  0.0669 -0.0436  0.4869
  660MOL0     C90947   8.577  10.738   9.490  0.7042  0.0746  0.5651
  660MOL0     C90948   8.497  10.848   9.475 -0.8721 -0.2581  0.0696
  660MOL0     C90949   8.549  10.982   9.480  0.9784 -0.3665  0.1095
  660MOL0     O90950   8.464  11.091   9.464 -0.1373  0.6858 -0.3749
  660MOL0     C90951   8.326  11.081   9.507 -0.5385  0.2027 -0.1958
  660MOL0     C90952   8.255  11.213   9.526  0.1530  0.6785  0.3785
  660MOL0     C90953   8.257  11.302   9.400  0.2808  0.0131 -0.8876
  660MOL0     C90954   8.157  11.404   9.432  0.2402 -0.1785 -0.7977
  660MOL0     C90955   8.178  11.535   9.358 -0.8075 -0.0231  0.7176
  660MOL0     C90956   8.065  11.637   9.366 -0.7030  0.0259  0.7680
  660MOL0     C90957   8.122  11.783   9.354  0.2621 -0.5575 -0.2760
  660MOL0     C90958   8.040  11.870   9.261  0.1008 -0.6327 -0.6663
  660MOL0     N90959   8.074  12.017   9.268  0.1001 -0.2843  0.2574
  660MOL0     C90960   7.995  12.112   9.212 -0.1446 -0.1291 -0.7761
  660MOL0     C90961   8.074  12.223   9.201  0.2370  0.3799  0.3663
  660MOL0     C90962   8.036  12.359   9.167  0.0188  0.3614 -0.0743
  660MOL0     C90963   8.071  12.374   9.019  0.2107 -1.2928  0.5159
  660MOL0     C90964   8.077  12.522   8.971 -0.1800 -0.1110  0.6158
  660MOL0     C90965   8.118  12.542   8.822 -0.5479 -0.1053 -0.4700
  660MOL0     O90966   8.021  12.509   8.722 -0.1681  0.7921 -0.4239
  660MOL0     C90967   7.909  12.588   8.712 -0.9768  0.3792  1.1693
  660MOL0     C90968   7.897  12.721   8.768 -0.5412 -0.0332  0.8860
  660MOL0     C90969   7.792  12.806   8.732  0.0457  0.7285  0.4180
  660MOL0     C90970   7.806  12.948   8.773  0.7764  0.4934  0.5434
  660MOL0     C90971   7.677  12.751   8.660  0.0467  0.4719  0.1658
  660MOL0     C90972   7.559  12.826   8.620 -0.8899  0.4689 -0.8756
  660MOL0     O90973   7.441  12.756   8.591  1.2690  0.6210  0.3022
  660MOL0     C90974   7.315  12.819   8.586 -0.2008 -0.1126 -0.2037
  660MOL0     C90975   7.214  12.753   8.514  1.0858  0.9722 -0.6864
  660MOL0     C90976   7.086  12.806   8.491 -0.1653 -0.3822 -0.1471
  660MOL0     C90977   7.056  12.932   8.557  0.4191  1.1121 -1.2598
  660MOL0     O90978   6.930  12.985   8.552  0.4467 -0.4034 -0.4245
  660MOL0     C90979   6.822  12.904   8.591 -0.6876  0.3906  0.6283
  660MOL0     C90980   6.744  12.849   8.465  0.2610  0.3935  0.3475
  660MOL0     C90981   6.601  12.799   8.522  0.1264  0.8356  1.1821
  660MOL0     C90982   6.518  12.721   8.416  0.2209 -0.1587  0.1081
  660MOL0     C90983   6.402  12.653   8.482 -0.5081 -0.2573 -0.3437
  660MOL0     C90984   6.296  12.762   8.511  1.3224  0.2988 -0.0869
  660MOL0     C90985   6.175  12.704   8.595 -0.5523 -0.0708  0.7889
  660MOL0     C90986   6.077  12.817   8.627  0.1197  0.2862  0.0960
  660MOL0    Cl90987   6.137  12.957   8.724 -0.2686 -0.3649 -0.3046
  660MOL0     C90988   7.156  12.992   8.645  0.1144 -0.2898 -0.5124
  660MOL0     C90989   7.277  12.937   8.661  0.2594  0.1162 -0.1337
  660MOL0     O90990   7.570  12.948   8.631 -0.5213 -0.1062  0.0836
  660MOL0     C90991   7.684  12.614   8.627 -0.3730  0.0586  0.3192
  660MOL0     C90992   7.802  12.532   8.647 -0.5145 -0.9464  0.4406
  660MOL0     N90993   8.193  12.186   9.259 -0.0780 -1.1142 -0.8681
  660MOL0     N90994   8.196  12.070   9.297 -0.4367  0.0278  1.5454
  660MOL0     C90995   8.681  10.998   9.486 -0.1665  0.7173 -1.1611
  660MOL0     C90996   8.766  10.886   9.513 -0.5572 -0.4331 -0.6706
  660MOL0     C90997   8.968  10.501   9.409  0.7614 -0.6044 -0.1189
  660MOL0     C90998   9.050  10.533   9.522 -0.2464  0.4574 -0.1197
  660MOL0     C90999   9.154  10.446   9.565 -0.4097 -0.3207  0.4019
  660MOL0     C91000   9.191  10.340   9.484  0.3538 -0.3857 -0.3902
  660MOL0     O91001   9.295  10.264   9.500 -0.1059  0.0731  0.2240
  660MOL0     C91002   9.404  10.301   9.583  0.6256 -0.8293  0.3283
  660MOL0     C91003   9.501  10.177   9.585  0.5442 -0.7876 -0.3410
  660MOL0     C91004   9.428  10.060   9.663 -0.7646 -1.3177  0.7222
  660MOL0     C91005   9.540   9.956   9.669  0.7128 -0.6656 -1.0515
  660MOL0     C91006   9.638   9.977   9.773 -0.1839 -0.9745 -0.3682
  660MOL0     C91007   9.714  10.000   9.872 -0.6918  0.2113  1.1867
  660MOL0     C91008   9.121  10.322   9.365 -0.3471  0.3490 -0.7554
  660MOL0     C91009   9.003  10.398   9.326 -0.8747 -0.1428  0.4685
  660MOL0     C91010   8.918  10.356   9.209 -0.4685  0.4347 -0.4464
  660MOL0     H91011   8.539  10.638   9.475 -1.8465  1.1378 -0.7339
  660MOL0     H91012   8.391  10.840   9.454 -1.4131  0.6998  2.1145
  660MOL0     H91013   8.316  11.029   9.603  2.3028 -0.7837 -0.3392
  660MOL0     H91014   8.273  11.019   9.435  1.4327 -0.8768 -0.7846
  660MOL0     H91015   8.150  11.188   9.544  0.5523 -0.4985  1.2480
  660MOL0     H91016   8.304  11.265   9.609  1.3348  2.1822 -1.2116
  660MOL0     H91017   8.355  11.344   9.375 -0.1572  0.4861 -1.8884
  660MOL0     H91018   8.213  11.241   9.321  1.0879 -1.9934  0.1449
  660MOL0     H91019   8.058  11.364   9.410 -0.9330  2.9085 -1.6739
  660MOL0     H91020   8.164  11.431   9.538 -1.7310  2.6664 -1.2542
  660MOL0     H91021   8.185  11.504   9.253 -1.0536 -1.8230  1.2017
  660MOL0     H91022   8.276  11.564   9.398 -0.3235 -1.5170  0.6994
  660MOL0     H91023   7.991  11.613   9.289  1.7055 -2.8216 -0.8351
  660MOL0     H91024   8.011  11.621   9.460  1.1205 -2.0239  1.5454
  660MOL0     H91025   8.224  11.770   9.315  1.5945  2.8003  1.6438
  660MOL0     H91026   8.133  11.824   9.455 -2.7162  1.4579 -0.6545
  660MOL0     H91027   8.057  11.821   9.165 -2.0550  0.7815 -1.8421
  660MOL0     H91028   7.934  11.854   9.280  0.0331 -1.9259 -1.9762
  660MOL0     H91029   7.891  12.103   9.185 -0.6023 -2.3413  1.3704
  660MOL0     H91030   8.085  12.436   9.228 -2.1721  0.6728  1.4246
  660MOL0     H91031   7.929  12.377   9.180  0.1527  0.7343  0.5273
  660MOL0     H91032   8.171  12.336   8.999  0.1824 -1.1788  0.1339
  660MOL0     H91033   7.989  12.325   8.964 -0.3783  2.2364 -2.0997
  660MOL0     H91034   7.978  12.565   8.982 -0.1691  1.4841 -3.7002
  660MOL0     H91035   8.141  12.588   9.030  1.3636  0.3983 -1.4954
  660MOL0     H91036   8.155  12.644   8.814 -0.8783  0.2704  1.9827
  660MOL0     H91037   8.201  12.472   8.811 -0.8747 -0.8302  1.2699
  660MOL0     H91038   7.974  12.765   8.830 -0.4007 -1.7992  2.0195
  660MOL0     H91039   7.890  12.972   8.839  1.7978  0.2152 -0.6229
  660MOL0     H91040   7.718  12.976   8.831 -1.7022  0.0976 -2.7857
  660MOL0     H91041   7.815  13.020   8.692 -0.5250  1.0249  0.8508
  660MOL0     H91042   7.255  12.663   8.470  0.8298  1.5995 -2.3239
  660MOL0     H91043   7.030  12.760   8.410  0.9796 -0.0144 -1.1702
  660MOL0     H91044   6.852  12.819   8.652 -0.3703  0.0130 -0.0456
  660MOL0     H91045   6.753  12.967   8.648 -0.6210 -0.0946  1.2576
  660MOL0     H91046   6.724  12.928   8.392  1.6670  1.5348  1.1445
  660MOL0     H91047   6.789  12.761   8.417 -1.3089 -1.4063  1.9976
  660MOL0     H91048   6.541  12.890   8.532  0.3256  1.6370 -2.9936
  660MOL0     H91049   6.614  12.738   8.611 -0.7010 -2.3736 -0.7363
  660MOL0     H91050   6.575  12.631   8.393  1.2022  0.2784  0.7233
  660MOL0     H91051   6.491  12.769   8.321 -1.3121 -0.5530  0.3256
  660MOL0     H91052   6.352  12.573   8.425 -2.2319  0.0964  0.6187
  660MOL0     H91053   6.445  12.609   8.572  0.1942  2.3782  0.6901
  660MOL0     H91054   6.258  12.813   8.422  0.7727  3.4196  1.7860
  660MOL0     H91055   6.347  12.841   8.568  3.5301  0.4429 -2.0950
  660MOL0     H91056   6.223  12.661   8.683 -0.9121  0.1756  1.1083
  660MOL0     H91057   6.114  12.636   8.535 -0.0253  0.1016  0.0453
  660MOL0     H91058   5.995  12.767   8.680 -1.7267  0.7879 -2.0899
  660MOL0     H91059   6.027  12.864   8.542 -0.7662  1.5703  1.2908
  660MOL0     H91060   7.138  13.090   8.687 -1.1997 -0.2473 -1.1239
  660MOL0     H91061   7.352  12.989   8.719  0.4532 -1.7767  1.4138
  660MOL0     H91062   7.600  12.573   8.571  0.4992  3.1986 -3.7380
  660MOL0     H91063   7.799  12.429   8.613 -4.2173 -0.2467 -1.8682
  660MOL0     H91064   8.728  11.090   9.456  1.1736  0.8958  1.2550
  660MOL0     H91065   8.874  10.893   9.503 -0.4685  0.1914  0.5516
  660MOL0     H91066   9.038  10.623   9.581 -0.4097  0.3504  0.0118
  660MOL0     H91067   9.200  10.460   9.662  1.4642 -1.0314 -0.3433
  660MOL0     H91068   9.453  10.389   9.540 -1.1036  0.4393  0.8661
  660MOL0     H91069   9.370  10.325   9.684 -0.0416  1.5787 -0.4011
  660MOL0     H91070   9.586  10.206   9.648 -1.2361  0.3368  1.6546
  660MOL0     H91071   9.530  10.155   9.482 -0.9335  1.2726 -1.2644
  660MOL0     H91072   9.407  10.099   9.764  1.9496  1.5580  0.3476
  660MOL0     H91073   9.345  10.020   9.606  0.2411 -1.1004 -0.9676
  660MOL0     H91074   9.592   9.931   9.576 -1.2428 -0.3261 -2.2968
  660MOL0     H91075   9.490   9.864   9.699  0.7052 -0.7821 -1.4200
  660MOL0     H91076   9.781  10.025   9.952  0.7294 -0.5159  0.2759
  660MOL0     H91077   9.150  10.237   9.304  1.9548 -2.4837  3.7971
  660MOL0     H91078   8.965  10.271   9.157 -2.5866 -1.2700  0.3075
  660MOL0     H91079   8.821  10.325   9.248  1.4164 -2.5634  2.4030
  660MOL0     H91080   8.899  10.434   9.136  1.8208  0.4370 -1.1455
  661MOL0     O91081   2.145   0.996   5.788 -0.4970  0.5605  0.7624
  661MOL0     C91082   2.187   0.919   5.872  0.4168 -0.1859 -0.3527
  661MOL0     O91083   2.100   0.845   5.954 -0.3313  0.2665 -0.4394
  661MOL0     C91084   1.969   0.846   5.917  0.2449  0.8338 -0.1876
  661MOL0     C91085   1.914   0.810   5.791 -0.1072 -0.4970  0.4820
  661MOL0     C91086   1.786   0.839   5.763 -0.5295 -0.1563 -0.4744
  661MOL0     C91087   1.693   0.886   5.853  0.1580  0.5372 -1.9904
  661MOL0     O91088   1.566   0.909   5.809 -0.3694 -0.1170 -0.5508
  661MOL0     C91089   1.492   1.011   5.872 -0.2155 -0.0495 -0.5652
  661MOL0     C91090   1.374   1.035   5.783  0.1009 -0.0360 -0.1154
  661MOL0     C91091   1.411   1.111   5.650  0.7506 -0.3990 -0.3593
  661MOL0     C91092   1.300   1.194   5.601 -0.4546  0.0712  0.0097
  661MOL0     C91093   1.314   1.247   5.455  0.2650  0.1776  0.4286
  661MOL0     C91094   1.348   1.145   5.344  0.6820 -0.3395  0.0543
  661MOL0     C91095   1.252   1.022   5.340 -0.3967  0.1499  0.2803
  661MOL0     C91096   1.299   0.919   5.231 -0.9462 -0.6828  0.7415
  661MOL0     N91097   1.259   0.946   5.093 -0.0059 -0.7935 -0.3179
  661MOL0     C91098   1.347   0.937   4.985 -0.1137 -0.3017 -0.6257
  661MOL0     C91099   1.273   0.984   4.885  0.0825  0.9243 -0.8383
  661MOL0     C91100   1.308   0.977   4.744  0.1684  0.3613 -0.7955
  661MOL0     C91101   1.274   0.849   4.664 -1.1641 -0.9820  0.5930
  661MOL0     C91102   1.331   0.711   4.720  1.5345 -1.3107 -0.4937
  661MOL0     C91103   1.477   0.698   4.701  0.8257  0.1101 -0.1409
  661MOL0     O91104   1.520   0.579   4.779 -0.0629 -1.0613 -0.7084
  661MOL0     C91105   1.648   0.535   4.759  0.8395  0.2078  0.2436
  661MOL0     C91106   1.674   0.400   4.757 -0.5047 -0.6763  0.1396
  661MOL0     C91107   1.808   0.357   4.733 -0.5336  0.0866 -0.2398
  661MOL0     C91108   1.825   0.203   4.746 -0.6472  1.0963  0.3683
  661MOL0     C91109   1.913   0.448   4.710  0.0556  0.5455  0.6308
  661MOL0     C91110   2.050   0.407   4.673 -0.0639  0.1353 -0.4293
  661MOL0     O91111   2.155   0.498   4.687  0.1383  0.3499  0.3709
  661MOL0     C91112   2.280   0.451   4.652 -0.4802 -0.1621 -0.4815
  661MOL0     C91113   2.312   0.455   4.522 -0.5795  0.0392 -0.5827
  661MOL0     C91114   2.444   0.410   4.480 -0.3571 -0.3041 -0.8174
  661MOL0     C91115   2.535   0.362   4.576  0.4892  0.1409 -0.2462
  661MOL0     O91116   2.658   0.317   4.527 -0.0181  0.1179  0.1727
  661MOL0     C91117   2.655   0.178   4.508 -0.0478 -0.4013 -0.6115
  661MOL0     C91118   2.794   0.126   4.511 -0.5662  0.0372  0.4043
  661MOL0     C91119   2.884   0.179   4.632 -0.1610 -0.6006 -0.3887
  661MOL0     C91120   3.027   0.145   4.601  0.4463  0.7140 -1.2040
  661MOL0     C91121   3.113   0.141   4.731 -0.1556 -0.5900  0.2294
  661MOL0     C91122   3.089   0.034   4.835  1.4903 -0.9516 -0.1745
  661MOL0     C91123   3.132  -0.107   4.774  0.7692  0.0334  0.6736
  661MOL0     C91124   3.141  -0.217   4.885 -0.6089 -0.7887  0.4802
  661MOL0    Cl91125   2.981  -0.303   4.927 -0.0032 -0.0553  0.2982
  661MOL0     C91126   2.499   0.349   4.712  0.3423 -0.1453  0.0098
  661MOL0     C91127   2.370   0.407   4.750 -0.6703  0.6744 -0.2632
  661MOL0     O91128   2.069   0.294   4.624  0.1224 -0.2129  0.7828
  661MOL0     C91129   1.880   0.583   4.717 -0.5944 -0.1144  0.8249
  661MOL0     C91130   1.750   0.630   4.722  0.4030  0.0514 -0.1006
  661MOL0     N91131   1.140   1.001   4.920 -0.1943 -0.1179  0.8179
  661MOL0     N91132   1.140   0.987   5.047 -0.4609 -0.5890 -0.3444
  661MOL0     C91133   1.746   0.926   5.982 -0.7162  1.1416  0.0545
  661MOL0     C91134   1.877   0.898   6.010 -0.4154  0.7739 -0.1344
  661MOL0     C91135   2.333   0.924   5.905  0.4914  0.5186  0.0184
  661MOL0     C91136   2.381   0.894   6.033  0.2033  1.1483  0.2581
  661MOL0     C91137   2.518   0.875   6.053  0.4005  0.9473 -0.0072
  661MOL0     C91138   2.608   0.893   5.951 -0.6112  0.0837 -0.1946
  661MOL0     O91139   2.741   0.882   5.965  0.6369  0.4142  0.3707
  661MOL0     C91140   2.797   0.781   6.053 -0.1041 -1.0989 -0.2455
  661MOL0     C91141   2.949   0.792   6.038 -0.3820 -0.3730  0.0263
  661MOL0     C91142   2.983   0.758   5.888 -0.4966  0.1295 -0.4021
  661MOL0     C91143   3.135   0.744   5.866  0.3092  0.3972  0.5250
  661MOL0     C91144   3.209   0.655   5.968 -0.0183 -0.5250  0.2010
  661MOL0     C91145   3.266   0.604   6.061 -0.2832  0.6913  0.3353
  661MOL0     C91146   2.566   0.914   5.825  1.0214 -0.1662  0.0510
  661MOL0     C91147   2.428   0.935   5.790  0.8193 -0.3949 -0.2345
  661MOL0     C91148   2.382   0.948   5.646  0.9500  0.3131  0.7310
  661MOL0     H91149   1.992   0.781   5.721 -0.2989  0.6673 -0.2505
  661MOL0     H91150   1.760   0.834   5.657  5.0971 -2.0793 -2.1175
  661MOL0     H91151   1.546   1.105   5.884 -1.7721  0.5274  3.6297
  661MOL0     H91152   1.454   0.974   5.968 -2.0235 -1.6868 -1.8355
  661MOL0     H91153   1.322   0.942   5.760 -0.1338 -1.4859  4.8945
  661MOL0     H91154   1.307   1.088   5.852  1.9256 -1.8918  3.3365
  661MOL0     H91155   1.500   1.174   5.652 -0.8606  2.1495 -2.7634
  661MOL0     H91156   1.436   1.037   5.574 -0.5234  0.1416 -1.3403
  661MOL0     H91157   1.206   1.139   5.610  0.5288 -1.7509 -0.4019
  661MOL0     H91158   1.306   1.282   5.667 -0.8190  0.9259 -1.0704
  661MOL0     H91159   1.400   1.315   5.457  1.0900 -0.7808 -0.8058
  661MOL0     H91160   1.233   1.315   5.428  2.5391  4.4069  3.1453
  661MOL0     H91161   1.340   1.193   5.246 -0.5418  0.2730  0.4380
  661MOL0     H91162   1.452   1.115   5.358  0.5187 -0.1609  1.7873
  661MOL0     H91163   1.148   1.035   5.309  0.1263  0.0197 -1.6667
  661MOL0     H91164   1.257   0.971   5.437 -1.2770  1.3320  0.9834
  661MOL0     H91165   1.406   0.893   5.235 -1.2156 -1.7090  2.5882
  661MOL0     H91166   1.247   0.826   5.254 -2.1335 -0.9258 -2.5172
  661MOL0     H91167   1.446   0.892   4.986 -0.0168 -0.1072  0.7228
  661MOL0     H91168   1.417   0.988   4.746  0.1577  0.3792 -0.2515
  661MOL0     H91169   1.273   1.072   4.702 -2.1530  0.9552  2.1348
  661MOL0     H91170   1.164   0.842   4.666 -1.0624 -3.0395  1.6012
  661MOL0     H91171   1.291   0.860   4.556 -2.4593 -0.7993  0.3863
  661MOL0     H91172   1.293   0.697   4.822 -1.3925 -0.5831 -1.3788
  661MOL0     H91173   1.284   0.640   4.652 -0.9299  2.4233 -3.0802
  661MOL0     H91174   1.498   0.694   4.594 -0.5704  0.2559 -0.4376
  661MOL0     H91175   1.522   0.791   4.737  0.8858  0.7210 -1.7357
  661MOL0     H91176   1.598   0.336   4.800 -0.2889  0.8900  3.1163
  661MOL0     H91177   1.728   0.153   4.757  0.7504 -1.8961  0.2215
  661MOL0     H91178   1.890   0.169   4.827 -0.4970 -0.3054 -0.3035
  661MOL0     H91179   1.852   0.166   4.646 -2.9038  1.0955 -0.3156
  661MOL0     H91180   2.241   0.482   4.444 -2.7580 -1.2030  0.8654
  661MOL0     H91181   2.474   0.413   4.376  0.6931 -1.3799 -0.5751
  661MOL0     H91182   2.600   0.131   4.590  1.1296  1.1810  1.2101
  661MOL0     H91183   2.604   0.159   4.414  2.5579  0.1651 -2.2435
  661MOL0     H91184   2.772   0.019   4.520 -1.9066  0.3327  0.8952
  661MOL0     H91185   2.846   0.145   4.417  1.4216  3.4751  2.0248
  661MOL0     H91186   2.856   0.143   4.731 -0.6911  2.9601  0.8984
  661MOL0     H91187   2.899   0.287   4.634  1.7591 -0.8255  1.9661
  661MOL0     H91188   3.061   0.221   4.530  0.5358  3.3854  1.4788
  661MOL0     H91189   3.026   0.049   4.550 -0.9067 -0.5885  1.1189
  661MOL0     H91190   3.221   0.137   4.714 -0.1037  1.4800 -0.1412
  661MOL0     H91191   3.094   0.239   4.776 -1.1423  0.4375 -2.2542
  661MOL0     H91192   2.984   0.021   4.862  1.3783 -2.0457 -1.0896
  661MOL0     H91193   3.139   0.051   4.931  1.2644 -1.0760 -0.0341
  661MOL0     H91194   3.231  -0.099   4.730  1.6680 -0.3617  2.5090
  661MOL0     H91195   3.055  -0.129   4.699  0.9309  0.1073  0.4855
  661MOL0     H91196   3.195  -0.193   4.977 -0.9629  0.5134  0.3655
  661MOL0     H91197   3.198  -0.298   4.838 -1.5296  1.1529 -4.6858
  661MOL0     H91198   2.571   0.302   4.777  0.6626 -1.5533 -1.2900
  661MOL0     H91199   2.341   0.418   4.854  1.7042  1.2090  0.4192
  661MOL0     H91200   1.960   0.656   4.704  2.0090 -3.1156 -1.9443
  661MOL0     H91201   1.714   0.733   4.715 -3.1367 -1.0651 -0.3768
  661MOL0     H91202   1.681   0.970   6.057 -4.0413 -2.6071 -0.3000
  661MOL0     H91203   1.906   0.926   6.111 -0.8680  0.6356  0.0332
  661MOL0     H91204   2.309   0.886   6.115 -0.4597  2.4295 -0.1705
  661MOL0     H91205   2.540   0.851   6.156  1.4225 -0.6495 -0.5686
  661MOL0     H91206   2.777   0.803   6.158  3.1128 -2.2231  0.7059
  661MOL0     H91207   2.771   0.678   6.027  0.8675 -0.9683 -1.8397
  661MOL0     H91208   2.980   0.714   6.108  1.8255  0.0511 -0.4116
  661MOL0     H91209   2.997   0.883   6.075  0.3124 -0.9690  0.6311
  661MOL0     H91210   2.938   0.662   5.860 -1.9542  1.1994 -1.9462
  661MOL0     H91211   2.949   0.828   5.811  1.2266  0.9500 -0.4554
  661MOL0     H91212   3.185   0.841   5.862 -1.9071  1.5439 -1.5569
  661MOL0     H91213   3.134   0.698   5.767 -0.9871  0.1419  0.6444
  661MOL0     H91214   3.302   0.557   6.150  1.1572 -2.1964 -1.6126
  661MOL0     H91215   2.641   0.913   5.746  0.0141  0.6823 -0.9473
  661MOL0     H91216   2.295   0.887   5.620  2.3143 -0.8373 -1.4556
  661MOL0     H91217   2.376   1.055   5.623  1.4889 -0.3101 -3.0808
  661MOL0     H91218   2.467   0.914   5.585  0.0393  1.3282 -1.2044
  662MOL0     O91219   9.728   0.370   2.002 -0.5536 -0.2321  0.0109
  662MOL0     C91220   9.785   0.465   1.942 -0.2184  0.1736  0.2326
  662MOL0     O91221   9.804   0.463   1.807 -1.5888 -0.3855 -0.3733
  662MOL0     C91222   9.746   0.370   1.733  0.5600 -0.3114 -0.0905
  662MOL0     C91223   9.841   0.278   1.691  0.4890  0.4122  0.6443
  662MOL0     C91224   9.807   0.161   1.618 -0.4128  0.1405  0.0897
  662MOL0     C91225   9.675   0.145   1.572  0.1385  0.4800  0.7778
  662MOL0     O91226   9.638   0.031   1.495  0.1052 -0.3361 -0.8404
  662MOL0     C91227   9.536   0.043   1.402  0.1947  0.7734 -0.5330
  662MOL0     C91228   9.557   0.142   1.294 -0.5870  0.2019 -0.2251
  662MOL0     C91229   9.450   0.117   1.192  0.2406 -0.9152  0.2370
  662MOL0     C91230   9.438   0.231   1.087  0.5019  0.6666  0.3969
  662MOL0     C91231   9.302   0.220   1.005  0.7613 -0.4099  0.6984
  662MOL0     C91232   9.293   0.298   0.871 -0.4118 -0.3596 -0.2471
  662MOL0     C91233   9.419   0.286   0.785  0.5367 -0.9430 -0.3799
  662MOL0     C91234   9.397   0.344   0.638 -0.2526  0.2915  0.7883
  662MOL0     N91235   9.398   0.490   0.622 -0.4111 -0.2600  0.6407
  662MOL0     C91236   9.294   0.584   0.620  0.8724  0.0638 -0.3762
  662MOL0     C91237   9.353   0.701   0.609 -0.5453 -0.2714 -0.0661
  662MOL0     C91238   9.280   0.822   0.621 -0.4857 -0.5127  0.2242
  662MOL0     C91239   9.283   0.912   0.494 -0.7696  0.0913 -0.1919
  662MOL0     C91240   9.416   0.957   0.438  0.7662 -0.0720  0.1283
  662MOL0     C91241   9.498   1.052   0.528 -0.5014  0.2710  0.6254
  662MOL0     O91242   9.429   1.145   0.606 -0.6580  0.5500  0.1647
  662MOL0     C91243   9.481   1.279   0.608  0.0400  0.0722  0.2684
  662MOL0     C91244   9.599   1.324   0.533 -0.3747  0.4035 -0.4106
  662MOL0     C91245   9.629   1.458   0.539 -0.0569 -0.4792  0.1878
  662MOL0     C91246   9.754   1.501   0.462  0.1909 -0.3111  0.0968
  662MOL0     C91247   9.563   1.546   0.628 -0.1896 -0.4325  0.0161
  662MOL0     C91248   9.598   1.692   0.646  0.5074  0.0642 -0.0982
  662MOL0     O91249   9.609   1.773   0.543 -0.1125  0.4445 -0.5186
  662MOL0     C91250   9.647   1.903   0.569 -0.2826 -0.7576  0.0586
  662MOL0     C91251   9.787   1.933   0.562  0.9143  0.6372 -0.5902
  662MOL0     C91252   9.823   2.064   0.569  0.2825 -0.1081 -0.2649
  662MOL0     C91253   9.729   2.170   0.578  1.0126 -0.2257  0.4501
  662MOL0     O91254   9.774   2.300   0.594 -0.0989  0.4548  0.3206
  662MOL0     C91255   9.895   2.330   0.663 -0.6976 -0.4529 -0.0587
  662MOL0     C91256   9.923   2.476   0.658  0.1231  0.2247  0.2400
  662MOL0     C91257  10.015   2.532   0.757  0.1565  1.0500 -0.5291
  662MOL0     C91258   9.991   2.509   0.904  0.4844  0.1759 -0.0559
  662MOL0     C91259  10.080   2.586   0.989 -0.4501 -0.0325 -0.7435
  662MOL0     C91260  10.057   2.743   0.986 -0.8181  1.0629  0.6902
  662MOL0     C91261  10.116   2.806   1.119 -0.1778  0.3989  0.3571
  662MOL0     C91262  10.076   2.946   1.122 -0.6564  0.2705 -0.0837
  662MOL0    Cl91263  10.176   3.031   0.995  0.0441  0.0536 -0.0120
  662MOL0     C91264   9.593   2.140   0.595 -0.1951 -0.4906  0.8068
  662MOL0     C91265   9.551   2.007   0.595 -0.3051 -0.1445 -0.9584
  662MOL0     O91266   9.608   1.721   0.757 -0.5586  0.3780 -0.4962
  662MOL0     C91267   9.457   1.491   0.702 -0.3563  0.3487 -0.3195
  662MOL0     C91268   9.416   1.364   0.685  0.4070  1.0241 -0.3402
  662MOL0     N91269   9.490   0.683   0.612  0.2603  0.0937 -0.3475
  662MOL0     N91270   9.514   0.559   0.623 -0.3432  0.2631  0.4038
  662MOL0     C91271   9.586   0.241   1.620  0.7949  0.4052  0.3001
  662MOL0     C91272   9.615   0.353   1.698  0.9625  0.3510 -0.2978
  662MOL0     C91273   9.826   0.576   2.022  0.0059 -0.3483 -0.1885
  662MOL0     C91274   9.883   0.691   1.966 -0.2298 -0.4257  0.1268
  662MOL0     C91275   9.922   0.796   2.041  0.6922  0.3526  0.3679
  662MOL0     C91276   9.926   0.798   2.185  0.0241  0.9921 -0.0385
  662MOL0     O91277   9.993   0.895   2.251  0.1313  0.2749 -0.3168
  662MOL0     C91278   9.923   0.988   2.342  0.0423  0.7079 -0.1862
  662MOL0     C91279   9.841   1.092   2.261  0.1697 -0.1772  0.0727
  662MOL0     C91280   9.925   1.206   2.189  0.4106 -0.5086  0.2215
  662MOL0     C91281   9.848   1.337   2.171  0.4699  0.6976 -0.1006
  662MOL0     C91282   9.938   1.432   2.109 -0.3789 -0.3116 -0.6379
  662MOL0     C91283  10.004   1.518   2.063 -0.5340  0.0168  1.0043
  662MOL0     C91284   9.865   0.684   2.244 -0.4820 -0.2037  0.5309
  662MOL0     C91285   9.823   0.570   2.169  0.4754  0.7726 -0.2144
  662MOL0     C91286   9.766   0.462   2.261  0.5508 -0.0700 -0.3981
  662MOL0     H91287   9.946   0.296   1.711 -0.2687  3.4586  2.4406
  662MOL0     H91288   9.875   0.081   1.591 -4.0418 -3.3981  0.4620
  662MOL0     H91289   9.439   0.051   1.451  1.3309  0.5875  1.8912
  662MOL0     H91290   9.530  -0.055   1.352 -1.2611 -0.1593  1.3508
  662MOL0     H91291   9.548   0.244   1.332 -0.7734  1.2419 -2.8609
  662MOL0     H91292   9.659   0.119   1.261 -1.0404 -1.6761 -0.4381
  662MOL0     H91293   9.474   0.024   1.141  0.1347 -1.7316  1.6272
  662MOL0     H91294   9.352   0.112   1.240 -0.3967  2.0588 -0.5340
  662MOL0     H91295   9.452   0.328   1.137  3.0912  0.2081  0.7303
  662MOL0     H91296   9.531   0.233   1.028  2.1058  0.4143  2.7592
  662MOL0     H91297   9.216   0.268   1.054 -2.5009 -1.5366 -3.3605
  662MOL0     H91298   9.281   0.117   0.978  2.0526 -0.2170 -1.2265
  662MOL0     H91299   9.205   0.264   0.816 -1.3682  1.1000  0.3139
  662MOL0     H91300   9.285   0.403   0.902  1.9594 -0.5700  1.3677
  662MOL0     H91301   9.437   0.180   0.766 -2.7702 -1.6560 -0.0663
  662MOL0     H91302   9.509   0.323   0.835 -0.0699 -0.9736  0.7460
  662MOL0     H91303   9.477   0.316   0.570  0.8281  2.5806  1.0494
  662MOL0     H91304   9.308   0.303   0.589  0.5567  0.2330 -0.6629
  662MOL0     H91305   9.187   0.565   0.619  1.0231 -0.8351 -1.7778
  662MOL0     H91306   9.315   0.881   0.706  2.3130 -1.5123 -0.1508
  662MOL0     H91307   9.180   0.784   0.648 -0.5427 -1.5069 -1.2634
  662MOL0     H91308   9.226   0.861   0.415  3.0779 -0.9469 -2.5528
  662MOL0     H91309   9.222   0.995   0.530 -0.1193 -0.0712  1.3803
  662MOL0     H91310   9.471   0.865   0.420 -0.8746 -1.4683  1.8471
  662MOL0     H91311   9.387   0.997   0.340 -0.4251 -0.4054  0.3296
  662MOL0     H91312   9.556   0.991   0.597 -2.5024 -0.3356  1.8447
  662MOL0     H91313   9.575   1.089   0.460 -1.1278 -1.1740 -0.9314
  662MOL0     H91314   9.662   1.256   0.476  1.9266  3.7424 -2.2155
  662MOL0     H91315   9.748   1.504   0.353 -0.8538  0.6336  0.1588
  662MOL0     H91316   9.825   1.418   0.468 -1.7822 -2.3991 -2.9604
  662MOL0     H91317   9.784   1.596   0.508  0.4956 -1.4421  2.4124
  662MOL0     H91318   9.855   1.848   0.560  0.2982  0.0904  0.9145
  662MOL0     H91319   9.926   2.091   0.550  0.4930 -1.3203 -1.0119
  662MOL0     H91320   9.875   2.299   0.766 -0.4288  0.2079  0.1978
  662MOL0     H91321   9.984   2.282   0.622  0.7626  1.8813  0.1999
  662MOL0     H91322   9.961   2.489   0.557 -0.3018 -0.9081 -0.0824
  662MOL0     H91323   9.833   2.537   0.671  0.7801  0.6667  3.7480
  662MOL0     H91324  10.036   2.637   0.737 -1.3251  0.9561 -3.0101
  662MOL0     H91325  10.108   2.482   0.728  0.8425  1.6496  0.5803
  662MOL0     H91326  10.020   2.404   0.920  2.8678  0.7123 -0.4384
  662MOL0     H91327   9.885   2.522   0.928 -0.2421 -1.5599 -2.0552
  662MOL0     H91328  10.049   2.547   1.086  1.6211 -4.0793 -1.4757
  662MOL0     H91329  10.184   2.568   0.959 -0.4762  0.9038 -1.4599
  662MOL0     H91330   9.953   2.773   0.974 -0.2224  2.1838 -2.4524
  662MOL0     H91331  10.103   2.791   0.900 -2.0898 -0.9211 -1.2193
  662MOL0     H91332  10.225   2.800   1.111  0.1782  4.0118  0.7251
  662MOL0     H91333  10.083   2.757   1.211 -2.1837  1.5622  0.3098
  662MOL0     H91334  10.106   2.981   1.221  1.7315 -0.4850 -0.4717
  662MOL0     H91335   9.970   2.958   1.096 -0.9650  2.3578  1.8134
  662MOL0     H91336   9.522   2.221   0.602 -0.2923  0.0766 -3.7206
  662MOL0     H91337   9.449   1.974   0.602  0.0066 -0.9709 -0.2353
  662MOL0     H91338   9.394   1.546   0.771  0.2863 -0.0975  0.6529
  662MOL0     H91339   9.325   1.324   0.728 -0.2883  2.6578 -0.2351
  662MOL0     H91340   9.486   0.231   1.579  2.6593 -2.3155 -4.4490
  662MOL0     H91341   9.539   0.428   1.719  0.4710 -0.2633  0.1908
  662MOL0     H91342   9.894   0.700   1.858  2.1212 -1.9711  0.1803
  662MOL0     H91343   9.963   0.875   1.979 -1.6005  0.1130 -1.5770
  662MOL0     H91344   9.857   0.928   2.406 -0.4825  0.7920 -0.6398
  662MOL0     H91345   9.999   1.044   2.397  1.3193 -1.2715  0.2067
  662MOL0     H91346   9.774   1.134   2.337 -2.2269 -2.9271 -0.3601
  662MOL0     H91347   9.770   1.046   2.191 -0.5457  1.3929 -0.2900
  662MOL0     H91348  10.013   1.235   2.248  0.9107 -2.7094  0.6333
  662MOL0     H91349   9.964   1.176   2.090 -2.2639  0.3875 -1.1911
  662MOL0     H91350   9.805   1.378   2.263  1.4775  0.6076  0.4302
  662MOL0     H91351   9.764   1.314   2.105  2.6163 -3.3603 -1.8318
  662MOL0     H91352  10.075   1.584   2.018  2.3734 -2.4096  1.6557
  662MOL0     H91353   9.869   0.682   2.352 -1.8785  0.6234  0.6261
  662MOL0     H91354   9.658   0.457   2.251  0.3160  1.0625  1.1961
  662MOL0     H91355   9.811   0.363   2.245  1.9042  0.1983  1.4017
  662MOL0     H91356   9.787   0.486   2.365  0.9708  3.6332 -1.1896
  663MOL0     O91357   9.911   1.093   0.608  0.8086  0.1433 -0.2813
  663MOL0     C91358   9.941   1.005   0.526 -0.3995  0.3605 -0.8284
  663MOL0     O91359  10.022   0.897   0.553  0.0735  0.4648 -0.3390
  663MOL0     C91360  10.092   0.900   0.676  0.7726 -0.2110  0.2777
  663MOL0     C91361  10.226   0.937   0.680  0.0774  0.1848  0.6795
  663MOL0     C91362  10.292   0.930   0.802 -0.0146 -0.7225  0.5225
  663MOL0     C91363  10.235   0.896   0.918  0.6844  0.3753  0.0240
  663MOL0     O91364  10.318   0.901   1.030 -0.1348 -0.1357  0.1670
  663MOL0     C91365  10.350   0.780   1.106 -0.1887 -0.3543  0.4551
  663MOL0     C91366  10.224   0.757   1.196 -0.0979 -0.5364  0.6966
  663MOL0     C91367  10.256   0.678   1.318  0.2438  1.2705 -0.4811
  663MOL0     C91368  10.124   0.626   1.393  1.2201 -0.2494 -0.9414
  663MOL0     C91369  10.161   0.551   1.529 -0.3735  0.0058  0.1434
  663MOL0     C91370  10.233   0.418   1.489 -0.7503 -0.4050  0.4449
  663MOL0     C91371  10.302   0.343   1.613 -0.2562 -0.2695  0.5604
  663MOL0     C91372  10.360   0.199   1.595 -0.0510 -0.0598  0.5760
  663MOL0     N91373  10.255   0.103   1.574 -0.5011  0.4634  0.1871
  663MOL0     C91374  10.192   0.079   1.455 -0.3857 -0.2527  0.6279
  663MOL0     C91375  10.106  -0.023   1.474 -0.7430  0.5002 -1.0247
  663MOL0     C91376  10.028  -0.085   1.359  1.3011 -0.3602 -0.6416
  663MOL0     C91377   9.914  -0.168   1.420  0.0292  0.1338  0.4525
  663MOL0     C91378   9.830  -0.229   1.304 -0.3707 -0.2518  1.4610
  663MOL0     C91379   9.703  -0.298   1.353  0.0114  0.3296 -0.0877
  663MOL0     O91380   9.748  -0.397   1.436  1.1324  0.1364 -0.0239
  663MOL0     C91381   9.658  -0.491   1.489  0.1589  0.3963  0.3000
  663MOL0     C91382   9.554  -0.531   1.409 -0.6816 -0.0281  0.5659
  663MOL0     C91383   9.454  -0.622   1.458 -0.1776  0.5944 -0.1227
  663MOL0     C91384   9.344  -0.659   1.365 -0.7080 -1.3820  0.2502
  663MOL0     C91385   9.471  -0.676   1.583  0.3559 -0.2066 -0.5449
  663MOL0     C91386   9.377  -0.775   1.653 -0.7069 -0.4841  0.5460
  663MOL0     O91387   9.271  -0.824   1.590  0.3228  0.4352  0.0707
  663MOL0     C91388   9.171  -0.882   1.660  0.0640 -1.2384  0.0290
  663MOL0     C91389   9.143  -1.018   1.655 -1.0639  0.5477  0.3197
  663MOL0     C91390   9.032  -1.078   1.710 -0.1694 -0.7434  0.0662
  663MOL0     C91391   8.946  -0.996   1.791  0.1008 -0.8022 -0.0341
  663MOL0     O91392   8.841  -1.043   1.861 -0.0673 -0.1173  0.1298
  663MOL0     C91393   8.779  -1.165   1.813 -0.2597  0.2306 -0.7969
  663MOL0     C91394   8.643  -1.163   1.867  0.8362  0.6713  0.0071
  663MOL0     C91395   8.577  -1.308   1.855  0.6342 -0.1805  0.2019
  663MOL0     C91396   8.442  -1.334   1.922 -0.2824 -0.4136  0.1914
  663MOL0     C91397   8.341  -1.223   1.877  0.3276  0.2321 -0.2347
  663MOL0     C91398   8.227  -1.230   1.972  0.4162 -0.5136 -0.2122
  663MOL0     C91399   8.097  -1.155   1.928  0.0439 -0.1294  0.6912
  663MOL0     C91400   8.129  -1.020   1.875 -0.7350 -0.3209  0.6250
  663MOL0    Cl91401   7.977  -0.923   1.892  0.2518  0.4462  0.1262
  663MOL0     C91402   8.977  -0.858   1.811  0.2493  0.3271  0.0099
  663MOL0     C91403   9.084  -0.802   1.736  0.4136 -0.3994 -0.0003
  663MOL0     O91404   9.409  -0.813   1.766 -0.2008 -0.7877  0.5285
  663MOL0     C91405   9.572  -0.629   1.665 -0.0076  0.0024  0.6487
  663MOL0     C91406   9.667  -0.536   1.624 -0.3038 -0.2422 -1.0792
  663MOL0     N91407  10.111  -0.048   1.603  0.0268  0.5866 -1.7632
  663MOL0     N91408  10.207   0.014   1.660  0.8076 -0.2062 -1.1092
  663MOL0     C91409  10.099   0.866   0.916  0.9415  0.1110 -0.7484
  663MOL0     C91410  10.021   0.866   0.797 -1.0050  0.1258 -0.8053
  663MOL0     C91411   9.866   1.028   0.405 -0.1686 -0.0131  0.4876
  663MOL0     C91412   9.861   1.160   0.353  0.5365  0.3298 -0.3777
  663MOL0     C91413   9.803   1.182   0.228  0.5252 -0.7865 -0.2706
  663MOL0     C91414   9.738   1.085   0.156 -0.6471 -0.9517 -0.0673
  663MOL0     O91415   9.698   1.110   0.027  1.1821 -0.2890 -0.5732
  663MOL0     C91416   9.554   1.098   0.014  0.4592 -0.1639  0.7583
  663MOL0     C91417   9.463   1.205   0.049 -0.4534 -0.3673  0.1742
  663MOL0     C91418   9.530   1.336  -0.003 -0.2942  0.0219 -0.2713
  663MOL0     C91419   9.439   1.466   0.009  0.0217 -0.1466  0.5851
  663MOL0     C91420   9.508   1.568   0.095  0.8768  0.7186 -0.0544
  663MOL0     C91421   9.576   1.643   0.158 -0.2963  0.1119  0.1641
  663MOL0     C91422   9.731   0.958   0.213  0.2418 -0.0499  0.3726
  663MOL0     C91423   9.797   0.921   0.331  0.3713  0.2877 -0.0138
  663MOL0     C91424   9.787   0.782   0.388  0.3494 -0.4163  0.9312
  663MOL0     H91425  10.284   0.964   0.592  0.4090 -2.8541 -0.1254
  663MOL0     H91426  10.400   0.938   0.811 -0.2025  1.1151  1.8380
  663MOL0     H91427  10.434   0.808   1.171 -0.8910  3.6647 -0.0961
  663MOL0     H91428  10.371   0.691   1.045 -1.2721  0.5006 -1.2370
  663MOL0     H91429  10.189   0.854   1.233  2.3621  0.3303  0.9343
  663MOL0     H91430  10.145   0.710   1.136  0.1807  1.2567 -1.1656
  663MOL0     H91431  10.312   0.589   1.287  0.9437  2.4133 -2.7160
  663MOL0     H91432  10.327   0.722   1.388  1.3428 -1.9325  0.6150
  663MOL0     H91433  10.068   0.718   1.416  1.8667 -0.2301  0.7311
  663MOL0     H91434  10.059   0.561   1.334 -1.4861  0.5027  0.9887
  663MOL0     H91435  10.068   0.528   1.583 -1.8612  1.1944 -1.7585
  663MOL0     H91436  10.217   0.610   1.602 -0.7296  1.4905 -0.7283
  663MOL0     H91437  10.168   0.342   1.445 -0.7885  0.0983 -0.3838
  663MOL0     H91438  10.309   0.441   1.414 -0.4687  0.7543  1.0573
  663MOL0     H91439  10.236   0.343   1.701 -1.5127 -2.1198 -0.3128
  663MOL0     H91440  10.386   0.401   1.652  0.2552 -0.8945  0.4056
  663MOL0     H91441  10.416   0.178   1.504 -0.7364  1.1794 -0.1540
  663MOL0     H91442  10.421   0.174   1.682 -1.9601  1.8073  2.5641
  663MOL0     H91443  10.212   0.143   1.370 -0.7179  0.7951  1.3135
  663MOL0     H91444  10.085  -0.158   1.300 -0.6278 -1.0012 -1.8170
  663MOL0     H91445   9.983  -0.009   1.295 -0.3175  1.1820  2.1433
  663MOL0     H91446   9.954  -0.249   1.481 -0.3684 -1.1728 -0.9597
  663MOL0     H91447   9.842  -0.102   1.469 -1.5978 -0.4481 -1.0190
  663MOL0     H91448   9.799  -0.160   1.224  2.6414 -0.0754  0.2931
  663MOL0     H91449   9.893  -0.303   1.254 -1.0061  1.3528 -2.1138
  663MOL0     H91450   9.633  -0.230   1.402  1.3582  1.2912  0.5552
  663MOL0     H91451   9.659  -0.342   1.263  1.1126 -2.8955  0.7814
  663MOL0     H91452   9.535  -0.484   1.313  1.9237  1.5452  0.7147
  663MOL0     H91453   9.253  -0.627   1.417  1.0686  4.7568  0.3178
  663MOL0     H91454   9.358  -0.765   1.339  1.4375 -0.8954 -0.7725
  663MOL0     H91455   9.350  -0.607   1.269  0.7034  2.4970  2.2104
  663MOL0     H91456   9.211  -1.085   1.602  0.3444  1.5163  0.8341
  663MOL0     H91457   9.034  -1.186   1.707  1.6533 -0.8519  2.1225
  663MOL0     H91458   8.770  -1.179   1.705 -0.2160  0.7637 -0.8698
  663MOL0     H91459   8.826  -1.247   1.869  0.8257  0.9107 -0.6923
  663MOL0     H91460   8.648  -1.135   1.972  0.1162 -2.1820  0.8790
  663MOL0     H91461   8.575  -1.086   1.828  1.4033  1.5585  0.7237
  663MOL0     H91462   8.636  -1.391   1.893 -0.2857 -0.7592  0.4058
  663MOL0     H91463   8.565  -1.330   1.749  0.4650 -0.2826  0.2413
  663MOL0     H91464   8.458  -1.326   2.029  0.7025  0.2859  0.0054
  663MOL0     H91465   8.421  -1.436   1.888  0.7113 -1.1873  1.7960
  663MOL0     H91466   8.386  -1.124   1.889 -1.5762  1.0856  0.2849
  663MOL0     H91467   8.311  -1.250   1.776  1.1838 -2.3493  0.1241
  663MOL0     H91468   8.258  -1.185   2.067 -2.0592  1.7757 -0.3559
  663MOL0     H91469   8.202  -1.336   1.983  0.1400 -0.6810 -2.0276
  663MOL0     H91470   8.034  -1.131   2.014  0.0747 -0.8216  0.9104
  663MOL0     H91471   8.045  -1.213   1.851  3.3739 -0.2567 -1.7056
  663MOL0     H91472   8.172  -1.016   1.774  1.6731  2.4265  1.6463
  663MOL0     H91473   8.204  -0.973   1.939 -1.1840 -0.1366  1.0219
  663MOL0     H91474   8.913  -0.798   1.875 -0.8444  0.7274 -1.3905
  663MOL0     H91475   9.085  -0.694   1.751 -3.8545 -0.4159  1.8454
  663MOL0     H91476   9.596  -0.670   1.763  0.2916 -2.3207 -0.3243
  663MOL0     H91477   9.752  -0.533   1.691 -0.5087 -3.0940 -0.5534
  663MOL0     H91478  10.051   0.831   1.006  3.7526 -2.3266 -0.0662
  663MOL0     H91479   9.915   0.841   0.788 -0.9282 -0.7260  0.4024
  663MOL0     H91480   9.931   1.231   0.396  0.6916  0.0550 -0.1693
  663MOL0     H91481   9.822   1.276   0.178  0.5519 -0.9881 -0.6457
  663MOL0     H91482   9.552   1.075  -0.093  1.9729  0.4872  0.5634
  663MOL0     H91483   9.524   1.009   0.071  0.7998 -2.7170 -2.6790
  663MOL0     H91484   9.455   1.214   0.157  0.4428  2.4187  0.0913
  663MOL0     H91485   9.364   1.183   0.007 -0.9785 -0.4271  1.4062
  663MOL0     H91486   9.618   1.346   0.061 -0.1388  1.9773 -0.7214
  663MOL0     H91487   9.566   1.321  -0.105  1.3611  1.3013  0.0699
  663MOL0     H91488   9.341   1.439   0.050  0.0611  1.0436  1.5008
  663MOL0     H91489   9.417   1.515  -0.086 -0.9245 -0.9228  0.3829
  663MOL0     H91490   9.634   1.702   0.225  0.4938 -0.5601  0.0773
  663MOL0     H91491   9.691   0.877   0.152 -2.2602  0.1307  1.6454
  663MOL0     H91492   9.885   0.735   0.394 -0.0871 -1.4416  0.3785
  663MOL0     H91493   9.742   0.792   0.487  1.5456  0.1870  1.4261
  663MOL0     H91494   9.711   0.732   0.327  1.4709 -0.4649 -0.4710
  664MOL0     O91495   1.373   6.830   9.749 -0.7319  0.3793 -0.4160
  664MOL0     C91496   1.391   6.707   9.758 -0.8460 -0.4696  0.5245
  664MOL0     O91497   1.494   6.644   9.695  0.2948 -0.6519 -0.4848
  664MOL0     C91498   1.597   6.730   9.651  0.4548  0.6627 -0.0926
  664MOL0     C91499   1.638   6.728   9.516 -0.0520  0.3664  0.2458
  664MOL0     C91500   1.755   6.810   9.482  0.6528 -0.1951 -0.2860
  664MOL0     C91501   1.834   6.877   9.577  0.8024  0.2571  0.2747
  664MOL0     O91502   1.940   6.955   9.539 -0.0298 -0.1605 -0.3214
  664MOL0     C91503   2.058   6.881   9.496  0.2846  0.0920  0.2976
  664MOL0     C91504   2.172   6.926   9.582 -0.2365  0.3850 -0.0192
  664MOL0     C91505   2.304   6.873   9.524 -0.2260  0.3601  0.1852
  664MOL0     C91506   2.327   6.735   9.575  0.4994 -0.2820 -0.5296
  664MOL0     C91507   2.458   6.683   9.515 -0.5859 -0.0816 -0.1059
  664MOL0     C91508   2.588   6.727   9.589 -0.7126 -0.0137 -0.1991
  664MOL0     C91509   2.709   6.674   9.523 -1.0033  0.2697 -0.4092
  664MOL0     C91510   2.834   6.664   9.604  0.0837 -0.2126 -1.0875
  664MOL0     N91511   2.953   6.614   9.533  0.2949 -0.1355 -0.1477
  664MOL0     C91512   2.965   6.504   9.452  1.0513 -0.4281  0.5595
  664MOL0     C91513   3.100   6.507   9.420  0.0985 -1.0208 -0.1478
  664MOL0     C91514   3.143   6.415   9.304  0.8020 -0.5805 -0.6409
  664MOL0     C91515   3.295   6.410   9.285 -0.4166 -0.2720 -0.0069
  664MOL0     C91516   3.338   6.313   9.171  0.1075 -0.4840  0.9287
  664MOL0     C91517   3.487   6.300   9.143 -0.0006  0.3913  0.1722
  664MOL0     O91518   3.555   6.414   9.081 -0.5534 -0.5456 -0.0890
  664MOL0     C91519   3.686   6.433   9.114 -0.6852 -0.2761 -0.4383
  664MOL0     C91520   3.722   6.549   9.188  0.1064  0.2796 -0.0136
  664MOL0     C91521   3.851   6.577   9.226  0.8211  0.0847 -0.4487
  664MOL0     C91522   3.883   6.712   9.285 -0.2080 -1.0062 -0.1951
  664MOL0     C91523   3.951   6.470   9.205  0.3903  0.0508 -0.6477
  664MOL0     C91524   4.090   6.484   9.247  0.3557  0.7607 -0.4798
  664MOL0     O91525   4.144   6.363   9.293 -0.5358 -0.5391  0.8703
  664MOL0     C91526   4.279   6.363   9.318 -0.9517 -0.5402  0.1686
  664MOL0     C91527   4.344   6.460   9.389  0.8649 -0.1068 -0.3831
  664MOL0     C91528   4.477   6.449   9.414  0.7336 -0.2745 -0.2388
  664MOL0     C91529   4.565   6.361   9.354  0.6109 -0.1234 -0.2480
  664MOL0     O91530   4.696   6.373   9.377 -0.4329  0.0287  0.6335
  664MOL0     C91531   4.783   6.260   9.357  0.2301 -0.4133 -0.1564
  664MOL0     C91532   4.857   6.271   9.227  0.2008 -0.0435  0.4932
  664MOL0     C91533   4.941   6.141   9.207 -0.0928 -0.6271 -0.7766
  664MOL0     C91534   4.955   6.109   9.060  0.6363  0.6089 -0.3668
  664MOL0     C91535   5.031   5.971   9.041 -0.6543 -0.5082  0.8336
  664MOL0     C91536   5.063   5.935   8.899 -0.0787  0.1328  0.1714
  664MOL0     C91537   5.152   5.807   8.894  0.6284 -0.1736 -0.2287
  664MOL0     C91538   5.162   5.754   8.743  0.6917 -0.1362 -0.7485
  664MOL0    Cl91539   5.231   5.593   8.730  0.3352 -0.1755  0.3613
  664MOL0     C91540   4.499   6.269   9.272  0.6179  1.0148  0.5813
  664MOL0     C91541   4.360   6.258   9.264  0.0666  0.4232  0.0754
  664MOL0     O91542   4.152   6.582   9.208  0.2015 -0.1368 -0.2920
  664MOL0     C91543   3.919   6.361   9.129 -0.6997  1.0851  0.1832
  664MOL0     C91544   3.788   6.340   9.084 -0.1292 -0.3233 -0.3735
  664MOL0     N91545   3.159   6.617   9.476  0.4736  0.4235 -0.1207
  664MOL0     N91546   3.069   6.679   9.539  1.0553  0.3027 -0.4555
  664MOL0     C91547   1.789   6.891   9.703 -0.3336 -0.3092  0.4611
  664MOL0     C91548   1.674   6.813   9.740  0.1217 -0.1609 -0.1288
  664MOL0     C91549   1.284   6.629   9.837  0.8224  0.5951  0.3889
  664MOL0     C91550   1.303   6.493   9.875 -0.1401  0.0020 -1.4329
  664MOL0     C91551   1.206   6.420   9.957  0.4439  0.4526  0.4283
  664MOL0     C91552   1.090   6.487   9.996 -0.6462 -0.6581 -0.7063
  664MOL0     O91553   1.006   6.424  10.082  0.4533  0.5604 -0.8811
  664MOL0     C91554   0.892   6.370  10.011 -0.0685 -0.7683 -0.3613
  664MOL0     C91555   0.766   6.440  10.051  0.9631 -0.4783  1.0553
  664MOL0     C91556   0.722   6.418  10.193 -0.6386  0.2912  0.6863
  664MOL0     C91557   0.580   6.459  10.229 -0.5934 -0.4574  0.9318
  664MOL0     C91558   0.557   6.592  10.175  0.7306 -0.4744  0.4805
  664MOL0     C91559   0.522   6.697  10.124 -0.2039  0.0072 -0.3632
  664MOL0     C91560   1.073   6.626   9.964  0.7227  0.3423  0.7714
  664MOL0     C91561   1.157   6.693   9.888 -0.3785 -0.3531 -0.4525
  664MOL0     C91562   1.115   6.833   9.843  0.7986 -0.3048 -0.5794
  664MOL0     H91563   1.587   6.660   9.449 -0.2485  1.0829 -0.3392
  664MOL0     H91564   1.785   6.823   9.379  0.4442 -0.5232 -0.3903
  664MOL0     H91565   2.076   6.914   9.394 -0.8140 -1.3508 -0.4015
  664MOL0     H91566   2.050   6.772   9.491 -3.0404  0.1626  1.5251
  664MOL0     H91567   2.178   7.035   9.587  2.4690  0.3634 -1.1601
  664MOL0     H91568   2.171   6.902   9.689  0.4500  1.9055  0.3473
  664MOL0     H91569   2.297   6.872   9.415  1.7682 -0.3168  0.0317
  664MOL0     H91570   2.386   6.937   9.558 -0.6982  0.5359  1.0241
  664MOL0     H91571   2.331   6.731   9.684  3.9800  3.0613 -0.2918
  664MOL0     H91572   2.253   6.665   9.535  0.1307 -0.5136  0.5500
  664MOL0     H91573   2.466   6.712   9.410 -1.4201 -2.3144 -0.8427
  664MOL0     H91574   2.453   6.573   9.513  0.7657 -0.1515 -0.5785
  664MOL0     H91575   2.596   6.835   9.604 -2.7216  0.4485 -1.9502
  664MOL0     H91576   2.583   6.688   9.691  1.8849  0.8507  0.3285
  664MOL0     H91577   2.729   6.736   9.435 -0.8812  2.4223  1.0523
  664MOL0     H91578   2.697   6.570   9.491 -0.4071  0.3653 -0.9610
  664MOL0     H91579   2.856   6.765   9.638 -0.9485 -0.4609  0.4111
  664MOL0     H91580   2.816   6.608   9.696  0.3882 -2.4369 -2.2963
  664MOL0     H91581   2.894   6.435   9.407  0.6219 -1.4232  2.6667
  664MOL0     H91582   3.097   6.453   9.213  2.1638  3.9748  0.3232
  664MOL0     H91583   3.112   6.314   9.332 -0.4752  0.1597  0.7902
  664MOL0     H91584   3.334   6.510   9.259 -1.2098 -0.8528 -4.1529
  664MOL0     H91585   3.335   6.375   9.380  0.3092 -1.3223 -0.6717
  664MOL0     H91586   3.301   6.212   9.187 -2.0046 -0.2527 -1.8150
  664MOL0     H91587   3.293   6.339   9.075 -1.5284  1.9745  2.2474
  664MOL0     H91588   3.536   6.271   9.236 -0.8410 -1.4482  0.0895
  664MOL0     H91589   3.506   6.217   9.073  0.7319  0.6387  0.0699
  664MOL0     H91590   3.639   6.618   9.200  1.7708  2.3722  0.1002
  664MOL0     H91591   3.983   6.743   9.251  0.4836 -0.9727  1.7457
  664MOL0     H91592   3.883   6.718   9.394 -0.0795  3.5306 -0.2425
  664MOL0     H91593   3.804   6.786   9.272  0.2925 -0.3550  0.3616
  664MOL0     H91594   4.276   6.532   9.433 -1.3276 -1.4569 -1.3514
  664MOL0     H91595   4.523   6.514   9.488 -0.1655  0.3961 -0.2588
  664MOL0     H91596   4.857   6.260   9.438 -0.4865  2.7911  0.6107
  664MOL0     H91597   4.725   6.167   9.363  1.6157 -1.3464 -0.6085
  664MOL0     H91598   4.781   6.281   9.148  0.5742  0.6769  0.2183
  664MOL0     H91599   4.922   6.358   9.220  0.1462 -0.1123 -1.4941
  664MOL0     H91600   4.888   6.059   9.255  1.8574 -1.7880 -0.4838
  664MOL0     H91601   5.036   6.144   9.262 -0.2716  3.2111 -0.4161
  664MOL0     H91602   5.009   6.186   9.004  0.1851  0.3518 -1.1735
  664MOL0     H91603   4.855   6.106   9.015  0.5312 -0.0780 -0.0939
  664MOL0     H91604   5.127   5.963   9.092 -1.0942 -0.4591  1.6797
  664MOL0     H91605   4.967   5.892   9.080 -1.4065  0.0752  0.7925
  664MOL0     H91606   5.099   6.023   8.845  0.7546  0.7350  1.6505
  664MOL0     H91607   4.962   5.911   8.863  0.2892 -0.7576 -0.3013
  664MOL0     H91608   5.122   5.717   8.948  0.8456 -0.0062  0.1880
  664MOL0     H91609   5.253   5.829   8.932  1.8003  0.5767 -3.4918
  664MOL0     H91610   5.227   5.826   8.693 -1.5815  2.6417  0.0670
  664MOL0     H91611   5.064   5.747   8.694  0.8278  1.0500 -1.2079
  664MOL0     H91612   4.541   6.193   9.206 -3.1042  2.2954 -3.7279
  664MOL0     H91613   4.319   6.164   9.228  1.4484 -1.3472  2.7253
  664MOL0     H91614   3.998   6.295   9.093  0.7386  3.7860 -1.9619
  664MOL0     H91615   3.770   6.258   9.015  1.5525 -3.0380  2.2066
  664MOL0     H91616   1.830   6.955   9.780 -1.6995  0.2522  0.7600
  664MOL0     H91617   1.625   6.830   9.835 -3.2971  4.1563 -2.3038
  664MOL0     H91618   1.397   6.459   9.832 -0.6855  0.4256 -3.0305
  664MOL0     H91619   1.215   6.316   9.988 -1.9899  0.0823  0.0556
  664MOL0     H91620   0.901   6.387   9.903  0.3280 -0.9086 -0.3506
  664MOL0     H91621   0.875   6.263  10.026  2.3241 -0.9144  2.0399
  664MOL0     H91622   0.696   6.408   9.973  1.9233 -1.4018  0.5396
  664MOL0     H91623   0.789   6.546  10.037  0.4269 -0.3960  0.7698
  664MOL0     H91624   0.738   6.315  10.228  0.3859  1.7628  5.2083
  664MOL0     H91625   0.794   6.469  10.259 -0.4684  1.6931 -0.5418
  664MOL0     H91626   0.571   6.469  10.338  0.4933 -1.1351  1.1017
  664MOL0     H91627   0.503   6.388  10.197 -0.1683 -1.0225  1.1551
  664MOL0     H91628   0.500   6.793  10.082 -2.3871 -0.3209 -0.0984
  664MOL0     H91629   0.979   6.670   9.995 -0.0178 -2.1218  2.3386
  664MOL0     H91630   1.132   6.829   9.735 -0.2556 -0.1604 -0.7602
  664MOL0     H91631   1.012   6.860   9.867  1.4942  1.0245  1.1597
  664MOL0     H91632   1.178   6.905   9.896 -0.4548  0.2150  0.2634
  665MOL0     O91633   1.147   0.144   6.812  0.2541 -0.0683 -1.4633
  665MOL0     C91634   1.082   0.048   6.776 -0.0003 -0.1463 -0.5249
  665MOL0     O91635   1.118  -0.056   6.695 -0.8345  0.8488 -0.2959
  665MOL0     C91636   1.219  -0.024   6.604  0.0772  0.2243  1.0458
  665MOL0     C91637   1.175  -0.037   6.466 -0.3214 -0.6398  0.4640
  665MOL0     C91638   1.274  -0.028   6.371 -0.5924  0.4671  0.7062
  665MOL0     C91639   1.406  -0.018   6.397  0.5029 -0.3876 -0.8811
  665MOL0     O91640   1.508  -0.000   6.310 -0.8370 -0.0592 -0.1717
  665MOL0     C91641   1.515   0.116   6.223  0.3672 -0.0488 -0.0746
  665MOL0     C91642   1.644   0.107   6.134 -0.2860 -0.3842 -0.5403
  665MOL0     C91643   1.661  -0.037   6.077 -0.3687 -0.3223  0.2700
  665MOL0     C91644   1.541  -0.075   6.000  0.4476 -0.1241 -0.5042
  665MOL0     C91645   1.568  -0.214   5.933  0.1299 -0.2663 -0.7943
  665MOL0     C91646   1.594  -0.330   6.035 -0.6179 -0.3200  1.1751
  665MOL0     C91647   1.598  -0.468   5.962  0.5806  0.5382 -0.2524
  665MOL0     C91648   1.664  -0.460   5.827  0.3087  0.0087  0.9857
  665MOL0     N91649   1.686  -0.599   5.774  0.1316 -0.6627  0.1437
  665MOL0     C91650   1.799  -0.669   5.813  0.3173  0.4726  0.4982
  665MOL0     C91651   1.772  -0.794   5.758 -0.0818  0.9345  0.4399
  665MOL0     C91652   1.860  -0.917   5.767 -0.4725  1.0276  0.2339
  665MOL0     C91653   1.955  -0.914   5.656 -0.8600 -0.0316  0.5699
  665MOL0     C91654   2.007  -1.046   5.624  0.3762  0.4114 -0.0997
  665MOL0     C91655   2.133  -1.093   5.696  0.7734 -1.0569 -0.6984
  665MOL0     O91656   2.243  -1.005   5.684  1.3656 -0.6100 -0.8303
  665MOL0     C91657   2.363  -1.033   5.745  0.3148 -0.1726 -0.4648
  665MOL0     C91658   2.377  -1.123   5.852  0.4275  0.3179  0.1975
  665MOL0     C91659   2.507  -1.140   5.912 -1.0521  0.4885 -0.3431
  665MOL0     C91660   2.510  -1.221   6.036  0.0868  1.3035 -0.0467
  665MOL0     C91661   2.624  -1.087   5.858 -0.5359 -0.0069  0.1809
  665MOL0     C91662   2.767  -1.090   5.907  0.0475  0.8599 -0.0944
  665MOL0     O91663   2.845  -0.984   5.872  1.0126  0.1356 -0.5042
  665MOL0     C91664   2.979  -0.963   5.911  0.3616 -0.0999 -0.2588
  665MOL0     C91665   3.011  -0.974   6.045 -0.9217 -0.2227 -0.4337
  665MOL0     C91666   3.150  -0.945   6.079  0.7149 -0.2936 -0.6341
  665MOL0     C91667   3.250  -0.918   5.979 -0.0177  0.3885  0.7751
  665MOL0     O91668   3.382  -0.895   5.991  0.2078 -0.1181  0.0139
  665MOL0     C91669   3.441  -0.910   6.123  0.9017  0.2002  0.3092
  665MOL0     C91670   3.447  -0.779   6.202  0.1456 -0.3047 -0.4669
  665MOL0     C91671   3.468  -0.665   6.101  0.3034  0.5466  1.6629
  665MOL0     C91672   3.602  -0.661   6.019 -0.5327 -0.0847 -0.1307
  665MOL0     C91673   3.608  -0.547   5.924 -0.5966  0.7529 -0.1473
  665MOL0     C91674   3.737  -0.567   5.841 -0.1594 -0.2842  0.7136
  665MOL0     C91675   3.742  -0.684   5.748 -0.5693  0.4080 -0.5197
  665MOL0     C91676   3.813  -0.655   5.618 -0.0545 -0.2520 -0.3457
  665MOL0    Cl91677   3.744  -0.521   5.519  0.0657  0.8566  0.2587
  665MOL0     C91678   3.204  -0.928   5.842  0.5187  0.0258 -0.2451
  665MOL0     C91679   3.077  -0.951   5.808 -0.5660 -0.2328 -0.5691
  665MOL0     O91680   2.810  -1.187   5.968 -0.0083 -0.5262  0.1834
  665MOL0     C91681   2.603  -1.008   5.743  0.5543  0.5046  0.3963
  665MOL0     C91682   2.472  -0.979   5.683 -0.7544 -0.1277 -0.6441
  665MOL0     N91683   1.652  -0.790   5.699  1.7612 -0.2147 -0.2563
  665MOL0     N91684   1.600  -0.677   5.703  0.3580  0.1439 -0.4852
  665MOL0     C91685   1.445  -0.022   6.533 -0.8470 -0.0027 -1.2254
  665MOL0     C91686   1.352  -0.037   6.638  0.3967 -0.1566 -0.5041
  665MOL0     C91687   0.950   0.061   6.827  0.1058 -0.3746 -0.2252
  665MOL0     C91688   0.939   0.038   6.970  0.7786  0.3604  0.3814
  665MOL0     C91689   0.814   0.044   7.036 -0.9451 -1.1478  0.4229
  665MOL0     C91690   0.700   0.064   6.966  0.2586  0.1764  0.7203
  665MOL0     O91691   0.587   0.041   7.035 -0.1338  0.0630  0.4944
  665MOL0     C91692   0.526  -0.083   7.001  0.3205 -0.0811  0.0138
  665MOL0     C91693   0.398  -0.064   6.917  0.6359 -0.2309  0.5040
  665MOL0     C91694   0.323  -0.193   6.892  0.1726 -0.3522 -0.2008
  665MOL0     C91695   0.366  -0.274   6.761  0.2450  0.0817  1.2312
  665MOL0     C91696   0.266  -0.378   6.724 -0.2894  1.1465  0.4979
  665MOL0     C91697   0.170  -0.453   6.691 -0.5325 -0.2264 -0.0818
  665MOL0     C91698   0.709   0.094   6.825  0.7631 -0.4518  0.1617
  665MOL0     C91699   0.831   0.105   6.761 -0.0762 -0.2425 -1.0491
  665MOL0     C91700   0.839   0.167   6.621  0.2298  0.2633 -0.4163
  665MOL0     H91701   1.069  -0.055   6.449 -1.2400  2.2183  2.3195
  665MOL0     H91702   1.246  -0.046   6.267 -1.9473  2.8041  0.5866
  665MOL0     H91703   1.520   0.202   6.290  0.5094 -1.0553  1.2439
  665MOL0     H91704   1.424   0.128   6.163  0.8258 -1.1368 -1.0349
  665MOL0     H91705   1.641   0.178   6.051  0.8570  1.3333  0.8133
  665MOL0     H91706   1.736   0.120   6.192  0.9747 -0.2513 -2.4775
  665MOL0     H91707   1.745  -0.035   6.007 -1.3499  0.2069 -0.9218
  665MOL0     H91708   1.695  -0.098   6.161  1.4106  2.0661  1.3955
  665MOL0     H91709   1.455  -0.083   6.067 -0.1216 -0.0113 -1.2081
  665MOL0     H91710   1.501  -0.010   5.921 -2.5557 -0.8961  0.2406
  665MOL0     H91711   1.654  -0.205   5.866  0.8534  3.0258  0.3685
  665MOL0     H91712   1.472  -0.231   5.882  0.2236 -0.5553 -0.8739
  665MOL0     H91713   1.692  -0.317   6.081 -0.2561  1.0325  0.0636
  665MOL0     H91714   1.516  -0.329   6.112 -1.3991 -1.5427  0.4494
  665MOL0     H91715   1.495  -0.501   5.947  1.0494 -0.2618 -1.9311
  665MOL0     H91716   1.641  -0.543   6.029 -1.8234  0.4573  1.3442
  665MOL0     H91717   1.604  -0.405   5.754  0.6421 -2.2209 -1.1089
  665MOL0     H91718   1.765  -0.418   5.827  0.8811 -1.2085  2.9954
  665MOL0     H91719   1.882  -0.643   5.877 -0.9378  0.7334  2.0650
  665MOL0     H91720   1.802  -1.010   5.770  2.4811 -0.9182  0.7075
  665MOL0     H91721   1.914  -0.924   5.862  1.3584  0.0691 -0.8259
  665MOL0     H91722   1.903  -0.882   5.565  2.7040  0.4727 -1.4838
  665MOL0     H91723   2.032  -0.837   5.663 -0.6625 -0.2639  0.9526
  665MOL0     H91724   1.933  -1.126   5.638  0.0255  0.7567  0.0305
  665MOL0     H91725   2.042  -1.051   5.521  0.5993 -0.1715 -0.0001
  665MOL0     H91726   2.112  -1.097   5.803  1.6238  3.5153 -0.1341
  665MOL0     H91727   2.170  -1.186   5.653  2.4002 -0.6011 -0.3736
  665MOL0     H91728   2.293  -1.183   5.886 -0.2621 -0.7014 -2.9230
  665MOL0     H91729   2.553  -1.164   6.119  1.2169 -0.3779  0.5895
  665MOL0     H91730   2.575  -1.308   6.024  1.0241  1.6425  2.1216
  665MOL0     H91731   2.406  -1.240   6.064 -0.2746  2.0053 -0.8624
  665MOL0     H91732   2.930  -0.983   6.116 -0.4226  1.7652  0.4393
  665MOL0     H91733   3.177  -0.937   6.184 -0.8162  6.0438 -0.3085
  665MOL0     H91734   3.409  -0.996   6.182 -0.6884 -0.2909 -1.1834
  665MOL0     H91735   3.545  -0.931   6.095 -0.1685 -3.4179 -1.5457
  665MOL0     H91736   3.352  -0.754   6.249 -0.8137  0.1533 -2.5448
  665MOL0     H91737   3.530  -0.786   6.273  0.2881  1.1150 -0.4535
  665MOL0     H91738   3.458  -0.572   6.158 -1.3651  0.5219  1.4672
  665MOL0     H91739   3.386  -0.659   6.028  0.7965  0.0440  1.0577
  665MOL0     H91740   3.581  -0.750   5.958 -2.2038 -2.1736  3.1881
  665MOL0     H91741   3.697  -0.672   6.073 -0.1090 -0.7333 -0.9784
  665MOL0     H91742   3.517  -0.547   5.864 -0.6656  0.1660 -0.0459
  665MOL0     H91743   3.616  -0.452   5.977 -0.7685  1.0179 -0.5856
  665MOL0     H91744   3.823  -0.568   5.909 -0.3394  0.5879  0.9561
  665MOL0     H91745   3.760  -0.474   5.788  3.3663  0.3091  2.9223
  665MOL0     H91746   3.637  -0.713   5.736 -0.7428 -0.9686  3.0212
  665MOL0     H91747   3.787  -0.763   5.808 -2.2898 -0.1155  0.1499
  665MOL0     H91748   3.818  -0.744   5.555 -0.4311  0.1641 -0.9681
  665MOL0     H91749   3.917  -0.625   5.633  0.2705  0.0154 -2.7696
  665MOL0     H91750   3.268  -0.903   5.758  2.1078 -2.3729  0.1622
  665MOL0     H91751   3.044  -0.926   5.708 -1.6971  5.1476  0.8687
  665MOL0     H91752   2.687  -0.965   5.689 -0.4582  2.0012 -0.0375
  665MOL0     H91753   2.487  -0.913   5.598  3.1292 -1.3529 -1.1262
  665MOL0     H91754   1.551  -0.016   6.554 -0.7718 -1.8018 -0.9113
  665MOL0     H91755   1.392  -0.048   6.738  1.5769  1.3571 -0.7668
  665MOL0     H91756   1.022   0.014   7.036  2.0050  0.7084 -0.9787
  665MOL0     H91757   0.802   0.007   7.137 -0.8661 -2.1323  0.0797
  665MOL0     H91758   0.599  -0.150   6.955  1.2520  0.8990  0.0154
  665MOL0     H91759   0.503  -0.141   7.091  0.1626 -1.1391 -0.6871
  665MOL0     H91760   0.434  -0.015   6.826 -1.0982 -0.2546 -0.2233
  665MOL0     H91761   0.330   0.004   6.969 -0.0612 -1.5209  1.3205
  665MOL0     H91762   0.318  -0.262   6.977  1.1343 -1.8718 -1.3122
  665MOL0     H91763   0.218  -0.166   6.875  0.6622  0.0098 -3.2285
  665MOL0     H91764   0.467  -0.315   6.776 -0.5621 -1.9821  1.4088
  665MOL0     H91765   0.376  -0.210   6.673  3.4430 -0.2511  1.2192
  665MOL0     H91766   0.089  -0.509   6.650 -0.9539  0.3394 -0.0397
  665MOL0     H91767   0.610   0.114   6.786  0.8898  1.1076  0.5400
  665MOL0     H91768   0.823   0.095   6.541  2.2382 -1.5477  0.6979
  665MOL0     H91769   0.771   0.253   6.616  2.2017  1.8879 -0.8967
  665MOL0     H91770   0.941   0.203   6.602  0.7934 -0.0189  1.8134
  666MOL0     O91771  10.361  10.089  10.848  0.3148 -0.6320  0.2149
  666MOL0     C91772  10.368  10.005  10.934 -1.1100  0.0625 -0.9805
  666MOL0     O91773  10.268   9.915  10.975 -0.5566  0.7474  0.6632
  666MOL0     C91774  10.166   9.879  10.891  0.7134  0.1497  0.3870
  666MOL0     C91775  10.038   9.869  10.934 -0.4003 -0.1115  0.2668
  666MOL0     C91776   9.926   9.842  10.847 -0.4012  0.2491  0.7660
  666MOL0     C91777   9.953   9.833  10.708  0.3957 -1.0446  0.1114
  666MOL0     O91778   9.862   9.811  10.610  0.3376  0.6577  0.6541
  666MOL0     C91779   9.724   9.803  10.650  0.2778 -0.0747  0.5093
  666MOL0     C91780   9.646   9.778  10.517 -0.2163  0.4450  0.0825
  666MOL0     C91781   9.503   9.745  10.543 -0.2253 -0.6251 -0.2788
  666MOL0     C91782   9.413   9.876  10.527 -0.1796 -0.3756 -0.1141
  666MOL0     C91783   9.270   9.842  10.556  0.4677  0.0722  0.1609
  666MOL0     C91784   9.178   9.960  10.521  0.6599  0.2021 -0.7417
  666MOL0     C91785   9.026   9.913  10.510 -0.3689 -0.6576 -0.0175
  666MOL0     C91786   8.974   9.846  10.635  0.6158  0.7662  0.0945
  666MOL0     N91787   8.837   9.803  10.622  0.3365  0.5076 -0.2904
  666MOL0     C91788   8.735   9.851  10.704  0.6227 -0.0827  0.1446
  666MOL0     C91789   8.629   9.775  10.669 -0.1424 -0.1756  0.2398
  666MOL0     C91790   8.503   9.792  10.746  0.3295  0.3160 -0.7213
  666MOL0     C91791   8.375   9.756  10.670 -0.7140 -0.6376  0.0705
  666MOL0     C91792   8.366   9.841  10.539 -0.2627 -0.0462 -0.1477
  666MOL0     C91793   8.227   9.829  10.496  0.8363 -0.5313 -0.1862
  666MOL0     O91794   8.179   9.698  10.488  0.4743  0.3609  0.2423
  666MOL0     C91795   8.058   9.683  10.423 -0.1669 -0.5659 -0.0291
  666MOL0     C91796   8.013   9.553  10.408  0.6646  0.3937  0.7236
  666MOL0     C91797   7.903   9.512  10.330  0.1777 -0.7804  1.0891
  666MOL0     C91798   7.882   9.363  10.325 -0.3418 -0.4760 -0.0937
  666MOL0     C91799   7.823   9.616  10.268  0.4767  0.2072 -0.2492
  666MOL0     C91800   7.699   9.588  10.190 -0.5100 -0.5331  0.9885
  666MOL0     O91801   7.660   9.694  10.112  0.2099  0.6368 -0.4044
  666MOL0     C91802   7.535   9.690  10.050 -0.0789  0.3633  0.7068
  666MOL0     C91803   7.463   9.810  10.045  0.3922  0.4623  0.0918
  666MOL0     C91804   7.346   9.808   9.972 -0.1979  0.5918  0.8124
  666MOL0     C91805   7.292   9.695   9.924  0.4393  0.6638  0.9412
  666MOL0     O91806   7.173   9.703   9.855 -0.0318  0.2287 -0.1132
  666MOL0     C91807   7.105   9.589   9.805 -0.2322 -0.4568  0.2383
  666MOL0     C91808   6.956   9.603   9.748 -1.2644  0.0661 -0.8444
  666MOL0     C91809   6.873   9.697   9.827  0.1947  0.1989 -0.5629
  666MOL0     C91810   6.856   9.660   9.977 -0.4698 -0.3174 -0.2320
  666MOL0     C91811   6.741   9.751  10.034  0.0210 -0.1449  0.3855
  666MOL0     C91812   6.717   9.726  10.178 -0.2277 -0.2665 -0.3383
  666MOL0     C91813   6.644   9.835  10.247 -0.6975  0.2176 -0.3213
  666MOL0     C91814   6.612   9.787  10.391 -1.0874  0.1136 -0.1148
  666MOL0    Cl91815   6.738   9.838  10.502 -0.0902 -0.2482 -0.1030
  666MOL0     C91816   7.364   9.575   9.918  0.0928 -1.2510  0.5020
  666MOL0     C91817   7.490   9.576   9.983  0.0437 -0.4585 -0.1171
  666MOL0     O91818   7.662   9.472  10.178  0.1153  0.2699  0.1778
  666MOL0     C91819   7.863   9.752  10.289  0.1441  0.0316  0.5974
  666MOL0     C91820   7.981   9.786  10.357  0.0644  0.3225 -0.1746
  666MOL0     N91821   8.664   9.694  10.565  0.3283  0.1244 -0.3764
  666MOL0     N91822   8.786   9.703  10.547  0.3603 -0.0653  0.4001
  666MOL0     C91823  10.085   9.840  10.664  0.2734  0.2323  0.1228
  666MOL0     C91824  10.187   9.855  10.752 -0.4651 -0.0284  0.0952
  666MOL0     C91825  10.500   9.992  11.001  0.1803  0.0169  0.2688
  666MOL0     C91826  10.577  10.106  11.030 -0.2734  0.6886  0.0326
  666MOL0     C91827  10.710  10.094  11.074  0.3638 -0.8625  0.5951
  666MOL0     C91828  10.771   9.975  11.095 -0.3354 -0.5467  0.6626
  666MOL0     O91829  10.896   9.970  11.128 -0.3713  0.4839  0.0642
  666MOL0     C91830  10.991  10.085  11.133  0.6089 -0.0015  0.2760
  666MOL0     C91831  11.114  10.034  11.205  0.2761 -0.3147 -0.6387
  666MOL0     C91832  11.080   9.974  11.346 -0.8352 -0.6770  0.0907
  666MOL0     C91833  11.220   9.954  11.407  0.5262 -0.2590  0.2547
  666MOL0     C91834  11.209   9.944  11.553 -0.9257 -0.3287  0.0506
  666MOL0     C91835  11.223   9.944  11.674  0.3423  0.5059 -0.0503
  666MOL0     C91836  10.692   9.859  11.081 -0.7579  1.3913  0.2659
  666MOL0     C91837  10.562   9.863  11.024  0.4990  0.0278 -0.8468
  666MOL0     C91838  10.491   9.737  10.990  0.5624 -0.3011  0.5597
  666MOL0     H91839  10.034   9.875  11.043  2.6297  0.4969  0.4481
  666MOL0     H91840   9.826   9.840  10.889  0.1296  1.1940  2.1463
  666MOL0     H91841   9.705   9.897  10.702  1.7408 -1.7191  4.3623
  666MOL0     H91842   9.707   9.726  10.726  1.3756 -2.1347 -1.2227
  666MOL0     H91843   9.659   9.862  10.449  3.0885 -0.4932 -0.6139
  666MOL0     H91844   9.700   9.692  10.475 -0.2014 -1.1239  3.0174
  666MOL0     H91845   9.480   9.675  10.463  1.2142  1.6368 -2.8265
  666MOL0     H91846   9.490   9.696  10.640  1.0909 -0.4353  0.0063
  666MOL0     H91847   9.445   9.954  10.596  2.8411 -1.4714 -0.1588
  666MOL0     H91848   9.429   9.905  10.423 -2.7073  0.0407 -0.4611
  666MOL0     H91849   9.256   9.794  10.653  2.8649 -0.5686  0.2525
  666MOL0     H91850   9.240   9.772  10.477 -2.1668 -0.4674  1.5012
  666MOL0     H91851   9.194  10.037  10.598 -1.2051 -2.1802  2.2410
  666MOL0     H91852   9.198   9.996  10.419 -1.0875  0.6855 -0.9343
  666MOL0     H91853   9.017   9.848  10.423  1.0724  1.6322 -2.0167
  666MOL0     H91854   8.961   9.998  10.488  0.2994 -0.2813 -0.5886
  666MOL0     H91855   9.034   9.760  10.667  0.2068  0.5767  0.3564
  666MOL0     H91856   8.975   9.925  10.711 -1.7433  0.8773  0.0524
  666MOL0     H91857   8.729   9.915  10.791 -2.0135  0.3892 -0.2988
  666MOL0     H91858   8.486   9.896  10.774  1.2373  0.4020 -0.4577
  666MOL0     H91859   8.513   9.733  10.837 -0.0635 -2.1487 -2.1882
  666MOL0     H91860   8.368   9.651  10.638  2.1607 -0.2843 -2.1361
  666MOL0     H91861   8.299   9.785  10.743  0.3745  1.1818  0.5491
  666MOL0     H91862   8.404   9.942  10.557  0.8838 -0.1909 -1.5833
  666MOL0     H91863   8.435   9.811  10.460 -1.4142 -0.0925 -1.1713
  666MOL0     H91864   8.169   9.887  10.568 -0.5265 -1.6160 -0.3748
  666MOL0     H91865   8.219   9.862  10.392 -0.0900  0.8027  0.2814
  666MOL0     H91866   8.080   9.478  10.449  0.2273 -0.4316 -0.0287
  666MOL0     H91867   7.859   9.331  10.223 -2.9158  1.8757 -0.3854
  666MOL0     H91868   7.792   9.339  10.382 -1.9411  2.9329 -0.9345
  666MOL0     H91869   7.972   9.314  10.363 -0.6093  0.5066  1.9451
  666MOL0     H91870   7.513   9.892  10.096  0.6748  0.5542 -0.3275
  666MOL0     H91871   7.294   9.903   9.960  0.8815  1.2887  1.5102
  666MOL0     H91872   7.167   9.562   9.719 -0.8559 -1.7580  0.1743
  666MOL0     H91873   7.103   9.508   9.878 -0.3371 -0.9009 -0.2583
  666MOL0     H91874   6.965   9.646   9.648  0.1365 -1.3486 -1.3881
  666MOL0     H91875   6.899   9.510   9.740 -0.3320 -0.5041 -1.1365
  666MOL0     H91876   6.784   9.694   9.763  0.7689 -2.4194 -1.3520
  666MOL0     H91877   6.912   9.799   9.820 -0.4817  0.4215 -1.1991
  666MOL0     H91878   6.949   9.678  10.030 -1.1163  0.1743  0.7573
  666MOL0     H91879   6.823   9.556   9.985  0.7457 -0.6404  0.7585
  666MOL0     H91880   6.773   9.853  10.014 -1.0698  0.1787  0.2460
  666MOL0     H91881   6.660   9.733   9.963 -0.3033  2.8872 -0.1323
  666MOL0     H91882   6.814   9.701  10.223 -0.4677  1.0631  0.9720
  666MOL0     H91883   6.654   9.637  10.188 -1.4539  0.5626 -0.4390
  666MOL0     H91884   6.547   9.849  10.199 -0.3166  1.1668 -0.8371
  666MOL0     H91885   6.702   9.926  10.262  0.9381 -0.7455 -0.4798
  666MOL0     H91886   6.598   9.679  10.405  1.0222 -0.0697  0.9771
  666MOL0     H91887   6.525   9.846  10.420 -0.8637  0.7472 -0.7011
  666MOL0     H91888   7.337   9.488   9.860 -0.5604 -0.7680  0.0613
  666MOL0     H91889   7.557   9.495   9.956  0.3410  0.6653 -3.0844
  666MOL0     H91890   7.805   9.836  10.250 -1.4714  1.1370  4.8399
  666MOL0     H91891   8.003   9.890  10.381  0.3036 -0.3454  3.0225
  666MOL0     H91892  10.095   9.849  10.557  2.3318 -0.3393  0.2321
  666MOL0     H91893  10.285   9.854  10.704 -0.7600 -0.9172 -0.5086
  666MOL0     H91894  10.546  10.208  11.009  1.1987  1.4669  1.3950
  666MOL0     H91895  10.758  10.191  11.088  0.8084 -0.7815 -1.1387
  666MOL0     H91896  11.011  10.129  11.035  1.0544  0.7156  0.6848
  666MOL0     H91897  10.946  10.172  11.182  2.0017  0.2436  1.1638
  666MOL0     H91898  11.184  10.118  11.211  1.2589 -1.1752  0.3234
  666MOL0     H91899  11.158   9.959  11.137 -0.1976  1.2548 -2.7937
  666MOL0     H91900  11.034  10.064  11.390  0.6260 -0.2945  0.9004
  666MOL0     H91901  11.016   9.885  11.349  0.1499 -1.4005 -0.0551
  666MOL0     H91902  11.290  10.036  11.389  0.8787 -0.3829  1.0283
  666MOL0     H91903  11.270   9.867  11.363 -0.3001 -0.4947 -0.2414
  666MOL0     H91904  11.223   9.931  11.781  2.1149  3.7188  0.4659
  666MOL0     H91905  10.741   9.767  11.111  0.3431  2.2056  1.0290
  666MOL0     H91906  10.408   9.708  11.055  0.4244 -0.0547  0.4960
  666MOL0     H91907  10.468   9.755  10.885 -0.1473 -2.5409  0.2765
  666MOL0     H91908  10.552   9.647  10.984  2.2007  0.8708 -2.1627
  667MOL0     O91909   0.585   8.415   8.412  0.8357 -0.1212  0.1947
  667MOL0     C91910   0.562   8.470   8.517  0.7158  0.8940 -0.5136
  667MOL0     O91911   0.647   8.476   8.629 -0.6114 -0.4498  1.0071
  667MOL0     C91912   0.776   8.431   8.637  0.8192  0.8894 -0.6875
  667MOL0     C91913   0.831   8.323   8.558  0.3425  1.0037 -1.2114
  667MOL0     C91914   0.954   8.274   8.595  0.6561  0.9261 -0.6269
  667MOL0     C91915   1.032   8.332   8.701 -0.3388 -0.0370  0.5614
  667MOL0     O91916   1.158   8.283   8.718 -0.8070  0.5713 -0.1244
  667MOL0     C91917   1.232   8.330   8.833 -1.4226 -0.1098  0.2787
  667MOL0     C91918   1.348   8.229   8.838 -0.4283 -0.3030 -0.0765
  667MOL0     C91919   1.434   8.219   8.716 -0.0297  0.3049  0.6416
  667MOL0     C91920   1.542   8.124   8.737  0.1907  0.0690  0.2587
  667MOL0     C91921   1.631   8.158   8.852 -0.3208  0.1677  1.4644
  667MOL0     C91922   1.695   8.292   8.831  0.7797 -1.0608  0.2337
  667MOL0     C91923   1.801   8.314   8.940  0.4846  0.2309 -0.1877
  667MOL0     C91924   1.858   8.453   8.906 -0.0245  0.5817 -1.0961
  667MOL0     N91925   1.921   8.514   9.021  0.3678 -0.3444 -0.1368
  667MOL0     C91926   2.057   8.510   9.044 -0.1659 -0.0063  0.3096
  667MOL0     C91927   2.061   8.557   9.170  0.1794  0.0427  0.4165
  667MOL0     C91928   2.183   8.564   9.253  0.2936 -0.6300  0.6337
  667MOL0     C91929   2.297   8.639   9.183  0.4141 -0.1463  0.9253
  667MOL0     C91930   2.425   8.645   9.271 -0.2935  0.2131 -0.4154
  667MOL0     C91931   2.546   8.711   9.197  0.7577  0.4903 -0.3585
  667MOL0     O91932   2.559   8.653   9.072  0.3668  0.1019 -0.2243
  667MOL0     C91933   2.634   8.549   9.037 -0.3430 -0.7117 -0.5050
  667MOL0     C91934   2.647   8.508   8.908  0.3693  0.5068  0.6622
  667MOL0     C91935   2.699   8.393   8.859  0.0142 -0.2437 -0.0792
  667MOL0     C91936   2.706   8.376   8.711 -1.3283 -1.4923  0.6126
  667MOL0     C91937   2.766   8.312   8.949  0.4229  0.1772 -0.4397
  667MOL0     C91938   2.855   8.196   8.925 -0.5565  0.2141  0.6939
  667MOL0     O91939   2.958   8.175   9.009 -0.3445 -0.7291 -0.7495
  667MOL0     C91940   3.065   8.115   8.943 -0.5644 -0.5011 -0.2547
  667MOL0     C91941   3.077   7.978   8.939 -0.9229 -0.1674  0.2179
  667MOL0     C91942   3.193   7.923   8.868  0.2652 -0.5419 -0.1242
  667MOL0     C91943   3.301   8.011   8.827 -0.0688  0.7969 -0.5176
  667MOL0     O91944   3.401   7.940   8.764  0.5166 -0.2961  0.1457
  667MOL0     C91945   3.524   8.018   8.733  0.1248  0.5858  1.1533
  667MOL0     C91946   3.618   7.916   8.662  0.8757 -0.4129 -0.1801
  667MOL0     C91947   3.551   7.876   8.532 -0.4960 -0.3453 -0.2546
  667MOL0     C91948   3.656   7.829   8.443 -0.5997 -0.4331 -0.4892
  667MOL0     C91949   3.590   7.753   8.327  0.0439  0.0467  0.1191
  667MOL0     C91950   3.506   7.838   8.232  0.3762 -0.0802  0.4026
  667MOL0     C91951   3.542   7.841   8.083 -0.5546  0.1388 -0.4841
  667MOL0     C91952   3.452   7.931   8.001 -0.1567  0.1403 -0.3856
  667MOL0    Cl91953   3.286   7.854   7.977 -0.3729  0.0066  0.3289
  667MOL0     C91954   3.284   8.148   8.829  0.6335 -0.9079 -0.4681
  667MOL0     C91955   3.176   8.197   8.898 -0.1992  0.2567  0.3174
  667MOL0     O91956   2.816   8.111   8.841 -0.2426 -0.3754  0.3900
  667MOL0     C91957   2.761   8.348   9.086  0.0461 -0.6172  0.7330
  667MOL0     C91958   2.695   8.465   9.135 -0.5754 -0.2575  0.3092
  667MOL0     N91959   1.933   8.598   9.213  0.2407 -0.8245 -0.3667
  667MOL0     N91960   1.849   8.576   9.116 -0.7014  0.0951 -0.0518
  667MOL0     C91961   0.976   8.444   8.773 -0.2145  0.3707  1.1474
  667MOL0     C91962   0.849   8.484   8.742 -0.1694  0.8056  0.2237
  667MOL0     C91963   0.424   8.518   8.543 -1.0384  1.1787 -0.4774
  667MOL0     C91964   0.394   8.569   8.676 -0.0738  0.0603  0.3850
  667MOL0     C91965   0.266   8.608   8.705 -0.3044  0.4347 -0.0502
  667MOL0     C91966   0.164   8.588   8.621  0.5328  0.0058  0.2935
  667MOL0     O91967   0.041   8.629   8.669  0.3313  0.0804 -0.3485
  667MOL0     C91968  -0.077   8.613   8.587 -0.3758 -0.4763  0.9452
  667MOL0     C91969  -0.213   8.626   8.664 -0.5883  0.1092 -0.1494
  667MOL0     C91970  -0.204   8.749   8.754  0.3074 -0.2113 -0.2157
  667MOL0     C91971  -0.322   8.762   8.860  0.0212  0.3458 -0.0716
  667MOL0     C91972  -0.333   8.650   8.942 -0.1824 -0.5505 -0.4794
  667MOL0     C91973  -0.349   8.559   9.023  0.5540 -1.1623  0.5991
  667MOL0     C91974   0.188   8.529   8.496 -0.4064 -0.6374 -1.3426
  667MOL0     C91975   0.312   8.487   8.455  0.6352 -0.6245 -0.0966
  667MOL0     C91976   0.323   8.447   8.316 -0.8782  1.5893 -0.1633
  667MOL0     H91977   0.773   8.276   8.479 -1.7206  1.1098  0.1768
  667MOL0     H91978   0.994   8.183   8.552 -0.4237 -0.0027  0.2548
  667MOL0     H91979   1.182   8.324   8.930 -0.8908  4.1068  1.0319
  667MOL0     H91980   1.260   8.435   8.823  1.9122 -0.9502 -0.3136
  667MOL0     H91981   1.410   8.265   8.921 -1.0975  2.6699 -0.7416
  667MOL0     H91982   1.310   8.131   8.869  1.9835 -0.6950  1.9499
  667MOL0     H91983   1.386   8.181   8.625  1.8530  0.8752 -0.6570
  667MOL0     H91984   1.467   8.320   8.689  1.5690 -0.2411  0.4650
  667MOL0     H91985   1.491   8.028   8.754 -1.2676  0.5794 -1.0866
  667MOL0     H91986   1.607   8.119   8.649 -1.9527  0.1922 -1.4003
  667MOL0     H91987   1.701   8.075   8.867 -1.9407 -0.8507  4.2706
  667MOL0     H91988   1.569   8.160   8.942  0.5582  3.9851  2.1869
  667MOL0     H91989   1.750   8.304   8.737  1.5901 -2.9610  0.4161
  667MOL0     H91990   1.616   8.368   8.827  1.3442 -0.5051 -1.5282
  667MOL0     H91991   1.874   8.232   8.937 -2.4259 -2.5859  0.3400
  667MOL0     H91992   1.750   8.310   9.037 -3.1236 -0.0223 -1.9675
  667MOL0     H91993   1.925   8.446   8.821 -1.7535  2.1941 -2.6838
  667MOL0     H91994   1.779   8.519   8.870 -0.6049  0.5179  0.0010
  667MOL0     H91995   2.140   8.481   8.981  1.6931  0.2349  2.5254
  667MOL0     H91996   2.218   8.463   9.277 -0.9589 -1.5894 -1.2523
  667MOL0     H91997   2.143   8.620   9.339  1.8014  2.4030 -0.5093
  667MOL0     H91998   2.332   8.582   9.096 -1.0094  0.1969  0.0967
  667MOL0     H91999   2.273   8.740   9.149 -3.0777 -1.4758 -0.9984
  667MOL0     H92000   2.406   8.707   9.359 -0.3927 -2.4381  1.5677
  667MOL0     H92001   2.462   8.550   9.310 -0.2837  0.2287 -0.3853
  667MOL0     H92002   2.528   8.817   9.175  1.7643  0.8304  0.3785
  667MOL0     H92003   2.642   8.704   9.249 -0.3237  0.7784  1.8041
  667MOL0     H92004   2.598   8.583   8.846  1.0088 -0.4246 -1.0445
  667MOL0     H92005   2.807   8.384   8.668 -2.3149  1.4332 -1.4407
  667MOL0     H92006   2.636   8.448   8.668 -1.4716 -2.3583 -0.6605
  667MOL0     H92007   2.678   8.272   8.689 -0.1848 -1.8164  0.6202
  667MOL0     H92008   3.010   7.903   8.978  0.8869 -0.3959  3.2485
  667MOL0     H92009   3.196   7.815   8.878 -2.1252 -0.6136  0.4450
  667MOL0     H92010   3.509   8.100   8.662  0.2158 -1.1422 -0.9658
  667MOL0     H92011   3.585   8.057   8.815  0.5670 -0.6953  1.4572
  667MOL0     H92012   3.712   7.966   8.638  1.1444  0.5229  2.5102
  667MOL0     H92013   3.652   7.832   8.724 -0.6778 -0.6770  0.3617
  667MOL0     H92014   3.516   7.965   8.480 -0.8511 -0.6763 -0.5885
  667MOL0     H92015   3.470   7.805   8.553  1.5167 -3.0284 -0.8896
  667MOL0     H92016   3.720   7.761   8.500 -1.1974 -1.1452 -0.6524
  667MOL0     H92017   3.724   7.910   8.415 -0.9323  0.1524  0.3634
  667MOL0     H92018   3.676   7.717   8.270 -0.3683 -0.6860 -0.0508
  667MOL0     H92019   3.526   7.669   8.356 -1.0331  0.6003 -0.5703
  667MOL0     H92020   3.509   7.945   8.250 -0.3869  0.4747 -2.2962
  667MOL0     H92021   3.398   7.833   8.248  0.1994  2.8010  0.6149
  667MOL0     H92022   3.545   7.743   8.036 -0.3760 -0.0164 -0.1535
  667MOL0     H92023   3.645   7.873   8.065 -0.9945  0.5366 -2.5183
  667MOL0     H92024   3.491   7.950   7.901 -1.1170 -0.9946 -0.9993
  667MOL0     H92025   3.436   8.025   8.055  3.4858  0.0529  1.1406
  667MOL0     H92026   3.362   8.215   8.794  1.4793 -2.0789 -0.8849
  667MOL0     H92027   3.179   8.303   8.923  0.2845 -0.1127  1.9589
  667MOL0     H92028   2.815   8.279   9.149  0.1629 -0.0064  1.3124
  667MOL0     H92029   2.700   8.499   9.238 -0.8443  2.1407 -0.4105
  667MOL0     H92030   1.027   8.498   8.852  0.4340  0.3213  0.7685
  667MOL0     H92031   0.821   8.564   8.810 -0.4733  0.0630  0.9882
  667MOL0     H92032   0.474   8.582   8.749  0.4784  2.4236 -0.5698
  667MOL0     H92033   0.236   8.663   8.793 -0.8492 -2.4443  1.6856
  667MOL0     H92034  -0.072   8.698   8.517  0.4913  0.6199  2.2984
  667MOL0     H92035  -0.078   8.519   8.531 -0.6438 -0.9271  1.6948
  667MOL0     H92036  -0.230   8.529   8.711  1.7589 -2.1765 -3.4861
  667MOL0     H92037  -0.296   8.636   8.593 -0.1825 -2.2710 -1.0516
  667MOL0     H92038  -0.115   8.753   8.818 -1.6947  1.8372  2.7460
  667MOL0     H92039  -0.209   8.843   8.699  2.2407  0.1610  0.1784
  667MOL0     H92040  -0.418   8.781   8.812  0.6666  1.8585 -0.8386
  667MOL0     H92041  -0.286   8.843   8.924 -1.5428 -0.9693  2.6278
  667MOL0     H92042  -0.349   8.470   9.082  0.4889 -0.6290  1.4157
  667MOL0     H92043   0.111   8.537   8.420  1.5355  2.7153 -3.2029
  667MOL0     H92044   0.332   8.338   8.322 -4.3181  1.1793 -0.7521
  667MOL0     H92045   0.243   8.478   8.249 -1.9758  1.7565  1.1947
  667MOL0     H92046   0.418   8.474   8.268 -0.7301 -2.0139 -2.3590
  668MOL0     O92047  10.380   5.896   4.797 -0.7776  0.1081  0.6451
  668MOL0     C92048  10.350   5.987   4.879 -0.5234 -0.3771 -0.5166
  668MOL0     O92049  10.415   6.004   5.000 -0.3130  0.1074  0.0382
  668MOL0     C92050  10.502   5.913   5.046  0.6647 -0.2928 -0.2301
  668MOL0     C92051  10.616   5.951   5.103  0.8598 -0.1300  0.1581
  668MOL0     C92052  10.715   5.862   5.146 -0.1214 -0.7516 -0.6159
  668MOL0     C92053  10.701   5.724   5.128  0.3619  0.2774 -0.0463
  668MOL0     O92054  10.805   5.659   5.180 -0.5186  0.2310  0.1886
  668MOL0     C92055  10.813   5.520   5.144 -0.3218  0.4002 -0.9292
  668MOL0     C92056  10.934   5.466   5.215  0.4645  0.7374 -0.4379
  668MOL0     C92057  10.912   5.320   5.220 -0.5277 -0.0395  0.2450
  668MOL0     C92058  11.016   5.260   5.322  0.5200  0.6660  0.3664
  668MOL0     C92059  11.005   5.098   5.323  1.0911 -0.7518 -0.3523
  668MOL0     C92060  11.137   5.048   5.365  0.2406  0.2516 -0.3002
  668MOL0     C92061  11.137   4.894   5.375  0.4214  0.3697 -0.4251
  668MOL0     C92062  11.130   4.823   5.242  0.0748  0.7684 -0.2872
  668MOL0     N92063  11.137   4.675   5.277 -0.1524 -1.1155  0.5950
  668MOL0     C92064  11.246   4.603   5.280 -0.0781  0.1141  0.1412
  668MOL0     C92065  11.208   4.477   5.282 -0.0924 -0.3593 -0.8500
  668MOL0     C92066  11.312   4.370   5.265  0.2577  0.4278  0.2186
  668MOL0     C92067  11.253   4.225   5.296  0.0444  0.1982  0.0799
  668MOL0     C92068  11.341   4.115   5.244 -0.0458  0.6673  0.0877
  668MOL0     C92069  11.281   3.978   5.274  0.1596 -0.5488 -0.1308
  668MOL0     O92070  11.392   3.888   5.253 -0.6863  0.1145 -0.4996
  668MOL0     C92071  11.374   3.759   5.228  0.5304  0.2676 -0.0524
  668MOL0     C92072  11.478   3.689   5.164 -0.1269  0.3856 -0.5847
  668MOL0     C92073  11.477   3.549   5.133 -0.2543 -0.1005  0.3571
  668MOL0     C92074  11.610   3.496   5.069  0.6178 -0.3860 -0.3581
  668MOL0     C92075  11.361   3.485   5.174  0.9636 -0.3442 -0.7021
  668MOL0     C92076  11.344   3.339   5.142 -1.1481  0.6519 -0.6710
  668MOL0     O92077  11.234   3.275   5.199  0.7174  0.0045  0.1444
  668MOL0     C92078  11.198   3.142   5.189  0.1662  0.3309 -0.5400
  668MOL0     C92079  11.227   3.054   5.081  0.7932 -0.1053 -0.6754
  668MOL0     C92080  11.177   2.915   5.086 -0.4739 -0.3982  0.2292
  668MOL0     C92081  11.091   2.885   5.192 -0.3484  0.6366 -0.0037
  668MOL0     O92082  11.025   2.765   5.176 -0.7279 -0.1212 -0.4713
  668MOL0     C92083  11.052   2.662   5.279 -0.1336  0.0621  0.3008
  668MOL0     C92084  11.031   2.527   5.195 -0.6782 -0.5563 -0.0763
  668MOL0     C92085  10.873   2.519   5.169 -1.2533 -0.9534 -0.3474
  668MOL0     C92086  10.823   2.382   5.224  0.3101  0.5065  0.2892
  668MOL0     C92087  10.853   2.263   5.132  0.4369  0.3188 -0.7004
  668MOL0     C92088  10.805   2.127   5.192  0.1396  0.2606  0.4077
  668MOL0     C92089  10.796   2.027   5.074  0.6280  0.6439 -0.7414
  668MOL0     C92090  10.932   1.998   5.015 -0.0946 -0.3306  0.0894
  668MOL0    Cl92091  10.910   1.893   4.871  0.2201 -0.1246 -0.1881
  668MOL0     C92092  11.054   2.974   5.294 -0.0057  0.0056  0.3284
  668MOL0     C92093  11.110   3.102   5.292 -0.2254 -0.0943 -0.5881
  668MOL0     O92094  11.428   3.283   5.075  0.0940  0.7389 -0.4353
  668MOL0     C92095  11.257   3.553   5.245 -0.0510 -0.8784  0.1231
  668MOL0     C92096  11.270   3.683   5.274  0.7637 -0.2885 -0.2475
  668MOL0     N92097  11.068   4.467   5.292 -0.1479 -0.1260  0.2342
  668MOL0     N92098  11.028   4.590   5.288 -1.0701 -0.7912  0.5210
  668MOL0     C92099  10.588   5.681   5.069  0.4908  0.7209  0.2308
  668MOL0     C92100  10.487   5.771   5.026 -0.4751 -0.7314  0.5460
  668MOL0     C92101  10.240   6.100   4.850 -0.3337 -0.5689 -0.3531
  668MOL0     C92102  10.223   6.189   4.954 -0.0972  0.1737 -0.0195
  668MOL0     C92103  10.147   6.305   4.939 -1.5485  0.2802  0.5013
  668MOL0     C92104  10.091   6.344   4.814  0.6067 -0.0116  0.7444
  668MOL0     O92105  10.022   6.462   4.804  0.4035  0.2047 -0.0227
  668MOL0     C92106   9.979   6.502   4.673  0.4376 -0.0980 -1.1424
  668MOL0     C92107   9.949   6.651   4.675  0.1207  0.2510 -0.2707
  668MOL0     C92108   9.928   6.699   4.538  0.4792 -0.0937 -0.1044
  668MOL0     C92109   9.924   6.851   4.534 -0.3566 -0.7756 -0.0886
  668MOL0     C92110  10.058   6.913   4.568  0.2890  0.0630  0.8752
  668MOL0     C92111  10.162   6.978   4.589  0.3377  0.2102 -0.3647
  668MOL0     C92112  10.110   6.249   4.712 -0.2688 -0.0353  0.2926
  668MOL0     C92113  10.168   6.125   4.731  1.3384 -0.9281  0.4165
  668MOL0     C92114  10.166   6.031   4.612  0.3545  0.6229  0.8586
  668MOL0     H92115  10.631   6.054   5.135 -0.3256 -0.4468  1.9090
  668MOL0     H92116  10.801   5.906   5.196 -0.7988  2.1943 -1.8368
  668MOL0     H92117  10.806   5.516   5.035  0.8988  2.5846 -1.1430
  668MOL0     H92118  10.720   5.477   5.184  0.0787  0.1527 -0.2472
  668MOL0     H92119  11.027   5.486   5.162  1.1350 -0.2172  0.3407
  668MOL0     H92120  10.935   5.510   5.315 -1.4984 -0.6302  0.2408
  668MOL0     H92121  10.814   5.276   5.245  1.1297 -4.7361 -0.4904
  668MOL0     H92122  10.940   5.285   5.120  0.3842  1.7834 -0.1732
  668MOL0     H92123  11.119   5.284   5.294  1.2576 -3.2013 -0.7934
  668MOL0     H92124  11.000   5.304   5.421 -1.0492  0.2100  0.3517
  668MOL0     H92125  10.979   5.066   5.222 -0.2869  2.1398 -1.0227
  668MOL0     H92126  10.919   5.070   5.384  0.7652 -1.8769 -1.2914
  668MOL0     H92127  11.225   5.075   5.305  1.4767 -0.9868  0.8683
  668MOL0     H92128  11.171   5.088   5.461  4.2067 -1.7199 -0.6437
  668MOL0     H92129  11.057   4.856   5.439 -0.9159  0.6501 -1.8581
  668MOL0     H92130  11.232   4.861   5.418  0.4481 -1.0410 -1.5010
  668MOL0     H92131  11.036   4.856   5.197  0.1338 -1.5993 -2.3354
  668MOL0     H92132  11.210   4.842   5.170 -2.5633 -0.4493 -3.7869
  668MOL0     H92133  11.348   4.639   5.284  0.1475 -0.5054  3.8377
  668MOL0     H92134  11.391   4.397   5.336  1.7491  0.0674 -1.2485
  668MOL0     H92135  11.340   4.376   5.159 -2.9241 -2.2550 -0.9641
  668MOL0     H92136  11.259   4.224   5.406 -3.4366  2.4232  0.4478
  668MOL0     H92137  11.151   4.210   5.259  0.3176 -0.9429 -0.2367
  668MOL0     H92138  11.339   4.130   5.136 -0.0555  1.7889  0.2391
  668MOL0     H92139  11.439   4.109   5.292 -1.1419  0.8451  2.5096
  668MOL0     H92140  11.237   3.984   5.374  0.5174  2.4992 -0.0521
  668MOL0     H92141  11.200   3.952   5.205  0.0059 -1.6631  0.4651
  668MOL0     H92142  11.570   3.746   5.158  0.7639 -0.3429  3.4205
  668MOL0     H92143  11.601   3.424   4.987  5.1291  0.8249 -2.2264
  668MOL0     H92144  11.679   3.460   5.146 -0.9629 -1.8428  0.4449
  668MOL0     H92145  11.658   3.582   5.022  1.1441  0.8431  2.2365
  668MOL0     H92146  11.295   3.091   5.004  0.5223 -3.0483 -2.4778
  668MOL0     H92147  11.209   2.837   5.018  1.5586  0.0154  0.6432
  668MOL0     H92148  11.155   2.677   5.313 -1.4377  2.9298  3.6407
  668MOL0     H92149  10.988   2.664   5.367 -0.4398  2.0544  0.0830
  668MOL0     H92150  11.080   2.532   5.097  1.9025  1.4224  1.1931
  668MOL0     H92151  11.066   2.435   5.242 -0.3187 -0.9598 -1.1195
  668MOL0     H92152  10.858   2.515   5.061  1.7639 -2.4434 -0.8057
  668MOL0     H92153  10.812   2.596   5.217 -0.2594  1.1394 -2.2702
  668MOL0     H92154  10.714   2.388   5.229  0.2570  1.1580 -1.1429
  668MOL0     H92155  10.859   2.365   5.326 -1.3545  2.7604  1.3319
  668MOL0     H92156  10.806   2.282   5.035  0.0833  0.9151 -0.4198
  668MOL0     H92157  10.962   2.259   5.123  0.5470  0.4489  0.3675
  668MOL0     H92158  10.708   2.148   5.237  0.9212 -0.6280  2.6667
  668MOL0     H92159  10.867   2.089   5.274  3.2077  1.2536 -1.3052
  668MOL0     H92160  10.724   2.060   4.998 -1.6417 -2.1024  0.0243
  668MOL0     H92161  10.756   1.934   5.117  3.1230  0.3765  1.2133
  668MOL0     H92162  11.002   1.948   5.083  2.2676 -2.6048 -3.7124
  668MOL0     H92163  10.980   2.091   4.987 -0.4308  0.3602  1.6904
  668MOL0     H92164  10.980   2.944   5.367 -1.2547 -1.7360 -1.5520
  668MOL0     H92165  11.091   3.176   5.369 -0.2272 -0.3677 -0.3228
  668MOL0     H92166  11.167   3.510   5.287 -0.6647  0.7850  0.6004
  668MOL0     H92167  11.203   3.734   5.342  2.6223  0.2409  1.2992
  668MOL0     H92168  10.588   5.575   5.047 -0.5671  0.7667 -0.0542
  668MOL0     H92169  10.397   5.741   4.974 -1.1831  0.5147  1.0057
  668MOL0     H92170  10.249   6.166   5.056 -0.8086 -0.9305 -0.0754
  668MOL0     H92171  10.149   6.384   5.013  2.6137  0.0190  0.9281
  668MOL0     H92172  10.072   6.499   4.615  1.8846  1.0610  0.9614
  668MOL0     H92173   9.900   6.439   4.631 -1.9279  1.9097  0.0649
  668MOL0     H92174  10.020   6.712   4.731 -2.2831  3.2089 -0.1971
  668MOL0     H92175   9.853   6.673   4.724  1.2213  3.7405  0.6146
  668MOL0     H92176  10.008   6.662   4.472  1.0450  0.6125  0.1759
  668MOL0     H92177   9.834   6.665   4.493  0.7860 -2.7773  1.0347
  668MOL0     H92178   9.858   6.887   4.613  0.3366  2.4308 -0.8455
  668MOL0     H92179   9.891   6.880   4.434  1.0326 -0.1948 -0.4035
  668MOL0     H92180  10.236   7.052   4.610  1.3295 -0.8645  0.0573
  668MOL0     H92181  10.079   6.279   4.612 -0.2168 -0.2219  0.2197
  668MOL0     H92182  10.264   6.036   4.565 -0.9101 -0.5968 -2.1150
  668MOL0     H92183  10.146   5.925   4.629  1.6985  0.1249 -0.4849
  668MOL0     H92184  10.093   6.070   4.540 -0.0770 -2.0389 -0.2396
  669MOL0     O92185   7.227   0.308   7.696 -0.4621 -0.3955 -0.6421
  669MOL0     C92186   7.145   0.242   7.630 -0.3836 -0.3230 -0.1069
  669MOL0     O92187   7.169   0.169   7.517  1.1627  0.4884 -0.4004
  669MOL0     C92188   7.297   0.163   7.474  0.0746  0.0218  0.1515
  669MOL0     C92189   7.410   0.134   7.548  0.6676  0.1133 -0.4469
  669MOL0     C92190   7.535   0.112   7.492  0.5099  0.3530 -0.4944
  669MOL0     C92191   7.551   0.103   7.361  1.5105  0.4372  0.3236
  669MOL0     O92192   7.660   0.087   7.291  0.4683  0.2611  0.8334
  669MOL0     C92193   7.783   0.087   7.362  0.6782  0.4346  0.3147
  669MOL0     C92194   7.824  -0.049   7.420  0.4363 -0.4727  0.1333
  669MOL0     C92195   7.943  -0.026   7.521  0.4986 -0.1544  0.3038
  669MOL0     C92196   7.999  -0.158   7.573  0.4323 -0.0917  0.3495
  669MOL0     C92197   8.146  -0.131   7.618  0.1252 -0.2704 -0.0139
  669MOL0     C92198   8.232  -0.256   7.629  0.2479 -1.0197 -0.1903
  669MOL0     C92199   8.235  -0.338   7.500  0.7026 -0.4275 -0.0114
  669MOL0     C92200   8.335  -0.450   7.499  0.9383 -0.4498 -0.2429
  669MOL0     N92201   8.473  -0.404   7.496 -0.6952 -0.5272  0.6504
  669MOL0     C92202   8.551  -0.400   7.616  0.2112 -0.3104  0.4376
  669MOL0     C92203   8.654  -0.320   7.593  0.3281  0.1005 -0.1612
  669MOL0     C92204   8.757  -0.288   7.699  0.3846  0.4229  0.2725
  669MOL0     C92205   8.687  -0.234   7.824 -0.3149 -0.0099  0.7447
  669MOL0     C92206   8.776  -0.146   7.908  0.2672 -0.4429 -0.1585
  669MOL0     C92207   8.901  -0.206   7.975 -0.5615  0.5865  0.8924
  669MOL0     O92208   8.938  -0.129   8.082 -0.2355  0.1886 -0.5484
  669MOL0     C92209   9.023  -0.171   8.185 -0.4300  0.8946  0.4749
  669MOL0     C92210   9.043  -0.084   8.285 -0.2430  0.7467  0.0328
  669MOL0     C92211   9.142  -0.117   8.383 -1.0719 -0.5485 -0.5235
  669MOL0     C92212   9.189  -0.008   8.475 -0.0699 -0.4390 -0.1780
  669MOL0     C92213   9.216  -0.237   8.393 -1.1843  0.0979 -0.4763
  669MOL0     C92214   9.311  -0.284   8.511  0.9353  1.1591 -0.5188
  669MOL0     O92215   9.391  -0.386   8.479  0.6391  0.3194 -0.1489
  669MOL0     C92216   9.447  -0.452   8.586  0.4860  0.5044  0.2088
  669MOL0     C92217   9.582  -0.437   8.613  0.0619  0.6518  0.7833
  669MOL0     C92218   9.643  -0.516   8.713  0.4748 -0.3119 -0.2882
  669MOL0     C92219   9.562  -0.611   8.789 -0.0163  0.4828  0.3442
  669MOL0     O92220   9.628  -0.689   8.879  0.3792 -0.0028  0.1598
  669MOL0     C92221   9.556  -0.798   8.937  0.4271  1.0169  0.1813
  669MOL0     C92222   9.645  -0.875   9.033  0.1625  0.5221  0.7714
  669MOL0     C92223   9.716  -0.799   9.146 -0.7704  0.1121 -0.6224
  669MOL0     C92224   9.655  -0.674   9.207  0.0167 -0.5279  0.5797
  669MOL0     C92225   9.535  -0.718   9.296 -0.2321  0.2151  0.0827
  669MOL0     C92226   9.470  -0.591   9.354  0.1169 -0.1253 -0.5192
  669MOL0     C92227   9.323  -0.620   9.404 -0.3488 -0.0825 -0.1478
  669MOL0     C92228   9.290  -0.515   9.515 -0.0797 -0.0711 -0.1302
  669MOL0    Cl92229   9.141  -0.541   9.590 -0.2893  0.1823 -0.3801
  669MOL0     C92230   9.433  -0.623   8.749  0.8679  0.0556 -1.2777
  669MOL0     C92231   9.372  -0.543   8.655 -0.6347  1.2162  0.1803
  669MOL0     O92232   9.316  -0.214   8.610 -0.0658 -0.6322 -0.1535
  669MOL0     C92233   9.178  -0.330   8.297  0.6925 -0.2905 -0.1915
  669MOL0     C92234   9.083  -0.301   8.195  0.1882  0.3418 -0.4597
  669MOL0     N92235   8.647  -0.283   7.461 -0.2428  0.0579  0.3865
  669MOL0     N92236   8.536  -0.323   7.400 -0.8119 -1.5361 -0.8242
  669MOL0     C92237   7.436   0.116   7.282 -0.2404  0.8439 -0.1261
  669MOL0     C92238   7.307   0.142   7.337 -0.4393 -0.4268  0.2629
  669MOL0     C92239   7.004   0.243   7.681 -0.3153  0.0613 -1.3303
  669MOL0     C92240   6.898   0.223   7.599 -0.0840 -0.2846 -0.0546
  669MOL0     C92241   6.765   0.218   7.636  0.1061 -0.3038  0.3078
  669MOL0     C92242   6.725   0.236   7.773 -0.5867  0.0500 -0.6297
  669MOL0     O92243   6.601   0.232   7.821  0.7827 -0.0113 -0.0324
  669MOL0     C92244   6.496   0.200   7.731  0.4196 -0.2958 -0.4309
  669MOL0     C92245   6.356   0.242   7.799  0.3212  0.5579 -0.4862
  669MOL0     C92246   6.332   0.388   7.837 -0.6846 -0.2957  0.2782
  669MOL0     C92247   6.352   0.478   7.717  0.0284  1.3094 -0.5245
  669MOL0     C92248   6.488   0.523   7.676  0.2017  0.1070  0.2748
  669MOL0     C92249   6.604   0.547   7.654 -0.5915 -0.5073  0.3012
  669MOL0     C92250   6.829   0.261   7.862  0.2845  0.0438  0.4677
  669MOL0     C92251   6.964   0.264   7.818 -0.3432 -0.3572 -0.5632
  669MOL0     C92252   7.070   0.275   7.921  0.0853  0.0668 -1.1121
  669MOL0     H92253   7.398   0.120   7.655  0.9901  3.3352  0.1254
  669MOL0     H92254   7.620   0.090   7.555 -1.4977 -0.1672  2.1849
  669MOL0     H92255   7.779   0.156   7.447  1.3415 -1.4897  1.9795
  669MOL0     H92256   7.862   0.128   7.298  0.1717 -0.9966 -1.2894
  669MOL0     H92257   7.745  -0.102   7.473  1.5970 -1.6933  0.7023
  669MOL0     H92258   7.845  -0.125   7.344  0.3070 -1.9880  1.5591
  669MOL0     H92259   8.017   0.035   7.469  1.8726 -2.4740 -0.6593
  669MOL0     H92260   7.909   0.029   7.608  0.9419  0.2352  0.2362
  669MOL0     H92261   7.945  -0.204   7.656  1.2045 -2.5089 -0.3690
  669MOL0     H92262   7.994  -0.226   7.487 -2.1907  2.0659 -1.3697
  669MOL0     H92263   8.151  -0.072   7.710  0.1949 -0.1423 -0.1003
  669MOL0     H92264   8.193  -0.065   7.545  2.5170 -0.3384  1.3662
  669MOL0     H92265   8.332  -0.215   7.646 -0.7383  2.2650 -1.4452
  669MOL0     H92266   8.196  -0.316   7.712  0.1553  0.4719  0.8764
  669MOL0     H92267   8.250  -0.261   7.423 -0.6597  2.7052  2.6270
  669MOL0     H92268   8.133  -0.378   7.492 -0.3024  1.0363  3.5131
  669MOL0     H92269   8.314  -0.508   7.590  2.6921 -3.1354 -1.4293
  669MOL0     H92270   8.309  -0.509   7.411 -2.1049  0.3381  0.0419
  669MOL0     H92271   8.535  -0.459   7.706 -0.5341  1.2887  1.4067
  669MOL0     H92272   8.832  -0.216   7.668  1.8156  0.2455  3.0201
  669MOL0     H92273   8.820  -0.376   7.720  0.7435  1.3806  3.8837
  669MOL0     H92274   8.599  -0.176   7.797 -0.0183  1.8250  3.4200
  669MOL0     H92275   8.657  -0.322   7.883  1.6509 -0.2555  1.4432
  669MOL0     H92276   8.808  -0.066   7.841  0.5735 -0.2106  0.2615
  669MOL0     H92277   8.717  -0.099   7.987 -0.0285  3.2703 -2.3863
  669MOL0     H92278   8.884  -0.311   8.001 -0.6422  0.3409 -0.0997
  669MOL0     H92279   8.988  -0.204   7.908  0.3567 -1.0476  1.9631
  669MOL0     H92280   8.987   0.009   8.287  0.2269  1.0606 -0.7547
  669MOL0     H92281   9.297  -0.003   8.485 -0.1627 -0.8673  1.3221
  669MOL0     H92282   9.147  -0.029   8.574 -2.4593 -0.0005 -1.0117
  669MOL0     H92283   9.146   0.090   8.449  0.4483  0.1230  0.9768
  669MOL0     H92284   9.642  -0.373   8.549  1.2621 -0.6366  0.5544
  669MOL0     H92285   9.748  -0.503   8.736  0.4679 -0.3276 -0.2479
  669MOL0     H92286   9.477  -0.758   9.001  1.2862  3.1479 -0.0074
  669MOL0     H92287   9.513  -0.870   8.867 -1.0086 -0.2372  2.2358
  669MOL0     H92288   9.588  -0.959   9.075  1.5167 -3.0231 -3.6503
  669MOL0     H92289   9.712  -0.937   8.974  2.0292  2.8405  0.3152
  669MOL0     H92290   9.819  -0.777   9.115 -0.1895 -1.9625 -0.3451
  669MOL0     H92291   9.734  -0.868   9.229  2.7436  4.0218  2.3388
  669MOL0     H92292   9.619  -0.604   9.131 -0.6376 -0.3696  1.0324
  669MOL0     H92293   9.726  -0.615   9.265  1.2990 -1.8818  0.4496
  669MOL0     H92294   9.476  -0.790   9.239  2.3887 -2.0640  0.0406
  669MOL0     H92295   9.563  -0.775   9.385 -3.4063 -2.4527 -0.4430
  669MOL0     H92296   9.462  -0.516   9.275  0.9769  0.7658  0.2176
  669MOL0     H92297   9.538  -0.546   9.426  1.1749 -2.0682 -0.2297
  669MOL0     H92298   9.309  -0.722   9.439  0.1740  0.3454  1.3685
  669MOL0     H92299   9.251  -0.596   9.325 -3.3865 -0.9728  2.1907
  669MOL0     H92300   9.299  -0.418   9.467  1.9817  0.8335  1.9029
  669MOL0     H92301   9.366  -0.514   9.594  1.2685 -1.0905 -1.3573
  669MOL0     H92302   9.370  -0.693   8.803  0.2901  1.0337 -0.6617
  669MOL0     H92303   9.270  -0.542   8.618 -0.7861  2.7612  0.5685
  669MOL0     H92304   9.203  -0.436   8.306  0.7092 -0.1543  1.8628
  669MOL0     H92305   9.043  -0.377   8.128 -0.3731 -0.2733  0.5458
  669MOL0     H92306   7.448   0.122   7.174 -3.6230  1.2937 -0.5764
  669MOL0     H92307   7.217   0.146   7.276 -0.8809 -0.1422  0.9202
  669MOL0     H92308   6.923   0.215   7.493 -1.4959 -1.2509 -0.3500
  669MOL0     H92309   6.696   0.185   7.560 -2.3178  2.2899  1.2226
  669MOL0     H92310   6.500   0.247   7.632 -0.8176  0.7529 -0.0109
  669MOL0     H92311   6.489   0.091   7.716  1.0832 -0.5709  1.0717
  669MOL0     H92312   6.351   0.185   7.892 -0.8882  1.4592  0.0207
  669MOL0     H92313   6.280   0.199   7.734 -0.0349  1.9970 -1.0650
  669MOL0     H92314   6.227   0.387   7.867 -0.2509 -0.7522  1.9018
  669MOL0     H92315   6.394   0.424   7.919  0.1344 -3.0202  0.9688
  669MOL0     H92316   6.283   0.562   7.730 -2.5543 -0.8470  0.9464
  669MOL0     H92317   6.311   0.429   7.628  0.4475 -0.3457  0.1608
  669MOL0     H92318   6.705   0.582   7.645 -0.6949 -0.4571 -0.7526
  669MOL0     H92319   6.811   0.279   7.967  0.8004  2.0144  0.2537
  669MOL0     H92320   7.160   0.213   7.922  1.1348  1.4286  2.1102
  669MOL0     H92321   7.100   0.380   7.919 -0.1399  0.2103  0.7187
  669MOL0     H92322   7.027   0.253   8.019  2.3208 -1.5249 -0.4004
  670MOL0     O92323   4.816   4.734   5.293  0.4474 -0.5932  0.9204
  670MOL0     C92324   4.763   4.624   5.310  0.1045 -0.1112  0.1197
  670MOL0     O92325   4.822   4.507   5.274 -0.1297  0.1092 -0.9939
  670MOL0     C92326   4.956   4.508   5.243 -0.4750  0.7452  1.1900
  670MOL0     C92327   5.049   4.518   5.340 -0.3497 -0.0875  0.5893
  670MOL0     C92328   5.181   4.510   5.303 -0.2303  0.1326 -0.2133
  670MOL0     C92329   5.220   4.499   5.165  0.6929  0.5504 -0.0652
  670MOL0     O92330   5.348   4.488   5.111  0.5830 -0.0756 -0.3227
  670MOL0     C92331   5.452   4.474   5.206 -0.7111  0.1885 -0.8016
  670MOL0     C92332   5.543   4.371   5.125 -0.2691  0.6572  0.7444
  670MOL0     C92333   5.679   4.348   5.188  0.1613  0.5591  0.7391
  670MOL0     C92334   5.750   4.472   5.228 -0.0420 -0.1467 -0.0502
  670MOL0     C92335   5.897   4.451   5.270 -0.0067 -0.3529  0.0036
  670MOL0     C92336   5.978   4.536   5.170  0.4814  0.5180 -0.2264
  670MOL0     C92337   6.129   4.489   5.190  0.1413  0.4682  0.2060
  670MOL0     C92338   6.223   4.558   5.092  0.7249 -0.4446 -0.2332
  670MOL0     N92339   6.254   4.698   5.125 -0.1231 -0.2835 -0.1468
  670MOL0     C92340   6.315   4.747   5.244  0.3193 -0.0855  0.5688
  670MOL0     C92341   6.282   4.883   5.244  0.6987  0.2864  0.3334
  670MOL0     C92342   6.336   4.978   5.357  1.5279 -0.5920  0.5828
  670MOL0     C92343   6.482   5.001   5.356 -0.7397 -0.7481 -0.0662
  670MOL0     C92344   6.534   5.073   5.484 -1.0837  0.3983 -0.9694
  670MOL0     C92345   6.680   5.097   5.505  0.2337  0.6513 -0.9629
  670MOL0     O92346   6.706   5.201   5.409  0.9347  0.2227  0.5741
  670MOL0     C92347   6.827   5.192   5.338  0.2366  0.9861 -0.3642
  670MOL0     C92348   6.949   5.220   5.385 -0.0852 -0.0871 -0.3077
  670MOL0     C92349   7.064   5.230   5.311  0.4851 -0.0664 -0.5473
  670MOL0     C92350   7.196   5.264   5.375  1.0744  0.3094  0.5486
  670MOL0     C92351   7.050   5.208   5.168  0.8613  0.0674 -0.3322
  670MOL0     C92352   7.155   5.230   5.069  0.1696 -0.0505 -0.8270
  670MOL0     O92353   7.128   5.196   4.940  0.3471 -0.2886  0.2343
  670MOL0     C92354   7.224   5.201   4.835  0.0413 -0.9786 -0.1358
  670MOL0     C92355   7.319   5.303   4.806 -0.4102  0.3020 -0.3515
  670MOL0     C92356   7.401   5.297   4.689  0.4297 -0.7861  0.4724
  670MOL0     C92357   7.379   5.198   4.590 -0.7886 -0.3577  0.6180
  670MOL0     O92358   7.452   5.185   4.472  0.4108 -0.7710 -0.5564
  670MOL0     C92359   7.551   5.286   4.448  0.6680 -0.4194 -0.0080
  670MOL0     C92360   7.679   5.265   4.539  0.6805  0.6244 -0.3388
  670MOL0     C92361   7.804   5.213   4.468 -0.5104 -0.0981  0.1959
  670MOL0     C92362   7.929   5.209   4.567 -0.3291 -0.8474 -0.4948
  670MOL0     C92363   8.066   5.173   4.518 -0.4073  0.4483 -1.0578
  670MOL0     C92364   8.114   5.268   4.412 -0.0602  0.2462  0.4516
  670MOL0     C92365   8.246   5.214   4.348 -0.4769  0.8347 -0.2339
  670MOL0     C92366   8.275   5.277   4.212  0.3790  0.4082  0.3204
  670MOL0    Cl92367   8.411   5.393   4.220 -0.1563 -0.2560 -0.1260
  670MOL0     C92368   7.287   5.098   4.618  0.4227 -0.3031 -0.8829
  670MOL0     C92369   7.219   5.097   4.741  0.4626  0.0679  0.2079
  670MOL0     O92370   7.264   5.266   5.113  0.3841  0.5064  0.1295
  670MOL0     C92371   6.925   5.177   5.114  0.7001 -0.0302  0.0475
  670MOL0     C92372   6.812   5.181   5.198 -0.8322 -0.0737  0.4920
  670MOL0     N92373   6.203   4.912   5.132  0.4410 -0.3253  0.3655
  670MOL0     N92374   6.194   4.799   5.060 -0.0498  0.1241 -0.8486
  670MOL0     C92375   5.127   4.476   5.071  0.6524 -0.4027 -0.0145
  670MOL0     C92376   4.994   4.487   5.111 -0.1781 -1.0482  0.8330
  670MOL0     C92377   4.617   4.634   5.352  0.1104 -0.0417  0.7742
  670MOL0     C92378   4.531   4.698   5.257 -0.1576  0.1773  0.5950
  670MOL0     C92379   4.395   4.718   5.286 -0.1472  0.4626  0.0540
  670MOL0     C92380   4.340   4.673   5.410  0.6967 -0.7244  0.9287
  670MOL0     O92381   4.213   4.669   5.439 -0.2691  0.0073 -0.3072
  670MOL0     C92382   4.118   4.683   5.332  0.7024  0.1069  0.0672
  670MOL0     C92383   3.976   4.708   5.387  0.5077  0.0269  0.3784
  670MOL0     C92384   3.908   4.590   5.435 -0.3083  0.8727 -0.8482
  670MOL0     C92385   3.773   4.621   5.489  0.4952 -0.4683 -0.0809
  670MOL0     C92386   3.696   4.511   5.544  0.3872  0.0094  0.5708
  670MOL0     C92387   3.619   4.432   5.600 -0.1326  0.2610  0.5032
  670MOL0     C92388   4.414   4.602   5.497 -0.5656 -0.0629  0.1509
  670MOL0     C92389   4.555   4.591   5.476  0.7940 -1.0650  0.1217
  670MOL0     C92390   4.640   4.525   5.576 -0.7389 -0.3126 -0.4547
  670MOL0     H92391   5.031   4.533   5.446  1.8371  0.1965  0.9758
  670MOL0     H92392   5.257   4.516   5.380  2.2499 -1.0873 -2.4190
  670MOL0     H92393   5.427   4.421   5.299  0.0014  0.6786 -0.3212
  670MOL0     H92394   5.506   4.567   5.226 -0.3710  0.0504 -1.0621
  670MOL0     H92395   5.483   4.281   5.125  1.5251 -0.6004  1.3395
  670MOL0     H92396   5.549   4.406   5.021 -1.3744 -0.1889  0.3906
  670MOL0     H92397   5.676   4.275   5.269  1.6910 -0.8471 -0.3917
  670MOL0     H92398   5.739   4.303   5.108 -0.3299  0.9632  0.1343
  670MOL0     H92399   5.735   4.559   5.164 -1.9189  1.0020  1.8522
  670MOL0     H92400   5.694   4.509   5.314  1.6838  2.4310  0.0698
  670MOL0     H92401   5.939   4.350   5.270  2.2231  0.5168  0.4825
  670MOL0     H92402   5.924   4.491   5.368 -0.0741  3.0060 -1.2178
  670MOL0     H92403   5.941   4.508   5.071 -0.4192  1.0890 -0.0621
  670MOL0     H92404   5.967   4.643   5.192  0.8709  0.4988  0.0703
  670MOL0     H92405   6.127   4.385   5.158  1.4124  0.4615  0.0913
  670MOL0     H92406   6.148   4.503   5.297 -0.4825 -1.2849  0.5679
  670MOL0     H92407   6.318   4.504   5.086  0.4124 -0.9187 -1.0297
  670MOL0     H92408   6.198   4.555   4.986  1.5394  0.4417 -0.4678
  670MOL0     H92409   6.363   4.674   5.308 -0.8332 -1.9759 -0.6364
  670MOL0     H92410   6.301   4.927   5.447  0.2599 -0.7845  0.0088
  670MOL0     H92411   6.280   5.072   5.358  1.5450 -0.5674 -0.0938
  670MOL0     H92412   6.530   4.903   5.363  2.0636  0.4815 -0.5217
  670MOL0     H92413   6.514   5.059   5.268 -0.5587 -0.2961  0.2927
  670MOL0     H92414   6.482   5.168   5.498 -1.3068 -0.1244  2.7737
  670MOL0     H92415   6.515   5.004   5.567  0.0450  2.7116  1.3351
  670MOL0     H92416   6.700   5.136   5.605  0.6464  1.6391 -1.4177
  670MOL0     H92417   6.739   5.006   5.495  1.6254  1.2188  1.3315
  670MOL0     H92418   6.954   5.248   5.489 -0.5359  0.4289 -0.4161
  670MOL0     H92419   7.223   5.363   5.337 -0.4169 -0.2318 -2.1652
  670MOL0     H92420   7.282   5.201   5.351  2.4898  3.3540 -3.5201
  670MOL0     H92421   7.183   5.266   5.484  0.8045 -0.2238  0.5275
  670MOL0     H92422   7.330   5.381   4.880  1.5981 -3.8061  4.1820
  670MOL0     H92423   7.484   5.367   4.682  2.4641 -2.8562  2.1447
  670MOL0     H92424   7.569   5.287   4.340 -0.8686  1.4364 -0.3063
  670MOL0     H92425   7.500   5.383   4.455  1.4867 -0.0955  2.3402
  670MOL0     H92426   7.699   5.361   4.587 -0.6915  0.5765  0.3738
  670MOL0     H92427   7.661   5.190   4.617  2.3779  2.5621  2.1047
  670MOL0     H92428   7.825   5.287   4.390  0.2101  1.5791  1.8899
  670MOL0     H92429   7.779   5.115   4.427 -0.2059 -0.3461  0.5989
  670MOL0     H92430   7.905   5.133   4.642  1.7937 -1.7804 -0.6900
  670MOL0     H92431   7.938   5.307   4.613 -0.1754 -0.9993 -0.1951
  670MOL0     H92432   8.128   5.185   4.607 -1.2405  1.1898 -0.5507
  670MOL0     H92433   8.083   5.075   4.474  0.0987 -0.4833  1.1295
  670MOL0     H92434   8.103   5.374   4.437 -2.4911  0.4198 -1.0569
  670MOL0     H92435   8.039   5.265   4.333 -1.6958  0.7995  1.9069
  670MOL0     H92436   8.242   5.105   4.338 -0.6493  0.9696 -1.8886
  670MOL0     H92437   8.334   5.236   4.409  2.0868  1.6501 -3.8611
  670MOL0     H92438   8.191   5.328   4.164 -0.0656 -0.0328  0.6077
  670MOL0     H92439   8.300   5.197   4.141 -0.4754  2.6860 -2.7725
  670MOL0     H92440   7.261   5.023   4.545 -2.5549 -2.6684  2.2935
  670MOL0     H92441   7.137   5.032   4.768  1.0034 -0.4690  0.5872
  670MOL0     H92442   6.903   5.152   5.011 -1.5030 -1.1704  0.7461
  670MOL0     H92443   6.716   5.170   5.150  0.6471 -4.2792 -2.0669
  670MOL0     H92444   5.169   4.447   4.976 -0.6471 -2.4579 -0.0135
  670MOL0     H92445   4.913   4.486   5.040  1.5633 -0.8020 -1.2746
  670MOL0     H92446   4.567   4.732   5.160  1.5544 -4.9155 -0.8695
  670MOL0     H92447   4.333   4.771   5.215 -1.2944  0.3615  0.9540
  670MOL0     H92448   4.156   4.767   5.273  0.2070  1.7930  2.0453
  670MOL0     H92449   4.115   4.591   5.272 -0.7972 -1.3054  2.1651
  670MOL0     H92450   3.919   4.760   5.309  1.6761  2.1989  0.8985
  670MOL0     H92451   3.983   4.775   5.473  0.1835 -2.5373  2.5519
  670MOL0     H92452   3.904   4.511   5.359  0.8540 -0.4528  0.3922
  670MOL0     H92453   3.975   4.556   5.514 -2.4810  0.0657  0.7330
  670MOL0     H92454   3.716   4.654   5.402  2.0808 -1.6471 -1.6393
  670MOL0     H92455   3.775   4.703   5.561  2.7483 -0.5090 -0.0546
  670MOL0     H92456   3.559   4.353   5.640 -0.2791  0.4101  0.5810
  670MOL0     H92457   4.368   4.555   5.584 -0.5765 -1.3779 -0.5486
  670MOL0     H92458   4.720   4.467   5.530  0.1025 -0.4155  1.0469
  670MOL0     H92459   4.674   4.592   5.655  0.3726 -1.2433 -0.1196
  670MOL0     H92460   4.579   4.452   5.631  2.1439  0.3478  4.1526
  671MOL0     O92461   9.555   4.419   7.353  0.2146  0.5459  0.4174
  671MOL0     C92462   9.526   4.367   7.244  0.0551 -0.0310 -0.4644
  671MOL0     O92463   9.423   4.412   7.168 -0.6781  0.0775  0.4614
  671MOL0     C92464   9.321   4.478   7.221 -0.3510 -0.3258 -0.9284
  671MOL0     C92465   9.280   4.603   7.179  0.4984 -0.0759 -0.7094
  671MOL0     C92466   9.157   4.658   7.226 -0.6421 -0.0149  0.6447
  671MOL0     C92467   9.083   4.591   7.327 -0.0110 -0.4873  0.2276
  671MOL0     O92468   8.983   4.661   7.377 -0.2442  0.2876 -0.2857
  671MOL0     C92469   8.900   4.606   7.485  0.8281  0.0324  0.6522
  671MOL0     C92470   8.795   4.712   7.533 -0.3669  0.4525  0.1066
  671MOL0     C92471   8.674   4.714   7.437  0.1398 -0.9272 -0.0952
  671MOL0     C92472   8.584   4.835   7.452 -0.3789 -0.1484  0.3864
  671MOL0     C92473   8.520   4.832   7.592 -0.1246  0.3477 -1.3488
  671MOL0     C92474   8.407   4.932   7.606  0.1183 -0.9665  0.4071
  671MOL0     C92475   8.293   4.904   7.510  0.8079  0.2489 -0.7953
  671MOL0     C92476   8.170   4.987   7.553  0.1187  0.2435 -0.5527
  671MOL0     N92477   8.054   4.949   7.472  0.4846  0.0001 -0.3662
  671MOL0     C92478   8.036   5.001   7.348  0.0284 -0.5269 -0.1842
  671MOL0     C92479   7.905   4.980   7.317 -0.3284  0.5528 -0.3757
  671MOL0     C92480   7.834   5.056   7.201  0.4074  0.3413 -0.4667
  671MOL0     C92481   7.922   5.066   7.080 -0.6333  0.5732 -0.0082
  671MOL0     C92482   7.979   4.937   7.034 -0.9110 -0.5687 -0.7122
  671MOL0     C92483   7.998   4.922   6.878  0.2895  0.2830  0.7425
  671MOL0     O92484   7.891   4.966   6.803  0.0985 -1.1361 -0.3114
  671MOL0     C92485   7.898   4.926   6.676 -0.1297 -0.3842  0.8525
  671MOL0     C92486   7.879   4.790   6.639 -0.4759 -0.1497  0.2031
  671MOL0     C92487   7.894   4.754   6.502 -0.9254 -0.4424 -0.1518
  671MOL0     C92488   7.879   4.608   6.480  0.0605 -1.4995  0.4303
  671MOL0     C92489   7.927   4.849   6.402 -0.6040 -0.0699 -0.1805
  671MOL0     C92490   7.963   4.810   6.262 -0.0988  0.2267  0.3645
  671MOL0     O92491   7.942   4.682   6.219  0.4922 -0.6546 -0.3912
  671MOL0     C92492   7.972   4.647   6.084  0.0767 -0.0893 -0.9244
  671MOL0     C92493   7.875   4.589   6.004 -0.6630  0.0619  0.7067
  671MOL0     C92494   7.916   4.527   5.888 -0.1521 -0.5534 -0.3287
  671MOL0     C92495   8.037   4.555   5.826  1.0080  0.3777  0.4611
  671MOL0     O92496   8.082   4.514   5.702  0.5247  0.5860 -0.3940
  671MOL0     C92497   7.994   4.451   5.605 -0.1947  0.0036 -0.8486
  671MOL0     C92498   7.973   4.299   5.636  0.4360 -0.0058  0.2020
  671MOL0     C92499   7.917   4.236   5.511  0.2126  0.1722 -0.2307
  671MOL0     C92500   7.886   4.085   5.545 -0.4202 -0.9737 -0.0655
  671MOL0     C92501   7.890   3.986   5.431 -0.3201  0.4078  0.3244
  671MOL0     C92502   7.848   3.857   5.498  0.1663  1.1883  0.7365
  671MOL0     C92503   7.840   3.753   5.386 -0.0712  0.1598 -0.3562
  671MOL0     C92504   7.982   3.698   5.356  0.0334 -0.2475 -0.3047
  671MOL0    Cl92505   7.972   3.520   5.354  0.4024  0.2709  0.0866
  671MOL0     C92506   8.128   4.635   5.893  0.1540  0.3639  0.3728
  671MOL0     C92507   8.100   4.675   6.026  1.3095  0.2070 -0.1562
  671MOL0     O92508   8.015   4.894   6.188  1.0522 -0.5814 -0.6945
  671MOL0     C92509   7.957   4.981   6.446  0.1784 -0.7928 -0.3234
  671MOL0     C92510   7.937   5.012   6.580 -0.9493  0.1097  0.6214
  671MOL0     N92511   7.849   4.905   7.428 -1.1227 -0.5524  1.0944
  671MOL0     N92512   7.940   4.885   7.521  0.7366 -0.5687  0.1183
  671MOL0     C92513   9.126   4.466   7.368  0.1515  0.4159  0.0619
  671MOL0     C92514   9.244   4.419   7.321 -0.9378  0.3509 -0.6600
  671MOL0     C92515   9.594   4.237   7.191 -0.5562 -0.7006 -0.2808
  671MOL0     C92516   9.517   4.156   7.108  0.4184  0.0301  0.0134
  671MOL0     C92517   9.568   4.040   7.045  0.0577 -0.6587  0.9361
  671MOL0     C92518   9.702   4.001   7.063 -0.0323  0.3324  0.1257
  671MOL0     O92519   9.768   3.889   7.004 -0.0975 -0.8942  0.0142
  671MOL0     C92520   9.674   3.787   6.959 -0.0089 -0.0404 -0.1359
  671MOL0     C92521   9.651   3.800   6.809 -0.0034 -0.1057  0.8792
  671MOL0     C92522   9.590   3.673   6.742 -1.3100  0.5187 -0.0190
  671MOL0     C92523   9.571   3.677   6.589 -0.4461 -0.8187  0.0738
  671MOL0     C92524   9.708   3.679   6.524  0.5161 -0.7273 -0.0023
  671MOL0     C92525   9.806   3.692   6.457  0.3178  0.5817 -0.5244
  671MOL0     C92526   9.779   4.075   7.152  0.0165 -0.9138  0.1189
  671MOL0     C92527   9.727   4.187   7.217  0.3090  0.1141 -0.8035
  671MOL0     C92528   9.817   4.264   7.321 -0.0733 -0.6297  0.4491
  671MOL0     H92529   9.331   4.659   7.101 -2.7640 -0.5830 -3.4416
  671MOL0     H92530   9.124   4.755   7.190  3.6085  0.7919 -1.7428
  671MOL0     H92531   8.953   4.558   7.568  0.9660 -3.2212 -1.1390
  671MOL0     H92532   8.853   4.513   7.451 -1.0722  0.5568  1.6891
  671MOL0     H92533   8.760   4.716   7.636 -2.5070  0.3160 -0.5569
  671MOL0     H92534   8.849   4.805   7.512  1.3722 -0.3883  0.6957
  671MOL0     H92535   8.724   4.713   7.339  0.5852 -0.1289  0.1145
  671MOL0     H92536   8.622   4.619   7.450  0.6484 -1.4151 -1.3853
  671MOL0     H92537   8.641   4.927   7.437  0.4648 -0.6321  0.5852
  671MOL0     H92538   8.504   4.830   7.377 -0.3689 -1.4194  0.4334
  671MOL0     H92539   8.592   4.840   7.673 -0.4813  2.7649 -1.2089
  671MOL0     H92540   8.476   4.733   7.608  1.0071 -0.8153 -4.5713
  671MOL0     H92541   8.375   4.923   7.710 -0.3789  4.5342  1.0597
  671MOL0     H92542   8.450   5.031   7.587 -0.1283 -0.8442  0.4901
  671MOL0     H92543   8.260   4.800   7.522 -0.8187  1.0601  4.9274
  671MOL0     H92544   8.326   4.932   7.409  1.3974 -1.7253 -1.1928
  671MOL0     H92545   8.147   4.969   7.658  0.5677 -0.6732 -0.5945
  671MOL0     H92546   8.195   5.093   7.547  1.2970 -0.0841 -2.0165
  671MOL0     H92547   8.108   5.072   7.307 -1.4864  2.1875  1.5804
  671MOL0     H92548   7.802   5.157   7.229  1.2483  1.1675 -2.3669
  671MOL0     H92549   7.749   4.996   7.166  0.5273 -1.5171  2.1131
  671MOL0     H92550   7.867   5.114   6.998  0.5804  2.3920  0.1749
  671MOL0     H92551   8.004   5.133   7.107  1.3518 -1.0121 -1.8656
  671MOL0     H92552   8.071   4.908   7.084 -0.5003  2.7923  0.7328
  671MOL0     H92553   7.897   4.871   7.064 -0.6274 -1.1467 -1.2121
  671MOL0     H92554   8.086   4.974   6.840 -1.9798  1.2937 -3.8385
  671MOL0     H92555   8.015   4.814   6.866  0.8342  0.0357  3.2722
  671MOL0     H92556   7.871   4.711   6.713  3.3800 -1.4136 -0.4840
  671MOL0     H92557   7.787   4.595   6.423 -0.9404  4.0274  0.1418
  671MOL0     H92558   7.863   4.558   6.576 -0.6543  0.0398  1.1642
  671MOL0     H92559   7.974   4.577   6.437 -0.4093 -3.2333  0.5836
  671MOL0     H92560   7.775   4.567   6.040  0.1134 -2.6783  1.4022
  671MOL0     H92561   7.847   4.474   5.822 -1.9734 -0.5042  1.4617
  671MOL0     H92562   7.893   4.493   5.614 -1.5179 -3.1532  0.2410
  671MOL0     H92563   8.030   4.459   5.502 -0.8734  0.9103 -1.0282
  671MOL0     H92564   8.068   4.254   5.667  2.5104  3.6804 -0.2642
  671MOL0     H92565   7.899   4.288   5.716  0.2349 -1.7962 -0.1880
  671MOL0     H92566   7.992   4.245   5.431  1.6600  0.9243  1.1466
  671MOL0     H92567   7.825   4.284   5.478  0.3089 -0.9995 -2.3795
  671MOL0     H92568   7.781   4.099   5.574 -0.0734  0.4387  0.6099
  671MOL0     H92569   7.944   4.052   5.631 -0.2044  0.5498  0.4043
  671MOL0     H92570   7.820   4.021   5.355 -3.0674 -1.4032  1.8582
  671MOL0     H92571   7.985   3.975   5.377 -1.1505 -1.5357 -0.8053
  671MOL0     H92572   7.749   3.877   5.539 -2.1362  0.0841 -3.5900
  671MOL0     H92573   7.918   3.829   5.577 -1.3247  1.9388  2.3876
  671MOL0     H92574   7.789   3.781   5.293  3.5438 -3.6394 -3.9356
  671MOL0     H92575   7.775   3.675   5.428  1.0101  1.3825  4.0516
  671MOL0     H92576   8.063   3.725   5.425 -0.2730  0.3761 -0.1907
  671MOL0     H92577   8.002   3.730   5.253 -0.7687 -0.2349 -0.4586
  671MOL0     H92578   8.222   4.668   5.848 -0.9603  0.9257 -1.6773
  671MOL0     H92579   8.174   4.733   6.081  0.4394  1.9896 -0.7998
  671MOL0     H92580   7.988   5.062   6.381  2.2962 -0.3630  1.1114
  671MOL0     H92581   7.955   5.115   6.607 -0.6179  0.1155  0.3770
  671MOL0     H92582   9.077   4.396   7.435  1.9106 -0.1895  0.7811
  671MOL0     H92583   9.279   4.320   7.346  1.1783  1.2417  0.1514
  671MOL0     H92584   9.415   4.191   7.092  0.4354 -0.4865 -1.3691
  671MOL0     H92585   9.506   3.979   6.980 -1.2512 -0.7133  2.1718
  671MOL0     H92586   9.719   3.688   6.975 -0.7498 -0.5262 -0.9991
  671MOL0     H92587   9.586   3.791   7.024  1.4797  0.3798  1.9636
  671MOL0     H92588   9.753   3.806   6.769 -0.5785  2.2106 -0.3895
  671MOL0     H92589   9.599   3.890   6.776 -0.1903 -1.5071 -3.2511
  671MOL0     H92590   9.645   3.583   6.769  1.4924  1.4666 -2.1326
  671MOL0     H92591   9.493   3.658   6.791 -1.7721 -3.3145 -1.7433
  671MOL0     H92592   9.511   3.760   6.550  1.2729  1.0439  1.2010
  671MOL0     H92593   9.520   3.586   6.557 -2.4445  0.2423  0.0496
  671MOL0     H92594   9.887   3.701   6.388  1.1484  1.6928  0.5505
  671MOL0     H92595   9.875   4.040   7.187  0.4034  0.4582  0.5034
  671MOL0     H92596   9.920   4.229   7.333  0.6120  1.8398  2.6881
  671MOL0     H92597   9.823   4.364   7.275  4.3333 -1.4133 -1.2012
  671MOL0     H92598   9.789   4.287   7.424  1.3370 -2.3441  1.2596
  672MOL0     O92599   8.999   9.226   3.178  0.8816  0.1696  0.2712
  672MOL0     C92600   8.944   9.221   3.067 -0.3755  1.0724  0.0497
  672MOL0     O92601   9.014   9.247   2.947 -0.0168 -0.1252 -0.0400
  672MOL0     C92602   9.150   9.246   2.942 -1.0755 -0.7869 -0.5949
  672MOL0     C92603   9.206   9.332   2.850  0.2125 -0.6222 -0.0997
  672MOL0     C92604   9.339   9.313   2.822  0.5067 -0.8420  0.5884
  672MOL0     C92605   9.428   9.238   2.892 -0.8532 -0.2328 -0.1636
  672MOL0     O92606   9.565   9.249   2.844 -0.0254  0.4014  0.1422
  672MOL0     C92607   9.670   9.205   2.933 -0.3078 -0.3014 -0.0951
  672MOL0     C92608   9.694   9.317   3.019  0.3366 -0.2469 -0.0367
  672MOL0     C92609   9.793   9.289   3.129 -0.9348  0.3092 -0.0655
  672MOL0     C92610   9.936   9.237   3.088  0.0489  0.4223  1.0174
  672MOL0     C92611  10.048   9.227   3.197  0.3316  0.0225  0.2094
  672MOL0     C92612  10.031   9.092   3.280  0.3313  0.5118 -0.5569
  672MOL0     C92613  10.136   9.095   3.398 -0.0879  0.1930  0.5251
  672MOL0     C92614  10.257   9.002   3.357  0.2112 -0.1740  0.4460
  672MOL0     N92615  10.357   8.984   3.466 -0.9421  0.2068 -0.0220
  672MOL0     C92616  10.432   9.081   3.529 -0.0735 -0.5040  0.1399
  672MOL0     C92617  10.517   9.003   3.597 -0.6776 -1.2153 -0.2482
  672MOL0     C92618  10.625   9.060   3.689  0.1799  0.0470 -0.0731
  672MOL0     C92619  10.575   9.140   3.799 -0.5001  0.0002  0.3416
  672MOL0     C92620  10.677   9.160   3.920  0.4778 -0.4053  0.2932
  672MOL0     C92621  10.799   9.252   3.897  0.2186  1.0071 -0.3974
  672MOL0     O92622  10.871   9.238   4.020  0.4839 -0.6158 -0.0446
  672MOL0     C92623  10.867   9.347   4.109 -0.3999  0.8575  0.1780
  672MOL0     C92624  10.771   9.441   4.118 -0.2833  0.4475 -0.4487
  672MOL0     C92625  10.775   9.540   4.211 -0.5540  0.2684 -0.4021
  672MOL0     C92626  10.668   9.638   4.225  0.1110 -0.1860  0.0788
  672MOL0     C92627  10.889   9.546   4.300  0.1971  0.3611 -0.5694
  672MOL0     C92628  10.911   9.661   4.393  0.5458 -0.4798 -0.2193
  672MOL0     O92629  10.976   9.631   4.510  0.7734  0.4943  0.4164
  672MOL0     C92630  11.011   9.724   4.597 -0.6953 -0.8896  0.4547
  672MOL0     C92631  10.928   9.809   4.670 -0.2580 -0.3917  0.6774
  672MOL0     C92632  10.977   9.889   4.774 -0.5041 -1.0847  0.3152
  672MOL0     C92633  11.114   9.892   4.804 -0.1389  0.3982 -0.2304
  672MOL0     O92634  11.162   9.976   4.907  0.4666  0.1565 -0.2792
  672MOL0     C92635  11.293  10.033   4.906 -1.0447  0.4473  1.0949
  672MOL0     C92636  11.310  10.162   4.827 -0.5892  0.5580  0.0989
  672MOL0     C92637  11.210  10.265   4.856 -0.2496 -0.0027 -0.2582
  672MOL0     C92638  11.241  10.402   4.805  0.1247  0.5965 -0.2736
  672MOL0     C92639  11.113  10.478   4.792  0.6464 -0.0818 -0.7727
  672MOL0     C92640  11.151  10.625   4.783  0.5017 -0.3187  0.1043
  672MOL0     C92641  11.023  10.700   4.739 -1.3752 -0.0761  0.0484
  672MOL0     C92642  11.060  10.848   4.719  0.1516 -0.4060  0.5538
  672MOL0    Cl92643  11.142  10.871   4.560  0.2273 -0.5634 -0.0956
  672MOL0     C92644  11.200   9.805   4.732  0.3862 -0.4168  0.2377
  672MOL0     C92645  11.148   9.723   4.634  0.3981 -0.0333  0.2444
  672MOL0     O92646  10.875   9.773   4.365 -0.3331  0.4428  0.0151
  672MOL0     C92647  10.986   9.444   4.285 -0.5527  0.3285  0.1392
  672MOL0     C92648  10.970   9.339   4.199 -0.1939 -0.0743 -0.4701
  672MOL0     N92649  10.491   8.866   3.581 -0.3384 -0.0337 -0.3853
  672MOL0     N92650  10.383   8.861   3.509 -0.9712 -0.2613  0.6184
  672MOL0     C92651   9.367   9.161   2.996  0.5562 -0.0122 -0.4952
  672MOL0     C92652   9.229   9.158   3.014  0.8187  0.5443 -0.2023
  672MOL0     C92653   8.802   9.202   3.068  0.8402  0.3866 -0.3883
  672MOL0     C92654   8.745   9.127   3.172 -1.0513  0.0773 -0.0390
  672MOL0     C92655   8.611   9.107   3.177  0.9237  0.1211  0.1804
  672MOL0     C92656   8.517   9.161   3.087 -0.3430 -0.3649  0.1276
  672MOL0     O92657   8.390   9.143   3.121  1.5370  0.0298 -0.9140
  672MOL0     C92658   8.282   9.180   3.038 -0.0896  0.3912 -0.0883
  672MOL0     C92659   8.216   9.295   3.119 -0.6574 -0.0475 -0.5145
  672MOL0     C92660   8.108   9.389   3.054 -0.3391 -0.6357  0.2565
  672MOL0     C92661   8.177   9.503   2.984 -0.2164 -0.5733 -0.0343
  672MOL0     C92662   8.094   9.608   2.936  0.2687  0.4170  0.0461
  672MOL0     C92663   8.035   9.704   2.902  1.1427  0.4167 -0.8600
  672MOL0     C92664   8.569   9.235   2.973 -0.3312  0.3644  0.1660
  672MOL0     C92665   8.711   9.249   2.969 -0.5682 -0.0214  0.6554
  672MOL0     C92666   8.762   9.338   2.861 -0.0034  0.0208 -0.3684
  672MOL0     H92667   9.160   9.409   2.788  1.8189  1.5032  1.1959
  672MOL0     H92668   9.390   9.385   2.758  0.8262 -0.4202  1.3105
  672MOL0     H92669   9.760   9.177   2.878 -0.4932 -0.5603 -0.2746
  672MOL0     H92670   9.631   9.117   2.985  1.2417  0.5000  2.5722
  672MOL0     H92671   9.722   9.404   2.960 -1.6325  0.4937  0.0368
  672MOL0     H92672   9.597   9.337   3.067  1.0443  0.2203  1.2596
  672MOL0     H92673   9.811   9.385   3.178 -2.8512 -0.9140  3.4044
  672MOL0     H92674   9.745   9.218   3.197  0.2281  0.1552  0.6046
  672MOL0     H92675   9.928   9.136   3.049  1.8720  0.7910 -0.4921
  672MOL0     H92676   9.976   9.292   3.002 -1.1181  1.1184  0.9068
  672MOL0     H92677  10.045   9.310   3.269  0.0993  0.5299 -0.3772
  672MOL0     H92678  10.146   9.229   3.148 -0.0756 -3.0258 -0.9401
  672MOL0     H92679   9.928   9.088   3.316  0.6402  2.1954  0.6096
  672MOL0     H92680  10.048   8.996   3.229 -0.4265 -3.6319  5.7884
  672MOL0     H92681  10.089   9.048   3.485  0.3677  1.3848  1.4404
  672MOL0     H92682  10.169   9.199   3.410  0.9895  0.0611 -0.9721
  672MOL0     H92683  10.220   8.906   3.318  0.7100 -0.1458 -0.1108
  672MOL0     H92684  10.308   9.043   3.269 -0.6143 -1.0948 -0.5030
  672MOL0     H92685  10.435   9.189   3.531  0.2351 -0.4842 -0.9979
  672MOL0     H92686  10.700   9.122   3.639  0.4141 -0.4911 -0.3914
  672MOL0     H92687  10.677   8.973   3.730  1.9730  0.5283 -1.2162
  672MOL0     H92688  10.528   9.233   3.765 -0.6999 -0.3924 -0.4712
  672MOL0     H92689  10.499   9.077   3.848  0.2890 -0.1514  1.4157
  672MOL0     H92690  10.614   9.208   3.995  0.5904  0.4779 -0.1679
  672MOL0     H92691  10.711   9.067   3.967  0.9587  0.1948  1.1620
  672MOL0     H92692  10.856   9.209   3.814  2.3131 -0.0618  1.4787
  672MOL0     H92693  10.748   9.348   3.883 -1.4184  0.2904  0.4187
  672MOL0     H92694  10.689   9.442   4.047  0.8493 -1.7716 -1.8801
  672MOL0     H92695  10.692   9.733   4.178  2.2243 -1.2726 -1.2043
  672MOL0     H92696  10.644   9.659   4.330 -1.0389 -2.1003  0.2460
  672MOL0     H92697  10.573   9.596   4.190 -0.0800  1.1093 -1.0304
  672MOL0     H92698  10.828   9.806   4.628  0.1776 -1.8427 -0.3135
  672MOL0     H92699  10.910   9.953   4.831  2.0580  2.0027  0.1135
  672MOL0     H92700  11.305  10.051   5.013  2.6268  2.1088  0.5741
  672MOL0     H92701  11.372   9.961   4.882  1.7214  2.7961  2.4666
  672MOL0     H92702  11.412  10.203   4.830 -0.9213  1.3304  1.8395
  672MOL0     H92703  11.291  10.128   4.725  2.9384 -0.9981 -0.1894
  672MOL0     H92704  11.196  10.285   4.962 -2.7316 -0.5893 -0.4238
  672MOL0     H92705  11.115  10.220   4.826 -0.2603  1.0909 -1.9945
  672MOL0     H92706  11.292  10.398   4.708  1.5699 -2.3534  0.4739
  672MOL0     H92707  11.305  10.459   4.873  1.4854 -1.4808  0.2759
  672MOL0     H92708  11.039  10.452   4.715 -4.8846  3.2461  2.7800
  672MOL0     H92709  11.059  10.473   4.887  1.4980 -0.3673 -0.2950
  672MOL0     H92710  11.228  10.640   4.707  1.4806 -0.2709  1.0806
  672MOL0     H92711  11.181  10.660   4.882 -1.1870  2.6122 -0.2990
  672MOL0     H92712  10.945  10.703   4.815 -1.0595  0.6164  0.3476
  672MOL0     H92713  10.986  10.664   4.642  1.3552 -0.7771 -0.8337
  672MOL0     H92714  11.121  10.876   4.805 -1.9881 -1.6578  2.6112
  672MOL0     H92715  10.970  10.910   4.721 -2.1947 -3.5769  1.1329
  672MOL0     H92716  11.303   9.794   4.766  0.4590  1.4394  0.7667
  672MOL0     H92717  11.208   9.647   4.585 -0.9141 -1.0730  0.2223
  672MOL0     H92718  11.067   9.434   4.357  0.0296 -0.1109 -0.5724
  672MOL0     H92719  11.037   9.254   4.203  1.5305  1.2482  2.0079
  672MOL0     H92720   9.425   9.082   3.043 -1.7458 -0.5468  1.6953
  672MOL0     H92721   9.181   9.077   3.068  2.2803 -0.9697 -1.0687
  672MOL0     H92722   8.815   9.092   3.247 -0.0308  3.6989  0.9275
  672MOL0     H92723   8.569   9.061   3.266  0.2665  1.4106  0.5653
  672MOL0     H92724   8.309   9.200   2.934 -1.3857  0.5628 -0.4040
  672MOL0     H92725   8.218   9.092   3.036  0.1085  0.2264 -2.6912
  672MOL0     H92726   8.297   9.361   3.154 -0.8710  2.1940 -3.7382
  672MOL0     H92727   8.173   9.256   3.211 -0.6291 -0.4454 -0.6704
  672MOL0     H92728   8.047   9.346   2.974 -2.1807  1.3077  0.5411
  672MOL0     H92729   8.035   9.422   3.128  0.5017  0.5778  0.5835
  672MOL0     H92730   8.241   9.471   2.901  1.0466  3.5673 -0.9041
  672MOL0     H92731   8.234   9.547   3.066 -0.7727 -2.7161  1.5861
  672MOL0     H92732   7.971   9.789   2.894  1.5315  0.6579 -1.4704
  672MOL0     H92733   8.513   9.292   2.900  1.6255  1.3851 -0.5928
  672MOL0     H92734   8.803   9.283   2.775 -0.7899  0.5126 -1.0708
  672MOL0     H92735   8.675   9.396   2.828 -1.8174 -2.2402  0.2222
  672MOL0     H92736   8.832   9.405   2.911  0.2294  0.3385 -1.0994
  673MOL0     O92737   4.494   0.246   4.373 -0.0842  0.3192  0.1543
  673MOL0     C92738   4.386   0.194   4.321  0.2007  0.8586  0.2529
  673MOL0     O92739   4.346   0.065   4.337  0.1591  0.2855 -0.0774
  673MOL0     C92740   4.438  -0.016   4.416 -0.1964 -0.3430  0.3158
  673MOL0     C92741   4.485   0.008   4.548 -0.1053 -1.1494  0.5212
  673MOL0     C92742   4.582  -0.072   4.611 -0.2872  0.1649 -0.2048
  673MOL0     C92743   4.630  -0.193   4.550  0.2223 -0.1828  0.1733
  673MOL0     O92744   4.728  -0.262   4.625  0.0609  0.3083 -0.6028
  673MOL0     C92745   4.734  -0.401   4.587 -1.1811  0.5038  0.0728
  673MOL0     C92746   4.758  -0.490   4.707 -0.4351  0.0006 -0.0541
  673MOL0     C92747   4.887  -0.473   4.785 -0.2701 -0.7048  0.3132
  673MOL0     C92748   4.885  -0.553   4.907  0.2155  0.3393 -0.3661
  673MOL0     C92749   4.792  -0.494   5.018  0.0540  0.1259  0.2404
  673MOL0     C92750   4.868  -0.526   5.160  0.7771  0.2299  0.5907
  673MOL0     C92751   4.791  -0.447   5.261  0.9616  0.5863 -0.1849
  673MOL0     C92752   4.861  -0.448   5.398  0.0119 -0.3468 -0.8956
  673MOL0     N92753   4.776  -0.378   5.494  0.2389  0.2273  0.3665
  673MOL0     C92754   4.738  -0.247   5.493 -0.1401 -0.4009  0.2529
  673MOL0     C92755   4.647  -0.243   5.593  1.2926 -1.0470  0.2905
  673MOL0     C92756   4.570  -0.123   5.633  0.1063 -0.2326 -0.2178
  673MOL0     C92757   4.424  -0.129   5.593  0.3769  0.1809  0.1149
  673MOL0     C92758   4.405  -0.086   5.449  0.6908  0.2270 -0.1975
  673MOL0     C92759   4.269  -0.110   5.397  0.0036 -0.4181 -0.1297
  673MOL0     O92760   4.167  -0.060   5.493 -0.1713 -0.5591 -0.7643
  673MOL0     C92761   4.034  -0.102   5.484  0.6467  0.5020 -0.2918
  673MOL0     C92762   3.952  -0.079   5.598 -0.3261 -0.0262 -0.0531
  673MOL0     C92763   3.818  -0.110   5.608 -0.7031 -0.2293 -0.4153
  673MOL0     C92764   3.745  -0.068   5.738  0.0731  0.1218 -0.2530
  673MOL0     C92765   3.754  -0.176   5.492  0.1978 -0.2521 -0.5745
  673MOL0     C92766   3.609  -0.217   5.479 -0.5306  0.6002 -0.1083
  673MOL0     O92767   3.567  -0.270   5.361 -0.7437  0.7955  0.6363
  673MOL0     C92768   3.437  -0.315   5.362  0.9506  0.4503  0.0416
  673MOL0     C92769   3.397  -0.433   5.415 -1.1450  0.3774  0.0070
  673MOL0     C92770   3.263  -0.468   5.409  0.6920 -0.5391 -0.1088
  673MOL0     C92771   3.164  -0.389   5.341  0.2071 -0.1608 -0.1562
  673MOL0     O92772   3.027  -0.426   5.338  0.2991  0.7216  0.0657
  673MOL0     C92773   2.931  -0.321   5.321  0.0397 -0.6052  0.1402
  673MOL0     C92774   2.908  -0.246   5.452 -0.4430  0.2949  0.7214
  673MOL0     C92775   2.856  -0.350   5.551  0.0932 -0.5528 -0.1130
  673MOL0     C92776   2.773  -0.291   5.666 -1.2478  0.3286 -0.6058
  673MOL0     C92777   2.750  -0.389   5.787  0.1242  0.3587 -0.3582
  673MOL0     C92778   2.677  -0.522   5.757  0.8719 -0.5048  0.5867
  673MOL0     C92779   2.635  -0.586   5.884  0.3066  0.3602  0.8489
  673MOL0     C92780   2.746  -0.615   5.977 -1.0018 -0.5408 -0.4164
  673MOL0    Cl92781   2.704  -0.701   6.126  0.3019  0.1342  0.2536
  673MOL0     C92782   3.219  -0.278   5.269 -0.5686  1.1701  0.2015
  673MOL0     C92783   3.347  -0.238   5.293  0.6501 -0.5724 -0.3037
  673MOL0     O92784   3.540  -0.181   5.573 -0.2212  0.2828 -0.0620
  673MOL0     C92785   3.834  -0.194   5.380 -0.3314 -0.1118  0.4516
  673MOL0     C92786   3.972  -0.164   5.381 -0.1887  0.3455 -0.7163
  673MOL0     N92787   4.635  -0.364   5.650 -0.0302  0.5666  0.0095
  673MOL0     N92788   4.720  -0.444   5.597  0.1247 -0.3334  0.4906
  673MOL0     C92789   4.590  -0.216   4.418 -0.6293  1.0053 -0.5992
  673MOL0     C92790   4.498  -0.123   4.354 -0.6070 -0.0159  0.4329
  673MOL0     C92791   4.304   0.291   4.239 -0.1423 -0.0864 -0.0326
  673MOL0     C92792   4.361   0.415   4.228  0.0279  0.7240  1.3844
  673MOL0     C92793   4.314   0.509   4.135  0.2753 -0.4381 -0.6700
  673MOL0     C92794   4.197   0.486   4.064  0.1841  0.1755  0.3256
  673MOL0     O92795   4.146   0.571   3.971 -0.7058 -0.4059 -0.5331
  673MOL0     C92796   4.190   0.704   3.955 -1.0690 -0.6172 -0.1906
  673MOL0     C92797   4.135   0.772   3.833 -0.0793 -0.4151 -0.2715
  673MOL0     C92798   4.127   0.676   3.720 -1.3254  0.4621 -0.2713
  673MOL0     C92799   4.061   0.727   3.590  0.4797  0.1826 -0.0784
  673MOL0     C92800   4.158   0.812   3.512 -0.1349 -0.2271  0.1767
  673MOL0     C92801   4.242   0.887   3.461  0.2628  0.2891  0.4985
  673MOL0     C92802   4.134   0.360   4.082 -0.3236 -0.0183 -0.8380
  673MOL0     C92803   4.188   0.259   4.162 -0.2919 -0.4399 -0.4790
  673MOL0     C92804   4.124   0.125   4.167  0.1837  0.7337  0.5329
  673MOL0     H92805   4.447   0.096   4.597  2.0036  0.4398 -0.5345
  673MOL0     H92806   4.613  -0.050   4.713 -1.0279 -0.6591  0.2173
  673MOL0     H92807   4.815  -0.406   4.513 -0.5171  6.0412 -0.0197
  673MOL0     H92808   4.643  -0.443   4.543  0.1404 -2.3490 -0.1722
  673MOL0     H92809   4.665  -0.483   4.766 -1.1489 -0.6879 -1.0691
  673MOL0     H92810   4.762  -0.591   4.665 -0.1560 -0.8964  1.9943
  673MOL0     H92811   4.964  -0.517   4.721 -0.3491 -1.8449  0.9658
  673MOL0     H92812   4.916  -0.368   4.796  0.1558 -0.3939 -2.9557
  673MOL0     H92813   4.851  -0.654   4.882 -0.1610  0.6434 -1.1418
  673MOL0     H92814   4.989  -0.566   4.941 -0.1314  1.1309  1.0714
  673MOL0     H92815   4.691  -0.534   5.013  0.0501  0.1269  0.3027
  673MOL0     H92816   4.790  -0.385   5.021  0.8349  0.1359  1.7291
  673MOL0     H92817   4.877  -0.633   5.183 -0.2773 -0.3903 -1.6236
  673MOL0     H92818   4.975  -0.504   5.158  0.8203  0.0167 -1.0807
  673MOL0     H92819   4.687  -0.481   5.258  1.1155 -0.1358  1.4701
  673MOL0     H92820   4.782  -0.346   5.222 -5.2632  0.0239 -1.3325
  673MOL0     H92821   4.869  -0.552   5.432 -0.4357  0.0357  0.4568
  673MOL0     H92822   4.958  -0.399   5.389  1.0808 -2.1957 -0.0661
  673MOL0     H92823   4.771  -0.164   5.431  3.1301  0.6643  3.1100
  673MOL0     H92824   4.620  -0.036   5.590 -1.2125 -0.4039 -2.2287
  673MOL0     H92825   4.576  -0.126   5.742  0.3460 -2.9120 -0.2281
  673MOL0     H92826   4.388  -0.231   5.604 -2.7067  1.0479 -0.8744
  673MOL0     H92827   4.359  -0.065   5.654 -1.8685  0.4629 -2.3720
  673MOL0     H92828   4.436   0.018   5.441  1.7066 -0.2036 -2.8189
  673MOL0     H92829   4.468  -0.135   5.374  1.8881  1.1901  0.1471
  673MOL0     H92830   4.259  -0.062   5.299  2.8152 -0.6054 -0.6060
  673MOL0     H92831   4.259  -0.217   5.377 -0.6326 -0.0318 -2.0453
  673MOL0     H92832   3.990  -0.034   5.689  0.5419  1.3539 -1.0606
  673MOL0     H92833   3.808  -0.011   5.807  1.1395  0.9388 -1.8585
  673MOL0     H92834   3.697  -0.152   5.790 -0.6438 -0.0032 -1.1027
  673MOL0     H92835   3.663  -0.006   5.700  0.3375 -0.7556 -2.4137
  673MOL0     H92836   3.471  -0.490   5.472 -0.6242  1.1844  0.1582
  673MOL0     H92837   3.227  -0.558   5.456  1.3745  0.1968  1.9522
  673MOL0     H92838   2.959  -0.245   5.247 -1.7322  0.4415  0.4963
  673MOL0     H92839   2.839  -0.368   5.286 -1.7979  1.3640  1.9957
  673MOL0     H92840   2.996  -0.192   5.489  0.3033 -0.7985  0.5805
  673MOL0     H92841   2.825  -0.179   5.429 -0.1100 -0.2437 -2.4937
  673MOL0     H92842   2.934  -0.406   5.603 -0.5561 -1.9717 -0.6153
  673MOL0     H92843   2.793  -0.422   5.499 -0.5320  0.2393 -0.4639
  673MOL0     H92844   2.683  -0.247   5.622 -1.8290  0.6771  0.8581
  673MOL0     H92845   2.832  -0.207   5.703 -0.6602 -1.2513  2.4375
  673MOL0     H92846   2.849  -0.404   5.831 -0.3996 -2.5035  0.0183
  673MOL0     H92847   2.688  -0.326   5.853 -1.6042 -1.5916 -0.0052
  673MOL0     H92848   2.754  -0.586   5.712  1.1265 -0.0302  0.3437
  673MOL0     H92849   2.588  -0.512   5.695  0.8303 -0.1309  0.7041
  673MOL0     H92850   2.578  -0.675   5.860 -1.3709  1.1340  1.7755
  673MOL0     H92851   2.558  -0.520   5.925 -0.8202 -0.3805 -0.0359
  673MOL0     H92852   2.800  -0.523   6.003  2.1747 -1.4533 -3.0990
  673MOL0     H92853   2.825  -0.672   5.928 -1.5232 -1.6682  0.0336
  673MOL0     H92854   3.165  -0.206   5.208  0.1375  2.5937  1.2077
  673MOL0     H92855   3.386  -0.143   5.258 -2.5345  0.5052 -1.2266
  673MOL0     H92856   3.799  -0.232   5.284 -0.4127  0.5545  0.2084
  673MOL0     H92857   4.021  -0.191   5.288  3.1064 -1.3204  1.2871
  673MOL0     H92858   4.624  -0.307   4.370  0.7747  0.7891  0.7192
  673MOL0     H92859   4.464  -0.134   4.251  0.0287 -1.3553  0.3382
  673MOL0     H92860   4.448   0.445   4.285 -0.5906  0.4176  2.5385
  673MOL0     H92861   4.362   0.606   4.125  1.6944 -1.1224 -0.7869
  673MOL0     H92862   4.166   0.773   4.036 -2.2429  1.4046 -2.1675
  673MOL0     H92863   4.299   0.690   3.951 -1.1210 -2.8881  2.5552
  673MOL0     H92864   4.204   0.854   3.811 -0.0225 -0.7587 -1.4400
  673MOL0     H92865   4.034   0.808   3.853  0.2122  0.1225  0.2533
  673MOL0     H92866   4.226   0.636   3.698 -0.6513  1.2656  1.1291
  673MOL0     H92867   4.054   0.596   3.736 -0.7111  0.1558  1.1563
  673MOL0     H92868   3.975   0.783   3.626  0.7911  0.1697  0.7071
  673MOL0     H92869   4.030   0.639   3.534 -0.4222 -1.2492  2.5034
  673MOL0     H92870   4.299   0.954   3.400  1.9149  0.2652  1.9260
  673MOL0     H92871   4.043   0.349   4.023  1.0459 -0.0492 -3.0680
  673MOL0     H92872   4.186   0.058   4.107 -0.1192  0.1965  0.8167
  673MOL0     H92873   4.123   0.094   4.272  0.1450 -0.8886  0.0825
  673MOL0     H92874   4.023   0.121   4.125 -0.4106  2.5981  1.6543
  674MOL0     O92875   8.361   1.369  11.264  0.2136  0.2523 -1.2481
  674MOL0     C92876   8.342   1.461  11.341 -0.3368  0.1205  0.0746
  674MOL0     O92877   8.229   1.540  11.356 -0.2874 -0.3979 -0.2575
  674MOL0     C92878   8.133   1.526  11.262 -0.8929 -0.1147  0.3313
  674MOL0     C92879   8.153   1.506  11.129  0.0919  0.0234  0.1641
  674MOL0     C92880   8.044   1.506  11.032  0.0958  0.0845 -0.9031
  674MOL0     C92881   7.916   1.534  11.079  0.6567 -0.3094  0.3239
  674MOL0     O92882   7.805   1.533  11.001  0.0218  0.3589 -0.8107
  674MOL0     C92883   7.817   1.555  10.866  0.5851 -0.1882  0.2071
  674MOL0     C92884   7.671   1.572  10.811 -0.2302 -0.1548  0.6029
  674MOL0     C92885   7.586   1.459  10.850  0.4381 -0.7512 -0.0437
  674MOL0     C92886   7.453   1.501  10.799  0.9903 -0.2300 -0.1510
  674MOL0     C92887   7.358   1.386  10.805 -0.6921 -0.0416 -0.1658
  674MOL0     C92888   7.210   1.427  10.775  0.1729 -0.1568 -0.1830
  674MOL0     C92889   7.098   1.316  10.805  0.4909 -0.3147  0.0970
  674MOL0     C92890   7.031   1.345  10.947  0.1277 -0.2420 -0.0703
  674MOL0     N92891   7.126   1.322  11.061  0.2414  0.8280  0.3790
  674MOL0     C92892   7.169   1.195  11.101 -0.5016  0.5344  0.2053
  674MOL0     C92893   7.260   1.222  11.197  0.2205 -0.3007  0.3176
  674MOL0     C92894   7.349   1.123  11.263  0.6319 -0.1257 -0.1184
  674MOL0     C92895   7.475   1.094  11.174  0.1966 -0.8704  0.0773
  674MOL0     C92896   7.590   1.197  11.184 -0.3926  0.4664  0.3367
  674MOL0     C92897   7.697   1.177  11.068 -0.0639  0.7871  0.1977
  674MOL0     O92898   7.757   1.039  11.087  1.0436 -1.0163  0.4814
  674MOL0     C92899   7.873   1.018  11.161  0.5773  0.2089  0.6803
  674MOL0     C92900   7.919   0.892  11.180  0.1736  0.0715  0.2091
  674MOL0     C92901   8.045   0.868  11.245  0.7013  0.1718 -0.4027
  674MOL0     C92902   8.084   0.723  11.263  0.2452  0.0951  0.4881
  674MOL0     C92903   8.115   0.970  11.308  0.5008  0.5624  0.3380
  674MOL0     C92904   8.239   0.963  11.390 -0.3020  0.5362  0.1805
  674MOL0     O92905   8.238   1.053  11.496 -0.3935 -1.0031 -0.1734
  674MOL0     C92906   8.357   1.072  11.566 -0.3425  0.1192 -0.1134
  674MOL0     C92907   8.478   1.107  11.503  0.3738  0.2010  0.8231
  674MOL0     C92908   8.588   1.142  11.588 -0.9498 -0.3843  0.0180
  674MOL0     C92909   8.584   1.141  11.731 -0.3685  0.0007  0.3486
  674MOL0     O92910   8.690   1.182  11.819  0.4391  0.7009  0.6644
  674MOL0     C92911   8.742   1.090  11.923 -0.2326  0.4651  0.8769
  674MOL0     C92912   8.813   0.969  11.874  0.2372  0.8779  0.6590
  674MOL0     C92913   8.866   0.859  11.975  0.7977  1.0825 -0.5265
  674MOL0     C92914   8.762   0.747  11.976  0.0007  0.0020  0.0651
  674MOL0     C92915   8.819   0.635  12.061 -0.2442 -0.0411  0.4158
  674MOL0     C92916   8.817   0.657  12.217  0.2343  1.0949 -0.0227
  674MOL0     C92917   8.890   0.544  12.296 -0.8646  0.8305 -0.7770
  674MOL0     C92918   8.874   0.561  12.449  0.1145  0.3071  0.1017
  674MOL0    Cl92919   8.975   0.448  12.542  0.0027 -0.0257  0.1340
  674MOL0     C92920   8.456   1.109  11.787  0.2309 -0.7369 -0.2793
  674MOL0     C92921   8.352   1.077  11.703  0.5837 -0.1327 -0.9949
  674MOL0     O92922   8.315   0.871  11.376 -0.5081 -1.1978  0.2206
  674MOL0     C92923   8.048   1.096  11.309 -0.0850 -0.0853  1.1363
  674MOL0     C92924   7.937   1.124  11.230 -0.3597 -0.4905 -0.3408
  674MOL0     N92925   7.259   1.366  11.224 -0.7118 -0.0319  0.6337
  674MOL0     N92926   7.169   1.420  11.138 -0.8710 -0.1962 -0.3218
  674MOL0     C92927   7.890   1.544  11.217  0.3357 -0.0653  1.1680
  674MOL0     C92928   7.998   1.544  11.301 -0.2098  1.0238  0.1488
  674MOL0     C92929   8.455   1.489  11.443 -0.6666  0.4479  0.5483
  674MOL0     C92930   8.431   1.484  11.583  0.6370 -0.3920  0.3025
  674MOL0     C92931   8.534   1.475  11.680  0.3169 -0.1287  0.7707
  674MOL0     C92932   8.665   1.480  11.625 -0.1700 -0.0373 -0.1854
  674MOL0     O92933   8.781   1.501  11.701  0.2600 -0.1105  0.9981
  674MOL0     C92934   8.772   1.533  11.839 -0.6446 -0.5392  0.2864
  674MOL0     C92935   8.907   1.510  11.900 -0.4454 -0.8453 -0.7707
  674MOL0     C92936   9.017   1.605  11.847  0.6113 -0.1189 -0.3318
  674MOL0     C92937   9.159   1.558  11.881 -0.4324 -0.1863  0.0273
  674MOL0     C92938   9.258   1.661  11.870  0.9822 -0.4927 -0.2246
  674MOL0     C92939   9.343   1.742  11.863  0.0182  0.8256  0.8940
  674MOL0     C92940   8.686   1.502  11.491  0.3673 -0.2069  0.1210
  674MOL0     C92941   8.583   1.498  11.393 -0.6190 -0.1834 -0.3555
  674MOL0     C92942   8.615   1.505  11.243  0.0646 -0.0553 -0.2064
  674MOL0     H92943   8.247   1.497  11.075 -1.6268 -0.3802 -2.9952
  674MOL0     H92944   8.069   1.477  10.931 -0.5304 -0.0970 -1.0079
  674MOL0     H92945   7.878   1.477  10.819  0.4287  0.5498 -1.2752
  674MOL0     H92946   7.883   1.640  10.850  0.2788 -0.1643 -1.0358
  674MOL0     H92947   7.634   1.671  10.839 -1.0408  0.0391 -1.0633
  674MOL0     H92948   7.674   1.583  10.702 -0.5787  2.7891  0.7970
  674MOL0     H92949   7.606   1.361  10.806 -3.1548 -2.4112  1.5855
  674MOL0     H92950   7.575   1.438  10.956  0.4543 -2.4296 -0.3500
  674MOL0     H92951   7.418   1.574  10.873  4.6317  1.2243  0.3318
  674MOL0     H92952   7.443   1.544  10.699 -2.2506  0.2900  0.2675
  674MOL0     H92953   7.359   1.343  10.906  0.5807  2.8675  1.1920
  674MOL0     H92954   7.386   1.316  10.726  0.6374  0.0949  0.1540
  674MOL0     H92955   7.193   1.509  10.845 -2.0792 -2.5150  2.2377
  674MOL0     H92956   7.198   1.467  10.673  2.1229  1.3223  0.0901
  674MOL0     H92957   7.145   1.217  10.797  3.2720  0.8978  0.2918
  674MOL0     H92958   7.016   1.311  10.733  1.2248 -0.6423 -0.7411
  674MOL0     H92959   7.001   1.450  10.952  5.5130  1.9760 -4.4279
  674MOL0     H92960   6.944   1.280  10.965 -2.8548  3.6322  0.9452
  674MOL0     H92961   7.153   1.101  11.048 -1.1297  0.7638 -0.0146
  674MOL0     H92962   7.287   1.034  11.279 -1.7626  1.6415  1.1973
  674MOL0     H92963   7.392   1.151  11.360 -2.8398  3.9732  0.5627
  674MOL0     H92964   7.516   0.994  11.193 -1.4438 -1.7678 -0.8821
  674MOL0     H92965   7.439   1.091  11.071 -2.4674 -1.6379  0.9615
  674MOL0     H92966   7.539   1.294  11.175 -0.8084  0.0586 -2.4165
  674MOL0     H92967   7.640   1.182  11.281 -0.6881 -0.1916  0.3921
  674MOL0     H92968   7.664   1.180  10.964 -0.7532  3.4361  0.4308
  674MOL0     H92969   7.767   1.259  11.088 -1.4086  1.9937  0.1145
  674MOL0     H92970   7.852   0.816  11.140 -2.0093  1.9326  0.1344
  674MOL0     H92971   8.141   0.705  11.354 -2.7513 -4.2750  1.8555
  674MOL0     H92972   8.134   0.686  11.173  2.9904 -1.7898  2.6123
  674MOL0     H92973   7.994   0.663  11.280  2.1365 -2.1907  3.6154
  674MOL0     H92974   8.480   1.123  11.396 -2.0237  0.0484  0.6882
  674MOL0     H92975   8.686   1.181  11.559 -0.8287  0.3018  1.2839
  674MOL0     H92976   8.822   1.153  11.962 -1.9668  2.6578  1.0785
  674MOL0     H92977   8.672   1.072  12.004 -0.9804  3.1926  0.9257
  674MOL0     H92978   8.743   0.927  11.800  1.1783  1.0644 -0.3625
  674MOL0     H92979   8.901   0.990  11.812 -0.9386  0.2109 -1.3413
  674MOL0     H92980   8.881   0.885  12.080  2.4430 -4.4946  1.0175
  674MOL0     H92981   8.961   0.818  11.939  1.5082  0.7630  1.5768
  674MOL0     H92982   8.748   0.714  11.873  0.7009  2.0380 -0.7474
  674MOL0     H92983   8.670   0.780  12.025  1.0775  2.2131  0.7471
  674MOL0     H92984   8.765   0.542  12.042  1.8686 -1.5080  1.2306
  674MOL0     H92985   8.923   0.609  12.035 -0.3293 -0.6466  0.6652
  674MOL0     H92986   8.714   0.655  12.254  0.4309  0.3669  0.5153
  674MOL0     H92987   8.861   0.754  12.241  0.0778  2.4209 -4.2966
  674MOL0     H92988   8.995   0.556  12.268 -0.8713  1.4319 -0.5437
  674MOL0     H92989   8.861   0.443  12.265  0.0544 -0.8992  3.2862
  674MOL0     H92990   8.771   0.531  12.471  0.0878  0.7542  0.6103
  674MOL0     H92991   8.889   0.666  12.475  0.5225  0.3095 -0.1404
  674MOL0     H92992   8.431   1.114  11.893 -0.0193  0.4816 -0.3874
  674MOL0     H92993   8.251   1.063  11.739  0.0015 -3.8110 -3.4759
  674MOL0     H92994   8.085   1.185  11.359  1.5143  1.6544 -2.7578
  674MOL0     H92995   7.909   1.228  11.235  0.2491 -0.3708  1.3404
  674MOL0     H92996   7.794   1.577  11.254  0.5297  1.9268  0.0416
  674MOL0     H92997   7.996   1.552  11.409  0.7949 -1.0310  0.3713
  674MOL0     H92998   8.332   1.480  11.628  0.6404 -0.8902  0.2709
  674MOL0     H92999   8.525   1.486  11.787  1.6493  1.1513  0.7796
  674MOL0     H93000   8.749   1.637  11.862  0.4512 -0.3089  0.4315
  674MOL0     H93001   8.698   1.477  11.896 -1.7220  0.4399 -0.1226
  674MOL0     H93002   8.939   1.411  11.867 -2.3372 -2.3486  1.6087
  674MOL0     H93003   8.912   1.513  12.009  1.6852 -0.6157 -0.8321
  674MOL0     H93004   9.024   1.617  11.738 -1.6630 -1.9304 -0.7684
  674MOL0     H93005   9.005   1.704  11.891  0.4439 -0.3077  0.0509
  674MOL0     H93006   9.191   1.478  11.813  1.8748  1.5872 -1.1072
  674MOL0     H93007   9.163   1.526  11.986  0.2497  1.5748  0.5784
  674MOL0     H93008   9.411   1.824  11.857 -0.5403  1.3315  1.3699
  674MOL0     H93009   8.790   1.517  11.462 -0.0614 -0.6587 -1.8393
  674MOL0     H93010   8.586   1.414  11.190 -0.8693  0.0863  0.0284
  674MOL0     H93011   8.563   1.593  11.202 -0.0917 -0.2456 -0.4177
  674MOL0     H93012   8.724   1.505  11.233 -0.0097 -2.2213 -1.7141
  675MOL0     O93013   9.120   4.065   7.297 -0.0392 -0.6139  0.9929
  675MOL0     C93014   9.107   4.001   7.191  0.0087  0.1120 -0.0116
  675MOL0     O93015   9.017   4.021   7.090 -0.7656 -0.5339 -0.4638
  675MOL0     C93016   8.924   4.120   7.105  1.1736  0.2677  0.0490
  675MOL0     C93017   8.966   4.251   7.111  0.8563 -0.2318  0.7156
  675MOL0     C93018   8.861   4.355   7.121  0.2856 -0.0006 -0.1355
  675MOL0     C93019   8.723   4.326   7.133 -0.3016 -0.1072  0.9938
  675MOL0     O93020   8.632   4.423   7.163  0.5081 -0.1150 -0.8608
  675MOL0     C93021   8.598   4.485   7.033  0.3910 -0.1413 -0.5865
  675MOL0     C93022   8.493   4.595   7.070 -0.4562  0.2408 -1.1351
  675MOL0     C93023   8.368   4.531   7.124 -0.1690  0.3134 -1.2223
  675MOL0     C93024   8.251   4.633   7.152  0.6026 -0.2285 -0.2670
  675MOL0     C93025   8.130   4.555   7.192  0.2141  0.0956 -0.2789
  675MOL0     C93026   8.134   4.468   7.313 -0.1379 -0.2296 -0.1534
  675MOL0     C93027   8.157   4.546   7.443 -0.8266 -0.0790  0.7391
  675MOL0     C93028   8.104   4.471   7.573 -0.6524 -0.1890 -0.0056
  675MOL0     N93029   8.127   4.553   7.692 -0.4269 -0.0538  0.3856
  675MOL0     C93030   8.069   4.666   7.744  0.8849  0.0891  0.0638
  675MOL0     C93031   8.146   4.697   7.849 -0.6358  0.1715  0.1902
  675MOL0     C93032   8.108   4.813   7.946 -0.9808 -0.4117  0.4415
  675MOL0     C93033   8.222   4.897   8.016  0.1724  0.8900  0.9409
  675MOL0     C93034   8.304   4.813   8.114 -0.6553 -0.6449 -0.3391
  675MOL0     C93035   8.434   4.887   8.160 -0.3185  0.0225 -0.4235
  675MOL0     O93036   8.547   4.844   8.083 -0.6466 -1.1209 -0.1210
  675MOL0     C93037   8.615   4.909   7.986 -0.7208 -0.1664  0.3520
  675MOL0     C93038   8.579   5.028   7.922 -0.8053 -0.2398 -0.4617
  675MOL0     C93039   8.648   5.095   7.822 -0.9058 -0.2007  0.6801
  675MOL0     C93040   8.587   5.230   7.774  0.1541  0.2287  0.4676
  675MOL0     C93041   8.769   5.035   7.774 -0.1071 -0.0831 -0.6152
  675MOL0     C93042   8.860   5.095   7.675 -0.2773 -0.7597 -0.6191
  675MOL0     O93043   8.966   5.017   7.632  0.2218 -0.2528 -0.3350
  675MOL0     C93044   9.048   5.081   7.544  0.6049 -0.2418  1.0955
  675MOL0     C93045   9.009   5.103   7.403 -0.2175  0.2493 -0.4019
  675MOL0     C93046   9.107   5.145   7.312 -0.1266 -0.6982 -0.7559
  675MOL0     C93047   9.243   5.167   7.362 -0.2714 -0.3990  0.2513
  675MOL0     O93048   9.350   5.215   7.287 -0.5271  0.8650 -0.0582
  675MOL0     C93049   9.351   5.211   7.140 -0.1561  0.1239  0.3705
  675MOL0     C93050   9.409   5.087   7.089  0.8032 -0.3881 -0.7654
  675MOL0     C93051   9.560   5.108   7.072 -0.3045  0.3881 -0.3362
  675MOL0     C93052   9.627   4.968   7.049  0.5248  0.3384  0.1375
  675MOL0     C93053   9.784   4.972   7.040  0.1566  0.1667  0.3052
  675MOL0     C93054   9.813   5.012   6.893  0.2432 -0.6554  0.0568
  675MOL0     C93055   9.954   4.976   6.849 -0.2529 -0.3348  0.1364
  675MOL0     C93056  10.036   5.103   6.823  0.9250 -0.6123  0.1736
  675MOL0    Cl93057   9.967   5.155   6.665  0.1239 -0.1043 -0.1297
  675MOL0     C93058   9.257   5.169   7.498 -0.7559 -0.0416  0.4168
  675MOL0     C93059   9.170   5.125   7.588 -0.4138 -0.6355  0.8476
  675MOL0     O93060   8.831   5.207   7.641  0.0516 -0.3599 -0.0828
  675MOL0     C93061   8.806   4.912   7.831 -0.4251 -0.5509  0.2663
  675MOL0     C93062   8.730   4.845   7.930  0.3919 -0.0467  0.8883
  675MOL0     N93063   8.253   4.612   7.869  0.5308 -0.7119  0.6084
  675MOL0     N93064   8.240   4.525   7.778  0.0219 -0.0421 -0.1759
  675MOL0     C93065   8.684   4.189   7.133 -0.7770 -0.3164 -0.0046
  675MOL0     C93066   8.784   4.090   7.107 -0.3345  0.0058  0.3931
  675MOL0     C93067   9.198   3.887   7.167 -0.2454 -0.7740  0.1930
  675MOL0     C93068   9.213   3.842   7.028  0.1878 -0.2031  0.4491
  675MOL0     C93069   9.289   3.731   7.000  0.0252  0.7064 -0.1750
  675MOL0     C93070   9.349   3.654   7.104 -0.1365  0.2598  0.7217
  675MOL0     O93071   9.409   3.537   7.061 -0.0450 -0.3596  0.6382
  675MOL0     C93072   9.463   3.460   7.161 -0.9655 -0.1853 -0.1006
  675MOL0     C93073   9.518   3.317   7.115  0.2075  0.2011  0.4479
  675MOL0     C93074   9.610   3.309   6.990  0.0937 -0.5899  0.0162
  675MOL0     C93075   9.739   3.386   7.013 -0.3332 -0.0979  0.4319
  675MOL0     C93076   9.813   3.380   6.884 -0.1837 -0.1232 -0.8993
  675MOL0     C93077   9.890   3.372   6.790 -0.3543 -0.7878 -0.2030
  675MOL0     C93078   9.328   3.692   7.232  0.4037 -0.8352 -0.3777
  675MOL0     C93079   9.245   3.804   7.273 -0.1278 -0.5372  0.1945
  675MOL0     C93080   9.215   3.835   7.420  0.0304  0.2064  0.2608
  675MOL0     H93081   9.072   4.269   7.092  0.4125  0.9562 -0.7885
  675MOL0     H93082   8.886   4.459   7.138 -0.4552 -0.2198  2.8310
  675MOL0     H93083   8.567   4.411   6.958  2.8980 -2.8585  0.8503
  675MOL0     H93084   8.691   4.532   7.002  1.3074 -1.2846  0.3137
  675MOL0     H93085   8.549   4.667   7.130 -0.3466 -0.0795 -0.8508
  675MOL0     H93086   8.477   4.652   6.978  0.3744 -0.3776 -1.6838
  675MOL0     H93087   8.330   4.458   7.052  1.0183 -3.1500  1.3704
  675MOL0     H93088   8.397   4.465   7.206 -1.4323 -0.8386 -1.6509
  675MOL0     H93089   8.282   4.695   7.237  1.5452 -0.0126 -0.7583
  675MOL0     H93090   8.240   4.695   7.062 -3.2495  1.1142  0.9222
  675MOL0     H93091   8.098   4.486   7.113 -1.2261 -0.5922  0.8743
  675MOL0     H93092   8.046   4.623   7.201  0.4709  0.8535 -2.7958
  675MOL0     H93093   8.034   4.424   7.312  1.0397 -3.0879 -0.7883
  675MOL0     H93094   8.206   4.388   7.293 -1.2259 -1.2368 -0.1669
  675MOL0     H93095   8.099   4.637   7.429 -2.8410 -1.2224  1.1984
  675MOL0     H93096   8.265   4.563   7.442 -0.7221 -0.6759  1.3223
  675MOL0     H93097   7.995   4.460   7.562 -0.6643 -0.2188  0.1317
  675MOL0     H93098   8.158   4.377   7.588  0.8665  1.0566  3.4363
  675MOL0     H93099   7.978   4.715   7.710  0.6808  1.1408  1.9876
  675MOL0     H93100   8.054   4.781   8.036  2.8916  0.3224  3.2819
  675MOL0     H93101   8.049   4.884   7.888 -0.8806 -0.5405  0.1844
  675MOL0     H93102   8.283   4.942   7.937  0.8150 -0.2266  0.7804
  675MOL0     H93103   8.161   4.976   8.062 -0.6757  0.6824  0.2085
  675MOL0     H93104   8.246   4.786   8.202 -1.1065  0.4529 -0.2732
  675MOL0     H93105   8.343   4.725   8.062 -0.5411  0.5289 -2.3779
  675MOL0     H93106   8.428   4.996   8.165  0.6298  0.0252  2.8172
  675MOL0     H93107   8.468   4.855   8.258  0.3777 -0.4329 -0.8061
  675MOL0     H93108   8.493   5.085   7.954 -1.0961  0.3347 -2.1507
  675MOL0     H93109   8.485   5.239   7.812  0.7565 -0.8754  2.5035
  675MOL0     H93110   8.584   5.247   7.666  0.3114 -1.3598  0.1831
  675MOL0     H93111   8.646   5.309   7.821 -3.9996  3.4161  0.8710
  675MOL0     H93112   8.904   5.080   7.386 -1.2038  1.0507  3.5478
  675MOL0     H93113   9.081   5.152   7.207 -0.1618  1.6656 -0.6482
  675MOL0     H93114   9.255   5.230   7.092 -0.2820 -0.2208  0.4811
  675MOL0     H93115   9.428   5.280   7.104 -0.3979 -0.4477 -1.3325
  675MOL0     H93116   9.381   5.009   7.161  1.9448  1.1791  1.4657
  675MOL0     H93117   9.376   5.052   6.990  2.6201 -2.8356 -0.5933
  675MOL0     H93118   9.610   5.165   7.150  2.6095  0.1675 -1.9063
  675MOL0     H93119   9.571   5.164   6.979 -0.4098 -1.1893 -1.3525
  675MOL0     H93120   9.582   4.917   6.963  1.4859  2.8736 -2.0311
  675MOL0     H93121   9.600   4.906   7.135  0.2251 -1.7528 -1.3924
  675MOL0     H93122   9.829   5.041   7.112 -2.5749  0.6096  1.7450
  675MOL0     H93123   9.823   4.871   7.052 -0.8850 -0.2049  0.7266
  675MOL0     H93124   9.804   5.121   6.900  3.2632 -0.3870  1.2751
  675MOL0     H93125   9.735   4.976   6.825  0.7667 -3.3207  0.7556
  675MOL0     H93126   9.948   4.928   6.750  2.6188  1.6699 -1.1624
  675MOL0     H93127   9.999   4.913   6.926  1.9322 -1.6332 -2.0398
  675MOL0     H93128  10.140   5.083   6.795  0.9050  1.0247 -1.2499
  675MOL0     H93129  10.034   5.180   6.900  1.4682 -0.2253 -0.1901
  675MOL0     H93130   9.354   5.202   7.534  0.8939 -3.5487 -0.4194
  675MOL0     H93131   9.195   5.124   7.693 -1.3736  0.4443  1.1119
  675MOL0     H93132   8.899   4.869   7.795  1.0315 -0.2641  3.3732
  675MOL0     H93133   8.751   4.742   7.957 -1.2679 -0.1297  1.9580
  675MOL0     H93134   8.580   4.161   7.150 -0.2904 -1.8928  0.6058
  675MOL0     H93135   8.758   3.985   7.117  2.6552 -0.6521  3.2829
  675MOL0     H93136   9.172   3.896   6.944  1.8428 -1.6210 -1.3617
  675MOL0     H93137   9.311   3.684   6.905 -2.8438 -0.2385 -0.4853
  675MOL0     H93138   9.530   3.523   7.220 -2.0825  1.9964 -1.0588
  675MOL0     H93139   9.384   3.422   7.227 -0.7503 -2.9329 -1.2976
  675MOL0     H93140   9.425   3.261   7.105  0.3237 -0.4447  2.3896
  675MOL0     H93141   9.574   3.278   7.202 -0.3616  1.6437  1.5058
  675MOL0     H93142   9.633   3.207   6.958 -0.2776 -2.0478  3.8637
  675MOL0     H93143   9.571   3.364   6.903  1.4936  1.1517  0.4383
  675MOL0     H93144   9.784   3.367   7.111  1.0837 -1.3505 -0.4343
  675MOL0     H93145   9.727   3.495   7.023  2.6641  0.1599  2.3369
  675MOL0     H93146   9.975   3.363   6.725  0.8154 -1.1559  1.2993
  675MOL0     H93147   9.364   3.644   7.323 -1.6144  0.5048  1.2278
  675MOL0     H93148   9.268   3.925   7.453 -1.2389  0.5528  1.4409
  675MOL0     H93149   9.109   3.854   7.438  0.2097  1.5498 -0.0026
  675MOL0     H93150   9.250   3.749   7.477 -1.4009 -0.4103  0.2472
  676MOL0     O93151   3.848   7.246   0.248 -0.0150  0.2394 -0.1644
  676MOL0     C93152   3.850   7.340   0.169 -0.7313  0.5237 -0.3086
  676MOL0     O93153   3.794   7.459   0.185 -0.5330  0.6650  0.2653
  676MOL0     C93154   3.720   7.476   0.300  0.5550  0.5782  0.5749
  676MOL0     C93155   3.776   7.501   0.424  0.2320 -0.1568  0.1782
  676MOL0     C93156   3.703   7.526   0.539  0.4939  0.3562  0.6495
  676MOL0     C93157   3.564   7.506   0.529  0.1132 -0.7017 -0.4431
  676MOL0     O93158   3.497   7.534   0.644  0.3991  0.1814  0.8827
  676MOL0     C93159   3.367   7.477   0.669  0.3733 -0.6046 -0.6121
  676MOL0     C93160   3.322   7.519   0.807 -0.0953 -0.2676 -0.4127
  676MOL0     C93161   3.402   7.443   0.920  0.0694 -0.6481 -0.7272
  676MOL0     C93162   3.378   7.293   0.931 -0.7746 -0.2286  0.1660
  676MOL0     C93163   3.434   7.229   1.056 -0.5655  0.4287  0.7444
  676MOL0     C93164   3.383   7.085   1.086 -0.1637  0.0709  0.6051
  676MOL0     C93165   3.470   7.015   1.204 -1.1593 -0.3715 -0.1598
  676MOL0     C93166   3.453   6.867   1.218  0.5390 -0.3871  0.1232
  676MOL0     N93167   3.430   6.823   1.354  0.5039 -0.1577 -0.5079
  676MOL0     C93168   3.325   6.856   1.434 -0.2146 -0.0069 -0.4210
  676MOL0     C93169   3.349   6.783   1.544  0.5189  0.6762 -0.8587
  676MOL0     C93170   3.256   6.767   1.662 -0.0885  1.0307 -0.8539
  676MOL0     C93171   3.210   6.623   1.660  0.4875 -0.1712  0.2244
  676MOL0     C93172   3.119   6.576   1.763  0.7672 -0.2381 -0.3673
  676MOL0     C93173   2.998   6.661   1.774  0.0893  0.7421  0.2114
  676MOL0     O93174   3.015   6.743   1.888 -0.5072  0.3016 -0.2394
  676MOL0     C93175   2.925   6.845   1.907 -0.3095  0.3981 -0.0111
  676MOL0     C93176   2.937   6.916   2.025  0.1417  0.6756 -0.4910
  676MOL0     C93177   2.857   7.025   2.056 -0.1407 -0.3756  0.2847
  676MOL0     C93178   2.882   7.071   2.193  0.0141  0.3377 -0.2251
  676MOL0     C93179   2.744   7.062   1.971 -0.4728 -0.4050  0.7442
  676MOL0     C93180   2.657   7.180   1.991  1.0608 -0.0914 -0.3925
  676MOL0     O93181   2.679   7.257   2.107  0.3581 -0.2126  0.1554
  676MOL0     C93182   2.596   7.370   2.133 -0.0475 -0.2670 -0.1070
  676MOL0     C93183   2.456   7.352   2.129  0.2440  0.3648 -0.0279
  676MOL0     C93184   2.373   7.453   2.189 -0.2165  0.3866  0.3357
  676MOL0     C93185   2.429   7.574   2.229 -0.2827  0.6641 -0.8991
  676MOL0     O93186   2.351   7.680   2.278  0.2902  0.3391 -0.3351
  676MOL0     C93187   2.205   7.659   2.315 -0.2937  0.6598  0.9058
  676MOL0     C93188   2.145   7.790   2.355  0.0043 -0.5229  0.0373
  676MOL0     C93189   2.216   7.860   2.477  0.2211  0.2439 -0.0256
  676MOL0     C93190   2.110   7.916   2.567 -0.8773 -0.1500 -0.6473
  676MOL0     C93191   2.173   7.959   2.708 -0.2875  0.3214  0.1194
  676MOL0     C93192   2.077   8.027   2.809  0.1358 -0.2122  0.0407
  676MOL0     C93193   1.969   7.939   2.868 -0.2670 -0.2176  0.3129
  676MOL0     C93194   1.880   8.006   2.973  0.7450 -0.8390 -1.0909
  676MOL0    Cl93195   1.777   8.144   2.908  0.3077 -0.2495 -0.2249
  676MOL0     C93196   2.565   7.593   2.223  0.8410  0.5175 -0.6000
  676MOL0     C93197   2.651   7.487   2.183  0.2239  0.1342  0.4250
  676MOL0     O93198   2.573   7.204   1.904  0.8361 -0.0363 -0.6183
  676MOL0     C93199   2.741   6.988   1.848 -0.4614  0.8563 -0.1360
  676MOL0     C93200   2.831   6.889   1.813  0.2560 -0.5637 -0.9890
  676MOL0     N93201   3.453   6.702   1.525  0.0953  0.5037  0.7730
  676MOL0     N93202   3.508   6.727   1.412  0.4933 -0.6471 -0.0661
  676MOL0     C93203   3.504   7.465   0.410  0.1799  0.3115  0.7512
  676MOL0     C93204   3.579   7.458   0.290  0.6394 -0.4296 -1.1401
  676MOL0     C93205   3.925   7.312   0.050 -0.0271 -0.4654 -0.5944
  676MOL0     C93206   3.859   7.322  -0.074 -1.1621 -0.4650 -0.5279
  676MOL0     C93207   3.919   7.286  -0.197  0.2951  0.3975 -0.3310
  676MOL0     C93208   4.048   7.249  -0.197  0.0586  0.1166 -0.2543
  676MOL0     O93209   4.120   7.201  -0.300  0.6693  0.2863  0.6509
  676MOL0     C93210   4.101   7.255  -0.433  0.2069  0.2315 -0.9672
  676MOL0     C93211   4.077   7.142  -0.530  0.3371 -0.3273 -0.8512
  676MOL0     C93212   3.929   7.082  -0.518 -0.8934  0.0647 -0.4799
  676MOL0     C93213   3.918   6.941  -0.585  0.2073 -0.7900 -0.7059
  676MOL0     C93214   3.906   6.959  -0.728 -0.3459 -0.3304  0.5967
  676MOL0     C93215   3.910   6.982  -0.845 -0.1923  0.4551 -0.0763
  676MOL0     C93216   4.124   7.250  -0.082  0.1548 -0.6622 -0.3501
  676MOL0     C93217   4.064   7.283   0.042 -0.9343 -1.1545 -0.2212
  676MOL0     C93218   4.159   7.298   0.166 -0.7226 -0.2435 -0.0348
  676MOL0     H93219   3.884   7.508   0.416  0.2892  1.4674  1.7020
  676MOL0     H93220   3.732   7.552   0.640 -3.7756  0.5313  2.0343
  676MOL0     H93221   3.370   7.367   0.671  1.6393 -0.6251  2.4537
  676MOL0     H93222   3.299   7.511   0.591  1.3549 -1.4566 -1.8755
  676MOL0     H93223   3.334   7.627   0.810 -1.1943 -0.1512  1.1342
  676MOL0     H93224   3.216   7.497   0.823 -0.1201 -0.3741 -0.7111
  676MOL0     H93225   3.508   7.472   0.922 -0.5770  2.0567  2.5755
  676MOL0     H93226   3.369   7.478   1.018 -2.4755  0.6122 -1.9435
  676MOL0     H93227   3.269   7.301   0.934 -0.6583  1.4078  1.4258
  676MOL0     H93228   3.415   7.243   0.842 -3.0015  3.3617 -3.1406
  676MOL0     H93229   3.402   7.300   1.132 -2.2222  1.5664 -0.9332
  676MOL0     H93230   3.543   7.226   1.045 -0.8169 -0.8018 -2.5963
  676MOL0     H93231   3.276   7.087   1.108  0.2319 -0.4373  2.7991
  676MOL0     H93232   3.384   7.029   0.992 -1.8958 -0.1685  0.7066
  676MOL0     H93233   3.445   7.066   1.298  1.6909 -0.9578  1.0124
  676MOL0     H93234   3.575   7.038   1.185 -1.8415  0.8252 -3.0077
  676MOL0     H93235   3.364   6.849   1.157 -0.1521 -1.0918  1.3083
  676MOL0     H93236   3.538   6.810   1.178  2.2630  2.1255  0.0364
  676MOL0     H93237   3.230   6.907   1.422  0.9701  2.4882  0.2468
  676MOL0     H93238   3.179   6.845   1.668 -0.7160  0.8460 -4.4189
  676MOL0     H93239   3.310   6.799   1.752  2.1450  1.0013 -2.1099
  676MOL0     H93240   3.152   6.614   1.568  1.1205  0.6551 -0.2637
  676MOL0     H93241   3.302   6.563   1.657  4.2088  4.9170 -0.5911
  676MOL0     H93242   3.089   6.472   1.744 -1.2722 -0.1225  1.7659
  676MOL0     H93243   3.180   6.586   1.853  0.5913  0.8581 -0.3631
  676MOL0     H93244   2.984   6.721   1.683  1.1169 -1.6846 -1.6544
  676MOL0     H93245   2.910   6.595   1.773 -1.2115  2.1676 -4.4761
  676MOL0     H93246   3.003   6.877   2.101 -0.4225  0.8164  0.0809
  676MOL0     H93247   2.787   7.079   2.247  1.0455 -0.8369  1.8610
  676MOL0     H93248   2.938   7.165   2.194  2.0127 -0.8063  0.3303
  676MOL0     H93249   2.940   6.999   2.250 -1.5922 -0.9993 -0.2090
  676MOL0     H93250   2.424   7.256   2.089  1.7338  0.9760 -2.9167
  676MOL0     H93251   2.275   7.407   2.190  1.2353 -3.0312 -0.1716
  676MOL0     H93252   2.149   7.604   2.238  0.7597 -0.5127  0.9376
  676MOL0     H93253   2.199   7.591   2.401 -1.3257  1.3000  1.3633
  676MOL0     H93254   2.133   7.860   2.271 -3.0921 -1.7626 -0.7171
  676MOL0     H93255   2.039   7.764   2.370  0.2894 -1.8855 -0.1495
  676MOL0     H93256   2.275   7.945   2.441 -1.1106  0.7856 -1.0256
  676MOL0     H93257   2.279   7.791   2.533 -1.6699  1.5818  4.1091
  676MOL0     H93258   2.037   7.836   2.580 -1.6861  0.9314  2.0702
  676MOL0     H93259   2.069   8.005   2.518  1.6989  0.2302 -2.2920
  676MOL0     H93260   2.213   7.865   2.746  1.8662 -0.3440 -3.3522
  676MOL0     H93261   2.261   8.022   2.692  1.4225 -1.0839  3.2036
  676MOL0     H93262   2.035   8.111   2.753 -1.7166 -1.6545 -0.8752
  676MOL0     H93263   2.138   8.054   2.895 -1.7203  1.5816  0.8845
  676MOL0     H93264   2.018   7.850   2.907 -0.2796  0.2723  1.5157
  676MOL0     H93265   1.894   7.896   2.803 -1.2853 -1.7599  2.3931
  676MOL0     H93266   1.947   8.042   3.052  0.0613 -0.4280 -0.6867
  676MOL0     H93267   1.814   7.936   3.025  0.4337  1.4089  1.8141
  676MOL0     H93268   2.616   7.680   2.263  1.3566  0.5003 -1.1967
  676MOL0     H93269   2.759   7.495   2.194  0.2237 -0.6819  1.1139
  676MOL0     H93270   2.673   7.005   1.765 -1.6708 -1.2771  0.3601
  676MOL0     H93271   2.829   6.846   1.714  1.6931 -0.0024 -1.2874
  676MOL0     H93272   3.397   7.454   0.397  0.3153  0.5269 -0.6254
  676MOL0     H93273   3.526   7.431   0.199 -1.1965  0.3273 -0.3359
  676MOL0     H93274   3.757   7.358  -0.075 -2.0241 -2.7027 -0.4835
  676MOL0     H93275   3.861   7.303  -0.287 -2.1233 -2.3040  0.5567
  676MOL0     H93276   4.032   7.339  -0.438 -0.5125 -0.2516  0.3848
  676MOL0     H93277   4.198   7.302  -0.453 -0.3839  2.1147  0.3275
  676MOL0     H93278   4.145   7.061  -0.503 -1.5836 -1.2967  1.4973
  676MOL0     H93279   4.094   7.177  -0.633 -0.3760  0.0117 -0.8641
  676MOL0     H93280   3.906   7.084  -0.411 -0.3872  2.0309 -0.3745
  676MOL0     H93281   3.859   7.148  -0.572  1.9871  0.4749 -4.1233
  676MOL0     H93282   3.820   6.897  -0.561 -1.4186  2.2211 -1.3493
  676MOL0     H93283   4.005   6.877  -0.565  1.6368  1.0767 -0.7201
  676MOL0     H93284   3.915   6.996  -0.951 -0.0827  4.2398  0.2903
  676MOL0     H93285   4.228   7.221  -0.089  0.0163 -2.3819  2.9418
  676MOL0     H93286   4.260   7.262   0.145 -0.8612 -0.3460 -0.5229
  676MOL0     H93287   4.176   7.401   0.196  1.8457  0.8089 -4.2869
  676MOL0     H93288   4.119   7.230   0.242  1.4339 -0.3580  1.0861
  677MOL0     O93289  10.035   6.137   2.098  0.1766  0.1273 -0.2688
  677MOL0     C93290  10.142   6.192   2.134  0.5694  0.1761 -0.1499
  677MOL0     O93291  10.222   6.281   2.055  0.1807 -0.4563 -0.4126
  677MOL0     C93292  10.173   6.312   1.924  0.0926 -0.6839 -0.4976
  677MOL0     C93293  10.170   6.444   1.878 -0.1711  0.6212  0.0768
  677MOL0     C93294  10.108   6.479   1.759 -0.4386 -0.6242 -0.4937
  677MOL0     C93295  10.047   6.380   1.683 -0.4757  0.4804  0.6286
  677MOL0     O93296   9.991   6.405   1.557  0.2826  0.0123 -0.4317
  677MOL0     C93297  10.085   6.469   1.470  0.3048  0.7911  0.4603
  677MOL0     C93298  10.022   6.478   1.330  0.2299  0.1095 -0.3770
  677MOL0     C93299  10.097   6.572   1.233  0.2119 -0.3223  0.2033
  677MOL0     C93300  10.091   6.529   1.085  0.2354 -0.3458  0.0305
  677MOL0     C93301  10.191   6.602   1.006  0.5339  0.4070  1.2281
  677MOL0     C93302  10.174   6.586   0.855 -0.2067  0.2136  0.7198
  677MOL0     C93303  10.194   6.446   0.794 -1.0522 -0.1830  0.6404
  677MOL0     C93304  10.200   6.451   0.641  0.2070  0.5701 -0.2750
  677MOL0     N93305  10.197   6.316   0.574  0.2089 -0.6009 -0.5340
  677MOL0     C93306  10.084   6.244   0.548 -0.6667 -0.6081 -0.7823
  677MOL0     C93307  10.137   6.150   0.468  0.4875  0.7360 -0.5073
  677MOL0     C93308  10.065   6.033   0.410  0.4319  0.6602  0.4717
  677MOL0     C93309   9.977   5.955   0.504  0.3446 -0.3440  0.8768
  677MOL0     C93310   9.892   5.836   0.442  0.0850  0.5778  0.2394
  677MOL0     C93311   9.821   5.761   0.552  0.8287  0.5424  0.4769
  677MOL0     O93312   9.900   5.699   0.648  0.0439  0.1929 -0.3860
  677MOL0     C93313   9.850   5.657   0.769  0.4841 -0.6822 -0.2231
  677MOL0     C93314   9.712   5.634   0.803  0.4917  0.7609  0.5257
  677MOL0     C93315   9.680   5.604   0.938  0.6439 -0.0022  0.3781
  677MOL0     C93316   9.539   5.629   0.986 -0.6361  0.1022  0.5282
  677MOL0     C93317   9.783   5.580   1.027  0.5574  0.0700 -0.6017
  677MOL0     C93318   9.762   5.533   1.170  0.3017  0.7534  0.5891
  677MOL0     O93319   9.637   5.468   1.193 -0.5319  0.0479 -0.1577
  677MOL0     C93320   9.648   5.366   1.289 -0.0277  1.4688  0.4368
  677MOL0     C93321   9.655   5.402   1.424 -0.1588 -0.5100  0.4780
  677MOL0     C93322   9.674   5.296   1.524  0.0182 -0.1051  0.3974
  677MOL0     C93323   9.691   5.162   1.480  0.4914  1.2719 -0.1435
  677MOL0     O93324   9.716   5.064   1.571 -0.9125 -0.7863  0.4358
  677MOL0     C93325   9.854   5.066   1.624 -0.3818  0.3876 -0.1376
  677MOL0     C93326   9.900   4.928   1.670 -0.8031 -0.0943  0.2239
  677MOL0     C93327  10.023   4.939   1.756  0.0399 -1.0405 -0.4810
  677MOL0     C93328  10.051   4.800   1.813  0.3763 -0.4162  0.2865
  677MOL0     C93329  10.199   4.786   1.865 -0.0539  0.4317  0.2425
  677MOL0     C93330  10.233   4.632   1.884  0.6680 -0.2919  0.1227
  677MOL0     C93331  10.372   4.603   1.949  1.1288 -0.0719 -0.3442
  677MOL0     C93332  10.488   4.687   1.882 -0.2189  0.3627  0.3122
  677MOL0    Cl93333  10.655   4.619   1.921 -0.1125  0.2765 -0.0102
  677MOL0     C93334   9.688   5.138   1.341  0.2176  0.6510 -0.3086
  677MOL0     C93335   9.662   5.232   1.247 -1.0211 -1.2668  0.3688
  677MOL0     O93336   9.867   5.527   1.237  0.7974 -0.3501 -0.2468
  677MOL0     C93337   9.920   5.585   0.979  0.7134 -0.8169  0.3132
  677MOL0     C93338   9.950   5.617   0.852 -0.9793 -0.7979  0.0598
  677MOL0     N93339  10.268   6.167   0.442 -0.2990  1.5598 -0.5615
  677MOL0     N93340  10.301   6.269   0.506  0.0288 -0.6518  0.3588
  677MOL0     C93341  10.054   6.246   1.722 -0.8424  0.2405 -0.4309
  677MOL0     C93342  10.121   6.220   1.842 -0.2327  0.1595  0.1052
  677MOL0     C93343  10.201   6.159   2.264 -0.4638 -0.6557  0.5568
  677MOL0     C93344  10.327   6.222   2.293 -0.0539 -0.2863 -0.7296
  677MOL0     C93345  10.407   6.187   2.406 -0.3455 -0.3320  0.1804
  677MOL0     C93346  10.360   6.089   2.500  0.1086  0.7237 -0.3417
  677MOL0     O93347  10.424   6.064   2.622 -0.4003  0.5018 -0.1000
  677MOL0     C93348  10.540   6.131   2.656  0.1066  0.5454 -0.6251
  677MOL0     C93349  10.595   6.075   2.793  0.0005  0.8514  0.1038
  677MOL0     C93350  10.682   5.950   2.784 -0.5438  0.8754  0.4983
  677MOL0     C93351  10.747   5.909   2.919  0.0541  0.9245  0.8060
  677MOL0     C93352  10.649   5.837   2.999  0.0015 -1.3519 -0.6099
  677MOL0     C93353  10.588   5.786   3.084  0.4356  0.0199  0.0908
  677MOL0     C93354  10.227   6.042   2.482 -0.3313 -0.2136  0.4240
  677MOL0     C93355  10.155   6.068   2.361  0.5820 -0.1533  0.0879
  677MOL0     C93356  10.009   6.027   2.357  0.1923  0.2127  0.6034
  677MOL0     H93357  10.220   6.515   1.943  1.5469  0.2091 -0.7375
  677MOL0     H93358  10.106   6.583   1.730  0.1713 -0.1375  1.0983
  677MOL0     H93359  10.180   6.416   1.461  0.2504  0.5624  1.1912
  677MOL0     H93360  10.121   6.566   1.507  1.0107  0.7827 -0.1759
  677MOL0     H93361  10.019   6.376   1.290  4.0485 -0.5563  0.6943
  677MOL0     H93362   9.918   6.512   1.339  1.2015  2.8392  2.8546
  677MOL0     H93363  10.036   6.663   1.234  0.1775 -0.3479  0.4177
  677MOL0     H93364  10.199   6.592   1.267  0.1162 -0.4847  0.5896
  677MOL0     H93365  10.113   6.422   1.076  1.3051 -0.0756 -0.7184
  677MOL0     H93366   9.987   6.549   1.056  0.5226  4.3685  1.4135
  677MOL0     H93367  10.290   6.572   1.040  1.1447 -1.4759 -1.7780
  677MOL0     H93368  10.174   6.709   1.016  0.8822  0.4567  1.2979
  677MOL0     H93369  10.071   6.614   0.831 -0.0330  0.1082 -0.2084
  677MOL0     H93370  10.246   6.657   0.812 -1.5782  1.3525  0.2054
  677MOL0     H93371  10.104   6.393   0.828 -0.5579  0.5145  3.2502
  677MOL0     H93372  10.279   6.389   0.832 -0.5380 -0.6952 -1.2225
  677MOL0     H93373  10.113   6.511   0.613 -0.2682  0.0008 -0.0397
  677MOL0     H93374  10.294   6.498   0.610  0.7540  1.1332  2.0903
  677MOL0     H93375   9.983   6.252   0.586  0.9927  0.8657  4.0476
  677MOL0     H93376  10.131   5.956   0.369 -0.4020 -0.8716  1.9011
  677MOL0     H93377  10.008   6.062   0.321  0.6756 -0.9275 -0.2484
  677MOL0     H93378  10.038   5.912   0.584  0.7760  0.2405  0.8649
  677MOL0     H93379   9.902   6.011   0.562 -0.8167 -1.1469  0.2004
  677MOL0     H93380   9.822   5.884   0.372 -0.3653 -1.9840 -1.1598
  677MOL0     H93381   9.949   5.764   0.382 -3.3669 -1.8499 -0.4502
  677MOL0     H93382   9.760   5.835   0.606  1.7038  1.5368  0.1455
  677MOL0     H93383   9.754   5.690   0.503  1.0824  0.5362  0.1330
  677MOL0     H93384   9.629   5.656   0.738  1.0080  1.5334  0.1107
  677MOL0     H93385   9.480   5.537   0.993  0.1606 -0.3475  1.5704
  677MOL0     H93386   9.482   5.697   0.922  1.4850 -1.0456 -2.8315
  677MOL0     H93387   9.536   5.678   1.084 -4.2204  3.3644 -0.9549
  677MOL0     H93388   9.640   5.507   1.449  1.4988  0.8873 -3.5099
  677MOL0     H93389   9.676   5.316   1.630  1.6775  2.4262 -0.0134
  677MOL0     H93390   9.923   5.115   1.554  1.8197  0.2863  1.8271
  677MOL0     H93391   9.857   5.132   1.711  0.3506 -1.9531  1.7190
  677MOL0     H93392   9.819   4.873   1.720 -1.6972 -1.5149 -2.5806
  677MOL0     H93393   9.928   4.882   1.575 -0.0309 -2.3664  1.4887
  677MOL0     H93394  10.008   5.005   1.842 -1.8769  1.7861 -2.7726
  677MOL0     H93395  10.106   4.975   1.694 -0.0564 -0.6241 -0.3703
  677MOL0     H93396  10.028   4.721   1.741  1.1209  0.1293 -0.5681
  677MOL0     H93397   9.991   4.786   1.903 -1.9134  1.3792 -0.8475
  677MOL0     H93398  10.274   4.826   1.796  0.0144 -3.1850 -2.0213
  677MOL0     H93399  10.211   4.836   1.961 -0.5950 -0.9234  1.0457
  677MOL0     H93400  10.232   4.585   1.786  2.5259  0.6075 -0.3741
  677MOL0     H93401  10.154   4.593   1.950  0.5464  1.1803  0.9031
  677MOL0     H93402  10.384   4.496   1.929  1.2808  0.4453 -3.6515
  677MOL0     H93403  10.370   4.628   2.055 -0.5139 -1.5567  0.0206
  677MOL0     H93404  10.487   4.790   1.919  0.9042  1.5040 -2.5061
  677MOL0     H93405  10.484   4.683   1.773  1.9508 -2.6382  0.2198
  677MOL0     H93406   9.690   5.032   1.314 -0.7247  0.5887 -0.1843
  677MOL0     H93407   9.651   5.223   1.139  0.9528 -0.3588  0.0433
  677MOL0     H93408   9.997   5.551   1.048 -0.6882 -2.2306  1.2612
  677MOL0     H93409  10.053   5.627   0.819 -1.0563  6.5010  0.5331
  677MOL0     H93410  10.025   6.168   1.653  1.9300 -0.3854 -0.9911
  677MOL0     H93411  10.112   6.115   1.866 -3.4457  0.3129 -0.0378
  677MOL0     H93412  10.368   6.300   2.230  0.7181  1.5859  1.9283
  677MOL0     H93413  10.494   6.244   2.435 -0.8970  0.6986 -0.1392
  677MOL0     H93414  10.616   6.098   2.585 -0.2653  0.1313 -0.8372
  677MOL0     H93415  10.522   6.238   2.660 -2.9337  0.1051 -0.2427
  677MOL0     H93416  10.521   6.064   2.873  3.2681 -3.2047  2.9970
  677MOL0     H93417  10.659   6.159   2.823 -1.1345  1.2255  1.6166
  677MOL0     H93418  10.622   5.869   2.741 -0.3933  0.3897  1.1805
  677MOL0     H93419  10.758   5.978   2.711 -2.2206  0.3104 -1.5711
  677MOL0     H93420  10.790   5.991   2.977  0.1655  0.5387  1.2738
  677MOL0     H93421  10.823   5.832   2.902  2.0524  3.3304 -2.1500
  677MOL0     H93422  10.556   5.731   3.170 -0.8475  0.1910 -0.2516
  677MOL0     H93423  10.187   5.983   2.564 -1.9841  0.5392  0.2097
  677MOL0     H93424   9.976   5.998   2.457 -0.8367  1.4483  0.6435
  677MOL0     H93425   9.953   6.115   2.325 -0.3694  0.4638  2.2092
  677MOL0     H93426   9.983   5.950   2.283  0.7434 -1.3068  1.9419
  678MOL0     O93427   4.598   9.058   3.381 -0.4545 -0.3502 -0.4278
  678MOL0     C93428   4.678   9.147   3.396  1.2095 -0.2673 -0.2909
  678MOL0     O93429   4.797   9.157   3.332 -0.0896 -0.0535  0.5697
  678MOL0     C93430   4.836   9.054   3.250 -0.2373  0.6183  0.3532
  678MOL0     C93431   4.959   8.988   3.272 -0.0954 -1.5572 -0.2068
  678MOL0     C93432   5.005   8.885   3.192  0.0434 -0.0674 -0.1881
  678MOL0     C93433   4.919   8.828   3.094 -0.2345 -0.8593 -0.6734
  678MOL0     O93434   4.958   8.722   3.018  0.1491  0.0734 -0.0626
  678MOL0     C93435   5.092   8.711   2.966 -0.4228 -0.2500 -0.1762
  678MOL0     C93436   5.075   8.671   2.819 -0.3883 -0.2770  0.0607
  678MOL0     C93437   5.013   8.794   2.736 -0.1535  0.4453 -0.2689
  678MOL0     C93438   5.079   8.796   2.595 -0.3033  0.0426  0.0452
  678MOL0     C93439   5.034   8.909   2.508  0.2225 -0.0456  0.4251
  678MOL0     C93440   4.908   8.868   2.434 -0.6507 -1.0904 -0.3774
  678MOL0     C93441   4.866   8.986   2.336  0.6703  0.5073 -0.5126
  678MOL0     C93442   4.751   8.954   2.245  0.3323  0.4979  0.4720
  678MOL0     N93443   4.623   8.948   2.310  0.2166  0.7089  0.6912
  678MOL0     C93444   4.503   8.956   2.241 -0.7058  0.4969 -0.0460
  678MOL0     C93445   4.408   8.930   2.331 -0.4188 -1.1202  0.5126
  678MOL0     C93446   4.269   8.899   2.293 -0.2215  0.5541 -0.2992
  678MOL0     C93447   4.181   9.014   2.251  0.7990  1.0736  0.8044
  678MOL0     C93448   4.061   8.966   2.160  0.4821 -0.7170  0.0847
  678MOL0     C93449   3.977   8.859   2.222  0.5678 -0.1847  0.1457
  678MOL0     O93450   4.049   8.730   2.218  0.5861 -0.3072 -0.4919
  678MOL0     C93451   4.008   8.635   2.310  0.1388  0.4991  0.8365
  678MOL0     C93452   4.020   8.511   2.247  0.5362  0.3653 -1.3597
  678MOL0     C93453   3.960   8.398   2.305 -0.4047  0.2567  0.2308
  678MOL0     C93454   3.950   8.276   2.215 -0.1811  0.3422  0.3784
  678MOL0     C93455   3.904   8.409   2.432 -0.1137  0.7009  0.2343
  678MOL0     C93456   3.816   8.303   2.482 -0.6017 -0.0801 -0.3674
  678MOL0     O93457   3.880   8.194   2.529 -0.2350  0.6086 -0.4673
  678MOL0     C93458   3.798   8.105   2.596  0.3429 -0.3769 -0.4384
  678MOL0     C93459   3.752   8.146   2.722 -0.2959 -0.0648 -0.0062
  678MOL0     C93460   3.669   8.058   2.790  0.6923 -0.3533  0.2175
  678MOL0     C93461   3.626   7.935   2.733  0.4157 -0.0107  0.9157
  678MOL0     O93462   3.551   7.849   2.809 -0.1078  0.4932 -0.1791
  678MOL0     C93463   3.477   7.739   2.741  0.3207 -0.1463  0.1397
  678MOL0     C93464   3.440   7.633   2.851  0.3966 -1.4741 -0.6587
  678MOL0     C93465   3.332   7.534   2.797 -1.4868  0.4132 -0.3521
  678MOL0     C93466   3.294   7.420   2.888  0.2222 -0.2426  1.3582
  678MOL0     C93467   3.171   7.331   2.835  0.4683  0.3520  0.4568
  678MOL0     C93468   3.028   7.395   2.831 -0.3746 -0.6462  1.3627
  678MOL0     C93469   2.984   7.406   2.965  1.1792 -0.2010 -0.1625
  678MOL0     C93470   2.827   7.433   2.962 -0.6071 -0.6375 -0.1457
  678MOL0    Cl93471   2.794   7.597   2.901  0.2894 -0.6613 -0.4356
  678MOL0     C93472   3.675   7.907   2.603  0.8180 -0.7472  0.1482
  678MOL0     C93473   3.766   7.986   2.541 -0.0303  0.0355  0.4313
  678MOL0     O93474   3.697   8.309   2.459  0.3274 -0.1052 -0.4880
  678MOL0     C93475   3.911   8.529   2.507  0.4882 -0.2496 -0.0133
  678MOL0     C93476   3.963   8.646   2.446  0.0850 -0.2618 -0.7269
  678MOL0     N93477   4.476   8.926   2.452 -0.1396 -0.7271  0.0013
  678MOL0     N93478   4.605   8.933   2.437  0.2227 -0.0181  0.6553
  678MOL0     C93479   4.802   8.898   3.065 -0.3005  0.1297  0.4741
  678MOL0     C93480   4.763   9.008   3.141 -0.3169  0.1830  0.0364
  678MOL0     C93481   4.638   9.265   3.482  0.9383  0.1431  0.4857
  678MOL0     C93482   4.736   9.365   3.505 -0.2303  0.5259  0.4642
  678MOL0     C93483   4.720   9.472   3.590  0.0716  1.0537 -0.0169
  678MOL0     C93484   4.599   9.484   3.655  0.7262  0.0284 -0.1859
  678MOL0     O93485   4.575   9.606   3.715  0.1442 -0.2111 -0.5257
  678MOL0     C93486   4.451   9.647   3.766  0.4221  0.2361  0.3404
  678MOL0     C93487   4.449   9.799   3.777  0.4286  0.4502  0.1061
  678MOL0     C93488   4.555   9.847   3.877 -0.2488 -0.3615 -0.1462
  678MOL0     C93489   4.563  10.004   3.884 -0.0675 -0.3028 -0.2343
  678MOL0     C93490   4.446  10.064   3.949  0.0684  0.4518 -0.0191
  678MOL0     C93491   4.347  10.100   4.013 -0.3609 -0.0347  0.4736
  678MOL0     C93492   4.501   9.386   3.649  0.0540 -0.1971 -0.6059
  678MOL0     C93493   4.518   9.276   3.552 -0.1900 -0.5950  0.4668
  678MOL0     C93494   4.400   9.172   3.550  0.8611  0.6075 -0.1802
  678MOL0     H93495   5.028   9.019   3.350 -0.9064  0.0277 -0.0638
  678MOL0     H93496   5.096   8.830   3.215 -0.4526 -1.0633 -0.5690
  678MOL0     H93497   5.156   8.638   3.016 -3.2509 -2.9881 -0.2297
  678MOL0     H93498   5.148   8.804   2.980 -2.4960  1.0599 -0.1171
  678MOL0     H93499   5.176   8.645   2.785  1.0154  0.0020  3.6123
  678MOL0     H93500   5.016   8.580   2.807  1.0751 -1.1576 -0.6744
  678MOL0     H93501   4.904   8.792   2.734 -0.2585  3.1004 -0.8734
  678MOL0     H93502   5.047   8.889   2.779 -0.6080 -0.0013  1.1168
  678MOL0     H93503   5.185   8.802   2.622 -0.8360 -1.4667  2.7819
  678MOL0     H93504   5.058   8.702   2.542  1.6236 -0.2600 -0.2835
  678MOL0     H93505   5.105   8.939   2.430  0.5448 -1.2325  0.2510
  678MOL0     H93506   5.021   9.004   2.561 -0.0004 -0.0268  0.3399
  678MOL0     H93507   4.930   8.782   2.369 -1.9997 -1.1164 -0.8241
  678MOL0     H93508   4.828   8.855   2.507 -1.1561  1.1414 -0.4786
  678MOL0     H93509   4.955   8.998   2.274 -0.4486  0.8387 -2.1107
  678MOL0     H93510   4.855   9.083   2.386  1.5882  0.8035 -0.8750
  678MOL0     H93511   4.736   9.032   2.171 -1.3807 -0.3629 -0.1371
  678MOL0     H93512   4.786   8.858   2.206  1.8001  1.0606  0.3288
  678MOL0     H93513   4.489   8.960   2.134 -0.7116 -1.5067 -0.1605
  678MOL0     H93514   4.217   8.841   2.370  0.9506  1.6945  1.4286
  678MOL0     H93515   4.278   8.839   2.202 -1.7713  0.3647 -0.3540
  678MOL0     H93516   4.152   9.071   2.340 -1.1682  0.8487  0.3562
  678MOL0     H93517   4.248   9.081   2.194  3.6378  0.0121  2.6671
  678MOL0     H93518   4.001   9.053   2.133  3.2352  0.8907 -1.2486
  678MOL0     H93519   4.099   8.937   2.062 -1.7922  3.7736 -2.4519
  678MOL0     H93520   3.946   8.887   2.323  0.2489 -2.2582  0.6630
  678MOL0     H93521   3.884   8.842   2.167  0.8143  0.5792 -0.5286
  678MOL0     H93522   4.064   8.520   2.148  0.8874  0.8589 -1.1667
  678MOL0     H93523   4.020   8.282   2.131  1.5717  0.4952  1.7874
  678MOL0     H93524   3.847   8.258   2.185 -0.2699  0.1324  0.8032
  678MOL0     H93525   3.983   8.194   2.279  0.1571  1.0518  1.1308
  678MOL0     H93526   3.771   8.245   2.762  2.6113 -0.9478  1.0763
  678MOL0     H93527   3.632   8.081   2.890  1.3021  1.0599  0.1370
  678MOL0     H93528   3.390   7.782   2.692  1.8944  2.4547 -0.5779
  678MOL0     H93529   3.542   7.694   2.665  0.9132  0.3607  0.3369
  678MOL0     H93530   3.528   7.582   2.894 -1.3283 -3.7315  0.4052
  678MOL0     H93531   3.389   7.677   2.937 -1.0351 -4.5004  0.1737
  678MOL0     H93532   3.366   7.478   2.709 -0.4399  0.2587  0.1365
  678MOL0     H93533   3.243   7.588   2.763  0.1074  1.6403 -2.9569
  678MOL0     H93534   3.261   7.472   2.979 -4.6922  3.5749 -2.0743
  678MOL0     H93535   3.378   7.350   2.884 -0.5493 -1.1116 -1.1209
  678MOL0     H93536   3.188   7.313   2.728  1.6470 -1.5081  0.9166
  678MOL0     H93537   3.184   7.236   2.886  1.3161  0.7981  1.1054
  678MOL0     H93538   2.961   7.336   2.768  1.3433 -1.9199  0.6657
  678MOL0     H93539   3.032   7.495   2.788  0.8524 -0.2468  2.3498
  678MOL0     H93540   3.025   7.497   3.010 -2.3125  1.6335 -0.3474
  678MOL0     H93541   2.995   7.307   3.010 -0.5669 -0.7597 -0.8782
  678MOL0     H93542   2.799   7.443   3.067  0.3479  2.5800 -0.0837
  678MOL0     H93543   2.772   7.346   2.925  0.4263 -1.2832 -0.2264
  678MOL0     H93544   3.670   7.807   2.562  3.0797 -0.5818 -0.6666
  678MOL0     H93545   3.816   7.956   2.449  0.2402 -2.2725  1.2652
  678MOL0     H93546   3.848   8.535   2.595  0.5724  0.1905  0.0155
  678MOL0     H93547   3.971   8.737   2.505  3.9468 -1.7020  1.3383
  678MOL0     H93548   4.748   8.878   2.973  0.9329 -0.7819 -0.0941
  678MOL0     H93549   4.667   9.056   3.123 -0.2946  0.0101 -0.5762
  678MOL0     H93550   4.834   9.349   3.459 -0.6938 -1.7263  0.1451
  678MOL0     H93551   4.798   9.545   3.603  0.2562  0.5789  1.8447
  678MOL0     H93552   4.365   9.609   3.711  2.1775 -0.9889 -1.7315
  678MOL0     H93553   4.453   9.609   3.868  1.9608 -1.7574 -0.3728
  678MOL0     H93554   4.350   9.820   3.818 -0.5500 -1.9914 -0.8509
  678MOL0     H93555   4.474   9.838   3.678  1.8514 -1.4364 -0.3325
  678MOL0     H93556   4.547   9.804   3.977 -2.3325 -0.2662 -0.2241
  678MOL0     H93557   4.655   9.816   3.844  1.1772  2.6767  0.9634
  678MOL0     H93558   4.582  10.049   3.787  2.5811  1.3372  0.9414
  678MOL0     H93559   4.646  10.030   3.951 -2.0649  1.0966  1.8560
  678MOL0     H93560   4.276  10.116   4.092 -0.4977  0.9270  0.1579
  678MOL0     H93561   4.415   9.383   3.716  0.1249  0.4739 -0.4808
  678MOL0     H93562   4.348   9.168   3.454  1.5263 -0.1613 -0.5315
  678MOL0     H93563   4.443   9.074   3.572  0.0320  0.6459  1.7629
  678MOL0     H93564   4.329   9.199   3.628 -0.9351  3.0682 -2.4632
  679MOL0     O93565   5.366   6.434   1.575  0.2369 -0.2735  0.0020
  679MOL0     C93566   5.369   6.446   1.452 -0.0969  0.1872 -0.3341
  679MOL0     O93567   5.418   6.551   1.390 -0.0657 -0.2314 -0.4236
  679MOL0     C93568   5.552   6.573   1.431 -0.1447 -0.2877  0.5019
  679MOL0     C93569   5.638   6.462   1.442 -0.0945 -0.0545 -0.1202
  679MOL0     C93570   5.771   6.489   1.468  0.2678 -0.3131 -0.5968
  679MOL0     C93571   5.824   6.622   1.491  0.5958  0.1995 -1.0418
  679MOL0     O93572   5.948   6.651   1.532 -0.5284 -0.1678 -0.1507
  679MOL0     C93573   6.047   6.549   1.554 -0.1640 -0.0241 -0.6344
  679MOL0     C93574   6.094   6.500   1.415  0.4936 -0.1377  0.2346
  679MOL0     C93575   6.193   6.391   1.446 -0.5298 -0.0642  0.6944
  679MOL0     C93576   6.301   6.378   1.344  0.2092  0.1341 -0.7625
  679MOL0     C93577   6.397   6.263   1.386 -0.7532 -0.4736  0.2988
  679MOL0     C93578   6.478   6.215   1.269 -0.1960  0.2363 -0.3628
  679MOL0     C93579   6.556   6.086   1.306  0.3044  0.6189 -0.1196
  679MOL0     C93580   6.678   6.083   1.402  0.7445  0.1230 -0.4673
  679MOL0     N93581   6.750   6.210   1.387  0.3553  0.0117  0.4482
  679MOL0     C93582   6.736   6.309   1.474 -0.0225  0.1275 -0.4481
  679MOL0     C93583   6.846   6.384   1.449  0.3175  1.0922  0.7946
  679MOL0     C93584   6.869   6.520   1.517  0.8171  0.2884 -0.2084
  679MOL0     C93585   7.005   6.539   1.580  0.1591 -0.5042 -0.0295
  679MOL0     C93586   7.120   6.514   1.484  0.2890  0.4216  0.8320
  679MOL0     C93587   7.255   6.576   1.515 -0.0729 -0.4683  0.1125
  679MOL0     O93588   7.291   6.582   1.653  0.1837  1.0547  0.0265
  679MOL0     C93589   7.400   6.667   1.669 -0.5901 -0.5364  0.0379
  679MOL0     C93590   7.403   6.808   1.654  0.2407  0.8797 -0.5429
  679MOL0     C93591   7.525   6.881   1.673 -0.1014  0.9722 -0.1350
  679MOL0     C93592   7.528   7.037   1.646  0.5986 -0.0934 -0.4140
  679MOL0     C93593   7.644   6.807   1.689  0.2638 -0.6555 -0.5229
  679MOL0     C93594   7.778   6.866   1.699  0.1650 -0.2786  0.2005
  679MOL0     O93595   7.887   6.786   1.672  0.1575  0.5430 -0.0498
  679MOL0     C93596   7.998   6.832   1.729 -0.2092 -1.0457 -0.5332
  679MOL0     C93597   8.028   6.811   1.863  0.1338  0.0311 -0.2616
  679MOL0     C93598   8.140   6.854   1.919 -0.1757 -0.2126  0.1346
  679MOL0     C93599   8.227   6.930   1.851  0.6279 -0.1337  0.2777
  679MOL0     O93600   8.325   6.990   1.921  0.3333  0.3926 -0.2940
  679MOL0     C93601   8.291   7.120   1.970  0.2945 -0.6047  0.2907
  679MOL0     C93602   8.315   7.142   2.112 -0.1835 -0.3694 -0.5008
  679MOL0     C93603   8.463   7.158   2.144  0.0012  0.3439  0.1872
  679MOL0     C93604   8.476   7.148   2.304  0.2358  0.4184  0.3055
  679MOL0     C93605   8.615   7.184   2.358  0.9282  0.8135  0.2978
  679MOL0     C93606   8.620   7.184   2.508  0.0375 -0.2610 -0.5719
  679MOL0     C93607   8.602   7.329   2.562  0.0729  0.4499 -0.0293
  679MOL0     C93608   8.576   7.327   2.715  0.7520  0.0265  0.3948
  679MOL0    Cl93609   8.723   7.255   2.796 -0.3680 -0.3400  0.1480
  679MOL0     C93610   8.204   6.946   1.712 -0.8372 -0.1343 -0.1711
  679MOL0     C93611   8.091   6.890   1.653 -0.5499  0.9294 -1.3391
  679MOL0     O93612   7.780   6.986   1.736 -0.6252  0.5565 -0.4175
  679MOL0     C93613   7.634   6.671   1.714 -0.3899 -0.3495 -0.3904
  679MOL0     C93614   7.514   6.598   1.711 -0.2794 -0.2911  0.1983
  679MOL0     N93615   6.920   6.330   1.345 -0.3911  0.2508  0.0379
  679MOL0     N93616   6.857   6.226   1.309 -0.0037  1.1114  0.1181
  679MOL0     C93617   5.738   6.721   1.467  0.6424  0.4220  0.8115
  679MOL0     C93618   5.608   6.704   1.429  0.3732  0.3458 -0.4158
  679MOL0     C93619   5.261   6.381   1.376 -0.8313  0.8029 -0.6897
  679MOL0     C93620   5.143   6.353   1.452 -0.2049  0.0274  0.1277
  679MOL0     C93621   5.039   6.283   1.386 -0.1307  0.1084 -0.2713
  679MOL0     C93622   5.048   6.232   1.258  0.6187 -0.0157  0.0887
  679MOL0     O93623   4.940   6.161   1.202 -0.4573 -0.6730 -0.1355
  679MOL0     C93624   4.985   6.023   1.176  0.7820 -0.1348  0.2036
  679MOL0     C93625   5.003   6.001   1.026 -0.6190  0.4513  1.1786
  679MOL0     C93626   5.021   5.865   0.968 -0.5358  0.7112 -0.1785
  679MOL0     C93627   5.141   5.793   1.034 -0.8769 -0.7736 -1.1250
  679MOL0     C93628   5.272   5.849   0.989 -1.1036 -0.0621  0.1360
  679MOL0     C93629   5.391   5.876   0.967 -0.1565 -0.0570 -0.1808
  679MOL0     C93630   5.167   6.252   1.194  0.9540 -0.2652 -0.1921
  679MOL0     C93631   5.275   6.333   1.240  0.5691  0.6083 -0.3031
  679MOL0     C93632   5.398   6.357   1.147 -0.4289 -0.3560 -0.4811
  679MOL0     H93633   5.596   6.362   1.444 -4.2766  1.4758 -1.2230
  679MOL0     H93634   5.831   6.403   1.494  1.4606  0.5946 -0.2394
  679MOL0     H93635   6.014   6.460   1.610  1.7306  0.2537  1.0513
  679MOL0     H93636   6.131   6.582   1.616 -0.9092 -2.4117  1.8973
  679MOL0     H93637   6.012   6.462   1.353  0.9091 -1.7705  0.6358
  679MOL0     H93638   6.149   6.583   1.368 -2.6128  2.3043  0.5938
  679MOL0     H93639   6.253   6.412   1.535 -2.5769  1.4533  1.8048
  679MOL0     H93640   6.149   6.292   1.462  1.8235 -1.4314 -0.6722
  679MOL0     H93641   6.262   6.364   1.242 -0.3753 -0.2254 -0.4910
  679MOL0     H93642   6.364   6.467   1.343 -1.9127  1.7072 -1.1769
  679MOL0     H93643   6.329   6.179   1.407 -2.0473  0.1489 -1.2208
  679MOL0     H93644   6.458   6.297   1.470 -0.4454  0.2600 -0.2132
  679MOL0     H93645   6.403   6.184   1.196 -1.7997  3.6950 -0.3808
  679MOL0     H93646   6.532   6.297   1.219 -2.6166  2.0409 -0.1806
  679MOL0     H93647   6.588   6.028   1.219  2.0043 -2.0638  2.1391
  679MOL0     H93648   6.483   6.016   1.347  0.7422 -0.9996 -1.9420
  679MOL0     H93649   6.646   6.064   1.505 -0.3647 -0.7499 -0.9471
  679MOL0     H93650   6.744   6.002   1.371 -0.4581 -1.2836  0.5548
  679MOL0     H93651   6.658   6.326   1.548 -0.5903 -0.7275 -0.8420
  679MOL0     H93652   6.789   6.541   1.589  1.8075  0.3583  0.9042
  679MOL0     H93653   6.856   6.594   1.437 -0.0259 -0.8266 -1.1478
  679MOL0     H93654   7.006   6.643   1.612  0.9625 -0.6852  0.5474
  679MOL0     H93655   7.019   6.477   1.668  0.1003 -1.4598 -0.6743
  679MOL0     H93656   7.137   6.407   1.472  0.3587  0.4547  0.6309
  679MOL0     H93657   7.089   6.548   1.385 -0.2198 -3.4977 -0.5214
  679MOL0     H93658   7.337   6.523   1.465  0.6666  0.9919 -0.2653
  679MOL0     H93659   7.268   6.678   1.480  1.4125  1.3298  5.0570
  679MOL0     H93660   7.309   6.855   1.627  0.2336  1.2280  0.0771
  679MOL0     H93661   7.537   7.082   1.745  1.1065  0.6480 -0.7865
  679MOL0     H93662   7.435   7.076   1.601 -1.5125 -2.2012  1.8186
  679MOL0     H93663   7.607   7.063   1.575 -1.6361 -0.2361 -3.1756
  679MOL0     H93664   7.958   6.749   1.919  0.3763  1.0544  1.2473
  679MOL0     H93665   8.164   6.844   2.024 -0.6503  1.8742  0.4829
  679MOL0     H93666   8.350   7.191   1.911 -1.0254  0.8777  0.6830
  679MOL0     H93667   8.186   7.139   1.948  0.4882 -2.4899 -2.8181
  679MOL0     H93668   8.266   7.235   2.143  3.5735  0.7961  2.8008
  679MOL0     H93669   8.272   7.063   2.173 -1.4724  0.4333 -0.3343
  679MOL0     H93670   8.493   7.259   2.116  1.5701 -0.0819  0.2115
  679MOL0     H93671   8.511   7.081   2.084 -3.3879 -0.5392 -1.6019
  679MOL0     H93672   8.467   7.044   2.336 -2.7305  0.0739 -1.3561
  679MOL0     H93673   8.413   7.222   2.354 -1.0732 -0.8037  0.5234
  679MOL0     H93674   8.688   7.109   2.326 -0.8681 -1.1096  0.4800
  679MOL0     H93675   8.637   7.282   2.313  0.9097  0.4279 -0.5699
  679MOL0     H93676   8.718   7.147   2.541  0.1964 -0.3776 -1.1572
  679MOL0     H93677   8.554   7.105   2.544  1.6548 -1.4061  0.0450
  679MOL0     H93678   8.509   7.375   2.527 -0.3846 -2.0342 -2.3689
  679MOL0     H93679   8.688   7.395   2.551 -1.2928  2.5553  1.0705
  679MOL0     H93680   8.486   7.268   2.734  0.6159 -0.4249 -1.5317
  679MOL0     H93681   8.535   7.422   2.749  1.0789 -0.3457  1.9308
  679MOL0     H93682   8.272   7.010   1.655 -0.6835  2.6961  2.8872
  679MOL0     H93683   8.074   6.900   1.547 -0.8846  0.5685 -1.3195
  679MOL0     H93684   7.731   6.625   1.727 -0.5113 -0.9555 -1.4100
  679MOL0     H93685   7.513   6.490   1.721 -2.3195 -0.3033  0.3757
  679MOL0     H93686   5.765   6.826   1.475 -2.8436  1.5852 -0.7839
  679MOL0     H93687   5.547   6.791   1.406 -0.4800 -0.5758 -1.7521
  679MOL0     H93688   5.135   6.369   1.559 -0.1652 -0.0179  0.1375
  679MOL0     H93689   4.951   6.279   1.450  0.0572  1.0759  0.0565
  679MOL0     H93690   5.074   5.983   1.225 -0.8361 -1.4360  2.2376
  679MOL0     H93691   4.896   5.965   1.203  1.8799 -1.2407  1.5669
  679MOL0     H93692   5.084   6.063   0.988 -2.8948  3.0572  0.2372
  679MOL0     H93693   4.911   6.034   0.977  1.3914  2.8656 -1.3284
  679MOL0     H93694   4.929   5.809   0.982  0.3207 -1.0119 -1.1264
  679MOL0     H93695   5.042   5.882   0.862  4.7326 -2.6995 -0.0758
  679MOL0     H93696   5.129   5.686   1.022  2.5828 -1.3611 -0.5130
  679MOL0     H93697   5.141   5.800   1.143  4.1019 -1.3412 -0.8642
  679MOL0     H93698   5.493   5.900   0.947 -0.6795  0.3670 -2.5267
  679MOL0     H93699   5.185   6.207   1.097  1.0048  0.2748 -0.4364
  679MOL0     H93700   5.495   6.341   1.197 -1.3873 -2.3212  0.8923
  679MOL0     H93701   5.399   6.284   1.066  1.4250  0.9791 -1.7522
  679MOL0     H93702   5.402   6.461   1.114  0.8330  0.5193  2.1292
  680MOL0     O93703   5.222   6.314   6.569 -0.1453  0.8589  0.8752
  680MOL0     C93704   5.241   6.419   6.626  0.2885 -0.1777 -0.1563
  680MOL0     O93705   5.174   6.458   6.740 -0.2283  0.3540 -0.4169
  680MOL0     C93706   5.086   6.368   6.790 -0.0800  0.0210 -0.6071
  680MOL0     C93707   4.960   6.347   6.731  0.2897 -0.5637  0.9955
  680MOL0     C93708   4.872   6.248   6.773  0.5199 -0.2111 -1.0233
  680MOL0     C93709   4.897   6.180   6.889  0.2563  0.7512 -0.1758
  680MOL0     O93710   4.824   6.082   6.957 -0.3083  1.1583  0.1921
  680MOL0     C93711   4.749   5.984   6.872 -0.7073 -0.7321 -0.0684
  680MOL0     C93712   4.818   5.849   6.884  0.0255 -0.5575  0.1662
  680MOL0     C93713   4.776   5.763   7.000 -0.3731  0.2428  0.0975
  680MOL0     C93714   4.837   5.819   7.133 -0.1969 -0.0314 -0.0512
  680MOL0     C93715   4.809   5.706   7.233 -0.2828 -0.1344  0.6834
  680MOL0     C93716   4.861   5.740   7.366  0.1788 -0.6320 -0.0201
  680MOL0     C93717   4.772   5.844   7.441 -0.5890  0.0935 -0.0463
  680MOL0     C93718   4.798   5.853   7.588 -1.0960 -0.2939 -0.2947
  680MOL0     N93719   4.938   5.906   7.611  0.7192  0.6532 -0.7165
  680MOL0     C93720   5.012   5.854   7.707 -0.5137 -0.5257 -0.5573
  680MOL0     C93721   5.092   5.959   7.739 -0.7123 -0.2632 -0.0446
  680MOL0     C93722   5.190   5.965   7.857 -0.4584 -0.5150  0.3229
  680MOL0     C93723   5.324   6.035   7.813  0.0925 -0.2063 -0.4198
  680MOL0     C93724   5.414   6.051   7.943 -0.2224 -0.4458  0.4143
  680MOL0     C93725   5.549   6.111   7.908 -0.4955 -1.3303 -0.4339
  680MOL0     O93726   5.616   6.182   8.022  0.5317 -0.1415 -0.3016
  680MOL0     C93727   5.747   6.205   8.006  0.2974  0.5904  0.8113
  680MOL0     C93728   5.804   6.229   7.881  0.0024  0.2028  0.3131
  680MOL0     C93729   5.937   6.266   7.856  0.4337 -0.1979 -0.2847
  680MOL0     C93730   5.970   6.325   7.721 -0.4006  0.0314  0.2037
  680MOL0     C93731   6.031   6.261   7.969 -0.1044 -0.3005  0.1484
  680MOL0     C93732   6.178   6.281   7.958  0.0162  0.4924 -0.3375
  680MOL0     O93733   6.244   6.312   8.066  0.0035  0.1631  0.0524
  680MOL0     C93734   6.379   6.293   8.062 -0.3342  1.0157  0.2595
  680MOL0     C93735   6.436   6.163   8.080 -0.1214  0.4266 -0.0791
  680MOL0     C93736   6.567   6.143   8.063  0.0353  0.0326  0.7915
  680MOL0     C93737   6.647   6.257   8.043 -0.8493  0.0809  0.4577
  680MOL0     O93738   6.780   6.241   8.029  0.2733  0.4808  0.0514
  680MOL0     C93739   6.861   6.297   8.137 -0.3470  0.0752 -0.9584
  680MOL0     C93740   6.973   6.199   8.167  0.3306 -0.2202 -1.2287
  680MOL0     C93741   7.072   6.195   8.054 -0.4009 -0.1059  0.0733
  680MOL0     C93742   7.199   6.143   8.106 -0.7867  0.0935 -0.9451
  680MOL0     C93743   7.289   6.109   7.982  0.1091 -0.3683 -0.4420
  680MOL0     C93744   7.423   6.054   8.034  0.0228  0.2927 -0.3654
  680MOL0     C93745   7.526   6.152   8.094 -0.8900 -0.5069  0.1829
  680MOL0     C93746   7.655   6.076   8.125 -0.4996 -0.1639 -0.6368
  680MOL0    Cl93747   7.742   6.018   7.980 -0.2360 -0.0624 -0.6942
  680MOL0     C93748   6.600   6.392   8.038  0.8881 -0.5043  0.7766
  680MOL0     C93749   6.460   6.409   8.058  0.1402 -0.1928  0.4173
  680MOL0     O93750   6.226   6.263   7.846 -0.4937 -0.5442  0.0290
  680MOL0     C93751   5.967   6.236   8.096 -0.5052  0.2857  0.3600
  680MOL0     C93752   5.833   6.215   8.105  0.4196 -0.6755 -0.4683
  680MOL0     N93753   5.076   6.060   7.644  1.0281 -0.0960 -0.0881
  680MOL0     N93754   4.971   6.026   7.565 -0.3229 -0.4514  0.0558
  680MOL0     C93755   5.016   6.196   6.945  0.7129 -0.0755  0.3557
  680MOL0     C93756   5.112   6.292   6.908  0.4252  0.0943  0.2748
  680MOL0     C93757   5.333   6.528   6.567 -0.1513 -1.0541 -0.3272
  680MOL0     C93758   5.303   6.661   6.611  0.0691  1.1303  0.0664
  680MOL0     C93759   5.360   6.765   6.552 -0.3195 -0.5500 -1.0671
  680MOL0     C93760   5.455   6.753   6.452 -0.5057  1.9017 -0.2780
  680MOL0     O93761   5.519   6.864   6.396  0.3703  0.0363 -0.7525
  680MOL0     C93762   5.623   6.841   6.308  0.2444 -0.3863 -0.7851
  680MOL0     C93763   5.709   6.963   6.271 -0.2134 -0.8923 -0.0922
  680MOL0     C93764   5.791   6.929   6.140 -0.1941 -0.7527  0.3116
  680MOL0     C93765   5.902   7.027   6.102 -0.7011 -0.2585 -0.0838
  680MOL0     C93766   5.849   7.159   6.058 -0.1890  0.5462  0.3125
  680MOL0     C93767   5.812   7.268   6.021  0.3299  1.1106  0.8226
  680MOL0     C93768   5.490   6.620   6.412  0.5370  0.5532 -0.1686
  680MOL0     C93769   5.426   6.508   6.467 -0.6283  0.6143  0.6038
  680MOL0     C93770   5.467   6.370   6.405 -0.1055  0.3180 -0.3507
  680MOL0     H93771   4.937   6.405   6.642 -3.2336 -0.3214  1.9292
  680MOL0     H93772   4.779   6.230   6.719 -0.7954  1.5344  0.5177
  680MOL0     H93773   4.745   5.995   6.763 -1.7763 -0.8424 -0.0475
  680MOL0     H93774   4.646   5.984   6.906 -0.6268  0.1451  0.2036
  680MOL0     H93775   4.794   5.795   6.792  2.6377  2.3425 -2.4095
  680MOL0     H93776   4.925   5.869   6.883 -0.4898  2.6386  0.4699
  680MOL0     H93777   4.666   5.759   7.004 -0.4376 -0.0811 -1.4471
  680MOL0     H93778   4.810   5.660   6.986 -1.9286 -0.0726 -1.6903
  680MOL0     H93779   4.942   5.833   7.107 -0.2929 -1.0230 -1.0308
  680MOL0     H93780   4.792   5.912   7.170  0.0730  0.4661 -0.9559
  680MOL0     H93781   4.862   5.613   7.209  1.2172  0.2074  2.4377
  680MOL0     H93782   4.701   5.689   7.230 -0.4446  0.8736 -2.0675
  680MOL0     H93783   4.853   5.656   7.435  0.4333  1.6106  2.9750
  680MOL0     H93784   4.966   5.771   7.361 -0.1228  0.2365 -1.5518
  680MOL0     H93785   4.666   5.825   7.423 -0.2036 -1.2763 -1.0359
  680MOL0     H93786   4.788   5.940   7.391  1.9280 -0.1070  0.2699
  680MOL0     H93787   4.733   5.935   7.619  0.8132  2.7933 -3.6575
  680MOL0     H93788   4.789   5.761   7.645  0.3483  0.9987  2.1822
  680MOL0     H93789   5.003   5.763   7.766  1.1831  0.6659  1.7325
  680MOL0     H93790   5.208   5.857   7.861  0.3275 -0.6518 -3.5372
  680MOL0     H93791   5.140   6.007   7.945  2.3668  3.0301  0.4260
  680MOL0     H93792   5.374   5.977   7.735  0.7154 -2.1783  1.3684
  680MOL0     H93793   5.292   6.133   7.775 -2.3463 -0.6423  0.3058
  680MOL0     H93794   5.365   6.109   8.022 -0.3740  0.7400 -0.5145
  680MOL0     H93795   5.437   5.955   7.989  0.8239 -0.6308 -0.4350
  680MOL0     H93796   5.616   6.037   7.864  2.6017  1.6196 -1.0541
  680MOL0     H93797   5.534   6.189   7.833  1.8098 -0.3113  0.0735
  680MOL0     H93798   5.738   6.228   7.795  0.4619  1.9290 -0.0873
  680MOL0     H93799   5.871   6.360   7.689 -1.6751 -0.5313  3.2134
  680MOL0     H93800   6.013   6.250   7.654  0.8305 -1.1977  2.2680
  680MOL0     H93801   6.052   6.398   7.724  1.7530 -2.0178 -2.8245
  680MOL0     H93802   6.369   6.079   8.098  0.7492 -0.7114 -1.9249
  680MOL0     H93803   6.617   6.048   8.079  1.2396  0.7059  1.1181
  680MOL0     H93804   6.899   6.394   8.104 -2.1375  0.7973 -1.0108
  680MOL0     H93805   6.800   6.314   8.227 -1.8339 -1.5610 -1.5874
  680MOL0     H93806   7.024   6.231   8.258  0.0143  2.0266 -1.7699
  680MOL0     H93807   6.933   6.098   8.173 -1.4830  0.3143 -2.9668
  680MOL0     H93808   7.095   6.295   8.017 -0.9849 -0.3625 -1.0239
  680MOL0     H93809   7.034   6.141   7.967 -0.1074 -1.4401  0.7430
  680MOL0     H93810   7.183   6.050   8.162  3.8327 -0.9281 -0.9792
  680MOL0     H93811   7.245   6.212   8.177 -0.8333  3.7180 -4.1242
  680MOL0     H93812   7.242   6.025   7.930 -1.8251  0.8374 -0.7129
  680MOL0     H93813   7.302   6.193   7.914  0.8415 -1.0918 -1.2182
  680MOL0     H93814   7.484   6.003   7.959  2.0891  1.5587  0.3474
  680MOL0     H93815   7.390   5.983   8.110 -1.3580  0.1026 -1.1138
  680MOL0     H93816   7.491   6.207   8.182  1.4208  0.7477  0.4052
  680MOL0     H93817   7.562   6.220   8.016  2.1731 -1.4936  0.6017
  680MOL0     H93818   7.632   5.991   8.190 -2.8123 -1.8312 -3.3878
  680MOL0     H93819   7.720   6.150   8.172  0.2815 -1.0714 -0.2637
  680MOL0     H93820   6.659   6.478   8.006 -3.5174  2.5569  0.0624
  680MOL0     H93821   6.409   6.503   8.040 -0.9330 -0.9694 -0.7333
  680MOL0     H93822   6.020   6.226   8.190 -2.2128 -1.4485  1.2130
  680MOL0     H93823   5.788   6.215   8.204  1.7625 -0.7357  0.1719
  680MOL0     H93824   5.034   6.127   7.027 -0.6485 -2.4227 -1.1919
  680MOL0     H93825   5.205   6.312   6.959  0.7476  0.7050 -0.5479
  680MOL0     H93826   5.233   6.678   6.693 -0.6275 -1.9820  0.2508
  680MOL0     H93827   5.353   6.866   6.590  2.1823 -0.5637 -0.4134
  680MOL0     H93828   5.690   6.768   6.354  0.2664  0.3831  0.4252
  680MOL0     H93829   5.585   6.799   6.214 -2.0939 -1.9637  0.7383
  680MOL0     H93830   5.779   6.984   6.352 -0.3380 -1.7534  0.2419
  680MOL0     H93831   5.649   7.054   6.255  1.3185  0.5639  1.9019
  680MOL0     H93832   5.831   6.828   6.141  1.6963 -0.0715 -0.9865
  680MOL0     H93833   5.724   6.921   6.054  0.1011 -0.0672  0.0104
  680MOL0     H93834   5.959   6.990   6.016 -1.1506 -1.3531  0.0640
  680MOL0     H93835   5.977   7.036   6.182 -2.5104 -0.6354  1.7473
  680MOL0     H93836   5.778   7.362   5.981 -2.6058 -0.2824 -0.2035
  680MOL0     H93837   5.562   6.596   6.335  0.8108  1.6080 -0.2537
  680MOL0     H93838   5.570   6.388   6.374  1.0302  0.8929  3.2588
  680MOL0     H93839   5.476   6.296   6.485 -2.2173  1.9901  1.5914
  680MOL0     H93840   5.403   6.336   6.323  0.5666  0.2474 -0.8533
  681MOL0     O93841   9.957   1.552   4.663 -0.0753 -0.3651  0.4408
  681MOL0     C93842   9.929   1.543   4.546 -0.5893  0.1653 -0.8913
  681MOL0     O93843  10.015   1.504   4.446 -0.4248 -0.1744 -0.6168
  681MOL0     C93844  10.142   1.492   4.484  0.0420  0.2700 -0.9268
  681MOL0     C93845  10.188   1.381   4.550 -0.4396  0.2117 -0.2342
  681MOL0     C93846  10.318   1.380   4.612  0.3169 -0.3344  0.5367
  681MOL0     C93847  10.399   1.492   4.599  0.5080  0.3581 -0.8867
  681MOL0     O93848  10.527   1.476   4.653  0.5759 -0.4355 -0.6648
  681MOL0     C93849  10.613   1.586   4.667  0.1905 -0.2361  0.5496
  681MOL0     C93850  10.741   1.552   4.732  0.1169  0.8072 -1.1713
  681MOL0     C93851  10.835   1.476   4.647  0.7086 -0.4861  0.4180
  681MOL0     C93852  10.910   1.366   4.723  0.0154 -0.6762 -0.2322
  681MOL0     C93853  11.013   1.413   4.823 -0.2846 -0.5276  0.5238
  681MOL0     C93854  11.083   1.283   4.869 -1.1260  0.2803 -0.0389
  681MOL0     C93855  11.196   1.317   4.968 -0.7084 -0.2089  0.4222
  681MOL0     C93856  11.292   1.209   5.021  1.3835 -0.4621 -0.6580
  681MOL0     N93857  11.388   1.152   4.923  0.1085  0.2094 -0.6831
  681MOL0     C93858  11.379   1.110   4.792 -0.1293 -0.3851  0.3875
  681MOL0     C93859  11.509   1.096   4.751  0.5224 -0.1184 -0.4835
  681MOL0     C93860  11.554   1.041   4.616  0.0322  0.4349  1.2228
  681MOL0     C93861  11.612   0.900   4.629 -0.4442 -0.0263  0.7796
  681MOL0     C93862  11.678   0.846   4.502  0.3863 -0.6096 -0.4879
  681MOL0     C93863  11.573   0.817   4.390  0.0736 -0.3504 -1.3457
  681MOL0     O93864  11.632   0.776   4.266  0.9567 -0.0148 -0.2113
  681MOL0     C93865  11.698   0.658   4.256  0.3581 -0.0667  0.8552
  681MOL0     C93866  11.809   0.638   4.165  0.1994 -0.3318 -0.6158
  681MOL0     C93867  11.885   0.520   4.158  0.2587 -0.4669 -0.1410
  681MOL0     C93868  12.002   0.518   4.069  0.8437 -0.0414  0.7660
  681MOL0     C93869  11.847   0.415   4.246 -0.4957 -0.2975 -0.1307
  681MOL0     C93870  11.925   0.281   4.256 -0.0638  0.1882  0.0761
  681MOL0     O93871  11.896   0.203   4.363 -0.7868 -0.4805 -0.1746
  681MOL0     C93872  11.953   0.083   4.366 -0.0012  0.1745  0.6727
  681MOL0     C93873  11.873  -0.019   4.321 -0.1347  0.5253 -0.8371
  681MOL0     C93874  11.911  -0.151   4.317 -0.6978  0.5673 -1.5144
  681MOL0     C93875  12.036  -0.185   4.381  0.5484  0.2515  0.2328
  681MOL0     O93876  12.073  -0.318   4.370 -0.1158 -0.0761  0.1380
  681MOL0     C93877  12.184  -0.361   4.452  0.1845 -0.1547  0.0673
  681MOL0     C93878  12.230  -0.503   4.429 -0.4361  0.2184 -0.2069
  681MOL0     C93879  12.313  -0.515   4.298 -0.0693 -0.3925  0.0922
  681MOL0     C93880  12.409  -0.638   4.289  0.4194 -0.8016  0.4449
  681MOL0     C93881  12.470  -0.632   4.149 -0.2028 -0.0344  0.5530
  681MOL0     C93882  12.372  -0.683   4.039 -0.0904  0.2048 -0.3628
  681MOL0     C93883  12.444  -0.690   3.902  0.1360 -0.0530  0.3119
  681MOL0     C93884  12.379  -0.770   3.793 -0.7058  0.4830 -0.0592
  681MOL0    Cl93885  12.356  -0.950   3.820  0.0968  0.0389  0.0482
  681MOL0     C93886  12.118  -0.082   4.432 -0.3639 -0.4636  0.2666
  681MOL0     C93887  12.080   0.052   4.422  0.4287  0.9812  0.8817
  681MOL0     O93888  12.011   0.256   4.172 -0.1469 -0.5649 -0.2185
  681MOL0     C93889  11.734   0.428   4.325  0.1324 -0.0899 -0.3157
  681MOL0     C93890  11.663   0.546   4.342 -0.3406 -0.9401 -0.5328
  681MOL0     N93891  11.599   1.135   4.849 -0.7468  1.0246 -0.2502
  681MOL0     N93892  11.520   1.160   4.946 -0.3729  1.3701 -0.5851
  681MOL0     C93893  10.340   1.612   4.550 -0.6177  0.0114  0.8534
  681MOL0     C93894  10.217   1.604   4.482  0.2293  0.4271 -0.5834
  681MOL0     C93895   9.796   1.546   4.508 -0.4772  0.1554 -0.6326
  681MOL0     C93896   9.701   1.500   4.597 -0.4988 -0.1621  0.8395
  681MOL0     C93897   9.568   1.489   4.552 -0.1618 -0.6322 -0.4330
  681MOL0     C93898   9.522   1.511   4.425  0.4949 -0.3240 -0.0016
  681MOL0     O93899   9.389   1.492   4.390 -1.1105 -1.0619 -0.3865
  681MOL0     C93900   9.293   1.441   4.489 -0.1734 -0.5777  0.3611
  681MOL0     C93901   9.162   1.410   4.415  0.7099  0.7546  0.6504
  681MOL0     C93902   9.141   1.256   4.385  0.4035 -0.0798  1.0546
  681MOL0     C93903   8.990   1.228   4.359  0.0958 -0.3449  0.2560
  681MOL0     C93904   8.976   1.088   4.319  0.3021  0.7502  0.0009
  681MOL0     C93905   8.950   0.971   4.295 -0.6136 -1.3591 -0.8495
  681MOL0     C93906   9.625   1.552   4.334  1.0528 -0.1536 -0.2150
  681MOL0     C93907   9.758   1.581   4.373 -0.4242  0.0086 -0.5007
  681MOL0     C93908   9.847   1.642   4.269 -0.4618  0.3944  0.2604
  681MOL0     H93909  10.116   1.305   4.579  1.9175 -1.3456  2.0334
  681MOL0     H93910  10.361   1.287   4.647  1.2216 -1.5939 -3.3586
  681MOL0     H93911  10.551   1.659   4.721 -1.6926 -0.5908 -1.0076
  681MOL0     H93912  10.642   1.624   4.568 -1.4236  0.2131  0.2273
  681MOL0     H93913  10.788   1.648   4.756  1.2194  0.8585 -3.2691
  681MOL0     H93914  10.713   1.504   4.826 -1.2556  2.8792 -0.4545
  681MOL0     H93915  10.794   1.436   4.554 -0.4164 -0.4616  0.8943
  681MOL0     H93916  10.902   1.555   4.611 -0.9188  0.6962 -0.0925
  681MOL0     H93917  10.844   1.294   4.772  2.4176 -1.8188  1.5929
  681MOL0     H93918  10.960   1.311   4.643  0.1760 -2.0616  0.7769
  681MOL0     H93919  10.968   1.462   4.910  2.7718  2.5533  0.5696
  681MOL0     H93920  11.088   1.478   4.776  0.2548 -1.4141  0.1445
  681MOL0     H93921  11.017   1.215   4.923  2.1243 -2.9941  0.1665
  681MOL0     H93922  11.130   1.224   4.790  2.8278  1.7631  0.9399
  681MOL0     H93923  11.161   1.381   5.050  2.2855  2.1888 -0.0188
  681MOL0     H93924  11.262   1.389   4.919 -1.3906 -0.4963 -0.9698
  681MOL0     H93925  11.357   1.249   5.099  0.3568  1.8613 -0.9179
  681MOL0     H93926  11.227   1.130   5.060  0.0474  0.5810 -0.7142
  681MOL0     H93927  11.287   1.092   4.737 -0.8615 -1.4381  1.8625
  681MOL0     H93928  11.629   1.110   4.578 -0.1675  1.2003  2.1765
  681MOL0     H93929  11.474   1.044   4.542  1.0361 -0.0740  0.0943
  681MOL0     H93930  11.687   0.905   4.708 -0.0759  0.6499  0.3964
  681MOL0     H93931  11.530   0.831   4.652  0.0115 -1.1077 -0.6838
  681MOL0     H93932  11.749   0.920   4.464 -1.0028  1.1246  0.1322
  681MOL0     H93933  11.740   0.759   4.527  0.9068 -0.0390  0.2491
  681MOL0     H93934  11.500   0.743   4.424  1.3831 -1.2372 -0.3634
  681MOL0     H93935  11.517   0.909   4.374  2.5016  1.2249 -1.2654
  681MOL0     H93936  11.834   0.732   4.116 -1.2698  1.6602  2.1271
  681MOL0     H93937  11.981   0.465   3.976  1.8747 -1.0215  1.0632
  681MOL0     H93938  12.092   0.475   4.115  2.0896  1.7543  0.0958
  681MOL0     H93939  12.028   0.622   4.047  1.8752 -0.4607 -0.0897
  681MOL0     H93940  11.779   0.002   4.271 -0.7284 -2.2778 -1.0736
  681MOL0     H93941  11.858  -0.229   4.264  0.9209 -3.0229  1.7180
  681MOL0     H93942  12.270  -0.294   4.448  1.3866 -1.3147  3.2937
  681MOL0     H93943  12.153  -0.353   4.556  0.7527  0.4081  0.1901
  681MOL0     H93944  12.296  -0.541   4.508  0.4195  2.3478  0.1579
  681MOL0     H93945  12.146  -0.573   4.426 -0.9499  0.5794  2.7044
  681MOL0     H93946  12.380  -0.430   4.284 -1.0821  0.4782  0.3234
  681MOL0     H93947  12.241  -0.516   4.215  0.5141 -1.7718 -0.4181
  681MOL0     H93948  12.349  -0.729   4.295  0.3183 -0.8350 -0.7606
  681MOL0     H93949  12.490  -0.640   4.362 -0.0561  0.6125  1.0525
  681MOL0     H93950  12.508  -0.535   4.117 -1.4193 -0.6221 -3.1544
  681MOL0     H93951  12.544  -0.712   4.150 -2.2090 -1.9892  0.6591
  681MOL0     H93952  12.287  -0.615   4.040  0.7310  1.2685  0.7418
  681MOL0     H93953  12.346  -0.781   4.081  1.1162 -0.1564 -0.4328
  681MOL0     H93954  12.546  -0.727   3.916  1.0074  1.8304 -0.7478
  681MOL0     H93955  12.445  -0.585   3.871 -1.2901 -0.0041  0.3895
  681MOL0     H93956  12.448  -0.765   3.708 -1.8161 -1.3442 -1.1418
  681MOL0     H93957  12.282  -0.727   3.768  0.6079  2.4883 -2.2134
  681MOL0     H93958  12.210  -0.094   4.488  0.8736 -0.9099 -1.7631
  681MOL0     H93959  12.150   0.128   4.454  1.7607  0.4424 -0.6396
  681MOL0     H93960  11.707   0.334   4.372 -4.2217  0.5266 -1.1648
  681MOL0     H93961  11.574   0.544   4.404 -1.3673 -0.0413 -1.8921
  681MOL0     H93962  10.398   1.703   4.562  0.3668 -0.5101  0.2025
  681MOL0     H93963  10.173   1.694   4.440  0.7150 -0.0246 -2.0817
  681MOL0     H93964   9.726   1.478   4.701 -0.3948  0.4551  0.9468
  681MOL0     H93965   9.505   1.436   4.623 -0.8900  3.2506  2.1566
  681MOL0     H93966   9.340   1.356   4.540  2.9645  1.3165  0.8854
  681MOL0     H93967   9.276   1.523   4.559 -0.2548 -0.3531  0.0776
  681MOL0     H93968   9.132   1.471   4.329 -0.8668  0.6002  1.0541
  681MOL0     H93969   9.088   1.446   4.487 -0.6155 -0.0183 -0.2844
  681MOL0     H93970   9.191   1.242   4.289 -0.2628  1.3220  0.4590
  681MOL0     H93971   9.181   1.188   4.461  0.2865 -1.3234  0.0338
  681MOL0     H93972   8.937   1.292   4.288  0.0737  1.5515  1.8990
  681MOL0     H93973   8.941   1.236   4.456 -3.3618  3.2346 -1.4678
  681MOL0     H93974   8.928   0.867   4.284 -2.1556 -1.1761  0.1308
  681MOL0     H93975   9.588   1.576   4.235  0.3678  0.0140  0.0786
  681MOL0     H93976   9.908   1.571   4.212  0.5623  1.7427 -0.3639
  681MOL0     H93977   9.787   1.702   4.201  0.2613  0.1817 -0.5821
  681MOL0     H93978   9.915   1.712   4.318 -0.6534  0.1185  0.9297
  682MOL0     O93979   4.004   8.512   4.116 -0.4919 -0.3234  0.2936
  682MOL0     C93980   4.015   8.399   4.076  0.7245 -0.1674  0.0679
  682MOL0     O93981   3.957   8.295   4.136  0.5859 -0.6851 -0.1762
  682MOL0     C93982   3.868   8.318   4.242 -0.2085  0.4949 -0.3262
  682MOL0     C93983   3.904   8.398   4.355 -0.3705  0.5067  0.1045
  682MOL0     C93984   3.814   8.407   4.468 -0.8160  0.3254  1.3156
  682MOL0     C93985   3.690   8.345   4.468  0.1030  0.3071 -0.4447
  682MOL0     O93986   3.591   8.347   4.560  0.4501 -0.8679  0.6756
  682MOL0     C93987   3.644   8.342   4.692 -0.7947  0.1600 -0.0397
  682MOL0     C93988   3.536   8.292   4.792  0.4659  0.0612 -0.0536
  682MOL0     C93989   3.593   8.268   4.927  0.0013  0.2431 -0.1207
  682MOL0     C93990   3.640   8.123   4.963  0.7485  0.2855  0.3618
  682MOL0     C93991   3.537   8.030   5.022 -0.4338  0.7995 -0.5979
  682MOL0     C93992   3.583   7.885   5.021 -0.1134 -1.0101 -0.8608
  682MOL0     C93993   3.461   7.789   5.016 -0.4921 -0.3309 -1.2505
  682MOL0     C93994   3.395   7.769   5.175  0.5899 -1.3058 -0.0526
  682MOL0     N93995   3.301   7.660   5.171  0.2301  0.3266 -0.5482
  682MOL0     C93996   3.222   7.622   5.275 -0.2935  0.0909 -0.5750
  682MOL0     C93997   3.138   7.529   5.220 -0.4348 -0.1383 -0.0200
  682MOL0     C93998   3.042   7.446   5.309 -0.4969 -0.2930  0.0452
  682MOL0     C93999   2.918   7.399   5.233 -0.1755  0.4841 -1.2438
  682MOL0     C94000   2.941   7.260   5.174  1.4815  0.6957  0.6938
  682MOL0     C94001   2.830   7.200   5.099  0.3117 -0.3131 -0.7106
  682MOL0     O94002   2.868   7.071   5.051  0.8934  0.4390  0.2912
  682MOL0     C94003   2.778   6.996   4.981  1.1703  0.2132 -0.5586
  682MOL0     C94004   2.816   6.863   4.936  0.2269  0.2017  0.4094
  682MOL0     C94005   2.726   6.790   4.857 -0.7854 -0.2524 -0.1647
  682MOL0     C94006   2.783   6.667   4.793  0.3199 -0.4469 -0.6229
  682MOL0     C94007   2.600   6.843   4.827 -0.3506  0.1937  0.4176
  682MOL0     C94008   2.513   6.774   4.736  0.7312  0.0603  0.0662
  682MOL0     O94009   2.393   6.730   4.789 -0.3662  0.1080 -0.2090
  682MOL0     C94010   2.315   6.655   4.710 -0.1554  0.4353  0.0493
  682MOL0     C94011   2.191   6.701   4.673  0.4272 -0.2852  0.1893
  682MOL0     C94012   2.100   6.626   4.600 -0.2371 -0.1920  0.1297
  682MOL0     C94013   2.135   6.493   4.559  0.2099 -0.5171 -0.2865
  682MOL0     O94014   2.063   6.415   4.478  0.0807  0.0092  0.7350
  682MOL0     C94015   1.929   6.406   4.507 -0.1874 -0.1513 -0.0718
  682MOL0     C94016   1.846   6.319   4.411 -0.2150 -0.1637  0.5182
  682MOL0     C94017   1.690   6.333   4.444 -1.1107  0.6668  0.0762
  682MOL0     C94018   1.610   6.269   4.328 -0.8570  0.1954 -0.4954
  682MOL0     C94019   1.455   6.286   4.338  0.6341 -0.2587  0.5688
  682MOL0     C94020   1.360   6.236   4.226 -0.0599 -0.5778  0.5162
  682MOL0     C94021   1.380   6.087   4.185 -0.6635 -0.8415  0.0292
  682MOL0     C94022   1.262   6.036   4.101 -0.5838  0.0745  0.3466
  682MOL0    Cl94023   1.292   5.879   4.032  0.5487 -0.2264  0.1038
  682MOL0     C94024   2.263   6.448   4.584  0.5809  0.6109  0.4304
  682MOL0     C94025   2.348   6.522   4.661  0.4711 -0.1055 -1.1203
  682MOL0     O94026   2.551   6.768   4.622  0.3507 -0.7815 -0.5119
  682MOL0     C94027   2.562   6.971   4.864 -0.2592 -0.6293  0.0918
  682MOL0     C94028   2.646   7.040   4.956  0.5173 -0.4812  0.7960
  682MOL0     N94029   3.163   7.524   5.082 -0.7415 -0.5757  0.4555
  682MOL0     N94030   3.266   7.595   5.062  0.5195 -0.5229 -0.0905
  682MOL0     C94031   3.653   8.270   4.350 -0.1385  0.5125  0.3030
  682MOL0     C94032   3.743   8.256   4.241 -1.1830 -0.5335  0.3075
  682MOL0     C94033   4.115   8.360   3.976 -0.0159 -0.1733  0.4994
  682MOL0     C94034   4.130   8.218   3.947  0.3015 -0.8646 -0.6553
  682MOL0     C94035   4.221   8.166   3.853 -0.6232 -0.4177  0.5233
  682MOL0     C94036   4.303   8.250   3.782 -0.6028  0.3837  0.1034
  682MOL0     O94037   4.395   8.226   3.680  0.1259  0.0045  0.4103
  682MOL0     C94038   4.413   8.092   3.637  1.0866  0.1127 -0.8542
  682MOL0     C94039   4.291   8.040   3.560 -0.3207  0.2850  0.0205
  682MOL0     C94040   4.321   8.048   3.411 -0.0165  0.3302  0.1613
  682MOL0     C94041   4.295   8.183   3.344 -0.0291  0.5667  0.1830
  682MOL0     C94042   4.342   8.184   3.205  1.3866 -0.0841  0.8873
  682MOL0     C94043   4.368   8.174   3.090 -0.2814  0.5438 -0.8776
  682MOL0     C94044   4.292   8.388   3.807 -0.6123  0.4825 -0.4022
  682MOL0     C94045   4.193   8.451   3.895  0.5992 -0.1999 -0.6174
  682MOL0     C94046   4.173   8.599   3.907  0.3909 -1.1892 -0.4944
  682MOL0     H94047   4.005   8.438   4.360  0.3189 -1.2999  2.3815
  682MOL0     H94048   3.857   8.465   4.550  2.2684  0.4041 -0.2030
  682MOL0     H94049   3.665   8.441   4.734  1.3874 -1.0200  1.9095
  682MOL0     H94050   3.740   8.288   4.699 -0.6883  0.2219 -0.9249
  682MOL0     H94051   3.461   8.371   4.803 -1.0294 -1.2498 -0.2879
  682MOL0     H94052   3.485   8.202   4.754 -2.2892  0.0692  3.1298
  682MOL0     H94053   3.676   8.338   4.939 -0.7209  1.8911 -3.5668
  682MOL0     H94054   3.516   8.289   5.002  0.4715  0.0459  0.4251
  682MOL0     H94055   3.675   8.079   4.869 -1.2713  0.4886 -0.5399
  682MOL0     H94056   3.721   8.138   5.035 -0.8614 -0.1798  2.3913
  682MOL0     H94057   3.448   8.047   4.959 -0.8634  1.9675  0.2896
  682MOL0     H94058   3.519   8.042   5.129 -1.0986 -1.0118 -0.4635
  682MOL0     H94059   3.641   7.859   4.932  1.3737 -1.7989  0.3027
  682MOL0     H94060   3.651   7.879   5.106 -2.2603  0.1719  1.0526
  682MOL0     H94061   3.495   7.689   4.988  1.5263 -0.2080  0.5365
  682MOL0     H94062   3.391   7.811   4.935  0.9593 -0.9112 -2.6962
  682MOL0     H94063   3.472   7.740   5.247 -1.4461 -1.6112  2.1668
  682MOL0     H94064   3.351   7.866   5.200 -0.3395 -1.3275 -1.4870
  682MOL0     H94065   3.231   7.653   5.379 -3.0709 -2.6617  0.6547
  682MOL0     H94066   3.003   7.511   5.389 -1.9112 -0.5101 -0.4362
  682MOL0     H94067   3.092   7.356   5.347 -3.2984 -2.2696 -0.6415
  682MOL0     H94068   2.833   7.413   5.301  0.7389  3.6399 -0.6053
  682MOL0     H94069   2.907   7.472   5.152  1.0596  0.7491 -1.1995
  682MOL0     H94070   3.025   7.267   5.105 -0.0797  3.0748 -1.1015
  682MOL0     H94071   2.954   7.191   5.258 -0.0784  0.6653  0.9442
  682MOL0     H94072   2.741   7.186   5.161  2.1721  0.3293  2.3050
  682MOL0     H94073   2.809   7.270   5.018  2.3848  1.0059 -0.1885
  682MOL0     H94074   2.921   6.836   4.943 -0.1791 -2.3662 -1.9834
  682MOL0     H94075   2.816   6.696   4.693 -1.3886  1.6426 -0.6455
  682MOL0     H94076   2.701   6.595   4.797 -3.4696  3.4619 -0.3657
  682MOL0     H94077   2.872   6.641   4.851  0.9997  3.2009  0.2181
  682MOL0     H94078   2.170   6.805   4.698 -0.8572 -0.1233 -1.3836
  682MOL0     H94079   2.006   6.670   4.568  0.5772  1.2128 -0.4173
  682MOL0     H94080   1.915   6.367   4.608 -1.1772 -1.6834 -0.7450
  682MOL0     H94081   1.881   6.504   4.516 -1.2562 -0.8552  3.3153
  682MOL0     H94082   1.859   6.357   4.309 -2.0837 -1.5336 -0.2712
  682MOL0     H94083   1.891   6.220   4.408 -1.7293 -0.8519 -0.3883
  682MOL0     H94084   1.658   6.438   4.451 -0.7606  0.8181 -0.4703
  682MOL0     H94085   1.671   6.278   4.536  0.2496  2.1361  1.2887
  682MOL0     H94086   1.657   6.170   4.324 -0.4437  0.2810  1.2055
  682MOL0     H94087   1.634   6.315   4.232 -1.5407  3.7342  0.9071
  682MOL0     H94088   1.431   6.230   4.430  4.0928 -1.2225  1.0510
  682MOL0     H94089   1.439   6.394   4.346 -1.3936 -0.6067  2.1866
  682MOL0     H94090   1.378   6.291   4.134  0.6109 -0.0211  0.9780
  682MOL0     H94091   1.254   6.254   4.251 -0.4361  0.4428 -1.6048
  682MOL0     H94092   1.393   6.037   4.281  1.7751 -1.6229 -0.6289
  682MOL0     H94093   1.471   6.077   4.125  0.0182  5.7826 -0.7334
  682MOL0     H94094   1.245   6.116   4.028  0.5277  1.3011  1.3525
  682MOL0     H94095   1.175   6.058   4.164 -1.0151  1.7650 -0.7824
  682MOL0     H94096   2.289   6.348   4.550  1.3734 -0.0239  2.7617
  682MOL0     H94097   2.444   6.473   4.669 -0.4624 -1.6067  2.3772
  682MOL0     H94098   2.465   7.014   4.842  0.1061  2.2353  3.1493
  682MOL0     H94099   2.613   7.141   4.979  1.2564  0.1127 -0.6343
  682MOL0     H94100   3.555   8.223   4.339 -0.2771  0.6592  0.8679
  682MOL0     H94101   3.710   8.193   4.159 -1.0322 -1.0461  0.6356
  682MOL0     H94102   4.074   8.141   4.000 -0.7482 -0.0100 -0.4893
  682MOL0     H94103   4.232   8.059   3.839  0.1584 -0.6776  2.6474
  682MOL0     H94104   4.504   8.071   3.581  2.0205 -1.7998  1.2182
  682MOL0     H94105   4.413   8.029   3.727 -1.7108  3.3209  1.6635
  682MOL0     H94106   4.202   8.100   3.582  0.1364  0.5274  1.3109
  682MOL0     H94107   4.265   7.939   3.593 -1.7872  0.4320 -0.6249
  682MOL0     H94108   4.420   8.005   3.397 -0.5964 -2.5989  3.4186
  682MOL0     H94109   4.265   7.973   3.354 -2.1153  1.9197  0.0217
  682MOL0     H94110   4.341   8.266   3.399 -1.8988  1.3205  0.6680
  682MOL0     H94111   4.186   8.181   3.346 -0.1912 -4.6037 -0.2899
  682MOL0     H94112   4.375   8.169   2.984 -3.4574  0.5813 -1.1883
  682MOL0     H94113   4.350   8.463   3.754 -1.1291  0.4674 -0.9972
  682MOL0     H94114   4.228   8.656   3.831 -2.0082 -1.0656 -2.2500
  682MOL0     H94115   4.070   8.623   3.882  0.4078  0.2518  0.6256
  682MOL0     H94116   4.190   8.646   4.004 -2.0033  2.7286 -1.7652
  683MOL0     O94117   6.799   2.642   4.610 -0.4510 -0.8526 -1.1393
  683MOL0     C94118   6.718   2.731   4.632  0.1402 -0.3416  0.1313
  683MOL0     O94119   6.753   2.852   4.678  0.4027  0.3688 -0.5036
  683MOL0     C94120   6.878   2.894   4.647 -1.0584 -0.3359 -0.4761
  683MOL0     C94121   6.911   2.942   4.525  0.3752 -0.3705  0.6213
  683MOL0     C94122   7.034   2.995   4.495  0.7951 -1.0468  0.3843
  683MOL0     C94123   7.138   2.991   4.593  0.5718 -0.7330 -1.1467
  683MOL0     O94124   7.261   3.042   4.562 -0.0602 -0.7112  0.2306
  683MOL0     C94125   7.353   2.952   4.488 -0.3736  0.5361 -0.5396
  683MOL0     C94126   7.496   2.977   4.530 -1.1473 -0.8458  0.4236
  683MOL0     C94127   7.552   3.111   4.486  0.4905 -0.1268  0.2233
  683MOL0     C94128   7.705   3.118   4.514 -0.3654  0.7397  0.5658
  683MOL0     C94129   7.761   3.258   4.472 -0.3754 -0.3719  0.3855
  683MOL0     C94130   7.910   3.276   4.508 -0.4367 -0.6305  0.3123
  683MOL0     C94131   7.926   3.294   4.659  0.2681  0.9374 -0.2188
  683MOL0     C94132   8.072   3.276   4.689 -0.3989 -1.0534  0.0071
  683MOL0     N94133   8.158   3.387   4.639 -0.6816  0.7562 -0.2839
  683MOL0     C94134   8.267   3.378   4.559  0.5967  0.3007 -0.4115
  683MOL0     C94135   8.301   3.505   4.540 -0.3448 -0.6013 -0.4008
  683MOL0     C94136   8.421   3.550   4.461  0.2584 -0.3070 -0.1395
  683MOL0     C94137   8.553   3.503   4.522  0.5151  0.4680  0.4889
  683MOL0     C94138   8.572   3.521   4.673  0.1137 -0.6674 -0.3174
  683MOL0     C94139   8.567   3.669   4.714  0.2249 -0.4331 -0.2772
  683MOL0     O94140   8.641   3.693   4.832  0.2994  0.3442 -0.3171
  683MOL0     C94141   8.775   3.733   4.826  0.5366  0.8186 -0.2713
  683MOL0     C94142   8.823   3.773   4.955  0.1420 -0.1450  0.5772
  683MOL0     C94143   8.952   3.807   4.963  0.5312  0.0062  0.2577
  683MOL0     C94144   8.998   3.875   5.090  0.5150 -0.3781  0.0666
  683MOL0     C94145   9.044   3.790   4.856  1.0522  0.1964  1.0965
  683MOL0     C94146   9.185   3.843   4.842 -0.1722  0.2835 -0.4317
  683MOL0     O94147   9.253   3.832   4.722 -0.8701  0.4193 -0.1848
  683MOL0     C94148   9.376   3.894   4.718  0.3625 -0.1481  0.3355
  683MOL0     C94149   9.485   3.826   4.789  0.1269 -0.0848 -1.0631
  683MOL0     C94150   9.609   3.883   4.783  0.0613  0.9699 -0.0556
  683MOL0     C94151   9.633   3.999   4.711 -0.3312 -0.4710 -0.2056
  683MOL0     O94152   9.752   4.071   4.715  0.6260  0.1950 -0.8221
  683MOL0     C94153   9.808   4.080   4.849  0.1241  0.1974 -0.5886
  683MOL0     C94154   9.892   4.203   4.857  0.5900  0.8724  0.2624
  683MOL0     C94155   9.809   4.338   4.831  0.1654  0.7861  0.9164
  683MOL0     C94156   9.736   4.412   4.950  0.8057 -0.2440  0.4717
  683MOL0     C94157   9.828   4.512   5.041 -0.1904  0.0538 -0.1800
  683MOL0     C94158   9.743   4.619   5.116 -0.2212 -0.4971 -0.1553
  683MOL0     C94159   9.826   4.724   5.197 -0.1381 -0.3286  0.2355
  683MOL0     C94160   9.886   4.832   5.102 -0.0934  1.0840  1.1376
  683MOL0    Cl94161  10.025   4.795   4.994 -0.0757  0.2028 -0.1280
  683MOL0     C94162   9.531   4.051   4.634  0.9637 -1.0366 -0.1960
  683MOL0     C94163   9.401   4.011   4.644 -0.7204  0.0144  0.1684
  683MOL0     O94164   9.233   3.894   4.941  0.6585 -0.5930  0.7584
  683MOL0     C94165   8.995   3.735   4.735 -0.9743 -0.5525 -1.1831
  683MOL0     C94166   8.863   3.711   4.720 -0.4802 -0.5025  0.5058
  683MOL0     N94167   8.211   3.591   4.605  0.1671  0.6089 -0.2186
  683MOL0     N94168   8.116   3.512   4.660 -0.2234  0.1906 -0.5975
  683MOL0     C94169   7.110   2.939   4.712  0.3356 -0.3117 -0.9159
  683MOL0     C94170   6.979   2.895   4.744 -0.4502 -0.5335  0.1955
  683MOL0     C94171   6.573   2.696   4.630  0.1125  0.1264 -0.6561
  683MOL0     C94172   6.535   2.586   4.542  0.7914 -0.0785  0.0479
  683MOL0     C94173   6.399   2.565   4.518  0.0748  0.1434 -0.2548
  683MOL0     C94174   6.298   2.632   4.588  0.3983  0.2222 -1.0699
  683MOL0     O94175   6.165   2.608   4.554 -0.2549  0.3191  0.0911
  683MOL0     C94176   6.059   2.676   4.621 -0.2871 -0.3900 -0.9499
  683MOL0     C94177   5.931   2.653   4.543  0.7208  0.1888  0.0952
  683MOL0     C94178   5.891   2.505   4.556  0.4539  0.5270 -0.3435
  683MOL0     C94179   5.771   2.473   4.464 -0.2526 -0.2421  0.8153
  683MOL0     C94180   5.657   2.562   4.484  0.3192  0.8927  0.2380
  683MOL0     C94181   5.567   2.632   4.510 -0.3419  0.2093  0.2064
  683MOL0     C94182   6.336   2.721   4.689 -0.0160  0.5753 -0.7010
  683MOL0     C94183   6.468   2.762   4.708  0.2848  0.9156  0.2746
  683MOL0     C94184   6.500   2.861   4.815 -0.0694 -0.3520  0.7707
  683MOL0     H94185   6.840   2.941   4.442  0.8857  1.2595  0.1361
  683MOL0     H94186   7.052   3.032   4.395 -0.9915 -0.0847  0.3751
  683MOL0     H94187   7.330   2.958   4.382  1.3263 -2.1632 -1.1618
  683MOL0     H94188   7.333   2.845   4.501  0.6780  0.4401  0.4479
  683MOL0     H94189   7.493   2.971   4.639 -1.6670 -0.4242  0.4329
  683MOL0     H94190   7.565   2.901   4.494  0.9555  1.7090 -1.3391
  683MOL0     H94191   7.531   3.140   4.382  0.7409  1.9053  0.7132
  683MOL0     H94192   7.501   3.191   4.540 -1.1527  0.2698 -1.7679
  683MOL0     H94193   7.728   3.089   4.617  1.2246  0.1507  0.0840
  683MOL0     H94194   7.760   3.050   4.449 -2.2177  1.3335 -1.7732
  683MOL0     H94195   7.695   3.337   4.506 -1.2608 -0.0777 -1.8361
  683MOL0     H94196   7.757   3.268   4.363  1.7481 -2.1351  0.0586
  683MOL0     H94197   7.963   3.186   4.475 -0.5378 -1.1292  1.4534
  683MOL0     H94198   7.961   3.351   4.448 -2.3069  0.2506 -0.2416
  683MOL0     H94199   7.869   3.216   4.710 -0.0148 -1.5710 -3.9473
  683MOL0     H94200   7.874   3.388   4.682 -2.1323 -0.1061 -1.0044
  683MOL0     H94201   8.089   3.284   4.797  4.0346  3.2844 -0.6470
  683MOL0     H94202   8.103   3.176   4.657  0.4178 -0.4826 -1.0671
  683MOL0     H94203   8.323   3.288   4.533 -0.2118  0.3856 -2.6004
  683MOL0     H94204   8.435   3.658   4.445 -0.1140 -0.2391 -0.0223
  683MOL0     H94205   8.421   3.499   4.365 -4.0464  2.0211 -1.6754
  683MOL0     H94206   8.550   3.398   4.492 -0.6436  0.6103  0.0168
  683MOL0     H94207   8.633   3.551   4.464  0.8818 -0.6519  0.0488
  683MOL0     H94208   8.495   3.460   4.720 -1.6434  1.7446  0.1067
  683MOL0     H94209   8.666   3.472   4.701 -0.9829 -2.0486  1.1048
  683MOL0     H94210   8.602   3.734   4.633 -1.3215 -0.7097 -1.2010
  683MOL0     H94211   8.466   3.704   4.736  1.1111  1.8319  0.5316
  683MOL0     H94212   8.753   3.792   5.036  0.4689  0.2202  0.7766
  683MOL0     H94213   9.085   3.818   5.124 -0.2968 -2.8097 -1.7114
  683MOL0     H94214   8.919   3.867   5.165 -1.3314  1.8524 -1.4976
  683MOL0     H94215   9.019   3.982   5.081 -0.4726 -0.3316 -2.7368
  683MOL0     H94216   9.464   3.734   4.844 -0.0845  0.1093 -0.8164
  683MOL0     H94217   9.681   3.837   4.849 -1.4920 -0.4120  0.7280
  683MOL0     H94218   9.725   4.092   4.919  1.4127  0.1414  1.0131
  683MOL0     H94219   9.870   3.993   4.872 -0.7495 -0.4346 -0.5481
  683MOL0     H94220   9.945   4.217   4.951 -2.6340 -0.1161  2.4255
  683MOL0     H94221   9.969   4.195   4.780  2.5101  2.6639  1.9002
  683MOL0     H94222   9.742   4.316   4.747  3.3701  0.3061 -1.7002
  683MOL0     H94223   9.880   4.410   4.789 -0.1918  2.0494  2.3546
  683MOL0     H94224   9.684   4.336   5.009  0.9211 -2.0251 -1.5888
  683MOL0     H94225   9.651   4.472   4.916  0.9271  1.8917  3.5467
  683MOL0     H94226   9.893   4.463   5.114  1.3863 -0.3020 -1.7634
  683MOL0     H94227   9.895   4.576   4.982 -0.0352  0.8451  0.8370
  683MOL0     H94228   9.688   4.554   5.185  0.8569 -0.6338  0.5980
  683MOL0     H94229   9.661   4.659   5.056 -0.9332 -2.1386 -0.3350
  683MOL0     H94230   9.905   4.677   5.256  0.7306 -0.0327 -0.6599
  683MOL0     H94231   9.759   4.775   5.267  0.6807  0.3560  0.5372
  683MOL0     H94232   9.907   4.924   5.157 -1.4888  1.3254  1.3215
  683MOL0     H94233   9.801   4.872   5.046 -0.3759  2.5788  2.5570
  683MOL0     H94234   9.553   4.135   4.569 -0.0362 -1.3283 -0.9154
  683MOL0     H94235   9.321   4.060   4.589 -1.6296 -1.3372  0.2347
  683MOL0     H94236   9.056   3.714   4.648 -1.6770 -0.2862 -1.7583
  683MOL0     H94237   8.826   3.677   4.624  1.7316  0.2019 -0.6778
  683MOL0     H94238   7.180   2.927   4.794  0.1336 -2.9855 -1.0451
  683MOL0     H94239   6.935   2.879   4.842 -0.3810  1.6535  0.6332
  683MOL0     H94240   6.608   2.531   4.484  0.3290 -0.9055  0.2334
  683MOL0     H94241   6.373   2.489   4.445  0.2501  0.7188 -0.9252
  683MOL0     H94242   6.053   2.633   4.722 -0.1621  1.6666 -0.0149
  683MOL0     H94243   6.069   2.783   4.641  0.3896 -0.6797  0.4480
  683MOL0     H94244   5.961   2.687   4.443 -0.4702  0.1062 -0.3021
  683MOL0     H94245   5.850   2.717   4.581  1.2951  0.6643  0.5426
  683MOL0     H94246   5.966   2.436   4.517  3.0586  3.0744 -0.1613
  683MOL0     H94247   5.873   2.483   4.661 -0.5306 -1.1729 -0.8313
  683MOL0     H94248   5.733   2.371   4.477 -1.1535 -0.1912 -1.0816
  683MOL0     H94249   5.813   2.487   4.364  3.4316  0.6836  2.3113
  683MOL0     H94250   5.476   2.687   4.523 -0.6959 -0.9166  3.3095
  683MOL0     H94251   6.261   2.761   4.756  1.4182  1.6507  0.3252
  683MOL0     H94252   6.602   2.848   4.851 -0.0695 -1.0151  0.5376
  683MOL0     H94253   6.493   2.963   4.775 -1.2353  0.4704  2.8704
  683MOL0     H94254   6.440   2.865   4.906  0.1797 -0.5913  0.9436
  684MOL0     O94255   1.566   3.092   0.854  0.1536  0.0098 -0.2914
  684MOL0     C94256   1.487   3.189   0.855  0.2461 -0.0779 -0.5273
  684MOL0     O94257   1.511   3.309   0.786  0.1986  0.5797 -0.2715
  684MOL0     C94258   1.641   3.346   0.753  0.1430 -0.7792  0.7878
  684MOL0     C94259   1.656   3.447   0.656  0.4224  0.0381  0.3342
  684MOL0     C94260   1.778   3.504   0.623 -0.3279 -0.4113  0.0735
  684MOL0     C94261   1.890   3.460   0.703  0.4447 -0.2205  0.8001
  684MOL0     O94262   2.006   3.523   0.661 -0.2758 -1.1542 -0.1508
  684MOL0     C94263   2.127   3.480   0.716 -0.1721 -0.1208 -0.7841
  684MOL0     C94264   2.232   3.531   0.626  0.4585 -0.5182 -0.2139
  684MOL0     C94265   2.235   3.458   0.491  0.1927  0.6535  0.5174
  684MOL0     C94266   2.346   3.518   0.409  0.6085 -0.6305  0.8472
  684MOL0     C94267   2.354   3.443   0.276 -0.0931  0.5008  0.6140
  684MOL0     C94268   2.476   3.475   0.198 -1.2132  0.3990  0.2737
  684MOL0     C94269   2.486   3.381   0.080 -0.7315 -0.5026 -0.9273
  684MOL0     C94270   2.582   3.266   0.111  0.6268 -0.4595  0.2234
  684MOL0     N94271   2.588   3.168   0.005  0.0594  0.1914 -0.3394
  684MOL0     C94272   2.622   3.186  -0.129  0.4206 -0.2961 -0.1206
  684MOL0     C94273   2.640   3.059  -0.176  0.1710  0.0432  0.7641
  684MOL0     C94274   2.673   3.009  -0.316 -0.4756 -0.9556 -0.2428
  684MOL0     C94275   2.823   3.047  -0.348  0.2608  0.1618  0.0829
  684MOL0     C94276   2.857   3.030  -0.491 -0.4058  0.1516  0.0509
  684MOL0     C94277   3.002   3.052  -0.532 -1.1549 -0.4329 -0.6898
  684MOL0     O94278   3.078   2.945  -0.469  0.0297 -0.1648 -0.6558
  684MOL0     C94279   3.216   2.944  -0.485  0.1999  0.0769  0.0913
  684MOL0     C94280   3.276   2.864  -0.392  0.6306 -0.2361  0.0048
  684MOL0     C94281   3.410   2.861  -0.373  0.1772  0.2074 -0.2078
  684MOL0     C94282   3.466   2.782  -0.259  0.2473  0.2825 -0.1970
  684MOL0     C94283   3.489   2.950  -0.448  0.3433 -0.1713 -0.2343
  684MOL0     C94284   3.639   2.960  -0.435 -0.1847  0.2647 -0.2924
  684MOL0     O94285   3.693   3.080  -0.484  0.2122  0.0332  0.1772
  684MOL0     C94286   3.813   3.114  -0.442 -0.8349 -0.0007 -0.3248
  684MOL0     C94287   3.900   3.183  -0.525 -0.8265 -0.5508 -0.0524
  684MOL0     C94288   4.025   3.227  -0.481  0.7989  0.1900  0.4648
  684MOL0     C94289   4.064   3.208  -0.349 -0.3406 -0.1036 -0.2875
  684MOL0     O94290   4.182   3.240  -0.301 -0.3192  0.0264 -0.3670
  684MOL0     C94291   4.265   3.331  -0.374  0.2934  0.1049 -0.0586
  684MOL0     C94292   4.403   3.342  -0.305 -0.5441 -0.2033 -0.0793
  684MOL0     C94293   4.510   3.389  -0.393  0.6963  0.5074  0.4566
  684MOL0     C94294   4.641   3.392  -0.317  0.2291 -0.1100  0.0580
  684MOL0     C94295   4.747   3.428  -0.422 -0.6240  0.3549  0.2468
  684MOL0     C94296   4.880   3.439  -0.345  0.6430  0.6232 -0.2663
  684MOL0     C94297   5.006   3.462  -0.426  0.7285 -0.7395  0.1820
  684MOL0     C94298   5.050   3.351  -0.521 -0.3961 -0.2219 -0.5732
  684MOL0    Cl94299   5.152   3.234  -0.419 -0.1938 -0.0176 -0.1005
  684MOL0     C94300   3.984   3.126  -0.269  0.3498  0.0814 -0.3466
  684MOL0     C94301   3.859   3.090  -0.313  0.0636 -0.3004  0.1273
  684MOL0     O94302   3.701   2.866  -0.389 -0.7921 -0.3536 -0.1299
  684MOL0     C94303   3.430   3.019  -0.556  0.0234 -0.5597  0.5637
  684MOL0     C94304   3.294   3.023  -0.572  0.0441  0.0980 -0.0181
  684MOL0     N94305   2.627   2.973  -0.073  0.6192 -0.4926 -0.1322
  684MOL0     N94306   2.591   3.033   0.032 -0.5257 -0.0163 -0.4755
  684MOL0     C94307   1.878   3.357   0.805 -0.0194  0.4953 -0.0463
  684MOL0     C94308   1.759   3.302   0.820  0.6789  0.0379 -0.6627
  684MOL0     C94309   1.345   3.161   0.894 -0.2271 -0.9401  0.7990
  684MOL0     C94310   1.246   3.230   0.828  0.4107 -0.4537 -0.1605
  684MOL0     C94311   1.117   3.236   0.874 -0.1297 -0.1302 -0.2499
  684MOL0     C94312   1.080   3.169   0.996 -0.3827 -0.0151  0.1129
  684MOL0     O94313   0.955   3.187   1.046  0.1117  0.1739 -0.0819
  684MOL0     C94314   0.903   3.070   1.114  0.0413 -0.3737  0.6388
  684MOL0     C94315   0.780   3.101   1.198  0.2667 -0.4451 -0.0029
  684MOL0     C94316   0.798   3.195   1.322 -0.5270  0.7036  0.3450
  684MOL0     C94317   0.681   3.193   1.421 -0.0830  0.5661  0.8783
  684MOL0     C94318   0.676   3.071   1.499 -0.7613 -0.2420  0.5134
  684MOL0     C94319   0.649   2.970   1.557 -0.1804  0.2571  0.2639
  684MOL0     C94320   1.183   3.105   1.061 -0.3446 -0.1109 -0.1497
  684MOL0     C94321   1.312   3.086   1.016  0.8213  0.0104  0.5263
  684MOL0     C94322   1.414   2.996   1.083  0.6817 -0.4604 -0.3930
  684MOL0     H94323   1.560   3.466   0.607  0.6506 -1.7953 -0.9233
  684MOL0     H94324   1.773   3.577   0.543 -1.3126 -2.7051 -2.1069
  684MOL0     H94325   2.139   3.372   0.727  2.7690  0.3048  1.5989
  684MOL0     H94326   2.134   3.521   0.818  0.7702  1.0729 -1.3115
  684MOL0     H94327   2.237   3.639   0.613  4.8034 -0.1593  2.3796
  684MOL0     H94328   2.325   3.513   0.681 -1.6779 -2.2302  3.1754
  684MOL0     H94329   2.242   3.348   0.493 -0.5699  0.5920  0.0072
  684MOL0     H94330   2.149   3.478   0.427  0.6668  0.0001 -0.3540
  684MOL0     H94331   2.322   3.625   0.399 -0.9169 -0.7978  2.2373
  684MOL0     H94332   2.436   3.493   0.465  0.9589 -2.5800 -0.4783
  684MOL0     H94333   2.266   3.466   0.216  0.9396 -1.3087 -1.7675
  684MOL0     H94334   2.350   3.333   0.281 -1.1152  0.5343  0.7292
  684MOL0     H94335   2.485   3.578   0.163 -2.2424 -0.3880 -2.6255
  684MOL0     H94336   2.561   3.461   0.265 -1.3042  2.6634  0.9325
  684MOL0     H94337   2.540   3.440   0.006 -0.8506  2.0168  0.8397
  684MOL0     H94338   2.387   3.348   0.048 -1.0660  1.0502 -1.5906
  684MOL0     H94339   2.683   3.309   0.118 -0.6610  3.0784 -0.7873
  684MOL0     H94340   2.553   3.223   0.207 -1.9852  1.1468  0.2563
  684MOL0     H94341   2.618   3.271  -0.197  3.4868  0.9430  1.1098
  684MOL0     H94342   2.605   3.065  -0.381 -0.6963  0.6199  1.2679
  684MOL0     H94343   2.654   2.901  -0.317  1.9457 -1.4355 -2.3513
  684MOL0     H94344   2.840   3.151  -0.322 -3.1437  1.3257 -1.6840
  684MOL0     H94345   2.888   2.994  -0.277 -1.5381 -1.0098  0.9468
  684MOL0     H94346   2.823   2.930  -0.519 -0.7273  0.0430  0.8229
  684MOL0     H94347   2.793   3.098  -0.550  0.5644  0.8964 -0.1725
  684MOL0     H94348   3.023   3.053  -0.640  2.6482  0.8566 -0.1139
  684MOL0     H94349   3.050   3.143  -0.495  1.7727 -2.0282 -0.2496
  684MOL0     H94350   3.222   2.793  -0.331  2.6808 -1.1329  0.8438
  684MOL0     H94351   3.531   2.839  -0.192  2.0721 -2.7238  0.7728
  684MOL0     H94352   3.534   2.704  -0.296  1.0949  0.0083  1.8351
  684MOL0     H94353   3.393   2.743  -0.189  0.9349  2.0645  1.6186
  684MOL0     H94354   3.866   3.188  -0.628 -2.9499 -1.7763  0.5271
  684MOL0     H94355   4.082   3.288  -0.551 -0.1871  0.2743 -0.2873
  684MOL0     H94356   4.290   3.296  -0.474  0.0152 -1.3038  0.3500
  684MOL0     H94357   4.218   3.430  -0.370 -1.7189 -0.8043  0.2780
  684MOL0     H94358   4.396   3.412  -0.221  2.5074 -0.1204  0.2286
  684MOL0     H94359   4.436   3.246  -0.266  2.2092  0.2135 -1.1478
  684MOL0     H94360   4.489   3.490  -0.428  0.9857  0.8348  1.2197
  684MOL0     H94361   4.528   3.324  -0.480 -0.2686  0.2150  0.4679
  684MOL0     H94362   4.661   3.291  -0.281 -2.4550 -0.7252  0.0623
  684MOL0     H94363   4.641   3.455  -0.228  2.1379 -0.3707  0.2881
  684MOL0     H94364   4.755   3.346  -0.494 -3.0141 -1.0745  1.4781
  684MOL0     H94365   4.725   3.529  -0.458  1.1095  1.1487  1.2885
  684MOL0     H94366   4.885   3.353  -0.277 -3.4293 -0.5571 -1.1460
  684MOL0     H94367   4.870   3.528  -0.282 -0.0397  0.4391 -0.1065
  684MOL0     H94368   5.089   3.486  -0.359  0.0230  2.2596  0.1237
  684MOL0     H94369   4.991   3.557  -0.478 -0.4747 -0.3376  1.1944
  684MOL0     H94370   5.115   3.395  -0.598  1.3810 -1.8718 -0.1132
  684MOL0     H94371   4.962   3.307  -0.568 -1.0282  0.0093  0.3694
  684MOL0     H94372   4.014   3.103  -0.167 -2.8119 -2.6893  0.1544
  684MOL0     H94373   3.798   3.038  -0.239  0.5397  3.1681  3.2274
  684MOL0     H94374   3.487   3.080  -0.625 -0.3288  0.1617  0.8932
  684MOL0     H94375   3.248   3.071  -0.657  0.6103  2.1416  0.7771
  684MOL0     H94376   1.951   3.333   0.882  0.8666  0.0663 -1.0048
  684MOL0     H94377   1.751   3.243   0.911 -1.9359 -1.1445 -1.5576
  684MOL0     H94378   1.271   3.296   0.746 -0.7427  0.1895 -0.0143
  684MOL0     H94379   1.050   3.301   0.820  1.5215 -2.0102 -5.0969
  684MOL0     H94380   0.869   3.001   1.036 -1.2686 -0.0567  0.9065
  684MOL0     H94381   0.977   3.021   1.177 -0.4064 -1.0918  0.6166
  684MOL0     H94382   0.760   3.000   1.236 -0.1909 -0.2132  0.3895
  684MOL0     H94383   0.699   3.139   1.136 -1.0620 -1.6083  0.9423
  684MOL0     H94384   0.892   3.167   1.372  0.1041  2.6703  0.3450
  684MOL0     H94385   0.809   3.296   1.283 -0.5119 -0.1457 -1.9605
  684MOL0     H94386   0.586   3.200   1.367  1.0824 -1.4033 -1.6627
  684MOL0     H94387   0.695   3.283   1.482  2.6784  0.4575  0.5528
  684MOL0     H94388   0.621   2.881   1.610 -1.4185  0.7963  0.5528
  684MOL0     H94389   1.174   3.041   1.148 -1.6395  1.3852  0.8787
  684MOL0     H94390   1.373   2.951   1.174  1.7171 -1.5971 -0.4624
  684MOL0     H94391   1.441   2.916   1.014 -1.8675  1.1346 -3.4862
  684MOL0     H94392   1.496   3.063   1.110 -2.4932  3.3037  0.7814
  685MOL0     O94393   0.482   5.095   4.464 -0.0524 -0.4431 -0.0212
  685MOL0     C94394   0.528   5.174   4.544 -0.3358 -0.2407 -0.4498
  685MOL0     O94395   0.454   5.243   4.643 -0.4074 -0.4243  0.5535
  685MOL0     C94396   0.316   5.243   4.637 -0.0446  0.7266  0.8396
  685MOL0     C94397   0.249   5.180   4.744 -0.4964 -0.0587  0.7214
  685MOL0     C94398   0.108   5.159   4.737 -0.4201  0.1053  0.3023
  685MOL0     C94399   0.039   5.215   4.624  0.5394  0.5349  0.0126
  685MOL0     O94400  -0.093   5.170   4.623 -0.6056  0.5973  0.0202
  685MOL0     C94401  -0.162   5.166   4.496  0.2917 -0.6313 -0.4510
  685MOL0     C94402  -0.286   5.069   4.500  0.3728 -0.3298  0.6091
  685MOL0     C94403  -0.260   4.921   4.523 -1.3828  0.1761 -0.0192
  685MOL0     C94404  -0.111   4.875   4.521  0.7117 -0.0577  0.3383
  685MOL0     C94405  -0.086   4.723   4.534  0.5478  0.4144 -0.1276
  685MOL0     C94406  -0.131   4.680   4.669 -0.0538  0.3114  0.0181
  685MOL0     C94407  -0.074   4.539   4.695  0.4331  0.1386  0.2388
  685MOL0     C94408   0.070   4.530   4.742 -0.4440 -0.6488  0.2481
  685MOL0     N94409   0.090   4.590   4.871  0.0793  0.1866  0.3243
  685MOL0     C94410   0.162   4.709   4.898  0.1750  0.4980  0.8891
  685MOL0     C94411   0.147   4.739   5.031 -0.3174 -0.3962  0.1029
  685MOL0     C94412   0.218   4.852   5.107  0.1491 -0.1697 -0.0692
  685MOL0     C94413   0.115   4.975   5.130 -0.2028 -0.3451  0.5435
  685MOL0     C94414   0.179   5.093   5.211  0.1066 -0.2627 -0.5827
  685MOL0     C94415   0.248   5.207   5.149  0.1712  0.0908 -0.2886
  685MOL0     O94416   0.356   5.150   5.072  0.4966  0.2846  0.3898
  685MOL0     C94417   0.464   5.225   5.060 -0.3199  0.4839 -0.0273
  685MOL0     C94418   0.463   5.354   5.018 -0.4807  0.3772 -0.6974
  685MOL0     C94419   0.583   5.432   5.010  0.5674  0.2221 -0.2537
  685MOL0     C94420   0.572   5.580   4.977 -0.0006  0.1499  0.3299
  685MOL0     C94421   0.708   5.366   5.031 -0.2984 -0.0095 -0.3091
  685MOL0     C94422   0.840   5.429   5.004  0.6587  0.4631 -0.6409
  685MOL0     O94423   0.946   5.373   5.074 -0.4856 -0.1163  0.2248
  685MOL0     C94424   1.064   5.439   5.079 -0.3492  0.4650  0.1456
  685MOL0     C94425   1.067   5.576   5.117 -0.5891  0.3077 -0.2024
  685MOL0     C94426   1.186   5.641   5.119 -0.2601  1.3250 -0.3947
  685MOL0     C94427   1.299   5.570   5.087 -0.7492  0.8120  0.9971
  685MOL0     O94428   1.424   5.622   5.064 -0.1141  1.1078 -0.5160
  685MOL0     C94429   1.451   5.757   5.085  0.3291 -0.2362 -0.2417
  685MOL0     C94430   1.596   5.787   5.059 -0.5951  0.2885  0.3895
  685MOL0     C94431   1.615   5.936   5.091 -0.0162 -0.2728 -0.9483
  685MOL0     C94432   1.760   5.994   5.081  0.2199  0.5476 -1.0608
  685MOL0     C94433   1.839   5.988   5.222  0.3419  0.5213 -0.4072
  685MOL0     C94434   1.785   6.091   5.323 -0.2489  0.4453  0.3109
  685MOL0     C94435   1.723   6.037   5.453 -0.1067  0.8277 -0.2165
  685MOL0     C94436   1.677   6.139   5.555  0.2605 -0.6460  0.0248
  685MOL0    Cl94437   1.543   6.246   5.507 -0.0971  0.0455  0.2037
  685MOL0     C94438   1.301   5.431   5.066 -0.2066  0.4048  0.0195
  685MOL0     C94439   1.181   5.362   5.057  0.7217 -0.4990 -0.7706
  685MOL0     O94440   0.846   5.513   4.919 -0.6752  0.6548 -0.0475
  685MOL0     C94441   0.704   5.237   5.078  0.4994  0.6444  0.0696
  685MOL0     C94442   0.587   5.165   5.093  0.4240 -0.2747  0.0953
  685MOL0     N94443   0.055   4.650   5.073  0.4032 -0.0206 -0.1167
  685MOL0     N94444   0.020   4.566   4.985 -0.0487  0.0587 -0.0204
  685MOL0     C94445   0.108   5.277   4.521 -0.0766 -0.2232 -0.0173
  685MOL0     C94446   0.247   5.304   4.534  0.5388 -0.3068  0.3205
  685MOL0     C94447   0.676   5.191   4.561  0.3443 -0.1236  0.1811
  685MOL0     C94448   0.737   5.222   4.682  0.3187 -0.3937 -0.4110
  685MOL0     C94449   0.880   5.217   4.704 -1.1558  0.1249  0.0897
  685MOL0     C94450   0.969   5.190   4.595  0.2318 -0.4651  0.1295
  685MOL0     O94451   1.105   5.192   4.588  0.6250  0.2873 -0.1347
  685MOL0     C94452   1.183   5.258   4.690  0.2337  0.1596 -0.6013
  685MOL0     C94453   1.327   5.268   4.640  0.2311  0.7917  1.1383
  685MOL0     C94454   1.414   5.317   4.762 -0.6171 -0.3274 -0.1133
  685MOL0     C94455   1.531   5.394   4.713  0.3830 -0.6559  0.5743
  685MOL0     C94456   1.617   5.432   4.826 -0.2775  0.8411 -0.4405
  685MOL0     C94457   1.682   5.451   4.936 -0.5599 -0.3050  0.9906
  685MOL0     C94458   0.902   5.152   4.478 -1.0569 -0.0729  0.1587
  685MOL0     C94459   0.766   5.156   4.456 -0.1534 -0.2154  0.4584
  685MOL0     C94460   0.723   5.126   4.305 -0.8915  0.3866  0.2961
  685MOL0     H94461   0.307   5.144   4.828 -1.9399 -1.1243  1.3022
  685MOL0     H94462   0.050   5.113   4.816 -0.4677  3.4972  2.4970
  685MOL0     H94463  -0.106   5.123   4.412 -1.7142 -1.2076 -1.5749
  685MOL0     H94464  -0.185   5.268   4.467  0.7279 -0.1008  0.9873
  685MOL0     H94465  -0.348   5.110   4.580  2.0055  0.2342  1.6375
  685MOL0     H94466  -0.340   5.079   4.405 -1.0532  0.2190  1.4454
  685MOL0     H94467  -0.301   4.905   4.623 -1.9553 -0.0797 -0.2914
  685MOL0     H94468  -0.315   4.852   4.458  2.1821 -1.5332 -1.5343
  685MOL0     H94469  -0.083   4.906   4.420  0.2180  0.5432  0.3829
  685MOL0     H94470  -0.050   4.932   4.592 -0.1065 -2.7869  3.5138
  685MOL0     H94471   0.022   4.707   4.530  1.7109  5.4343  2.6787
  685MOL0     H94472  -0.136   4.679   4.447 -1.3060  2.1333  0.0095
  685MOL0     H94473  -0.109   4.751   4.750 -0.8142 -0.0262  0.5343
  685MOL0     H94474  -0.240   4.671   4.660 -0.3070  2.3330  0.5637
  685MOL0     H94475  -0.067   4.473   4.608  0.4924  3.0448 -2.1042
  685MOL0     H94476  -0.135   4.483   4.766  0.4442  0.0477  0.1771
  685MOL0     H94477   0.104   4.426   4.752  0.2117 -0.3831  0.8079
  685MOL0     H94478   0.139   4.584   4.676 -0.0247 -4.0905 -2.4380
  685MOL0     H94479   0.227   4.758   4.826  2.6500 -2.2060  1.0810
  685MOL0     H94480   0.303   4.888   5.048  1.0423 -1.9361  0.0705
  685MOL0     H94481   0.251   4.811   5.203  1.2193 -2.2566 -1.2299
  685MOL0     H94482   0.075   5.012   5.035 -1.5859  1.3482  1.7108
  685MOL0     H94483   0.024   4.931   5.173 -1.1291 -0.7466 -1.6960
  685MOL0     H94484   0.103   5.139   5.274 -0.5551 -0.2251 -1.3996
  685MOL0     H94485   0.256   5.043   5.271  0.9144  0.4063 -1.0403
  685MOL0     H94486   0.177   5.269   5.094 -0.2030  0.9426  1.1204
  685MOL0     H94487   0.277   5.272   5.231  0.4973 -2.1260  1.4547
  685MOL0     H94488   0.367   5.396   4.988 -0.4493  1.0976  0.1494
  685MOL0     H94489   0.622   5.642   5.052 -0.4030 -0.1543  0.8586
  685MOL0     H94490   0.466   5.603   4.960 -0.5531 -1.3133  1.4904
  685MOL0     H94491   0.616   5.597   4.879  0.2542 -1.4681  0.1415
  685MOL0     H94492   0.980   5.640   5.125  0.4876  1.6368  1.6455
  685MOL0     H94493   1.186   5.750   5.110  2.6408  1.2912 -2.2909
  685MOL0     H94494   1.384   5.817   5.022 -1.3734 -1.1741  0.5864
  685MOL0     H94495   1.428   5.786   5.188 -2.0285 -1.1598 -0.4420
  685MOL0     H94496   1.656   5.717   5.118 -1.1938 -3.1913 -2.7691
  685MOL0     H94497   1.606   5.759   4.954 -0.4559  1.8607 -0.0454
  685MOL0     H94498   1.559   5.963   5.181 -1.9356  2.3409 -2.7423
  685MOL0     H94499   1.556   5.990   5.016 -1.2456  0.0305  0.1910
  685MOL0     H94500   1.745   6.098   5.051 -2.3192  0.6810  0.3716
  685MOL0     H94501   1.822   5.939   5.010  1.5852  1.9282 -0.9981
  685MOL0     H94502   1.831   5.887   5.263 -2.0984  0.8612  0.0856
  685MOL0     H94503   1.944   6.000   5.191  0.7961  0.2158  0.9392
  685MOL0     H94504   1.708   6.159   5.285 -1.1665 -0.8519 -0.2257
  685MOL0     H94505   1.865   6.159   5.354 -1.3122  1.6381  0.5402
  685MOL0     H94506   1.795   5.966   5.496 -2.2873 -0.0787  2.1750
  685MOL0     H94507   1.648   5.960   5.431  3.6175 -3.8416  1.4751
  685MOL0     H94508   1.758   6.197   5.600 -0.0779 -1.7308  2.1193
  685MOL0     H94509   1.622   6.083   5.630 -0.3175  0.0176  0.1134
  685MOL0     H94510   1.400   5.390   5.050  1.2058  2.4649  2.5395
  685MOL0     H94511   1.190   5.257   5.035 -0.4670 -1.0238  0.9939
  685MOL0     H94512   0.795   5.177   5.087  1.3056  2.0446  2.3307
  685MOL0     H94513   0.584   5.059   5.115  0.2205 -1.2578 -3.9016
  685MOL0     H94514   0.053   5.312   4.434  0.1788  2.4898  0.8345
  685MOL0     H94515   0.292   5.364   4.455  1.3666 -0.5217  0.6193
  685MOL0     H94516   0.688   5.263   4.770  3.5090  2.4619  0.2693
  685MOL0     H94517   0.924   5.240   4.800 -1.3788 -1.0875  0.4877
  685MOL0     H94518   1.145   5.359   4.711 -1.2471 -0.6961  1.1992
  685MOL0     H94519   1.162   5.198   4.779  1.1220  0.1368 -0.4029
  685MOL0     H94520   1.323   5.349   4.567  1.8071  0.3792  0.5592
  685MOL0     H94521   1.363   5.171   4.605 -0.2249  0.3662  1.8198
  685MOL0     H94522   1.350   5.389   4.814 -1.7207 -0.9317 -0.5898
  685MOL0     H94523   1.445   5.240   4.832  0.8347  1.1863  0.9670
  685MOL0     H94524   1.479   5.480   4.669 -3.3711 -3.6666 -1.4140
  685MOL0     H94525   1.578   5.323   4.644  0.7297 -0.5003  0.6474
  685MOL0     H94526   1.718   5.469   5.036 -0.4515  1.0228  0.7209
  685MOL0     H94527   0.971   5.125   4.399 -1.1983 -1.3012  0.4437
  685MOL0     H94528   0.808   5.108   4.239  0.3934 -0.1800  2.0325
  685MOL0     H94529   0.668   5.032   4.296 -1.7864  1.0885 -3.8315
  685MOL0     H94530   0.663   5.210   4.269 -0.4847  0.0295 -1.3102
  686MOL0     O94531   3.614   8.890  10.125  0.4656  0.7487 -0.0501
  686MOL0     C94532   3.576   9.002  10.112 -0.6344  0.0874  0.2543
  686MOL0     O94533   3.650   9.109  10.146 -0.6055 -0.0621  0.2692
  686MOL0     C94534   3.776   9.082  10.193  0.8229 -0.7258 -0.1684
  686MOL0     C94535   3.869   9.095  10.098 -0.6428  0.0594 -0.5339
  686MOL0     C94536   4.009   9.086  10.137  0.1622 -0.1274 -0.2168
  686MOL0     C94537   4.034   9.069  10.278  0.0980 -1.1082  0.0076
  686MOL0     O94538   4.161   9.049  10.317 -0.4330 -0.0786  0.1190
  686MOL0     C94539   4.233   8.941  10.257 -0.0482 -0.7517 -0.3118
  686MOL0     C94540   4.346   8.987  10.171  0.3396 -0.2817  0.1015
  686MOL0     C94541   4.451   9.070  10.238  0.1089 -0.5721  0.0553
  686MOL0     C94542   4.521   9.000  10.357  0.2778  0.4517 -0.2120
  686MOL0     C94543   4.662   9.055  10.397  0.2034 -0.3294  0.4045
  686MOL0     C94544   4.647   9.180  10.487  0.4761 -0.0202 -0.1860
  686MOL0     C94545   4.781   9.245  10.516  0.5214  0.0880  0.0818
  686MOL0     C94546   4.766   9.390  10.555  0.3513 -0.4444 -0.4065
  686MOL0     N94547   4.895   9.432  10.609 -0.4360 -0.0820  0.6760
  686MOL0     C94548   5.018   9.460  10.538 -0.5222  0.2723  0.6706
  686MOL0     C94549   5.115   9.471  10.629  0.1995  0.4855 -0.7463
  686MOL0     C94550   5.264   9.473  10.611  0.6445  0.1401  0.3284
  686MOL0     C94551   5.326   9.324  10.607  0.6987 -0.0222 -0.2818
  686MOL0     C94552   5.469   9.339  10.566  0.2734 -1.2689 -0.3345
  686MOL0     C94553   5.532   9.220  10.509  0.0145 -0.6921  0.5078
  686MOL0     O94554   5.449   9.177  10.407  0.5698  0.9400 -0.0888
  686MOL0     C94555   5.501   9.098  10.313 -1.1007  0.1698  0.7223
  686MOL0     C94556   5.621   9.028  10.327  0.8200 -0.1999  0.0075
  686MOL0     C94557   5.686   8.960  10.222 -0.1069  0.4848 -0.0077
  686MOL0     C94558   5.831   8.901  10.244 -0.3668 -0.9071 -0.4043
  686MOL0     C94559   5.623   8.948  10.097  0.9130  0.2746  0.1495
  686MOL0     C94560   5.679   8.888   9.974 -0.0529  0.4124 -0.6297
  686MOL0     O94561   5.612   8.915   9.861  0.1101  0.3732 -0.2226
  686MOL0     C94562   5.626   8.826   9.751  0.6604 -0.0988  0.5872
  686MOL0     C94563   5.683   8.881   9.636 -0.3183  0.2256 -0.4573
  686MOL0     C94564   5.711   8.808   9.515  1.0385  1.0502  1.0968
  686MOL0     C94565   5.702   8.664   9.525 -0.2956  0.2172  0.1889
  686MOL0     O94566   5.734   8.576   9.429  0.4609  0.1840 -0.2748
  686MOL0     C94567   5.794   8.641   9.314 -0.3771 -0.1112  1.0781
  686MOL0     C94568   5.860   8.546   9.212 -0.2483  0.1910 -0.4740
  686MOL0     C94569   5.967   8.471   9.267  0.5939  0.2645  1.1922
  686MOL0     C94570   6.057   8.404   9.165  0.2602 -0.1046  0.1057
  686MOL0     C94571   6.189   8.374   9.227 -0.3006 -1.2679 -0.9901
  686MOL0     C94572   6.230   8.230   9.202 -0.2514 -0.6296  0.3689
  686MOL0     C94573   6.255   8.207   9.050 -1.0728 -0.5983 -0.1309
  686MOL0     C94574   6.405   8.209   9.009 -0.4569  0.1714  0.5999
  686MOL0    Cl94575   6.504   8.092   9.119  0.3042  0.0403 -0.4794
  686MOL0     C94576   5.646   8.612   9.640  0.3707  0.0074 -1.0044
  686MOL0     C94577   5.607   8.692   9.748  0.2902 -0.0403 -0.3067
  686MOL0     O94578   5.777   8.819   9.982  0.0809 -1.1336  0.8962
  686MOL0     C94579   5.488   9.005  10.083 -0.5176 -0.4177  0.1328
  686MOL0     C94580   5.435   9.082  10.188 -0.4872  0.1598  0.4887
  686MOL0     N94581   5.051   9.459  10.748 -0.6550 -0.6252 -0.0452
  686MOL0     N94582   4.932   9.421  10.734  0.6437 -0.8272 -0.8476
  686MOL0     C94583   3.930   9.065  10.372  0.9566 -0.7764  0.0624
  686MOL0     C94584   3.795   9.081  10.329  0.0352 -0.1736 -0.5817
  686MOL0     C94585   3.446   9.035  10.036  0.3727 -0.1803 -0.7974
  686MOL0     C94586   3.427   9.170   9.990 -0.4033 -1.0775 -0.8711
  686MOL0     C94587   3.309   9.211   9.937 -0.1258 -0.6790  0.8790
  686MOL0     C94588   3.198   9.135   9.938 -0.1026  0.2964 -0.5076
  686MOL0     O94589   3.075   9.161   9.884  0.5061 -0.2742 -0.6864
  686MOL0     C94590   3.069   9.293   9.824  0.2387 -0.0438  0.0904
  686MOL0     C94591   2.967   9.294   9.712  0.2727 -0.4027  0.2374
  686MOL0     C94592   2.970   9.172   9.626 -0.2210  0.9780  0.0690
  686MOL0     C94593   2.868   9.173   9.513 -0.0795 -0.3167 -0.0123
  686MOL0     C94594   2.734   9.155   9.576  0.5013  0.5269  0.2147
  686MOL0     C94595   2.613   9.156   9.615 -0.3422 -0.3325 -0.0856
  686MOL0     C94596   3.210   9.011  10.000  0.3596 -0.6984  0.2848
  686MOL0     C94597   3.326   8.959  10.050 -0.0521  0.8217  0.4058
  686MOL0     C94598   3.327   8.810  10.070 -0.3899 -1.3729  0.8195
  686MOL0     H94599   3.852   9.109   9.991  3.8133  0.3892 -1.3771
  686MOL0     H94600   4.091   9.089  10.065 -1.7966 -0.6203 -2.6246
  686MOL0     H94601   4.171   8.879  10.192 -0.0193 -1.6193  0.4666
  686MOL0     H94602   4.272   8.873  10.334 -1.5638  0.1459  1.3130
  686MOL0     H94603   4.395   8.905  10.119 -1.2965 -0.4058 -1.3169
  686MOL0     H94604   4.304   9.052  10.093  0.3593 -0.1842  0.1709
  686MOL0     H94605   4.523   9.088  10.157 -0.2291 -1.1128 -0.3700
  686MOL0     H94606   4.407   9.162  10.277 -1.4215 -2.0558  2.0314
  686MOL0     H94607   4.448   9.000  10.437 -0.2843 -1.5717 -0.6788
  686MOL0     H94608   4.534   8.895  10.330 -2.1898 -0.1148  0.5675
  686MOL0     H94609   4.718   9.089  10.309 -0.2723  1.0050  0.5918
  686MOL0     H94610   4.721   8.974  10.443 -0.2714 -2.1150 -1.9334
  686MOL0     H94611   4.582   9.252  10.437 -0.4752 -1.8498 -1.7154
  686MOL0     H94612   4.601   9.145  10.580  0.5162  1.3297  0.3707
  686MOL0     H94613   4.838   9.232  10.424 -1.8929 -0.8361 -1.3779
  686MOL0     H94614   4.815   9.176  10.594 -0.7554  0.2620  0.8267
  686MOL0     H94615   4.748   9.457  10.470 -2.6113 -0.0849  0.3935
  686MOL0     H94616   4.692   9.406  10.633 -0.9218 -0.9190 -1.4706
  686MOL0     H94617   5.020   9.464  10.430 -4.4201 -0.4903  0.4239
  686MOL0     H94618   5.326   9.538  10.673  3.0855  0.0230 -1.8412
  686MOL0     H94619   5.267   9.516  10.510 -2.8347 -0.4710 -0.1635
  686MOL0     H94620   5.314   9.289  10.710  2.0544  0.0460 -0.0733
  686MOL0     H94621   5.277   9.249  10.545  3.9734 -1.3505 -1.4827
  686MOL0     H94622   5.478   9.420  10.494 -1.6171  1.0407  1.8192
  686MOL0     H94623   5.527   9.386  10.647  0.4619  3.2630 -2.7757
  686MOL0     H94624   5.628   9.246  10.464 -1.0421  0.1274 -1.4173
  686MOL0     H94625   5.547   9.149  10.591 -0.1706  1.0496  2.1295
  686MOL0     H94626   5.663   9.012  10.426 -0.3785 -1.8271  0.3070
  686MOL0     H94627   5.877   8.950  10.331  4.0714  0.8903 -3.4099
  686MOL0     H94628   5.901   8.920  10.162  0.0392 -0.0606  0.1120
  686MOL0     H94629   5.830   8.793  10.260  0.5894 -0.8209  0.3807
  686MOL0     H94630   5.688   8.989   9.642 -1.9144  0.2774  0.9559
  686MOL0     H94631   5.730   8.859   9.421 -1.4164 -1.2079 -0.7588
  686MOL0     H94632   5.715   8.691   9.258 -1.0126 -0.9927  1.1641
  686MOL0     H94633   5.879   8.697   9.354  1.0906 -3.2929  2.7855
  686MOL0     H94634   5.779   8.483   9.176  0.5970 -1.8386  0.9920
  686MOL0     H94635   5.906   8.601   9.130 -0.0515 -1.7941 -1.7510
  686MOL0     H94636   5.919   8.388   9.319 -2.5369 -0.0569 -1.8783
  686MOL0     H94637   6.025   8.533   9.337 -0.9031  2.9467  0.2112
  686MOL0     H94638   6.078   8.480   9.089 -1.3400  0.2304 -0.0398
  686MOL0     H94639   6.004   8.327   9.109 -0.6990  1.0181 -0.5625
  686MOL0     H94640   6.261   8.440   9.177 -3.0296  2.5913 -0.2644
  686MOL0     H94641   6.178   8.399   9.333 -0.4143 -2.3504 -0.7408
  686MOL0     H94642   6.161   8.158   9.246  0.3248 -0.2078  2.0162
  686MOL0     H94643   6.316   8.205   9.266 -2.0227 -0.4873  2.9477
  686MOL0     H94644   6.217   8.292   8.992 -1.4973  0.5174  1.7034
  686MOL0     H94645   6.222   8.108   9.017 -1.0999 -0.5862 -0.1444
  686MOL0     H94646   6.444   8.311   9.017 -0.1094  0.1404 -0.5368
  686MOL0     H94647   6.404   8.179   8.903 -1.0735 -1.0895  0.9477
  686MOL0     H94648   5.653   8.504   9.648  0.1037 -0.0450 -1.4711
  686MOL0     H94649   5.557   8.652   9.836 -1.0540  2.2064  0.0362
  686MOL0     H94650   5.430   8.992   9.993  1.3497 -3.3867 -0.7901
  686MOL0     H94651   5.335   9.126  10.184 -1.1390 -1.3245 -0.3056
  686MOL0     H94652   3.947   9.059  10.479 -1.0528  0.0428  0.4687
  686MOL0     H94653   3.713   9.094  10.399  1.1289  2.1410  0.3780
  686MOL0     H94654   3.514   9.234   9.984 -0.7987 -0.6411 -2.3408
  686MOL0     H94655   3.316   9.310   9.893  3.4159 -0.5405  1.4976
  686MOL0     H94656   3.052   9.372   9.897 -1.5586 -0.8948  0.6589
  686MOL0     H94657   3.166   9.309   9.776 -1.1970 -0.9618 -3.4818
  686MOL0     H94658   2.983   9.376   9.640  1.7280 -2.4661 -1.9681
  686MOL0     H94659   2.869   9.305   9.758  0.4232  1.3368  0.2013
  686MOL0     H94660   3.069   9.170   9.578 -0.9565  1.8211 -1.5419
  686MOL0     H94661   2.952   9.080   9.683 -0.1725 -0.4964 -2.1695
  686MOL0     H94662   2.894   9.085   9.453 -1.0398  0.4837 -1.6443
  686MOL0     H94663   2.877   9.271   9.466  3.7144  0.3252  1.6538
  686MOL0     H94664   2.514   9.153   9.657  0.0078 -3.8428  0.8462
  686MOL0     H94665   3.121   8.949  10.001 -0.3051  0.2582  0.8019
  686MOL0     H94666   3.403   8.783  10.144  0.5572  0.7283  0.6836
  686MOL0     H94667   3.227   8.787  10.108 -1.0096  1.8238  1.4197
  686MOL0     H94668   3.341   8.761   9.973  0.1271  1.9548 -0.9314
  687MOL0     O94669   5.873  11.184  10.275  0.0841  0.5686  0.1669
  687MOL0     C94670   5.851  11.306  10.280  0.1682 -1.0841  0.8379
  687MOL0     O94671   5.778  11.371  10.188 -0.0104  0.4487 -0.2263
  687MOL0     C94672   5.778  11.324  10.066 -0.5394  0.5323  0.3748
  687MOL0     C94673   5.824  11.412   9.966  0.9415 -0.0926  0.4688
  687MOL0     C94674   5.840  11.366   9.831  0.0381  0.1641  0.1484
  687MOL0     C94675   5.813  11.231   9.811 -0.1555 -0.5702  0.1736
  687MOL0     O94676   5.849  11.192   9.685 -0.3381  0.1369  0.1376
  687MOL0     C94677   5.761  11.096   9.619  0.6443  1.3582 -0.4266
  687MOL0     C94678   5.745  11.126   9.467 -0.2995 -0.1298  0.0200
  687MOL0     C94679   5.886  11.117   9.404  0.4586  0.0833 -0.4169
  687MOL0     C94680   5.889  11.122   9.248 -0.2793  0.2109  0.4542
  687MOL0     C94681   5.868  10.992   9.167 -0.0737  0.5439 -0.9397
  687MOL0     C94682   5.934  10.873   9.228 -0.3346  1.2297 -0.4037
  687MOL0     C94683   5.938  10.739   9.146  1.2182  0.5665 -0.1707
  687MOL0     C94684   5.799  10.678   9.120  0.0556  0.6475  1.2828
  687MOL0     N94685   5.820  10.562   9.034  0.4006 -0.6980 -0.3505
  687MOL0     C94686   5.870  10.445   9.078  0.3160 -0.8382 -0.6182
  687MOL0     C94687   5.877  10.364   8.967 -0.0687 -0.1651  0.9574
  687MOL0     C94688   5.931  10.221   8.952 -0.4632  0.1371 -1.3528
  687MOL0     C94689   6.065  10.207   9.038  0.3022 -0.4510 -0.2109
  687MOL0     C94690   6.119  10.066   8.999  0.3872  0.0203 -0.3967
  687MOL0     C94691   6.244  10.027   9.062 -1.1258 -0.1911  0.8665
  687MOL0     O94692   6.349  10.127   9.035  0.5538 -0.0749  0.1081
  687MOL0     C94693   6.473  10.112   9.080 -0.6293 -0.2435 -0.4214
  687MOL0     C94694   6.522   9.991   9.132  0.6150  0.8732  0.4203
  687MOL0     C94695   6.649   9.971   9.175 -0.0657 -0.2418 -0.4655
  687MOL0     C94696   6.682   9.841   9.247  0.2588 -0.4238 -0.2068
  687MOL0     C94697   6.736  10.080   9.165  0.8961 -0.4391  0.1960
  687MOL0     C94698   6.873  10.064   9.207  0.0562 -0.6187  0.7772
  687MOL0     O94699   6.890  10.107   9.326 -0.3789  1.0421 -0.0353
  687MOL0     C94700   7.015  10.094   9.379  0.5850  0.5508 -0.5762
  687MOL0     C94701   7.115  10.179   9.346  0.3538 -0.3126  0.3465
  687MOL0     C94702   7.227  10.179   9.425  0.1222 -0.3237  0.5642
  687MOL0     C94703   7.253  10.083   9.525  0.5253 -0.0444 -0.4526
  687MOL0     O94704   7.379  10.069   9.591  0.3069 -0.5953  0.4096
  687MOL0     C94705   7.434   9.942   9.633  0.0891 -0.1620  0.3315
  687MOL0     C94706   7.572   9.972   9.702 -0.4350  0.1204  0.4578
  687MOL0     C94707   7.655   9.840   9.718 -0.8121  0.1171 -0.6874
  687MOL0     C94708   7.792   9.876   9.793  0.0013  0.2646  0.3518
  687MOL0     C94709   7.868   9.749   9.825  0.1774 -0.5621 -0.3595
  687MOL0     C94710   7.978   9.780   9.927 -0.0340  0.7846 -0.1752
  687MOL0     C94711   8.068   9.659   9.967  0.5130  0.1174  0.1755
  687MOL0     C94712   8.196   9.697  10.039  0.6259  0.2407 -0.2578
  687MOL0    Cl94713   8.340   9.694   9.930  0.2277 -0.1211  0.3469
  687MOL0     C94714   7.151   9.990   9.556  0.5710  0.2130 -0.2862
  687MOL0     C94715   7.029  10.001   9.491 -0.2260  0.4590  0.5466
  687MOL0     O94716   6.954  10.002   9.137 -0.4082 -0.1159 -0.5299
  687MOL0     C94717   6.691  10.203   9.116  0.0571 -0.0766  0.0400
  687MOL0     C94718   6.554  10.224   9.082 -0.2134 -0.5718  0.7547
  687MOL0     N94719   5.830  10.437   8.862  0.5946 -0.1594  0.2616
  687MOL0     N94720   5.800  10.546   8.905  0.1329 -0.4527  0.5196
  687MOL0     C94721   5.742  11.150   9.903 -0.3199 -0.7663 -0.5108
  687MOL0     C94722   5.735  11.193  10.035 -0.6748  0.0886  1.3425
  687MOL0     C94723   5.919  11.374  10.397 -0.4242  0.3425  0.4103
  687MOL0     C94724   5.968  11.294  10.501  0.4089 -0.6760 -0.4331
  687MOL0     C94725   6.049  11.340  10.599  0.6382  0.4657 -0.4031
  687MOL0     C94726   6.077  11.472  10.611  0.0301  0.1191  0.5150
  687MOL0     O94727   6.171  11.507  10.708 -0.4007  0.7204  0.7732
  687MOL0     C94728   6.236  11.636  10.695  0.6372  0.0984 -0.3207
  687MOL0     C94729   6.387  11.615  10.686 -0.2091 -0.3142  0.6542
  687MOL0     C94730   6.469  11.727  10.627 -0.1120 -0.2261  0.0227
  687MOL0     C94731   6.625  11.702  10.625 -0.7790 -0.0127  0.1723
  687MOL0     C94732   6.706  11.814  10.592 -0.3939 -1.1183  0.1582
  687MOL0     C94733   6.766  11.911  10.548  0.4558  0.0712 -0.1104
  687MOL0     C94734   6.013  11.556  10.516 -0.7984 -0.1788  0.5832
  687MOL0     C94735   5.936  11.506  10.408 -1.2735 -0.5980  0.7141
  687MOL0     C94736   5.893  11.609  10.304  0.6732  0.2093  0.0336
  687MOL0     H94737   5.842  11.518   9.976  0.9829  0.0951 -1.3621
  687MOL0     H94738   5.879  11.428   9.751 -0.4996  0.4713  0.1217
  687MOL0     H94739   5.659  11.103   9.661  0.3157  2.3774 -1.3622
  687MOL0     H94740   5.791  10.993   9.639 -2.3024  0.7163  1.4429
  687MOL0     H94741   5.684  11.048   9.420 -2.4251  1.5128 -0.0601
  687MOL0     H94742   5.695  11.222   9.457  1.8500  0.9142 -1.7527
  687MOL0     H94743   5.952  11.198   9.437  0.6085 -0.7273  1.3808
  687MOL0     H94744   5.936  11.027   9.442 -0.1757  0.2013  0.7365
  687MOL0     H94745   5.812  11.192   9.216  0.4592  0.6613 -0.3981
  687MOL0     H94746   5.985  11.167   9.219 -1.0912  2.6279  1.2623
  687MOL0     H94747   5.903  11.009   9.065  0.6937  1.3188 -0.5621
  687MOL0     H94748   5.760  10.974   9.163 -0.3654  1.7700  0.5136
  687MOL0     H94749   6.038  10.904   9.239 -0.1393 -0.0440  1.9819
  687MOL0     H94750   5.883  10.855   9.323  3.1701  1.2874  1.6508
  687MOL0     H94751   5.993  10.659   9.196 -0.4837 -1.6959 -1.6822
  687MOL0     H94752   5.989  10.764   9.052  2.4462 -0.0815  0.2964
  687MOL0     H94753   5.757  10.644   9.214  0.9358  2.2555  2.3139
  687MOL0     H94754   5.731  10.746   9.068  0.3198 -0.4054 -0.5594
  687MOL0     H94755   5.893  10.404   9.176 -0.6725  0.1931  0.0634
  687MOL0     H94756   5.944  10.191   8.848  1.5889  0.1317 -1.1371
  687MOL0     H94757   5.848  10.163   8.995 -0.1138  2.1369  2.5265
  687MOL0     H94758   6.129  10.293   9.019 -3.2775  2.1596 -1.5589
  687MOL0     H94759   6.041  10.206   9.144 -0.4471 -1.1426 -0.3731
  687MOL0     H94760   6.043   9.992   9.026 -2.7333  2.7814 -0.9376
  687MOL0     H94761   6.134  10.075   8.891  0.5241 -0.3307 -0.4082
  687MOL0     H94762   6.216  10.016   9.167 -0.2057 -3.2933  0.8846
  687MOL0     H94763   6.282   9.929   9.030  3.2115  1.7243 -0.5593
  687MOL0     H94764   6.455   9.907   9.143 -0.8325  1.7161 -1.2657
  687MOL0     H94765   6.690   9.755   9.180 -1.6730 -0.1735 -0.8118
  687MOL0     H94766   6.602   9.810   9.315 -0.8599 -3.6368 -2.7260
  687MOL0     H94767   6.779   9.858   9.295 -0.8255  2.1349  1.2723
  687MOL0     H94768   7.095  10.260   9.277 -0.5146 -1.0695 -0.3138
  687MOL0     H94769   7.296  10.261   9.403 -4.4945  3.4028 -1.9634
  687MOL0     H94770   7.369   9.888   9.704  0.3077  0.8757  1.3472
  687MOL0     H94771   7.437   9.881   9.543 -2.4366 -2.0214  1.3863
  687MOL0     H94772   7.628  10.033   9.630  0.5996  1.0891  2.0225
  687MOL0     H94773   7.563  10.014   9.803 -1.6912  0.3155  0.2774
  687MOL0     H94774   7.682   9.787   9.627 -0.4691  0.0768 -0.5619
  687MOL0     H94775   7.589   9.778   9.780 -0.4397 -0.9398 -1.3222
  687MOL0     H94776   7.763   9.926   9.886  0.0318 -0.4805  0.7747
  687MOL0     H94777   7.845   9.948   9.731 -1.8484  1.5446  0.1717
  687MOL0     H94778   7.800   9.675   9.869 -0.9770  0.2089 -0.8087
  687MOL0     H94779   7.921   9.717   9.735  2.3977  3.8443 -0.8794
  687MOL0     H94780   7.927   9.831  10.010 -2.8378 -2.0544  0.0424
  687MOL0     H94781   8.045   9.853   9.880 -0.3782  1.5156  0.4393
  687MOL0     H94782   8.103   9.609   9.876  0.7392  3.1818 -1.5745
  687MOL0     H94783   8.012   9.596  10.036  0.2460  1.0240  0.8039
  687MOL0     H94784   8.206   9.620  10.116  2.2325  1.4684  0.8423
  687MOL0     H94785   8.179   9.796  10.082 -0.2141  0.4386 -1.0200
  687MOL0     H94786   7.148   9.918   9.638 -0.3854 -0.1647 -0.6445
  687MOL0     H94787   6.949   9.930   9.510  1.2612 -1.7254 -0.8982
  687MOL0     H94788   6.756  10.290   9.112 -2.0579  1.7184  1.8306
  687MOL0     H94789   6.514  10.321   9.055 -0.4855 -1.7747 -3.9833
  687MOL0     H94790   5.722  11.044   9.891  0.0968 -0.6348 -2.9147
  687MOL0     H94791   5.693  11.133  10.115 -0.7180  2.2298  3.0135
  687MOL0     H94792   5.970  11.186  10.485  2.6126 -0.4776 -1.8547
  687MOL0     H94793   6.104  11.267  10.658 -0.2376 -1.9743 -2.4283
  687MOL0     H94794   6.196  11.699  10.615  1.1269  1.9987  0.8836
  687MOL0     H94795   6.215  11.683  10.791  0.8159 -3.1099  1.4396
  687MOL0     H94796   6.399  11.531  10.617 -0.4408 -2.0108  2.5876
  687MOL0     H94797   6.434  11.574  10.776  1.6934  1.1752  0.3937
  687MOL0     H94798   6.439  11.738  10.523  1.6431  1.4418 -0.3746
  687MOL0     H94799   6.436  11.824  10.665 -0.3485 -1.0205  1.9684
  687MOL0     H94800   6.663  11.622  10.560  2.2514  1.9208 -0.6416
  687MOL0     H94801   6.661  11.669  10.723  2.1574  1.6189 -0.2137
  687MOL0     H94802   6.819  11.994  10.505 -0.6266  1.1179  0.5246
  687MOL0     H94803   6.026  11.663  10.515 -2.4396  0.0948 -2.5576
  687MOL0     H94804   5.952  11.589  10.215  0.9178 -0.2112  0.2828
  687MOL0     H94805   5.787  11.594  10.284  0.5007 -3.4489  2.5030
  687MOL0     H94806   5.903  11.712  10.340 -1.5400 -0.2473  2.2663
  688MOL0     O94807   3.712   2.095   3.744 -0.1954 -0.0064  0.2174
  688MOL0     C94808   3.767   1.988   3.726  0.0632 -0.3010 -0.4237
  688MOL0     O94809   3.702   1.872   3.750 -0.3040  0.4746  0.0050
  688MOL0     C94810   3.649   1.846   3.881  0.3820 -0.8444  0.4410
  688MOL0     C94811   3.706   1.922   3.991 -0.0167 -0.8107 -0.1736
  688MOL0     C94812   3.653   1.906   4.122  0.5231  0.1059 -0.6754
  688MOL0     C94813   3.541   1.823   4.146 -0.1410 -0.2762 -0.0775
  688MOL0     O94814   3.471   1.825   4.261  0.1894  0.3020  0.6213
  688MOL0     C94815   3.403   1.702   4.312 -0.6368  0.3382  0.4046
  688MOL0     C94816   3.366   1.748   4.452 -0.0738  0.6796 -0.8270
  688MOL0     C94817   3.291   1.640   4.534  0.1443  0.3682 -0.2368
  688MOL0     C94818   3.229   1.694   4.665 -0.1508  0.6011 -0.1821
  688MOL0     C94819   3.322   1.730   4.776 -0.0549  0.4621 -0.4136
  688MOL0     C94820   3.389   1.611   4.843  0.0849  0.5779 -0.2954
  688MOL0     C94821   3.492   1.642   4.949  0.4956  0.8149  0.4714
  688MOL0     C94822   3.632   1.667   4.898 -0.3260 -0.5513  0.0101
  688MOL0     N94823   3.701   1.571   4.809  0.3912  0.5239 -0.4040
  688MOL0     C94824   3.724   1.436   4.822 -0.0896  0.0375  0.0094
  688MOL0     C94825   3.796   1.400   4.714  1.0647 -0.2801  0.1010
  688MOL0     C94826   3.826   1.261   4.675 -0.1528  0.2447  0.4202
  688MOL0     C94827   3.972   1.240   4.655  0.8445  0.4988 -0.1532
  688MOL0     C94828   4.008   1.275   4.507 -0.5334 -0.0989 -0.0796
  688MOL0     C94829   4.144   1.231   4.462 -0.0718 -0.4924  0.5415
  688MOL0     O94830   4.145   1.090   4.441  0.6237 -0.3602  0.0212
  688MOL0     C94831   4.261   1.021   4.472  0.7014 -0.0451 -0.0972
  688MOL0     C94832   4.347   0.990   4.364 -0.5421 -0.7058  0.8104
  688MOL0     C94833   4.451   0.897   4.371  1.0551  0.1491  0.2665
  688MOL0     C94834   4.538   0.883   4.254 -0.0853  0.0156  0.5523
  688MOL0     C94835   4.482   0.841   4.496 -0.3280  0.1126  0.3988
  688MOL0     C94836   4.596   0.749   4.520  0.2870  0.5860 -0.5124
  688MOL0     O94837   4.613   0.717   4.649  0.0796  0.1343  0.2004
  688MOL0     C94838   4.692   0.606   4.674 -0.0185  0.0150  0.0593
  688MOL0     C94839   4.640   0.482   4.661 -0.7126 -0.0966  0.6387
  688MOL0     C94840   4.725   0.373   4.691 -0.1134  0.3202 -0.0503
  688MOL0     C94841   4.856   0.383   4.735 -0.9590  0.5867 -0.5569
  688MOL0     O94842   4.915   0.263   4.771  0.6729 -0.1651 -0.7506
  688MOL0     C94843   5.029   0.266   4.857  0.3827 -0.5255 -0.9049
  688MOL0     C94844   5.143   0.179   4.807 -0.0122 -1.0784  0.2245
  688MOL0     C94845   5.212   0.251   4.689 -0.1424 -0.3783  0.1795
  688MOL0     C94846   5.338   0.189   4.647  0.1859 -0.2994  0.6852
  688MOL0     C94847   5.415   0.272   4.543  0.5836  0.0539 -0.1144
  688MOL0     C94848   5.522   0.184   4.479  0.0270  0.1105 -0.0006
  688MOL0     C94849   5.598   0.275   4.374  0.1200  1.8340 -0.1107
  688MOL0     C94850   5.670   0.392   4.436  0.8653 -0.7247 -0.6223
  688MOL0    Cl94851   5.756   0.480   4.308  0.1715 -0.0327 -0.2952
  688MOL0     C94852   4.913   0.512   4.743  0.0430 -0.3346 -1.3161
  688MOL0     C94853   4.829   0.616   4.712 -1.0335 -0.3824 -0.3280
  688MOL0     O94854   4.669   0.716   4.424 -0.0875 -0.1110 -0.2379
  688MOL0     C94855   4.397   0.873   4.604  0.2448 -0.1728 -0.0126
  688MOL0     C94856   4.283   0.957   4.591 -0.2120 -0.9416  1.2356
  688MOL0     N94857   3.830   1.515   4.645 -0.8664 -0.4654 -0.0336
  688MOL0     N94858   3.779   1.615   4.708  0.0146 -0.7135  0.0313
  688MOL0     C94859   3.502   1.739   4.048 -0.0686 -0.7546 -0.1377
  688MOL0     C94860   3.556   1.746   3.918  0.0058  0.2934  0.3346
  688MOL0     C94861   3.889   1.988   3.652  0.4612 -0.2590  0.4013
  688MOL0     C94862   3.913   1.891   3.556  0.1866  0.5660 -0.0509
  688MOL0     C94863   4.035   1.860   3.503 -0.3174  0.7455 -0.4665
  688MOL0     C94864   4.140   1.951   3.536  0.2731  0.8291  0.0869
  688MOL0     O94865   4.256   1.921   3.471 -0.0747 -0.0902 -0.0826
  688MOL0     C94866   4.343   1.829   3.549  0.2983 -0.3961  0.2897
  688MOL0     C94867   4.471   1.902   3.585  0.0057  0.1057 -0.6833
  688MOL0     C94868   4.552   1.927   3.453 -0.0513  0.0357  0.5595
  688MOL0     C94869   4.661   2.044   3.482 -0.1011  0.8378  0.0085
  688MOL0     C94870   4.732   2.063   3.356  0.8048  0.2066  0.7586
  688MOL0     C94871   4.803   2.095   3.259 -0.2811  0.2174  1.0672
  688MOL0     C94872   4.128   2.048   3.637  0.5110  0.2477  0.4269
  688MOL0     C94873   4.001   2.074   3.694  0.4607  0.1567 -0.3578
  688MOL0     C94874   3.994   2.166   3.806  0.1284  0.8232 -0.2495
  688MOL0     H94875   3.779   2.001   3.973 -1.2822  0.2273 -0.9505
  688MOL0     H94876   3.699   1.950   4.210  3.1505 -1.9873 -0.8656
  688MOL0     H94877   3.457   1.608   4.326 -4.0100 -1.5823  1.7347
  688MOL0     H94878   3.312   1.690   4.252 -0.0751 -0.7616 -0.2601
  688MOL0     H94879   3.457   1.771   4.508 -0.7502  2.6225 -0.4427
  688MOL0     H94880   3.307   1.840   4.453 -1.5608 -0.2119  1.0760
  688MOL0     H94881   3.215   1.591   4.473 -0.9456  0.4189  1.0598
  688MOL0     H94882   3.351   1.556   4.570 -2.1422 -1.0642  0.4553
  688MOL0     H94883   3.161   1.778   4.645 -1.1752 -0.0275  0.5499
  688MOL0     H94884   3.165   1.614   4.704  2.9921 -3.3611 -2.4550
  688MOL0     H94885   3.264   1.781   4.852  1.4451 -0.9416  1.7886
  688MOL0     H94886   3.403   1.793   4.737  0.4589  0.5086  0.7124
  688MOL0     H94887   3.311   1.547   4.884 -0.1751  0.8983 -0.2819
  688MOL0     H94888   3.438   1.547   4.769  1.7866  1.7791 -0.2702
  688MOL0     H94889   3.497   1.561   5.022 -1.2440 -0.1029 -0.3569
  688MOL0     H94890   3.463   1.730   5.006 -0.7818  0.1814  0.8322
  688MOL0     H94891   3.629   1.756   4.834  1.4096  0.3320  1.0919
  688MOL0     H94892   3.701   1.668   4.983 -0.2222 -0.3736 -0.0760
  688MOL0     H94893   3.672   1.367   4.887  1.7944 -0.2274  1.3364
  688MOL0     H94894   3.768   1.235   4.585  1.1375  4.6573 -1.9787
  688MOL0     H94895   3.787   1.189   4.748 -0.7251 -0.3662 -0.4608
  688MOL0     H94896   4.031   1.298   4.726  3.1937 -0.0210 -1.5690
  688MOL0     H94897   3.983   1.131   4.652 -3.9544 -0.2538  1.2436
  688MOL0     H94898   3.943   1.223   4.436 -1.4333  1.9554 -0.8404
  688MOL0     H94899   4.006   1.383   4.491  1.3831 -0.2233 -1.6274
  688MOL0     H94900   4.177   1.280   4.370  1.3881  1.6207  2.0942
  688MOL0     H94901   4.222   1.260   4.533 -0.3505  0.3797  0.5138
  688MOL0     H94902   4.332   1.033   4.265  1.4361  1.4659  1.3793
  688MOL0     H94903   4.643   0.905   4.274  0.7053  1.7909 -4.2197
  688MOL0     H94904   4.512   0.959   4.179 -1.6961  2.8045  3.6916
  688MOL0     H94905   4.523   0.783   4.210 -0.1897 -0.0937  0.8344
  688MOL0     H94906   4.535   0.475   4.635 -0.0062  3.3612 -4.6580
  688MOL0     H94907   4.678   0.275   4.697 -1.5231  1.0017  0.3255
  688MOL0     H94908   5.062   0.366   4.887  0.2620 -1.0675  1.2205
  688MOL0     H94909   5.003   0.224   4.955  2.2675 -0.8758 -0.4986
  688MOL0     H94910   5.212   0.176   4.891  0.6706 -1.4384 -0.3375
  688MOL0     H94911   5.113   0.078   4.778  0.1646 -0.4330 -2.4732
  688MOL0     H94912   5.229   0.356   4.712 -0.8062 -0.6189  1.8941
  688MOL0     H94913   5.133   0.246   4.614 -0.0851  0.0732  0.0876
  688MOL0     H94914   5.316   0.093   4.598  0.7881 -0.6516  1.0858
  688MOL0     H94915   5.403   0.165   4.732 -2.2477 -1.3944  2.3277
  688MOL0     H94916   5.338   0.306   4.473 -0.8870  2.3846  2.4111
  688MOL0     H94917   5.467   0.353   4.595  1.9534 -1.0042  0.2111
  688MOL0     H94918   5.470   0.104   4.425  0.1558  0.5079 -0.7325
  688MOL0     H94919   5.593   0.136   4.547 -1.5177 -0.1695  1.4669
  688MOL0     H94920   5.525   0.322   4.307  1.8579  0.0667 -3.5116
  688MOL0     H94921   5.668   0.208   4.323  0.3855  0.8083  1.5191
  688MOL0     H94922   5.742   0.356   4.510  1.2040  1.9258  0.4637
  688MOL0     H94923   5.605   0.459   4.494  2.4445 -0.1202  0.5041
  688MOL0     H94924   5.013   0.534   4.776 -0.4183  2.1698 -1.4196
  688MOL0     H94925   4.863   0.719   4.711  0.1288 -0.7281 -2.5240
  688MOL0     H94926   4.412   0.840   4.706 -0.4759 -3.6535 -0.8924
  688MOL0     H94927   4.221   0.968   4.680 -0.4710 -0.9773  1.0593
  688MOL0     H94928   3.412   1.681   4.066 -0.7450  0.3603  0.1594
  688MOL0     H94929   3.517   1.687   3.836  3.5964  2.5044 -3.3437
  688MOL0     H94930   3.831   1.824   3.530  0.0607  0.3741  0.8104
  688MOL0     H94931   4.046   1.775   3.437  0.1384 -0.2705  0.8779
  688MOL0     H94932   4.292   1.790   3.637 -2.1797  1.1656 -0.3639
  688MOL0     H94933   4.362   1.742   3.485  1.8232 -0.2181  0.4433
  688MOL0     H94934   4.525   1.832   3.649 -1.5451 -2.1250 -1.7094
  688MOL0     H94935   4.454   1.992   3.646  2.5040  0.6096 -0.6185
  688MOL0     H94936   4.607   1.838   3.421  2.3371  0.7594  2.3713
  688MOL0     H94937   4.494   1.971   3.371  1.3732  1.7196  0.3923
  688MOL0     H94938   4.740   2.018   3.552 -1.2100  0.0489  0.9933
  688MOL0     H94939   4.607   2.137   3.500  0.0648  0.3895  3.2911
  688MOL0     H94940   4.864   2.107   3.171 -0.3434  0.0945  1.0066
  688MOL0     H94941   4.215   2.106   3.664  0.7395  0.7598 -1.2713
  688MOL0     H94942   3.998   2.270   3.771 -0.1276  1.2761  1.0241
  688MOL0     H94943   3.906   2.159   3.870 -0.3930 -3.3435 -1.1513
  688MOL0     H94944   4.085   2.146   3.861 -0.0271 -0.5488 -0.4643
  689MOL0     O94945   1.896   5.304   6.352  0.3551 -0.3878 -0.0677
  689MOL0     C94946   1.912   5.311   6.472  0.5630  0.1745 -0.9745
  689MOL0     O94947   1.817   5.328   6.569  0.3845  0.2191 -0.5657
  689MOL0     C94948   1.682   5.360   6.536  0.0073 -0.8644 -0.7214
  689MOL0     C94949   1.641   5.433   6.426 -0.2112 -0.0895 -0.0457
  689MOL0     C94950   1.500   5.467   6.405 -0.2618  0.7338  0.2348
  689MOL0     C94951   1.405   5.410   6.491  0.2817 -0.2739  0.3940
  689MOL0     O94952   1.269   5.442   6.485 -0.8811 -1.0399  0.3473
  689MOL0     C94953   1.242   5.578   6.511  0.1117 -0.1145  0.3950
  689MOL0     C94954   1.098   5.580   6.567 -1.3740  1.0985 -0.1271
  689MOL0     C94955   1.028   5.723   6.573  0.8224  0.5109  0.5040
  689MOL0     C94956   0.875   5.714   6.618  0.4411  0.4230 -0.5189
  689MOL0     C94957   0.818   5.855   6.626  0.5784 -0.7352 -0.0278
  689MOL0     C94958   0.670   5.865   6.678 -0.9359  0.2739  0.5616
  689MOL0     C94959   0.615   5.996   6.644  0.8601 -0.2063 -0.4552
  689MOL0     C94960   0.464   6.000   6.669 -0.0248  0.4283  0.0065
  689MOL0     N94961   0.426   6.009   6.812 -0.6561 -0.2959  0.1926
  689MOL0     C94962   0.508   6.036   6.924  0.0800  0.0270  0.4833
  689MOL0     C94963   0.417   6.057   7.025 -0.1395 -0.4875 -0.0593
  689MOL0     C94964   0.435   6.100   7.171 -0.5018 -0.9025  1.1601
  689MOL0     C94965   0.579   6.085   7.213 -0.2362  0.6663  0.8499
  689MOL0     C94966   0.660   6.216   7.214 -0.0739  0.6203 -0.5734
  689MOL0     C94967   0.708   6.266   7.073  0.1648 -0.7104  0.6695
  689MOL0     O94968   0.804   6.183   7.004  0.3047  0.3011  0.5051
  689MOL0     C94969   0.925   6.159   7.065 -0.5240  1.0498  0.1341
  689MOL0     C94970   0.992   6.042   7.030 -0.6069 -0.7948  0.6671
  689MOL0     C94971   1.113   6.007   7.085  0.3013 -0.0276  1.1512
  689MOL0     C94972   1.164   5.871   7.040  0.5299 -0.3358 -0.7513
  689MOL0     C94973   1.175   6.093   7.172 -0.6447 -0.8411 -0.0257
  689MOL0     C94974   1.317   6.066   7.219 -0.1723 -0.1496 -0.0662
  689MOL0     O94975   1.389   5.987   7.132  0.4640 -0.3113  0.6039
  689MOL0     C94976   1.513   5.936   7.163 -0.2803  0.0120 -0.4700
  689MOL0     C94977   1.531   5.820   7.236 -0.1286  0.0624  0.9638
  689MOL0     C94978   1.652   5.754   7.260 -0.6614 -1.1567  1.1123
  689MOL0     C94979   1.768   5.835   7.225 -0.1121  0.9771  0.4771
  689MOL0     O94980   1.895   5.788   7.245 -0.4909 -0.2253 -0.0618
  689MOL0     C94981   1.916   5.650   7.264 -0.0337 -0.3504  1.0186
  689MOL0     C94982   2.058   5.620   7.228  0.4330  0.4799 -0.2150
  689MOL0     C94983   2.150   5.612   7.349 -0.5077 -0.1966  0.2565
  689MOL0     C94984   2.298   5.646   7.309  0.2565 -0.7486 -0.6910
  689MOL0     C94985   2.382   5.642   7.438  0.1313 -0.6027 -0.1048
  689MOL0     C94986   2.434   5.498   7.475  0.2280  0.2709 -0.0102
  689MOL0     C94987   2.511   5.427   7.362 -0.5294  0.3811 -0.1721
  689MOL0     C94988   2.594   5.307   7.407 -0.1234  0.0704  0.1024
  689MOL0    Cl94989   2.715   5.348   7.537 -0.0123 -0.1007 -0.2563
  689MOL0     C94990   1.755   5.956   7.161  0.0045 -1.0775 -0.7858
  689MOL0     C94991   1.629   6.005   7.128 -0.2658 -0.3545  0.1966
  689MOL0     O94992   1.336   6.074   7.342  0.2858  0.4557  0.2837
  689MOL0     C94993   1.114   6.215   7.207 -0.1072 -0.1687 -0.0602
  689MOL0     C94994   0.988   6.242   7.154 -0.1428 -0.1584  0.1662
  689MOL0     N94995   0.288   6.042   6.976 -1.0010  0.3300  0.3196
  689MOL0     N94996   0.297   5.997   6.855 -0.1254 -0.8631  0.7194
  689MOL0     C94997   1.449   5.341   6.600 -0.0062  0.1613  0.7055
  689MOL0     C94998   1.587   5.320   6.625  0.1783 -0.3484  0.6308
  689MOL0     C94999   2.045   5.308   6.523 -0.7000  0.1573 -0.4468
  689MOL0     C95000   2.077   5.232   6.640  0.0398 -0.7613  0.1773
  689MOL0     C95001   2.208   5.235   6.683 -0.2693  0.2111  0.0725
  689MOL0     C95002   2.302   5.319   6.630  0.1152 -0.0123 -0.0161
  689MOL0     O95003   2.423   5.308   6.674 -0.1600  0.5380 -0.4033
  689MOL0     C95004   2.531   5.389   6.629  0.4378 -0.1481 -0.2086
  689MOL0     C95005   2.656   5.328   6.706 -0.4519  0.7453  0.0085
  689MOL0     C95006   2.765   5.306   6.602 -0.5149  0.0902  1.3655
  689MOL0     C95007   2.880   5.241   6.667 -0.7988  0.8104  0.3238
  689MOL0     C95008   2.983   5.208   6.571 -0.4026  0.2423 -0.1959
  689MOL0     C95009   3.073   5.192   6.486 -0.2962  0.6112 -0.4450
  689MOL0     C95010   2.262   5.409   6.531 -0.7910 -0.3120 -0.1262
  689MOL0     C95011   2.132   5.415   6.479  0.3221  0.2109 -0.1982
  689MOL0     C95012   2.105   5.520   6.372  0.7626 -0.4896 -0.2124
  689MOL0     H95013   1.715   5.462   6.352  0.2298  0.2965  0.5367
  689MOL0     H95014   1.477   5.539   6.326 -0.5787 -1.9885 -2.3331
  689MOL0     H95015   1.222   5.619   6.411  0.6708  1.0955  0.7716
  689MOL0     H95016   1.315   5.642   6.560 -2.4620  0.8447  3.2594
  689MOL0     H95017   1.028   5.515   6.514 -1.4467  0.2728  0.9397
  689MOL0     H95018   1.107   5.546   6.671 -1.6013  2.7574  0.4564
  689MOL0     H95019   1.093   5.781   6.640 -0.5482  2.9584 -0.1684
  689MOL0     H95020   1.023   5.771   6.475  0.5521  0.4492  0.4854
  689MOL0     H95021   0.808   5.654   6.556 -1.0548 -0.3333  1.6805
  689MOL0     H95022   0.876   5.662   6.714  0.2959 -0.5192 -1.0135
  689MOL0     H95023   0.825   5.886   6.521  2.2272 -1.6455 -0.2246
  689MOL0     H95024   0.889   5.914   6.685  0.0978  0.0230 -0.1952
  689MOL0     H95025   0.621   5.781   6.628 -0.5713  0.0141  0.6371
  689MOL0     H95026   0.662   5.845   6.785  1.4343 -0.7726  0.6099
  689MOL0     H95027   0.628   6.021   6.538 -0.8046 -3.1711 -1.4696
  689MOL0     H95028   0.662   6.081   6.693 -1.4033  1.6121 -1.2266
  689MOL0     H95029   0.415   6.089   6.627 -2.1921  0.1350  1.6889
  689MOL0     H95030   0.415   5.917   6.617  3.4485  1.0411 -4.9145
  689MOL0     H95031   0.616   6.044   6.920  0.1543 -0.4953  1.2525
  689MOL0     H95032   0.378   6.022   7.223  1.8684 -2.4884  1.5800
  689MOL0     H95033   0.399   6.202   7.187 -2.6612 -1.2716 -0.9412
  689MOL0     H95034   0.568   6.045   7.314  2.3272  1.8997  1.7036
  689MOL0     H95035   0.624   5.997   7.167 -2.5128 -0.4355  0.5738
  689MOL0     H95036   0.602   6.296   7.262 -0.2905  0.8941 -1.2791
  689MOL0     H95037   0.747   6.193   7.276  0.5887  0.1129 -1.6689
  689MOL0     H95038   0.621   6.279   7.008 -0.5216 -1.6818  1.3643
  689MOL0     H95039   0.748   6.368   7.076 -1.9409  0.1696  0.4896
  689MOL0     H95040   0.958   5.964   6.963  3.1235 -2.5548  0.5187
  689MOL0     H95041   1.202   5.820   7.129 -2.5315  2.2370  2.2998
  689MOL0     H95042   1.235   5.879   6.957 -0.6618 -0.6567 -1.8335
  689MOL0     H95043   1.083   5.806   7.005  3.1290 -3.2102 -1.8611
  689MOL0     H95044   1.442   5.780   7.284 -1.2045 -2.4841 -2.7256
  689MOL0     H95045   1.683   5.668   7.318  1.2440 -0.7795  0.7186
  689MOL0     H95046   1.892   5.615   7.365  3.1598 -1.3589  1.5620
  689MOL0     H95047   1.857   5.600   7.188  0.0929  0.3141  0.4717
  689MOL0     H95048   2.044   5.519   7.187 -0.2311  0.9095 -1.0659
  689MOL0     H95049   2.090   5.682   7.144 -0.3459  0.4458 -0.5485
  689MOL0     H95050   2.155   5.507   7.379  2.0609 -0.9119 -2.2501
  689MOL0     H95051   2.115   5.670   7.435  0.7497 -2.0573  2.1606
  689MOL0     H95052   2.303   5.745   7.265  1.3145 -0.6986 -0.4831
  689MOL0     H95053   2.335   5.577   7.232 -2.7722 -0.6796 -2.3465
  689MOL0     H95054   2.466   5.708   7.413 -0.4994 -0.4125 -1.9100
  689MOL0     H95055   2.337   5.687   7.527 -0.8216  0.2654 -1.0057
  689MOL0     H95056   2.351   5.430   7.500  1.0797 -0.3734  1.2078
  689MOL0     H95057   2.472   5.513   7.577 -0.0603  0.6384  0.0422
  689MOL0     H95058   2.574   5.504   7.317 -1.9748  1.5721 -0.2496
  689MOL0     H95059   2.438   5.389   7.289  0.6090 -0.6016 -0.8412
  689MOL0     H95060   2.646   5.255   7.327 -0.0511 -2.3723  1.6331
  689MOL0     H95061   2.521   5.237   7.448 -1.4287  0.0957 -2.0312
  689MOL0     H95062   1.849   6.007   7.142  0.9811 -3.3079 -2.3633
  689MOL0     H95063   1.620   6.107   7.092  0.1445 -0.0272  0.9744
  689MOL0     H95064   1.168   6.298   7.251  1.0218 -1.2905  0.6901
  689MOL0     H95065   0.946   6.334   7.195 -0.1366  0.2840 -0.7947
  689MOL0     H95066   1.379   5.297   6.671  0.9383 -2.8978 -0.1270
  689MOL0     H95067   1.622   5.265   6.712 -2.0680 -1.0100  1.1863
  689MOL0     H95068   2.018   5.165   6.700  0.9731 -1.4579  0.3475
  689MOL0     H95069   2.231   5.163   6.761 -2.1744 -0.0439  0.4583
  689MOL0     H95070   2.549   5.396   6.522  1.0770  0.3518 -0.0713
  689MOL0     H95071   2.523   5.491   6.668  0.5380 -0.7286  1.4323
  689MOL0     H95072   2.637   5.244   6.773 -0.8523  0.0535 -0.9471
  689MOL0     H95073   2.686   5.410   6.771 -0.2678  1.9753 -1.5529
  689MOL0     H95074   2.711   5.258   6.520 -2.1332  2.3745  0.9855
  689MOL0     H95075   2.795   5.407   6.572 -2.5061  0.7320  1.3910
  689MOL0     H95076   2.852   5.146   6.712  0.0015  1.3474  2.0391
  689MOL0     H95077   2.922   5.305   6.745  1.5284  1.3926 -1.2700
  689MOL0     H95078   3.154   5.166   6.421  0.0313 -0.1682  0.2744
  689MOL0     H95079   2.339   5.479   6.498 -1.2265  1.4324  2.2943
  689MOL0     H95080   2.029   5.584   6.417  0.6698  0.7581 -2.0251
  689MOL0     H95081   2.192   5.583   6.350 -0.5244  1.2986 -0.4355
  689MOL0     H95082   2.058   5.489   6.279 -0.9794  2.2378 -0.3648
  690MOL0     O95083  10.717   0.221   0.589  0.8921  0.1115 -0.1748
  690MOL0     C95084  10.716   0.127   0.663  0.4314  0.3025 -0.1823
  690MOL0     O95085  10.796   0.114   0.769 -0.0152  0.2960 -0.2535
  690MOL0     C95086  10.937   0.126   0.747  1.2851  0.1539  0.9761
  690MOL0     C95087  11.012   0.123   0.860 -0.7793 -0.0229 -0.6498
  690MOL0     C95088  11.148   0.124   0.849  0.6103  0.0393 -0.8974
  690MOL0     C95089  11.214   0.122   0.729 -0.1926 -0.6042  0.1841
  690MOL0     O95090  11.348   0.130   0.706  0.5039  0.1414  0.3475
  690MOL0     C95091  11.435   0.169   0.815  0.0455 -0.4464  0.9560
  690MOL0     C95092  11.547   0.259   0.751  0.6475  0.3296  0.2051
  690MOL0     C95093  11.496   0.360   0.649  0.5900  0.4890 -0.3315
  690MOL0     C95094  11.592   0.476   0.637  0.2816  0.5450  0.4118
  690MOL0     C95095  11.549   0.586   0.544  0.2528 -0.0644 -0.2492
  690MOL0     C95096  11.422   0.653   0.595  0.6714 -0.1777  0.2225
  690MOL0     C95097  11.382   0.755   0.486 -0.3035  0.0596  1.1991
  690MOL0     C95098  11.246   0.810   0.516  0.0807 -0.7350  0.0613
  690MOL0     N95099  11.181   0.877   0.397 -0.3643  0.7003  0.2414
  690MOL0     C95100  11.245   0.964   0.310 -0.4875 -0.3742  0.2657
  690MOL0     C95101  11.152   1.005   0.217 -0.0071 -0.8351 -0.6491
  690MOL0     C95102  11.181   1.115   0.119 -0.0855  0.3432 -0.0642
  690MOL0     C95103  11.290   1.083   0.028 -1.0584  0.0029  1.0413
  690MOL0     C95104  11.318   1.203  -0.064  0.0037 -0.4220 -0.0902
  690MOL0     C95105  11.421   1.177  -0.172  0.8264  0.3034  0.4733
  690MOL0     O95106  11.436   1.301  -0.245  0.4893 -0.3581 -0.5649
  690MOL0     C95107  11.350   1.335  -0.348  0.0345 -0.2645  0.0837
  690MOL0     C95108  11.362   1.451  -0.416  0.2988  0.2479 -0.1731
  690MOL0     C95109  11.283   1.486  -0.520 -0.2360 -0.4041  1.5427
  690MOL0     C95110  11.321   1.616  -0.582  0.2793 -0.7858 -0.8525
  690MOL0     C95111  11.189   1.392  -0.577  0.1851  0.0702  0.3586
  690MOL0     C95112  11.106   1.419  -0.699  0.4285 -0.3385 -0.2505
  690MOL0     O95113  11.031   1.317  -0.755 -0.2890  0.2930 -0.4551
  690MOL0     C95114  10.912   1.357  -0.810  0.7064 -0.3452  0.3705
  690MOL0     C95115  10.895   1.359  -0.949  0.0842  1.0568  0.2718
  690MOL0     C95116  10.775   1.401  -1.017 -0.6223  0.3184 -0.1129
  690MOL0     C95117  10.664   1.450  -0.937 -0.3496  0.8483 -0.0841
  690MOL0     O95118  10.543   1.487  -0.985 -0.8417  0.2262  0.2788
  690MOL0     C95119  10.510   1.461  -1.117 -0.6194  0.1455 -0.1976
  690MOL0     C95120  10.365   1.407  -1.128  0.3968 -0.1333  0.2412
  690MOL0     C95121  10.264   1.518  -1.138 -0.6148  0.0748  0.8195
  690MOL0     C95122  10.228   1.567  -1.001 -0.0270  0.0366  0.3751
  690MOL0     C95123  10.127   1.678  -1.006  1.1546  0.3195  0.0655
  690MOL0     C95124   9.989   1.632  -1.055 -0.0018  0.1896  0.1428
  690MOL0     C95125   9.901   1.762  -1.071  0.8204 -0.1828  0.5779
  690MOL0     C95126   9.962   1.882  -1.152 -0.4846  0.6278 -0.3473
  690MOL0    Cl95127   9.859   2.030  -1.116 -0.5056  0.0559  0.1868
  690MOL0     C95128  10.682   1.438  -0.795  0.1614  0.1430  0.8406
  690MOL0     C95129  10.802   1.392  -0.734 -0.4789 -0.5633  0.5713
  690MOL0     O95130  11.095   1.537  -0.737  0.4756 -0.3203 -0.3231
  690MOL0     C95131  11.174   1.272  -0.508  0.5181 -0.1744  0.4081
  690MOL0     C95132  11.253   1.248  -0.400 -0.5430  0.2204 -0.0210
  690MOL0     N95133  11.031   0.941   0.244  0.6038 -1.0795  0.3705
  690MOL0     N95134  11.055   0.859   0.342  1.1607  0.3844 -0.2486
  690MOL0     C95135  11.141   0.102   0.615  0.4405 -0.5006  0.5853
  690MOL0     C95136  10.998   0.095   0.621 -0.3164  0.4532  0.9407
  690MOL0     C95137  10.598   0.034   0.643 -0.5694 -0.7361  0.1639
  690MOL0     C95138  10.578  -0.068   0.743 -0.2602  0.4391  0.4636
  690MOL0     C95139  10.461  -0.154   0.742 -0.6759 -0.4144 -0.6289
  690MOL0     C95140  10.385  -0.167   0.626 -0.4161 -0.6651  0.1336
  690MOL0     O95141  10.299  -0.269   0.642 -0.0231  0.2405  0.7370
  690MOL0     C95142  10.218  -0.290   0.527  0.5415  1.1352 -0.9309
  690MOL0     C95143  10.142  -0.417   0.542  0.0397 -0.2902  0.0165
  690MOL0     C95144  10.060  -0.425   0.673 -0.0924  0.0885  0.2936
  690MOL0     C95145   9.997  -0.563   0.699  0.8234 -0.0017  0.7643
  690MOL0     C95146  10.092  -0.666   0.744 -1.0516  0.2344  0.4304
  690MOL0     C95147  10.179  -0.740   0.783 -0.2618  0.0420  0.8080
  690MOL0     C95148  10.405  -0.066   0.531  0.1399  0.8835 -0.7981
  690MOL0     C95149  10.509   0.027   0.533  1.3072 -1.4181 -0.7564
  690MOL0     C95150  10.512   0.129   0.422 -0.6231  0.2015  0.0553
  690MOL0     H95151  10.972   0.139   0.960  2.5623  0.0189  0.8027
  690MOL0     H95152  11.217   0.120   0.932  1.0694  2.1206 -1.1254
  690MOL0     H95153  11.493   0.084   0.850 -1.7283 -1.3400  1.9030
  690MOL0     H95154  11.392   0.226   0.898 -1.7173  1.7483 -1.3034
  690MOL0     H95155  11.597   0.307   0.834 -0.3865  3.3072 -0.7722
  690MOL0     H95156  11.618   0.204   0.689  0.7633  3.5568 -2.8591
  690MOL0     H95157  11.497   0.318   0.548 -0.4092  2.0141 -1.0149
  690MOL0     H95158  11.391   0.382   0.667  0.2473 -2.1088  1.3279
  690MOL0     H95159  11.592   0.518   0.738 -0.6389  1.1345  0.1798
  690MOL0     H95160  11.687   0.440   0.597 -0.5497 -1.1701 -0.0768
  690MOL0     H95161  11.538   0.552   0.441  2.0888 -0.2555 -0.4157
  690MOL0     H95162  11.631   0.659   0.540  1.5679 -1.1608  2.9056
  690MOL0     H95163  11.344   0.579   0.615  0.6443 -0.7987 -1.9085
  690MOL0     H95164  11.451   0.700   0.689  0.2446 -0.3922  0.4625
  690MOL0     H95165  11.371   0.707   0.388 -0.4106  0.3412  1.0727
  690MOL0     H95166  11.458   0.833   0.488 -1.3748  1.1858 -0.0204
  690MOL0     H95167  11.179   0.727   0.541  0.6751 -0.5838  2.3020
  690MOL0     H95168  11.252   0.869   0.608 -0.1370 -1.5525  0.6101
  690MOL0     H95169  11.348   0.999   0.316  0.0933 -2.1756  1.4666
  690MOL0     H95170  11.207   1.198   0.185 -0.0157 -0.8028  1.4060
  690MOL0     H95171  11.089   1.138   0.065 -0.7106 -0.6536  0.5443
  690MOL0     H95172  11.380   1.054   0.084 -0.0941  2.5127  0.9589
  690MOL0     H95173  11.259   0.998  -0.032 -0.6549  1.2318 -1.0146
  690MOL0     H95174  11.225   1.227  -0.116  0.6135  1.4464 -0.3891
  690MOL0     H95175  11.352   1.287  -0.002 -2.6431 -1.6038  3.2757
  690MOL0     H95176  11.518   1.148  -0.129  0.6551 -0.6529  0.2482
  690MOL0     H95177  11.392   1.097  -0.241  1.5609  0.2926  0.1672
  690MOL0     H95178  11.429   1.525  -0.373 -2.7532  2.7082  0.7590
  690MOL0     H95179  11.246   1.694  -0.565 -0.3272 -2.0028  2.7224
  690MOL0     H95180  11.322   1.606  -0.691 -0.8901  1.0954 -1.0874
  690MOL0     H95181  11.417   1.658  -0.552 -1.9917  1.9395  3.7817
  690MOL0     H95182  10.969   1.310  -1.012  1.2733  1.3396  1.3857
  690MOL0     H95183  10.781   1.386  -1.124 -1.9838  0.3154 -0.1963
  690MOL0     H95184  10.511   1.549  -1.182  2.4804  0.1014 -0.3474
  690MOL0     H95185  10.570   1.386  -1.169 -3.8785 -3.6705  1.0485
  690MOL0     H95186  10.352   1.337  -1.211 -0.5793  0.7181 -0.3551
  690MOL0     H95187  10.345   1.345  -1.040  1.2510  0.6962  1.0361
  690MOL0     H95188  10.177   1.472  -1.185  0.9353 -1.7754 -0.3891
  690MOL0     H95189  10.300   1.602  -1.198  1.2705  0.3446  2.2218
  690MOL0     H95190  10.316   1.607  -0.948  0.3415 -2.1783  1.5694
  690MOL0     H95191  10.192   1.481  -0.944 -0.9749 -0.2709 -0.6628
  690MOL0     H95192  10.124   1.717  -0.904  2.2639 -2.4684  1.2848
  690MOL0     H95193  10.165   1.759  -1.069 -2.1101  2.0242  0.0808
  690MOL0     H95194   9.955   1.559  -0.982  0.5954  0.7866  1.0315
  690MOL0     H95195   9.992   1.583  -1.153 -1.3734  1.7505 -0.7395
  690MOL0     H95196   9.888   1.799  -0.969 -0.2404 -1.0020  0.7679
  690MOL0     H95197   9.808   1.727  -1.118  1.5719 -0.4972 -0.7193
  690MOL0     H95198   9.958   1.859  -1.259 -0.5411  1.5243 -0.5442
  690MOL0     H95199  10.061   1.912  -1.117 -0.1428  0.5594 -1.2276
  690MOL0     H95200  10.592   1.463  -0.739 -0.6864 -0.2772 -0.2834
  690MOL0     H95201  10.803   1.399  -0.626 -0.4587  0.1720  0.5309
  690MOL0     H95202  11.107   1.190  -0.532  2.1106 -1.6477  0.8529
  690MOL0     H95203  11.224   1.153  -0.355  0.9863 -0.1085  0.3332
  690MOL0     H95204  11.193   0.093   0.521 -0.1392  0.6447  0.1352
  690MOL0     H95205  10.948   0.068   0.528  0.1558 -0.4109  0.9228
  690MOL0     H95206  10.646  -0.078   0.826  0.4498  0.4449 -0.1138
  690MOL0     H95207  10.446  -0.207   0.835  0.5520  1.8529  0.9499
  690MOL0     H95208  10.155  -0.201   0.530 -0.6310  0.3904 -2.0882
  690MOL0     H95209  10.276  -0.304   0.435 -0.8298 -2.6294 -1.3702
  690MOL0     H95210  10.214  -0.499   0.539 -1.2345 -1.3979 -1.2878
  690MOL0     H95211  10.083  -0.425   0.451  2.5192  1.2825 -1.8400
  690MOL0     H95212  10.120  -0.398   0.759  0.2137  1.7905 -0.4124
  690MOL0     H95213   9.983  -0.348   0.663  1.1735  1.7841  2.7004
  690MOL0     H95214   9.951  -0.603   0.608 -2.7997  1.1049  1.9397
  690MOL0     H95215   9.926  -0.549   0.781 -1.4834  3.7195 -1.5818
  690MOL0     H95216  10.250  -0.815   0.813  0.3791  0.8248  1.2640
  690MOL0     H95217  10.346  -0.063   0.440  1.2700  2.2917 -1.5162
  690MOL0     H95218  10.436   0.100   0.348  0.7130  2.3302 -2.3227
  690MOL0     H95219  10.495   0.232   0.452 -2.3370 -0.7898  2.7766
  690MOL0     H95220  10.613   0.121   0.379 -1.2442  0.5189 -1.5207
  691MOL0     O95221   8.625   1.808   4.007  0.6310  0.1368 -0.1464
  691MOL0     C95222   8.614   1.885   4.095 -0.1909 -0.4328 -1.5752
  691MOL0     O95223   8.705   1.972   4.136 -0.6544 -0.2705  0.0250
  691MOL0     C95224   8.802   2.023   4.056  0.0990  2.0331  0.2342
  691MOL0     C95225   8.808   2.008   3.917 -0.9143 -0.9355  0.9494
  691MOL0     C95226   8.910   2.060   3.842  0.5485 -0.2292  0.4293
  691MOL0     C95227   9.002   2.139   3.899 -0.0828 -0.6518 -0.0014
  691MOL0     O95228   9.103   2.187   3.818 -0.0205  0.2471  0.4066
  691MOL0     C95229   9.163   2.313   3.847  0.9227 -0.1589  0.4375
  691MOL0     C95230   9.286   2.327   3.765 -0.7482  0.7705  0.0885
  691MOL0     C95231   9.333   2.466   3.752 -0.6731  0.2192  0.2087
  691MOL0     C95232   9.426   2.507   3.868  0.0237  0.4179 -0.9974
  691MOL0     C95233   9.463   2.654   3.850  0.3662 -0.4083 -0.0309
  691MOL0     C95234   9.535   2.711   3.972  0.5295 -0.6254 -0.0143
  691MOL0     C95235   9.511   2.863   3.974 -0.0165  0.4489 -0.1656
  691MOL0     C95236   9.592   2.941   4.080 -0.0729  0.0438  0.9261
  691MOL0     N95237   9.577   2.876   4.203 -0.0236  0.4596  0.1141
  691MOL0     C95238   9.650   2.778   4.254 -0.2470  0.2943  0.3319
  691MOL0     C95239   9.615   2.765   4.380  0.4534  0.8152 -0.0429
  691MOL0     C95240   9.670   2.671   4.482  0.3995 -0.0817 -0.3237
  691MOL0     C95241   9.774   2.739   4.568 -1.6355  0.8691  0.4768
  691MOL0     C95242   9.715   2.811   4.687  0.9059 -0.2989  0.1675
  691MOL0     C95243   9.808   2.850   4.794 -0.7901  0.0884 -0.5339
  691MOL0     O95244   9.745   2.906   4.905 -0.1769  0.1789 -0.2957
  691MOL0     C95245   9.778   3.028   4.951  0.8654  0.1883  0.3294
  691MOL0     C95246   9.773   3.142   4.864  0.6266  0.8082 -0.5190
  691MOL0     C95247   9.784   3.274   4.907 -0.2691  0.3161 -0.9513
  691MOL0     C95248   9.802   3.376   4.804  0.0865 -0.1619 -0.2877
  691MOL0     C95249   9.799   3.298   5.048  0.2448 -0.1841  0.2509
  691MOL0     C95250   9.826   3.437   5.100  0.2465  0.5630  0.2675
  691MOL0     O95251   9.785   3.540   5.027  0.2243  1.2289  0.5345
  691MOL0     C95252   9.849   3.650   5.073  0.5858 -0.0006  1.0163
  691MOL0     C95253   9.975   3.689   5.043  0.2493  0.2728  0.6531
  691MOL0     C95254  10.017   3.814   5.079  0.1103 -1.2751 -0.3370
  691MOL0     C95255   9.940   3.904   5.150 -0.4926  0.2221  0.3538
  691MOL0     O95256   9.989   4.028   5.183 -0.1802  0.1743  0.8298
  691MOL0     C95257   9.986   4.064   5.322  0.2216 -0.3779 -0.2283
  691MOL0     C95258   9.878   4.177   5.340  0.3580  0.2814 -0.6975
  691MOL0     C95259   9.868   4.233   5.483  0.4111 -0.5551 -0.2981
  691MOL0     C95260   9.764   4.353   5.485 -0.0574  0.1595  0.6931
  691MOL0     C95261   9.727   4.404   5.627 -0.4432  0.0055 -0.5919
  691MOL0     C95262   9.837   4.486   5.698  0.7090  0.2615  0.3992
  691MOL0     C95263   9.889   4.603   5.625 -0.5816  0.1946  0.0312
  691MOL0     C95264   9.784   4.714   5.612  0.1002 -0.2292 -0.0175
  691MOL0    Cl95265   9.843   4.875   5.555 -0.2605 -0.1131  0.3618
  691MOL0     C95266   9.806   3.869   5.177  0.0276  0.6869 -0.0275
  691MOL0     C95267   9.763   3.739   5.143  0.4571  0.7863  0.1945
  691MOL0     O95268   9.885   3.442   5.209  0.4085  0.1401  0.1725
  691MOL0     C95269   9.795   3.184   5.133 -0.0893 -0.1246  0.1753
  691MOL0     C95270   9.779   3.053   5.088  0.2416  0.2446  0.2912
  691MOL0     N95271   9.514   2.858   4.400 -0.1340  0.5038  0.7543
  691MOL0     N95272   9.498   2.932   4.294  0.2135 -0.3155 -0.0808
  691MOL0     C95273   9.003   2.154   4.037  0.1141 -0.1309  0.1650
  691MOL0     C95274   8.906   2.094   4.116 -0.0311  0.0970  1.1921
  691MOL0     C95275   8.491   1.880   4.181  0.6930 -0.6008 -0.3433
  691MOL0     C95276   8.424   1.750   4.199 -0.1902 -0.7613 -0.5676
  691MOL0     C95277   8.311   1.735   4.286 -0.1954 -0.6185 -0.1250
  691MOL0     C95278   8.276   1.845   4.368 -0.2136  0.3988 -0.0187
  691MOL0     O95279   8.178   1.849   4.472 -0.2968 -0.3665  0.2775
  691MOL0     C95280   8.194   1.731   4.559 -1.1653  0.0539 -0.4396
  691MOL0     C95281   8.136   1.767   4.695 -0.6555 -0.0192 -0.5101
  691MOL0     C95282   8.204   1.878   4.774 -0.2187  0.1677  0.3140
  691MOL0     C95283   8.354   1.875   4.791  0.8021 -0.5281 -0.2521
  691MOL0     C95284   8.418   1.792   4.890  0.6492  0.7603  0.2374
  691MOL0     C95285   8.482   1.719   4.966  0.8840  0.3420  0.0540
  691MOL0     C95286   8.332   1.961   4.355  0.0321 -0.7280 -0.2066
  691MOL0     C95287   8.444   1.985   4.274 -0.3721  0.3965  0.1706
  691MOL0     C95288   8.490   2.129   4.268 -0.4514 -0.2175  0.5392
  691MOL0     H95289   8.731   1.960   3.857 -0.0887 -1.5861  0.3803
  691MOL0     H95290   8.921   2.043   3.735  2.8946  2.3636  0.1293
  691MOL0     H95291   9.181   2.326   3.954 -1.4969 -0.7572  0.9929
  691MOL0     H95292   9.102   2.399   3.814 -1.1259 -0.6807  2.5719
  691MOL0     H95293   9.365   2.260   3.802 -0.0230  1.3865 -0.3168
  691MOL0     H95294   9.270   2.295   3.661  1.9659 -2.3193  0.4525
  691MOL0     H95295   9.395   2.464   3.662 -3.0580 -1.6678 -1.5047
  691MOL0     H95296   9.251   2.537   3.743 -0.0969  0.9314  0.4838
  691MOL0     H95297   9.376   2.490   3.963 -1.5301 -0.3634 -1.9186
  691MOL0     H95298   9.514   2.442   3.862  1.0192  1.5767  0.3938
  691MOL0     H95299   9.367   2.706   3.852  0.6931  0.2832 -1.2571
  691MOL0     H95300   9.514   2.677   3.756  3.0907  1.0616  1.6598
  691MOL0     H95301   9.474   2.683   4.059 -0.4548  1.7174  0.1123
  691MOL0     H95302   9.642   2.691   3.975  1.2277  2.5467  0.1301
  691MOL0     H95303   9.404   2.883   3.975 -0.7072 -2.6561  1.1548
  691MOL0     H95304   9.532   2.895   3.871 -2.7747 -0.4645 -1.0917
  691MOL0     H95305   9.691   2.941   4.035 -0.0681 -0.3772  0.9290
  691MOL0     H95306   9.551   3.042   4.076  1.1553  0.5191 -0.0412
  691MOL0     H95307   9.712   2.704   4.204 -0.8457 -0.6316  0.9098
  691MOL0     H95308   9.710   2.576   4.444  3.2005 -0.1886  2.4745
  691MOL0     H95309   9.591   2.640   4.552  0.6301 -1.5378 -0.6650
  691MOL0     H95310   9.845   2.666   4.609 -2.8762 -2.6341 -3.0706
  691MOL0     H95311   9.839   2.804   4.509  1.5574 -3.5155 -1.3749
  691MOL0     H95312   9.659   2.894   4.644 -0.6522 -0.5538  1.5741
  691MOL0     H95313   9.651   2.743   4.744  2.1450 -0.8712  0.9456
  691MOL0     H95314   9.868   2.767   4.833 -1.4377  0.2567  0.8811
  691MOL0     H95315   9.876   2.918   4.741  0.2515 -2.0937 -2.1465
  691MOL0     H95316   9.760   3.126   4.757 -0.6156 -1.6906 -0.0735
  691MOL0     H95317   9.715   3.442   4.809 -0.5745 -1.0529  0.5653
  691MOL0     H95318   9.820   3.329   4.707 -1.1519 -2.3753  0.4850
  691MOL0     H95319   9.887   3.439   4.829  1.5125 -0.2627 -4.2280
  691MOL0     H95320  10.024   3.612   4.984 -1.6113 -0.0435 -0.6017
  691MOL0     H95321  10.120   3.844   5.061 -0.6064 -0.0877 -2.9213
  691MOL0     H95322   9.971   3.977   5.387 -0.8327 -0.1662 -0.1623
  691MOL0     H95323  10.081   4.112   5.345  0.6057 -0.2847 -1.8992
  691MOL0     H95324   9.903   4.258   5.271  1.9100  0.0050 -0.4971
  691MOL0     H95325   9.776   4.146   5.315 -0.1785  0.6306  0.9119
  691MOL0     H95326   9.962   4.278   5.516 -0.0079  1.5987 -1.7977
  691MOL0     H95327   9.840   4.163   5.562  3.5113 -1.4306  0.1882
  691MOL0     H95328   9.669   4.314   5.448 -1.1459  1.6761  1.7414
  691MOL0     H95329   9.795   4.429   5.413 -0.7694 -0.4802 -0.3106
  691MOL0     H95330   9.637   4.466   5.620  0.2509  1.2770  0.9346
  691MOL0     H95331   9.714   4.315   5.690  1.1663 -0.2392 -0.5722
  691MOL0     H95332   9.922   4.423   5.727  0.0398  0.0822  2.0481
  691MOL0     H95333   9.797   4.517   5.795  0.7682 -2.4947  1.3929
  691MOL0     H95334   9.928   4.582   5.525 -0.0628  0.7307  0.1154
  691MOL0     H95335   9.970   4.648   5.683 -0.4357 -0.6679  0.4940
  691MOL0     H95336   9.733   4.728   5.708  0.9349 -3.3151  0.9877
  691MOL0     H95337   9.716   4.690   5.530  0.5268 -0.5002 -0.2914
  691MOL0     H95338   9.730   3.924   5.231 -0.3431  0.7084 -0.5650
  691MOL0     H95339   9.659   3.709   5.154  0.6207  0.8291  2.0019
  691MOL0     H95340   9.788   3.207   5.239 -4.6331 -0.9660  0.2595
  691MOL0     H95341   9.776   2.973   5.161 -0.6630  0.5721  0.6263
  691MOL0     H95342   9.079   2.213   4.087 -0.8954  2.2520 -0.9732
  691MOL0     H95343   8.921   2.100   4.223  1.6690 -0.1210  0.9904
  691MOL0     H95344   8.460   1.665   4.142 -1.0315 -0.0630 -2.1969
  691MOL0     H95345   8.252   1.645   4.296  0.2756 -0.7616  1.5733
  691MOL0     H95346   8.137   1.643   4.525 -1.4682 -0.8280  2.1204
  691MOL0     H95347   8.299   1.699   4.561 -0.6346  1.3925 -3.0493
  691MOL0     H95348   8.149   1.678   4.758  1.1502  0.4370 -0.1795
  691MOL0     H95349   8.030   1.786   4.679 -0.1181  2.7012 -1.2896
  691MOL0     H95350   8.190   1.969   4.715  0.7686 -0.6115 -1.1983
  691MOL0     H95351   8.153   1.884   4.871 -0.1598  2.1784  0.2675
  691MOL0     H95352   8.391   1.978   4.800  0.3554 -0.4087  0.3051
  691MOL0     H95353   8.408   1.842   4.701 -1.4522 -0.7699 -1.5898
  691MOL0     H95354   8.540   1.660   5.034  2.1159  0.2606 -1.0295
  691MOL0     H95355   8.296   2.043   4.416  1.2967 -1.0667  1.0366
  691MOL0     H95356   8.407   2.192   4.303  0.2178 -0.1713  2.1359
  691MOL0     H95357   8.580   2.142   4.329 -1.3259  1.0291  1.6203
  691MOL0     H95358   8.513   2.149   4.163 -0.2071  1.2918  0.8607
  692MOL0     O95359   6.917   3.378   5.557 -1.0373 -0.3319 -0.1598
  692MOL0     C95360   6.816   3.367   5.489 -0.3104  0.1838 -0.0798
  692MOL0     O95361   6.807   3.300   5.364 -0.7484 -0.4063  0.2616
  692MOL0     C95362   6.924   3.248   5.319 -0.2355  0.3433  0.0464
  692MOL0     C95363   6.951   3.113   5.351 -0.6228 -0.1408 -0.1652
  692MOL0     C95364   7.060   3.037   5.297 -0.9742  0.0500 -0.3164
  692MOL0     C95365   7.142   3.105   5.203  0.7296  0.1652 -0.8092
  692MOL0     O95366   7.254   3.041   5.168  0.0148 -0.3862 -0.2804
  692MOL0     C95367   7.290   3.020   5.033  0.6607  0.5109 -0.3868
  692MOL0     C95368   7.439   3.019   5.012  0.1372  0.0443 -0.7159
  692MOL0     C95369   7.494   3.157   5.040  0.1358  0.3200 -0.6044
  692MOL0     C95370   7.650   3.151   5.028  0.8660  0.1513  0.9647
  692MOL0     C95371   7.722   3.287   5.067 -0.5092  0.1587 -0.1443
  692MOL0     C95372   7.694   3.405   4.966  0.4837  0.8166 -0.5927
  692MOL0     C95373   7.771   3.521   5.022 -0.0623 -0.3883  0.1589
  692MOL0     C95374   7.808   3.619   4.905 -0.9307  0.4752  1.0275
  692MOL0     N95375   7.917   3.710   4.936 -0.1623 -0.3794 -0.5269
  692MOL0     C95376   8.051   3.685   4.944  0.4097 -0.3575 -0.1238
  692MOL0     C95377   8.109   3.808   4.953 -0.1943  0.2706 -0.2734
  692MOL0     C95378   8.265   3.810   4.959 -0.3772 -0.3456 -0.5095
  692MOL0     C95379   8.310   3.836   5.104 -0.2851  0.2043  0.4126
  692MOL0     C95380   8.470   3.819   5.125  1.5447  0.6822  0.2572
  692MOL0     C95381   8.513   3.873   5.253  0.5897 -0.1871  0.5271
  692MOL0     O95382   8.425   3.814   5.357 -0.1447 -0.2548 -0.6433
  692MOL0     C95383   8.392   3.871   5.481 -0.4711 -0.2034 -0.1043
  692MOL0     C95384   8.455   3.993   5.523 -0.5035  0.4898  0.4782
  692MOL0     C95385   8.421   4.065   5.637  0.1435  0.3809 -0.1046
  692MOL0     C95386   8.487   4.198   5.676  0.2099  0.3071 -0.3446
  692MOL0     C95387   8.321   3.998   5.725 -0.6363  0.0854 -0.3662
  692MOL0     C95388   8.283   4.048   5.857 -0.6726 -0.1516 -0.0555
  692MOL0     O95389   8.162   4.005   5.906 -0.0346  0.0614 -0.0843
  692MOL0     C95390   8.134   4.043   6.034  0.7566  0.2287  0.7816
  692MOL0     C95391   8.178   3.965   6.139  0.7959  0.6753  1.2544
  692MOL0     C95392   8.138   3.995   6.271 -0.1368 -0.0898 -0.5477
  692MOL0     C95393   8.052   4.096   6.303 -0.2237 -0.6148 -0.1072
  692MOL0     O95394   8.012   4.144   6.429  0.1210  0.0718  0.1496
  692MOL0     C95395   8.079   4.092   6.548 -0.6436  0.7783 -0.0623
  692MOL0     C95396   8.057   4.193   6.661  0.1019 -0.1382 -0.3606
  692MOL0     C95397   8.154   4.305   6.642  0.2617 -0.9230  1.0013
  692MOL0     C95398   8.116   4.437   6.714  0.6195  0.3999  0.4537
  692MOL0     C95399   8.184   4.564   6.660 -0.3442  0.3990  0.0146
  692MOL0     C95400   8.316   4.594   6.735 -0.5734  0.5173  0.3207
  692MOL0     C95401   8.368   4.734   6.695 -0.8289  0.0598  0.1723
  692MOL0     C95402   8.503   4.723   6.629 -1.0657 -0.2761  0.0017
  692MOL0    Cl95403   8.636   4.664   6.743 -0.0740 -0.5116  0.1997
  692MOL0     C95404   8.010   4.176   6.192 -0.5975 -0.2960  0.3401
  692MOL0     C95405   8.050   4.155   6.060  0.9001 -1.0748  0.2283
  692MOL0     O95406   8.359   4.131   5.911  1.0037  0.0618 -0.4568
  692MOL0     C95407   8.258   3.878   5.682  0.1631  0.0480 -0.1747
  692MOL0     C95408   8.295   3.820   5.562  0.6273 -0.4274 -0.4970
  692MOL0     N95409   8.007   3.907   4.946 -0.0154  0.0947  1.2173
  692MOL0     N95410   7.890   3.851   4.941  0.1555  1.1317  0.7008
  692MOL0     C95411   7.114   3.241   5.170 -0.3582 -0.5443  0.1485
  692MOL0     C95412   7.012   3.308   5.238 -0.0527 -0.4045  0.1971
  692MOL0     C95413   6.687   3.428   5.538 -0.9012  0.3197 -0.1482
  692MOL0     C95414   6.692   3.548   5.610 -0.2762 -0.6507 -0.4202
  692MOL0     C95415   6.581   3.626   5.641 -1.1397  0.3010  0.5171
  692MOL0     C95416   6.451   3.582   5.600  0.0391  0.9635  0.7364
  692MOL0     O95417   6.331   3.639   5.610 -0.2566 -0.4720  0.0716
  692MOL0     C95418   6.305   3.769   5.675  0.1476  0.4325 -0.7848
  692MOL0     C95419   6.161   3.828   5.649 -0.5464  0.9022 -0.2536
  692MOL0     C95420   6.135   3.823   5.500 -0.1334  0.7687 -0.8950
  692MOL0     C95421   6.188   3.937   5.430  0.0243 -0.0301 -0.2286
  692MOL0     C95422   6.165   3.929   5.283 -0.7796 -0.2644 -0.7514
  692MOL0     C95423   6.126   3.924   5.165 -0.0256  0.7093  0.1552
  692MOL0     C95424   6.443   3.457   5.533 -0.7593  0.4479 -0.6957
  692MOL0     C95425   6.560   3.377   5.506 -0.5894 -0.4650 -0.0022
  692MOL0     C95426   6.545   3.234   5.450  0.6563  0.3704  0.4050
  692MOL0     H95427   6.890   3.061   5.424 -1.5365  0.9601 -0.1006
  692MOL0     H95428   7.079   2.933   5.320  0.4823  0.1072 -1.1207
  692MOL0     H95429   7.239   3.089   4.965 -2.7375  0.4416  1.8392
  692MOL0     H95430   7.245   2.925   5.003  2.1324 -0.0852 -0.7616
  692MOL0     H95431   7.483   2.951   5.086  1.3239  1.2078 -0.3316
  692MOL0     H95432   7.464   2.984   4.912 -0.4164  2.0763 -1.6045
  692MOL0     H95433   7.463   3.239   4.975 -1.0332  0.2249 -0.1808
  692MOL0     H95434   7.469   3.173   5.146 -1.0060 -2.0882 -0.4461
  692MOL0     H95435   7.692   3.070   5.089 -1.0312  0.3017  2.5675
  692MOL0     H95436   7.673   3.133   4.923  0.2617 -1.2655  1.0581
  692MOL0     H95437   7.826   3.259   5.052 -0.6575 -2.3130  2.5199
  692MOL0     H95438   7.701   3.318   5.170 -1.2184 -1.2123  0.1576
  692MOL0     H95439   7.735   3.368   4.872 -2.3593  0.5181 -1.8015
  692MOL0     H95440   7.589   3.435   4.955 -0.1738 -1.4540 -0.9737
  692MOL0     H95441   7.869   3.483   5.051  0.4743 -2.6608 -3.9555
  692MOL0     H95442   7.724   3.568   5.109 -0.3117 -3.0776  1.5905
  692MOL0     H95443   7.834   3.564   4.814 -1.7201  2.0180 -0.1930
  692MOL0     H95444   7.715   3.670   4.878 -1.4140 -0.8247  0.0926
  692MOL0     H95445   8.104   3.591   4.956  0.0730 -0.3899  1.2228
  692MOL0     H95446   8.307   3.883   4.889  2.3106 -1.0946  0.2229
  692MOL0     H95447   8.302   3.718   4.914 -0.3385  0.5842 -2.4643
  692MOL0     H95448   8.276   3.931   5.147  0.1805  0.1968  0.8092
  692MOL0     H95449   8.248   3.767   5.162 -4.3808  0.7449 -2.8209
  692MOL0     H95450   8.500   3.714   5.126  0.3818  0.3126 -0.8092
  692MOL0     H95451   8.522   3.860   5.038  1.0235 -0.0456 -0.4055
  692MOL0     H95452   8.619   3.849   5.267  0.8876  1.5020  1.4233
  692MOL0     H95453   8.498   3.981   5.243 -1.1115 -0.6489 -3.2814
  692MOL0     H95454   8.521   4.042   5.453  0.1359 -0.1254  0.6456
  692MOL0     H95455   8.526   4.238   5.582 -0.9951  2.6355  0.0848
  692MOL0     H95456   8.565   4.174   5.749 -2.0101  0.9249  2.3748
  692MOL0     H95457   8.414   4.264   5.723  1.0080  0.4096  0.8017
  692MOL0     H95458   8.252   3.893   6.107 -0.3823  0.6656 -1.7200
  692MOL0     H95459   8.175   3.927   6.347 -0.4008  1.4606  1.0225
  692MOL0     H95460   8.040   3.993   6.578 -2.5967  1.3137 -0.6591
  692MOL0     H95461   8.187   4.085   6.539 -0.6225  0.8858  0.1008
  692MOL0     H95462   7.952   4.220   6.670 -0.1736 -0.4464 -2.3252
  692MOL0     H95463   8.079   4.150   6.760  1.4642 -0.1430 -0.6464
  692MOL0     H95464   8.156   4.333   6.537  0.3545 -1.2856  0.9026
  692MOL0     H95465   8.253   4.263   6.664  0.3234 -0.9864  0.6047
  692MOL0     H95466   8.124   4.419   6.822  1.8025  0.6142  0.4171
  692MOL0     H95467   8.011   4.460   6.697 -0.0085 -0.3374  2.9593
  692MOL0     H95468   8.205   4.557   6.553 -1.0062  0.2680 -0.1066
  692MOL0     H95469   8.112   4.645   6.674 -0.9368 -0.0619 -0.3239
  692MOL0     H95470   8.388   4.515   6.713  0.8016  1.1977  2.1073
  692MOL0     H95471   8.292   4.594   6.842 -2.0601  1.2642  0.0158
  692MOL0     H95472   8.375   4.807   6.776 -2.0961  1.0086 -0.5369
  692MOL0     H95473   8.306   4.774   6.615 -2.6835 -2.5376  0.1807
  692MOL0     H95474   8.538   4.822   6.599  0.5179  0.0403  2.5767
  692MOL0     H95475   8.505   4.670   6.533 -0.7465  1.0339 -0.7510
  692MOL0     H95476   7.932   4.250   6.204 -3.6814 -2.5465 -3.5345
  692MOL0     H95477   8.034   4.227   5.981 -0.9125  0.2937  1.7393
  692MOL0     H95478   8.183   3.823   5.737 -0.8357  2.9451  1.5331
  692MOL0     H95479   8.254   3.721   5.540  1.0226 -0.7275  0.1034
  692MOL0     H95480   7.188   3.288   5.106 -0.7389 -2.1352 -1.5348
  692MOL0     H95481   6.995   3.415   5.232 -1.7966 -0.7089 -0.8556
  692MOL0     H95482   6.783   3.594   5.648 -0.4821 -0.2810 -0.3681
  692MOL0     H95483   6.608   3.724   5.680 -0.4007  0.1791  0.3243
  692MOL0     H95484   6.324   3.768   5.783 -0.7570  0.0269 -0.6202
  692MOL0     H95485   6.378   3.834   5.626 -0.3848  0.9916 -0.8402
  692MOL0     H95486   6.155   3.933   5.681  1.8571  1.9117 -2.7312
  692MOL0     H95487   6.097   3.756   5.701  0.2655 -1.5550 -2.4777
  692MOL0     H95488   6.176   3.730   5.460 -1.1556 -2.3150  4.2821
  692MOL0     H95489   6.026   3.834   5.486 -0.3613 -2.9811 -3.3389
  692MOL0     H95490   6.296   3.949   5.447  0.3078  1.1475 -2.4324
  692MOL0     H95491   6.131   4.027   5.454 -2.4183 -1.9039  1.4742
  692MOL0     H95492   6.091   3.914   5.064 -0.8554 -0.4873  0.5336
  692MOL0     H95493   6.350   3.418   5.492  1.2393 -2.2594 -3.0364
  692MOL0     H95494   6.633   3.170   5.459  0.2592  0.1078  3.8404
  692MOL0     H95495   6.468   3.175   5.501 -1.6193  1.4665 -1.5459
  692MOL0     H95496   6.519   3.241   5.344 -1.4630  0.4749  0.8866
  693MOL0     O95497   6.897   3.890   6.889 -0.1065  0.3426  0.2274
  693MOL0     C95498   6.994   3.953   6.868 -0.1183 -0.6339 -1.0183
  693MOL0     O95499   7.093   3.971   6.946  0.4193  0.2806  0.6314
  693MOL0     C95500   7.079   3.912   7.069 -0.3312 -0.3930 -0.5485
  693MOL0     C95501   7.015   3.991   7.168 -0.8590 -0.8561 -0.5892
  693MOL0     C95502   7.014   3.942   7.305 -0.4772  0.0475 -0.4166
  693MOL0     C95503   7.067   3.816   7.344 -0.1271 -0.2892  0.6836
  693MOL0     O95504   7.060   3.783   7.477 -0.1260  0.4313 -0.5497
  693MOL0     C95505   6.993   3.650   7.496 -0.1077 -0.4189 -0.5787
  693MOL0     C95506   6.865   3.631   7.429  0.3167  0.4422  1.0889
  693MOL0     C95507   6.756   3.718   7.503  0.1294  0.9022  0.5685
  693MOL0     C95508   6.636   3.740   7.409  0.6112 -0.2567  0.2057
  693MOL0     C95509   6.531   3.828   7.468 -0.2138  0.0050  0.2537
  693MOL0     C95510   6.571   3.961   7.528  0.6652  0.6231 -0.0966
  693MOL0     C95511   6.646   4.052   7.430  0.5898 -0.0077  0.0064
  693MOL0     C95512   6.654   4.203   7.478  0.2464  0.4648  1.1075
  693MOL0     N95513   6.756   4.218   7.584  0.4916  0.0890  0.2588
  693MOL0     C95514   6.883   4.198   7.555 -0.6242 -0.4027  0.2675
  693MOL0     C95515   6.942   4.162   7.671 -0.0622  0.1607  0.7821
  693MOL0     C95516   7.082   4.140   7.720 -0.3633 -0.8008  0.6526
  693MOL0     C95517   7.174   4.079   7.606  0.3183  0.0341 -0.7041
  693MOL0     C95518   7.297   4.007   7.665 -0.8432  0.9966  0.0118
  693MOL0     C95519   7.398   3.942   7.562  0.8801  0.7443 -0.6736
  693MOL0     O95520   7.425   4.030   7.452 -0.2214  0.1289  0.9122
  693MOL0     C95521   7.479   4.148   7.485 -0.5287  0.0529  0.0966
  693MOL0     C95522   7.597   4.154   7.560  1.0908  0.7779 -0.0670
  693MOL0     C95523   7.651   4.270   7.601  0.5909  0.1522  0.7640
  693MOL0     C95524   7.776   4.260   7.683 -0.4471 -0.0282 -0.4537
  693MOL0     C95525   7.592   4.395   7.560  0.0430  0.0545  0.2349
  693MOL0     C95526   7.634   4.534   7.603  1.1506 -0.4665  0.6664
  693MOL0     O95527   7.545   4.635   7.574  0.8777  0.3952  0.9301
  693MOL0     C95528   7.540   4.754   7.642  0.5137 -0.7690  0.0229
  693MOL0     C95529   7.491   4.760   7.775  0.3590  0.5557 -0.2291
  693MOL0     C95530   7.495   4.888   7.842  0.0818  1.0921 -0.2885
  693MOL0     C95531   7.527   5.005   7.771 -0.6357  0.5387 -0.4831
  693MOL0     O95532   7.537   5.130   7.827 -0.4105  0.2397  0.7236
  693MOL0     C95533   7.611   5.144   7.947  0.0845  0.1976 -0.2363
  693MOL0     C95534   7.751   5.067   7.963  0.0347 -0.3978  0.6499
  693MOL0     C95535   7.841   5.134   8.065  0.1955 -0.1400  0.2454
  693MOL0     C95536   7.770   5.187   8.194 -0.0768 -0.1452  0.0308
  693MOL0     C95537   7.863   5.207   8.314  0.0467 -0.1621 -0.2346
  693MOL0     C95538   7.810   5.240   8.453 -0.0189 -0.0827  0.0302
  693MOL0     C95539   7.916   5.209   8.553  0.3884 -0.0850 -0.8010
  693MOL0     C95540   7.871   5.202   8.695 -0.3635  0.0141 -0.6957
  693MOL0    Cl95541   7.799   5.345   8.752 -0.4759 -0.1518  0.0934
  693MOL0     C95542   7.554   4.997   7.634 -0.4362  0.7382 -0.6592
  693MOL0     C95543   7.558   4.878   7.569  0.0740 -0.2862 -0.6557
  693MOL0     O95544   7.735   4.557   7.674  0.3675  0.0289  0.0534
  693MOL0     C95545   7.482   4.386   7.479 -0.7930 -0.8511  0.0316
  693MOL0     C95546   7.421   4.269   7.446 -0.0830 -0.4221  0.1242
  693MOL0     N95547   6.838   4.149   7.766 -0.5917  0.3462  0.3977
  693MOL0     N95548   6.726   4.185   7.715  0.2845  0.1738 -0.2327
  693MOL0     C95549   7.132   3.746   7.233  0.5534 -0.0665  0.1055
  693MOL0     C95550   7.144   3.794   7.105  0.0693  0.6237  1.0543
  693MOL0     C95551   7.008   4.009   6.725  0.5768 -0.1250 -0.0492
  693MOL0     C95552   7.136   4.040   6.682 -0.0464  0.9132  0.1552
  693MOL0     C95553   7.152   4.109   6.561  0.4963  0.1434  0.3768
  693MOL0     C95554   7.045   4.139   6.470 -0.9271  0.3972 -1.9142
  693MOL0     O95555   7.071   4.204   6.358  0.4126  0.1630  0.2960
  693MOL0     C95556   6.994   4.166   6.240  0.2027  0.5941  0.8715
  693MOL0     C95557   7.073   4.204   6.117 -0.4074 -0.1156 -0.0859
  693MOL0     C95558   7.008   4.142   5.991 -0.0017  0.2205 -0.0350
  693MOL0     C95559   6.865   4.181   5.946  0.6463  0.3279 -0.3814
  693MOL0     C95560   6.847   4.323   5.938 -0.6537  0.2259 -0.1671
  693MOL0     C95561   6.821   4.437   5.925  0.5438  0.0187 -0.3153
  693MOL0     C95562   6.916   4.104   6.517  0.3170  0.2627 -0.5436
  693MOL0     C95563   6.895   4.040   6.641  0.2462 -0.2043  0.4619
  693MOL0     C95564   6.751   4.027   6.681  1.1774 -0.1019 -0.4438
  693MOL0     H95565   6.983   4.093   7.150  3.8044  0.4748 -2.6537
  693MOL0     H95566   6.966   4.011   7.375 -1.5464 -2.3337  1.3696
  693MOL0     H95567   6.966   3.652   7.603  0.9573  0.4971 -0.3097
  693MOL0     H95568   7.057   3.564   7.474 -0.9953 -1.0930 -0.6233
  693MOL0     H95569   6.878   3.656   7.323 -0.1567  1.9968  1.3791
  693MOL0     H95570   6.838   3.525   7.424  1.0244  0.2688  0.9177
  693MOL0     H95571   6.729   3.678   7.602  2.4657 -0.2086  0.8346
  693MOL0     H95572   6.799   3.815   7.531 -0.0398  0.5585  2.1144
  693MOL0     H95573   6.663   3.792   7.317 -0.9801  1.8926  0.8789
  693MOL0     H95574   6.587   3.647   7.377 -1.5763  0.5057  1.1167
  693MOL0     H95575   6.489   3.783   7.559  0.2953 -2.9205 -0.8409
  693MOL0     H95576   6.456   3.840   7.389 -0.5208  2.4556  0.8328
  693MOL0     H95577   6.478   4.012   7.555  1.2384  1.5846  0.1206
  693MOL0     H95578   6.628   3.952   7.621  1.4099 -0.0264 -0.6010
  693MOL0     H95579   6.588   4.060   7.338 -1.2064  1.0011  1.1640
  693MOL0     H95580   6.746   4.007   7.425  1.3427  1.7229 -1.3913
  693MOL0     H95581   6.692   4.257   7.392 -0.3696 -1.4019 -0.3998
  693MOL0     H95582   6.561   4.246   7.516 -1.0300  0.5409 -1.8689
  693MOL0     H95583   6.929   4.232   7.463  0.1208 -2.1510 -0.0506
  693MOL0     H95584   7.076   4.070   7.805  0.0499 -2.2112 -0.4443
  693MOL0     H95585   7.125   4.232   7.761  0.3330 -1.0175  0.4254
  693MOL0     H95586   7.113   4.017   7.540  1.6607 -0.3317 -1.6384
  693MOL0     H95587   7.220   4.167   7.561  2.1794  0.0408  1.0799
  693MOL0     H95588   7.352   4.079   7.727 -0.6794 -0.4038  1.5573
  693MOL0     H95589   7.275   3.924   7.732  0.2065  0.8280  0.1657
  693MOL0     H95590   7.492   3.906   7.603  0.2093  0.0283  0.2861
  693MOL0     H95591   7.346   3.857   7.517  1.7550  0.8025 -1.8497
  693MOL0     H95592   7.636   4.059   7.595 -1.4796 -0.6365 -0.7907
  693MOL0     H95593   7.748   4.280   7.787 -0.5518  1.9875 -0.8215
  693MOL0     H95594   7.842   4.344   7.659 -2.2688  1.8899  0.8427
  693MOL0     H95595   7.828   4.167   7.657  0.3099  0.3677 -0.3669
  693MOL0     H95596   7.470   4.664   7.821  1.6402  0.3687  0.0179
  693MOL0     H95597   7.479   4.892   7.950  2.1710 -3.2862  0.4072
  693MOL0     H95598   7.625   5.252   7.959  2.5534 -0.2634  1.6243
  693MOL0     H95599   7.543   5.118   8.029  2.1139 -1.4495  1.0277
  693MOL0     H95600   7.740   4.960   7.981  3.0698 -1.0009 -0.4685
  693MOL0     H95601   7.809   5.066   7.870  0.5139 -2.1047  0.9435
  693MOL0     H95602   7.875   5.223   8.013 -2.3235 -0.1012 -1.5161
  693MOL0     H95603   7.926   5.072   8.097  1.1885  1.4783  0.8825
  693MOL0     H95604   7.687   5.124   8.230 -0.7907  2.0206  2.5089
  693MOL0     H95605   7.724   5.283   8.166 -2.1245 -0.9536  0.4044
  693MOL0     H95606   7.917   5.112   8.323  1.4916  0.7460  1.0676
  693MOL0     H95607   7.939   5.281   8.289 -2.2367  1.8928 -1.4733
  693MOL0     H95608   7.719   5.183   8.475  1.2412 -1.9528  0.6406
  693MOL0     H95609   7.778   5.344   8.456 -2.0025 -0.6619  1.1065
  693MOL0     H95610   7.991   5.289   8.550  1.6338 -1.1617  0.3673
  693MOL0     H95611   7.965   5.113   8.539  0.8692 -0.4322  2.5029
  693MOL0     H95612   7.958   5.179   8.756 -2.1663 -1.0336  1.6448
  693MOL0     H95613   7.798   5.124   8.721  0.5911  0.2806  3.5151
  693MOL0     H95614   7.576   5.089   7.580 -1.7695  1.8269  0.5435
  693MOL0     H95615   7.582   4.889   7.463  2.0213  2.2518 -0.0472
  693MOL0     H95616   7.435   4.473   7.435  0.9961  0.2511  0.2005
  693MOL0     H95617   7.327   4.275   7.393 -1.3982  2.4671  2.4175
  693MOL0     H95618   7.185   3.659   7.271 -0.0922 -0.1458  0.8472
  693MOL0     H95619   7.203   3.744   7.028 -2.1371  0.8215 -0.8992
  693MOL0     H95620   7.225   4.009   6.736 -0.5870  0.0893  0.5989
  693MOL0     H95621   7.254   4.128   6.529 -0.6619  2.8899 -2.1482
  693MOL0     H95622   6.966   4.061   6.229  2.8256 -0.0123 -0.9598
  693MOL0     H95623   6.902   4.226   6.249 -0.5652 -0.9230  4.7940
  693MOL0     H95624   7.176   4.169   6.104  0.5014  2.6081 -0.9096
  693MOL0     H95625   7.069   4.313   6.102 -0.3850 -0.3001 -1.6325
  693MOL0     H95626   7.070   4.176   5.907 -1.5307  0.2333 -1.1943
  693MOL0     H95627   7.020   4.034   5.997  1.5459  0.4276  1.2289
  693MOL0     H95628   6.790   4.148   6.019  3.1497  0.4536  2.4726
  693MOL0     H95629   6.842   4.149   5.844  0.6106  1.8844 -0.8895
  693MOL0     H95630   6.797   4.535   5.888  2.4661  0.3822 -0.7251
  693MOL0     H95631   6.832   4.132   6.455 -2.0409  0.1443  2.3541
  693MOL0     H95632   6.717   3.929   6.715 -1.2091  0.6514 -0.4719
  693MOL0     H95633   6.737   4.105   6.757  0.4321  0.2547 -0.9291
  693MOL0     H95634   6.685   4.065   6.602  3.0437  3.1320 -0.6502
  694MOL0     O95635   4.196   0.202   4.605 -0.4825  0.1320  0.0464
  694MOL0     C95636   4.202   0.301   4.680 -0.3246 -0.0395  0.7421
  694MOL0     O95637   4.252   0.297   4.814 -0.5034 -0.5640  0.2958
  694MOL0     C95638   4.275   0.172   4.867  0.5974 -0.9709  0.1856
  694MOL0     C95639   4.402   0.107   4.864 -0.6292 -1.2415  0.0244
  694MOL0     C95640   4.413  -0.011   4.922 -0.0785  0.2943 -1.6017
  694MOL0     C95641   4.306  -0.075   4.991  0.1110  0.7631  0.3889
  694MOL0     O95642   4.319  -0.188   5.061 -0.0374 -0.0759  0.1086
  694MOL0     C95643   4.403  -0.293   5.005  0.8237  0.1380  0.9038
  694MOL0     C95644   4.363  -0.435   5.053  0.3392 -0.1492  0.4767
  694MOL0     C95645   4.349  -0.421   5.203 -0.1984 -0.3229 -0.6497
  694MOL0     C95646   4.333  -0.557   5.264 -0.0630 -0.5255 -0.1958
  694MOL0     C95647   4.337  -0.559   5.414 -0.9588  0.1443  0.0740
  694MOL0     C95648   4.197  -0.543   5.485  0.5676  0.9039  0.2808
  694MOL0     C95649   4.216  -0.492   5.626 -0.3053  0.6199  0.1441
  694MOL0     C95650   4.314  -0.570   5.711 -0.7860 -0.1715  0.0557
  694MOL0     N95651   4.296  -0.717   5.714  0.1840  0.1010 -0.8211
  694MOL0     C95652   4.402  -0.796   5.742 -0.6337 -0.2793  0.5223
  694MOL0     C95653   4.350  -0.914   5.780 -0.0518 -0.9601  0.2554
  694MOL0     C95654   4.447  -1.022   5.804 -0.0297 -0.3918  0.2459
  694MOL0     C95655   4.439  -1.086   5.949  0.0692 -0.9298 -0.1241
  694MOL0     C95656   4.522  -1.214   5.953 -0.5510  0.1591  0.8421
  694MOL0     C95657   4.672  -1.196   5.980  0.5677  0.5273 -0.3037
  694MOL0     O95658   4.709  -1.220   6.117 -0.2771  0.7022  0.2393
  694MOL0     C95659   4.823  -1.159   6.151  0.2947 -0.5801  0.0329
  694MOL0     C95660   4.816  -1.030   6.205  0.6674 -0.4366  0.5525
  694MOL0     C95661   4.932  -0.962   6.256  0.8163  0.7859 -0.0634
  694MOL0     C95662   4.915  -0.828   6.325  0.2973 -0.1117 -0.0111
  694MOL0     C95663   5.065  -1.008   6.221 -0.3624  0.0446 -0.3331
  694MOL0     C95664   5.197  -0.950   6.242  0.0467  0.0122 -0.3489
  694MOL0     O95665   5.293  -0.977   6.146 -0.0871 -0.1592 -0.3291
  694MOL0     C95666   5.410  -0.915   6.155 -0.9035 -0.6738  0.3361
  694MOL0     C95667   5.418  -0.777   6.118  0.2051  0.9641  0.4191
  694MOL0     C95668   5.540  -0.720   6.122 -0.0754  0.0105 -0.1279
  694MOL0     C95669   5.653  -0.787   6.155  0.2931 -0.5342 -0.1191
  694MOL0     O95670   5.777  -0.732   6.163  0.2142  0.3780  0.0508
  694MOL0     C95671   5.793  -0.594   6.206  0.0722  0.0320  0.7833
  694MOL0     C95672   5.932  -0.577   6.253  0.3817  0.9783 -0.3374
  694MOL0     C95673   6.030  -0.603   6.143 -0.1513 -0.3181  0.3603
  694MOL0     C95674   6.168  -0.588   6.205 -0.5205  0.2747  0.3520
  694MOL0     C95675   6.275  -0.612   6.098  0.0314  0.6173 -0.2833
  694MOL0     C95676   6.409  -0.645   6.175  0.4442 -0.3173  0.7253
  694MOL0     C95677   6.531  -0.633   6.087  0.4148  0.1277 -0.0573
  694MOL0     C95678   6.661  -0.684   6.155 -0.5349 -0.1838 -0.4352
  694MOL0    Cl95679   6.810  -0.662   6.056 -0.3635 -0.3282  0.7367
  694MOL0     C95680   5.647  -0.923   6.187  0.1070 -0.1235  0.6453
  694MOL0     C95681   5.527  -0.986   6.191  0.2181 -0.9645  0.5252
  694MOL0     O95682   5.213  -0.875   6.340 -0.4781 -0.0987  0.6432
  694MOL0     C95683   5.063  -1.124   6.145 -0.6214  0.5247 -0.3330
  694MOL0     C95684   4.949  -1.202   6.112 -0.8708  0.0636  0.2397
  694MOL0     N95685   4.218  -0.907   5.761 -0.7303 -0.6130 -0.3584
  694MOL0     N95686   4.182  -0.787   5.721 -0.8720 -0.1014 -0.5210
  694MOL0     C95687   4.186  -0.007   4.996  1.3906 -0.5782  0.3157
  694MOL0     C95688   4.164   0.113   4.930 -0.1004 -0.3178  0.1533
  694MOL0     C95689   4.166   0.431   4.621 -0.5956 -1.0834  0.0760
  694MOL0     C95690   4.126   0.429   4.491 -0.8764  0.0748 -0.1765
  694MOL0     C95691   4.083   0.541   4.437 -0.0024  0.1775 -0.4529
  694MOL0     C95692   4.088   0.666   4.496  0.2338  0.5483  0.4735
  694MOL0     O95693   4.032   0.776   4.448 -0.4081  0.3099  0.1929
  694MOL0     C95694   3.991   0.770   4.306 -0.8845  0.3870  0.2957
  694MOL0     C95695   3.939   0.905   4.264 -0.5944  1.2938  0.6544
  694MOL0     C95696   3.833   0.963   4.356  0.3272 -0.5725  0.1563
  694MOL0     C95697   3.704   0.878   4.355  0.4372 -0.4507 -0.1429
  694MOL0     C95698   3.606   0.915   4.454  0.1817 -0.3161 -0.2359
  694MOL0     C95699   3.535   0.937   4.546 -0.6496  1.1788 -0.4509
  694MOL0     C95700   4.147   0.674   4.622 -0.1508 -0.2357  0.3769
  694MOL0     C95701   4.185   0.554   4.687  0.0481 -0.0973 -0.3167
  694MOL0     C95702   4.225   0.564   4.837 -0.2653 -0.4581 -0.3864
  694MOL0     H95703   4.487   0.160   4.824 -0.7289 -0.8256  0.3604
  694MOL0     H95704   4.510  -0.057   4.936 -0.0198  1.2217  1.9575
  694MOL0     H95705   4.507  -0.286   5.038  0.4733  0.1147  2.0403
  694MOL0     H95706   4.391  -0.293   4.896 -3.6908 -1.3795  1.1960
  694MOL0     H95707   4.269  -0.463   5.005  1.7922  0.9379 -3.4562
  694MOL0     H95708   4.438  -0.504   5.013 -1.4013 -0.8835 -1.6859
  694MOL0     H95709   4.436  -0.369   5.245  0.5872 -0.7787 -1.6890
  694MOL0     H95710   4.266  -0.356   5.235  0.8747 -0.1166  1.9570
  694MOL0     H95711   4.230  -0.581   5.234 -0.3867 -3.1692  2.5350
  694MOL0     H95712   4.400  -0.636   5.228 -0.5234 -2.2636  2.4908
  694MOL0     H95713   4.400  -0.479   5.452 -1.1131  0.2369  0.1370
  694MOL0     H95714   4.375  -0.659   5.438  0.1854  0.4034 -0.6215
  694MOL0     H95715   4.136  -0.484   5.417  1.7420 -0.8677 -2.4848
  694MOL0     H95716   4.157  -0.645   5.490  2.4314  0.1085 -0.0154
  694MOL0     H95717   4.115  -0.503   5.667  0.9394 -2.9761  2.7176
  694MOL0     H95718   4.235  -0.385   5.613 -0.9274  0.5984 -1.0493
  694MOL0     H95719   4.410  -0.538   5.669 -0.3104 -1.3472  0.2234
  694MOL0     H95720   4.325  -0.536   5.814  0.7439 -1.4366  0.3433
  694MOL0     H95721   4.508  -0.773   5.741 -0.9591  1.6257 -2.3699
  694MOL0     H95722   4.544  -0.977   5.781 -1.1269  2.7340  1.1720
  694MOL0     H95723   4.443  -1.098   5.726 -2.9514 -1.1434  0.9998
  694MOL0     H95724   4.476  -1.012   6.021  0.6530  0.5590 -1.8699
  694MOL0     H95725   4.335  -1.103   5.979  0.0722  0.3427  0.6662
  694MOL0     H95726   4.480  -1.300   6.006 -0.1385 -1.6822 -1.6452
  694MOL0     H95727   4.516  -1.253   5.851  1.9097  1.7634 -0.0122
  694MOL0     H95728   4.729  -1.264   5.915 -0.3104  0.2328 -0.7751
  694MOL0     H95729   4.711  -1.101   5.943  1.8217 -0.4307 -1.5825
  694MOL0     H95730   4.721  -0.987   6.235  1.1724  0.9132  0.2715
  694MOL0     H95731   4.817  -0.817   6.371  1.1079  0.9420  1.5232
  694MOL0     H95732   4.921  -0.746   6.253  1.7869 -1.1204 -1.1160
  694MOL0     H95733   4.992  -0.812   6.401 -0.3563 -1.2842  0.9210
  694MOL0     H95734   5.343  -0.711   6.075  0.5488 -0.0690 -1.9034
  694MOL0     H95735   5.546  -0.616   6.092  3.3664  0.8805  2.8746
  694MOL0     H95736   5.764  -0.528   6.125  1.3380 -1.2180 -0.7676
  694MOL0     H95737   5.734  -0.579   6.296  0.3496 -1.8537  1.3289
  694MOL0     H95738   5.937  -0.472   6.283  2.8530  0.4908  1.2471
  694MOL0     H95739   5.954  -0.641   6.339  1.3596  1.0267 -0.5302
  694MOL0     H95740   6.024  -0.523   6.068 -0.5926  1.9391  2.6367
  694MOL0     H95741   6.010  -0.696   6.090  1.5321 -0.3547 -0.2934
  694MOL0     H95742   6.189  -0.656   6.288  0.5954  0.9845  0.6826
  694MOL0     H95743   6.171  -0.487   6.247  0.0833  0.4984 -0.2068
  694MOL0     H95744   6.240  -0.696   6.036  1.0349 -1.7817  2.1815
  694MOL0     H95745   6.280  -0.526   6.031 -1.1832 -0.2004 -1.4868
  694MOL0     H95746   6.399  -0.740   6.229 -2.4071 -0.6616 -0.2325
  694MOL0     H95747   6.419  -0.560   6.242  1.3680 -0.2159  0.4840
  694MOL0     H95748   6.528  -0.528   6.056  0.4525 -0.3225 -1.6496
  694MOL0     H95749   6.521  -0.704   6.004 -0.2604 -2.4400  2.0791
  694MOL0     H95750   6.644  -0.788   6.184 -0.7119  0.1936  0.9133
  694MOL0     H95751   6.667  -0.627   6.248  0.5730  0.0062 -0.6149
  694MOL0     H95752   5.740  -0.977   6.206  1.9323  2.4457 -0.3617
  694MOL0     H95753   5.516  -1.092   6.212  0.2176 -1.0103  0.3033
  694MOL0     H95754   5.164  -1.161   6.125 -0.5398  1.8397 -2.6980
  694MOL0     H95755   4.955  -1.299   6.063  0.3547  1.1042 -1.8066
  694MOL0     H95756   4.113  -0.052   5.064  3.1360 -1.6360  1.5713
  694MOL0     H95757   4.067   0.160   4.948 -0.2571 -0.8637  0.7594
  694MOL0     H95758   4.120   0.339   4.430 -1.3828  0.7130 -1.1026
  694MOL0     H95759   4.029   0.534   4.343 -0.2789 -1.4619 -0.1992
  694MOL0     H95760   4.082   0.748   4.248 -2.9618 -2.0120 -2.3513
  694MOL0     H95761   3.923   0.691   4.272  0.0501 -0.2259 -0.1880
  694MOL0     H95762   3.910   0.895   4.159 -2.2736  1.7375  1.0469
  694MOL0     H95763   4.034   0.960   4.255  0.2254 -0.3748 -2.0635
  694MOL0     H95764   3.868   0.968   4.460 -3.5656 -2.1349  1.7360
  694MOL0     H95765   3.816   1.069   4.333 -0.6664 -0.4671  1.2626
  694MOL0     H95766   3.744   0.776   4.364 -0.7080 -0.7645  2.2327
  694MOL0     H95767   3.651   0.896   4.261 -3.1262 -1.4670  1.5108
  694MOL0     H95768   3.484   0.946   4.641  0.1259  1.3720 -0.0469
  694MOL0     H95769   4.147   0.767   4.677  0.6490  1.6260 -2.5485
  694MOL0     H95770   4.332   0.552   4.855  0.1516  0.6699 -1.9908
  694MOL0     H95771   4.212   0.670   4.858 -2.5591 -0.8897  0.8246
  694MOL0     H95772   4.170   0.508   4.914  0.8759  1.4000  1.9088
  695MOL0     O95773  10.805   7.258   3.170  0.6787 -0.1699 -0.7551
  695MOL0     C95774  10.719   7.180   3.189  0.7365 -0.2033 -0.1376
  695MOL0     O95775  10.730   7.039   3.186  0.6128 -0.0370 -0.2936
  695MOL0     C95776  10.843   6.981   3.155 -1.1105 -0.0546 -0.0858
  695MOL0     C95777  10.974   7.008   3.201  0.1146 -0.0091 -0.5122
  695MOL0     C95778  11.082   6.932   3.159 -0.3006  0.1091 -0.1925
  695MOL0     C95779  11.073   6.824   3.075  0.1391  1.5138  0.4590
  695MOL0     O95780  11.190   6.760   3.048  0.4603 -1.0206  0.0810
  695MOL0     C95781  11.193   6.614   3.056  1.1540  0.4034  0.6031
  695MOL0     C95782  11.322   6.557   3.099 -0.5147 -0.0927  1.2367
  695MOL0     C95783  11.356   6.576   3.247  0.3770 -0.2274 -0.0693
  695MOL0     C95784  11.320   6.446   3.320  0.3102 -1.1409 -0.4598
  695MOL0     C95785  11.323   6.470   3.475  0.6735 -0.3151  0.3393
  695MOL0     C95786  11.234   6.580   3.530  0.5312  0.3557 -0.5525
  695MOL0     C95787  11.221   6.578   3.687  0.5178  0.0762  0.7888
  695MOL0     C95788  11.132   6.464   3.746 -0.5195 -0.1914 -0.3954
  695MOL0     N95789  10.988   6.498   3.728 -0.3085 -0.6174 -0.0214
  695MOL0     C95790  10.904   6.441   3.636 -0.0136 -0.2657  0.2203
  695MOL0     C95791  10.787   6.510   3.647  0.2244 -0.2407 -1.1212
  695MOL0     C95792  10.673   6.504   3.542 -0.2728 -0.1725 -0.6782
  695MOL0     C95793  10.738   6.529   3.404  0.8999 -0.1023  0.6545
  695MOL0     C95794  10.777   6.680   3.373 -0.0863 -0.1851  0.2362
  695MOL0     C95795  10.673   6.779   3.408 -0.4883 -0.3845 -0.6540
  695MOL0     O95796  10.546   6.747   3.350  0.3999 -0.2910 -0.1722
  695MOL0     C95797  10.426   6.790   3.404 -0.1360  0.4418  0.3825
  695MOL0     C95798  10.411   6.874   3.517 -0.5877  0.0909  0.5949
  695MOL0     C95799  10.296   6.922   3.577  0.4562  1.3802 -0.1472
  695MOL0     C95800  10.294   7.007   3.710  0.0685  0.4280  0.1997
  695MOL0     C95801  10.180   6.890   3.509  0.5485  0.6312 -0.5934
  695MOL0     C95802  10.038   6.940   3.542 -0.9775  0.7013 -0.2262
  695MOL0     O95803   9.944   6.884   3.468 -0.0675 -0.2646  0.3377
  695MOL0     C95804   9.811   6.922   3.485  1.0163 -0.0081 -0.2520
  695MOL0     C95805   9.738   6.897   3.608 -0.5930 -0.0222  0.4548
  695MOL0     C95806   9.610   6.942   3.621 -0.4411 -0.3828  0.6029
  695MOL0     C95807   9.547   6.998   3.512  0.6155  0.9436  0.2128
  695MOL0     O95808   9.412   7.020   3.539 -0.4610 -0.2961  0.3194
  695MOL0     C95809   9.319   7.053   3.438  0.4372  0.1458 -0.1100
  695MOL0     C95810   9.183   7.077   3.503 -0.0207  0.3815 -0.0325
  695MOL0     C95811   9.070   7.135   3.421 -0.1812  0.6637  0.0711
  695MOL0     C95812   8.998   7.027   3.350 -0.1629 -0.0707  0.7018
  695MOL0     C95813   8.916   7.075   3.222  0.5316  0.1162 -0.8302
  695MOL0     C95814   8.778   7.126   3.265 -0.1935  0.0545 -0.4394
  695MOL0     C95815   8.694   7.183   3.143  0.0154  0.6324 -0.0031
  695MOL0     C95816   8.537   7.180   3.176 -0.9492  0.2546  0.1679
  695MOL0    Cl95817   8.441   7.282   3.060 -0.2126 -0.1045  0.0235
  695MOL0     C95818   9.611   7.016   3.388  0.1071  0.6391  0.5542
  695MOL0     C95819   9.752   6.988   3.381  0.5255  0.2893  0.1616
  695MOL0     O95820  10.024   7.030   3.631 -0.3374 -0.5041 -0.1058
  695MOL0     C95821  10.189   6.809   3.391 -0.3299  0.8684  0.0176
  695MOL0     C95822  10.305   6.748   3.338  1.1389 -0.4529 -1.0722
  695MOL0     N95823  10.791   6.590   3.761  0.6996 -0.1084  0.0222
  695MOL0     N95824  10.908   6.581   3.800  0.1350  0.0600 -0.0715
  695MOL0     C95825  10.948   6.793   3.030 -0.3446  0.7782 -0.2563
  695MOL0     C95826  10.836   6.875   3.060 -0.4408  0.0662  0.0985
  695MOL0     C95827  10.578   7.223   3.223  0.2517  0.1554  0.6548
  695MOL0     C95828  10.474   7.131   3.262 -0.4607 -0.8317 -0.9014
  695MOL0     C95829  10.343   7.166   3.287 -0.6154  0.1348 -0.1864
  695MOL0     C95830  10.310   7.300   3.281  0.1486  0.3763 -0.6661
  695MOL0     O95831  10.186   7.354   3.298 -0.0440 -0.6259 -0.2162
  695MOL0     C95832  10.099   7.275   3.376  0.4896  0.3698 -0.2999
  695MOL0     C95833   9.989   7.373   3.420 -0.4285  0.4492 -0.2095
  695MOL0     C95834   9.919   7.429   3.302  0.0863  0.1104 -0.1894
  695MOL0     C95835   9.858   7.322   3.212  0.2967  0.2826 -1.3065
  695MOL0     C95836   9.782   7.392   3.106 -0.4944  1.2220  1.0116
  695MOL0     C95837   9.708   7.450   3.034  0.9814 -0.0471  0.3509
  695MOL0     C95838  10.414   7.398   3.252  0.1805 -0.4042 -0.0762
  695MOL0     C95839  10.546   7.361   3.223  1.1844 -0.3071 -0.6492
  695MOL0     C95840  10.639   7.475   3.222 -0.1219  0.2022 -0.1056
  695MOL0     H95841  10.989   7.090   3.270  1.9576 -2.4199  2.1580
  695MOL0     H95842  11.179   6.978   3.178  2.7420 -2.8567 -5.8809
  695MOL0     H95843  11.154   6.572   2.963 -2.7328 -0.0027  2.2258
  695MOL0     H95844  11.116   6.582   3.127  0.8207 -1.3398 -0.4860
  695MOL0     H95845  11.330   6.452   3.073  2.6868  0.1504  0.8254
  695MOL0     H95846  11.399   6.613   3.044  1.0830 -1.2833  2.1577
  695MOL0     H95847  11.462   6.599   3.263  0.2918 -0.9156  1.7812
  695MOL0     H95848  11.296   6.662   3.280  1.2050  0.6323 -0.7560
  695MOL0     H95849  11.214   6.427   3.299 -0.2905 -1.0348  2.1285
  695MOL0     H95850  11.385   6.363   3.291  1.5585 -0.5848  0.6663
  695MOL0     H95851  11.419   6.479   3.527  1.1509 -0.1089 -0.5631
  695MOL0     H95852  11.284   6.374   3.509 -0.3248 -0.3315 -0.8098
  695MOL0     H95853  11.272   6.679   3.505  0.7453  0.2075 -0.8225
  695MOL0     H95854  11.139   6.566   3.479  0.3135 -1.3549  0.2400
  695MOL0     H95855  11.169   6.669   3.717  1.4471  0.9925 -0.3313
  695MOL0     H95856  11.317   6.564   3.737  1.5855  2.1263 -0.5562
  695MOL0     H95857  11.154   6.363   3.709  0.4058  0.2095 -0.9739
  695MOL0     H95858  11.135   6.462   3.856 -1.2360  1.0488 -0.3298
  695MOL0     H95859  10.923   6.354   3.574 -1.7582 -2.1690  2.1592
  695MOL0     H95860  10.591   6.573   3.564  0.9989  0.0599  4.7892
  695MOL0     H95861  10.635   6.401   3.544  0.9082 -0.6364  1.5348
  695MOL0     H95862  10.819   6.457   3.390  1.5178  0.4404  1.3895
  695MOL0     H95863  10.661   6.503   3.331  0.2678  0.4520  1.1070
  695MOL0     H95864  10.865   6.711   3.430 -0.3507  2.8380 -0.8175
  695MOL0     H95865  10.798   6.684   3.265  0.0877  0.0121  0.2772
  695MOL0     H95866  10.665   6.789   3.517 -2.4947  1.0086 -0.8563
  695MOL0     H95867  10.701   6.880   3.378  0.5884 -0.7577 -0.9489
  695MOL0     H95868  10.497   6.901   3.578 -1.3359 -0.3537  1.8926
  695MOL0     H95869  10.259   7.110   3.706 -0.2124  0.3676  0.9451
  695MOL0     H95870  10.392   7.002   3.757  0.3649 -1.7515 -0.5324
  695MOL0     H95871  10.236   6.942   3.777  1.5954 -3.4020 -1.8714
  695MOL0     H95872   9.788   6.852   3.693 -3.2835 -0.7321  1.7669
  695MOL0     H95873   9.551   6.949   3.712 -2.6939  1.7733 -0.8969
  695MOL0     H95874   9.342   7.151   3.394 -0.1442  1.1657  1.7544
  695MOL0     H95875   9.316   6.979   3.357  3.0463  0.6426 -0.7857
  695MOL0     H95876   9.146   6.992   3.560  1.7364 -0.1781  0.3181
  695MOL0     H95877   9.204   7.140   3.590  1.2096  2.6035 -1.8105
  695MOL0     H95878   9.113   7.201   3.345 -1.8175  0.3546 -1.1879
  695MOL0     H95879   9.002   7.187   3.489  0.6885  1.2612  0.5041
  695MOL0     H95880   8.936   6.972   3.422 -1.7155 -1.0993 -1.3038
  695MOL0     H95881   9.065   6.948   3.315 -2.5699 -1.3210 -1.4380
  695MOL0     H95882   8.975   7.155   3.178 -1.0994  1.4450 -0.7120
  695MOL0     H95883   8.901   6.988   3.157  0.1706  1.4332 -2.5784
  695MOL0     H95884   8.783   7.199   3.346  1.7203  1.6361 -1.8623
  695MOL0     H95885   8.717   7.042   3.299  0.6195  0.0617  1.0886
  695MOL0     H95886   8.724   7.133   3.051 -0.0472  1.4813 -0.4950
  695MOL0     H95887   8.727   7.286   3.128 -0.8106  0.5010 -3.4952
  695MOL0     H95888   8.513   7.211   3.278 -3.4954 -2.3795  0.5212
  695MOL0     H95889   8.505   7.075   3.180 -1.1819  0.3488  1.0168
  695MOL0     H95890   9.574   7.066   3.299  2.0400  2.2764  0.6200
  695MOL0     H95891   9.799   6.998   3.283  0.0034  2.5946  0.0723
  695MOL0     H95892  10.102   6.790   3.329 -0.2402 -2.7469  0.8105
  695MOL0     H95893  10.301   6.692   3.245  0.5819 -2.6839  0.2410
  695MOL0     H95894  10.956   6.714   2.956  3.1824 -0.3473  1.1315
  695MOL0     H95895  10.738   6.854   3.020 -0.4050 -0.1978  0.1476
  695MOL0     H95896  10.498   7.026   3.252 -0.2199 -0.8094 -0.6017
  695MOL0     H95897  10.269   7.089   3.302 -2.0085  1.6754  1.2428
  695MOL0     H95898  10.067   7.185   3.322 -0.6140 -0.0227  0.9489
  695MOL0     H95899  10.145   7.239   3.469 -0.7819 -1.5324 -0.3463
  695MOL0     H95900  10.032   7.455   3.478  1.6520 -1.8887  1.8083
  695MOL0     H95901   9.917   7.334   3.492 -1.1882  2.7205  0.3165
  695MOL0     H95902   9.840   7.490   3.347  0.6939 -1.4172  3.2266
  695MOL0     H95903   9.980   7.492   3.237 -2.8226 -0.2118 -3.5699
  695MOL0     H95904   9.785   7.259   3.263 -0.5362  0.9191 -1.6739
  695MOL0     H95905   9.934   7.256   3.168 -0.8386 -1.5609 -0.6307
  695MOL0     H95906   9.641   7.501   2.969  1.7126 -0.3865 -0.7074
  695MOL0     H95907  10.387   7.503   3.258  1.4056 -0.0891  0.3401
  695MOL0     H95908  10.694   7.467   3.128 -0.5800 -5.0259 -0.1910
  695MOL0     H95909  10.589   7.572   3.216 -0.0392  0.1263 -3.1844
  695MOL0     H95910  10.703   7.475   3.311 -3.2642 -1.2085  2.3894
  696MOL0     O95911   8.016   6.385   8.106  0.4527  0.2477  0.4409
  696MOL0     C95912   8.015   6.506   8.134 -0.4173  0.3941 -0.9212
  696MOL0     O95913   7.956   6.561   8.245 -0.6008 -0.4275 -0.7981
  696MOL0     C95914   7.878   6.496   8.336  0.1073 -0.1101 -0.5124
  696MOL0     C95915   7.867   6.354   8.342  0.4613 -0.1993  0.5002
  696MOL0     C95916   7.803   6.284   8.445 -0.3901  0.1508 -0.0789
  696MOL0     C95917   7.749   6.353   8.554 -0.0948 -0.2664 -1.2278
  696MOL0     O95918   7.687   6.301   8.664  0.0552  0.8188 -0.0554
  696MOL0     C95919   7.636   6.170   8.667  0.0287  0.1162 -0.3660
  696MOL0     C95920   7.572   6.140   8.803 -0.0124 -0.4018 -0.2627
  696MOL0     C95921   7.684   6.105   8.904  0.9099 -0.4174 -1.1961
  696MOL0     C95922   7.630   6.091   9.045 -0.7574  0.4114 -0.7826
  696MOL0     C95923   7.736   6.044   9.148 -0.7741  0.0970 -0.3002
  696MOL0     C95924   7.826   6.160   9.199  0.4721  0.0013 -0.2212
  696MOL0     C95925   7.934   6.123   9.301 -0.9003  1.0914 -0.4610
  696MOL0     C95926   8.046   6.223   9.323 -0.0307  0.0932  0.1244
  696MOL0     N95927   8.155   6.189   9.406 -0.1379  0.1730 -0.1238
  696MOL0     C95928   8.218   6.067   9.388 -0.1056 -0.2376  0.0959
  696MOL0     C95929   8.281   6.040   9.508 -1.1974  0.0666 -0.1916
  696MOL0     C95930   8.362   5.916   9.537  0.0827  0.4915 -0.5406
  696MOL0     C95931   8.324   5.853   9.670 -0.7239 -0.5152  0.2025
  696MOL0     C95932   8.318   5.706   9.669  0.4592 -0.0967 -0.4054
  696MOL0     C95933   8.290   5.639   9.806 -0.1527  0.6750 -0.7614
  696MOL0     O95934   8.411   5.663   9.875 -0.0986 -1.0249  0.2632
  696MOL0     C95935   8.442   5.600   9.988  0.5265  0.2703 -0.4118
  696MOL0     C95936   8.534   5.655  10.080  0.2896 -0.1358 -1.1616
  696MOL0     C95937   8.579   5.591  10.190 -0.1467  0.1458 -0.3630
  696MOL0     C95938   8.676   5.665  10.275  0.0102  0.0741  0.3534
  696MOL0     C95939   8.534   5.461  10.214  0.6274  0.1491 -1.3312
  696MOL0     C95940   8.584   5.363  10.323  0.6666 -0.2126  0.7568
  696MOL0     O95941   8.527   5.237  10.326  0.3423 -0.8848 -0.5142
  696MOL0     C95942   8.555   5.156  10.431  0.3845 -0.3386  0.7726
  696MOL0     C95943   8.480   5.179  10.544 -0.3404 -0.3433 -0.4373
  696MOL0     C95944   8.512   5.099  10.656  0.2504  0.5139 -0.3110
  696MOL0     C95945   8.620   5.005  10.651  0.1536 -0.8655  0.2681
  696MOL0     O95946   8.643   4.923  10.754 -0.0574 -0.1695 -0.4739
  696MOL0     C95947   8.541   4.830  10.768 -0.2738  0.3634 -0.0234
  696MOL0     C95948   8.540   4.726  10.644 -0.6672  0.5610 -0.5933
  696MOL0     C95949   8.424   4.628  10.674 -0.6949  0.6796 -0.5713
  696MOL0     C95950   8.425   4.516  10.564  0.7152 -0.4648 -0.5105
  696MOL0     C95951   8.304   4.420  10.590  0.7331  0.4239 -0.6940
  696MOL0     C95952   8.319   4.292  10.505 -0.2782  0.3249 -0.9569
  696MOL0     C95953   8.191   4.206  10.526 -0.8683  0.7572 -0.0466
  696MOL0     C95954   8.199   4.052  10.493  0.6740 -0.1026 -0.0311
  696MOL0    Cl95955   8.048   3.969  10.548  0.0109 -0.5517  0.3924
  696MOL0     C95956   8.699   4.988  10.542  1.0133  0.4308 -0.3881
  696MOL0     C95957   8.670   5.074  10.437 -0.7112  0.0535  0.6973
  696MOL0     O95958   8.676   5.396  10.395 -0.3664 -0.1416 -0.4355
  696MOL0     C95959   8.426   5.410  10.138 -0.6532  0.8173 -0.9180
  696MOL0     C95960   8.377   5.482  10.031  0.0972 -0.5151 -0.4292
  696MOL0     N95961   8.251   6.145   9.597  0.7834  0.1943  0.9448
  696MOL0     N95962   8.184   6.234   9.527 -0.1283  0.5837  0.5247
  696MOL0     C95963   7.760   6.498   8.543 -0.5229 -0.1977 -0.4194
  696MOL0     C95964   7.817   6.566   8.439 -0.4318 -0.0307 -0.3383
  696MOL0     C95965   8.093   6.608   8.052  1.0788  1.0253 -0.4739
  696MOL0     C95966   8.024   6.679   7.949  0.2670  0.0531 -0.6208
  696MOL0     C95967   8.092   6.762   7.864 -0.4121 -0.7272 -0.0468
  696MOL0     C95968   8.230   6.774   7.868  0.0158  0.2720 -0.2962
  696MOL0     O95969   8.279   6.878   7.793 -0.1362  0.4240  0.1428
  696MOL0     C95970   8.425   6.883   7.791 -0.1904 -0.6490 -0.1621
  696MOL0     C95971   8.483   7.003   7.711  0.3258 -0.0583  0.3690
  696MOL0     C95972   8.624   6.985   7.656 -0.9313 -0.0084 -0.2190
  696MOL0     C95973   8.728   6.992   7.769  0.6054 -0.1388 -0.8293
  696MOL0     C95974   8.753   7.137   7.795 -0.2583 -0.2936 -0.2807
  696MOL0     C95975   8.773   7.258   7.798 -0.0745 -0.2665  0.5573
  696MOL0     C95976   8.297   6.693   7.960 -0.1360 -1.0636  0.2970
  696MOL0     C95977   8.232   6.606   8.048  0.4236 -0.3671 -0.2629
  696MOL0     C95978   8.315   6.524   8.145  0.5656  0.5783  0.0778
  696MOL0     H95979   7.900   6.290   8.261 -0.7258  1.2060 -1.1570
  696MOL0     H95980   7.796   6.176   8.449  0.0557  0.0029 -2.0059
  696MOL0     H95981   7.707   6.088   8.654 -2.0104 -1.8897  0.4944
  696MOL0     H95982   7.557   6.162   8.591  2.3940 -0.5835 -2.9253
  696MOL0     H95983   7.513   6.226   8.836  1.8824  0.3529  1.3437
  696MOL0     H95984   7.512   6.049   8.795 -0.1060 -0.1897 -2.7173
  696MOL0     H95985   7.711   6.003   8.875 -0.2241 -1.2798  0.5810
  696MOL0     H95986   7.765   6.177   8.916 -1.7373  2.4667  1.0744
  696MOL0     H95987   7.593   6.187   9.083 -1.6029 -1.0222  2.3294
  696MOL0     H95988   7.545   6.025   9.060 -0.7451  1.1596  4.0269
  696MOL0     H95989   7.798   5.963   9.111 -0.2868  0.7826 -1.0062
  696MOL0     H95990   7.685   6.008   9.238 -2.8987  4.3802  0.5056
  696MOL0     H95991   7.868   6.201   9.107 -0.8656  3.5879  0.6108
  696MOL0     H95992   7.758   6.237   9.236  0.5803 -0.3353  0.7065
  696MOL0     H95993   7.973   6.024   9.278 -1.2337  0.9276 -0.3303
  696MOL0     H95994   7.877   6.121   9.395 -1.6666  3.9302 -0.7595
  696MOL0     H95995   8.088   6.231   9.222 -0.4929 -4.4364 -0.6360
  696MOL0     H95996   8.007   6.319   9.358 -0.7566  0.2355 -1.0238
  696MOL0     H95997   8.219   6.003   9.300  0.6648  0.9408 -0.7912
  696MOL0     H95998   8.468   5.938   9.533  0.1820  0.1037 -0.1641
  696MOL0     H95999   8.328   5.844   9.462 -0.1276  0.2948 -0.2624
  696MOL0     H96000   8.404   5.887   9.737  1.8996  0.5869 -3.2108
  696MOL0     H96001   8.237   5.899   9.719 -0.8257 -0.8248  0.3152
  696MOL0     H96002   8.234   5.687   9.601 -1.6017  2.7218  1.1814
  696MOL0     H96003   8.406   5.652   9.633 -0.9891 -3.2507  0.3726
  696MOL0     H96004   8.197   5.665   9.857 -1.1466 -3.7445  0.1538
  696MOL0     H96005   8.288   5.531   9.788  0.4762  0.9794 -2.9022
  696MOL0     H96006   8.574   5.754  10.057 -1.4721  0.8997  0.0246
  696MOL0     H96007   8.655   5.657  10.382 -1.0286 -1.3008  0.0683
  696MOL0     H96008   8.685   5.771  10.248  2.1375  0.0055  0.6024
  696MOL0     H96009   8.776   5.624  10.258 -0.5474 -0.4472 -1.9229
  696MOL0     H96010   8.407   5.260  10.548 -1.4387 -1.3135 -0.2848
  696MOL0     H96011   8.450   5.111  10.744  2.5263  2.0193  1.1823
  696MOL0     H96012   8.556   4.764  10.854 -0.7944 -3.6057 -2.6787
  696MOL0     H96013   8.443   4.878  10.777 -0.4350  0.3673 -1.4974
  696MOL0     H96014   8.542   4.780  10.549  1.3347  1.0513 -0.3352
  696MOL0     H96015   8.632   4.666  10.642 -1.1518 -0.1826 -2.5766
  696MOL0     H96016   8.326   4.670  10.699 -0.4435  0.7301  0.3848
  696MOL0     H96017   8.453   4.572  10.763 -1.6991 -0.4017 -0.9039
  696MOL0     H96018   8.523   4.467  10.567 -0.4744 -3.0810 -1.4565
  696MOL0     H96019   8.411   4.572  10.471 -0.3970  1.6810  0.8773
  696MOL0     H96020   8.301   4.388  10.694 -2.0386  0.0104 -0.8311
  696MOL0     H96021   8.204   4.462  10.575  1.3608  2.1004 -0.3978
  696MOL0     H96022   8.407   4.240  10.544 -2.2983 -2.5977  0.0807
  696MOL0     H96023   8.343   4.312  10.400 -0.2948  2.2659 -0.6249
  696MOL0     H96024   8.108   4.230  10.460 -0.5561  0.9750 -0.3671
  696MOL0     H96025   8.153   4.206  10.628 -0.5173  1.3179  0.0820
  696MOL0     H96026   8.280   3.996  10.541 -0.4633 -1.2202  0.6173
  696MOL0     H96027   8.217   4.047  10.385  0.5816  3.7078 -0.3836
  696MOL0     H96028   8.771   4.907  10.539  0.9224  0.2309  1.5872
  696MOL0     H96029   8.718   5.057  10.341 -3.5375  0.1043 -0.8289
  696MOL0     H96030   8.365   5.323  10.159 -1.0442  1.1111 -0.8366
  696MOL0     H96031   8.296   5.438   9.973 -0.1092  1.1172 -1.4674
  696MOL0     H96032   7.716   6.563   8.618  2.5885  0.9379  0.5708
  696MOL0     H96033   7.818   6.675   8.432 -0.1111  0.1662  2.0074
  696MOL0     H96034   7.917   6.689   7.962  0.3519  2.1762 -1.1413
  696MOL0     H96035   8.031   6.835   7.812 -1.2214 -0.3981  1.3237
  696MOL0     H96036   8.469   6.868   7.890 -0.0423 -3.2823 -0.5443
  696MOL0     H96037   8.468   6.796   7.739  0.4793 -0.6543  0.3794
  696MOL0     H96038   8.483   7.097   7.768  0.0250  0.1948 -0.0432
  696MOL0     H96039   8.416   7.036   7.631  0.2207 -1.4271 -0.1199
  696MOL0     H96040   8.632   6.889   7.606  2.8552 -0.4884  0.9719
  696MOL0     H96041   8.643   7.056   7.575 -1.7029 -0.0352 -0.4361
  696MOL0     H96042   8.817   6.942   7.730  1.2370  1.2339 -1.2271
  696MOL0     H96043   8.681   6.956   7.861  0.3348  2.0176 -0.0694
  696MOL0     H96044   8.802   7.360   7.810  1.0206 -0.6814  1.6617
  696MOL0     H96045   8.405   6.696   7.967 -0.1090 -2.3054  0.7752
  696MOL0     H96046   8.288   6.548   8.249 -2.1141 -0.1893 -0.3816
  696MOL0     H96047   8.289   6.418   8.137  1.2586  0.5210 -1.9889
  696MOL0     H96048   8.419   6.556   8.131 -0.5769  5.3130  0.6251
  697MOL0     O96049   2.912   3.948   7.433  0.1921 -1.0210  0.0665
  697MOL0     C96050   2.878   3.933   7.550  0.0110  0.7666  0.6766
  697MOL0     O96051   2.960   3.886   7.645 -0.3877 -0.6090 -0.0558
  697MOL0     C96052   3.086   3.863   7.604 -0.6392 -0.7141 -0.1458
  697MOL0     C96053   3.124   3.735   7.561  0.9966  0.1587  0.2022
  697MOL0     C96054   3.257   3.706   7.550 -1.1609 -0.8040  0.8735
  697MOL0     C96055   3.354   3.815   7.573  0.3204  0.7399  1.1439
  697MOL0     O96056   3.483   3.773   7.549  0.1526  0.0209 -0.5514
  697MOL0     C96057   3.577   3.787   7.662  0.0167 -0.5474 -0.0613
  697MOL0     C96058   3.698   3.692   7.650  0.6150  0.1760  0.2614
  697MOL0     C96059   3.800   3.760   7.558 -0.3508  0.1920  0.1395
  697MOL0     C96060   3.919   3.670   7.520 -0.6798  0.6443 -0.2461
  697MOL0     C96061   4.016   3.751   7.442  0.3700 -0.0087  0.6086
  697MOL0     C96062   3.975   3.791   7.291  0.0748  0.6027 -0.9546
  697MOL0     C96063   4.087   3.852   7.218 -0.1168 -0.4012  0.4992
  697MOL0     C96064   4.199   3.753   7.182 -0.5500 -0.7346 -0.8092
  697MOL0     N96065   4.318   3.827   7.119 -0.3209 -0.6818 -0.7678
  697MOL0     C96066   4.429   3.868   7.192  0.6690 -0.0524  0.6488
  697MOL0     C96067   4.511   3.922   7.103 -0.3095  0.4048  0.9669
  697MOL0     C96068   4.654   3.978   7.121  0.1157 -0.5397  0.2392
  697MOL0     C96069   4.674   4.134   7.125  0.4120  0.1052 -0.2913
  697MOL0     C96070   4.686   4.202   7.263 -0.1778 -0.2382  0.5073
  697MOL0     C96071   4.594   4.149   7.367  0.2787  0.7807  0.3908
  697MOL0     O96072   4.666   4.039   7.437 -0.4289 -0.9542 -0.3230
  697MOL0     C96073   4.599   3.951   7.512  0.4114  0.6120 -1.2073
  697MOL0     C96074   4.473   3.935   7.543  0.9011  0.3740 -0.3860
  697MOL0     C96075   4.425   3.835   7.631 -0.1093 -0.2967  0.5916
  697MOL0     C96076   4.278   3.852   7.666 -0.0455  0.2067 -0.4847
  697MOL0     C96077   4.514   3.742   7.696 -0.5347 -0.7523  0.3651
  697MOL0     C96078   4.477   3.640   7.797  0.4019  0.1201  0.0445
  697MOL0     O96079   4.561   3.532   7.805 -0.4263  0.1539 -0.6257
  697MOL0     C96080   4.583   3.458   7.923 -0.6387  0.2519  0.3598
  697MOL0     C96081   4.502   3.451   8.044 -0.1183  0.4389  0.8964
  697MOL0     C96082   4.540   3.365   8.150  0.7300 -0.0840  0.3079
  697MOL0     C96083   4.657   3.279   8.135  0.3545 -0.3134  0.0387
  697MOL0     O96084   4.697   3.191   8.220 -0.1009  0.6767 -0.5801
  697MOL0     C96085   4.618   3.164   8.338 -0.9865 -0.6265 -0.0138
  697MOL0     C96086   4.676   3.060   8.432  0.5783  0.4824 -0.6355
  697MOL0     C96087   4.700   2.937   8.343 -0.4897  0.3176  0.4375
  697MOL0     C96088   4.726   2.815   8.425 -0.0913 -0.4605  0.5101
  697MOL0     C96089   4.764   2.685   8.351  0.7336  0.3878  0.4399
  697MOL0     C96090   4.829   2.582   8.444 -0.4733  0.1191 -0.1900
  697MOL0     C96091   4.843   2.445   8.368  0.6941  0.4312  0.3693
  697MOL0     C96092   4.846   2.333   8.469 -0.1736 -0.1738  0.0644
  697MOL0    Cl96093   4.862   2.188   8.372 -0.1461 -0.3091 -0.5448
  697MOL0     C96094   4.731   3.290   8.017  0.3411  0.0309 -0.5596
  697MOL0     C96095   4.689   3.376   7.920 -0.4922 -0.7087  0.4252
  697MOL0     O96096   4.388   3.669   7.875 -0.7077 -0.0293 -0.1159
  697MOL0     C96097   4.654   3.758   7.651 -0.1212 -0.4027 -0.1927
  697MOL0     C96098   4.697   3.866   7.570  0.5659  0.1942  0.0942
  697MOL0     N96099   4.443   3.930   6.979 -0.0392  0.6264  0.4916
  697MOL0     N96100   4.325   3.878   6.995 -0.0597  0.8478 -0.3567
  697MOL0     C96101   3.307   3.936   7.617 -0.1811  0.2464  0.0368
  697MOL0     C96102   3.172   3.959   7.639  0.0892 -0.1579 -0.5006
  697MOL0     C96103   2.743   3.984   7.587  0.0149  0.4355 -0.7819
  697MOL0     C96104   2.681   4.085   7.509 -0.2416  0.5359  0.2231
  697MOL0     C96105   2.562   4.144   7.543 -0.0455 -0.1742  0.4121
  697MOL0     C96106   2.498   4.098   7.658  0.4807 -0.0081 -0.4278
  697MOL0     O96107   2.386   4.166   7.695 -0.3289  0.0059  0.6440
  697MOL0     C96108   2.302   4.131   7.808  0.0825 -0.1998 -0.0845
  697MOL0     C96109   2.219   4.004   7.788 -0.4308  0.0383  0.2326
  697MOL0     C96110   2.110   3.986   7.889 -0.0156  0.3915 -0.0115
  697MOL0     C96111   1.991   4.081   7.858 -0.0287  0.3014  0.4372
  697MOL0     C96112   1.864   4.062   7.934 -0.4435  0.3986  0.5260
  697MOL0     C96113   1.770   4.007   7.991 -0.6702  0.5636  0.5948
  697MOL0     C96114   2.558   4.007   7.739  0.1459  0.0551  0.2098
  697MOL0     C96115   2.676   3.944   7.708 -0.2283 -0.0798 -0.9920
  697MOL0     C96116   2.731   3.839   7.824  0.3854  0.3286  0.6628
  697MOL0     H96117   3.054   3.658   7.530  0.5838  0.4621  0.3761
  697MOL0     H96118   3.299   3.613   7.511  1.6670  0.1736  1.3458
  697MOL0     H96119   3.532   3.752   7.756 -0.1293 -0.2068 -0.0005
  697MOL0     H96120   3.614   3.890   7.673  0.1448 -0.2128 -2.8697
  697MOL0     H96121   3.723   3.664   7.753 -1.4315  0.7244  0.9568
  697MOL0     H96122   3.653   3.604   7.602 -2.6184  1.2807  1.0461
  697MOL0     H96123   3.750   3.781   7.462 -3.3254 -3.4376  0.6527
  697MOL0     H96124   3.828   3.851   7.611 -2.7157  1.7735 -1.1481
  697MOL0     H96125   3.977   3.646   7.609  1.0254 -2.0465 -1.9487
  697MOL0     H96126   3.884   3.576   7.477 -0.1750  1.1415 -1.8211
  697MOL0     H96127   4.104   3.685   7.434  0.2446 -0.1171  0.0537
  697MOL0     H96128   4.043   3.846   7.488  2.2061 -0.4922  0.5968
  697MOL0     H96129   3.935   3.701   7.243  0.0385 -0.8576  1.6197
  697MOL0     H96130   3.892   3.862   7.302 -1.8072 -1.3519 -1.7796
  697MOL0     H96131   4.131   3.927   7.285 -0.7003  0.8502 -0.4874
  697MOL0     H96132   4.053   3.918   7.138  2.9954  0.8626  0.0538
  697MOL0     H96133   4.232   3.696   7.269  4.2037  2.3015 -0.2362
  697MOL0     H96134   4.151   3.685   7.111 -1.0663 -1.1610 -0.0665
  697MOL0     H96135   4.450   3.843   7.296 -2.7166 -0.1253  1.4213
  697MOL0     H96136   4.711   3.942   7.034  1.4083 -0.4693  1.0353
  697MOL0     H96137   4.703   3.929   7.206  0.1004  1.5535  1.5243
  697MOL0     H96138   4.765   4.158   7.070 -0.3872  1.0376 -1.2458
  697MOL0     H96139   4.599   4.177   7.058 -0.9809 -0.2454  0.9931
  697MOL0     H96140   4.778   4.169   7.311  0.1026 -0.3997 -0.1404
  697MOL0     H96141   4.682   4.311   7.254  0.5192 -0.0105  2.4542
  697MOL0     H96142   4.574   4.225   7.443 -1.0958  1.0739 -0.2285
  697MOL0     H96143   4.497   4.116   7.328 -1.1908  1.2624  3.3388
  697MOL0     H96144   4.403   4.002   7.493  0.6033 -0.8894 -1.7294
  697MOL0     H96145   4.275   3.890   7.769  1.0794  0.8871 -0.6747
  697MOL0     H96146   4.230   3.754   7.665 -0.0525  0.2010  0.0587
  697MOL0     H96147   4.229   3.927   7.603  1.8749  1.3007 -0.7676
  697MOL0     H96148   4.411   3.505   8.068  0.5531  0.6292  3.2534
  697MOL0     H96149   4.489   3.379   8.245  0.6538 -0.7060  0.3660
  697MOL0     H96150   4.595   3.253   8.398 -2.4424 -1.5740  0.9007
  697MOL0     H96151   4.526   3.121   8.298 -0.2262 -0.9121 -1.5102
  697MOL0     H96152   4.777   3.087   8.464  1.1109  0.1680 -1.9648
  697MOL0     H96153   4.603   3.055   8.514  3.9304  1.7214  2.7278
  697MOL0     H96154   4.783   2.953   8.273  0.0934 -0.6152  0.8852
  697MOL0     H96155   4.609   2.920   8.285 -2.3984 -2.0851  3.8119
  697MOL0     H96156   4.639   2.801   8.489 -0.0637  1.8232  1.1283
  697MOL0     H96157   4.816   2.827   8.487  0.2687  1.3002 -0.2637
  697MOL0     H96158   4.668   2.644   8.319  0.0583  1.5216  0.9401
  697MOL0     H96159   4.836   2.691   8.269 -0.6327  0.4150 -0.8086
  697MOL0     H96160   4.769   2.562   8.534  0.4072  0.6700  0.5405
  697MOL0     H96161   4.931   2.608   8.474 -0.9996  0.8794  1.0250
  697MOL0     H96162   4.928   2.438   8.300 -0.7552 -2.5494 -1.3422
  697MOL0     H96163   4.751   2.429   8.311  0.2907 -2.4631  1.6986
  697MOL0     H96164   4.752   2.316   8.522  1.8760 -2.7625  3.3330
  697MOL0     H96165   4.928   2.349   8.539  2.4669 -2.9522 -2.0987
  697MOL0     H96166   4.824   3.235   8.010  0.2949 -0.0199 -0.7811
  697MOL0     H96167   4.729   3.382   7.819 -1.0675 -3.0249 -0.0007
  697MOL0     H96168   4.730   3.683   7.675  0.4329 -0.2608 -1.4113
  697MOL0     H96169   4.803   3.869   7.545  0.1677 -0.2711 -1.8888
  697MOL0     H96170   3.383   4.010   7.640  1.1980 -0.6058 -1.5743
  697MOL0     H96171   3.128   4.047   7.683  2.6585  0.9789 -0.0136
  697MOL0     H96172   2.729   4.120   7.418  0.6583 -1.3171 -0.0759
  697MOL0     H96173   2.521   4.221   7.478 -0.6806  0.3193  1.3683
  697MOL0     H96174   2.353   4.106   7.902 -0.0109  0.2977  0.1010
  697MOL0     H96175   2.232   4.214   7.822 -1.6677 -1.7596  0.6842
  697MOL0     H96176   2.280   3.914   7.779 -1.5600 -0.4918 -4.2252
  697MOL0     H96177   2.169   4.021   7.693 -1.0116  2.7274  0.9278
  697MOL0     H96178   2.076   3.882   7.877  1.4922 -0.1838  0.4498
  697MOL0     H96179   2.149   4.007   7.989  3.1244  0.0531 -1.0514
  697MOL0     H96180   1.961   4.062   7.754  0.2768 -0.2910  0.4488
  697MOL0     H96181   2.029   4.182   7.873  1.2488 -0.1307  0.2648
  697MOL0     H96182   1.690   3.955   8.040 -0.3026  0.6488  1.3011
  697MOL0     H96183   2.510   3.980   7.832 -0.4699  2.0179  0.5164
  697MOL0     H96184   2.817   3.887   7.871 -0.7105  0.8947  2.1447
  697MOL0     H96185   2.648   3.829   7.894 -0.1198  1.5405  0.2623
  697MOL0     H96186   2.763   3.740   7.790  1.6044  0.7036  0.6707
  698MOL0     O96187  10.910   7.136   4.891 -0.2468 -0.4665  0.1075
  698MOL0     C96188  10.950   7.216   4.803  0.2987  0.4063  0.0188
  698MOL0     O96189  10.924   7.220   4.665  0.1180 -0.0122 -0.7180
  698MOL0     C96190  10.802   7.181   4.628  0.7695  0.1569 -0.5028
  698MOL0     C96191  10.792   7.121   4.503 -0.1274 -0.2071 -0.7034
  698MOL0     C96192  10.678   7.083   4.435 -0.1494 -0.0233 -0.7955
  698MOL0     C96193  10.551   7.107   4.498  0.1453  0.1182 -0.3538
  698MOL0     O96194  10.433   7.049   4.462  0.5158 -0.0872  0.6294
  698MOL0     C96195  10.393   7.015   4.324 -0.0427  0.2705 -0.2467
  698MOL0     C96196  10.377   7.141   4.234 -0.6024 -0.0620 -0.6474
  698MOL0     C96197  10.265   7.234   4.286 -0.7547 -0.3301 -0.1162
  698MOL0     C96198  10.207   7.315   4.173  0.4788  0.3779 -0.0519
  698MOL0     C96199  10.095   7.408   4.219 -0.0510  0.7612  0.1758
  698MOL0     C96200   9.993   7.348   4.323 -0.5565  0.2693  0.4008
  698MOL0     C96201   9.892   7.239   4.268 -0.2107  0.2243  0.3802
  698MOL0     C96202   9.858   7.248   4.118 -0.1826  0.7321 -0.1598
  698MOL0     N96203   9.745   7.162   4.097  1.1227  0.1572 -1.0311
  698MOL0     C96204   9.618   7.178   4.147  1.0276  0.9806 -0.1643
  698MOL0     C96205   9.549   7.070   4.097 -0.0892 -0.9393  1.0983
  698MOL0     C96206   9.401   7.036   4.114  0.1220  0.5254 -0.5655
  698MOL0     C96207   9.319   7.013   3.977 -0.0653 -0.2332 -0.4890
  698MOL0     C96208   9.224   6.895   3.993 -0.0995  0.0901  0.5919
  698MOL0     C96209   9.156   6.854   3.867  0.2675 -0.3620 -0.4566
  698MOL0     O96210   9.071   6.954   3.814  0.2690  0.4332 -0.1623
  698MOL0     C96211   8.955   6.897   3.748 -0.8237 -0.0216 -0.2763
  698MOL0     C96212   8.863   7.000   3.717 -0.2491  0.0184 -0.3607
  698MOL0     C96213   8.739   6.978   3.652  0.2611 -0.0765  0.0098
  698MOL0     C96214   8.645   7.098   3.649  0.4404  0.2255 -0.3007
  698MOL0     C96215   8.711   6.850   3.603 -0.4432  0.0522 -0.3848
  698MOL0     C96216   8.597   6.821   3.521  0.5473  0.1818 -0.4864
  698MOL0     O96217   8.555   6.688   3.522 -0.6235  0.7902  0.1237
  698MOL0     C96218   8.478   6.645   3.415  0.6763 -0.8754  0.6665
  698MOL0     C96219   8.408   6.533   3.434 -0.4886  0.2234  0.5008
  698MOL0     C96220   8.350   6.468   3.322  0.1328 -0.1914 -1.1525
  698MOL0     C96221   8.330   6.520   3.196 -0.5370 -0.5662  0.6965
  698MOL0     O96222   8.254   6.453   3.102 -0.3155 -0.7867  0.0897
  698MOL0     C96223   8.227   6.510   2.969 -0.1352  0.9483  0.4397
  698MOL0     C96224   8.136   6.413   2.882 -0.2203 -0.5305 -0.1286
  698MOL0     C96225   8.005   6.365   2.940 -0.8684  0.2977  0.0860
  698MOL0     C96226   7.887   6.441   2.876  0.7135 -0.8050  0.0180
  698MOL0     C96227   7.756   6.412   2.956  0.1423 -0.7011  0.6494
  698MOL0     C96228   7.683   6.288   2.920 -0.0621  0.2992  0.0931
  698MOL0     C96229   7.590   6.242   3.030 -0.5088 -0.3495  0.9271
  698MOL0     C96230   7.500   6.353   3.068 -0.2782  0.5180  0.1215
  698MOL0    Cl96231   7.417   6.427   2.926 -0.2840  0.4203  0.2354
  698MOL0     C96232   8.392   6.645   3.178 -0.6830  0.0574 -0.6322
  698MOL0     C96233   8.473   6.702   3.281  0.3444  0.2588  0.2491
  698MOL0     O96234   8.539   6.914   3.456  0.1021 -0.2477  0.0062
  698MOL0     C96235   8.806   6.748   3.633 -0.1503 -0.6421  0.3627
  698MOL0     C96236   8.928   6.770   3.702  0.8531  0.0370 -0.3689
  698MOL0     N96237   9.635   6.990   4.017 -0.0116 -1.4507  0.0314
  698MOL0     N96238   9.755   7.045   4.023  0.2313 -0.2644 -0.0987
  698MOL0     C96239  10.557   7.161   4.625  0.4507  1.4784 -0.5690
  698MOL0     C96240  10.679   7.193   4.696  0.9938  0.2003 -0.1243
  698MOL0     C96241  11.057   7.307   4.853 -0.4735 -0.3044  0.3302
  698MOL0     C96242  11.136   7.376   4.756  0.7747  0.2397  0.5466
  698MOL0     C96243  11.239   7.465   4.795  0.4888 -0.0263 -0.5820
  698MOL0     C96244  11.267   7.485   4.931  0.1378 -0.6708  0.5672
  698MOL0     O96245  11.382   7.548   4.961 -0.0704  0.4500 -0.3093
  698MOL0     C96246  11.435   7.543   5.095 -0.1723  0.8292 -0.0511
  698MOL0     C96247  11.401   7.657   5.178  0.5155  0.5424 -0.4053
  698MOL0     C96248  11.432   7.784   5.109 -0.2775 -0.3437  0.0384
  698MOL0     C96249  11.397   7.896   5.209 -0.7732 -0.0890  0.2608
  698MOL0     C96250  11.486   7.897   5.325  0.1711 -0.2270 -0.3360
  698MOL0     C96251  11.552   7.894   5.425 -0.9358 -0.0737 -0.5673
  698MOL0     C96252  11.194   7.423   5.024  0.1632  0.8629  0.3631
  698MOL0     C96253  11.086   7.340   4.985  1.0548 -0.0594 -0.2185
  698MOL0     C96254  11.008   7.284   5.105  0.2450 -0.0431  0.0520
  698MOL0     H96255  10.886   7.086   4.460 -0.9002 -1.2112 -1.6285
  698MOL0     H96256  10.678   7.037   4.336 -2.5063  1.3520 -1.5068
  698MOL0     H96257  10.308   6.947   4.323 -0.9456  1.3072  1.4907
  698MOL0     H96258  10.479   6.967   4.276 -0.1916 -2.1654  1.6865
  698MOL0     H96259  10.468   7.201   4.243  1.6036 -3.5173  3.8837
  698MOL0     H96260  10.374   7.099   4.133  2.3089 -1.4112 -0.2547
  698MOL0     H96261  10.180   7.183   4.334 -2.1589  0.5629 -1.5689
  698MOL0     H96262  10.309   7.307   4.355 -0.9660 -0.4716  0.1680
  698MOL0     H96263  10.297   7.365   4.136  1.7473 -0.3300  1.9156
  698MOL0     H96264  10.166   7.257   4.089  1.6311 -3.0060  1.5721
  698MOL0     H96265  10.049   7.445   4.126  1.1607 -1.2775 -1.3194
  698MOL0     H96266  10.147   7.488   4.272  2.3434 -1.0351  0.6613
  698MOL0     H96267  10.044   7.320   4.416  1.2637  0.4757 -0.4818
  698MOL0     H96268   9.924   7.427   4.354 -1.2683 -0.2314  0.1226
  698MOL0     H96269   9.804   7.248   4.333  0.5087  3.4750  1.1093
  698MOL0     H96270   9.932   7.138   4.279 -1.3388 -0.0625  2.3224
  698MOL0     H96271   9.843   7.354   4.093  1.8351  1.7719  2.5867
  698MOL0     H96272   9.942   7.213   4.057  0.5089  0.9492  0.6514
  698MOL0     H96273   9.567   7.254   4.205  1.4440  0.6410  0.6509
  698MOL0     H96274   9.351   7.118   4.165 -0.0605 -0.1659  0.4017
  698MOL0     H96275   9.394   6.945   4.174 -1.7854  0.5091 -0.7479
  698MOL0     H96276   9.265   7.103   3.946 -2.6395 -1.5825 -0.2007
  698MOL0     H96277   9.381   7.000   3.888 -0.2187 -1.8864 -0.3868
  698MOL0     H96278   9.278   6.810   4.036  0.7975 -0.2742 -1.1656
  698MOL0     H96279   9.144   6.925   4.061 -1.6968 -2.7095  0.1377
  698MOL0     H96280   9.238   6.831   3.797  1.8546  0.9232  0.8980
  698MOL0     H96281   9.109   6.758   3.890  1.4551 -1.2640 -1.6429
  698MOL0     H96282   8.880   7.106   3.737 -5.0152  0.8066  1.0529
  698MOL0     H96283   8.543   7.066   3.668  0.8969 -0.8691  0.3869
  698MOL0     H96284   8.641   7.163   3.560 -1.7249  1.6185  0.7150
  698MOL0     H96285   8.686   7.172   3.719  1.1578 -0.7273  0.3154
  698MOL0     H96286   8.401   6.480   3.529 -0.2730 -1.4461 -0.3925
  698MOL0     H96287   8.298   6.375   3.343  3.1794 -1.4771  1.4264
  698MOL0     H96288   8.171   6.601   2.993 -2.6887 -0.7958  1.5226
  698MOL0     H96289   8.320   6.527   2.914  1.0124  1.8412  2.5329
  698MOL0     H96290   8.123   6.443   2.778 -3.2608  1.3605  0.6693
  698MOL0     H96291   8.203   6.327   2.876  1.6615  0.9444 -1.2073
  698MOL0     H96292   8.018   6.377   3.048 -0.4446 -0.2628  0.1027
  698MOL0     H96293   7.982   6.259   2.929 -2.1922  0.5905 -0.1445
  698MOL0     H96294   7.874   6.408   2.773 -1.0896  0.3762 -0.1851
  698MOL0     H96295   7.906   6.548   2.888  1.6437 -1.1063  1.4877
  698MOL0     H96296   7.768   6.405   3.065 -1.4971  0.4445  0.9349
  698MOL0     H96297   7.694   6.498   2.929 -0.5195 -0.6325  2.2836
  698MOL0     H96298   7.748   6.200   2.906 -3.2894 -2.6210  1.9693
  698MOL0     H96299   7.619   6.298   2.831 -1.6892  1.6008  1.3612
  698MOL0     H96300   7.648   6.205   3.116  3.2673  1.6126 -0.5235
  698MOL0     H96301   7.537   6.161   2.981  0.1333 -0.5813  0.6073
  698MOL0     H96302   7.542   6.430   3.134 -0.3377  1.5390 -0.9856
  698MOL0     H96303   7.428   6.298   3.129  0.4554  0.0026  0.5345
  698MOL0     H96304   8.397   6.696   3.082 -1.1172  0.6044 -0.3755
  698MOL0     H96305   8.513   6.797   3.246  2.5786 -1.0867 -1.0318
  698MOL0     H96306   8.773   6.652   3.596 -2.4772  0.8889 -1.8712
  698MOL0     H96307   8.986   6.679   3.709  0.8642 -0.0756 -1.6194
  698MOL0     H96308  10.466   7.173   4.684  1.6145 -2.9197  2.6612
  698MOL0     H96309  10.675   7.220   4.801 -0.8102 -2.1425  0.4839
  698MOL0     H96310  11.113   7.377   4.650  0.0701 -0.9884  0.6687
  698MOL0     H96311  11.297   7.518   4.721  1.5277  0.5979  0.6400
  698MOL0     H96312  11.414   7.446   5.142 -3.5440  1.4595 -0.0412
  698MOL0     H96313  11.543   7.557   5.083  0.5740 -3.6727 -0.3559
  698MOL0     H96314  11.467   7.646   5.265 -1.4260  0.7610  1.1554
  698MOL0     H96315  11.296   7.662   5.208  0.7641 -2.1365  1.2990
  698MOL0     H96316  11.538   7.796   5.084 -0.9552  1.0993 -2.5639
  698MOL0     H96317  11.375   7.800   5.017  0.2472 -1.6809 -0.5349
  698MOL0     H96318  11.294   7.910   5.244 -1.2217  2.1680 -1.6660
  698MOL0     H96319  11.417   7.981   5.142 -0.5953 -0.7562 -0.5514
  698MOL0     H96320  11.633   7.869   5.490  0.9051 -2.0657 -3.4116
  698MOL0     H96321  11.200   7.448   5.129 -0.8919  1.2218  0.3495
  698MOL0     H96322  10.902   7.312   5.100  0.8727  2.3704 -3.3970
  698MOL0     H96323  11.001   7.175   5.101 -0.1959  0.0140 -1.0929
  698MOL0     H96324  11.051   7.296   5.205  2.9084 -4.7822 -0.2231
  699MOL0     O96325   0.524   7.938   1.571 -0.5830  0.0482  0.1529
  699MOL0     C96326   0.425   7.958   1.501  1.2528  0.2241 -0.7996
  699MOL0     O96327   0.431   8.034   1.388  0.2620  0.2920  0.1500
  699MOL0     C96328   0.545   8.105   1.361 -0.4815 -0.0171  0.1445
  699MOL0     C96329   0.637   8.157   1.448  0.1421  0.1965  0.6022
  699MOL0     C96330   0.771   8.192   1.407 -0.5886 -0.1793  0.1994
  699MOL0     C96331   0.818   8.174   1.276  0.8181 -1.3426  0.5349
  699MOL0     O96332   0.940   8.215   1.221  0.7402  0.3853  0.3293
  699MOL0     C96333   1.044   8.236   1.316 -0.7211 -0.7613 -0.4467
  699MOL0     C96334   1.172   8.289   1.250  0.5118 -0.2599 -1.5655
  699MOL0     C96335   1.298   8.268   1.338 -0.1670 -0.0635  0.2285
  699MOL0     C96336   1.416   8.345   1.283  0.4568 -0.4393  0.6145
  699MOL0     C96337   1.549   8.345   1.366 -0.8417 -0.0568  0.4143
  699MOL0     C96338   1.625   8.207   1.357 -0.2462  0.1975  0.1441
  699MOL0     C96339   1.768   8.216   1.406 -0.7071  0.4350  0.1677
  699MOL0     C96340   1.868   8.258   1.295  0.6806  0.2203  0.1044
  699MOL0     N96341   1.998   8.283   1.354  0.2477  0.7407 -0.2853
  699MOL0     C96342   2.088   8.363   1.295  0.4773  0.3897  0.0080
  699MOL0     C96343   2.199   8.326   1.359  0.0766 -0.3067 -0.2281
  699MOL0     C96344   2.340   8.376   1.332 -0.0932 -0.6947 -0.5753
  699MOL0     C96345   2.446   8.370   1.450 -0.0456 -0.3029 -0.2171
  699MOL0     C96346   2.572   8.427   1.392 -0.3472  0.0152  0.2089
  699MOL0     C96347   2.679   8.420   1.497  0.1927  0.0539 -0.2052
  699MOL0     O96348   2.772   8.524   1.462  0.0134  0.4031 -0.2769
  699MOL0     C96349   2.907   8.493   1.492  1.1430 -0.8032  0.4900
  699MOL0     C96350   2.957   8.398   1.580 -0.4910 -0.6629  0.1882
  699MOL0     C96351   3.089   8.397   1.627  0.7254  0.6582  0.2747
  699MOL0     C96352   3.120   8.320   1.753 -0.0756 -0.7822  0.6138
  699MOL0     C96353   3.180   8.489   1.571 -0.9468  0.7255  0.2930
  699MOL0     C96354   3.327   8.494   1.603  0.1242  0.4305 -0.6143
  699MOL0     O96355   3.387   8.617   1.591 -0.1731 -0.2558 -0.5848
  699MOL0     C96356   3.513   8.635   1.639  0.5499  0.9824  0.2640
  699MOL0     C96357   3.588   8.561   1.735  0.5956  0.4324  0.5129
  699MOL0     C96358   3.725   8.602   1.758  0.1797 -0.2632 -0.7632
  699MOL0     C96359   3.781   8.712   1.707 -0.0652 -1.4530  0.0714
  699MOL0     O96360   3.909   8.746   1.747  0.0063 -0.1763  0.0797
  699MOL0     C96361   3.966   8.876   1.721 -0.5744 -0.4623 -0.2108
  699MOL0     C96362   4.039   8.863   1.588 -0.1455 -0.0782  0.5114
  699MOL0     C96363   4.109   8.997   1.547  0.0913 -0.3587  0.0910
  699MOL0     C96364   4.151   8.995   1.400 -0.3911 -0.8622  0.7195
  699MOL0     C96365   4.040   8.991   1.293 -0.3625  0.1600 -0.0635
  699MOL0     C96366   3.906   9.048   1.339 -0.3674  0.0727  0.5377
  699MOL0     C96367   3.794   9.008   1.238  0.4443  0.0506  1.0451
  699MOL0     C96368   3.670   9.107   1.240 -0.3115 -1.0724  0.3153
  699MOL0    Cl96369   3.583   9.108   1.401 -0.3242  0.0214  0.0526
  699MOL0     C96370   3.708   8.780   1.615 -0.6573 -1.1688 -0.2204
  699MOL0     C96371   3.576   8.747   1.579  0.2783 -0.0554 -0.6675
  699MOL0     O96372   3.387   8.380   1.620 -0.0141 -0.5226 -0.3116
  699MOL0     C96373   3.132   8.583   1.476 -0.7404 -0.3910 -0.8949
  699MOL0     C96374   3.003   8.585   1.442 -0.0490  0.1044  0.1146
  699MOL0     N96375   2.174   8.219   1.446  0.1409 -0.9705  0.9329
  699MOL0     N96376   2.046   8.201   1.452  0.3721  0.5281 -0.0053
  699MOL0     C96377   0.723   8.126   1.189  0.6222 -0.6844  0.2139
  699MOL0     C96378   0.594   8.092   1.227 -0.0800  0.2129  0.3408
  699MOL0     C96379   0.299   7.893   1.544  0.9077  0.6478 -0.5771
  699MOL0     C96380   0.125   7.938   1.421 -0.2272  0.0840  0.4377
  699MOL0     C96381  -0.061   7.859   1.470  0.3800 -0.6266 -0.2593
  699MOL0     C96382  -0.086   7.745   1.648  0.2691  0.3951 -0.2837
  699MOL0     O96383  -0.199   7.680   1.687  0.7877  0.7563  0.1939
  699MOL0     C96384  -0.315   7.696   1.602 -0.7732 -0.1688 -0.2284
  699MOL0     C96385  -0.407   7.821   1.612  0.0847 -0.4448  0.5060
  699MOL0     C96386  -0.550   7.791   1.581 -0.2084  0.6463 -0.4075
  699MOL0     C96387  -0.564   7.722   1.447 -0.4927 -0.4750 -0.2608
  699MOL0     C96388  -0.511   7.801   1.342 -0.3983 -0.2182 -0.2704
  699MOL0     C96389  -0.470   7.862   1.248 -0.2563  0.1185  0.0114
  699MOL0     C96390   0.079   7.697   1.770  0.1205 -0.6090  0.6015
  699MOL0     C96391   0.272   7.773   1.724  0.5046 -0.6872  0.0617
  699MOL0     C96392   0.393   7.727   1.804 -0.2707  0.3267  0.3314
  699MOL0     H96393   0.607   8.162   1.552  0.1638 -3.1576  0.8778
  699MOL0     H96394   0.840   8.238   1.477  1.6462  1.6835 -2.9839
  699MOL0     H96395   1.073   8.144   1.367 -1.1264 -0.6586 -0.0158
  699MOL0     H96396   1.011   8.301   1.398  2.6190 -0.4267  0.7487
  699MOL0     H96397   1.182   8.238   1.154 -1.5385 -1.5704 -1.1508
  699MOL0     H96398   1.148   8.395   1.238 -0.7879  0.3120  3.6479
  699MOL0     H96399   1.280   8.293   1.443 -0.0962 -1.4523  0.5855
  699MOL0     H96400   1.320   8.161   1.342 -0.8804 -0.1824  1.3010
  699MOL0     H96401   1.430   8.316   1.178 -3.0844 -3.5916  0.7995
  699MOL0     H96402   1.388   8.450   1.279 -0.0104 -0.5726  0.3596
  699MOL0     H96403   1.528   8.372   1.470  0.3219 -0.8279  0.8722
  699MOL0     H96404   1.614   8.430   1.342  0.5951 -1.1080  0.4671
  699MOL0     H96405   1.564   8.138   1.417 -0.1124 -0.0194  0.0340
  699MOL0     H96406   1.625   8.169   1.255 -2.9356 -3.0889  1.1572
  699MOL0     H96407   1.794   8.114   1.434 -1.3790  0.3016  0.3117
  699MOL0     H96408   1.798   8.268   1.497  1.2564 -0.6279  0.1642
  699MOL0     H96409   1.861   8.182   1.217  0.4021  0.0685  0.2746
  699MOL0     H96410   1.826   8.352   1.259  1.1862  0.2071 -0.5277
  699MOL0     H96411   2.075   8.439   1.218  1.5511 -1.8079 -2.4984
  699MOL0     H96412   2.325   8.481   1.302  1.7248  0.2634  1.5523
  699MOL0     H96413   2.378   8.316   1.249  1.2680  0.5463 -0.9025
  699MOL0     H96414   2.403   8.424   1.535 -1.2675 -2.1373  0.3826
  699MOL0     H96415   2.458   8.266   1.482  0.3132 -0.0766  0.4163
  699MOL0     H96416   2.598   8.374   1.301  0.2139 -0.1925  0.4838
  699MOL0     H96417   2.555   8.530   1.359  1.7038 -0.0564 -1.2767
  699MOL0     H96418   2.645   8.435   1.599 -2.1228 -1.0352 -0.7428
  699MOL0     H96419   2.724   8.321   1.508 -1.8912 -0.8641  0.6768
  699MOL0     H96420   2.886   8.330   1.625  0.8762 -1.7625  0.7607
  699MOL0     H96421   3.023   8.308   1.803 -0.8550  1.1976 -0.3114
  699MOL0     H96422   3.174   8.386   1.821 -0.5777  1.2293 -0.8379
  699MOL0     H96423   3.173   8.227   1.732  2.8192  1.4238 -3.2464
  699MOL0     H96424   3.546   8.477   1.788  1.0547 -0.5329 -0.5995
  699MOL0     H96425   3.773   8.542   1.835 -2.5085 -1.9611 -0.2480
  699MOL0     H96426   3.896   8.959   1.715  0.5101  0.5485  0.5622
  699MOL0     H96427   4.038   8.898   1.800 -0.2598  1.8082 -1.0624
  699MOL0     H96428   4.121   8.797   1.618  1.1778  2.8069  3.8942
  699MOL0     H96429   3.967   8.835   1.510 -2.1497  3.6750  0.8136
  699MOL0     H96430   4.202   9.001   1.605  0.7728 -2.3782 -0.7715
  699MOL0     H96431   4.049   9.084   1.573 -0.7905 -0.5188 -1.3148
  699MOL0     H96432   4.220   8.916   1.371  1.5699  1.6580 -2.0155
  699MOL0     H96433   4.193   9.092   1.372 -0.0806 -1.5454 -1.3233
  699MOL0     H96434   4.076   9.039   1.202  1.0342 -2.1691 -0.8304
  699MOL0     H96435   4.017   8.886   1.274  1.1067  0.0894 -1.7267
  699MOL0     H96436   3.918   9.156   1.330  2.3243 -0.3547 -2.7361
  699MOL0     H96437   3.870   9.009   1.435  0.8807 -1.0002  0.6001
  699MOL0     H96438   3.762   8.904   1.253 -1.7313  0.1741 -1.8174
  699MOL0     H96439   3.837   9.006   1.138 -3.7345 -0.2334 -0.9606
  699MOL0     H96440   3.601   9.060   1.169  2.0238 -0.8934 -2.2704
  699MOL0     H96441   3.710   9.204   1.209  0.4307 -1.5674 -0.3477
  699MOL0     H96442   3.745   8.871   1.568  1.7828 -2.0081 -0.0860
  699MOL0     H96443   3.521   8.802   1.503  0.7675  0.6496 -0.5130
  699MOL0     H96444   3.206   8.653   1.439 -2.2596  2.7010  1.4652
  699MOL0     H96445   2.963   8.662   1.378  1.4079 -0.5930 -1.7560
  699MOL0     H96446   0.757   8.124   1.086 -0.1362  1.0894 -0.0990
  699MOL0     H96447   0.522   8.061   1.152 -1.4009  0.5538  1.4160
  699MOL0     H96448   0.135   7.990   1.326  0.6028  0.4765  0.7272
  699MOL0     H96449  -0.151   7.867   1.409 -0.0432 -1.6371  0.2113
  699MOL0     H96450  -0.283   7.681   1.498 -0.3966 -1.9485  0.1044
  699MOL0     H96451  -0.379   7.610   1.625  0.0602 -0.8263 -0.3237
  699MOL0     H96452  -0.374   7.907   1.553 -0.9417  1.2384  2.2654
  699MOL0     H96453  -0.401   7.854   1.716  3.4449 -0.5361  0.4612
  699MOL0     H96454  -0.590   7.732   1.663 -0.7091  2.0831  0.4165
  699MOL0     H96455  -0.603   7.887   1.580 -2.0310 -0.3193 -0.2070
  699MOL0     H96456  -0.667   7.691   1.428 -0.2085 -0.9959 -1.0051
  699MOL0     H96457  -0.513   7.625   1.449 -3.0850 -1.9486  2.2370
  699MOL0     H96458  -0.458   7.898   1.148 -3.0641  0.0729 -0.4249
  699MOL0     H96459   0.074   7.639   1.862 -0.6836  1.4790  1.9621
  699MOL0     H96460   0.465   7.710   1.723  0.1673 -0.0781  0.7972
  699MOL0     H96461   0.433   7.802   1.873 -0.7903 -0.5147  1.5987
  699MOL0     H96462   0.369   7.634   1.857 -2.6130  2.1676  2.7362
  700MOL0     O96463   1.614   7.690   6.190  0.3358 -0.3426 -0.0601
  700MOL0     C96464   1.647   7.647   6.076  0.0505  0.2675 -0.5312
  700MOL0     O96465   1.585   7.555   6.010  0.9272  0.1490 -0.7670
  700MOL0     C96466   1.447   7.535   6.030 -0.1104 -0.0919 -0.1279
  700MOL0     C96467   1.348   7.621   5.966 -0.4394 -0.4453  0.0463
  700MOL0     C96468   1.218   7.589   5.965  0.9322  0.7676 -0.4080
  700MOL0     C96469   1.169   7.466   6.015 -0.5255 -0.2120 -0.8003
  700MOL0     O96470   1.033   7.444   6.018  0.2819  0.1028  0.0772
  700MOL0     C96471   0.969   7.332   6.079 -0.0767  0.4934  0.3804
  700MOL0     C96472   0.818   7.350   6.053  0.0353 -0.1616  0.5973
  700MOL0     C96473   0.772   7.321   5.915  0.0727 -0.4889  0.8927
  700MOL0     C96474   0.624   7.337   5.897  0.7855 -0.6178  0.5066
  700MOL0     C96475   0.575   7.313   5.751 -0.1203  0.7400 -0.4732
  700MOL0     C96476   0.433   7.243   5.744 -0.4411 -0.6547 -0.1575
  700MOL0     C96477   0.389   7.191   5.612 -0.1310 -0.6892 -0.3427
  700MOL0     C96478   0.242   7.153   5.600  0.5404 -0.0718  0.4609
  700MOL0     N96479   0.150   7.275   5.598  0.0618 -0.6724 -0.2121
  700MOL0     C96480   0.030   7.295   5.664 -0.0304 -0.5182 -0.0862
  700MOL0     C96481  -0.048   7.386   5.594 -0.2305 -0.0461 -0.4713
  700MOL0     C96482  -0.186   7.434   5.627 -1.0665  0.3809 -0.8614
  700MOL0     C96483  -0.171   7.557   5.706  0.0764 -0.6121  0.4338
  700MOL0     C96484  -0.148   7.680   5.613  0.0397  0.3276 -0.3847
  700MOL0     C96485  -0.211   7.803   5.666  0.0649 -0.4827 -0.5628
  700MOL0     O96486  -0.144   7.857   5.783 -0.1310  0.3182 -0.3148
  700MOL0     C96487  -0.215   7.862   5.897 -0.1312  0.0173  0.2743
  700MOL0     C96488  -0.280   7.985   5.927 -0.6930 -0.4764  0.1349
  700MOL0     C96489  -0.358   7.999   6.038  0.7592 -0.8383  0.2055
  700MOL0     C96490  -0.439   8.120   6.049 -0.0290  0.7851 -0.7387
  700MOL0     C96491  -0.350   7.897   6.137  1.1836  0.9551  0.2455
  700MOL0     C96492  -0.423   7.893   6.266  0.7044 -0.2954  0.0144
  700MOL0     O96493  -0.467   8.012   6.317  0.7469 -1.1950  0.3543
  700MOL0     C96494  -0.485   8.013   6.455  0.6483 -0.1182 -0.3857
  700MOL0     C96495  -0.615   8.049   6.507  0.1974 -0.0408 -0.4956
  700MOL0     C96496  -0.630   8.071   6.645 -0.9109  0.4648  0.3557
  700MOL0     C96497  -0.517   8.055   6.730  0.5780 -0.0185 -0.9647
  700MOL0     O96498  -0.544   8.089   6.863 -0.5442  0.5606  0.4261
  700MOL0     C96499  -0.478   8.016   6.968 -0.5469 -0.1541  0.7206
  700MOL0     C96500  -0.523   8.085   7.092 -0.0767  0.3316 -0.0375
  700MOL0     C96501  -0.444   8.038   7.213  0.1838 -0.0283 -0.4309
  700MOL0     C96502  -0.541   8.047   7.331  0.3520 -0.2279 -0.9629
  700MOL0     C96503  -0.480   8.009   7.469 -0.1293  0.5718 -0.3980
  700MOL0     C96504  -0.446   7.853   7.471  0.5898  0.1387 -0.8370
  700MOL0     C96505  -0.416   7.789   7.606  0.1688 -0.1868 -0.4270
  700MOL0     C96506  -0.298   7.858   7.682  1.1058  0.7556 -0.2360
  700MOL0    Cl96507  -0.203   7.755   7.793 -0.1020  0.1648 -0.1419
  700MOL0     C96508  -0.389   8.011   6.682  0.5128  0.0799 -0.4221
  700MOL0     C96509  -0.376   8.000   6.544  0.6541 -0.0628  0.0799
  700MOL0     O96510  -0.435   7.787   6.326 -0.6407  0.6664  0.0026
  700MOL0     C96511  -0.269   7.783   6.115  0.5606 -0.3096 -0.0170
  700MOL0     C96512  -0.219   7.758   5.989 -0.1271  0.0835 -0.0292
  700MOL0     N96513   0.039   7.434   5.493  0.5439 -0.2669  0.2299
  700MOL0     N96514   0.152   7.374   5.502 -0.0743 -0.6458 -0.2347
  700MOL0     C96515   1.266   7.381   6.070  0.2929 -0.0113 -1.0393
  700MOL0     C96516   1.403   7.411   6.072 -0.2188  1.0405 -0.1805
  700MOL0     C96517   1.777   7.708   6.022  0.8915 -0.3727 -0.2156
  700MOL0     C96518   1.810   7.842   6.051 -0.4229 -0.1094  0.0707
  700MOL0     C96519   1.920   7.908   5.994  0.3478  0.2266 -0.4091
  700MOL0     C96520   1.987   7.846   5.887 -0.1163 -0.5481 -0.9950
  700MOL0     O96521   2.081   7.927   5.830 -0.0664  0.0109 -0.0266
  700MOL0     C96522   2.130   7.887   5.694  0.5661 -0.0235  0.3842
  700MOL0     C96523   2.275   7.855   5.723 -0.5902 -0.3383 -0.0452
  700MOL0     C96524   2.349   7.805   5.595 -0.0463  0.2254  0.1136
  700MOL0     C96525   2.499   7.852   5.598 -0.0245 -0.2432 -0.0969
  700MOL0     C96526   2.583   7.756   5.530 -0.4361  0.3180  0.3687
  700MOL0     C96527   2.653   7.676   5.472  0.4549 -0.2461  0.3424
  700MOL0     C96528   1.952   7.715   5.866 -0.6374  0.6001 -0.9995
  700MOL0     C96529   1.854   7.640   5.936 -0.1863 -0.0252  0.3439
  700MOL0     C96530   1.823   7.509   5.864 -0.4241 -0.6674  0.7597
  700MOL0     H96531   1.375   7.720   5.933  1.6329 -0.3690  1.7353
  700MOL0     H96532   1.148   7.663   5.928 -0.3848 -1.4244 -2.5585
  700MOL0     H96533   0.974   7.336   6.189 -0.2072  0.8593  0.3756
  700MOL0     H96534   1.005   7.236   6.042 -0.3994  0.1216  1.0185
  700MOL0     H96535   0.762   7.287   6.123  1.5486 -1.3083  0.8309
  700MOL0     H96536   0.791   7.453   6.077  2.4292  0.7199 -0.1127
  700MOL0     H96537   0.820   7.392   5.847  0.5870 -1.3351  0.3457
  700MOL0     H96538   0.809   7.222   5.886  0.7961 -0.4454  1.6327
  700MOL0     H96539   0.575   7.262   5.959  2.5680 -0.5483  2.0785
  700MOL0     H96540   0.593   7.438   5.926  0.3851 -1.1731  2.1058
  700MOL0     H96541   0.646   7.241   5.710  0.3479  0.1038  1.3973
  700MOL0     H96542   0.559   7.406   5.695 -0.7624 -0.4817 -2.4139
  700MOL0     H96543   0.433   7.150   5.802 -5.6087 -1.0898 -0.4585
  700MOL0     H96544   0.360   7.308   5.791 -1.5187 -2.0961  0.2341
  700MOL0     H96545   0.451   7.106   5.581  0.4025  0.5708 -3.0693
  700MOL0     H96546   0.419   7.273   5.546  1.7971  1.0354  2.5040
  700MOL0     H96547   0.214   7.106   5.506 -0.8589  2.3854 -0.4498
  700MOL0     H96548   0.207   7.079   5.673 -0.5069 -2.9080 -2.6554
  700MOL0     H96549  -0.005   7.232   5.745 -4.8030  2.7042  0.7368
  700MOL0     H96550  -0.230   7.366   5.701  1.4752  1.8695  2.2552
  700MOL0     H96551  -0.260   7.447   5.548 -0.5870 -3.7744 -2.2716
  700MOL0     H96552  -0.256   7.578   5.771 -0.6014  1.5091 -1.0489
  700MOL0     H96553  -0.081   7.555   5.769  2.7969 -2.8494 -3.1076
  700MOL0     H96554  -0.044   7.704   5.588  0.1413  1.3869  0.9712
  700MOL0     H96555  -0.195   7.658   5.517 -0.8347  0.6681 -0.0431
  700MOL0     H96556  -0.213   7.880   5.589 -3.8471 -0.3848 -0.5599
  700MOL0     H96557  -0.316   7.776   5.686  0.3273 -0.9874  0.1779
  700MOL0     H96558  -0.287   8.065   5.854  0.1642 -1.0565 -0.5907
  700MOL0     H96559  -0.398   8.178   6.132  1.4603 -3.5422  1.9182
  700MOL0     H96560  -0.544   8.103   6.074  0.0962  1.3423  0.1901
  700MOL0     H96561  -0.440   8.181   5.959 -1.3195  0.0665 -1.2348
  700MOL0     H96562  -0.693   8.091   6.445  0.3808  0.1862 -0.5740
  700MOL0     H96563  -0.725   8.115   6.671 -2.8284  0.0858 -4.9135
  700MOL0     H96564  -0.498   7.908   6.974 -1.3226  0.0535  3.1834
  700MOL0     H96565  -0.371   8.034   6.961 -0.6174  1.3455  2.5319
  700MOL0     H96566  -0.526   8.193   7.079 -1.9725  0.3300  0.0276
  700MOL0     H96567  -0.627   8.052   7.107  1.0667 -2.3728  3.3378
  700MOL0     H96568  -0.349   8.089   7.233 -0.8158  0.6949  3.1795
  700MOL0     H96569  -0.422   7.931   7.204 -3.8807 -1.1210  0.4259
  700MOL0     H96570  -0.629   7.984   7.315  0.9819 -1.3427 -0.2049
  700MOL0     H96571  -0.571   8.147   7.364  0.1919 -0.7794  0.7005
  700MOL0     H96572  -0.384   8.060   7.480  3.3190 -4.2229 -3.6254
  700MOL0     H96573  -0.555   8.043   7.540 -0.5140  0.5278 -0.7717
  700MOL0     H96574  -0.367   7.834   7.398 -2.2158 -0.4958 -3.9311
  700MOL0     H96575  -0.539   7.805   7.441  1.2784 -1.1547 -0.9775
  700MOL0     H96576  -0.393   7.687   7.574 -1.1528 -0.3956 -0.7825
  700MOL0     H96577  -0.497   7.779   7.678  1.6347 -2.1224  1.0821
  700MOL0     H96578  -0.335   7.943   7.741 -0.8090  1.5064 -2.4084
  700MOL0     H96579  -0.225   7.893   7.608  1.2558  0.4793 -0.2213
  700MOL0     H96580  -0.301   7.993   6.743  0.1389 -0.2843  0.0210
  700MOL0     H96581  -0.277   7.979   6.506  2.0669  5.2340  0.0720
  700MOL0     H96582  -0.258   7.708   6.192  1.8154  2.3076  2.5351
  700MOL0     H96583  -0.162   7.669   5.966  1.3077  1.5105 -2.5257
  700MOL0     H96584   1.239   7.284   6.109  1.7209 -1.0362 -2.4967
  700MOL0     H96585   1.483   7.346   6.106  0.5238  2.4474  0.8818
  700MOL0     H96586   1.735   7.892   6.112 -3.8593 -3.1137 -1.3666
  700MOL0     H96587   1.944   7.993   6.057 -2.6585  0.4505  0.5882
  700MOL0     H96588   2.080   7.803   5.644  0.8700  1.2774 -2.2855
  700MOL0     H96589   2.126   7.975   5.629  0.8089 -0.3743 -0.1100
  700MOL0     H96590   2.274   7.773   5.796 -1.8089  0.1229  0.4652
  700MOL0     H96591   2.327   7.943   5.762  2.0358 -1.6003 -0.4471
  700MOL0     H96592   2.334   7.697   5.594  0.2392  0.0499  3.5056
  700MOL0     H96593   2.313   7.843   5.498 -0.9171  1.3639  0.8568
  700MOL0     H96594   2.531   7.855   5.703  2.4294 -0.1082 -0.7900
  700MOL0     H96595   2.505   7.953   5.557 -0.4953  0.3843  1.2822
  700MOL0     H96596   2.723   7.614   5.420 -0.4410 -0.2038 -0.9582
  700MOL0     H96597   2.009   7.669   5.785 -0.3972  1.2760 -1.2279
  700MOL0     H96598   1.789   7.435   5.936  1.0272  0.7082  2.9932
  700MOL0     H96599   1.755   7.512   5.778  3.9195 -0.1296 -3.0582
  700MOL0     H96600   1.914   7.461   5.826  1.6563  2.2231  1.6692
  701MOL0     O96601   2.630  11.336   7.874 -0.2098  0.0171  0.3967
  701MOL0     C96602   2.578  11.366   7.982  0.2365  0.5205  0.3408
  701MOL0     O96603   2.647  11.391   8.099 -0.4713 -0.7006  0.1538
  701MOL0     C96604   2.787  11.400   8.104  0.2301 -0.4443 -0.1746
  701MOL0     C96605   2.838  11.511   8.167  0.8637 -0.7656 -0.6482
  701MOL0     C96606   2.973  11.521   8.188  0.5660 -0.1081 -0.3259
  701MOL0     C96607   3.058  11.420   8.147 -0.7304 -0.4008 -0.4065
  701MOL0     O96608   3.191  11.437   8.180 -0.9203 -0.0397  0.1826
  701MOL0     C96609   3.299  11.360   8.117 -0.0926  0.1034  0.2081
  701MOL0     C96610   3.330  11.409   7.983 -0.5573 -0.5772 -0.1686
  701MOL0     C96611   3.427  11.321   7.906 -0.0418 -0.2127 -0.0922
  701MOL0     C96612   3.566  11.316   7.973  0.0430 -0.7773 -0.9592
  701MOL0     C96613   3.628  11.454   8.016 -0.2466  0.8342  0.3776
  701MOL0     C96614   3.644  11.536   7.894 -0.9853  0.2249  0.5732
  701MOL0     C96615   3.736  11.654   7.923 -0.6749 -0.0380 -0.1669
  701MOL0     C96616   3.715  11.765   7.816 -0.9008  0.0222  0.4121
  701MOL0     N96617   3.771  11.892   7.849  0.1445  0.1703  0.0204
  701MOL0     C96618   3.906  11.923   7.838  0.7946  0.7743 -0.7231
  701MOL0     C96619   3.912  12.039   7.903  0.2068 -0.1792  0.0253
  701MOL0     C96620   4.033  12.131   7.936 -0.3471  0.4067  0.1835
  701MOL0     C96621   4.120  12.159   7.808 -0.2132  0.0650 -0.0331
  701MOL0     C96622   4.213  12.284   7.834  0.6994 -0.2192 -0.7171
  701MOL0     C96623   4.280  12.315   7.701  0.3542  0.8176 -0.8514
  701MOL0     O96624   4.186  12.336   7.592 -0.1792 -0.0939  0.1160
  701MOL0     C96625   4.239  12.306   7.463  0.0322 -0.2538 -0.1414
  701MOL0     C96626   4.171  12.227   7.372 -0.2039 -0.4661  0.0132
  701MOL0     C96627   4.234  12.170   7.256 -0.5025 -0.5239  0.3809
  701MOL0     C96628   4.143  12.083   7.162  0.3192  0.1538  0.0542
  701MOL0     C96629   4.371  12.199   7.234 -0.4770  0.3474 -1.4278
  701MOL0     C96630   4.452  12.144   7.124  0.0020 -0.8214  0.5520
  701MOL0     O96631   4.427  12.015   7.087 -0.3262 -0.6406 -0.3305
  701MOL0     C96632   4.460  11.960   6.964 -0.6145 -0.2218 -0.1839
  701MOL0     C96633   4.371  11.880   6.891  0.2473 -0.1152 -0.5576
  701MOL0     C96634   4.400  11.832   6.766  0.2647 -0.2351  1.3361
  701MOL0     C96635   4.532  11.843   6.714  1.5371  0.4189  0.6345
  701MOL0     O96636   4.561  11.785   6.591  0.0566 -0.0045  0.0712
  701MOL0     C96637   4.483  11.678   6.539  0.2080  0.6440 -0.1108
  701MOL0     C96638   4.525  11.662   6.391  0.0593 -0.2004  0.6165
  701MOL0     C96639   4.460  11.529   6.350 -0.2127  0.3584 -0.5358
  701MOL0     C96640   4.505  11.509   6.205 -0.1925  0.6000 -0.5866
  701MOL0     C96641   4.453  11.384   6.152 -0.2288  0.6510  0.2442
  701MOL0     C96642   4.303  11.394   6.104 -0.7078  0.0399 -0.2306
  701MOL0     C96643   4.249  11.278   6.024  0.6360  0.4532 -0.3916
  701MOL0     C96644   4.103  11.296   5.980  0.5229  0.0147 -0.2944
  701MOL0    Cl96645   4.062  11.152   5.878  0.2684 -0.5421  0.0522
  701MOL0     C96646   4.630  11.904   6.792 -0.3126  0.2984 -0.0585
  701MOL0     C96647   4.591  11.971   6.907 -0.0133  0.0900 -0.2531
  701MOL0     O96648   4.517  12.220   7.061  0.2896  0.4485  0.5458
  701MOL0     C96649   4.431  12.287   7.327 -0.0813 -0.2641 -0.3672
  701MOL0     C96650   4.368  12.344   7.436  0.3155  0.0847 -0.1091
  701MOL0     N96651   3.788  12.086   7.937 -0.1805 -0.5835  0.9045
  701MOL0     N96652   3.700  11.990   7.910 -0.3183  0.8589 -0.1398
  701MOL0     C96653   3.009  11.311   8.071  0.3324  0.5405 -0.9770
  701MOL0     C96654   2.871  11.296   8.059  0.5229  0.3384 -0.1451
  701MOL0     C96655   2.432  11.362   8.000 -0.2951 -0.5514  0.4020
  701MOL0     C96656   2.370  11.307   8.115  0.1640  0.7317 -0.1700
  701MOL0     C96657   2.229  11.290   8.120 -0.3865 -1.0391 -0.0853
  701MOL0     C96658   2.148  11.345   8.021 -0.4444 -0.1046  0.5300
  701MOL0     O96659   2.012  11.340   8.015  0.6708 -0.3421 -0.2742
  701MOL0     C96660   1.946  11.419   8.123  0.2798  0.3593  0.3637
  701MOL0     C96661   1.798  11.431   8.076 -0.8809 -0.2805 -1.2296
  701MOL0     C96662   1.715  11.303   8.087 -0.4535  0.4861  0.3235
  701MOL0     C96663   1.727  11.220   8.210  0.3253 -0.2876 -0.5919
  701MOL0     C96664   1.709  11.307   8.332  0.5803  0.2518 -0.3517
  701MOL0     C96665   1.699  11.375   8.428 -0.1311 -0.3799 -0.2147
  701MOL0     C96666   2.211  11.416   7.919  0.1506 -0.5098  1.2479
  701MOL0     C96667   2.349  11.428   7.906  0.0455  0.4098 -0.0063
  701MOL0     C96668   2.414  11.513   7.803 -0.0404  0.4120 -0.1363
  701MOL0     H96669   2.774  11.585   8.214  1.8453 -1.0538  1.2171
  701MOL0     H96670   3.012  11.605   8.244 -1.0688 -0.8183  2.0643
  701MOL0     H96671   3.283  11.253   8.104  0.5026 -0.0169  0.4076
  701MOL0     H96672   3.394  11.370   8.172  2.4111 -1.3420 -3.4458
  701MOL0     H96673   3.232  11.408   7.934 -0.7096  1.2233  0.0249
  701MOL0     H96674   3.368  11.511   7.993  0.6251 -0.9247 -1.0587
  701MOL0     H96675   3.374  11.225   7.903 -2.1021  0.8870 -0.6697
  701MOL0     H96676   3.439  11.361   7.805 -0.0591 -2.3223 -0.9761
  701MOL0     H96677   3.562  11.259   8.066  0.9360 -2.1365 -1.7240
  701MOL0     H96678   3.624  11.258   7.900 -0.5526 -0.7107 -1.4951
  701MOL0     H96679   3.719  11.428   8.070 -0.6652  2.0936  1.7629
  701MOL0     H96680   3.554  11.502   8.081 -1.6699 -0.7867  0.0173
  701MOL0     H96681   3.686  11.476   7.813 -0.9073  2.4885 -1.1601
  701MOL0     H96682   3.545  11.574   7.866 -2.0227 -1.6926  1.4200
  701MOL0     H96683   3.839  11.617   7.928 -1.2831 -1.6376  2.5991
  701MOL0     H96684   3.716  11.691   8.024  0.6794  0.5852 -0.1143
  701MOL0     H96685   3.762  11.725   7.726 -0.6899 -1.9285  1.3419
  701MOL0     H96686   3.611  11.790   7.795 -0.2388  0.5309 -2.8835
  701MOL0     H96687   3.983  11.856   7.800  1.2556  1.3101 -0.7388
  701MOL0     H96688   4.096  12.080   8.010 -5.0726 -4.3708  1.4922
  701MOL0     H96689   4.001  12.230   7.970 -0.5188  0.4234 -0.0271
  701MOL0     H96690   4.177  12.072   7.774  0.6418  1.0383 -1.1526
  701MOL0     H96691   4.050  12.177   7.726  0.3377 -2.6210 -1.1996
  701MOL0     H96692   4.169  12.378   7.867  0.8360 -0.1351 -0.7736
  701MOL0     H96693   4.285  12.261   7.914 -0.5134 -2.0676 -0.0821
  701MOL0     H96694   4.338  12.407   7.715 -1.2214  2.3423 -3.5057
  701MOL0     H96695   4.350  12.233   7.683 -0.0404 -0.3631  2.3442
  701MOL0     H96696   4.073  12.194   7.404 -1.0884  0.9522 -1.0791
  701MOL0     H96697   4.071  12.145   7.108  1.4594  1.3450 -0.1483
  701MOL0     H96698   4.090  12.013   7.227  1.2850  1.0889  1.9578
  701MOL0     H96699   4.199  12.035   7.082  3.1303  2.5078  0.4253
  701MOL0     H96700   4.284  11.844   6.945 -0.8205  2.7266 -0.1686
  701MOL0     H96701   4.326  11.760   6.732  0.8003 -0.2130  0.0872
  701MOL0     H96702   4.505  11.587   6.596 -1.9073  0.5624  0.6437
  701MOL0     H96703   4.376  11.699   6.542  0.3090  1.3225 -0.9383
  701MOL0     H96704   4.501  11.751   6.331  2.9985  1.1218  1.2022
  701MOL0     H96705   4.634  11.665   6.389  0.0331  0.9202 -1.4769
  701MOL0     H96706   4.351  11.524   6.355 -0.2408 -2.2361 -1.8990
  701MOL0     H96707   4.509  11.450   6.408  0.9497  0.9512 -0.6745
  701MOL0     H96708   4.613  11.525   6.198 -0.5865  3.8688 -0.7137
  701MOL0     H96709   4.467  11.588   6.140 -2.7001 -0.8396 -1.0205
  701MOL0     H96710   4.515  11.369   6.064 -0.0061  2.5480  0.0329
  701MOL0     H96711   4.479  11.297   6.214  0.9313  1.4220  0.8754
  701MOL0     H96712   4.291  11.485   6.045  1.2366  2.0815  2.2508
  701MOL0     H96713   4.237  11.404   6.190 -0.1699 -0.8695  0.3114
  701MOL0     H96714   4.258  11.185   6.082 -0.2780 -1.1896 -2.7265
  701MOL0     H96715   4.304  11.257   5.932  0.8047  0.5239 -0.3067
  701MOL0     H96716   4.101  11.389   5.922  1.6919  0.5944  0.5601
  701MOL0     H96717   4.040  11.302   6.069  2.1008 -1.9640  1.0085
  701MOL0     H96718   4.729  11.913   6.748 -0.4443 -3.6457 -1.6161
  701MOL0     H96719   4.664  12.025   6.965 -1.0912  1.3385 -0.0154
  701MOL0     H96720   4.533  12.319   7.304 -0.0176  1.3610  1.8633
  701MOL0     H96721   4.420  12.415   7.500 -0.1461 -0.8865  1.3879
  701MOL0     H96722   3.069  11.233   8.026 -2.0190 -0.6001 -2.2560
  701MOL0     H96723   2.828  11.206   8.015  1.5560 -0.5921  0.6939
  701MOL0     H96724   2.427  11.277   8.202 -0.2124 -0.8302 -0.4188
  701MOL0     H96725   2.182  11.236   8.202 -0.9209 -0.9834 -0.3495
  701MOL0     H96726   1.965  11.371   8.220  2.7146 -2.0666 -1.1772
  701MOL0     H96727   1.988  11.519   8.132  1.4522  0.3185 -3.2257
  701MOL0     H96728   1.810  11.486   7.982  1.4791 -2.3040 -2.2237
  701MOL0     H96729   1.754  11.503   8.147  1.0940  1.2365 -1.4642
  701MOL0     H96730   1.610  11.329   8.070 -0.9354  0.1433  2.5650
  701MOL0     H96731   1.747  11.235   8.007  1.0018  0.8103  0.6034
  701MOL0     H96732   1.820  11.164   8.226 -2.2034 -4.5221  1.1130
  701MOL0     H96733   1.649  11.143   8.207 -0.1238  0.0881  0.6347
  701MOL0     H96734   1.685  11.427   8.520 -0.8088 -0.8621 -0.0305
  701MOL0     H96735   2.146  11.457   7.842  2.5814  0.5959 -0.3399
  701MOL0     H96736   2.474  11.593   7.848 -1.3403 -0.0211  2.5574
  701MOL0     H96737   2.480  11.453   7.740 -0.4727  0.1815 -0.3741
  701MOL0     H96738   2.333  11.545   7.737 -0.3371  1.0668  0.5357
  702MOL0     O96739   8.853   7.569   5.809 -0.3285 -0.0825 -0.1428
  702MOL0     C96740   8.835   7.644   5.715 -0.3320 -0.1106 -0.1561
  702MOL0     O96741   8.939   7.679   5.625  0.3355  0.7836  0.3603
  702MOL0     C96742   9.043   7.588   5.616  0.0117  0.3225  0.1890
  702MOL0     C96743   9.015   7.451   5.601 -0.2040 -0.0529 -0.5066
  702MOL0     C96744   9.121   7.356   5.590  0.7431  0.0409  0.0574
  702MOL0     C96745   9.250   7.398   5.588  0.4833 -1.3183  0.0202
  702MOL0     O96746   9.346   7.300   5.591  0.0560 -0.6615  0.3851
  702MOL0     C96747   9.476   7.340   5.535 -0.0543 -0.3706  0.1011
  702MOL0     C96748   9.553   7.208   5.499 -0.0511 -0.3660 -0.0904
  702MOL0     C96749   9.703   7.245   5.447  0.0928 -0.4453 -0.0475
  702MOL0     C96750   9.788   7.286   5.577 -0.1563  0.6079  0.0806
  702MOL0     C96751   9.894   7.178   5.608  0.7098 -0.2549 -0.7305
  702MOL0     C96752  10.007   7.183   5.506  0.3330 -0.0214  0.5849
  702MOL0     C96753  10.124   7.095   5.550  0.3444  0.0106  0.1234
  702MOL0     C96754  10.241   7.074   5.438  0.3234 -0.3613 -0.3556
  702MOL0     N96755  10.325   7.193   5.431 -0.6110  0.5151 -0.2664
  702MOL0     C96756  10.452   7.191   5.483  0.2357  0.5504  0.5090
  702MOL0     C96757  10.495   7.318   5.467  0.4357  0.0764  0.6733
  702MOL0     C96758  10.625   7.371   5.513 -0.1646  0.0763 -0.7644
  702MOL0     C96759  10.656   7.500   5.448 -0.2894 -0.4551  0.7557
  702MOL0     C96760  10.766   7.567   5.531  0.2978 -0.0416 -0.2357
  702MOL0     C96761  10.920   7.532   5.491 -0.7037  0.4301  0.0554
  702MOL0     O96762  10.963   7.538   5.358  0.5999 -0.0881  0.6531
  702MOL0     C96763  10.969   7.649   5.283 -0.0396 -0.4890  0.1387
  702MOL0     C96764  10.968   7.648   5.147 -0.4908 -0.6106 -0.5353
  702MOL0     C96765  10.981   7.766   5.069  0.7179  0.7810 -0.9101
  702MOL0     C96766  10.969   7.749   4.920  0.4383 -0.4359 -0.0426
  702MOL0     C96767  11.005   7.895   5.135  0.2727 -0.9882 -0.7812
  702MOL0     C96768  11.057   8.014   5.070  0.5556 -0.4322 -0.1170
  702MOL0     O96769  11.136   8.099   5.143  0.4150 -0.7278 -0.5111
  702MOL0     C96770  11.177   8.219   5.084 -0.0527 -0.0366 -1.0421
  702MOL0     C96771  11.100   8.340   5.097 -0.5865  0.6271 -0.9854
  702MOL0     C96772  11.136   8.458   5.024  1.0656  1.0400  0.1818
  702MOL0     C96773  11.237   8.453   4.925  1.0389 -0.1009 -0.7290
  702MOL0     O96774  11.241   8.568   4.844 -0.2783  0.6404 -0.0152
  702MOL0     C96775  11.368   8.579   4.786  0.2020  0.3447  0.2747
  702MOL0     C96776  11.471   8.638   4.897  0.5766  0.2210  0.0396
  702MOL0     C96777  11.624   8.600   4.864  0.0052  0.0484  0.1048
  702MOL0     C96778  11.729   8.670   4.944 -0.9364  0.1002  0.4989
  702MOL0     C96779  11.868   8.617   4.922 -0.0837 -0.1636 -0.5147
  702MOL0     C96780  11.973   8.691   5.007 -0.0344  0.3771  0.3677
  702MOL0     C96781  12.114   8.643   4.973 -0.1927 -0.3769 -0.5004
  702MOL0     C96782  12.226   8.727   5.023  0.1331 -0.9451  0.8157
  702MOL0    Cl96783  12.255   8.876   4.920 -0.1853 -0.0613  0.0065
  702MOL0     C96784  11.310   8.326   4.910 -0.6141  0.5364 -0.4508
  702MOL0     C96785  11.283   8.222   4.997  0.2011 -0.0899  0.1865
  702MOL0     O96786  11.031   8.025   4.951  0.6274 -0.1998 -0.0430
  702MOL0     C96787  11.008   7.891   5.274  0.4588  0.0773 -0.1298
  702MOL0     C96788  10.984   7.775   5.350  0.3787 -0.1344  0.1867
  702MOL0     N96789  10.391   7.396   5.419  0.0048 -0.4254 -0.2004
  702MOL0     N96790  10.288   7.318   5.406  0.3548 -0.3454 -0.4849
  702MOL0     C96791   9.275   7.541   5.605 -0.5217  0.6170  0.2398
  702MOL0     C96792   9.172   7.633   5.611 -0.7861 -0.4080 -0.8130
  702MOL0     C96793   8.692   7.690   5.696  0.2727  0.5694  0.2905
  702MOL0     C96794   8.588   7.637   5.783  0.0156  0.0620  0.5815
  702MOL0     C96795   8.455   7.684   5.783 -0.3399 -0.1794 -0.2688
  702MOL0     C96796   8.427   7.783   5.686  0.7988 -0.2125 -0.5294
  702MOL0     O96797   8.296   7.832   5.693 -0.3468  0.6164 -0.2470
  702MOL0     C96798   8.249   7.938   5.599 -0.8307 -0.5399 -0.0520
  702MOL0     C96799   8.212   7.878   5.461 -0.5940  0.7924  0.2010
  702MOL0     C96800   8.130   7.750   5.493  0.1257  0.1257  0.4501
  702MOL0     C96801   8.049   7.722   5.373  0.2324 -0.4469 -0.8526
  702MOL0     C96802   7.975   7.599   5.396  0.0431  0.0547  0.0713
  702MOL0     C96803   7.912   7.501   5.429 -0.3395  0.0061  0.3157
  702MOL0     C96804   8.526   7.836   5.605 -0.5280  0.1983  0.2432
  702MOL0     C96805   8.660   7.800   5.613  0.3172 -0.2952 -0.1176
  702MOL0     C96806   8.761   7.879   5.541 -1.1405 -0.2510  0.7738
  702MOL0     H96807   8.919   7.401   5.612 -0.3865  0.7078  1.9379
  702MOL0     H96808   9.097   7.252   5.607 -0.7711  0.0892 -1.4177
  702MOL0     H96809   9.531   7.394   5.612  3.3331 -0.3183 -2.1813
  702MOL0     H96810   9.471   7.408   5.449 -3.6340 -1.8467 -1.0556
  702MOL0     H96811   9.542   7.136   5.581 -2.1677 -1.8994 -1.6206
  702MOL0     H96812   9.501   7.160   5.416  0.6565 -2.3545  0.5556
  702MOL0     H96813   9.743   7.162   5.387 -1.9431  1.6706 -4.9426
  702MOL0     H96814   9.691   7.329   5.379  0.7195  0.3612  0.8292
  702MOL0     H96815   9.831   7.383   5.548  0.9053  0.4240  0.9730
  702MOL0     H96816   9.719   7.297   5.661 -1.8434 -0.7453 -1.0643
  702MOL0     H96817   9.842   7.082   5.603  0.2498 -0.1728  1.3334
  702MOL0     H96818   9.923   7.179   5.714 -1.0474 -1.2525 -0.1855
  702MOL0     H96819   9.975   7.146   5.409  0.9553  1.0428 -0.0437
  702MOL0     H96820  10.050   7.282   5.489 -0.0981  0.4699  2.1668
  702MOL0     H96821  10.088   6.993   5.567  2.4718 -1.0346 -1.1296
  702MOL0     H96822  10.179   7.136   5.635 -2.0898  2.2283  0.7531
  702MOL0     H96823  10.304   6.986   5.456  1.3786  0.9636  3.1938
  702MOL0     H96824  10.190   7.057   5.343  0.4006  1.1401 -0.6910
  702MOL0     H96825  10.503   7.105   5.525 -0.9795 -0.8191 -0.7189
  702MOL0     H96826  10.702   7.294   5.502 -0.1213  0.1089 -0.6846
  702MOL0     H96827  10.615   7.385   5.621  2.1694  0.8691 -0.5854
  702MOL0     H96828  10.680   7.485   5.342 -2.6968  0.7745 -0.0378
  702MOL0     H96829  10.575   7.573   5.446  1.2803  1.4447  2.1218
  702MOL0     H96830  10.757   7.676   5.525 -0.3575  0.0794  1.9560
  702MOL0     H96831  10.760   7.548   5.638 -1.4455  0.2987 -0.2459
  702MOL0     H96832  10.986   7.595   5.552 -3.6970  1.7059  2.2084
  702MOL0     H96833  10.938   7.428   5.520  1.5118  0.8189  0.2899
  702MOL0     H96834  10.954   7.559   5.086  0.8144  1.4324 -4.1638
  702MOL0     H96835  11.055   7.796   4.872  0.9337 -0.2797  0.9584
  702MOL0     H96836  10.887   7.809   4.879  1.6480  0.1188 -1.7384
  702MOL0     H96837  10.967   7.648   4.878  1.4026 -0.6032  0.2811
  702MOL0     H96838  11.018   8.356   5.167 -0.5468 -0.4444 -0.6802
  702MOL0     H96839  11.088   8.549   5.059  1.8087 -0.0786  4.6754
  702MOL0     H96840  11.400   8.481   4.752  2.2163  1.4104 -1.1267
  702MOL0     H96841  11.366   8.643   4.697  1.8280  1.8657  1.2600
  702MOL0     H96842  11.457   8.746   4.901  0.3010  0.2403 -1.1971
  702MOL0     H96843  11.458   8.589   4.994  3.2680 -1.3690 -0.2855
  702MOL0     H96844  11.651   8.631   4.763  1.3504  3.7560  1.4173
  702MOL0     H96845  11.635   8.492   4.878  1.0711 -0.1924 -2.1730
  702MOL0     H96846  11.695   8.654   5.047 -1.4222 -1.1972  0.1619
  702MOL0     H96847  11.728   8.776   4.917  2.6474 -0.6339 -3.6238
  702MOL0     H96848  11.859   8.512   4.954 -1.9104  0.6880  2.1113
  702MOL0     H96849  11.890   8.621   4.815  2.4715 -0.8630 -0.0688
  702MOL0     H96850  11.955   8.675   5.114 -0.0780  0.2890  0.3471
  702MOL0     H96851  11.968   8.797   4.981  3.4581  0.2073 -1.5571
  702MOL0     H96852  12.120   8.630   4.865 -0.6802  0.5606 -0.6527
  702MOL0     H96853  12.130   8.551   5.029 -0.6952  0.4608  1.0950
  702MOL0     H96854  12.314   8.663   5.032  0.1941 -0.6866  2.3242
  702MOL0     H96855  12.209   8.754   5.128  2.6531  0.1219  1.0099
  702MOL0     H96856  11.387   8.308   4.836 -0.1374  0.4096  0.0724
  702MOL0     H96857  11.342   8.132   4.981 -0.1107 -0.3747  0.6318
  702MOL0     H96858  11.028   7.975   5.340  0.4632 -0.0824  0.0705
  702MOL0     H96859  10.984   7.784   5.458  0.6419  0.0122  0.1746
  702MOL0     H96860   9.369   7.592   5.622 -1.5141  2.0075  1.8012
  702MOL0     H96861   9.181   7.741   5.620 -2.0256 -0.2418 -1.3665
  702MOL0     H96862   8.602   7.555   5.853  1.2348 -0.0357  0.2496
  702MOL0     H96863   8.376   7.636   5.839 -0.9380  0.0285 -0.9199
  702MOL0     H96864   8.151   7.972   5.634  0.0742  0.9736  1.1144
  702MOL0     H96865   8.316   8.023   5.582  1.3169 -2.2241 -0.3597
  702MOL0     H96866   8.295   7.854   5.393  0.5402  0.9856  1.4611
  702MOL0     H96867   8.152   7.948   5.403  1.7176 -0.7402 -4.5167
  702MOL0     H96868   8.190   7.663   5.520 -2.8824 -1.4457  2.6114
  702MOL0     H96869   8.067   7.775   5.579 -0.5167  5.0517 -1.1096
  702MOL0     H96870   8.115   7.692   5.291 -1.6286 -1.3231 -2.0955
  702MOL0     H96871   7.992   7.809   5.340  1.1130 -0.2248 -1.8512
  702MOL0     H96872   7.876   7.403   5.453 -1.6215 -0.0261 -1.5137
  702MOL0     H96873   8.504   7.911   5.530 -0.1991 -0.0262 -0.0818
  702MOL0     H96874   8.827   7.934   5.608  0.2646 -1.5719  0.5331
  702MOL0     H96875   8.823   7.827   5.467  0.9640  1.5764  1.1682
  702MOL0     H96876   8.707   7.948   5.476 -2.8828 -2.3147 -0.1090
  703MOL0     O96877   3.696   3.489   3.403  0.1441 -0.3712 -0.1625
  703MOL0     C96878   3.729   3.476   3.286  0.3197  0.2743  0.7952
  703MOL0     O96879   3.860   3.476   3.252 -0.0342 -0.5826  0.3354
  703MOL0     C96880   3.961   3.512   3.330 -0.4196  0.9883 -0.1662
  703MOL0     C96881   3.981   3.640   3.389 -0.0151 -0.2262  0.6455
  703MOL0     C96882   4.088   3.678   3.475 -0.1571  0.7670  0.3514
  703MOL0     C96883   4.189   3.589   3.484 -1.1859  0.1480  0.2733
  703MOL0     O96884   4.312   3.645   3.526 -0.4413  0.6232 -0.4891
  703MOL0     C96885   4.425   3.547   3.557  0.3198 -0.4321  0.1920
  703MOL0     C96886   4.546   3.616   3.628 -0.4302 -0.4415 -0.1396
  703MOL0     C96887   4.508   3.688   3.762  0.0679 -0.1016  0.8680
  703MOL0     C96888   4.645   3.715   3.841  0.2108 -0.2767  0.2692
  703MOL0     C96889   4.620   3.790   3.976  0.2895 -0.5065 -0.3872
  703MOL0     C96890   4.567   3.697   4.083  0.1970  0.5001 -0.0374
  703MOL0     C96891   4.572   3.765   4.215 -0.4636 -0.6180 -0.4049
  703MOL0     C96892   4.534   3.681   4.343 -0.8440  0.0877  0.1464
  703MOL0     N96893   4.652   3.623   4.416 -0.3216  0.4065  0.6178
  703MOL0     C96894   4.742   3.531   4.379 -0.3689 -0.3248 -0.1240
  703MOL0     C96895   4.852   3.549   4.455  0.0957 -0.0722  0.4842
  703MOL0     C96896   4.972   3.466   4.450  0.0653  0.3932  0.1689
  703MOL0     C96897   4.984   3.390   4.320 -0.1503 -0.8556 -0.8822
  703MOL0     C96898   5.022   3.491   4.211  0.4662 -0.7167 -0.9267
  703MOL0     C96899   5.033   3.429   4.073 -0.2815  0.6481 -0.6447
  703MOL0     O96900   5.029   3.540   3.980  0.6238 -0.5092 -0.0685
  703MOL0     C96901   5.137   3.632   3.968 -0.0061 -0.3265 -0.1455
  703MOL0     C96902   5.105   3.747   3.899 -0.3534  0.0896  0.3893
  703MOL0     C96903   5.200   3.855   3.871  1.0911 -0.4888  0.9865
  703MOL0     C96904   5.141   3.972   3.802  0.4821  0.1748  0.0066
  703MOL0     C96905   5.332   3.842   3.900  0.3711 -0.4396  0.0609
  703MOL0     C96906   5.439   3.938   3.871  0.0033 -0.1006 -0.3953
  703MOL0     O96907   5.557   3.891   3.813 -0.0562  0.0146 -0.8145
  703MOL0     C96908   5.612   3.972   3.728  0.6687  0.8497 -0.3038
  703MOL0     C96909   5.727   4.037   3.771 -0.2366 -0.0575 -0.2309
  703MOL0     C96910   5.787   4.138   3.694  0.2511  0.3223 -0.0634
  703MOL0     C96911   5.721   4.171   3.576 -0.2660 -0.6969  0.1736
  703MOL0     O96912   5.761   4.270   3.490 -0.1639  0.2182  0.0681
  703MOL0     C96913   5.848   4.363   3.536  1.0500  0.9934  0.3047
  703MOL0     C96914   5.875   4.458   3.430  0.2861 -0.4687  0.0766
  703MOL0     C96915   5.755   4.544   3.375 -0.6969  0.3251 -0.0213
  703MOL0     C96916   5.804   4.611   3.249  0.1604 -0.5404  0.5740
  703MOL0     C96917   5.694   4.687   3.166 -1.1729 -0.2527 -0.8079
  703MOL0     C96918   5.750   4.752   3.039 -0.6772  0.0281  0.1472
  703MOL0     C96919   5.656   4.840   2.968 -0.7968 -0.0880  0.0620
  703MOL0     C96920   5.688   4.847   2.819  0.0902  0.3697 -0.6044
  703MOL0    Cl96921   5.586   4.971   2.735 -0.2553 -0.1250 -0.1418
  703MOL0     C96922   5.611   4.099   3.529 -1.4036 -0.0969 -0.5603
  703MOL0     C96923   5.562   3.991   3.600  0.2217 -0.2062  0.5971
  703MOL0     O96924   5.402   4.058   3.869  0.8441 -0.1269 -1.0718
  703MOL0     C96925   5.360   3.727   3.978 -0.0237 -0.6958  0.3131
  703MOL0     C96926   5.272   3.628   4.017  1.2091  0.8827 -0.4723
  703MOL0     N96927   4.830   3.657   4.539 -0.0819 -0.2717  0.6148
  703MOL0     N96928   4.709   3.697   4.518  0.1632 -0.5626  0.0298
  703MOL0     C96929   4.180   3.461   3.428 -0.6239  0.7479  0.2849
  703MOL0     C96930   4.066   3.420   3.355 -0.0514  1.3204  0.0145
  703MOL0     C96931   3.624   3.455   3.178  0.3048 -0.1138 -0.1786
  703MOL0     C96932   3.661   3.442   3.046 -0.6824 -0.5326  0.6458
  703MOL0     C96933   3.576   3.411   2.939 -0.1744 -0.2472 -0.2012
  703MOL0     C96934   3.440   3.400   2.961  0.1191  0.1087 -0.3204
  703MOL0     O96935   3.361   3.381   2.849  0.7590  0.6028 -0.6719
  703MOL0     C96936   3.214   3.405   2.875 -0.3290 -0.4064  0.9232
  703MOL0     C96937   3.139   3.403   2.740  0.2770  0.4097  0.5131
  703MOL0     C96938   3.181   3.503   2.625 -1.0193 -0.1190  0.2790
  703MOL0     C96939   3.111   3.469   2.490 -0.0582  0.1877  0.1486
  703MOL0     C96940   3.180   3.542   2.379  0.6633 -0.2746 -0.5158
  703MOL0     C96941   3.246   3.606   2.308 -0.3944  0.1414 -0.4688
  703MOL0     C96942   3.393   3.431   3.098 -0.3521  1.2248 -0.1322
  703MOL0     C96943   3.484   3.448   3.203 -0.8592 -0.2879  0.0554
  703MOL0     C96944   3.425   3.463   3.351 -0.0077  0.5532  0.0869
  703MOL0     H96945   3.901   3.711   3.371 -0.0756 -0.9460 -2.4652
  703MOL0     H96946   4.090   3.777   3.520  1.1609  1.2479 -0.6856
  703MOL0     H96947   4.452   3.498   3.463 -1.4498 -0.5813 -0.2808
  703MOL0     H96948   4.390   3.473   3.631 -2.5592  0.7583  0.1636
  703MOL0     H96949   4.629   3.552   3.659  0.5698 -0.1348 -2.0567
  703MOL0     H96950   4.574   3.691   3.554 -0.9154 -0.6203 -0.5147
  703MOL0     H96951   4.464   3.787   3.746  1.0349  0.3219  0.7703
  703MOL0     H96952   4.429   3.629   3.809 -2.7267  2.9727  0.3505
  703MOL0     H96953   4.702   3.623   3.858 -0.8651 -1.0509 -0.2296
  703MOL0     H96954   4.705   3.782   3.778  0.2481  1.7813  2.3800
  703MOL0     H96955   4.546   3.870   3.964  0.7899 -0.3459 -3.1009
  703MOL0     H96956   4.711   3.839   4.012  1.5207 -1.5867 -1.8572
  703MOL0     H96957   4.470   3.654   4.054 -0.2598 -0.2025  2.2663
  703MOL0     H96958   4.636   3.614   4.100 -0.5973 -0.0134  0.8154
  703MOL0     H96959   4.505   3.852   4.216  0.1401 -0.0895  2.7614
  703MOL0     H96960   4.665   3.820   4.229 -2.0075  1.8033  1.0075
  703MOL0     H96961   4.490   3.752   4.414 -2.1840 -1.5516  1.0458
  703MOL0     H96962   4.459   3.602   4.336 -1.7144  0.3586  3.9880
  703MOL0     H96963   4.715   3.446   4.317 -3.5234  0.4801 -0.0513
  703MOL0     H96964   4.966   3.393   4.531  1.9126  0.1105  0.0965
  703MOL0     H96965   5.069   3.515   4.462  0.2615 -0.5804  3.5302
  703MOL0     H96966   5.070   3.323   4.329 -0.6120 -1.1867  2.1244
  703MOL0     H96967   4.895   3.331   4.298 -2.3920  0.9578  2.4463
  703MOL0     H96968   4.937   3.559   4.204 -0.1766 -1.6496 -3.0853
  703MOL0     H96969   5.108   3.548   4.245 -1.3527  2.7815 -1.7756
  703MOL0     H96970   5.122   3.365   4.073 -0.3911  0.4953 -0.4373
  703MOL0     H96971   4.950   3.363   4.049 -1.1239  1.1871  0.6739
  703MOL0     H96972   5.006   3.769   3.861  0.0516 -0.8619 -1.3427
  703MOL0     H96973   5.037   3.959   3.770  0.0643  1.8390  0.5868
  703MOL0     H96974   5.204   3.992   3.715  0.9066  0.9976  0.4919
  703MOL0     H96975   5.135   4.069   3.853  2.3938  1.8671 -2.6606
  703MOL0     H96976   5.765   4.023   3.872  0.4889  0.3257 -0.4364
  703MOL0     H96977   5.884   4.181   3.719 -0.3208  1.2374  0.6287
  703MOL0     H96978   5.816   4.409   3.630 -0.0771  0.0174  0.4167
  703MOL0     H96979   5.942   4.310   3.555  1.3223  1.4670  0.3113
  703MOL0     H96980   5.947   4.529   3.471 -2.9891  4.0088 -1.2054
  703MOL0     H96981   5.918   4.392   3.353  1.7255 -0.3000  0.7135
  703MOL0     H96982   5.706   4.611   3.448 -0.6947  2.8765 -2.2102
  703MOL0     H96983   5.669   4.486   3.339 -1.1080  0.2768  0.9885
  703MOL0     H96984   5.853   4.543   3.178 -0.9977 -0.3422 -0.4448
  703MOL0     H96985   5.881   4.687   3.266  1.7862 -2.1968  0.8929
  703MOL0     H96986   5.621   4.608   3.147 -1.9679  0.1889  0.3131
  703MOL0     H96987   5.662   4.771   3.228  0.1466 -1.7719  2.1564
  703MOL0     H96988   5.784   4.669   2.976 -0.4247 -0.0737  0.4144
  703MOL0     H96989   5.840   4.808   3.068 -0.0437  0.8353 -2.9821
  703MOL0     H96990   5.670   4.939   3.013  0.5934  0.1431 -0.8240
  703MOL0     H96991   5.557   4.795   2.973 -1.5710  1.2547 -2.0731
  703MOL0     H96992   5.666   4.746   2.785 -1.3230  0.7542 -0.8701
  703MOL0     H96993   5.795   4.869   2.811  1.0004 -2.5692  1.8722
  703MOL0     H96994   5.571   4.117   3.429  0.4922 -0.6344 -1.4505
  703MOL0     H96995   5.486   3.927   3.556 -1.1734  1.5583  0.3133
  703MOL0     H96996   5.463   3.724   4.010 -0.7985  1.4011  3.5288
  703MOL0     H96997   5.336   3.557   4.068 -0.1097  0.0924  0.1217
  703MOL0     H96998   4.262   3.390   3.422 -0.3900  1.1340 -1.9264
  703MOL0     H96999   4.058   3.326   3.301  1.2256  1.3006 -0.1631
  703MOL0     H97000   3.764   3.450   3.012 -1.2833  0.0808 -1.1765
  703MOL0     H97001   3.612   3.400   2.837  1.2506 -1.6580  0.4115
  703MOL0     H97002   3.174   3.335   2.949  1.9972 -0.8263  1.8576
  703MOL0     H97003   3.212   3.504   2.920  0.7823  0.0144  0.0901
  703MOL0     H97004   3.032   3.427   2.744  0.5792  1.7940  1.1422
  703MOL0     H97005   3.155   3.301   2.705 -0.4516  0.8293 -1.1347
  703MOL0     H97006   3.154   3.607   2.645 -1.1381  0.3652 -2.1236
  703MOL0     H97007   3.290   3.501   2.618 -0.7287  4.4216  0.4790
  703MOL0     H97008   3.003   3.483   2.499  0.0451  1.8891 -0.9151
  703MOL0     H97009   3.132   3.362   2.482  0.7380  0.3530 -0.1010
  703MOL0     H97010   3.324   3.641   2.243 -0.2925 -1.4200 -1.2326
  703MOL0     H97011   3.289   3.430   3.128 -0.4879  0.4229 -0.6135
  703MOL0     H97012   3.480   3.396   3.417  1.1207  0.8851 -0.4862
  703MOL0     H97013   3.434   3.569   3.378  0.5916  1.4212 -3.0506
  703MOL0     H97014   3.318   3.440   3.352 -0.0919  0.9441  0.3409
  704MOL0     O97015   8.969   3.285   7.641  0.6227 -0.3585  0.4636
  704MOL0     C97016   8.945   3.382   7.565 -0.3962 -0.3299 -0.8759
  704MOL0     O97017   9.011   3.401   7.456  0.2645 -0.5241  0.0842
  704MOL0     C97018   9.127   3.324   7.426 -0.7141 -0.0578 -0.3836
  704MOL0     C97019   9.127   3.222   7.332 -0.2680  0.1449  0.5007
  704MOL0     C97020   9.244   3.142   7.317  0.0413  0.1475  0.7689
  704MOL0     C97021   9.357   3.169   7.385  0.4891  0.2695  0.6841
  704MOL0     O97022   9.459   3.068   7.382  0.5201 -0.0048  0.9377
  704MOL0     C97023   9.586   3.105   7.437  0.7842 -0.6608 -0.0495
  704MOL0     C97024   9.684   2.997   7.400 -0.3530  0.4149  0.3968
  704MOL0     C97025   9.820   3.033   7.445 -0.5028 -0.2277 -0.0365
  704MOL0     C97026   9.918   2.922   7.415  0.1587 -0.3573  0.1946
  704MOL0     C97027  10.065   2.969   7.427 -0.5759 -0.6509 -0.5930
  704MOL0     C97028  10.168   2.885   7.353 -0.0996  0.0594 -0.3658
  704MOL0     C97029  10.306   2.941   7.357  0.2672 -0.2978 -0.1014
  704MOL0     C97030  10.400   2.870   7.263 -0.2915 -0.4499 -0.2226
  704MOL0     N97031  10.541   2.929   7.264 -0.0791  0.4191  0.3092
  704MOL0     C97032  10.623   2.975   7.369 -1.1564  0.5875 -0.0235
  704MOL0     C97033  10.729   3.032   7.317  0.0533 -0.6900 -0.3033
  704MOL0     C97034  10.861   3.067   7.384 -0.1337  0.7303 -0.6226
  704MOL0     C97035  10.968   2.954   7.352 -0.2382 -0.3155 -0.1986
  704MOL0     C97036  11.083   2.963   7.454 -1.0019 -0.0451  0.6625
  704MOL0     C97037  11.193   2.858   7.419 -0.7742  0.5549  0.7239
  704MOL0     O97038  11.287   2.876   7.518 -0.4223  0.5797 -0.2614
  704MOL0     C97039  11.377   2.780   7.540 -0.0340  0.0311  0.1449
  704MOL0     C97040  11.401   2.664   7.466  0.1798 -0.1910 -0.3435
  704MOL0     C97041  11.495   2.576   7.507  0.4637 -0.0685 -0.0668
  704MOL0     C97042  11.506   2.450   7.425 -0.7276  0.5230  0.3045
  704MOL0     C97043  11.569   2.597   7.623  0.0272 -0.8211  0.8654
  704MOL0     C97044  11.673   2.501   7.669  0.2149 -0.2382  0.1501
  704MOL0     O97045  11.678   2.476   7.803  1.0038 -0.8503 -0.9480
  704MOL0     C97046  11.768   2.382   7.846  0.5477  0.9824  0.4706
  704MOL0     C97047  11.722   2.259   7.898  0.0828  0.2469 -0.0526
  704MOL0     C97048  11.819   2.175   7.959 -0.8084  0.4015 -0.1619
  704MOL0     C97049  11.961   2.203   7.957  0.4046 -0.0721 -0.6585
  704MOL0     O97050  12.067   2.122   7.999  1.2112  0.6526  0.3548
  704MOL0     C97051  12.031   1.998   8.062  0.3690 -0.4818 -0.1392
  704MOL0     C97052  12.159   1.933   8.125  0.2596  0.4636 -0.3563
  704MOL0     C97053  12.231   2.038   8.220 -0.0147  0.4052  0.1271
  704MOL0     C97054  12.324   1.953   8.308  0.1950  0.3143  0.8783
  704MOL0     C97055  12.412   2.034   8.399 -0.1746 -0.3810  0.5194
  704MOL0     C97056  12.510   1.956   8.487  0.7199 -0.3980 -0.1969
  704MOL0     C97057  12.595   1.848   8.417 -0.0017 -0.2416  1.4277
  704MOL0     C97058  12.704   1.776   8.508  0.0442 -0.6949 -0.5883
  704MOL0    Cl97059  12.639   1.713   8.663  0.5774  0.1853  0.2602
  704MOL0     C97060  11.998   2.322   7.904 -0.9559 -0.8993 -0.0796
  704MOL0     C97061  11.901   2.407   7.853 -1.0070 -0.4073  0.4998
  704MOL0     O97062  11.766   2.484   7.596 -0.1369 -0.4386  0.1060
  704MOL0     C97063  11.555   2.718   7.693 -0.3421  0.3699 -0.1113
  704MOL0     C97064  11.462   2.806   7.649  0.4099 -1.2202 -1.1167
  704MOL0     N97065  10.716   3.021   7.183 -0.5179  0.0975 -0.0163
  704MOL0     N97066  10.601   2.966   7.147 -0.7162  0.3953  0.2642
  704MOL0     C97067   9.360   3.285   7.465  0.5213  0.1369  0.1225
  704MOL0     C97068   9.248   3.363   7.486  0.6002 -0.3026 -0.6224
  704MOL0     C97069   8.832   3.474   7.598 -0.0326 -0.0540  0.4128
  704MOL0     C97070   8.709   3.409   7.611 -0.1923 -0.0925  0.8409
  704MOL0     C97071   8.594   3.485   7.643  0.0107  0.7758 -0.0211
  704MOL0     C97072   8.600   3.627   7.664  0.0639  0.2735  0.2477
  704MOL0     O97073   8.486   3.695   7.696 -0.4453  0.5549  0.4174
  704MOL0     C97074   8.477   3.824   7.621  0.0312  0.6414 -0.1553
  704MOL0     C97075   8.336   3.882   7.649 -0.1400  0.6891  0.4285
  704MOL0     C97076   8.310   3.886   7.801 -0.3733  0.2214  0.8652
  704MOL0     C97077   8.209   3.986   7.838 -0.4151  0.2099 -0.3856
  704MOL0     C97078   8.149   3.982   7.971  0.2300  0.1040  0.5412
  704MOL0     C97079   8.099   3.995   8.084  0.3798 -1.0218  0.5663
  704MOL0     C97080   8.728   3.691   7.664  0.5748 -0.0514  0.2334
  704MOL0     C97081   8.840   3.617   7.633 -0.4274  0.6904  0.3642
  704MOL0     C97082   8.980   3.674   7.648  0.0454 -0.0359  0.6574
  704MOL0     H97083   9.028   3.200   7.293 -0.5853  0.0775  1.3240
  704MOL0     H97084   9.233   3.051   7.259 -1.6601  1.0833 -0.4998
  704MOL0     H97085   9.569   3.111   7.545  0.7212 -0.1262 -0.0887
  704MOL0     H97086   9.621   3.199   7.395  2.1868 -0.5534  1.2831
  704MOL0     H97087   9.649   2.908   7.453 -1.5791  0.0211 -1.0187
  704MOL0     H97088   9.686   2.970   7.294 -2.1964  0.6898  0.2582
  704MOL0     H97089   9.859   3.111   7.380 -3.0486  1.7064  0.5646
  704MOL0     H97090   9.827   3.066   7.549 -1.3197 -0.7423  0.1983
  704MOL0     H97091   9.890   2.834   7.474 -4.5765  1.2575  0.7461
  704MOL0     H97092   9.892   2.884   7.315 -0.5949  0.1710  0.1808
  704MOL0     H97093  10.097   2.992   7.529 -1.5705  2.6049 -0.8991
  704MOL0     H97094  10.063   3.068   7.380 -5.0121 -0.7834 -1.0565
  704MOL0     H97095  10.174   2.783   7.390  2.8407  1.4128  3.6663
  704MOL0     H97096  10.139   2.879   7.247 -2.5521 -1.1504  0.3155
  704MOL0     H97097  10.342   2.916   7.457  1.5989  1.7668 -0.0111
  704MOL0     H97098  10.302   3.049   7.339 -1.0984 -0.4355 -0.7827
  704MOL0     H97099  10.410   2.765   7.289 -2.2157 -0.9174 -1.1453
  704MOL0     H97100  10.374   2.866   7.156  3.1305  0.1906 -1.1860
  704MOL0     H97101  10.606   2.958   7.475 -0.6180 -0.6702 -0.1272
  704MOL0     H97102  10.847   3.064   7.492  0.8754  0.1714 -0.4914
  704MOL0     H97103  10.895   3.168   7.358  1.5160  0.1185 -0.9926
  704MOL0     H97104  10.910   2.862   7.341 -3.3783  0.9200  3.4410
  704MOL0     H97105  11.015   2.969   7.255  1.2574 -0.5480  0.4556
  704MOL0     H97106  11.128   3.062   7.450  0.6486 -0.7691  0.3874
  704MOL0     H97107  11.059   2.940   7.558  2.1996 -1.9180  1.1026
  704MOL0     H97108  11.143   2.761   7.407 -0.3987  0.5908 -1.4912
  704MOL0     H97109  11.230   2.887   7.320 -0.1091  2.4543  1.4838
  704MOL0     H97110  11.362   2.649   7.366  0.3722  0.4798 -0.5167
  704MOL0     H97111  11.458   2.458   7.327 -3.5799 -1.0204  1.4443
  704MOL0     H97112  11.446   2.383   7.488  3.2895 -0.6268  3.3986
  704MOL0     H97113  11.606   2.404   7.424 -0.1963  1.6744 -0.2432
  704MOL0     H97114  11.618   2.231   7.894  0.4280 -0.9837 -1.9336
  704MOL0     H97115  11.803   2.071   7.987  2.7976 -0.4379 -0.7146
  704MOL0     H97116  11.953   2.015   8.138  3.0505 -0.8771  2.9257
  704MOL0     H97117  11.990   1.932   7.985  0.9361  2.5020 -3.2342
  704MOL0     H97118  12.119   1.857   8.193  1.0408  1.1861  0.9288
  704MOL0     H97119  12.217   1.892   8.042 -0.7654  0.1251 -0.9323
  704MOL0     H97120  12.159   2.089   8.285 -1.6473 -0.9780 -0.5040
  704MOL0     H97121  12.290   2.106   8.159 -1.3914  0.0807 -1.6604
  704MOL0     H97122  12.376   1.888   8.237 -1.0103 -0.1706  0.4139
  704MOL0     H97123  12.270   1.874   8.360  2.6815 -4.1359 -2.5396
  704MOL0     H97124  12.472   2.106   8.341 -0.4204 -0.7532 -0.2054
  704MOL0     H97125  12.356   2.096   8.469 -0.8198 -1.5774  1.0876
  704MOL0     H97126  12.440   1.906   8.555 -0.6088 -0.8269 -1.8298
  704MOL0     H97127  12.574   2.021   8.549 -0.4070  0.0226  0.5636
  704MOL0     H97128  12.649   1.889   8.331 -0.0256 -0.9485  1.0622
  704MOL0     H97129  12.531   1.761   8.400  3.1117 -3.2486  3.6149
  704MOL0     H97130  12.787   1.841   8.537  1.5829 -3.2996  1.2518
  704MOL0     H97131  12.750   1.698   8.448  1.3215 -0.1046 -0.4004
  704MOL0     H97132  12.104   2.343   7.889 -1.2573  0.3186 -0.5969
  704MOL0     H97133  11.937   2.500   7.810  2.3048 -1.3879  0.9019
  704MOL0     H97134  11.616   2.749   7.777  1.3069 -0.7293 -0.8374
  704MOL0     H97135  11.442   2.895   7.708 -0.4234 -1.8745 -0.3760
  704MOL0     H97136   9.450   3.316   7.518 -1.2538  0.2354  3.3085
  704MOL0     H97137   9.256   3.453   7.547 -0.9472 -1.0933  0.8167
  704MOL0     H97138   8.695   3.305   7.585 -0.8247  0.4673 -1.3091
  704MOL0     H97139   8.503   3.430   7.662  1.0865 -0.9216  0.5284
  704MOL0     H97140   8.557   3.892   7.653 -1.3483  1.7467  1.0975
  704MOL0     H97141   8.489   3.811   7.513  1.5910 -1.9370  0.2579
  704MOL0     H97142   8.265   3.814   7.602  0.7611  0.6376 -0.9278
  704MOL0     H97143   8.331   3.981   7.603 -4.0154 -0.5928 -2.3395
  704MOL0     H97144   8.293   3.782   7.833  3.8739 -0.8122  0.3581
  704MOL0     H97145   8.394   3.917   7.864  0.0275  2.4401 -0.6523
  704MOL0     H97146   8.134   3.974   7.760  2.1707 -3.4906 -2.6575
  704MOL0     H97147   8.244   4.090   7.834 -1.8556  0.7546  0.4856
  704MOL0     H97148   8.038   4.015   8.170  1.2849 -1.9654  1.4515
  704MOL0     H97149   8.731   3.796   7.691 -0.6489  0.2733 -0.7973
  704MOL0     H97150   8.996   3.694   7.754 -0.2453  1.1953  0.4857
  704MOL0     H97151   9.064   3.619   7.604  0.1915  0.1837  0.6657
  704MOL0     H97152   8.964   3.774   7.609 -1.1871  0.1068  1.4630
  705MOL0     O97153   0.885   2.747   6.786  0.6199  0.3941  0.1003
  705MOL0     C97154   0.837   2.823   6.704 -0.9215 -0.6156 -0.6556
  705MOL0     O97155   0.900   2.898   6.616 -0.1614  0.3533 -0.8413
  705MOL0     C97156   1.039   2.892   6.599 -0.3879  0.5059  0.1608
  705MOL0     C97157   1.129   2.869   6.711 -0.0729 -0.5452  0.1190
  705MOL0     C97158   1.270   2.861   6.689 -0.1305 -0.7092 -0.0749
  705MOL0     C97159   1.328   2.891   6.565  0.1999 -0.8357  0.3418
  705MOL0     O97160   1.463   2.900   6.526  0.0278  0.1404 -0.7746
  705MOL0     C97161   1.567   2.886   6.623  0.2384 -0.4155  0.3919
  705MOL0     C97162   1.690   2.861   6.540 -0.4139 -0.3457  0.7127
  705MOL0     C97163   1.814   2.863   6.622 -0.4608  0.2256 -0.4695
  705MOL0     C97164   1.943   2.852   6.538  0.0710 -0.3635 -0.0683
  705MOL0     C97165   1.952   2.737   6.446  0.2879  0.2329  0.0777
  705MOL0     C97166   2.083   2.688   6.381 -0.9208  0.3883 -0.4921
  705MOL0     C97167   2.101   2.742   6.236 -0.3199  0.0579  0.2979
  705MOL0     C97168   2.013   2.689   6.119 -0.1991  0.1425  0.4053
  705MOL0     N97169   2.039   2.544   6.104  0.2793  0.1760 -0.6037
  705MOL0     C97170   1.949   2.451   6.131 -0.1817  0.0391 -0.0128
  705MOL0     C97171   2.010   2.328   6.113  0.1892 -0.2712  0.3265
  705MOL0     C97172   1.932   2.195   6.126  0.5009 -0.3198  1.3529
  705MOL0     C97173   1.899   2.131   5.986  0.3714  0.2200 -0.9418
  705MOL0     C97174   1.826   2.001   6.009 -0.6010  0.1464 -1.0783
  705MOL0     C97175   1.782   1.949   5.874  0.1037  0.5873 -0.0046
  705MOL0     O97176   1.665   2.020   5.834  0.3888  0.4059  0.0891
  705MOL0     C97177   1.544   1.954   5.867 -0.2070  0.0102  0.3836
  705MOL0     C97178   1.429   2.027   5.828  0.3342  0.2662 -0.0102
  705MOL0     C97179   1.298   1.991   5.864 -0.5863 -0.1136 -0.1965
  705MOL0     C97180   1.187   2.066   5.795 -1.1911  0.0756  0.1444
  705MOL0     C97181   1.292   1.889   5.962  0.0792  1.9646 -0.5081
  705MOL0     C97182   1.164   1.841   6.015  1.3808 -1.1997  0.1781
  705MOL0     O97183   1.152   1.704   6.053  0.6915 -0.9248  0.6016
  705MOL0     C97184   1.043   1.666   6.126 -0.0426  0.1480  1.1921
  705MOL0     C97185   0.916   1.662   6.077  0.1072  0.2058 -0.1301
  705MOL0     C97186   0.808   1.641   6.162  0.1027 -0.5331 -0.1593
  705MOL0     C97187   0.834   1.591   6.295  0.1165  0.1259  0.6400
  705MOL0     O97188   0.726   1.561   6.377  0.2151 -0.2484 -0.5143
  705MOL0     C97189   0.596   1.539   6.320  0.1184  0.0816  0.2508
  705MOL0     C97190   0.517   1.486   6.441  0.5802  0.3197 -0.5773
  705MOL0     C97191   0.586   1.367   6.522 -0.5727 -0.9039 -0.8303
  705MOL0     C97192   0.607   1.403   6.670 -0.1014  0.1220  0.8278
  705MOL0     C97193   0.734   1.475   6.723 -0.2367  0.6625  0.6604
  705MOL0     C97194   0.738   1.473   6.885  0.1597 -0.0822 -0.2288
  705MOL0     C97195   0.857   1.553   6.942 -0.4712  0.4821 -0.2338
  705MOL0     C97196   0.838   1.559   7.087  0.1184  0.0390  0.2990
  705MOL0    Cl97197   0.969   1.628   7.190  0.3569  0.2650  0.2930
  705MOL0     C97198   0.962   1.588   6.345 -0.1343 -0.5907 -0.3180
  705MOL0     C97199   1.064   1.628   6.254  0.1020  1.6396 -0.5876
  705MOL0     O97200   1.082   1.931   6.040 -0.3115 -0.4009 -0.3952
  705MOL0     C97201   1.409   1.818   5.998  0.5084  0.4092  0.6931
  705MOL0     C97202   1.530   1.853   5.956 -0.3917 -0.7267 -0.0620
  705MOL0     N97203   2.134   2.359   6.058 -0.2176  0.9615  0.7595
  705MOL0     N97204   2.150   2.484   6.054  0.1836  0.4293 -0.1163
  705MOL0     C97205   1.239   2.922   6.455 -0.6145  0.2582 -0.6265
  705MOL0     C97206   1.099   2.910   6.474  0.7298  0.6102  0.5034
  705MOL0     C97207   0.701   2.851   6.726 -0.6923 -1.0912  0.6337
  705MOL0     C97208   0.609   2.745   6.729  0.6311  1.0450 -0.4182
  705MOL0     C97209   0.468   2.760   6.748  0.1001  0.9672  0.0834
  705MOL0     C97210   0.418   2.883   6.769  0.3222 -0.4450 -0.0313
  705MOL0     O97211   0.285   2.912   6.780  0.0481 -0.4363 -0.4217
  705MOL0     C97212   0.232   2.963   6.658 -0.2813 -0.8596  0.5316
  705MOL0     C97213   0.224   3.120   6.654  0.4062  0.5160 -0.3043
  705MOL0     C97214   0.133   3.187   6.760 -0.0931 -0.2926 -0.4803
  705MOL0     C97215   0.205   3.236   6.882 -0.6078 -0.6299 -0.4246
  705MOL0     C97216   0.221   3.380   6.883 -0.3314  0.7177 -1.0517
  705MOL0     C97217   0.245   3.496   6.883  0.1008 -0.0302  0.5774
  705MOL0     C97218   0.506   2.991   6.779 -0.6468  0.6268  0.0480
  705MOL0     C97219   0.653   2.980   6.761 -0.0873  0.2011 -0.3997
  705MOL0     C97220   0.733   3.111   6.768 -0.5628  0.1067 -0.7876
  705MOL0     H97221   1.100   2.863   6.816 -2.4244 -0.3208 -0.4584
  705MOL0     H97222   1.329   2.845   6.778 -0.0622 -0.5654 -0.0934
  705MOL0     H97223   1.536   2.797   6.678 -2.0741  0.4833  0.6747
  705MOL0     H97224   1.582   2.971   6.690 -3.5543 -0.3372  1.3684
  705MOL0     H97225   1.688   2.762   6.492  2.0530 -0.7194  1.2124
  705MOL0     H97226   1.705   2.940   6.467  0.8053  1.1292  2.4781
  705MOL0     H97227   1.825   2.960   6.671  2.6554 -0.1362 -0.2422
  705MOL0     H97228   1.813   2.776   6.688  1.3750  0.5419  0.0302
  705MOL0     H97229   1.941   2.933   6.464  0.9546  0.8200  1.1593
  705MOL0     H97230   2.030   2.870   6.602 -1.1220  4.3441  0.6368
  705MOL0     H97231   1.880   2.755   6.365 -0.3755  0.9076  0.7970
  705MOL0     H97232   1.909   2.646   6.490  2.4340 -0.8696  0.0258
  705MOL0     H97233   2.166   2.721   6.444 -1.3452 -1.2027  1.0025
  705MOL0     H97234   2.090   2.579   6.381  4.9772  0.4434  0.4727
  705MOL0     H97235   2.209   2.741   6.218 -0.6060  2.1613 -2.2130
  705MOL0     H97236   2.086   2.850   6.235  2.9053  0.5857 -0.1651
  705MOL0     H97237   1.911   2.711   6.152 -0.2422  1.8168 -0.7325
  705MOL0     H97238   2.033   2.747   6.028  1.0969  1.3418  1.4101
  705MOL0     H97239   1.848   2.470   6.163 -0.6259  0.2165 -1.4512
  705MOL0     H97240   1.838   2.222   6.175 -0.4645  1.1536 -1.1238
  705MOL0     H97241   1.980   2.115   6.182  1.2637 -0.3708  0.6379
  705MOL0     H97242   1.841   2.205   5.930  0.1568  1.0607  0.3359
  705MOL0     H97243   1.985   2.107   5.923  1.2593  0.9371 -0.0456
  705MOL0     H97244   1.900   1.936   6.058 -2.3497 -0.6295  0.6968
  705MOL0     H97245   1.746   2.006   6.083  2.1105 -3.8917  2.6719
  705MOL0     H97246   1.858   1.973   5.799  1.0265 -0.7827  0.4475
  705MOL0     H97247   1.776   1.840   5.878  3.7604  0.2887  0.7439
  705MOL0     H97248   1.446   2.110   5.760  2.6225 -2.5592 -3.2039
  705MOL0     H97249   1.226   2.113   5.705 -3.5262  1.0174 -0.4605
  705MOL0     H97250   1.154   2.147   5.861  0.6376 -0.0812  1.3368
  705MOL0     H97251   1.110   1.991   5.776  0.5346 -2.4614  2.4254
  705MOL0     H97252   0.894   1.697   5.976  1.3039 -0.7472 -0.7491
  705MOL0     H97253   0.710   1.666   6.121  0.5128  1.0047 -0.2383
  705MOL0     H97254   0.548   1.633   6.289 -0.2749 -0.0845  0.3565
  705MOL0     H97255   0.598   1.466   6.240  0.2650  0.4930 -0.1257
  705MOL0     H97256   0.494   1.568   6.510 -1.9009 -2.4259  2.1241
  705MOL0     H97257   0.419   1.445   6.415 -0.5445  2.8085 -0.5130
  705MOL0     H97258   0.684   1.332   6.489  0.6929  0.2916  1.3885
  705MOL0     H97259   0.524   1.278   6.511 -1.6330 -0.0832 -1.8745
  705MOL0     H97260   0.605   1.303   6.714  1.4620 -0.9670 -1.3745
  705MOL0     H97261   0.517   1.458   6.697  0.3572  0.6819  1.2659
  705MOL0     H97262   0.817   1.424   6.674 -1.0262  3.2897 -3.9296
  705MOL0     H97263   0.746   1.576   6.683  4.0192  0.1833  0.2098
  705MOL0     H97264   0.733   1.373   6.929 -1.6717 -0.4577 -1.1867
  705MOL0     H97265   0.645   1.522   6.914 -0.7349 -1.4904 -0.6148
  705MOL0     H97266   0.863   1.655   6.901 -2.1971  1.7492  2.4044
  705MOL0     H97267   0.955   1.515   6.913 -0.1004  2.2412 -1.4972
  705MOL0     H97268   0.816   1.460   7.127  0.5271 -0.5186 -0.7870
  705MOL0     H97269   0.759   1.632   7.106 -0.6547 -0.4892 -0.8151
  705MOL0     H97270   0.965   1.565   6.451 -2.9375  0.7965  0.1614
  705MOL0     H97271   1.166   1.621   6.288 -0.5844  1.5416  1.5960
  705MOL0     H97272   1.401   1.739   6.072  1.4410  0.1152  0.4976
  705MOL0     H97273   1.616   1.794   5.987  1.8091  0.0242 -4.1785
  705MOL0     H97274   1.279   2.929   6.355  1.6416  2.3623  0.3487
  705MOL0     H97275   1.031   2.906   6.389 -0.0506  0.7596  1.1020
  705MOL0     H97276   0.640   2.641   6.727 -0.0863  0.8096  0.1342
  705MOL0     H97277   0.403   2.673   6.746  1.6283 -0.2264 -1.7179
  705MOL0     H97278   0.309   2.948   6.582 -0.1073  0.2151  0.4722
  705MOL0     H97279   0.142   2.909   6.629  0.8691 -2.1613 -0.7129
  705MOL0     H97280   0.178   3.140   6.557 -0.0320  0.3556 -0.1335
  705MOL0     H97281   0.320   3.166   6.629  0.0322  2.3080  1.2922
  705MOL0     H97282   0.076   3.270   6.717 -2.0252 -0.1392  2.1509
  705MOL0     H97283   0.050   3.124   6.793 -0.5359  0.8874  0.7657
  705MOL0     H97284   0.303   3.191   6.901  0.5983  0.5765 -3.3033
  705MOL0     H97285   0.136   3.199   6.959 -2.4623  0.8161 -1.3007
  705MOL0     H97286   0.244   3.603   6.887  0.8647 -0.0234  0.6553
  705MOL0     H97287   0.470   3.092   6.797  0.2162  0.8834  0.3637
  705MOL0     H97288   0.755   3.144   6.667  0.3841 -3.0963 -1.7546
  705MOL0     H97289   0.679   3.186   6.828  0.4841 -1.0184  1.7052
  705MOL0     H97290   0.823   3.096   6.828 -0.1775  2.9960 -0.5248
  706MOL0     O97291   7.814   4.820   2.293 -0.9154 -0.3518  0.7792
  706MOL0     C97292   7.929   4.774   2.287  0.8381 -0.2300 -0.9149
  706MOL0     O97293   7.997   4.751   2.168  0.1801  0.9329 -0.4403
  706MOL0     C97294   7.940   4.781   2.051  1.0660  0.7973  0.3516
  706MOL0     C97295   7.986   4.890   1.982  0.7747 -1.2419 -0.0163
  706MOL0     C97296   7.918   4.930   1.864  1.1938 -0.5498 -0.8530
  706MOL0     C97297   7.816   4.857   1.798 -0.5639 -0.0635  0.1440
  706MOL0     O97298   7.772   4.902   1.675  0.2843 -0.3437  0.6414
  706MOL0     C97299   7.697   4.815   1.593 -0.5521 -0.0481  0.2490
  706MOL0     C97300   7.554   4.858   1.609 -0.4475 -0.8138 -0.2199
  706MOL0     C97301   7.474   4.825   1.482  0.5320 -0.1044  0.0606
  706MOL0     C97302   7.342   4.894   1.471  0.7994 -0.1737 -0.2268
  706MOL0     C97303   7.290   4.873   1.331 -0.3700 -0.0588 -0.5432
  706MOL0     C97304   7.150   4.934   1.307  0.5957  0.2820 -0.0602
  706MOL0     C97305   7.102   4.916   1.166 -0.3394 -0.2573 -0.2319
  706MOL0     C97306   7.114   4.773   1.110 -0.2247 -0.6826 -0.6504
  706MOL0     N97307   7.043   4.756   0.978 -1.0613  0.1519 -0.2160
  706MOL0     C97308   7.084   4.826   0.863  0.3575  0.9047  0.8546
  706MOL0     C97309   6.998   4.757   0.773 -0.8323  1.1413 -0.1127
  706MOL0     C97310   6.992   4.791   0.625  0.9068  0.0413 -0.1006
  706MOL0     C97311   6.853   4.805   0.557  0.2326  0.6814 -0.1478
  706MOL0     C97312   6.858   4.856   0.414 -0.3623  0.0619  0.5505
  706MOL0     C97313   6.957   4.776   0.327  0.4812 -0.0289 -0.5105
  706MOL0     O97314   6.948   4.809   0.189  0.0148 -0.5164  0.2823
  706MOL0     C97315   7.012   4.738   0.095  0.2105 -1.5008  0.8093
  706MOL0     C97316   6.958   4.735  -0.033  1.2215  0.9047 -0.0462
  706MOL0     C97317   7.001   4.644  -0.134  0.9041  0.2148  0.1272
  706MOL0     C97318   6.917   4.640  -0.262  0.4502  0.3883  0.0820
  706MOL0     C97319   7.107   4.553  -0.106 -0.4348  0.1509  0.9476
  706MOL0     C97320   7.175   4.464  -0.201  0.1790 -0.5705  0.1714
  706MOL0     O97321   7.288   4.402  -0.157  0.1287  0.0267 -0.5182
  706MOL0     C97322   7.346   4.287  -0.212  0.4078 -0.5572 -0.1343
  706MOL0     C97323   7.350   4.252  -0.347 -0.1604  0.1100  0.4813
  706MOL0     C97324   7.422   4.142  -0.391 -0.4183  0.6258 -1.5837
  706MOL0     C97325   7.497   4.057  -0.296  1.0750  0.0305  0.4327
  706MOL0     O97326   7.549   3.938  -0.358  1.3080 -0.0700 -0.8627
  706MOL0     C97327   7.582   3.833  -0.270  0.7146  0.3892  0.1085
  706MOL0     C97328   7.624   3.713  -0.348  0.4827 -0.2601  0.1809
  706MOL0     C97329   7.616   3.573  -0.281  0.1454 -0.6895  0.0303
  706MOL0     C97330   7.480   3.507  -0.287  0.8497 -0.2992  0.7453
  706MOL0     C97331   7.458   3.390  -0.205  0.0957  0.2231 -0.0242
  706MOL0     C97332   7.379   3.281  -0.274 -0.1099  0.5093 -0.1028
  706MOL0     C97333   7.350   3.152  -0.188  0.1668  0.2984 -0.4149
  706MOL0     C97334   7.294   3.038  -0.270  0.8396  0.1960  0.7325
  706MOL0    Cl97335   7.113   3.016  -0.284 -0.2888  0.0914  0.4360
  706MOL0     C97336   7.495   4.097  -0.161 -0.1048 -0.3331  0.2728
  706MOL0     C97337   7.415   4.205  -0.118 -0.9455 -0.3896 -0.0250
  706MOL0     O97338   7.109   4.424  -0.292  0.0927 -0.3193 -0.4077
  706MOL0     C97339   7.164   4.564   0.023 -0.5344 -0.3446 -0.0104
  706MOL0     C97340   7.125   4.658   0.121  0.7712  0.2780  1.2011
  706MOL0     N97341   6.920   4.663   0.837  0.3813 -1.4878  0.2641
  706MOL0     N97342   6.948   4.664   0.956  0.3954 -0.2515 -0.1619
  706MOL0     C97343   7.768   4.739   1.868  0.7059 -0.1860 -1.1445
  706MOL0     C97344   7.834   4.707   1.995 -0.0040 -0.2837  0.5553
  706MOL0     C97345   8.008   4.744   2.406 -1.0841  0.1313 -0.6054
  706MOL0     C97346   8.148   4.743   2.387 -0.1814 -0.4590  0.0037
  706MOL0     C97347   8.237   4.719   2.493  0.2669 -0.5079  0.0402
  706MOL0     C97348   8.189   4.680   2.622 -0.2567  0.4802 -0.7021
  706MOL0     O97349   8.279   4.645   2.719  0.5548 -0.9785  0.0601
  706MOL0     C97350   8.323   4.764   2.791  0.1960 -0.2680  0.0250
  706MOL0     C97351   8.469   4.786   2.781 -0.7002 -0.7407  0.4082
  706MOL0     C97352   8.518   4.897   2.675  0.1262  0.1496 -0.1170
  706MOL0     C97353   8.674   4.930   2.672  0.4411 -0.2578 -0.4078
  706MOL0     C97354   8.769   4.830   2.610 -0.7013 -0.1527  0.1924
  706MOL0     C97355   8.855   4.767   2.546  0.4282 -0.2716  0.1889
  706MOL0     C97356   8.054   4.677   2.641 -1.0041  0.4124 -0.4545
  706MOL0     C97357   7.969   4.713   2.538  0.5177 -0.8224 -0.5537
  706MOL0     C97358   7.824   4.712   2.584  0.4390 -0.7594 -0.7258
  706MOL0     H97359   8.079   4.940   2.007 -0.0726  1.9907 -2.5363
  706MOL0     H97360   7.948   5.017   1.806  1.7628 -1.1884 -1.5326
  706MOL0     H97361   7.712   4.711   1.623 -3.3888 -0.2300  1.3112
  706MOL0     H97362   7.716   4.832   1.487 -2.2479 -0.4471 -0.1452
  706MOL0     H97363   7.512   4.795   1.687 -2.5971  1.5043  0.6518
  706MOL0     H97364   7.548   4.966   1.626 -0.3386 -0.9095  0.4522
  706MOL0     H97365   7.531   4.845   1.391 -0.6304  2.2210 -0.2541
  706MOL0     H97366   7.443   4.720   1.480 -1.1818  0.3730  0.0053
  706MOL0     H97367   7.268   4.865   1.547  0.3685  2.0578  0.2582
  706MOL0     H97368   7.368   4.998   1.493  1.8628 -0.2146 -1.1731
  706MOL0     H97369   7.288   4.766   1.310 -4.5649 -0.7890  2.3245
  706MOL0     H97370   7.350   4.926   1.256 -3.3382  1.7053 -1.9146
  706MOL0     H97371   7.082   4.874   1.368  2.2167 -1.6994 -0.0896
  706MOL0     H97372   7.148   5.038   1.341 -0.4996  0.0861  0.5015
  706MOL0     H97373   7.167   4.984   1.110  1.2698 -2.2675 -0.9189
  706MOL0     H97374   7.000   4.956   1.165 -0.3517  0.1608  3.5155
  706MOL0     H97375   7.220   4.748   1.096  0.3693 -0.1660  2.2194
  706MOL0     H97376   7.077   4.695   1.177 -1.8087  2.6334  2.7435
  706MOL0     H97377   7.159   4.901   0.838  2.1635 -1.1151 -0.1413
  706MOL0     H97378   7.042   4.711   0.570  3.0307 -0.2738  2.1020
  706MOL0     H97379   7.057   4.876   0.604  0.1627  0.0598 -2.6725
  706MOL0     H97380   6.797   4.711   0.566 -1.5782  1.5731 -1.4099
  706MOL0     H97381   6.803   4.880   0.618  0.7901 -0.6477  2.0646
  706MOL0     H97382   6.755   4.873   0.380 -0.6357 -1.9957  0.2287
  706MOL0     H97383   6.892   4.960   0.423  0.3236 -0.2152  1.2227
  706MOL0     H97384   7.055   4.811   0.359 -0.6348  0.8319  2.2961
  706MOL0     H97385   6.955   4.671   0.357  1.7280 -0.3222 -1.3941
  706MOL0     H97386   6.869   4.796  -0.044 -0.3273 -1.5768 -2.7359
  706MOL0     H97387   6.836   4.565  -0.263 -0.8152  1.6178 -3.1548
  706MOL0     H97388   6.976   4.610  -0.349 -1.1945 -2.5974 -0.1608
  706MOL0     H97389   6.870   4.732  -0.298  1.8947  1.2330  0.2770
  706MOL0     H97390   7.311   4.313  -0.427  1.9436 -0.9453 -1.4537
  706MOL0     H97391   7.426   4.118  -0.496  1.1572  2.7088 -2.0698
  706MOL0     H97392   7.655   3.863  -0.193 -2.6171 -1.3247  4.3563
  706MOL0     H97393   7.500   3.801  -0.205  0.9534 -3.0364 -1.1069
  706MOL0     H97394   7.562   3.701  -0.437  1.6730 -1.6235 -0.5189
  706MOL0     H97395   7.727   3.725  -0.385 -0.0580  0.2343 -1.2319
  706MOL0     H97396   7.619   3.593  -0.174 -1.1078  2.5451 -0.4450
  706MOL0     H97397   7.701   3.507  -0.303  1.2909 -0.5987  3.5245
  706MOL0     H97398   7.461   3.477  -0.390  2.0156 -1.8772  0.9621
  706MOL0     H97399   7.397   3.578  -0.280 -1.4836 -2.7123 -0.6771
  706MOL0     H97400   7.555   3.348  -0.178 -0.2994 -1.5651 -1.1616
  706MOL0     H97401   7.409   3.420  -0.112  2.1537  4.2073  0.0013
  706MOL0     H97402   7.439   3.249  -0.359 -1.6435  0.9763 -1.4107
  706MOL0     H97403   7.290   3.333  -0.310  0.1487  0.9609 -0.0926
  706MOL0     H97404   7.277   3.172  -0.109  1.5594 -0.4038  1.1037
  706MOL0     H97405   7.438   3.129  -0.127  0.0780  0.5789 -0.1778
  706MOL0     H97406   7.330   2.947  -0.222  1.1808  0.1687  0.4276
  706MOL0     H97407   7.325   3.039  -0.375 -3.7561 -0.7402 -0.8476
  706MOL0     H97408   7.557   4.045  -0.088  0.5152 -1.4375 -0.9847
  706MOL0     H97409   7.403   4.211  -0.011  0.1132 -0.1455  0.0935
  706MOL0     H97410   7.256   4.512   0.049  0.8384  0.9563 -1.8858
  706MOL0     H97411   7.164   4.640   0.221  0.3174  0.4030  1.4043
  706MOL0     H97412   7.692   4.674   1.827  1.1292 -0.5074 -1.4323
  706MOL0     H97413   7.807   4.612   2.040 -1.5545 -2.3307 -4.0451
  706MOL0     H97414   8.189   4.763   2.288 -0.6039 -0.0733 -0.1012
  706MOL0     H97415   8.343   4.717   2.466  0.4338  0.9083  0.4715
  706MOL0     H97416   8.259   4.851   2.779 -1.3613 -0.8066  3.2844
  706MOL0     H97417   8.315   4.741   2.898  1.7128  2.2382  0.7604
  706MOL0     H97418   8.525   4.701   2.741 -0.2783  0.2974 -1.3284
  706MOL0     H97419   8.510   4.800   2.882 -0.0615 -1.7558  0.3005
  706MOL0     H97420   8.492   4.870   2.572  1.0963 -2.7694  0.3137
  706MOL0     H97421   8.468   4.990   2.702  0.6928  0.9464 -1.6505
  706MOL0     H97422   8.710   4.938   2.775  0.0505  0.7399 -0.3325
  706MOL0     H97423   8.684   5.027   2.621 -0.6563  0.9589  1.5541
  706MOL0     H97424   8.934   4.706   2.507  0.4085  0.0665 -0.3985
  706MOL0     H97425   8.027   4.645   2.741  0.8973  0.1162  0.0098
  706MOL0     H97426   7.807   4.807   2.636  0.1085 -2.0996  1.7708
  706MOL0     H97427   7.747   4.703   2.507 -2.9450  2.3246  1.9069
  706MOL0     H97428   7.808   4.628   2.652  3.1127 -0.3065  0.6222
  707MOL0     O97429   0.721   7.845   6.999  0.1760  0.1890 -0.3287
  707MOL0     C97430   0.773   7.804   6.894 -0.7976  1.7478  0.8908
  707MOL0     O97431   0.780   7.868   6.774 -0.1658 -0.5365  0.2636
  707MOL0     C97432   0.709   7.987   6.758 -0.5678  0.8091 -0.1457
  707MOL0     C97433   0.760   8.113   6.767  0.9998  0.0223 -0.7437
  707MOL0     C97434   0.672   8.221   6.750 -0.1514 -0.4236  0.1922
  707MOL0     C97435   0.547   8.214   6.695  0.3490 -1.1129  0.2901
  707MOL0     O97436   0.484   8.340   6.670 -0.2210  0.2224  0.3488
  707MOL0     C97437   0.342   8.321   6.652  0.3022  0.2049  0.0685
  707MOL0     C97438   0.280   8.458   6.671  0.4261 -0.2327  0.1895
  707MOL0     C97439   0.146   8.473   6.593 -0.6640 -0.4157  0.1122
  707MOL0     C97440   0.072   8.600   6.643 -0.5155 -0.1111 -0.0180
  707MOL0     C97441  -0.066   8.596   6.586  0.1510 -0.8182 -0.0017
  707MOL0     C97442  -0.142   8.719   6.632  0.0928 -0.6154 -1.7190
  707MOL0     C97443  -0.238   8.757   6.525  0.6814 -0.2594  0.0199
  707MOL0     C97444  -0.344   8.861   6.564  0.1212  0.4394  0.2880
  707MOL0     N97445  -0.415   8.903   6.445  0.3520 -0.9036 -0.3463
  707MOL0     C97446  -0.519   8.830   6.393 -0.2523 -0.6085 -0.3745
  707MOL0     C97447  -0.578   8.927   6.322  0.3054  0.5578 -1.2266
  707MOL0     C97448  -0.718   8.906   6.262  0.9113  0.2076  0.1461
  707MOL0     C97449  -0.732   8.937   6.108  0.3840 -0.0723 -0.0107
  707MOL0     C97450  -0.669   8.830   6.022 -0.2489  0.7758 -0.1879
  707MOL0     C97451  -0.510   8.819   6.028 -0.4061  0.5024  0.6215
  707MOL0     O97452  -0.440   8.701   5.964  1.0190 -0.0863 -0.0765
  707MOL0     C97453  -0.376   8.616   6.053 -0.5651  0.2801  0.4472
  707MOL0     C97454  -0.236   8.587   6.049  0.3205 -0.5916 -1.1866
  707MOL0     C97455  -0.180   8.495   6.138 -1.1312 -0.0047 -0.4884
  707MOL0     C97456  -0.030   8.490   6.145  0.6838 -0.4132  0.4850
  707MOL0     C97457  -0.255   8.446   6.246 -0.1204  0.1906 -1.1953
  707MOL0     C97458  -0.204   8.342   6.341  0.9291  0.8847  0.6511
  707MOL0     O97459  -0.132   8.243   6.287 -0.0290  0.3841 -0.0850
  707MOL0     C97460  -0.075   8.140   6.360  0.1655 -0.0894 -0.3054
  707MOL0     C97461  -0.029   8.151   6.490 -0.0280 -0.6089 -0.4392
  707MOL0     C97462   0.063   8.061   6.547 -0.5880 -0.3084 -0.6381
  707MOL0     C97463   0.086   7.935   6.480  0.7066  0.0318  0.3715
  707MOL0     O97464   0.136   7.845   6.556 -0.2982  0.5686  0.9865
  707MOL0     C97465   0.241   7.764   6.509  1.0416 -0.2651  0.0539
  707MOL0     C97466   0.301   7.697   6.633  0.0800  0.2834  0.2187
  707MOL0     C97467   0.418   7.600   6.594 -0.1280 -0.0208 -0.1093
  707MOL0     C97468   0.478   7.539   6.732 -0.3032  0.3525 -0.7526
  707MOL0     C97469   0.562   7.424   6.687  0.3167 -0.1569  0.1389
  707MOL0     C97470   0.697   7.482   6.635 -0.0463 -0.3247 -0.3187
  707MOL0     C97471   0.704   7.473   6.485  0.4159 -0.2583  0.0767
  707MOL0     C97472   0.795   7.590   6.432  0.1210  0.1399 -0.1396
  707MOL0    Cl97473   0.957   7.561   6.479  0.1748 -0.0387  0.0685
  707MOL0     C97474   0.029   7.915   6.349  0.1646 -0.2150 -0.2626
  707MOL0     C97475  -0.051   8.021   6.296  0.0487 -0.1790  0.1483
  707MOL0     O97476  -0.233   8.364   6.459  0.0463  0.2885  0.0647
  707MOL0     C97477  -0.393   8.483   6.250  1.1321  0.5220  0.6600
  707MOL0     C97478  -0.456   8.568   6.154 -0.4165  0.2013  0.4906
  707MOL0     N97479  -0.501   9.042   6.312 -0.5948 -0.0520 -0.3433
  707MOL0     N97480  -0.408   9.032   6.396 -0.4606  0.6740 -0.3870
  707MOL0     C97481   0.500   8.084   6.680 -0.5762  0.2006  1.2917
  707MOL0     C97482   0.577   7.970   6.713  0.8200 -0.0805  0.1428
  707MOL0     C97483   0.846   7.674   6.893  0.5252 -0.6603 -0.0796
  707MOL0     C97484   0.796   7.577   6.974  0.3479 -0.3498 -0.9324
  707MOL0     C97485   0.848   7.445   6.964 -0.0405 -0.0423  0.3698
  707MOL0     C97486   0.960   7.413   6.885  0.1712 -0.3792  0.7941
  707MOL0     O97487   1.006   7.286   6.891 -0.1226  0.4405 -0.7643
  707MOL0     C97488   1.047   7.220   6.771 -0.8233  0.8215 -0.4892
  707MOL0     C97489   1.160   7.129   6.810 -0.0649 -0.3880 -0.1154
  707MOL0     C97490   1.284   7.227   6.809 -0.3281 -0.0960 -0.0962
  707MOL0     C97491   1.419   7.160   6.793  0.2230 -1.0366  0.4511
  707MOL0     C97492   1.459   7.070   6.908  0.1739  0.3290 -1.2598
  707MOL0     C97493   1.478   6.994   7.001 -0.3031 -0.1481 -0.1075
  707MOL0     C97494   1.016   7.514   6.809  0.2228 -0.1718  0.1740
  707MOL0     C97495   0.969   7.647   6.816  0.1681 -0.1305 -0.3784
  707MOL0     C97496   1.055   7.757   6.756  0.0543 -0.6636  0.3016
  707MOL0     H97497   0.865   8.126   6.793  0.8776  2.4325 -1.3106
  707MOL0     H97498   0.713   8.321   6.762  0.6541  0.1830 -5.1621
  707MOL0     H97499   0.283   8.252   6.714  1.8250 -0.8256  0.4254
  707MOL0     H97500   0.329   8.285   6.550  1.7698  0.1342 -0.1172
  707MOL0     H97501   0.255   8.464   6.777 -0.5067 -0.5847 -0.0056
  707MOL0     H97502   0.349   8.536   6.636  2.3537 -2.7549 -2.1028
  707MOL0     H97503   0.171   8.489   6.488  1.8273 -2.7531  0.2710
  707MOL0     H97504   0.082   8.385   6.597 -1.1838 -0.1043 -0.9637
  707MOL0     H97505   0.061   8.617   6.750 -2.6790 -0.5687 -0.1189
  707MOL0     H97506   0.124   8.689   6.604 -1.8488  1.8990  2.4480
  707MOL0     H97507  -0.109   8.501   6.619  1.2232 -1.3076  0.0101
  707MOL0     H97508  -0.051   8.582   6.479  0.4427  1.2721 -0.2740
  707MOL0     H97509  -0.207   8.694   6.717  0.5437  1.1711 -0.7911
  707MOL0     H97510  -0.073   8.799   6.660  1.1953 -2.2150  0.3834
  707MOL0     H97511  -0.305   8.674   6.499 -1.5788  1.3370  0.4007
  707MOL0     H97512  -0.182   8.799   6.442  1.9895 -0.4820  0.7632
  707MOL0     H97513  -0.415   8.817   6.635 -3.6927 -0.1921 -3.5483
  707MOL0     H97514  -0.291   8.942   6.617 -0.5643  1.3623 -0.4031
  707MOL0     H97515  -0.556   8.731   6.418  0.2523 -0.2399  2.1350
  707MOL0     H97516  -0.778   8.976   6.322 -0.0465 -1.1656  0.8389
  707MOL0     H97517  -0.761   8.808   6.286  0.0502  0.7787  1.0400
  707MOL0     H97518  -0.837   8.952   6.082  0.3536  0.1843  0.2484
  707MOL0     H97519  -0.683   9.033   6.090 -0.4141  0.5926  1.1946
  707MOL0     H97520  -0.706   8.736   6.064 -1.0179  0.8542 -0.6733
  707MOL0     H97521  -0.708   8.837   5.920  0.8882 -2.5338 -0.9657
  707MOL0     H97522  -0.486   8.914   5.979 -0.1565 -0.3378 -0.9561
  707MOL0     H97523  -0.474   8.822   6.131  0.5787 -0.7467  0.3468
  707MOL0     H97524  -0.176   8.650   5.984 -3.4269  2.6807 -1.8534
  707MOL0     H97525   0.011   8.550   6.063  1.8067 -3.6303 -1.5106
  707MOL0     H97526   0.010   8.389   6.126  2.5713  0.4000 -0.1023
  707MOL0     H97527   0.017   8.517   6.240  0.6529  0.3048  0.3014
  707MOL0     H97528  -0.058   8.229   6.560  0.6550 -1.8087  1.2526
  707MOL0     H97529   0.100   8.072   6.648  0.0141  0.2104 -0.9062
  707MOL0     H97530   0.193   7.690   6.445 -3.1723  1.1723  1.2136
  707MOL0     H97531   0.306   7.822   6.443  1.3257  0.7870  1.2207
  707MOL0     H97532   0.330   7.780   6.698 -2.1581  1.1395  0.2127
  707MOL0     H97533   0.220   7.638   6.677 -0.8420  1.9025  0.7451
  707MOL0     H97534   0.507   7.652   6.556  0.4822  0.3851  1.8034
  707MOL0     H97535   0.380   7.534   6.515 -2.3720  1.0163  0.0453
  707MOL0     H97536   0.399   7.491   6.792  1.2175 -1.4971 -0.1250
  707MOL0     H97537   0.538   7.608   6.791 -2.4649  2.0232 -0.3949
  707MOL0     H97538   0.584   7.352   6.766 -0.4892  1.3388  1.7751
  707MOL0     H97539   0.513   7.362   6.611  0.0946 -1.5449  1.3685
  707MOL0     H97540   0.768   7.420   6.691 -0.5119  1.0029  1.8631
  707MOL0     H97541   0.714   7.584   6.671 -0.3768 -0.8230  1.3289
  707MOL0     H97542   0.611   7.484   6.430  0.4430 -1.0948 -0.1554
  707MOL0     H97543   0.742   7.374   6.458 -1.9831 -1.0207 -0.7672
  707MOL0     H97544   0.763   7.688   6.469  2.4408  1.6535 -1.8706
  707MOL0     H97545   0.781   7.594   6.323 -2.1053  0.0264  0.0867
  707MOL0     H97546   0.051   7.829   6.287  0.3124  0.5331 -1.2668
  707MOL0     H97547  -0.080   8.010   6.192 -2.4030  1.4816  0.5870
  707MOL0     H97548  -0.469   8.432   6.308 -0.1651 -1.7910 -2.7931
  707MOL0     H97549  -0.561   8.595   6.145  0.2986  2.7008 -1.7300
  707MOL0     H97550   0.405   8.062   6.631  1.1452 -0.5310 -2.0230
  707MOL0     H97551   0.520   7.880   6.695 -1.9626  1.9699 -2.4268
  707MOL0     H97552   0.708   7.601   7.033  1.1012  0.3882 -0.0836
  707MOL0     H97553   0.815   7.368   7.034  1.6622 -0.0920  1.1508
  707MOL0     H97554   0.967   7.150   6.745 -0.1994  0.0758 -0.4364
  707MOL0     H97555   1.080   7.285   6.690 -2.0029 -0.3939 -1.9905
  707MOL0     H97556   1.171   7.052   6.732 -2.5841 -1.0542  0.1050
  707MOL0     H97557   1.153   7.081   6.908 -0.0067  1.7276  0.9855
  707MOL0     H97558   1.276   7.296   6.725 -1.3464 -1.3141 -1.0455
  707MOL0     H97559   1.276   7.287   6.900 -1.0727  0.8990 -0.8024
  707MOL0     H97560   1.485   7.247   6.796  1.8000 -2.1651  0.0201
  707MOL0     H97561   1.424   7.118   6.692 -1.3406  2.4545 -1.2434
  707MOL0     H97562   1.488   6.931   7.088 -0.2063  0.6759  0.4941
  707MOL0     H97563   1.103   7.503   6.744 -0.4979  3.8461 -1.8225
  707MOL0     H97564   1.162   7.739   6.768  0.5281  1.7347  0.0094
  707MOL0     H97565   1.039   7.780   6.650 -0.8263  2.0197  0.9453
  707MOL0     H97566   1.023   7.850   6.804  1.4168 -1.1134  2.1678
  708MOL0     O97567   5.833   0.883   9.016  0.1550 -0.2470  0.8617
  708MOL0     C97568   5.806   0.783   8.947  0.2051  0.3481 -0.7602
  708MOL0     O97569   5.897   0.729   8.862 -0.0978 -0.5427  0.2473
  708MOL0     C97570   6.028   0.775   8.849 -0.6441  0.4922  0.0147
  708MOL0     C97571   6.111   0.777   8.965 -0.5036 -0.1953 -0.3280
  708MOL0     C97572   6.240   0.828   8.949  0.4823  0.5178  0.0577
  708MOL0     C97573   6.283   0.882   8.829 -0.6272  0.4171 -0.3972
  708MOL0     O97574   6.412   0.946   8.807 -0.3290  1.2187  0.2168
  708MOL0     C97575   6.495   0.964   8.920 -0.5951 -0.2163  0.2382
  708MOL0     C97576   6.595   1.066   8.875 -0.2468  0.2538 -0.5183
  708MOL0     C97577   6.697   1.117   8.983 -0.3082 -0.3057 -0.7376
  708MOL0     C97578   6.756   1.250   8.933  0.8481  0.2839  0.2330
  708MOL0     C97579   6.848   1.311   9.037  0.5710 -0.1710  0.2986
  708MOL0     C97580   6.930   1.422   8.959  0.7852 -0.1677 -0.3692
  708MOL0     C97581   7.040   1.488   9.039  0.0693 -0.7140 -0.1598
  708MOL0     C97582   6.993   1.577   9.160  1.2509  0.9717 -0.5264
  708MOL0     N97583   7.078   1.540   9.277 -0.2522 -0.0260  0.3582
  708MOL0     C97584   7.138   1.632   9.361 -0.1065 -0.2180 -0.0859
  708MOL0     C97585   7.206   1.561   9.461  0.2269  0.6002 -0.0527
  708MOL0     C97586   7.277   1.606   9.583  0.0507  0.2948  0.0198
  708MOL0     C97587   7.176   1.675   9.683 -0.5586 -0.3389 -0.6020
  708MOL0     C97588   7.256   1.758   9.786  1.0310 -0.4135  0.4760
  708MOL0     C97589   7.327   1.687   9.907  0.5186  0.4993  0.2333
  708MOL0     O97590   7.418   1.781   9.942  0.1832 -0.3719  0.0361
  708MOL0     C97591   7.498   1.751  10.051  0.0273  1.1577  0.2956
  708MOL0     C97592   7.594   1.842  10.093  0.5593 -0.3380  0.6664
  708MOL0     C97593   7.696   1.802  10.178  0.5831  0.0930  0.4679
  708MOL0     C97594   7.811   1.901  10.194 -0.1967 -0.0253  0.2359
  708MOL0     C97595   7.690   1.681  10.244 -0.4139 -0.4140  1.0339
  708MOL0     C97596   7.792   1.635  10.336  0.1696  0.4480  0.0385
  708MOL0     O97597   7.925   1.658  10.305  0.1897  0.0141  0.0578
  708MOL0     C97598   8.034   1.627  10.382 -0.5503  0.3837  0.4558
  708MOL0     C97599   8.157   1.636  10.314 -0.2022  0.1709 -1.1328
  708MOL0     C97600   8.287   1.634  10.381 -0.2409 -0.6259  1.0223
  708MOL0     C97601   8.278   1.596  10.514 -0.2703  0.0028  0.6812
  708MOL0     O97602   8.401   1.575  10.572  0.3492  0.0708  0.1679
  708MOL0     C97603   8.420   1.439  10.626 -0.7514  1.2613 -0.5470
  708MOL0     C97604   8.460   1.456  10.779 -0.4083  1.0944  0.4750
  708MOL0     C97605   8.485   1.325  10.846 -1.1051 -0.3200  0.3990
  708MOL0     C97606   8.358   1.252  10.904 -0.4015  0.0293 -0.0054
  708MOL0     C97607   8.392   1.119  10.981  0.7502  0.1713 -0.4628
  708MOL0     C97608   8.459   1.017  10.904 -0.8558 -0.3831 -0.3802
  708MOL0     C97609   8.448   0.880  10.977 -0.2373  0.1249  0.0079
  708MOL0     C97610   8.488   0.781  10.869  0.4830 -1.2528  0.2060
  708MOL0    Cl97611   8.471   0.630  10.952  0.1468  0.1119 -0.1353
  708MOL0     C97612   8.162   1.586  10.585  1.0929  0.6581  0.0938
  708MOL0     C97613   8.036   1.602  10.525  0.6044  0.1964 -0.2292
  708MOL0     O97614   7.754   1.588  10.439  0.1233 -0.0905  0.0714
  708MOL0     C97615   7.589   1.587  10.215 -0.4346 -0.1666 -0.6170
  708MOL0     C97616   7.499   1.622  10.114 -0.1697 -0.4147 -0.3518
  708MOL0     N97617   7.166   1.434   9.442  0.4272  0.3201  0.0522
  708MOL0     N97618   7.087   1.420   9.346  0.2303 -0.4206 -0.0834
  708MOL0     C97619   6.202   0.865   8.713  0.1402  0.0919  0.2704
  708MOL0     C97620   6.072   0.809   8.730  0.1279 -0.0691  0.0751
  708MOL0     C97621   5.679   0.706   8.978 -0.2988  0.5627  0.5767
  708MOL0     C97622   5.662   0.583   8.939 -0.7531 -0.3063  1.1083
  708MOL0     C97623   5.559   0.503   8.971  0.0544  0.1515  0.5156
  708MOL0     C97624   5.446   0.550   9.047 -0.4066  0.4234 -0.5282
  708MOL0     O97625   5.330   0.488   9.067 -0.2329  0.3991  0.1451
  708MOL0     C97626   5.315   0.351   9.031  0.1802 -0.4665  0.3474
  708MOL0     C97627   5.177   0.314   9.016  0.0814  0.4882  0.6706
  708MOL0     C97628   5.095   0.384   8.915  0.3744 -0.1519 -0.1627
  708MOL0     C97629   4.959   0.318   8.906  0.0227 -0.0642  0.0256
  708MOL0     C97630   4.871   0.399   8.822  0.7593  0.3153  0.6837
  708MOL0     C97631   4.800   0.456   8.739 -0.8192 -1.1470  0.4795
  708MOL0     C97632   5.458   0.684   9.083  1.1356 -0.1418  0.5459
  708MOL0     C97633   5.575   0.763   9.057  0.1428 -0.4881  0.4700
  708MOL0     C97634   5.576   0.904   9.121  0.3425 -0.0607  0.7200
  708MOL0     H97635   6.080   0.748   9.065  1.3065  2.7412  1.2084
  708MOL0     H97636   6.310   0.818   9.031  1.4402 -1.3289 -0.9216
  708MOL0     H97637   6.547   0.872   8.950  0.0937 -0.4783 -1.6430
  708MOL0     H97638   6.435   1.001   9.004 -0.2939  0.5128  0.1301
  708MOL0     H97639   6.659   1.018   8.801 -0.9578  1.4846 -1.9894
  708MOL0     H97640   6.542   1.148   8.826 -0.1210 -0.7993 -2.4726
  708MOL0     H97641   6.638   1.133   9.074 -1.0329  0.2855 -1.3036
  708MOL0     H97642   6.773   1.039   8.995 -0.7346 -0.6997 -0.5665
  708MOL0     H97643   6.813   1.225   8.844  1.5541  1.2719  0.3936
  708MOL0     H97644   6.673   1.317   8.908  0.8201  0.4156  0.6585
  708MOL0     H97645   6.927   1.240   9.066 -0.7112 -2.2501 -1.0239
  708MOL0     H97646   6.799   1.340   9.130 -0.4333 -1.7882  0.3166
  708MOL0     H97647   6.972   1.373   8.871 -0.6168 -1.9319 -0.1000
  708MOL0     H97648   6.863   1.502   8.925  0.0386 -1.0063 -0.8985
  708MOL0     H97649   7.084   1.567   8.976  2.3898 -0.3474  1.7744
  708MOL0     H97650   7.118   1.415   9.063 -1.2366 -2.0722  0.1100
  708MOL0     H97651   6.993   1.685   9.143 -1.3820  1.1657  0.1840
  708MOL0     H97652   6.888   1.553   9.183  1.0522  1.0386 -1.3293
  708MOL0     H97653   7.139   1.740   9.357 -0.9760 -0.1738  0.5686
  708MOL0     H97654   7.370   1.660   9.561 -0.3010  0.9620  0.1431
  708MOL0     H97655   7.303   1.513   9.634 -1.0998 -1.8311 -3.0439
  708MOL0     H97656   7.113   1.740   9.622 -0.5710 -1.3402 -1.7026
  708MOL0     H97657   7.114   1.603   9.736 -1.1544  0.5937 -0.0079
  708MOL0     H97658   7.325   1.825   9.734  0.6275  1.0580  1.7817
  708MOL0     H97659   7.187   1.830   9.830 -1.5889 -0.6010 -2.8533
  708MOL0     H97660   7.264   1.659   9.992 -1.2142 -0.7976 -1.3728
  708MOL0     H97661   7.377   1.595   9.874  0.5408 -0.8071  3.5226
  708MOL0     H97662   7.588   1.941  10.050 -1.8159 -0.2258  1.1437
  708MOL0     H97663   7.801   1.992  10.132  2.3172  1.6578  2.1198
  708MOL0     H97664   7.905   1.853  10.165 -0.7031 -1.8195  1.4145
  708MOL0     H97665   7.829   1.924  10.299  1.2299 -3.8833  0.9963
  708MOL0     H97666   8.155   1.640  10.205  2.2736  1.0804 -1.1993
  708MOL0     H97667   8.384   1.646  10.334 -0.4505  0.5429  0.8764
  708MOL0     H97668   8.329   1.377  10.618  1.2102 -1.8026 -0.9982
  708MOL0     H97669   8.504   1.403  10.566 -1.5029  1.9117 -2.0518
  708MOL0     H97670   8.537   1.533  10.782 -1.1572  1.8687  0.2964
  708MOL0     H97671   8.371   1.502  10.823 -0.1158  0.1017  2.1870
  708MOL0     H97672   8.558   1.351  10.924  0.1367 -1.3830 -0.3643
  708MOL0     H97673   8.544   1.262  10.780  0.6750  0.2293  1.3837
  708MOL0     H97674   8.288   1.233  10.821 -1.1027  1.3883  0.2416
  708MOL0     H97675   8.308   1.316  10.977 -2.1282 -0.9694 -0.2594
  708MOL0     H97676   8.446   1.137  11.074  1.7363 -5.3990  0.4165
  708MOL0     H97677   8.296   1.073  11.006  1.7885 -1.5731  0.5467
  708MOL0     H97678   8.561   1.051  10.886 -1.4451  1.5947 -0.2331
  708MOL0     H97679   8.413   1.009  10.805  3.1657 -0.4950 -2.4318
  708MOL0     H97680   8.349   0.848  11.009  0.0818 -2.1026 -0.9990
  708MOL0     H97681   8.516   0.879  11.062 -1.3188 -0.8812  0.8875
  708MOL0     H97682   8.590   0.804  10.835 -1.0970  2.6508 -2.7035
  708MOL0     H97683   8.408   0.787  10.795  0.9582 -1.9276 -0.3656
  708MOL0     H97684   8.163   1.558  10.690 -0.2047 -2.6272 -0.6264
  708MOL0     H97685   7.941   1.603  10.579  0.1610  1.2582 -1.0066
  708MOL0     H97686   7.590   1.489  10.261  1.4416 -0.0406 -0.3127
  708MOL0     H97687   7.430   1.541  10.093 -1.2494 -0.2822  2.2824
  708MOL0     H97688   6.229   0.908   8.617 -0.0379 -1.3526 -0.4580
  708MOL0     H97689   6.007   0.781   8.647 -0.9369 -0.7139  1.0856
  708MOL0     H97690   5.741   0.535   8.882 -0.8132 -1.4334  1.9494
  708MOL0     H97691   5.561   0.403   8.930  0.2227  0.1967  0.4137
  708MOL0     H97692   5.376   0.324   8.944  0.4189  2.2001 -0.4204
  708MOL0     H97693   5.352   0.292   9.115  0.7416 -0.6035  0.0075
  708MOL0     H97694   5.121   0.328   9.109 -0.7647 -0.4813  0.3234
  708MOL0     H97695   5.167   0.206   8.999 -5.1660  0.5954  1.4752
  708MOL0     H97696   5.083   0.488   8.947  4.4524  0.6456 -0.6916
  708MOL0     H97697   5.149   0.380   8.820  2.1853 -1.7610  0.8513
  708MOL0     H97698   4.922   0.314   9.009 -1.4850  1.2870 -0.4134
  708MOL0     H97699   4.959   0.219   8.860 -2.6955  0.5914 -1.6582
  708MOL0     H97700   4.735   0.507   8.671 -1.7941 -0.6138  1.7745
  708MOL0     H97701   5.372   0.720   9.138 -0.0658 -2.4288  0.2887
  708MOL0     H97702   5.494   0.914   9.192 -0.2238 -2.6090  0.5314
  708MOL0     H97703   5.671   0.914   9.175 -0.6532 -0.9398  2.7133
  708MOL0     H97704   5.561   0.981   9.046 -0.1071  1.2060  2.0792
  709MOL0     O97705   6.325  11.400   8.659  0.8114  0.2355 -0.1712
  709MOL0     C97706   6.309  11.496   8.741  0.1174 -0.6015  0.4765
  709MOL0     O97707   6.201  11.537   8.807  0.1408  0.3102 -0.4976
  709MOL0     C97708   6.084  11.471   8.782  0.2547  0.4281 -1.2660
  709MOL0     C97709   6.002  11.437   8.898  0.2579 -0.5324 -0.2455
  709MOL0     C97710   5.877  11.374   8.883  0.4808 -0.5114 -0.9047
  709MOL0     C97711   5.823  11.338   8.760 -0.0679 -0.0456 -0.6929
  709MOL0     O97712   5.692  11.287   8.738  0.5614  0.0388  0.8105
  709MOL0     C97713   5.592  11.281   8.843  0.1601  0.0489  0.4327
  709MOL0     C97714   5.450  11.242   8.807 -0.0918  0.1418 -0.1805
  709MOL0     C97715   5.370  11.211   8.936 -0.1933  0.0510  0.0496
  709MOL0     C97716   5.225  11.199   8.886 -0.4264  0.7535 -0.4611
  709MOL0     C97717   5.141  11.131   8.990  1.1203  0.6236 -0.4004
  709MOL0     C97718   4.991  11.142   8.953  0.0635  0.2763 -0.0413
  709MOL0     C97719   4.901  11.102   9.070  0.1625  0.0715 -0.4899
  709MOL0     C97720   4.756  11.096   9.007  0.1341  0.0980  0.3137
  709MOL0     N97721   4.659  11.024   9.095  0.9653 -0.6308 -0.1957
  709MOL0     C97722   4.650  10.893   9.133 -0.4003 -0.2011 -0.0794
  709MOL0     C97723   4.538  10.881   9.207  0.3407 -0.2176  0.2352
  709MOL0     C97724   4.496  10.755   9.268  0.2460  1.3017  1.0412
  709MOL0     C97725   4.516  10.625   9.183 -0.1231 -0.9572 -0.3375
  709MOL0     C97726   4.421  10.619   9.059 -0.0479 -0.4630 -0.3843
  709MOL0     C97727   4.426  10.489   8.985  0.6888  1.2292 -0.0709
  709MOL0     O97728   4.556  10.436   8.952 -0.1333  0.4796  0.0293
  709MOL0     C97729   4.620  10.475   8.836  1.0150 -0.0865 -0.4947
  709MOL0     C97730   4.573  10.578   8.746  0.4511  0.1391  0.2054
  709MOL0     C97731   4.653  10.621   8.634  0.8821  0.5030 -0.6082
  709MOL0     C97732   4.582  10.731   8.537  0.5916 -0.5386 -0.4171
  709MOL0     C97733   4.768  10.541   8.603 -0.7120 -0.3213 -0.2745
  709MOL0     C97734   4.853  10.578   8.489  0.9672 -0.4915 -0.2582
  709MOL0     O97735   4.929  10.485   8.439  0.2371 -0.1261  0.1337
  709MOL0     C97736   4.967  10.506   8.312 -0.1815  0.2009  0.4384
  709MOL0     C97737   5.102  10.521   8.288 -0.1513 -0.2100 -0.1592
  709MOL0     C97738   5.155  10.513   8.166 -0.2957 -0.9282 -0.5152
  709MOL0     C97739   5.063  10.491   8.054 -0.4959 -0.5377 -0.2374
  709MOL0     O97740   5.101  10.485   7.922 -0.1654 -0.3200 -0.1516
  709MOL0     C97741   5.243  10.459   7.891 -0.3749  0.0514 -0.6007
  709MOL0     C97742   5.281  10.319   7.933  0.7478  0.2031 -0.5106
  709MOL0     C97743   5.431  10.296   7.916 -0.5773  0.5014 -0.3745
  709MOL0     C97744   5.464  10.157   7.939  0.1065  0.0471  0.4745
  709MOL0     C97745   5.611  10.137   7.986  0.2488 -0.2011 -0.5709
  709MOL0     C97746   5.714  10.185   7.883  1.0873  0.0934 -0.6746
  709MOL0     C97747   5.863  10.166   7.921  0.8720  0.1530  0.3037
  709MOL0     C97748   5.910  10.036   7.861 -0.1724 -0.6690 -0.5601
  709MOL0    Cl97749   5.897  10.030   7.682  0.1822  0.3188 -0.1727
  709MOL0     C97750   4.922  10.485   8.078 -0.7893 -1.0303 -0.1002
  709MOL0     C97751   4.880  10.486   8.208  0.5061  0.9021 -1.0674
  709MOL0     O97752   4.847  10.692   8.437 -0.4610  0.2371  0.1834
  709MOL0     C97753   4.811  10.436   8.683 -0.0990  0.9038  0.3704
  709MOL0     C97754   4.737  10.407   8.803 -0.7399 -0.0309  0.6693
  709MOL0     N97755   4.478  11.003   9.225 -0.3879 -0.1613  0.4240
  709MOL0     N97756   4.551  11.085   9.162  0.2254 -0.3205  0.3452
  709MOL0     C97757   5.899  11.367   8.651  0.2983  0.5704  1.1243
  709MOL0     C97758   6.024  11.444   8.662  0.0177 -0.1530 -0.4067
  709MOL0     C97759   6.437  11.559   8.779  0.0392  0.1985 -1.1303
  709MOL0     C97760   6.449  11.615   8.912  0.4803 -1.0109 -0.1289
  709MOL0     C97761   6.567  11.679   8.953  0.6064 -0.0603  0.7261
  709MOL0     C97762   6.666  11.709   8.867 -0.1154 -0.6468  0.0639
  709MOL0     O97763   6.777  11.775   8.915 -0.1772  0.4678 -0.0108
  709MOL0     C97764   6.892  11.789   8.825 -0.5680 -0.3237 -0.5720
  709MOL0     C97765   7.022  11.812   8.893  0.4494 -0.3295  0.0467
  709MOL0     C97766   7.131  11.820   8.787 -0.0657 -0.7681 -0.1285
  709MOL0     C97767   7.278  11.852   8.818  0.5806  0.4651 -0.5134
  709MOL0     C97768   7.282  11.982   8.890  0.5715 -0.0863  0.5476
  709MOL0     C97769   7.286  12.091   8.935  0.7419  0.2089  0.1965
  709MOL0     C97770   6.656  11.648   8.741  0.6860 -0.4405  0.4755
  709MOL0     C97771   6.539  11.588   8.692 -0.1990  0.1731 -0.6467
  709MOL0     C97772   6.548  11.551   8.545  0.3099  1.5050 -0.0875
  709MOL0     H97773   6.044  11.464   8.994  2.1772 -2.8454 -0.3606
  709MOL0     H97774   5.820  11.361   8.974 -1.0371 -1.7558 -1.9769
  709MOL0     H97775   5.600  11.353   8.925  0.3453 -2.9534  3.2621
  709MOL0     H97776   5.625  11.191   8.897  1.6961 -2.1378 -3.7046
  709MOL0     H97777   5.395  11.318   8.751  1.5517  0.3139 -1.6533
  709MOL0     H97778   5.456  11.151   8.747 -0.1096 -0.5683  0.8749
  709MOL0     H97779   5.403  11.114   8.973  2.9025  0.8052 -0.4073
  709MOL0     H97780   5.391  11.294   9.004  3.4665 -0.9906  0.3823
  709MOL0     H97781   5.176  11.294   8.863  0.2281  1.7081  1.7930
  709MOL0     H97782   5.211  11.140   8.795 -0.3352  0.6595 -0.4144
  709MOL0     H97783   5.171  11.164   9.089  2.0838  2.1552 -1.1695
  709MOL0     H97784   5.167  11.026   8.977 -1.9221 -0.4366  1.0551
  709MOL0     H97785   4.984  11.248   8.927  1.1337 -0.0505 -1.8873
  709MOL0     H97786   4.977  11.081   8.863  1.4312 -0.0202 -0.0765
  709MOL0     H97787   4.910  11.173   9.153  2.0720  1.1386 -1.5346
  709MOL0     H97788   4.926  11.004   9.112 -3.0203  0.1485  2.0357
  709MOL0     H97789   4.725  11.200   8.992 -2.9189 -0.7199  0.2993
  709MOL0     H97790   4.750  11.037   8.915 -2.1955 -2.7879  2.1023
  709MOL0     H97791   4.729  10.822   9.107  1.7919  2.3403 -0.7667
  709MOL0     H97792   4.393  10.759   9.306  0.5095 -0.9115  2.1859
  709MOL0     H97793   4.560  10.747   9.357 -1.2566 -0.6310  2.0422
  709MOL0     H97794   4.621  10.617   9.155 -0.4242  0.7888 -2.2265
  709MOL0     H97795   4.497  10.546   9.256  2.7293 -0.3612  1.2198
  709MOL0     H97796   4.322  10.649   9.092  0.0125 -0.1176 -0.5085
  709MOL0     H97797   4.448  10.695   8.984  1.5697  1.0391  1.5743
  709MOL0     H97798   4.359  10.413   9.025  1.8523 -0.9240 -1.9742
  709MOL0     H97799   4.376  10.519   8.892  0.6388  1.2690 -0.0306
  709MOL0     H97800   4.477  10.626   8.760  0.4687 -0.3576  2.5206
  709MOL0     H97801   4.474  10.729   8.551  0.2327  2.9775 -1.5000
  709MOL0     H97802   4.604  10.713   8.431  1.6399  0.0640 -0.3186
  709MOL0     H97803   4.621  10.830   8.564  1.3744 -0.2620 -2.3496
  709MOL0     H97804   5.171  10.523   8.372 -1.0194  0.6873  0.5608
  709MOL0     H97805   5.260  10.524   8.144 -0.9403 -0.0444 -3.6936
  709MOL0     H97806   5.256  10.466   7.782 -1.5393 -0.2536 -0.7799
  709MOL0     H97807   5.307  10.530   7.943 -1.8191  0.0576  1.2637
  709MOL0     H97808   5.254  10.292   8.035  2.3067 -3.3692 -0.8920
  709MOL0     H97809   5.220  10.252   7.872 -2.3455  1.8265  0.6335
  709MOL0     H97810   5.473  10.357   7.997  1.0672  0.3578 -1.0596
  709MOL0     H97811   5.478  10.329   7.823  1.1903 -1.0008 -0.0889
  709MOL0     H97812   5.452  10.115   7.839 -0.2680 -0.5952  0.7847
  709MOL0     H97813   5.399  10.108   8.012  1.6754 -3.8322 -0.4869
  709MOL0     H97814   5.631  10.192   8.078  2.2719  0.7253 -1.4871
  709MOL0     H97815   5.623  10.034   8.019 -2.2369 -0.1300  0.7962
  709MOL0     H97816   5.695  10.291   7.862  0.1497 -0.2053 -1.3942
  709MOL0     H97817   5.698  10.137   7.786  3.6771 -1.3332 -0.4754
  709MOL0     H97818   5.851  10.167   8.030 -3.1862  4.1845  0.1328
  709MOL0     H97819   5.928  10.246   7.886  0.1191  0.1428 -1.2203
  709MOL0     H97820   5.851   9.955   7.905 -1.3488  1.5736  2.3270
  709MOL0     H97821   6.013  10.026   7.894 -0.2521  1.2103  0.3807
  709MOL0     H97822   4.860  10.471   7.990  1.2346  0.6825 -1.9214
  709MOL0     H97823   4.775  10.483   8.232  0.1086  1.2767 -2.6345
  709MOL0     H97824   4.893  10.367   8.665 -2.0532 -1.3328 -0.4020
  709MOL0     H97825   4.773  10.324   8.864  0.0792 -0.6585 -0.6341
  709MOL0     H97826   5.858  11.345   8.553 -2.2668  4.3700  1.1726
  709MOL0     H97827   6.085  11.479   8.579 -0.4405 -0.5059 -0.8997
  709MOL0     H97828   6.359  11.611   8.973  0.5213  1.7603  0.2313
  709MOL0     H97829   6.573  11.716   9.054 -0.1471  1.7410  0.1527
  709MOL0     H97830   6.895  11.694   8.771 -1.4781  1.0831 -3.2713
  709MOL0     H97831   6.875  11.869   8.752  0.3769  0.6692  0.2632
  709MOL0     H97832   7.041  11.724   8.954  1.0668  0.1668  0.5840
  709MOL0     H97833   7.016  11.900   8.958 -2.6314 -0.0179 -0.4822
  709MOL0     H97834   7.128  11.722   8.739  0.0666 -2.2953  2.7457
  709MOL0     H97835   7.107  11.893   8.708  0.5870  0.7175  0.9870
  709MOL0     H97836   7.347  11.871   8.735 -0.0282  4.5236 -0.2788
  709MOL0     H97837   7.324  11.771   8.876  0.3459  1.0686  0.5565
  709MOL0     H97838   7.295  12.188   8.979  1.3829  0.1157  0.2715
  709MOL0     H97839   6.739  11.657   8.672  1.8952  0.8057  2.0094
  709MOL0     H97840   6.447  11.530   8.507 -0.8541  3.5394  1.7172
  709MOL0     H97841   6.592  11.623   8.476 -0.1125  1.9528  0.1061
  709MOL0     H97842   6.613  11.464   8.529 -0.3640  1.1315 -0.8510
  710MOL0     O97843   7.298   3.910  10.680  0.2974 -0.0564 -0.0973
  710MOL0     C97844   7.366   3.816  10.719  0.0104  1.1426 -0.3746
  710MOL0     O97845   7.315   3.692  10.743  0.1416  1.0715 -0.5639
  710MOL0     C97846   7.185   3.670  10.699  0.7240 -0.1729  0.4542
  710MOL0     C97847   7.071   3.748  10.741  0.1935 -0.2421 -0.2615
  710MOL0     C97848   6.939   3.709  10.706 -0.0414 -0.3354 -0.0931
  710MOL0     C97849   6.915   3.594  10.630 -0.1455  0.7210  0.6611
  710MOL0     O97850   6.783   3.565  10.597  0.3013 -0.1751 -0.7735
  710MOL0     C97851   6.773   3.510  10.460 -1.0732  0.4573 -1.0873
  710MOL0     C97852   6.619   3.513  10.427  0.2301 -0.0100  0.1919
  710MOL0     C97853   6.556   3.642  10.415 -0.0509 -0.2680 -0.5077
  710MOL0     C97854   6.410   3.619  10.347 -0.6090 -1.2299 -0.0850
  710MOL0     C97855   6.319   3.736  10.386  0.2649  0.4485 -0.2974
  710MOL0     C97856   6.179   3.716  10.330  0.1104  0.6725 -0.2893
  710MOL0     C97857   6.089   3.838  10.359 -0.3526  0.2682  0.0910
  710MOL0     C97858   5.963   3.845  10.258  0.6064  0.0446  0.6979
  710MOL0     N97859   5.888   3.716  10.264 -0.5819  0.8383 -0.3680
  710MOL0     C97860   5.880   3.632  10.154 -0.3850 -0.2512 -0.0220
  710MOL0     C97861   5.778   3.555  10.175 -0.4186  0.3677  0.5281
  710MOL0     C97862   5.733   3.455  10.072  0.4224 -0.1387 -0.4503
  710MOL0     C97863   5.583   3.429  10.070 -0.9917  0.0386 -0.1898
  710MOL0     C97864   5.490   3.549  10.040 -1.1438  0.1549 -0.0375
  710MOL0     C97865   5.495   3.601   9.893  0.4784  0.2445 -0.0986
  710MOL0     O97866   5.375   3.581   9.818  0.0996 -0.0609  0.4339
  710MOL0     C97867   5.266   3.665   9.832 -0.0217  0.5129  0.0563
  710MOL0     C97868   5.257   3.780   9.917 -0.5091  0.4600 -0.1164
  710MOL0     C97869   5.146   3.856   9.929 -0.0388 -0.5598 -0.8876
  710MOL0     C97870   5.169   3.974  10.017  0.6631 -0.0175 -0.2875
  710MOL0     C97871   5.031   3.818   9.869  0.2516 -0.4042 -0.1471
  710MOL0     C97872   4.898   3.878   9.890  0.3043 -0.4727 -0.4942
  710MOL0     O97873   4.794   3.832   9.825 -1.0277  0.5086  0.0376
  710MOL0     C97874   4.669   3.893   9.829  0.9315 -0.1620 -0.0283
  710MOL0     C97875   4.556   3.813   9.838 -0.3785  0.4687 -1.3293
  710MOL0     C97876   4.427   3.878   9.827 -0.5595 -0.5248 -0.0801
  710MOL0     C97877   4.414   4.021   9.806 -1.0160  0.0487 -0.9788
  710MOL0     O97878   4.285   4.075   9.805 -0.6334  0.2576 -0.1594
  710MOL0     C97879   4.272   4.219   9.803 -0.2556 -1.1890 -0.8894
  710MOL0     C97880   4.127   4.271   9.790 -0.4751  1.2841  0.2928
  710MOL0     C97881   4.109   4.413   9.718 -0.7086  0.6240 -0.2412
  710MOL0     C97882   4.071   4.405   9.565  0.3710 -0.4206  0.0170
  710MOL0     C97883   4.145   4.504   9.474  0.9322 -0.2039 -0.8927
  710MOL0     C97884   4.075   4.510   9.333  0.5172 -0.5721 -0.9220
  710MOL0     C97885   4.124   4.408   9.237 -0.6138 -0.5721 -0.3188
  710MOL0     C97886   4.072   4.442   9.097 -0.1474 -0.0582 -0.4528
  710MOL0    Cl97887   3.895   4.435   9.070 -0.4612 -0.1636  0.6453
  710MOL0     C97888   4.530   4.102   9.812 -0.1250  0.5716  0.3642
  710MOL0     C97889   4.653   4.035   9.811 -0.0437  0.2034 -0.9315
  710MOL0     O97890   4.883   3.975   9.978 -0.4510  0.1409  0.5828
  710MOL0     C97891   5.034   3.712   9.775 -0.9992 -0.0143  1.3651
  710MOL0     C97892   5.154   3.636   9.754  0.1096 -0.2832  0.0544
  710MOL0     N97893   5.719   3.600  10.292  0.3749  1.1227  0.0511
  710MOL0     N97894   5.789   3.693  10.349  0.4007  0.9203  0.0754
  710MOL0     C97895   7.024   3.506  10.603 -0.1432  0.9029  0.6413
  710MOL0     C97896   7.155   3.549  10.629 -0.0267 -0.1619  0.0069
  710MOL0     C97897   7.514   3.854  10.750  0.8751  0.1358 -0.8006
  710MOL0     C97898   7.554   3.990  10.743  0.5837  0.1647  0.3993
  710MOL0     C97899   7.690   4.023  10.752 -0.1514  0.5783 -0.2663
  710MOL0     C97900   7.789   3.927  10.795  0.2361  0.8084  0.4090
  710MOL0     O97901   7.915   3.959  10.832  0.9824  0.0757 -1.2196
  710MOL0     C97902   7.934   4.083  10.901 -0.4806  0.3346 -0.3563
  710MOL0     C97903   7.993   4.046  11.043  0.4575  0.9624  0.4607
  710MOL0     C97904   8.137   3.988  11.041 -0.0334 -0.1041 -0.1701
  710MOL0     C97905   8.240   4.052  10.954 -0.4396 -1.0320  0.5824
  710MOL0     C97906   8.353   3.959  10.932 -0.1153  0.2016  1.2008
  710MOL0     C97907   8.455   3.892  10.924  0.3519 -0.4188  0.0766
  710MOL0     C97908   7.748   3.795  10.804  0.3231 -0.3268  0.3256
  710MOL0     C97909   7.613   3.756  10.774  0.3563 -1.2657  0.2449
  710MOL0     C97910   7.572   3.608  10.779 -0.7394  0.2975  0.3945
  710MOL0     H97911   7.093   3.835  10.801 -0.2059  0.5882 -1.2861
  710MOL0     H97912   6.852   3.750  10.756  1.2407  3.1647 -0.4383
  710MOL0     H97913   6.804   3.406  10.463 -3.2529 -0.3082  4.1587
  710MOL0     H97914   6.824   3.578  10.390  1.2889  0.3932  0.4712
  710MOL0     H97915   6.600   3.459  10.334  1.5709 -1.5682  0.7665
  710MOL0     H97916   6.583   3.456  10.513  0.9706 -3.2815 -1.4909
  710MOL0     H97917   6.543   3.690  10.512 -0.0014  0.4154 -0.8356
  710MOL0     H97918   6.608   3.717  10.355  1.1851  0.6993  1.6564
  710MOL0     H97919   6.421   3.636  10.240 -0.6192  4.2085  0.4758
  710MOL0     H97920   6.369   3.522  10.378 -2.4266 -0.3929  0.2783
  710MOL0     H97921   6.361   3.826  10.341 -3.6591  2.4059 -0.4305
  710MOL0     H97922   6.319   3.744  10.495  1.0292  1.1962 -0.3421
  710MOL0     H97923   6.183   3.702  10.222 -1.5625 -0.6595 -0.2336
  710MOL0     H97924   6.134   3.626  10.373 -0.0382  1.1764  0.6234
  710MOL0     H97925   6.156   3.924  10.347  0.5375 -0.3936  0.2192
  710MOL0     H97926   6.051   3.832  10.461  0.7568 -0.4880  0.4729
  710MOL0     H97927   5.896   3.927  10.286 -0.0225  0.5936 -2.0994
  710MOL0     H97928   6.018   3.856  10.164  0.6113  1.1936  0.8230
  710MOL0     H97929   5.950   3.632  10.071  0.5197  0.3088  0.7214
  710MOL0     H97930   5.784   3.359  10.085  0.4687 -0.5202 -3.0409
  710MOL0     H97931   5.767   3.490   9.975  0.9084 -1.3015 -0.7084
  710MOL0     H97932   5.563   3.346  10.002 -0.0328 -0.2169 -0.1740
  710MOL0     H97933   5.552   3.393  10.168  1.4731  0.8522  0.9526
  710MOL0     H97934   5.392   3.504  10.060 -0.4434 -0.7809  1.4238
  710MOL0     H97935   5.508   3.635  10.105 -3.4722  1.5059 -1.0386
  710MOL0     H97936   5.536   3.701   9.879  1.8098 -0.4029 -0.9851
  710MOL0     H97937   5.563   3.535   9.838 -0.7892  0.0701 -1.5168
  710MOL0     H97938   5.348   3.815   9.964 -1.5330 -1.3883  3.5817
  710MOL0     H97939   5.153   3.926  10.115 -1.0530 -0.8823 -0.9467
  710MOL0     H97940   5.101   4.059  10.015 -0.0990 -0.4719  2.1131
  710MOL0     H97941   5.266   4.024  10.015 -0.5506  2.4641 -0.9682
  710MOL0     H97942   4.563   3.705   9.835 -2.2843  0.2081  0.8291
  710MOL0     H97943   4.333   3.825   9.822 -2.6222  2.9647 -2.6282
  710MOL0     H97944   4.313   4.271   9.890  1.8170  0.8515 -2.9698
  710MOL0     H97945   4.325   4.254   9.715 -1.7616  2.3172 -0.5308
  710MOL0     H97946   4.080   4.194   9.729  1.9764 -1.4552  1.6422
  710MOL0     H97947   4.078   4.276   9.887  0.4544 -0.4551  0.8980
  710MOL0     H97948   4.196   4.479   9.729 -0.8607  0.8853 -0.6065
  710MOL0     H97949   4.029   4.459   9.775 -0.9645 -1.6113  1.3481
  710MOL0     H97950   3.962   4.401   9.558  0.2570  1.1156  0.4465
  710MOL0     H97951   4.115   4.310   9.537  0.1893  0.0308 -1.8958
  710MOL0     H97952   4.154   4.607   9.511 -0.4621 -0.4838  0.3133
  710MOL0     H97953   4.250   4.474   9.466  0.4332 -1.7575 -2.1003
  710MOL0     H97954   4.103   4.608   9.294  0.4450  0.1475  0.7239
  710MOL0     H97955   3.966   4.504   9.340  0.3030  2.0140 -0.9367
  710MOL0     H97956   4.080   4.312   9.266  0.3481 -0.9741 -0.1351
  710MOL0     H97957   4.233   4.395   9.236 -0.6315 -0.6637 -1.1101
  710MOL0     H97958   4.108   4.361   9.032 -3.0266 -2.7436  1.0045
  710MOL0     H97959   4.108   4.540   9.065  2.4807 -1.7862 -3.3769
  710MOL0     H97960   4.517   4.208   9.796 -4.1690  0.2344  0.4659
  710MOL0     H97961   4.741   4.098   9.817  2.0537 -2.5291 -1.2634
  710MOL0     H97962   4.945   3.678   9.722 -0.9988  2.3794 -0.3301
  710MOL0     H97963   5.153   3.544   9.697 -2.4351 -0.3882  0.1613
  710MOL0     H97964   7.016   3.417  10.543  0.9668  0.6366  0.8783
  710MOL0     H97965   7.251   3.502  10.607  0.5572  1.5689 -1.3738
  710MOL0     H97966   7.484   4.068  10.715 -0.2462 -0.9637 -0.7831
  710MOL0     H97967   7.728   4.124  10.742  0.6681  0.1839 -1.3741
  710MOL0     H97968   7.993   4.159  10.849 -1.6875  0.3979 -1.6944
  710MOL0     H97969   7.833   4.124  10.907 -0.8072 -0.0741 -2.3658
  710MOL0     H97970   7.916   3.978  11.082  2.1489 -2.4700 -1.6339
  710MOL0     H97971   7.991   4.137  11.104 -0.4290  0.6477  0.9211
  710MOL0     H97972   8.178   3.974  11.141 -0.6919 -4.0274 -0.2799
  710MOL0     H97973   8.132   3.885  11.005 -3.1793  0.6604 -2.4180
  710MOL0     H97974   8.287   4.142  10.996  2.0154 -1.9162 -0.1070
  710MOL0     H97975   8.198   4.075  10.856  1.6861 -2.0590 -0.6536
  710MOL0     H97976   8.539   3.827  10.909 -1.5056 -3.5920  2.4209
  710MOL0     H97977   7.821   3.720  10.832  0.6748 -1.0689 -2.3044
  710MOL0     H97978   7.669   3.562  10.800  0.6781  1.2677 -3.2419
  710MOL0     H97979   7.505   3.583  10.862  1.6928  0.9255  2.6837
  710MOL0     H97980   7.552   3.566  10.680 -1.4766  2.1619 -0.3003
  711MOL0     O97981  10.869   0.472   3.839  0.7667 -0.1748 -0.1511
  711MOL0     C97982  10.875   0.491   3.959  1.3095  0.7191  0.5741
  711MOL0     O97983  10.975   0.448   4.040 -0.0433  0.3437 -0.0881
  711MOL0     C97984  11.091   0.385   3.999  0.5414 -0.2089 -0.1337
  711MOL0     C97985  11.105   0.287   3.905 -0.3467  0.4761  0.1217
  711MOL0     C97986  11.232   0.228   3.881  0.0660 -0.1199 -0.8323
  711MOL0     C97987  11.345   0.272   3.950  0.4232 -0.1390 -0.2200
  711MOL0     O97988  11.464   0.227   3.902 -0.7988 -0.7747  0.1554
  711MOL0     C97989  11.574   0.235   3.995  1.5243 -0.2141  0.3841
  711MOL0     C97990  11.689   0.162   3.931  0.2786 -0.6029 -0.6141
  711MOL0     C97991  11.728   0.209   3.793  0.0051  0.0250 -0.0839
  711MOL0     C97992  11.727   0.364   3.762  0.2731 -0.3583  0.0471
  711MOL0     C97993  11.738   0.382   3.603  0.3725 -0.1758 -0.0439
  711MOL0     C97994  11.696   0.520   3.566  0.3228 -0.4491 -0.2784
  711MOL0     C97995  11.766   0.588   3.458 -0.8092 -0.4842  1.3143
  711MOL0     C97996  11.916   0.627   3.483 -0.9010 -0.0680 -0.0465
  711MOL0     N97997  11.931   0.714   3.598  0.5394 -0.3028 -0.4218
  711MOL0     C97998  11.936   0.847   3.577 -0.2242 -0.2687  0.3815
  711MOL0     C97999  11.979   0.894   3.689  0.1779  0.2294  0.1978
  711MOL0     C98000  12.027   1.031   3.728  0.4069 -0.7870  0.3881
  711MOL0     C98001  12.076   1.098   3.607 -0.1233 -0.0314 -0.0897
  711MOL0     C98002  12.112   1.250   3.633 -0.0309 -0.8932 -0.9631
  711MOL0     C98003  12.225   1.308   3.546 -0.5699 -0.4920 -0.0536
  711MOL0     O98004  12.355   1.245   3.563 -0.1846 -0.0482  0.8458
  711MOL0     C98005  12.469   1.278   3.495 -0.2199 -0.1702 -0.1999
  711MOL0     C98006  12.477   1.393   3.408 -0.2634  0.1735  0.9247
  711MOL0     C98007  12.603   1.438   3.351 -0.6101  0.2675 -0.3464
  711MOL0     C98008  12.600   1.561   3.264 -0.3628  0.1710 -0.1365
  711MOL0     C98009  12.727   1.367   3.400  0.6325 -0.0490 -0.6225
  711MOL0     C98010  12.863   1.405   3.362 -0.4478  0.3690  0.6363
  711MOL0     O98011  12.958   1.316   3.409  0.1018  0.0668  0.0418
  711MOL0     C98012  13.090   1.325   3.369  0.3978  1.0063 -0.0341
  711MOL0     C98013  13.163   1.204   3.364  0.0491  0.4940 -0.2035
  711MOL0     C98014  13.293   1.189   3.319 -0.3832 -0.2731  0.1822
  711MOL0     C98015  13.369   1.313   3.291  0.6399 -0.0125  0.0571
  711MOL0     O98016  13.498   1.319   3.249  0.1569 -0.3198  0.2662
  711MOL0     C98017  13.583   1.200   3.241  0.3376  0.1133  0.6449
  711MOL0     C98018  13.556   1.115   3.109  0.2609  0.6579  0.3384
  711MOL0     C98019  13.560   1.217   2.988  0.0174  0.4179 -0.3305
  711MOL0     C98020  13.703   1.273   2.946 -0.3400 -0.1407 -0.7733
  711MOL0     C98021  13.718   1.266   2.795  0.2662 -0.0542 -0.2969
  711MOL0     C98022  13.816   1.375   2.738 -0.1295 -0.0387  0.1872
  711MOL0     C98023  13.880   1.350   2.607 -0.1639  0.2328  0.1375
  711MOL0     C98024  13.970   1.463   2.555  0.2922 -0.5379  1.6257
  711MOL0    Cl98025  13.875   1.618   2.502 -0.1072 -0.1329 -0.3671
  711MOL0     C98026  13.298   1.435   3.310  1.0293  0.0049 -0.3239
  711MOL0     C98027  13.157   1.440   3.334  0.5905  0.1897 -0.8446
  711MOL0     O98028  12.886   1.512   3.299  0.1645  0.6415  0.3397
  711MOL0     C98029  12.713   1.253   3.485  0.4126  0.3636 -0.9846
  711MOL0     C98030  12.585   1.211   3.530  0.7614 -0.3495  0.9320
  711MOL0     N98031  11.986   0.802   3.793  0.5973 -0.0148 -0.3306
  711MOL0     N98032  11.973   0.688   3.727  0.2594 -0.3976  0.5047
  711MOL0     C98033  11.330   0.369   4.042 -0.3746  0.0931 -0.2248
  711MOL0     C98034  11.203   0.414   4.075  0.2601  0.1400  0.5655
  711MOL0     C98035  10.763   0.560   4.030  0.2961  0.2653  0.7043
  711MOL0     C98036  10.793   0.627   4.153  0.3239 -0.3113 -0.4297
  711MOL0     C98037  10.692   0.693   4.227  0.3761 -0.3521 -0.6725
  711MOL0     C98038  10.562   0.689   4.190  0.1817  0.1773 -0.3023
  711MOL0     O98039  10.467   0.750   4.269  0.4614  0.2941  0.4269
  711MOL0     C98040  10.341   0.790   4.229  0.0128 -0.2706 -0.9606
  711MOL0     C98041  10.280   0.902   4.323  0.0844  0.1085  0.1339
  711MOL0     C98042  10.154   0.987   4.282 -0.4550 -0.1472 -0.3024
  711MOL0     C98043  10.094   1.062   4.413  0.1251 -0.2983  0.7052
  711MOL0     C98044   9.992   1.157   4.369 -1.0416 -0.4566 -0.2601
  711MOL0     C98045   9.906   1.238   4.336 -0.8384 -0.2994 -0.7775
  711MOL0     C98046  10.529   0.624   4.072  0.0692  0.3187 -0.1852
  711MOL0     C98047  10.623   0.552   3.989 -0.6019 -0.4786  0.1984
  711MOL0     C98048  10.575   0.477   3.867  0.4528  0.1225 -0.2099
  711MOL0     H98049  11.027   0.248   3.840 -0.6757  0.4932  0.4997
  711MOL0     H98050  11.240   0.144   3.813 -0.4513  0.2848 -1.4084
  711MOL0     H98051  11.549   0.186   4.090  1.0642 -0.4186  0.1608
  711MOL0     H98052  11.604   0.339   4.008 -0.0322  0.1324  1.4366
  711MOL0     H98053  11.772   0.167   4.002  0.5803 -2.4039 -0.8013
  711MOL0     H98054  11.663   0.056   3.931 -0.8093 -0.3517 -0.4298
  711MOL0     H98055  11.826   0.164   3.772 -0.0754  0.1557 -0.7635
  711MOL0     H98056  11.662   0.155   3.724  0.2715  0.4941 -0.7123
  711MOL0     H98057  11.628   0.401   3.790 -0.2467 -0.8561 -1.0814
  711MOL0     H98058  11.796   0.431   3.815 -0.5472  3.4459 -3.2186
  711MOL0     H98059  11.663   0.311   3.567  0.6139 -0.5936  0.2654
  711MOL0     H98060  11.838   0.359   3.566  0.5771  1.3335 -0.5055
  711MOL0     H98061  11.589   0.526   3.543 -0.0203  1.1542  1.4424
  711MOL0     H98062  11.701   0.578   3.658  1.0174  0.7205 -1.0187
  711MOL0     H98063  11.713   0.682   3.442  0.8061  0.4709  1.4046
  711MOL0     H98064  11.755   0.536   3.363 -0.7965  2.1498 -0.2078
  711MOL0     H98065  11.975   0.535   3.490 -1.5315 -0.6097 -1.6108
  711MOL0     H98066  11.940   0.678   3.390 -0.0455  1.3899  0.9217
  711MOL0     H98067  11.936   0.898   3.482 -0.6754 -2.5076 -0.9043
  711MOL0     H98068  12.103   1.026   3.806  1.0412 -2.0668 -0.2766
  711MOL0     H98069  11.944   1.086   3.772  0.4999  0.2894 -0.7322
  711MOL0     H98070  12.166   1.050   3.568 -0.2919  0.0393 -0.5745
  711MOL0     H98071  12.001   1.092   3.527  1.2263 -1.1271 -1.3231
  711MOL0     H98072  12.020   1.308   3.618  0.0372 -0.0301  1.5259
  711MOL0     H98073  12.156   1.249   3.733 -1.3718 -2.4895 -0.3273
  711MOL0     H98074  12.193   1.296   3.441  1.1973  0.2611 -0.7137
  711MOL0     H98075  12.229   1.411   3.582 -1.0919 -1.1926  2.1225
  711MOL0     H98076  12.393   1.458   3.385 -0.3889 -1.2934 -3.6329
  711MOL0     H98077  12.523   1.561   3.187  0.9546  1.4260 -1.5260
  711MOL0     H98078  12.700   1.573   3.222  0.5875 -3.2031  0.8214
  711MOL0     H98079  12.596   1.643   3.337  4.4052 -0.3353  1.0991
  711MOL0     H98080  13.125   1.107   3.392  1.4677  0.6008  2.3011
  711MOL0     H98081  13.341   1.092   3.317 -1.9013 -1.0595 -0.8422
  711MOL0     H98082  13.685   1.237   3.257  0.8435 -2.2402  4.0090
  711MOL0     H98083  13.563   1.126   3.319  1.4978 -1.2695 -0.3358
  711MOL0     H98084  13.639   1.044   3.103  2.3981  3.0381 -0.8604
  711MOL0     H98085  13.461   1.062   3.117 -0.9077  2.1928 -2.0969
  711MOL0     H98086  13.494   1.301   3.012  1.4361  1.5351 -0.2136
  711MOL0     H98087  13.530   1.162   2.898 -0.1041  0.1174 -0.1093
  711MOL0     H98088  13.775   1.209   2.998  1.8002 -0.5776 -3.9627
  711MOL0     H98089  13.715   1.375   2.982 -0.1640 -0.2898 -0.4087
  711MOL0     H98090  13.755   1.166   2.771  0.2181 -0.0330 -0.4583
  711MOL0     H98091  13.624   1.290   2.744  0.5089 -1.0812 -1.2673
  711MOL0     H98092  13.891   1.409   2.810 -0.3668 -0.2696  0.5461
  711MOL0     H98093  13.762   1.468   2.717  1.3992  0.3300 -2.4833
  711MOL0     H98094  13.794   1.348   2.538 -0.3014 -1.5458  0.3068
  711MOL0     H98095  13.928   1.252   2.601  0.8731  0.7836 -1.0731
  711MOL0     H98096  14.033   1.434   2.471 -1.4450 -1.0146  0.4432
  711MOL0     H98097  14.041   1.498   2.631  1.6999  1.0237 -0.3020
  711MOL0     H98098  13.361   1.524   3.301  3.4012 -1.7700 -2.9686
  711MOL0     H98099  13.108   1.536   3.334  1.5005  0.6889  0.3495
  711MOL0     H98100  12.794   1.183   3.505 -0.7257 -0.3426  1.5928
  711MOL0     H98101  12.585   1.123   3.594  1.4140 -1.5937 -0.7266
  711MOL0     H98102  11.415   0.413   4.093  0.7075 -0.5323 -1.4295
  711MOL0     H98103  11.196   0.495   4.147  1.8077  2.4720 -1.7217
  711MOL0     H98104  10.897   0.646   4.176 -0.5002  6.0380 -0.0478
  711MOL0     H98105  10.719   0.732   4.325  0.6780 -2.1837  0.0113
  711MOL0     H98106  10.354   0.832   4.129 -0.6272  2.7343  0.1251
  711MOL0     H98107  10.269   0.708   4.237 -2.0215  1.5974  1.4712
  711MOL0     H98108  10.349   0.985   4.341 -1.6397  1.8615 -0.9016
  711MOL0     H98109  10.275   0.856   4.423 -1.6675 -1.9513 -0.8280
  711MOL0     H98110  10.179   1.062   4.207  1.0594 -0.3251 -0.0067
  711MOL0     H98111  10.072   0.928   4.240 -1.0732  2.0864 -2.4866
  711MOL0     H98112  10.184   1.105   4.458  3.5296 -0.8132 -4.7580
  711MOL0     H98113  10.050   1.004   4.495  1.6747 -0.2018  1.6276
  711MOL0     H98114   9.840   1.315   4.299 -0.6865  1.1887  1.7898
  711MOL0     H98115  10.424   0.615   4.048 -0.1218  0.0654  0.6873
  711MOL0     H98116  10.609   0.534   3.780 -3.0987 -1.5259 -2.9572
  711MOL0     H98117  10.623   0.381   3.850  1.1228  0.2050  1.0776
  711MOL0     H98118  10.465   0.479   3.861  0.4641  1.2055 -0.2741
  712MOL0     O98119   5.349   5.490   0.944 -0.1910 -0.3067 -0.7185
  712MOL0     C98120   5.369   5.512   0.824  0.9928 -0.9441  0.1578
  712MOL0     O98121   5.487   5.520   0.761 -0.1725 -0.2891 -0.0863
  712MOL0     C98122   5.606   5.518   0.828 -0.4925  0.0448  0.5960
  712MOL0     C98123   5.629   5.571   0.958 -0.4128  0.2119  0.4187
  712MOL0     C98124   5.758   5.543   1.013  0.6420 -0.9158  0.2164
  712MOL0     C98125   5.856   5.467   0.946  0.4265  0.1980 -0.1289
  712MOL0     O98126   5.978   5.431   0.995 -0.2153 -0.8744  0.0032
  712MOL0     C98127   6.006   5.451   1.139  0.6042  0.3666 -0.4499
  712MOL0     C98128   6.156   5.408   1.167 -0.6100  0.0991 -0.2506
  712MOL0     C98129   6.197   5.262   1.125 -0.0931  0.0345  0.5271
  712MOL0     C98130   6.350   5.237   1.126 -0.1684  0.1104 -0.3459
  712MOL0     C98131   6.397   5.203   1.271 -0.8029 -0.7205 -0.4403
  712MOL0     C98132   6.550   5.176   1.288  0.2721  0.9966  0.5721
  712MOL0     C98133   6.593   5.148   1.437 -0.4747 -0.1588 -0.4604
  712MOL0     C98134   6.733   5.102   1.451  0.2904  0.5570 -0.7215
  712MOL0     N98135   6.812   5.200   1.390 -0.5274 -0.1648 -0.1328
  712MOL0     C98136   6.900   5.198   1.278  0.2707  0.4963 -0.6011
  712MOL0     C98137   6.965   5.317   1.281 -0.0017  0.3957  0.8062
  712MOL0     C98138   7.072   5.355   1.183  0.2852 -0.0925 -0.2180
  712MOL0     C98139   7.192   5.413   1.249  0.7854  0.3210  0.2139
  712MOL0     C98140   7.255   5.305   1.350 -0.9939 -0.2492 -0.6036
  712MOL0     C98141   7.333   5.392   1.455 -0.3423  0.4725 -0.7629
  712MOL0     O98142   7.432   5.312   1.535  0.7102 -0.2507  0.4277
  712MOL0     C98143   7.526   5.381   1.600 -0.4076 -0.2349  0.3368
  712MOL0     C98144   7.649   5.317   1.610 -0.1828 -0.9955  1.1618
  712MOL0     C98145   7.756   5.372   1.691  0.0698  0.4288 -0.0833
  712MOL0     C98146   7.881   5.287   1.696  0.0092  0.2707 -0.4148
  712MOL0     C98147   7.741   5.498   1.757  0.3146  0.1452  0.0516
  712MOL0     C98148   7.848   5.575   1.822 -0.6588 -0.5053  0.7079
  712MOL0     O98149   7.978   5.533   1.812 -0.5340  0.4267  0.0713
  712MOL0     C98150   8.075   5.577   1.897  0.4169  0.5712 -0.3590
  712MOL0     C98151   8.062   5.572   2.038 -1.0471  1.0340 -0.4437
  712MOL0     C98152   8.169   5.618   2.110 -0.0110 -0.8372 -0.5665
  712MOL0     C98153   8.292   5.661   2.056  0.6918 -0.8525  0.3646
  712MOL0     O98154   8.407   5.685   2.125 -0.1303 -0.1522 -0.8256
  712MOL0     C98155   8.408   5.747   2.259 -0.5394  0.0884 -0.1900
  712MOL0     C98156   8.532   5.835   2.274 -0.8939  0.3704  0.4928
  712MOL0     C98157   8.535   5.906   2.407  0.3004 -0.2307 -0.3381
  712MOL0     C98158   8.681   5.967   2.435  0.6251 -0.3043 -0.3110
  712MOL0     C98159   8.697   6.013   2.578  0.0458  0.8552 -0.4400
  712MOL0     C98160   8.833   6.088   2.586 -0.1368  0.0776  0.0009
  712MOL0     C98161   8.863   6.145   2.728  0.4390 -0.0607 -0.1262
  712MOL0     C98162   9.013   6.174   2.751 -0.5496  0.8069  0.0397
  712MOL0    Cl98163   9.041   6.206   2.924  0.1576 -0.1066  0.5055
  712MOL0     C98164   8.303   5.661   1.917 -0.1297  0.8731  0.3823
  712MOL0     C98165   8.187   5.628   1.833  0.2954  0.1819 -0.0267
  712MOL0     O98166   7.805   5.664   1.894  0.0245 -0.7963  0.0099
  712MOL0     C98167   7.610   5.559   1.744 -0.6006  0.0886  0.3236
  712MOL0     C98168   7.512   5.504   1.665  0.0273 -0.6713  0.2144
  712MOL0     N98169   6.914   5.391   1.388  0.0364  0.9779  0.2275
  712MOL0     N98170   6.825   5.324   1.450 -0.2843  0.0624  0.1482
  712MOL0     C98171   5.825   5.408   0.823  0.4988 -0.3369 -0.1477
  712MOL0     C98172   5.698   5.442   0.765  0.1748  1.0351  0.4803
  712MOL0     C98173   5.264   5.579   0.755 -1.1767 -0.1257  0.4688
  712MOL0     C98174   5.300   5.695   0.687  0.6210  0.6374  0.4683
  712MOL0     C98175   5.212   5.774   0.621  0.3860  0.7858  0.0387
  712MOL0     C98176   5.078   5.736   0.609 -0.6835 -0.6594 -0.0466
  712MOL0     O98177   4.998   5.812   0.524 -0.0700 -0.5200 -0.3606
  712MOL0     C98178   4.852   5.812   0.537  0.0337 -0.5617 -0.2368
  712MOL0     C98179   4.799   5.880   0.660 -1.4135  0.2583 -0.0831
  712MOL0     C98180   4.773   6.034   0.635  0.8513  0.1530  0.2183
  712MOL0     C98181   4.873   6.114   0.557 -0.2646 -0.1022  0.0318
  712MOL0     C98182   4.827   6.243   0.512  0.5418  0.0679  0.3537
  712MOL0     C98183   4.778   6.348   0.484 -1.0868 -0.2500 -0.1049
  712MOL0     C98184   5.033   5.621   0.680  0.3998  1.3159  0.5240
  712MOL0     C98185   5.127   5.540   0.757 -0.1732 -0.2741 -0.5773
  712MOL0     C98186   5.078   5.418   0.833 -0.2005 -0.5542  1.1031
  712MOL0     H98187   5.551   5.622   1.013  2.0887  3.0423  1.6689
  712MOL0     H98188   5.778   5.581   1.112 -2.1808  4.8840 -1.0329
  712MOL0     H98189   5.944   5.381   1.196  0.3745  1.4539  0.6968
  712MOL0     H98190   5.996   5.556   1.170 -3.4929 -0.0540  0.2480
  712MOL0     H98191   6.230   5.474   1.121  2.9955 -3.9057 -0.8435
  712MOL0     H98192   6.159   5.434   1.273 -0.9087  0.1795 -0.2620
  712MOL0     H98193   6.141   5.188   1.183 -3.1301  0.8783 -1.1235
  712MOL0     H98194   6.166   5.240   1.023 -2.6584  0.3254  1.1782
  712MOL0     H98195   6.374   5.154   1.058  0.0191  0.8055 -1.1570
  712MOL0     H98196   6.403   5.329   1.099 -0.5642 -0.1230 -2.0550
  712MOL0     H98197   6.341   5.122   1.318 -0.4734 -0.8750 -0.3088
  712MOL0     H98198   6.379   5.289   1.336  2.3334 -0.2310 -0.0587
  712MOL0     H98199   6.574   5.085   1.233  0.2860  0.4073  1.5246
  712MOL0     H98200   6.604   5.259   1.241 -0.8221  1.2123 -0.3425
  712MOL0     H98201   6.520   5.080   1.482 -0.8256  0.5250  0.0289
  712MOL0     H98202   6.585   5.238   1.498  3.2525  0.1934 -0.2362
  712MOL0     H98203   6.746   5.104   1.559 -2.5673  0.5888 -0.2918
  712MOL0     H98204   6.761   5.003   1.413 -0.0675  0.5143 -0.8811
  712MOL0     H98205   6.900   5.120   1.202 -0.3079  1.0056 -1.1367
  712MOL0     H98206   7.017   5.425   1.119 -2.0445 -0.7004  1.0235
  712MOL0     H98207   7.101   5.269   1.123 -0.4629 -2.1036  2.1329
  712MOL0     H98208   7.266   5.450   1.178  1.3109 -2.4491 -0.8219
  712MOL0     H98209   7.152   5.497   1.306 -0.4620  0.5429 -0.9228
  712MOL0     H98210   7.181   5.255   1.414 -1.1348 -0.7728 -1.1686
  712MOL0     H98211   7.315   5.233   1.294 -1.4755 -0.7855 -0.4472
  712MOL0     H98212   7.394   5.467   1.402 -3.1956  1.4355 -2.9340
  712MOL0     H98213   7.264   5.446   1.520  0.5663  0.8090 -0.0498
  712MOL0     H98214   7.652   5.217   1.568  0.1841  0.4931 -2.7327
  712MOL0     H98215   7.973   5.331   1.655  0.3107 -0.7998 -0.9117
  712MOL0     H98216   7.866   5.190   1.649 -0.5412  0.8605 -1.4892
  712MOL0     H98217   7.897   5.283   1.804 -0.8348 -0.0817 -0.3017
  712MOL0     H98218   7.972   5.538   2.088 -0.2617 -0.9615 -0.3053
  712MOL0     H98219   8.172   5.612   2.218  0.6864  2.2930 -0.3131
  712MOL0     H98220   8.329   5.821   2.244  0.3569  0.7534 -2.0109
  712MOL0     H98221   8.397   5.684   2.348 -1.9044  1.3720  0.5862
  712MOL0     H98222   8.616   5.765   2.268 -2.2116 -1.2615 -0.0492
  712MOL0     H98223   8.533   5.904   2.190  0.0894  0.4799  0.5841
  712MOL0     H98224   8.520   5.831   2.486  1.3539 -0.4557 -0.3348
  712MOL0     H98225   8.455   5.981   2.417  0.3807 -0.3009  1.0041
  712MOL0     H98226   8.693   6.053   2.368 -3.0545 -0.7109 -1.7253
  712MOL0     H98227   8.757   5.893   2.409 -1.8595 -2.8987 -0.6046
  712MOL0     H98228   8.618   6.078   2.615 -1.3068 -1.5823  1.2122
  712MOL0     H98229   8.693   5.927   2.645  1.2006  1.1764  0.0665
  712MOL0     H98230   8.844   6.167   2.512  3.5193  0.3605  0.6656
  712MOL0     H98231   8.916   6.020   2.567 -0.6407 -0.3868 -0.5520
  712MOL0     H98232   8.821   6.072   2.798 -1.7829  0.7045 -0.5764
  712MOL0     H98233   8.807   6.236   2.748  0.9223  0.0500  0.7685
  712MOL0     H98234   9.031   6.265   2.693 -0.2932  0.0716 -1.0581
  712MOL0     H98235   9.084   6.095   2.724  0.8896  1.2533  2.2325
  712MOL0     H98236   8.398   5.682   1.870 -0.3764  1.2473  0.0441
  712MOL0     H98237   8.188   5.630   1.724 -2.8832 -1.0572 -0.2045
  712MOL0     H98238   7.580   5.654   1.786  0.3917  0.3351  0.5020
  712MOL0     H98239   7.423   5.565   1.650  1.0550  0.8817  0.2483
  712MOL0     H98240   5.899   5.341   0.779  1.7369  2.8384 -3.3635
  712MOL0     H98241   5.675   5.414   0.663 -1.4176 -0.1781  1.1344
  712MOL0     H98242   5.400   5.737   0.684 -0.1899  2.7227  1.0340
  712MOL0     H98243   5.244   5.848   0.548  0.6647 -1.2917 -2.0824
  712MOL0     H98244   4.815   5.864   0.448 -0.0633  0.6649  0.4985
  712MOL0     H98245   4.812   5.710   0.528  1.4139 -1.1775  0.2906
  712MOL0     H98246   4.868   5.872   0.745  0.9417  3.6332 -1.4541
  712MOL0     H98247   4.703   5.839   0.691 -0.7928 -0.7487  0.5638
  712MOL0     H98248   4.676   6.040   0.586  1.4228 -0.6376 -1.0686
  712MOL0     H98249   4.761   6.074   0.736  0.5539 -3.3969  1.7257
  712MOL0     H98250   4.903   6.073   0.460 -0.0543  0.6940 -0.2479
  712MOL0     H98251   4.969   6.125   0.609 -0.4846 -0.8123  0.5979
  712MOL0     H98252   4.733   6.441   0.455 -2.1634 -0.8605 -0.4237
  712MOL0     H98253   4.928   5.593   0.676  0.7400  0.1786 -1.8272
  712MOL0     H98254   5.093   5.426   0.941  0.0246 -2.6287  1.2636
  712MOL0     H98255   4.972   5.401   0.812 -0.4808  3.4008 -2.0299
  712MOL0     H98256   5.123   5.324   0.800  0.6128 -0.2660  1.3674
  713MOL0     O98257   7.173   6.826  11.209 -0.5019  0.3134  0.2449
  713MOL0     C98258   7.216   6.803  11.092  0.2226 -0.2088 -0.9002
  713MOL0     O98259   7.138   6.752  10.990  0.2970 -0.4914  0.7951
  713MOL0     C98260   7.015   6.719  11.028 -1.3562  0.0453 -0.1655
  713MOL0     C98261   6.915   6.800  10.994  0.4789 -0.0007 -0.6842
  713MOL0     C98262   6.779   6.761  11.031  0.4315 -0.1856  0.1875
  713MOL0     C98263   6.757   6.630  11.085 -1.0082 -0.0320  0.5706
  713MOL0     O98264   6.641   6.606  11.140  0.2580  0.2862 -0.0958
  713MOL0     C98265   6.590   6.473  11.140 -0.0684  0.1813  0.4938
  713MOL0     C98266   6.480   6.467  11.021 -1.0746 -0.4425 -1.0616
  713MOL0     C98267   6.559   6.458  10.896 -0.1009 -0.0070  0.6768
  713MOL0     C98268   6.472   6.449  10.760  0.1080  0.4894 -0.7666
  713MOL0     C98269   6.554   6.409  10.639 -0.3834  0.3004  0.9343
  713MOL0     C98270   6.467   6.327  10.530 -0.3544 -0.3707  0.1778
  713MOL0     C98271   6.332   6.401  10.486  0.4038  0.6666  0.0074
  713MOL0     C98272   6.382   6.498  10.380  0.1559  0.4846 -1.0300
  713MOL0     N98273   6.276   6.583  10.319  0.2134  0.3564  0.1878
  713MOL0     C98274   6.148   6.600  10.353  0.7141  0.2813  0.2411
  713MOL0     C98275   6.100   6.678  10.253  0.0191 -0.7330 -0.0669
  713MOL0     C98276   5.960   6.728  10.229 -0.2935  0.3592 -0.3526
  713MOL0     C98277   5.857   6.618  10.198 -0.3000  0.5101  0.2484
  713MOL0     C98278   5.889   6.569  10.058  0.2885 -0.5297  0.5529
  713MOL0     C98279   5.836   6.428  10.027  0.2497  0.2390  0.0316
  713MOL0     O98280   5.925   6.320  10.042 -0.9398  0.0258 -0.1028
  713MOL0     C98281   5.900   6.206   9.984  0.2453  0.7701  0.1085
  713MOL0     C98282   5.766   6.167   9.940 -0.0192  0.3956 -0.5578
  713MOL0     C98283   5.749   6.044   9.875 -0.1429 -0.6950 -0.7908
  713MOL0     C98284   5.610   6.007   9.825 -0.3266 -0.5732  0.1158
  713MOL0     C98285   5.868   5.964   9.856  0.5408  0.6926  0.0943
  713MOL0     C98286   5.866   5.828   9.793  1.2999 -0.4519 -0.9099
  713MOL0     O98287   5.960   5.748   9.831 -0.9421  0.2624 -0.1019
  713MOL0     C98288   5.934   5.613   9.823 -0.0337 -0.5140 -0.6126
  713MOL0     C98289   5.893   5.538   9.939  0.0222  0.4576 -0.2896
  713MOL0     C98290   5.866   5.405   9.931 -0.6801  1.2043  0.2317
  713MOL0     C98291   5.881   5.330   9.815 -0.3209 -0.1704 -0.5111
  713MOL0     O98292   5.864   5.195   9.830 -0.3417  0.5489 -0.3943
  713MOL0     C98293   5.831   5.118   9.717  0.4710 -0.1989 -0.0076
  713MOL0     C98294   5.682   5.091   9.728  0.3247  0.1473  0.7001
  713MOL0     C98295   5.642   4.987   9.625 -0.0074 -0.0393  0.7658
  713MOL0     C98296   5.486   4.995   9.623  0.0571 -0.0134  0.1750
  713MOL0     C98297   5.413   4.876   9.545 -0.4949  0.3922 -0.4603
  713MOL0     C98298   5.261   4.889   9.534 -0.1859  0.9494 -0.1696
  713MOL0     C98299   5.211   5.024   9.481  0.8294 -0.0309  0.6442
  713MOL0     C98300   5.235   5.028   9.326 -0.0281 -0.4558 -0.2462
  713MOL0    Cl98301   5.207   5.191   9.254 -0.2240 -0.2512  0.2546
  713MOL0     C98302   5.932   5.397   9.705  1.0084  0.2178  0.0641
  713MOL0     C98303   5.954   5.537   9.707 -0.0735  0.2132  0.4917
  713MOL0     O98304   5.764   5.791   9.728 -0.1914 -0.4419 -0.1274
  713MOL0     C98305   5.994   6.006   9.901 -0.0958  0.0788 -0.3487
  713MOL0     C98306   6.014   6.123   9.979  0.7640  0.2708 -0.8036
  713MOL0     N98307   6.197   6.693  10.157 -0.4638 -0.2562  0.2261
  713MOL0     N98308   6.301   6.631  10.194 -0.1193  0.3525 -0.0872
  713MOL0     C98309   6.871   6.550  11.104  0.4874 -0.4926 -0.3401
  713MOL0     C98310   7.001   6.596  11.083 -0.1820 -0.7576 -0.9125
  713MOL0     C98311   7.365   6.809  11.058  0.1069 -0.0040 -0.3477
  713MOL0     C98312   7.392   6.841  10.922 -0.2331  0.0344  0.8671
  713MOL0     C98313   7.515   6.895  10.887 -0.5433 -0.0252  1.0015
  713MOL0     C98314   7.623   6.896  10.981  0.3610 -0.6925 -0.2796
  713MOL0     O98315   7.740   6.956  10.949  0.0342  0.0560 -0.0128
  713MOL0     C98316   7.836   6.982  11.048 -0.4360 -0.1605 -0.4705
  713MOL0     C98317   7.953   7.056  10.986 -0.4480  0.7755 -0.3896
  713MOL0     C98318   8.032   6.965  10.891 -0.2051  0.1697  0.7283
  713MOL0     C98319   8.180   7.008  10.890 -0.0214 -0.0290  0.0278
  713MOL0     C98320   8.260   6.943  10.994  0.2748 -0.2432 -0.2755
  713MOL0     C98321   8.317   6.895  11.087  0.4256 -0.1545 -0.0078
  713MOL0     C98322   7.596   6.853  11.116  0.2008  0.5401 -0.3200
  713MOL0     C98323   7.471   6.808  11.158  0.0061 -1.0454  0.5783
  713MOL0     C98324   7.452   6.782  11.307  0.3419 -0.0904 -0.3264
  713MOL0     H98325   6.935   6.898  10.951 -0.2633  1.2129  1.5615
  713MOL0     H98326   6.702   6.837  11.030  0.9190  0.3586  1.2883
  713MOL0     H98327   6.538   6.457  11.235  0.1213 -3.6658  0.0810
  713MOL0     H98328   6.661   6.391  11.129  0.2819  0.1193  2.7837
  713MOL0     H98329   6.426   6.373  11.030 -0.8561 -0.4344  0.6657
  713MOL0     H98330   6.416   6.555  11.027  0.7573  0.8508  1.9130
  713MOL0     H98331   6.623   6.544  10.876 -0.9803  0.4936 -0.0610
  713MOL0     H98332   6.618   6.366  10.890 -0.2072 -0.0700  0.6050
  713MOL0     H98333   6.395   6.375  10.783 -1.4962  1.9194 -1.3967
  713MOL0     H98334   6.418   6.542  10.742 -0.8929  0.0164 -0.2649
  713MOL0     H98335   6.639   6.345  10.666  0.7053  1.5652  0.6045
  713MOL0     H98336   6.605   6.489  10.585 -1.5508 -0.1908 -0.9954
  713MOL0     H98337   6.527   6.312  10.440 -1.4194  2.1420 -1.0070
  713MOL0     H98338   6.442   6.227  10.568 -0.7769 -0.5428 -0.5392
  713MOL0     H98339   6.271   6.434  10.571  0.3845 -1.0349  0.6930
  713MOL0     H98340   6.266   6.330  10.436  1.9673 -0.3836 -0.6612
  713MOL0     H98341   6.458   6.561  10.428 -0.2141 -1.3978  2.3351
  713MOL0     H98342   6.434   6.436  10.306  2.1530 -0.9586  1.3926
  713MOL0     H98343   6.085   6.568  10.435 -1.3719  2.9187 -0.1983
  713MOL0     H98344   5.950   6.794  10.143  0.2479 -0.4754 -1.0747
  713MOL0     H98345   5.923   6.800  10.303  0.5499  1.2536 -0.7798
  713MOL0     H98346   5.887   6.541  10.270  1.6936  1.3695  0.4221
  713MOL0     H98347   5.755   6.654  10.216 -1.0929 -1.7635  0.5860
  713MOL0     H98348   5.853   6.643   9.985  2.3565  0.8813  0.8624
  713MOL0     H98349   5.995   6.565  10.033 -0.0575 -2.0830 -0.7962
  713MOL0     H98350   5.750   6.412  10.093 -0.6060  1.4217 -0.7273
  713MOL0     H98351   5.803   6.431   9.922  0.9141 -2.2873 -0.3032
  713MOL0     H98352   5.683   6.233   9.965 -1.4674 -2.4850  3.1689
  713MOL0     H98353   5.539   6.090   9.828  0.0879  0.0228 -3.2704
  713MOL0     H98354   5.575   5.914   9.873  2.0426 -1.2086  0.7530
  713MOL0     H98355   5.617   5.988   9.718 -0.4486 -0.0991  0.0237
  713MOL0     H98356   5.877   5.594  10.031 -0.9931 -1.0414  0.5048
  713MOL0     H98357   5.817   5.357  10.015 -0.4467 -1.7810 -1.1993
  713MOL0     H98358   5.861   5.163   9.622  3.0387 -0.0310  0.8155
  713MOL0     H98359   5.873   5.020   9.743 -2.4516 -1.1556  1.5810
  713MOL0     H98360   5.657   5.059   9.830  1.0687 -1.6588  0.3534
  713MOL0     H98361   5.629   5.186   9.719  2.4357  1.4971  1.6541
  713MOL0     H98362   5.683   4.892   9.659  0.2186  0.8343  3.1043
  713MOL0     H98363   5.684   5.003   9.525 -1.2724  1.0469  0.3765
  713MOL0     H98364   5.461   5.099   9.603  0.6512 -0.0396 -0.7535
  713MOL0     H98365   5.453   4.991   9.727 -2.2957 -2.6620 -0.5617
  713MOL0     H98366   5.450   4.866   9.442  1.7328  0.1278  0.3078
  713MOL0     H98367   5.423   4.784   9.603 -2.2964 -0.1407 -0.9317
  713MOL0     H98368   5.220   4.871   9.634  1.2795 -1.1034  0.1394
  713MOL0     H98369   5.230   4.802   9.476  0.0427  0.7317  0.0239
  713MOL0     H98370   5.268   5.102   9.534 -0.6696  1.1580  0.5747
  713MOL0     H98371   5.104   5.040   9.492  0.3982 -0.1649 -2.4904
  713MOL0     H98372   5.171   4.962   9.267 -0.5104  0.8739 -1.2699
  713MOL0     H98373   5.338   4.999   9.304  1.4479  2.8945  1.4809
  713MOL0     H98374   5.966   5.343   9.617 -0.3000 -0.3344 -0.1198
  713MOL0     H98375   5.988   5.591   9.619  1.1340  0.1767  0.9187
  713MOL0     H98376   6.082   5.944   9.897 -0.4416 -0.7766  2.7024
  713MOL0     H98377   6.109   6.155  10.020  1.1336 -1.4935 -0.1849
  713MOL0     H98378   6.859   6.456  11.157 -1.1536  1.1227  2.3583
  713MOL0     H98379   7.089   6.533  11.090 -0.6280 -1.3032 -0.0350
  713MOL0     H98380   7.312   6.834  10.848  1.0675 -1.2562 -0.4724
  713MOL0     H98381   7.528   6.934  10.786 -0.1358 -1.3254  0.5173
  713MOL0     H98382   7.799   7.040  11.133  0.7723 -0.3808  0.2256
  713MOL0     H98383   7.862   6.892  11.105 -2.5590  1.0024  2.6475
  713MOL0     H98384   8.025   7.094  11.059 -1.6504 -1.7851  2.3644
  713MOL0     H98385   7.925   7.142  10.925 -0.3573 -0.5083 -2.3295
  713MOL0     H98386   8.010   6.860  10.910 -2.5230  0.1797 -1.3848
  713MOL0     H98387   8.004   6.979  10.786 -1.6034 -0.9067  0.9210
  713MOL0     H98388   8.194   7.116  10.901 -0.0930  0.1177 -1.1462
  713MOL0     H98389   8.223   6.975  10.794 -2.1785 -2.4087 -0.2293
  713MOL0     H98390   8.356   6.848  11.175 -2.6805 -2.7885  0.1338
  713MOL0     H98391   7.668   6.857  11.197 -0.9772 -3.1190  1.1297
  713MOL0     H98392   7.373   6.844  11.349 -0.5012 -0.8336 -0.7614
  713MOL0     H98393   7.432   6.676  11.328  4.4619 -0.9569  0.0181
  713MOL0     H98394   7.550   6.794  11.353  1.2052 -0.5017 -1.9841
  714MOL0     O98395   8.908   8.009  10.021  0.0121  0.0033 -0.7168
  714MOL0     C98396   8.828   8.090   9.981  0.6127 -0.2205 -1.3881
  714MOL0     O98397   8.817   8.151   9.860 -0.4583  0.3325 -0.5196
  714MOL0     C98398   8.927   8.146   9.781 -0.4262  0.1155 -0.4028
  714MOL0     C98399   9.051   8.175   9.824  0.5017 -0.1988 -0.0006
  714MOL0     C98400   9.161   8.181   9.736  0.6184 -0.4786  0.0303
  714MOL0     C98401   9.146   8.171   9.600  0.3264  0.2970 -0.3636
  714MOL0     O98402   9.255   8.212   9.524  0.4184  0.2430  0.1883
  714MOL0     C98403   9.232   8.248   9.385 -0.4802 -0.0718  1.1340
  714MOL0     C98404   9.353   8.309   9.322  1.1230  0.1768 -0.4566
  714MOL0     C98405   9.485   8.233   9.349  0.7410  0.7175 -0.3905
  714MOL0     C98406   9.610   8.312   9.325 -0.8349 -0.4139 -0.3312
  714MOL0     C98407   9.727   8.224   9.378 -0.2422 -0.2837  0.3077
  714MOL0     C98408   9.767   8.105   9.294 -0.2015  0.2932  0.3542
  714MOL0     C98409   9.879   8.023   9.358 -1.1028 -0.1768 -0.2000
  714MOL0     C98410  10.020   8.041   9.302  0.3860  0.7033  0.6553
  714MOL0     N98411  10.115   7.967   9.376 -0.4373  0.3106 -1.6568
  714MOL0     C98412  10.132   7.827   9.366 -0.0778 -0.6045 -1.1416
  714MOL0     C98413  10.222   7.802   9.467  0.5961 -0.5300 -0.3228
  714MOL0     C98414  10.277   7.662   9.512  0.0834 -0.6844  0.3334
  714MOL0     C98415  10.423   7.659   9.560 -0.4267 -0.2415  0.4300
  714MOL0     C98416  10.518   7.728   9.475 -0.2198  0.3614  0.6518
  714MOL0     C98417  10.655   7.662   9.472  0.7983  0.1367 -0.1479
  714MOL0     O98418  10.747   7.777   9.479  0.0883  0.1199 -0.3115
  714MOL0     C98419  10.879   7.745   9.450 -0.0440 -0.2754  0.0417
  714MOL0     C98420  10.926   7.611   9.430  0.0228  0.3630 -0.1234
  714MOL0     C98421  11.065   7.591   9.412  0.5524 -0.1502  0.4699
  714MOL0     C98422  11.104   7.452   9.398 -0.7092 -0.8722 -0.1510
  714MOL0     C98423  11.149   7.702   9.426  0.4854  0.1109 -0.2740
  714MOL0     C98424  11.299   7.686   9.403  0.4155 -0.7907  0.4539
  714MOL0     O98425  11.365   7.798   9.351 -0.3413 -1.0252  0.4718
  714MOL0     C98426  11.493   7.820   9.387 -1.2381  0.1859  0.3033
  714MOL0     C98427  11.525   7.859   9.514  0.3921 -0.5258 -0.4066
  714MOL0     C98428  11.656   7.882   9.558 -0.4462 -0.3633 -0.6364
  714MOL0     C98429  11.761   7.867   9.463 -0.4122 -0.9920  0.3770
  714MOL0     O98430  11.899   7.880   9.472  0.0529  0.0138  0.0494
  714MOL0     C98431  11.955   7.880   9.604 -0.5796 -0.3722 -0.0358
  714MOL0     C98432  12.098   7.936   9.606  0.0402  0.2046  0.2230
  714MOL0     C98433  12.192   7.841   9.526 -0.2563 -0.2209  0.8232
  714MOL0     C98434  12.331   7.913   9.515  0.6696  0.8441  0.2335
  714MOL0     C98435  12.433   7.847   9.424  0.0603  0.0448 -0.1827
  714MOL0     C98436  12.486   7.712   9.484 -0.4931 -0.6598 -0.6025
  714MOL0     C98437  12.587   7.646   9.395 -0.0660 -0.3710  0.7141
  714MOL0     C98438  12.598   7.508   9.456  0.2104  0.2353  0.0001
  714MOL0    Cl98439  12.739   7.413   9.386  0.0051 -0.1322 -0.2385
  714MOL0     C98440  11.727   7.823   9.341  0.1770 -0.0153  0.6475
  714MOL0     C98441  11.596   7.798   9.300 -0.0080 -0.6777 -0.6183
  714MOL0     O98442  11.358   7.592   9.454  0.2255  0.5607 -0.1766
  714MOL0     C98443  11.107   7.840   9.428  0.0121  0.8526 -0.1013
  714MOL0     C98444  10.970   7.850   9.446 -1.0123 -0.6078  0.1649
  714MOL0     N98445  10.267   7.919   9.525 -0.1508 -0.3420  0.0688
  714MOL0     N98446  10.208   8.012   9.480 -0.5821 -0.6816 -0.1043
  714MOL0     C98447   9.010   8.144   9.555 -0.6119 -0.7834  0.2066
  714MOL0     C98448   8.905   8.130   9.649 -0.9311 -0.1298  0.4775
  714MOL0     C98449   8.725   8.132  10.078  0.2409  0.2038  0.2751
  714MOL0     C98450   8.756   8.109  10.212 -0.7214  0.5485  0.0865
  714MOL0     C98451   8.655   8.116  10.306 -0.6671  0.5746 -0.4509
  714MOL0     C98452   8.531   8.157  10.274  0.1547  0.2424 -0.3941
  714MOL0     O98453   8.427   8.145  10.370 -0.4420 -0.3590  0.4136
  714MOL0     C98454   8.288   8.176  10.357  0.6281 -0.1342  0.1182
  714MOL0     C98455   8.224   8.053  10.307  0.6490  0.6692  0.2090
  714MOL0     C98456   8.070   8.057  10.318 -0.1678  0.2149 -0.0197
  714MOL0     C98457   8.012   8.171  10.229  0.1076  0.3515 -0.9648
  714MOL0     C98458   8.071   8.196  10.092 -0.3834 -0.8444 -0.4603
  714MOL0     C98459   8.120   8.219   9.981 -0.6830  0.1275  0.0212
  714MOL0     C98460   8.502   8.192  10.143 -0.2699 -0.0840  0.4620
  714MOL0     C98461   8.602   8.181  10.045 -0.4125  0.0923 -0.7541
  714MOL0     C98462   8.545   8.209   9.907  0.0686  0.0159 -0.1341
  714MOL0     H98463   9.056   8.185   9.932 -2.8338  2.2929  0.0984
  714MOL0     H98464   9.262   8.196   9.771  1.1758 -2.7136 -0.4226
  714MOL0     H98465   9.146   8.311   9.363 -1.1938 -2.4830 -4.6023
  714MOL0     H98466   9.203   8.157   9.331 -0.4538  0.7791 -0.3447
  714MOL0     H98467   9.335   8.302   9.214 -1.0024 -0.8819 -0.0747
  714MOL0     H98468   9.369   8.412   9.354 -1.1201  0.1311  1.0208
  714MOL0     H98469   9.489   8.208   9.456  0.6931 -0.7194 -0.6966
  714MOL0     H98470   9.479   8.133   9.303 -2.4286  0.5778  0.1458
  714MOL0     H98471   9.635   8.332   9.221 -0.0542 -3.8745 -0.9114
  714MOL0     H98472   9.603   8.411   9.372  0.7797 -0.3827 -0.0934
  714MOL0     H98473   9.716   8.197   9.483  0.7295 -1.8088  0.0508
  714MOL0     H98474   9.810   8.294   9.362 -1.4979  1.2361  0.1279
  714MOL0     H98475   9.678   8.042   9.289  0.1240 -0.1689 -3.9833
  714MOL0     H98476   9.796   8.130   9.191  1.2156  0.1757  0.6948
  714MOL0     H98477   9.847   7.919   9.361 -0.4044 -0.3793  1.0456
  714MOL0     H98478   9.892   8.040   9.465  1.7533 -2.5770 -0.0465
  714MOL0     H98479  10.008   8.010   9.198 -0.1803  0.2398  0.8575
  714MOL0     H98480  10.047   8.147   9.301 -1.4744  1.2512 -1.8933
  714MOL0     H98481  10.070   7.759   9.310 -4.2099 -0.2429  2.4174
  714MOL0     H98482  10.290   7.606   9.418 -1.9152  1.4028 -1.3016
  714MOL0     H98483  10.211   7.602   9.575 -0.6088 -2.7725 -2.1880
  714MOL0     H98484  10.431   7.705   9.659 -1.3619  1.0762 -0.0764
  714MOL0     H98485  10.455   7.555   9.573  0.6321 -0.5119 -3.1661
  714MOL0     H98486  10.466   7.730   9.379 -0.2328  1.5066  0.6717
  714MOL0     H98487  10.518   7.834   9.503 -0.7478  2.1221 -4.8265
  714MOL0     H98488  10.670   7.603   9.564  3.0646  2.1796  0.8883
  714MOL0     H98489  10.662   7.591   9.389  0.7366 -0.5058  0.3806
  714MOL0     H98490  10.856   7.529   9.419  2.3731 -2.1775  2.3692
  714MOL0     H98491  11.025   7.381   9.374 -1.4527 -0.5566  1.2193
  714MOL0     H98492  11.144   7.427   9.497  0.3047  1.6382  0.1657
  714MOL0     H98493  11.176   7.450   9.316  1.3580 -1.0262  1.5609
  714MOL0     H98494  11.447   7.885   9.585 -0.3684  0.3953 -1.5449
  714MOL0     H98495  11.680   7.903   9.662  0.0880 -1.9482 -0.4078
  714MOL0     H98496  11.896   7.938   9.676  1.4932 -2.0743  3.2652
  714MOL0     H98497  11.954   7.775   9.634  1.5598 -0.1554  1.0071
  714MOL0     H98498  12.103   8.033   9.555  1.1368 -2.1736 -4.8357
  714MOL0     H98499  12.123   7.937   9.712 -1.0642  1.8972  0.5075
  714MOL0     H98500  12.161   7.817   9.425  0.0511  3.2828 -0.2382
  714MOL0     H98501  12.201   7.757   9.595  1.6089  0.3968  1.3982
  714MOL0     H98502  12.378   7.926   9.613 -1.0799  2.2127  0.9633
  714MOL0     H98503  12.309   8.015   9.481 -0.5886  1.1306  1.7632
  714MOL0     H98504  12.386   7.828   9.327 -0.8370 -3.1225  0.7554
  714MOL0     H98505  12.518   7.915   9.412  2.0254 -1.6954  2.8357
  714MOL0     H98506  12.407   7.637   9.499  0.5775 -2.0274 -1.5761
  714MOL0     H98507  12.524   7.714   9.587 -3.2660 -4.7767  0.7851
  714MOL0     H98508  12.683   7.698   9.392  2.2312 -4.2279  0.8302
  714MOL0     H98509  12.555   7.639   9.291  1.2230  0.3974  0.2448
  714MOL0     H98510  12.507   7.447   9.449 -0.1276  0.7055  0.2173
  714MOL0     H98511  12.605   7.509   9.565  0.3359 -0.8274  0.0112
  714MOL0     H98512  11.814   7.803   9.279 -0.2208  1.3331 -0.3663
  714MOL0     H98513  11.567   7.762   9.202 -0.9077  1.6054 -1.2585
  714MOL0     H98514  11.167   7.930   9.434  3.1794 -1.1533  1.8162
  714MOL0     H98515  10.945   7.955   9.456  0.2287 -0.4113  1.5693
  714MOL0     H98516   8.975   8.141   9.452 -0.0249  2.0301 -0.1394
  714MOL0     H98517   8.803   8.115   9.615 -0.6828  1.1912 -0.9575
  714MOL0     H98518   8.851   8.067  10.245 -1.1809 -3.1884 -2.7306
  714MOL0     H98519   8.678   8.090  10.409 -1.2041  1.7089 -0.0204
  714MOL0     H98520   8.245   8.201  10.454  1.4990  2.3173 -0.0504
  714MOL0     H98521   8.272   8.266  10.297 -1.8132  0.8079  2.0292
  714MOL0     H98522   8.253   7.963  10.361  0.5134 -0.9464 -2.2426
  714MOL0     H98523   8.245   8.018  10.205 -0.5023  0.9933 -0.1631
  714MOL0     H98524   8.029   7.965  10.276  0.1143  0.3767 -0.6597
  714MOL0     H98525   8.039   8.074  10.421  3.7428 -0.3291  1.4330
  714MOL0     H98526   8.022   8.270  10.273  0.7980  0.1231 -0.5781
  714MOL0     H98527   7.904   8.162  10.218  0.0912 -0.6270 -0.1535
  714MOL0     H98528   8.166   8.235   9.885  3.0839  0.5101  1.7417
  714MOL0     H98529   8.402   8.228  10.122 -1.3196 -1.6798  2.3611
  714MOL0     H98530   8.599   8.273   9.837 -0.8955 -1.0577 -1.9649
  714MOL0     H98531   8.545   8.113   9.853  2.3895 -0.4424  0.5754
  714MOL0     H98532   8.448   8.260   9.898  0.0402  0.6270  2.7788
  715MOL0     O98533   8.596   3.308   1.952  0.0269  0.6450  0.3947
  715MOL0     C98534   8.583   3.211   2.028  0.5975  0.3944 -0.1733
  715MOL0     O98535   8.670   3.111   2.069 -0.3110 -0.3073  0.0210
  715MOL0     C98536   8.797   3.114   2.024 -0.6685  0.0435 -0.3542
  715MOL0     C98537   8.907   3.105   2.119  0.1005 -0.2464  0.2012
  715MOL0     C98538   9.037   3.095   2.080 -0.2174 -0.2644  0.2319
  715MOL0     C98539   9.072   3.117   1.940  1.0194  0.2475  0.1245
  715MOL0     O98540   9.202   3.107   1.899 -0.4326  0.2494 -0.3536
  715MOL0     C98541   9.226   2.995   1.820  0.1601 -0.8650 -0.4451
  715MOL0     C98542   9.348   2.922   1.875  0.9288 -0.7685  0.0368
  715MOL0     C98543   9.381   2.795   1.801  0.6270 -0.5257  0.0001
  715MOL0     C98544   9.506   2.727   1.862 -0.4594  0.9455  0.3876
  715MOL0     C98545   9.547   2.598   1.801  0.6309  0.3450 -0.1230
  715MOL0     C98546   9.520   2.582   1.652  0.4240 -0.4296 -0.2288
  715MOL0     C98547   9.587   2.463   1.584  0.0674 -0.5134 -0.3231
  715MOL0     C98548   9.532   2.449   1.435 -1.4564 -0.4516  0.3874
  715MOL0     N98549   9.389   2.400   1.438 -0.0144 -0.3682  0.1208
  715MOL0     C98550   9.356   2.268   1.430 -0.3817  0.6006  0.0916
  715MOL0     C98551   9.219   2.267   1.432  0.1062 -0.1429 -0.0969
  715MOL0     C98552   9.134   2.149   1.462 -0.6582  0.9745  0.0749
  715MOL0     C98553   9.188   2.055   1.575 -0.4654 -0.2817 -1.2922
  715MOL0     C98554   9.077   1.967   1.617  0.4674  0.1397  0.2525
  715MOL0     C98555   9.047   1.860   1.518  0.3330 -0.4401 -0.0863
  715MOL0     O98556   8.941   1.775   1.576  0.0552 -0.6815 -0.0416
  715MOL0     C98557   8.810   1.796   1.542  0.4516  0.4920 -0.7458
  715MOL0     C98558   8.761   1.905   1.462  0.3224  0.7393 -0.2459
  715MOL0     C98559   8.623   1.927   1.443  0.0488  1.0119 -0.2044
  715MOL0     C98560   8.586   2.052   1.363 -0.0353 -0.1414  0.3685
  715MOL0     C98561   8.529   1.839   1.499 -0.3511 -0.5636  0.4084
  715MOL0     C98562   8.378   1.850   1.490 -0.3388  0.6166 -0.0024
  715MOL0     O98563   8.304   1.761   1.561 -0.6482 -0.0915 -0.3716
  715MOL0     C98564   8.170   1.744   1.547  0.9106  0.2592  0.5226
  715MOL0     C98565   8.125   1.620   1.501  0.0879 -1.2894 -0.3044
  715MOL0     C98566   7.995   1.583   1.492 -0.2237 -0.2565 -0.0569
  715MOL0     C98567   7.894   1.668   1.539  0.4264  0.0914  0.4135
  715MOL0     O98568   7.763   1.620   1.522 -0.2681  0.3979  0.1529
  715MOL0     C98569   7.648   1.700   1.489 -0.1896 -0.7975  0.1353
  715MOL0     C98570   7.522   1.613   1.464  0.7046 -0.0412  0.6857
  715MOL0     C98571   7.410   1.695   1.399  0.1688 -0.3340 -0.1137
  715MOL0     C98572   7.448   1.761   1.264 -1.4189  0.1353 -0.0356
  715MOL0     C98573   7.334   1.822   1.186  1.3435 -0.3501  0.3315
  715MOL0     C98574   7.369   1.827   1.038 -0.3728 -0.1978  0.3728
  715MOL0     C98575   7.483   1.930   1.013  0.1156  0.4345  0.6253
  715MOL0     C98576   7.430   2.075   1.010  0.0679  0.9838  0.5428
  715MOL0    Cl98577   7.540   2.198   0.941 -0.3204  0.1948  0.1362
  715MOL0     C98578   7.936   1.798   1.588  0.1449  0.6568 -0.7045
  715MOL0     C98579   8.071   1.833   1.588  0.0945 -0.0827 -0.2036
  715MOL0     O98580   8.333   1.939   1.420  0.3779 -0.2160 -0.1715
  715MOL0     C98581   8.583   1.731   1.569  0.5464 -1.0104 -0.7637
  715MOL0     C98582   8.715   1.700   1.586 -0.4081 -0.2799  0.5412
  715MOL0     N98583   9.176   2.401   1.436  0.5533  0.4042  0.2054
  715MOL0     N98584   9.277   2.476   1.442  0.5534  0.1764  0.9559
  715MOL0     C98585   8.963   3.142   1.855 -0.5602  1.2804  0.2933
  715MOL0     C98586   8.832   3.125   1.889 -0.0747 -0.0233 -0.1380
  715MOL0     C98587   8.453   3.203   2.090  0.4326 -0.4847  0.3513
  715MOL0     C98588   8.339   3.229   2.001  0.9439  1.3379 -0.2564
  715MOL0     C98589   8.208   3.199   2.047  0.9873  0.0825  0.4305
  715MOL0     C98590   8.186   3.160   2.181 -0.7890  0.4766 -0.2195
  715MOL0     O98591   8.064   3.131   2.234 -0.5049  0.3842  0.1288
  715MOL0     C98592   7.947   3.145   2.151 -0.0430  0.3879  0.8382
  715MOL0     C98593   7.903   3.022   2.060  0.2233  0.2512  0.6123
  715MOL0     C98594   7.907   2.895   2.140  0.0552 -0.2328  0.0751
  715MOL0     C98595   7.877   2.782   2.039  0.9215  0.0198  0.3010
  715MOL0     C98596   7.730   2.780   2.003  0.8387  0.7099  0.3987
  715MOL0     C98597   7.609   2.777   1.995  0.1461 -0.1767  0.1373
  715MOL0     C98598   8.293   3.147   2.267  0.6825  0.3743  0.4415
  715MOL0     C98599   8.427   3.171   2.226 -0.0742  0.8771 -0.9313
  715MOL0     C98600   8.545   3.140   2.329 -0.3876  0.2254  0.0448
  715MOL0     H98601   8.874   3.103   2.223  0.1813  0.2764  0.2413
  715MOL0     H98602   9.121   3.076   2.147  1.1537 -0.9800 -1.6158
  715MOL0     H98603   9.257   3.023   1.719  1.5464 -0.3453  0.0980
  715MOL0     H98604   9.145   2.922   1.812  0.0776 -0.9139  0.7655
  715MOL0     H98605   9.426   2.998   1.870 -0.3267  0.5799  0.1322
  715MOL0     H98606   9.316   2.900   1.977  1.6660 -1.2421  0.1748
  715MOL0     H98607   9.291   2.734   1.794 -0.5763  1.4067 -3.4631
  715MOL0     H98608   9.403   2.815   1.696  0.7449  1.3410  0.3457
  715MOL0     H98609   9.593   2.790   1.842  0.8283 -0.1150  2.2175
  715MOL0     H98610   9.491   2.718   1.970 -1.7935  1.0981  0.2278
  715MOL0     H98611   9.491   2.523   1.858  0.1975  2.7350  2.8110
  715MOL0     H98612   9.653   2.573   1.810  0.7803  0.9830 -0.0565
  715MOL0     H98613   9.412   2.576   1.638  0.6183  0.1492 -2.3694
  715MOL0     H98614   9.561   2.666   1.595  2.1199 -0.6254  0.6351
  715MOL0     H98615   9.571   2.367   1.633 -0.7979  0.7960  2.1408
  715MOL0     H98616   9.696   2.473   1.584  0.0908 -0.0831  2.2289
  715MOL0     H98617   9.541   2.544   1.380 -0.1619 -1.0192 -0.4161
  715MOL0     H98618   9.589   2.370   1.386 -0.0133  1.5886 -1.4321
  715MOL0     H98619   9.423   2.183   1.426  1.0131  1.6762 -0.0471
  715MOL0     H98620   9.109   2.091   1.372 -1.5679 -1.7524  1.9601
  715MOL0     H98621   9.036   2.184   1.494 -0.3538  0.2676  1.8705
  715MOL0     H98622   9.282   2.006   1.550 -0.2536 -0.4385 -0.2283
  715MOL0     H98623   9.194   2.118   1.664  2.8626 -0.4064 -1.3312
  715MOL0     H98624   9.110   1.913   1.705 -1.2595  0.6022  1.2278
  715MOL0     H98625   8.989   2.030   1.634 -0.3928 -0.6840 -0.9697
  715MOL0     H98626   9.015   1.904   1.423 -1.2452 -1.4329 -0.0382
  715MOL0     H98627   9.139   1.806   1.495  1.0183 -0.3617  2.2783
  715MOL0     H98628   8.827   1.986   1.432  1.6439 -0.5993 -1.1070
  715MOL0     H98629   8.673   2.116   1.344 -0.0943 -0.5979 -1.6760
  715MOL0     H98630   8.504   2.108   1.408 -0.1822  0.5949 -0.7521
  715MOL0     H98631   8.552   2.011   1.267  1.0050 -1.1295  0.4085
  715MOL0     H98632   8.211   1.565   1.464  1.9138  0.7916  0.6170
  715MOL0     H98633   7.952   1.491   1.452  1.1314 -0.5304 -0.9684
  715MOL0     H98634   7.641   1.774   1.570  1.3573 -0.7828  0.2803
  715MOL0     H98635   7.676   1.746   1.394 -1.5467 -1.8540 -0.8117
  715MOL0     H98636   7.549   1.518   1.418  1.6542 -0.4334  1.9954
  715MOL0     H98637   7.480   1.579   1.558  1.9887  2.6537  2.3581
  715MOL0     H98638   7.382   1.777   1.467  0.4062 -0.1380 -0.2506
  715MOL0     H98639   7.323   1.629   1.393  1.6981 -2.4091 -0.4513
  715MOL0     H98640   7.501   1.687   1.204 -0.0391  0.2221  1.0448
  715MOL0     H98641   7.520   1.842   1.282 -0.0703 -1.3591  1.5405
  715MOL0     H98642   7.249   1.755   1.200 -0.4648  1.9467  1.0940
  715MOL0     H98643   7.307   1.919   1.230 -0.5735  0.8776 -3.1730
  715MOL0     H98644   7.283   1.851   0.976 -0.1665 -0.0712  0.1329
  715MOL0     H98645   7.411   1.732   1.002 -1.2718 -1.0839  1.5913
  715MOL0     H98646   7.526   1.915   0.914  0.3819  3.1351  0.2617
  715MOL0     H98647   7.555   1.911   1.093 -2.6072 -0.3385  3.0524
  715MOL0     H98648   7.403   2.094   1.114 -1.4882  0.5807  0.2408
  715MOL0     H98649   7.337   2.080   0.951  0.7850 -0.0278 -0.7368
  715MOL0     H98650   7.866   1.865   1.637 -2.9944 -3.2659  0.7361
  715MOL0     H98651   8.111   1.921   1.637 -0.5734 -0.1796  0.5334
  715MOL0     H98652   8.511   1.673   1.625 -2.6574 -1.4884 -4.8913
  715MOL0     H98653   8.762   1.622   1.646  1.5623 -0.4357 -1.0996
  715MOL0     H98654   8.988   3.161   1.751  1.2273 -0.4463  0.3640
  715MOL0     H98655   8.754   3.127   1.813 -2.1342 -3.8390  1.6192
  715MOL0     H98656   8.354   3.266   1.900  2.0771  0.8963 -0.2633
  715MOL0     H98657   8.144   3.203   1.960  2.3785  0.3366 -0.6196
  715MOL0     H98658   7.870   3.144   2.228  0.7539 -3.3523  1.7682
  715MOL0     H98659   7.958   3.236   2.091  0.5262 -1.6812 -2.4660
  715MOL0     H98660   7.963   3.005   1.970  0.5322 -0.0675  0.8754
  715MOL0     H98661   7.806   3.052   2.020  0.2125 -0.9672 -0.3165
  715MOL0     H98662   8.008   2.884   2.181 -0.0728  0.9679  0.7758
  715MOL0     H98663   7.829   2.887   2.217  0.4413 -0.7579  0.4227
  715MOL0     H98664   7.897   2.682   2.080 -1.6146 -1.1100 -0.9975
  715MOL0     H98665   7.932   2.793   1.945 -2.6180  0.4073 -1.9125
  715MOL0     H98666   7.502   2.776   1.990  0.1940 -0.3557 -1.5545
  715MOL0     H98667   8.280   3.122   2.372 -0.5161  1.9822  0.7279
  715MOL0     H98668   8.631   3.207   2.319  0.0330 -0.2396  0.4694
  715MOL0     H98669   8.513   3.135   2.433  0.8435 -5.0387  0.4504
  715MOL0     H98670   8.585   3.041   2.303 -2.1653 -0.0832 -1.8609
  716MOL0     O98671  11.022   0.755   6.403  1.1113 -0.1424 -0.5015
  716MOL0     C98672  10.920   0.731   6.470  0.7974 -0.1627 -0.9023
  716MOL0     O98673  10.902   0.760   6.606  0.4087 -1.1044  0.1479
  716MOL0     C98674  11.000   0.742   6.700 -0.1938  0.1738 -0.7949
  716MOL0     C98675  10.963   0.746   6.843 -0.2237 -0.2313  0.0689
  716MOL0     C98676  11.054   0.730   6.935  0.1479  0.5991 -0.3217
  716MOL0     C98677  11.192   0.706   6.912 -0.0674  0.1627  0.0653
  716MOL0     O98678  11.293   0.709   7.002 -0.1540 -0.6420 -0.6793
  716MOL0     C98679  11.250   0.732   7.134 -0.0192 -0.4306 -1.0882
  716MOL0     C98680  11.385   0.757   7.217 -0.5631  0.4955 -0.3665
  716MOL0     C98681  11.367   0.787   7.364 -0.5709 -0.4369  0.9805
  716MOL0     C98682  11.477   0.886   7.414  0.1925 -0.0831  0.4471
  716MOL0     C98683  11.619   0.832   7.394  0.4894 -0.5026 -0.0083
  716MOL0     C98684  11.662   0.736   7.505 -0.5072  0.0253  0.2451
  716MOL0     C98685  11.809   0.727   7.513  0.5060 -0.4260  0.1017
  716MOL0     C98686  11.877   0.845   7.577  0.0460  0.3088  0.1434
  716MOL0     N98687  12.025   0.836   7.571  0.3129 -0.2859  0.5209
  716MOL0     C98688  12.096   0.946   7.522  0.9989 -0.4563 -0.1356
  716MOL0     C98689  12.225   0.913   7.539 -0.4195  0.8594 -0.7077
  716MOL0     C98690  12.345   0.993   7.513  0.4006 -0.4665  0.2709
  716MOL0     C98691  12.361   1.023   7.363 -0.9500 -0.1100  0.2061
  716MOL0     C98692  12.472   1.127   7.333 -0.0680 -0.1140 -0.2388
  716MOL0     C98693  12.499   1.135   7.182  0.2889 -0.3993 -1.0728
  716MOL0     O98694  12.388   1.138   7.095  0.4965  0.0972  0.2775
  716MOL0     C98695  12.418   1.159   6.960  0.1883 -0.5752  0.9199
  716MOL0     C98696  12.352   1.085   6.859  0.3715 -0.7211  0.4314
  716MOL0     C98697  12.380   1.106   6.729 -0.0753 -0.5384 -0.8991
  716MOL0     C98698  12.306   1.019   6.637 -0.3125  0.2369 -0.6043
  716MOL0     C98699  12.478   1.211   6.686 -0.0922  0.3086  0.5224
  716MOL0     C98700  12.501   1.253   6.539  1.1455  0.4258 -0.7001
  716MOL0     O98701  12.442   1.172   6.443 -0.5489 -0.1233  0.1108
  716MOL0     C98702  12.439   1.222   6.313  0.2736  0.3933 -0.5994
  716MOL0     C98703  12.552   1.264   6.247 -0.0211  0.3823  0.5280
  716MOL0     C98704  12.535   1.306   6.112 -0.7753 -0.0762  0.0457
  716MOL0     C98705  12.417   1.310   6.041 -0.3154 -0.8560 -0.3033
  716MOL0     O98706  12.411   1.364   5.915  1.2199 -0.3443  0.5692
  716MOL0     C98707  12.284   1.384   5.856  0.9913  0.7464 -1.0461
  716MOL0     C98708  12.278   1.479   5.737  0.8436 -0.3863 -0.4646
  716MOL0     C98709  12.358   1.428   5.621 -0.1685  0.5223 -0.2193
  716MOL0     C98710  12.316   1.492   5.476 -0.5833 -0.7151 -0.7194
  716MOL0     C98711  12.374   1.405   5.363 -0.1768 -0.1816 -0.3902
  716MOL0     C98712  12.290   1.275   5.351  0.2280  1.5322  0.9172
  716MOL0     C98713  12.335   1.213   5.214  0.9194 -0.8489  0.2832
  716MOL0     C98714  12.258   1.077   5.201 -0.7123 -0.0145 -0.3657
  716MOL0    Cl98715  12.247   1.034   5.042  0.0170 -0.1125 -0.3177
  716MOL0     C98716  12.310   1.249   6.112 -0.6792 -0.6324  0.0261
  716MOL0     C98717  12.321   1.207   6.244 -0.1454  0.1635  0.5054
  716MOL0     O98718  12.539   1.367   6.518  0.4008  0.5284  0.2250
  716MOL0     C98719  12.542   1.276   6.780  0.0537  0.0314 -0.4018
  716MOL0     C98720  12.516   1.253   6.912 -0.3451 -0.2123  0.5496
  716MOL0     N98721  12.238   0.800   7.605  0.5299  0.2123 -0.3720
  716MOL0     N98722  12.118   0.742   7.612 -0.5954 -0.1613 -0.5215
  716MOL0     C98723  11.227   0.704   6.771 -0.2353  0.5167 -0.7604
  716MOL0     C98724  11.136   0.728   6.671  0.5437  0.6890  0.5416
  716MOL0     C98725  10.809   0.657   6.407 -0.0986  0.0239 -0.1255
  716MOL0     C98726  10.706   0.611   6.497  0.3782 -0.1613  0.3232
  716MOL0     C98727  10.602   0.533   6.439 -0.3898  0.2085  0.2826
  716MOL0     C98728  10.592   0.497   6.305  1.0952  1.4537 -0.1304
  716MOL0     O98729  10.499   0.401   6.263 -0.9469 -0.0023 -0.4104
  716MOL0     C98730  10.427   0.435   6.146  0.1461  0.1350 -0.4606
  716MOL0     C98731  10.300   0.352   6.151  0.2457 -0.5260  1.1139
  716MOL0     C98732  10.228   0.322   6.014  0.6565 -0.9114 -0.3682
  716MOL0     C98733  10.076   0.312   6.033  0.6788  0.3840  1.5031
  716MOL0     C98734  10.013   0.323   5.894  1.0478 -0.2220 -0.0801
  716MOL0     C98735   9.975   0.346   5.778 -0.9150 -0.3165  0.5081
  716MOL0     C98736  10.688   0.546   6.221  0.4904 -0.5126  0.1754
  716MOL0     C98737  10.795   0.624   6.264 -0.3498  0.2550 -0.1894
  716MOL0     C98738  10.888   0.659   6.160 -0.0746  0.1781  0.1053
  716MOL0     H98739  10.863   0.778   6.869  0.4545  0.6246  1.7598
  716MOL0     H98740  11.005   0.735   7.032 -0.0834 -2.6066 -0.1545
  716MOL0     H98741  11.201   0.643   7.175 -0.1724  0.6751  1.3062
  716MOL0     H98742  11.191   0.822   7.154 -1.1727 -1.8137  2.4004
  716MOL0     H98743  11.447   0.667   7.224 -0.6527  0.4810  0.2412
  716MOL0     H98744  11.446   0.832   7.165  1.0030  0.0445  0.7205
  716MOL0     H98745  11.276   0.839   7.395 -0.1185 -0.1639  1.8988
  716MOL0     H98746  11.373   0.692   7.419  1.6475  0.6214  2.7284
  716MOL0     H98747  11.444   0.978   7.364  4.4969  1.3616 -0.1569
  716MOL0     H98748  11.459   0.923   7.515  1.8943  1.9940  0.0548
  716MOL0     H98749  11.667   0.931   7.391 -2.1432  0.8665 -3.3415
  716MOL0     H98750  11.654   0.786   7.301  1.7665 -1.9778  1.1466
  716MOL0     H98751  11.617   0.754   7.603  1.1221  0.8606  0.8809
  716MOL0     H98752  11.636   0.635   7.473  2.3485 -1.1941  1.4945
  716MOL0     H98753  11.854   0.702   7.417  2.3067  1.5838  0.3279
  716MOL0     H98754  11.837   0.650   7.585  0.5435  2.6823  3.7512
  716MOL0     H98755  11.847   0.939   7.532  1.1206  0.6207  0.0566
  716MOL0     H98756  11.844   0.852   7.681 -1.3500  1.8503 -0.3779
  716MOL0     H98757  12.066   1.039   7.475  1.1724  1.1253  2.7187
  716MOL0     H98758  12.438   0.953   7.555  0.2668 -2.4431 -1.2017
  716MOL0     H98759  12.319   1.084   7.569 -1.1377 -0.1955 -0.8103
  716MOL0     H98760  12.382   0.928   7.313  1.4312  0.6732 -0.3650
  716MOL0     H98761  12.273   1.074   7.323 -0.3016  1.3600  0.5978
  716MOL0     H98762  12.452   1.226   7.373 -0.6985 -0.9546  1.6259
  716MOL0     H98763  12.566   1.097   7.381 -0.8904 -2.6440 -0.0818
  716MOL0     H98764  12.558   1.221   7.151 -2.6634  1.3279 -2.3337
  716MOL0     H98765  12.551   1.041   7.158 -0.0678 -0.2471 -2.5321
  716MOL0     H98766  12.280   1.007   6.884  1.0947 -1.9169 -1.0726
  716MOL0     H98767  12.368   0.960   6.568  1.3649  1.1732  0.0508
  716MOL0     H98768  12.241   1.082   6.576 -0.7494 -1.0355 -1.5104
  716MOL0     H98769  12.238   0.944   6.677 -3.0144  2.9320  0.1769
  716MOL0     H98770  12.654   1.264   6.283  1.7052 -2.3163 -3.5570
  716MOL0     H98771  12.619   1.346   6.056 -0.9151  0.1330 -0.0183
  716MOL0     H98772  12.242   1.284   5.838 -2.2043  1.4037  1.7147
  716MOL0     H98773  12.214   1.428   5.928  0.3079 -2.3445  0.3529
  716MOL0     H98774  12.176   1.506   5.706  1.6464  2.9659 -0.5278
  716MOL0     H98775  12.322   1.570   5.778 -0.1392  0.5667 -1.4288
  716MOL0     H98776  12.335   1.321   5.617 -0.4239  0.4046  2.5677
  716MOL0     H98777  12.466   1.438   5.632 -0.0209  3.2566 -2.7746
  716MOL0     H98778  12.365   1.589   5.491 -3.7052  1.0979 -1.3137
  716MOL0     H98779  12.208   1.509   5.468 -0.4547 -0.0261 -1.0422
  716MOL0     H98780  12.350   1.463   5.274  0.3685  2.8373  1.2532
  716MOL0     H98781  12.482   1.395   5.379 -0.6735 -1.8064  2.8548
  716MOL0     H98782  12.183   1.298   5.342 -0.4095 -1.6739 -1.5137
  716MOL0     H98783  12.304   1.209   5.437 -1.4264 -0.9601 -0.6030
  716MOL0     H98784  12.441   1.186   5.222  0.5826 -2.1885  0.5357
  716MOL0     H98785  12.324   1.285   5.132  1.8869 -3.5398 -2.4008
  716MOL0     H98786  12.159   1.068   5.246  0.6059 -0.0216  2.8363
  716MOL0     H98787  12.313   1.009   5.268  0.2096  0.9116 -0.1476
  716MOL0     H98788  12.214   1.227   6.067  0.8723 -3.4258 -2.2142
  716MOL0     H98789  12.239   1.164   6.301 -0.0728  2.6723  2.6741
  716MOL0     H98790  12.611   1.350   6.740  3.0080 -2.2439  0.0971
  716MOL0     H98791  12.580   1.312   6.977  0.5255  1.3241 -1.5731
  716MOL0     H98792  11.330   0.702   6.737 -0.9601 -1.3508 -3.0913
  716MOL0     H98793  11.172   0.736   6.569  1.2851  5.0633  0.9941
  716MOL0     H98794  10.714   0.638   6.602  1.3382 -0.1195  0.2512
  716MOL0     H98795  10.529   0.486   6.504 -0.7086 -3.4409 -2.4059
  716MOL0     H98796  10.399   0.540   6.147  2.6049  0.8353  0.8038
  716MOL0     H98797  10.487   0.416   6.056 -1.4857 -1.3889 -1.3023
  716MOL0     H98798  10.225   0.406   6.210 -0.5612 -0.6097  0.2021
  716MOL0     H98799  10.331   0.261   6.204  0.9149 -2.0350 -1.6332
  716MOL0     H98800  10.246   0.396   5.936 -1.9525  0.6438  0.3882
  716MOL0     H98801  10.270   0.225   5.986  1.7091 -0.3508 -0.7794
  716MOL0     H98802  10.027   0.384   6.099 -4.3152  0.5439 -1.7855
  716MOL0     H98803  10.046   0.214   6.070  1.0359 -1.5346 -2.6876
  716MOL0     H98804   9.950   0.361   5.675  1.0119 -0.4990 -0.0153
  716MOL0     H98805  10.697   0.512   6.119  3.7733  1.6600 -0.4063
  716MOL0     H98806  10.829   0.668   6.068  1.3049 -0.5797 -0.8791
  716MOL0     H98807  10.932   0.759   6.169  0.6217  0.0285 -1.3096
  716MOL0     H98808  10.957   0.576   6.146 -1.7452 -0.7515 -4.8242
  717MOL0     O98809   9.363   4.915   9.066  0.0067 -0.9176  0.1926
  717MOL0     C98810   9.282   5.001   9.095  0.4514  0.2149  0.2213
  717MOL0     O98811   9.294   5.082   9.209 -0.9764  0.2604 -0.8369
  717MOL0     C98812   9.361   5.052   9.325  0.6181 -0.4262  0.2841
  717MOL0     C98813   9.372   5.161   9.416  0.4719  0.0586  0.4317
  717MOL0     C98814   9.439   5.152   9.532  0.2327  0.4506  0.8541
  717MOL0     C98815   9.506   5.034   9.565 -0.2596  0.0901 -0.1721
  717MOL0     O98816   9.597   5.011   9.668 -0.7290 -0.6336  0.0514
  717MOL0     C98817   9.640   5.131   9.743 -0.1020 -0.1808 -0.1090
  717MOL0     C98818   9.743   5.101   9.854 -0.2705 -0.0754 -0.0615
  717MOL0     C98819   9.886   5.053   9.795  0.2903  0.8317  0.6945
  717MOL0     C98820  10.009   5.121   9.862 -0.2607  0.3470 -0.6754
  717MOL0     C98821  10.034   5.045   9.992 -0.6749 -0.4116 -0.7488
  717MOL0     C98822  10.174   5.074  10.052  1.0889  0.4655  0.7855
  717MOL0     C98823  10.291   5.040   9.955  0.4326  0.5518  0.4327
  717MOL0     C98824  10.290   4.906   9.899  0.1659 -0.2173 -0.2931
  717MOL0     N98825  10.414   4.864   9.825 -0.3421 -0.0647 -0.1009
  717MOL0     C98826  10.449   4.740   9.794 -0.4853 -0.6278  0.2454
  717MOL0     C98827  10.561   4.744   9.712 -0.0446 -0.2576  0.7872
  717MOL0     C98828  10.630   4.625   9.658 -0.0533 -0.9072  0.1974
  717MOL0     C98829  10.537   4.531   9.576 -1.0400 -0.0888  0.3127
  717MOL0     C98830  10.484   4.601   9.448 -0.0670  0.0028  0.1291
  717MOL0     C98831  10.394   4.500   9.359  0.2790 -0.4463 -0.7129
  717MOL0     O98832  10.465   4.377   9.323 -0.2761 -0.7541  0.0803
  717MOL0     C98833  10.468   4.259   9.390  0.2714 -0.2449  0.6357
  717MOL0     C98834  10.390   4.232   9.503  1.0356  0.3109 -0.1025
  717MOL0     C98835  10.408   4.122   9.584  0.5457 -0.0409 -0.4559
  717MOL0     C98836  10.343   4.123   9.718  0.7182 -0.9650 -0.2303
  717MOL0     C98837  10.512   4.035   9.557  1.2502  0.0755 -0.1642
  717MOL0     C98838  10.553   3.912   9.642 -0.3745 -0.8859 -0.1723
  717MOL0     O98839  10.668   3.859   9.599  0.8727 -0.2707 -0.1638
  717MOL0     C98840  10.732   3.758   9.672 -0.3122 -1.5146 -0.4575
  717MOL0     C98841  10.673   3.638   9.680  0.0703  0.4883  0.0613
  717MOL0     C98842  10.736   3.525   9.744  0.4895 -0.1869 -0.7631
  717MOL0     C98843  10.856   3.534   9.805  0.1699 -1.0376 -0.8713
  717MOL0     O98844  10.919   3.433   9.878  0.1717 -0.8559 -0.3009
  717MOL0     C98845  10.868   3.302   9.872  1.1378  0.1597  0.1001
  717MOL0     C98846  10.931   3.219   9.981  0.2798 -0.6724 -0.1411
  717MOL0     C98847  11.082   3.197   9.956  0.0241  0.1048 -0.8156
  717MOL0     C98848  11.139   3.113  10.070 -0.3638 -0.2921  0.0089
  717MOL0     C98849  11.286   3.053  10.055  0.0223  0.0631 -0.4740
  717MOL0     C98850  11.297   2.956   9.945 -0.1466 -0.7117  0.1805
  717MOL0     C98851  11.436   2.895   9.950 -0.2866  0.7579  0.3917
  717MOL0     C98852  11.470   2.791   9.851 -0.0232  0.0013  0.1533
  717MOL0    Cl98853  11.426   2.846   9.686  0.2232 -0.2919 -0.1156
  717MOL0     C98854  10.916   3.661   9.801  0.4885 -0.4912  0.0478
  717MOL0     C98855  10.854   3.778   9.745  0.1110  0.1003  0.3953
  717MOL0     O98856  10.476   3.872   9.727  0.7457 -0.1504  0.3652
  717MOL0     C98857  10.576   4.047   9.435  0.0771 -0.2585  0.2546
  717MOL0     C98858  10.566   4.161   9.354  0.5237  0.6534 -0.4540
  717MOL0     N98859  10.604   4.874   9.711  0.7775 -1.0723  0.0733
  717MOL0     N98860  10.514   4.945   9.785  0.1643  0.8412 -0.2418
  717MOL0     C98861   9.498   4.931   9.481  0.3290  0.8811  0.6620
  717MOL0     C98862   9.425   4.932   9.358 -0.4706 -0.2865 -0.8997
  717MOL0     C98863   9.156   5.024   9.017  0.7044  0.2008 -0.2324
  717MOL0     C98864   9.070   5.118   9.068 -0.0573  0.4155 -0.6607
  717MOL0     C98865   8.942   5.144   9.011  0.8821  0.5674  0.7097
  717MOL0     C98866   8.909   5.075   8.894  0.2646  0.0554  0.2259
  717MOL0     O98867   8.785   5.098   8.839  0.3517  0.1653 -0.1589
  717MOL0     C98868   8.729   5.025   8.732 -0.1055 -0.0284 -0.2494
  717MOL0     C98869   8.800   5.078   8.593 -0.4691  0.8569  0.2153
  717MOL0     C98870   8.752   5.218   8.553 -0.1265  1.0128  0.8110
  717MOL0     C98871   8.851   5.276   8.454 -0.4836  0.2609 -0.2733
  717MOL0     C98872   8.801   5.252   8.320 -0.6148 -0.0430  0.0731
  717MOL0     C98873   8.763   5.256   8.209 -0.1506  0.1728  0.3511
  717MOL0     C98874   9.007   4.985   8.839  0.3818  0.7699 -0.4849
  717MOL0     C98875   9.136   4.951   8.898 -0.7362 -0.0032  0.3678
  717MOL0     C98876   9.233   4.856   8.837  0.4778 -0.8728  0.2343
  717MOL0     H98877   9.322   5.256   9.401 -0.5131 -0.2072  1.9424
  717MOL0     H98878   9.435   5.228   9.610  2.2893  2.9241 -1.2620
  717MOL0     H98879   9.549   5.178   9.784 -2.2029 -1.6481 -2.7753
  717MOL0     H98880   9.678   5.193   9.662  0.3287 -0.2862  0.0089
  717MOL0     H98881   9.761   5.193   9.911  0.7278 -1.4383  1.9687
  717MOL0     H98882   9.713   5.025   9.927 -0.3141  0.8229  0.8834
  717MOL0     H98883   9.890   4.944   9.805 -0.4866  0.7021 -0.2797
  717MOL0     H98884   9.886   5.075   9.688 -2.9393 -2.1306 -0.1008
  717MOL0     H98885  10.093   5.114   9.792 -0.3015 -1.5150 -0.5986
  717MOL0     H98886   9.987   5.227   9.879 -4.1401 -0.5166  0.7934
  717MOL0     H98887  10.009   4.940   9.973  0.3326 -0.5522 -1.3837
  717MOL0     H98888   9.966   5.082  10.070  2.0727 -0.0021  1.6328
  717MOL0     H98889  10.175   5.177  10.088  0.7098  0.0650  2.0085
  717MOL0     H98890  10.176   5.005  10.138  0.0230 -0.0379  0.4208
  717MOL0     H98891  10.389   5.050  10.002 -0.5871 -1.1056  3.1032
  717MOL0     H98892  10.300   5.113   9.873 -0.5474 -0.6550 -0.7807
  717MOL0     H98893  10.277   4.832   9.978 -1.7882  0.6721  0.2875
  717MOL0     H98894  10.209   4.895   9.827 -0.8788  0.2209  0.7964
  717MOL0     H98895  10.388   4.653   9.819 -0.5769 -0.4707  0.5723
  717MOL0     H98896  10.689   4.571   9.733  0.7015 -1.3103 -0.6630
  717MOL0     H98897  10.706   4.672   9.595 -0.6848 -1.6817 -1.1825
  717MOL0     H98898  10.591   4.441   9.544 -1.4220  0.2125 -1.2728
  717MOL0     H98899  10.457   4.498   9.643 -0.1774  3.1525  3.2717
  717MOL0     H98900  10.412   4.677   9.480 -0.1480  0.2575 -0.6502
  717MOL0     H98901  10.570   4.635   9.390  0.3567 -0.6326  0.3646
  717MOL0     H98902  10.298   4.486   9.410  0.7536  1.2315  0.7478
  717MOL0     H98903  10.367   4.560   9.271 -0.9731  1.6872  1.0212
  717MOL0     H98904  10.315   4.304   9.536  0.0231 -0.9450  0.3872
  717MOL0     H98905  10.420   4.142   9.792  0.5319  0.5492 -0.3904
  717MOL0     H98906  10.287   4.029   9.726 -0.0714 -0.5914 -1.1301
  717MOL0     H98907  10.270   4.205   9.725 -0.7070 -2.0411 -1.6714
  717MOL0     H98908  10.573   3.633   9.638  1.1118 -1.5350 -2.4493
  717MOL0     H98909  10.678   3.434   9.742  2.5891 -1.6225  0.4048
  717MOL0     H98910  10.763   3.286   9.898  1.0460  0.4989 -0.0497
  717MOL0     H98911  10.882   3.252   9.775  2.2257 -1.5847  1.1139
  717MOL0     H98912  10.907   3.268  10.076 -0.7994  0.5693 -1.0257
  717MOL0     H98913  10.873   3.126   9.976  0.2609 -0.5704 -3.3786
  717MOL0     H98914  11.128   3.296   9.951  0.9029 -0.3158 -5.5906
  717MOL0     H98915  11.104   3.149   9.860 -1.3157 -2.2559 -0.0317
  717MOL0     H98916  11.083   3.019  10.078 -0.4029 -0.4379 -1.6609
  717MOL0     H98917  11.126   3.178  10.157 -0.6006  3.0699 -2.3631
  717MOL0     H98918  11.353   3.134  10.024  2.7887 -2.4532 -1.5000
  717MOL0     H98919  11.315   3.013  10.153 -0.3684  1.7079  0.3584
  717MOL0     H98920  11.280   3.003   9.847 -0.5576 -0.9103  0.1519
  717MOL0     H98921  11.225   2.875   9.959 -3.2563  1.5181 -1.6079
  717MOL0     H98922  11.448   2.858  10.052 -0.6551  0.6050  0.3801
  717MOL0     H98923  11.503   2.980   9.934 -3.2303  3.4034  1.0330
  717MOL0     H98924  11.408   2.704   9.875 -0.1055  0.1082  0.3269
  717MOL0     H98925  11.576   2.761   9.854  0.6238  1.9784 -1.4341
  717MOL0     H98926  11.013   3.674   9.849 -0.2143 -2.6223  2.2279
  717MOL0     H98927  10.899   3.876   9.757 -2.6748  1.5698 -0.1757
  717MOL0     H98928  10.650   3.970   9.416 -1.1548 -1.9419  1.9071
  717MOL0     H98929  10.629   4.180   9.267  0.9436  3.1662  0.3224
  717MOL0     H98930   9.536   4.833   9.509 -0.2534 -0.4968 -2.8399
  717MOL0     H98931   9.420   4.843   9.297 -2.2461  0.0121 -1.2313
  717MOL0     H98932   9.085   5.185   9.152 -1.9557  2.4771 -1.8355
  717MOL0     H98933   8.859   5.201   9.052 -0.9341 -3.0088  2.5394
  717MOL0     H98934   8.752   4.918   8.744 -3.7778 -1.0761 -1.1548
  717MOL0     H98935   8.621   5.030   8.747  0.1700 -0.1117  1.9980
  717MOL0     H98936   8.786   4.999   8.519 -0.2294  0.5385  0.5019
  717MOL0     H98937   8.907   5.073   8.615 -0.2426 -2.7793 -0.9509
  717MOL0     H98938   8.650   5.213   8.513 -0.0928 -3.4673  0.7067
  717MOL0     H98939   8.765   5.282   8.641  2.2647  0.6787  0.7698
  717MOL0     H98940   8.949   5.232   8.472 -0.3881  0.9259  0.9772
  717MOL0     H98941   8.854   5.385   8.463  1.1213  0.3867 -1.8736
  717MOL0     H98942   8.733   5.234   8.108  1.4194  0.8032 -0.2983
  717MOL0     H98943   8.977   4.930   8.750  1.4907 -0.3577 -0.1873
  717MOL0     H98944   9.335   4.894   8.827  1.0031 -2.2845  0.0467
  717MOL0     H98945   9.234   4.765   8.897  2.7197 -1.5962 -0.7773
  717MOL0     H98946   9.200   4.840   8.734 -1.7891  0.0160  0.7605
  718MOL0     O98947   5.054   2.031   2.578  0.1600 -0.4572  0.1881
  718MOL0     C98948   5.096   1.995   2.469  0.1323  0.8730 -0.4047
  718MOL0     O98949   5.222   1.998   2.434 -0.2964 -0.1346  0.3179
  718MOL0     C98950   5.330   2.049   2.501  0.1986 -0.4198 -0.2564
  718MOL0     C98951   5.454   1.984   2.483 -0.0145  0.4663 -0.2108
  718MOL0     C98952   5.573   2.036   2.527 -1.0464 -0.0749 -1.0093
  718MOL0     C98953   5.566   2.146   2.616 -0.1941 -0.1633  0.2372
  718MOL0     O98954   5.693   2.187   2.652 -0.1054 -0.8317 -0.3743
  718MOL0     C98955   5.696   2.326   2.706 -0.8873 -0.5654 -0.4510
  718MOL0     C98956   5.831   2.401   2.736  0.0270 -0.0087 -0.4867
  718MOL0     C98957   5.929   2.334   2.844  0.1021 -0.4725  0.3545
  718MOL0     C98958   6.027   2.450   2.880  0.2291 -0.2542  0.5237
  718MOL0     C98959   6.131   2.398   2.971  0.3853 -1.0118 -0.2682
  718MOL0     C98960   6.229   2.510   3.010 -0.3973 -0.2846  0.4816
  718MOL0     C98961   6.324   2.461   3.128  0.5887  0.2641  0.0562
  718MOL0     C98962   6.411   2.337   3.082  1.3080 -0.0122  0.4231
  718MOL0     N98963   6.488   2.358   2.954  0.0821  0.5025  0.3465
  718MOL0     C98964   6.600   2.435   2.948  0.4278 -0.4178  0.1513
  718MOL0     C98965   6.640   2.417   2.820  0.4425  0.3006  0.3537
  718MOL0     C98966   6.742   2.499   2.744 -0.5597  0.2446 -0.2349
  718MOL0     C98967   6.887   2.461   2.775  0.0256  0.6722  0.4588
  718MOL0     C98968   6.912   2.307   2.737 -0.2258  0.0791 -0.7939
  718MOL0     C98969   7.056   2.267   2.756 -0.1030  0.3387  0.4943
  718MOL0     O98970   7.142   2.338   2.661  0.6761  0.8153 -0.8719
  718MOL0     C98971   7.269   2.297   2.659 -0.2366 -0.0740  0.3194
  718MOL0     C98972   7.336   2.211   2.750 -0.0244  0.6511  0.2146
  718MOL0     C98973   7.477   2.181   2.734  1.2703  0.2343  0.1211
  718MOL0     C98974   7.536   2.113   2.853 -0.6555 -0.6040  0.0205
  718MOL0     C98975   7.538   2.233   2.623  0.5736  0.2869  0.6770
  718MOL0     C98976   7.675   2.193   2.596 -1.2109 -0.5768 -0.3700
  718MOL0     O98977   7.763   2.294   2.553  0.5157 -0.3047 -0.1664
  718MOL0     C98978   7.895   2.275   2.570 -0.4793  0.2277 -0.1990
  718MOL0     C98979   7.989   2.312   2.475 -0.1961  0.6663  0.2937
  718MOL0     C98980   8.133   2.321   2.497  0.2144  0.1158 -0.5980
  718MOL0     C98981   8.178   2.297   2.628 -1.0241  0.0833  0.1470
  718MOL0     O98982   8.310   2.319   2.665 -0.0445  0.3157 -0.1920
  718MOL0     C98983   8.381   2.213   2.727 -0.2390 -0.2923 -0.7525
  718MOL0     C98984   8.410   2.114   2.616  0.0367  0.2348  0.2466
  718MOL0     C98985   8.487   1.988   2.657  0.4449 -0.1830 -0.4467
  718MOL0     C98986   8.572   1.926   2.539 -0.2839 -0.8938 -0.1984
  718MOL0     C98987   8.678   1.833   2.595 -0.4971  0.5661 -0.1572
  718MOL0     C98988   8.774   1.804   2.473 -0.1929  0.6038 -0.2975
  718MOL0     C98989   8.875   1.699   2.521  0.2264 -0.7153 -0.5863
  718MOL0     C98990   8.954   1.736   2.640  0.7284 -0.0778  0.7527
  718MOL0    Cl98991   9.069   1.618   2.678 -0.0060 -0.0906 -0.5403
  718MOL0     C98992   8.086   2.257   2.734  0.4676 -0.1901 -0.1103
  718MOL0     C98993   7.951   2.254   2.704 -0.3560  0.1339 -0.3510
  718MOL0     O98994   7.701   2.076   2.610 -1.3084  0.0353 -0.0658
  718MOL0     C98995   7.478   2.330   2.535 -0.0581  0.6187 -0.2652
  718MOL0     C98996   7.350   2.354   2.561 -0.2608  0.4286  0.7625
  718MOL0     N98997   6.567   2.325   2.754  0.6314 -0.1185 -0.1852
  718MOL0     N98998   6.479   2.279   2.840 -1.0422 -0.7443  0.1766
  718MOL0     C98999   5.445   2.196   2.659  0.5129  0.2132  0.4055
  718MOL0     C99000   5.326   2.151   2.597 -0.3537 -0.5363  0.3546
  718MOL0     C99001   5.007   1.947   2.361  0.2863  0.0851 -1.2342
  718MOL0     C99002   5.042   1.839   2.280 -0.0015 -0.2045  0.7479
  718MOL0     C99003   4.968   1.806   2.169 -0.3076 -0.6987 -0.1258
  718MOL0     C99004   4.852   1.868   2.148  0.2474  0.4357 -0.0970
  718MOL0     O99005   4.762   1.833   2.049  0.3723 -0.2860  0.5481
  718MOL0     C99006   4.726   1.698   2.046 -0.4786  0.7525  0.8569
  718MOL0     C99007   4.738   1.652   1.895  0.5997 -0.2187 -0.9241
  718MOL0     C99008   4.887   1.672   1.848  0.1088 -0.3421  0.0270
  718MOL0     C99009   4.899   1.640   1.695 -0.4867  1.5147  0.3333
  718MOL0     C99010   5.010   1.554   1.665 -0.0392  0.5339 -0.2048
  718MOL0     C99011   5.104   1.479   1.622  0.2252  0.4287 -0.6940
  718MOL0     C99012   4.816   1.966   2.230  0.0018  0.2438 -0.5877
  718MOL0     C99013   4.889   2.019   2.331  0.2522 -0.0307  0.2186
  718MOL0     C99014   4.861   2.152   2.394  0.1758  0.7696 -0.4692
  718MOL0     H99015   5.451   1.895   2.422  0.1046  0.7730 -0.6706
  718MOL0     H99016   5.667   1.985   2.508 -0.5593  0.0390  0.8741
  718MOL0     H99017   5.640   2.322   2.799  0.1212 -4.7004  0.2144
  718MOL0     H99018   5.651   2.389   2.629 -0.8884  1.2275  0.9726
  718MOL0     H99019   5.887   2.408   2.642  1.9134  4.3901  0.7063
  718MOL0     H99020   5.799   2.495   2.781 -1.6196 -1.2127  0.9840
  718MOL0     H99021   5.869   2.297   2.928  3.5862 -3.4436  1.8281
  718MOL0     H99022   5.983   2.248   2.802  0.5776 -0.5223  1.0473
  718MOL0     H99023   6.077   2.497   2.795  0.9353 -1.4222  0.2856
  718MOL0     H99024   5.980   2.536   2.929  4.3197  1.3638  2.1244
  718MOL0     H99025   6.185   2.314   2.927  1.3118 -0.8184  0.4680
  718MOL0     H99026   6.084   2.368   3.065  0.6016  0.2179  0.2550
  718MOL0     H99027   6.295   2.525   2.925 -0.0275  1.5595  1.0402
  718MOL0     H99028   6.182   2.606   3.030  1.1948  0.2324  2.0327
  718MOL0     H99029   6.263   2.431   3.214 -0.1766  0.4454 -0.4109
  718MOL0     H99030   6.389   2.541   3.161  0.5349  0.0358  0.7345
  718MOL0     H99031   6.481   2.323   3.165 -0.8585  2.7332  2.9135
  718MOL0     H99032   6.352   2.245   3.076  2.1260 -0.4889 -0.7747
  718MOL0     H99033   6.623   2.510   3.023 -0.0431  1.6464 -1.6525
  718MOL0     H99034   6.736   2.606   2.766 -2.0310 -0.1265  1.2857
  718MOL0     H99035   6.734   2.488   2.635  2.7461  1.0680 -0.6855
  718MOL0     H99036   6.956   2.528   2.724  0.7223 -2.3067 -2.9395
  718MOL0     H99037   6.891   2.471   2.884 -1.1476  1.1203  0.4640
  718MOL0     H99038   6.849   2.249   2.806 -1.5793  2.0130 -0.3140
  718MOL0     H99039   6.886   2.276   2.635  2.2668 -2.1579 -0.8564
  718MOL0     H99040   7.089   2.296   2.856  2.1034 -0.0378 -0.0572
  718MOL0     H99041   7.072   2.160   2.746 -0.3709  0.4895 -2.6728
  718MOL0     H99042   7.288   2.162   2.834  1.3139  1.8823  1.7452
  718MOL0     H99043   7.475   2.144   2.939  0.4173  0.6256  0.3782
  718MOL0     H99044   7.632   2.162   2.867 -0.3038 -1.0942 -0.6533
  718MOL0     H99045   7.536   2.004   2.851  1.4926 -0.6568  0.9108
  718MOL0     H99046   7.935   2.319   2.381 -0.2721 -3.5999 -0.1353
  718MOL0     H99047   8.207   2.348   2.422  3.2412  0.5900  2.3482
  718MOL0     H99048   8.472   2.248   2.775 -0.6540  0.0699 -0.2170
  718MOL0     H99049   8.324   2.160   2.803 -0.2966  1.6411  0.6324
  718MOL0     H99050   8.317   2.084   2.567  0.2392 -0.1046  0.0677
  718MOL0     H99051   8.473   2.162   2.540  0.5689 -1.7492 -0.6448
  718MOL0     H99052   8.426   1.908   2.700  0.6397 -1.1672 -1.9362
  718MOL0     H99053   8.559   2.019   2.734 -0.7031 -1.6229  1.3116
  718MOL0     H99054   8.616   2.007   2.480  0.4566 -1.4314 -0.3982
  718MOL0     H99055   8.507   1.873   2.470  3.1023 -1.4217 -3.3353
  718MOL0     H99056   8.737   1.881   2.674 -0.0958  0.6305 -0.4896
  718MOL0     H99057   8.621   1.749   2.635 -1.6173  1.5069  0.2660
  718MOL0     H99058   8.838   1.889   2.446  2.7024 -1.3144  0.0215
  718MOL0     H99059   8.716   1.785   2.382  0.8514 -1.7014 -0.5537
  718MOL0     H99060   8.949   1.687   2.441  1.2962  4.9762 -0.8571
  718MOL0     H99061   8.821   1.608   2.547  1.6969 -1.8971 -1.5154
  718MOL0     H99062   8.894   1.736   2.731  1.6799  0.4308  1.3923
  718MOL0     H99063   9.000   1.834   2.623  1.9658 -0.5821  1.1595
  718MOL0     H99064   8.124   2.248   2.835 -0.7384 -4.1059  0.1688
  718MOL0     H99065   7.881   2.245   2.786 -0.5940 -0.3775 -0.6005
  718MOL0     H99066   7.523   2.366   2.443 -1.0112  2.1438 -0.1774
  718MOL0     H99067   7.293   2.423   2.499  0.3962  0.0918 -0.2365
  718MOL0     H99068   5.430   2.278   2.729  0.1718  0.6574 -0.1691
  718MOL0     H99069   5.241   2.211   2.628  1.1538  1.6597  0.4655
  718MOL0     H99070   5.144   1.805   2.290  0.7920  1.1963 -1.8172
  718MOL0     H99071   5.006   1.725   2.108  1.0778 -3.2199  3.7432
  718MOL0     H99072   4.786   1.629   2.106  0.3113 -2.0357 -2.7560
  718MOL0     H99073   4.623   1.686   2.080 -0.4525  0.3150  0.7916
  718MOL0     H99074   4.678   1.722   1.835  0.5243  0.1105 -0.4685
  718MOL0     H99075   4.692   1.553   1.889  1.5162 -0.6503 -0.9717
  718MOL0     H99076   4.922   1.774   1.862  1.5850 -0.5664 -1.6008
  718MOL0     H99077   4.951   1.600   1.898  3.6090  0.9251 -2.2444
  718MOL0     H99078   4.906   1.737   1.644 -0.8069  0.8753 -0.9533
  718MOL0     H99079   4.807   1.593   1.660  0.6701  0.3243 -1.2126
  718MOL0     H99080   5.188   1.426   1.581  1.0493 -0.1557  1.5885
  718MOL0     H99081   4.735   2.029   2.193  0.2819  0.3901 -0.9553
  718MOL0     H99082   4.755   2.176   2.379  0.0386  0.4594 -0.0142
  718MOL0     H99083   4.875   2.162   2.502 -0.3393  1.5779 -0.4629
  718MOL0     H99084   4.908   2.231   2.334 -0.4283  0.7847 -0.9319
  719MOL0     O99085   1.175   0.084   7.914 -0.2158  0.7066  0.5317
  719MOL0     C99086   1.103  -0.004   7.871 -0.1930  0.2097 -1.5656
  719MOL0     O99087   1.103  -0.061   7.752 -0.3079  0.2495  0.1731
  719MOL0     C99088   1.185  -0.006   7.665 -0.4129  0.4399  0.0196
  719MOL0     C99089   1.288  -0.087   7.617  0.6664  0.0674 -0.3366
  719MOL0     C99090   1.372  -0.055   7.512 -0.6632 -0.0546  0.1102
  719MOL0     C99091   1.352   0.074   7.455  0.4000 -0.3102 -0.2982
  719MOL0     O99092   1.454   0.113   7.370 -0.4366 -1.0118 -0.3224
  719MOL0     C99093   1.449   0.250   7.327  0.5953 -1.1594 -0.8896
  719MOL0     C99094   1.587   0.283   7.289  0.1158 -0.7627  0.1300
  719MOL0     C99095   1.642   0.206   7.171  0.0113  0.3063  0.6576
  719MOL0     C99096   1.577   0.250   7.048  0.0560 -0.7470  0.4714
  719MOL0     C99097   1.643   0.190   6.918 -0.0208 -0.4879 -0.9912
  719MOL0     C99098   1.554   0.208   6.799 -0.1638  0.1691  0.2457
  719MOL0     C99099   1.527   0.351   6.758  0.0635 -0.0278 -0.2422
  719MOL0     C99100   1.470   0.350   6.614  0.1066  0.5457 -0.5037
  719MOL0     N99101   1.437   0.490   6.578  0.5290  0.1811  1.0990
  719MOL0     C99102   1.319   0.538   6.617 -0.1036 -0.5266 -0.2972
  719MOL0     C99103   1.308   0.662   6.566 -1.0656 -0.0129 -0.5359
  719MOL0     C99104   1.203   0.771   6.581 -0.0783  0.5522  0.6173
  719MOL0     C99105   1.087   0.737   6.670 -0.3891 -0.8074 -0.0237
  719MOL0     C99106   1.124   0.748   6.816 -0.9434 -0.2101 -0.5959
  719MOL0     C99107   0.997   0.750   6.894 -0.1567  0.4067  0.1222
  719MOL0     O99108   0.929   0.622   6.870  0.3730  0.5406 -0.0069
  719MOL0     C99109   0.840   0.587   6.968  0.0231 -0.3762  0.8012
  719MOL0     C99110   0.768   0.677   7.048 -0.0887 -0.1287  0.7039
  719MOL0     C99111   0.671   0.631   7.140  0.4687 -0.4258 -0.4826
  719MOL0     C99112   0.576   0.742   7.199  0.1159  0.0541  0.3789
  719MOL0     C99113   0.636   0.500   7.157 -1.2295 -0.1220 -0.3151
  719MOL0     C99114   0.521   0.451   7.238 -0.8289  0.0634  0.2437
  719MOL0     O99115   0.441   0.363   7.173 -0.5691  0.1398  0.0735
  719MOL0     C99116   0.319   0.319   7.228  0.3359 -1.1614  0.0827
  719MOL0     C99117   0.229   0.413   7.269 -0.6270 -0.3580 -0.1562
  719MOL0     C99118   0.109   0.375   7.320  0.5398 -0.2008 -0.6060
  719MOL0     C99119   0.082   0.237   7.339  0.5480  0.6817 -0.1298
  719MOL0     O99120  -0.039   0.212   7.406  0.4626  0.9582  0.0709
  719MOL0     C99121  -0.082   0.071   7.402 -0.4838  0.4050 -0.2966
  719MOL0     C99122  -0.218   0.051   7.445 -0.3391  0.0004 -0.9704
  719MOL0     C99123  -0.332   0.100   7.348  0.1072 -0.1613  0.2336
  719MOL0     C99124  -0.335   0.007   7.220 -1.2997  0.0215  0.5071
  719MOL0     C99125  -0.439   0.046   7.118  0.1770 -0.3233  1.1342
  719MOL0     C99126  -0.463  -0.062   7.002  0.3262  0.2884 -0.8545
  719MOL0     C99127  -0.574  -0.019   6.910  0.1759  1.1086 -0.3167
  719MOL0     C99128  -0.519  -0.048   6.770  0.5390 -0.6774  0.2237
  719MOL0    Cl99129  -0.508  -0.219   6.743  0.3772 -0.2888 -0.3225
  719MOL0     C99130   0.175   0.137   7.301 -0.4199  0.2365 -0.2892
  719MOL0     C99131   0.295   0.182   7.242 -0.2908 -0.4142  0.3145
  719MOL0     O99132   0.510   0.485   7.354 -0.7810 -0.2706  0.6574
  719MOL0     C99133   0.717   0.412   7.081  0.1477 -0.6110  0.3779
  719MOL0     C99134   0.811   0.458   6.980  0.2563  0.2326  1.1090
  719MOL0     N99135   1.429   0.687   6.495 -0.1803  0.4984  0.5894
  719MOL0     N99136   1.506   0.580   6.516 -0.1795  0.8820  0.4742
  719MOL0     C99137   1.235   0.156   7.492 -0.8364 -0.0406 -0.1042
  719MOL0     C99138   1.161   0.116   7.600  0.6381  0.1243  0.1217
  719MOL0     C99139   0.997  -0.034   7.963 -0.7589 -0.6767  0.1244
  719MOL0     C99140   1.033  -0.107   8.082 -0.0115 -1.3147  0.9177
  719MOL0     C99141   0.931  -0.166   8.152  0.8395 -0.3961 -0.3490
  719MOL0     C99142   0.800  -0.150   8.126  0.0223  0.0223 -0.0002
  719MOL0     O99143   0.714  -0.201   8.213  0.5458  0.1562 -0.0824
  719MOL0     C99144   0.573  -0.226   8.183 -0.1084  0.0030 -0.3344
  719MOL0     C99145   0.485  -0.130   8.266  0.3958 -0.0603  0.3705
  719MOL0     C99146   0.336  -0.145   8.211  0.2701  0.2441  0.0570
  719MOL0     C99147   0.237  -0.070   8.299  0.0639  0.6577  0.0279
  719MOL0     C99148   0.111  -0.142   8.285  0.0704 -0.3622 -1.0629
  719MOL0     C99149   0.015  -0.209   8.293  0.7274  0.2748  0.3759
  719MOL0     C99150   0.758  -0.077   8.014 -0.5288  0.3649 -0.3073
  719MOL0     C99151   0.860  -0.021   7.936  0.2089 -0.4656  0.7150
  719MOL0     C99152   0.811   0.050   7.815 -0.0101 -0.0735 -0.6906
  719MOL0     H99153   1.310  -0.187   7.653 -1.5131  0.4421  2.3448
  719MOL0     H99154   1.453  -0.118   7.476  1.2469  1.7211  1.0752
  719MOL0     H99155   1.419   0.330   7.395  1.4988 -1.7130  0.1990
  719MOL0     H99156   1.388   0.254   7.237  0.9466 -0.5785 -1.1084
  719MOL0     H99157   1.588   0.391   7.275 -2.0610 -0.4053  2.0710
  719MOL0     H99158   1.649   0.255   7.375 -1.5270 -3.5608  0.5332
  719MOL0     H99159   1.751   0.208   7.165 -0.0683 -0.2579 -1.7520
  719MOL0     H99160   1.632   0.100   7.195  3.2929 -0.2317  0.1747
  719MOL0     H99161   1.475   0.214   7.038  0.5482 -1.8513 -0.9023
  719MOL0     H99162   1.576   0.360   7.047 -1.3239 -0.6814  2.5871
  719MOL0     H99163   1.641   0.081   6.934  1.2519 -0.5575 -1.1834
  719MOL0     H99164   1.745   0.229   6.910 -0.3905  1.3335  1.8426
  719MOL0     H99165   1.608   0.160   6.716  2.5445 -0.2951  2.1676
  719MOL0     H99166   1.458   0.158   6.820 -1.1211  0.9124 -2.0384
  719MOL0     H99167   1.623   0.404   6.748  1.6420 -2.1980  2.1127
  719MOL0     H99168   1.466   0.411   6.826 -0.5452 -0.3382 -0.5037
  719MOL0     H99169   1.544   0.313   6.543  0.2767  2.8785 -1.6535
  719MOL0     H99170   1.386   0.281   6.608  1.8356 -1.6429 -0.7035
  719MOL0     H99171   1.235   0.487   6.663 -0.2481  1.5230  1.8799
  719MOL0     H99172   1.158   0.786   6.482 -0.3326  2.5450  0.9808
  719MOL0     H99173   1.246   0.862   6.625 -0.2807  0.4303  1.0733
  719MOL0     H99174   1.007   0.802   6.635 -1.3487 -2.6038 -1.3470
  719MOL0     H99175   1.047   0.638   6.645  0.8770 -1.6434  1.0995
  719MOL0     H99176   1.180   0.657   6.842 -0.9996 -0.2550 -0.6332
  719MOL0     H99177   1.189   0.832   6.841 -1.6561 -0.1069  1.0685
  719MOL0     H99178   1.018   0.769   7.000  4.2803  0.4983 -0.5951
  719MOL0     H99179   0.935   0.835   6.862  1.5185  0.6350 -2.7621
  719MOL0     H99180   0.783   0.782   7.022  1.8889 -1.1104 -2.7898
  719MOL0     H99181   0.579   0.743   7.308 -0.5488  0.7263  0.4029
  719MOL0     H99182   0.468   0.727   7.186  0.0472  1.4373 -0.8759
  719MOL0     H99183   0.596   0.841   7.157  0.6508  1.1165  2.9421
  719MOL0     H99184   0.261   0.516   7.269  0.7040 -0.7303  1.4971
  719MOL0     H99185   0.033   0.443   7.356  1.0570  0.8619 -1.4647
  719MOL0     H99186  -0.066   0.024   7.304 -2.7626 -1.2767  0.0695
  719MOL0     H99187  -0.024   0.006   7.468 -3.0904 -3.5582 -1.5881
  719MOL0     H99188  -0.227  -0.058   7.457  0.0172  0.1286  0.6072
  719MOL0     H99189  -0.238   0.091   7.545 -1.6628 -4.1203  0.6391
  719MOL0     H99190  -0.310   0.204   7.323 -1.2418 -0.0711 -0.6869
  719MOL0     H99191  -0.426   0.097   7.405 -0.5078  1.1139 -0.6648
  719MOL0     H99192  -0.356  -0.097   7.249  1.8465 -0.6343  0.7708
  719MOL0     H99193  -0.237   0.013   7.172  0.6125 -1.0656  3.9225
  719MOL0     H99194  -0.534   0.064   7.170  0.9342  1.3084  2.0326
  719MOL0     H99195  -0.408   0.139   7.070  0.8246 -0.8471  0.5244
  719MOL0     H99196  -0.496  -0.155   7.051  2.0727  0.9103  1.7076
  719MOL0     H99197  -0.373  -0.094   6.949  1.7736 -1.3929  2.3232
  719MOL0     H99198  -0.578   0.090   6.917  0.4273  1.2422 -1.8876
  719MOL0     H99199  -0.677  -0.054   6.923  1.0075 -0.6094  2.3966
  719MOL0     H99200  -0.424   0.005   6.757  1.1208 -1.3256  1.5693
  719MOL0     H99201  -0.594  -0.003   6.704  1.7263  0.9031 -0.1370
  719MOL0     H99202   0.169   0.029   7.302 -1.4563  0.2845  0.2536
  719MOL0     H99203   0.370   0.120   7.194  1.1659  0.1306  1.7654
  719MOL0     H99204   0.682   0.309   7.081  1.3223 -1.0325  0.8628
  719MOL0     H99205   0.863   0.388   6.916  0.8467 -0.4977  2.3583
  719MOL0     H99206   1.202   0.244   7.437  0.6383  0.4398 -0.2652
  719MOL0     H99207   1.068   0.159   7.636 -2.3964 -4.0563 -1.9785
  719MOL0     H99208   1.133  -0.127   8.122 -0.2999 -2.2221  1.2213
  719MOL0     H99209   0.941  -0.220   8.246 -3.6542 -0.9412  0.0282
  719MOL0     H99210   0.558  -0.224   8.075 -0.8396  1.8260 -0.2253
  719MOL0     H99211   0.552  -0.329   8.213  0.8569  0.1733  1.0434
  719MOL0     H99212   0.525  -0.030   8.249 -0.4035  0.1225 -0.4964
  719MOL0     H99213   0.490  -0.159   8.372 -3.6497  0.8344  0.9922
  719MOL0     H99214   0.330  -0.120   8.105  1.6659  0.5422  0.0216
  719MOL0     H99215   0.315  -0.250   8.230  3.3164 -0.2435  1.3910
  719MOL0     H99216   0.226   0.030   8.257 -0.2860  1.2791  1.5351
  719MOL0     H99217   0.268  -0.062   8.404 -0.8158 -3.2760  0.7668
  719MOL0     H99218  -0.071  -0.273   8.297  0.8945  0.0825  1.9284
  719MOL0     H99219   0.652  -0.061   8.000 -0.9040 -3.1235 -2.4167
  719MOL0     H99220   0.873   0.139   7.803 -1.5366  0.9498 -1.2515
  719MOL0     H99221   0.816  -0.016   7.729 -0.9915 -2.7620  1.1857
  719MOL0     H99222   0.707   0.078   7.835  0.5556  1.3769  0.4273
  720MOL0     O99223   5.195   7.537   4.185  0.3013  0.6524  0.4662
  720MOL0     C99224   5.211   7.420   4.218 -0.8027  0.6650 -0.0089
  720MOL0     O99225   5.118   7.342   4.278  0.3666  0.0534  0.3450
  720MOL0     C99226   4.987   7.377   4.266 -0.9605 -0.4336  0.2243
  720MOL0     C99227   4.934   7.452   4.367 -0.4973  0.1407  0.0527
  720MOL0     C99228   4.804   7.510   4.351  0.3414  0.2960 -0.2389
  720MOL0     C99229   4.731   7.492   4.229 -0.2047  0.2492 -0.7087
  720MOL0     O99230   4.596   7.518   4.208 -0.6297  0.4032  0.0884
  720MOL0     C99231   4.522   7.581   4.314  0.1727 -0.2331 -0.1448
  720MOL0     C99232   4.392   7.650   4.268 -0.3384 -0.2482  0.1591
  720MOL0     C99233   4.293   7.549   4.205  0.2026  0.2891  0.5748
  720MOL0     C99234   4.217   7.629   4.104 -0.5831  0.4499  0.4168
  720MOL0     C99235   4.174   7.540   3.983  1.2128 -0.0871 -0.2411
  720MOL0     C99236   4.129   7.615   3.860  0.6045 -0.8053 -0.3276
  720MOL0     C99237   4.082   7.517   3.755  0.2113 -0.0939  0.1009
  720MOL0     C99238   4.188   7.435   3.679  0.8583  0.3953 -0.2221
  720MOL0     N99239   4.283   7.513   3.607 -0.8244  0.3814  0.4763
  720MOL0     C99240   4.414   7.490   3.623 -0.5753  0.1340  0.9329
  720MOL0     C99241   4.474   7.584   3.533 -0.2468  0.0010 -0.1547
  720MOL0     C99242   4.613   7.589   3.507 -0.5663  0.4730 -0.2738
  720MOL0     C99243   4.681   7.665   3.630 -0.3384  0.3804 -0.3312
  720MOL0     C99244   4.703   7.815   3.592 -0.3756  0.2072  0.8720
  720MOL0     C99245   4.749   7.907   3.714  0.3270  0.7322 -0.4667
  720MOL0     O99246   4.633   7.896   3.804 -0.7454 -0.9043  0.0713
  720MOL0     C99247   4.611   8.008   3.887  1.0767  0.7177  1.2316
  720MOL0     C99248   4.527   7.982   3.994  0.0263 -0.4033 -0.0517
  720MOL0     C99249   4.485   8.091   4.082  0.0146  0.4469  0.2589
  720MOL0     C99250   4.389   8.057   4.197 -0.2668  0.9796  0.1920
  720MOL0     C99251   4.542   8.215   4.070 -0.2645  0.0352 -0.3369
  720MOL0     C99252   4.517   8.332   4.170 -0.0035  0.3245 -0.1655
  720MOL0     O99253   4.500   8.449   4.112  0.0317  0.0367  0.0498
  720MOL0     C99254   4.424   8.539   4.178 -0.0771 -0.0205  0.3517
  720MOL0     C99255   4.306   8.521   4.256 -0.4501 -0.4526  0.5276
  720MOL0     C99256   4.228   8.626   4.302 -0.4342  0.6066  0.7116
  720MOL0     C99257   4.268   8.757   4.262 -0.3819 -0.4925 -0.4804
  720MOL0     O99258   4.187   8.866   4.301 -0.2231 -0.3301  0.3259
  720MOL0     C99259   4.090   8.921   4.218 -0.0423  1.3089  0.0199
  720MOL0     C99260   3.994   9.002   4.304  0.2289  0.0024  0.0846
  720MOL0     C99261   4.036   9.143   4.322 -0.1699  0.3830  0.1950
  720MOL0     C99262   3.956   9.220   4.427  0.6878  0.3466  0.0450
  720MOL0     C99263   3.986   9.372   4.432 -0.7106  0.6779 -0.4183
  720MOL0     C99264   4.110   9.408   4.520  0.0068 -0.4412  0.8043
  720MOL0     C99265   4.129   9.566   4.524 -0.3233 -0.1442  0.0740
  720MOL0     C99266   4.212   9.616   4.641  0.1485  0.2497 -0.0537
  720MOL0    Cl99267   4.383   9.588   4.610  0.2359  0.3306  0.0206
  720MOL0     C99268   4.386   8.774   4.185  0.5039  0.4843  0.4362
  720MOL0     C99269   4.465   8.672   4.143 -0.2525 -0.4626 -0.0717
  720MOL0     O99270   4.527   8.314   4.294  0.2260  0.5033  0.5370
  720MOL0     C99271   4.629   8.240   3.956 -0.3259 -0.2335 -0.7324
  720MOL0     C99272   4.659   8.140   3.869  0.2786  1.1190 -0.5017
  720MOL0     N99273   4.373   7.653   3.466  0.9547 -0.2214 -0.3242
  720MOL0     N99274   4.258   7.609   3.504 -0.3377 -0.6827  0.0546
  720MOL0     C99275   4.790   7.418   4.131 -0.1869  0.5860  0.3151
  720MOL0     C99276   4.918   7.356   4.143 -0.2212 -0.7418  0.6817
  720MOL0     C99277   5.347   7.369   4.201  0.0335  0.5075  0.3874
  720MOL0     C99278   5.371   7.243   4.248 -0.5259  1.0718 -0.1617
  720MOL0     C99279   5.487   7.167   4.228  0.1449 -0.3946 -0.4244
  720MOL0     C99280   5.604   7.232   4.171 -0.2267 -0.5130  0.1900
  720MOL0     O99281   5.723   7.171   4.141  1.1055 -0.7169  0.3265
  720MOL0     C99282   5.828   7.218   4.224  0.5315 -0.2098  0.1432
  720MOL0     C99283   5.950   7.130   4.211 -0.0716 -0.5282 -0.1551
  720MOL0     C99284   6.030   7.100   4.333 -0.5461  0.7842  0.2353
  720MOL0     C99285   6.164   7.016   4.301  0.2490  0.7110 -0.4221
  720MOL0     C99286   6.131   6.882   4.261 -0.4992  0.5782  0.5233
  720MOL0     C99287   6.100   6.764   4.245  0.4774  0.1342 -0.0307
  720MOL0     C99288   5.585   7.367   4.123 -0.0953  0.5779  0.0524
  720MOL0     C99289   5.458   7.431   4.127 -0.7168  0.5262 -0.1675
  720MOL0     C99290   5.452   7.569   4.071  0.8615  0.3292  0.0773
  720MOL0     H99291   4.993   7.469   4.456  0.3601 -0.7185 -0.3356
  720MOL0     H99292   4.765   7.569   4.434  1.5956  0.5014  0.2422
  720MOL0     H99293   4.575   7.669   4.351  2.3071 -0.6894 -1.8433
  720MOL0     H99294   4.500   7.503   4.387  0.1504 -3.2047 -3.0606
  720MOL0     H99295   4.339   7.697   4.352 -2.8693 -2.0285 -0.3076
  720MOL0     H99296   4.429   7.733   4.208  1.5804 -1.5930 -0.6142
  720MOL0     H99297   4.351   7.472   4.153  0.1610 -0.4776  1.6087
  720MOL0     H99298   4.226   7.497   4.274 -2.8301 -1.7383 -3.4591
  720MOL0     H99299   4.137   7.685   4.153 -0.2168  0.4614  1.0180
  720MOL0     H99300   4.284   7.707   4.066 -1.9916  0.2814 -2.6862
  720MOL0     H99301   4.094   7.480   4.027  0.6990  2.1030  2.0695
  720MOL0     H99302   4.261   7.484   3.948  0.4598 -0.4192 -1.6690
  720MOL0     H99303   4.062   7.697   3.888  2.5599  1.3675 -1.6567
  720MOL0     H99304   4.218   7.665   3.822  0.1397  0.9825  0.8013
  720MOL0     H99305   4.025   7.571   3.679  0.7400  1.1594  0.5690
  720MOL0     H99306   4.016   7.448   3.807 -0.3341  0.5324  0.2483
  720MOL0     H99307   4.237   7.373   3.755 -0.8927 -2.6621 -1.3932
  720MOL0     H99308   4.128   7.380   3.606  0.9305  1.9842 -1.5127
  720MOL0     H99309   4.465   7.403   3.662 -2.3821 -2.3774 -1.8369
  720MOL0     H99310   4.643   7.637   3.413  2.4421 -0.5154  0.0798
  720MOL0     H99311   4.652   7.488   3.494 -1.7569 -0.4451  2.6737
  720MOL0     H99312   4.625   7.639   3.721 -0.4581 -3.6991 -1.3746
  720MOL0     H99313   4.779   7.620   3.648  0.2314  1.5933 -0.3617
  720MOL0     H99314   4.773   7.817   3.508 -0.9218  2.0794  0.4194
  720MOL0     H99315   4.606   7.858   3.564 -0.5370 -1.2312 -0.9895
  720MOL0     H99316   4.837   7.856   3.756  0.5600 -1.5686 -3.4202
  720MOL0     H99317   4.767   8.008   3.677  1.7308  1.2248  1.3695
  720MOL0     H99318   4.488   7.884   4.019  0.9476 -0.4350  1.4267
  720MOL0     H99319   4.443   8.067   4.292 -0.2904 -1.0754  0.4641
  720MOL0     H99320   4.353   7.954   4.183 -2.1263  1.8625 -2.0870
  720MOL0     H99321   4.306   8.126   4.186 -1.6686 -0.4704  1.1794
  720MOL0     H99322   4.280   8.418   4.280 -1.3897 -0.2882  0.2578
  720MOL0     H99323   4.139   8.616   4.363 -0.0365  1.3011  1.4134
  720MOL0     H99324   4.137   8.986   4.144 -0.0484  3.5675  1.9132
  720MOL0     H99325   4.033   8.836   4.177 -1.3394  2.3796 -0.4611
  720MOL0     H99326   3.891   9.004   4.265 -0.1592  2.2049  1.0571
  720MOL0     H99327   3.980   8.950   4.399 -2.5505  0.5622  0.0775
  720MOL0     H99328   4.039   9.194   4.226  2.0264 -0.9359 -0.5157
  720MOL0     H99329   4.138   9.162   4.358  0.5708  1.1983 -2.1842
  720MOL0     H99330   3.962   9.174   4.527 -1.8983  0.6286  0.3828
  720MOL0     H99331   3.850   9.210   4.402  0.2340 -1.6871  2.3415
  720MOL0     H99332   3.988   9.412   4.330  0.1053 -0.8384 -1.0325
  720MOL0     H99333   3.907   9.410   4.498 -1.1160  0.1794 -0.6205
  720MOL0     H99334   4.202   9.365   4.482 -0.1893  0.5098 -0.8543
  720MOL0     H99335   4.096   9.376   4.623  3.2459 -2.8478  0.6508
  720MOL0     H99336   4.034   9.619   4.532 -0.1632  0.2823 -0.8062
  720MOL0     H99337   4.173   9.606   4.433  1.8871 -1.8200  0.3091
  720MOL0     H99338   4.193   9.560   4.733  0.3675  0.3528  0.0541
  720MOL0     H99339   4.188   9.723   4.648 -1.0104  0.0583 -0.7648
  720MOL0     H99340   4.407   8.872   4.144  0.7485  0.3509  0.2417
  720MOL0     H99341   4.547   8.688   4.074 -1.0034  0.0397 -0.8556
  720MOL0     H99342   4.664   8.342   3.945 -0.2346 -0.4758 -3.4200
  720MOL0     H99343   4.715   8.178   3.784  0.1157  0.2011 -1.0421
  720MOL0     H99344   4.741   7.407   4.035  1.6731  0.2315 -0.6382
  720MOL0     H99345   4.974   7.298   4.069  1.8571 -0.2997  1.8238
  720MOL0     H99346   5.288   7.194   4.299  1.3209  0.5268  2.5229
  720MOL0     H99347   5.499   7.061   4.248 -0.4579 -0.6139 -1.1826
  720MOL0     H99348   5.858   7.319   4.197  1.4419 -1.3228 -3.6021
  720MOL0     H99349   5.786   7.214   4.325 -2.0312  0.1349 -0.8214
  720MOL0     H99350   6.019   7.178   4.140  0.5211  0.6901  1.1983
  720MOL0     H99351   5.916   7.034   4.170 -1.1715  0.1816 -0.9535
  720MOL0     H99352   6.062   7.198   4.372  1.0147 -0.0018  1.0239
  720MOL0     H99353   5.972   7.042   4.405  0.7095  0.0742  0.7067
  720MOL0     H99354   6.212   7.017   4.399  0.0536 -0.1318 -0.3113
  720MOL0     H99355   6.222   7.064   4.221  0.5919  1.2197  0.1309
  720MOL0     H99356   6.081   6.659   4.237  0.0701  0.0772  1.3978
  720MOL0     H99357   5.670   7.409   4.070 -0.0816  1.2687  0.6000
  720MOL0     H99358   5.410   7.649   4.132 -1.7862 -0.6767 -0.2597
  720MOL0     H99359   5.552   7.602   4.042  1.7794 -0.9993  1.5309
  720MOL0     H99360   5.392   7.571   3.980  0.1907 -0.4224  0.4878
  721MOL0     O99361  10.441   4.212   1.855 -0.3839  0.2402 -0.1402
  721MOL0     C99362  10.320   4.236   1.866 -0.8179 -0.5389  0.7838
  721MOL0     O99363  10.240   4.296   1.773  0.0685 -0.1423 -0.1943
  721MOL0     C99364  10.277   4.318   1.640  0.7087  0.2600 -1.2338
  721MOL0     C99365  10.180   4.294   1.540  0.5020 -0.0832 -0.8840
  721MOL0     C99366  10.214   4.335   1.414 -0.0677  0.7025 -0.0611
  721MOL0     C99367  10.333   4.403   1.381  0.1356  0.1160  0.4905
  721MOL0     O99368  10.360   4.437   1.252 -0.1817 -0.0841 -0.8531
  721MOL0     C99369  10.245   4.482   1.181 -0.1837  0.2655 -0.0673
  721MOL0     C99370  10.291   4.586   1.076  0.3094 -0.0871 -0.2527
  721MOL0     C99371  10.376   4.702   1.131  0.8626  0.0997 -0.3430
  721MOL0     C99372  10.471   4.763   1.024 -0.4199 -0.0741  0.6381
  721MOL0     C99373  10.554   4.874   1.089 -0.2143  0.3881 -0.7754
  721MOL0     C99374  10.656   4.818   1.194  0.1157 -0.3400  0.2705
  721MOL0     C99375  10.753   4.935   1.241  0.3437  0.1159  0.0575
  721MOL0     C99376  10.699   5.080   1.243  0.0873 -0.4134 -0.7496
  721MOL0     N99377  10.808   5.178   1.273  0.0093  0.3578  0.4427
  721MOL0     C99378  10.857   5.201   1.389 -0.0062  0.1430 -1.1288
  721MOL0     C99379  10.982   5.253   1.365  0.6369 -0.5469 -0.4003
  721MOL0     C99380  11.076   5.298   1.480  0.1997  1.0280  0.5274
  721MOL0     C99381  11.156   5.177   1.541  0.2151  0.3986 -0.9408
  721MOL0     C99382  11.232   5.080   1.438  1.1090  0.4916 -0.1007
  721MOL0     C99383  11.351   5.144   1.363 -0.0558  0.7431  0.5724
  721MOL0     O99384  11.463   5.144   1.449  0.7119 -0.5335  0.4007
  721MOL0     C99385  11.583   5.168   1.403 -0.6416 -0.5599  0.7716
  721MOL0     C99386  11.613   5.216   1.268 -0.4641 -0.1440 -0.3168
  721MOL0     C99387  11.753   5.234   1.234  0.3720 -0.2630  0.0015
  721MOL0     C99388  11.781   5.293   1.097  0.1921 -1.4335 -0.0858
  721MOL0     C99389  11.851   5.219   1.325  0.2241 -0.3547 -0.5809
  721MOL0     C99390  11.992   5.242   1.295 -0.1224  0.6797 -0.2532
  721MOL0     O99391  12.063   5.182   1.199  0.6803 -0.4771 -0.0127
  721MOL0     C99392  12.193   5.232   1.185 -0.4253 -0.2886  0.3984
  721MOL0     C99393  12.220   5.361   1.128 -0.5576  0.8798  0.0484
  721MOL0     C99394  12.348   5.414   1.110  0.1121  0.7747 -0.6653
  721MOL0     C99395  12.463   5.338   1.163  0.0386  0.8420  0.3636
  721MOL0     O99396  12.587   5.396   1.164  1.1770 -0.4091  0.1952
  721MOL0     C99397  12.690   5.305   1.118 -0.0979  0.1339 -0.1227
  721MOL0     C99398  12.812   5.380   1.058 -0.7405 -0.3054  0.9324
  721MOL0     C99399  12.855   5.493   1.151  0.4640 -0.1251 -0.1294
  721MOL0     C99400  12.980   5.582   1.120  0.3602  0.6728  0.2556
  721MOL0     C99401  13.113   5.499   1.112 -0.1533  0.1183  0.2729
  721MOL0     C99402  13.234   5.601   1.109 -0.1998  0.0820 -0.7632
  721MOL0     C99403  13.367   5.531   1.123 -0.4567  0.1358 -0.3375
  721MOL0     C99404  13.403   5.444   1.006 -0.2621 -0.3745 -0.2265
  721MOL0    Cl99405  13.312   5.287   1.002 -0.1091  0.5799  0.2708
  721MOL0     C99406  12.428   5.214   1.219 -0.7148  0.6295 -0.2504
  721MOL0     C99407  12.305   5.160   1.239  0.2574  0.3596  0.8301
  721MOL0     O99408  12.045   5.318   1.379  0.0449 -0.1116  0.4485
  721MOL0     C99409  11.812   5.180   1.458 -0.5386  1.0636  0.6674
  721MOL0     C99410  11.680   5.157   1.494 -1.1658 -0.2667  0.4587
  721MOL0     N99411  10.997   5.266   1.225  0.9458  0.4004 -1.2790
  721MOL0     N99412  10.889   5.221   1.171 -0.2713  0.1764  0.6617
  721MOL0     C99413  10.416   4.429   1.488 -0.1840  0.1043  0.9095
  721MOL0     C99414  10.389   4.395   1.615 -0.4646  0.1983 -0.4873
  721MOL0     C99415  10.246   4.183   1.977  0.1330  0.2160 -0.2934
  721MOL0     C99416  10.118   4.142   1.948 -0.0452 -0.4697  0.6147
  721MOL0     C99417  10.048   4.078   2.053 -0.3129 -0.1647  0.0011
  721MOL0     C99418  10.106   4.055   2.179 -0.2552 -0.0590  0.6592
  721MOL0     O99419  10.037   4.007   2.279  0.2803 -0.1516  0.0975
  721MOL0     C99420   9.897   3.969   2.253 -1.2592 -0.4312 -0.1655
  721MOL0     C99421   9.863   3.905   2.384 -0.0640  0.3551 -0.0792
  721MOL0     C99422   9.714   3.871   2.415 -0.6360 -0.1121  0.6827
  721MOL0     C99423   9.653   3.986   2.483 -0.4671 -0.9326 -0.0895
  721MOL0     C99424   9.511   3.976   2.471  0.6833 -1.0236 -0.3476
  721MOL0     C99425   9.391   3.977   2.446  0.6337  0.2821 -0.3385
  721MOL0     C99426  10.219   4.121   2.209 -0.1607  0.5985 -0.1031
  721MOL0     C99427  10.295   4.183   2.109  0.7284  0.5608 -0.3068
  721MOL0     C99428  10.421   4.248   2.151  0.0039 -0.1436 -0.8516
  721MOL0     H99429  10.084   4.248   1.563  0.6150  0.3003  0.4531
  721MOL0     H99430  10.148   4.304   1.334  0.5807 -0.4426 -0.1829
  721MOL0     H99431  10.174   4.533   1.246  0.4232  1.2859 -0.1897
  721MOL0     H99432  10.200   4.399   1.125  2.1399 -2.2155  1.4955
  721MOL0     H99433  10.346   4.532   0.999  0.0674 -2.9540  1.4530
  721MOL0     H99434  10.205   4.634   1.029 -0.1398  1.8494  2.3086
  721MOL0     H99435  10.310   4.778   1.174 -0.0229 -1.2544  0.7972
  721MOL0     H99436  10.444   4.669   1.210  0.9427  1.5412  0.2130
  721MOL0     H99437  10.539   4.687   0.984 -0.4284  0.4765 -0.4529
  721MOL0     H99438  10.407   4.812   0.951  1.0064  1.0306  0.0763
  721MOL0     H99439  10.492   4.946   1.142  0.7248  0.3488  0.4004
  721MOL0     H99440  10.619   4.930   1.021  0.2649 -2.0654 -2.5136
  721MOL0     H99441  10.606   4.793   1.288  1.1279  0.5960  1.0879
  721MOL0     H99442  10.715   4.735   1.155  1.7976  0.3387  1.2629
  721MOL0     H99443  10.840   4.935   1.174  0.6377  1.5198  0.4140
  721MOL0     H99444  10.789   4.898   1.337 -1.2254 -0.6867  0.3661
  721MOL0     H99445  10.654   5.108   1.147 -1.2293 -0.4185 -0.1399
  721MOL0     H99446  10.616   5.079   1.313  0.5354  0.5382 -0.1753
  721MOL0     H99447  10.826   5.176   1.490 -2.0902  1.4015 -1.3874
  721MOL0     H99448  11.014   5.344   1.557  0.2455 -0.1642  1.2963
  721MOL0     H99449  11.145   5.377   1.447  0.5812 -0.4439 -2.6043
  721MOL0     H99450  11.224   5.221   1.615 -2.4731  0.5280  1.6173
  721MOL0     H99451  11.087   5.119   1.602  3.3233 -0.7340  1.7377
  721MOL0     H99452  11.255   4.982   1.479 -0.7717  0.1227  0.1526
  721MOL0     H99453  11.166   5.049   1.356  4.5009 -1.5356 -2.2928
  721MOL0     H99454  11.373   5.084   1.274 -1.0510  2.1928 -0.7213
  721MOL0     H99455  11.328   5.248   1.337  0.3542  0.3911 -1.4009
  721MOL0     H99456  11.536   5.244   1.197  0.0782 -2.0953 -1.7804
  721MOL0     H99457  11.692   5.313   1.036  0.7014 -3.7799 -1.7720
  721MOL0     H99458  11.844   5.218   1.048  2.7946  0.0967  0.7159
  721MOL0     H99459  11.829   5.390   1.110 -1.0854 -0.8970  0.8121
  721MOL0     H99460  12.136   5.426   1.107  0.6280  2.4741  0.0563
  721MOL0     H99461  12.364   5.513   1.070 -3.3909  2.2656  1.1594
  721MOL0     H99462  12.720   5.246   1.205 -2.1524  1.1427  1.3739
  721MOL0     H99463  12.651   5.242   1.037 -0.4039  2.5027 -1.9340
  721MOL0     H99464  12.896   5.313   1.040 -0.9165 -0.0653 -0.9893
  721MOL0     H99465  12.779   5.427   0.965  0.4367 -2.3918 -0.6277
  721MOL0     H99466  12.865   5.454   1.252 -0.8546  4.2132  1.8988
  721MOL0     H99467  12.771   5.562   1.162  0.2751 -0.3224 -0.3151
  721MOL0     H99468  12.984   5.659   1.198 -0.1617  0.3674  0.5864
  721MOL0     H99469  12.969   5.627   1.021  2.3435 -0.6241 -0.6363
  721MOL0     H99470  13.121   5.431   1.197  0.7221  0.1270  0.2063
  721MOL0     H99471  13.123   5.440   1.020  0.1846 -0.0056  0.3893
  721MOL0     H99472  13.225   5.677   1.187  1.8579 -2.7538  2.5104
  721MOL0     H99473  13.232   5.656   1.014  1.3276  0.1045 -0.7994
  721MOL0     H99474  13.360   5.463   1.208 -1.0178  0.8217  0.1856
  721MOL0     H99475  13.444   5.603   1.154 -0.6697 -1.0981  3.6977
  721MOL0     H99476  13.510   5.420   1.017 -0.4475 -0.8110  0.7320
  721MOL0     H99477  13.392   5.502   0.914  1.6226 -1.0251 -0.9107
  721MOL0     H99478  12.504   5.157   1.271 -1.7599  0.7508  1.4995
  721MOL0     H99479  12.290   5.063   1.284 -1.9117  1.4413  2.6551
  721MOL0     H99480  11.884   5.173   1.539 -1.6262  0.2353  1.5899
  721MOL0     H99481  11.649   5.134   1.596 -2.3792 -0.8549 -0.0225
  721MOL0     H99482  10.517   4.463   1.465 -0.2900  1.2563  2.0347
  721MOL0     H99483  10.459   4.410   1.696  1.8743 -1.3091 -2.1247
  721MOL0     H99484  10.072   4.149   1.850 -0.2724  1.2469  0.8102
  721MOL0     H99485   9.956   4.029   2.024 -0.5994  0.8860 -0.9170
  721MOL0     H99486   9.848   4.059   2.217 -1.0219 -0.0555  0.4215
  721MOL0     H99487   9.891   3.895   2.173 -0.6890  1.7463 -2.3422
  721MOL0     H99488   9.915   3.953   2.467  1.5209  1.4692 -1.6532
  721MOL0     H99489   9.911   3.807   2.393  1.5143  0.8220 -2.6880
  721MOL0     H99490   9.659   3.844   2.324 -2.3134  2.4201  0.8523
  721MOL0     H99491   9.703   3.789   2.487  1.4315 -1.6386 -0.6344
  721MOL0     H99492   9.689   4.077   2.434 -2.4173 -0.7278 -1.2246
  721MOL0     H99493   9.680   3.990   2.589  1.8595 -1.6035 -0.6007
  721MOL0     H99494   9.285   3.978   2.435 -0.0455 -1.4379  4.1095
  721MOL0     H99495  10.251   4.114   2.312  2.6034  0.0357 -0.8973
  721MOL0     H99496  10.448   4.343   2.104  1.4530  0.8641  1.7932
  721MOL0     H99497  10.409   4.260   2.259 -3.5551  3.4233 -1.3948
  721MOL0     H99498  10.502   4.176   2.141  1.4077  0.7624  2.6129
  722MOL0     O99499   8.788   8.854   1.877 -0.0336  0.1374 -0.1855
  722MOL0     C99500   8.829   8.754   1.932 -0.0184  0.7009 -0.4239
  722MOL0     O99501   8.931   8.674   1.902  0.2115 -0.1912 -0.0555
  722MOL0     C99502   8.984   8.680   1.778  0.5819  0.1373  0.1565
  722MOL0     C99503   8.902   8.685   1.664 -0.1313  0.1770 -0.1214
  722MOL0     C99504   8.964   8.719   1.545  0.7382 -0.0733  0.4377
  722MOL0     C99505   9.106   8.717   1.525  1.4792  0.4103  0.4643
  722MOL0     O99506   9.168   8.721   1.396  0.0835 -0.5793 -0.8415
  722MOL0     C99507   9.104   8.662   1.286  0.4960  0.2000 -0.3891
  722MOL0     C99508   9.196   8.660   1.166 -0.2294 -0.6967  0.1208
  722MOL0     C99509   9.206   8.797   1.092  0.4238  0.1729 -0.5936
  722MOL0     C99510   9.340   8.820   1.014 -0.1899  0.1610 -0.0974
  722MOL0     C99511   9.328   8.945   0.934  0.5819  0.3885 -0.0804
  722MOL0     C99512   9.437   8.940   0.831 -0.1582 -0.7087 -0.3797
  722MOL0     C99513   9.430   9.062   0.742  0.3274 -0.3462 -0.2529
  722MOL0     C99514   9.289   9.078   0.680 -0.0142 -0.4170 -0.1529
  722MOL0     N99515   9.292   9.158   0.561 -0.0306  0.3464  0.0969
  722MOL0     C99516   9.194   9.158   0.468  0.1820 -0.6031 -0.2841
  722MOL0     C99517   9.256   9.222   0.361  0.8328  0.2813 -0.2668
  722MOL0     C99518   9.189   9.265   0.231 -0.1304 -0.2118  0.5234
  722MOL0     C99519   9.180   9.141   0.138 -0.1390 -0.3345 -0.7046
  722MOL0     C99520   9.091   9.186   0.007 -0.1350 -0.0155 -1.0065
  722MOL0     C99521   9.118   9.062  -0.088  0.0442  0.6826  0.5722
  722MOL0     O99522   9.084   8.942  -0.025  0.0628  0.2500  0.0915
  722MOL0     C99523   9.146   8.819  -0.058 -0.2316 -0.0477  1.0026
  722MOL0     C99524   9.148   8.711   0.027  0.8732 -0.0984  0.7705
  722MOL0     C99525   9.210   8.590   0.001  0.0960  0.3757 -0.4905
  722MOL0     C99526   9.186   8.474   0.102 -0.4036  0.4192 -0.9320
  722MOL0     C99527   9.289   8.571  -0.112 -0.1533 -0.5153 -0.1536
  722MOL0     C99528   9.386   8.462  -0.147 -0.6149  0.1808  0.0405
  722MOL0     O99529   9.391   8.414  -0.278 -0.2774 -0.4739  0.3293
  722MOL0     C99530   9.477   8.318  -0.321  0.0952 -0.2881 -1.0506
  722MOL0     C99531   9.541   8.330  -0.442  0.2851 -0.2553 -0.2618
  722MOL0     C99532   9.623   8.217  -0.478  0.1775 -0.1607  0.3500
  722MOL0     C99533   9.640   8.106  -0.399 -0.2393 -0.5797  0.1057
  722MOL0     O99534   9.729   8.009  -0.449 -0.3569  0.2141  0.3309
  722MOL0     C99535   9.764   7.905  -0.363  0.0143  0.1152  0.2269
  722MOL0     C99536   9.883   7.838  -0.416 -0.1148 -0.2776  0.3639
  722MOL0     C99537   9.891   7.810  -0.564 -0.0739  0.2761  0.9195
  722MOL0     C99538  10.017   7.719  -0.591 -0.8429  0.4154  0.7068
  722MOL0     C99539  10.056   7.716  -0.744 -0.9099  0.6632  0.6200
  722MOL0     C99540  10.131   7.840  -0.803 -0.4233  0.1105  0.4985
  722MOL0     C99541  10.276   7.837  -0.762 -0.2956  0.6506  0.7103
  722MOL0     C99542  10.350   7.967  -0.781 -0.6624  0.3113 -0.1884
  722MOL0    Cl99543  10.274   8.097  -0.693 -0.7578  0.4772  0.1668
  722MOL0     C99544   9.567   8.098  -0.282  0.7753  0.4600 -0.4392
  722MOL0     C99545   9.492   8.206  -0.241 -0.4270 -0.3400 -0.8326
  722MOL0     O99546   9.465   8.429  -0.064 -0.7743  0.0003 -0.5072
  722MOL0     C99547   9.290   8.675  -0.209  0.6267 -0.2114  0.5344
  722MOL0     C99548   9.216   8.791  -0.182 -0.2195 -1.2651 -0.5070
  722MOL0     N99549   9.386   9.268   0.387 -0.1314  0.4468 -0.2507
  722MOL0     N99550   9.406   9.216   0.509 -0.4202 -0.3894 -0.4299
  722MOL0     C99551   9.190   8.710   1.641  0.2202 -0.1068  0.0638
  722MOL0     C99552   9.126   8.694   1.767 -0.4487  0.3742  0.1688
  722MOL0     C99553   8.762   8.727   2.055  0.4100  0.7375  0.0457
  722MOL0     C99554   8.744   8.830   2.143 -0.2585 -0.1594 -0.2310
  722MOL0     C99555   8.671   8.799   2.259  0.7212 -1.4974 -0.0066
  722MOL0     C99556   8.620   8.674   2.289 -1.0775 -0.5563 -0.5403
  722MOL0     O99557   8.569   8.656   2.414 -0.3055 -0.2449 -0.3187
  722MOL0     C99558   8.470   8.551   2.419 -0.3793 -0.0807  0.7584
  722MOL0     C99559   8.372   8.569   2.537 -0.5351 -0.5708  0.1345
  722MOL0     C99560   8.256   8.482   2.517 -0.7835 -0.0505  0.2324
  722MOL0     C99561   8.147   8.477   2.621 -0.0499  0.1950 -0.1329
  722MOL0     C99562   8.199   8.413   2.740 -0.8727 -0.1066 -0.2600
  722MOL0     C99563   8.251   8.351   2.824 -1.5421  0.1873  0.0794
  722MOL0     C99564   8.631   8.573   2.190  0.1576 -1.0757  0.0867
  722MOL0     C99565   8.703   8.597   2.075  0.4018  0.1387 -0.0936
  722MOL0     C99566   8.685   8.483   1.969  0.8357 -0.4060 -0.4432
  722MOL0     H99567   8.794   8.676   1.663 -0.5273  3.7238 -0.7976
  722MOL0     H99568   8.898   8.730   1.460  2.2082  0.1738 -0.7151
  722MOL0     H99569   9.016   8.723   1.263  0.6139  1.4070  2.0569
  722MOL0     H99570   9.077   8.559   1.312  3.0121 -0.1236  1.3634
  722MOL0     H99571   9.294   8.630   1.203  0.0998  1.1708  0.8623
  722MOL0     H99572   9.174   8.584   1.089  3.2392  0.1825 -1.9752
  722MOL0     H99573   9.132   8.802   1.011 -0.0940 -2.1097 -0.3175
  722MOL0     H99574   9.191   8.873   1.170  0.4804  0.2701 -0.6775
  722MOL0     H99575   9.423   8.822   1.085  1.2146 -2.4539 -1.5145
  722MOL0     H99576   9.358   8.732   0.951 -0.1955  0.6274 -0.7546
  722MOL0     H99577   9.326   9.032   1.001 -1.0342  1.6721 -1.7063
  722MOL0     H99578   9.232   8.948   0.882 -0.8089 -4.4562  1.6372
  722MOL0     H99579   9.536   8.948   0.876  0.6050 -0.5540 -1.9947
  722MOL0     H99580   9.438   8.856   0.760  1.7691 -0.7700 -0.3432
  722MOL0     H99581   9.507   9.059   0.665  1.3309 -0.6308  0.7225
  722MOL0     H99582   9.444   9.145   0.812 -3.4116  0.5263 -0.3621
  722MOL0     H99583   9.253   8.980   0.648  1.6769 -1.0001 -0.3826
  722MOL0     H99584   9.210   9.121   0.742 -1.8521 -2.8115 -0.6915
  722MOL0     H99585   9.092   9.126   0.447 -0.6876  0.9578  1.2514
  722MOL0     H99586   9.251   9.344   0.188 -0.1160  0.5248  1.8395
  722MOL0     H99587   9.087   9.302   0.251  0.3880  0.6634  1.6349
  722MOL0     H99588   9.285   9.125   0.113  0.8004  4.0506 -0.2343
  722MOL0     H99589   9.131   9.057   0.189 -3.0288  2.6254  1.7976
  722MOL0     H99590   8.987   9.201   0.037 -0.1832  0.6098 -1.4596
  722MOL0     H99591   9.131   9.273  -0.045  2.7904  0.8501  2.2913
  722MOL0     H99592   9.047   9.071  -0.171 -0.9473 -0.4608  1.2714
  722MOL0     H99593   9.221   9.069  -0.125 -0.9891 -0.5755 -2.9832
  722MOL0     H99594   9.090   8.719   0.118 -1.1461 -0.9072 -0.3592
  722MOL0     H99595   9.139   8.388   0.055  1.2328 -2.0090  1.5132
  722MOL0     H99596   9.125   8.507   0.187 -0.3608 -1.7982  0.0331
  722MOL0     H99597   9.280   8.430   0.139 -1.3025 -0.3842  0.5002
  722MOL0     H99598   9.535   8.423  -0.497 -0.1666 -0.0857  0.0739
  722MOL0     H99599   9.688   8.223  -0.564 -3.0320  2.7119 -2.1869
  722MOL0     H99600   9.782   7.934  -0.259  3.2846 -1.9865  0.3950
  722MOL0     H99601   9.684   7.831  -0.362  1.7024 -2.0077  4.3663
  722MOL0     H99602   9.968   7.892  -0.374 -0.9398  1.8279 -0.5330
  722MOL0     H99603   9.890   7.743  -0.363  0.4403  1.2369  3.1873
  722MOL0     H99604   9.910   7.897  -0.627  1.6892 -0.3934  0.4620
  722MOL0     H99605   9.802   7.761  -0.604  0.6505  1.1757 -2.0574
  722MOL0     H99606   9.983   7.619  -0.564 -1.3518  0.5731  0.6626
  722MOL0     H99607  10.105   7.744  -0.532 -0.8067  2.0685  0.0093
  722MOL0     H99608  10.103   7.621  -0.767  2.1319  2.4777 -1.2723
  722MOL0     H99609   9.964   7.711  -0.803  0.0705  1.3251 -1.0461
  722MOL0     H99610  10.082   7.936  -0.786 -0.2593  0.8508 -2.6305
  722MOL0     H99611  10.128   7.837  -0.912 -1.8364 -1.6743  0.5335
  722MOL0     H99612  10.322   7.753  -0.814 -2.0344 -1.1566  1.9318
  722MOL0     H99613  10.282   7.820  -0.654 -3.2736 -1.1467  0.7239
  722MOL0     H99614  10.343   8.002  -0.885  0.1829 -0.6095 -0.5650
  722MOL0     H99615  10.456   7.954  -0.755 -1.7021 -2.1497  3.5652
  722MOL0     H99616   9.576   8.019  -0.208 -0.4916  3.4191  3.2214
  722MOL0     H99617   9.448   8.191  -0.143  3.9460 -1.1404  1.2711
  722MOL0     H99618   9.337   8.660  -0.306 -0.1255  1.0689 -0.0607
  722MOL0     H99619   9.207   8.861  -0.265 -0.7789 -0.2185  0.4049
  722MOL0     H99620   9.298   8.703   1.628  0.2631 -1.0587  0.7873
  722MOL0     H99621   9.190   8.686   1.855 -0.1602 -3.6819 -0.1799
  722MOL0     H99622   8.798   8.923   2.126  2.7827 -1.0179  3.4314
  722MOL0     H99623   8.669   8.888   2.322  2.7968 -0.3693 -1.4311
  722MOL0     H99624   8.414   8.543   2.325 -0.7529  0.6458  0.9095
  722MOL0     H99625   8.517   8.454   2.439 -0.9864 -0.7167 -0.7356
  722MOL0     H99626   8.337   8.673   2.542  2.4268  0.4528  1.8380
  722MOL0     H99627   8.431   8.556   2.628 -1.4937  3.0103  1.4417
  722MOL0     H99628   8.208   8.533   2.432 -0.3922 -0.4362 -0.2303
  722MOL0     H99629   8.288   8.380   2.493 -2.6111 -0.8388  0.9782
  722MOL0     H99630   8.062   8.420   2.581 -1.4175  1.5512  0.7356
  722MOL0     H99631   8.107   8.576   2.646 -0.5041 -0.1922  0.6940
  722MOL0     H99632   8.290   8.292   2.905  0.4413  0.4324 -0.6285
  722MOL0     H99633   8.583   8.477   2.204  0.1321 -1.5809 -2.9035
  722MOL0     H99634   8.698   8.388   2.021 -1.5972 -2.0512 -2.6026
  722MOL0     H99635   8.579   8.493   1.945  1.0020  1.6504 -0.5236
  722MOL0     H99636   8.748   8.491   1.879  2.6165 -0.4390  0.7529
  723MOL0     O99637   1.727   3.155  10.340  0.3584  0.4667  0.2858
  723MOL0     C99638   1.728   3.120  10.460 -0.0090  0.0902  0.5603
  723MOL0     O99639   1.811   3.183  10.557  0.3726 -0.0845  0.5053
  723MOL0     C99640   1.836   3.317  10.527  0.1156 -0.4437  0.3210
  723MOL0     C99641   1.966   3.361  10.541  0.3636  0.1322  0.5490
  723MOL0     C99642   2.002   3.489  10.502 -1.0834  0.3060 -0.2267
  723MOL0     C99643   1.906   3.573  10.441  0.6276 -0.0222  0.6494
  723MOL0     O99644   1.958   3.687  10.387 -0.1594 -0.4816 -1.0126
  723MOL0     C99645   1.954   3.710  10.246  1.0325 -0.0972 -0.5335
  723MOL0     C99646   2.084   3.647  10.181 -0.4989 -0.0441 -0.4132
  723MOL0     C99647   2.053   3.540  10.083  0.2596 -0.7831 -0.4080
  723MOL0     C99648   2.177   3.454  10.050 -0.6623 -1.0174  0.9990
  723MOL0     C99649   2.125   3.344   9.957  1.2086  0.2308  0.0244
  723MOL0     C99650   2.087   3.401   9.817  0.1008 -0.1587 -0.3259
  723MOL0     C99651   1.980   3.305   9.760 -0.0786 -0.6775  0.3047
  723MOL0     C99652   1.996   3.297   9.602 -0.6529  0.1196 -0.7448
  723MOL0     N99653   2.001   3.425   9.524 -0.1117 -0.2803  0.1194
  723MOL0     C99654   2.081   3.447   9.406  0.4783 -0.2970 -1.0719
  723MOL0     C99655   2.048   3.572   9.368 -0.6358  0.2273 -0.1119
  723MOL0     C99656   2.116   3.647   9.248 -0.1348 -0.6316 -0.3198
  723MOL0     C99657   2.033   3.640   9.113  0.1121  1.2628  0.1037
  723MOL0     C99658   2.031   3.496   9.057 -0.1643  0.4308 -0.1828
  723MOL0     C99659   1.929   3.470   8.953 -0.5861 -0.2286 -0.4083
  723MOL0     O99660   1.949   3.553   8.838 -0.4715  0.0530  0.3532
  723MOL0     C99661   2.066   3.546   8.768 -0.5509  0.1839 -0.2361
  723MOL0     C99662   2.138   3.430   8.745 -0.5388 -0.2987 -0.8488
  723MOL0     C99663   2.256   3.430   8.664  0.3906  0.3911  0.3708
  723MOL0     C99664   2.354   3.311   8.664  0.7002  0.0286  0.3083
  723MOL0     C99665   2.282   3.541   8.580  0.2670 -0.8050 -0.8642
  723MOL0     C99666   2.372   3.537   8.469  0.8952 -0.9605 -0.9899
  723MOL0     O99667   2.429   3.661   8.435  0.5927  0.4213  0.0857
  723MOL0     C99668   2.536   3.675   8.351 -0.0330  0.2420 -0.4491
  723MOL0     C99669   2.567   3.599   8.239 -0.1127  0.0830  0.0247
  723MOL0     C99670   2.684   3.604   8.158 -0.9479 -0.9972 -0.0685
  723MOL0     C99671   2.774   3.705   8.180  0.4457  0.1783 -0.2249
  723MOL0     O99672   2.883   3.710   8.093 -0.0827  0.8410 -1.0044
  723MOL0     C99673   2.976   3.812   8.113  0.2031 -1.0858 -0.8091
  723MOL0     C99674   3.093   3.814   8.019  0.3959 -0.3101  0.0982
  723MOL0     C99675   3.139   3.678   7.976 -0.4532  0.1852 -0.8769
  723MOL0     C99676   3.265   3.620   8.061  0.7868 -0.8189 -0.0894
  723MOL0     C99677   3.300   3.471   8.019 -0.3176 -0.1459 -0.7224
  723MOL0     C99678   3.316   3.454   7.870 -0.4801 -0.3190  0.0834
  723MOL0     C99679   3.345   3.305   7.842 -0.2281  1.0241  0.4233
  723MOL0     C99680   3.443   3.265   7.720 -0.0078 -0.1382 -0.7871
  723MOL0    Cl99681   3.359   3.307   7.563  0.4832 -0.4901  0.0374
  723MOL0     C99682   2.752   3.797   8.290 -0.2174 -0.2785  0.8365
  723MOL0     C99683   2.628   3.774   8.375 -0.1582 -0.3636  0.2410
  723MOL0     O99684   2.409   3.436   8.417 -0.2764 -0.2008  0.7932
  723MOL0     C99685   2.204   3.654   8.599  0.8725  0.4678  0.2744
  723MOL0     C99686   2.100   3.660   8.699  0.0533  0.0227  0.6391
  723MOL0     N99687   1.943   3.618   9.449 -0.3205  0.7463 -0.7474
  723MOL0     N99688   1.917   3.530   9.544  0.2211 -0.0182 -0.0482
  723MOL0     C99689   1.769   3.538  10.427 -0.4761  0.0571 -0.1024
  723MOL0     C99690   1.742   3.408  10.467 -0.0633  0.2774 -0.5137
  723MOL0     C99691   1.671   2.991  10.498 -0.2257  0.1919 -0.1290
  723MOL0     C99692   1.716   2.876  10.439  0.1304  0.4993 -0.1108
  723MOL0     C99693   1.669   2.760  10.487  0.0426 -0.6341  0.8553
  723MOL0     C99694   1.579   2.749  10.588 -0.2940 -0.5976 -0.0151
  723MOL0     O99695   1.555   2.628  10.638  0.1907  0.7250  0.4106
  723MOL0     C99696   1.480   2.624  10.765 -0.5221 -0.0460  0.2097
  723MOL0     C99697   1.404   2.486  10.772 -0.0174  0.3548 -0.2510
  723MOL0     C99698   1.482   2.373  10.828  0.6091  0.8390  0.3712
  723MOL0     C99699   1.581   2.316  10.721  0.8188 -0.8353  0.4972
  723MOL0     C99700   1.645   2.189  10.763  0.4891 -0.0591 -0.4033
  723MOL0     C99701   1.719   2.111  10.802  0.1399  0.0742  0.0643
  723MOL0     C99702   1.531   2.874  10.644  0.4410  0.5808  0.1219
  723MOL0     C99703   1.576   2.998  10.595  0.2670  0.9690 -0.8058
  723MOL0     C99704   1.519   3.136  10.657 -0.5396  0.1421  0.3933
  723MOL0     H99705   2.039   3.291  10.582  1.1679  0.2104 -0.7187
  723MOL0     H99706   2.103   3.527  10.516 -0.5158 -1.2045  0.0458
  723MOL0     H99707   1.972   3.817  10.235  1.7493 -0.1999 -0.4151
  723MOL0     H99708   1.857   3.675  10.211  1.7005 -3.2824  0.4554
  723MOL0     H99709   2.136   3.730  10.134 -1.4310 -0.3263 -2.0061
  723MOL0     H99710   2.149   3.611  10.261  0.7464 -0.8790 -1.7739
  723MOL0     H99711   1.978   3.471  10.122 -3.0488  0.6753 -3.6338
  723MOL0     H99712   2.000   3.590  10.002 -0.4954  0.2615  0.6857
  723MOL0     H99713   2.254   3.515  10.003  1.6669 -1.8419  3.4663
  723MOL0     H99714   2.223   3.407  10.138  1.3254  3.3274  2.5325
  723MOL0     H99715   2.039   3.309  10.016  1.6035  2.1978  1.9196
  723MOL0     H99716   2.186   3.255   9.945  1.5047  0.5049 -0.5256
  723MOL0     H99717   2.052   3.505   9.807  4.0073  1.1615 -2.3420
  723MOL0     H99718   2.176   3.386   9.755 -1.6466  0.3057 -3.1226
  723MOL0     H99719   1.880   3.343   9.781  1.2003  2.7113  0.8123
  723MOL0     H99720   1.979   3.201   9.794 -2.0949 -0.5725  0.6738
  723MOL0     H99721   2.090   3.242   9.587 -0.8879 -0.5525  0.1721
  723MOL0     H99722   1.921   3.227   9.565 -1.7671 -1.4619  3.8076
  723MOL0     H99723   2.160   3.389   9.360  2.8263 -0.5468  2.8715
  723MOL0     H99724   2.220   3.615   9.232 -0.0125  0.6057 -2.2653
  723MOL0     H99725   2.126   3.753   9.273  0.9607 -0.6680 -0.5355
  723MOL0     H99726   1.930   3.666   9.139  0.8567  1.4234  3.3554
  723MOL0     H99727   2.068   3.706   9.034 -0.8983 -0.4435 -1.8628
  723MOL0     H99728   2.130   3.466   9.021 -0.6741 -2.3796  0.4874
  723MOL0     H99729   2.007   3.424   9.135 -1.4986  0.0423 -0.9092
  723MOL0     H99730   1.924   3.361   8.939  4.8293 -0.9793  1.0576
  723MOL0     H99731   1.837   3.513   8.993 -1.2726  0.2359 -2.3845
  723MOL0     H99732   2.100   3.339   8.790 -4.4141  2.7348  2.8318
  723MOL0     H99733   2.315   3.241   8.589  0.3780  2.1215 -1.6003
  723MOL0     H99734   2.353   3.261   8.761 -2.8963 -0.8565 -0.0380
  723MOL0     H99735   2.453   3.349   8.635 -0.8366  1.8617 -3.2508
  723MOL0     H99736   2.500   3.516   8.218 -2.2665  2.0669 -1.5963
  723MOL0     H99737   2.709   3.534   8.079 -0.9072 -0.7006 -0.3163
  723MOL0     H99738   2.918   3.904   8.099  1.5077 -0.1952 -0.5589
  723MOL0     H99739   3.014   3.813   8.216  1.5814  2.1729 -1.2100
  723MOL0     H99740   3.059   3.877   7.936  1.1411 -1.4931 -1.1431
  723MOL0     H99741   3.167   3.882   8.064 -0.7905  1.0965 -0.0313
  723MOL0     H99742   3.165   3.681   7.870 -1.6648  0.2795 -1.1923
  723MOL0     H99743   3.055   3.608   7.983 -3.5688  3.6325 -0.4743
  723MOL0     H99744   3.236   3.629   8.166  1.2537  1.0011 -0.0930
  723MOL0     H99745   3.352   3.684   8.046  0.6247 -0.1833  1.4784
  723MOL0     H99746   3.394   3.444   8.068 -0.6074 -0.6646 -0.4350
  723MOL0     H99747   3.215   3.414   8.058  1.1331 -1.6258  0.3974
  723MOL0     H99748   3.396   3.526   7.846  0.2365 -0.3685  2.0924
  723MOL0     H99749   3.230   3.486   7.810  0.1614  1.3217 -0.0143
  723MOL0     H99750   3.255   3.247   7.821  3.4661 -4.9097 -1.2661
  723MOL0     H99751   3.385   3.257   7.932 -2.6158  1.8443  1.9976
  723MOL0     H99752   3.471   3.160   7.719 -1.6209 -0.6022 -0.4682
  723MOL0     H99753   3.531   3.329   7.719 -0.1360  0.0775 -2.8101
  723MOL0     H99754   2.828   3.867   8.321  0.0622 -0.3145  0.2352
  723MOL0     H99755   2.610   3.837   8.461  1.8276 -2.5162  2.3810
  723MOL0     H99756   2.219   3.746   8.542  1.6456  0.5666  0.6258
  723MOL0     H99757   2.048   3.756   8.705  0.5243  0.4073 -0.7986
  723MOL0     H99758   1.704   3.615  10.388 -0.2873  1.2092  1.7620
  723MOL0     H99759   1.640   3.371  10.459  0.8983 -2.5764 -0.7283
  723MOL0     H99760   1.774   2.881  10.348  2.7873 -1.6363  1.3248
  723MOL0     H99761   1.700   2.678  10.422  1.5771  1.7817 -1.7246
  723MOL0     H99762   1.540   2.645  10.853  1.4804  1.8255 -1.4730
  723MOL0     H99763   1.399   2.698  10.763  0.2883  0.9120  1.4447
  723MOL0     H99764   1.363   2.469  10.671 -2.1006  2.7508  0.0903
  723MOL0     H99765   1.314   2.492  10.834  1.5749 -0.2633  2.2329
  723MOL0     H99766   1.530   2.398  10.924  1.2129 -2.3612  1.0225
  723MOL0     H99767   1.399   2.304  10.846 -0.9698  2.5623  0.0211
  723MOL0     H99768   1.665   2.386  10.712  1.7564 -2.1487 -2.0564
  723MOL0     H99769   1.532   2.302  10.625  0.4048 -0.5646  0.6697
  723MOL0     H99770   1.790   2.037  10.834 -1.0446 -2.0238 -1.8182
  723MOL0     H99771   1.458   2.888  10.723  0.9781  1.6600  0.4560
  723MOL0     H99772   1.431   3.135  10.722 -2.7481  1.3650 -2.3130
  723MOL0     H99773   1.595   3.183  10.720 -1.2530  1.0105  0.6244
  723MOL0     H99774   1.480   3.203  10.579 -2.9304 -0.3821  1.0599
  724MOL0     O99775   2.407   7.604   9.549 -0.4505  1.3663 -0.3616
  724MOL0     C99776   2.369   7.681   9.473 -0.7689  0.2125 -0.0893
  724MOL0     O99777   2.389   7.676   9.339  0.4241 -0.4101  0.2266
  724MOL0     C99778   2.504   7.619   9.300 -0.2343  0.1129 -0.2499
  724MOL0     C99779   2.500   7.527   9.198 -0.4018  0.4727 -0.5511
  724MOL0     C99780   2.617   7.456   9.164  0.7123 -0.3176 -0.6883
  724MOL0     C99781   2.741   7.489   9.228 -0.4944  0.2558  0.4779
  724MOL0     O99782   2.870   7.441   9.210 -0.2809 -0.6058 -0.2214
  724MOL0     C99783   2.875   7.329   9.121  0.1477  0.1125 -0.1116
  724MOL0     C99784   3.012   7.304   9.064  0.9945 -0.2414  0.1490
  724MOL0     C99785   3.036   7.411   8.961 -0.5125  0.5661  0.1434
  724MOL0     C99786   3.184   7.403   8.912  0.4467  0.1649 -0.6360
  724MOL0     C99787   3.232   7.528   8.830  0.5430 -0.7401  0.3486
  724MOL0     C99788   3.383   7.523   8.790  0.0487  0.8915 -0.1511
  724MOL0     C99789   3.427   7.408   8.705 -0.0534 -0.2973  0.9139
  724MOL0     C99790   3.553   7.448   8.634  0.4411  0.3213 -0.1048
  724MOL0     N99791   3.595   7.334   8.555 -0.1919  0.9052 -0.3951
  724MOL0     C99792   3.516   7.273   8.459  0.5139 -0.5647 -0.4577
  724MOL0     C99793   3.595   7.178   8.403 -0.5664 -0.0091  0.3822
  724MOL0     C99794   3.569   7.080   8.292 -0.0405  0.2302 -0.5323
  724MOL0     C99795   3.505   7.138   8.169  0.3382 -1.0007  0.6076
  724MOL0     C99796   3.606   7.194   8.066  0.6799 -0.7786  0.1400
  724MOL0     C99797   3.526   7.230   7.943 -0.3227  0.4623 -0.3291
  724MOL0     O99798   3.436   7.339   7.960 -0.0817 -0.0374 -0.1097
  724MOL0     C99799   3.323   7.355   7.892 -0.2134  0.4426 -0.1478
  724MOL0     C99800   3.255   7.266   7.811  0.1546 -0.7591 -0.4594
  724MOL0     C99801   3.144   7.305   7.742  0.5404 -0.1177 -0.0502
  724MOL0     C99802   3.079   7.198   7.655  0.0360  0.5114 -1.0361
  724MOL0     C99803   3.099   7.443   7.750 -0.6682  1.3569  0.5842
  724MOL0     C99804   2.991   7.499   7.675  0.0360  0.0034  0.3313
  724MOL0     O99805   2.923   7.604   7.734  0.3986  0.5629  0.1382
  724MOL0     C99806   2.791   7.614   7.709 -0.5489  0.3276  0.9365
  724MOL0     C99807   2.733   7.739   7.699 -0.1448 -1.1012 -0.5162
  724MOL0     C99808   2.598   7.752   7.677  1.0804 -0.3621  0.0000
  724MOL0     C99809   2.512   7.645   7.668  0.3343 -0.0604 -0.0254
  724MOL0     O99810   2.374   7.673   7.655 -0.0147  0.4665  0.3124
  724MOL0     C99811   2.288   7.560   7.636  0.6424  0.0088  0.7754
  724MOL0     C99812   2.259   7.541   7.482  0.3608 -0.5013 -0.7179
  724MOL0     C99813   2.146   7.617   7.441  0.3320 -1.1332 -0.1465
  724MOL0     C99814   2.137   7.641   7.291  0.3922 -0.5692 -0.9364
  724MOL0     C99815   2.083   7.785   7.254 -0.0320 -0.3914  0.1995
  724MOL0     C99816   1.930   7.787   7.263  0.5628  0.3184  0.5969
  724MOL0     C99817   1.856   7.720   7.139  0.1350 -0.1464  0.1697
  724MOL0     C99818   1.880   7.788   6.997 -0.1324  0.4176  0.0855
  724MOL0    Cl99819   1.861   7.961   7.005 -0.0796 -0.6105 -0.3882
  724MOL0     C99820   2.574   7.522   7.679  0.4017  1.2235 -0.2381
  724MOL0     C99821   2.712   7.503   7.699  0.1260  1.1169  0.4763
  724MOL0     O99822   2.964   7.448   7.562 -0.4749 -0.9181 -0.3400
  724MOL0     C99823   3.167   7.522   7.839 -0.2851  0.1546  0.5850
  724MOL0     C99824   3.280   7.486   7.915  0.2255  0.5408  1.1280
  724MOL0     N99825   3.719   7.188   8.466 -0.8741 -0.1027 -0.4218
  724MOL0     N99826   3.721   7.289   8.549  0.3015  0.4021  0.2481
  724MOL0     C99827   2.743   7.583   9.340 -0.1046  0.8200 -0.4380
  724MOL0     C99828   2.622   7.647   9.371  0.9744 -0.3523  0.8452
  724MOL0     C99829   2.274   7.782   9.519  0.5238  0.2457 -0.3749
  724MOL0     C99830   2.193   7.842   9.422  0.3040  0.7249  0.9016
  724MOL0     C99831   2.114   7.951   9.452  0.3115 -0.1321 -0.3996
  724MOL0     C99832   2.102   7.997   9.576  1.0099 -0.5249 -0.6846
  724MOL0     O99833   2.031   8.107   9.624 -0.3556 -0.7351  0.1418
  724MOL0     C99834   1.965   8.189   9.528 -0.1706 -0.1321 -0.4558
  724MOL0     C99835   1.831   8.119   9.485  0.0910  0.1250 -0.4148
  724MOL0     C99836   1.739   8.206   9.389  0.7314 -0.5015  0.1059
  724MOL0     C99837   1.604   8.149   9.335 -0.0153  0.8878  0.1709
  724MOL0     C99838   1.522   8.248   9.266 -0.3687 -0.4295  0.6293
  724MOL0     C99839   1.446   8.323   9.205 -0.4177  0.3272  0.3003
  724MOL0     C99840   2.161   7.922   9.677  0.1066 -0.0498 -0.6546
  724MOL0     C99841   2.252   7.817   9.654 -0.6538  1.0418 -0.3197
  724MOL0     C99842   2.307   7.731   9.778  0.3904 -0.4621  0.1200
  724MOL0     H99843   2.404   7.504   9.154 -2.9783  2.5461  3.4054
  724MOL0     H99844   2.617   7.375   9.092  0.1976  0.0863 -1.1568
  724MOL0     H99845   2.802   7.341   9.041 -1.8865  1.8138  1.8620
  724MOL0     H99846   2.836   7.237   9.166  1.6820 -0.7335 -0.4663
  724MOL0     H99847   3.088   7.321   9.141 -0.8440  0.9713  1.7725
  724MOL0     H99848   3.011   7.201   9.027 -1.0160 -0.9459  1.9195
  724MOL0     H99849   2.974   7.390   8.873  3.4751 -2.3899 -2.3009
  724MOL0     H99850   3.020   7.512   8.999  1.8527  0.8602  0.5179
  724MOL0     H99851   3.249   7.396   9.000 -0.9780 -0.0119  0.4433
  724MOL0     H99852   3.190   7.309   8.858 -1.2333  0.1818 -0.9236
  724MOL0     H99853   3.223   7.621   8.887  0.7744 -0.3212 -0.2833
  724MOL0     H99854   3.173   7.537   8.739  3.5563  2.6969 -1.5437
  724MOL0     H99855   3.396   7.615   8.732  0.0012  1.3671  0.5731
  724MOL0     H99856   3.448   7.526   8.877  0.3305 -0.2244 -0.3026
  724MOL0     H99857   3.346   7.390   8.634  0.0311  1.9900  0.1243
  724MOL0     H99858   3.454   7.321   8.765  2.2134 -0.8923 -0.8211
  724MOL0     H99859   3.535   7.532   8.567 -0.6546 -0.0520 -0.2959
  724MOL0     H99860   3.631   7.475   8.706  3.0267 -0.1508 -2.5610
  724MOL0     H99861   3.413   7.302   8.440  1.1299  0.5659 -2.4423
  724MOL0     H99862   3.494   7.012   8.333  2.2435 -1.0214  1.9085
  724MOL0     H99863   3.655   7.014   8.276 -0.2732 -0.3743  0.5795
  724MOL0     H99864   3.451   7.050   8.133  2.1772 -0.9192 -2.6794
  724MOL0     H99865   3.431   7.210   8.208  1.5209  0.4565  0.2619
  724MOL0     H99866   3.658   7.284   8.100 -1.8693  0.9320 -0.1737
  724MOL0     H99867   3.681   7.117   8.050 -1.1067 -2.9244  1.5265
  724MOL0     H99868   3.609   7.254   7.877 -0.3757 -1.7289 -1.2665
  724MOL0     H99869   3.476   7.138   7.912 -1.6343  1.1833 -0.4257
  724MOL0     H99870   3.299   7.167   7.807 -1.2590 -1.4777  0.6860
  724MOL0     H99871   3.111   7.094   7.671 -0.4040  0.5252  0.0713
  724MOL0     H99872   3.101   7.225   7.552  2.3597  1.4503 -0.3520
  724MOL0     H99873   2.971   7.197   7.673  0.0060 -2.7298 -0.6728
  724MOL0     H99874   2.799   7.825   7.708 -0.3223 -1.0289  0.1992
  724MOL0     H99875   2.553   7.850   7.676  0.7002 -0.5236 -1.3719
  724MOL0     H99876   2.329   7.473   7.688 -1.3739 -2.3681 -1.3448
  724MOL0     H99877   2.196   7.582   7.692  0.5364  0.7398  0.3287
  724MOL0     H99878   2.352   7.559   7.426  0.7910 -2.1077 -0.5616
  724MOL0     H99879   2.234   7.437   7.461  0.8786 -0.8252  0.2457
  724MOL0     H99880   2.148   7.713   7.493  1.5184 -1.1825 -0.0913
  724MOL0     H99881   2.055   7.560   7.467  0.2240 -1.0357 -0.3117
  724MOL0     H99882   2.065   7.563   7.263 -0.2982 -0.3952  0.2896
  724MOL0     H99883   2.238   7.630   7.251  0.8208 -2.2800  0.5412
  724MOL0     H99884   2.128   7.856   7.324 -0.7072 -1.0657  1.3433
  724MOL0     H99885   2.119   7.814   7.154  1.1825 -0.2215  0.6664
  724MOL0     H99886   1.894   7.890   7.267 -2.0288 -0.5563  1.6874
  724MOL0     H99887   1.894   7.734   7.352 -0.4416 -1.7890 -0.9627
  724MOL0     H99888   1.750   7.746   7.147  0.4302  0.8389  0.9770
  724MOL0     H99889   1.872   7.612   7.130  0.0058 -0.0288 -1.9169
  724MOL0     H99890   1.818   7.739   6.920 -1.0047  1.4187  0.1250
  724MOL0     H99891   1.984   7.776   6.965  0.3548 -0.1047  1.7890
  724MOL0     H99892   2.528   7.424   7.682 -1.1303  1.9232  2.4494
  724MOL0     H99893   2.751   7.402   7.708 -0.5491  0.9385  1.6146
  724MOL0     H99894   3.120   7.617   7.860 -1.8759 -0.6056  0.6684
  724MOL0     H99895   3.325   7.541   7.996  0.9028  0.1932  0.9957
  724MOL0     H99896   2.830   7.632   9.382  0.1654 -0.0286  0.0064
  724MOL0     H99897   2.623   7.734   9.435 -1.5529  1.7114 -1.6576
  724MOL0     H99898   2.223   7.819   9.320 -0.7099  3.6895 -0.1589
  724MOL0     H99899   2.061   7.996   9.369  0.5787  0.3926 -0.2922
  724MOL0     H99900   1.951   8.283   9.581 -0.8968 -0.4842 -0.0215
  724MOL0     H99901   2.025   8.210   9.438 -2.0030 -0.2722 -1.7785
  724MOL0     H99902   1.777   8.119   9.580 -2.1428 -2.5512 -1.5190
  724MOL0     H99903   1.838   8.015   9.450 -1.7301  0.2266 -1.1775
  724MOL0     H99904   1.715   8.297   9.444  1.4713  0.4756 -1.1415
  724MOL0     H99905   1.800   8.235   9.303  1.7536  1.7607  1.5093
  724MOL0     H99906   1.547   8.117   9.422  1.9287 -0.9186  0.8675
  724MOL0     H99907   1.624   8.070   9.262  0.1606  1.0412  0.0484
  724MOL0     H99908   1.365   8.375   9.157  0.0097 -0.9007 -1.8419
  724MOL0     H99909   2.142   7.958   9.778 -0.7112 -0.7277 -0.5571
  724MOL0     H99910   2.235   7.749   9.859  0.2022  1.1702 -0.3696
  724MOL0     H99911   2.319   7.622   9.779  1.4601 -0.3533 -0.0283
  724MOL0     H99912   2.406   7.770   9.804  1.0682 -0.1305 -2.6997
  725MOL0     O99913   4.607   7.603   9.550 -0.1614 -0.6457  0.1164
  725MOL0     C99914   4.700   7.628   9.474 -0.3607 -0.1947 -0.3324
  725MOL0     O99915   4.757   7.749   9.452  0.5389  0.1953  0.5464
  725MOL0     C99916   4.677   7.854   9.475  0.7163 -0.1434 -0.5391
  725MOL0     C99917   4.556   7.872   9.401 -0.4216 -0.1787 -0.0634
  725MOL0     C99918   4.483   7.994   9.411 -0.6812 -0.1788  0.0941
  725MOL0     C99919   4.533   8.098   9.478  0.4671 -0.6794 -0.4808
  725MOL0     O99920   4.469   8.218   9.489  0.5294  0.5958  0.1003
  725MOL0     C99921   4.354   8.209   9.572  0.8676 -0.2059  0.1526
  725MOL0     C99922   4.257   8.325   9.523 -0.2777 -0.2841 -0.3728
  725MOL0     C99923   4.112   8.290   9.521 -0.3158 -1.2976  0.2596
  725MOL0     C99924   4.032   8.400   9.456 -0.5213  0.9758  0.4281
  725MOL0     C99925   3.879   8.368   9.460  0.4486  0.4449  0.0309
  725MOL0     C99926   3.806   8.471   9.379 -0.0823  0.0089 -0.0461
  725MOL0     C99927   3.658   8.427   9.357 -0.7774  0.2222 -0.5637
  725MOL0     C99928   3.571   8.557   9.313  0.0559  0.0293  0.0497
  725MOL0     N99929   3.447   8.513   9.259  0.9314 -0.5055  0.1765
  725MOL0     C99930   3.353   8.437   9.324  0.6231 -0.9546  0.1768
  725MOL0     C99931   3.246   8.423   9.231 -0.9688 -0.3862 -0.1044
  725MOL0     C99932   3.127   8.341   9.251 -0.5347  0.7922 -0.1074
  725MOL0     C99933   3.143   8.217   9.345 -1.4122  0.0581  0.0937
  725MOL0     C99934   3.222   8.109   9.284 -0.0580  0.4101 -0.1659
  725MOL0     C99935   3.330   8.040   9.375 -0.0006  1.1507  0.9611
  725MOL0     O99936   3.448   8.125   9.369  0.0765  0.2480 -0.0503
  725MOL0     C99937   3.555   8.076   9.298 -0.3091  0.4549  0.1784
  725MOL0     C99938   3.677   8.042   9.374  0.0665  0.3306 -0.1670
  725MOL0     C99939   3.790   7.987   9.320  0.7210  0.4201 -0.0446
  725MOL0     C99940   3.910   7.954   9.414  0.7413  0.4864  0.4807
  725MOL0     C99941   3.790   7.963   9.179  0.3873  0.2368  0.0459
  725MOL0     C99942   3.894   7.904   9.097  0.3206 -0.2507  0.6301
  725MOL0     O99943   3.842   7.837   8.983  0.0116  0.3657  0.2312
  725MOL0     C99944   3.910   7.758   8.895 -0.4945 -0.3730  0.2807
  725MOL0     C99945   3.851   7.639   8.848 -0.4284  0.6532  0.5041
  725MOL0     C99946   3.913   7.553   8.756  0.3099 -0.6979  0.5321
  725MOL0     C99947   4.047   7.578   8.718 -0.2958 -0.5502 -0.4223
  725MOL0     O99948   4.115   7.506   8.632 -0.4037  0.7128  0.4496
  725MOL0     C99949   4.044   7.446   8.512 -0.1767 -1.0030 -0.3338
  725MOL0     C99950   4.144   7.370   8.420 -0.1740  0.0660 -0.2284
  725MOL0     C99951   4.069   7.305   8.308  1.3936  0.0886  0.1176
  725MOL0     C99952   4.156   7.241   8.196  0.1687 -0.8951 -1.2785
  725MOL0     C99953   4.100   7.163   8.085 -0.0047 -0.0561  0.2586
  725MOL0     C99954   4.015   7.238   7.987 -0.3022 -0.5545  0.7446
  725MOL0     C99955   3.998   7.165   7.850  0.3997 -0.3818 -0.1713
  725MOL0     C99956   3.922   7.242   7.746 -0.3054 -0.0986 -0.6276
  725MOL0    Cl99957   3.994   7.398   7.703 -0.0202 -0.0110  0.8117
  725MOL0     C99958   4.103   7.699   8.767 -0.0426  1.4614 -0.7528
  725MOL0     C99959   4.040   7.790   8.858 -0.6161  1.1774  0.1589
  725MOL0     O99960   4.007   7.926   9.123 -0.3432  0.0358 -0.1603
  725MOL0     C99961   3.678   8.010   9.107  0.8079  0.1290 -0.5334
  725MOL0     C99962   3.553   8.047   9.158 -0.4115 -0.2909 -0.4062
  725MOL0     N99963   3.298   8.467   9.113 -0.0568  0.7473 -0.0422
  725MOL0     N99964   3.405   8.528   9.135 -0.4734 -0.4321 -0.6970
  725MOL0     C99965   4.650   8.079   9.554  0.5330 -0.3089 -0.3838
  725MOL0     C99966   4.718   7.964   9.555 -0.7551 -0.3630  0.6642
  725MOL0     C99967   4.758   7.508   9.401 -0.0645  0.3855 -0.3666
  725MOL0     C99968   4.887   7.526   9.335  0.7609  0.3233  0.1199
  725MOL0     C99969   4.952   7.424   9.274 -0.6425 -0.2751  0.6544
  725MOL0     C99970   4.905   7.294   9.267  1.3969 -0.2355 -0.3268
  725MOL0     O99971   4.985   7.206   9.194  0.4776 -0.0870 -0.2217
  725MOL0     C99972   4.927   7.070   9.192  0.3844  0.0863  0.2146
  725MOL0     C99973   5.032   6.966   9.155  0.7732 -0.3470  0.7291
  725MOL0     C99974   5.077   6.975   9.008  0.8536  0.8811  0.2594
  725MOL0     C99975   5.192   6.880   8.969 -0.2507 -1.1607 -0.4193
  725MOL0     C99976   5.281   6.948   8.878 -0.3757 -0.1651  0.7883
  725MOL0     C99977   5.343   7.000   8.782 -0.2253  0.5959 -0.0781
  725MOL0     C99978   4.774   7.264   9.320  0.3993  0.1547 -0.3651
  725MOL0     C99979   4.700   7.370   9.395  0.2621  0.6595 -0.9286
  725MOL0     C99980   4.564   7.335   9.459  0.0260 -0.3918 -0.1438
  725MOL0     H99981   4.522   7.795   9.333 -0.9376 -0.6564  0.7164
  725MOL0     H99982   4.396   7.995   9.346 -1.3653 -0.6220  0.9861
  725MOL0     H99983   4.383   8.220   9.677  0.2042  1.6929  0.1609
  725MOL0     H99984   4.303   8.113   9.563 -0.9119  0.4900  2.0484
  725MOL0     H99985   4.261   8.402   9.601 -3.7276 -0.5895  0.2580
  725MOL0     H99986   4.298   8.370   9.432 -0.2595  1.1577  0.3124
  725MOL0     H99987   4.091   8.202   9.460 -1.2802 -0.6569 -0.3812
  725MOL0     H99988   4.080   8.278   9.625  2.1257  0.8450  1.3892
  725MOL0     H99989   4.052   8.492   9.512 -0.7660  0.4721  1.3564
  725MOL0     H99990   4.070   8.409   9.354  1.8210 -2.8875  0.7556
  725MOL0     H99991   3.843   8.368   9.563  1.7874 -1.4270  0.5662
  725MOL0     H99992   3.870   8.272   9.408 -0.4722  1.0729 -1.0008
  725MOL0     H99993   3.809   8.561   9.441  0.0684 -0.5870  0.8345
  725MOL0     H99994   3.848   8.486   9.279 -0.6628 -0.6193 -0.3956
  725MOL0     H99995   3.613   8.394   9.451 -0.4642 -0.3476 -0.6063
  725MOL0     H99996   3.665   8.345   9.285 -1.9131 -0.6607  0.2919
  725MOL0     H99997   3.545   8.629   9.391 -1.4937 -0.3902 -0.0520
  725MOL0     H99998   3.617   8.606   9.226 -0.8614  0.7558 -0.0504
  725MOL0     H99999   3.351   8.398   9.426  0.0311 -2.4148 -0.3601
  725MOL0     H    0   3.089   8.298   9.158 -3.2962  2.1885  0.2644
  725MOL0     H    1   3.040   8.397   9.286 -0.7600 -1.2256  2.9664
  725MOL0     H    2   3.209   8.251   9.425  1.2781 -0.2156 -1.8748
  725MOL0     H    3   3.051   8.177   9.389 -0.5747  0.6485  2.5016
  725MOL0     H    4   3.151   8.032   9.253  1.3510 -1.0041  0.0125
  725MOL0     H    5   3.274   8.140   9.193 -1.8154  2.6230 -0.5023
  725MOL0     H    6   3.288   8.036   9.477 -1.7664  3.0248  0.3839
  725MOL0     H    7   3.343   7.935   9.350 -3.3759 -0.3597  4.5404
  725MOL0     H    8   3.674   8.062   9.481  0.3331  1.5876 -0.3798
  725MOL0     H    9   3.893   8.012   9.505  0.1800  2.1351 -0.6281
  725MOL0     H   10   4.006   7.997   9.381  1.2838 -0.3652  0.9203
  725MOL0     H   11   3.924   7.847   9.429  2.3164  0.2093 -2.2881
  725MOL0     H   12   3.754   7.606   8.885 -1.3187 -0.5782 -2.6215
  725MOL0     H   13   3.861   7.466   8.715  0.1807  0.4190 -1.7825
  725MOL0     H   14   3.973   7.372   8.549 -2.9804  1.8358  0.4095
  725MOL0     H   15   3.994   7.524   8.455 -0.4681  0.3311  1.6416
  725MOL0     H   16   4.222   7.437   8.383 -0.1669  0.3339  0.2591
  725MOL0     H   17   4.194   7.286   8.469  0.2815  1.2332  1.4115
  725MOL0     H   18   4.014   7.379   8.249  0.2039 -2.9167 -2.8543
  725MOL0     H   19   3.999   7.227   8.339  1.0280  0.7362  0.9866
  725MOL0     H   20   4.232   7.173   8.236  1.0032  0.0915 -1.1596
  725MOL0     H   21   4.217   7.322   8.156  0.6669 -0.6820 -0.1193
  725MOL0     H   22   4.186   7.132   8.026 -0.5824 -0.3668 -0.4339
  725MOL0     H   23   4.058   7.073   8.131 -1.2620  1.3387  2.0115
  725MOL0     H   24   4.054   7.337   7.963  1.2441 -0.9024  1.6756
  725MOL0     H   25   3.917   7.257   8.033 -0.6222 -0.6007  0.0891
  725MOL0     H   26   3.944   7.072   7.871 -4.1720  2.1239  0.4275
  725MOL0     H   27   4.097   7.147   7.807 -1.2612 -0.8556 -4.3378
  725MOL0     H   28   3.819   7.258   7.781 -0.1844 -0.6710 -0.0043
  725MOL0     H   29   3.906   7.183   7.656  1.2816 -0.1326 -0.9180
  725MOL0     H   30   4.206   7.719   8.737  1.1654 -1.8077  0.6419
  725MOL0     H   31   4.077   7.891   8.869  0.2400  1.3211 -3.0071
  725MOL0     H   32   3.687   8.019   8.999  0.3681  1.2328 -0.4875
  725MOL0     H   33   3.469   8.094   9.107 -0.3110  2.0602  1.4560
  725MOL0     H   34   4.692   8.164   9.606  1.6922 -0.3013 -1.3008
  725MOL0     H   35   4.810   7.962   9.614  2.2267  0.5597 -3.4519
  725MOL0     H   36   4.936   7.622   9.340  0.4301  0.5742 -1.1882
  725MOL0     H   37   5.048   7.439   9.227 -1.2649  0.7528 -0.3465
  725MOL0     H   38   4.892   7.049   9.293 -2.1658 -1.2969 -0.8758
  725MOL0     H   39   4.844   7.059   9.122  1.3740 -4.3129 -0.5944
  725MOL0     H   40   4.980   6.870   9.169  1.4814 -0.5389  2.3416
  725MOL0     H   41   5.121   6.984   9.217  0.6506  2.7509  0.1280
  725MOL0     H   42   4.993   6.945   8.945  1.5075  1.5062 -0.9392
  725MOL0     H   43   5.090   7.080   8.981 -2.6798  1.3979  0.1122
  725MOL0     H   44   5.153   6.789   8.922 -1.1458  0.6322 -3.4713
  725MOL0     H   45   5.242   6.856   9.063 -2.6194  1.2288  1.6155
  725MOL0     H   46   5.398   7.059   8.711  0.1729  0.5949  0.2229
  725MOL0     H   47   4.734   7.163   9.326  0.5664  0.1298  0.4729
  725MOL0     H   48   4.472   7.367   9.410 -1.0975 -1.9478  0.8217
  725MOL0     H   49   4.564   7.227   9.477  1.1492 -0.3074  0.4474
  725MOL0     H   50   4.569   7.366   9.564  2.3947  0.6134 -0.4862
  726MOL0     O   51   5.914  11.238   6.175 -0.7312  0.1582  0.4657
  726MOL0     C   52   5.923  11.295   6.069 -0.1931 -0.4563  0.0409
  726MOL0     O   53   6.040  11.310   6.000 -0.1612 -0.1822 -0.2929
  726MOL0     C   54   6.161  11.275   6.049 -0.2875 -0.3504 -0.8158
  726MOL0     C   55   6.258  11.243   5.958  0.4611  0.8911  0.5734
  726MOL0     C   56   6.390  11.222   6.005  0.2964 -0.0576  0.7555
  726MOL0     C   57   6.423  11.215   6.138 -1.2264 -0.3655 -0.2879
  726MOL0     O   58   6.550  11.163   6.169  0.1630 -0.0293  0.6748
  726MOL0     C   59   6.590  11.131   6.308 -0.8846  0.3958 -0.4650
  726MOL0     C   60   6.648  11.244   6.385  0.8165 -0.7129 -0.0996
  726MOL0     C   61   6.664  11.196   6.530  0.3953  0.2545  0.5759
  726MOL0     C   62   6.734  11.312   6.614 -0.0884 -0.2729  0.3368
  726MOL0     C   63   6.838  11.272   6.724 -0.0336  0.2189 -0.1843
  726MOL0     C   64   6.794  11.170   6.817  0.1313 -1.3049  0.1147
  726MOL0     C   65   6.904  11.117   6.914  1.0296  0.2051  0.1158
  726MOL0     C   66   6.993  11.010   6.851 -1.0893 -0.2708 -0.6349
  726MOL0     N   67   7.088  10.970   6.951  0.3173  0.5142 -0.3822
  726MOL0     C   68   7.068  10.899   7.070 -0.5626 -0.7909 -0.5782
  726MOL0     C   69   7.194  10.882   7.112 -0.9074  1.4102  0.3050
  726MOL0     C   70   7.237  10.825   7.241 -0.0914 -0.2794 -0.5065
  726MOL0     C   71   7.272  10.681   7.233 -0.3953  0.3017  0.4933
  726MOL0     C   72   7.415  10.677   7.162  0.7191  1.2353 -0.2056
  726MOL0     C   73   7.503  10.570   7.220  0.0232 -0.5241  1.0494
  726MOL0     O   74   7.648  10.602   7.211 -0.4069 -0.4091 -0.3851
  726MOL0     C   75   7.737  10.508   7.257  0.8901 -0.1355  0.2831
  726MOL0     C   76   7.867  10.531   7.231 -0.0302 -0.4690  0.2727
  726MOL0     C   77   7.973  10.442   7.264 -0.3622 -0.4416 -0.1158
  726MOL0     C   78   8.114  10.485   7.235 -0.0358  0.8269 -0.9602
  726MOL0     C   79   7.941  10.328   7.340  0.4250  0.3693  0.5062
  726MOL0     C   80   8.048  10.230   7.373 -0.0480  0.6628 -0.8102
  726MOL0     O   81   8.132  10.174   7.287 -0.4762  0.0725  0.0458
  726MOL0     C   82   8.256  10.130   7.334 -0.7649  0.4688  0.2948
  726MOL0     C   83   8.326  10.173   7.452  0.6983  0.3767  0.0932
  726MOL0     C   84   8.444  10.108   7.485  0.3988  1.3083  0.5988
  726MOL0     C   85   8.501  10.004   7.402 -0.0372 -1.0031  0.1042
  726MOL0     O   86   8.626   9.945   7.415  0.4633  0.9313  0.0711
  726MOL0     C   87   8.637   9.812   7.382  0.4972 -0.6190  0.4322
  726MOL0     C   88   8.779   9.750   7.403 -0.0322  0.3977  1.0953
  726MOL0     C   89   8.881   9.847   7.344 -0.2453 -0.0022  0.4951
  726MOL0     C   90   9.016   9.779   7.334 -0.4845 -0.2456  0.0709
  726MOL0     C   91   9.122   9.868   7.294  0.4152 -0.0693 -0.5055
  726MOL0     C   92   9.171   9.941   7.426  0.7437 -0.4128 -0.0988
  726MOL0     C   93   9.279  10.049   7.396  0.2342 -0.4256  0.1007
  726MOL0     C   94   9.408   9.983   7.356 -0.3485  0.0033 -0.3563
  726MOL0    Cl   95   9.548  10.097   7.320 -0.2827  0.4192 -0.0133
  726MOL0     C   96   8.432   9.975   7.288 -0.4904  0.8055 -0.6534
  726MOL0     C   97   8.315  10.035   7.257  1.6344  0.2883  0.1082
  726MOL0     O   98   8.040  10.205   7.492 -0.2865 -0.2188  0.1921
  726MOL0     C   99   7.808  10.302   7.373  0.4699 -0.4760 -0.2107
  726MOL0     C  100   7.707  10.396   7.332  0.0398  0.4902 -0.0989
  726MOL0     N  101   7.287  10.935   7.023  0.1352 -0.1440 -0.5233
  726MOL0     N  102   7.219  10.991   6.931 -0.4170 -0.1398 -0.6673
  726MOL0     C  103   6.327  11.248   6.235  0.5373 -0.3379 -1.0648
  726MOL0     C  104   6.203  11.289   6.181  0.3699  0.0945 -1.1378
  726MOL0     C  105   5.805  11.379   6.025  0.1063  0.3534 -0.2008
  726MOL0     C  106   5.833  11.487   5.934  0.4153  0.1258  0.5533
  726MOL0     C  107   5.725  11.566   5.883  0.4132 -0.2688  0.0215
  726MOL0     C  108   5.594  11.534   5.929 -0.0139 -0.2900  1.3632
  726MOL0     O  109   5.500  11.625   5.891  0.2761  0.3279  0.7272
  726MOL0     C  110   5.370  11.639   5.955 -0.8245  0.5179  0.0505
  726MOL0     C  111   5.334  11.771   6.002 -0.0698 -0.1121 -0.0968
  726MOL0     C  112   5.184  11.763   6.056 -0.3281  0.5848  0.9924
  726MOL0     C  113   5.127  11.899   6.078  0.1018 -0.6892 -0.1460
  726MOL0     C  114   4.993  11.873   6.126  0.4545  0.4874  0.9988
  726MOL0     C  115   4.878  11.855   6.170  0.8324 -0.4626 -0.1123
  726MOL0     C  116   5.571  11.428   6.015  0.6841 -0.7160 -0.0306
  726MOL0     C  117   5.670  11.350   6.061 -0.9605 -0.5148 -0.7280
  726MOL0     C  118   5.635  11.231   6.152 -0.3638 -0.0593 -0.4660
  726MOL0     H  119   6.234  11.227   5.853 -0.0712 -0.8832  0.9371
  726MOL0     H  120   6.471  11.190   5.941 -1.2638  1.1483 -1.9492
  726MOL0     H  121   6.670  11.061   6.286 -2.0893 -1.1625 -0.0808
  726MOL0     H  122   6.515  11.067   6.355 -0.5327  0.2127 -0.1491
  726MOL0     H  123   6.748  11.274   6.351  1.5784 -0.9114  1.8250
  726MOL0     H  124   6.580  11.330   6.386  1.8680  0.2245  2.7136
  726MOL0     H  125   6.563  11.168   6.560  1.4034 -2.9892  1.3008
  726MOL0     H  126   6.723  11.104   6.529 -2.1966 -1.5464  1.2754
  726MOL0     H  127   6.788  11.381   6.548  0.2428  1.5656  2.4019
  726MOL0     H  128   6.648  11.363   6.658 -0.1135 -0.9109  1.0367
  726MOL0     H  129   6.884  11.356   6.777  1.6624 -1.9377  1.9984
  726MOL0     H  130   6.926  11.229   6.674 -1.0550 -1.0026 -1.0125
  726MOL0     H  131   6.712  11.209   6.878  0.0007  2.7914 -2.3115
  726MOL0     H  132   6.764  11.086   6.755  1.3501 -0.8355 -1.1594
  726MOL0     H  133   6.840  11.074   6.992 -0.4065  3.2862  0.7799
  726MOL0     H  134   6.952  11.204   6.960 -2.8385  1.6216  1.8561
  726MOL0     H  135   6.946  10.916   6.822 -1.2718  0.0675 -1.4565
  726MOL0     H  136   7.041  11.050   6.762  0.3539 -0.3797  0.0589
  726MOL0     H  137   6.981  10.865   7.125 -1.6086  0.4236 -1.4268
  726MOL0     H  138   7.148  10.831   7.305  0.5468 -2.7424  0.7324
  726MOL0     H  139   7.305  10.896   7.288 -2.8867  1.5449  1.1159
  726MOL0     H  140   7.281  10.641   7.335  1.5737 -3.9719 -1.1435
  726MOL0     H  141   7.197  10.628   7.175 -0.1629  0.7707 -0.2500
  726MOL0     H  142   7.389  10.651   7.058  1.7661  0.5940 -0.3175
  726MOL0     H  143   7.461  10.776   7.153 -0.9649  2.0943  0.1672
  726MOL0     H  144   7.478  10.569   7.326  0.6380  0.3369  1.2160
  726MOL0     H  145   7.482  10.480   7.161 -1.0548  1.6975 -2.2700
  726MOL0     H  146   7.883  10.624   7.178 -3.0000 -0.2275 -0.3568
  726MOL0     H  147   8.191  10.450   7.305 -1.0099 -2.6299 -1.4301
  726MOL0     H  148   8.119  10.593   7.217 -1.1625  1.3125  1.2687
  726MOL0     H  149   8.143  10.424   7.149  0.8508 -1.0482  0.5897
  726MOL0     H  150   8.290  10.257   7.511 -1.2740 -1.6361  1.9730
  726MOL0     H  151   8.511  10.144   7.563 -0.2692  2.4151  0.6810
  726MOL0     H  152   8.569   9.751   7.442 -0.0162 -3.0594 -2.3917
  726MOL0     H  153   8.614   9.795   7.277 -2.8842 -0.7749  1.0789
  726MOL0     H  154   8.797   9.735   7.510 -0.9268 -1.1792  1.0656
  726MOL0     H  155   8.788   9.649   7.362  1.8139  0.4395  1.3209
  726MOL0     H  156   8.885   9.929   7.416  5.4014 -1.9457  2.9604
  726MOL0     H  157   8.849   9.882   7.246  2.7204  0.5692 -0.3844
  726MOL0     H  158   9.009   9.709   7.249  0.4564  2.1225 -2.0908
  726MOL0     H  159   9.031   9.726   7.428  1.8062  0.5654  0.2257
  726MOL0     H  160   9.204   9.801   7.265 -0.7640 -1.8985  0.1417
  726MOL0     H  161   9.097   9.933   7.211  2.7710  2.7012  0.7827
  726MOL0     H  162   9.210   9.867   7.497  4.1651  1.3760  0.0689
  726MOL0     H  163   9.098   9.994   7.487 -0.5422  0.9378 -2.6503
  726MOL0     H  164   9.304  10.107   7.485  0.4213  0.2315 -0.3716
  726MOL0     H  165   9.241  10.111   7.314 -0.5043 -0.9515  0.0360
  726MOL0     H  166   9.389   9.929   7.263 -2.7457  0.5465 -0.2270
  726MOL0     H  167   9.426   9.903   7.428  0.3101  1.3134  0.9835
  726MOL0     H  168   8.461   9.891   7.227 -2.6504 -2.2778  2.1452
  726MOL0     H  169   8.252  10.010   7.172  0.5299  2.9132  0.0722
  726MOL0     H  170   7.774  10.208   7.415  0.0394  0.2499  1.1256
  726MOL0     H  171   7.608  10.368   7.364  0.5484 -1.2345  0.0509
  726MOL0     H  172   6.341  11.247   6.342 -2.2774 -2.1719 -0.5932
  726MOL0     H  173   6.130  11.316   6.256  0.1878 -1.7979 -0.5797
  726MOL0     H  174   5.937  11.510   5.911  0.4740  0.2404  0.9324
  726MOL0     H  175   5.741  11.653   5.820  0.2692 -0.2115  0.0636
  726MOL0     H  176   5.288  11.624   5.884 -3.1716 -0.5914  2.8205
  726MOL0     H  177   5.350  11.566   6.034  0.8353 -0.9820 -0.8415
  726MOL0     H  178   5.342  11.845   5.923 -1.0684  1.1905  0.9549
  726MOL0     H  179   5.402  11.820   6.073  1.9006 -1.0576 -1.2557
  726MOL0     H  180   5.120  11.706   5.988  0.0376  1.8369 -0.4739
  726MOL0     H  181   5.179  11.701   6.146  2.8177 -1.5382 -0.1264
  726MOL0     H  182   5.121  11.950   5.981  1.7893  0.7332  0.4415
  726MOL0     H  183   5.179  11.967   6.145 -0.1232  1.9004 -2.4222
  726MOL0     H  184   4.777  11.840   6.200  0.3454  2.7562  0.2126
  726MOL0     H  185   5.467  11.413   6.044  0.3418  0.1786 -0.7389
  726MOL0     H  186   5.665  11.257   6.254  4.9504 -0.3388 -1.6999
  726MOL0     H  187   5.532  11.192   6.148 -0.5260  0.3494 -0.2896
  726MOL0     H  188   5.695  11.150   6.110 -0.9602  0.1554 -1.7754
  727MOL0     O  189   6.192  10.523   0.186  0.0545 -0.0674  0.5681
  727MOL0     C  190   6.112  10.435   0.204  0.1174 -0.6656 -0.5406
  727MOL0     O  191   6.131  10.308   0.171  0.8609  0.0461 -0.2473
  727MOL0     C  192   6.231  10.285   0.085 -0.4183  0.1122 -0.1299
  727MOL0     C  193   6.331  10.192   0.132  0.2787  0.5332  0.1946
  727MOL0     C  194   6.431  10.152   0.038 -0.1571 -0.6976 -0.4739
  727MOL0     C  195   6.428  10.205  -0.096 -0.1861 -0.3913 -0.4489
  727MOL0     O  196   6.532  10.169  -0.176  0.6516  0.4898  0.4735
  727MOL0     C  197   6.514  10.166  -0.320 -0.5703 -0.2763  0.9970
  727MOL0     C  198   6.620  10.085  -0.393 -0.4929 -0.3467  0.3789
  727MOL0     C  199   6.747  10.165  -0.411  0.9631 -0.6840 -0.2444
  727MOL0     C  200   6.857  10.094  -0.483 -0.1149 -0.2740 -0.5611
  727MOL0     C  201   6.826  10.045  -0.617  0.1404  0.2085 -0.2732
  727MOL0     C  202   6.805  10.162  -0.715 -0.5080 -0.6565 -0.6586
  727MOL0     C  203   6.925  10.259  -0.704 -0.1686  0.7403  0.1194
  727MOL0     C  204   6.953  10.326  -0.834  0.5712 -0.3977  0.0753
  727MOL0     N  205   7.020  10.246  -0.942  0.7301  0.0464 -1.0854
  727MOL0     C  206   6.959  10.157  -1.020  1.0424  0.6853 -0.4191
  727MOL0     C  207   7.054  10.107  -1.095 -0.2038 -0.3133  0.4153
  727MOL0     C  208   7.050   9.991  -1.194 -0.1645  0.0406  0.0728
  727MOL0     C  209   7.071   9.854  -1.132  0.3628 -0.0918  0.0496
  727MOL0     C  210   7.220   9.842  -1.077 -0.1133  0.0380 -0.8741
  727MOL0     C  211   7.253   9.692  -1.107  0.1738  0.6987  0.9573
  727MOL0     O  212   7.393   9.671  -1.107  0.2211 -0.2283  0.1649
  727MOL0     C  213   7.458   9.622  -0.990  0.2211  0.0275  0.5050
  727MOL0     C  214   7.400   9.556  -0.884 -0.2265 -0.8837 -0.3596
  727MOL0     C  215   7.474   9.510  -0.772 -1.3890 -0.2180 -0.6375
  727MOL0     C  216   7.395   9.464  -0.650 -0.4615  0.0207  0.7093
  727MOL0     C  217   7.622   9.545  -0.775  0.5488 -0.0498  0.9217
  727MOL0     C  218   7.707   9.498  -0.664  0.2325 -0.2332 -0.1481
  727MOL0     O  219   7.664   9.403  -0.579 -0.1172 -0.0534  0.2250
  727MOL0     C  220   7.758   9.319  -0.513 -0.2418  0.6600  0.6446
  727MOL0     C  221   7.760   9.182  -0.524  0.8950 -0.1520  0.7584
  727MOL0     C  222   7.848   9.102  -0.456  0.3072 -0.6685 -0.0663
  727MOL0     C  223   7.936   9.158  -0.361  0.1517 -0.5690 -0.3485
  727MOL0     O  224   8.032   9.075  -0.297  0.1782  0.3441 -0.1856
  727MOL0     C  225   8.148   9.139  -0.261 -0.1733 -0.4655 -0.1639
  727MOL0     C  226   8.247   9.171  -0.382 -0.5150  0.5514 -0.4781
  727MOL0     C  227   8.363   9.260  -0.332  0.7873  0.8249  0.1307
  727MOL0     C  228   8.328   9.409  -0.331  0.6901 -1.0277  0.3872
  727MOL0     C  229   8.452   9.490  -0.308 -0.4350  0.2630  0.3975
  727MOL0     C  230   8.420   9.636  -0.308  1.0509 -0.7164  0.4161
  727MOL0     C  231   8.554   9.710  -0.280  0.7269 -0.3258  0.4701
  727MOL0     C  232   8.533   9.869  -0.267 -0.6787  0.1522 -0.6094
  727MOL0    Cl  233   8.575   9.931  -0.431 -0.0340  0.2800 -0.1340
  727MOL0     C  234   7.936   9.298  -0.346  0.6152  0.6028  0.9443
  727MOL0     C  235   7.846   9.375  -0.422 -0.1458  0.2223 -0.6466
  727MOL0     O  236   7.817   9.560  -0.646 -0.3354 -0.2426  0.1090
  727MOL0     C  237   7.672   9.624  -0.879 -0.6214  0.5068  1.0042
  727MOL0     C  238   7.594   9.662  -0.983  0.7563 -0.1188  0.7100
  727MOL0     N  239   7.174  10.157  -1.056 -0.3265 -0.7325  0.2316
  727MOL0     N  240   7.152  10.244  -0.962 -0.4815  0.5286  0.1881
  727MOL0     C  241   6.330  10.293  -0.139  0.2282 -0.4662  0.2302
  727MOL0     C  242   6.235  10.341  -0.046 -0.0963 -0.7582 -0.1222
  727MOL0     C  243   5.998  10.473   0.283 -0.4140 -0.6437  0.5243
  727MOL0     C  244   5.982  10.610   0.321 -0.2629  0.3377 -0.6664
  727MOL0     C  245   5.860  10.653   0.385 -0.6100 -0.0109  0.8116
  727MOL0     C  246   5.759  10.566   0.416 -0.9550  0.4556  0.4041
  727MOL0     O  247   5.649  10.603   0.480  0.0601  0.2956  0.3323
  727MOL0     C  248   5.632  10.721   0.556  0.1784  0.3524 -0.6654
  727MOL0     C  249   5.496  10.725   0.620  0.4369 -0.2813 -0.3854
  727MOL0     C  250   5.379  10.702   0.527 -1.1265 -0.0411 -0.5550
  727MOL0     C  251   5.246  10.680   0.593  0.4440 -0.3369  0.0110
  727MOL0     C  252   5.215  10.772   0.702  0.2827  0.5589  0.0058
  727MOL0     C  253   5.186  10.862   0.786  0.8591  0.8104 -0.1504
  727MOL0     C  254   5.775  10.439   0.375 -0.0036  0.0785  0.5722
  727MOL0     C  255   5.888  10.386   0.301 -0.5911  1.2838 -0.3610
  727MOL0     C  256   5.869  10.239   0.251 -0.9019  0.0933  0.5964
  727MOL0     H  257   6.335  10.156   0.234 -0.3658 -0.3890 -0.0906
  727MOL0     H  258   6.519  10.096   0.069  0.6736  0.9305  0.2530
  727MOL0     H  259   6.504  10.265  -0.365  2.8938  0.1524  0.9437
  727MOL0     H  260   6.415  10.121  -0.335 -1.7960  2.3640  0.4999
  727MOL0     H  261   6.655   9.997  -0.339 -2.4490 -2.1415 -1.0778
  727MOL0     H  262   6.573  10.062  -0.489 -0.7875 -0.0052  0.4399
  727MOL0     H  263   6.711  10.256  -0.461  0.2685 -2.0166 -2.2962
  727MOL0     H  264   6.780  10.197  -0.311 -1.6193  0.5738  0.3006
  727MOL0     H  265   6.940  10.165  -0.481 -1.9750  2.0190 -0.3953
  727MOL0     H  266   6.889  10.004  -0.429 -0.1532  0.0610  0.0180
  727MOL0     H  267   6.738   9.981  -0.610 -1.2690  1.7921 -2.1874
  727MOL0     H  268   6.908   9.978  -0.643  0.2901 -0.0145  0.7433
  727MOL0     H  269   6.787  10.122  -0.816 -1.3796  1.6688 -1.4960
  727MOL0     H  270   6.711  10.213  -0.691 -1.1758 -2.3388  0.4567
  727MOL0     H  271   7.021  10.219  -0.669  1.2524  2.0105 -2.0495
  727MOL0     H  272   6.898  10.340  -0.637 -2.3131 -0.8609  1.2821
  727MOL0     H  273   6.863  10.370  -0.877  0.8401 -0.4679 -0.5717
  727MOL0     H  274   7.013  10.411  -0.803 -1.6990  1.0622  0.6721
  727MOL0     H  275   6.853  10.134  -1.026  1.0962  0.3530 -0.1206
  727MOL0     H  276   7.109  10.000  -1.285  0.7513  0.3182  0.6848
  727MOL0     H  277   6.945   9.983  -1.225 -0.1198  1.7767 -0.6099
  727MOL0     H  278   7.002   9.842  -1.048  1.7947  1.9553  1.6321
  727MOL0     H  279   7.054   9.771  -1.201  0.9295 -2.4245  2.5398
  727MOL0     H  280   7.283   9.905  -1.141 -2.5662  2.3745 -1.1836
  727MOL0     H  281   7.237   9.870  -0.973 -0.8012  0.9825 -1.0091
  727MOL0     H  282   7.200   9.632  -1.034  0.8524  0.3086  1.1398
  727MOL0     H  283   7.211   9.669  -1.205  0.3746  3.3281  0.1597
  727MOL0     H  284   7.293   9.570  -0.875  0.2148  1.8995  3.8386
  727MOL0     H  285   7.405   9.367  -0.601 -2.7431  0.9243  3.2453
  727MOL0     H  286   7.289   9.476  -0.675 -1.6255 -2.6264  3.6691
  727MOL0     H  287   7.416   9.536  -0.570 -0.6285 -1.0396  1.7429
  727MOL0     H  288   7.696   9.133  -0.597  0.0956 -1.5453  2.3258
  727MOL0     H  289   7.847   8.993  -0.458  1.2714 -0.6853  0.0347
  727MOL0     H  290   8.133   9.214  -0.182  0.4957 -1.3146  0.8003
  727MOL0     H  291   8.192   9.052  -0.211 -2.6165 -2.0309 -0.5736
  727MOL0     H  292   8.274   9.074  -0.425 -3.0530  0.3540 -1.8058
  727MOL0     H  293   8.200   9.223  -0.466 -0.3523  2.3218  0.4855
  727MOL0     H  294   8.447   9.248  -0.400 -0.5794 -1.6584 -1.2468
  727MOL0     H  295   8.399   9.233  -0.232 -1.5142 -1.5879  0.4247
  727MOL0     H  296   8.253   9.440  -0.258  2.6615  2.4409  1.1904
  727MOL0     H  297   8.281   9.434  -0.427  3.7301 -3.5829 -1.9555
  727MOL0     H  298   8.511   9.470  -0.218 -2.7702 -0.6354  1.8012
  727MOL0     H  299   8.513   9.477  -0.398 -3.0978 -0.0024 -1.4755
  727MOL0     H  300   8.349   9.655  -0.227 -0.6789  2.9560 -1.7322
  727MOL0     H  301   8.390   9.670  -0.408  0.8096  2.2190  1.3775
  727MOL0     H  302   8.620   9.681  -0.362  2.6837  0.0906  1.8134
  727MOL0     H  303   8.603   9.687  -0.185 -2.3729  2.5658  3.0015
  727MOL0     H  304   8.593   9.903  -0.183 -2.0632  1.7093 -0.1850
  727MOL0     H  305   8.433   9.902  -0.236 -0.6768 -1.5432  1.4901
  727MOL0     H  306   8.013   9.356  -0.296 -1.6890  2.6388  2.3201
  727MOL0     H  307   7.833   9.482  -0.409  1.0486  0.3402 -0.3754
  727MOL0     H  308   7.772   9.665  -0.876 -0.1749 -0.5723  1.4691
  727MOL0     H  309   7.639   9.726  -1.058 -1.0496 -1.2849 -1.4998
  727MOL0     H  310   6.322  10.331  -0.240 -0.4697  1.6504  1.0166
  727MOL0     H  311   6.149  10.403  -0.072 -0.8427 -0.4284  2.7696
  727MOL0     H  312   6.057  10.681   0.287 -1.9716  1.6343 -1.9560
  727MOL0     H  313   5.850  10.756   0.415 -0.6637 -0.3680  2.1081
  727MOL0     H  314   5.697  10.732   0.643 -1.9196 -0.5505  1.1117
  727MOL0     H  315   5.643  10.806   0.488 -0.0341 -0.9067 -2.3374
  727MOL0     H  316   5.482  10.811   0.687 -1.6211 -0.3241 -0.7093
  727MOL0     H  317   5.493  10.640   0.689 -0.4155 -0.4129 -0.5805
  727MOL0     H  318   5.363  10.791   0.466  0.6303 -0.9569 -2.4851
  727MOL0     H  319   5.384  10.612   0.465 -4.5107  1.6867 -3.7820
  727MOL0     H  320   5.252  10.575   0.624  2.1528  0.3386  2.2309
  727MOL0     H  321   5.179  10.693   0.508 -1.8520  1.4339  1.9718
  727MOL0     H  322   5.161  10.943   0.852 -2.7352  0.2390 -0.6063
  727MOL0     H  323   5.688  10.375   0.392 -1.3327  1.4468 -0.7518
  727MOL0     H  324   5.961  10.189   0.283 -1.0648 -0.2831  0.4799
  727MOL0     H  325   5.793  10.187   0.311  0.0628 -3.8425 -1.2512
  727MOL0     H  326   5.866  10.231   0.142  0.8580 -1.6763  0.6219
  728MOL0     O  327   7.936  11.403   4.195 -0.5305  0.0503 -0.4610
  728MOL0     C  328   7.832  11.383   4.257  0.2058  0.1445 -0.8823
  728MOL0     O  329   7.815  11.408   4.394 -0.7052  0.2080 -0.1632
  728MOL0     C  330   7.914  11.382   4.481 -0.1245 -0.7909  0.3493
  728MOL0     C  331   8.001  11.273   4.461 -1.1326  0.5625 -0.3835
  728MOL0     C  332   8.107  11.253   4.551 -0.3903  0.3368 -1.0448
  728MOL0     C  333   8.136  11.340   4.651 -0.4572  1.6986 -1.1860
  728MOL0     O  334   8.255  11.330   4.721  0.1912 -0.2951 -0.0027
  728MOL0     C  335   8.268  11.394   4.850  0.3436 -0.1991 -0.7438
  728MOL0     C  336   8.392  11.316   4.898 -0.0852 -0.7261 -0.2633
  728MOL0     C  337   8.429  11.348   5.046  0.2513 -0.6800 -0.3775
  728MOL0     C  338   8.441  11.498   5.077 -0.4476 -0.1298 -0.6446
  728MOL0     C  339   8.462  11.520   5.227 -0.1807  0.4013  0.1935
  728MOL0     C  340   8.500  11.673   5.246  0.5566  0.2679 -0.3097
  728MOL0     C  341   8.514  11.711   5.395  0.0111 -0.1988  0.2070
  728MOL0     C  342   8.614  11.633   5.477  0.8407 -0.0941  0.9707
  728MOL0     N  343   8.679  11.678   5.599  0.4337 -0.2738 -0.0949
  728MOL0     C  344   8.626  11.757   5.702  0.4988  0.0635  0.3436
  728MOL0     C  345   8.737  11.776   5.786 -0.5825 -0.5026 -0.6332
  728MOL0     C  346   8.730  11.864   5.904  0.2248 -0.5846 -0.0130
  728MOL0     C  347   8.762  11.780   6.023 -1.1294 -0.4665  0.2621
  728MOL0     C  348   8.698  11.839   6.153 -0.3695  0.9893 -0.1966
  728MOL0     C  349   8.746  11.769   6.284  0.4072 -0.7092  0.0643
  728MOL0     O  350   8.884  11.738   6.275  0.0195  0.1633  0.2117
  728MOL0     C  351   8.956  11.727   6.391 -0.0227 -0.1565  0.3128
  728MOL0     C  352   8.906  11.681   6.514  0.3015  0.1195 -0.0930
  728MOL0     C  353   8.984  11.688   6.631 -0.5541  1.0554 -0.3414
  728MOL0     C  354   8.928  11.634   6.758  0.7366 -0.1665  0.4615
  728MOL0     C  355   9.118  11.743   6.632 -0.3941  1.0981 -0.2620
  728MOL0     C  356   9.207  11.747   6.750 -0.4371 -0.3694  0.1095
  728MOL0     O  357   9.346  11.747   6.721 -0.1810 -0.0857  0.0661
  728MOL0     C  358   9.437  11.790   6.815 -0.3035 -0.0209  0.2183
  728MOL0     C  359   9.551  11.857   6.773  0.7477  0.3885 -0.2976
  728MOL0     C  360   9.656  11.887   6.858 -0.0859  0.1990  0.3044
  728MOL0     C  361   9.644  11.866   6.995  0.0525  0.0771  0.1783
  728MOL0     O  362   9.730  11.900   7.090 -0.7171 -0.7083 -0.3788
  728MOL0     C  363   9.844  11.975   7.058  0.1776 -0.3607  0.3827
  728MOL0     C  364   9.917  11.981   7.191 -0.5657 -1.1430 -0.9061
  728MOL0     C  365   9.847  12.057   7.307  0.3486  0.2727  0.2149
  728MOL0     C  366   9.951  12.086   7.418 -0.0356 -0.0427  0.2580
  728MOL0     C  367   9.887  12.157   7.533  0.2348 -0.7970 -0.6465
  728MOL0     C  368   9.994  12.214   7.624 -0.5792  0.4261  0.1684
  728MOL0     C  369  10.070  12.103   7.710  1.3989  0.4499 -0.2031
  728MOL0     C  370  10.167  12.150   7.810  0.9186 -0.6143  0.2526
  728MOL0    Cl  371  10.277  12.269   7.738  0.6113  0.0930  0.4672
  728MOL0     C  372   9.528  11.808   7.048 -0.1111 -0.5548  0.4460
  728MOL0     C  373   9.429  11.767   6.956 -0.3548 -0.0678 -0.8812
  728MOL0     O  374   9.153  11.761   6.859  0.0508  0.6325 -0.1565
  728MOL0     C  375   9.172  11.783   6.510  0.0824 -1.1497  0.5522
  728MOL0     C  376   9.092  11.770   6.393  0.3368  0.0125 -0.2499
  728MOL0     N  377   8.855  11.727   5.725  0.2214  0.3199 -0.0716
  728MOL0     N  378   8.816  11.665   5.609  0.3560 -0.5639  0.0861
  728MOL0     C  379   8.042  11.433   4.682  0.7988  0.5071  0.2495
  728MOL0     C  380   7.931  11.455   4.596  0.8834  0.0692 -0.3291
  728MOL0     C  381   7.706  11.342   4.185 -0.6787 -0.4057 -0.5813
  728MOL0     C  382   7.586  11.332   4.268  0.2416 -0.9489 -0.5633
  728MOL0     C  383   7.466  11.284   4.225 -0.0237  0.1677  0.3240
  728MOL0     C  384   7.448  11.257   4.089 -0.5891  0.0158  1.1132
  728MOL0     O  385   7.335  11.217   4.032 -0.5589 -0.2310  0.3584
  728MOL0     C  386   7.280  11.098   4.087  0.0480 -0.4453 -0.3868
  728MOL0     C  387   7.214  11.018   3.972 -0.3226 -0.0794 -0.2999
  728MOL0     C  388   7.086  11.077   3.908 -0.1300 -0.0252  0.2988
  728MOL0     C  389   7.034  11.003   3.785 -0.1160 -0.5163  0.2082
  728MOL0     C  390   6.920  11.076   3.733  0.1833  0.8012  0.2132
  728MOL0     C  391   6.828  11.126   3.673 -1.2988  0.3764  0.5954
  728MOL0     C  392   7.563  11.266   4.002  0.4445 -0.5725 -0.1502
  728MOL0     C  393   7.684  11.302   4.047  0.5087 -0.5575 -0.3614
  728MOL0     C  394   7.787  11.300   3.942 -0.0146  0.0475  0.8792
  728MOL0     H  395   7.974  11.207   4.379  0.1093  0.1604 -0.4795
  728MOL0     H  396   8.178  11.171   4.541  0.3595  0.9377 -0.7149
  728MOL0     H  397   8.178  11.371   4.908 -0.0599 -0.5032 -1.4824
  728MOL0     H  398   8.277  11.502   4.836 -2.4692  0.1162 -0.6937
  728MOL0     H  399   8.377  11.210   4.876  2.5415 -1.4088  0.9405
  728MOL0     H  400   8.476  11.346   4.836 -0.4686 -0.7270 -0.7855
  728MOL0     H  401   8.357  11.309   5.117  1.0223  3.6177  3.2126
  728MOL0     H  402   8.527  11.303   5.060  0.7738  0.9792  1.7803
  728MOL0     H  403   8.526  11.535   5.018  0.7674 -1.2223  0.3304
  728MOL0     H  404   8.349  11.548   5.047 -1.2628 -0.1237  1.6315
  728MOL0     H  405   8.545  11.454   5.252 -2.2383 -1.7779  1.7329
  728MOL0     H  406   8.375  11.494   5.288  0.2025  0.4339  0.7644
  728MOL0     H  407   8.596  11.704   5.203  2.3345 -1.1803  2.3505
  728MOL0     H  408   8.413  11.728   5.208  0.7579  2.5927  2.2837
  728MOL0     H  409   8.412  11.730   5.429 -0.0746 -0.2786  0.0013
  728MOL0     H  410   8.554  11.813   5.385 -0.5116 -0.1966 -3.2469
  728MOL0     H  411   8.558  11.541   5.501 -2.5998  1.0848 -1.6511
  728MOL0     H  412   8.691  11.603   5.406 -1.0875 -1.7073 -0.5793
  728MOL0     H  413   8.532  11.807   5.717  1.4779  1.2248  3.2913
  728MOL0     H  414   8.632  11.912   5.899  0.8016  0.8768  1.6459
  728MOL0     H  415   8.804  11.943   5.887 -0.8930  0.2383 -1.3384
  728MOL0     H  416   8.727  11.677   6.014 -1.0947 -0.6513  1.9908
  728MOL0     H  417   8.870  11.791   6.035 -1.3292  1.2655  0.7342
  728MOL0     H  418   8.717  11.946   6.154 -0.6406  1.0389 -0.1549
  728MOL0     H  419   8.589  11.828   6.165 -0.1662 -1.1221  0.0977
  728MOL0     H  420   8.719  11.827   6.373  1.2175 -0.1230 -0.0538
  728MOL0     H  421   8.690  11.676   6.299 -0.3532 -0.3937 -0.7596
  728MOL0     H  422   8.809  11.634   6.514  1.1695 -1.7813 -0.0133
  728MOL0     H  423   8.988  11.550   6.792  1.1850  0.7365  1.9985
  728MOL0     H  424   8.829  11.591   6.737  0.3406  1.5127 -1.5395
  728MOL0     H  425   8.916  11.715   6.831 -1.6829  2.3136 -2.3976
  728MOL0     H  426   9.576  11.892   6.674 -0.2285 -1.1961 -1.1496
  728MOL0     H  427   9.738  11.939   6.810 -2.3346  1.0171 -2.9411
  728MOL0     H  428   9.919  11.925   6.995  1.6202  1.2375  0.7734
  728MOL0     H  429   9.818  12.074   7.020 -2.1429 -1.0450  0.0401
  728MOL0     H  430   9.931  11.877   7.223  0.4549  0.3091  4.2942
  728MOL0     H  431  10.012  12.033   7.178 -2.0358  2.5385  1.2867
  728MOL0     H  432   9.772  11.990   7.351  0.9790 -1.1048 -0.7298
  728MOL0     H  433   9.791  12.145   7.273  0.7881 -0.8076 -3.8965
  728MOL0     H  434  10.037  12.142   7.379  1.6407 -1.8680  1.1557
  728MOL0     H  435   9.989  11.993   7.460 -2.5967 -1.5564 -0.5266
  728MOL0     H  436   9.822  12.240   7.504  2.0700  1.7489  2.0447
  728MOL0     H  437   9.828  12.084   7.590  1.2632 -1.8663 -0.9078
  728MOL0     H  438   9.967  12.297   7.690  1.5610  0.4812  1.0498
  728MOL0     H  439  10.066  12.258   7.554  0.0113  1.2217  1.2472
  728MOL0     H  440  10.125  12.041   7.638  0.7469 -1.7005  1.0732
  728MOL0     H  441   9.984  12.058   7.760  2.4850 -0.7554  0.6589
  728MOL0     H  442  10.220  12.066   7.856 -2.0339 -2.2954  0.8336
  728MOL0     H  443  10.106  12.210   7.878 -0.2061 -0.6025 -0.7169
  728MOL0     H  444   9.510  11.794   7.154 -4.7390  0.8772  0.0799
  728MOL0     H  445   9.344  11.720   7.004 -1.8367  2.4162 -0.8806
  728MOL0     H  446   9.271  11.826   6.501  0.0567 -0.9825  1.0737
  728MOL0     H  447   9.145  11.792   6.301  1.3549  0.9975  0.5456
  728MOL0     H  448   8.042  11.485   4.777 -1.1826 -2.1219  1.8378
  728MOL0     H  449   7.874  11.546   4.612 -0.8403 -0.9663 -0.3416
  728MOL0     H  450   7.582  11.377   4.367  1.3830  0.1640 -0.9848
  728MOL0     H  451   7.384  11.258   4.291 -0.5342  0.7572 -0.0650
  728MOL0     H  452   7.350  11.038   4.145  0.5750  0.5026 -0.0042
  728MOL0     H  453   7.198  11.133   4.150 -0.1325  0.1858 -0.9559
  728MOL0     H  454   7.194  10.920   4.016  1.2657  0.4388  1.6581
  728MOL0     H  455   7.289  11.005   3.893 -2.2182 -0.0445 -2.2210
  728MOL0     H  456   7.010  11.075   3.986 -1.1600 -1.9438 -0.6726
  728MOL0     H  457   7.102  11.183   3.886  0.0536  0.0612  0.8322
  728MOL0     H  458   7.009  10.899   3.807 -4.2890  0.3942  0.4651
  728MOL0     H  459   7.113  11.003   3.709 -2.2114 -2.1165 -2.1196
  728MOL0     H  460   6.756  11.173   3.609  0.3076  0.9184 -0.8998
  728MOL0     H  461   7.554  11.251   3.895 -0.7607  0.1201 -0.1718
  728MOL0     H  462   7.872  11.239   3.972 -1.9922 -2.8293  1.0266
  728MOL0     H  463   7.754  11.265   3.844  1.6941 -1.2024  0.7197
  728MOL0     H  464   7.827  11.402   3.935  1.5469 -0.6131 -0.1843
  729MOL0     O  465   6.564   4.784   1.639  0.2760 -0.5459 -0.5917
  729MOL0     C  466   6.600   4.774   1.519  0.8079  0.0689 -0.0802
  729MOL0     O  467   6.725   4.746   1.480  0.2390 -0.9717  0.0990
  729MOL0     C  468   6.837   4.741   1.559  0.8277 -0.3000  0.5798
  729MOL0     C  469   6.860   4.813   1.681 -0.5081  0.0752  0.5471
  729MOL0     C  470   6.975   4.814   1.747 -0.1891  1.5130 -0.5949
  729MOL0     C  471   7.078   4.730   1.695 -1.4367 -0.5025  0.1633
  729MOL0     O  472   7.200   4.712   1.758  0.1942  0.2327 -0.1605
  729MOL0     C  473   7.236   4.802   1.859  0.3091  0.3980  0.5075
  729MOL0     C  474   7.190   4.757   1.997 -0.4526 -0.4982  0.4773
  729MOL0     C  475   7.297   4.672   2.077 -0.0596  0.3186  0.1629
  729MOL0     C  476   7.289   4.711   2.224 -0.1964 -0.3342  1.1944
  729MOL0     C  477   7.388   4.819   2.266 -0.9940  0.1732 -0.4016
  729MOL0     C  478   7.399   4.839   2.421 -0.5717 -0.3894 -0.1621
  729MOL0     C  479   7.517   4.922   2.466 -0.0929  0.6689  0.0296
  729MOL0     C  480   7.545   5.049   2.379  0.9893 -0.6774  0.7268
  729MOL0     N  481   7.444   5.160   2.399 -0.4492  0.5449  0.0458
  729MOL0     C  482   7.441   5.229   2.518  0.1156  1.1513  0.0182
  729MOL0     C  483   7.317   5.276   2.525 -0.5822  0.3379 -0.9159
  729MOL0     C  484   7.250   5.351   2.637 -0.5212  0.8511 -0.8931
  729MOL0     C  485   7.273   5.292   2.774  0.0441  0.9103 -0.6576
  729MOL0     C  486   7.251   5.138   2.777 -0.1909  0.1600 -1.2674
  729MOL0     C  487   7.254   5.086   2.933 -0.2102 -1.1446  0.2380
  729MOL0     O  488   7.303   4.955   2.958  0.3634  1.0398  0.0919
  729MOL0     C  489   7.438   4.927   2.955  0.7825 -0.0502  0.0323
  729MOL0     C  490   7.545   4.998   2.886  0.8597  0.0928 -1.5232
  729MOL0     C  491   7.678   4.959   2.890 -1.0822 -0.4466 -0.3862
  729MOL0     C  492   7.782   5.037   2.810  0.2021 -0.8515 -0.3199
  729MOL0     C  493   7.705   4.834   2.954  0.0785 -0.4620  0.0205
  729MOL0     C  494   7.842   4.781   2.963  0.1925 -0.5702  0.6365
  729MOL0     O  495   7.844   4.647   2.995 -0.0187  0.6177  0.3246
  729MOL0     C  496   7.947   4.588   3.063  0.6201  0.1233  0.7756
  729MOL0     C  497   8.065   4.636   3.109 -0.3077  0.2266  0.8508
  729MOL0     C  498   8.164   4.564   3.182  0.1460 -0.8382  0.2310
  729MOL0     C  499   8.144   4.423   3.187  0.1851  0.6334  0.0189
  729MOL0     O  500   8.224   4.333   3.259 -0.5342  0.2483 -0.1017
  729MOL0     C  501   8.356   4.375   3.307  0.5868  0.1765 -0.6999
  729MOL0     C  502   8.436   4.249   3.312 -0.4789  0.4222  0.8783
  729MOL0     C  503   8.390   4.141   3.407  0.1974 -0.4388  0.5928
  729MOL0     C  504   8.489   4.092   3.500  0.6717  0.2608  0.0459
  729MOL0     C  505   8.425   3.993   3.595  0.5305 -1.1023  0.6273
  729MOL0     C  506   8.523   3.972   3.706  0.4949  0.2514 -0.1912
  729MOL0     C  507   8.485   3.863   3.805 -0.1084 -0.0404  0.5034
  729MOL0     C  508   8.584   3.851   3.914  0.6765 -0.3248  0.3929
  729MOL0    Cl  509   8.580   3.671   3.964  0.3929 -0.0085 -0.4002
  729MOL0     C  510   8.025   4.373   3.146  0.8507 -0.0210  0.6449
  729MOL0     C  511   7.923   4.455   3.091 -0.0349 -0.4856 -0.1744
  729MOL0     O  512   7.939   4.855   2.960  0.1475 -0.2122  0.0575
  729MOL0     C  513   7.599   4.762   3.020  0.2850  0.0872 -0.5318
  729MOL0     C  514   7.473   4.809   3.017 -0.4544 -0.6739  0.7069
  729MOL0     N  515   7.249   5.240   2.414  0.2053 -1.0120 -0.3668
  729MOL0     N  516   7.319   5.170   2.340 -0.6080 -0.2629  0.2744
  729MOL0     C  517   7.068   4.657   1.574  0.3515  0.4939  0.6240
  729MOL0     C  518   6.941   4.658   1.511  0.8332 -0.0472  0.0495
  729MOL0     C  519   6.497   4.781   1.408  0.2481  0.2313  0.2052
  729MOL0     C  520   6.539   4.803   1.276 -0.1439 -0.0184 -0.6454
  729MOL0     C  521   6.456   4.814   1.168 -0.6446 -0.3061  0.5596
  729MOL0     C  522   6.321   4.813   1.183  0.8176 -0.3488 -0.7584
  729MOL0     O  523   6.252   4.838   1.066 -0.2390  0.0283 -0.7320
  729MOL0     C  524   6.107   4.857   1.075 -0.6008  0.1977 -0.4644
  729MOL0     C  525   6.042   4.819   0.942 -0.6197  0.3101 -0.6627
  729MOL0     C  526   6.044   4.667   0.919 -0.0783  0.9903  0.8788
  729MOL0     C  527   5.994   4.624   0.783 -0.2642  0.8651 -0.1816
  729MOL0     C  528   6.062   4.513   0.723 -0.4346 -0.0411  0.3496
  729MOL0     C  529   6.124   4.429   0.663  0.5131  0.0879  0.0954
  729MOL0     C  530   6.271   4.787   1.315  0.1826 -0.5285 -0.2054
  729MOL0     C  531   6.358   4.776   1.421  0.1701  1.7109 -0.0502
  729MOL0     C  532   6.294   4.768   1.558 -0.4115  0.0545 -0.7980
  729MOL0     H  533   6.780   4.878   1.716 -0.9762 -0.3440  0.2749
  729MOL0     H  534   6.984   4.885   1.829 -4.8257  0.5958  1.0157
  729MOL0     H  535   7.219   4.905   1.830  4.6556  0.5952 -2.1918
  729MOL0     H  536   7.346   4.798   1.864  0.4498 -1.8079 -2.0124
  729MOL0     H  537   7.165   4.850   2.049 -0.0322 -0.6073  0.8882
  729MOL0     H  538   7.101   4.695   1.999  0.4338 -1.7947  1.2388
  729MOL0     H  539   7.284   4.564   2.065 -2.7370  0.5288  0.7420
  729MOL0     H  540   7.397   4.701   2.042 -0.5089  1.0056 -0.6098
  729MOL0     H  541   7.189   4.729   2.263 -0.9182 -2.3887  0.3982
  729MOL0     H  542   7.315   4.623   2.282  1.8025 -0.3977  0.3136
  729MOL0     H  543   7.365   4.913   2.214 -1.7680  0.4144  0.3506
  729MOL0     H  544   7.489   4.785   2.245 -1.4564 -2.6316  1.4839
  729MOL0     H  545   7.312   4.895   2.456  0.3711 -0.0755  1.7751
  729MOL0     H  546   7.392   4.743   2.473  0.2519  0.3212  1.3157
  729MOL0     H  547   7.612   4.869   2.465  1.3344  3.1038  0.0066
  729MOL0     H  548   7.492   4.944   2.570  0.0175 -0.1518  0.2371
  729MOL0     H  549   7.642   5.091   2.408 -0.0160  3.3672 -1.1541
  729MOL0     H  550   7.525   5.016   2.277 -6.3119 -0.7948  1.6359
  729MOL0     H  551   7.521   5.225   2.591 -0.4803  0.5929  0.6571
  729MOL0     H  552   7.143   5.355   2.617 -1.4696 -0.7539  2.9870
  729MOL0     H  553   7.286   5.455   2.631  0.9636  0.2695 -3.7461
  729MOL0     H  554   7.375   5.308   2.811 -0.4034  1.1168  0.5616
  729MOL0     H  555   7.201   5.340   2.842 -1.6853 -3.1321  0.6494
  729MOL0     H  556   7.163   5.097   2.726 -0.6505 -3.3925  1.8605
  729MOL0     H  557   7.329   5.088   2.718 -1.4038 -1.7454 -1.3628
  729MOL0     H  558   7.311   5.156   2.994 -2.6300  3.9024 -2.6273
  729MOL0     H  559   7.155   5.104   2.977 -0.7170  0.1079 -1.2990
  729MOL0     H  560   7.512   5.089   2.836  1.4355  1.9900  1.3392
  729MOL0     H  561   7.807   5.123   2.873 -1.4207 -0.2928 -0.3761
  729MOL0     H  562   7.733   5.077   2.720  0.6082  0.7519  0.1342
  729MOL0     H  563   7.871   4.989   2.768 -1.3273 -2.3644 -2.0148
  729MOL0     H  564   8.096   4.739   3.098 -0.2215  0.2574  1.3306
  729MOL0     H  565   8.242   4.611   3.241 -1.8402  1.2970  1.2966
  729MOL0     H  566   8.407   4.445   3.240 -0.2031  0.7678 -0.6932
  729MOL0     H  567   8.343   4.428   3.401 -2.6631 -1.1790 -0.2747
  729MOL0     H  568   8.417   4.207   3.213  1.1170  0.7121  0.4197
  729MOL0     H  569   8.543   4.271   3.323 -0.2822 -1.3183  3.0656
  729MOL0     H  570   8.350   4.056   3.350  1.4637 -0.4292 -0.3496
  729MOL0     H  571   8.309   4.185   3.466  0.6012  3.4408 -1.4037
  729MOL0     H  572   8.515   4.180   3.560 -1.3905  0.7818  0.2267
  729MOL0     H  573   8.581   4.059   3.451  0.0859 -1.3330 -0.0473
  729MOL0     H  574   8.330   4.026   3.638 -1.2431 -2.6265 -1.7992
  729MOL0     H  575   8.395   3.903   3.540 -0.7406 -0.7580  0.7166
  729MOL0     H  576   8.538   4.058   3.772  2.2460  0.0844 -0.3129
  729MOL0     H  577   8.624   3.960   3.665  1.2408  2.2620  0.9019
  729MOL0     H  578   8.476   3.770   3.748  0.5418  1.4912 -2.3182
  729MOL0     H  579   8.388   3.885   3.851  1.2029  1.8803  2.5811
  729MOL0     H  580   8.552   3.920   3.992  0.3565 -0.8798  0.7595
  729MOL0     H  581   8.686   3.884   3.892  0.7162  1.4035  2.8785
  729MOL0     H  582   8.014   4.266   3.146  2.8024 -0.3591 -2.8561
  729MOL0     H  583   7.826   4.412   3.066  0.2256  1.0210 -4.8862
  729MOL0     H  584   7.612   4.669   3.075  1.0645  0.4700 -0.0395
  729MOL0     H  585   7.399   4.753   3.072 -1.9986  2.3420  1.9687
  729MOL0     H  586   7.142   4.588   1.536 -2.0878 -0.3917 -3.0626
  729MOL0     H  587   6.915   4.586   1.434 -0.8022  1.0922 -0.5089
  729MOL0     H  588   6.645   4.809   1.253 -0.2022  1.2688 -0.6841
  729MOL0     H  589   6.492   4.844   1.070 -3.0585 -0.3629 -0.4052
  729MOL0     H  590   6.081   4.793   1.160  0.7068 -1.1998 -1.0769
  729MOL0     H  591   6.084   4.960   1.104 -0.4328 -0.1760  1.0969
  729MOL0     H  592   6.095   4.872   0.862 -2.0630  1.6623 -0.7797
  729MOL0     H  593   5.941   4.861   0.941 -0.0133  1.9251  0.9871
  729MOL0     H  594   6.144   4.623   0.924  0.5231  1.9828 -1.3852
  729MOL0     H  595   5.992   4.607   0.995  0.4506 -0.6543 -0.0034
  729MOL0     H  596   6.003   4.704   0.710 -0.5524  0.7801 -0.3126
  729MOL0     H  597   5.887   4.599   0.788 -0.1335 -0.1413 -1.8289
  729MOL0     H  598   6.194   4.368   0.609  0.0793  1.1971 -1.8099
  729MOL0     H  599   6.170   4.802   1.352  0.6260  3.8539 -0.2482
  729MOL0     H  600   6.195   4.722   1.543 -1.7403  1.5210  2.5457
  729MOL0     H  601   6.352   4.707   1.627 -1.7639 -0.4819 -0.0962
  729MOL0     H  602   6.291   4.873   1.587 -2.2157 -0.4665  1.1203
  730MOL0     O  603   7.502   6.019   5.988  0.1346  0.2435  0.6088
  730MOL0     C  604   7.470   6.107   5.908 -0.8301  0.6633 -0.5732
  730MOL0     O  605   7.537   6.222   5.895 -0.3628 -0.5662  0.0788
  730MOL0     C  606   7.646   6.245   5.968  1.1731 -0.1368 -0.2211
  730MOL0     C  607   7.629   6.280   6.099 -0.7427 -0.0974  0.4436
  730MOL0     C  608   7.745   6.326   6.167  0.3882  0.1244 -0.0528
  730MOL0     C  609   7.870   6.323   6.109  0.6912  0.4331  0.4766
  730MOL0     O  610   7.982   6.373   6.171 -0.5657 -0.3957  0.2250
  730MOL0     C  611   7.987   6.514   6.212  0.4931  0.0586 -0.6328
  730MOL0     C  612   8.089   6.505   6.321  1.2211  0.1505  0.8069
  730MOL0     C  613   8.064   6.393   6.422  0.2387 -0.5970 -0.8975
  730MOL0     C  614   8.189   6.393   6.521  0.5893 -0.3129 -0.4838
  730MOL0     C  615   8.186   6.266   6.608 -0.2796 -0.4922 -0.0655
  730MOL0     C  616   8.280   6.275   6.729  0.2257  0.3155 -0.2238
  730MOL0     C  617   8.272   6.147   6.818  1.2823  0.4674 -0.2729
  730MOL0     C  618   8.133   6.093   6.858 -0.0113 -0.6165 -0.2141
  730MOL0     N  619   8.133   5.966   6.919  0.9451  0.7618  0.2251
  730MOL0     C  620   8.243   5.886   6.937  0.8426 -0.7190 -0.1251
  730MOL0     C  621   8.199   5.772   6.976  0.9335 -0.1807  0.2892
  730MOL0     C  622   8.295   5.664   7.021 -0.4846 -0.7232 -0.3422
  730MOL0     C  623   8.259   5.521   6.980 -0.0172 -0.5288  0.3858
  730MOL0     C  624   8.241   5.513   6.832  1.3650  0.1371  0.7142
  730MOL0     C  625   8.371   5.504   6.747  0.0781 -0.7616 -0.2999
  730MOL0     O  626   8.426   5.638   6.723 -0.0048 -0.0511 -0.5458
  730MOL0     C  627   8.549   5.650   6.670 -0.4803  0.4222  0.1360
  730MOL0     C  628   8.634   5.542   6.645 -0.0832  0.3060 -0.1832
  730MOL0     C  629   8.761   5.558   6.573 -0.1125 -0.5399 -0.1983
  730MOL0     C  630   8.835   5.430   6.559 -0.1538  0.3737  0.1903
  730MOL0     C  631   8.804   5.688   6.537  1.1959 -0.9750 -0.5535
  730MOL0     C  632   8.929   5.730   6.459  0.3715  0.6161 -0.2907
  730MOL0     O  633   8.995   5.625   6.411 -0.0181  0.3542 -0.4365
  730MOL0     C  634   9.100   5.630   6.325  1.0279 -0.5611  0.0529
  730MOL0     C  635   9.111   5.513   6.254  0.6339  0.0601  0.2704
  730MOL0     C  636   9.217   5.520   6.164 -1.0232  0.1758  0.7880
  730MOL0     C  637   9.319   5.610   6.157 -0.5256  0.1021  0.8406
  730MOL0     O  638   9.424   5.584   6.069  0.1903 -0.2724  0.5654
  730MOL0     C  639   9.487   5.692   6.004 -0.0116  0.7051 -0.4239
  730MOL0     C  640   9.581   5.644   5.886  0.2345  0.1350 -0.5647
  730MOL0     C  641   9.722   5.613   5.930  0.1977 -0.0705 -0.0169
  730MOL0     C  642   9.740   5.468   6.010  0.1976  0.6432  0.2789
  730MOL0     C  643   9.882   5.419   6.053 -0.6256 -0.2595 -0.3451
  730MOL0     C  644   9.993   5.402   5.945  0.1937 -0.2927 -0.8472
  730MOL0     C  645   9.967   5.275   5.860  0.1817 -0.4037  0.2356
  730MOL0     C  646  10.062   5.277   5.746 -0.4795 -0.5436  0.1299
  730MOL0    Cl  647  10.238   5.250   5.791  0.4531  0.6859 -0.0319
  730MOL0     C  648   9.304   5.729   6.223  1.4687  0.0146 -0.1442
  730MOL0     C  649   9.193   5.739   6.304  0.6009 -0.5531  0.0318
  730MOL0     O  650   8.953   5.846   6.434  0.0488  0.6557 -1.0175
  730MOL0     C  651   8.719   5.797   6.568 -0.1408  0.2359 -0.1985
  730MOL0     C  652   8.598   5.777   6.637  0.0405 -0.6508 -0.3383
  730MOL0     N  653   8.060   5.772   6.969  0.6048 -0.3637  0.0210
  730MOL0     N  654   8.018   5.886   6.926 -0.5166 -0.0875 -0.2101
  730MOL0     C  655   7.886   6.260   5.986  1.4847 -0.6741 -0.6742
  730MOL0     C  656   7.769   6.229   5.911  0.4315 -0.5231 -0.3984
  730MOL0     C  657   7.334   6.087   5.845 -0.5208 -0.4225 -0.4000
  730MOL0     C  658   7.254   5.982   5.893  0.0234 -0.3583  0.2096
  730MOL0     C  659   7.120   5.968   5.849 -1.2187 -0.1489 -0.5166
  730MOL0     C  660   7.072   6.050   5.744  1.0797  0.4801 -0.5420
  730MOL0     O  661   6.943   6.037   5.702  0.1490  0.3207  0.8992
  730MOL0     C  662   6.873   5.912   5.714  0.3512 -0.3224 -0.5729
  730MOL0     C  663   6.746   5.916   5.641  0.6230  0.5044  0.0445
  730MOL0     C  664   6.661   6.048   5.660 -0.8303  0.1757  0.3365
  730MOL0     C  665   6.517   6.059   5.598  0.2400  0.5466  0.3653
  730MOL0     C  666   6.416   5.963   5.637  0.1012 -0.3763 -0.0526
  730MOL0     C  667   6.327   5.892   5.677  0.2686  0.2985 -0.4240
  730MOL0     C  668   7.155   6.145   5.697 -0.1458  0.1620 -0.1176
  730MOL0     C  669   7.278   6.172   5.746 -0.2862  0.0269  0.9687
  730MOL0     C  670   7.358   6.289   5.692 -0.9331  0.7009  0.3150
  730MOL0     H  671   7.531   6.306   6.137 -0.4977 -0.5260  1.3867
  730MOL0     H  672   7.730   6.380   6.260 -1.0194  2.3654 -1.4911
  730MOL0     H  673   7.894   6.553   6.255  0.3085  0.8656 -1.7025
  730MOL0     H  674   8.015   6.582   6.131 -1.1149  2.6198  0.8421
  730MOL0     H  675   8.191   6.493   6.284  0.5666 -0.6863 -0.8068
  730MOL0     H  676   8.083   6.601   6.373 -0.7340  0.9376 -0.7472
  730MOL0     H  677   7.971   6.403   6.479  1.7288  2.0705  1.3550
  730MOL0     H  678   8.074   6.294   6.377  1.1440 -1.1144  0.3547
  730MOL0     H  679   8.287   6.388   6.471  0.8655 -3.0869  0.2036
  730MOL0     H  680   8.184   6.474   6.594 -1.9560 -2.4119  1.8537
  730MOL0     H  681   8.198   6.170   6.557 -1.0976  0.0444 -1.2945
  730MOL0     H  682   8.086   6.267   6.653 -0.4662 -2.6910 -0.3003
  730MOL0     H  683   8.380   6.275   6.684  0.0726  1.8130 -0.5981
  730MOL0     H  684   8.270   6.364   6.791  0.7387  1.0594 -1.1889
  730MOL0     H  685   8.336   6.153   6.907  1.1818 -3.3130  0.2341
  730MOL0     H  686   8.315   6.063   6.763  1.4714  0.2453  0.2052
  730MOL0     H  687   8.088   6.169   6.923  1.4200 -0.0381  0.1506
  730MOL0     H  688   8.062   6.072   6.777  0.4905 -2.4827 -0.2110
  730MOL0     H  689   8.345   5.921   6.940 -0.5064  3.7753  1.9162
  730MOL0     H  690   8.289   5.660   7.130 -0.7836 -2.3194 -0.3949
  730MOL0     H  691   8.397   5.696   6.998  1.1585 -1.9641  4.1088
  730MOL0     H  692   8.337   5.452   7.013  1.1034 -0.0702 -1.1730
  730MOL0     H  693   8.165   5.485   7.021 -2.2175  3.8787 -0.1613
  730MOL0     H  694   8.190   5.416   6.827  0.4158  0.4547  3.0130
  730MOL0     H  695   8.168   5.584   6.794  3.4350  1.2386 -1.4554
  730MOL0     H  696   8.440   5.441   6.804  1.2773 -2.1478 -3.0790
  730MOL0     H  697   8.356   5.453   6.651  3.1575  1.2688 -2.0191
  730MOL0     H  698   8.604   5.439   6.663  1.7178 -0.5794 -1.8612
  730MOL0     H  699   8.809   5.372   6.648 -0.4464  1.0886  0.5870
  730MOL0     H  700   8.943   5.442   6.546 -0.3123  0.5962 -1.0689
  730MOL0     H  701   8.796   5.385   6.468 -0.7852  1.1741  0.0583
  730MOL0     H  702   9.040   5.431   6.259 -1.1031  1.4963  0.1372
  730MOL0     H  703   9.227   5.434   6.098  0.1322  0.0868  1.0621
  730MOL0     H  704   9.413   5.760   5.960  0.3179  1.2053 -0.2130
  730MOL0     H  705   9.545   5.757   6.069 -1.4025  1.8777 -0.3111
  730MOL0     H  706   9.543   5.556   5.833 -1.6133  2.8163 -4.1965
  730MOL0     H  707   9.576   5.715   5.803  2.5250  0.3965 -0.5395
  730MOL0     H  708   9.760   5.701   5.983 -3.2999  3.6346 -3.0487
  730MOL0     H  709   9.790   5.599   5.846  0.7483 -3.9600  0.8838
  730MOL0     H  710   9.714   5.382   5.948  1.9962  1.0384 -1.1031
  730MOL0     H  711   9.672   5.476   6.095  2.5663 -0.3695  2.3615
  730MOL0     H  712   9.928   5.489   6.122 -0.4238 -1.1682  0.4692
  730MOL0     H  713   9.865   5.324   6.106  1.5156 -1.5541 -1.8351
  730MOL0     H  714  10.091   5.388   5.990 -0.5745 -0.6739  0.7717
  730MOL0     H  715  10.010   5.494   5.889  0.8196  0.0632 -0.0924
  730MOL0     H  716   9.866   5.257   5.822 -0.1096 -0.7439  1.1559
  730MOL0     H  717   9.983   5.180   5.911 -4.4470 -2.5050 -1.6517
  730MOL0     H  718  10.050   5.365   5.682 -0.3717 -0.8274 -0.2876
  730MOL0     H  719  10.037   5.198   5.674 -0.7451  0.4400 -0.8932
  730MOL0     H  720   9.373   5.813   6.222  0.2923  1.0443  1.0961
  730MOL0     H  721   9.173   5.830   6.359 -3.2439 -0.8772 -0.5332
  730MOL0     H  722   8.738   5.896   6.528 -1.5959 -0.8421 -3.9212
  730MOL0     H  723   8.542   5.869   6.648 -1.8153 -1.6757 -0.7799
  730MOL0     H  724   7.986   6.248   5.944  0.9896 -2.6236 -1.4560
  730MOL0     H  725   7.772   6.202   5.806 -0.0004  3.3517 -1.5437
  730MOL0     H  726   7.295   5.905   5.957 -1.0285 -0.6891  0.4976
  730MOL0     H  727   7.058   5.887   5.886  1.9424 -2.0081  1.1621
  730MOL0     H  728   6.929   5.823   5.683 -1.1691 -2.7907  3.0809
  730MOL0     H  729   6.849   5.893   5.819 -3.4864  2.2423 -0.8048
  730MOL0     H  730   6.686   5.828   5.670  4.4417 -2.6298 -0.7674
  730MOL0     H  731   6.771   5.892   5.537 -1.0383 -5.0292  0.5862
  730MOL0     H  732   6.669   6.070   5.767  0.9775 -0.9390  0.4768
  730MOL0     H  733   6.722   6.122   5.608  0.0691 -0.8925 -0.1878
  730MOL0     H  734   6.536   6.037   5.493  1.5788  0.3926  0.6156
  730MOL0     H  735   6.475   6.160   5.604  1.3836  1.2102 -1.6884
  730MOL0     H  736   6.256   5.834   5.733  0.2421 -0.4958 -1.2383
  730MOL0     H  737   7.120   6.195   5.607 -1.2442  1.1106  0.8008
  730MOL0     H  738   7.301   6.330   5.608  1.9002 -0.9734 -2.6605
  730MOL0     H  739   7.372   6.370   5.764 -1.8706  2.1099 -1.0424
  730MOL0     H  740   7.450   6.253   5.644 -1.6867  0.7431 -1.2217
  731MOL0     O  741   3.892   5.735   8.420  0.0992  0.2575  0.1577
  731MOL0     C  742   3.872   5.618   8.429  0.2537 -0.0970 -0.6375
  731MOL0     O  743   3.959   5.523   8.462  0.1290  0.0489  0.5655
  731MOL0     C  744   4.082   5.565   8.513  0.1027 -0.0278  0.5810
  731MOL0     C  745   4.101   5.575   8.649 -0.0820  0.2624 -0.3808
  731MOL0     C  746   4.225   5.621   8.696 -0.6784  0.7528 -0.3291
  731MOL0     C  747   4.330   5.644   8.606 -0.7918  0.2814  0.2166
  731MOL0     O  748   4.448   5.679   8.662  0.1118 -0.1742 -0.6514
  731MOL0     C  749   4.573   5.631   8.607  0.7612 -0.4851  0.2011
  731MOL0     C  750   4.603   5.498   8.671 -0.0236  0.1564  0.8138
  731MOL0     C  751   4.718   5.429   8.590 -0.4882 -0.3583 -0.1531
  731MOL0     C  752   4.859   5.495   8.602 -0.2222  0.2346 -0.3759
  731MOL0     C  753   4.964   5.382   8.567  0.0206 -0.7061 -0.3157
  731MOL0     C  754   5.002   5.358   8.421 -0.4603 -0.4329 -0.4783
  731MOL0     C  755   5.113   5.263   8.393 -1.1152  0.9813  0.4587
  731MOL0     C  756   5.153   5.270   8.249  0.6516  0.0870  0.2733
  731MOL0     N  757   5.265   5.179   8.215  0.3192  0.1344 -0.3958
  731MOL0     C  758   5.288   5.064   8.283 -0.1764  0.2613 -0.5024
  731MOL0     C  759   5.414   5.032   8.247 -0.6457 -0.0585  0.9851
  731MOL0     C  760   5.467   4.901   8.297  0.5322  0.4171  0.7650
  731MOL0     C  761   5.484   4.794   8.183  0.6671 -0.7161  0.2111
  731MOL0     C  762   5.348   4.746   8.131 -0.3503 -0.5015  0.4877
  731MOL0     C  763   5.356   4.684   7.983 -0.2531  0.1418 -1.7482
  731MOL0     O  764   5.485   4.604   7.975  0.7488  1.3446 -0.4418
  731MOL0     C  765   5.494   4.481   8.030 -0.1011 -0.3750 -0.5720
  731MOL0     C  766   5.620   4.421   8.019 -0.1418  0.1669  1.5686
  731MOL0     C  767   5.637   4.284   8.047  0.6935 -0.4209  0.1373
  731MOL0     C  768   5.781   4.236   8.035 -0.1417 -0.3418 -0.1375
  731MOL0     C  769   5.523   4.211   8.099 -0.5217 -0.2223  0.1388
  731MOL0     C  770   5.541   4.064   8.140 -0.6862 -0.9414  0.0653
  731MOL0     O  771   5.447   4.014   8.222  0.2565  0.0844  0.3096
  731MOL0     C  772   5.465   3.892   8.283 -0.7491  0.2865 -0.5173
  731MOL0     C  773   5.425   3.774   8.226 -0.5366  0.3992  0.0613
  731MOL0     C  774   5.456   3.653   8.291 -0.1322  0.4072  0.4530
  731MOL0     C  775   5.528   3.659   8.407 -0.6567  0.2410 -0.4423
  731MOL0     O  776   5.557   3.540   8.475  0.4342 -0.2535 -0.4044
  731MOL0     C  777   5.659   3.455   8.419 -0.6212  0.0775 -0.0742
  731MOL0     C  778   5.698   3.365   8.539  0.1344 -0.8080  0.3189
  731MOL0     C  779   5.807   3.258   8.513  0.0918  0.7126 -0.5712
  731MOL0     C  780   5.934   3.300   8.431 -0.1868 -0.0815 -0.1307
  731MOL0     C  781   6.031   3.181   8.398  0.5989  0.5629  1.1192
  731MOL0     C  782   6.115   3.140   8.516 -0.3304 -0.3428 -0.1981
  731MOL0     C  783   6.240   3.047   8.496 -0.7014  0.0314 -0.8137
  731MOL0     C  784   6.374   3.130   8.465  0.2630 -0.0166 -0.0591
  731MOL0    Cl  785   6.432   3.220   8.610 -0.1772 -0.5283 -0.2479
  731MOL0     C  786   5.562   3.776   8.466 -0.2947  0.6274  0.2891
  731MOL0     C  787   5.532   3.894   8.402 -0.1840 -0.0847 -0.5638
  731MOL0     O  788   5.625   4.004   8.082 -0.7114 -0.2261  0.3784
  731MOL0     C  789   5.403   4.277   8.110  0.0328  0.1427 -0.2837
  731MOL0     C  790   5.382   4.414   8.074  0.1403  0.1740  0.1349
  731MOL0     N  791   5.461   5.125   8.148 -0.0702 -0.4521 -0.4608
  731MOL0     N  792   5.363   5.208   8.128  0.0166 -0.4855 -0.5433
  731MOL0     C  793   4.298   5.645   8.465  0.8586 -0.5774 -0.0239
  731MOL0     C  794   4.171   5.608   8.414  0.8027 -0.0759 -0.0749
  731MOL0     C  795   3.731   5.562   8.414 -1.1176 -0.0919  0.1040
  731MOL0     C  796   3.713   5.357   8.386 -0.5595  0.1585  0.3053
  731MOL0     C  797   3.524   5.267   8.373  0.1713 -0.1682 -0.2882
  731MOL0     C  798   3.347   5.387   8.396 -0.1133 -1.9014  0.4349
  731MOL0     O  799   3.222   5.336   8.388  0.0186 -0.4198  0.3426
  731MOL0     C  800   3.128   5.434   8.348  0.0178 -0.3708  0.1328
  731MOL0     C  801   3.005   5.350   8.294 -0.0209  0.2046 -0.3773
  731MOL0     C  802   2.881   5.425   8.270  0.3439  0.6666  0.1036
  731MOL0     C  803   2.770   5.340   8.199  0.2152 -0.3933  0.2549
  731MOL0     C  804   2.784   5.343   8.052  0.1113  0.3407  0.0800
  731MOL0     C  805   2.813   5.346   7.932 -0.2458 -1.5931 -0.4034
  731MOL0     C  806   3.370   5.604   8.426 -0.0974  0.4279  0.4793
  731MOL0     C  807   3.563   5.685   8.441 -1.2040  0.7179  0.0380
  731MOL0     C  808   3.578   5.827   8.464  0.4062  0.1463  0.1455
  731MOL0     H  809   4.027   5.549   8.723 -1.1392  0.5529 -1.3081
  731MOL0     H  810   4.230   5.608   8.804 -2.6391 -3.4243 -0.5222
  731MOL0     H  811   4.642   5.712   8.630 -0.2101  0.4122  0.0156
  731MOL0     H  812   4.571   5.620   8.498 -0.7563 -1.9725  0.3237
  731MOL0     H  813   4.632   5.509   8.776  0.4964 -2.5708  1.0279
  731MOL0     H  814   4.506   5.446   8.670 -1.9830  3.3254  3.7110
  731MOL0     H  815   4.729   5.326   8.623  0.2551  0.2033  1.4535
  731MOL0     H  816   4.687   5.428   8.485 -1.3286 -1.7214  0.0748
  731MOL0     H  817   4.867   5.579   8.532  0.2196  0.3351 -0.2057
  731MOL0     H  818   4.878   5.532   8.703 -3.0903  0.8755  0.0252
  731MOL0     H  819   4.919   5.290   8.606 -2.0080 -0.0928 -1.0348
  731MOL0     H  820   5.052   5.408   8.626 -1.2040 -1.4243  1.9307
  731MOL0     H  821   4.913   5.322   8.370 -0.8453 -1.5226  0.9230
  731MOL0     H  822   5.022   5.457   8.379 -1.8933  3.4709  6.4882
  731MOL0     H  823   5.077   5.162   8.413  1.4959 -0.8183 -2.8868
  731MOL0     H  824   5.214   5.282   8.430  0.4159 -1.3879 -2.0965
  731MOL0     H  825   5.070   5.245   8.183  0.3211  1.5073  0.1000
  731MOL0     H  826   5.174   5.371   8.211 -1.9597 -0.0890 -1.9171
  731MOL0     H  827   5.222   5.013   8.353 -0.2490 -2.0716 -2.1757
  731MOL0     H  828   5.398   4.860   8.371 -1.2918  1.0182 -0.5398
  731MOL0     H  829   5.560   4.917   8.352  1.0679  0.3467 -0.1034
  731MOL0     H  830   5.529   4.845   8.097 -1.1657 -0.0354 -0.3975
  731MOL0     H  831   5.539   4.709   8.221  0.9605 -0.7194 -0.2102
  731MOL0     H  832   5.302   4.672   8.197 -1.9432  1.4956  1.7335
  731MOL0     H  833   5.275   4.828   8.126  0.1376 -0.0958 -0.1644
  731MOL0     H  834   5.259   4.636   7.968 -1.2374  2.3306 -2.7577
  731MOL0     H  835   5.365   4.761   7.907  0.0998  0.6360 -1.2196
  731MOL0     H  836   5.688   4.491   7.971  1.1026 -1.7657  0.3685
  731MOL0     H  837   5.851   4.317   8.011  1.1822 -1.6159 -0.7349
  731MOL0     H  838   5.791   4.162   7.955  1.7546  0.5254 -0.7678
  731MOL0     H  839   5.827   4.187   8.121 -1.3744  2.8566  2.5417
  731MOL0     H  840   5.370   3.753   8.135 -0.6620 -1.9658  0.6220
  731MOL0     H  841   5.430   3.554   8.253  2.9864  0.0623 -1.1087
  731MOL0     H  842   5.606   3.401   8.339 -0.0944 -0.9717  0.2683
  731MOL0     H  843   5.745   3.513   8.385 -1.2025  2.1594  1.8190
  731MOL0     H  844   5.744   3.428   8.616  0.6244 -1.2634  0.4113
  731MOL0     H  845   5.612   3.317   8.586  0.0450  0.0892  1.0954
  731MOL0     H  846   5.752   3.179   8.461 -0.7819  0.4156  0.7362
  731MOL0     H  847   5.843   3.227   8.611 -1.5759 -0.3564 -0.2496
  731MOL0     H  848   5.986   3.373   8.494  1.8727 -0.7192 -1.0194
  731MOL0     H  849   5.903   3.352   8.340  0.4277 -0.2117 -0.4231
  731MOL0     H  850   5.979   3.089   8.370 -1.2369  2.3154 -1.7811
  731MOL0     H  851   6.086   3.200   8.305 -0.4182 -3.2109 -0.4143
  731MOL0     H  852   6.049   3.089   8.586 -0.3848 -1.1624 -0.8290
  731MOL0     H  853   6.154   3.227   8.570 -0.7678 -1.6192  2.3162
  731MOL0     H  854   6.223   2.980   8.411  0.2746  1.9734 -2.6380
  731MOL0     H  855   6.247   2.995   8.592 -2.0030  0.7248 -0.3105
  731MOL0     H  856   6.358   3.199   8.382 -1.5843 -0.2360  0.0770
  731MOL0     H  857   6.450   3.062   8.425  0.4604 -0.7473  1.4660
  731MOL0     H  858   5.605   3.766   8.565  0.3262 -1.7809 -0.1406
  731MOL0     H  859   5.548   3.987   8.456  0.1608 -1.6620  2.2798
  731MOL0     H  860   5.319   4.220   8.148  0.7221  0.7607  2.3811
  731MOL0     H  861   5.281   4.452   8.080 -0.0755  0.0319 -1.8317
  731MOL0     H  862   4.376   5.681   8.399  1.1046  1.6488  1.3650
  731MOL0     H  863   4.149   5.599   8.308 -1.2920  0.0351  0.3110
  731MOL0     H  864   3.804   5.305   8.358 -0.0104  2.0978 -1.8671
  731MOL0     H  865   3.517   5.159   8.368 -2.0827 -0.1161  0.4900
  731MOL0     H  866   3.100   5.501   8.430  2.8014  2.0109 -0.6913
  731MOL0     H  867   3.164   5.506   8.274  1.4394  3.6096  4.2457
  731MOL0     H  868   2.990   5.273   8.371 -1.1578  2.1586  1.4790
  731MOL0     H  869   3.035   5.302   8.200  0.6804 -0.5875  0.2320
  731MOL0     H  870   2.855   5.447   8.374  3.9576  0.7475  1.1320
  731MOL0     H  871   2.894   5.514   8.208 -1.4712 -2.9086 -6.3360
  731MOL0     H  872   2.673   5.380   8.228 -0.5991 -2.6117  0.7569
  731MOL0     H  873   2.777   5.237   8.236 -1.7495 -1.1074 -1.1871
  731MOL0     H  874   2.832   5.366   7.829 -1.2925  1.8504 -0.0480
  731MOL0     H  875   3.279   5.659   8.446 -0.4147  0.9567 -2.0493
  731MOL0     H  876   3.552   5.854   8.566 -1.6703  0.5351 -0.4405
  731MOL0     H  877   3.676   5.869   8.438  0.1156 -0.1902 -1.6659
  731MOL0     H  878   3.494   5.864   8.405 -0.4213 -1.5907  0.1738
  732MOL0     O  879   2.863   3.307   6.128 -0.3612 -0.0014  0.2739
  732MOL0     C  880   2.935   3.331   6.219 -0.0609  0.6665  0.4936
  732MOL0     O  881   2.891   3.369   6.344  0.0211 -0.0459 -0.1542
  732MOL0     C  882   2.762   3.418   6.359  0.1845 -0.5781  0.2790
  732MOL0     C  883   2.699   3.521   6.279  0.0835  0.7518  0.4357
  732MOL0     C  884   2.572   3.570   6.311 -0.5216  0.6294  0.6438
  732MOL0     C  885   2.503   3.512   6.419  0.6849  0.3636  0.0345
  732MOL0     O  886   2.373   3.552   6.444 -0.2092  0.6072  0.0560
  732MOL0     C  887   2.343   3.691   6.415  0.1481 -0.1992 -0.5783
  732MOL0     C  888   2.215   3.734   6.497  0.4928  0.1738 -0.4054
  732MOL0     C  889   2.086   3.658   6.435 -0.6766 -0.1665 -0.3332
  732MOL0     C  890   1.947   3.711   6.491 -0.4600  0.8974 -1.0276
  732MOL0     C  891   1.836   3.632   6.427 -0.1363 -0.5186 -0.3068
  732MOL0     C  892   1.835   3.480   6.454 -0.5247  0.2560  0.3123
  732MOL0     C  893   1.803   3.441   6.604 -0.2280 -0.4539 -0.0702
  732MOL0     C  894   1.687   3.517   6.670  0.2179 -0.1306 -0.0235
  732MOL0     N  895   1.562   3.483   6.601 -0.4360 -0.8214  0.3583
  732MOL0     C  896   1.507   3.362   6.596 -0.4261  0.2705  0.7393
  732MOL0     C  897   1.409   3.377   6.502 -0.1397  0.0075 -0.3213
  732MOL0     C  898   1.336   3.243   6.467 -0.1921 -0.1591  0.6961
  732MOL0     C  899   1.249   3.261   6.340 -0.0494 -0.3730  0.1099
  732MOL0     C  900   1.324   3.275   6.204  0.2646  0.0911 -0.0377
  732MOL0     C  901   1.451   3.374   6.205  0.0785 -0.1573 -0.2807
  732MOL0     O  902   1.504   3.380   6.064 -0.6250  0.1090 -0.1816
  732MOL0     C  903   1.614   3.308   6.028 -0.8552 -0.6517  0.1385
  732MOL0     C  904   1.666   3.201   6.095  0.0937 -0.0892 -0.4114
  732MOL0     C  905   1.787   3.134   6.064 -0.5293 -0.0244 -0.5000
  732MOL0     C  906   1.824   3.024   6.158 -1.0145  0.1320 -0.0161
  732MOL0     C  907   1.857   3.173   5.939  0.0137  0.2798 -0.2200
  732MOL0     C  908   1.987   3.102   5.898  0.4963  0.1110 -0.2771
  732MOL0     O  909   2.029   3.132   5.777  0.7873 -0.4627 -0.1248
  732MOL0     C  910   2.156   3.124   5.739 -0.0176  0.0112  0.2882
  732MOL0     C  911   2.186   3.059   5.619 -0.1775  0.4075 -0.8313
  732MOL0     C  912   2.311   3.048   5.567  0.0851  0.1357  0.4465
  732MOL0     C  913   2.421   3.102   5.646 -0.5345  0.0867  0.1596
  732MOL0     O  914   2.546   3.077   5.599  0.3589 -0.3223 -0.6268
  732MOL0     C  915   2.654   3.136   5.676 -0.4481  1.4251  0.2068
  732MOL0     C  916   2.789   3.132   5.612 -0.2586  0.2010 -1.0669
  732MOL0     C  917   2.863   3.000   5.637 -0.1193 -0.3426  0.0160
  732MOL0     C  918   3.016   3.020   5.630 -0.1564  0.1723 -0.5863
  732MOL0     C  919   3.094   2.890   5.661  0.2992 -0.8147  0.1177
  732MOL0     C  920   3.093   2.822   5.804  0.3538 -0.8496 -0.6106
  732MOL0     C  921   3.175   2.699   5.776 -0.0401  0.3611 -0.1272
  732MOL0     C  922   3.217   2.634   5.908 -1.0596 -0.3572  0.8133
  732MOL0    Cl  923   3.091   2.644   6.030  0.2508 -0.1088  0.0908
  732MOL0     C  924   2.394   3.172   5.765  0.1969 -0.1658  0.2003
  732MOL0     C  925   2.261   3.175   5.809  0.2079 -0.8642 -0.5966
  732MOL0     O  926   2.052   3.035   5.982 -0.1970 -0.7931  0.0769
  732MOL0     C  927   1.805   3.281   5.867 -0.3143  0.1898  0.1779
  732MOL0     C  928   1.683   3.336   5.904  0.7373  0.0737 -0.1861
  732MOL0     N  929   1.406   3.509   6.461  0.6269 -0.1178  0.1231
  732MOL0     N  930   1.494   3.573   6.530  0.1049  0.3265 -0.5220
  732MOL0     C  931   2.564   3.419   6.495  0.0404 -0.4615 -0.9188
  732MOL0     C  932   2.694   3.368   6.469 -0.2884 -0.7586 -0.6639
  732MOL0     C  933   3.084   3.316   6.205 -0.2888 -0.6288 -0.0007
  732MOL0     C  934   3.164   3.379   6.304 -0.3710  0.6980 -0.9385
  732MOL0     C  935   3.303   3.372   6.311  0.1635 -0.0286  0.8230
  732MOL0     C  936   3.370   3.298   6.212 -1.2469  0.0779  0.4545
  732MOL0     O  937   3.508   3.273   6.222  0.5427 -0.3263 -0.9277
  732MOL0     C  938   3.595   3.353   6.307  0.0900  0.3366 -0.2363
  732MOL0     C  939   3.645   3.476   6.237 -0.1888  0.0928 -0.1124
  732MOL0     C  940   3.765   3.535   6.318 -0.7935  0.1853  0.7855
  732MOL0     C  941   3.809   3.669   6.247 -0.9371 -0.7690 -0.2337
  732MOL0     C  942   3.709   3.776   6.253 -0.0015 -0.5865 -0.3449
  732MOL0     C  943   3.626   3.859   6.250  0.1091  0.1769 -0.6310
  732MOL0     C  944   3.297   3.228   6.116  0.4884  0.5398 -0.0231
  732MOL0     C  945   3.149   3.238   6.105 -0.0191 -0.2130  0.1639
  732MOL0     C  946   3.081   3.152   6.008  0.0964  0.3703  0.4465
  732MOL0     H  947   2.747   3.543   6.184 -2.8126  1.0765 -1.0485
  732MOL0     H  948   2.532   3.644   6.242  1.6932  0.8021 -0.5611
  732MOL0     H  949   2.326   3.717   6.310 -0.8055 -2.8319 -1.1503
  732MOL0     H  950   2.423   3.752   6.458 -0.5942 -0.5302  1.3657
  732MOL0     H  951   2.229   3.707   6.602 -1.1551 -7.0523 -1.5117
  732MOL0     H  952   2.190   3.840   6.491  2.0620  1.0391  4.0936
  732MOL0     H  953   2.085   3.651   6.326  1.0572 -0.8856 -0.3507
  732MOL0     H  954   2.090   3.555   6.472 -0.8080  0.4737  1.5330
  732MOL0     H  955   1.940   3.708   6.600  0.7704  0.0147 -0.9476
  732MOL0     H  956   1.929   3.813   6.455 -1.3533  0.5484 -1.6211
  732MOL0     H  957   1.839   3.658   6.321 -0.6211  3.4286  0.4648
  732MOL0     H  958   1.736   3.672   6.451 -0.3608 -0.1541 -1.7835
  732MOL0     H  959   1.756   3.435   6.394  1.0795 -0.9867 -0.9725
  732MOL0     H  960   1.927   3.423   6.435  0.1686  1.4715 -0.1337
  732MOL0     H  961   1.898   3.447   6.658  0.4115 -2.4536 -0.8645
  732MOL0     H  962   1.785   3.333   6.604 -1.6598 -0.2528  1.2383
  732MOL0     H  963   1.676   3.477   6.771 -0.4240 -0.4477 -0.2113
  732MOL0     H  964   1.709   3.624   6.667 -0.6721  0.1659  2.1222
  732MOL0     H  965   1.549   3.275   6.644  1.4679  1.5781  1.5496
  732MOL0     H  966   1.268   3.222   6.550 -2.0622  1.0099 -0.4625
  732MOL0     H  967   1.408   3.162   6.451 -0.9422 -0.2995 -2.8348
  732MOL0     H  968   1.166   3.189   6.330 -0.8212  0.6930 -1.7010
  732MOL0     H  969   1.196   3.355   6.356 -0.1472 -0.6829  1.8262
  732MOL0     H  970   1.355   3.174   6.175 -1.1407 -0.0391 -1.2232
  732MOL0     H  971   1.254   3.308   6.126  0.3541 -0.8904 -0.5511
  732MOL0     H  972   1.425   3.477   6.230  1.4256 -0.2520  1.7476
  732MOL0     H  973   1.523   3.338   6.278 -2.1341 -3.8663  0.2977
  732MOL0     H  974   1.600   3.147   6.163  0.1004 -3.0851 -2.5495
  732MOL0     H  975   1.742   3.019   6.230 -0.5380  0.9890  0.6074
  732MOL0     H  976   1.921   3.032   6.208 -1.0719  0.0775  0.1042
  732MOL0     H  977   1.828   2.930   6.101  1.5377 -0.6649  1.3470
  732MOL0     H  978   2.095   3.019   5.575 -2.9495 -2.0193  5.7959
  732MOL0     H  979   2.325   3.012   5.466 -0.4608  1.2479 -0.0360
  732MOL0     H  980   2.623   3.241   5.678 -2.3142  0.9558 -0.9075
  732MOL0     H  981   2.653   3.089   5.775 -0.8683 -2.5688 -1.4882
  732MOL0     H  982   2.772   3.154   5.506 -2.8129  2.3797 -0.3078
  732MOL0     H  983   2.850   3.209   5.661  0.7327 -0.3677 -1.3647
  732MOL0     H  984   2.824   2.918   5.575 -1.2801 -0.0811  0.3701
  732MOL0     H  985   2.851   2.976   5.743  3.8669  4.6075  1.9825
  732MOL0     H  986   3.054   3.094   5.702 -0.2946  0.7205 -1.0724
  732MOL0     H  987   3.046   3.064   5.535  5.8251  2.1520  1.7113
  732MOL0     H  988   3.064   2.822   5.581 -0.2435 -1.8862  1.1881
  732MOL0     H  989   3.198   2.919   5.646 -0.8224  4.0528  0.0049
  732MOL0     H  990   2.989   2.806   5.833 -0.0270  2.0164 -0.0680
  732MOL0     H  991   3.143   2.871   5.888 -3.7011 -2.0027  2.8651
  732MOL0     H  992   3.270   2.727   5.729  0.9288 -0.5552  1.2105
  732MOL0     H  993   3.118   2.626   5.717  3.1263 -2.5394  0.0751
  732MOL0     H  994   3.312   2.677   5.941  0.6836 -0.2017 -3.6435
  732MOL0     H  995   3.244   2.530   5.886  1.5557  0.5025 -0.5326
  732MOL0     H  996   2.467   3.195   5.841  0.8786  0.1126 -0.5272
  732MOL0     H  997   2.242   3.208   5.911 -0.3314 -1.6355 -0.4386
  732MOL0     H  998   1.843   3.318   5.773 -0.7718  0.1740 -0.0142
  732MOL0     H  999   1.646   3.420   5.847  3.6985  1.1017 -0.7806
  732MOL0     H 1000   2.498   3.368   6.566 -1.9784 -2.4483 -3.9777
  732MOL0     H 1001   2.742   3.280   6.509  0.9058  0.2631  0.2415
  732MOL0     H 1002   3.113   3.437   6.379  0.1330  2.7562 -2.1224
  732MOL0     H 1003   3.355   3.429   6.387 -0.5858  0.8386  0.7110
  732MOL0     H 1004   3.555   3.377   6.406 -4.2221  0.0789 -1.6807
  732MOL0     H 1005   3.679   3.284   6.322  2.4767  2.7076 -1.8042
  732MOL0     H 1006   3.563   3.546   6.219  1.8857  2.7426  0.0884
  732MOL0     H 1007   3.685   3.451   6.138 -1.1867  3.3170 -1.4564
  732MOL0     H 1008   3.748   3.553   6.424 -3.7845  2.1888  0.1009
  732MOL0     H 1009   3.862   3.484   6.313  0.6534  2.7454  1.2066
  732MOL0     H 1010   3.838   3.663   6.142  1.5717 -0.4495  0.3798
  732MOL0     H 1011   3.899   3.708   6.295 -0.8633 -0.3540 -0.7001
  732MOL0     H 1012   3.546   3.930   6.248  1.0671  1.3256  0.3789
  732MOL0     H 1013   3.354   3.159   6.056  0.7598  1.0505 -0.3658
  732MOL0     H 1014   3.012   3.077   6.047  0.1396 -0.3096 -0.7225
  732MOL0     H 1015   3.026   3.219   5.941 -0.4831  1.4965  1.9977
  732MOL0     H 1016   3.157   3.098   5.951 -1.4958 -1.0565 -0.4187
  733MOL0     O 1017   5.978   9.149   7.718  0.7508  0.2300  0.8388
  733MOL0     C 1018   6.043   9.105   7.812 -0.8290  0.3443 -0.4200
  733MOL0     O 1019   6.171   9.072   7.808 -0.0760 -0.5730 -0.5317
  733MOL0     C 1020   6.252   9.086   7.697 -0.0117  0.2462 -0.2115
  733MOL0     C 1021   6.211   9.040   7.574 -0.2274  1.8239  1.0085
  733MOL0     C 1022   6.297   9.004   7.478  0.2541 -0.3417  0.1304
  733MOL0     C 1023   6.433   9.016   7.491 -0.9040  0.0934 -0.8388
  733MOL0     O 1024   6.514   8.970   7.389 -0.3022 -0.2685 -0.7115
  733MOL0     C 1025   6.653   8.970   7.419 -0.0273  0.0395  0.8839
  733MOL0     C 1026   6.716   9.105   7.386 -0.1389 -0.6025  0.2573
  733MOL0     C 1027   6.859   9.092   7.332 -0.1892 -0.4023  0.5356
  733MOL0     C 1028   6.856   9.043   7.181  0.2899 -0.7339 -0.8253
  733MOL0     C 1029   6.997   8.981   7.139  1.4603 -0.3144 -0.8605
  733MOL0     C 1030   7.097   9.079   7.082 -0.1337  0.1828 -0.2504
  733MOL0     C 1031   7.222   9.002   7.022 -1.1672 -0.9631 -0.3177
  733MOL0     C 1032   7.319   8.967   7.138  0.1126  0.6914 -0.1454
  733MOL0     N 1033   7.431   8.892   7.087 -0.9255  0.4750  0.0989
  733MOL0     C 1034   7.443   8.761   7.041 -0.6981  0.3645 -0.6388
  733MOL0     C 1035   7.574   8.739   7.027  0.4597 -0.2412  0.1548
  733MOL0     C 1036   7.636   8.614   6.977 -0.1706  0.1758 -0.3826
  733MOL0     C 1037   7.614   8.618   6.827  0.1773  0.2271  0.3033
  733MOL0     C 1038   7.699   8.495   6.770 -0.6537  0.3047  0.2990
  733MOL0     C 1039   7.811   8.558   6.689  0.1730  0.7334  0.4788
  733MOL0     O 1040   7.895   8.458   6.648  0.3928  0.2489  0.0480
  733MOL0     C 1041   8.023   8.485   6.622 -0.2674 -0.6104 -0.8512
  733MOL0     C 1042   8.088   8.611   6.616 -0.0750 -0.3463 -0.1735
  733MOL0     C 1043   8.222   8.630   6.597 -0.7076  0.2986  0.0475
  733MOL0     C 1044   8.271   8.762   6.626  0.3205 -0.0589 -0.9155
  733MOL0     C 1045   8.307   8.518   6.565  0.6611  0.5521  1.0912
  733MOL0     C 1046   8.443   8.546   6.514 -0.1410  0.3376  0.6368
  733MOL0     O 1047   8.507   8.663   6.535 -0.6617 -0.1600  0.3473
  733MOL0     C 1048   8.634   8.669   6.469  0.4908  0.1285 -0.0113
  733MOL0     C 1049   8.665   8.767   6.372 -0.2589 -0.2773  0.0001
  733MOL0     C 1050   8.794   8.788   6.324 -0.2308 -0.6619 -0.4846
  733MOL0     C 1051   8.905   8.707   6.368 -0.4347 -0.5690 -0.9344
  733MOL0     O 1052   9.036   8.742   6.349  0.6099  1.1304  0.3938
  733MOL0     C 1053   9.063   8.807   6.226 -0.0722  0.0716 -0.3564
  733MOL0     C 1054   9.211   8.790   6.182  0.8543 -0.0227 -0.1329
  733MOL0     C 1055   9.229   8.644   6.137  0.3465 -0.8220 -0.5257
  733MOL0     C 1056   9.300   8.567   6.252 -0.1709 -0.1274 -0.2254
  733MOL0     C 1057   9.344   8.432   6.205  0.0780  0.3849  0.1245
  733MOL0     C 1058   9.381   8.327   6.315  0.6344 -0.3590  0.2689
  733MOL0     C 1059   9.425   8.197   6.244  0.4467  0.3436 -0.9805
  733MOL0     C 1060   9.481   8.094   6.342  0.1960  1.1164 -0.9163
  733MOL0    Cl 1061   9.360   8.036   6.469 -0.1255  0.6417 -0.2516
  733MOL0     C 1062   8.872   8.607   6.460  0.1184  0.3380 -0.4037
  733MOL0     C 1063   8.743   8.584   6.507 -0.5186 -0.0834  0.9663
  733MOL0     O 1064   8.481   8.461   6.435 -0.1312 -0.0940 -0.4625
  733MOL0     C 1065   8.243   8.392   6.577  0.5208 -0.5015  0.0745
  733MOL0     C 1066   8.105   8.379   6.602 -0.1608 -0.3481 -1.2095
  733MOL0     N 1067   7.641   8.856   7.047 -0.0644  0.1498  0.8389
  733MOL0     N 1068   7.555   8.947   7.089  0.2702  0.2027  0.4014
  733MOL0     C 1069   6.479   9.072   7.617 -0.2257 -1.0395  0.8162
  733MOL0     C 1070   6.388   9.111   7.719  0.8315 -0.4678 -0.8622
  733MOL0     C 1071   5.972   9.081   7.946 -0.2741 -0.0613  0.4973
  733MOL0     C 1072   5.837   9.112   7.950 -0.1340 -0.7156 -0.8935
  733MOL0     C 1073   5.765   9.112   8.064  0.0935  0.5754 -0.0552
  733MOL0     C 1074   5.819   9.055   8.179  0.6153  0.4802 -0.3105
  733MOL0     O 1075   5.724   9.042   8.272  0.1030 -0.0187  0.3333
  733MOL0     C 1076   5.740   9.113   8.391 -0.2308 -0.4718  0.2766
  733MOL0     C 1077   5.606   9.183   8.431 -0.3842  0.4064  0.3228
  733MOL0     C 1078   5.514   9.077   8.484 -0.2320 -0.3302 -0.7616
  733MOL0     C 1079   5.555   9.015   8.634 -0.0538 -0.0967  0.2261
  733MOL0     C 1080   5.452   8.921   8.663 -0.6222 -0.0806 -0.8723
  733MOL0     C 1081   5.347   8.861   8.673 -0.0797  0.6782 -0.0695
  733MOL0     C 1082   5.948   9.012   8.182 -0.8120  0.0343 -0.6766
  733MOL0     C 1083   6.024   9.028   8.063 -0.0961  0.0101 -0.4579
  733MOL0     C 1084   6.169   9.008   8.089  0.3205  0.2946  0.3765
  733MOL0     H 1085   6.106   9.021   7.551  0.0723  3.2129 -2.0660
  733MOL0     H 1086   6.254   8.956   7.391  0.7380 -1.4400  0.4747
  733MOL0     H 1087   6.716   8.899   7.363  2.6047  3.6432 -1.1312
  733MOL0     H 1088   6.678   8.951   7.523 -0.9699  0.9693  1.2926
  733MOL0     H 1089   6.670   9.165   7.308 -0.0385  1.8499  1.9865
  733MOL0     H 1090   6.716   9.164   7.478  3.5457 -1.5101  0.9999
  733MOL0     H 1091   6.909   9.189   7.338  0.0549 -0.6002  2.1594
  733MOL0     H 1092   6.914   9.022   7.396 -0.4698 -1.1899 -0.0621
  733MOL0     H 1093   6.790   8.956   7.175  0.6067 -0.9736 -0.8126
  733MOL0     H 1094   6.830   9.129   7.119  2.3440  2.3799  2.2594
  733MOL0     H 1095   6.973   8.919   7.052 -2.1904  1.8080 -1.5496
  733MOL0     H 1096   7.049   8.940   7.226  0.5669  1.8230  0.7841
  733MOL0     H 1097   7.062   9.135   6.995  2.5559  1.7437 -0.4319
  733MOL0     H 1098   7.122   9.148   7.163 -0.1591  2.3857 -2.0316
  733MOL0     H 1099   7.266   9.066   6.945 -2.9360 -1.7999 -2.1561
  733MOL0     H 1100   7.183   8.918   6.963 -0.7235 -0.4779 -1.3222
  733MOL0     H 1101   7.347   9.059   7.191  1.7982 -0.3365  0.8415
  733MOL0     H 1102   7.275   8.910   7.220  1.5370  2.7702  2.2167
  733MOL0     H 1103   7.363   8.693   7.014 -0.3851  0.7006 -2.5396
  733MOL0     H 1104   7.594   8.522   7.019 -1.1879  0.4820 -0.7084
  733MOL0     H 1105   7.745   8.607   6.988 -0.2658 -3.2041 -0.3784
  733MOL0     H 1106   7.509   8.597   6.805 -0.2166 -1.2739  3.0926
  733MOL0     H 1107   7.640   8.715   6.783 -1.2049 -0.3339 -1.9111
  733MOL0     H 1108   7.744   8.435   6.850  2.6658  0.5788 -1.2058
  733MOL0     H 1109   7.639   8.423   6.713  0.7826 -2.2637  1.7867
  733MOL0     H 1110   7.768   8.623   6.612 -1.2128  2.1823  2.3453
  733MOL0     H 1111   7.875   8.621   6.752  2.4606 -1.8312  0.9070
  733MOL0     H 1112   8.038   8.703   6.642  2.3867  0.7893  0.8728
  733MOL0     H 1113   8.353   8.736   6.693 -1.4156 -1.1266  0.9166
  733MOL0     H 1114   8.195   8.825   6.675 -0.0163 -0.3383 -1.0718
  733MOL0     H 1115   8.288   8.817   6.533 -0.7479 -0.9339 -1.6609
  733MOL0     H 1116   8.599   8.846   6.338  0.1836 -0.4656 -1.3253
  733MOL0     H 1117   8.805   8.874   6.258 -2.4931 -0.6266 -0.9108
  733MOL0     H 1118   8.987   8.780   6.152 -3.6311 -0.4985  3.1624
  733MOL0     H 1119   9.049   8.916   6.227  0.7950  0.2110 -1.5463
  733MOL0     H 1120   9.235   8.859   6.101 -1.9165 -0.6900 -1.6453
  733MOL0     H 1121   9.277   8.814   6.266  0.0993  0.0957  0.4386
  733MOL0     H 1122   9.289   8.632   6.047 -1.6564 -0.1683 -2.0267
  733MOL0     H 1123   9.131   8.601   6.113 -0.1577  0.5292 -0.9669
  733MOL0     H 1124   9.256   8.568   6.352  3.1266  3.9098  1.4716
  733MOL0     H 1125   9.397   8.611   6.277  0.2059 -0.6224 -0.7932
  733MOL0     H 1126   9.266   8.379   6.149 -0.0460 -1.2143  1.7147
  733MOL0     H 1127   9.425   8.441   6.131  0.5421 -1.3783  0.3770
  733MOL0     H 1128   9.294   8.309   6.379  1.9219  1.1668  2.6086
  733MOL0     H 1129   9.458   8.369   6.380  2.1920 -1.4796 -0.7747
  733MOL0     H 1130   9.503   8.225   6.173  0.4927  0.1534 -1.0066
  733MOL0     H 1131   9.353   8.127   6.199  1.9921 -1.4344 -0.8294
  733MOL0     H 1132   9.561   8.144   6.398 -1.2602 -0.5419  3.0494
  733MOL0     H 1133   9.505   8.006   6.282 -0.7874  0.8385 -0.9254
  733MOL0     H 1134   8.940   8.539   6.509 -1.7059  0.6831  2.8984
  733MOL0     H 1135   8.741   8.517   6.592  2.3138  0.8557  1.8521
  733MOL0     H 1136   8.307   8.309   6.548  4.6433  1.8746  1.5886
  733MOL0     H 1137   8.066   8.278   6.603 -1.0391 -0.0452  1.1207
  733MOL0     H 1138   6.584   9.092   7.638 -0.7870 -0.8365  3.9543
  733MOL0     H 1139   6.425   9.173   7.799 -1.6061 -0.7204  0.5739
  733MOL0     H 1140   5.787   9.152   7.863 -1.9626  0.4479  0.6257
  733MOL0     H 1141   5.660   9.136   8.049  0.5408  1.4088 -2.2164
  733MOL0     H 1142   5.780   9.043   8.465  3.0626 -0.1304 -1.0175
  733MOL0     H 1143   5.821   9.188   8.389  0.7043 -1.4010  1.3736
  733MOL0     H 1144   5.565   9.249   8.355 -0.6858 -1.9669 -1.6788
  733MOL0     H 1145   5.635   9.245   8.517  2.6220  3.1813 -2.4368
  733MOL0     H 1146   5.414   9.120   8.479  0.9078  2.4938 -0.7637
  733MOL0     H 1147   5.506   9.002   8.404 -0.0658 -0.9246 -0.2244
  733MOL0     H 1148   5.547   9.101   8.701  0.2122  1.7658 -2.0155
  733MOL0     H 1149   5.649   8.959   8.632 -0.9278 -1.9682  3.4925
  733MOL0     H 1150   5.264   8.798   8.649  0.7606 -0.0368 -1.1540
  733MOL0     H 1151   5.988   8.973   8.275 -1.7666 -1.6200 -0.9355
  733MOL0     H 1152   6.214   8.921   8.041 -2.2231 -0.7658 -0.2783
  733MOL0     H 1153   6.216   9.101   8.057 -1.7840  1.4413  0.3996
  733MOL0     H 1154   6.196   9.013   8.195  5.1917 -0.0382 -0.6451
  734MOL0     O 1155   6.080   5.657   0.579 -0.0924 -0.5283  0.0971
  734MOL0     C 1156   6.006   5.600   0.501  0.0154  0.9133  0.5306
  734MOL0     O 1157   5.883   5.646   0.465  0.7943 -0.1376 -0.2915
  734MOL0     C 1158   5.831   5.758   0.530  0.3388 -0.1022  0.8099
  734MOL0     C 1159   5.836   5.785   0.665  1.4913 -0.2857  0.5582
  734MOL0     C 1160   5.770   5.895   0.721  0.3888  0.1876 -0.6825
  734MOL0     C 1161   5.720   6.004   0.643  0.3878  0.9672 -0.2720
  734MOL0     O 1162   5.674   6.109   0.712 -0.1586  0.3298  0.2496
  734MOL0     C 1163   5.644   6.231   0.638 -0.8998  0.8095 -0.7024
  734MOL0     C 1164   5.597   6.328   0.733  0.3957 -0.0530 -0.2908
  734MOL0     C 1165   5.585   6.471   0.665 -0.0682  0.0743  0.5410
  734MOL0     C 1166   5.509   6.578   0.747 -0.1659  0.3221 -0.1639
  734MOL0     C 1167   5.531   6.715   0.688 -0.5210 -0.0225 -0.7727
  734MOL0     C 1168   5.422   6.816   0.747 -0.2301  0.3592 -0.1622
  734MOL0     C 1169   5.377   6.908   0.636  0.1281 -0.0023 -0.2417
  734MOL0     C 1170   5.288   7.028   0.690  0.2975  0.4712 -0.0848
  734MOL0     N 1171   5.164   6.973   0.753  0.8267 -1.3713 -0.1998
  734MOL0     C 1172   5.152   6.939   0.882  0.5975  0.6864 -0.2912
  734MOL0     C 1173   5.025   6.900   0.892  0.7584 -0.8659  0.7005
  734MOL0     C 1174   4.970   6.848   1.021 -0.3997 -0.4751 -0.6370
  734MOL0     C 1175   4.825   6.856   1.036 -0.5663  0.9117  0.2880
  734MOL0     C 1176   4.757   6.730   0.965 -0.2389 -0.6585 -0.2779
  734MOL0     C 1177   4.609   6.741   0.955 -0.1267 -0.5427 -0.7259
  734MOL0     O 1178   4.555   6.619   0.923 -0.2683  0.1782 -0.3484
  734MOL0     C 1179   4.525   6.580   0.788 -0.2645  0.0711  0.2145
  734MOL0     C 1180   4.568   6.648   0.677 -0.4781  0.1637  0.4159
  734MOL0     C 1181   4.546   6.605   0.550 -0.0384  0.5328 -0.2702
  734MOL0     C 1182   4.586   6.707   0.440 -0.8678 -0.4668  0.6308
  734MOL0     C 1183   4.482   6.474   0.527 -0.6293 -0.3791  0.3821
  734MOL0     C 1184   4.445   6.436   0.388 -0.4351  0.1333 -0.0810
  734MOL0     O 1185   4.364   6.331   0.378 -0.1924 -0.0777 -0.3953
  734MOL0     C 1186   4.326   6.296   0.251 -0.1446  0.0211  0.2594
  734MOL0     C 1187   4.193   6.341   0.224 -0.4198  0.1235  0.5123
  734MOL0     C 1188   4.142   6.298   0.100  0.0184 -0.2006  1.4529
  734MOL0     C 1189   4.215   6.217   0.010 -0.5842  0.4633 -0.3671
  734MOL0     O 1190   4.165   6.159  -0.106  0.3868 -0.1213 -0.3161
  734MOL0     C 1191   4.031   6.186  -0.140  0.5069  0.3560 -0.1287
  734MOL0     C 1192   3.999   6.155  -0.287 -0.1631 -0.0957  0.0263
  734MOL0     C 1193   4.118   6.206  -0.374 -0.2583  0.1371  0.0060
  734MOL0     C 1194   4.087   6.181  -0.524 -0.3304 -0.2378  0.1706
  734MOL0     C 1195   4.181   6.249  -0.624 -0.0298  0.2015  0.5233
  734MOL0     C 1196   4.196   6.399  -0.615 -0.0760  0.2320 -0.0566
  734MOL0     C 1197   4.263   6.452  -0.748 -0.0239 -0.3557 -0.1321
  734MOL0     C 1198   4.295   6.597  -0.743  0.2589  0.4948  0.6986
  734MOL0    Cl 1199   4.161   6.711  -0.774  0.0673  0.1844 -0.3002
  734MOL0     C 1200   4.347   6.185   0.044  0.1514  0.0096  0.6397
  734MOL0     C 1201   4.406   6.225   0.165 -0.3795 -0.4170  0.3843
  734MOL0     O 1202   4.502   6.489   0.288 -0.1666  0.2623 -0.9476
  734MOL0     C 1203   4.444   6.400   0.640 -0.1953  0.1035 -1.3072
  734MOL0     C 1204   4.470   6.449   0.768  0.0999 -0.4737  0.0478
  734MOL0     N 1205   4.955   6.924   0.774 -0.5202  0.0195  1.3626
  734MOL0     N 1206   5.040   6.972   0.685 -0.0520 -0.1110  0.3254
  734MOL0     C 1207   5.734   5.994   0.504 -0.7218  0.7395  0.3608
  734MOL0     C 1208   5.786   5.868   0.452 -0.5414 -0.2722  0.0531
  734MOL0     C 1209   6.060   5.484   0.424 -0.0670 -0.4844  0.4754
  734MOL0     C 1210   5.981   5.441   0.316  0.0905 -0.0940  1.2063
  734MOL0     C 1211   6.032   5.340   0.229 -0.5374 -0.3304  0.1044
  734MOL0     C 1212   6.149   5.265   0.249 -0.0434  0.2753 -1.0129
  734MOL0     O 1213   6.167   5.147   0.168  0.0526 -0.5207 -0.0470
  734MOL0     C 1214   6.301   5.085   0.173  0.4814 -0.5620 -0.2232
  734MOL0     C 1215   6.306   4.961   0.084  0.5760 -0.0039 -0.1541
  734MOL0     C 1216   6.429   4.866   0.080  0.8152 -0.8065 -0.0659
  734MOL0     C 1217   6.533   4.894  -0.031 -0.8302  0.8395 -0.6800
  734MOL0     C 1218   6.609   5.014  -0.014 -0.1531 -0.3487 -0.3455
  734MOL0     C 1219   6.675   5.117  -0.006  0.2247  0.1196 -0.0970
  734MOL0     C 1220   6.233   5.320   0.345 -0.5489 -0.5916  0.5356
  734MOL0     C 1221   6.187   5.419   0.437  0.2617 -0.6825 -0.6472
  734MOL0     C 1222   6.289   5.454   0.544 -1.5494  0.2921 -0.0775
  734MOL0     H 1223   5.867   5.708   0.735 -1.2423 -0.1366  2.0791
  734MOL0     H 1224   5.770   5.899   0.829 -3.1145 -0.6918 -0.5204
  734MOL0     H 1225   5.567   6.205   0.565 -1.7734 -1.9107  1.0298
  734MOL0     H 1226   5.732   6.270   0.586 -1.2055  1.7156 -0.5711
  734MOL0     H 1227   5.501   6.309   0.783  1.1134 -0.2959  1.0305
  734MOL0     H 1228   5.667   6.325   0.817  0.0956  0.3503 -0.0187
  734MOL0     H 1229   5.688   6.504   0.648  1.0860 -2.4732  1.9354
  734MOL0     H 1230   5.540   6.471   0.566  0.7849 -0.0940  0.1419
  734MOL0     H 1231   5.404   6.547   0.751  0.7024 -3.0952 -0.8472
  734MOL0     H 1232   5.539   6.583   0.852  0.6762  2.3883 -0.4569
  734MOL0     H 1233   5.551   6.722   0.581 -1.6646  1.0328 -0.9492
  734MOL0     H 1234   5.624   6.738   0.740 -0.0297 -3.3428  0.0921
  734MOL0     H 1235   5.334   6.757   0.774 -0.4308  0.1799 -1.1439
  734MOL0     H 1236   5.465   6.861   0.836  0.2233 -2.3886  1.1196
  734MOL0     H 1237   5.321   6.851   0.562  0.0035 -0.1357 -0.0460
  734MOL0     H 1238   5.470   6.941   0.589  2.5593  0.3458  4.2153
  734MOL0     H 1239   5.347   7.073   0.770  1.1067  0.0936 -0.4551
  734MOL0     H 1240   5.269   7.101   0.611 -0.4814  0.2524 -0.1041
  734MOL0     H 1241   5.228   6.931   0.960  0.5420 -3.1550 -0.4297
  734MOL0     H 1242   5.010   6.905   1.106 -2.6159 -0.8884  0.7564
  734MOL0     H 1243   5.007   6.746   1.032  1.5759 -0.3317 -4.3771
  734MOL0     H 1244   4.797   6.848   1.142 -2.5962 -1.1890 -0.3380
  734MOL0     H 1245   4.782   6.949   0.997  0.7002  2.5882  2.5882
  734MOL0     H 1246   4.802   6.720   0.866 -0.3109  0.8172 -0.4909
  734MOL0     H 1247   4.784   6.644   1.027  0.5362 -0.2033  0.0376
  734MOL0     H 1248   4.562   6.774   1.049  0.7816 -0.4609 -0.2917
  734MOL0     H 1249   4.585   6.819   0.882 -1.0705 -0.3085 -0.1945
  734MOL0     H 1250   4.620   6.743   0.685  0.5908 -0.5386  2.2487
  734MOL0     H 1251   4.603   6.810   0.470  0.2556 -0.3473 -0.3395
  734MOL0     H 1252   4.511   6.718   0.361  0.9983 -1.6537 -1.4373
  734MOL0     H 1253   4.678   6.682   0.387 -0.4168  3.2090 -0.5379
  734MOL0     H 1254   4.145   6.414   0.288  0.6030  1.4522 -0.1831
  734MOL0     H 1255   4.041   6.333   0.083 -0.5398 -1.9148  0.9536
  734MOL0     H 1256   3.964   6.127  -0.077 -2.3082  1.3497 -2.0064
  734MOL0     H 1257   4.011   6.292  -0.124  1.6924  0.5442  0.2171
  734MOL0     H 1258   3.978   6.048  -0.298 -2.3076  0.1976  0.7756
  734MOL0     H 1259   3.915   6.211  -0.328 -1.2559 -0.9565  1.0101
  734MOL0     H 1260   4.213   6.156  -0.350  2.1890  5.1222  2.1756
  734MOL0     H 1261   4.144   6.311  -0.356  0.0870 -0.1456  1.3276
  734MOL0     H 1262   3.991   6.233  -0.536  0.4687  2.1696  3.0907
  734MOL0     H 1263   4.072   6.078  -0.557  1.3924  0.3970 -3.0122
  734MOL0     H 1264   4.281   6.204  -0.614  0.0950  0.6294  1.3058
  734MOL0     H 1265   4.160   6.223  -0.728  0.4386 -0.3388  0.5547
  734MOL0     H 1266   4.258   6.419  -0.528  1.5854  1.0821 -1.3625
  734MOL0     H 1267   4.101   6.455  -0.608  1.2041  2.3283  2.0030
  734MOL0     H 1268   4.195   6.434  -0.832  2.2693 -1.4230 -1.8608
  734MOL0     H 1269   4.356   6.399  -0.769  0.4636  0.1670  0.6491
  734MOL0     H 1270   4.372   6.624  -0.816  0.4887  0.9709  1.1134
  734MOL0     H 1271   4.325   6.634  -0.645 -0.8770  1.1509  0.8181
  734MOL0     H 1272   4.404   6.121  -0.022  0.1311  3.2583 -2.8201
  734MOL0     H 1273   4.502   6.183   0.194  0.8117  1.6448 -0.4065
  734MOL0     H 1274   4.403   6.300   0.634 -1.9619  0.6310  0.6777
  734MOL0     H 1275   4.452   6.400   0.863  2.1730  2.5026  2.1777
  734MOL0     H 1276   5.712   6.074   0.434 -2.6024  0.3841  0.5030
  734MOL0     H 1277   5.786   5.851   0.345  1.3626 -1.3779  0.1857
  734MOL0     H 1278   5.878   5.470   0.300 -0.5893 -2.9821 -0.4807
  734MOL0     H 1279   5.971   5.309   0.145 -1.3351  4.0324 -1.1458
  734MOL0     H 1280   6.364   5.164   0.131 -0.2228 -0.6975 -1.5598
  734MOL0     H 1281   6.330   5.059   0.276  0.1688 -0.2429 -0.0545
  734MOL0     H 1282   6.292   4.997  -0.019  2.7083  0.5947 -0.2659
  734MOL0     H 1283   6.221   4.897   0.111  0.6776  0.3973  1.2078
  734MOL0     H 1284   6.479   4.870   0.178  3.9438 -1.2706 -1.5196
  734MOL0     H 1285   6.384   4.766   0.074  1.8520 -1.2404 -0.8963
  734MOL0     H 1286   6.488   4.902  -0.131 -1.6449 -2.0439 -0.6424
  734MOL0     H 1287   6.598   4.806  -0.038 -4.5492 -2.2371  0.1717
  734MOL0     H 1288   6.751   5.192   0.005 -0.9527  1.0696  2.0632
  734MOL0     H 1289   6.333   5.279   0.345 -0.1358 -0.3025 -4.6430
  734MOL0     H 1290   6.390   5.417   0.524 -1.7610 -2.0385  2.5299
  734MOL0     H 1291   6.292   5.560   0.571 -0.0081  0.3403 -0.3571
  734MOL0     H 1292   6.262   5.403   0.637  1.2807 -0.9963  0.1487
  735MOL0     O 1293   7.368   6.612  10.656 -0.1325 -0.1242  0.5581
  735MOL0     C 1294   7.342   6.585  10.538  1.0757  1.0856  0.0170
  735MOL0     O 1295   7.424   6.602  10.431 -0.0693 -0.0192  0.0773
  735MOL0     C 1296   7.553   6.639  10.456 -0.1927  0.0343  0.0528
  735MOL0     C 1297   7.647   6.548  10.403  0.0296  0.5289 -0.1673
  735MOL0     C 1298   7.788   6.563  10.406  0.3516 -0.3224  0.1663
  735MOL0     C 1299   7.836   6.672  10.478  0.2498  0.0121 -0.3161
  735MOL0     O 1300   7.973   6.680  10.489  1.0782  0.0301  0.3738
  735MOL0     C 1301   8.035   6.804  10.464  0.5703 -0.1052  0.4194
  735MOL0     C 1302   8.187   6.785  10.446 -0.0871  0.4854  0.2005
  735MOL0     C 1303   8.249   6.743  10.581  0.0265 -0.3422  0.1233
  735MOL0     C 1304   8.395   6.784  10.568 -0.7406  0.4541 -0.6507
  735MOL0     C 1305   8.484   6.686  10.490  0.3930  0.7797  0.6939
  735MOL0     C 1306   8.633   6.744  10.489 -0.3561  0.4023  0.7122
  735MOL0     C 1307   8.756   6.664  10.434  0.3153 -0.4616 -1.0480
  735MOL0     C 1308   8.723   6.610  10.296  0.3554 -0.5887  0.1203
  735MOL0     N 1309   8.833   6.522  10.258  0.4437  1.0649  0.1745
  735MOL0     C 1310   8.865   6.402  10.319 -0.7169 -0.5163 -0.5926
  735MOL0     C 1311   8.963   6.361  10.245 -0.7063 -0.2035 -0.1590
  735MOL0     C 1312   9.035   6.231  10.253  0.1107  0.0474  0.0799
  735MOL0     C 1313   8.947   6.121  10.191  0.2581  0.6781 -0.5994
  735MOL0     C 1314   9.027   5.988  10.216 -0.0223 -0.3782  0.2254
  735MOL0     C 1315   8.971   5.881  10.117  0.2845 -0.7165  0.3409
  735MOL0     O 1316   9.034   5.757  10.119  0.0885 -0.3928  0.3637
  735MOL0     C 1317   9.114   5.714  10.013 -1.3387 -0.2129 -0.2525
  735MOL0     C 1318   9.125   5.582  10.000  0.0386 -0.0511 -0.1775
  735MOL0     C 1319   9.211   5.528   9.903 -0.3404  0.4682  0.9683
  735MOL0     C 1320   9.211   5.375   9.905 -0.2871 -1.1114 -0.1128
  735MOL0     C 1321   9.298   5.616   9.833 -1.0298 -0.1077 -0.1416
  735MOL0     C 1322   9.419   5.580   9.749  0.8557 -0.3845  0.2546
  735MOL0     O 1323   9.488   5.679   9.696  0.3722  0.2366  0.3085
  735MOL0     C 1324   9.605   5.645   9.632 -0.0483  0.1378  0.2307
  735MOL0     C 1325   9.720   5.720   9.662  0.3769  0.3942 -0.0102
  735MOL0     C 1326   9.838   5.695   9.605  0.2640  0.7316 -0.7563
  735MOL0     C 1327   9.846   5.594   9.508  0.8584  0.0182 -0.2048
  735MOL0     O 1328   9.962   5.577   9.449 -0.3424  0.9267 -0.2396
  735MOL0     C 1329  10.078   5.549   9.531 -0.4004 -0.0112 -0.3587
  735MOL0     C 1330  10.079   5.409   9.606 -0.0072  0.0018 -0.5540
  735MOL0     C 1331  10.222   5.357   9.630  0.9570  0.8087 -0.3103
  735MOL0     C 1332  10.298   5.413   9.746 -0.1975  0.1295  0.5348
  735MOL0     C 1333  10.455   5.408   9.721  0.2400 -0.7349 -0.0999
  735MOL0     C 1334  10.516   5.267   9.739 -0.8944 -0.5497  0.5813
  735MOL0     C 1335  10.668   5.282   9.721 -0.2503 -0.6231  0.0706
  735MOL0     C 1336  10.703   5.290   9.573  0.4743  0.0899 -0.2371
  735MOL0    Cl 1337  10.686   5.135   9.497 -0.3669 -0.3322  0.0619
  735MOL0     C 1338   9.735   5.512   9.469  0.7495 -0.5346  0.2928
  735MOL0     C 1339   9.608   5.540   9.530 -0.2821  0.5915  0.1100
  735MOL0     O 1340   9.462   5.472   9.761 -0.4085 -0.3071  0.0113
  735MOL0     C 1341   9.279   5.754   9.857 -0.6909  0.7904 -0.9914
  735MOL0     C 1342   9.195   5.799   9.948  0.3293  0.3355  0.3897
  735MOL0     N 1343   8.979   6.444  10.146  0.4613 -0.3535  1.5384
  735MOL0     N 1344   8.898   6.546  10.144 -0.2397  0.5358  0.0988
  735MOL0     C 1345   7.748   6.761  10.543 -0.1893 -0.1037 -0.3461
  735MOL0     C 1346   7.603   6.750  10.528 -0.8450  0.1227 -0.2947
  735MOL0     C 1347   7.217   6.503  10.508  0.1784  0.6628  0.3127
  735MOL0     C 1348   7.219   6.415  10.394 -1.1635 -0.6534  0.1805
  735MOL0     C 1349   7.119   6.329  10.381 -0.3346  0.1403  0.8925
  735MOL0     C 1350   6.991   6.330  10.447  1.1473  0.6183  0.4136
  735MOL0     O 1351   6.873   6.256  10.419  0.6637  0.1666  0.2805
  735MOL0     C 1352   6.868   6.165  10.306  1.3678 -0.1583 -0.1194
  735MOL0     C 1353   6.718   6.107  10.311 -0.6061 -0.9883 -0.0669
  735MOL0     C 1354   6.629   6.188  10.213  0.2586  0.2260 -0.0595
  735MOL0     C 1355   6.478   6.142  10.201 -0.3678  0.1605 -0.0240
  735MOL0     C 1356   6.385   6.240  10.141 -0.4552 -0.1319 -0.2239
  735MOL0     C 1357   6.310   6.316  10.089  0.0539 -0.1079 -0.2528
  735MOL0     C 1358   6.985   6.418  10.555  0.6386 -0.1632 -0.0454
  735MOL0     C 1359   7.099   6.500  10.591  0.2054  0.0103  0.8861
  735MOL0     C 1360   7.083   6.603  10.702 -0.4937 -0.7392 -0.3228
  735MOL0     H 1361   7.598   6.460  10.362  0.0392  0.7956 -0.7601
  735MOL0     H 1362   7.858   6.491  10.365 -0.0251  0.2206 -1.5130
  735MOL0     H 1363   8.012   6.869  10.548  0.4973  1.1140 -0.5062
  735MOL0     H 1364   8.002   6.857  10.373  2.3834  0.1456 -0.1195
  735MOL0     H 1365   8.205   6.713  10.365 -1.0064  0.4530  0.0185
  735MOL0     H 1366   8.222   6.882  10.411 -1.4775  1.1300  0.5235
  735MOL0     H 1367   8.208   6.805  10.662  1.1944 -2.2515  2.3162
  735MOL0     H 1368   8.218   6.642  10.610 -0.8487 -0.5945 -1.5581
  735MOL0     H 1369   8.406   6.887  10.534 -0.2012  0.4739 -0.4153
  735MOL0     H 1370   8.436   6.773  10.669  1.5944  0.7484 -1.5044
  735MOL0     H 1371   8.436   6.678  10.392  0.9743  0.4004  0.4370
  735MOL0     H 1372   8.479   6.592  10.547 -1.2040  0.4950  0.1430
  735MOL0     H 1373   8.627   6.833  10.425 -2.3006  2.3144  3.3127
  735MOL0     H 1374   8.668   6.785  10.584  0.0119  1.1700  0.2530
  735MOL0     H 1375   8.778   6.589  10.511 -0.6363 -1.4700 -1.7241
  735MOL0     H 1376   8.845   6.727  10.426  0.6985 -1.0643 -1.6397
  735MOL0     H 1377   8.628   6.556  10.299  0.0697 -0.0628  0.7207
  735MOL0     H 1378   8.712   6.698  10.232  1.5729  0.7609  1.6640
  735MOL0     H 1379   8.821   6.350  10.403  2.2073  0.3357  1.6454
  735MOL0     H 1380   9.050   6.200  10.356 -3.9323 -2.2322  0.1536
  735MOL0     H 1381   9.132   6.246  10.203 -1.0561  2.8584 -1.5726
  735MOL0     H 1382   8.846   6.119  10.233  0.7444 -0.2811  0.5709
  735MOL0     H 1383   8.936   6.142  10.084 -0.6786  0.5530 -0.5340
  735MOL0     H 1384   9.133   6.006  10.196 -0.6908  0.5736 -3.0091
  735MOL0     H 1385   9.024   5.951  10.319  0.8346 -0.4856  0.2164
  735MOL0     H 1386   8.867   5.863  10.145 -0.0555 -0.2976 -0.5735
  735MOL0     H 1387   8.964   5.920  10.015  1.3985 -2.3346 -0.3935
  735MOL0     H 1388   9.065   5.513  10.058 -2.0321  1.8921  0.1018
  735MOL0     H 1389   9.274   5.331   9.982 -1.2415 -1.6687  0.3647
  735MOL0     H 1390   9.261   5.339   9.814  2.6342 -0.8892  1.2819
  735MOL0     H 1391   9.107   5.345   9.919 -0.9866  1.1428 -0.0184
  735MOL0     H 1392   9.708   5.793   9.741 -0.9236  1.0981 -0.8405
  735MOL0     H 1393   9.921   5.761   9.626 -0.0065  0.4139  1.5683
  735MOL0     H 1394  10.154   5.556   9.453  0.3352 -0.1178  0.3319
  735MOL0     H 1395  10.101   5.638   9.591 -2.3397  1.0401 -1.0593
  735MOL0     H 1396  10.031   5.416   9.705  1.7230 -1.7767  0.4871
  735MOL0     H 1397  10.032   5.328   9.550  0.5048 -2.8540  2.7847
  735MOL0     H 1398  10.282   5.381   9.542 -0.0953  2.9245 -0.5123
  735MOL0     H 1399  10.232   5.248   9.639  4.3675  0.9678 -0.8725
  735MOL0     H 1400  10.279   5.355   9.836  1.4483 -0.6763  0.3940
  735MOL0     H 1401  10.269   5.518   9.760 -1.8958 -0.3414  0.6839
  735MOL0     H 1402  10.472   5.441   9.618 -3.3061  1.4774 -0.1497
  735MOL0     H 1403  10.499   5.476   9.795  1.7177 -1.1467 -0.5663
  735MOL0     H 1404  10.476   5.197   9.664  0.5633 -0.3620 -0.3978
  735MOL0     H 1405  10.498   5.231   9.841 -2.4104 -2.5902 -0.3341
  735MOL0     H 1406  10.724   5.196   9.758 -0.1095 -0.7173 -0.3553
  735MOL0     H 1407  10.700   5.364   9.787 -1.1429 -2.3635  2.8520
  735MOL0     H 1408  10.807   5.322   9.563  0.1915  1.2649  0.3636
  735MOL0     H 1409  10.637   5.363   9.525 -0.7238  0.1738  1.4453
  735MOL0     H 1410   9.736   5.444   9.385 -0.0285  0.4160 -0.5067
  735MOL0     H 1411   9.513   5.490   9.517 -0.2489  0.8081 -1.0619
  735MOL0     H 1412   9.341   5.831   9.812 -0.8218  1.4346 -0.1015
  735MOL0     H 1413   9.197   5.905   9.971 -1.7661  0.3538  0.6913
  735MOL0     H 1414   7.789   6.841  10.604  0.8885 -2.1448  1.7999
  735MOL0     H 1415   7.538   6.816  10.585 -1.2229 -1.2599  0.9111
  735MOL0     H 1416   7.309   6.425  10.335 -0.8211  2.0678  1.0487
  735MOL0     H 1417   7.126   6.257  10.300 -0.9158  0.1092  0.8630
  735MOL0     H 1418   6.877   6.227  10.216  2.6380  1.0520  0.7983
  735MOL0     H 1419   6.932   6.077  10.317  0.0422 -1.2408 -0.7235
  735MOL0     H 1420   6.678   6.106  10.413 -1.2045 -1.2782 -0.2997
  735MOL0     H 1421   6.712   6.005  10.272 -0.4412 -1.7704  1.8370
  735MOL0     H 1422   6.645   6.294  10.232  1.1513 -0.0642  0.9091
  735MOL0     H 1423   6.680   6.177  10.117  3.0989  2.5671  1.0293
  735MOL0     H 1424   6.439   6.113  10.299 -0.0520  0.3241  0.1536
  735MOL0     H 1425   6.487   6.050  10.144  0.2399 -0.7725  1.4984
  735MOL0     H 1426   6.255   6.388  10.032 -1.3564 -1.3458 -0.5200
  735MOL0     H 1427   6.896   6.408  10.616  0.7465 -3.4571 -0.2529
  735MOL0     H 1428   7.135   6.692  10.666  2.1528 -1.7676  0.6835
  735MOL0     H 1429   6.979   6.628  10.721  0.5431  3.1770  1.0910
  735MOL0     H 1430   7.128   6.574  10.797 -1.1107  3.5795  1.5023
  736MOL0     O 1431   6.867   9.676   4.146  0.3544  0.1048 -0.1664
  736MOL0     C 1432   6.974   9.626   4.150 -0.6804  0.6549  0.2492
  736MOL0     O 1433   7.057   9.626   4.261  0.0256  1.1772 -0.0228
  736MOL0     C 1434   7.056   9.721   4.361 -0.1360  0.3318  0.7489
  736MOL0     C 1435   7.075   9.672   4.494 -0.4951  0.8098  0.0335
  736MOL0     C 1436   7.068   9.773   4.592  0.2305 -0.0368 -0.0639
  736MOL0     C 1437   7.054   9.913   4.558  0.2746 -0.2764 -0.6571
  736MOL0     O 1438   7.064  10.014   4.658 -0.4292 -0.5977  0.0477
  736MOL0     C 1439   6.949  10.014   4.742 -0.6331  0.0606 -0.1726
  736MOL0     C 1440   6.918  10.159   4.772  0.9714 -1.2241 -0.1737
  736MOL0     C 1441   6.797  10.176   4.873  0.2634  0.7702 -0.5806
  736MOL0     C 1442   6.705  10.289   4.841 -0.2345 -0.4655 -0.4461
  736MOL0     C 1443   6.583  10.278   4.928  1.0324 -0.1526  0.1841
  736MOL0     C 1444   6.487  10.393   4.910  0.5177  0.4469 -0.2461
  736MOL0     C 1445   6.382  10.390   5.028 -0.5892  0.0273 -0.2588
  736MOL0     C 1446   6.269  10.487   4.998 -0.0398  0.0522  0.2253
  736MOL0     N 1447   6.169  10.422   4.908  0.0354  0.2089 -0.6358
  736MOL0     C 1448   6.164  10.417   4.772 -0.5856  0.5218  0.4081
  736MOL0     C 1449   6.042  10.370   4.736  0.1424  0.1431  0.3967
  736MOL0     C 1450   5.993  10.357   4.596 -0.2460  0.2957  0.3457
  736MOL0     C 1451   5.900  10.475   4.547 -0.0060  0.1607 -0.0623
  736MOL0     C 1452   5.805  10.413   4.444  0.2394 -0.0611 -0.8330
  736MOL0     C 1453   5.677  10.355   4.514 -0.7424  0.2857 -1.4198
  736MOL0     O 1454   5.605  10.463   4.573 -0.4154  0.0446 -0.5290
  736MOL0     C 1455   5.516  10.531   4.491  0.7207  0.8552  0.1156
  736MOL0     C 1456   5.404  10.476   4.445 -0.1020 -0.0808 -0.1526
  736MOL0     C 1457   5.326  10.546   4.350  0.3058  1.6399  0.5719
  736MOL0     C 1458   5.190  10.484   4.324 -0.6283 -0.3018  0.1437
  736MOL0     C 1459   5.363  10.670   4.307 -0.3244 -0.8220 -0.4897
  736MOL0     C 1460   5.282  10.750   4.213 -0.4377 -0.1702 -0.5591
  736MOL0     O 1461   5.287  10.885   4.239 -0.4171 -0.1188 -0.1877
  736MOL0     C 1462   5.207  10.974   4.175  0.3278  0.0087 -0.5717
  736MOL0     C 1463   5.067  10.967   4.184 -0.3747 -0.6551 -0.7428
  736MOL0     C 1464   4.981  11.070   4.137  0.4341 -0.2654  0.3167
  736MOL0     C 1465   5.039  11.183   4.077 -0.1111  0.2186  0.3486
  736MOL0     O 1466   4.982  11.300   4.039  0.4522 -0.4604  0.3680
  736MOL0     C 1467   4.837  11.305   4.035  0.0496 -0.6468 -0.1019
  736MOL0     C 1468   4.803  11.446   3.999 -0.0677 -0.7103  0.5772
  736MOL0     C 1469   4.654  11.477   4.010  0.4702 -0.2219  0.3281
  736MOL0     C 1470   4.625  11.615   4.062  0.4655  0.1127 -0.4334
  736MOL0     C 1471   4.720  11.723   3.995 -0.2225  1.0049  0.4098
  736MOL0     C 1472   4.657  11.861   4.013  0.2375 -0.1406 -0.7920
  736MOL0     C 1473   4.743  11.982   3.967 -0.9626 -0.2786  0.3662
  736MOL0     C 1474   4.658  12.114   3.967 -0.5558 -0.0947  0.2872
  736MOL0    Cl 1475   4.560  12.108   3.830 -0.0624  0.2829  0.0062
  736MOL0     C 1476   5.179  11.188   4.068 -0.0133  0.3503  0.7547
  736MOL0     C 1477   5.259  11.085   4.109 -0.3261  0.9249 -0.7062
  736MOL0     O 1478   5.214  10.696   4.119 -0.3074  0.3241 -0.5979
  736MOL0     C 1479   5.481  10.727   4.354  0.0465  0.5511 -0.0509
  736MOL0     C 1480   5.560  10.657   4.451  0.4971 -1.0295  0.0760
  736MOL0     N 1481   5.974  10.350   4.854  0.3621  0.4667 -0.1147
  736MOL0     N 1482   6.048  10.378   4.953 -0.4058  0.7542  0.0180
  736MOL0     C 1483   7.032   9.950   4.431 -0.0129  0.4481  0.0892
  736MOL0     C 1484   7.037   9.853   4.330  0.6994  0.1421  0.2464
  736MOL0     C 1485   7.021   9.548   4.037  0.2974 -0.9517 -0.2430
  736MOL0     C 1486   7.157   9.526   4.018 -0.2465  0.4125  0.2632
  736MOL0     C 1487   7.209   9.443   3.920  0.4695 -0.0938 -0.0916
  736MOL0     C 1488   7.119   9.378   3.833  0.4952  0.4593  0.8211
  736MOL0     O 1489   7.175   9.272   3.756 -0.2333  0.7741 -0.2092
  736MOL0     C 1490   7.124   9.247   3.627 -0.7141  1.1094 -0.1679
  736MOL0     C 1491   7.202   9.116   3.594  0.1022  0.5448 -0.2181
  736MOL0     C 1492   7.188   9.033   3.462  0.5862 -0.6338  0.2105
  736MOL0     C 1493   7.046   8.980   3.434 -0.8165 -1.1078  0.1683
  736MOL0     C 1494   7.052   8.886   3.323  0.8808  0.1239  0.2129
  736MOL0     C 1495   7.051   8.791   3.249 -0.3867  0.1962 -0.4464
  736MOL0     C 1496   6.979   9.394   3.839 -0.2854  0.4181  0.4166
  736MOL0     C 1497   6.925   9.485   3.939  0.0326  0.1838 -0.0913
  736MOL0     C 1498   6.775   9.490   3.947  0.6297 -0.8085 -0.2695
  736MOL0     H 1499   7.077   9.568   4.525 -4.1813  0.3502 -0.7884
  736MOL0     H 1500   7.060   9.747   4.697 -0.2001  1.4044  0.2858
  736MOL0     H 1501   6.973   9.954   4.831  1.1530  0.2872 -0.4701
  736MOL0     H 1502   6.867   9.958   4.696  1.6176 -1.2667 -2.8693
  736MOL0     H 1503   7.006  10.206   4.816  0.2230  0.1068 -0.0381
  736MOL0     H 1504   6.898  10.213   4.678  0.5592 -0.3055  0.4257
  736MOL0     H 1505   6.730  10.090   4.875 -0.0043  0.9688 -0.8993
  736MOL0     H 1506   6.840  10.177   4.974  0.8798  1.2173 -0.8415
  736MOL0     H 1507   6.769  10.375   4.862 -0.9603  0.1284 -0.6020
  736MOL0     H 1508   6.673  10.305   4.737  0.2221 -0.4892 -0.5913
  736MOL0     H 1509   6.615  10.275   5.032 -1.7339 -1.8386  1.1111
  736MOL0     H 1510   6.536  10.182   4.904 -0.1923  0.9612 -2.1657
  736MOL0     H 1511   6.545  10.485   4.922  2.5450 -1.0242  2.2190
  736MOL0     H 1512   6.440  10.403   4.812 -3.7731  3.9942  1.8151
  736MOL0     H 1513   6.442  10.424   5.113 -0.5202 -0.8660  0.0557
  736MOL0     H 1514   6.344  10.289   5.044 -3.1278  0.4654 -2.7179
  736MOL0     H 1515   6.219  10.502   5.094 -2.0942  0.3550 -0.8470
  736MOL0     H 1516   6.304  10.580   4.952 -2.4173  0.4809 -0.8752
  736MOL0     H 1517   6.240  10.442   4.699 -0.8918 -0.1096 -0.1370
  736MOL0     H 1518   5.949  10.257   4.595 -0.7042  0.4624  1.6452
  736MOL0     H 1519   6.083  10.363   4.533 -0.1702 -1.2815  0.2714
  736MOL0     H 1520   5.838  10.524   4.623  0.7197  3.5760 -1.5050
  736MOL0     H 1521   5.966  10.549   4.501  2.3264 -2.2768 -0.9182
  736MOL0     H 1522   5.766  10.490   4.376 -1.4701  0.5178  0.7279
  736MOL0     H 1523   5.862  10.338   4.388 -0.9262 -2.8300  1.4436
  736MOL0     H 1524   5.615  10.291   4.450 -0.3187  1.3120 -2.9259
  736MOL0     H 1525   5.710  10.285   4.591  2.6725  2.3941 -0.7424
  736MOL0     H 1526   5.353  10.384   4.471 -2.0839  1.1333  0.4586
  736MOL0     H 1527   5.199  10.417   4.238 -4.1498  0.0170 -0.5971
  736MOL0     H 1528   5.111  10.557   4.308  0.5855  0.6694 -1.8231
  736MOL0     H 1529   5.166  10.413   4.404 -1.2207 -0.3417 -0.0687
  736MOL0     H 1530   5.019  10.878   4.224 -1.2192 -1.2744 -3.0064
  736MOL0     H 1531   4.873  11.057   4.148  0.5698 -2.4958 -0.5409
  736MOL0     H 1532   4.798  11.238   3.958  0.8290  0.0642 -1.1477
  736MOL0     H 1533   4.786  11.279   4.128 -0.2879 -0.1020 -0.1304
  736MOL0     H 1534   4.859  11.510   4.068 -1.1622  1.6019 -0.5583
  736MOL0     H 1535   4.831  11.461   3.894  0.1414 -3.3261  0.1802
  736MOL0     H 1536   4.607  11.406   4.078  1.8692 -0.1849  1.3858
  736MOL0     H 1537   4.614  11.460   3.910  1.4229  1.7979 -0.4556
  736MOL0     H 1538   4.648  11.620   4.169  4.0293 -3.5414 -0.7957
  736MOL0     H 1539   4.519  11.635   4.040  0.0120 -0.8243  0.8132
  736MOL0     H 1540   4.822  11.716   4.033 -0.5034 -0.6049  0.9537
  736MOL0     H 1541   4.719  11.701   3.888  1.5237 -0.6161  0.6721
  736MOL0     H 1542   4.644  11.882   4.120  2.7215 -0.7049 -0.3047
  736MOL0     H 1543   4.563  11.871   3.958  1.2379 -1.1283 -2.8080
  736MOL0     H 1544   4.797  11.965   3.873  2.1002  3.3019  1.2134
  736MOL0     H 1545   4.824  11.984   4.041  0.1992 -1.5885 -0.8160
  736MOL0     H 1546   4.725  12.200   3.957 -1.9307  0.9992  0.1574
  736MOL0     H 1547   4.603  12.115   4.061 -0.1021 -1.0969  0.5746
  736MOL0     H 1548   5.234  11.276   4.037  0.5160 -0.2172  0.0558
  736MOL0     H 1549   5.366  11.096   4.093 -0.1387 -2.1050 -2.3463
  736MOL0     H 1550   5.524  10.821   4.321  2.1238  0.5529  2.3320
  736MOL0     H 1551   5.656  10.701   4.478 -0.0265  0.1617  0.0339
  736MOL0     H 1552   6.994  10.047   4.401  0.7259  0.3598 -1.2545
  736MOL0     H 1553   7.017   9.880   4.227 -1.5646  0.3015  0.6654
  736MOL0     H 1554   7.234   9.569   4.081  1.3586 -0.5206 -0.9735
  736MOL0     H 1555   7.315   9.421   3.912  0.0126 -2.0194 -1.6353
  736MOL0     H 1556   7.016   9.232   3.625 -1.0948  3.2855  0.8149
  736MOL0     H 1557   7.158   9.311   3.545 -0.0725  0.9874 -0.0054
  736MOL0     H 1558   7.188   9.054   3.683 -2.1513  0.9418 -0.2267
  736MOL0     H 1559   7.308   9.140   3.603  0.9911 -3.2211  1.1928
  736MOL0     H 1560   7.231   9.090   3.379  1.8443 -0.6691  0.8223
  736MOL0     H 1561   7.254   8.948   3.478 -1.4369 -2.2744  0.3006
  736MOL0     H 1562   6.995   9.073   3.408  1.5052  0.6734  1.6966
  736MOL0     H 1563   6.991   8.939   3.519 -3.0791  0.1160 -0.6159
  736MOL0     H 1564   7.085   8.718   3.178  0.5666 -1.3142  1.4404
  736MOL0     H 1565   6.912   9.333   3.780  2.8742 -1.2013 -1.7714
  736MOL0     H 1566   6.739   9.496   4.051 -1.5282  1.4664 -1.0495
  736MOL0     H 1567   6.740   9.580   3.897  1.0330  1.1634  2.7653
  736MOL0     H 1568   6.719   9.410   3.897  0.0031  0.5828 -1.8946
  737MOL0     O 1569   7.499   8.745   3.460  0.4524  0.4448 -0.3253
  737MOL0     C 1570   7.558   8.632   3.466 -0.1270  0.5741 -0.6836
  737MOL0     O 1571   7.672   8.606   3.528  0.2327 -0.2043 -1.4359
  737MOL0     C 1572   7.737   8.689   3.614 -0.0260 -1.0709 -0.2389
  737MOL0     C 1573   7.872   8.671   3.629  0.1525 -0.7463 -0.3700
  737MOL0     C 1574   7.943   8.752   3.711  0.3086  0.4224  0.4718
  737MOL0     C 1575   7.882   8.851   3.784 -0.1615 -0.3169  0.3606
  737MOL0     O 1576   7.969   8.930   3.863  0.4401  0.1015 -0.1418
  737MOL0     C 1577   7.915   9.063   3.905 -0.7161 -0.0336 -0.4577
  737MOL0     C 1578   8.022   9.132   3.987 -0.0076 -0.0029  0.5680
  737MOL0     C 1579   8.134   9.202   3.906  0.5874  1.0982 -0.1064
  737MOL0     C 1580   8.236   9.097   3.858 -0.5361  0.3390  0.0524
  737MOL0     C 1581   8.358   9.163   3.793 -0.5654  0.9845 -0.3361
  737MOL0     C 1582   8.466   9.063   3.749  0.2018 -0.4153  0.3303
  737MOL0     C 1583   8.412   8.971   3.630 -0.6767  0.4995 -0.3883
  737MOL0     C 1584   8.428   9.024   3.487 -0.1199  0.2215 -0.4050
  737MOL0     N 1585   8.327   8.947   3.398 -0.4975 -0.5049 -0.0563
  737MOL0     C 1586   8.205   8.991   3.367 -0.0072  0.5873  0.0180
  737MOL0     C 1587   8.169   8.907   3.268  0.1055  0.0768  0.0323
  737MOL0     C 1588   8.041   8.919   3.197  0.0881  0.3226 -0.1406
  737MOL0     C 1589   7.908   8.887   3.282  0.0346 -0.2275  0.1508
  737MOL0     C 1590   7.777   8.908   3.206  0.3866  0.3869 -1.1388
  737MOL0     C 1591   7.764   9.045   3.148  0.0704 -1.5213 -0.4012
  737MOL0     O 1592   7.808   9.159   3.233 -0.4452 -0.2874  0.1805
  737MOL0     C 1593   7.758   9.196   3.356  0.1724  0.2279 -0.0620
  737MOL0     C 1594   7.822   9.294   3.421 -0.3512 -0.6104  0.0765
  737MOL0     C 1595   7.790   9.319   3.557 -0.1006  0.0035  0.2350
  737MOL0     C 1596   7.864   9.435   3.621  0.2897 -0.6530 -1.2869
  737MOL0     C 1597   7.689   9.245   3.629 -0.3649  0.1949  0.5357
  737MOL0     C 1598   7.636   9.284   3.768 -0.3404  0.3614  0.7607
  737MOL0     O 1599   7.576   9.191   3.841  0.3012 -0.2041 -0.0399
  737MOL0     C 1600   7.537   9.201   3.966 -0.5038  0.0854  0.4305
  737MOL0     C 1601   7.608   9.272   4.069  1.2051  0.0902  1.3446
  737MOL0     C 1602   7.552   9.287   4.193  0.1004  0.3726 -0.0969
  737MOL0     C 1603   7.430   9.224   4.221 -0.5545  0.6979 -0.6464
  737MOL0     O 1604   7.385   9.235   4.347  0.8689  0.3455 -0.3568
  737MOL0     C 1605   7.361   9.112   4.417  1.0016  1.0058  0.9008
  737MOL0     C 1606   7.400   9.104   4.562  0.2225  1.2755 -0.4414
  737MOL0     C 1607   7.553   9.089   4.579  0.1155 -0.1734 -0.0938
  737MOL0     C 1608   7.587   9.067   4.725  0.3559 -0.8153 -0.5057
  737MOL0     C 1609   7.569   8.930   4.767  0.8394 -0.8357 -0.3368
  737MOL0     C 1610   7.609   8.899   4.907  0.2296  0.4734  0.4633
  737MOL0     C 1611   7.533   8.975   5.015  0.7455 -0.5184 -0.8285
  737MOL0     C 1612   7.513   8.895   5.144  0.3111 -0.1617 -0.7075
  737MOL0    Cl 1613   7.411   8.749   5.117  0.0252 -0.1535  0.2164
  737MOL0     C 1614   7.357   9.145   4.127 -0.1233  0.3716  0.7298
  737MOL0     C 1615   7.414   9.140   3.998  0.4288  0.4763 -0.1991
  737MOL0     O 1616   7.636   9.403   3.794  0.8586 -0.6124  0.3671
  737MOL0     C 1617   7.620   9.145   3.551  0.5470 -0.6612  0.0437
  737MOL0     C 1618   7.657   9.123   3.415 -0.7310  0.8741 -0.5465
  737MOL0     N 1619   8.275   8.815   3.245 -0.5131 -0.4970  0.7956
  737MOL0     N 1620   8.365   8.841   3.325  0.8531 -0.4832  0.6424
  737MOL0     C 1621   7.748   8.867   3.779  0.2308  0.0399 -0.3169
  737MOL0     C 1622   7.678   8.794   3.690 -0.1302  0.2128 -0.2458
  737MOL0     C 1623   7.507   8.524   3.387 -0.1847  0.3402 -0.0693
  737MOL0     C 1624   7.375   8.483   3.403  0.4875  0.1330 -0.0593
  737MOL0     C 1625   7.321   8.368   3.337  0.0019 -0.7171 -0.5974
  737MOL0     C 1626   7.403   8.313   3.243 -0.5260 -0.4543  0.1681
  737MOL0     O 1627   7.362   8.210   3.161  1.1050 -0.1288 -0.0540
  737MOL0     C 1628   7.230   8.172   3.148  0.3443  0.9441 -0.1567
  737MOL0     C 1629   7.226   8.045   3.061 -0.6878  0.0544  0.8281
  737MOL0     C 1630   7.352   7.953   3.083  0.4260  0.0455  0.2162
  737MOL0     C 1631   7.343   7.810   3.017  0.7796 -0.1305 -0.6869
  737MOL0     C 1632   7.326   7.808   2.871  0.6011 -0.4701  0.0258
  737MOL0     C 1633   7.310   7.799   2.754 -0.9409 -0.0608 -0.1518
  737MOL0     C 1634   7.540   8.349   3.225  0.2850 -0.2785 -0.2419
  737MOL0     C 1635   7.591   8.456   3.297  0.0892 -0.1710  0.7919
  737MOL0     C 1636   7.717   8.534   3.240  0.6890  0.5026 -0.2533
  737MOL0     H 1637   7.934   8.596   3.582  1.9908  0.2243  0.3659
  737MOL0     H 1638   8.047   8.724   3.722 -0.4776 -3.1269 -0.1521
  737MOL0     H 1639   7.830   9.045   3.972 -1.5870 -1.9530 -1.9978
  737MOL0     H 1640   7.897   9.131   3.821  3.5835  0.8315 -0.9130
  737MOL0     H 1641   7.964   9.206   4.043 -0.5004 -0.4053  0.6014
  737MOL0     H 1642   8.071   9.059   4.052 -1.1830 -2.7481 -1.4275
  737MOL0     H 1643   8.090   9.260   3.824 -1.7130 -0.7780 -0.2887
  737MOL0     H 1644   8.187   9.274   3.970  1.1940 -0.4343  1.1712
  737MOL0     H 1645   8.271   9.039   3.944  0.0960  1.4558  0.5737
  737MOL0     H 1646   8.188   9.036   3.782  1.5944  0.7245 -1.7176
  737MOL0     H 1647   8.399   9.235   3.864 -1.4165  2.6304 -1.4497
  737MOL0     H 1648   8.326   9.220   3.706  0.4473  1.6918 -0.2643
  737MOL0     H 1649   8.559   9.114   3.723 -0.7493  0.1075 -2.3626
  737MOL0     H 1650   8.482   9.005   3.840  0.4322  2.4762  2.2449
  737MOL0     H 1651   8.306   8.952   3.649 -0.0377 -0.3187  2.9578
  737MOL0     H 1652   8.463   8.876   3.647  0.9359  1.5865  1.2440
  737MOL0     H 1653   8.399   9.130   3.483 -4.2302 -0.7589 -1.8677
  737MOL0     H 1654   8.530   9.004   3.455  0.6877  1.2453  1.3527
  737MOL0     H 1655   8.149   9.079   3.397 -0.4366 -0.1655  1.5584
  737MOL0     H 1656   8.036   8.851   3.111 -0.1896  3.4459 -2.7886
  737MOL0     H 1657   8.053   9.018   3.152  1.8271 -0.4037 -1.4011
  737MOL0     H 1658   7.910   8.788   3.329 -3.0295  1.0639  3.4816
  737MOL0     H 1659   7.900   8.960   3.364  3.8571  0.9386 -0.3211
  737MOL0     H 1660   7.765   8.829   3.131 -1.0066 -0.4649 -0.0601
  737MOL0     H 1661   7.694   8.895   3.276  0.2315  0.4341 -1.3154
  737MOL0     H 1662   7.818   9.052   3.053 -0.7199 -1.5296 -0.8584
  737MOL0     H 1663   7.661   9.061   3.115 -0.2726  0.6041  1.4795
  737MOL0     H 1664   7.904   9.358   3.389  0.3774  1.0811  4.5247
  737MOL0     H 1665   7.885   9.413   3.726 -1.5014  0.6098 -0.6170
  737MOL0     H 1666   7.793   9.518   3.618 -1.4863 -2.1421 -2.9634
  737MOL0     H 1667   7.961   9.454   3.575  2.1966 -0.9298  2.2753
  737MOL0     H 1668   7.704   9.319   4.049  1.4133 -0.1361  1.8141
  737MOL0     H 1669   7.609   9.342   4.267 -2.0220  1.6714  0.6782
  737MOL0     H 1670   7.255   9.087   4.406  1.6107 -1.1595 -0.7547
  737MOL0     H 1671   7.402   9.022   4.370 -0.6099  0.5785  0.2301
  737MOL0     H 1672   7.380   9.197   4.617  2.0796  0.6131  1.5231
  737MOL0     H 1673   7.351   9.020   4.612 -0.9937  2.4839  0.4941
  737MOL0     H 1674   7.600   9.184   4.551  3.4932 -1.4348  0.7654
  737MOL0     H 1675   7.601   9.015   4.515  1.1182  2.0638 -2.0998
  737MOL0     H 1676   7.540   9.134   4.798  1.2119  0.5895 -1.1855
  737MOL0     H 1677   7.692   9.098   4.731 -1.0203  6.3548 -3.0185
  737MOL0     H 1678   7.468   8.890   4.753  0.7358 -0.5300 -0.4604
  737MOL0     H 1679   7.627   8.868   4.698  0.4830 -0.0868 -1.3310
  737MOL0     H 1680   7.716   8.916   4.919  1.0519 -2.5377 -1.3794
  737MOL0     H 1681   7.589   8.792   4.919  0.5179  0.3328 -0.2573
  737MOL0     H 1682   7.440   9.024   4.983 -0.5829  0.0129  3.2288
  737MOL0     H 1683   7.582   9.069   5.042 -2.2289  0.4220  2.0197
  737MOL0     H 1684   7.448   8.960   5.204  1.4446  0.6354 -0.3217
  737MOL0     H 1685   7.604   8.875   5.200 -0.6809  0.4638  1.2598
  737MOL0     H 1686   7.269   9.097   4.168 -0.0037 -0.7865 -0.3296
  737MOL0     H 1687   7.353   9.096   3.920 -0.8051  0.7326  0.5920
  737MOL0     H 1688   7.538   9.087   3.592  0.9295 -2.7513 -1.9522
  737MOL0     H 1689   7.600   9.046   3.363 -1.3523 -0.3847  1.8478
  737MOL0     H 1690   7.696   8.942   3.838  0.3181 -1.2772  1.5122
  737MOL0     H 1691   7.571   8.777   3.696 -0.0005 -1.1911 -1.4540
  737MOL0     H 1692   7.311   8.550   3.461  1.4911  2.2382 -1.3066
  737MOL0     H 1693   7.216   8.351   3.356 -0.2835  2.7793  1.8846
  737MOL0     H 1694   7.191   8.140   3.245 -0.5716  0.2283 -0.7502
  737MOL0     H 1695   7.180   8.262   3.112  1.2064  1.4984 -0.0161
  737MOL0     H 1696   7.240   8.079   2.958  3.2141  0.8022  1.4635
  737MOL0     H 1697   7.134   7.986   3.071  0.3820 -1.3253  3.2851
  737MOL0     H 1698   7.445   8.003   3.055 -0.8172  2.6960  0.5063
  737MOL0     H 1699   7.362   7.941   3.192  5.9233  1.0295  0.1003
  737MOL0     H 1700   7.251   7.769   3.059  0.5830  0.5911 -0.3990
  737MOL0     H 1701   7.428   7.745   3.043  0.3344 -0.8396 -0.9608
  737MOL0     H 1702   7.304   7.808   2.648 -0.8744  0.8989 -0.0803
  737MOL0     H 1703   7.605   8.303   3.151  0.9400  0.3159 -0.0485
  737MOL0     H 1704   7.691   8.606   3.162 -0.1367  0.5070  0.0123
  737MOL0     H 1705   7.772   8.583   3.320  2.3855  0.2288 -1.2035
  737MOL0     H 1706   7.790   8.460   3.207  0.6982  0.0478  0.7302
  738MOL0     O 1707   8.325   1.129   9.706  0.5909  1.0599 -0.9447
  738MOL0     C 1708   8.200   1.119   9.728  0.2351 -0.1572  0.0388
  738MOL0     O 1709   8.133   1.005   9.746  0.5952  0.0203  0.6017
  738MOL0     C 1710   8.195   0.882   9.731 -0.8322 -0.8536  1.0945
  738MOL0     C 1711   8.259   0.851   9.611  0.5144  0.4266 -0.1066
  738MOL0     C 1712   8.317   0.722   9.595  0.5504  0.2480  0.3428
  738MOL0     C 1713   8.302   0.627   9.700 -0.9004 -0.6070 -0.2462
  738MOL0     O 1714   8.354   0.500   9.703 -0.8171  0.3623  0.1912
  738MOL0     C 1715   8.432   0.465   9.589 -0.2712 -0.0726 -0.1705
  738MOL0     C 1716   8.476   0.324   9.622  0.3053 -0.8885  0.1841
  738MOL0     C 1717   8.579   0.269   9.530  0.1169 -0.1703 -0.2026
  738MOL0     C 1718   8.644   0.141   9.588 -0.1918  1.1873 -0.2970
  738MOL0     C 1719   8.746   0.089   9.490 -0.5952  0.6604  0.1038
  738MOL0     C 1720   8.817  -0.043   9.523 -0.2345 -0.4762 -0.3808
  738MOL0     C 1721   8.865  -0.118   9.395  0.8471 -0.8674 -0.1340
  738MOL0     C 1722   8.967  -0.222   9.434 -0.6307  0.1566  0.3685
  738MOL0     N 1723   9.111  -0.174   9.428 -0.5380 -0.7831 -0.4120
  738MOL0     C 1724   9.197  -0.156   9.319  0.0278  0.1935  0.0192
  738MOL0     C 1725   9.317  -0.128   9.376 -0.3190 -1.1789 -0.1071
  738MOL0     C 1726   9.446  -0.102   9.303  0.4221  0.4887  0.1929
  738MOL0     C 1727   9.433   0.024   9.201  0.0462  0.1764  0.4235
  738MOL0     C 1728   9.568   0.059   9.139  0.1741  0.6010  0.2678
  738MOL0     C 1729   9.653   0.139   9.229 -0.1359 -0.4688  0.3384
  738MOL0     O 1730   9.751   0.195   9.136  0.0442  0.4362  0.0311
  738MOL0     C 1731   9.872   0.233   9.185 -0.1739 -0.0080  0.3386
  738MOL0     C 1732   9.916   0.225   9.316  0.0949 -0.1911 -0.5366
  738MOL0     C 1733  10.040   0.283   9.343 -0.6096 -0.2486 -0.1533
  738MOL0     C 1734  10.097   0.262   9.479 -0.3249  0.8887 -0.1699
  738MOL0     C 1735  10.116   0.347   9.236  0.1996 -0.0179  0.3650
  738MOL0     C 1736  10.255   0.398   9.253 -0.2177 -0.0440  0.0824
  738MOL0     O 1737  10.335   0.336   9.351 -0.2114  0.4816 -0.1313
  738MOL0     C 1738  10.458   0.404   9.360  0.2889  0.4441  1.2034
  738MOL0     C 1739  10.476   0.502   9.454  0.6747 -0.2414 -0.8984
  738MOL0     C 1740  10.594   0.572   9.463  0.0663 -0.5979  0.1565
  738MOL0     C 1741  10.704   0.549   9.383 -0.1272 -0.0072  0.7390
  738MOL0     O 1742  10.822   0.617   9.402  0.4758  0.3594  0.4833
  738MOL0     C 1743  10.934   0.556   9.347 -0.3366 -0.4473 -0.2855
  738MOL0     C 1744  11.048   0.624   9.435 -0.4086 -0.3312  0.3876
  738MOL0     C 1745  11.178   0.551   9.409 -0.2391 -0.3235 -1.0513
  738MOL0     C 1746  11.290   0.624   9.492 -0.6486  0.5653  0.8892
  738MOL0     C 1747  11.439   0.559   9.482  0.0552  0.3414  0.2191
  738MOL0     C 1748  11.545   0.645   9.543 -0.4975 -0.2897 -0.2078
  738MOL0     C 1749  11.689   0.605   9.522  0.5859 -0.7592  0.1312
  738MOL0     C 1750  11.783   0.725   9.521 -0.2314 -0.6223 -0.1019
  738MOL0    Cl 1751  11.952   0.689   9.530 -0.0609 -0.3142  0.0906
  738MOL0     C 1752  10.683   0.455   9.282 -0.1267 -0.7441  0.6786
  738MOL0     C 1753  10.562   0.380   9.268 -0.2104  0.0639 -0.6406
  738MOL0     O 1754  10.283   0.492   9.174 -0.5351  0.1757 -0.2327
  738MOL0     C 1755  10.051   0.354   9.108 -0.9342 -0.3226  0.2422
  738MOL0     C 1756   9.935   0.295   9.083 -0.8769  0.3025  0.6020
  738MOL0     N 1757   9.301  -0.112   9.512 -0.4226  0.0837 -0.1786
  738MOL0     N 1758   9.182  -0.145   9.539  0.0347  0.3793  0.2351
  738MOL0     C 1759   8.234   0.664   9.816 -0.1267 -0.1770 -0.0819
  738MOL0     C 1760   8.179   0.792   9.837 -0.6148 -0.1258 -0.2887
  738MOL0     C 1761   8.111   1.230   9.736  0.2492 -0.1993 -0.3407
  738MOL0     C 1762   7.972   1.217   9.705 -0.1297  0.0912 -0.2021
  738MOL0     C 1763   7.879   1.324   9.695 -0.5924  0.4519  0.1061
  738MOL0     C 1764   7.921   1.452   9.736  0.3490  0.7439 -1.2527
  738MOL0     O 1765   7.856   1.571   9.733  0.7035 -0.3058 -0.4018
  738MOL0     C 1766   7.720   1.578   9.706 -0.5408  0.9588  0.5364
  738MOL0     C 1767   7.697   1.572   9.552 -0.1733  0.6144 -0.2565
  738MOL0     C 1768   7.775   1.686   9.481 -0.3601  0.6387 -0.1676
  738MOL0     C 1769   7.766   1.673   9.326  0.1281  0.5041 -0.1603
  738MOL0     C 1770   7.791   1.802   9.266 -1.4363 -0.1540  0.1415
  738MOL0     C 1771   7.811   1.906   9.204  0.1992 -0.2752  0.1819
  738MOL0     C 1772   8.057   1.464   9.771 -0.1037  0.4884 -0.4706
  738MOL0     C 1773   8.153   1.362   9.770 -0.4157 -0.2524  0.0127
  738MOL0     C 1774   8.296   1.401   9.804 -0.3740  0.7855  0.8734
  738MOL0     H 1775   8.270   0.929   9.537 -2.2549 -1.2902 -2.5142
  738MOL0     H 1776   8.365   0.703   9.499 -0.4218  0.4969 -0.2140
  738MOL0     H 1777   8.517   0.534   9.584  0.0496 -0.4806 -0.4066
  738MOL0     H 1778   8.370   0.475   9.499  0.3289 -1.4697 -0.7657
  738MOL0     H 1779   8.522   0.325   9.721  2.9687 -1.1398 -0.9510
  738MOL0     H 1780   8.387   0.261   9.627  1.3428 -2.7301 -2.2645
  738MOL0     H 1781   8.541   0.247   9.430  1.2019 -1.4597 -0.3709
  738MOL0     H 1782   8.669   0.331   9.526  1.2457 -1.5467  1.7546
  738MOL0     H 1783   8.695   0.161   9.683 -0.5087 -1.1287  0.4222
  738MOL0     H 1784   8.570   0.063   9.606  1.3001 -0.0539  0.6989
  738MOL0     H 1785   8.822   0.164   9.468  1.3150 -1.3651 -0.5786
  738MOL0     H 1786   8.701   0.064   9.394  1.4400 -0.8902 -0.5176
  738MOL0     H 1787   8.894  -0.021   9.597  0.0720  0.6834 -1.0080
  738MOL0     H 1788   8.739  -0.105   9.567 -0.7465  1.4274  1.5835
  738MOL0     H 1789   8.902  -0.051   9.317 -2.5687  0.6245 -0.6429
  738MOL0     H 1790   8.773  -0.165   9.358  0.2801  0.1682 -0.0820
  738MOL0     H 1791   8.949  -0.261   9.535  0.0110  1.4069  0.9864
  738MOL0     H 1792   8.954  -0.313   9.375 -1.3427  0.6181 -0.2030
  738MOL0     H 1793   9.170  -0.178   9.216 -0.7975  0.3628  0.1907
  738MOL0     H 1794   9.450  -0.196   9.247 -0.3840  0.1184  0.7393
  738MOL0     H 1795   9.540  -0.105   9.359  1.7094  0.5646 -1.8515
  738MOL0     H 1796   9.362   0.007   9.120  0.3247  2.2723 -0.3071
  738MOL0     H 1797   9.394   0.112   9.253  2.3964  0.9636  0.9850
  738MOL0     H 1798   9.616  -0.038   9.119 -0.3713  0.1442  1.1368
  738MOL0     H 1799   9.537   0.124   9.056 -2.1583  2.1876  2.2538
  738MOL0     H 1800   9.601   0.224   9.273 -0.9451 -1.5577  1.5290
  738MOL0     H 1801   9.703   0.081   9.308  0.2826  2.1006  2.0653
  738MOL0     H 1802   9.859   0.186   9.399 -2.3909 -0.6026 -2.3456
  738MOL0     H 1803  10.136   0.359   9.511 -0.0583  0.4269  0.9212
  738MOL0     H 1804  10.169   0.180   9.486 -0.9593  0.4565  1.7663
  738MOL0     H 1805  10.020   0.232   9.551 -0.8732 -2.5067 -1.9249
  738MOL0     H 1806  10.406   0.529   9.533  0.1623 -2.6203 -0.4425
  738MOL0     H 1807  10.601   0.645   9.543 -1.9544  1.7015 -1.6507
  738MOL0     H 1808  10.943   0.453   9.382 -0.1207  0.9193  4.4214
  738MOL0     H 1809  10.951   0.565   9.240 -2.0938  1.9065 -0.4561
  738MOL0     H 1810  11.058   0.728   9.401  1.2467 -1.5287 -3.1963
  738MOL0     H 1811  11.029   0.611   9.542  1.5263  0.2998  0.8520
  738MOL0     H 1812  11.197   0.554   9.301 -1.6970 -1.4650 -1.3715
  738MOL0     H 1813  11.171   0.446   9.440  1.4769 -0.2289 -0.2338
  738MOL0     H 1814  11.269   0.633   9.599 -2.0437  1.8384  0.5477
  738MOL0     H 1815  11.303   0.724   9.449  0.1942  0.5744  1.1560
  738MOL0     H 1816  11.420   0.467   9.539 -4.0814  1.0081  0.2250
  738MOL0     H 1817  11.459   0.528   9.379  1.0164 -0.1619  0.5437
  738MOL0     H 1818  11.522   0.648   9.650 -0.4814  1.0988 -0.2271
  738MOL0     H 1819  11.523   0.747   9.512 -2.5389 -0.5823  0.0639
  738MOL0     H 1820  11.703   0.562   9.422 -1.6033  1.0216 -1.0181
  738MOL0     H 1821  11.723   0.530   9.595  0.4938 -3.2367 -2.2161
  738MOL0     H 1822  11.754   0.794   9.600  1.4649  1.7740 -1.4284
  738MOL0     H 1823  11.756   0.782   9.432  0.5567  0.8408  0.5609
  738MOL0     H 1824  10.752   0.438   9.200 -0.4179 -0.2301  0.3239
  738MOL0     H 1825  10.541   0.300   9.197 -1.0382  1.0289 -1.5104
  738MOL0     H 1826  10.113   0.392   9.028  2.9373 -1.3064  2.4805
  738MOL0     H 1827   9.896   0.293   8.982  1.3573  1.7032 -0.3830
  738MOL0     H 1828   8.231   0.591   9.896 -3.2043  0.7939  0.8271
  738MOL0     H 1829   8.141   0.821   9.935 -0.9831 -0.9101 -0.1917
  738MOL0     H 1830   7.936   1.124   9.663 -0.4334  0.4578 -0.7570
  738MOL0     H 1831   7.785   1.313   9.643 -1.0078  0.4523  0.8541
  738MOL0     H 1832   7.656   1.503   9.754 -1.1443  0.6596 -0.6839
  738MOL0     H 1833   7.675   1.673   9.738 -0.0584  1.9019 -1.4041
  738MOL0     H 1834   7.589   1.570   9.537 -0.5428 -0.2592  2.1637
  738MOL0     H 1835   7.740   1.481   9.508 -1.8578 -1.9836  3.0209
  738MOL0     H 1836   7.738   1.785   9.507 -0.5773  1.2447 -2.5564
  738MOL0     H 1837   7.880   1.682   9.511 -0.6384  1.5170  0.9710
  738MOL0     H 1838   7.667   1.640   9.291 -0.3432  0.5155  1.0958
  738MOL0     H 1839   7.843   1.604   9.291  0.7725  0.2815  1.5924
  738MOL0     H 1840   7.812   1.998   9.148 -1.1564 -0.6190 -0.4414
  738MOL0     H 1841   8.070   1.568   9.800 -1.9632  0.6691 -0.1394
  738MOL0     H 1842   8.329   1.361   9.900  3.1989  2.3325  0.4618
  738MOL0     H 1843   8.356   1.365   9.720 -0.8962 -0.8416  1.1805
  738MOL0     H 1844   8.296   1.511   9.812 -4.8048  1.0774 -0.4986
  739MOL0     O 1845   3.643   4.842   4.255 -0.1235 -0.1784  0.2327
  739MOL0     C 1846   3.604   4.884   4.141 -0.3661  0.4059 -0.2563
  739MOL0     O 1847   3.685   4.914   4.036  0.0840 -0.3312  0.5040
  739MOL0     C 1848   3.826   4.903   4.047 -0.1141 -0.1457  0.8639
  739MOL0     C 1849   3.895   4.928   4.158  0.1362  0.4389 -0.9215
  739MOL0     C 1850   4.031   4.910   4.176 -0.4933  0.2296  1.1534
  739MOL0     C 1851   4.110   4.879   4.063  1.0131  0.3692 -0.1293
  739MOL0     O 1852   4.250   4.881   4.078  0.2527  0.2178  0.0028
  739MOL0     C 1853   4.323   4.780   4.005  0.8385 -0.1817 -0.8207
  739MOL0     C 1854   4.473   4.771   4.050  0.0833 -0.5574  0.8199
  739MOL0     C 1855   4.497   4.709   4.188  0.7310 -0.9800  0.7221
  739MOL0     C 1856   4.647   4.680   4.211  0.3290 -0.4916  0.5748
  739MOL0     C 1857   4.683   4.682   4.362 -0.3079  0.2195  0.7499
  739MOL0     C 1858   4.636   4.550   4.432  0.5724  0.4429  0.6311
  739MOL0     C 1859   4.718   4.430   4.394 -0.8977  0.2523 -0.4367
  739MOL0     C 1860   4.693   4.308   4.488 -0.0411 -0.6819 -0.5307
  739MOL0     N 1861   4.562   4.252   4.473 -0.1491 -0.0708 -0.0626
  739MOL0     C 1862   4.452   4.288   4.544  0.2677  0.4060  0.0545
  739MOL0     C 1863   4.350   4.206   4.494  0.3549 -1.0139 -0.5614
  739MOL0     C 1864   4.198   4.200   4.526  0.2475 -0.8357  0.3334
  739MOL0     C 1865   4.101   4.218   4.407  0.3364 -0.0269  0.0041
  739MOL0     C 1866   3.964   4.208   4.452  0.0603 -1.0677  0.1145
  739MOL0     C 1867   3.876   4.179   4.333 -0.7119 -0.1027 -0.9071
  739MOL0     O 1868   3.874   4.040   4.311 -0.2623  0.3935  0.2596
  739MOL0     C 1869   3.767   4.000   4.226  0.6632  0.6039  0.2572
  739MOL0     C 1870   3.680   4.092   4.155  1.5337  0.9364 -0.6276
  739MOL0     C 1871   3.572   4.051   4.068  0.4362  0.3290 -0.4794
  739MOL0     C 1872   3.485   4.148   4.003  0.2983 -0.0755  0.6353
  739MOL0     C 1873   3.561   3.910   4.042 -0.6515 -0.2738  0.3428
  739MOL0     C 1874   3.457   3.850   3.955 -0.1829  1.2032  0.3350
  739MOL0     O 1875   3.456   3.716   3.963 -0.4491  0.4916  0.2436
  739MOL0     C 1876   3.364   3.637   3.891 -0.4412  0.5293 -0.4139
  739MOL0     C 1877   3.410   3.526   3.813 -0.3772 -0.4964  0.3448
  739MOL0     C 1878   3.314   3.446   3.754 -0.5493 -1.2266  0.4015
  739MOL0     C 1879   3.176   3.463   3.764 -0.0752  0.2762 -1.5739
  739MOL0     O 1880   3.089   3.373   3.712 -1.1112  0.3906 -0.5613
  739MOL0     C 1881   3.002   3.304   3.813 -0.1697  0.0237  0.1383
  739MOL0     C 1882   2.969   3.162   3.752 -0.1946  0.5393 -0.1109
  739MOL0     C 1883   2.832   3.161   3.679 -0.0181  0.5397 -0.0663
  739MOL0     C 1884   2.807   3.015   3.627 -0.6082  0.3143  0.3347
  739MOL0     C 1885   2.694   3.017   3.524  0.1983  0.0236 -0.1418
  739MOL0     C 1886   2.653   2.867   3.490 -0.3879 -0.0694 -0.0656
  739MOL0     C 1887   2.521   2.871   3.402  0.5742  0.7260 -0.1167
  739MOL0     C 1888   2.448   2.731   3.409 -0.3996 -0.4446  0.5523
  739MOL0    Cl 1889   2.287   2.755   3.489 -0.1030 -0.5853  0.0589
  739MOL0     C 1890   3.131   3.574   3.839 -0.0764 -0.3314  0.3043
  739MOL0     C 1891   3.221   3.663   3.899 -0.4207  0.6177  0.2120
  739MOL0     O 1892   3.374   3.923   3.905  0.1303  0.1385 -0.4420
  739MOL0     C 1893   3.654   3.822   4.110  1.2309 -0.0232  0.4858
  739MOL0     C 1894   3.744   3.868   4.204 -0.1595 -0.1092  0.3639
  739MOL0     N 1895   4.413   4.115   4.407  0.8539 -0.6380  0.0929
  739MOL0     N 1896   4.530   4.147   4.391  1.3165 -0.0337  0.1962
  739MOL0     C 1897   4.043   4.846   3.947  0.0504  0.6517  0.2049
  739MOL0     C 1898   3.904   4.856   3.935  0.6206 -0.0228 -0.2763
  739MOL0     C 1899   3.454   4.914   4.122 -0.1406  0.0125  0.0680
  739MOL0     C 1900   3.360   4.897   4.235 -0.2668 -0.3792  0.3107
  739MOL0     C 1901   3.227   4.919   4.222  0.5403 -0.0520  0.0522
  739MOL0     C 1902   3.175   4.959   4.095  0.0456  0.5045  0.5743
  739MOL0     O 1903   3.036   4.947   4.100 -0.2464 -0.8583  0.0580
  739MOL0     C 1904   2.959   4.994   3.980 -0.0298  0.6123 -0.2281
  739MOL0     C 1905   2.841   4.902   3.939 -0.8291 -0.4674 -0.1953
  739MOL0     C 1906   2.715   4.978   3.891 -0.1029  0.8388  1.4199
  739MOL0     C 1907   2.727   5.041   3.749 -0.1143 -0.3661 -0.7262
  739MOL0     C 1908   2.709   4.938   3.634  0.4522 -0.2196 -0.4957
  739MOL0     C 1909   2.702   4.867   3.532 -0.0005 -0.0563 -0.4718
  739MOL0     C 1910   3.263   4.975   3.981 -0.1281 -0.4461 -1.5761
  739MOL0     C 1911   3.400   4.950   3.987  0.6332  0.3166  0.2172
  739MOL0     C 1912   3.480   4.963   3.859  0.5360  0.0905 -0.2484
  739MOL0     H 1913   3.839   4.957   4.246  0.3002  1.4248 -1.1347
  739MOL0     H 1914   4.074   4.931   4.273 -1.4056 -0.4635  1.7267
  739MOL0     H 1915   4.337   4.799   3.898  0.7367  0.7252 -0.6838
  739MOL0     H 1916   4.273   4.685   4.025 -1.2263  1.2973  1.9074
  739MOL0     H 1917   4.537   4.714   3.983  0.3730  1.8504 -1.0750
  739MOL0     H 1918   4.518   4.870   4.060 -0.7755  0.0163 -0.6752
  739MOL0     H 1919   4.463   4.784   4.260  0.2270  1.6821 -2.0593
  739MOL0     H 1920   4.433   4.622   4.203  0.6147 -0.4959  3.5681
  739MOL0     H 1921   4.670   4.586   4.160  2.1783  0.2270 -0.0131
  739MOL0     H 1922   4.716   4.755   4.170 -1.5458  0.8760 -0.2023
  739MOL0     H 1923   4.645   4.769   4.416  1.6515  1.2459  0.5770
  739MOL0     H 1924   4.789   4.695   4.385  0.1051 -1.3130 -0.1594
  739MOL0     H 1925   4.645   4.568   4.540 -1.8652 -0.2413  0.9971
  739MOL0     H 1926   4.531   4.538   4.406  0.6723  0.9172 -0.0268
  739MOL0     H 1927   4.827   4.439   4.397 -0.4032 -3.6650 -0.8542
  739MOL0     H 1928   4.702   4.408   4.288  1.7755  0.9925 -1.0836
  739MOL0     H 1929   4.767   4.231   4.463 -0.5177 -0.6669 -2.1470
  739MOL0     H 1930   4.716   4.344   4.588 -1.3812 -1.0998 -0.0548
  739MOL0     H 1931   4.447   4.367   4.618 -3.2259  1.1017 -0.7648
  739MOL0     H 1932   4.176   4.275   4.603  0.8610 -0.2781 -0.0229
  739MOL0     H 1933   4.181   4.104   4.576  1.3199 -1.2101  0.0049
  739MOL0     H 1934   4.119   4.317   4.363 -1.5186 -0.3185 -1.5628
  739MOL0     H 1935   4.126   4.134   4.341  2.0679 -1.7421  2.6731
  739MOL0     H 1936   3.944   4.128   4.524 -3.8932 -1.4818 -1.2113
  739MOL0     H 1937   3.942   4.306   4.494  2.2150  0.1862 -1.5301
  739MOL0     H 1938   3.776   4.216   4.357  0.0772  2.3401 -1.1620
  739MOL0     H 1939   3.914   4.230   4.244 -2.6749  0.7081 -1.3298
  739MOL0     H 1940   3.692   4.200   4.160 -0.5108  1.1793  0.2046
  739MOL0     H 1941   3.515   4.250   4.030 -0.3932  0.4483 -0.4843
  739MOL0     H 1942   3.379   4.147   4.028  0.1038 -0.0474 -0.1570
  739MOL0     H 1943   3.495   4.148   3.894 -0.9709 -1.7232  0.4892
  739MOL0     H 1944   3.515   3.516   3.790 -0.0010  0.6381  1.4177
  739MOL0     H 1945   3.346   3.361   3.694  0.0380 -2.9219  2.9627
  739MOL0     H 1946   3.075   3.290   3.894 -0.8673  0.6772  0.9049
  739MOL0     H 1947   2.912   3.362   3.835 -0.1576  0.2696 -0.4435
  739MOL0     H 1948   3.047   3.138   3.680  1.0190 -0.8716  1.5974
  739MOL0     H 1949   2.973   3.087   3.831 -1.1069 -0.0222 -0.5802
  739MOL0     H 1950   2.832   3.231   3.595 -3.1563  1.8315  0.8736
  739MOL0     H 1951   2.735   3.176   3.727 -1.0485 -1.9824 -1.1905
  739MOL0     H 1952   2.769   2.950   3.706 -0.7351 -0.6014 -0.4514
  739MOL0     H 1953   2.895   2.973   3.578 -1.3162  1.0878 -1.7298
  739MOL0     H 1954   2.610   3.070   3.568 -0.5530  1.4427 -3.0626
  739MOL0     H 1955   2.711   3.069   3.429 -1.7116 -0.5766 -0.8423
  739MOL0     H 1956   2.639   2.810   3.583  2.2343 -2.9763 -1.2915
  739MOL0     H 1957   2.727   2.802   3.443 -0.2020  0.8089 -1.0149
  739MOL0     H 1958   2.546   2.892   3.298 -0.3377  2.6016  0.0018
  739MOL0     H 1959   2.452   2.949   3.436  0.6077  0.8157 -0.2545
  739MOL0     H 1960   2.493   2.669   3.487  1.9605 -2.7725 -2.4428
  739MOL0     H 1961   2.447   2.671   3.318 -1.9796  0.0555  0.2021
  739MOL0     H 1962   3.024   3.595   3.837 -0.3980 -1.6790  1.3581
  739MOL0     H 1963   3.176   3.747   3.951  0.2977  1.3665 -0.3390
  739MOL0     H 1964   3.645   3.715   4.094  0.5126  0.1860 -0.5373
  739MOL0     H 1965   3.824   3.811   4.251  2.5248  2.5621 -0.6073
  739MOL0     H 1966   4.097   4.820   3.857 -0.8920 -1.5618  0.2178
  739MOL0     H 1967   3.856   4.820   3.844 -0.1853 -1.4379  0.6802
  739MOL0     H 1968   3.405   4.859   4.326  0.1919  0.4670  0.4524
  739MOL0     H 1969   3.165   4.907   4.309  0.9107 -4.0263 -0.0405
  739MOL0     H 1970   2.926   5.095   4.009 -0.1624  0.3825  0.4415
  739MOL0     H 1971   3.025   5.015   3.896  0.9087  1.1490  0.6256
  739MOL0     H 1972   2.812   4.849   4.030 -0.0482 -3.0005 -1.3519
  739MOL0     H 1973   2.866   4.825   3.866  2.0935  0.3486 -0.1865
  739MOL0     H 1974   2.622   4.920   3.894 -0.0480  0.7606  3.7778
  739MOL0     H 1975   2.704   5.068   3.952 -4.4694  0.4725  1.4757
  739MOL0     H 1976   2.822   5.093   3.734 -1.0673  0.9403 -2.6724
  739MOL0     H 1977   2.654   5.123   3.750 -1.0182 -1.0280  3.1399
  739MOL0     H 1978   2.687   4.810   3.442 -0.7609  1.6878 -1.4985
  739MOL0     H 1979   3.221   4.999   3.884  0.8857  1.4648 -1.5795
  739MOL0     H 1980   3.542   5.053   3.863  0.2483  0.3861 -1.7243
  739MOL0     H 1981   3.546   4.875   3.852  0.4915 -0.0805  1.3017
  739MOL0     H 1982   3.426   4.967   3.764  0.6133 -0.6764 -0.3322
  740MOL0     O 1983   3.313   4.766   7.478 -0.3897  0.1330  0.7801
  740MOL0     C 1984   3.378   4.799   7.582 -0.6083  0.5503 -0.5311
  740MOL0     O 1985   3.507   4.854   7.585 -0.4400 -0.1794  0.4727
  740MOL0     C 1986   3.614   4.812   7.503 -0.4050 -0.1146  0.2254
  740MOL0     C 1987   3.740   4.871   7.536 -0.2296  0.5352 -0.4677
  740MOL0     C 1988   3.843   4.851   7.448  0.3721  0.1702 -0.4279
  740MOL0     C 1989   3.841   4.766   7.335 -0.6351 -0.3783 -0.1863
  740MOL0     O 1990   3.952   4.753   7.248  0.0018 -0.5486 -0.1833
  740MOL0     C 1991   3.990   4.622   7.198  0.5101 -0.8194 -0.1557
  740MOL0     C 1992   3.934   4.626   7.065  0.1528 -0.1535  0.6585
  740MOL0     C 1993   3.935   4.492   6.991 -1.2389  0.6474 -1.1157
  740MOL0     C 1994   3.877   4.504   6.846 -0.1416 -0.2385  0.5323
  740MOL0     C 1995   3.988   4.537   6.744  0.6110 -0.8398 -0.2867
  740MOL0     C 1996   3.928   4.525   6.606 -0.2658 -0.6748  0.2828
  740MOL0     C 1997   4.009   4.607   6.504 -0.4032 -0.3100  0.4057
  740MOL0     C 1998   3.985   4.752   6.508  0.5094 -0.3644 -0.2772
  740MOL0     N 1999   4.050   4.819   6.397  0.3723 -0.4710 -0.2863
  740MOL0     C 2000   4.144   4.922   6.404  0.6254  1.4545 -0.9986
  740MOL0     C 2001   4.169   4.942   6.269  1.1717  0.7363  0.1558
  740MOL0     C 2002   4.256   5.055   6.221  0.9601 -0.4200  0.2526
  740MOL0     C 2003   4.409   5.011   6.212  0.7783  0.2371  0.7052
  740MOL0     C 2004   4.495   5.128   6.177  0.3883 -0.2266 -0.5008
  740MOL0     C 2005   4.640   5.097   6.130 -0.6554 -0.5761  0.6074
  740MOL0     O 2006   4.702   5.221   6.092 -0.2145 -0.2574  0.4241
  740MOL0     C 2007   4.840   5.203   6.091 -0.9180 -0.3243  0.9558
  740MOL0     C 2008   4.915   5.249   6.202  0.4009  0.2635 -0.8978
  740MOL0     C 2009   5.059   5.239   6.202 -0.7028 -0.3518  0.7270
  740MOL0     C 2010   5.129   5.291   6.322  0.0438  0.7443  0.2815
  740MOL0     C 2011   5.127   5.192   6.088 -0.5000  0.4384 -0.0662
  740MOL0     C 2012   5.277   5.191   6.075 -0.0073  0.7829 -0.5154
  740MOL0     O 2013   5.347   5.136   6.179 -0.6228  0.4056 -0.8046
  740MOL0     C 2014   5.474   5.175   6.204 -0.4466 -0.0548  0.5791
  740MOL0     C 2015   5.525   5.305   6.168 -0.1444 -0.6389 -0.0979
  740MOL0     C 2016   5.667   5.327   6.165  0.2394  0.1296 -0.4530
  740MOL0     C 2017   5.749   5.229   6.214 -0.4015  0.5525 -0.5165
  740MOL0     O 2018   5.882   5.251   6.228  0.1861 -0.0428  0.3087
  740MOL0     C 2019   5.984   5.198   6.142  0.1207 -0.8616 -0.1138
  740MOL0     C 2020   6.052   5.316   6.068  0.0866  0.4501  0.4988
  740MOL0     C 2021   6.190   5.358   6.135  0.2789  0.5553  0.6302
  740MOL0     C 2022   6.253   5.455   6.034 -0.0478 -0.6361 -1.5997
  740MOL0     C 2023   6.373   5.534   6.099  0.1959 -0.4984  0.5959
  740MOL0     C 2024   6.438   5.640   6.003  0.3766 -0.0430  0.0185
  740MOL0     C 2025   6.549   5.708   6.085 -0.0482 -0.2491  0.5253
  740MOL0     C 2026   6.626   5.814   6.014 -0.0065  0.7130  0.0118
  740MOL0    Cl 2027   6.793   5.835   6.070 -0.3341 -0.3117 -0.0768
  740MOL0     C 2028   5.693   5.104   6.246 -0.6614  1.1114 -0.0116
  740MOL0     C 2029   5.555   5.076   6.242  0.4265  0.2064  0.0833
  740MOL0     O 2030   5.323   5.228   5.966  0.2105  1.4810  0.3934
  740MOL0     C 2031   5.055   5.131   5.983  0.1611 -0.1666 -0.2818
  740MOL0     C 2032   4.915   5.139   5.986  0.0052 -0.2329  0.0429
  740MOL0     N 2033   4.119   4.835   6.197 -0.4180 -0.4076  0.2840
  740MOL0     N 2034   4.032   4.774   6.269 -0.9253  1.0140 -0.2089
  740MOL0     C 2035   3.721   4.696   7.317  0.1014  0.1769 -0.0914
  740MOL0     C 2036   3.606   4.716   7.395 -0.5239  0.0905 -0.4546
  740MOL0     C 2037   3.296   4.772   7.706  0.2400  0.1988  0.3762
  740MOL0     C 2038   3.154   4.755   7.690 -0.3049  0.3944 -0.5883
  740MOL0     C 2039   3.065   4.723   7.802  0.4326 -0.8254 -0.5802
  740MOL0     C 2040   3.121   4.700   7.926  0.2326  0.4874  0.5209
  740MOL0     O 2041   3.037   4.658   8.020  0.1583 -0.8314  0.1044
  740MOL0     C 2042   3.092   4.599   8.143  0.2402 -0.3746  0.3645
  740MOL0     C 2043   2.989   4.500   8.198 -0.0569 -0.1532  0.3540
  740MOL0     C 2044   2.859   4.561   8.233  0.4618 -0.3790  0.3369
  740MOL0     C 2045   2.768   4.455   8.293 -0.0592 -0.6528 -1.0897
  740MOL0     C 2046   2.653   4.522   8.346 -0.4385 -0.3065 -0.3431
  740MOL0     C 2047   2.569   4.596   8.390  0.4264  0.4772 -0.5296
  740MOL0     C 2048   3.256   4.710   7.945  0.4900  0.9470  0.3883
  740MOL0     C 2049   3.338   4.752   7.838 -0.3324  1.0353 -1.0917
  740MOL0     C 2050   3.479   4.788   7.880 -0.3340 -0.4774 -0.3678
  740MOL0     H 2051   3.759   4.940   7.617  0.3439  0.8737 -0.8795
  740MOL0     H 2052   3.936   4.907   7.451 -1.5185  3.5502  1.2154
  740MOL0     H 2053   3.949   4.543   7.262 -0.7987 -1.4233 -1.6709
  740MOL0     H 2054   4.099   4.612   7.197  0.4571 -1.4334 -1.7018
  740MOL0     H 2055   3.829   4.654   7.071  0.1284 -0.1667  0.3137
  740MOL0     H 2056   3.982   4.709   7.012  0.6251 -0.2991  0.8495
  740MOL0     H 2057   4.038   4.456   6.990 -0.3877  2.2247  3.5886
  740MOL0     H 2058   3.877   4.416   7.043  2.3828 -0.3940  1.7740
  740MOL0     H 2059   3.849   4.405   6.807  1.9802  0.3639 -3.0037
  740MOL0     H 2060   3.797   4.578   6.846  0.0108  0.0337  3.3975
  740MOL0     H 2061   4.075   4.472   6.757  0.8444 -0.1892  1.6328
  740MOL0     H 2062   4.024   4.636   6.771 -0.5406 -0.8324  1.3096
  740MOL0     H 2063   3.934   4.423   6.568 -1.0345 -0.5851 -0.0889
  740MOL0     H 2064   3.824   4.559   6.605 -0.5766 -1.0277 -4.4784
  740MOL0     H 2065   3.981   4.570   6.404 -1.4640  0.0018  0.5768
  740MOL0     H 2066   4.115   4.589   6.522  0.3902  0.5006 -2.8197
  740MOL0     H 2067   3.876   4.765   6.506  0.6298  0.6231 -2.0725
  740MOL0     H 2068   4.028   4.789   6.601  1.5378 -4.1991  0.9761
  740MOL0     H 2069   4.164   4.981   6.493 -1.4675 -0.6588  1.0200
  740MOL0     H 2070   4.241   5.140   6.288 -0.9735 -0.7745  0.3235
  740MOL0     H 2071   4.218   5.094   6.127  4.5385  1.5746 -0.5567
  740MOL0     H 2072   4.436   4.969   6.310 -1.0886 -1.6970  0.4640
  740MOL0     H 2073   4.422   4.923   6.149  0.9690 -1.0864  2.4874
  740MOL0     H 2074   4.449   5.191   6.100  0.2789 -0.5676 -0.7200
  740MOL0     H 2075   4.490   5.193   6.264 -0.8026 -0.4429 -0.3899
  740MOL0     H 2076   4.695   5.038   6.204  0.4751 -1.3822 -0.8270
  740MOL0     H 2077   4.645   5.032   6.042  2.4708  1.5039 -0.9265
  740MOL0     H 2078   4.863   5.299   6.283  2.5633  0.9255  0.1631
  740MOL0     H 2079   5.227   5.337   6.309  0.9141 -1.2056 -0.4057
  740MOL0     H 2080   5.155   5.208   6.388  1.8920  2.8315  2.3428
  740MOL0     H 2081   5.060   5.357   6.376 -0.2725  0.6971 -0.0564
  740MOL0     H 2082   5.455   5.375   6.125 -2.4917 -2.7785  0.0016
  740MOL0     H 2083   5.702   5.427   6.141  2.6260 -0.5426  0.0039
  740MOL0     H 2084   6.052   5.139   6.204 -1.2366 -2.3433  0.0498
  740MOL0     H 2085   5.947   5.133   6.062  1.1366 -0.4443 -0.9440
  740MOL0     H 2086   6.089   5.284   5.970  1.5018  1.9291  0.4924
  740MOL0     H 2087   5.974   5.392   6.056 -0.2817  0.1075  0.6888
  740MOL0     H 2088   6.257   5.278   6.168 -0.2190 -0.1599 -0.0755
  740MOL0     H 2089   6.153   5.411   6.224 -0.0797 -0.5549  1.1509
  740MOL0     H 2090   6.177   5.527   6.003  4.1658  4.8534 -0.7383
  740MOL0     H 2091   6.282   5.399   5.945 -0.6011 -1.1248 -1.4724
  740MOL0     H 2092   6.333   5.594   6.181 -2.3003  1.9016 -2.1260
  740MOL0     H 2093   6.448   5.464   6.138 -2.4405 -3.6027  0.5698
  740MOL0     H 2094   6.364   5.712   5.968 -0.8234 -0.0687  2.2972
  740MOL0     H 2095   6.467   5.577   5.918 -2.7772  1.4806 -2.3733
  740MOL0     H 2096   6.619   5.626   6.102  1.9955  0.7253 -2.2845
  740MOL0     H 2097   6.510   5.754   6.176 -0.3834  2.4442 -0.8559
  740MOL0     H 2098   6.569   5.907   6.023 -0.5249  0.4285 -0.2808
  740MOL0     H 2099   6.637   5.778   5.911  3.5615  0.2358  0.4457
  740MOL0     H 2100   5.764   5.028   6.275  0.0066  2.1402  1.1674
  740MOL0     H 2101   5.511   4.980   6.265 -0.4381  0.5833  0.0583
  740MOL0     H 2102   5.100   5.080   5.899 -1.4932 -1.3761 -0.4784
  740MOL0     H 2103   4.853   5.082   5.918 -2.5009  1.3448  0.8592
  740MOL0     H 2104   3.727   4.622   7.238  0.8329  1.1857 -1.0212
  740MOL0     H 2105   3.513   4.667   7.367  0.7775 -2.2833 -0.9720
  740MOL0     H 2106   3.114   4.769   7.590 -0.6602 -0.9729 -0.6550
  740MOL0     H 2107   2.958   4.735   7.787  0.6285  2.5070 -0.0882
  740MOL0     H 2108   3.176   4.535   8.116  1.1365  1.2034 -0.6770
  740MOL0     H 2109   3.126   4.661   8.227  1.4807  0.6704 -0.8736
  740MOL0     H 2110   3.032   4.454   8.288 -0.7613 -0.4811  0.5252
  740MOL0     H 2111   2.979   4.428   8.116  0.0440 -2.9163  2.6091
  740MOL0     H 2112   2.879   4.628   8.317  0.1345 -0.4767  0.4916
  740MOL0     H 2113   2.820   4.629   8.156  0.7325  2.4802  2.5517
  740MOL0     H 2114   2.815   4.411   8.381 -3.6776 -2.2204  0.2775
  740MOL0     H 2115   2.745   4.379   8.218 -1.1823  0.5517 -2.0288
  740MOL0     H 2116   2.504   4.673   8.426  0.7312 -0.8435  3.2927
  740MOL0     H 2117   3.296   4.687   8.043 -0.0024  2.9639  1.1204
  740MOL0     H 2118   3.492   4.895   7.899 -0.6460 -0.0551 -2.2619
  740MOL0     H 2119   3.510   4.719   7.958 -1.7604 -0.4267  0.2690
  740MOL0     H 2120   3.551   4.774   7.799 -0.9891 -4.3640 -0.4484
  741MOL0     O 2121   6.824   4.927   4.624 -0.6526  0.2225  0.7058
  741MOL0     C 2122   6.852   5.004   4.532  0.2992  0.2754 -0.8421
  741MOL0     O 2123   6.776   5.112   4.498 -0.9202 -0.5321  0.5749
  741MOL0     C 2124   6.682   5.169   4.571 -0.0312  0.2313 -0.5869
  741MOL0     C 2125   6.577   5.248   4.514  0.1426  0.5384 -0.1261
  741MOL0     C 2126   6.480   5.312   4.605  0.3443  0.4372  1.1962
  741MOL0     C 2127   6.473   5.279   4.740  0.4720  0.0849 -0.1280
  741MOL0     O 2128   6.370   5.309   4.826  0.1219  0.6077  0.6052
  741MOL0     C 2129   6.306   5.432   4.801  0.5446 -0.1533 -0.1734
  741MOL0     C 2130   6.205   5.447   4.924 -0.0942  0.0310  0.4181
  741MOL0     C 2131   6.225   5.585   4.997  0.2740  0.0919 -0.4763
  741MOL0     C 2132   6.149   5.579   5.132 -0.6492  0.3179  1.5747
  741MOL0     C 2133   6.120   5.708   5.204  0.7699 -0.5305  0.3414
  741MOL0     C 2134   6.233   5.780   5.259 -0.7383 -0.2389  0.4477
  741MOL0     C 2135   6.222   5.930   5.287 -0.3081 -0.4320 -0.8030
  741MOL0     C 2136   6.107   5.955   5.394  0.2140 -0.0745 -0.0819
  741MOL0     N 2137   6.086   6.094   5.409 -1.1540 -0.8468  0.1957
  741MOL0     C 2138   6.046   6.177   5.306  0.1630  0.2643 -0.2049
  741MOL0     C 2139   6.016   6.289   5.377 -0.5491  0.1504 -0.7870
  741MOL0     C 2140   5.943   6.412   5.318  0.1514  0.9484  0.1048
  741MOL0     C 2141   6.030   6.536   5.333 -0.0801  0.1348 -0.2323
  741MOL0     C 2142   5.950   6.656   5.304 -0.0256 -0.4175  0.9464
  741MOL0     C 2143   6.041   6.773   5.331  0.0858  0.9122  0.8338
  741MOL0     O 2144   6.157   6.772   5.239 -0.1235 -0.4377  0.1038
  741MOL0     C 2145   6.266   6.854   5.255  0.0849  0.4062  0.7159
  741MOL0     C 2146   6.386   6.808   5.203  0.5326 -0.5164  0.2413
  741MOL0     C 2147   6.497   6.893   5.211 -0.0384 -0.4155  0.9126
  741MOL0     C 2148   6.616   6.835   5.136  0.1495 -0.0702  0.0315
  741MOL0     C 2149   6.492   7.018   5.278  0.6141 -0.9486 -0.2653
  741MOL0     C 2150   6.602   7.119   5.292  0.7603 -0.0977 -0.2932
  741MOL0     O 2151   6.571   7.246   5.287  0.0502 -0.5987 -0.3063
  741MOL0     C 2152   6.661   7.350   5.281  0.3062 -0.1595 -0.4205
  741MOL0     C 2153   6.799   7.343   5.306 -0.5663 -0.1773 -0.0170
  741MOL0     C 2154   6.877   7.462   5.285 -0.5145 -0.0425  0.6435
  741MOL0     C 2155   6.813   7.578   5.239 -0.1865  0.3036 -0.6333
  741MOL0     O 2156   6.882   7.692   5.217  0.6110  0.8866 -0.4689
  741MOL0     C 2157   7.015   7.679   5.164  0.4881  0.4243  0.1296
  741MOL0     C 2158   7.039   7.791   5.067 -0.4378  0.1430 -0.7130
  741MOL0     C 2159   7.060   7.925   5.127 -0.5955  0.4869 -0.0797
  741MOL0     C 2160   7.088   8.032   5.013  0.0131 -0.9850  0.9101
  741MOL0     C 2161   7.084   8.180   5.061  0.3570  0.0776  0.8028
  741MOL0     C 2162   7.216   8.213   5.137 -0.3145  0.1366  0.5151
  741MOL0     C 2163   7.340   8.211   5.051 -0.0694  0.4152 -0.4668
  741MOL0     C 2164   7.383   8.346   5.004  0.3176  0.6886 -0.5326
  741MOL0    Cl 2165   7.476   8.434   5.136  0.3803  0.2206  0.0537
  741MOL0     C 2166   6.675   7.580   5.229 -0.7393 -0.7417 -0.2331
  741MOL0     C 2167   6.603   7.464   5.246  0.7432 -0.2452  0.1208
  741MOL0     O 2168   6.714   7.076   5.280  0.2668 -0.2451  0.1364
  741MOL0     C 2169   6.370   7.055   5.338 -0.5899  0.4596 -0.6186
  741MOL0     C 2170   6.258   6.971   5.327 -0.5068 -0.2713  0.4451
  741MOL0     N 2171   6.046   6.277   5.511 -0.0941  0.4880 -0.4323
  741MOL0     N 2172   6.092   6.161   5.527  0.5806  0.3751  0.9586
  741MOL0     C 2173   6.565   5.191   4.793  0.1995 -0.3872  0.4863
  741MOL0     C 2174   6.660   5.141   4.710  1.2309 -0.1852 -0.6543
  741MOL0     C 2175   6.961   4.968   4.440 -1.0761 -0.4507 -0.6341
  741MOL0     C 2176   7.027   5.071   4.384  0.6382  0.1894 -0.0741
  741MOL0     C 2177   7.139   5.049   4.297 -0.1023 -0.1325  0.2826
  741MOL0     C 2178   7.168   4.917   4.256  0.6237 -0.4041 -0.4766
  741MOL0     O 2179   7.267   4.891   4.171 -0.7979  0.1515 -0.0692
  741MOL0     C 2180   7.391   4.896   4.243  0.1185  0.0532 -0.7274
  741MOL0     C 2181   7.491   4.848   4.147 -0.2708 -0.8218  1.0076
  741MOL0     C 2182   7.628   4.883   4.183  0.3308 -0.2112 -0.0566
  741MOL0     C 2183   7.656   4.814   4.318  0.0012 -0.1146 -1.3249
  741MOL0     C 2184   7.794   4.810   4.355 -0.3831  0.0256  0.2342
  741MOL0     C 2185   7.912   4.815   4.394 -0.6514 -0.3030  0.2565
  741MOL0     C 2186   7.084   4.815   4.300 -0.5703  0.2057 -0.7982
  741MOL0     C 2187   6.985   4.834   4.401 -0.2908  0.1782  0.7809
  741MOL0     C 2188   6.899   4.718   4.453 -0.3729 -0.0218  0.7255
  741MOL0     H 2189   6.572   5.260   4.406  2.2844 -0.6851 -0.4172
  741MOL0     H 2190   6.396   5.364   4.558  1.1917 -1.8158 -3.3529
  741MOL0     H 2191   6.258   5.441   4.704  0.5547  3.5761  0.0456
  741MOL0     H 2192   6.367   5.521   4.818 -0.8107  0.6992  0.4190
  741MOL0     H 2193   6.103   5.442   4.886  0.2363 -0.5529 -0.4174
  741MOL0     H 2194   6.215   5.361   4.990 -1.3228 -1.1502 -0.8912
  741MOL0     H 2195   6.331   5.610   5.008 -0.1678  3.2427 -2.1215
  741MOL0     H 2196   6.186   5.665   4.932  1.2423 -0.9102 -2.3805
  741MOL0     H 2197   6.056   5.524   5.113 -0.6769 -0.4061  3.6383
  741MOL0     H 2198   6.200   5.513   5.202  0.1089  0.2039  0.9312
  741MOL0     H 2199   6.058   5.695   5.293  0.3034  3.3438  0.7556
  741MOL0     H 2200   6.053   5.768   5.143 -1.8983 -1.6262  2.0103
  741MOL0     H 2201   6.273   5.727   5.346  1.2015  0.4641  0.0578
  741MOL0     H 2202   6.317   5.773   5.189 -1.0759  1.7888 -0.2325
  741MOL0     H 2203   6.218   5.977   5.188  0.3147  0.9072 -0.2210
  741MOL0     H 2204   6.320   5.955   5.327  0.5205 -4.1218 -0.1461
  741MOL0     H 2205   6.013   5.909   5.360  0.9086 -1.7164  0.1240
  741MOL0     H 2206   6.132   5.903   5.486  0.1930  1.3141  0.7292
  741MOL0     H 2207   6.027   6.142   5.205  1.6598 -0.3916 -0.2882
  741MOL0     H 2208   5.849   6.420   5.373 -0.2921  1.8604 -0.7584
  741MOL0     H 2209   5.915   6.406   5.212  2.1901  3.7644 -0.7379
  741MOL0     H 2210   6.080   6.536   5.430  0.7579  1.0438 -0.6322
  741MOL0     H 2211   6.105   6.536   5.253  1.1168 -0.4050  0.8581
  741MOL0     H 2212   5.928   6.673   5.198  1.2898 -1.3494  0.5003
  741MOL0     H 2213   5.866   6.669   5.373 -1.6738  0.5202 -1.1332
  741MOL0     H 2214   5.988   6.865   5.308  0.9122  1.1636 -0.1094
  741MOL0     H 2215   6.068   6.763   5.437 -0.8325 -1.0899  0.9289
  741MOL0     H 2216   6.380   6.724   5.134 -3.2164 -1.0153  0.9738
  741MOL0     H 2217   6.597   6.728   5.137 -2.2318  0.2851  1.4217
  741MOL0     H 2218   6.706   6.852   5.195  0.8049 -1.6486 -0.4861
  741MOL0     H 2219   6.633   6.879   5.037  0.6694  0.7675  0.4850
  741MOL0     H 2220   6.851   7.260   5.352 -0.2698  0.6077  1.0863
  741MOL0     H 2221   6.985   7.466   5.298 -0.3606  0.5637 -0.6428
  741MOL0     H 2222   7.073   7.673   5.256 -0.5965  1.3790  0.9073
  741MOL0     H 2223   7.024   7.586   5.107  2.1012  0.7202 -0.1629
  741MOL0     H 2224   7.137   7.757   5.033  1.0302  0.7062  2.6033
  741MOL0     H 2225   6.972   7.798   4.980  0.0935 -1.3227 -1.2735
  741MOL0     H 2226   7.154   7.903   5.179 -1.6655 -0.7190  1.4459
  741MOL0     H 2227   6.991   7.959   5.205  1.1956  0.7834  1.4582
  741MOL0     H 2228   7.005   8.016   4.943 -0.9603 -0.5918  1.9487
  741MOL0     H 2229   7.176   8.007   4.954 -0.6414  1.8350 -1.4992
  741MOL0     H 2230   7.074   8.261   4.988  3.2515  0.3564  0.6012
  741MOL0     H 2231   6.990   8.190   5.117 -0.2744 -0.1116 -0.2100
  741MOL0     H 2232   7.238   8.135   5.211  4.4989 -0.6063 -1.3262
  741MOL0     H 2233   7.207   8.306   5.195  0.4533  0.4982  0.0716
  741MOL0     H 2234   7.316   8.151   4.963 -1.0692 -0.2004  0.2126
  741MOL0     H 2235   7.418   8.170   5.116  0.0112  1.7510  0.3210
  741MOL0     H 2236   7.297   8.411   4.981  0.6890  0.1489 -3.9750
  741MOL0     H 2237   7.452   8.329   4.921  2.1787  2.5417  0.5426
  741MOL0     H 2238   6.621   7.669   5.199  1.8948  0.7755 -0.7569
  741MOL0     H 2239   6.501   7.481   5.216  1.0583 -0.7922 -1.4000
  741MOL0     H 2240   6.359   7.151   5.388  0.4797  0.3570 -0.1585
  741MOL0     H 2241   6.162   7.002   5.367 -1.1881  0.5889 -1.7443
  741MOL0     H 2242   6.563   5.164   4.898  0.1422 -0.2456  0.5220
  741MOL0     H 2243   6.706   5.057   4.762  1.6786 -0.9505 -2.2130
  741MOL0     H 2244   6.991   5.169   4.413  1.3772  0.8894 -1.4279
  741MOL0     H 2245   7.195   5.139   4.273  1.0741 -1.2309 -1.2991
  741MOL0     H 2246   7.410   5.002   4.263 -2.6659  0.6752 -0.8629
  741MOL0     H 2247   7.386   4.838   4.335 -0.6892  2.3339  0.7659
  741MOL0     H 2248   7.471   4.894   4.051  0.3347  1.0346  1.7318
  741MOL0     H 2249   7.467   4.741   4.136 -3.7112 -0.0310 -0.2900
  741MOL0     H 2250   7.693   4.851   4.100  3.0502  1.6644  1.1727
  741MOL0     H 2251   7.628   4.992   4.194  1.9619 -0.2666  0.8183
  741MOL0     H 2252   7.616   4.712   4.318 -1.9152  0.5901 -0.4154
  741MOL0     H 2253   7.607   4.861   4.404 -1.2929  0.9676 -2.6247
  741MOL0     H 2254   8.007   4.841   4.435 -0.0832  1.2363 -1.8564
  741MOL0     H 2255   7.071   4.718   4.254  1.5049  0.8904 -3.0244
  741MOL0     H 2256   6.794   4.747   4.465 -0.9390 -1.2611 -0.8112
  741MOL0     H 2257   6.900   4.640   4.376  0.6465  0.7895 -0.1187
  741MOL0     H 2258   6.936   4.689   4.551 -2.1116 -2.1796  0.8373
  742MOL0     O 2259   6.322   9.772   9.390  0.1294 -0.2310  0.8884
  742MOL0     C 2260   6.249   9.864   9.420  0.4155  0.2534 -0.0099
  742MOL0     O 2261   6.293   9.983   9.452  0.0945 -0.6638 -0.2043
  742MOL0     C 2262   6.417   9.997   9.519 -0.8755  0.5048 -0.4997
  742MOL0     C 2263   6.504  10.095   9.482  0.4837  0.2331 -0.6477
  742MOL0     C 2264   6.634  10.101   9.554  0.4924 -0.0413 -0.4026
  742MOL0     C 2265   6.673  10.019   9.658 -0.4563  0.4204 -0.1545
  742MOL0     O 2266   6.794  10.048   9.720  0.2256  0.3353 -0.5137
  742MOL0     C 2267   6.787  10.118   9.851  0.0763 -0.0256 -0.0703
  742MOL0     C 2268   6.929  10.122   9.914  0.6071 -1.0563 -0.3755
  742MOL0     C 2269   6.932  10.211  10.041 -0.2438  0.7712  0.5381
  742MOL0     C 2270   6.905  10.365  10.023  0.0102  0.1631  1.0563
  742MOL0     C 2271   6.940  10.437  10.156 -0.4425 -0.8538 -0.2213
  742MOL0     C 2272   7.094  10.458  10.176  0.4943  0.9098 -0.8620
  742MOL0     C 2273   7.135  10.535  10.296 -0.3592  0.3745 -0.3866
  742MOL0     C 2274   7.284  10.555  10.312 -0.0272  0.1816  0.4510
  742MOL0     N 2275   7.335  10.583  10.451  1.3302 -0.5561 -0.0987
  742MOL0     C 2276   7.402  10.488  10.530 -1.0898 -0.8370 -0.1971
  742MOL0     C 2277   7.384  10.539  10.655 -0.3928 -0.1087 -1.4077
  742MOL0     C 2278   7.441  10.483  10.780  0.4618  0.9129  0.5641
  742MOL0     C 2279   7.355  10.370  10.840 -0.4858 -0.0006 -0.1163
  742MOL0     C 2280   7.420  10.292  10.952 -0.5153 -0.9181 -0.5383
  742MOL0     C 2281   7.449  10.380  11.077  0.0823  0.1280 -0.2873
  742MOL0     O 2282   7.539  10.313  11.167 -0.2900  0.4658  0.4014
  742MOL0     C 2283   7.675  10.320  11.153 -0.8382  0.2165 -0.1442
  742MOL0     C 2284   7.749  10.403  11.067 -0.4502  0.3458  0.0297
  742MOL0     C 2285   7.886  10.407  11.063 -0.2028 -0.0171  0.6256
  742MOL0     C 2286   7.946  10.502  10.964 -0.5907 -0.5744  0.3076
  742MOL0     C 2287   7.964  10.325  11.159  1.2850  0.7253  0.2657
  742MOL0     C 2288   8.104  10.353  11.178 -0.0819  0.3982 -0.8618
  742MOL0     O 2289   8.148  10.323  11.308  0.3464 -0.0926  0.2347
  742MOL0     C 2290   8.283  10.347  11.335 -0.2692  0.8815  1.1326
  742MOL0     C 2291   8.322  10.437  11.433  0.1124  0.3813  0.6040
  742MOL0     C 2292   8.460  10.448  11.449  0.2274 -0.7688  0.1041
  742MOL0     C 2293   8.552  10.370  11.389 -1.2701  0.6897  0.1362
  742MOL0     O 2294   8.680  10.391  11.427  0.9473 -1.2271 -0.2905
  742MOL0     C 2295   8.776  10.331  11.353  0.1224  0.0483  0.4326
  742MOL0     C 2296   8.913  10.355  11.378 -0.2742 -0.1066  0.2496
  742MOL0     C 2297   8.942  10.307  11.519  0.1013  0.3298 -0.7666
  742MOL0     C 2298   9.095  10.309  11.540  0.8687 -0.0817  0.3474
  742MOL0     C 2299   9.124  10.211  11.652  0.0790  0.3881 -0.4439
  742MOL0     C 2300   9.258  10.249  11.719 -0.1671 -0.4027 -0.5713
  742MOL0     C 2301   9.331  10.130  11.785  0.8102 -0.0587  0.0556
  742MOL0     C 2302   9.485  10.150  11.778 -0.5704  0.0838 -0.1845
  742MOL0    Cl 2303   9.517  10.299  11.880  0.2475 -0.4068  0.2412
  742MOL0     C 2304   8.512  10.275  11.298 -0.3873  0.0536 -1.1537
  742MOL0     C 2305   8.379  10.259  11.277  0.1324  0.1986 -0.2329
  742MOL0     O 2306   8.177  10.407  11.099  0.4548  0.1152  0.0500
  742MOL0     C 2307   7.881  10.260  11.256  0.0359  0.3937  0.1898
  742MOL0     C 2308   7.745  10.255  11.259  0.9560  0.0658  0.5696
  742MOL0     N 2309   7.306  10.656  10.659 -0.1928 -0.4141  0.1209
  742MOL0     N 2310   7.277  10.673  10.531 -0.0107  0.4002  0.9278
  742MOL0     C 2311   6.569   9.929   9.700  0.1026  0.6475 -0.0876
  742MOL0     C 2312   6.441   9.926   9.640  0.7109 -0.4203  0.3972
  742MOL0     C 2313   6.102   9.864   9.388  0.3358  0.0050  0.4130
  742MOL0     C 2314   6.033   9.987   9.393 -1.5160 -0.2849 -0.5365
  742MOL0     C 2315   5.894   9.987   9.382 -0.0297 -0.1706 -0.7737
  742MOL0     C 2316   5.820   9.876   9.350 -0.3182  0.6156 -0.1803
  742MOL0     O 2317   5.679   9.877   9.332 -0.3554  0.2782  0.9076
  742MOL0     C 2318   5.598   9.992   9.371 -0.6601 -0.4016  0.2133
  742MOL0     C 2319   5.587  10.087   9.246 -0.1904  0.6403  0.1219
  742MOL0     C 2320   5.512  10.208   9.284 -1.0375 -1.3984 -0.1231
  742MOL0     C 2321   5.482  10.298   9.160  0.1301 -0.0248 -0.0674
  742MOL0     C 2322   5.467  10.435   9.194  0.3494  0.0415 -0.2093
  742MOL0     C 2323   5.457  10.548   9.235  0.3957  0.0112 -0.2445
  742MOL0     C 2324   5.891   9.763   9.324  0.2346 -0.0782 -0.6461
  742MOL0     C 2325   6.024   9.754   9.345 -0.6805  0.0217  0.3790
  742MOL0     C 2326   6.088   9.611   9.336  0.6783 -0.4073 -0.4084
  742MOL0     H 2327   6.490  10.146   9.388  2.1353  1.3818 -0.3131
  742MOL0     H 2328   6.711  10.172   9.524 -2.3584  4.4420  1.8910
  742MOL0     H 2329   6.725  10.061   9.922 -1.2688  0.3040 -0.9491
  742MOL0     H 2330   6.742  10.217   9.845 -1.0532 -0.3561  1.9951
  742MOL0     H 2331   6.976  10.024   9.929  0.9953 -1.1465 -1.9782
  742MOL0     H 2332   6.987  10.165   9.832 -1.2723  1.9561 -0.2658
  742MOL0     H 2333   6.854  10.174  10.108 -0.6097 -3.6544 -2.0013
  742MOL0     H 2334   7.028  10.195  10.091 -1.2399 -0.3887  2.1902
  742MOL0     H 2335   6.978  10.405   9.951 -0.9032  1.0632  0.5990
  742MOL0     H 2336   6.806  10.392   9.986  0.8087 -0.1230 -1.5048
  742MOL0     H 2337   6.899  10.393  10.247 -1.4038 -1.9576 -1.1464
  742MOL0     H 2338   6.895  10.536  10.144 -1.9336 -1.4507  0.2449
  742MOL0     H 2339   7.137  10.359  10.194 -1.5228 -0.0042 -0.8134
  742MOL0     H 2340   7.134  10.500  10.083 -1.0907  1.1397 -1.4731
  742MOL0     H 2341   7.103  10.473  10.381  1.5598 -2.4239 -1.5432
  742MOL0     H 2342   7.086  10.633  10.295  2.3547  1.8620  0.4517
  742MOL0     H 2343   7.344  10.469  10.279 -0.5386 -1.1046  2.7118
  742MOL0     H 2344   7.300  10.645  10.252  0.7814  0.2730  0.7873
  742MOL0     H 2345   7.465  10.403  10.505 -1.0338 -0.0654 -3.0915
  742MOL0     H 2346   7.446  10.570  10.846 -1.5248  0.5686  1.2413
  742MOL0     H 2347   7.542  10.447  10.758 -0.0839 -0.2139 -0.1927
  742MOL0     H 2348   7.263  10.415  10.879 -0.6368  0.9661 -1.5336
  742MOL0     H 2349   7.340  10.292  10.765  1.0657 -1.2089  0.7497
  742MOL0     H 2350   7.359  10.202  10.966 -1.7331 -0.4743 -2.6031
  742MOL0     H 2351   7.515  10.255  10.911  0.0110  0.1309 -0.3043
  742MOL0     H 2352   7.496  10.477  11.062 -2.0116  1.3638  0.7494
  742MOL0     H 2353   7.355  10.404  11.127  0.6781 -0.6436  1.2669
  742MOL0     H 2354   7.693  10.452  10.988  0.0565  0.0441 -0.5144
  742MOL0     H 2355   7.877  10.515  10.880  1.4544  0.3683 -1.3155
  742MOL0     H 2356   8.030  10.463  10.906 -1.9387  0.4710 -2.5223
  742MOL0     H 2357   7.967  10.602  11.003  0.0381 -1.5812  2.7111
  742MOL0     H 2358   8.247  10.485  11.495 -3.2783 -1.3805 -1.7927
  742MOL0     H 2359   8.480  10.523  11.525  0.0527 -0.0718 -0.5280
  742MOL0     H 2360   8.760  10.225  11.376  1.5963 -0.9196 -2.5240
  742MOL0     H 2361   8.752  10.345  11.247 -1.6656  1.4746  0.9747
  742MOL0     H 2362   8.971  10.289  11.313 -1.2875  2.1868 -3.2817
  742MOL0     H 2363   8.948  10.459  11.373  3.1514 -1.1287  0.5297
  742MOL0     H 2364   8.913  10.202  11.507 -0.3734  0.2669  0.6190
  742MOL0     H 2365   8.888  10.357  11.601  3.2857  0.4116  1.4649
  742MOL0     H 2366   9.121  10.408  11.580  1.0317  2.1289 -4.5180
  742MOL0     H 2367   9.152  10.280  11.451  1.9474  0.3858  0.8719
  742MOL0     H 2368   9.057  10.217  11.738  0.7924  0.7943  0.0919
  742MOL0     H 2369   9.127  10.109  11.612  0.8419  0.0817  0.3757
  742MOL0     H 2370   9.239  10.330  11.789  2.2780  0.5972 -0.9697
  742MOL0     H 2371   9.334  10.291  11.653 -0.2064  1.1051  0.3169
  742MOL0     H 2372   9.296  10.036  11.740 -1.7029  0.9978 -0.3225
  742MOL0     H 2373   9.307  10.120  11.892 -0.6318 -1.7639 -0.3827
  742MOL0     H 2374   9.515  10.169  11.675 -0.7661  1.1473 -0.0552
  742MOL0     H 2375   9.539  10.067  11.825 -1.6029 -0.3811  0.2173
  742MOL0     H 2376   8.583  10.219  11.239  0.2191  2.9816 -3.4223
  742MOL0     H 2377   8.356  10.207  11.185  0.3205 -3.9782  1.8302
  742MOL0     H 2378   7.926  10.214  11.343 -0.3719 -2.7204 -1.1049
  742MOL0     H 2379   7.689  10.214  11.342 -2.1937  1.5304 -0.6566
  742MOL0     H 2380   6.592   9.871   9.789  2.2578 -1.5685 -1.9299
  742MOL0     H 2381   6.357   9.879   9.690 -0.6645 -1.8935 -2.9492
  742MOL0     H 2382   6.075  10.086   9.398 -0.6140 -0.6176 -1.3511
  742MOL0     H 2383   5.855  10.087   9.398  1.3074  0.2251  0.2707
  742MOL0     H 2384   5.497   9.954   9.389 -1.5136  0.8677 -1.5862
  742MOL0     H 2385   5.638  10.030   9.465 -1.7115  1.2338  0.0359
  742MOL0     H 2386   5.527  10.036   9.170 -0.1939 -0.4023  0.8070
  742MOL0     H 2387   5.680  10.105   9.191  2.0597 -4.7398  1.5014
  742MOL0     H 2388   5.417  10.177   9.329 -0.5741  0.0890  2.0938
  742MOL0     H 2389   5.573  10.264   9.356 -0.4440 -0.6306 -1.1924
  742MOL0     H 2390   5.396  10.263   9.104 -3.7913  2.9551  3.4689
  742MOL0     H 2391   5.567  10.298   9.091  0.9353  2.0048  0.8275
  742MOL0     H 2392   5.441  10.648   9.270  4.0934  1.1376 -1.2295
  742MOL0     H 2393   5.840   9.669   9.305  1.8719 -1.3157  0.7303
  742MOL0     H 2394   6.025   9.547   9.274 -0.0096  1.4837 -1.7702
  742MOL0     H 2395   6.188   9.615   9.292  2.0420  2.2673  2.5222
  742MOL0     H 2396   6.094   9.546   9.424 -0.0691 -0.4287 -0.3622
  743MOL0     O 2397   4.488   2.366   6.826  0.2813  0.0515  0.1130
  743MOL0     C 2398   4.506   2.310   6.718  0.3541 -0.0510 -0.1024
  743MOL0     O 2399   4.428   2.334   6.610  0.2665  0.2493 -0.0548
  743MOL0     C 2400   4.307   2.387   6.642  0.3908 -0.6158 -0.2958
  743MOL0     C 2401   4.284   2.519   6.605  0.0194 -0.4249 -0.0718
  743MOL0     C 2402   4.156   2.579   6.618  0.0429 -0.3770 -0.4451
  743MOL0     C 2403   4.053   2.499   6.673  0.3414  0.5075  0.1964
  743MOL0     O 2404   3.932   2.567   6.699  0.0827  0.7143 -0.0685
  743MOL0     C 2405   3.832   2.494   6.768 -0.0833  0.3095 -0.8922
  743MOL0     C 2406   3.697   2.568   6.764 -0.6847  0.5039 -0.0226
  743MOL0     C 2407   3.590   2.490   6.844  1.0169 -0.7311 -0.1573
  743MOL0     C 2408   3.462   2.572   6.884  0.0124 -0.6178 -0.5064
  743MOL0     C 2409   3.379   2.614   6.766 -0.0935  0.6462 -0.1868
  743MOL0     C 2410   3.232   2.622   6.808 -0.3513  0.5638  0.2413
  743MOL0     C 2411   3.156   2.653   6.676  0.5174  0.2360 -0.2636
  743MOL0     C 2412   3.008   2.670   6.693 -0.2500 -0.1200 -0.6392
  743MOL0     N 2413   2.976   2.797   6.767 -0.3584  0.3646 -0.6973
  743MOL0     C 2414   2.974   2.920   6.710 -0.3520 -0.5115 -0.6624
  743MOL0     C 2415   2.924   2.992   6.815  0.1058 -0.0086 -0.1737
  743MOL0     C 2416   2.892   3.135   6.814 -0.3625  0.0833 -0.5939
  743MOL0     C 2417   2.775   3.162   6.905 -0.5429 -0.3689 -0.0150
  743MOL0     C 2418   2.722   3.306   6.882 -0.9023  1.4794  0.1127
  743MOL0     C 2419   2.589   3.316   6.942 -0.2473  0.5682 -0.0831
  743MOL0     O 2420   2.498   3.359   6.842 -0.7146 -1.3199 -0.0768
  743MOL0     C 2421   2.384   3.423   6.884  0.5788 -0.0994  0.1670
  743MOL0     C 2422   2.336   3.409   7.012  0.3009  0.1986  0.4799
  743MOL0     C 2423   2.213   3.462   7.051  0.8055  0.0913  0.2564
  743MOL0     C 2424   2.196   3.437   7.196  0.0430  0.4658  0.5433
  743MOL0     C 2425   2.138   3.534   6.957  0.1555 -0.1188  0.3508
  743MOL0     C 2426   2.005   3.598   6.995 -0.2287  0.4341  0.6431
  743MOL0     O 2427   1.952   3.682   6.899 -0.2823 -0.4858 -0.4120
  743MOL0     C 2428   1.880   3.794   6.933  0.4502 -0.2507 -0.5676
  743MOL0     C 2429   1.751   3.779   6.994  0.8216 -0.5812 -0.5731
  743MOL0     C 2430   1.674   3.890   7.032 -0.0371 -0.2901  0.1909
  743MOL0     C 2431   1.721   4.023   6.993  0.8953 -0.2868  0.1477
  743MOL0     O 2432   1.653   4.139   7.020  0.0885 -0.5545 -0.0763
  743MOL0     C 2433   1.521   4.153   6.956  1.1578  0.4574 -0.5206
  743MOL0     C 2434   1.491   4.303   6.993  0.8229 -0.2529  0.2024
  743MOL0     C 2435   1.368   4.367   6.938  0.3777  0.9156  0.5273
  743MOL0     C 2436   1.375   4.408   6.787  0.0286  0.9017  0.0044
  743MOL0     C 2437   1.278   4.323   6.701 -0.2337 -0.0569 -1.1883
  743MOL0     C 2438   1.132   4.355   6.721 -0.0738 -0.3038 -0.2155
  743MOL0     C 2439   1.032   4.289   6.621 -0.1946 -0.2654 -0.1300
  743MOL0     C 2440   0.888   4.317   6.671  0.1753  0.2442  0.2725
  743MOL0    Cl 2441   0.828   4.187   6.779 -0.3844  0.1903 -0.4570
  743MOL0     C 2442   1.850   4.033   6.941  0.1356 -0.2654 -0.0727
  743MOL0     C 2443   1.936   3.927   6.923 -0.0526  0.1166  0.3707
  743MOL0     O 2444   1.942   3.563   7.094  0.0407 -0.1482 -0.6522
  743MOL0     C 2445   2.190   3.548   6.828 -0.5562 -0.0986 -0.6149
  743MOL0     C 2446   2.315   3.493   6.793  1.3329 -0.0953  0.0432
  743MOL0     N 2447   2.930   2.922   6.932 -1.0208  0.4784  0.2562
  743MOL0     N 2448   2.947   2.800   6.902 -0.1961  0.4737  0.8402
  743MOL0     C 2449   4.075   2.361   6.716 -0.0420  0.1285  1.0966
  743MOL0     C 2450   4.203   2.303   6.699 -0.1134  0.1488 -0.6258
  743MOL0     C 2451   4.634   2.239   6.702  0.3169 -1.0480 -1.4435
  743MOL0     C 2452   4.674   2.171   6.820 -0.1663 -0.6438 -0.3086
  743MOL0     C 2453   4.793   2.092   6.816  0.1208 -0.7192  0.0752
  743MOL0     C 2454   4.881   2.099   6.712 -0.7051  0.3764  0.9119
  743MOL0     O 2455   4.988   2.020   6.726 -0.3447 -0.0422  0.1406
  743MOL0     C 2456   5.074   1.992   6.618  0.2750  0.2641 -0.0478
  743MOL0     C 2457   5.202   1.927   6.680 -0.3550 -0.3784  0.6802
  743MOL0     C 2458   5.310   1.904   6.570  0.0038 -0.3445 -0.3392
  743MOL0     C 2459   5.441   1.880   6.633  0.2413  0.2976 -0.9499
  743MOL0     C 2460   5.555   1.899   6.548  0.3944 -0.9005 -0.3631
  743MOL0     C 2461   5.654   1.926   6.480 -0.4136 -0.1428 -0.1224
  743MOL0     C 2462   4.842   2.159   6.601 -0.2304 -0.5895 -0.0819
  743MOL0     C 2463   4.727   2.237   6.592 -0.0369 -0.1828  0.7476
  743MOL0     C 2464   4.713   2.305   6.456 -0.1211 -0.4180 -0.4531
  743MOL0     H 2465   4.372   2.572   6.570 -0.5033  1.9581  1.9659
  743MOL0     H 2466   4.142   2.682   6.586 -0.6027 -0.5890 -0.8660
  743MOL0     H 2467   3.862   2.466   6.869  0.1868 -0.7787 -1.2586
  743MOL0     H 2468   3.803   2.401   6.717 -1.4184  0.9854 -1.4040
  743MOL0     H 2469   3.699   2.667   6.809 -0.3898 -0.6986  2.7892
  743MOL0     H 2470   3.662   2.571   6.660 -1.4058 -1.1481  0.1410
  743MOL0     H 2471   3.550   2.400   6.796 -3.6335 -0.5128  2.6527
  743MOL0     H 2472   3.639   2.455   6.935 -1.6038 -0.5123  1.4644
  743MOL0     H 2473   3.398   2.507   6.945 -0.3466  0.4954  0.3347
  743MOL0     H 2474   3.490   2.660   6.944  2.8340 -1.8138  0.1237
  743MOL0     H 2475   3.390   2.533   6.693  3.5364 -0.9747  1.9025
  743MOL0     H 2476   3.412   2.709   6.725  0.7006  0.2908 -0.3834
  743MOL0     H 2477   3.189   2.535   6.858 -0.9423  0.0971 -1.0513
  743MOL0     H 2478   3.230   2.705   6.880 -1.3855  2.4872 -1.8537
  743MOL0     H 2479   3.173   2.583   6.594 -1.2522  0.9335 -1.2739
  743MOL0     H 2480   3.195   2.752   6.653  4.4268 -1.2010 -0.5629
  743MOL0     H 2481   2.949   2.652   6.603 -1.4269 -3.7675  0.6975
  743MOL0     H 2482   2.982   2.586   6.757  0.4067 -0.2186 -0.4928
  743MOL0     H 2483   2.992   2.956   6.610 -0.0660 -0.3594 -0.5582
  743MOL0     H 2484   2.880   3.175   6.713  3.0265  1.3947 -0.6130
  743MOL0     H 2485   2.978   3.188   6.857  0.9787 -2.7663  0.4899
  743MOL0     H 2486   2.702   3.083   6.884 -1.1633 -0.7474  3.1043
  743MOL0     H 2487   2.793   3.157   7.012 -2.2205  1.6561  0.4413
  743MOL0     H 2488   2.798   3.378   6.913 -0.7506  0.2851  2.8228
  743MOL0     H 2489   2.713   3.325   6.775 -0.1435  0.4947 -0.1385
  743MOL0     H 2490   2.548   3.221   6.979 -0.1973  0.9856  1.0887
  743MOL0     H 2491   2.600   3.394   7.018 -0.0196  1.8552 -1.3871
  743MOL0     H 2492   2.394   3.364   7.091 -0.5517 -1.7549  0.0584
  743MOL0     H 2493   2.292   3.446   7.248  3.2451  1.7381 -4.7974
  743MOL0     H 2494   2.145   3.340   7.208 -0.9537  1.0774  1.4694
  743MOL0     H 2495   2.121   3.501   7.243 -3.2125 -1.7352 -1.2607
  743MOL0     H 2496   1.704   3.681   6.997 -1.3502  0.4207  0.0135
  743MOL0     H 2497   1.582   3.867   7.083 -0.3904  0.7743  0.0488
  743MOL0     H 2498   1.535   4.151   6.848  0.3774 -0.8640 -0.6203
  743MOL0     H 2499   1.443   4.090   7.001 -0.0408  2.1882 -0.0596
  743MOL0     H 2500   1.469   4.299   7.100 -3.5402  0.2801 -0.5150
  743MOL0     H 2501   1.575   4.369   6.969 -0.7901  1.3745 -1.1887
  743MOL0     H 2502   1.357   4.460   6.996  2.2506  0.8524  1.0409
  743MOL0     H 2503   1.280   4.306   6.958 -1.2357  2.9786  0.1477
  743MOL0     H 2504   1.472   4.386   6.742  0.1548 -0.1032  0.7398
  743MOL0     H 2505   1.354   4.511   6.758  0.4620  0.8034 -0.6743
  743MOL0     H 2506   1.305   4.345   6.598  5.1437 -1.8787 -0.4834
  743MOL0     H 2507   1.292   4.215   6.705 -2.0310 -0.4021 -2.9012
  743MOL0     H 2508   1.115   4.463   6.711  1.6204  0.0116  0.1207
  743MOL0     H 2509   1.100   4.315   6.817  2.3854 -0.5907  0.5485
  743MOL0     H 2510   1.060   4.183   6.616  1.8544  0.2760 -1.6278
  743MOL0     H 2511   1.042   4.344   6.527 -1.7291  3.3806  1.6479
  743MOL0     H 2512   0.816   4.317   6.589  1.8150  1.7014 -1.2705
  743MOL0     H 2513   0.876   4.418   6.712  0.6633  0.3045  0.2775
  743MOL0     H 2514   1.883   4.134   6.919 -3.2002  0.9931  0.1279
  743MOL0     H 2515   2.041   3.946   6.904  0.2316 -0.8429  0.9238
  743MOL0     H 2516   2.133   3.613   6.763 -1.5159 -1.4502 -1.1607
  743MOL0     H 2517   2.348   3.513   6.691  2.5273 -1.5080  0.1115
  743MOL0     H 2518   3.990   2.313   6.763 -2.1927  0.3215 -2.2780
  743MOL0     H 2519   4.230   2.205   6.738  1.5879  1.7726  2.7075
  743MOL0     H 2520   4.613   2.184   6.909  1.9560  0.3061  1.1268
  743MOL0     H 2521   4.825   2.031   6.900  0.5228  0.7599  1.0519
  743MOL0     H 2522   5.020   1.918   6.558 -0.3835 -0.0103  0.8609
  743MOL0     H 2523   5.094   2.081   6.558 -0.4456 -0.3721 -1.2760
  743MOL0     H 2524   5.168   1.826   6.706 -1.9915 -0.5179 -1.6583
  743MOL0     H 2525   5.242   1.979   6.768  0.8743 -0.0420 -0.0627
  743MOL0     H 2526   5.269   1.830   6.501 -1.6385  1.4501 -1.3969
  743MOL0     H 2527   5.325   1.999   6.518 -0.2468  1.1319  2.1353
  743MOL0     H 2528   5.450   1.778   6.671  1.5563  0.6276 -0.3340
  743MOL0     H 2529   5.467   1.949   6.713 -0.8343 -1.5137  1.0715
  743MOL0     H 2530   5.739   1.938   6.416 -0.0341  1.4627  0.6416
  743MOL0     H 2531   4.917   2.155   6.523 -0.6531 -2.0830 -0.4370
  743MOL0     H 2532   4.808   2.344   6.418 -0.8211  1.3467 -0.4601
  743MOL0     H 2533   4.675   2.230   6.385  0.5150 -1.8598  0.6869
  743MOL0     H 2534   4.636   2.382   6.460 -0.3642 -0.5581 -1.8855
  744MOL0     O 2535   5.448   7.807  11.162  0.8631 -0.9537  0.4174
  744MOL0     C 2536   5.442   7.739  11.269  0.0142 -0.5673  0.9323
  744MOL0     O 2537   5.516   7.629  11.299 -0.1176  0.1574  0.2445
  744MOL0     C 2538   5.616   7.594  11.210 -0.3872 -0.2818 -0.4853
  744MOL0     C 2539   5.599   7.590  11.069  0.2909 -0.1642 -0.5160
  744MOL0     C 2540   5.702   7.551  10.989  0.3907  0.5993 -0.1160
  744MOL0     C 2541   5.828   7.509  11.041  0.0568 -0.0350  0.0928
  744MOL0     O 2542   5.944   7.463  10.970 -0.0976  0.4934 -0.2318
  744MOL0     C 2543   5.942   7.447  10.825  0.0939  0.9767  0.4354
  744MOL0     C 2544   6.085   7.466  10.786 -0.1320  0.4038  1.0853
  744MOL0     C 2545   6.173   7.338  10.807 -0.4953  0.1723 -0.2417
  744MOL0     C 2546   6.326   7.363  10.796  1.0475 -0.5169  0.3566
  744MOL0     C 2547   6.398   7.230  10.817 -0.0281  0.0171 -0.3320
  744MOL0     C 2548   6.419   7.182  10.963  0.1042 -0.1267 -0.2818
  744MOL0     C 2549   6.456   7.294  11.065  0.1868  0.0034 -0.0078
  744MOL0     C 2550   6.595   7.346  11.035 -0.3783  0.3374  0.4383
  744MOL0     N 2551   6.706   7.269  11.090 -0.5348  0.0458  0.7194
  744MOL0     C 2552   6.750   7.266  11.223  0.1304 -0.2006  0.6682
  744MOL0     C 2553   6.801   7.142  11.233 -0.8246  0.0380  0.3466
  744MOL0     C 2554   6.854   7.068  11.352  0.8072  0.2657 -0.0321
  744MOL0     C 2555   6.990   7.125  11.369 -0.0023  0.8280 -0.0078
  744MOL0     C 2556   7.048   7.081  11.498 -1.0623  0.0959 -0.0702
  744MOL0     C 2557   7.202   7.089  11.504 -0.0700  0.2954  0.0374
  744MOL0     O 2558   7.257   7.224  11.474  0.0809  1.0425 -0.7630
  744MOL0     C 2559   7.392   7.239  11.478 -0.9586  0.0887 -0.1832
  744MOL0     C 2560   7.489   7.144  11.516 -0.3125  0.2543  0.4582
  744MOL0     C 2561   7.628   7.167  11.515  0.8927  0.8206  0.4289
  744MOL0     C 2562   7.716   7.052  11.562 -0.0612  0.2712 -0.2937
  744MOL0     C 2563   7.672   7.291  11.463  0.8491  0.3036 -0.4473
  744MOL0     C 2564   7.817   7.321  11.454 -0.3519 -0.6161 -0.0472
  744MOL0     O 2565   7.910   7.220  11.487  0.0723 -0.2991  0.9829
  744MOL0     C 2566   8.049   7.249  11.506 -0.0383  0.0401  0.3385
  744MOL0     C 2567   8.092   7.303  11.626  0.6132 -0.2315  0.5374
  744MOL0     C 2568   8.232   7.312  11.657  0.0516 -0.1463  0.4035
  744MOL0     C 2569   8.334   7.276  11.561  0.6356  0.7344 -0.2522
  744MOL0     O 2570   8.463   7.288  11.598 -0.0880  0.7649 -0.4447
  744MOL0     C 2571   8.531   7.356  11.492 -0.1779 -1.1307  0.5694
  744MOL0     C 2572   8.670   7.407  11.533  0.8194  0.3937 -0.2206
  744MOL0     C 2573   8.752   7.452  11.416  0.1817 -0.3972 -1.0343
  744MOL0     C 2574   8.747   7.601  11.376  0.8648 -0.0128  0.4403
  744MOL0     C 2575   8.620   7.642  11.302  0.2463  1.1329  0.6673
  744MOL0     C 2576   8.535   7.721  11.404 -0.1447  0.4397 -0.2944
  744MOL0     C 2577   8.418   7.790  11.344  0.7567 -0.2062 -1.2911
  744MOL0     C 2578   8.311   7.683  11.323  0.7768 -0.0785 -0.2031
  744MOL0    Cl 2579   8.222   7.658  11.483 -0.2507  0.0389  0.8589
  744MOL0     C 2580   8.286   7.232  11.433 -0.1726 -0.2069 -1.0092
  744MOL0     C 2581   8.146   7.217  11.407 -0.7380 -0.0125  0.1682
  744MOL0     O 2582   7.845   7.428  11.402  1.3602  0.2450 -0.7755
  744MOL0     C 2583   7.581   7.388  11.429 -0.2020  0.3234  0.3364
  744MOL0     C 2584   7.445   7.368  11.443 -0.5189 -0.4171  0.8197
  744MOL0     N 2585   6.805   7.085  11.107 -0.8424  0.2277  0.5087
  744MOL0     N 2586   6.758   7.170  11.024 -0.1481  0.1950  0.2829
  744MOL0     C 2587   5.842   7.508  11.182  0.0354 -0.1357 -0.3854
  744MOL0     C 2588   5.742   7.561  11.265 -0.1073 -0.2836 -0.3299
  744MOL0     C 2589   5.344   7.780  11.376 -0.6108 -0.4969 -0.8683
  744MOL0     C 2590   5.381   7.769  11.517 -0.5354  0.6516  0.4864
  744MOL0     C 2591   5.293   7.819  11.614 -0.1619 -0.1306  0.6370
  744MOL0     C 2592   5.182   7.896  11.573  0.0263 -0.6407  1.0379
  744MOL0     O 2593   5.091   7.955  11.662 -0.1285 -0.0374  0.7874
  744MOL0     C 2594   5.116   7.951  11.800 -0.6871  0.0535  0.3555
  744MOL0     C 2595   5.221   8.061  11.848  0.6178 -0.2737  0.7298
  744MOL0     C 2596   5.178   8.210  11.864 -0.1512 -0.2201  0.0299
  744MOL0     C 2597   5.059   8.225  11.956 -0.7049 -0.4582 -0.1379
  744MOL0     C 2598   5.098   8.165  12.088 -0.0413 -0.5503  0.9041
  744MOL0     C 2599   5.113   8.135  12.203 -0.5707 -0.6389  0.1400
  744MOL0     C 2600   5.149   7.908  11.442 -0.5139  0.5521 -0.0335
  744MOL0     C 2601   5.229   7.843  11.345 -0.1348 -0.8861  0.9373
  744MOL0     C 2602   5.172   7.870  11.204  0.1864  0.4275 -0.5662
  744MOL0     H 2603   5.503   7.611  11.025  0.0736  0.3259  0.1779
  744MOL0     H 2604   5.684   7.547  10.882  0.4442  3.7476 -0.3397
  744MOL0     H 2605   5.880   7.527  10.782 -0.9996  2.1705  3.9074
  744MOL0     H 2606   5.901   7.349  10.801 -0.3143  1.2012  0.1946
  744MOL0     H 2607   6.088   7.494  10.680  0.2922  1.7266  1.4212
  744MOL0     H 2608   6.132   7.550  10.839  2.1022 -0.4305  0.5732
  744MOL0     H 2609   6.167   7.305  10.911  0.9635  0.5371 -0.0109
  744MOL0     H 2610   6.144   7.265  10.731 -0.4230 -2.9041  2.4878
  744MOL0     H 2611   6.351   7.399  10.696  3.9087 -0.8938  0.8538
  744MOL0     H 2612   6.356   7.450  10.856  0.3245  1.4815 -2.0074
  744MOL0     H 2613   6.501   7.235  10.783  1.2408  0.3812  3.1427
  744MOL0     H 2614   6.345   7.149  10.767 -2.1797 -0.8058  2.9507
  744MOL0     H 2615   6.330   7.127  10.995  0.5815 -1.2585 -0.8387
  744MOL0     H 2616   6.503   7.112  10.967  1.3675  1.3637  3.4583
  744MOL0     H 2617   6.451   7.257  11.168  0.6283  1.5384  0.5949
  744MOL0     H 2618   6.382   7.375  11.066 -1.6004 -1.5456 -0.7932
  744MOL0     H 2619   6.610   7.357  10.927  0.7557 -2.9461  0.1521
  744MOL0     H 2620   6.600   7.446  11.080  2.2056  0.4153  0.1664
  744MOL0     H 2621   6.724   7.346  11.291  2.5195  0.4162  0.9601
  744MOL0     H 2622   6.856   6.962  11.328 -2.8741  0.0152  0.1031
  744MOL0     H 2623   6.802   7.071  11.448  2.2147  2.6965  0.7622
  744MOL0     H 2624   7.050   7.095  11.282 -1.2844  2.5789 -1.5723
  744MOL0     H 2625   6.983   7.234  11.365  0.3153  0.8160 -1.8350
  744MOL0     H 2626   7.012   7.147  11.578 -0.8916  1.2895 -0.9496
  744MOL0     H 2627   7.022   6.976  11.515 -3.3042  0.6829  0.4311
  744MOL0     H 2628   7.238   7.042  11.596  0.7282 -0.4390 -0.6444
  744MOL0     H 2629   7.236   7.029  11.420  1.3023  0.5291  0.4007
  744MOL0     H 2630   7.454   7.054  11.567 -3.4435  1.5639  0.7978
  744MOL0     H 2631   7.789   7.022  11.487 -1.1996 -2.0810 -0.5518
  744MOL0     H 2632   7.668   6.957  11.589 -0.6120 -0.2615 -2.8812
  744MOL0     H 2633   7.762   7.091  11.653 -1.5172  2.8297 -0.5485
  744MOL0     H 2634   8.018   7.346  11.693 -0.3733  0.4985 -0.9525
  744MOL0     H 2635   8.257   7.360  11.751 -0.0996  0.2524  0.2449
  744MOL0     H 2636   8.536   7.296  11.400 -1.3998  2.3931 -2.0144
  744MOL0     H 2637   8.471   7.442  11.461  2.8491  0.1971 -2.2214
  744MOL0     H 2638   8.665   7.489  11.605  1.4761  0.4210 -0.1983
  744MOL0     H 2639   8.731   7.327  11.577  0.6567  2.0217  3.2850
  744MOL0     H 2640   8.724   7.392  11.329 -0.4815 -2.3468  0.4533
  744MOL0     H 2641   8.860   7.436  11.423  0.1947 -0.6743 -1.7557
  744MOL0     H 2642   8.830   7.620  11.308 -0.1477 -1.5724 -1.3296
  744MOL0     H 2643   8.757   7.672  11.459 -2.6221  2.1952 -0.7781
  744MOL0     H 2644   8.643   7.701  11.213 -2.8634  0.4762 -0.7149
  744MOL0     H 2645   8.569   7.556  11.257  0.1415  1.3718  0.3257
  744MOL0     H 2646   8.602   7.800  11.439  3.3332 -1.4570 -2.0737
  744MOL0     H 2647   8.494   7.660  11.485 -0.6095 -0.9433 -1.5301
  744MOL0     H 2648   8.446   7.844  11.253  3.6389  2.7691  1.0998
  744MOL0     H 2649   8.384   7.869  11.412 -0.2393 -2.7672  1.3723
  744MOL0     H 2650   8.359   7.592  11.287  2.8897  1.6758 -2.1527
  744MOL0     H 2651   8.235   7.714  11.251 -1.6381 -1.1620  1.7181
  744MOL0     H 2652   8.360   7.192  11.365  0.0936 -1.5863  0.0417
  744MOL0     H 2653   8.116   7.164  11.317  1.4407  0.0814 -0.6678
  744MOL0     H 2654   7.614   7.485  11.392 -1.6738  0.4475 -0.7586
  744MOL0     H 2655   7.375   7.436  11.396 -1.1779 -2.1729 -0.8793
  744MOL0     H 2656   5.934   7.467  11.223  0.5214  1.2522 -0.0272
  744MOL0     H 2657   5.765   7.574  11.370  0.9038  1.3590 -0.7259
  744MOL0     H 2658   5.477   7.719  11.526 -2.3977 -4.1844 -2.3640
  744MOL0     H 2659   5.318   7.791  11.716  0.6432 -4.0903 -0.4409
  744MOL0     H 2660   5.021   7.976  11.848  0.0490  3.2493  0.3136
  744MOL0     H 2661   5.148   7.852  11.834  0.6931 -0.1423 -1.4228
  744MOL0     H 2662   5.295   8.052  11.767  0.7450  0.9626  0.6870
  744MOL0     H 2663   5.272   8.025  11.937  1.0669 -0.4454  0.4099
  744MOL0     H 2664   5.256   8.272  11.909 -0.2647  0.8793 -1.2295
  744MOL0     H 2665   5.147   8.250  11.767  1.6862 -1.9192 -1.3636
  744MOL0     H 2666   4.971   8.177  11.913 -0.0190 -1.5585 -0.3453
  744MOL0     H 2667   5.040   8.331  11.977  0.0306 -0.4189  0.3495
  744MOL0     H 2668   5.149   8.115  12.302 -0.0529  3.4488  0.9406
  744MOL0     H 2669   5.054   7.954  11.417 -0.3062  0.7742 -0.4116
  744MOL0     H 2670   5.182   7.779  11.144 -0.7999 -0.3181  0.3537
  744MOL0     H 2671   5.066   7.897  11.215  0.3482  1.5505 -1.5283
  744MOL0     H 2672   5.222   7.956  11.159 -0.6425  0.9208 -0.5803
  745MOL0     O 2673   6.002   5.447   2.037 -0.6302 -0.5649  0.9878
  745MOL0     C 2674   5.882   5.464   2.032 -0.2621  0.9813 -1.2527
  745MOL0     O 2675   5.819   5.547   2.112  0.0335  0.4154 -0.2219
  745MOL0     C 2676   5.894   5.614   2.207 -0.2340  0.4788  0.3124
  745MOL0     C 2677   5.851   5.625   2.336  0.5581  0.6360 -0.6384
  745MOL0     C 2678   5.913   5.690   2.437  0.4839 -0.4370 -0.5068
  745MOL0     C 2679   6.031   5.764   2.409 -0.4670  0.5678 -0.1700
  745MOL0     O 2680   6.088   5.835   2.512 -0.0966  0.2897  0.9396
  745MOL0     C 2681   6.195   5.768   2.581 -0.1289  0.0265 -0.3472
  745MOL0     C 2682   6.180   5.618   2.597  0.6631  0.2430 -0.7753
  745MOL0     C 2683   6.261   5.558   2.710 -0.8536  0.0925 -0.3465
  745MOL0     C 2684   6.405   5.524   2.656 -0.8509  0.6813 -0.7289
  745MOL0     C 2685   6.491   5.478   2.778 -0.5157 -0.8321  0.5396
  745MOL0     C 2686   6.648   5.463   2.755 -0.0071  0.2015  0.0297
  745MOL0     C 2687   6.733   5.429   2.881 -0.4118 -0.1610  0.4795
  745MOL0     C 2688   6.876   5.376   2.848  0.8301 -0.4435 -0.2102
  745MOL0     N 2689   6.964   5.372   2.969 -0.1773  0.3213  0.2362
  745MOL0     C 2690   6.937   5.282   3.074 -0.6955  0.0509 -0.8194
  745MOL0     C 2691   7.039   5.310   3.169  0.0149  0.9785 -0.1122
  745MOL0     C 2692   7.068   5.237   3.297  0.5790 -0.0910  0.2983
  745MOL0     C 2693   7.167   5.126   3.265 -0.2917  0.5823 -0.2430
  745MOL0     C 2694   7.211   5.057   3.399  0.2262  0.6815 -0.4510
  745MOL0     C 2695   7.321   4.945   3.396  0.8215  0.1996  0.1045
  745MOL0     O 2696   7.387   4.942   3.526  0.1057 -0.9021 -0.0117
  745MOL0     C 2697   7.517   4.879   3.533  0.0640 -0.6417  0.1396
  745MOL0     C 2698   7.578   4.803   3.430 -0.1608  0.1791  0.3417
  745MOL0     C 2699   7.706   4.745   3.450 -0.2802  0.6489 -0.2548
  745MOL0     C 2700   7.755   4.655   3.346  0.1272 -0.4302 -1.1175
  745MOL0     C 2701   7.780   4.777   3.564  0.3765 -1.0162 -0.3356
  745MOL0     C 2702   7.916   4.732   3.590  0.1304 -0.2136 -0.1695
  745MOL0     O 2703   7.941   4.596   3.595 -0.5469 -0.3727  0.4722
  745MOL0     C 2704   8.066   4.554   3.622  0.3499  0.4382  0.6267
  745MOL0     C 2705   8.186   4.611   3.564 -0.0670  0.3192  0.4525
  745MOL0     C 2706   8.310   4.559   3.609  0.0579 -1.0663  0.1361
  745MOL0     C 2707   8.321   4.470   3.714 -0.1261 -0.3836 -0.5670
  745MOL0     O 2708   8.441   4.424   3.762 -0.3964 -1.1305  0.1642
  745MOL0     C 2709   8.558   4.461   3.690 -0.0512  1.5026 -0.4159
  745MOL0     C 2710   8.666   4.455   3.794 -0.2541 -0.6948 -0.7642
  745MOL0     C 2711   8.699   4.312   3.841  0.0011  0.1264 -0.4745
  745MOL0     C 2712   8.781   4.310   3.967 -0.1155  0.8831  0.1068
  745MOL0     C 2713   8.804   4.154   3.998 -0.0901 -0.3437 -0.6502
  745MOL0     C 2714   8.935   4.110   3.943 -0.8350 -0.2567  0.4865
  745MOL0     C 2715   8.985   3.986   4.005 -0.6522 -0.6217  0.8065
  745MOL0     C 2716   9.137   3.971   3.973 -0.7007 -0.0059  0.2994
  745MOL0    Cl 2717   9.157   3.968   3.793 -0.2983  0.2871 -0.1139
  745MOL0     C 2718   8.203   4.420   3.774 -0.6919 -0.2059  0.6133
  745MOL0     C 2719   8.079   4.462   3.731  0.2358 -0.1962 -0.4872
  745MOL0     O 2720   7.994   4.824   3.618  0.0459  0.1525  0.3309
  745MOL0     C 2721   7.707   4.831   3.668 -0.0904 -0.2417  0.3091
  745MOL0     C 2722   7.580   4.885   3.654  0.6822  0.7031  0.2727
  745MOL0     N 2723   7.106   5.423   3.130  1.0520  0.7512 -0.2348
  745MOL0     N 2724   7.056   5.465   3.016  0.3482  0.8274  0.5099
  745MOL0     C 2725   6.078   5.769   2.279  0.1368  0.3447  0.8052
  745MOL0     C 2726   6.010   5.691   2.175 -0.3728 -0.5072 -0.3254
  745MOL0     C 2727   5.795   5.378   1.950  0.5854 -0.4496 -0.1496
  745MOL0     C 2728   5.699   5.448   1.864 -0.5975  1.0445 -0.4128
  745MOL0     C 2729   5.605   5.372   1.794  0.7192 -0.1212 -0.0549
  745MOL0     C 2730   5.611   5.231   1.793 -1.1174  0.2353 -0.5171
  745MOL0     O 2731   5.503   5.164   1.739 -0.0669  0.6644  0.5009
  745MOL0     C 2732   5.521   5.029   1.687 -0.0644  0.1176 -0.1259
  745MOL0     C 2733   5.386   4.980   1.638 -0.8514  0.2135  0.1508
  745MOL0     C 2734   5.348   5.064   1.514 -0.6470 -0.1546 -0.2819
  745MOL0     C 2735   5.226   5.011   1.454 -0.1940 -1.1443  0.6556
  745MOL0     C 2736   5.107   5.086   1.501  0.0634 -0.5253  0.2873
  745MOL0     C 2737   4.996   5.131   1.535 -0.3956 -0.3258  0.1811
  745MOL0     C 2738   5.707   5.169   1.870  0.7738 -0.3638  0.8051
  745MOL0     C 2739   5.800   5.239   1.949 -0.2995 -0.1197 -0.1617
  745MOL0     C 2740   5.889   5.165   2.046 -0.1859 -0.4899 -0.2786
  745MOL0     H 2741   5.764   5.568   2.368 -0.0248  1.8294 -0.0576
  745MOL0     H 2742   5.875   5.685   2.539 -2.2764  0.6511 -1.3900
  745MOL0     H 2743   6.199   5.807   2.683 -2.7974  0.3662 -0.2956
  745MOL0     H 2744   6.286   5.795   2.527 -1.8873  0.1801 -3.5027
  745MOL0     H 2745   6.075   5.592   2.616 -0.0506  2.3841 -1.5589
  745MOL0     H 2746   6.210   5.571   2.503  1.5799 -0.2540 -0.2472
  745MOL0     H 2747   6.261   5.619   2.801  2.3696 -1.3182  0.7496
  745MOL0     H 2748   6.213   5.463   2.737  0.3954  0.3762  3.5028
  745MOL0     H 2749   6.402   5.452   2.574  4.1574 -1.4387  0.5209
  745MOL0     H 2750   6.447   5.619   2.622 -1.3688  0.8650 -0.8534
  745MOL0     H 2751   6.433   5.389   2.804 -0.3447 -1.2485 -0.4399
  745MOL0     H 2752   6.486   5.553   2.857  2.4881 -0.5468  0.5891
  745MOL0     H 2753   6.661   5.381   2.684 -2.0036  0.5676 -0.8286
  745MOL0     H 2754   6.687   5.546   2.696  1.5797 -1.6945 -1.7038
  745MOL0     H 2755   6.680   5.366   2.952 -0.4243 -0.8412 -0.1167
  745MOL0     H 2756   6.752   5.518   2.941 -0.7998 -1.4584  2.6061
  745MOL0     H 2757   6.868   5.280   2.795 -0.1701 -1.2994  1.3947
  745MOL0     H 2758   6.926   5.447   2.782 -0.6958 -1.5565 -2.7167
  745MOL0     H 2759   6.858   5.208   3.083  0.4803 -1.0373  1.6146
  745MOL0     H 2760   6.970   5.204   3.332  0.3078 -0.3640 -0.6859
  745MOL0     H 2761   7.093   5.303   3.381 -3.7499  0.7772  1.1951
  745MOL0     H 2762   7.109   5.050   3.213  1.0967 -0.7878  0.1518
  745MOL0     H 2763   7.251   5.164   3.207  0.7022 -3.8351 -2.0656
  745MOL0     H 2764   7.264   5.141   3.445 -0.5992 -0.4584  2.8857
  745MOL0     H 2765   7.126   5.015   3.453  1.5817 -2.2574 -0.3565
  745MOL0     H 2766   7.265   4.860   3.355 -1.6426  1.7483  0.0340
  745MOL0     H 2767   7.394   4.964   3.317  1.5393 -1.8152  0.2174
  745MOL0     H 2768   7.541   4.787   3.330 -0.1865 -0.8486  0.5106
  745MOL0     H 2769   7.831   4.584   3.381 -1.3611 -2.1021 -1.1321
  745MOL0     H 2770   7.777   4.701   3.249  0.4832  1.0525 -0.3606
  745MOL0     H 2771   7.674   4.588   3.317  0.9519 -1.6429 -0.7137
  745MOL0     H 2772   8.178   4.684   3.484  1.8188  1.4628  1.2501
  745MOL0     H 2773   8.397   4.611   3.569 -1.4810  2.1749  0.6604
  745MOL0     H 2774   8.582   4.399   3.603  2.3148 -0.5647  1.5308
  745MOL0     H 2775   8.558   4.567   3.665 -2.6122  1.2453 -1.8724
  745MOL0     H 2776   8.760   4.488   3.749 -1.1353  2.1641 -0.7274
  745MOL0     H 2777   8.638   4.516   3.880 -0.3675 -0.9322 -0.6309
  745MOL0     H 2778   8.736   4.254   3.757 -3.2588 -0.7556 -1.4230
  745MOL0     H 2779   8.600   4.268   3.857 -0.7660  1.6518 -0.7586
  745MOL0     H 2780   8.734   4.360   4.052 -0.2640 -0.7983  1.0516
  745MOL0     H 2781   8.880   4.357   3.961  0.4179 -0.2814 -0.5631
  745MOL0     H 2782   8.791   4.131   4.104 -0.2658 -0.2244 -0.6450
  745MOL0     H 2783   8.722   4.103   3.948 -1.1139  2.4440 -2.0567
  745MOL0     H 2784   9.016   4.182   3.963 -0.2792 -1.1235  1.4291
  745MOL0     H 2785   8.925   4.101   3.834 -2.1724  0.8054  0.4848
  745MOL0     H 2786   8.930   3.898   3.970 -1.7217 -1.2468  3.7660
  745MOL0     H 2787   8.969   3.985   4.113 -0.7262  0.4979  0.8143
  745MOL0     H 2788   9.179   3.881   4.018 -1.6894 -1.3628 -1.3777
  745MOL0     H 2789   9.193   4.053   4.019  2.2901 -1.9425  0.3709
  745MOL0     H 2790   8.206   4.348   3.854  1.2304 -0.0529  0.7262
  745MOL0     H 2791   7.987   4.414   3.763  0.4059 -1.1690 -1.3761
  745MOL0     H 2792   7.755   4.819   3.765 -0.5077 -0.2943  0.5110
  745MOL0     H 2793   7.530   4.928   3.740  0.4283 -3.2486  2.3634
  745MOL0     H 2794   6.164   5.831   2.260 -1.5454  2.7179  0.5032
  745MOL0     H 2795   6.047   5.700   2.073  0.2866 -1.0639 -0.1497
  745MOL0     H 2796   5.682   5.554   1.877 -2.6112  0.6151  1.0000
  745MOL0     H 2797   5.527   5.422   1.738  1.8631  2.3755  0.4767
  745MOL0     H 2798   5.600   5.026   1.611 -0.0727  0.8272 -0.1661
  745MOL0     H 2799   5.551   4.961   1.767  0.1429  1.5649  1.0503
  745MOL0     H 2800   5.306   4.994   1.711  2.4472  1.6694  3.7806
  745MOL0     H 2801   5.403   4.876   1.609  2.7855  0.4393  0.9823
  745MOL0     H 2802   5.343   5.171   1.539  1.5458 -0.1626  0.4089
  745MOL0     H 2803   5.431   5.048   1.444  1.5263 -0.3398  2.1642
  745MOL0     H 2804   5.211   4.906   1.479 -2.4856 -0.1949  3.8098
  745MOL0     H 2805   5.236   5.005   1.345 -0.0249 -2.7024  0.7398
  745MOL0     H 2806   4.899   5.166   1.564 -1.1830 -1.8729 -0.4496
  745MOL0     H 2807   5.707   5.061   1.874 -1.7266 -0.5050 -0.5568
  745MOL0     H 2808   5.992   5.179   2.011 -0.0731 -0.7619 -0.0620
  745MOL0     H 2809   5.888   5.213   2.145  1.6221  1.3657 -1.0769
  745MOL0     H 2810   5.876   5.056   2.046  2.0746 -0.8378 -2.0871
  746MOL0     O 2811   0.660  10.421   1.120 -0.3397  0.3469  0.3451
  746MOL0     C 2812   0.624  10.319   1.059  0.2826  0.2837 -0.1428
  746MOL0     O 2813   0.660  10.283   0.935  0.3702  0.3600 -0.3677
  746MOL0     C 2814   0.751  10.352   0.858 -0.7958  0.1400 -0.9707
  746MOL0     C 2815   0.794  10.493   0.872  0.4554 -0.4189  0.0481
  746MOL0     C 2816   0.888  10.549   0.774 -0.4226 -0.0122 -0.5250
  746MOL0     C 2817   0.924  10.475   0.665 -0.7277 -0.4191 -0.1402
  746MOL0     O 2818   1.000  10.533   0.568  0.0251  0.3871  1.1669
  746MOL0     C 2819   0.976  10.507   0.423 -0.4878  0.4644 -0.3937
  746MOL0     C 2820   1.094  10.559   0.342  0.9563 -0.1156  0.2896
  746MOL0     C 2821   1.072  10.564   0.193 -0.0337  0.0175  0.0771
  746MOL0     C 2822   0.948  10.653   0.148 -1.1951  0.0237  0.6536
  746MOL0     C 2823   0.960  10.793   0.196 -0.5367  0.1761 -0.2703
  746MOL0     C 2824   1.091  10.868   0.158  0.5580 -0.2300  0.1273
  746MOL0     C 2825   1.074  11.016   0.182  0.9302  0.8549 -0.6831
  746MOL0     C 2826   1.007  11.089   0.059 -0.2757 -0.2530  0.4497
  746MOL0     N 2827   1.093  11.114  -0.055 -0.4096 -0.6068 -0.3966
  746MOL0     C 2828   1.227  11.161  -0.046  0.5681  0.1990 -1.0427
  746MOL0     C 2829   1.277  11.151  -0.170  0.5959  0.6108  0.0338
  746MOL0     C 2830   1.415  11.190  -0.221  0.0134 -0.2394  0.8433
  746MOL0     C 2831   1.468  11.107  -0.342  0.2443  0.3309 -0.5612
  746MOL0     C 2832   1.512  10.964  -0.297  0.6943  0.3875  0.0481
  746MOL0     C 2833   1.659  10.969  -0.265 -0.0148  0.2606  0.5733
  746MOL0     O 2834   1.736  10.980  -0.381 -0.2057 -0.3878  0.1637
  746MOL0     C 2835   1.867  11.018  -0.368 -0.0787 -0.1084  0.2183
  746MOL0     C 2836   1.933  11.043  -0.252 -0.2668  0.2056  0.5760
  746MOL0     C 2837   2.065  11.082  -0.235 -0.7107  0.8194 -0.1875
  746MOL0     C 2838   2.117  11.106  -0.094  0.3317 -0.3012 -0.0772
  746MOL0     C 2839   2.144  11.086  -0.352 -0.2806 -0.1109 -0.1292
  746MOL0     C 2840   2.280  11.144  -0.365  0.2736  0.2859 -0.5554
  746MOL0     O 2841   2.358  11.159  -0.252  0.1613 -0.2972 -0.5883
  746MOL0     C 2842   2.486  11.195  -0.281 -0.2319  0.4056 -0.2976
  746MOL0     C 2843   2.524  11.332  -0.284 -0.2896 -0.5509  0.6883
  746MOL0     C 2844   2.657  11.367  -0.286  0.8071 -0.0235 -0.0475
  746MOL0     C 2845   2.755  11.265  -0.293  0.7065  0.8029  1.0645
  746MOL0     O 2846   2.886  11.292  -0.299  0.5629 -0.8225  0.1666
  746MOL0     C 2847   2.933  11.422  -0.313  0.3589 -0.0247  1.3492
  746MOL0     C 2848   3.085  11.420  -0.323 -0.7299  0.2705 -0.3235
  746MOL0     C 2849   3.174  11.361  -0.210  0.4474 -0.3704  0.1196
  746MOL0     C 2850   3.212  11.208  -0.243  0.1912  0.6961  0.9035
  746MOL0     C 2851   3.347  11.166  -0.173  0.0583  0.1500  0.3811
  746MOL0     C 2852   3.355  11.006  -0.161  0.4238 -0.0637 -0.4144
  746MOL0     C 2853   3.451  10.942  -0.061 -0.0969  0.0607 -0.1600
  746MOL0     C 2854   3.437  10.797  -0.067 -0.7253  0.1646 -1.2250
  746MOL0    Cl 2855   3.508  10.722   0.083  0.2830  0.0317  0.2226
  746MOL0     C 2856   2.711  11.136  -0.287 -0.2003  0.3053  0.4979
  746MOL0     C 2857   2.578  11.103  -0.287 -0.7947 -0.1426 -0.6797
  746MOL0     O 2858   2.315  11.181  -0.479 -0.7343  0.5545 -0.1136
  746MOL0     C 2859   2.083  11.051  -0.471  0.8779  0.0344 -0.0212
  746MOL0     C 2860   1.944  11.021  -0.480 -1.2503 -0.7777  0.5304
  746MOL0     N 2861   1.181  11.089  -0.246 -0.7365  0.5471 -0.1309
  746MOL0     N 2862   1.071  11.078  -0.183 -0.0316 -1.0892  0.2167
  746MOL0     C 2863   0.874  10.355   0.640  0.6718  0.3587  0.7562
  746MOL0     C 2864   0.799  10.295   0.742  1.1288 -0.2865 -0.5067
  746MOL0     C 2865   0.517  10.236   1.122 -0.1437  0.2067  0.0097
  746MOL0     C 2866   0.412  10.185   1.045  0.2390 -0.5340  0.5911
  746MOL0     C 2867   0.310  10.111   1.104 -0.9122  0.4876 -0.5561
  746MOL0     C 2868   0.301  10.088   1.240 -0.0272  0.7165 -0.3118
  746MOL0     O 2869   0.201  10.022   1.298 -0.1947  0.8512 -0.7445
  746MOL0     C 2870   0.213   9.883   1.336  0.5370 -1.1569 -1.2756
  746MOL0     C 2871   0.130   9.792   1.261  1.1912  0.4669 -0.2462
  746MOL0     C 2872  -0.019   9.807   1.280  0.4908 -0.7563 -0.6548
  746MOL0     C 2873  -0.104   9.692   1.203 -0.6462  0.1589  0.8503
  746MOL0     C 2874  -0.245   9.688   1.233 -0.0915  0.5900  0.0500
  746MOL0     C 2875  -0.366   9.681   1.234 -0.2038  0.1405 -0.1650
  746MOL0     C 2876   0.403  10.141   1.319  0.3176 -0.2066 -0.3145
  746MOL0     C 2877   0.515  10.205   1.261  0.3833  1.6313 -0.1954
  746MOL0     C 2878   0.620  10.244   1.364  0.4427 -0.5791 -0.1846
  746MOL0     H 2879   0.756  10.564   0.945  1.0073  1.9296 -1.8174
  746MOL0     H 2880   0.913  10.652   0.795 -0.8803 -0.2732  1.5043
  746MOL0     H 2881   0.879  10.544   0.389 -0.5950 -1.0745 -1.9255
  746MOL0     H 2882   0.976  10.401   0.393 -2.2562  0.8054 -1.7649
  746MOL0     H 2883   1.103  10.660   0.381 -2.7669 -0.3867  2.3330
  746MOL0     H 2884   1.178  10.497   0.376 -0.7260 -2.5941  0.1743
  746MOL0     H 2885   1.165  10.587   0.140 -0.4368 -1.0395 -1.1545
  746MOL0     H 2886   1.055  10.459   0.167 -0.7825 -0.3428  1.8900
  746MOL0     H 2887   0.953  10.648   0.039 -1.5572  1.6304  0.5470
  746MOL0     H 2888   0.856  10.608   0.185  0.1325  0.3674  4.9171
  746MOL0     H 2889   0.937  10.806   0.302 -1.0154  4.5576 -0.6995
  746MOL0     H 2890   0.882  10.842   0.136  0.6953  2.2054 -0.3192
  746MOL0     H 2891   1.177  10.827   0.211  1.4685 -0.8129 -1.7343
  746MOL0     H 2892   1.119  10.842   0.056  1.5453 -1.5363  0.6978
  746MOL0     H 2893   1.163  11.077   0.200  0.6712  1.0769 -0.1020
  746MOL0     H 2894   1.006  11.027   0.267 -0.6320  0.8560 -1.8725
  746MOL0     H 2895   0.919  11.035   0.021 -0.9524  0.7338  0.5838
  746MOL0     H 2896   0.979  11.188   0.094  1.0126  1.0943 -2.0968
  746MOL0     H 2897   1.275  11.195   0.045 -1.0442  3.1761 -1.1845
  746MOL0     H 2898   1.491  11.196  -0.143  0.8136 -1.2690  0.1751
  746MOL0     H 2899   1.395  11.291  -0.258 -0.1276 -0.9571 -1.1924
  746MOL0     H 2900   1.382  11.103  -0.409  0.4626 -0.2446 -0.8121
  746MOL0     H 2901   1.552  11.158  -0.390  2.8019  2.2732  5.1222
  746MOL0     H 2902   1.461  10.944  -0.202 -0.0773 -0.1730 -0.4669
  746MOL0     H 2903   1.486  10.881  -0.362 -0.3450  0.2703  0.5921
  746MOL0     H 2904   1.686  11.042  -0.189 -1.3806  1.6659 -0.2489
  746MOL0     H 2905   1.670  10.871  -0.218  0.8419 -0.9879 -2.0162
  746MOL0     H 2906   1.881  11.049  -0.158 -1.4879  3.6627 -0.2026
  746MOL0     H 2907   2.168  11.203  -0.094  0.0944 -0.1760  0.5938
  746MOL0     H 2908   2.183  11.025  -0.062  0.7343 -0.1632 -0.5250
  746MOL0     H 2909   2.041  11.110  -0.016 -1.3498  0.2825 -1.6780
  746MOL0     H 2910   2.449  11.411  -0.282  0.7487  0.6469 -2.3009
  746MOL0     H 2911   2.688  11.470  -0.275  3.4851 -0.7209 -0.3949
  746MOL0     H 2912   2.909  11.471  -0.407  0.6018 -0.2869  1.1482
  746MOL0     H 2913   2.905  11.485  -0.228  0.2165  1.5071  0.2061
  746MOL0     H 2914   3.116  11.374  -0.417 -0.4926 -1.6937  0.6464
  746MOL0     H 2915   3.115  11.525  -0.326 -0.8471  0.4578  2.5033
  746MOL0     H 2916   3.144  11.376  -0.106  1.8247 -2.9062  0.9774
  746MOL0     H 2917   3.267  11.415  -0.226  2.1261 -2.3487  2.4410
  746MOL0     H 2918   3.225  11.185  -0.349  1.4147 -2.5819  1.6241
  746MOL0     H 2919   3.131  11.143  -0.208 -0.4231  1.4151  0.8396
  746MOL0     H 2920   3.437  11.194  -0.228  0.6943  2.1448  2.3482
  746MOL0     H 2921   3.346  11.210  -0.073 -0.1399 -2.7174  1.7406
  746MOL0     H 2922   3.368  10.965  -0.262  2.5780 -0.5689  0.0208
  746MOL0     H 2923   3.257  10.963  -0.139  0.0411 -0.6245 -2.9570
  746MOL0     H 2924   3.422  10.976   0.038 -0.2579  0.0715 -0.2115
  746MOL0     H 2925   3.552  10.978  -0.084 -0.0043 -0.1300 -0.0496
  746MOL0     H 2926   3.488  10.754  -0.153  0.8387  1.5305 -1.0299
  746MOL0     H 2927   3.337  10.754  -0.068 -0.2272 -1.0326 -2.2916
  746MOL0     H 2928   2.786  11.058  -0.298  0.2761  0.7749  0.3661
  746MOL0     H 2929   2.548  11.000  -0.267  1.1320 -0.7552 -0.7220
  746MOL0     H 2930   2.127  11.062  -0.570 -0.0385 -1.5449 -0.6465
  746MOL0     H 2931   1.900  11.010  -0.579  0.5586  1.2126 -0.5954
  746MOL0     H 2932   0.886  10.303   0.546 -3.4768  1.3723 -0.5444
  746MOL0     H 2933   0.773  10.192   0.718  0.0954  0.4381 -2.7446
  746MOL0     H 2934   0.412  10.204   0.938  2.0545  1.3898  0.8576
  746MOL0     H 2935   0.240  10.063   1.037  1.1071 -1.4943 -1.3636
  746MOL0     H 2936   0.318   9.855   1.322  0.0953 -1.9569 -3.4077
  746MOL0     H 2937   0.196   9.870   1.443  0.4270 -0.2519 -1.1776
  746MOL0     H 2938   0.137   9.689   1.299 -0.3584  0.5314  0.2616
  746MOL0     H 2939   0.156   9.790   1.155 -1.8396 -0.0294 -1.0816
  746MOL0     H 2940  -0.027   9.782   1.386  0.7433 -0.9455 -0.6814
  746MOL0     H 2941  -0.050   9.907   1.251  4.3652  0.9521  0.5365
  746MOL0     H 2942  -0.060   9.592   1.217 -1.2975 -0.3557 -0.5357
  746MOL0     H 2943  -0.096   9.718   1.097  2.9386  0.8127  1.1527
  746MOL0     H 2944  -0.473   9.675   1.231 -0.2820 -1.8450  2.7959
  746MOL0     H 2945   0.378  10.134   1.424 -0.0388  0.9921 -0.3007
  746MOL0     H 2946   0.721  10.220   1.329  1.9677  3.9745  0.3636
  746MOL0     H 2947   0.640  10.351   1.376  5.9785 -1.5099  1.7660
  746MOL0     H 2948   0.607  10.200   1.462  1.9924 -2.8837 -0.9268
  747MOL0     O 2949   1.827   8.851   3.067  0.8036  0.0739 -0.6342
  747MOL0     C 2950   1.813   8.731   3.025  0.3954  0.3206 -0.3506
  747MOL0     O 2951   1.913   8.644   2.998  0.3172 -0.0448 -0.3482
  747MOL0     C 2952   2.037   8.694   3.025 -0.1980 -0.0298  0.8421
  747MOL0     C 2953   2.096   8.779   2.926 -0.5743  0.0014  0.0304
  747MOL0     C 2954   2.235   8.797   2.933 -0.3861  0.3918  0.2330
  747MOL0     C 2955   2.310   8.767   3.053 -1.2957  0.3524 -0.1762
  747MOL0     O 2956   2.445   8.788   3.071 -0.0591 -0.2164 -0.6605
  747MOL0     C 2957   2.526   8.851   2.967 -0.3316 -0.9081 -0.9960
  747MOL0     C 2958   2.672   8.848   3.016 -0.2760  0.1446 -0.3119
  747MOL0     C 2959   2.782   8.904   2.924 -1.3203  0.1659 -1.1122
  747MOL0     C 2960   2.773   8.831   2.791  0.2357 -0.6066 -0.7252
  747MOL0     C 2961   2.893   8.855   2.699 -1.0418  0.0361  0.2248
  747MOL0     C 2962   3.035   8.826   2.753  0.1330 -0.8275  0.6201
  747MOL0     C 2963   3.135   8.846   2.640  0.3068 -0.1817 -0.3100
  747MOL0     C 2964   3.265   8.876   2.706  0.5538 -0.9635 -0.0995
  747MOL0     N 2965   3.384   8.873   2.618  1.1474 -0.3696  0.3753
  747MOL0     C 2966   3.425   8.774   2.536 -0.7135  0.2645  0.3316
  747MOL0     C 2967   3.545   8.811   2.489 -0.1073  0.1613 -0.1071
  747MOL0     C 2968   3.629   8.712   2.410 -0.0557 -0.3398 -0.0931
  747MOL0     C 2969   3.551   8.637   2.307  0.1395  0.8263 -0.5606
  747MOL0     C 2970   3.630   8.558   2.196  0.7492  0.2568 -0.2933
  747MOL0     C 2971   3.565   8.436   2.137  0.1514 -0.1291  0.5853
  747MOL0     O 2972   3.455   8.472   2.043 -0.8521 -0.0716  0.2602
  747MOL0     C 2973   3.336   8.523   2.082  0.4812 -0.7944 -0.0554
  747MOL0     C 2974   3.272   8.483   2.196 -0.3164 -0.7027  0.2385
  747MOL0     C 2975   3.161   8.549   2.246  0.4434 -0.1785  0.7400
  747MOL0     C 2976   3.105   8.491   2.367  0.2211 -0.3583 -0.2251
  747MOL0     C 2977   3.102   8.657   2.162  0.0301 -0.4932  1.3646
  747MOL0     C 2978   2.981   8.744   2.209 -1.1245 -0.4765  0.1827
  747MOL0     O 2979   2.952   8.750   2.340  0.0438  0.0344 -0.1931
  747MOL0     C 2980   2.828   8.814   2.363  0.0512 -0.1223 -0.1443
  747MOL0     C 2981   2.712   8.738   2.375 -0.2774  0.5500 -0.3599
  747MOL0     C 2982   2.595   8.799   2.424 -0.1470 -0.4544 -0.0524
  747MOL0     C 2983   2.590   8.938   2.440  0.7967 -1.0196 -0.5447
  747MOL0     O 2984   2.467   8.983   2.468 -0.8102  0.1040  0.1153
  747MOL0     C 2985   2.447   9.127   2.464  0.2735  0.2177  0.8685
  747MOL0     C 2986   2.483   9.194   2.604 -0.0602 -0.0398  0.0990
  747MOL0     C 2987   2.391   9.140   2.719 -0.1439  0.2654 -0.8235
  747MOL0     C 2988   2.422   9.189   2.864  0.5312  0.5162 -0.7121
  747MOL0     C 2989   2.394   9.341   2.894 -0.4038  0.2746 -0.7394
  747MOL0     C 2990   2.480   9.411   2.996 -0.4800 -0.1557 -0.1626
  747MOL0     C 2991   2.428   9.548   3.031 -0.6175 -1.3380 -0.6297
  747MOL0     C 2992   2.298   9.540   3.122 -1.2211  0.0416  0.0833
  747MOL0    Cl 2993   2.345   9.491   3.287  0.3232 -0.0190 -0.1143
  747MOL0     C 2994   2.707   9.010   2.430 -0.6672 -0.1666 -0.1959
  747MOL0     C 2995   2.827   8.954   2.395  0.4742  0.4334 -0.7663
  747MOL0     O 2996   2.936   8.821   2.127  0.4816  0.1136 -0.3927
  747MOL0     C 2997   3.163   8.690   2.035  0.6937 -0.2030  1.2181
  747MOL0     C 2998   3.271   8.613   1.997  0.1696 -0.4956  0.1192
  747MOL0     N 2999   3.573   8.945   2.531 -0.0546  0.0836 -1.0414
  747MOL0     N 3000   3.470   8.975   2.608 -0.4649 -0.6411  0.3803
  747MOL0     C 3001   2.240   8.705   3.159 -0.1916  0.2533 -0.2849
  747MOL0     C 3002   2.108   8.655   3.141  0.3088 -0.5050  0.5813
  747MOL0     C 3003   1.674   8.672   3.027 -0.4049 -0.3583 -0.7507
  747MOL0     C 3004   1.666   8.529   2.997 -0.2558  0.2217 -0.8053
  747MOL0     C 3005   1.542   8.468   3.004  0.0774 -0.1593  0.1785
  747MOL0     C 3006   1.428   8.536   3.037  0.5195 -0.5488 -0.1918
  747MOL0     O 3007   1.311   8.467   3.021 -0.4801  1.1830 -0.8883
  747MOL0     C 3008   1.186   8.522   3.074 -0.3251 -0.6588  0.0664
  747MOL0     C 3009   1.092   8.408   3.094 -0.9206 -0.5208 -0.2555
  747MOL0     C 3010   0.993   8.450   3.202 -0.1948 -0.0255  0.7043
  747MOL0     C 3011   0.865   8.383   3.196 -0.1675  0.1808  0.4736
  747MOL0     C 3012   0.777   8.420   3.309  0.2660 -0.2320  0.8932
  747MOL0     C 3013   0.708   8.427   3.405 -0.0879  0.2208 -0.0552
  747MOL0     C 3014   1.432   8.667   3.079  0.2210 -0.1811 -0.3296
  747MOL0     C 3015   1.557   8.736   3.084  0.6374 -0.4491 -0.0771
  747MOL0     C 3016   1.538   8.878   3.129  0.0602  0.2872  1.0396
  747MOL0     H 3017   2.048   8.809   2.834  0.3446  2.7716  0.3682
  747MOL0     H 3018   2.284   8.823   2.840 -0.8569 -0.6754 -0.3264
  747MOL0     H 3019   2.503   8.956   2.945  1.2277 -0.3322 -0.0642
  747MOL0     H 3020   2.510   8.789   2.878 -0.4041 -1.1700 -0.8035
  747MOL0     H 3021   2.693   8.890   3.114  2.9838  0.1892 -0.9290
  747MOL0     H 3022   2.698   8.742   3.022  1.6563  0.6760  2.0924
  747MOL0     H 3023   2.756   9.010   2.912  1.0359  1.1428  1.4040
  747MOL0     H 3024   2.874   8.899   2.983  0.4284 -0.8979 -3.7315
  747MOL0     H 3025   2.772   8.724   2.813  1.4087  0.1049  3.9864
  747MOL0     H 3026   2.676   8.853   2.746  0.1383  1.2152  0.2842
  747MOL0     H 3027   2.882   8.962   2.676 -1.3070 -0.0042  0.1569
  747MOL0     H 3028   2.884   8.792   2.611  3.8252 -0.7397  0.0368
  747MOL0     H 3029   3.048   8.906   2.827 -1.7339 -0.1552  0.2598
  747MOL0     H 3030   3.048   8.737   2.814  0.8956  1.4789  4.1411
  747MOL0     H 3031   3.118   8.929   2.571 -1.3567 -0.4005 -0.2148
  747MOL0     H 3032   3.141   8.750   2.588  0.1207 -0.1057 -0.4741
  747MOL0     H 3033   3.250   8.976   2.748 -3.6889 -2.7695  3.3844
  747MOL0     H 3034   3.285   8.824   2.800 -2.2589  1.5782  2.1080
  747MOL0     H 3035   3.382   8.675   2.527 -0.6906  0.1571  1.3202
  747MOL0     H 3036   3.665   8.644   2.488  0.5028  0.7609  0.6341
  747MOL0     H 3037   3.712   8.765   2.361 -1.2057  1.0059 -0.6363
  747MOL0     H 3038   3.497   8.563   2.367 -0.1541  0.6057 -1.0850
  747MOL0     H 3039   3.478   8.705   2.261 -2.0581 -2.1341 -1.7618
  747MOL0     H 3040   3.634   8.618   2.104 -1.2125  0.3738 -0.3462
  747MOL0     H 3041   3.725   8.525   2.239 -0.8586 -2.9514  1.0784
  747MOL0     H 3042   3.646   8.382   2.088 -1.9406 -1.8255 -1.2613
  747MOL0     H 3043   3.531   8.370   2.218 -0.7724 -0.2475  0.1202
  747MOL0     H 3044   3.319   8.403   2.253 -1.1042 -1.4056 -0.0822
  747MOL0     H 3045   3.001   8.460   2.352 -0.1064 -0.8990  2.6313
  747MOL0     H 3046   3.100   8.563   2.449 -0.4434  1.4066 -1.7409
  747MOL0     H 3047   3.162   8.401   2.391  3.5993  1.1270 -2.0296
  747MOL0     H 3048   2.732   8.632   2.372 -1.4609  0.3381 -1.2830
  747MOL0     H 3049   2.502   8.743   2.419 -0.1398 -0.3729 -3.1619
  747MOL0     H 3050   2.499   9.171   2.379 -3.0054  0.4992 -1.1636
  747MOL0     H 3051   2.340   9.140   2.444 -0.3866 -3.2579  1.5442
  747MOL0     H 3052   2.586   9.165   2.629 -0.7114 -3.3631 -0.5986
  747MOL0     H 3053   2.471   9.302   2.593 -3.7696 -0.0689  2.3017
  747MOL0     H 3054   2.413   9.033   2.723  4.2705  1.0200  0.7142
  747MOL0     H 3055   2.285   9.163   2.701 -0.1690 -0.2415 -1.3653
  747MOL0     H 3056   2.527   9.167   2.886 -0.6163 -3.1950  2.0124
  747MOL0     H 3057   2.358   9.132   2.931  0.7944 -0.8409 -1.5785
  747MOL0     H 3058   2.394   9.397   2.800 -0.0609 -0.4791 -1.1994
  747MOL0     H 3059   2.292   9.336   2.934 -0.3970  0.2390 -0.7266
  747MOL0     H 3060   2.575   9.439   2.949  0.1183  2.5432  2.3460
  747MOL0     H 3061   2.505   9.350   3.083  0.2737  1.4123  0.7587
  747MOL0     H 3062   2.405   9.601   2.939  1.8180 -2.1669 -1.7868
  747MOL0     H 3063   2.491   9.621   3.082 -1.3692  0.4496 -2.1567
  747MOL0     H 3064   2.226   9.468   3.081 -0.6958 -0.1256 -0.5632
  747MOL0     H 3065   2.258   9.642   3.130 -1.0646  0.0194  1.2715
  747MOL0     H 3066   2.703   9.118   2.428 -1.9733 -0.2004 -2.0195
  747MOL0     H 3067   2.916   9.003   2.357  0.6747 -0.4540 -1.4871
  747MOL0     H 3068   3.125   8.767   1.969  0.3352 -3.9048 -3.5012
  747MOL0     H 3069   3.312   8.648   1.903 -1.8005  0.7822 -0.3151
  747MOL0     H 3070   2.297   8.680   3.248 -1.2518 -0.5591  0.1922
  747MOL0     H 3071   2.064   8.603   3.225 -1.1113 -1.9310 -0.9928
  747MOL0     H 3072   1.755   8.482   2.957 -1.0018 -1.0868 -0.9572
  747MOL0     H 3073   1.527   8.374   2.951  0.1181  1.0848 -2.1269
  747MOL0     H 3074   1.213   8.551   3.176 -1.2490 -1.5426  0.5769
  747MOL0     H 3075   1.145   8.602   3.012 -2.4271 -0.2141  1.8927
  747MOL0     H 3076   1.147   8.325   3.139  0.1069 -0.7987 -1.9177
  747MOL0     H 3077   1.037   8.382   3.003  1.4938  0.1092 -1.9974
  747MOL0     H 3078   1.030   8.416   3.300 -1.9362  0.2676  1.5040
  747MOL0     H 3079   0.979   8.557   3.185  0.6758 -0.2046 -1.4674
  747MOL0     H 3080   0.868   8.274   3.203 -4.7820 -0.0457  2.0601
  747MOL0     H 3081   0.816   8.404   3.100 -0.4972  1.3480  0.8834
  747MOL0     H 3082   0.647   8.428   3.493  1.4742  0.1814  1.0720
  747MOL0     H 3083   1.340   8.722   3.099 -0.1587 -0.8486 -0.2044
  747MOL0     H 3084   1.609   8.897   3.211 -2.2079  1.9933  2.7336
  747MOL0     H 3085   1.566   8.953   3.054 -2.0459  0.4537  0.3738
  747MOL0     H 3086   1.437   8.907   3.159 -0.9571  1.7351 -3.0908
  748MOL0     O 3087   7.154   3.295   8.254  0.8948 -0.2229  1.1303
  748MOL0     C 3088   7.153   3.388   8.329 -0.1389 -0.1664  0.2462
  748MOL0     O 3089   7.052   3.475   8.357 -0.0140 -0.2171  0.3937
  748MOL0     C 3090   6.924   3.439   8.319  0.4632  0.3633 -0.0757
  748MOL0     C 3091   6.884   3.444   8.180 -1.5587  0.4992 -0.6097
  748MOL0     C 3092   6.755   3.416   8.147 -0.0645 -0.4211  0.6644
  748MOL0     C 3093   6.664   3.370   8.246  0.3129 -0.6889  0.0250
  748MOL0     O 3094   6.544   3.320   8.217  0.7033 -1.0331 -0.4487
  748MOL0     C 3095   6.491   3.328   8.080 -0.3309  0.2807 -0.7408
  748MOL0     C 3096   6.353   3.269   8.100  0.3917  0.4591 -1.0441
  748MOL0     C 3097   6.277   3.267   7.970  0.3925  0.5716  0.4613
  748MOL0     C 3098   6.135   3.303   7.987 -0.2274 -0.6940  0.4641
  748MOL0     C 3099   6.077   3.314   7.851 -0.7521 -0.0727 -0.9557
  748MOL0     C 3100   5.928   3.351   7.854 -0.2842  0.4806 -0.5475
  748MOL0     C 3101   5.865   3.324   7.716 -0.3933  0.4161 -0.0572
  748MOL0     C 3102   5.945   3.369   7.602  0.0145  0.6069  0.6444
  748MOL0     N 3103   5.875   3.388   7.468  0.2187 -0.6249  0.6621
  748MOL0     C 3104   5.940   3.445   7.360  0.4577 -0.3833  0.2432
  748MOL0     C 3105   5.846   3.461   7.267  0.0067 -0.4264 -0.0364
  748MOL0     C 3106   5.867   3.514   7.133  1.0341  0.0086  0.5716
  748MOL0     C 3107   5.967   3.421   7.050 -0.3262 -0.2889  0.1450
  748MOL0     C 3108   5.993   3.471   6.909  0.5305  0.2752 -0.2590
  748MOL0     C 3109   6.052   3.615   6.889  0.5617 -0.8003 -0.3064
  748MOL0     O 3110   6.080   3.665   6.748 -0.3537 -0.5093 -0.0484
  748MOL0     C 3111   6.210   3.658   6.705  0.1958  0.0108  0.3433
  748MOL0     C 3112   6.275   3.538   6.690 -0.0810  0.2613 -0.9928
  748MOL0     C 3113   6.410   3.527   6.646  1.0273  0.4902  0.6615
  748MOL0     C 3114   6.473   3.399   6.636  0.3202  0.0424  0.1897
  748MOL0     C 3115   6.484   3.646   6.623  0.2401 -0.3902  0.4664
  748MOL0     C 3116   6.630   3.637   6.584  0.8968 -0.2233  0.2647
  748MOL0     O 3117   6.675   3.733   6.499  0.3124 -0.6694  0.0629
  748MOL0     C 3118   6.805   3.732   6.455 -0.2611 -0.0034  1.0652
  748MOL0     C 3119   6.825   3.739   6.317 -0.2737  0.6118 -0.2538
  748MOL0     C 3120   6.953   3.764   6.262 -0.1673  0.9759 -0.2211
  748MOL0     C 3121   7.068   3.767   6.349  0.0050 -0.0763  0.3241
  748MOL0     O 3122   7.194   3.781   6.307  0.4323 -0.1534  0.2691
  748MOL0     C 3123   7.237   3.755   6.178 -0.7660 -0.1251 -0.3121
  748MOL0     C 3124   7.333   3.640   6.204  0.3103 -0.3198 -1.2008
  748MOL0     C 3125   7.467   3.681   6.261  0.1284 -0.1861 -0.4040
  748MOL0     C 3126   7.568   3.682   6.157 -0.4583  0.1369 -0.5733
  748MOL0     C 3127   7.691   3.763   6.205  0.3569  0.0628 -0.5280
  748MOL0     C 3128   7.760   3.684   6.319  0.3422 -0.5965 -0.2710
  748MOL0     C 3129   7.895   3.741   6.371  0.2540 -0.0194 -0.8096
  748MOL0     C 3130   7.934   3.686   6.510  0.7770  0.0002  0.4718
  748MOL0    Cl 3131   8.095   3.752   6.556 -0.1167 -0.3633 -0.2960
  748MOL0     C 3132   7.044   3.751   6.488 -0.1207  0.3151  0.5119
  748MOL0     C 3133   6.912   3.732   6.541  0.4665 -0.5275 -0.0386
  748MOL0     O 3134   6.699   3.551   6.632  0.2134 -0.3322 -0.0388
  748MOL0     C 3135   6.414   3.757   6.614 -1.1355  0.1916 -0.9442
  748MOL0     C 3136   6.288   3.770   6.670 -0.0924  0.1391 -0.4447
  748MOL0     N 3137   5.730   3.415   7.312  0.4982 -0.2049 -0.1164
  748MOL0     N 3138   5.748   3.374   7.437  0.4907  0.1104  0.0197
  748MOL0     C 3139   6.703   3.370   8.376 -0.3127 -0.9062 -0.9299
  748MOL0     C 3140   6.836   3.402   8.420  0.3542  0.4749 -0.1274
  748MOL0     C 3141   7.294   3.431   8.365  0.0917  0.9957 -0.0595
  748MOL0     C 3142   7.310   3.564   8.393  0.2443 -0.4128  0.0911
  748MOL0     C 3143   7.437   3.611   8.410 -0.1252 -0.4802 -1.1624
  748MOL0     C 3144   7.543   3.528   8.419  0.2556 -0.0759 -0.3908
  748MOL0     O 3145   7.668   3.588   8.415  0.1848 -0.4839 -0.4094
  748MOL0     C 3146   7.758   3.533   8.519  0.0273  0.2609  0.1379
  748MOL0     C 3147   7.847   3.652   8.563  0.1267 -0.6004  0.3147
  748MOL0     C 3148   7.969   3.583   8.642  0.9415  0.4961  0.0269
  748MOL0     C 3149   8.054   3.687   8.719  0.1809  0.0392  0.2973
  748MOL0     C 3150   8.182   3.629   8.752 -0.1057  0.4622 -0.2595
  748MOL0     C 3151   8.281   3.569   8.786 -0.5776  1.4554  0.5357
  748MOL0     C 3152   7.526   3.392   8.403 -0.3817  0.1278 -0.1279
  748MOL0     C 3153   7.397   3.334   8.396 -0.6258 -0.8717 -0.3108
  748MOL0     C 3154   7.378   3.185   8.407 -0.2383  0.0931 -0.5767
  748MOL0     H 3155   6.948   3.467   8.096  0.8305 -4.3908 -0.4573
  748MOL0     H 3156   6.726   3.432   8.044  4.8347 -1.2425 -1.1140
  748MOL0     H 3157   6.551   3.260   8.019  0.0679 -2.0806  2.0697
  748MOL0     H 3158   6.498   3.435   8.057  2.3936  1.1624  3.1310
  748MOL0     H 3159   6.360   3.165   8.134 -2.1444  0.2429 -0.9808
  748MOL0     H 3160   6.294   3.317   8.178  0.5401  3.0164 -2.3973
  748MOL0     H 3161   6.330   3.335   7.902  0.8510 -1.6054 -1.5014
  748MOL0     H 3162   6.287   3.167   7.927  5.9332  1.9991 -2.6049
  748MOL0     H 3163   6.088   3.226   8.048 -0.2003 -1.6306 -0.6694
  748MOL0     H 3164   6.127   3.403   8.031 -0.6494 -0.8289  0.7060
  748MOL0     H 3165   6.089   3.217   7.802 -0.6805  1.5783 -4.5551
  748MOL0     H 3166   6.141   3.378   7.789  0.4883 -2.2111 -1.9983
  748MOL0     H 3167   5.881   3.298   7.938  1.4546 -1.6460 -0.8260
  748MOL0     H 3168   5.924   3.460   7.859 -4.6654  0.6476 -3.1931
  748MOL0     H 3169   5.781   3.394   7.717  0.6077  1.6495  0.5780
  748MOL0     H 3170   5.832   3.220   7.706  0.8640  0.0805 -0.8401
  748MOL0     H 3171   5.985   3.470   7.617  1.0514  0.7459 -2.3288
  748MOL0     H 3172   6.029   3.300   7.592  0.0926  0.4009  2.4191
  748MOL0     H 3173   6.045   3.469   7.349  0.5370 -0.7279  0.2343
  748MOL0     H 3174   5.897   3.618   7.149  0.5518  0.1060  0.8790
  748MOL0     H 3175   5.769   3.516   7.086  0.6354  2.1154  1.3785
  748MOL0     H 3176   6.059   3.400   7.105 -0.2487 -1.6050 -0.4540
  748MOL0     H 3177   5.928   3.320   7.041  1.3227 -1.1371  1.7982
  748MOL0     H 3178   6.060   3.405   6.853  0.5484 -1.2295  1.4423
  748MOL0     H 3179   5.897   3.475   6.856  0.3021  0.2913  0.1535
  748MOL0     H 3180   5.973   3.683   6.921  2.6271  0.6894  2.0107
  748MOL0     H 3181   6.136   3.635   6.957 -2.0062  0.7336  2.6641
  748MOL0     H 3182   6.224   3.450   6.725 -0.0877  0.8825  0.6448
  748MOL0     H 3183   6.541   3.376   6.719 -1.4610 -4.2308  0.7106
  748MOL0     H 3184   6.529   3.399   6.542 -3.2613  2.3677 -2.1691
  748MOL0     H 3185   6.395   3.322   6.629  0.0636  0.4421 -1.8429
  748MOL0     H 3186   6.735   3.740   6.257 -1.4174  1.8334  1.4216
  748MOL0     H 3187   6.959   3.797   6.159 -2.2826 -0.8428 -1.0238
  748MOL0     H 3188   7.157   3.726   6.110  0.1555 -0.8356 -1.1178
  748MOL0     H 3189   7.299   3.837   6.139  0.9748 -1.4362 -0.4252
  748MOL0     H 3190   7.281   3.568   6.268  1.9259  1.9175  3.0065
  748MOL0     H 3191   7.355   3.586   6.111  0.9729 -3.8898  0.8223
  748MOL0     H 3192   7.491   3.616   6.346 -0.5746 -0.6242 -0.5267
  748MOL0     H 3193   7.448   3.780   6.303 -2.1236 -0.2992 -0.9847
  748MOL0     H 3194   7.526   3.726   6.066  0.2422  0.9809 -0.5040
  748MOL0     H 3195   7.592   3.577   6.141 -2.9688 -0.5879 -0.0288
  748MOL0     H 3196   7.760   3.779   6.122 -0.7047  1.0825 -1.2500
  748MOL0     H 3197   7.653   3.863   6.225  0.0236 -0.1901  0.1395
  748MOL0     H 3198   7.785   3.585   6.282  4.0499  0.0248  0.1896
  748MOL0     H 3199   7.690   3.680   6.403 -1.4034 -1.2410 -1.6782
  748MOL0     H 3200   7.897   3.850   6.365  2.1048 -0.0381 -1.1114
  748MOL0     H 3201   7.980   3.713   6.308  0.5191 -0.1524 -0.4024
  748MOL0     H 3202   7.944   3.578   6.502  1.7076 -0.2174  3.3769
  748MOL0     H 3203   7.854   3.709   6.581  2.2536  1.3493  1.7985
  748MOL0     H 3204   7.128   3.757   6.557 -1.8188  0.4270  2.6793
  748MOL0     H 3205   6.904   3.736   6.649 -3.0657 -0.3099 -0.1669
  748MOL0     H 3206   6.470   3.842   6.578  1.8038 -0.4803  1.5809
  748MOL0     H 3207   6.253   3.873   6.665  3.1541  1.3442 -0.8603
  748MOL0     H 3208   6.622   3.333   8.437 -1.1364  0.8553 -0.9100
  748MOL0     H 3209   6.865   3.393   8.524 -0.7030  1.6653  0.2911
  748MOL0     H 3210   7.228   3.634   8.377  0.2233  0.0427  2.0122
  748MOL0     H 3211   7.451   3.718   8.423 -0.1788 -0.5625 -0.3948
  748MOL0     H 3212   7.704   3.513   8.612  0.6316  0.2902  0.4961
  748MOL0     H 3213   7.803   3.442   8.477 -1.2722 -1.1673  1.6768
  748MOL0     H 3214   7.792   3.725   8.623 -0.5056 -1.8413  1.2688
  748MOL0     H 3215   7.888   3.714   8.482  0.2033  2.1657  2.3411
  748MOL0     H 3216   7.920   3.520   8.716 -1.4744  1.0292 -1.0071
  748MOL0     H 3217   8.027   3.526   8.569  0.4983 -1.9761  1.5052
  748MOL0     H 3218   7.991   3.716   8.804 -1.1508 -3.1097  0.5357
  748MOL0     H 3219   8.082   3.774   8.660  4.1639 -0.5178  1.0671
  748MOL0     H 3220   8.363   3.502   8.808 -0.4807 -0.0353 -3.5005
  748MOL0     H 3221   7.613   3.328   8.397 -0.4272  0.0434  0.0795
  748MOL0     H 3222   7.352   3.146   8.308 -1.1028  1.9704 -1.1528
  748MOL0     H 3223   7.454   3.130   8.463 -0.9348  3.0865  3.8247
  748MOL0     H 3224   7.290   3.167   8.470  0.7972 -0.0239  0.8952
  749MOL0     O 3225   2.063  11.130   5.925 -0.2267 -0.2221 -0.1731
  749MOL0     C 3226   2.125  11.054   5.996  0.3664 -0.3639 -0.6393
  749MOL0     O 3227   2.221  10.966   5.952  0.0698  0.6625  0.4732
  749MOL0     C 3228   2.258  10.963   5.820  0.0640 -0.6812  0.2536
  749MOL0     C 3229   2.292  11.072   5.741  0.2337  0.0128  0.3270
  749MOL0     C 3230   2.333  11.054   5.601 -0.3994 -0.4530  0.1747
  749MOL0     C 3231   2.318  10.931   5.538  0.3303 -0.0549  0.4908
  749MOL0     O 3232   2.335  10.930   5.401  0.1758 -0.2794 -0.1452
  749MOL0     C 3233   2.286  10.823   5.326 -0.6805  0.4394 -0.1092
  749MOL0     C 3234   2.252  10.862   5.183  0.0627  0.4662 -0.2502
  749MOL0     C 3235   2.382  10.917   5.119 -0.6219  0.4091 -0.4278
  749MOL0     C 3236   2.386  10.900   4.967 -0.1617  0.3761  0.5223
  749MOL0     C 3237   2.515  10.959   4.908 -0.8868 -0.1080 -0.7551
  749MOL0     C 3238   2.517  10.968   4.753 -0.4260 -0.8119 -0.2700
  749MOL0     C 3239   2.634  11.054   4.697 -0.4832  0.5805 -0.1322
  749MOL0     C 3240   2.693  11.178   4.772  0.7962  0.1813 -0.2731
  749MOL0     N 3241   2.591  11.287   4.779 -0.5142 -0.1284 -0.0799
  749MOL0     C 3242   2.463  11.285   4.736  0.0395  0.0214 -0.2001
  749MOL0     C 3243   2.410  11.393   4.793  0.0069  0.8072 -1.1302
  749MOL0     C 3244   2.266  11.441   4.800  1.2656  0.8434  0.1957
  749MOL0     C 3245   2.193  11.385   4.916  0.1749  0.4496  0.1725
  749MOL0     C 3246   2.045  11.433   4.918 -0.0577  0.0270  0.1587
  749MOL0     C 3247   1.969  11.359   5.026 -0.4629 -0.3736 -0.2744
  749MOL0     O 3248   1.832  11.386   5.012  0.1326 -0.7322  0.7065
  749MOL0     C 3249   1.751  11.321   5.100  0.1423 -0.1102 -0.6219
  749MOL0     C 3250   1.620  11.301   5.054  1.2648 -0.5708 -0.9350
  749MOL0     C 3251   1.515  11.247   5.131  0.2654  0.2124  0.8473
  749MOL0     C 3252   1.374  11.215   5.072  0.2978 -0.0274 -0.2053
  749MOL0     C 3253   1.544  11.237   5.269  0.1221 -0.2413  0.0335
  749MOL0     C 3254   1.446  11.203   5.363 -0.6301 -0.1025 -0.0079
  749MOL0     O 3255   1.491  11.133   5.471 -0.7863 -0.8743  0.5246
  749MOL0     C 3256   1.402  11.080   5.560 -0.2293  0.2063 -0.5364
  749MOL0     C 3257   1.377  10.942   5.549 -0.4081 -0.7705  0.5843
  749MOL0     C 3258   1.304  10.876   5.650  0.4794  0.8490 -0.3291
  749MOL0     C 3259   1.244  10.939   5.753  0.1951  0.6465 -0.7923
  749MOL0     O 3260   1.165  10.860   5.835  0.5395 -0.5281 -1.0105
  749MOL0     C 3261   1.111  10.900   5.965  0.6757 -0.3228 -0.2318
  749MOL0     C 3262   1.215  10.963   6.063 -0.5435 -0.2640  0.0177
  749MOL0     C 3263   1.177  10.959   6.210  1.3284  0.5595  0.0010
  749MOL0     C 3264   1.085  11.076   6.246  0.0014 -0.4594  0.2227
  749MOL0     C 3265   1.031  11.081   6.393 -0.4156 -0.4348  0.1747
  749MOL0     C 3266   0.969  10.945   6.441  0.1419  0.5744  0.1959
  749MOL0     C 3267   0.843  10.969   6.539  0.7687  0.4722 -0.1261
  749MOL0     C 3268   0.704  10.981   6.458 -0.0611  0.4526 -0.1552
  749MOL0    Cl 3269   0.698  11.101   6.321  0.2901 -0.2061 -0.0293
  749MOL0     C 3270   1.256  11.081   5.759 -0.3555  0.3428  0.2896
  749MOL0     C 3271   1.341  11.148   5.670 -0.9508 -0.0115  1.1077
  749MOL0     O 3272   1.340  11.266   5.367  0.1171  0.2884 -0.4201
  749MOL0     C 3273   1.679  11.269   5.316  0.9570  0.4739 -0.6237
  749MOL0     C 3274   1.779  11.305   5.238 -0.3921 -0.8306  0.1369
  749MOL0     N 3275   2.509  11.467   4.849  0.7969  0.9064 -0.3056
  749MOL0     N 3276   2.617  11.399   4.836 -0.8828  0.1527  0.6205
  749MOL0     C 3277   2.262  10.831   5.612  0.4610 -1.1448 -0.5042
  749MOL0     C 3278   2.237  10.847   5.748  0.1983  0.3549 -0.6715
  749MOL0     C 3279   2.097  11.061   6.144  0.2933  0.5485 -0.7331
  749MOL0     C 3280   2.138  10.949   6.220 -0.3660 -0.2016  0.1440
  749MOL0     C 3281   2.102  10.945   6.361 -0.9524 -0.4830 -0.1062
  749MOL0     C 3282   2.030  11.044   6.417 -0.0707  0.8290  0.2843
  749MOL0     O 3283   2.011  11.025   6.555  0.1010  0.0433  0.3512
  749MOL0     C 3284   1.889  11.085   6.606  0.9113 -0.0442 -0.7569
  749MOL0     C 3285   1.898  11.076   6.762 -0.2491 -0.0146  0.3455
  749MOL0     C 3286   2.013  11.154   6.821 -0.8048  0.2478  0.4979
  749MOL0     C 3287   2.006  11.309   6.811  0.3281 -0.6959  0.0159
  749MOL0     C 3288   1.915  11.367   6.907  0.7778 -0.4039 -0.2737
  749MOL0     C 3289   1.845  11.422   7.001  0.3101  0.7262  0.7303
  749MOL0     C 3290   1.982  11.152   6.340 -0.3965 -0.1401  0.1481
  749MOL0     C 3291   2.019  11.159   6.204 -0.1209  0.0431  0.3929
  749MOL0     C 3292   1.986  11.291   6.139  0.0377 -0.1399 -0.1451
  749MOL0     H 3293   2.281  11.176   5.769  0.6154  1.9306 -5.4448
  749MOL0     H 3294   2.354  11.146   5.547 -1.2644 -0.9371 -1.0030
  749MOL0     H 3295   2.200  10.767   5.364 -0.4316 -0.1880 -0.4719
  749MOL0     H 3296   2.361  10.744   5.331 -1.4755 -0.3611 -0.5981
  749MOL0     H 3297   2.227  10.772   5.127 -0.5194 -0.8955  2.0512
  749MOL0     H 3298   2.171  10.936   5.178  2.1719  3.0038  0.7005
  749MOL0     H 3299   2.397  11.023   5.142  0.6899  0.1676 -0.0573
  749MOL0     H 3300   2.467  10.866   5.165  0.4648 -0.4853 -3.2252
  749MOL0     H 3301   2.362  10.796   4.941  1.7747 -0.6668  2.5459
  749MOL0     H 3302   2.307  10.968   4.934  1.3333  1.5691 -0.6866
  749MOL0     H 3303   2.601  10.896   4.933  1.0103  2.4296 -0.4859
  749MOL0     H 3304   2.541  11.058   4.946  0.6046 -0.4314 -0.8605
  749MOL0     H 3305   2.522  10.867   4.710 -2.5238 -1.2951  0.4986
  749MOL0     H 3306   2.422  11.008   4.717  0.2819 -0.5999 -1.9764
  749MOL0     H 3307   2.600  11.089   4.600 -0.3180 -1.2796 -0.9075
  749MOL0     H 3308   2.722  10.989   4.694  0.1605  1.3031  1.7603
  749MOL0     H 3309   2.738  11.147   4.867  0.5413  1.3880  0.2590
  749MOL0     H 3310   2.777  11.216   4.713  1.2920  2.3228  1.7034
  749MOL0     H 3311   2.403  11.215   4.680 -1.2016  1.3866 -0.6570
  749MOL0     H 3312   2.202  11.406   4.718  0.8141 -1.5298  1.4678
  749MOL0     H 3313   2.260  11.550   4.806  0.0508  0.9944 -2.2823
  749MOL0     H 3314   2.186  11.278   4.893  1.2377  0.6381 -1.1609
  749MOL0     H 3315   2.241  11.409   5.011  0.1762  2.7967 -0.3780
  749MOL0     H 3316   2.042  11.541   4.932 -0.9426  0.0542 -0.1747
  749MOL0     H 3317   2.001  11.398   4.825  1.0187 -4.4229  1.0987
  749MOL0     H 3318   1.976  11.250   5.020 -2.3568 -0.4490 -2.4196
  749MOL0     H 3319   2.010  11.389   5.123  0.2383 -2.2264  0.0409
  749MOL0     H 3320   1.614  11.332   4.951  0.6007 -1.5448 -1.2022
  749MOL0     H 3321   1.382  11.248   4.968  2.8752  0.5529  0.1065
  749MOL0     H 3322   1.293  11.270   5.120  0.4211 -1.0293  1.2125
  749MOL0     H 3323   1.352  11.108   5.077 -2.6483  0.5356  1.6121
  749MOL0     H 3324   1.440  10.894   5.476  0.9248 -1.0541  1.8853
  749MOL0     H 3325   1.299  10.768   5.645  1.1841  0.8721 -2.1514
  749MOL0     H 3326   1.030  10.972   5.947 -0.5137 -1.5216  0.1584
  749MOL0     H 3327   1.060  10.816   6.013 -1.5819  1.4867  0.7790
  749MOL0     H 3328   1.307  10.905   6.055 -1.1803 -1.2431 -0.3491
  749MOL0     H 3329   1.244  11.066   6.042 -0.0990 -0.0470  1.5666
  749MOL0     H 3330   1.265  10.943   6.273  1.4590 -1.8902 -0.7043
  749MOL0     H 3331   1.120  10.867   6.225  1.1209  0.6809 -0.0363
  749MOL0     H 3332   1.000  11.082   6.178 -0.1044 -1.1624  0.2839
  749MOL0     H 3333   1.139  11.169   6.224  0.2106 -0.2685  1.4539
  749MOL0     H 3334   1.118  11.108   6.454 -0.2002 -2.6619  0.9508
  749MOL0     H 3335   0.954  11.156   6.413 -1.9939 -1.3430 -2.0475
  749MOL0     H 3336   1.046  10.881   6.485  0.2823  0.1598 -0.6365
  749MOL0     H 3337   0.945  10.886   6.353  0.7836 -0.1969  0.5253
  749MOL0     H 3338   0.868  11.052   6.605  0.5026 -0.1781  0.8053
  749MOL0     H 3339   0.817  10.879   6.595 -1.4096  0.7051 -0.6874
  749MOL0     H 3340   0.614  11.004   6.516 -1.1684  0.7544 -1.9242
  749MOL0     H 3341   0.700  10.883   6.410 -0.5107 -0.5875  1.8812
  749MOL0     H 3342   1.199  11.136   5.833  0.9667 -0.3742  1.8909
  749MOL0     H 3343   1.362  11.255   5.659  0.7640 -0.5119 -1.5194
  749MOL0     H 3344   1.706  11.268   5.422 -0.0847 -2.7263 -0.3122
  749MOL0     H 3345   1.868  11.330   5.295 -0.2986 -1.9659  0.5121
  749MOL0     H 3346   2.246  10.731   5.574 -0.7510 -1.0384 -0.2997
  749MOL0     H 3347   2.185  10.768   5.802 -0.3291  1.0685 -0.1240
  749MOL0     H 3348   2.187  10.865   6.172  2.0605  2.3303 -2.2065
  749MOL0     H 3349   2.126  10.860   6.424  3.2745 -0.3961 -1.3022
  749MOL0     H 3350   1.881  11.192   6.585  1.6868  0.2127  0.1466
  749MOL0     H 3351   1.795  11.042   6.572 -0.3241  1.3759  0.6979
  749MOL0     H 3352   1.906  10.970   6.785 -0.4212  0.1017  0.9671
  749MOL0     H 3353   1.806  11.113   6.808  0.2579  2.0768 -0.1977
  749MOL0     H 3354   2.012  11.129   6.928  0.3316  1.9585  0.9458
  749MOL0     H 3355   2.113  11.128   6.784  0.5996  4.9714  0.3639
  749MOL0     H 3356   1.976  11.349   6.713 -2.0251  1.4547  1.4899
  749MOL0     H 3357   2.102  11.356   6.835 -0.9356  1.5043  1.1004
  749MOL0     H 3358   1.797  11.475   7.081 -0.6025 -0.7521  1.1916
  749MOL0     H 3359   1.944  11.243   6.386 -0.9606 -1.9026  3.5094
  749MOL0     H 3360   2.066  11.325   6.072  1.0629 -0.9791  0.6185
  749MOL0     H 3361   1.895  11.273   6.081  1.3974 -2.1035 -1.8499
  749MOL0     H 3362   1.971  11.373   6.210  1.7251  1.8233 -1.8816
  750MOL0     O 3363   9.939   1.592   5.610 -0.3888 -0.4567  0.3566
  750MOL0     C 3364   9.854   1.517   5.660 -0.2226  0.2854  0.1116
  750MOL0     O 3365   9.879   1.434   5.760  0.8313  0.4234 -0.0019
  750MOL0     C 3366   9.998   1.422   5.830  0.3470  0.0608 -0.6227
  750MOL0     C 3367   9.992   1.338   5.940 -0.0177 -0.2554 -0.8755
  750MOL0     C 3368  10.108   1.327   6.023 -0.3420 -0.2340  0.5894
  750MOL0     C 3369  10.228   1.394   5.991 -0.6757  0.4398  0.2339
  750MOL0     O 3370  10.332   1.377   6.079  0.2513  0.1245 -0.7035
  750MOL0     C 3371  10.312   1.401   6.222 -0.1892  0.6494  1.1108
  750MOL0     C 3372  10.429   1.390   6.308 -0.0747 -0.6331 -0.6029
  750MOL0     C 3373  10.399   1.451   6.449 -0.1396  0.2383 -0.2781
  750MOL0     C 3374  10.410   1.607   6.452 -0.6395  0.4876  0.2539
  750MOL0     C 3375  10.371   1.662   6.588  0.0033 -0.5277  0.6801
  750MOL0     C 3376  10.347   1.810   6.598 -0.6595 -0.1327  0.4170
  750MOL0     C 3377  10.471   1.896   6.564  0.9316 -0.3144  1.1048
  750MOL0     C 3378  10.592   1.880   6.652 -0.5553 -0.5890  0.9027
  750MOL0     N 3379  10.686   1.995   6.615  0.1621  1.2426 -0.1157
  750MOL0     C 3380  10.783   1.983   6.518  0.5093  0.5610  0.3231
  750MOL0     C 3381  10.856   2.095   6.541  0.0989 -0.4441  0.5720
  750MOL0     C 3382  10.984   2.129   6.470 -0.4215  0.3040  0.6285
  750MOL0     C 3383  10.952   2.188   6.338 -0.4760 -0.2353 -0.2553
  750MOL0     C 3384  11.074   2.204   6.244  0.1274  1.0104 -0.3561
  750MOL0     C 3385  11.182   2.301   6.298 -0.4095  0.1405  0.0824
  750MOL0     O 3386  11.251   2.356   6.186  0.4472 -0.5320  0.0158
  750MOL0     C 3387  11.311   2.476   6.208  0.2591 -0.5589 -1.4665
  750MOL0     C 3388  11.391   2.498   6.319  0.7862  0.2189  0.0905
  750MOL0     C 3389  11.470   2.610   6.324  0.3831  0.3919  0.0479
  750MOL0     C 3390  11.570   2.617   6.446 -0.1927 -0.0577 -0.5517
  750MOL0     C 3391  11.462   2.711   6.227  0.4839  0.2251  0.2533
  750MOL0     C 3392  11.530   2.837   6.225  0.5662  0.4450 -1.1901
  750MOL0     O 3393  11.541   2.908   6.109  0.5986 -0.6437  0.7019
  750MOL0     C 3394  11.595   3.035   6.107 -0.2597 -0.0236 -0.1906
  750MOL0     C 3395  11.677   3.078   6.004 -0.2976  0.0460  0.8555
  750MOL0     C 3396  11.720   3.209   6.005  0.6323 -0.9446  0.2199
  750MOL0     C 3397  11.666   3.307   6.089 -0.5607 -0.9541 -0.3399
  750MOL0     O 3398  11.689   3.443   6.074 -0.0605 -0.6710 -0.6248
  750MOL0     C 3399  11.677   3.500   5.943  0.4359 -0.4252  0.0374
  750MOL0     C 3400  11.612   3.624   5.938  0.2901 -0.1570  0.1749
  750MOL0     C 3401  11.695   3.732   6.002 -0.5602  0.6220 -0.3991
  750MOL0     C 3402  11.835   3.737   5.951 -0.3833 -0.6515 -0.4046
  750MOL0     C 3403  11.909   3.864   6.004 -0.0495 -0.5434  0.1433
  750MOL0     C 3404  11.939   3.885   6.159 -0.0784  0.4356  0.2319
  750MOL0     C 3405  12.003   4.026   6.188  0.5193  0.1656  0.4541
  750MOL0     C 3406  12.055   4.038   6.332 -0.8625  0.0837  0.2676
  750MOL0    Cl 3407  12.202   3.935   6.342 -0.1610 -0.1491 -0.6512
  750MOL0     C 3408  11.597   3.269   6.198  0.3699  0.5668 -0.2630
  750MOL0     C 3409  11.572   3.131   6.212 -0.4101  0.1783  0.0434
  750MOL0     O 3410  11.558   2.888   6.334  0.2039  0.6809  0.5948
  750MOL0     C 3411  11.384   2.683   6.101 -0.0747  1.0959  0.0442
  750MOL0     C 3412  11.313   2.563   6.100  1.3567  0.4792 -0.3367
  750MOL0     N 3413  10.803   2.169   6.649  0.5712 -0.0841  0.1663
  750MOL0     N 3414  10.702   2.100   6.695  0.1527 -0.5294 -0.4285
  750MOL0     C 3415  10.239   1.461   5.879  0.2779 -0.7717  1.3924
  750MOL0     C 3416  10.123   1.484   5.800  0.2482  0.4448  0.5365
  750MOL0     C 3417   9.725   1.498   5.594 -0.2178  0.7305 -0.0905
  750MOL0     C 3418   9.647   1.378   5.608 -0.0920 -0.1637 -0.0813
  750MOL0     C 3419   9.520   1.366   5.565 -0.1487 -0.3245 -0.6888
  750MOL0     C 3420   9.463   1.468   5.491  0.0521  0.1383 -0.8327
  750MOL0     O 3421   9.335   1.452   5.436 -0.1692  0.3600 -0.3266
  750MOL0     C 3422   9.312   1.326   5.374  0.2376  0.0156 -1.2069
  750MOL0     C 3423   9.253   1.366   5.233 -0.4896 -0.3297  0.2674
  750MOL0     C 3424   9.109   1.393   5.245 -1.1268 -1.0377 -0.5731
  750MOL0     C 3425   9.075   1.539   5.234 -0.3426 -0.0623 -0.3083
  750MOL0     C 3426   8.946   1.563   5.173  0.4394  0.0595  0.4096
  750MOL0     C 3427   8.829   1.599   5.149  1.0904 -0.0477 -0.4246
  750MOL0     C 3428   9.534   1.587   5.473 -0.7591  0.6314  0.3176
  750MOL0     C 3429   9.664   1.598   5.518 -0.5291  0.4162 -0.3880
  750MOL0     C 3430   9.727   1.737   5.503 -0.1587  0.4852 -0.2604
  750MOL0     H 3431   9.904   1.274   5.943 -0.6973  0.4045 -3.8497
  750MOL0     H 3432  10.117   1.266   6.112 -3.7193 -1.9094 -0.0307
  750MOL0     H 3433  10.243   1.328   6.265  0.2371  0.7741  2.0222
  750MOL0     H 3434  10.262   1.498   6.218 -0.2582  0.5835 -0.3531
  750MOL0     H 3435  10.458   1.286   6.322 -2.6959 -1.3214  0.2505
  750MOL0     H 3436  10.516   1.443   6.266  0.8116 -3.0089 -1.9379
  750MOL0     H 3437  10.296   1.428   6.480 -0.3066  1.6043  0.2276
  750MOL0     H 3438  10.468   1.406   6.522 -0.2290  1.9514  0.9108
  750MOL0     H 3439  10.514   1.627   6.425 -0.3690  1.5355  1.9312
  750MOL0     H 3440  10.346   1.646   6.373  1.3371 -2.3274 -3.0262
  750MOL0     H 3441  10.450   1.638   6.660  1.1123  0.6441 -0.1029
  750MOL0     H 3442  10.285   1.607   6.627 -0.3588  0.3369  1.1496
  750MOL0     H 3443  10.272   1.831   6.520 -2.7353 -2.4284  1.6384
  750MOL0     H 3444  10.307   1.838   6.696 -3.1793 -3.0900  0.4070
  750MOL0     H 3445  10.442   2.001   6.555 -1.5448 -1.1128 -2.0541
  750MOL0     H 3446  10.497   1.863   6.463 -4.3930 -3.4029  0.3242
  750MOL0     H 3447  10.570   1.880   6.759 -0.4823 -1.3200  0.9242
  750MOL0     H 3448  10.646   1.786   6.638  2.8611  1.4538 -1.0117
  750MOL0     H 3449  10.819   1.904   6.452  0.7973 -0.4740  1.6759
  750MOL0     H 3450  11.033   2.032   6.458  0.2010  0.7046 -0.2199
  750MOL0     H 3451  11.053   2.185   6.533  2.5729 -0.1531 -1.9867
  750MOL0     H 3452  10.879   2.116   6.300 -1.8973  0.0219  1.8093
  750MOL0     H 3453  10.902   2.285   6.345 -1.4535 -0.6473 -1.1980
  750MOL0     H 3454  11.120   2.106   6.227 -3.6639 -1.1154  0.5966
  750MOL0     H 3455  11.050   2.236   6.142 -1.5382 -0.1497 -0.3640
  750MOL0     H 3456  11.122   2.378   6.348  0.8227  0.1060  1.6896
  750MOL0     H 3457  11.246   2.247   6.368  1.6067  2.4752  0.1900
  750MOL0     H 3458  11.388   2.423   6.397 -1.2594 -0.3460 -0.4628
  750MOL0     H 3459  11.671   2.647   6.418 -0.1773  0.5785  0.1460
  750MOL0     H 3460  11.582   2.526   6.505  2.2766 -0.6431 -1.8271
  750MOL0     H 3461  11.531   2.687   6.521  1.8894 -2.3754  2.9892
  750MOL0     H 3462  11.706   3.013   5.922 -1.1633 -0.5435  1.0010
  750MOL0     H 3463  11.790   3.253   5.936  2.0772  0.9292  2.7469
  750MOL0     H 3464  11.770   3.504   5.885 -0.5602  1.7503 -1.5609
  750MOL0     H 3465  11.597   3.449   5.889 -2.2066  2.5714  0.8110
  750MOL0     H 3466  11.597   3.650   5.833 -1.8347  0.1035  0.4908
  750MOL0     H 3467  11.514   3.624   5.987  1.3050 -1.0431  2.3490
  750MOL0     H 3468  11.699   3.699   6.106  1.1193 -4.2494 -1.7655
  750MOL0     H 3469  11.636   3.825   6.000 -0.5136  0.6648 -2.7687
  750MOL0     H 3470  11.845   3.743   5.842 -2.9285 -0.3910 -0.6703
  750MOL0     H 3471  11.886   3.646   5.984 -3.2164 -1.5581  1.8124
  750MOL0     H 3472  12.003   3.880   5.950 -0.5060  1.5098 -0.1133
  750MOL0     H 3473  11.850   3.952   5.979  2.4220  0.4069 -3.0073
  750MOL0     H 3474  12.002   3.807   6.202  1.7348  2.1517  0.8756
  750MOL0     H 3475  11.846   3.885   6.217  0.4686 -0.7478  1.1654
  750MOL0     H 3476  11.925   4.103   6.183  1.3463  0.9763 -0.3012
  750MOL0     H 3477  12.085   4.035   6.116  0.5752  2.0150  0.6968
  750MOL0     H 3478  11.979   4.008   6.404  1.0524 -0.0855  2.3304
  750MOL0     H 3479  12.087   4.141   6.355  0.4144 -0.6698  2.1235
  750MOL0     H 3480  11.575   3.348   6.268  2.0202  1.5783 -0.8309
  750MOL0     H 3481  11.504   3.109   6.293  0.9527  0.8951  1.4181
  750MOL0     H 3482  11.378   2.753   6.019 -1.8470  1.2034  0.2192
  750MOL0     H 3483  11.267   2.525   6.009 -0.9883  2.1913  0.0316
  750MOL0     H 3484  10.332   1.509   5.849 -0.8918  1.7997  1.6332
  750MOL0     H 3485  10.142   1.535   5.706  1.9835  1.5661  1.4332
  750MOL0     H 3486   9.684   1.299   5.672  2.4575  0.9420 -0.0730
  750MOL0     H 3487   9.474   1.273   5.597 -2.9890  1.1854 -0.0242
  750MOL0     H 3488   9.408   1.278   5.350  0.5707  0.4106 -0.6768
  750MOL0     H 3489   9.244   1.252   5.418 -2.0354  2.0139 -1.1429
  750MOL0     H 3490   9.262   1.284   5.161 -0.2679  0.5871 -0.7771
  750MOL0     H 3491   9.309   1.454   5.200  1.4302 -0.3159  3.1636
  750MOL0     H 3492   9.075   1.354   5.148 -0.0556  1.8724 -2.2738
  750MOL0     H 3493   9.062   1.346   5.331 -1.3633  0.3573  0.0888
  750MOL0     H 3494   9.146   1.585   5.164  0.9509  0.4635  1.2687
  750MOL0     H 3495   9.086   1.594   5.328 -3.6256 -1.9871  1.3673
  750MOL0     H 3496   8.733   1.642   5.127  0.2726 -2.0589 -1.0608
  750MOL0     H 3497   9.479   1.657   5.411 -4.2939 -1.3731  0.9060
  750MOL0     H 3498   9.669   1.818   5.459 -0.4919  0.9854  1.0655
  750MOL0     H 3499   9.755   1.766   5.605 -0.3314  0.1037 -0.1010
  750MOL0     H 3500   9.808   1.726   5.430  0.1342  1.3009 -0.0652
  751MOL0     O 3501   7.981   9.881   8.438  0.3326  0.2046 -0.1495
  751MOL0     C 3502   7.908   9.817   8.357  0.2698  0.6277 -0.5013
  751MOL0     O 3503   7.785   9.850   8.317 -0.5895 -0.5183  0.4901
  751MOL0     C 3504   7.711   9.960   8.356  0.1276  1.0885 -0.0328
  751MOL0     C 3505   7.572   9.965   8.373  0.2216  0.0128  0.0571
  751MOL0     C 3506   7.501  10.082   8.416 -0.0763 -0.1921  0.5316
  751MOL0     C 3507   7.566  10.208   8.416  0.2201 -0.2013  1.0313
  751MOL0     O 3508   7.476  10.306   8.459 -0.6711 -0.3222 -0.0890
  751MOL0     C 3509   7.534  10.411   8.540 -0.1460  0.2999 -0.0259
  751MOL0     C 3510   7.435  10.472   8.639  0.8093  0.2400 -0.7767
  751MOL0     C 3511   7.342  10.570   8.573  0.4552  0.0915  0.2175
  751MOL0     C 3512   7.228  10.607   8.671  0.8614 -0.1679 -0.0583
  751MOL0     C 3513   7.129  10.684   8.586  0.4133  0.2542  0.1644
  751MOL0     C 3514   7.024  10.769   8.667 -0.3019  0.6636 -0.1632
  751MOL0     C 3515   6.946  10.710   8.795 -1.0683 -1.1464  0.2743
  751MOL0     C 3516   6.844  10.804   8.847  0.2919  0.0604 -0.1363
  751MOL0     N 3517   6.764  10.730   8.944 -0.7526 -1.0774 -0.6315
  751MOL0     C 3518   6.770  10.731   9.082 -0.0975  0.2257 -0.5088
  751MOL0     C 3519   6.689  10.635   9.129  0.0822 -0.2718  0.2449
  751MOL0     C 3520   6.638  10.621   9.268  0.6650 -0.4002  0.4042
  751MOL0     C 3521   6.752  10.569   9.349 -0.2532  0.2404  0.0530
  751MOL0     C 3522   6.712  10.522   9.490 -0.2834 -0.0163  0.4487
  751MOL0     C 3523   6.832  10.451   9.560  0.7877  0.2165 -0.0167
  751MOL0     O 3524   6.917  10.542   9.634 -0.1670 -0.1419 -0.4755
  751MOL0     C 3525   7.030  10.505   9.712 -0.3411 -0.0009 -0.3226
  751MOL0     C 3526   7.098  10.611   9.781 -0.4773 -0.1754  0.1193
  751MOL0     C 3527   7.216  10.591   9.843  0.2741 -0.2602  0.1504
  751MOL0     C 3528   7.274  10.716   9.899 -0.1895  0.7462  0.8622
  751MOL0     C 3529   7.271  10.464   9.848 -0.6827 -0.8601  0.4613
  751MOL0     C 3530   7.390  10.421   9.937  0.3333 -0.4758 -0.0178
  751MOL0     O 3531   7.425  10.291   9.935  0.3573  0.1856 -0.2171
  751MOL0     C 3532   7.489  10.242  10.053 -0.2462  0.5807 -0.4868
  751MOL0     C 3533   7.420  10.194  10.164 -0.6756 -0.4442 -0.1951
  751MOL0     C 3534   7.470  10.136  10.277  0.4905  0.0309 -0.2518
  751MOL0     C 3535   7.607  10.102  10.282  0.6981 -0.3575  0.0664
  751MOL0     O 3536   7.666  10.027  10.380  0.0336 -0.2507  0.0399
  751MOL0     C 3537   7.592  10.012  10.505 -0.3624 -0.2006  0.8758
  751MOL0     C 3538   7.680   9.972  10.626 -0.0619  0.1144 -0.1272
  751MOL0     C 3539   7.714  10.092  10.718  0.0445  0.3453  0.3548
  751MOL0     C 3540   7.858  10.094  10.791  1.1010 -0.9346 -0.2463
  751MOL0     C 3541   7.863   9.977  10.885 -0.0434  0.1266  0.7481
  751MOL0     C 3542   8.005   9.965  10.934  0.3849  0.0512  0.3511
  751MOL0     C 3543   8.008   9.874  11.052 -1.2325 -0.1983 -0.9298
  751MOL0     C 3544   8.115   9.901  11.152  0.6012  0.6187  0.6486
  751MOL0    Cl 3545   8.080   9.832  11.317  0.5212  0.3339  0.2927
  751MOL0     C 3546   7.684  10.141  10.174 -0.2213 -0.6416 -0.2485
  751MOL0     C 3547   7.627  10.208  10.060 -0.4067 -0.1273  0.4366
  751MOL0     O 3548   7.447  10.507  10.010 -0.4433  0.2513  0.1970
  751MOL0     C 3549   7.213  10.360   9.771  0.8116  0.4704  0.0353
  751MOL0     C 3550   7.092  10.384   9.705 -0.5983  0.2514  1.0036
  751MOL0     N 3551   6.647  10.566   9.019  0.3292 -0.6220 -0.9975
  751MOL0     N 3552   6.683  10.622   8.902  0.6832  0.3687 -0.3093
  751MOL0     C 3553   7.703  10.204   8.386 -0.9673  0.1511  0.0592
  751MOL0     C 3554   7.774  10.082   8.355 -0.5900 -0.3688  0.2588
  751MOL0     C 3555   7.957   9.691   8.299  0.5750  1.0410  0.3277
  751MOL0     C 3556   7.863   9.581   8.296 -1.1667 -0.0450  0.0518
  751MOL0     C 3557   7.909   9.448   8.264 -0.2278  0.8753 -0.3543
  751MOL0     C 3558   8.046   9.418   8.247 -1.1015  0.5073 -0.5143
  751MOL0     O 3559   8.104   9.288   8.229 -0.4786  1.0157  0.8588
  751MOL0     C 3560   8.024   9.169   8.257 -0.5630 -0.3143 -0.0599
  751MOL0     C 3561   8.128   9.056   8.271  0.4067  0.5107  0.1954
  751MOL0     C 3562   8.058   8.925   8.268  0.8041  0.1824  0.0642
  751MOL0     C 3563   8.144   8.803   8.310 -0.3242 -0.4830  0.2903
  751MOL0     C 3564   8.057   8.690   8.308  0.5496 -0.1623  0.4774
  751MOL0     C 3565   7.980   8.594   8.324  0.8173 -0.4485 -1.2003
  751MOL0     C 3566   8.133   9.529   8.249  0.5544  0.3382  0.8004
  751MOL0     C 3567   8.094   9.662   8.267 -0.2722  0.4915 -0.0153
  751MOL0     C 3568   8.200   9.776   8.269 -0.2971  0.0370 -0.5340
  751MOL0     H 3569   7.529   9.866   8.368  1.6785 -0.7567  1.4951
  751MOL0     H 3570   7.396  10.068   8.441 -0.4569  0.1884 -0.7429
  751MOL0     H 3571   7.587  10.483   8.476  1.9854 -0.2315  1.0635
  751MOL0     H 3572   7.605  10.357   8.604 -1.1976 -3.0136 -1.4334
  751MOL0     H 3573   7.381  10.394   8.693  1.2722  1.8937  2.2877
  751MOL0     H 3574   7.500  10.530   8.706  1.1761 -0.0922 -0.8400
  751MOL0     H 3575   7.394  10.661   8.546 -4.3327  3.0924 -0.0032
  751MOL0     H 3576   7.292  10.518   8.491 -1.2243 -0.9869  1.8381
  751MOL0     H 3577   7.170  10.525   8.714 -2.2092  1.4456 -0.7859
  751MOL0     H 3578   7.257  10.677   8.750  1.1130 -0.4428  0.0954
  751MOL0     H 3579   7.076  10.612   8.522  2.3379  1.6686 -3.2829
  751MOL0     H 3580   7.185  10.749   8.519 -1.5904  1.8819 -0.0114
  751MOL0     H 3581   7.093  10.846   8.703  4.6058 -3.5488  0.5856
  751MOL0     H 3582   6.955  10.809   8.592 -1.1662 -0.1254  0.1872
  751MOL0     H 3583   7.010  10.683   8.880 -0.9185  1.9822  1.2929
  751MOL0     H 3584   6.901  10.619   8.754  0.8077 -2.1533  0.3086
  751MOL0     H 3585   6.900  10.886   8.893  4.4722 -1.0487 -2.7159
  751MOL0     H 3586   6.778  10.836   8.766 -0.1592 -3.1913 -1.1827
  751MOL0     H 3587   6.819  10.806   9.143  1.5164 -0.2338 -1.1741
  751MOL0     H 3588   6.566  10.539   9.261 -0.5232  0.5519  1.1481
  751MOL0     H 3589   6.593  10.715   9.299  0.1764 -0.2038 -0.8281
  751MOL0     H 3590   6.806  10.489   9.297  1.6831 -0.8426  3.3842
  751MOL0     H 3591   6.822  10.651   9.364 -0.6999  0.2709  2.4279
  751MOL0     H 3592   6.676  10.608   9.547 -4.1122 -1.7471  0.9669
  751MOL0     H 3593   6.637  10.444   9.480 -1.6683  0.9268  2.6631
  751MOL0     H 3594   6.789  10.393   9.643 -0.7496  0.8499 -0.3355
  751MOL0     H 3595   6.890  10.392   9.488  0.7199  1.9701 -1.5697
  751MOL0     H 3596   7.058  10.711   9.773  0.4590  0.2238  0.3616
  751MOL0     H 3597   7.224  10.802   9.855 -2.1704  0.1422  1.8141
  751MOL0     H 3598   7.383  10.715   9.887 -0.2566 -0.7145  0.2114
  751MOL0     H 3599   7.249  10.712  10.006  0.3775 -2.5116  0.9702
  751MOL0     H 3600   7.315  10.219  10.156 -0.2725  0.8482 -2.3024
  751MOL0     H 3601   7.401  10.111  10.357  0.2583  0.6843 -0.2385
  751MOL0     H 3602   7.535  10.103  10.525 -1.2770 -0.2290 -1.3584
  751MOL0     H 3603   7.516   9.934  10.494 -0.5240  0.0052  0.5316
  751MOL0     H 3604   7.617   9.911  10.690  1.0979 -2.4233 -1.2740
  751MOL0     H 3605   7.776   9.923  10.604 -1.5289 -2.4891 -1.0579
  751MOL0     H 3606   7.641  10.097  10.800 -1.7143 -0.0859 -1.1089
  751MOL0     H 3607   7.715  10.187  10.664 -0.8323  0.3097  0.2638
  751MOL0     H 3608   7.866  10.187  10.848  0.4134  0.3660 -2.1827
  751MOL0     H 3609   7.933  10.091  10.712  0.8137  2.3047 -0.7762
  751MOL0     H 3610   7.795  10.000  10.967 -1.8790  0.7884 -0.8845
  751MOL0     H 3611   7.833   9.882  10.841 -1.7257  1.5680 -1.4784
  751MOL0     H 3612   8.029  10.071  10.944 -0.9650  0.3475  0.6201
  751MOL0     H 3613   8.071   9.917  10.861 -0.0381  0.8811 -0.5928
  751MOL0     H 3614   8.008   9.777  11.003  0.0338  0.3279 -2.0166
  751MOL0     H 3615   7.919   9.889  11.114 -2.3966  0.1026 -2.6167
  751MOL0     H 3616   8.136  10.008  11.149 -1.7314  1.1416  0.8012
  751MOL0     H 3617   8.199   9.840  11.118 -1.2439 -2.0881  0.5362
  751MOL0     H 3618   7.791  10.128  10.184 -0.1171  1.1442  1.3666
  751MOL0     H 3619   7.686  10.218   9.970  0.8698 -0.1924  1.2335
  751MOL0     H 3620   7.260  10.262   9.774  0.7301  0.3755  4.1219
  751MOL0     H 3621   7.059  10.308   9.635  1.2622 -0.3016  0.6702
  751MOL0     H 3622   7.757  10.298   8.397  0.4100  0.3696 -5.5281
  751MOL0     H 3623   7.879  10.086   8.328 -1.2516  0.5876 -2.5544
  751MOL0     H 3624   7.756   9.580   8.314 -0.8620 -2.1620  2.1893
  751MOL0     H 3625   7.833   9.372   8.247 -1.7221  2.3078 -0.3983
  751MOL0     H 3626   7.967   9.189   8.348 -1.6327  2.4655 -1.2268
  751MOL0     H 3627   7.953   9.147   8.176  0.4075 -1.2266 -0.6897
  751MOL0     H 3628   8.184   9.065   8.364 -0.5528  0.0896  0.8251
  751MOL0     H 3629   8.205   9.052   8.194 -0.0149 -0.1162 -0.1992
  751MOL0     H 3630   7.982   8.939   8.346  0.3373  3.8122 -0.8818
  751MOL0     H 3631   8.001   8.920   8.175  0.6894  3.2347 -0.1287
  751MOL0     H 3632   8.183   8.806   8.412  1.5719 -0.5329 -0.4028
  751MOL0     H 3633   8.229   8.783   8.245 -0.4797  1.4876 -0.6054
  751MOL0     H 3634   7.920   8.507   8.345 -3.6061  2.2267 -1.4114
  751MOL0     H 3635   8.238   9.505   8.242  0.5567 -0.0393  2.0067
  751MOL0     H 3636   8.194   9.813   8.372 -0.5276 -2.5957  0.4808
  751MOL0     H 3637   8.299   9.742   8.239  0.4003  1.2869  0.2440
  751MOL0     H 3638   8.179   9.856   8.198 -0.3927  2.1548  1.7489
  752MOL0     O 3639   6.452  10.889   9.160 -0.0210 -0.1992 -0.7753
  752MOL0     C 3640   6.395  10.960   9.080 -0.8292  0.7753 -0.2409
  752MOL0     O 3641   6.424  11.097   9.053 -0.7022 -0.6212 -0.8317
  752MOL0     C 3642   6.510  11.177   9.133  0.6813 -0.5634  0.6086
  752MOL0     C 3643   6.626  11.134   9.201 -0.4237  0.4409 -0.0418
  752MOL0     C 3644   6.705  11.234   9.268 -0.6346 -0.0901  0.1080
  752MOL0     C 3645   6.675  11.371   9.267  0.5794 -0.0423 -0.1904
  752MOL0     O 3646   6.760  11.461   9.330 -0.0745 -0.0573 -0.2122
  752MOL0     C 3647   6.770  11.593   9.271 -0.2388  0.3947 -0.6906
  752MOL0     C 3648   6.892  11.663   9.325  0.7188 -0.8249  0.2246
  752MOL0     C 3649   7.011  11.671   9.236 -0.1218  0.4401  0.4569
  752MOL0     C 3650   7.133  11.729   9.305  0.3942  0.2954 -0.1538
  752MOL0     C 3651   7.245  11.769   9.198 -0.1077 -0.6778 -0.4980
  752MOL0     C 3652   7.387  11.787   9.258 -0.0042  0.7127 -0.6665
  752MOL0     C 3653   7.408  11.921   9.334 -0.3625  1.0234  0.1965
  752MOL0     C 3654   7.556  11.946   9.362 -0.2710  0.2945 -0.1469
  752MOL0     N 3655   7.626  12.015   9.243  0.7460  0.2541  0.6415
  752MOL0     C 3656   7.668  11.954   9.127  0.2985  1.0334  0.1914
  752MOL0     C 3657   7.693  12.056   9.040 -0.1388  0.0711 -0.4984
  752MOL0     C 3658   7.762  12.031   8.909  0.1092  0.2958 -0.6610
  752MOL0     C 3659   7.744  12.141   8.811  1.0054 -1.0740 -0.3527
  752MOL0     C 3660   7.613  12.153   8.731 -0.2728 -0.2522  0.3428
  752MOL0     C 3661   7.601  12.042   8.622  0.0891  0.0281  0.2521
  752MOL0     O 3662   7.468  12.032   8.566 -0.5503  0.2545 -0.0923
  752MOL0     C 3663   7.418  12.124   8.480  0.0552 -0.6738  0.9415
  752MOL0     C 3664   7.495  12.239   8.432  0.6570 -0.2641 -0.0870
  752MOL0     C 3665   7.428  12.332   8.357 -0.4978 -0.6134 -0.7860
  752MOL0     C 3666   7.517  12.451   8.300 -0.4945 -0.7891  0.6442
  752MOL0     C 3667   7.289  12.325   8.332  0.7347 -0.3627 -0.0712
  752MOL0     C 3668   7.209  12.416   8.247  0.3344 -0.6443  0.1600
  752MOL0     O 3669   7.069  12.413   8.263  0.2877  1.6887  0.4119
  752MOL0     C 3670   6.975  12.437   8.165 -0.4846  0.8143  0.1031
  752MOL0     C 3671   7.001  12.448   8.026  0.6432  0.2733  0.5759
  752MOL0     C 3672   6.895  12.456   7.937 -1.1073 -0.0845  0.0445
  752MOL0     C 3673   6.765  12.467   7.981 -0.3652 -0.1928  0.4611
  752MOL0     O 3674   6.661  12.493   7.899  0.4494  0.3037 -0.0589
  752MOL0     C 3675   6.683  12.557   7.770 -0.4767  0.3196 -0.3307
  752MOL0     C 3676   6.543  12.594   7.729  0.6176  0.2168  0.4318
  752MOL0     C 3677   6.476  12.475   7.667 -0.0964  0.5751  0.1160
  752MOL0     C 3678   6.486  12.487   7.517 -0.0890  0.5720  0.7766
  752MOL0     C 3679   6.411  12.375   7.451 -0.4076  0.2583  0.1868
  752MOL0     C 3680   6.265  12.361   7.477  0.3028 -0.5490 -0.4702
  752MOL0     C 3681   6.187  12.283   7.362 -0.0200  0.7397  0.5049
  752MOL0     C 3682   6.050  12.334   7.311  0.3411  0.0890 -0.3543
  752MOL0    Cl 3683   5.949  12.209   7.235  0.2200 -0.3114  0.0258
  752MOL0     C 3684   6.739  12.450   8.117  0.0902 -0.0081 -0.0507
  752MOL0     C 3685   6.845  12.438   8.206  0.0972 -0.5492  0.2260
  752MOL0     O 3686   7.266  12.495   8.175  0.5472  0.2837 -0.0270
  752MOL0     C 3687   7.224  12.206   8.383  0.5645  0.3631  0.4386
  752MOL0     C 3688   7.283  12.116   8.468  0.2056  0.7722  0.0348
  752MOL0     N 3689   7.669  12.179   9.105  0.8258  1.2096 -0.1090
  752MOL0     N 3690   7.637  12.155   9.230  0.3499  0.2685  0.6443
  752MOL0     C 3691   6.557  11.401   9.191 -0.0644 -0.0078 -0.1950
  752MOL0     C 3692   6.469  11.304   9.128 -0.5566 -0.4483 -0.7387
  752MOL0     C 3693   6.311  10.882   8.990  0.9905  1.0174  0.0670
  752MOL0     C 3694   6.323  10.739   8.975 -0.4903 -0.5572  0.4521
  752MOL0     C 3695   6.253  10.672   8.874  1.0337  0.4823  0.4124
  752MOL0     C 3696   6.158  10.741   8.794  0.6404  0.0382 -0.3677
  752MOL0     O 3697   6.089  10.680   8.691  0.4697 -0.5337  0.2272
  752MOL0     C 3698   6.088  10.538   8.682 -0.1413  0.1158 -0.0325
  752MOL0     C 3699   6.206  10.503   8.596 -0.0668 -0.8172  0.0014
  752MOL0     C 3700   6.231  10.358   8.576  0.2858 -0.1625 -0.2084
  752MOL0     C 3701   6.275  10.281   8.701 -0.4616  0.7597  0.1796
  752MOL0     C 3702   6.342  10.149   8.681  0.0584  0.3045 -0.1924
  752MOL0     C 3703   6.399  10.047   8.670 -0.0587  0.4725  0.4840
  752MOL0     C 3704   6.144  10.879   8.810  0.1235  0.8499 -0.7479
  752MOL0     C 3705   6.222  10.953   8.906  0.1253  0.2702 -0.4704
  752MOL0     C 3706   6.174  11.099   8.910 -0.6917 -0.0367  0.1712
  752MOL0     H 3707   6.654  11.030   9.189  1.2642  1.0024 -1.3793
  752MOL0     H 3708   6.795  11.205   9.320  0.3484  0.8488 -1.0228
  752MOL0     H 3709   6.684  11.647   9.311  0.8467  0.2490  2.0193
  752MOL0     H 3710   6.765  11.587   9.162 -1.1500 -2.6696 -0.5614
  752MOL0     H 3711   6.878  11.771   9.325 -0.9231 -0.8683 -3.5435
  752MOL0     H 3712   6.912  11.636   9.429  0.5258 -1.1237  0.1842
  752MOL0     H 3713   7.034  11.570   9.204 -0.0031  1.1478 -1.8484
  752MOL0     H 3714   6.999  11.728   9.143  1.6864 -1.1319 -0.8166
  752MOL0     H 3715   7.093  11.819   9.351 -0.8799 -0.4425  0.2318
  752MOL0     H 3716   7.177  11.671   9.387  5.2498 -0.9676 -3.2239
  752MOL0     H 3717   7.210  11.855   9.141  0.0529 -0.6635 -0.5749
  752MOL0     H 3718   7.264  11.694   9.120 -0.0543  1.4823 -2.6549
  752MOL0     H 3719   7.409  11.705   9.328  0.2180  2.3919  1.3125
  752MOL0     H 3720   7.457  11.785   9.173  1.2552 -0.1664  0.3532
  752MOL0     H 3721   7.357  11.917   9.431  2.5604 -0.5027  1.7850
  752MOL0     H 3722   7.371  12.000   9.267 -0.0011  0.0844 -1.1475
  752MOL0     H 3723   7.567  12.013   9.447  1.5387  0.1642 -0.2410
  752MOL0     H 3724   7.604  11.852   9.392  0.4419  0.5364 -0.4981
  752MOL0     H 3725   7.690  11.853   9.096  1.8907  1.6087 -0.6866
  752MOL0     H 3726   7.726  11.942   8.857  1.0676  0.0217 -0.8689
  752MOL0     H 3727   7.868  12.020   8.935  0.5819  2.1991 -1.6054
  752MOL0     H 3728   7.759  12.236   8.864 -2.7869 -0.5203 -0.0025
  752MOL0     H 3729   7.829  12.131   8.742  0.8464  0.3796 -0.8095
  752MOL0     H 3730   7.529  12.154   8.800  0.3685  0.4198  1.1342
  752MOL0     H 3731   7.613  12.247   8.676 -1.1564 -0.9740 -0.9547
  752MOL0     H 3732   7.670  12.058   8.539 -0.1634  0.9156  0.1940
  752MOL0     H 3733   7.613  11.947   8.674 -1.7139  0.1509  0.9816
  752MOL0     H 3734   7.601  12.258   8.444  0.2292  3.5077 -0.8864
  752MOL0     H 3735   7.622  12.431   8.324  0.2252  2.3407  0.5193
  752MOL0     H 3736   7.477  12.544   8.341  1.3033  0.4589 -0.3246
  752MOL0     H 3737   7.501  12.451   8.192 -1.2857 -1.0027  0.7513
  752MOL0     H 3738   7.103  12.432   7.995  1.1040 -0.1002  2.1927
  752MOL0     H 3739   6.926  12.461   7.833  1.9490  0.3022  0.8687
  752MOL0     H 3740   6.748  12.644   7.777  1.7592 -1.1408 -1.6906
  752MOL0     H 3741   6.726  12.493   7.693 -0.0208 -2.8923  2.3553
  752MOL0     H 3742   6.484  12.623   7.816  0.1960  0.4265  0.0753
  752MOL0     H 3743   6.562  12.681   7.664  2.6295 -1.0692 -0.8347
  752MOL0     H 3744   6.375  12.486   7.707  0.0319 -2.0599  1.3777
  752MOL0     H 3745   6.516  12.381   7.707  1.3457  1.9755  2.1340
  752MOL0     H 3746   6.591  12.486   7.487 -0.0176  2.3075  0.8954
  752MOL0     H 3747   6.449  12.583   7.480  1.9237  1.0370 -0.1236
  752MOL0     H 3748   6.422  12.385   7.343  0.5002  1.2508  0.3527
  752MOL0     H 3749   6.457  12.280   7.479 -1.9465 -0.3170  0.8857
  752MOL0     H 3750   6.222  12.461   7.475 -3.6439 -2.0600 -1.3274
  752MOL0     H 3751   6.250  12.313   7.574 -1.2686 -2.6831 -1.6651
  752MOL0     H 3752   6.176  12.189   7.417 -0.1658  0.5204  0.1077
  752MOL0     H 3753   6.253  12.265   7.276  0.2861 -0.4908  0.9694
  752MOL0     H 3754   6.049  12.424   7.248  3.5661  0.7892  0.4136
  752MOL0     H 3755   5.996  12.355   7.404  1.3361 -1.0862  0.5253
  752MOL0     H 3756   6.635  12.446   8.148 -0.5632  1.5433 -1.8136
  752MOL0     H 3757   6.834  12.408   8.310  2.8633 -2.0153  0.1747
  752MOL0     H 3758   7.119  12.194   8.360  0.9114  2.2156 -2.6328
  752MOL0     H 3759   7.234  12.025   8.502 -2.8142  2.9375  1.9606
  752MOL0     H 3760   6.525  11.505   9.187  0.8217  0.2407 -1.6427
  752MOL0     H 3761   6.377  11.338   9.082 -0.0237  0.2400 -1.3366
  752MOL0     H 3762   6.407  10.690   9.022  2.1336  0.7434 -2.4648
  752MOL0     H 3763   6.272  10.565   8.882 -0.7277  0.2612  5.7379
  752MOL0     H 3764   6.101  10.491   8.780 -1.2203 -2.0319 -0.8495
  752MOL0     H 3765   5.990  10.508   8.644 -1.1785  2.2219  0.8128
  752MOL0     H 3766   6.295  10.543   8.645  0.0484 -1.0755  0.0057
  752MOL0     H 3767   6.185  10.545   8.497  0.0042 -1.4588 -0.2916
  752MOL0     H 3768   6.140  10.319   8.528 -0.1425 -0.9200  1.1686
  752MOL0     H 3769   6.315  10.358   8.506  1.7432  1.9291  1.4006
  752MOL0     H 3770   6.185  10.260   8.758 -1.3332  1.0700 -1.0434
  752MOL0     H 3771   6.344  10.346   8.755  0.6298  0.8837 -1.2924
  752MOL0     H 3772   6.434   9.945   8.673 -0.2823  0.4020  0.7130
  752MOL0     H 3773   6.076  10.926   8.741  2.8904  3.2079 -2.1015
  752MOL0     H 3774   6.069  11.117   8.936 -0.8673  1.3885 -1.3704
  752MOL0     H 3775   6.222  11.172   8.976 -2.7903 -1.0868  3.0881
  752MOL0     H 3776   6.171  11.140   8.809 -1.4461 -0.1811  0.1333
  753MOL0     O 3777   3.289   0.637   5.396 -0.0407 -0.8690 -0.2333
  753MOL0     C 3778   3.222   0.579   5.485 -0.8947  0.2016 -0.3251
  753MOL0     O 3779   3.259   0.478   5.565 -0.0943  0.3476  0.4123
  753MOL0     C 3780   3.393   0.454   5.543 -0.4355  0.2774  0.3832
  753MOL0     C 3781   3.488   0.522   5.623 -0.6307 -0.0521 -0.5445
  753MOL0     C 3782   3.625   0.490   5.610 -0.1696 -0.1176 -0.0808
  753MOL0     C 3783   3.670   0.392   5.529 -0.1717  0.3086 -0.5089
  753MOL0     O 3784   3.807   0.369   5.525  0.1134  0.5194  0.3673
  753MOL0     C 3785   3.855   0.253   5.443 -0.4362  0.2175  0.4336
  753MOL0     C 3786   4.002   0.259   5.439  0.1385 -0.1028 -0.3418
  753MOL0     C 3787   4.052   0.389   5.374 -1.0746  0.1509 -0.3749
  753MOL0     C 3788   4.204   0.376   5.347  0.4400  0.0363  0.3195
  753MOL0     C 3789   4.233   0.478   5.236  0.5378 -0.4943 -0.2608
  753MOL0     C 3790   4.380   0.479   5.201 -0.5594 -0.3307  0.5192
  753MOL0     C 3791   4.434   0.342   5.160  0.6557 -0.1673  0.0657
  753MOL0     C 3792   4.592   0.328   5.183  0.7595 -0.3364 -0.1540
  753MOL0     N 3793   4.642   0.195   5.156  0.3741 -0.9078  0.0151
  753MOL0     C 3794   4.729   0.164   5.058  0.4410 -0.3956 -0.2181
  753MOL0     C 3795   4.748   0.034   5.083 -1.2029  0.6358  0.4494
  753MOL0     C 3796   4.843  -0.052   5.016  0.5659  0.2635  0.3821
  753MOL0     C 3797   4.986  -0.040   5.079 -0.4514  0.0954 -0.3067
  753MOL0     C 3798   5.028  -0.137   5.189 -0.4795  0.1529  0.3349
  753MOL0     C 3799   5.160  -0.094   5.258 -0.0852 -0.8151  0.3427
  753MOL0     O 3800   5.141  -0.029   5.382  1.1751 -0.0969  0.1570
  753MOL0     C 3801   5.142  -0.107   5.496 -0.4401 -0.6124 -0.4358
  753MOL0     C 3802   5.048  -0.089   5.591 -0.2080 -0.8634 -0.2026
  753MOL0     C 3803   5.053  -0.161   5.708  0.0944  1.2858 -0.5013
  753MOL0     C 3804   4.926  -0.144   5.794  0.1022  0.2002  0.8036
  753MOL0     C 3805   5.166  -0.250   5.740  1.3175  0.0574  0.0448
  753MOL0     C 3806   5.175  -0.334   5.860 -1.3037 -1.3208 -0.2538
  753MOL0     O 3807   5.079  -0.335   5.953 -0.0350  0.5006  0.0264
  753MOL0     C 3808   5.129  -0.360   6.075 -0.3110  0.5104 -1.0747
  753MOL0     C 3809   5.248  -0.312   6.135 -0.0345  0.9621 -0.0673
  753MOL0     C 3810   5.285  -0.357   6.263  0.3405 -0.1704 -0.4051
  753MOL0     C 3811   5.209  -0.447   6.334 -0.4314 -0.4587  0.2921
  753MOL0     O 3812   5.234  -0.496   6.461  0.3759  0.8184 -0.4147
  753MOL0     C 3813   5.377  -0.516   6.495  0.2084  0.2463  0.2493
  753MOL0     C 3814   5.424  -0.419   6.608 -1.0836  0.4997  0.2839
  753MOL0     C 3815   5.569  -0.444   6.651 -0.0973 -0.1614 -0.3731
  753MOL0     C 3816   5.683  -0.405   6.554  0.1237  0.0133  0.4095
  753MOL0     C 3817   5.817  -0.400   6.626 -0.0271 -0.5465  0.2758
  753MOL0     C 3818   5.860  -0.543   6.662  1.0000  0.2206 -0.3964
  753MOL0     C 3819   6.009  -0.540   6.710  0.5226  0.8618  0.4282
  753MOL0     C 3820   6.086  -0.672   6.705  0.1018 -0.0938 -0.1413
  753MOL0    Cl 3821   6.173  -0.720   6.546  0.5419 -0.1806 -0.0743
  753MOL0     C 3822   5.086  -0.494   6.278 -0.7284 -0.4256  0.0288
  753MOL0     C 3823   5.052  -0.446   6.148 -0.1645 -0.6173 -0.4585
  753MOL0     O 3824   5.284  -0.380   5.870  0.3271  0.9827  0.8924
  753MOL0     C 3825   5.265  -0.252   5.640 -0.0539  0.0301 -0.0056
  753MOL0     C 3826   5.259  -0.179   5.521 -0.2441 -0.5123 -0.0423
  753MOL0     N 3827   4.666  -0.009   5.189 -0.3202 -0.2839 -0.1382
  753MOL0     N 3828   4.599   0.097   5.232  0.5149  0.3046  0.3344
  753MOL0     C 3829   3.572   0.327   5.449 -0.4606  0.4131 -0.0577
  753MOL0     C 3830   3.436   0.355   5.449 -0.4949  0.7814  0.4403
  753MOL0     C 3831   3.080   0.619   5.496  0.1335 -0.4173 -0.0151
  753MOL0     C 3832   3.008   0.550   5.594  0.2425  0.0674 -0.5674
  753MOL0     C 3833   2.873   0.563   5.614  0.0460  0.5934 -0.1547
  753MOL0     C 3834   2.792   0.638   5.531  0.7005  0.1312 -0.1189
  753MOL0     O 3835   2.651   0.652   5.534 -0.6474 -0.0189  0.1327
  753MOL0     C 3836   2.576   0.589   5.635 -0.9312  0.7434 -0.4479
  753MOL0     C 3837   2.420   0.592   5.596 -0.1526  0.2141 -0.3652
  753MOL0     C 3838   2.342   0.505   5.696  0.2734  0.4244 -0.2395
  753MOL0     C 3839   2.185   0.508   5.668 -0.0897 -0.2726 -0.6859
  753MOL0     C 3840   2.100   0.438   5.763  0.3707  0.0486  1.2982
  753MOL0     C 3841   2.022   0.381   5.835 -0.3090 -0.0652  0.7607
  753MOL0     C 3842   2.857   0.703   5.427  0.1553 -0.4523 -0.7518
  753MOL0     C 3843   3.004   0.702   5.408  1.1597  1.1475  0.5240
  753MOL0     C 3844   3.057   0.794   5.299  0.2389 -0.3399 -0.3472
  753MOL0     H 3845   3.464   0.610   5.683  2.0350  2.0854 -2.3723
  753MOL0     H 3846   3.700   0.554   5.656 -0.6246  1.1747 -1.0751
  753MOL0     H 3847   3.819   0.263   5.341  1.6584 -0.6774 -0.4563
  753MOL0     H 3848   3.823   0.161   5.493  1.6632 -1.3376 -0.8712
  753MOL0     H 3849   4.057   0.250   5.533  1.5088 -0.0773 -1.1188
  753MOL0     H 3850   4.026   0.175   5.374 -1.9100  0.9482 -2.6210
  753MOL0     H 3851   4.002   0.400   5.277 -0.6635  1.1395 -0.4911
  753MOL0     H 3852   4.033   0.470   5.445 -2.0742  1.3290 -1.9181
  753MOL0     H 3853   4.270   0.410   5.427  2.4128 -0.9474 -0.8202
  753MOL0     H 3854   4.224   0.271   5.324  0.4325  0.1067 -0.0075
  753MOL0     H 3855   4.193   0.578   5.255 -0.4685 -1.2349  1.8268
  753MOL0     H 3856   4.188   0.438   5.145  1.0041 -0.1160 -0.6618
  753MOL0     H 3857   4.399   0.548   5.118  0.6848 -0.3276  0.7830
  753MOL0     H 3858   4.431   0.518   5.290  1.6881  1.1361 -1.2891
  753MOL0     H 3859   4.401   0.307   5.062 -0.8000 -2.5324  1.3045
  753MOL0     H 3860   4.401   0.259   5.223 -1.9993  0.4808 -0.3698
  753MOL0     H 3861   4.648   0.403   5.126  1.1333 -0.5175 -0.0258
  753MOL0     H 3862   4.625   0.363   5.281  6.1475  0.0732 -1.7999
  753MOL0     H 3863   4.771   0.221   4.976 -0.5010  1.0205  0.2582
  753MOL0     H 3864   4.843  -0.047   4.906  1.6020 -2.1881  0.2204
  753MOL0     H 3865   4.806  -0.153   5.034  1.0588 -0.0132 -0.0927
  753MOL0     H 3866   5.057  -0.054   4.998  0.6728 -0.7708  0.7926
  753MOL0     H 3867   4.992   0.062   5.118  0.0467 -0.0925  0.1071
  753MOL0     H 3868   4.953  -0.145   5.268 -0.0625  2.0642  0.9827
  753MOL0     H 3869   5.029  -0.238   5.147  2.7282  0.7276 -1.3143
  753MOL0     H 3870   5.238  -0.170   5.269  1.6463  1.0944  2.3649
  753MOL0     H 3871   5.207  -0.019   5.192 -0.6303 -0.2722  0.5609
  753MOL0     H 3872   4.963  -0.023   5.579 -1.5704 -2.0965  2.0063
  753MOL0     H 3873   4.891  -0.244   5.822 -0.7160  0.5677  1.1393
  753MOL0     H 3874   4.840  -0.089   5.754 -1.8401 -1.5950  2.2787
  753MOL0     H 3875   4.950  -0.091   5.887 -0.5192  0.4601  0.8181
  753MOL0     H 3876   5.315  -0.249   6.078  0.5411  0.6023  0.2041
  753MOL0     H 3877   5.384  -0.323   6.295  0.6005 -1.4034  0.1696
  753MOL0     H 3878   5.388  -0.620   6.526  1.0251  1.1721  3.4384
  753MOL0     H 3879   5.432  -0.514   6.401 -0.9662 -3.5583 -0.6508
  753MOL0     H 3880   5.409  -0.311   6.595 -1.4346  0.6697  1.8013
  753MOL0     H 3881   5.366  -0.435   6.700  1.7196 -1.6821  1.8234
  753MOL0     H 3882   5.577  -0.549   6.680 -0.7114 -0.6268 -1.8012
  753MOL0     H 3883   5.589  -0.378   6.736 -4.1166 -0.4573  0.9887
  753MOL0     H 3884   5.660  -0.304   6.519  0.7098  0.3011  0.8418
  753MOL0     H 3885   5.691  -0.469   6.466 -1.1970 -1.3998  1.2630
  753MOL0     H 3886   5.897  -0.368   6.559  1.2470  0.3177  2.1281
  753MOL0     H 3887   5.800  -0.339   6.716 -0.3244  1.2240 -0.9342
  753MOL0     H 3888   5.854  -0.603   6.571 -0.4879 -1.8225  0.9392
  753MOL0     H 3889   5.795  -0.597   6.731  3.1385 -2.6077 -0.3715
  753MOL0     H 3890   6.017  -0.506   6.813  1.1687 -0.6064  0.8757
  753MOL0     H 3891   6.061  -0.484   6.631  0.1611 -2.3779 -2.3415
  753MOL0     H 3892   6.009  -0.744   6.733  1.2467 -1.0494  0.6522
  753MOL0     H 3893   6.164  -0.677   6.782 -0.3949 -0.6639  0.3257
  753MOL0     H 3894   5.008  -0.553   6.325 -0.8795 -0.9947 -0.9157
  753MOL0     H 3895   4.961  -0.476   6.097 -2.2944  4.3398 -0.1597
  753MOL0     H 3896   5.359  -0.305   5.655 -0.7942 -0.8450  1.8265
  753MOL0     H 3897   5.342  -0.187   5.452 -0.1129 -0.5646  0.1195
  753MOL0     H 3898   3.608   0.240   5.395  4.0206  1.9269  0.0801
  753MOL0     H 3899   3.361   0.294   5.400 -0.5090  0.0874  1.3008
  753MOL0     H 3900   3.063   0.496   5.669 -1.9217  2.5162  3.0766
  753MOL0     H 3901   2.827   0.514   5.699  3.0654  1.2321  1.9957
  753MOL0     H 3902   2.609   0.485   5.639  0.0085  0.9787 -1.6798
  753MOL0     H 3903   2.600   0.631   5.734 -2.4639 -0.1733  0.3576
  753MOL0     H 3904   2.415   0.548   5.496 -0.9445  1.1298 -0.7549
  753MOL0     H 3905   2.380   0.693   5.582  0.4669  0.8558  2.0572
  753MOL0     H 3906   2.375   0.401   5.693 -0.0560  0.2995  0.3354
  753MOL0     H 3907   2.361   0.543   5.797 -1.7866 -2.2124  1.2759
  753MOL0     H 3908   2.157   0.478   5.567 -0.1463  0.6512 -0.9531
  753MOL0     H 3909   2.162   0.615   5.667  0.9966 -0.0033 -2.7894
  753MOL0     H 3910   1.956   0.334   5.904 -0.8681  1.0980  1.0306
  753MOL0     H 3911   2.800   0.756   5.351 -2.0417  1.1535  1.8406
  753MOL0     H 3912   3.161   0.820   5.321 -0.8534  2.9477  1.7985
  753MOL0     H 3913   3.047   0.753   5.198  2.3799 -1.0831 -0.3064
  753MOL0     H 3914   2.998   0.886   5.294 -2.6766 -1.9722  1.0560
  754MOL0     O 3915   9.311   6.867   6.954 -0.5571  0.2769  0.1604
  754MOL0     C 3916   9.363   6.975   6.968  0.1050  0.2522 -0.2546
  754MOL0     O 3917   9.483   7.015   6.930 -0.4958  0.6093  0.4479
  754MOL0     C 3918   9.587   6.922   6.912  0.5022  0.0454 -0.3389
  754MOL0     C 3919   9.684   6.968   6.817  0.0769 -0.7405  0.1437
  754MOL0     C 3920   9.777   6.882   6.757  0.3593  0.2612  0.1113
  754MOL0     C 3921   9.781   6.749   6.792  0.2648  0.1051 -0.2365
  754MOL0     O 3922   9.867   6.660   6.723  0.1364  0.3866 -0.7727
  754MOL0     C 3923   9.963   6.587   6.798  0.9690 -0.6478 -0.1001
  754MOL0     C 3924  10.083   6.666   6.828 -0.0804 -0.7974 -0.3761
  754MOL0     C 3925  10.150   6.712   6.701 -0.6065 -0.1254  0.0258
  754MOL0     C 3926  10.289   6.765   6.727  0.1948 -0.6357 -1.3471
  754MOL0     C 3927  10.333   6.856   6.617  0.2020  0.9085  0.0786
  754MOL0     C 3928  10.472   6.909   6.640 -0.0488 -0.1461  0.7454
  754MOL0     C 3929  10.590   6.820   6.691  1.2313  0.2844  0.6572
  754MOL0     C 3930  10.705   6.913   6.729  0.6359 -1.3225  0.4504
  754MOL0     N 3931  10.826   6.830   6.729 -0.0297  0.3120  0.8401
  754MOL0     C 3932  10.890   6.780   6.610  0.0923  0.7289 -0.1559
  754MOL0     C 3933  11.014   6.738   6.648 -0.6968  0.4877  0.0069
  754MOL0     C 3934  11.130   6.679   6.570  0.2119  0.4567  0.8926
  754MOL0     C 3935  11.265   6.731   6.630  0.1294 -0.6526 -0.2060
  754MOL0     C 3936  11.383   6.706   6.540 -0.7270  0.6752 -0.0014
  754MOL0     C 3937  11.507   6.778   6.603  0.5534 -0.3375  0.3773
  754MOL0     O 3938  11.636   6.738   6.545 -0.7162 -0.1593 -0.0361
  754MOL0     C 3939  11.742   6.722   6.635 -0.1085 -0.5110  1.9452
  754MOL0     C 3940  11.823   6.613   6.618 -1.5225  0.6323 -0.5349
  754MOL0     C 3941  11.930   6.579   6.704  0.3736 -0.1976 -0.8538
  754MOL0     C 3942  11.994   6.449   6.683 -0.4905 -0.3580  0.6177
  754MOL0     C 3943  11.955   6.667   6.816 -0.0558  0.3139 -0.4401
  754MOL0     C 3944  12.067   6.653   6.913  0.0872 -0.3332 -0.3527
  754MOL0     O 3945  12.089   6.761   6.987 -0.0571 -0.2911  0.7596
  754MOL0     C 3946  12.202   6.784   7.072  0.1273 -1.2346 -0.5616
  754MOL0     C 3947  12.247   6.691   7.170  0.4017 -0.6173  1.3437
  754MOL0     C 3948  12.356   6.716   7.247  0.1347 -1.4361 -0.2521
  754MOL0     C 3949  12.426   6.837   7.243  1.1646  0.5147  0.1882
  754MOL0     O 3950  12.535   6.849   7.323 -0.3990  0.3031  0.3317
  754MOL0     C 3951  12.598   6.974   7.334 -0.3425  0.5962  0.8533
  754MOL0     C 3952  12.709   6.980   7.437  0.1551  0.0631 -0.2774
  754MOL0     C 3953  12.841   6.922   7.385 -0.2061  0.0577 -0.5491
  754MOL0     C 3954  12.920   6.849   7.493  0.0026 -0.4661 -0.1651
  754MOL0     C 3955  13.062   6.818   7.450  0.4917 -0.7594 -0.6406
  754MOL0     C 3956  13.133   6.701   7.522  1.0634 -0.4552 -0.9238
  754MOL0     C 3957  13.263   6.678   7.442 -0.2111 -0.1642 -0.0322
  754MOL0     C 3958  13.351   6.796   7.402 -0.6984 -0.4996 -0.0556
  754MOL0    Cl 3959  13.505   6.738   7.343 -0.0614 -0.0136 -0.1722
  754MOL0     C 3960  12.386   6.930   7.138 -0.5817 -0.1683 -0.1899
  754MOL0     C 3961  12.278   6.905   7.063  0.6016 -1.1482 -0.2009
  754MOL0     O 3962  12.127   6.543   6.920 -0.9615 -0.7342  0.2193
  754MOL0     C 3963  11.879   6.780   6.830 -0.0898 -0.5825  0.9342
  754MOL0     C 3964  11.769   6.811   6.739  0.0307  0.5018 -0.0042
  754MOL0     N 3965  11.014   6.755   6.786  0.1452 -0.8396 -0.7342
  754MOL0     N 3966  10.902   6.793   6.837 -0.5487  0.4032  0.2886
  754MOL0     C 3967   9.690   6.693   6.884  0.0041  0.1588 -0.1844
  754MOL0     C 3968   9.599   6.786   6.947 -0.4683 -0.2505  0.0394
  754MOL0     C 3969   9.270   7.077   7.005  0.6946  0.0737 -0.7997
  754MOL0     C 3970   9.140   7.063   6.971  0.7579  0.4635 -0.0648
  754MOL0     C 3971   9.035   7.149   7.008  0.7000  0.0921 -0.3119
  754MOL0     C 3972   9.065   7.259   7.088  0.8125  0.2315 -0.6973
  754MOL0     O 3973   8.978   7.362   7.091 -0.0318  0.5647 -0.2851
  754MOL0     C 3974   8.842   7.365   7.036 -0.5181  0.8918 -0.5061
  754MOL0     C 3975   8.732   7.304   7.124  0.4801 -0.7327  0.3355
  754MOL0     C 3976   8.728   7.387   7.254 -1.2630  0.2775  0.9051
  754MOL0     C 3977   8.647   7.302   7.355  0.0481  0.2564  0.4171
  754MOL0     C 3978   8.631   7.383   7.475 -0.5940  0.5144  0.0813
  754MOL0     C 3979   8.597   7.451   7.564  0.1597 -0.0523 -0.2763
  754MOL0     C 3980   9.196   7.269   7.136 -0.2481  0.4644  0.1605
  754MOL0     C 3981   9.296   7.180   7.089  0.9428 -0.0482 -0.0811
  754MOL0     C 3982   9.434   7.193   7.154 -0.3353 -0.4761 -0.3088
  754MOL0     H 3983   9.684   7.073   6.789 -1.0286 -1.0592 -1.1583
  754MOL0     H 3984   9.846   6.919   6.682 -0.1118  0.7905 -0.0775
  754MOL0     H 3985   9.989   6.501   6.736 -1.4555 -0.3909 -1.6281
  754MOL0     H 3986   9.921   6.561   6.896 -1.9358  0.7038 -0.8584
  754MOL0     H 3987  10.057   6.755   6.885  2.4914 -2.0079  2.9746
  754MOL0     H 3988  10.153   6.602   6.882  0.0631 -0.9296 -0.7119
  754MOL0     H 3989  10.150   6.628   6.632  0.1037  1.3972 -1.9071
  754MOL0     H 3990  10.091   6.789   6.650 -0.1529 -0.7083 -1.4235
  754MOL0     H 3991  10.283   6.831   6.814  1.2955  1.1294 -2.5380
  754MOL0     H 3992  10.366   6.692   6.753 -0.8105 -0.7771  1.5998
  754MOL0     H 3993  10.259   6.936   6.612  1.5129  2.0601 -1.7202
  754MOL0     H 3994  10.323   6.798   6.525  1.4905  0.0083  0.4705
  754MOL0     H 3995  10.493   6.935   6.535 -1.4494 -1.4880  0.0978
  754MOL0     H 3996  10.476   6.995   6.708  2.3944 -2.2043  3.4763
  754MOL0     H 3997  10.604   6.753   6.605 -1.2489  0.0624  0.3550
  754MOL0     H 3998  10.562   6.771   6.784 -0.6283  0.1384  0.0605
  754MOL0     H 3999  10.715   6.989   6.651  0.4777 -0.4215  1.2919
  754MOL0     H 4000  10.688   6.960   6.826  0.0008 -0.2990 -0.1420
  754MOL0     H 4001  10.859   6.797   6.507 -4.2777  0.1816  0.8756
  754MOL0     H 4002  11.118   6.713   6.466 -4.1745 -0.3820  0.9212
  754MOL0     H 4003  11.126   6.572   6.591 -0.7465  0.2534 -0.1943
  754MOL0     H 4004  11.256   6.836   6.656  1.4974 -1.0005  2.0808
  754MOL0     H 4005  11.270   6.668   6.720  1.1519 -1.3279 -0.7082
  754MOL0     H 4006  11.399   6.599   6.523 -3.0642  0.5973 -2.3890
  754MOL0     H 4007  11.368   6.740   6.437  0.0197 -1.8882 -1.0211
  754MOL0     H 4008  11.499   6.885   6.582  1.0753 -0.6022 -1.3027
  754MOL0     H 4009  11.508   6.761   6.711 -0.3309  0.1382  0.4678
  754MOL0     H 4010  11.813   6.542   6.536  0.3897 -3.9704  2.7886
  754MOL0     H 4011  12.096   6.463   6.644  0.4389  1.8332  3.4753
  754MOL0     H 4012  11.921   6.386   6.631 -2.1082  0.7097  1.5387
  754MOL0     H 4013  12.009   6.398   6.779  0.8133 -2.5322 -0.6335
  754MOL0     H 4014  12.192   6.598   7.174  1.1675 -1.0385  3.0326
  754MOL0     H 4015  12.407   6.635   7.299  2.4898  0.1352  0.0328
  754MOL0     H 4016  12.635   7.005   7.235  1.5820  1.5043  1.7937
  754MOL0     H 4017  12.521   7.048   7.357  1.1088  1.4782  3.2158
  754MOL0     H 4018  12.738   7.083   7.456  1.8917 -0.3062 -0.7040
  754MOL0     H 4019  12.671   6.932   7.528  0.2742 -2.2592 -1.3767
  754MOL0     H 4020  12.895   7.013   7.358  0.0856  0.5071  1.3652
  754MOL0     H 4021  12.818   6.847   7.309  2.4676 -1.4082 -0.0459
  754MOL0     H 4022  12.872   6.757   7.526 -1.2715  0.4739  0.7288
  754MOL0     H 4023  12.917   6.893   7.594  1.7958  1.2496 -0.8037
  754MOL0     H 4024  13.062   6.786   7.345 -0.3464  4.7894 -2.6964
  754MOL0     H 4025  13.122   6.909   7.460 -1.2134  0.7067 -2.7322
  754MOL0     H 4026  13.067   6.614   7.519  0.4738 -0.1396  1.4531
  754MOL0     H 4027  13.141   6.730   7.627  0.9102  4.0970 -1.9411
  754MOL0     H 4028  13.248   6.620   7.350 -2.0394  1.6994 -1.0105
  754MOL0     H 4029  13.329   6.610   7.497 -0.4514  0.2943  0.8203
  754MOL0     H 4030  13.373   6.867   7.482 -0.2433  0.0253 -0.6266
  754MOL0     H 4031  13.300   6.856   7.325 -0.6882  0.5320  0.7209
  754MOL0     H 4032  12.449   7.017   7.119 -0.3629 -0.3663 -0.3770
  754MOL0     H 4033  12.251   6.982   6.991 -1.0826  0.1015  1.6539
  754MOL0     H 4034  11.890   6.851   6.911 -0.7007  1.1864 -0.4728
  754MOL0     H 4035  11.712   6.902   6.757 -0.0009  0.4801  0.0053
  754MOL0     H 4036   9.706   6.588   6.909  1.7096  0.9314  2.3301
  754MOL0     H 4037   9.519   6.743   7.006  0.4314 -0.4397  1.1678
  754MOL0     H 4038   9.113   6.986   6.899  0.6133 -1.1019  1.5694
  754MOL0     H 4039   8.946   7.130   6.948  2.8607 -0.1510 -3.7488
  754MOL0     H 4040   8.821   7.470   7.015 -1.6204  0.2384 -2.9943
  754MOL0     H 4041   8.837   7.312   6.941 -5.6507  1.2332 -0.6773
  754MOL0     H 4042   8.747   7.197   7.140  2.9540 -0.3613  0.9227
  754MOL0     H 4043   8.636   7.321   7.075  1.2139 -0.8455 -1.1934
  754MOL0     H 4044   8.828   7.404   7.293 -1.6960  3.7823  0.7895
  754MOL0     H 4045   8.678   7.483   7.240 -0.4467  0.6205  0.2929
  754MOL0     H 4046   8.698   7.205   7.361  0.5546  0.2695 -2.4044
  754MOL0     H 4047   8.544   7.280   7.324  1.1092 -1.7907 -2.0758
  754MOL0     H 4048   8.548   7.498   7.648  1.5677 -0.5640  0.8665
  754MOL0     H 4049   9.222   7.350   7.204  0.8757  0.3748 -0.1455
  754MOL0     H 4050   9.516   7.195   7.082  0.5011 -1.6406  0.5609
  754MOL0     H 4051   9.438   7.286   7.212  0.6041 -0.1688 -0.8592
  754MOL0     H 4052   9.457   7.108   7.219  0.6610 -0.6045 -0.8207
  755MOL0     O 4053   3.339   9.395  10.498  0.4577 -0.1921  0.4153
  755MOL0     C 4054   3.215   9.388  10.511  0.2211 -0.2201 -0.0507
  755MOL0     O 4055   3.142   9.476  10.592 -0.0272  0.9096 -0.0794
  755MOL0     C 4056   3.232   9.557  10.657 -0.3553  0.1966 -0.0717
  755MOL0     C 4057   3.288   9.520  10.783  0.2210 -0.2467 -0.3402
  755MOL0     C 4058   3.368   9.611  10.852 -0.5405  0.1950 -0.0008
  755MOL0     C 4059   3.417   9.725  10.788  0.4877 -0.3477 -0.4108
  755MOL0     O 4060   3.509   9.799  10.857  0.4358 -0.1985  0.4462
  755MOL0     C 4061   3.511   9.943  10.839 -0.6440 -0.5969  0.2525
  755MOL0     C 4062   3.602   9.990  10.950 -0.4719 -0.7626  0.9870
  755MOL0     C 4063   3.750   9.958  10.924  0.7535  0.1134 -1.0064
  755MOL0     C 4064   3.849  10.000  11.027 -0.4349 -0.6696  0.1124
  755MOL0     C 4065   3.852   9.898  11.140  0.9094  0.5020  0.0337
  755MOL0     C 4066   3.878   9.973  11.279 -0.0792 -0.7347 -0.2736
  755MOL0     C 4067   3.831   9.875  11.403 -0.0335 -0.4868  0.3159
  755MOL0     C 4068   3.862   9.915  11.547  0.0371 -0.7781  0.0111
  755MOL0     N 4069   4.008   9.922  11.555 -0.3652 -0.6663 -0.3360
  755MOL0     C 4070   4.076   9.829  11.631 -0.6450  0.2706  0.3197
  755MOL0     C 4071   4.198   9.887  11.648 -0.7168  0.3072 -0.0101
  755MOL0     C 4072   4.315   9.823  11.718 -1.7211 -0.1842 -0.0372
  755MOL0     C 4073   4.314   9.851  11.864  0.6724  0.0515 -0.1531
  755MOL0     C 4074   4.424   9.776  11.941 -0.0007  0.0854 -0.6882
  755MOL0     C 4075   4.562   9.827  11.904 -0.5437 -0.6991  0.9274
  755MOL0     O 4076   4.655   9.755  11.974  0.3413 -0.0724 -0.2189
  755MOL0     C 4077   4.726   9.649  11.917  0.1983 -0.3414  0.4275
  755MOL0     C 4078   4.703   9.583  11.802 -0.0072 -0.1814 -0.1530
  755MOL0     C 4079   4.791   9.481  11.758  0.4932 -0.3194  0.8637
  755MOL0     C 4080   4.739   9.394  11.643  0.9311  0.8456  0.3195
  755MOL0     C 4081   4.896   9.434  11.839 -0.5400  1.2010  0.3203
  755MOL0     C 4082   4.997   9.347  11.796  0.5705  0.3704  0.1511
  755MOL0     O 4083   5.056   9.381  11.678 -0.0006  0.1488 -0.5808
  755MOL0     C 4084   5.134   9.293  11.612  0.7337 -0.3323  0.7043
  755MOL0     C 4085   5.103   9.246  11.479 -0.7195 -0.3271 -0.9082
  755MOL0     C 4086   5.199   9.169  11.416 -0.7515 -0.3406 -0.8166
  755MOL0     C 4087   5.326   9.129  11.482 -1.0159  0.6576 -0.2873
  755MOL0     O 4088   5.413   9.052  11.409 -0.6870 -0.5772  0.2347
  755MOL0     C 4089   5.544   9.020  11.465 -0.0285  0.2708 -0.0943
  755MOL0     C 4090   5.618   8.924  11.374  0.9947 -0.4595 -0.0050
  755MOL0     C 4091   5.535   8.799  11.342 -0.1480 -0.8522 -0.5251
  755MOL0     C 4092   5.634   8.688  11.307 -0.2905 -0.7238  0.1835
  755MOL0     C 4093   5.702   8.697  11.172 -0.3350  0.8745  0.8488
  755MOL0     C 4094   5.776   8.567  11.136 -0.4700  0.2635 -0.0680
  755MOL0     C 4095   5.691   8.446  11.081 -0.2724  0.1038 -0.6607
  755MOL0     C 4096   5.779   8.331  11.030 -0.0264  0.2763  0.2848
  755MOL0    Cl 4097   5.897   8.382  10.907  0.4502  0.2344  0.4778
  755MOL0     C 4098   5.342   9.173  11.607 -0.2352  0.0377  0.0661
  755MOL0     C 4099   5.255   9.253  11.674  0.2457  0.1801  0.3142
  755MOL0     O 4100   5.018   9.244  11.864 -0.3706 -0.3020  0.0213
  755MOL0     C 4101   4.915   9.505  11.953  0.2963  0.6464  0.1836
  755MOL0     C 4102   4.839   9.617  11.996  0.7054  0.9454  0.3601
  755MOL0     N 4103   4.184  10.023  11.610 -0.0980  0.0796  1.0797
  755MOL0     N 4104   4.072  10.041  11.566  0.3006  0.1850  0.0065
  755MOL0     C 4105   3.357   9.764  10.672 -0.0373 -0.1733  0.2421
  755MOL0     C 4106   3.263   9.685  10.604 -0.2101  0.0157 -0.4492
  755MOL0     C 4107   3.135   9.285  10.445  0.2005 -0.6502 -0.1739
  755MOL0     C 4108   3.004   9.315  10.391 -0.3343 -0.1447 -0.7018
  755MOL0     C 4109   2.935   9.221  10.324 -0.3740 -0.4109  0.7332
  755MOL0     C 4110   2.970   9.096  10.304  0.5312  0.1805  0.3371
  755MOL0     O 4111   2.876   9.023  10.236  0.3953  0.5421 -0.6704
  755MOL0     C 4112   2.912   8.892  10.205 -0.3595 -0.1935  0.4955
  755MOL0     C 4113   2.801   8.851  10.096  0.0574  0.7395 -0.2243
  755MOL0     C 4114   2.791   8.699  10.068  0.3074 -0.0804  0.5550
  755MOL0     C 4115   2.739   8.659   9.924 -0.1386 -0.7455  1.3885
  755MOL0     C 4116   2.616   8.733   9.896 -0.4060  0.2129 -1.2098
  755MOL0     C 4117   2.513   8.783   9.868 -0.8444 -0.9163  0.2228
  755MOL0     C 4118   3.098   9.056  10.349 -0.3465 -0.4219 -1.1038
  755MOL0     C 4119   3.186   9.151  10.420  0.8337  1.2616 -0.4664
  755MOL0     C 4120   3.316   9.094  10.455 -0.9165 -0.0254 -0.2910
  755MOL0     H 4121   3.254   9.434  10.840 -0.0798  0.5454  0.6954
  755MOL0     H 4122   3.417   9.586  10.945  1.7552  0.9995 -0.9174
  755MOL0     H 4123   3.420   9.999  10.859  2.0582  4.6675 -0.4409
  755MOL0     H 4124   3.542   9.963  10.736  1.9206  1.2025  1.2790
  755MOL0     H 4125   3.598  10.099  10.954  1.3958 -0.5028 -1.6257
  755MOL0     H 4126   3.562   9.958  11.047 -1.1264 -0.2277  0.8993
  755MOL0     H 4127   3.767   9.851  10.915 -1.5486 -0.5764  1.4980
  755MOL0     H 4128   3.778  10.007  10.831 -3.1809  0.9282 -1.9591
  755MOL0     H 4129   3.955  10.009  11.003 -0.2332  0.0600  1.2170
  755MOL0     H 4130   3.815  10.098  11.062  1.4107 -0.3426  1.0733
  755MOL0     H 4131   3.925   9.820  11.117  1.0911  0.1200  1.7023
  755MOL0     H 4132   3.759   9.844  11.163  1.9048 -0.6268  1.6789
  755MOL0     H 4133   3.984   9.997  11.286 -0.3360  0.2816  0.3118
  755MOL0     H 4134   3.823  10.067  11.284  2.1406  0.6035  0.0103
  755MOL0     H 4135   3.882   9.779  11.392 -1.3645 -1.1682 -0.1176
  755MOL0     H 4136   3.726   9.860  11.374  0.5818 -0.1216 -2.4243
  755MOL0     H 4137   3.814  10.012  11.566 -1.1412 -0.9298 -1.8832
  755MOL0     H 4138   3.831   9.840  11.620  2.6521 -3.4659 -1.4403
  755MOL0     H 4139   4.043   9.727  11.646  2.0964 -0.7723 -0.2142
  755MOL0     H 4140   4.407   9.861  11.674 -2.2248  0.6134 -0.4196
  755MOL0     H 4141   4.308   9.714  11.711  2.7591 -0.6282 -0.2410
  755MOL0     H 4142   4.318   9.960  11.879 -2.2668  0.6379 -2.6406
  755MOL0     H 4143   4.215   9.833  11.906 -0.1927  0.8672 -1.7568
  755MOL0     H 4144   4.411   9.799  12.048  1.4467 -0.2101 -0.4299
  755MOL0     H 4145   4.405   9.671  11.916 -1.0924  0.7262 -2.7473
  755MOL0     H 4146   4.590   9.821  11.798  1.6560  3.0998  1.1226
  755MOL0     H 4147   4.572   9.935  11.920 -1.1326 -0.4729 -0.1097
  755MOL0     H 4148   4.611   9.598  11.747 -0.5770 -0.5382  0.6807
  755MOL0     H 4149   4.638   9.420  11.611  0.9333 -0.5748 -1.0096
  755MOL0     H 4150   4.729   9.290  11.676 -1.1881  1.3766  1.5176
  755MOL0     H 4151   4.807   9.399  11.558  1.0433 -0.4850  0.3000
  755MOL0     H 4152   5.005   9.273  11.442 -0.7320  1.9871  0.6282
  755MOL0     H 4153   5.175   9.147  11.313  2.4703  3.4290 -2.6538
  755MOL0     H 4154   5.600   9.113  11.480  0.7378  0.3452 -2.9282
  755MOL0     H 4155   5.527   8.975  11.563 -2.6641  2.4053  0.5604
  755MOL0     H 4156   5.651   8.982  11.287 -0.6857  1.7574  0.7505
  755MOL0     H 4157   5.704   8.894  11.433 -0.1197  3.6158  4.2277
  755MOL0     H 4158   5.459   8.820  11.266  0.1866 -2.4210 -1.3375
  755MOL0     H 4159   5.472   8.767  11.425 -0.9384 -0.5294 -0.9890
  755MOL0     H 4160   5.572   8.599  11.293  0.6198 -2.0527  3.4548
  755MOL0     H 4161   5.707   8.677  11.388 -0.4664 -2.5857  0.1465
  755MOL0     H 4162   5.626   8.714  11.095  0.4216 -1.1050 -0.4098
  755MOL0     H 4163   5.782   8.771  11.171  1.3175 -0.8246 -0.2688
  755MOL0     H 4164   5.810   8.536  11.236 -4.5648  2.5192  2.3298
  755MOL0     H 4165   5.861   8.594  11.073  0.4781  0.6143  1.3162
  755MOL0     H 4166   5.634   8.487  10.997 -0.2702 -0.5825 -1.0086
  755MOL0     H 4167   5.615   8.415  11.153  0.3793  0.9077  0.3993
  755MOL0     H 4168   5.717   8.247  11.000  0.2069 -0.2839  1.3200
  755MOL0     H 4169   5.834   8.296  11.118  1.1446  2.9470  0.7352
  755MOL0     H 4170   5.426   9.140  11.667  2.7346  4.3338 -1.2610
  755MOL0     H 4171   5.277   9.285  11.776 -0.8355  0.3578  0.5036
  755MOL0     H 4172   4.983   9.475  12.032 -0.1471  0.0808  0.3532
  755MOL0     H 4173   4.839   9.647  12.100 -0.7232 -0.4996  0.8132
  755MOL0     H 4174   3.389   9.853  10.620 -0.9236  0.9273  1.5328
  755MOL0     H 4175   3.211   9.715  10.513 -2.2367 -0.5633  0.4730
  755MOL0     H 4176   2.961   9.409  10.425 -0.2442 -0.4952  0.4402
  755MOL0     H 4177   2.836   9.247  10.289 -1.5338 -3.6837  1.2877
  755MOL0     H 4178   3.013   8.883  10.165 -1.0680  2.3748 -2.2377
  755MOL0     H 4179   2.892   8.821  10.286  0.8081  0.4113  1.3307
  755MOL0     H 4180   2.815   8.911  10.006  1.8567  1.0013  0.1936
  755MOL0     H 4181   2.702   8.879  10.135 -0.5630 -0.5705 -0.8084
  755MOL0     H 4182   2.884   8.647  10.094 -0.2604 -1.7917 -0.7388
  755MOL0     H 4183   2.726   8.665  10.148  0.4037  0.1602  0.7397
  755MOL0     H 4184   2.717   8.553   9.906 -0.8681 -0.1089 -2.4955
  755MOL0     H 4185   2.813   8.696   9.853 -0.5498  0.2288  1.4508
  755MOL0     H 4186   2.431   8.829   9.816  0.5083  1.0717 -0.2893
  755MOL0     H 4187   3.130   8.958  10.315  0.6342 -0.2522 -0.7177
  755MOL0     H 4188   3.329   8.986  10.442  0.2556  0.0099  0.4009
  755MOL0     H 4189   3.395   9.148  10.403  1.0108 -1.8020  0.6017
  755MOL0     H 4190   3.326   9.104  10.564  0.4275  0.4688 -0.4423
  756MOL0     O 4191   2.633   6.713   2.678  1.1221  0.1966  0.2411
  756MOL0     C 4192   2.585   6.782   2.582 -0.2382  0.4650 -0.8760
  756MOL0     O 4193   2.648   6.790   2.457  0.6346 -0.2571  0.3704
  756MOL0     C 4194   2.758   6.714   2.459  0.4929  0.1332  0.6248
  756MOL0     C 4195   2.886   6.772   2.480 -0.7510 -0.0927  0.2986
  756MOL0     C 4196   3.006   6.696   2.463  0.2208 -0.1998 -0.0106
  756MOL0     C 4197   2.992   6.561   2.437  0.2466  0.0695  0.1575
  756MOL0     O 4198   3.109   6.493   2.412  0.0093 -0.1271 -0.6377
  756MOL0     C 4199   3.134   6.389   2.519  0.8497 -0.6069 -0.0077
  756MOL0     C 4200   3.279   6.324   2.512 -0.1884 -0.9344 -0.3040
  756MOL0     C 4201   3.284   6.224   2.395  0.1172  0.1382 -0.3420
  756MOL0     C 4202   3.259   6.085   2.446  0.1820 -0.1562 -0.3382
  756MOL0     C 4203   3.245   5.973   2.338  0.2171 -0.1040  0.2175
  756MOL0     C 4204   3.350   5.870   2.354 -0.2493  0.1246 -0.1995
  756MOL0     C 4205   3.351   5.782   2.230 -0.8808  0.9343  0.0545
  756MOL0     C 4206   3.461   5.682   2.216  0.4025 -0.8911  0.0128
  756MOL0     N 4207   3.587   5.738   2.171  0.9826 -0.2535 -0.0799
  756MOL0     C 4208   3.676   5.821   2.230 -0.1758 -0.7602  0.3160
  756MOL0     C 4209   3.775   5.850   2.133  0.3649  0.4397 -0.7682
  756MOL0     C 4210   3.882   5.948   2.153 -0.3970 -0.0327  0.5522
  756MOL0     C 4211   3.860   6.077   2.069 -0.6277 -0.3857  0.4346
  756MOL0     C 4212   3.937   6.192   2.127 -0.1449 -0.2019 -0.1829
  756MOL0     C 4213   3.931   6.200   2.282 -0.2104 -0.2015  0.5388
  756MOL0     O 4214   3.947   6.339   2.341 -0.2272  0.4438  0.6285
  756MOL0     C 4215   4.056   6.403   2.290 -1.0568 -0.6151 -0.4412
  756MOL0     C 4216   4.177   6.369   2.341 -0.1422  0.0463  0.0317
  756MOL0     C 4217   4.294   6.431   2.289 -0.7311 -0.7200  0.2425
  756MOL0     C 4218   4.426   6.387   2.349  1.5796  0.8609 -0.2531
  756MOL0     C 4219   4.285   6.528   2.188  0.1085  0.8808 -0.2828
  756MOL0     C 4220   4.395   6.584   2.117  0.1017 -0.0407  0.9191
  756MOL0     O 4221   4.506   6.512   2.115 -0.7468 -0.1955  0.0352
  756MOL0     C 4222   4.625   6.563   2.064  0.5755 -0.2195 -0.5905
  756MOL0     C 4223   4.678   6.508   1.952 -0.3353 -0.2446 -0.4774
  756MOL0     C 4224   4.808   6.550   1.909 -1.3645  0.1152 -0.4365
  756MOL0     C 4225   4.882   6.647   1.978  0.2803 -0.7386 -0.5689
  756MOL0     O 4226   5.011   6.699   1.939  0.7879  0.3653 -0.1495
  756MOL0     C 4227   5.047   6.656   1.807  0.1243  0.3074  0.2423
  756MOL0     C 4228   5.163   6.748   1.741  0.3269  0.9225 -0.2579
  756MOL0     C 4229   5.294   6.715   1.811  0.8671 -0.4248 -0.0470
  756MOL0     C 4230   5.407   6.760   1.714  0.8254  0.7382  0.8772
  756MOL0     C 4231   5.542   6.732   1.780  0.3275 -0.0213 -0.0484
  756MOL0     C 4232   5.577   6.584   1.784  0.0446 -0.0950  0.2096
  756MOL0     C 4233   5.710   6.547   1.855 -0.3219 -0.2178 -0.4281
  756MOL0     C 4234   5.719   6.394   1.860 -0.0270 -0.3038 -0.2458
  756MOL0    Cl 4235   5.878   6.352   1.941 -0.1527 -0.1111 -0.2954
  756MOL0     C 4236   4.832   6.692   2.097 -0.2161  0.1181 -0.2303
  756MOL0     C 4237   4.705   6.650   2.143 -0.0070  0.3793  0.4406
  756MOL0     O 4238   4.378   6.693   2.054 -0.1743 -0.4285  0.2094
  756MOL0     C 4239   4.160   6.567   2.149 -1.0261 -0.2710  1.1939
  756MOL0     C 4240   4.044   6.506   2.198  0.5145 -0.1965  0.4016
  756MOL0     N 4241   3.735   5.777   2.022 -0.4600  0.2541 -0.2383
  756MOL0     N 4242   3.627   5.711   2.047 -0.4647  0.3978  0.4529
  756MOL0     C 4243   2.867   6.501   2.421  0.0589  0.0331  0.1563
  756MOL0     C 4244   2.748   6.575   2.433 -0.0577  0.1867  0.8814
  756MOL0     C 4245   2.464   6.860   2.623  0.3386  0.2056  0.1312
  756MOL0     C 4246   2.378   6.816   2.719 -0.2899  0.5630  0.6077
  756MOL0     C 4247   2.267   6.884   2.755 -0.1156  0.3897 -0.0077
  756MOL0     C 4248   2.238   7.012   2.708  0.2576  0.0655 -0.0892
  756MOL0     O 4249   2.134   7.094   2.744  0.6437  0.4168 -0.2068
  756MOL0     C 4250   2.044   7.056   2.841  0.4860  0.8409  0.0890
  756MOL0     C 4251   1.912   7.121   2.843  0.0133 -0.3203 -0.6814
  756MOL0     C 4252   1.930   7.282   2.870  0.2660  0.9363  0.2978
  756MOL0     C 4253   1.792   7.352   2.866  0.2515 -0.0427 -0.3842
  756MOL0     C 4254   1.726   7.366   2.738  0.4931 -1.2113  0.9006
  756MOL0     C 4255   1.674   7.366   2.634  0.3887 -0.4701  0.7970
  756MOL0     C 4256   2.316   7.057   2.608  0.7026 -0.7868 -0.3556
  756MOL0     C 4257   2.428   6.991   2.557  0.6640 -0.0280 -0.3453
  756MOL0     C 4258   2.505   7.048   2.443 -0.3815  0.6747 -0.0582
  756MOL0     H 4259   2.903   6.876   2.507 -1.5167  0.6553 -1.9124
  756MOL0     H 4260   3.107   6.729   2.483  1.3434 -3.5382  0.4575
  756MOL0     H 4261   3.066   6.307   2.493  1.8779 -0.9637 -1.7474
  756MOL0     H 4262   3.105   6.421   2.619 -0.4117  1.3277 -0.9541
  756MOL0     H 4263   3.362   6.396   2.506 -0.0282 -1.1591 -0.8365
  756MOL0     H 4264   3.281   6.269   2.606  0.8752  0.0081  0.2453
  756MOL0     H 4265   3.203   6.244   2.325 -0.8046  0.6911  0.8553
  756MOL0     H 4266   3.382   6.229   2.346  0.4326  0.4246  0.3148
  756MOL0     H 4267   3.331   6.066   2.527  0.8498  4.4252  0.4752
  756MOL0     H 4268   3.156   6.090   2.482 -0.5618 -2.0222 -2.0480
  756MOL0     H 4269   3.251   6.016   2.237  1.8463  1.6486  1.0004
  756MOL0     H 4270   3.145   5.933   2.359  0.2523 -0.0108  0.5680
  756MOL0     H 4271   3.442   5.926   2.368 -0.4349  0.1048  1.2886
  756MOL0     H 4272   3.350   5.811   2.447  3.9731  0.3038  0.1190
  756MOL0     H 4273   3.350   5.825   2.130 -0.9771 -0.5610 -0.6078
  756MOL0     H 4274   3.259   5.723   2.242  0.3471 -1.3800 -1.3230
  756MOL0     H 4275   3.466   5.634   2.314 -3.5999  3.7095  2.9751
  756MOL0     H 4276   3.427   5.623   2.131 -4.2679  1.6117 -0.1871
  756MOL0     H 4277   3.662   5.866   2.328 -2.8936 -0.3949 -0.1451
  756MOL0     H 4278   3.972   5.898   2.117 -1.8577 -1.1890 -1.7976
  756MOL0     H 4279   3.887   5.956   2.262  0.6085  0.1089  0.5050
  756MOL0     H 4280   3.877   6.048   1.965 -2.0229 -1.1755  0.3981
  756MOL0     H 4281   3.752   6.099   2.070 -0.4381  0.5874  1.2117
  756MOL0     H 4282   4.043   6.181   2.102  0.3423  1.1976  1.0785
  756MOL0     H 4283   3.893   6.286   2.092 -1.4244  1.4057  4.8925
  756MOL0     H 4284   3.828   6.177   2.313 -0.0806 -0.8704  0.4886
  756MOL0     H 4285   3.985   6.120   2.333 -2.9951 -2.2331  0.5385
  756MOL0     H 4286   4.170   6.290   2.416  2.5368 -0.6617 -0.3484
  756MOL0     H 4287   4.400   6.347   2.447 -0.4541  0.8264 -0.7470
  756MOL0     H 4288   4.497   6.470   2.350  1.8548  0.7365 -2.6396
  756MOL0     H 4289   4.453   6.309   2.277  0.4862  1.9312 -1.9102
  756MOL0     H 4290   4.625   6.428   1.902 -0.5805  1.0939 -2.5032
  756MOL0     H 4291   4.838   6.509   1.813  2.7695 -1.7715  1.3872
  756MOL0     H 4292   5.080   6.552   1.811 -0.4578  0.1712  2.2946
  756MOL0     H 4293   4.959   6.672   1.743 -0.9043  2.8004  2.0776
  756MOL0     H 4294   5.159   6.724   1.634  2.4548  0.9097 -0.3866
  756MOL0     H 4295   5.140   6.855   1.752 -2.2876  0.5247 -1.1617
  756MOL0     H 4296   5.301   6.611   1.844  0.1169  0.1834  2.2849
  756MOL0     H 4297   5.304   6.770   1.906  1.7184 -0.5528 -0.0526
  756MOL0     H 4298   5.405   6.869   1.710  1.2360  0.8211  2.3807
  756MOL0     H 4299   5.391   6.709   1.618 -5.0615 -1.9417  2.8132
  756MOL0     H 4300   5.619   6.789   1.727  0.6726  1.4181  1.8748
  756MOL0     H 4301   5.546   6.759   1.886  1.4856 -3.5142  0.9288
  756MOL0     H 4302   5.576   6.552   1.679 -0.8822  1.2735 -0.2331
  756MOL0     H 4303   5.499   6.522   1.828  1.0050 -1.1821  0.4173
  756MOL0     H 4304   5.689   6.578   1.957  0.4745  1.3272 -0.6989
  756MOL0     H 4305   5.803   6.590   1.816 -0.8021  0.7231 -0.5494
  756MOL0     H 4306   5.715   6.356   1.758  1.6248 -1.7595  0.1800
  756MOL0     H 4307   5.646   6.355   1.931 -0.2621  0.5472 -0.0152
  756MOL0     H 4308   4.872   6.779   2.147  0.7964  0.6939 -1.9497
  756MOL0     H 4309   4.656   6.692   2.230 -3.5716 -1.3448 -0.5360
  756MOL0     H 4310   4.148   6.646   2.076 -1.0606 -1.2795  0.0811
  756MOL0     H 4311   3.944   6.539   2.170  0.8120  0.8910  0.5748
  756MOL0     H 4312   2.864   6.394   2.401  0.9803  0.2045 -0.9631
  756MOL0     H 4313   2.658   6.516   2.421 -0.5710  0.4350  3.0101
  756MOL0     H 4314   2.404   6.730   2.780 -0.9692  0.8811  1.3669
  756MOL0     H 4315   2.209   6.846   2.839 -0.0339 -1.2283 -0.6578
  756MOL0     H 4316   2.026   6.948   2.831 -2.7144  1.2879 -0.1770
  756MOL0     H 4317   2.095   7.068   2.937 -2.3993  0.3109  1.8153
  756MOL0     H 4318   1.862   7.074   2.928  0.7270 -0.0365 -0.0919
  756MOL0     H 4319   1.854   7.102   2.753 -0.2927  0.0790 -0.5698
  756MOL0     H 4320   1.978   7.305   2.966  1.0587  4.5683 -0.8168
  756MOL0     H 4321   1.999   7.325   2.798  1.8826 -2.2822 -0.2730
  756MOL0     H 4322   1.796   7.450   2.913 -4.6966  0.4179 -0.3265
  756MOL0     H 4323   1.728   7.291   2.931  1.3967 -0.9055 -0.0427
  756MOL0     H 4324   1.602   7.371   2.555  2.5297  0.7881 -1.2107
  756MOL0     H 4325   2.284   7.145   2.553  0.3639 -1.8317 -1.8904
  756MOL0     H 4326   2.500   6.975   2.362 -5.8175 -0.8472  1.2512
  756MOL0     H 4327   2.455   7.137   2.404 -2.4802  0.5794  2.1778
  756MOL0     H 4328   2.609   7.069   2.470 -0.4027  0.5970  0.0855
  757MOL0     O 4329   7.519  10.574   3.634  0.2516 -0.0492 -0.7088
  757MOL0     C 4330   7.542  10.665   3.715 -0.6103  0.1982  0.5129
  757MOL0     O 4331   7.464  10.775   3.733  0.2161  0.1922  0.3563
  757MOL0     C 4332   7.346  10.767   3.673  0.9124 -0.4049  0.5020
  757MOL0     C 4333   7.305  10.860   3.567 -0.1543 -0.1616  0.2105
  757MOL0     C 4334   7.182  10.858   3.513  0.0583 -1.1189  0.5225
  757MOL0     C 4335   7.083  10.765   3.557 -0.0359  0.3874  0.2869
  757MOL0     O 4336   6.959  10.753   3.505 -0.2789  0.5445  0.3392
  757MOL0     C 4337   6.902  10.834   3.411  0.5373  0.3728 -0.0396
  757MOL0     C 4338   6.753  10.794   3.407  0.7416 -0.7460  0.4873
  757MOL0     C 4339   6.665  10.783   3.543 -0.3078  0.1313 -0.5432
  757MOL0     C 4340   6.552  10.679   3.526  0.3271  0.3910  0.8726
  757MOL0     C 4341   6.611  10.536   3.510 -0.6427  0.1631  1.1034
  757MOL0     C 4342   6.511  10.436   3.562  0.9495  0.1363  0.6256
  757MOL0     C 4343   6.550  10.295   3.552  0.6811 -0.3776  0.9451
  757MOL0     C 4344   6.434  10.195   3.579  0.7270 -0.1653 -0.2441
  757MOL0     N 4345   6.489  10.053   3.583  0.0967 -0.0416 -0.0498
  757MOL0     C 4346   6.562  10.003   3.683  0.8292 -0.6642 -0.2726
  757MOL0     C 4347   6.598   9.877   3.653  0.1255  0.2189  0.2321
  757MOL0     C 4348   6.680   9.787   3.740  0.3762 -0.2667  0.3767
  757MOL0     C 4349   6.824   9.760   3.701 -0.0214  0.5129  0.6247
  757MOL0     C 4350   6.814   9.635   3.606 -0.3357  0.7982  0.0867
  757MOL0     C 4351   6.955   9.595   3.561 -0.4670 -0.2845  0.7655
  757MOL0     O 4352   6.955   9.473   3.499 -0.0843 -0.3166 -0.3760
  757MOL0     C 4353   6.958   9.450   3.358 -0.3054 -0.0139 -0.4673
  757MOL0     C 4354   7.005   9.548   3.254  0.7169  0.7410 -0.2475
  757MOL0     C 4355   7.008   9.511   3.118 -0.5422  0.2794  0.6059
  757MOL0     C 4356   7.041   9.624   3.018  0.3314  0.1808 -0.5955
  757MOL0     C 4357   6.974   9.378   3.087 -0.8941 -0.0301  0.4803
  757MOL0     C 4358   6.981   9.336   2.949  0.5644  0.1057 -0.6604
  757MOL0     O 4359   7.092   9.358   2.881  0.6311  0.1413  0.0878
  757MOL0     C 4360   7.097   9.340   2.745 -0.5700  0.4980  0.3461
  757MOL0     C 4361   7.133   9.210   2.692 -0.1366 -0.0091  0.2697
  757MOL0     C 4362   7.107   9.175   2.559 -0.0343 -0.7137 -0.3237
  757MOL0     C 4363   7.060   9.277   2.468 -0.1502 -0.0381 -0.8113
  757MOL0     O 4364   7.033   9.228   2.343  0.1365  1.3355  0.0033
  757MOL0     C 4365   7.071   9.298   2.225  1.2678  0.7047 -1.4435
  757MOL0     C 4366   7.221   9.329   2.230  0.2651 -0.3800 -0.7570
  757MOL0     C 4367   7.305   9.210   2.196 -0.1411  0.1946 -0.1858
  757MOL0     C 4368   7.449   9.249   2.184 -0.3343  1.7287 -0.2600
  757MOL0     C 4369   7.541   9.119   2.178 -0.0809  0.0003  0.2560
  757MOL0     C 4370   7.553   9.060   2.034  0.4205 -0.7319 -0.0969
  757MOL0     C 4371   7.647   9.123   1.934  0.0052  0.3767 -0.2631
  757MOL0     C 4372   7.650   9.018   1.823 -0.0007  0.5209  0.5639
  757MOL0    Cl 4373   7.720   8.865   1.852 -0.1425  0.1592  0.2588
  757MOL0     C 4374   7.041   9.411   2.512 -0.3229 -1.4342 -0.1043
  757MOL0     C 4375   7.055   9.439   2.652 -0.2412 -0.9406 -0.3639
  757MOL0     O 4376   6.873   9.297   2.898 -0.1789 -0.7313  0.1634
  757MOL0     C 4377   6.932   9.287   3.183  0.9231 -0.4833  0.6806
  757MOL0     C 4378   6.935   9.318   3.321  0.5491 -0.7840  0.1859
  757MOL0     N 4379   6.540   9.856   3.527 -0.3968  0.0845  0.4880
  757MOL0     N 4380   6.485   9.969   3.478  0.1835 -0.0403 -0.3303
  757MOL0     C 4381   7.113  10.672   3.661  0.0046 -1.0990  0.0979
  757MOL0     C 4382   7.249  10.678   3.720  0.3832  0.3844 -0.2671
  757MOL0     C 4383   7.675  10.649   3.791 -0.8912  0.2296  0.6667
  757MOL0     C 4384   7.739  10.523   3.788  0.2761  0.1141 -0.0907
  757MOL0     C 4385   7.855  10.503   3.859 -0.0328  0.1788 -0.6794
  757MOL0     C 4386   7.913  10.611   3.933  0.1145  0.1605  0.9508
  757MOL0     O 4387   8.037  10.597   4.000 -0.2298  1.2482 -0.0742
  757MOL0     C 4388   8.114  10.471   4.000  0.3462 -0.0803  0.9730
  757MOL0     C 4389   8.216  10.478   3.882  0.9671 -0.4372  0.7099
  757MOL0     C 4390   8.303  10.604   3.909 -0.1767 -0.2764 -0.1070
  757MOL0     C 4391   8.445  10.555   3.941  0.0118 -0.3526  0.3955
  757MOL0     C 4392   8.524  10.673   3.992 -0.0956 -0.2274  0.1302
  757MOL0     C 4393   8.583  10.770   4.038  0.3260  0.5421  0.1139
  757MOL0     C 4394   7.855  10.731   3.926  0.7858 -0.6589  0.7390
  757MOL0     C 4395   7.738  10.756   3.868  0.7463  0.6712  0.2135
  757MOL0     C 4396   7.686  10.898   3.864  0.0709 -0.3658 -0.3527
  757MOL0     H 4397   7.373  10.938   3.535 -0.2615 -0.5745 -1.0707
  757MOL0     H 4398   7.175  10.927   3.430  2.0749  1.4890  2.3435
  757MOL0     H 4399   6.949  10.820   3.313 -0.3921  3.8539 -1.1274
  757MOL0     H 4400   6.914  10.937   3.444  1.8626  0.1541  0.1974
  757MOL0     H 4401   6.699  10.866   3.345  1.9976  0.6860  0.9830
  757MOL0     H 4402   6.749  10.700   3.350 -0.1850 -0.4904  0.1146
  757MOL0     H 4403   6.728  10.753   3.628 -1.1869  1.5023  0.6394
  757MOL0     H 4404   6.627  10.881   3.572 -1.6787 -0.1711 -1.2469
  757MOL0     H 4405   6.497  10.684   3.620  1.4291  1.5950  1.4863
  757MOL0     H 4406   6.488  10.706   3.442  0.5488 -3.3387 -0.6972
  757MOL0     H 4407   6.712  10.527   3.549  0.2485 -1.6640 -1.3607
  757MOL0     H 4408   6.618  10.521   3.401  0.5638  1.3489  0.9926
  757MOL0     H 4409   6.483  10.452   3.667 -3.8067  1.1498 -0.5493
  757MOL0     H 4410   6.409  10.450   3.525  1.0400 -0.4341  0.1309
  757MOL0     H 4411   6.638  10.275   3.614  0.5336  0.1358  1.3234
  757MOL0     H 4412   6.579  10.290   3.447 -0.8797  2.9490  0.2396
  757MOL0     H 4413   6.379  10.212   3.671 -2.2488 -2.8056 -1.3455
  757MOL0     H 4414   6.359  10.209   3.501 -3.7987 -3.4508  3.0089
  757MOL0     H 4415   6.583  10.056   3.775 -1.1081  0.4026 -0.4030
  757MOL0     H 4416   6.618   9.697   3.738 -0.4956  0.3183  1.0321
  757MOL0     H 4417   6.675   9.837   3.836 -3.7551  2.2543 -0.9328
  757MOL0     H 4418   6.850   9.846   3.639 -1.9696  1.3294  0.8799
  757MOL0     H 4419   6.889   9.749   3.788 -2.2136  4.3072  3.0172
  757MOL0     H 4420   6.778   9.543   3.655 -0.1493  1.4714  1.5468
  757MOL0     H 4421   6.759   9.660   3.515  0.1159  1.3923 -0.0212
  757MOL0     H 4422   7.007   9.668   3.497 -1.3457 -2.0751 -2.1875
  757MOL0     H 4423   7.015   9.585   3.652 -1.5819 -2.7808  1.2899
  757MOL0     H 4424   7.027   9.651   3.277  1.1163  1.2586 -2.7043
  757MOL0     H 4425   7.141   9.613   2.973  1.5128  3.6869  0.7966
  757MOL0     H 4426   7.048   9.714   3.080  2.4658 -0.5840  0.3876
  757MOL0     H 4427   6.970   9.632   2.935  1.8120  0.6172 -1.8760
  757MOL0     H 4428   7.169   9.133   2.759 -1.6387 -1.1813 -0.2153
  757MOL0     H 4429   7.121   9.075   2.517 -1.1718  0.1201 -2.8550
  757MOL0     H 4430   7.029   9.238   2.143 -0.6456 -0.2718  0.1404
  757MOL0     H 4431   7.008   9.387   2.231 -2.4564 -1.7465 -0.6911
  757MOL0     H 4432   7.236   9.405   2.152 -0.2205 -1.4083 -1.8951
  757MOL0     H 4433   7.259   9.372   2.323  1.7093 -2.4158 -0.3367
  757MOL0     H 4434   7.265   9.162   2.106  0.0678 -1.2576  0.4839
  757MOL0     H 4435   7.291   9.139   2.277 -1.9808  1.0757  0.3288
  757MOL0     H 4436   7.477   9.303   2.275 -2.2963  2.7269 -0.2144
  757MOL0     H 4437   7.475   9.303   2.093  1.0215 -2.3607 -2.5975
  757MOL0     H 4438   7.626   9.148   2.241 -0.6682 -0.1660  1.1478
  757MOL0     H 4439   7.495   9.042   2.241  0.2354 -0.7129 -0.3615
  757MOL0     H 4440   7.455   9.057   1.986 -0.0316 -0.4064  0.7860
  757MOL0     H 4441   7.588   8.958   2.055  1.5268 -0.2161  0.6361
  757MOL0     H 4442   7.749   9.138   1.972 -0.8883  1.3735  1.9063
  757MOL0     H 4443   7.599   9.216   1.905  1.4222  1.7084  1.3998
  757MOL0     H 4444   7.702   9.052   1.733 -0.3964 -2.4364 -0.8776
  757MOL0     H 4445   7.547   8.996   1.793 -0.3917 -0.5299  2.5625
  757MOL0     H 4446   7.016   9.482   2.434  0.3035  0.1253  1.0563
  757MOL0     H 4447   7.027   9.536   2.692 -0.5281 -0.8928 -0.6758
  757MOL0     H 4448   6.905   9.185   3.157 -1.4125  0.0816  0.6606
  757MOL0     H 4449   6.902   9.243   3.392  1.0449  0.1947  1.4762
  757MOL0     H 4450   7.044  10.601   3.707 -0.9065  1.0559  2.2558
  757MOL0     H 4451   7.286  10.616   3.801 -3.4597 -1.1461  0.5163
  757MOL0     H 4452   7.707  10.432   3.739 -0.2592 -0.6522  1.6223
  757MOL0     H 4453   7.902  10.405   3.862 -0.5000 -0.0308 -0.0679
  757MOL0     H 4454   8.165  10.462   4.097 -1.7514 -0.6503  2.0684
  757MOL0     H 4455   8.053  10.383   3.982 -0.8154  0.9340 -0.2241
  757MOL0     H 4456   8.171  10.482   3.782  1.9183 -1.6210  0.2101
  757MOL0     H 4457   8.271  10.384   3.878  1.2523 -0.2792 -3.2951
  757MOL0     H 4458   8.298  10.677   3.828  1.5797 -0.9152 -0.8534
  757MOL0     H 4459   8.273  10.652   4.002  3.2069  2.8690 -0.3972
  757MOL0     H 4460   8.491  10.514   3.850 -1.6952 -2.2571  0.3412
  757MOL0     H 4461   8.436  10.481   4.021  0.6656 -1.6797 -0.7112
  757MOL0     H 4462   8.637  10.848   4.087 -0.4794  1.4640 -0.4248
  757MOL0     H 4463   7.914  10.798   3.989  1.9868  2.2241 -3.0411
  757MOL0     H 4464   7.587  10.901   3.912 -0.0050  2.8788 -0.4796
  757MOL0     H 4465   7.757  10.963   3.916 -0.9867  0.4267  0.1493
  757MOL0     H 4466   7.676  10.938   3.763 -1.7467 -0.3794 -0.2114
  758MOL0     O 4467   7.525   0.223   1.937 -0.1464  0.0585 -0.3301
  758MOL0     C 4468   7.513   0.145   1.844 -0.9716  0.2601 -0.4057
  758MOL0     O 4469   7.603   0.045   1.823 -0.3418 -0.0323 -0.0111
  758MOL0     C 4470   7.660  -0.006   1.938 -0.7047  0.6270 -0.0175
  758MOL0     C 4471   7.766   0.065   2.012 -0.6222  0.5226  0.1191
  758MOL0     C 4472   7.810   0.012   2.127  0.3048  0.5189 -0.1030
  758MOL0     C 4473   7.770  -0.118   2.175  0.2282 -0.3155  0.7230
  758MOL0     O 4474   7.817  -0.154   2.297 -0.2164 -0.2544  0.1900
  758MOL0     C 4475   7.774  -0.277   2.363  0.4018 -0.2552  0.0330
  758MOL0     C 4476   7.838  -0.292   2.498 -0.1622 -0.0873 -0.0949
  758MOL0     C 4477   7.973  -0.346   2.492  0.5947  0.4429  0.6886
  758MOL0     C 4478   7.964  -0.501   2.507  0.8484  0.0087  0.5196
  758MOL0     C 4479   8.092  -0.561   2.557  0.6488  0.1610  0.3390
  758MOL0     C 4480   8.220  -0.513   2.484 -0.9679 -0.3136 -0.1302
  758MOL0     C 4481   8.347  -0.592   2.536  0.2304 -0.0341 -0.8148
  758MOL0     C 4482   8.458  -0.503   2.600  0.3158 -1.0035 -0.3316
  758MOL0     N 4483   8.588  -0.579   2.600  0.9611  0.1076 -0.5847
  758MOL0     C 4484   8.717  -0.530   2.583 -0.5633 -0.2727  0.3556
  758MOL0     C 4485   8.788  -0.636   2.612  0.3978 -0.0197 -0.4195
  758MOL0     C 4486   8.933  -0.645   2.593  0.0548 -0.8070 -0.4280
  758MOL0     C 4487   9.004  -0.612   2.728 -0.0461  0.0144 -0.4476
  758MOL0     C 4488   9.152  -0.554   2.718 -0.5820 -0.2525  0.2016
  758MOL0     C 4489   9.215  -0.568   2.586  0.3701 -0.1916 -0.5991
  758MOL0     O 4490   9.366  -0.571   2.605  0.4374 -0.4802  0.0177
  758MOL0     C 4491   9.430  -0.674   2.673  1.0086 -0.5457  0.6836
  758MOL0     C 4492   9.390  -0.807   2.690 -0.7594  0.3903  0.9483
  758MOL0     C 4493   9.473  -0.898   2.765  0.7247  0.1499 -0.7748
  758MOL0     C 4494   9.414  -1.041   2.797 -0.3757 -0.7663 -0.3190
  758MOL0     C 4495   9.595  -0.857   2.831 -0.0854  0.0428  0.1447
  758MOL0     C 4496   9.683  -0.936   2.916  0.1889  0.4686  0.4091
  758MOL0     O 4497   9.767  -0.858   2.990 -0.7068  0.6066 -0.4094
  758MOL0     C 4498   9.852  -0.926   3.079 -0.6871  0.6690 -0.2204
  758MOL0     C 4499   9.814  -0.974   3.201  0.4390  0.0388 -0.8676
  758MOL0     C 4500   9.902  -1.039   3.287  0.2994  0.0025  0.0412
  758MOL0     C 4501  10.035  -1.047   3.255 -0.0611  0.9720  0.5206
  758MOL0     O 4502  10.133  -1.112   3.322 -0.1465 -0.0100 -0.4344
  758MOL0     C 4503  10.207  -1.021   3.403  0.1846  0.1680 -0.6182
  758MOL0     C 4504  10.325  -1.104   3.464  0.0810  0.1202 -0.3829
  758MOL0     C 4505  10.388  -1.039   3.579  0.3436 -0.1275  0.7556
  758MOL0     C 4506  10.503  -1.122   3.624 -0.7409 -0.3650  0.5024
  758MOL0     C 4507  10.541  -1.092   3.769 -0.9606  0.0045 -0.2848
  758MOL0     C 4508  10.664  -1.170   3.822  0.5462  0.2504  0.5715
  758MOL0     C 4509  10.664  -1.147   3.977  0.3373  0.0704  0.9129
  758MOL0     C 4510  10.772  -1.223   4.047 -0.5446  0.3932 -0.1688
  758MOL0    Cl 4511  10.747  -1.402   4.063 -0.0543 -0.2752  0.4269
  758MOL0     C 4512  10.072  -1.005   3.124 -1.0771 -0.1445 -0.4160
  758MOL0     C 4513   9.981  -0.949   3.042  0.8251 -0.3946 -0.0860
  758MOL0     O 4514   9.669  -1.057   2.933 -0.0453 -0.0085 -0.4533
  758MOL0     C 4515   9.630  -0.725   2.813 -0.3112  0.7311 -0.3429
  758MOL0     C 4516   9.548  -0.635   2.745 -0.0441 -0.3047 -0.5056
  758MOL0     N 4517   8.705  -0.747   2.636  0.1596 -0.2671 -0.3059
  758MOL0     N 4518   8.582  -0.710   2.634 -0.3882 -0.0270 -0.2054
  758MOL0     C 4519   7.669  -0.188   2.099 -0.2588  0.0228 -0.1778
  758MOL0     C 4520   7.626  -0.131   1.980 -0.4217  0.1774 -0.2915
  758MOL0     C 4521   7.404   0.163   1.751  0.2769  0.1022 -0.1924
  758MOL0     C 4522   7.421   0.105   1.632  0.5253  0.5567 -0.5270
  758MOL0     C 4523   7.313   0.094   1.549 -0.1459  0.0414  0.5269
  758MOL0     C 4524   7.189   0.148   1.586  0.1032  0.1801 -0.7350
  758MOL0     O 4525   7.102   0.134   1.490  0.3795  0.7117  0.3279
  758MOL0     C 4526   6.971   0.204   1.491 -1.2882  1.1303 -0.4309
  758MOL0     C 4527   6.964   0.293   1.368  0.2234 -0.0126  0.7663
  758MOL0     C 4528   6.843   0.381   1.387 -0.2067  0.2169 -0.8295
  758MOL0     C 4529   6.811   0.463   1.270 -0.1675  0.0122  0.1224
  758MOL0     C 4530   6.914   0.546   1.217  0.3675  0.1627 -0.2455
  758MOL0     C 4531   6.998   0.620   1.176 -0.1648  0.1707  0.0936
  758MOL0     C 4532   7.169   0.210   1.706  0.2748  0.5253 -0.1365
  758MOL0     C 4533   7.280   0.217   1.791 -0.4573  0.3343 -0.3407
  758MOL0     C 4534   7.257   0.284   1.926 -0.2934 -0.5884  0.7123
  758MOL0     H 4535   7.797   0.165   1.985  1.1524 -0.1188 -0.3698
  758MOL0     H 4536   7.876   0.064   2.196  0.5391  1.1357 -0.7784
  758MOL0     H 4537   7.803  -0.354   2.291  0.4095  1.2548 -1.6390
  758MOL0     H 4538   7.665  -0.275   2.366  0.1285  0.9254 -4.3486
  758MOL0     H 4539   7.843  -0.190   2.539  0.4468  0.4450 -1.4370
  758MOL0     H 4540   7.775  -0.353   2.563  1.2943  0.2367  1.7060
  758MOL0     H 4541   8.022  -0.317   2.399 -2.0039 -0.9638 -1.2442
  758MOL0     H 4542   8.020  -0.296   2.577 -0.7927  2.0431  0.5496
  758MOL0     H 4543   7.880  -0.542   2.565  0.5501 -0.1875 -0.0391
  758MOL0     H 4544   7.956  -0.529   2.402  0.1053  3.1353 -0.3684
  758MOL0     H 4545   8.077  -0.669   2.566  0.4130  0.2280  0.7780
  758MOL0     H 4546   8.093  -0.537   2.664 -1.3489 -2.6549  1.1145
  758MOL0     H 4547   8.215  -0.526   2.375 -0.1214  0.1008 -0.2319
  758MOL0     H 4548   8.234  -0.405   2.491 -1.2506 -0.3180  0.5068
  758MOL0     H 4549   8.400  -0.643   2.455  2.9012 -0.9937  1.3612
  758MOL0     H 4550   8.320  -0.670   2.608  0.0911  1.5846  0.9704
  758MOL0     H 4551   8.472  -0.405   2.554 -2.1003 -0.4111  0.0481
  758MOL0     H 4552   8.433  -0.478   2.704  1.3909 -1.1995 -0.0023
  758MOL0     H 4553   8.757  -0.435   2.549 -0.8319  0.3190  1.6263
  758MOL0     H 4554   8.966  -0.580   2.511  1.1734 -2.2452 -1.1467
  758MOL0     H 4555   8.955  -0.749   2.568  1.5566 -0.5198 -0.3721
  758MOL0     H 4556   8.946  -0.549   2.795  0.7288  1.4294 -1.0501
  758MOL0     H 4557   9.017  -0.710   2.774  0.4528 -0.6336 -1.8915
  758MOL0     H 4558   9.149  -0.448   2.742 -0.8836 -0.4683  1.1719
  758MOL0     H 4559   9.221  -0.591   2.794 -0.2966  0.1433  0.1361
  758MOL0     H 4560   9.180  -0.663   2.544 -1.4899 -0.1048  0.6599
  758MOL0     H 4561   9.191  -0.483   2.521  2.0446  1.2827  0.5780
  758MOL0     H 4562   9.289  -0.836   2.662  0.8989 -2.3467 -3.0865
  758MOL0     H 4563   9.490  -1.102   2.748 -0.4605 -0.7631 -0.4558
  758MOL0     H 4564   9.313  -1.049   2.756 -0.1720 -0.8194 -0.8246
  758MOL0     H 4565   9.419  -1.066   2.903 -0.6198 -2.3148 -0.6605
  758MOL0     H 4566   9.713  -0.956   3.234  0.1353  1.8725 -2.5652
  758MOL0     H 4567   9.865  -1.094   3.374 -0.2710 -1.3021 -0.9858
  758MOL0     H 4568  10.237  -0.933   3.345  4.1918 -2.0408 -2.2552
  758MOL0     H 4569  10.151  -0.984   3.490 -0.5326  1.5263 -1.6212
  758MOL0     H 4570  10.284  -1.202   3.490  0.1593  0.2828  0.3583
  758MOL0     H 4571  10.391  -1.119   3.378 -0.4557 -0.6134 -0.6790
  758MOL0     H 4572  10.313  -1.042   3.659  1.8530  0.5769  2.2731
  758MOL0     H 4573  10.425  -0.938   3.563 -1.9912  0.6328 -0.2633
  758MOL0     H 4574  10.586  -1.108   3.553 -1.3600 -0.2469 -0.2152
  758MOL0     H 4575  10.490  -1.231   3.614  1.9642 -0.7667  0.4266
  758MOL0     H 4576  10.566  -0.986   3.773  0.2662 -0.2679 -0.4676
  758MOL0     H 4577  10.452  -1.094   3.833 -2.0953 -1.0410 -1.8138
  758MOL0     H 4578  10.748  -1.129   3.767 -1.8988  0.9251 -3.0276
  758MOL0     H 4579  10.647  -1.276   3.799  1.3819  0.2604 -0.1217
  758MOL0     H 4580  10.563  -1.175   4.008  0.0497  1.7193  1.5533
  758MOL0     H 4581  10.689  -1.044   4.003  3.6544 -0.0303 -1.2977
  758MOL0     H 4582  10.769  -1.180   4.147 -2.2468  0.4616 -0.2224
  758MOL0     H 4583  10.873  -1.206   4.009 -0.0763 -5.5096 -2.6921
  758MOL0     H 4584  10.174  -1.026   3.095 -1.0365  0.4228 -0.7088
  758MOL0     H 4585  10.020  -0.911   2.948  1.2631 -1.5282 -0.3761
  758MOL0     H 4586   9.719  -0.679   2.855 -0.2136  0.1541  0.1030
  758MOL0     H 4587   9.590  -0.536   2.730  0.5608 -0.4948 -0.0784
  758MOL0     H 4588   7.634  -0.288   2.126  1.7730 -1.0709 -1.3886
  758MOL0     H 4589   7.563  -0.182   1.908  1.0303  0.2946 -1.6953
  758MOL0     H 4590   7.519   0.074   1.597  0.0904  0.2058 -1.4935
  758MOL0     H 4591   7.321   0.046   1.452 -0.7394  1.5060 -0.2798
  758MOL0     H 4592   6.892   0.129   1.504  0.0679 -0.0834  1.2422
  758MOL0     H 4593   6.954   0.276   1.572  2.7453  1.9980 -0.1672
  758MOL0     H 4594   6.947   0.225   1.284  1.0122  0.1630  0.4584
  758MOL0     H 4595   7.052   0.358   1.358 -0.1888  0.8600  2.4884
  758MOL0     H 4596   6.755   0.317   1.397 -0.5121  1.0221  3.5937
  758MOL0     H 4597   6.845   0.432   1.483  1.2213  0.5755 -1.0311
  758MOL0     H 4598   6.725   0.524   1.297 -0.2888 -0.2693  0.3685
  758MOL0     H 4599   6.795   0.389   1.191  0.1298 -0.6865  0.7084
  758MOL0     H 4600   7.067   0.687   1.131 -0.3465 -1.1153 -2.2922
  758MOL0     H 4601   7.074   0.248   1.742  1.1118  1.4395  1.1784
  758MOL0     H 4602   7.150   0.290   1.949 -0.6498 -1.6792 -0.5083
  758MOL0     H 4603   7.299   0.224   2.007  0.7951 -0.9786 -0.1195
  758MOL0     H 4604   7.303   0.383   1.922 -0.9307 -0.3149 -0.1187
  759MOL0     O 4605   6.717   9.173   4.134 -1.2223 -0.2997  0.4908
  759MOL0     C 4606   6.795   9.161   4.228  0.4305  0.1277 -0.3764
  759MOL0     O 4607   6.788   9.222   4.352 -0.3804  0.3854  0.3512
  759MOL0     C 4608   6.685   9.305   4.384 -0.2079  0.7733  0.7860
  759MOL0     C 4609   6.693   9.441   4.343 -0.0494  0.7907  0.4021
  759MOL0     C 4610   6.591   9.522   4.390 -0.2042 -0.6244  0.1051
  759MOL0     C 4611   6.480   9.478   4.460 -0.0785 -0.5111  0.0539
  759MOL0     O 4612   6.377   9.559   4.488 -0.4956 -0.5165 -0.0229
  759MOL0     C 4613   6.247   9.512   4.437  0.3394 -0.0838 -0.5906
  759MOL0     C 4614   6.155   9.545   4.547  1.0446  0.0673 -0.3716
  759MOL0     C 4615   6.126   9.408   4.623  0.3714 -0.4979 -0.6224
  759MOL0     C 4616   6.025   9.419   4.739 -0.5175  0.2198 -0.3575
  759MOL0     C 4617   6.035   9.296   4.828 -0.2741 -0.3133 -0.4236
  759MOL0     C 4618   5.936   9.317   4.940  0.0569 -0.0834 -0.1656
  759MOL0     C 4619   5.962   9.220   5.053  0.4032 -0.1396  0.0191
  759MOL0     C 4620   5.827   9.187   5.125  0.1089 -0.0502  0.5532
  759MOL0     N 4621   5.758   9.086   5.046 -0.4184 -0.1511 -0.3425
  759MOL0     C 4622   5.655   9.118   4.957 -0.4761  0.3005 -0.0985
  759MOL0     C 4623   5.582   9.008   4.943 -0.7824 -0.5722 -0.0018
  759MOL0     C 4624   5.452   9.000   4.863 -0.2309  0.3572  0.0987
  759MOL0     C 4625   5.350   9.105   4.908  1.2407  0.1036 -0.1724
  759MOL0     C 4626   5.219   9.093   4.816 -0.0807  1.5189 -0.8442
  759MOL0     C 4627   5.129   9.202   4.884 -0.1954  0.7640  0.5687
  759MOL0     O 4628   5.004   9.199   4.813  0.4840  0.2349  0.2240
  759MOL0     C 4629   4.898   9.278   4.858 -0.2349 -0.6897  0.1570
  759MOL0     C 4630   4.892   9.374   4.967 -0.0920  0.1387 -0.0517
  759MOL0     C 4631   4.777   9.433   5.022  0.0746 -0.1418 -0.6598
  759MOL0     C 4632   4.782   9.501   5.161 -0.3620 -0.2520 -1.0151
  759MOL0     C 4633   4.654   9.415   4.946  1.0627  0.2373 -0.1568
  759MOL0     C 4634   4.524   9.464   4.988 -0.3372  0.3492  0.6257
  759MOL0     O 4635   4.524   9.572   5.068  0.4666  0.2502 -0.6698
  759MOL0     C 4636   4.403   9.622   5.102 -0.2884 -0.3348  0.3801
  759MOL0     C 4637   4.343   9.597   5.220 -0.0097  0.4692 -0.0985
  759MOL0     C 4638   4.219   9.649   5.249 -0.2967  0.1389  0.0591
  759MOL0     C 4639   4.164   9.748   5.169  0.9300 -0.2024 -0.0320
  759MOL0     O 4640   4.044   9.813   5.182 -0.2069  0.3558 -0.3092
  759MOL0     C 4641   3.950   9.786   5.295 -0.0785  0.0953  0.5835
  759MOL0     C 4642   3.833   9.701   5.256  1.2829  0.1206  0.4793
  759MOL0     C 4643   3.760   9.739   5.127  0.5164  0.2138  0.5126
  759MOL0     C 4644   3.651   9.642   5.093 -0.2168 -1.0220 -0.0322
  759MOL0     C 4645   3.539   9.705   5.011  0.9475  0.0193 -0.3180
  759MOL0     C 4646   3.435   9.613   4.980 -1.0032 -0.4865 -0.0677
  759MOL0     C 4647   3.317   9.680   4.910  0.5296 -0.6649  0.0083
  759MOL0     C 4648   3.198   9.585   4.889 -0.3908 -0.0200  0.6849
  759MOL0    Cl 4649   3.117   9.618   4.729  0.2275 -0.1616 -0.6779
  759MOL0     C 4650   4.228   9.794   5.058  0.2112 -0.0414  0.5959
  759MOL0     C 4651   4.353   9.727   5.025 -0.3444 -0.2012 -0.2844
  759MOL0     O 4652   4.419   9.415   4.939  0.3437 -0.6761 -0.4577
  759MOL0     C 4653   4.661   9.341   4.827 -0.1936  0.6596 -0.3568
  759MOL0     C 4654   4.780   9.277   4.782  0.5643  0.0063 -0.2476
  759MOL0     N 4655   5.637   8.908   5.012 -0.0399  0.3391  0.2788
  759MOL0     N 4656   5.736   8.954   5.084 -0.4791 -0.6531 -0.1007
  759MOL0     C 4657   6.480   9.342   4.494  0.4775  0.8145 -0.0537
  759MOL0     C 4658   6.588   9.255   4.468  0.1296 -0.3293 -0.3068
  759MOL0     C 4659   6.908   9.058   4.214  1.0389  0.2755 -0.5904
  759MOL0     C 4660   6.957   9.024   4.089 -0.4891  0.6396  0.7491
  759MOL0     C 4661   7.073   8.948   4.073 -0.5572 -0.5862  0.0667
  759MOL0     C 4662   7.139   8.903   4.199  0.0010  0.0821  0.6480
  759MOL0     O 4663   7.251   8.833   4.173 -0.4758 -0.2223  0.4285
  759MOL0     C 4664   7.267   8.707   4.246  0.0449 -0.5963  0.1623
  759MOL0     C 4665   7.390   8.724   4.336  0.6433 -0.1361  0.3274
  759MOL0     C 4666   7.451   8.587   4.369  0.0780  0.1989 -0.2341
  759MOL0     C 4667   7.584   8.598   4.449 -0.6838  0.2878  0.2122
  759MOL0     C 4668   7.559   8.608   4.588 -0.2961  0.4249  0.0895
  759MOL0     C 4669   7.531   8.611   4.705 -0.2350  0.3796 -0.4296
  759MOL0     C 4670   7.078   8.928   4.319  0.3470 -0.3593 -0.8499
  759MOL0     C 4671   6.966   9.010   4.333 -0.9826 -0.0188 -0.2684
  759MOL0     C 4672   6.898   8.992   4.475 -0.3249 -0.0536 -0.9190
  759MOL0     H 4673   6.783   9.474   4.291 -0.4407  1.1210 -0.0745
  759MOL0     H 4674   6.607   9.625   4.360  0.6318 -0.3084  1.5822
  759MOL0     H 4675   6.240   9.406   4.411 -1.9065 -1.1869  3.6166
  759MOL0     H 4676   6.215   9.579   4.357  1.2530  0.5232 -0.4597
  759MOL0     H 4677   6.179   9.622   4.621 -1.9259  0.7880 -0.0525
  759MOL0     H 4678   6.061   9.580   4.504  1.0253 -1.1919 -1.3828
  759MOL0     H 4679   6.078   9.355   4.539  0.4454  1.4005 -1.9358
  759MOL0     H 4680   6.217   9.358   4.657 -1.0665 -1.3189  2.3507
  759MOL0     H 4681   6.039   9.505   4.805 -3.3953 -0.1750  0.8953
  759MOL0     H 4682   5.924   9.437   4.703 -0.0994  3.8650 -0.1452
  759MOL0     H 4683   6.130   9.283   4.881 -0.2846 -2.2226 -0.8127
  759MOL0     H 4684   6.014   9.196   4.788 -1.8636 -0.7091  1.2452
  759MOL0     H 4685   5.939   9.419   4.979 -0.4374 -0.0644 -0.1616
  759MOL0     H 4686   5.837   9.297   4.897 -0.2633 -0.9158  0.8995
  759MOL0     H 4687   6.029   9.266   5.126  0.9330 -2.0355  0.7991
  759MOL0     H 4688   6.024   9.135   5.023  0.5610  0.1799 -0.5619
  759MOL0     H 4689   5.852   9.142   5.222 -0.1536 -1.7661 -0.1256
  759MOL0     H 4690   5.768   9.278   5.135  1.2106  1.6959 -5.2767
  759MOL0     H 4691   5.621   9.214   4.920 -1.8094  0.7290  2.0689
  759MOL0     H 4692   5.412   8.900   4.880  3.2814 -1.7769 -2.6736
  759MOL0     H 4693   5.466   9.019   4.757  2.4148  0.8902  0.4774
  759MOL0     H 4694   5.329   9.093   5.015 -2.2181  1.6155 -0.5085
  759MOL0     H 4695   5.394   9.205   4.896  0.4418  0.2976 -1.8668
  759MOL0     H 4696   5.253   9.111   4.714 -0.5471  2.7470 -0.8088
  759MOL0     H 4697   5.174   8.994   4.830 -0.8953  2.0239  0.3284
  759MOL0     H 4698   5.109   9.172   4.988 -0.7871 -0.7738  0.0432
  759MOL0     H 4699   5.162   9.301   4.852  2.3475  0.1432  1.0343
  759MOL0     H 4700   4.976   9.374   5.036 -0.4540  4.9445  0.7317
  759MOL0     H 4701   4.887   9.499   5.193 -0.6669 -1.2007 -0.0635
  759MOL0     H 4702   4.715   9.457   5.234 -0.6155  0.3246 -0.8957
  759MOL0     H 4703   4.766   9.610   5.155 -0.9824  0.1768  4.1329
  759MOL0     H 4704   4.398   9.519   5.272  1.0466  0.3549 -1.3297
  759MOL0     H 4705   4.182   9.632   5.350  1.0635 -2.1341  0.2426
  759MOL0     H 4706   3.999   9.732   5.376  4.4551 -0.2229 -2.0002
  759MOL0     H 4707   3.910   9.886   5.314  2.9681  1.9925 -1.9175
  759MOL0     H 4708   3.860   9.597   5.239 -4.4956 -2.1559  2.6846
  759MOL0     H 4709   3.762   9.700   5.339  0.3982 -2.7144 -0.2227
  759MOL0     H 4710   3.839   9.733   5.052  0.0307 -0.7297  0.0707
  759MOL0     H 4711   3.712   9.837   5.137 -0.1658  0.0639 -1.0242
  759MOL0     H 4712   3.610   9.604   5.188  1.1706 -1.8161  0.2772
  759MOL0     H 4713   3.697   9.556   5.044  2.2406  0.4097 -0.3688
  759MOL0     H 4714   3.495   9.795   5.056 -2.2253 -0.6465 -1.8329
  759MOL0     H 4715   3.587   9.740   4.918  0.6866 -1.9331 -1.2302
  759MOL0     H 4716   3.388   9.570   5.070 -0.8541 -2.4658 -0.8874
  759MOL0     H 4717   3.482   9.528   4.928  1.4900 -1.7791  3.8203
  759MOL0     H 4718   3.351   9.721   4.815  2.3737 -1.2456  0.3589
  759MOL0     H 4719   3.293   9.769   4.968  0.1681 -0.6556 -0.1532
  759MOL0     H 4720   3.122   9.587   4.968  0.3713 -2.4044  1.5559
  759MOL0     H 4721   3.227   9.479   4.885 -1.7089 -0.3582 -0.9550
  759MOL0     H 4722   4.193   9.887   5.015  0.9983  1.0950  2.3257
  759MOL0     H 4723   4.422   9.769   4.952 -0.5814  0.3792 -0.1743
  759MOL0     H 4724   4.569   9.326   4.770  0.0647  0.7874 -0.8093
  759MOL0     H 4725   4.778   9.215   4.693  1.0473 -0.6248  0.1659
  759MOL0     H 4726   6.394   9.302   4.547  0.1514 -0.0114 -1.1632
  759MOL0     H 4727   6.591   9.149   4.490 -1.4375 -0.0620  1.3791
  759MOL0     H 4728   6.902   9.059   4.002 -0.4743 -0.4473  0.2975
  759MOL0     H 4729   7.126   8.933   3.979 -1.5230  2.6634 -1.1071
  759MOL0     H 4730   7.181   8.685   4.310  0.8079  1.0468  1.8562
  759MOL0     H 4731   7.277   8.626   4.174  2.3022 -1.7082  1.6133
  759MOL0     H 4732   7.355   8.793   4.413 -3.7480  2.4977 -3.4350
  759MOL0     H 4733   7.462   8.781   4.276 -0.2703  0.9344  0.1961
  759MOL0     H 4734   7.372   8.540   4.427 -3.9451  2.7226 -3.1259
  759MOL0     H 4735   7.466   8.519   4.285 -0.5518  0.7983 -0.8399
  759MOL0     H 4736   7.641   8.682   4.407 -0.3434 -0.4069 -0.7674
  759MOL0     H 4737   7.648   8.510   4.439 -1.3228 -0.6751  3.4208
  759MOL0     H 4738   7.496   8.595   4.805 -0.9260  1.7111 -0.4347
  759MOL0     H 4739   7.132   8.897   4.408 -0.1489  1.0057 -0.0549
  759MOL0     H 4740   6.925   9.077   4.539 -0.8232 -0.7405  0.2495
  759MOL0     H 4741   6.790   8.985   4.463 -0.5600  1.4441  0.0787
  759MOL0     H 4742   6.926   8.898   4.523  1.7161 -0.4681 -2.7755
  760MOL0     O 4743   4.220   4.517   1.620  0.4702 -0.1537 -0.1230
  760MOL0     C 4744   4.207   4.400   1.569  0.4228 -0.4579 -0.1409
  760MOL0     O 4745   4.275   4.288   1.618 -0.5350 -0.3981  0.1535
  760MOL0     C 4746   4.403   4.325   1.651 -0.6545 -0.7451 -0.1012
  760MOL0     C 4747   4.486   4.372   1.552  0.2751  0.5758  0.1997
  760MOL0     C 4748   4.618   4.405   1.596  0.1333 -0.5082 -0.3298
  760MOL0     C 4749   4.660   4.393   1.729 -0.2195 -0.4591 -1.4049
  760MOL0     O 4750   4.777   4.451   1.764  0.3312  0.1456  0.0568
  760MOL0     C 4751   4.889   4.367   1.739  0.4320 -0.1113 -0.0136
  760MOL0     C 4752   5.012   4.461   1.712 -0.1662 -0.6828 -0.6101
  760MOL0     C 4753   5.011   4.542   1.587  0.3784 -0.7750  0.2683
  760MOL0     C 4754   4.919   4.673   1.594  0.6707 -1.4276 -0.8990
  760MOL0     C 4755   4.919   4.769   1.479 -0.0739 -0.6293 -0.4247
  760MOL0     C 4756   4.871   4.694   1.353 -0.0747 -0.3502 -0.0673
  760MOL0     C 4757   4.861   4.793   1.239  0.0510 -0.4784  0.1685
  760MOL0     C 4758   4.811   4.721   1.119 -0.1990  0.5779  0.1459
  760MOL0     N 4759   4.671   4.680   1.130 -0.1265  0.3071 -0.0691
  760MOL0     C 4760   4.573   4.758   1.087 -0.3425 -0.9784 -0.2168
  760MOL0     C 4761   4.468   4.675   1.070 -0.0992  0.8000 -1.4056
  760MOL0     C 4762   4.319   4.701   1.042 -0.0468 -0.7544  0.9351
  760MOL0     C 4763   4.277   4.671   0.904 -0.6780 -0.1577 -0.0494
  760MOL0     C 4764   4.368   4.732   0.799 -0.0640 -0.4649 -0.0792
  760MOL0     C 4765   4.401   4.621   0.701 -0.0871  0.2080 -0.2951
  760MOL0     O 4766   4.497   4.689   0.613 -0.0050 -0.0594  0.0711
  760MOL0     C 4767   4.558   4.636   0.500  0.4023 -0.1174  0.1904
  760MOL0     C 4768   4.664   4.708   0.439 -0.2066 -0.8174  0.3541
  760MOL0     C 4769   4.727   4.664   0.324  0.1982 -0.1707  0.0167
  760MOL0     C 4770   4.832   4.752   0.259 -0.7800  0.4438 -1.1739
  760MOL0     C 4771   4.693   4.540   0.265  0.5881  0.4289 -0.3433
  760MOL0     C 4772   4.769   4.473   0.155  0.2460 -0.7818 -0.0427
  760MOL0     O 4773   4.890   4.522   0.112 -0.1143 -0.2383  0.2643
  760MOL0     C 4774   4.971   4.454   0.031 -0.1336  0.8824  0.1208
  760MOL0     C 4775   5.063   4.534  -0.043 -1.3889 -0.1291 -0.3991
  760MOL0     C 4776   5.163   4.470  -0.121 -1.0143  0.0220 -0.4624
  760MOL0     C 4777   5.170   4.333  -0.123 -0.2402  1.3422  0.1172
  760MOL0     O 4778   5.269   4.273  -0.201 -0.0949  1.0057 -0.3316
  760MOL0     C 4779   5.282   4.135  -0.200  0.2309 -0.0518  0.1406
  760MOL0     C 4780   5.421   4.097  -0.254 -0.5424  0.8268  0.9348
  760MOL0     C 4781   5.431   4.102  -0.408  0.2504  0.5813 -0.1416
  760MOL0     C 4782   5.580   4.072  -0.444 -0.5204  0.3181  0.3801
  760MOL0     C 4783   5.586   4.072  -0.590 -0.6859  0.1413  0.3504
  760MOL0     C 4784   5.723   4.028  -0.643 -0.2350 -0.1568  0.6059
  760MOL0     C 4785   5.725   4.006  -0.794 -0.0364  0.0902  0.2531
  760MOL0     C 4786   5.719   3.857  -0.834  0.7841  0.1820 -0.2773
  760MOL0    Cl 4787   5.861   3.774  -0.785 -0.4344  0.5586 -0.3134
  760MOL0     C 4788   5.066   4.256  -0.075 -0.2749  0.3752  0.2604
  760MOL0     C 4789   4.978   4.314   0.013  0.3819 -0.4799  0.0882
  760MOL0     O 4790   4.698   4.387   0.099  0.3775 -0.1082 -0.3926
  760MOL0     C 4791   4.587   4.464   0.328 -0.2835  0.3219  0.0484
  760MOL0     C 4792   4.528   4.509   0.446 -0.0254 -1.0096  0.1197
  760MOL0     N 4793   4.512   4.547   1.102  0.6988  1.0266 -0.6674
  760MOL0     N 4794   4.630   4.550   1.152 -1.1451  0.0693 -0.0710
  760MOL0     C 4795   4.575   4.338   1.819 -0.1661  0.0059 -0.1240
  760MOL0     C 4796   4.444   4.312   1.785 -0.6643 -0.5751  1.2695
  760MOL0     C 4797   4.099   4.382   1.468  0.1345  0.4961 -0.7976
  760MOL0     C 4798   4.046   4.252   1.441 -0.7778  0.9757 -0.6365
  760MOL0     C 4799   3.958   4.220   1.340  0.6222 -0.6672 -0.2721
  760MOL0     C 4800   3.919   4.321   1.253  0.1099 -0.2443  0.1923
  760MOL0     O 4801   3.834   4.296   1.147 -0.5559  0.3458  0.7374
  760MOL0     C 4802   3.702   4.247   1.186  0.5726 -0.8109  0.2871
  760MOL0     C 4803   3.592   4.272   1.081 -0.6953  0.7370  0.0737
  760MOL0     C 4804   3.574   4.422   1.071  0.4312 -0.2254 -0.9128
  760MOL0     C 4805   3.439   4.458   1.005  0.4309 -0.1080  0.1532
  760MOL0     C 4806   3.442   4.426   0.860  0.0692  0.1736  0.4996
  760MOL0     C 4807   3.444   4.407   0.738 -0.3785  0.6608 -0.1902
  760MOL0     C 4808   3.965   4.457   1.278 -0.1787 -0.9107 -0.1093
  760MOL0     C 4809   4.047   4.498   1.390 -0.1437  0.7637  0.8926
  760MOL0     C 4810   4.074   4.652   1.404  0.0830 -0.3390  0.5578
  760MOL0     H 4811   4.456   4.384   1.448 -2.3406  3.7665  1.1261
  760MOL0     H 4812   4.687   4.441   1.519  1.1763  0.0067  0.8094
  760MOL0     H 4813   4.877   4.296   1.657 -0.7353  2.7758 -2.5651
  760MOL0     H 4814   4.906   4.307   1.828 -0.3457  0.0266  0.2398
  760MOL0     H 4815   5.036   4.510   1.806  1.9238 -0.3993 -1.2278
  760MOL0     H 4816   5.106   4.408   1.693 -0.1178 -1.0039  0.4794
  760MOL0     H 4817   5.109   4.570   1.547 -0.4937 -0.2219 -1.6455
  760MOL0     H 4818   4.980   4.472   1.509 -0.2419 -0.7602  0.4971
  760MOL0     H 4819   4.815   4.643   1.605 -0.0860  0.9451 -1.0418
  760MOL0     H 4820   4.944   4.737   1.679  2.0797 -0.3405 -2.0781
  760MOL0     H 4821   5.019   4.814   1.470  0.7826 -2.1195  1.0587
  760MOL0     H 4822   4.847   4.849   1.501 -0.2910 -0.5698 -1.3154
  760MOL0     H 4823   4.941   4.614   1.326  0.7165  0.2611  0.1342
  760MOL0     H 4824   4.776   4.645   1.371  0.9455 -1.7697  1.6950
  760MOL0     H 4825   4.954   4.849   1.221 -0.4030 -0.0490 -0.8943
  760MOL0     H 4826   4.785   4.867   1.265 -0.2970 -0.1338 -1.7017
  760MOL0     H 4827   4.822   4.783   1.030  3.1806 -1.9038 -1.3609
  760MOL0     H 4828   4.866   4.629   1.100 -0.2865  0.2007  1.6118
  760MOL0     H 4829   4.588   4.865   1.071 -0.0131 -1.0312 -0.2512
  760MOL0     H 4830   4.292   4.807   1.049 -1.1304 -1.1172  2.9176
  760MOL0     H 4831   4.253   4.650   1.113 -0.1379  0.0408  1.4418
  760MOL0     H 4832   4.292   4.563   0.902 -2.5247 -0.4347 -1.8399
  760MOL0     H 4833   4.171   4.698   0.891 -0.4319  0.1430 -1.6190
  760MOL0     H 4834   4.312   4.807   0.743 -1.8392 -3.3206 -2.4172
  760MOL0     H 4835   4.456   4.768   0.853 -0.4986 -0.8083  0.8851
  760MOL0     H 4836   4.438   4.533   0.753 -1.5412  1.2370  2.7050
  760MOL0     H 4837   4.315   4.591   0.640  0.8445  1.1907 -2.1927
  760MOL0     H 4838   4.698   4.804   0.478  0.1339  0.0827 -2.0010
  760MOL0     H 4839   4.831   4.755   0.150  2.1661  0.1450 -1.2872
  760MOL0     H 4840   4.926   4.703   0.285 -0.2220  2.3939  0.8102
  760MOL0     H 4841   4.827   4.855   0.296  0.8912 -0.4148  1.8027
  760MOL0     H 4842   5.074   4.642  -0.041  0.7362 -0.2572 -2.1266
  760MOL0     H 4843   5.240   4.535  -0.161  1.4109 -1.7739  0.9732
  760MOL0     H 4844   5.269   4.101  -0.097 -0.5918 -1.0794 -0.2812
  760MOL0     H 4845   5.207   4.088  -0.264  2.9300 -2.0738 -1.7408
  760MOL0     H 4846   5.496   4.165  -0.213  0.6737  1.0901 -1.5553
  760MOL0     H 4847   5.439   3.992  -0.230 -1.1850  1.0462  2.4745
  760MOL0     H 4848   5.394   4.197  -0.450 -1.2544  0.3508  0.5827
  760MOL0     H 4849   5.373   4.023  -0.456  1.0260 -0.1310  0.0815
  760MOL0     H 4850   5.598   3.973  -0.401  1.7852  2.1571  4.2620
  760MOL0     H 4851   5.646   4.150  -0.404 -0.5314 -0.5733  2.2369
  760MOL0     H 4852   5.512   4.004  -0.633 -0.7681 -1.6165  2.9813
  760MOL0     H 4853   5.570   4.171  -0.634 -0.5751 -0.4939 -1.1542
  760MOL0     H 4854   5.751   3.940  -0.584 -0.0028  0.7832  1.9576
  760MOL0     H 4855   5.798   4.105  -0.624 -0.6469  0.5601 -0.5519
  760MOL0     H 4856   5.818   4.041  -0.839 -0.8451  0.7963 -0.9088
  760MOL0     H 4857   5.642   4.055  -0.846  0.3891 -1.1026 -1.6511
  760MOL0     H 4858   5.693   3.838  -0.939 -0.7880 -0.1568  0.1394
  760MOL0     H 4859   5.637   3.814  -0.775 -0.1946  1.8108 -0.4000
  760MOL0     H 4860   5.069   4.149  -0.092  2.8114  0.0288  2.1336
  760MOL0     H 4861   4.904   4.253   0.065 -1.6231 -0.3432 -2.4125
  760MOL0     H 4862   4.549   4.372   0.286 -0.6737 -0.4203  1.9435
  760MOL0     H 4863   4.450   4.459   0.502 -0.7867 -0.0837 -0.0845
  760MOL0     H 4864   4.602   4.326   1.924 -3.8417 -0.9501  0.8739
  760MOL0     H 4865   4.374   4.271   1.856 -0.2151 -3.6999  0.1100
  760MOL0     H 4866   4.075   4.163   1.495 -1.1197  1.8047  0.9844
  760MOL0     H 4867   3.930   4.116   1.323 -3.9404  0.5624 -1.7286
  760MOL0     H 4868   3.697   4.143   1.219 -2.2409 -0.6814  0.5056
  760MOL0     H 4869   3.680   4.302   1.278  1.1141  3.6881 -2.0021
  760MOL0     H 4870   3.497   4.225   1.108 -2.0012  2.2911 -1.6172
  760MOL0     H 4871   3.627   4.218   0.992  0.9475 -2.1395  2.2858
  760MOL0     H 4872   3.579   4.461   1.173  0.4967 -3.4407  0.4032
  760MOL0     H 4873   3.663   4.469   1.027  0.0855  0.1361 -1.2330
  760MOL0     H 4874   3.413   4.564   1.014  0.2016 -0.0219 -1.2421
  760MOL0     H 4875   3.354   4.406   1.050 -0.5679  1.6188  0.3409
  760MOL0     H 4876   3.474   4.390   0.636 -0.5304  1.0455 -0.3014
  760MOL0     H 4877   3.911   4.533   1.221  3.3438  2.9942  1.2504
  760MOL0     H 4878   4.180   4.677   1.415 -0.4556  1.6049  1.8678
  760MOL0     H 4879   4.030   4.702   1.317 -1.0062 -2.7686 -0.3802
  760MOL0     H 4880   4.021   4.703   1.485  0.8528  1.6654 -0.1362
  761MOL0     O 4881   3.844   7.635   4.243  0.4330 -0.6354  1.2875
  761MOL0     C 4882   3.753   7.562   4.273  0.0066  0.0882  0.2764
  761MOL0     O 4883   3.743   7.506   4.399 -0.3452 -0.5547 -0.3554
  761MOL0     C 4884   3.856   7.512   4.474  0.1564 -0.1169  0.4023
  761MOL0     C 4885   3.963   7.420   4.451 -0.7077 -0.1230  0.1548
  761MOL0     C 4886   4.086   7.420   4.523 -0.3944 -0.2853  0.4095
  761MOL0     C 4887   4.092   7.517   4.626 -0.3463  0.3485 -0.3900
  761MOL0     O 4888   4.198   7.526   4.716 -0.1234  0.0356 -0.1891
  761MOL0     C 4889   4.272   7.413   4.752 -0.1560  0.2631  0.6931
  761MOL0     C 4890   4.295   7.414   4.900 -0.1575 -0.5736  0.9628
  761MOL0     C 4891   4.407   7.340   4.954 -0.3059  0.3504 -0.0976
  761MOL0     C 4892   4.432   7.369   5.104  0.4947 -0.2703  0.7724
  761MOL0     C 4893   4.576   7.338   5.147 -0.2382  0.2578 -0.3540
  761MOL0     C 4894   4.601   7.357   5.299  0.5841 -0.1247  0.1977
  761MOL0     C 4895   4.751   7.385   5.332  0.5211 -0.1822  0.6141
  761MOL0     C 4896   4.756   7.425   5.481 -0.4338 -0.6774  0.0596
  761MOL0     N 4897   4.696   7.334   5.580 -0.4291  0.0429  0.1681
  761MOL0     C 4898   4.697   7.201   5.575  0.4341 -0.6106  1.4265
  761MOL0     C 4899   4.644   7.162   5.683  0.3385  0.0940  0.3701
  761MOL0     C 4900   4.633   7.027   5.745  0.6570  0.4012  0.0281
  761MOL0     C 4901   4.494   6.963   5.746  0.2213 -0.9742 -0.2349
  761MOL0     C 4902   4.463   6.908   5.611 -0.1134  0.7380 -0.1671
  761MOL0     C 4903   4.328   6.844   5.595 -0.1501  0.3027  0.1046
  761MOL0     O 4904   4.222   6.922   5.647 -0.4431  0.4909  0.7494
  761MOL0     C 4905   4.101   6.864   5.668  0.2998 -0.4107  0.9689
  761MOL0     C 4906   4.057   6.747   5.603 -0.7069 -0.2906  0.1567
  761MOL0     C 4907   3.932   6.693   5.607  0.3445  0.9003  0.0006
  761MOL0     C 4908   3.904   6.566   5.518 -0.1913 -0.8965 -0.6228
  761MOL0     C 4909   3.838   6.748   5.704  0.3289  0.1643  0.2025
  761MOL0     C 4910   3.699   6.698   5.731  0.1917 -0.5863 -0.1578
  761MOL0     O 4911   3.641   6.737   5.843 -0.3166 -0.5002 -0.4894
  761MOL0     C 4912   3.516   6.694   5.872  0.5122  0.1068  0.5584
  761MOL0     C 4913   3.491   6.687   6.008 -0.6055 -0.9330 -0.9241
  761MOL0     C 4914   3.361   6.651   6.048  0.8253 -0.1800  0.5446
  761MOL0     C 4915   3.261   6.616   5.952 -0.6643  0.0145  0.4983
  761MOL0     O 4916   3.141   6.568   5.992 -0.2058 -0.8904 -0.2753
  761MOL0     C 4917   3.056   6.678   6.035  0.2911 -0.8588 -0.1463
  761MOL0     C 4918   2.927   6.625   6.108 -0.4385  0.2178 -0.9437
  761MOL0     C 4919   2.835   6.737   6.146 -0.5953  0.4461 -0.2339
  761MOL0     C 4920   2.699   6.687   6.176 -0.3962  0.3443  0.7238
  761MOL0     C 4921   2.631   6.802   6.249  0.1445 -0.2820  0.0829
  761MOL0     C 4922   2.477   6.794   6.263  0.5507 -0.3943 -0.2429
  761MOL0     C 4923   2.420   6.938   6.240 -0.4530  0.2263  1.3484
  761MOL0     C 4924   2.261   6.946   6.244  0.4903 -0.1941  0.3722
  761MOL0    Cl 4925   2.182   6.902   6.092  0.4229 -0.5962 -0.2639
  761MOL0     C 4926   3.283   6.645   5.824  0.5085  0.2327  0.7437
  761MOL0     C 4927   3.411   6.680   5.777 -0.5719 -0.6003 -0.4208
  761MOL0     O 4928   3.654   6.624   5.643  0.4502  0.6261 -0.8411
  761MOL0     C 4929   3.872   6.863   5.769 -0.1607 -0.4205 -0.4258
  761MOL0     C 4930   4.000   6.918   5.754 -0.0646  0.3018  1.0920
  761MOL0     N 4931   4.583   7.274   5.742  0.3436  1.0370 -0.1796
  761MOL0     N 4932   4.622   7.377   5.680  0.5973  0.0263 -0.4724
  761MOL0     C 4933   3.996   7.618   4.645  0.6600  0.2167 -0.4030
  761MOL0     C 4934   3.878   7.618   4.563 -0.0574  0.5667  0.6989
  761MOL0     C 4935   3.637   7.548   4.174 -0.1338 -0.2071 -0.3267
  761MOL0     C 4936   3.508   7.520   4.227  0.5758  0.3523 -0.0003
  761MOL0     C 4937   3.400   7.505   4.145 -0.5821 -0.4342  0.2597
  761MOL0     C 4938   3.418   7.489   4.002  0.5557 -0.4679 -0.4661
  761MOL0     O 4939   3.315   7.475   3.916  0.5609  1.1945  0.2755
  761MOL0     C 4940   3.179   7.467   3.967 -0.5200  0.0727  0.3612
  761MOL0     C 4941   3.084   7.452   3.854  0.4161 -0.0947  0.2074
  761MOL0     C 4942   2.935   7.492   3.900  0.6372  0.1305  0.1779
  761MOL0     C 4943   2.838   7.454   3.783  0.7401 -0.1345  1.2976
  761MOL0     C 4944   2.827   7.312   3.750 -0.3615 -0.7475 -0.2233
  761MOL0     C 4945   2.810   7.196   3.723 -0.1856 -0.9212  0.3618
  761MOL0     C 4946   3.544   7.503   3.951  1.1317 -0.8941 -0.5658
  761MOL0     C 4947   3.656   7.532   4.029  0.2532 -0.4122 -0.0032
  761MOL0     C 4948   3.792   7.540   3.965  0.2286 -0.7026  0.0583
  761MOL0     H 4949   3.955   7.343   4.375 -1.0056  0.4375 -0.3934
  761MOL0     H 4950   4.165   7.351   4.493 -0.9069  0.1563 -2.2570
  761MOL0     H 4951   4.372   7.407   4.709  0.1446  0.0753  1.4004
  761MOL0     H 4952   4.205   7.327   4.743 -1.8293  1.4177  1.4000
  761MOL0     H 4953   4.301   7.522   4.921 -0.3577 -0.0999 -1.2525
  761MOL0     H 4954   4.200   7.376   4.939 -0.5363 -0.4109  0.2125
  761MOL0     H 4955   4.395   7.234   4.928  1.7360 -0.7909  2.9701
  761MOL0     H 4956   4.499   7.372   4.903  0.7383 -1.3950  0.5946
  761MOL0     H 4957   4.425   7.478   5.110  0.8181 -0.1394 -0.6779
  761MOL0     H 4958   4.352   7.326   5.165 -0.1094 -1.9093 -1.0495
  761MOL0     H 4959   4.643   7.409   5.097  0.2030 -1.8170 -2.9596
  761MOL0     H 4960   4.603   7.236   5.117 -2.3632  0.7019 -4.5147
  761MOL0     H 4961   4.552   7.441   5.348  0.9084 -0.3180  0.8736
  761MOL0     H 4962   4.572   7.257   5.334  1.7590 -1.3331 -2.0318
  761MOL0     H 4963   4.782   7.470   5.271 -4.8267 -0.0267 -2.5420
  761MOL0     H 4964   4.814   7.300   5.304 -2.6990 -2.5379 -0.0602
  761MOL0     H 4965   4.859   7.441   5.515 -0.1978 -1.3037 -0.3478
  761MOL0     H 4966   4.719   7.527   5.495  1.6936  0.1940 -0.2555
  761MOL0     H 4967   4.744   7.131   5.506  0.4138 -1.8624  2.6293
  761MOL0     H 4968   4.675   7.017   5.845  0.1662 -2.1696  0.0324
  761MOL0     H 4969   4.706   6.963   5.695  1.7997  0.4078  1.6313
  761MOL0     H 4970   4.491   6.888   5.826  1.1133  1.5144  2.3107
  761MOL0     H 4971   4.417   7.034   5.777 -0.5086 -2.2520  1.0215
  761MOL0     H 4972   4.452   6.991   5.540  3.1386  0.2758 -1.3873
  761MOL0     H 4973   4.535   6.836   5.572 -1.5369 -0.8173 -0.0548
  761MOL0     H 4974   4.303   6.836   5.489 -0.2540  4.1230 -0.2938
  761MOL0     H 4975   4.335   6.743   5.638  1.2307 -0.1583 -1.1230
  761MOL0     H 4976   4.128   6.685   5.549  1.2642  2.7773 -1.0380
  761MOL0     H 4977   3.812   6.586   5.463 -0.5424 -0.4430  0.1189
  761MOL0     H 4978   3.907   6.472   5.574 -1.5733 -0.2545  0.5965
  761MOL0     H 4979   3.985   6.563   5.445 -0.2417 -0.4908 -0.6935
  761MOL0     H 4980   3.568   6.715   6.079 -0.4497 -0.2967 -1.3280
  761MOL0     H 4981   3.346   6.632   6.154 -0.1579  1.4436  0.7255
  761MOL0     H 4982   3.110   6.744   6.104  1.0714 -1.1874 -0.4307
  761MOL0     H 4983   3.019   6.738   5.952  0.6366  1.3762  1.2296
  761MOL0     H 4984   2.868   6.572   6.033  1.6641 -0.9320 -1.8860
  761MOL0     H 4985   2.957   6.560   6.191  0.6448  0.8647 -0.8206
  761MOL0     H 4986   2.842   6.814   6.069  0.6978 -0.6296 -1.2134
  761MOL0     H 4987   2.889   6.774   6.234  3.4521 -2.9329 -1.0418
  761MOL0     H 4988   2.702   6.596   6.237 -1.9123 -0.5943 -0.5149
  761MOL0     H 4989   2.637   6.661   6.089  0.0010 -1.1239  0.8465
  761MOL0     H 4990   2.677   6.828   6.345  0.2501  0.4313 -0.1511
  761MOL0     H 4991   2.648   6.889   6.185 -0.4310 -0.0565  0.2237
  761MOL0     H 4992   2.452   6.758   6.363  0.7255 -3.3835 -1.1746
  761MOL0     H 4993   2.439   6.712   6.202  2.2643  0.4736 -2.6302
  761MOL0     H 4994   2.454   6.991   6.152  3.3329 -1.4515  1.6002
  761MOL0     H 4995   2.459   7.003   6.319 -1.3989  0.5077  1.5962
  761MOL0     H 4996   2.235   7.052   6.254 -0.8011 -0.2479 -1.7920
  761MOL0     H 4997   2.211   6.883   6.319 -0.8876  2.4698  1.8542
  761MOL0     H 4998   3.206   6.638   5.747  3.3205  0.9375 -2.4064
  761MOL0     H 4999   3.425   6.692   5.670 -1.5058 -3.4544 -0.9398
  761MOL0     H 5000   3.817   6.923   5.842  2.1788  1.2195  0.1298
  761MOL0     H 5001   4.024   7.014   5.799 -0.3283 -0.0620  2.0437
  761MOL0     H 5002   3.997   7.703   4.712 -1.5337  2.0874 -2.5741
  761MOL0     H 5003   3.810   7.698   4.593  0.7100  0.6206  2.4435
  761MOL0     H 5004   3.507   7.504   4.334 -0.6537 -1.3498 -0.2291
  761MOL0     H 5005   3.315   7.476   4.207  0.0376 -3.6495 -0.2213
  761MOL0     H 5006   3.185   7.389   4.044  2.5525  0.8133  1.0111
  761MOL0     H 5007   3.154   7.561   4.017 -1.2347  0.4816 -0.7359
  761MOL0     H 5008   3.083   7.343   3.849  0.1574 -0.2678  2.6212
  761MOL0     H 5009   3.123   7.504   3.767 -0.0648 -0.5720 -0.3010
  761MOL0     H 5010   2.897   7.438   3.987 -5.6884  2.5115 -0.5838
  761MOL0     H 5011   2.917   7.597   3.926 -1.2615 -0.6884  2.4452
  761MOL0     H 5012   2.873   7.502   3.692  0.4724 -1.5006  0.4424
  761MOL0     H 5013   2.742   7.503   3.801  0.2123 -0.4074 -0.5515
  761MOL0     H 5014   2.782   7.096   3.694  0.7452 -0.5866 -1.9476
  761MOL0     H 5015   3.558   7.497   3.844 -1.6175 -2.1786 -0.9613
  761MOL0     H 5016   3.774   7.507   3.862  1.6001  0.6229 -0.6425
  761MOL0     H 5017   3.821   7.645   3.957  2.6210 -1.2725  0.3559
  761MOL0     H 5018   3.877   7.497   4.020  0.0092 -0.6492  0.4429
  762MOL0     O 5019   6.462   6.299   5.894 -0.1198  0.3303 -0.3950
  762MOL0     C 5020   6.470   6.231   5.996  0.5553  0.2245 -1.1137
  762MOL0     O 5021   6.585   6.225   6.074 -0.1923  0.6408 -0.4991
  762MOL0     C 5022   6.695   6.309   6.031  1.3719  0.7723  0.1038
  762MOL0     C 5023   6.810   6.242   5.995 -0.1450  0.0871  0.5139
  762MOL0     C 5024   6.909   6.326   5.946 -1.1494  0.1347 -0.5268
  762MOL0     C 5025   6.906   6.466   5.952 -0.3737 -0.6555  0.5757
  762MOL0     O 5026   7.018   6.548   5.914 -0.1893  0.8001 -0.2900
  762MOL0     C 5027   7.064   6.650   6.006 -0.8720  0.5168 -0.5073
  762MOL0     C 5028   7.219   6.659   5.995  0.5890  0.0514  0.7878
  762MOL0     C 5029   7.260   6.703   5.858 -0.6005 -1.3346  0.4451
  762MOL0     C 5030   7.401   6.749   5.849 -0.3541 -0.4162 -0.2266
  762MOL0     C 5031   7.510   6.640   5.859 -0.8914  0.2262 -0.3099
  762MOL0     C 5032   7.654   6.694   5.849  0.6346 -0.4266  0.4238
  762MOL0     C 5033   7.752   6.579   5.833  0.6423  0.0620 -0.0630
  762MOL0     C 5034   7.888   6.624   5.776 -0.3859  0.3872 -0.0350
  762MOL0     N 5035   7.966   6.519   5.712  0.3982 -0.1456  0.2822
  762MOL0     C 5036   7.933   6.447   5.602 -0.1398  0.2355  0.1129
  762MOL0     C 5037   8.054   6.385   5.574  0.0424 -0.1949 -0.2322
  762MOL0     C 5038   8.084   6.315   5.444 -0.8542 -0.4265  0.3590
  762MOL0     C 5039   8.226   6.242   5.431 -0.7976 -0.5412  0.3864
  762MOL0     C 5040   8.341   6.346   5.416  0.6636  0.5804  0.1878
  762MOL0     C 5041   8.489   6.281   5.407  0.4706 -0.0632  0.1602
  762MOL0     O 5042   8.475   6.155   5.336  0.0684  0.5520 -0.6396
  762MOL0     C 5043   8.586   6.078   5.312  0.4749 -0.0699 -0.0582
  762MOL0     C 5044   8.572   5.937   5.315  0.3011  0.1700 -0.0258
  762MOL0     C 5045   8.679   5.851   5.295 -0.8205 -0.1620  0.0139
  762MOL0     C 5046   8.653   5.709   5.318 -0.1599 -0.0068  0.1814
  762MOL0     C 5047   8.807   5.904   5.264  0.0089 -0.1741 -0.7756
  762MOL0     C 5048   8.930   5.819   5.243  0.1483 -0.2215 -0.7621
  762MOL0     O 5049   8.921   5.723   5.150 -0.9821 -0.5765 -0.1082
  762MOL0     C 5050   9.031   5.646   5.120  0.1577 -0.9661 -0.2173
  762MOL0     C 5051   9.075   5.553   5.208 -0.7342  0.5435 -0.5475
  762MOL0     C 5052   9.187   5.469   5.172  0.7653  0.5533 -0.2516
  762MOL0     C 5053   9.249   5.474   5.048 -0.2955  0.6376  0.3379
  762MOL0     O 5054   9.349   5.387   5.015 -0.4246  0.1137  0.3703
  762MOL0     C 5055   9.364   5.268   5.090 -0.4549  0.1163  0.3235
  762MOL0     C 5056   9.491   5.191   5.058  0.6132 -0.1943 -0.5592
  762MOL0     C 5057   9.498   5.152   4.907  0.6587 -0.6336 -0.3387
  762MOL0     C 5058   9.632   5.109   4.866  0.4796 -1.1308 -0.6956
  762MOL0     C 5059   9.636   5.087   4.710 -0.9093  0.5637 -0.9521
  762MOL0     C 5060   9.779   5.065   4.663 -0.0187 -0.1691  0.3031
  762MOL0     C 5061   9.883   4.993   4.756  0.1163  1.0089  0.6162
  762MOL0     C 5062  10.019   4.961   4.703  0.4332  0.0174  0.1199
  762MOL0    Cl 5063  10.009   4.852   4.565 -0.0966  0.3529  0.0485
  762MOL0     C 5064   9.212   5.576   4.963  1.1512  0.7539  0.2588
  762MOL0     C 5065   9.105   5.665   4.998 -0.5525 -1.1003 -0.6754
  762MOL0     O 5066   9.032   5.851   5.304  0.1535 -0.2291  0.3013
  762MOL0     C 5067   8.821   6.044   5.266  0.4633  0.3484 -0.9800
  762MOL0     C 5068   8.713   6.129   5.289 -0.7499  0.5389 -0.4549
  762MOL0     N 5069   8.145   6.410   5.674 -0.0405 -0.0588  0.3994
  762MOL0     N 5070   8.091   6.492   5.760  0.7949 -0.0310 -0.3600
  762MOL0     C 5071   6.789   6.526   5.994  0.3909 -0.0959  0.6126
  762MOL0     C 5072   6.681   6.447   6.029  0.4930  0.3086 -0.0918
  762MOL0     C 5073   6.356   6.133   6.029 -0.3705 -0.0912 -0.2369
  762MOL0     C 5074   6.258   6.103   5.927 -0.0635  0.3884 -0.5677
  762MOL0     C 5075   6.147   6.030   5.951  0.0700  0.8849 -0.1431
  762MOL0     C 5076   6.131   5.964   6.074  0.1424 -0.5304 -0.5349
  762MOL0     O 5077   6.017   5.889   6.086 -0.0028 -0.1967  0.1714
  762MOL0     C 5078   6.041   5.760   6.149  0.7015 -0.5222  0.1523
  762MOL0     C 5079   5.942   5.745   6.262 -0.2982  0.6121  0.4712
  762MOL0     C 5080   5.968   5.603   6.327 -0.2124 -0.5821 -0.5516
  762MOL0     C 5081   5.882   5.579   6.460 -0.3815  0.6413 -0.5025
  762MOL0     C 5082   5.919   5.668   6.575 -0.9254  0.1723  0.5627
  762MOL0     C 5083   5.947   5.720   6.681  0.2700 -0.0771  0.2658
  762MOL0     C 5084   6.225   5.981   6.177  0.5281  0.5125  0.5159
  762MOL0     C 5085   6.335   6.061   6.154  0.6333  0.3345  0.5058
  762MOL0     C 5086   6.429   6.075   6.265  0.3712 -0.6577  0.6414
  762MOL0     H 5087   6.811   6.135   5.981 -2.4274  0.0504  0.1881
  762MOL0     H 5088   7.008   6.300   5.909 -1.4087 -0.5881 -0.7169
  762MOL0     H 5089   7.036   6.633   6.110  3.2607  0.5599  0.7851
  762MOL0     H 5090   7.029   6.749   5.975  0.9602  1.2635 -0.2801
  762MOL0     H 5091   7.246   6.728   6.075  2.4782  1.9655 -1.3675
  762MOL0     H 5092   7.272   6.565   6.014  1.1121 -0.4424 -2.6078
  762MOL0     H 5093   7.253   6.627   5.779  2.5244  0.7253 -2.0937
  762MOL0     H 5094   7.205   6.793   5.830 -0.3940 -1.2074  0.4505
  762MOL0     H 5095   7.409   6.793   5.749 -3.0456 -0.9115 -0.7247
  762MOL0     H 5096   7.419   6.832   5.918  1.4746 -0.7733 -0.2209
  762MOL0     H 5097   7.496   6.567   5.779  0.9836 -2.3164  1.5153
  762MOL0     H 5098   7.494   6.585   5.952 -3.0200  0.1916 -0.6489
  762MOL0     H 5099   7.682   6.746   5.757 -0.2178 -1.7906 -0.6391
  762MOL0     H 5100   7.691   6.751   5.935  2.6327 -1.5080  0.3338
  762MOL0     H 5101   7.711   6.495   5.776 -1.4902  1.1838 -0.3079
  762MOL0     H 5102   7.763   6.553   5.939 -3.2450 -2.4158 -0.0566
  762MOL0     H 5103   7.872   6.704   5.703 -0.1531 -1.8296 -2.6808
  762MOL0     H 5104   7.948   6.665   5.858 -1.5603 -0.3814  1.2399
  762MOL0     H 5105   7.850   6.445   5.534  0.8452 -0.7458 -1.1160
  762MOL0     H 5106   8.080   6.388   5.363  1.2427  0.1058  0.6946
  762MOL0     H 5107   8.007   6.239   5.428 -0.5705 -0.2346 -2.3940
  762MOL0     H 5108   8.241   6.183   5.522 -0.1017  0.0833  0.6871
  762MOL0     H 5109   8.238   6.167   5.352  0.2163 -3.0498  2.7345
  762MOL0     H 5110   8.327   6.388   5.316  1.8517 -1.6578 -0.9942
  762MOL0     H 5111   8.332   6.422   5.493 -0.7310 -0.2327  0.8695
  762MOL0     H 5112   8.546   6.359   5.357 -0.1121  0.8007  0.7956
  762MOL0     H 5113   8.530   6.257   5.506  0.5823  0.0599  0.1441
  762MOL0     H 5114   8.475   5.892   5.336  0.8759 -0.7595  0.7309
  762MOL0     H 5115   8.614   5.664   5.226  1.0246  0.0928 -0.3921
  762MOL0     H 5116   8.567   5.698   5.385  0.8863 -0.6154  1.4716
  762MOL0     H 5117   8.747   5.659   5.345  0.3032 -0.3679 -1.9305
  762MOL0     H 5118   9.024   5.552   5.304  0.3901  1.1057  0.0832
  762MOL0     H 5119   9.217   5.402   5.252 -0.7488 -1.2881 -1.1345
  762MOL0     H 5120   9.378   5.280   5.198  0.9484  2.1635 -0.0158
  762MOL0     H 5121   9.271   5.211   5.086 -0.4978  0.1670  0.5828
  762MOL0     H 5122   9.582   5.240   5.094 -0.0947  0.7880 -0.0621
  762MOL0     H 5123   9.483   5.096   5.112 -5.1544 -1.5561 -2.9958
  762MOL0     H 5124   9.471   5.240   4.847  0.2726 -0.6480 -0.1834
  762MOL0     H 5125   9.418   5.078   4.897  0.0698 -0.2016  0.9897
  762MOL0     H 5126   9.654   5.011   4.910  0.4142 -1.8667 -2.2041
  762MOL0     H 5127   9.709   5.179   4.899 -1.7129 -0.1701  2.9348
  762MOL0     H 5128   9.586   4.990   4.694 -0.2929  0.2048 -0.7356
  762MOL0     H 5129   9.594   5.167   4.648  1.6115  1.1992 -1.9751
  762MOL0     H 5130   9.814   5.168   4.654  2.0353 -0.8521 -0.1610
  762MOL0     H 5131   9.792   5.017   4.565 -3.8340  2.3154 -1.6526
  762MOL0     H 5132   9.841   4.895   4.779 -0.0370  0.3224 -2.1898
  762MOL0     H 5133   9.895   5.050   4.849  0.9101  2.2629 -0.2082
  762MOL0     H 5134  10.090   4.929   4.781  1.1757  0.3631 -0.4016
  762MOL0     H 5135  10.059   5.056   4.666 -1.5034  0.8628  0.0595
  762MOL0     H 5136   9.270   5.580   4.871  3.5332 -2.1208  1.4518
  762MOL0     H 5137   9.077   5.741   4.926  0.7982 -1.7602 -1.9539
  762MOL0     H 5138   8.916   6.097   5.257  0.6488  0.1837 -0.1128
  762MOL0     H 5139   8.723   6.236   5.274 -1.3770  0.6349 -0.2023
  762MOL0     H 5140   6.775   6.632   5.976 -2.7077 -0.6565 -0.9104
  762MOL0     H 5141   6.579   6.478   6.049  0.1262 -1.0550  0.2830
  762MOL0     H 5142   6.265   6.141   5.825 -0.2708  1.8175 -0.0613
  762MOL0     H 5143   6.069   6.015   5.877  1.3823  1.3362 -1.6785
  762MOL0     H 5144   6.012   5.679   6.081 -0.5178 -0.5942  0.7332
  762MOL0     H 5145   6.147   5.738   6.169  0.7689 -1.7513 -1.3977
  762MOL0     H 5146   5.838   5.738   6.230  0.3501  1.6224 -1.9949
  762MOL0     H 5147   5.962   5.822   6.337  4.8922 -0.3346  0.4292
  762MOL0     H 5148   5.959   5.519   6.257 -0.6464  0.8505 -2.2812
  762MOL0     H 5149   6.076   5.591   6.345 -0.6695 -3.0960  1.1485
  762MOL0     H 5150   5.900   5.478   6.499 -4.0154 -0.3483 -1.0003
  762MOL0     H 5151   5.775   5.596   6.442 -1.2694 -2.8857  0.6581
  762MOL0     H 5152   5.981   5.766   6.772 -3.0989  3.6381 -0.0645
  762MOL0     H 5153   6.207   5.936   6.274 -1.0184 -0.2289 -0.0846
  762MOL0     H 5154   6.534   6.061   6.240  1.1530  0.8179  2.7686
  762MOL0     H 5155   6.403   6.174   6.305 -2.8352 -1.0658 -0.1072
  762MOL0     H 5156   6.404   6.009   6.349 -0.7872 -3.0020 -1.4369
  763MOL0     O 5157   1.938   7.573   3.573  0.0839 -0.0909  0.3381
  763MOL0     C 5158   1.857   7.543   3.483 -0.0056 -0.7734 -0.3033
  763MOL0     O 5159   1.889   7.471   3.372 -0.5101  0.6336 -0.4269
  763MOL0     C 5160   2.020   7.425   3.371 -0.0947  0.6886 -0.1243
  763MOL0     C 5161   2.128   7.515   3.351 -0.5291 -0.0165  0.1074
  763MOL0     C 5162   2.255   7.466   3.319 -0.3452  0.1546  0.0869
  763MOL0     C 5163   2.282   7.323   3.321  0.7982  0.3988  0.2240
  763MOL0     O 5164   2.415   7.284   3.294 -0.3551 -0.2548 -0.5945
  763MOL0     C 5165   2.455   7.288   3.159  0.4162  0.3620  0.1287
  763MOL0     C 5166   2.404   7.161   3.093 -0.3419  0.3348 -0.7200
  763MOL0     C 5167   2.490   7.110   2.973 -0.1997 -0.6374 -0.4611
  763MOL0     C 5168   2.630   7.067   3.018 -0.3692  0.8085 -0.4008
  763MOL0     C 5169   2.720   7.009   2.911  1.0320  0.6187  0.4556
  763MOL0     C 5170   2.847   6.965   2.967 -1.5965  0.6913  0.8555
  763MOL0     C 5171   2.929   6.886   2.866  0.4085  0.4873 -0.1714
  763MOL0     C 5172   2.892   6.744   2.856 -0.6247 -0.7156  0.3832
  763MOL0     N 5173   2.974   6.654   2.933 -0.2082 -0.0372 -0.5918
  763MOL0     C 5174   3.024   6.662   3.061  0.4716 -1.8237 -0.4131
  763MOL0     C 5175   3.084   6.544   3.087  0.0895  0.9042 -0.1381
  763MOL0     C 5176   3.152   6.509   3.209  0.0300 -0.6697  0.2663
  763MOL0     C 5177   3.301   6.541   3.203 -0.6400  0.1941 -0.5973
  763MOL0     C 5178   3.365   6.544   3.351 -0.0894 -0.3750  0.1651
  763MOL0     C 5179   3.328   6.658   3.436 -0.0025 -0.6734  0.5385
  763MOL0     O 5180   3.424   6.667   3.543  1.0297  0.0620  0.9263
  763MOL0     C 5181   3.550   6.709   3.531  0.0496  0.2043  0.6256
  763MOL0     C 5182   3.653   6.635   3.591  0.3400  0.0567 -0.0810
  763MOL0     C 5183   3.794   6.659   3.583  0.1857 -0.6740  0.3314
  763MOL0     C 5184   3.901   6.574   3.650 -0.6330  0.3545 -0.0613
  763MOL0     C 5185   3.831   6.779   3.523  0.4304 -0.0317  0.0246
  763MOL0     C 5186   3.968   6.820   3.488 -0.4462 -0.6490 -0.5390
  763MOL0     O 5187   4.073   6.737   3.503 -0.7380  0.1183  0.2849
  763MOL0     C 5188   4.200   6.773   3.461 -0.1440 -0.6355 -0.4497
  763MOL0     C 5189   4.239   6.868   3.367  0.2812  0.0870 -0.0366
  763MOL0     C 5190   4.369   6.883   3.336  0.0697  0.7164  0.2580
  763MOL0     C 5191   4.471   6.808   3.403 -0.0209 -0.9806 -0.0898
  763MOL0     O 5192   4.597   6.848   3.381 -1.0852  0.6309  0.1547
  763MOL0     C 5193   4.701   6.800   3.474 -0.4361  0.2466 -0.3997
  763MOL0     C 5194   4.828   6.869   3.433 -0.1449 -0.9672  0.6446
  763MOL0     C 5195   4.937   6.845   3.529 -0.7206  0.2219  0.3790
  763MOL0     C 5196   5.077   6.894   3.465 -1.1556  0.3816  0.1411
  763MOL0     C 5197   5.195   6.849   3.558 -0.3308  0.3004 -0.2348
  763MOL0     C 5198   5.328   6.904   3.521  0.0554 -0.2305  0.3504
  763MOL0     C 5199   5.344   6.893   3.372  0.2845 -0.3999  0.0089
  763MOL0     C 5200   5.471   6.932   3.304  0.5880  0.0373  0.0121
  763MOL0    Cl 5201   5.566   7.047   3.406  0.9266 -0.3874 -0.0275
  763MOL0     C 5202   4.436   6.718   3.499  0.0353  0.4517  0.8708
  763MOL0     C 5203   4.302   6.699   3.523  0.4386 -1.1398 -0.0951
  763MOL0     O 5204   3.977   6.939   3.466 -0.4012  0.3105  0.0820
  763MOL0     C 5205   3.726   6.868   3.475  0.3980 -0.3426  0.5527
  763MOL0     C 5206   3.590   6.824   3.473 -0.1713 -0.2360  0.5870
  763MOL0     N 5207   3.059   6.461   2.979  1.0446  0.1855  0.9046
  763MOL0     N 5208   2.993   6.530   2.890  0.4406 -0.2711  0.3517
  763MOL0     C 5209   2.176   7.237   3.352 -0.5529  0.1542  0.0301
  763MOL0     C 5210   2.047   7.284   3.369 -0.1066  0.2740 -0.1945
  763MOL0     C 5211   1.724   7.615   3.476 -0.1855  0.2044  0.3176
  763MOL0     C 5212   1.727   7.758   3.497  0.6845  0.8952 -0.3590
  763MOL0     C 5213   1.614   7.832   3.487  1.4089  0.1484 -0.2399
  763MOL0     C 5214   1.496   7.774   3.459  0.6300  0.6011 -0.9059
  763MOL0     O 5215   1.373   7.837   3.441 -0.0338 -0.3386  0.4831
  763MOL0     C 5216   1.347   7.952   3.524  0.5011 -0.2890 -1.1431
  763MOL0     C 5217   1.214   7.926   3.606 -0.0329  0.5612 -0.3161
  763MOL0     C 5218   1.175   8.045   3.692 -0.7353  0.2149 -0.8814
  763MOL0     C 5219   1.054   8.002   3.777  0.1893 -0.6253 -0.4426
  763MOL0     C 5220   1.007   8.123   3.857 -0.3871  0.1723  0.5901
  763MOL0     C 5221   0.990   8.220   3.928 -0.1902  0.5192  0.6829
  763MOL0     C 5222   1.485   7.635   3.426 -0.2157  0.8729 -0.2339
  763MOL0     C 5223   1.598   7.556   3.439  0.2486 -0.7884  0.7661
  763MOL0     C 5224   1.586   7.408   3.399  0.2477 -0.4975  0.2327
  763MOL0     H 5225   2.109   7.621   3.349 -0.4388 -0.0107 -2.1490
  763MOL0     H 5226   2.339   7.532   3.301  1.0836 -2.1264 -2.1546
  763MOL0     H 5227   2.564   7.298   3.160  0.6277 -0.9965  3.2902
  763MOL0     H 5228   2.426   7.375   3.099 -1.0797  0.7340  1.3136
  763MOL0     H 5229   2.425   7.079   3.162  0.5512  0.5826 -0.6828
  763MOL0     H 5230   2.302   7.194   3.071 -0.0113  1.5280 -0.5512
  763MOL0     H 5231   2.450   7.023   2.920  2.5737 -2.8183  0.7125
  763MOL0     H 5232   2.497   7.192   2.901  0.0170  1.6772  2.0303
  763MOL0     H 5233   2.672   7.161   3.055 -0.1490 -0.1673  2.0303
  763MOL0     H 5234   2.633   7.002   3.106  0.3894  0.9462 -0.3190
  763MOL0     H 5235   2.742   7.077   2.828  2.9261  0.5573  0.8557
  763MOL0     H 5236   2.662   6.925   2.871 -0.0678  1.0887  1.0051
  763MOL0     H 5237   2.912   7.048   2.995  0.5411 -0.7472  0.4307
  763MOL0     H 5238   2.834   6.910   3.061 -0.9428  1.2037  1.2568
  763MOL0     H 5239   3.036   6.893   2.889  0.7536 -3.6586  0.2761
  763MOL0     H 5240   2.918   6.934   2.768 -1.1997 -2.2197 -1.4326
  763MOL0     H 5241   2.790   6.731   2.892 -0.3571 -0.2755  1.3283
  763MOL0     H 5242   2.887   6.723   2.749 -1.1655 -1.9799  0.6428
  763MOL0     H 5243   3.013   6.749   3.125  0.3168 -1.3482 -1.0726
  763MOL0     H 5244   3.149   6.405   3.245  2.3240 -1.2921 -1.1220
  763MOL0     H 5245   3.094   6.569   3.279 -1.6792  1.2986 -2.6424
  763MOL0     H 5246   3.360   6.476   3.138  0.0930 -3.2166  3.0625
  763MOL0     H 5247   3.315   6.639   3.157  1.5425 -0.0838 -0.6750
  763MOL0     H 5248   3.344   6.459   3.417 -3.0375  0.5032  0.5180
  763MOL0     H 5249   3.473   6.549   3.343 -0.0186 -2.0947 -0.4383
  763MOL0     H 5250   3.340   6.746   3.372  1.5793 -0.7829  0.6397
  763MOL0     H 5251   3.224   6.656   3.467 -0.9077  1.0325 -2.0398
  763MOL0     H 5252   3.607   6.547   3.636 -1.9632  0.7384 -0.9609
  763MOL0     H 5253   3.854   6.487   3.697  1.6503 -0.5625  0.6684
  763MOL0     H 5254   3.970   6.624   3.720  0.3273 -0.6029 -0.2952
  763MOL0     H 5255   3.966   6.529   3.575 -0.3890  3.8239 -2.1391
  763MOL0     H 5256   4.170   6.923   3.304  1.3869  1.4314 -0.1135
  763MOL0     H 5257   4.403   6.953   3.261 -0.4556  2.2425  1.4039
  763MOL0     H 5258   4.671   6.825   3.576 -2.4435 -0.3718 -0.8099
  763MOL0     H 5259   4.719   6.692   3.468  0.1397  0.1941  1.6264
  763MOL0     H 5260   4.860   6.822   3.340  1.5831 -0.5454  1.0045
  763MOL0     H 5261   4.795   6.973   3.420 -1.9831 -1.6572 -0.5723
  763MOL0     H 5262   4.946   6.737   3.549  2.9765  0.5864  1.4526
  763MOL0     H 5263   4.922   6.885   3.630  1.4207  2.6086 -0.1593
  763MOL0     H 5264   5.085   7.004   3.465  1.3319  0.2639  1.1297
  763MOL0     H 5265   5.096   6.860   3.363 -1.4830 -1.8436  0.7829
  763MOL0     H 5266   5.159   6.868   3.660 -2.1363  1.7561 -1.0855
  763MOL0     H 5267   5.211   6.741   3.555  1.9419  0.5961 -0.4165
  763MOL0     H 5268   5.408   6.846   3.567 -0.7920 -0.8747  1.0529
  763MOL0     H 5269   5.337   7.011   3.544 -2.5090  1.1744 -3.9918
  763MOL0     H 5270   5.283   6.973   3.328  1.3497 -1.1853 -3.1766
  763MOL0     H 5271   5.310   6.799   3.328 -0.8215  0.1523 -0.3335
  763MOL0     H 5272   5.447   6.963   3.202 -0.0013 -2.8272 -0.8045
  763MOL0     H 5273   5.538   6.846   3.295  1.5550  0.8802 -1.2486
  763MOL0     H 5274   4.508   6.650   3.545  1.9600  0.1881 -2.2138
  763MOL0     H 5275   4.276   6.626   3.599  1.2134  0.4535  1.8154
  763MOL0     H 5276   3.747   6.969   3.441  2.0259  0.5169  3.6613
  763MOL0     H 5277   3.518   6.894   3.433 -1.5501  0.5028  4.0071
  763MOL0     H 5278   2.191   7.130   3.345 -0.8356 -0.0424  2.0109
  763MOL0     H 5279   1.966   7.217   3.394 -0.4731  0.8810  0.2768
  763MOL0     H 5280   1.819   7.808   3.524  0.9104 -0.5175  1.6804
  763MOL0     H 5281   1.620   7.937   3.515 -1.0504  0.7723 -1.7259
  763MOL0     H 5282   1.425   7.978   3.596 -1.4384  0.9055  0.6729
  763MOL0     H 5283   1.318   8.037   3.462 -2.3951 -1.6060 -1.7664
  763MOL0     H 5284   1.229   7.850   3.682 -2.6296  1.3633  1.1198
  763MOL0     H 5285   1.134   7.896   3.537 -0.4552  0.6788  0.1194
  763MOL0     H 5286   1.257   8.060   3.763 -1.5648 -1.3425  0.4460
  763MOL0     H 5287   1.168   8.135   3.630 -1.6983 -0.4059 -1.7034
  763MOL0     H 5288   1.071   7.922   3.850  1.5012  1.1981  1.3706
  763MOL0     H 5289   0.974   7.975   3.708 -1.2676  0.4006  0.7678
  763MOL0     H 5290   0.966   8.304   3.990 -1.3444  0.9608 -0.3080
  763MOL0     H 5291   1.388   7.592   3.403  0.9498 -2.6083  0.7270
  763MOL0     H 5292   1.637   7.348   3.475  0.2688  0.3854  0.9210
  763MOL0     H 5293   1.479   7.384   3.403  0.0879  0.0013 -0.7608
  763MOL0     H 5294   1.628   7.380   3.302 -0.2548 -1.7703  0.3582
  764MOL0     O 5295   0.502   6.363   0.529 -0.1780 -0.4755  0.1131
  764MOL0     C 5296   0.534   6.366   0.649 -0.4349  0.2082 -0.0539
  764MOL0     O 5297   0.662   6.365   0.704 -0.1275 -0.0622 -0.0041
  764MOL0     C 5298   0.767   6.379   0.622 -0.1865  0.2645  0.1298
  764MOL0     C 5299   0.867   6.477   0.642  0.3021 -0.2982  0.5658
  764MOL0     C 5300   0.983   6.477   0.564  0.6519 -0.4687 -0.0328
  764MOL0     C 5301   1.003   6.388   0.462  1.0114 -0.2593 -0.5323
  764MOL0     O 5302   1.111   6.400   0.376  0.7288  0.6743  0.2450
  764MOL0     C 5303   1.082   6.424   0.240 -0.5000  0.7153  0.1778
  764MOL0     C 5304   1.218   6.446   0.173 -0.0307 -0.6766  0.9818
  764MOL0     C 5305   1.311   6.325   0.178 -0.5542  0.4919 -0.1103
  764MOL0     C 5306   1.435   6.348   0.096 -0.6876  0.3341 -0.0203
  764MOL0     C 5307   1.536   6.237   0.104  1.0594 -0.1065  0.3846
  764MOL0     C 5308   1.628   6.243   0.220 -0.5839  0.3759 -0.1259
  764MOL0     C 5309   1.729   6.134   0.248 -0.2160  0.1348  0.1274
  764MOL0     C 5310   1.824   6.144   0.372 -0.4980  0.4091  0.6071
  764MOL0     N 5311   1.951   6.208   0.329 -0.2685  0.6474  0.0211
  764MOL0     C 5312   1.990   6.329   0.360 -0.2228 -0.1303  0.0537
  764MOL0     C 5313   2.111   6.348   0.303  0.0475 -0.2797  0.2558
  764MOL0     C 5314   2.173   6.486   0.304  0.7801 -0.7507 -0.1909
  764MOL0     C 5315   2.076   6.591   0.236  0.0511  0.4980 -0.7972
  764MOL0     C 5316   2.157   6.719   0.189  0.2438  0.8824  0.2770
  764MOL0     C 5317   2.253   6.697   0.076 -0.1066 -0.1722 -0.6298
  764MOL0     O 5318   2.207   6.589  -0.012  0.0088  0.3836 -0.5612
  764MOL0     C 5319   2.308   6.517  -0.071  0.3187 -0.3013 -0.8449
  764MOL0     C 5320   2.333   6.386  -0.041 -0.4962 -0.1078 -0.1960
  764MOL0     C 5321   2.438   6.317  -0.107  0.7342 -0.1129 -0.3937
  764MOL0     C 5322   2.464   6.175  -0.066  1.6138  0.5920  0.1515
  764MOL0     C 5323   2.513   6.385  -0.201  0.7119  0.1399 -0.6340
  764MOL0     C 5324   2.640   6.321  -0.262  0.1293 -0.7554  0.3989
  764MOL0     O 5325   2.756   6.306  -0.183  0.0495 -0.3396  0.2112
  764MOL0     C 5326   2.859   6.235  -0.242  0.8831  0.3067  0.0441
  764MOL0     C 5327   2.947   6.305  -0.317 -0.0718  0.0882  0.0094
  764MOL0     C 5328   3.069   6.246  -0.362  1.2673  0.0029 -0.4215
  764MOL0     C 5329   3.101   6.115  -0.340 -0.6400 -0.3305  0.5816
  764MOL0     O 5330   3.221   6.077  -0.397 -0.0742  0.2257 -0.0389
  764MOL0     C 5331   3.222   5.953  -0.454  0.1130  1.8131  0.1978
  764MOL0     C 5332   3.352   5.952  -0.537 -0.1890  0.7934 -0.3051
  764MOL0     C 5333   3.454   5.868  -0.467 -0.4249  0.4275 -0.4704
  764MOL0     C 5334   3.479   5.901  -0.315 -0.4708  0.7906  0.1192
  764MOL0     C 5335   3.612   5.827  -0.277  0.1316 -0.4295 -0.4217
  764MOL0     C 5336   3.669   5.852  -0.139 -0.9594  0.4476 -0.3587
  764MOL0     C 5337   3.579   5.808  -0.020 -0.6736 -0.0941  0.6296
  764MOL0     C 5338   3.640   5.829   0.119 -0.4826 -0.0270 -0.4347
  764MOL0    Cl 5339   3.809   5.761   0.152 -0.1390 -0.1034 -0.2197
  764MOL0     C 5340   3.011   6.036  -0.263  0.5830  0.0522 -0.7191
  764MOL0     C 5341   2.894   6.094  -0.216 -0.0570  0.2499  0.1260
  764MOL0     O 5342   2.632   6.279  -0.376  0.1650  0.0272  0.8320
  764MOL0     C 5343   2.466   6.503  -0.253  0.0758  0.3443 -0.1648
  764MOL0     C 5344   2.370   6.576  -0.185 -0.3695  0.5502 -0.2505
  764MOL0     N 5345   2.143   6.233   0.225 -0.0048 -0.1439 -0.8749
  764MOL0     N 5346   2.046   6.148   0.253 -0.0994  0.1257 -0.0400
  764MOL0     C 5347   0.907   6.285   0.442 -0.0720 -0.0738  0.1310
  764MOL0     C 5348   0.794   6.285   0.524 -0.1398  0.1821  0.2816
  764MOL0     C 5349   0.421   6.329   0.737  0.2767 -0.1384 -0.0603
  764MOL0     C 5350   0.449   6.219   0.826 -0.0707  0.0432  0.2736
  764MOL0     C 5351   0.353   6.190   0.924  0.1113  0.3056 -0.0052
  764MOL0     C 5352   0.232   6.261   0.935  0.5033  0.3140 -0.2518
  764MOL0     O 5353   0.125   6.232   1.024  0.0985  0.5780  0.9236
  764MOL0     C 5354   0.118   6.131   1.126  0.2781 -0.1669 -0.1187
  764MOL0     C 5355   0.069   5.998   1.069 -0.4593  0.1911 -0.7754
  764MOL0     C 5356   0.126   5.870   1.128  0.0483 -0.4422  0.2674
  764MOL0     C 5357   0.119   5.861   1.285  0.1797 -0.2393  0.7369
  764MOL0     C 5358  -0.015   5.881   1.339 -0.7897 -0.3897  0.1303
  764MOL0     C 5359  -0.119   5.900   1.396  0.4997 -0.9716  0.4488
  764MOL0     C 5360   0.205   6.359   0.836  0.3804 -0.4658 -0.9748
  764MOL0     C 5361   0.302   6.403   0.739  0.7764  0.3615 -0.1258
  764MOL0     C 5362   0.267   6.515   0.642  0.7428  0.5700  1.0508
  764MOL0     H 5363   0.877   6.558   0.712  3.3994  2.5781 -2.8237
  764MOL0     H 5364   1.045   6.566   0.568 -1.4540  1.0581  0.1925
  764MOL0     H 5365   1.021   6.514   0.227 -1.1496  0.1350 -0.8929
  764MOL0     H 5366   1.035   6.344   0.182  0.7462  0.3767 -0.4077
  764MOL0     H 5367   1.194   6.473   0.069  0.5135  0.6743  1.1842
  764MOL0     H 5368   1.269   6.535   0.209 -1.2537  0.2920  0.4043
  764MOL0     H 5369   1.335   6.295   0.281  0.2373 -1.1372 -0.7389
  764MOL0     H 5370   1.250   6.245   0.135 -3.0068  1.0729  2.0549
  764MOL0     H 5371   1.402   6.336  -0.008 -0.5177 -3.1261  0.2046
  764MOL0     H 5372   1.487   6.439   0.127  2.9601 -1.1866 -1.1074
  764MOL0     H 5373   1.592   6.230   0.011 -0.2916 -2.1159 -0.3397
  764MOL0     H 5374   1.486   6.140   0.109 -0.6915  0.7923  1.1449
  764MOL0     H 5375   1.690   6.333   0.219  0.8219 -0.5066  1.7354
  764MOL0     H 5376   1.564   6.249   0.308 -0.1619 -1.1624  0.3128
  764MOL0     H 5377   1.787   6.140   0.155 -0.0747  0.0604  0.2107
  764MOL0     H 5378   1.673   6.041   0.254  0.6295 -0.3729  0.2550
  764MOL0     H 5379   1.763   6.189   0.451  1.0365  0.2553  1.9330
  764MOL0     H 5380   1.844   6.040   0.400 -1.5404  0.1650  0.4693
  764MOL0     H 5381   1.925   6.404   0.404 -1.0130 -0.0280 -1.2375
  764MOL0     H 5382   2.259   6.471   0.239  0.1297 -1.2455 -0.9647
  764MOL0     H 5383   2.200   6.525   0.403  1.1884  2.4887 -1.4701
  764MOL0     H 5384   2.031   6.537   0.153  0.2348  1.4714 -1.5485
  764MOL0     H 5385   1.989   6.618   0.296  2.2466  3.0564  1.5482
  764MOL0     H 5386   2.090   6.795   0.148 -1.8392 -0.2702  1.3892
  764MOL0     H 5387   2.214   6.761   0.273  0.0525  2.1021 -0.1750
  764MOL0     H 5388   2.257   6.792   0.022  0.8994 -0.2676 -0.7531
  764MOL0     H 5389   2.358   6.683   0.103  0.3702  2.4845 -0.8125
  764MOL0     H 5390   2.277   6.348   0.043 -2.0037  2.3466  0.0139
  764MOL0     H 5391   2.573   6.167  -0.064  1.7612  0.8072 -2.7395
  764MOL0     H 5392   2.418   6.106  -0.138  0.3237  2.9628 -1.4402
  764MOL0     H 5393   2.425   6.153   0.034  1.2917  2.4994  0.4839
  764MOL0     H 5394   2.926   6.411  -0.329  2.4091  0.6470  0.0839
  764MOL0     H 5395   3.140   6.301  -0.424  1.0296  1.1298  0.2697
  764MOL0     H 5396   3.208   5.873  -0.380  2.6441  2.0227  1.0107
  764MOL0     H 5397   3.135   5.938  -0.520  0.9496  0.1620 -0.6160
  764MOL0     H 5398   3.332   5.910  -0.637  0.3222  0.6520 -0.3501
  764MOL0     H 5399   3.391   6.052  -0.556  1.9128  0.3667  1.3506
  764MOL0     H 5400   3.547   5.877  -0.523 -0.8432  0.1628 -1.2312
  764MOL0     H 5401   3.429   5.761  -0.466  1.9382 -0.1628 -0.4727
  764MOL0     H 5402   3.390   5.875  -0.257  0.7043  0.6989  1.9859
  764MOL0     H 5403   3.500   6.006  -0.290  0.3526  0.9490 -1.1356
  764MOL0     H 5404   3.608   5.719  -0.295 -1.7817 -0.0527 -2.8655
  764MOL0     H 5405   3.691   5.853  -0.348  0.6730 -2.1437 -0.4820
  764MOL0     H 5406   3.690   5.958  -0.121 -0.9782  0.6332 -1.3476
  764MOL0     H 5407   3.759   5.793  -0.122 -0.6982  1.2278  1.1224
  764MOL0     H 5408   3.532   5.710  -0.026 -2.2701  0.4759  2.5704
  764MOL0     H 5409   3.495   5.878  -0.025  1.3158  2.6006  2.2262
  764MOL0     H 5410   3.573   5.781   0.191 -1.6406  0.7262 -0.9778
  764MOL0     H 5411   3.628   5.932   0.152 -0.8321 -1.0374  2.9637
  764MOL0     H 5412   3.041   5.934  -0.241 -1.8690 -0.7654 -0.8642
  764MOL0     H 5413   2.838   6.050  -0.135 -1.1366  1.7739  0.2383
  764MOL0     H 5414   2.507   6.535  -0.348  2.6156 -0.0932  0.7017
  764MOL0     H 5415   2.333   6.670  -0.226 -2.7390 -0.5740 -0.8651
  764MOL0     H 5416   0.916   6.202   0.373 -2.1107 -1.4634  1.4239
  764MOL0     H 5417   0.732   6.197   0.509 -1.4420  0.7633  1.9774
  764MOL0     H 5418   0.546   6.171   0.824  0.3886  0.9540  0.4038
  764MOL0     H 5419   0.378   6.131   1.012  2.9295  0.1241 -0.8283
  764MOL0     H 5420   0.218   6.118   1.168 -1.4471 -0.8391  4.2007
  764MOL0     H 5421   0.048   6.164   1.203 -2.2693  1.1494 -2.7854
  764MOL0     H 5422   0.089   5.989   0.962 -2.3527 -1.1868 -1.0769
  764MOL0     H 5423  -0.040   6.008   1.077 -0.0515  5.1650  3.0466
  764MOL0     H 5424   0.061   5.794   1.083 -1.5276  1.2698 -0.4521
  764MOL0     H 5425   0.230   5.857   1.097  1.2680  2.3260  2.7246
  764MOL0     H 5426   0.178   5.948   1.316  0.3351 -0.1472  0.1984
  764MOL0     H 5427   0.173   5.773   1.322 -0.6971 -0.6213  1.1377
  764MOL0     H 5428  -0.198   5.924   1.465 -0.0723  1.9310 -1.0765
  764MOL0     H 5429   0.114   6.417   0.843  1.0643  0.5827 -0.5400
  764MOL0     H 5430   0.297   6.506   0.538 -0.5742  3.9670  0.2453
  764MOL0     H 5431   0.158   6.525   0.649  0.2558 -0.9977 -2.3709
  764MOL0     H 5432   0.312   6.611   0.668  1.3706  1.5718 -3.1306
  765MOL0     O 5433   3.669   5.848   2.586  0.1574 -0.3728 -0.5880
  765MOL0     C 5434   3.695   5.820   2.703  0.3428  0.0683 -0.4023
  765MOL0     O 5435   3.743   5.911   2.795  0.8221 -0.2653  0.1498
  765MOL0     C 5436   3.759   6.042   2.756  1.3183  0.4348 -0.5895
  765MOL0     C 5437   3.648   6.132   2.740 -0.4144  1.3357 -1.2279
  765MOL0     C 5438   3.656   6.254   2.678 -0.9673  0.4693 -0.1719
  765MOL0     C 5439   3.770   6.295   2.624  0.6368  0.6476 -0.4314
  765MOL0     O 5440   3.762   6.420   2.574  1.3762  0.3213  0.0247
  765MOL0     C 5441   3.871   6.508   2.599  0.3443  0.1491 -1.4655
  765MOL0     C 5442   3.842   6.656   2.565 -0.4036 -0.3503 -0.4001
  765MOL0     C 5443   3.832   6.697   2.422  0.7961  0.3691 -0.1379
  765MOL0     C 5444   3.793   6.840   2.403 -0.4377  0.0345 -0.1324
  765MOL0     C 5445   3.773   6.870   2.254  0.3637  0.7765  0.0383
  765MOL0     C 5446   3.696   7.002   2.226 -0.4202 -0.7930 -1.2162
  765MOL0     C 5447   3.771   7.099   2.136  0.2740  0.2464  0.1234
  765MOL0     C 5448   3.903   7.143   2.204 -0.4038 -0.3999  0.1689
  765MOL0     N 5449   4.011   7.162   2.104 -0.1945  0.4450  0.2312
  765MOL0     C 5450   4.077   7.057   2.034  0.3074 -0.3728  0.3773
  765MOL0     C 5451   4.142   7.128   1.932  0.1544  0.6122  0.1587
  765MOL0     C 5452   4.219   7.075   1.814 -1.4417  1.0240  0.4226
  765MOL0     C 5453   4.298   6.947   1.843  0.2412  1.0569  0.9014
  765MOL0     C 5454   4.370   6.887   1.727 -0.5827 -0.7621 -0.6608
  765MOL0     C 5455   4.459   6.773   1.778 -0.3161  0.4827 -0.0624
  765MOL0     O 5456   4.534   6.690   1.684  0.5756 -0.3456 -0.0557
  765MOL0     C 5457   4.649   6.730   1.630  0.0405 -1.3402 -0.8072
  765MOL0     C 5458   4.701   6.640   1.542 -0.5369  0.2589  0.0128
  765MOL0     C 5459   4.807   6.667   1.454  0.0148  0.3774  0.5186
  765MOL0     C 5460   4.839   6.574   1.343 -0.5225  0.4656 -0.4634
  765MOL0     C 5461   4.854   6.802   1.462  0.1569  0.4746 -0.9709
  765MOL0     C 5462   4.964   6.848   1.385 -0.0691 -0.5445 -0.3417
  765MOL0     O 5463   5.068   6.767   1.387  0.7181  0.2433  0.1398
  765MOL0     C 5464   5.183   6.806   1.328 -1.5095 -0.3345 -1.6409
  765MOL0     C 5465   5.231   6.729   1.222 -0.3239  0.4226  0.1836
  765MOL0     C 5466   5.351   6.755   1.156 -0.1082  0.2567 -0.2498
  765MOL0     C 5467   5.426   6.863   1.195 -0.2784 -0.3144 -0.7100
  765MOL0     O 5468   5.550   6.885   1.132 -0.0222  0.4218  0.9422
  765MOL0     C 5469   5.622   6.773   1.070  0.1030  0.2921  0.8021
  765MOL0     C 5470   5.768   6.811   1.078 -0.0593 -0.3332 -0.5310
  765MOL0     C 5471   5.865   6.706   1.038 -0.1512 -0.3540  0.0806
  765MOL0     C 5472   5.841   6.564   1.090 -0.2336  0.3218 -0.2966
  765MOL0     C 5473   5.955   6.471   1.058  0.0414  0.4389 -1.0549
  765MOL0     C 5474   5.898   6.328   1.076  0.3711  0.0761  0.0360
  765MOL0     C 5475   6.002   6.212   1.063  0.4628 -0.1877 -0.2210
  765MOL0     C 5476   5.978   6.147   0.923 -1.0935 -1.0995  0.0105
  765MOL0    Cl 5477   6.039   6.248   0.797 -0.4426  0.0676  0.5079
  765MOL0     C 5478   5.388   6.948   1.303  0.5683 -0.7606 -0.5555
  765MOL0     C 5479   5.257   6.920   1.364  0.4893  0.0757 -0.6588
  765MOL0     O 5480   4.964   6.965   1.354  0.0701 -0.4627  0.2343
  765MOL0     C 5481   4.809   6.892   1.565 -0.4138 -0.1895  0.4168
  765MOL0     C 5482   4.703   6.852   1.650 -0.4039 -0.3627  0.3594
  765MOL0     N 5483   4.104   7.261   1.938 -0.3650  0.3109 -0.1335
  765MOL0     N 5484   4.037   7.285   2.043  0.0701  0.3138 -0.5380
  765MOL0     C 5485   3.884   6.219   2.650 -0.7875  0.4044  0.5809
  765MOL0     C 5486   3.881   6.099   2.712  0.1458 -0.4157 -0.1818
  765MOL0     C 5487   3.671   5.675   2.758  0.2729 -0.6843  0.1592
  765MOL0     C 5488   3.719   5.657   2.891 -0.3116  0.5443  0.4086
  765MOL0     C 5489   3.721   5.532   2.949 -0.3030  0.6425 -0.2702
  765MOL0     C 5490   3.663   5.419   2.886 -1.2429  0.4561  0.3302
  765MOL0     O 5491   3.671   5.300   2.951  0.0141 -0.0748  1.2857
  765MOL0     C 5492   3.601   5.188   2.892 -1.0680  0.9604  0.0961
  765MOL0     C 5493   3.601   5.047   2.960 -0.2547 -0.3442 -0.3752
  765MOL0     C 5494   3.736   5.007   3.007  0.6529  0.2555  0.7245
  765MOL0     C 5495   3.712   4.874   3.082 -0.1858 -0.1442 -0.5871
  765MOL0     C 5496   3.668   4.755   3.006 -0.0693  0.4997 -0.7482
  765MOL0     C 5497   3.626   4.666   2.941 -0.3340 -0.5331  0.0181
  765MOL0     C 5498   3.622   5.440   2.752  0.2519 -0.4181 -0.6830
  765MOL0     C 5499   3.618   5.565   2.689  0.3350 -0.1282 -0.2766
  765MOL0     C 5500   3.560   5.577   2.548 -0.1726  0.0112 -0.2367
  765MOL0     H 5501   3.557   6.116   2.798  0.1119 -1.7191 -1.0648
  765MOL0     H 5502   3.567   6.316   2.667 -0.5191  1.2511  0.4871
  765MOL0     H 5503   3.963   6.472   2.550  1.0392 -1.0593  0.6165
  765MOL0     H 5504   3.892   6.504   2.706 -2.1620  2.4814 -0.7752
  765MOL0     H 5505   3.749   6.683   2.616  0.8053  0.6403  1.3915
  765MOL0     H 5506   3.917   6.715   2.618 -0.0009 -1.3156  0.1355
  765MOL0     H 5507   3.931   6.678   2.380  2.1591  0.4894  2.7362
  765MOL0     H 5508   3.755   6.643   2.366  0.3743  1.8493 -1.0536
  765MOL0     H 5509   3.701   6.845   2.462  0.7953 -0.3553  1.9124
  765MOL0     H 5510   3.866   6.907   2.449 -0.9441 -1.6596  3.4866
  765MOL0     H 5511   3.707   6.790   2.218  2.3211 -0.1761 -1.6709
  765MOL0     H 5512   3.862   6.870   2.190 -0.7808  3.2883 -1.7194
  765MOL0     H 5513   3.596   6.992   2.184 -0.6676  1.3830 -1.2359
  765MOL0     H 5514   3.687   7.054   2.322  2.8961 -0.9853 -0.6826
  765MOL0     H 5515   3.710   7.189   2.130  0.8575  0.6157 -0.3683
  765MOL0     H 5516   3.795   7.050   2.041  1.9801 -2.6895  1.9072
  765MOL0     H 5517   3.887   7.236   2.258  0.3732  0.9221 -1.7625
  765MOL0     H 5518   3.934   7.068   2.277 -1.3281  1.4933  2.6598
  765MOL0     H 5519   4.083   6.951   2.053  0.3659 -0.1754  1.5145
  765MOL0     H 5520   4.287   7.149   1.771  0.5642 -2.5406 -3.2059
  765MOL0     H 5521   4.152   7.051   1.731  1.1243 -2.0007 -0.9854
  765MOL0     H 5522   4.360   6.955   1.934 -1.6559 -0.0483  2.3679
  765MOL0     H 5523   4.230   6.865   1.865  1.3795  0.1650  1.1806
  765MOL0     H 5524   4.304   6.849   1.648  0.4841 -1.2329 -1.3461
  765MOL0     H 5525   4.431   6.959   1.671  0.7222 -2.0433 -0.9680
  765MOL0     H 5526   4.535   6.821   1.841 -0.8903  1.0001  0.2473
  765MOL0     H 5527   4.385   6.708   1.825  2.1011 -2.2951  0.2090
  765MOL0     H 5528   4.645   6.548   1.537 -1.2220  0.7303 -2.8247
  765MOL0     H 5529   4.948   6.565   1.335 -0.3854  0.4053  1.1512
  765MOL0     H 5530   4.797   6.619   1.252 -3.9045 -0.3806  0.5452
  765MOL0     H 5531   4.792   6.476   1.350 -1.4026  0.9582  0.7670
  765MOL0     H 5532   5.170   6.642   1.197  1.2890 -0.2912 -1.4978
  765MOL0     H 5533   5.378   6.693   1.072  1.5868  0.1596  0.3343
  765MOL0     H 5534   5.615   6.685   1.135  2.1743 -0.9922 -0.6011
  765MOL0     H 5535   5.595   6.746   0.968  2.5219  0.9796 -0.0860
  765MOL0     H 5536   5.779   6.904   1.021 -0.8041 -0.5383 -1.0302
  765MOL0     H 5537   5.792   6.842   1.180 -0.3381  0.8245 -0.7932
  765MOL0     H 5538   5.969   6.736   1.053 -0.9812  3.0591 -0.2229
  765MOL0     H 5539   5.856   6.693   0.930 -0.6264 -0.7679  0.1635
  765MOL0     H 5540   5.751   6.528   1.039  0.0285  1.1584 -1.3685
  765MOL0     H 5541   5.828   6.586   1.197  1.5584  2.0556 -0.3717
  765MOL0     H 5542   5.984   6.489   0.954 -1.3306  0.6832 -1.4145
  765MOL0     H 5543   6.043   6.493   1.118 -1.1756  3.5634 -0.2075
  765MOL0     H 5544   5.821   6.318   0.999  0.2967  0.7007  0.0199
  765MOL0     H 5545   5.847   6.314   1.171  0.0080 -0.2571 -0.2044
  765MOL0     H 5546   5.982   6.143   1.146  2.0257  0.7473  0.9864
  765MOL0     H 5547   6.102   6.247   1.088  0.0106  1.7780 -1.0158
  765MOL0     H 5548   5.873   6.130   0.896 -1.4122  1.3680 -0.5317
  765MOL0     H 5549   6.026   6.049   0.922  1.2656 -0.0057 -0.5532
  765MOL0     H 5550   5.451   7.030   1.336  1.2210 -0.7169 -1.8467
  765MOL0     H 5551   5.219   6.993   1.434 -2.4252  0.3767 -2.3709
  765MOL0     H 5552   4.856   6.989   1.584 -0.2529 -0.1790 -0.0258
  765MOL0     H 5553   4.659   6.914   1.727 -3.4306 -1.4486 -0.3797
  765MOL0     H 5554   3.976   6.270   2.623 -1.9496  0.4214 -4.3980
  765MOL0     H 5555   3.974   6.047   2.736 -1.8674 -4.4687 -0.3083
  765MOL0     H 5556   3.766   5.743   2.937  3.1480 -0.4758 -0.9134
  765MOL0     H 5557   3.768   5.521   3.047  3.2389  0.5933 -1.7939
  765MOL0     H 5558   3.500   5.229   2.891 -1.0521  0.9986 -0.0661
  765MOL0     H 5559   3.642   5.165   2.793 -0.6397 -1.9617  0.8777
  765MOL0     H 5560   3.560   4.975   2.889  3.3447  0.4422 -3.5774
  765MOL0     H 5561   3.533   5.046   3.045  1.2828 -0.4704  0.9023
  765MOL0     H 5562   3.806   4.994   2.924  1.3141  1.9918  0.9662
  765MOL0     H 5563   3.781   5.082   3.073 -1.4633  2.2192  0.0987
  765MOL0     H 5564   3.646   4.888   3.168 -2.9042  0.7892 -2.6634
  765MOL0     H 5565   3.809   4.853   3.127 -1.5456 -2.6477  1.4459
  765MOL0     H 5566   3.604   4.573   2.893 -2.0999 -0.6985  1.0622
  765MOL0     H 5567   3.576   5.361   2.692 -0.2432  0.8024 -1.9821
  765MOL0     H 5568   3.631   5.625   2.480  0.5882  1.0697  1.2591
  765MOL0     H 5569   3.540   5.476   2.511  0.1184  0.3726 -1.4476
  765MOL0     H 5570   3.472   5.640   2.537  0.4200  1.3195  1.9863
  766MOL0     O 5571  10.056   1.599  10.778  0.3928 -0.4233 -0.8196
  766MOL0     C 5572   9.996   1.592  10.886  0.5289  0.4712 -0.0350
  766MOL0     O 5573   9.859   1.600  10.907 -0.7272  0.0151  0.5122
  766MOL0     C 5574   9.780   1.646  10.807  0.8634 -0.6978 -0.5801
  766MOL0     C 5575   9.782   1.786  10.793 -0.5899  0.5278  0.8824
  766MOL0     C 5576   9.701   1.846  10.698 -0.3122 -0.4188  0.4210
  766MOL0     C 5577   9.613   1.766  10.619 -0.4593 -0.5795 -0.2974
  766MOL0     O 5578   9.538   1.814  10.508  1.0148 -0.5293  0.0309
  766MOL0     C 5579   9.504   1.960  10.512  1.1376  0.7021  0.7077
  766MOL0     C 5580   9.470   1.992  10.367 -0.4500  0.3015 -0.1498
  766MOL0     C 5581   9.417   2.136  10.363  0.2533  0.1989  0.1038
  766MOL0     C 5582   9.306   2.141  10.251 -0.8450 -0.2147  0.3938
  766MOL0     C 5583   9.275   2.297  10.226  0.0096  0.1104  0.3708
  766MOL0     C 5584   9.186   2.365  10.328  0.2196  0.2235  0.7457
  766MOL0     C 5585   9.195   2.520  10.317 -0.3489 -0.1150 -0.2697
  766MOL0     C 5586   9.126   2.574  10.432 -0.2310 -0.6203 -0.0393
  766MOL0     N 5587   9.092   2.714  10.401  0.5921 -0.1504 -0.1839
  766MOL0     C 5588   9.128   2.820  10.478 -0.2333 -0.7204 -0.1544
  766MOL0     C 5589   9.048   2.922  10.436  0.8727 -0.1165  0.5203
  766MOL0     C 5590   9.040   3.066  10.473  0.2106  0.9712 -0.0733
  766MOL0     C 5591   9.175   3.136  10.505 -0.7342  0.0422  0.4686
  766MOL0     C 5592   9.151   3.272  10.572 -0.2240  0.2392  0.3149
  766MOL0     C 5593   9.141   3.392  10.480  0.3387  0.2906 -0.3480
  766MOL0     O 5594   9.096   3.506  10.551 -0.2454  0.2379 -0.3154
  766MOL0     C 5595   9.187   3.599  10.605  0.7849  0.1843  1.3182
  766MOL0     C 5596   9.139   3.722  10.646 -0.4135  0.1194  1.0330
  766MOL0     C 5597   9.228   3.821  10.697  0.3582 -0.3314  0.4944
  766MOL0     C 5598   9.159   3.948  10.729 -0.9415  0.3739 -0.9317
  766MOL0     C 5599   9.366   3.792  10.700  0.7075  1.0740 -0.7549
  766MOL0     C 5600   9.467   3.896  10.724  0.1362  0.9840  0.2586
  766MOL0     O 5601   9.598   3.861  10.701 -0.5490 -0.3069  0.2889
  766MOL0     C 5602   9.700   3.946  10.727 -0.7084 -0.7761 -0.7656
  766MOL0     C 5603   9.758   3.954  10.861  0.3312  0.9940  0.6038
  766MOL0     C 5604   9.853   4.053  10.897 -0.4263  0.1597  0.0145
  766MOL0     C 5605   9.895   4.148  10.802 -0.3115  1.3632 -0.6693
  766MOL0     O 5606   9.970   4.255  10.824  0.1289 -0.3968 -0.6504
  766MOL0     C 5607  10.063   4.249  10.933 -0.0130 -0.3215 -0.5107
  766MOL0     C 5608  10.160   4.374  10.922 -0.4536  0.3683  0.3544
  766MOL0     C 5609  10.251   4.361  10.799  0.8786  0.7077 -0.0247
  766MOL0     C 5610  10.378   4.443  10.803 -0.4758  0.2010  0.9166
  766MOL0     C 5611  10.444   4.448  10.662 -0.0101  0.3319 -0.4476
  766MOL0     C 5612  10.575   4.539  10.677 -0.3909 -0.5174  0.5081
  766MOL0     C 5613  10.678   4.511  10.577 -0.1001 -0.3665  0.2477
  766MOL0     C 5614  10.801   4.455  10.635  0.1366 -0.2207  0.4683
  766MOL0    Cl 5615  10.909   4.420  10.497 -0.1626 -0.1899 -0.1560
  766MOL0     C 5616   9.852   4.128  10.672  0.1057 -0.5854  0.3244
  766MOL0     C 5617   9.760   4.032  10.631  0.1862  0.2543 -0.6981
  766MOL0     O 5618   9.438   4.002  10.780  0.1736 -0.2756  0.2779
  766MOL0     C 5619   9.415   3.667  10.663 -0.2686 -0.6834  0.3453
  766MOL0     C 5620   9.325   3.570  10.609  0.0530  1.5473  0.7090
  766MOL0     N 5621   8.963   2.871  10.338  0.9331 -0.0162 -0.3920
  766MOL0     N 5622   8.989   2.746  10.317  0.6424  0.3837 -0.2886
  766MOL0     C 5623   9.598   1.632  10.648  0.1312 -0.0999  0.8047
  766MOL0     C 5624   9.684   1.573  10.740 -0.5073  0.1308 -0.4008
  766MOL0     C 5625  10.075   1.579  11.009 -0.8097 -0.1799  0.0086
  766MOL0     C 5626  10.012   1.537  11.128  0.2999  0.2926 -0.2616
  766MOL0     C 5627  10.098   1.489  11.232 -0.2723 -0.2390 -0.9295
  766MOL0     C 5628  10.238   1.476  11.219  0.6007  0.1886 -1.1435
  766MOL0     O 5629  10.314   1.416  11.321 -0.2333 -0.2292  0.0583
  766MOL0     C 5630  10.422   1.332  11.281  0.1011  0.0770 -0.1368
  766MOL0     C 5631  10.553   1.368  11.351  0.6812  0.2831 -1.0242
  766MOL0     C 5632  10.547   1.408  11.506 -0.1871  0.8953  0.8657
  766MOL0     C 5633  10.515   1.562  11.535  0.5164  0.0904 -0.1941
  766MOL0     C 5634  10.499   1.575  11.679  0.1857 -0.7778  0.3230
  766MOL0     C 5635  10.480   1.570  11.798 -0.3593  0.0894 -0.0764
  766MOL0     C 5636  10.297   1.526  11.108 -0.0940  0.4465 -0.2349
  766MOL0     C 5637  10.220   1.581  11.001 -0.5834 -1.0264  0.1318
  766MOL0     C 5638  10.306   1.619  10.882  0.1229 -0.5370  0.0209
  766MOL0     H 5639   9.853   1.847  10.849 -0.2452  1.1834 -0.2355
  766MOL0     H 5640   9.712   1.952  10.681  1.2888 -0.6444 -0.0952
  766MOL0     H 5641   9.593   2.019  10.538  1.0427  1.2422 -0.1295
  766MOL0     H 5642   9.427   1.987  10.585 -0.8959  0.7315 -1.3387
  766MOL0     H 5643   9.561   1.973  10.309 -0.1272 -0.7124  0.6553
  766MOL0     H 5644   9.399   1.917  10.332  3.0960 -3.1635 -0.6792
  766MOL0     H 5645   9.364   2.164  10.454  1.1709  0.1718  0.6553
  766MOL0     H 5646   9.491   2.217  10.356 -2.5019  2.7333 -2.7399
  766MOL0     H 5647   9.338   2.101  10.155  0.5055  1.7950 -0.0667
  766MOL0     H 5648   9.211   2.091  10.273 -0.9622 -0.3552 -0.4165
  766MOL0     H 5649   9.235   2.293  10.124  0.6460 -6.5875 -0.0361
  766MOL0     H 5650   9.374   2.343  10.220 -0.0978  0.3399  0.3467
  766MOL0     H 5651   9.086   2.328  10.305 -0.3406  2.7898 -1.4760
  766MOL0     H 5652   9.216   2.340  10.430 -0.4753 -0.5707  0.7617
  766MOL0     H 5653   9.148   2.554  10.224  3.3627  2.4927 -1.4198
  766MOL0     H 5654   9.302   2.541  10.308 -0.8556  2.5728 -0.9270
  766MOL0     H 5655   9.028   2.527  10.436 -0.7525  0.2743 -1.4477
  766MOL0     H 5656   9.187   2.570  10.522 -0.5827  1.4527  0.3355
  766MOL0     H 5657   9.203   2.833  10.555  1.5284  0.6477 -1.9487
  766MOL0     H 5658   8.976   3.070  10.562 -2.5607 -0.7561 -1.8496
  766MOL0     H 5659   8.987   3.129  10.400  1.6234  2.3285  0.0148
  766MOL0     H 5660   9.238   3.077  10.571  0.7725  1.3058  0.2430
  766MOL0     H 5661   9.231   3.151  10.412 -3.0695  1.4144 -0.8211
  766MOL0     H 5662   9.054   3.268  10.623 -0.6481  1.1758 -0.3720
  766MOL0     H 5663   9.217   3.303  10.653 -1.6001 -2.4381  2.6354
  766MOL0     H 5664   9.241   3.412  10.440  0.3329  1.7317  0.2927
  766MOL0     H 5665   9.071   3.375  10.398 -2.6727  0.1584  2.0803
  766MOL0     H 5666   9.030   3.724  10.643 -0.4436 -1.6198  0.0705
  766MOL0     H 5667   9.179   3.972  10.834  0.9527  3.0422 -1.7788
  766MOL0     H 5668   9.052   3.948  10.707 -0.7612 -0.3734 -1.8612
  766MOL0     H 5669   9.199   4.037  10.679 -3.0680  0.6044 -2.3178
  766MOL0     H 5670   9.716   3.894  10.942  0.3363 -0.6734 -0.5720
  766MOL0     H 5671   9.880   4.054  11.002 -0.5733  2.4429  0.0810
  766MOL0     H 5672  10.014   4.237  11.030 -3.2087  0.4350 -1.9325
  766MOL0     H 5673  10.134   4.165  10.927 -0.6235 -0.9695  0.9151
  766MOL0     H 5674  10.100   4.466  10.924  1.0677  1.4218 -0.5047
  766MOL0     H 5675  10.218   4.375  11.015 -0.2282  0.1960  0.2170
  766MOL0     H 5676  10.182   4.384  10.717 -1.6498 -3.1580  0.7402
  766MOL0     H 5677  10.271   4.256  10.778 -0.6434  0.7884 -2.2949
  766MOL0     H 5678  10.450   4.407  10.877  2.4523 -1.5144 -2.4000
  766MOL0     H 5679  10.355   4.547  10.824 -0.1443  0.5084 -0.1445
  766MOL0     H 5680  10.465   4.349  10.622  2.6420  0.5052  0.2745
  766MOL0     H 5681  10.384   4.496  10.584  0.2016  0.9045 -0.2698
  766MOL0     H 5682  10.619   4.509  10.773  1.4567 -4.2222 -1.2924
  766MOL0     H 5683  10.559   4.647  10.680  1.9940  0.0404 -2.2687
  766MOL0     H 5684  10.709   4.600  10.522  2.1702 -2.1507 -1.5520
  766MOL0     H 5685  10.641   4.437  10.506  0.3012 -0.1006 -0.2429
  766MOL0     H 5686  10.766   4.365  10.686 -0.0599  0.4349  1.5127
  766MOL0     H 5687  10.851   4.528  10.699  2.0458  0.2144 -1.4141
  766MOL0     H 5688   9.883   4.199  10.596  1.8790 -3.1350 -1.5091
  766MOL0     H 5689   9.722   4.028  10.529 -2.6715  3.0175  0.0898
  766MOL0     H 5690   9.522   3.649  10.667 -0.5311 -2.4459  0.4509
  766MOL0     H 5691   9.362   3.473  10.578 -3.5817  0.7267 -1.8325
  766MOL0     H 5692   9.525   1.569  10.599  2.2566 -0.5493 -2.0799
  766MOL0     H 5693   9.671   1.469  10.767  0.7872  0.0205 -0.1124
  766MOL0     H 5694   9.904   1.531  11.140  0.3722 -3.0484 -0.3400
  766MOL0     H 5695  10.045   1.459  11.322  2.4601 -0.0634  0.8591
  766MOL0     H 5696  10.384   1.237  11.321  0.4244 -0.1232 -0.3109
  766MOL0     H 5697  10.435   1.319  11.174 -0.8929 -2.7524  0.0134
  766MOL0     H 5698  10.602   1.448  11.296  2.2282  0.9132  1.1588
  766MOL0     H 5699  10.619   1.281  11.347 -2.3700 -2.3963  1.2802
  766MOL0     H 5700  10.472   1.343  11.552 -0.5652  0.0975 -0.7948
  766MOL0     H 5701  10.645   1.397  11.554 -1.1989 -0.9535  2.6342
  766MOL0     H 5702  10.416   1.576  11.490 -0.3343 -5.2779 -0.6499
  766MOL0     H 5703  10.591   1.634  11.503  1.9526  0.1026  2.9151
  766MOL0     H 5704  10.470   1.578  11.904 -0.0603  0.3756 -0.0692
  766MOL0     H 5705  10.404   1.512  11.099 -0.0493  1.2151 -1.0427
  766MOL0     H 5706  10.270   1.710  10.833  0.8201 -0.7375 -0.8978
  766MOL0     H 5707  10.404   1.656  10.914 -0.5969  1.7104 -0.1938
  766MOL0     H 5708  10.307   1.534  10.814  1.6622 -0.3900 -0.1803
  767MOL0     O 5709   4.565   1.290   8.937  0.7235 -0.2869 -0.0155
  767MOL0     C 5710   4.462   1.344   8.964 -0.2008  0.7269 -0.7722
  767MOL0     O 5711   4.442   1.439   9.055 -0.4282  0.1465 -0.6719
  767MOL0     C 5712   4.549   1.485   9.128 -0.7954  0.7566 -0.5441
  767MOL0     C 5713   4.605   1.612   9.102 -0.5305 -1.0092  0.5924
  767MOL0     C 5714   4.713   1.662   9.178  0.6904 -0.0275  0.6511
  767MOL0     C 5715   4.778   1.582   9.264 -0.3093  0.4655 -0.4027
  767MOL0     O 5716   4.893   1.614   9.340 -0.1801  0.1880 -0.2412
  767MOL0     C 5717   4.971   1.726   9.295 -0.4631 -0.0391  0.0555
  767MOL0     C 5718   5.034   1.702   9.156  0.4470  0.2268 -0.5373
  767MOL0     C 5719   5.117   1.576   9.134 -0.1889  0.4809 -0.3570
  767MOL0     C 5720   5.188   1.582   8.994 -0.0280  0.1803 -0.0308
  767MOL0     C 5721   5.087   1.575   8.881 -0.3721  0.0531 -0.1104
  767MOL0     C 5722   4.983   1.465   8.870  0.5897  0.1670 -0.4471
  767MOL0     C 5723   4.892   1.476   8.743  0.2794  0.5665 -0.2679
  767MOL0     C 5724   4.796   1.350   8.725 -0.0787 -0.1124 -0.1470
  767MOL0     N 5725   4.767   1.313   8.588  0.5574  0.4832  0.0877
  767MOL0     C 5726   4.721   1.413   8.501 -0.2000 -0.1157  0.4436
  767MOL0     C 5727   4.683   1.356   8.385 -0.0007  0.3780 -0.0450
  767MOL0     C 5728   4.627   1.421   8.261 -1.5346  0.1356  0.5681
  767MOL0     C 5729   4.701   1.368   8.132  0.0914  0.1895  0.2042
  767MOL0     C 5730   4.682   1.462   8.017 -0.1019  0.3709 -0.8529
  767MOL0     C 5731   4.774   1.426   7.901 -0.2594 -0.7422  0.6056
  767MOL0     O 5732   4.918   1.419   7.926 -0.6183 -0.9833  0.4363
  767MOL0     C 5733   4.983   1.546   7.953 -0.2226 -0.9331  0.1483
  767MOL0     C 5734   5.112   1.544   7.995 -0.1335 -0.1622 -0.6537
  767MOL0     C 5735   5.182   1.659   8.033  0.7092 -0.0507  0.1962
  767MOL0     C 5736   5.326   1.640   8.068 -0.6626  0.5077  0.4031
  767MOL0     C 5737   5.122   1.788   8.029  0.1668 -0.7262  0.4564
  767MOL0     C 5738   5.189   1.914   8.065 -0.4036 -0.5099  0.3234
  767MOL0     O 5739   5.322   1.919   8.076 -0.1826 -0.0499  0.0945
  767MOL0     C 5740   5.388   2.004   8.159  0.1353 -0.8171 -0.5389
  767MOL0     C 5741   5.332   2.081   8.265  0.3899 -0.5769 -0.4384
  767MOL0     C 5742   5.409   2.170   8.345 -0.6444 -0.4228 -0.4844
  767MOL0     C 5743   5.546   2.191   8.311  0.0803 -0.1565 -0.9906
  767MOL0     O 5744   5.632   2.283   8.362  0.0979 -0.3040 -0.2182
  767MOL0     C 5745   5.588   2.391   8.445 -0.4963  0.0777 -0.2768
  767MOL0     C 5746   5.688   2.504   8.434  0.1208 -0.3247  0.1754
  767MOL0     C 5747   5.815   2.471   8.509 -0.1250 -0.4027 -0.5668
  767MOL0     C 5748   5.933   2.572   8.495 -0.0510  0.8938  0.7481
  767MOL0     C 5749   6.071   2.523   8.557  0.0610 -0.9016  0.6263
  767MOL0     C 5750   6.183   2.631   8.520 -0.2312 -0.5403  0.3454
  767MOL0     C 5751   6.320   2.572   8.518 -0.5453 -1.1188 -0.6551
  767MOL0     C 5752   6.419   2.678   8.442  0.2177 -0.0904 -0.0855
  767MOL0    Cl 5753   6.596   2.629   8.467 -0.0435  0.1312  0.1605
  767MOL0     C 5754   5.601   2.100   8.214 -0.1113  0.0053 -0.3136
  767MOL0     C 5755   5.527   2.007   8.154  1.1183 -0.1593  0.3547
  767MOL0     O 5756   5.109   2.013   8.081  0.5560 -0.6456 -0.8780
  767MOL0     C 5757   4.989   1.791   7.977 -0.2824 -0.3263 -0.1309
  767MOL0     C 5758   4.921   1.673   7.939  0.7856  0.3999 -0.2775
  767MOL0     N 5759   4.714   1.225   8.401 -0.7372  0.1028  0.5137
  767MOL0     N 5760   4.762   1.194   8.511  0.3279  0.1058  0.0658
  767MOL0     C 5761   4.732   1.453   9.282  0.4128 -0.0807 -0.2392
  767MOL0     C 5762   4.613   1.412   9.227 -0.0245  0.5902  0.2297
  767MOL0     C 5763   4.341   1.298   8.892  0.3084  0.3377 -0.7934
  767MOL0     C 5764   4.225   1.377   8.900  0.2494  0.4841  0.1012
  767MOL0     C 5765   4.115   1.348   8.826  0.3982  0.1944 -0.8246
  767MOL0     C 5766   4.108   1.228   8.742 -0.7526  0.0051 -0.8056
  767MOL0     O 5767   4.006   1.183   8.662 -0.8837 -0.0083 -0.3940
  767MOL0     C 5768   3.886   1.253   8.671  1.1754  0.6648 -0.1756
  767MOL0     C 5769   3.799   1.185   8.559 -0.3843 -1.0254  0.0964
  767MOL0     C 5770   3.713   1.075   8.622 -0.4043  0.7832 -0.3091
  767MOL0     C 5771   3.604   1.023   8.524 -0.4081 -0.1145  0.7288
  767MOL0     C 5772   3.507   1.128   8.508  0.4055  0.5696 -0.4530
  767MOL0     C 5773   3.413   1.205   8.515  0.7871 -1.0010 -0.3588
  767MOL0     C 5774   4.225   1.158   8.736  0.8342 -0.4748  0.4557
  767MOL0     C 5775   4.345   1.191   8.799 -0.8049 -0.1561 -0.2537
  767MOL0     C 5776   4.453   1.084   8.783 -0.5551  0.0084  0.1181
  767MOL0     H 5777   4.567   1.674   9.022 -1.7322 -2.2124  0.2008
  767MOL0     H 5778   4.740   1.766   9.177 -0.6439  0.3627 -1.1314
  767MOL0     H 5779   5.060   1.725   9.359 -0.8879 -0.9848  0.6639
  767MOL0     H 5780   4.916   1.821   9.298  1.2757  0.9968  1.0253
  767MOL0     H 5781   4.963   1.711   9.073 -0.8906 -0.3047  0.5203
  767MOL0     H 5782   5.116   1.773   9.137  0.2243  0.5602 -0.2511
  767MOL0     H 5783   5.185   1.575   9.219 -1.9914 -0.2345  1.1545
  767MOL0     H 5784   5.067   1.479   9.144  0.1615  0.5035  2.5261
  767MOL0     H 5785   5.247   1.673   8.985  2.2221 -1.1914  0.2365
  767MOL0     H 5786   5.260   1.500   8.993 -0.9898 -0.7206  1.3481
  767MOL0     H 5787   5.152   1.581   8.793  4.3461  1.1615  3.0734
  767MOL0     H 5788   5.033   1.670   8.882 -0.9252 -0.2503  1.2357
  767MOL0     H 5789   5.032   1.369   8.851  0.2626 -0.5095  1.8676
  767MOL0     H 5790   4.925   1.453   8.962  0.3661 -2.6251 -0.8869
  767MOL0     H 5791   4.952   1.499   8.654  0.6768  2.5114  0.4487
  767MOL0     H 5792   4.823   1.559   8.760  0.3186  1.1633 -2.6757
  767MOL0     H 5793   4.842   1.255   8.755 -1.3706 -0.9021 -0.5627
  767MOL0     H 5794   4.703   1.369   8.780 -0.9506 -0.5933 -1.3988
  767MOL0     H 5795   4.707   1.515   8.535  1.7736  0.0356  0.9631
  767MOL0     H 5796   4.662   1.524   8.273 -3.9233  1.6131 -3.1134
  767MOL0     H 5797   4.518   1.419   8.252 -1.5931  1.8999  0.4432
  767MOL0     H 5798   4.806   1.362   8.164 -0.3541  0.1810  1.7425
  767MOL0     H 5799   4.657   1.272   8.106 -1.5413  0.6041  1.3278
  767MOL0     H 5800   4.584   1.448   7.969 -0.7357  1.6402  0.0127
  767MOL0     H 5801   4.675   1.563   8.058 -2.8842 -0.7314  1.7907
  767MOL0     H 5802   4.748   1.322   7.880  2.3231 -1.7330  1.9056
  767MOL0     H 5803   4.744   1.495   7.822 -3.0420 -1.2240  1.1396
  767MOL0     H 5804   5.162   1.448   7.992 -0.0894 -0.2082  0.7596
  767MOL0     H 5805   5.330   1.665   8.174 -3.0786  0.8456  0.4742
  767MOL0     H 5806   5.393   1.694   8.000 -2.2325  0.9306 -0.8529
  767MOL0     H 5807   5.346   1.532   8.069  0.9613  0.7016 -2.1755
  767MOL0     H 5808   5.228   2.074   8.296  0.8646  2.1893  2.2927
  767MOL0     H 5809   5.363   2.235   8.419  1.1136  1.3138 -0.8241
  767MOL0     H 5810   5.489   2.426   8.412  0.0510 -2.5919 -5.9684
  767MOL0     H 5811   5.574   2.342   8.542  1.3295 -2.7906 -1.3267
  767MOL0     H 5812   5.725   2.526   8.333  0.3376  0.1081  0.3478
  767MOL0     H 5813   5.642   2.598   8.465 -0.5208 -0.8532  0.8737
  767MOL0     H 5814   5.855   2.373   8.483 -2.9289 -1.9628  0.5279
  767MOL0     H 5815   5.793   2.473   8.616 -0.8057 -0.2853 -0.7034
  767MOL0     H 5816   5.920   2.671   8.540 -0.2861  1.7809 -1.1836
  767MOL0     H 5817   5.952   2.585   8.388 -1.9520 -1.3579  0.0525
  767MOL0     H 5818   6.050   2.495   8.660 -1.3856 -0.4221  0.4815
  767MOL0     H 5819   6.094   2.431   8.503 -0.0199 -1.7152  1.9644
  767MOL0     H 5820   6.166   2.708   8.596  1.8503  1.5920 -1.1683
  767MOL0     H 5821   6.171   2.675   8.420  1.7097  1.1589  0.7705
  767MOL0     H 5822   6.318   2.483   8.455 -2.2666  0.0895 -2.4607
  767MOL0     H 5823   6.357   2.551   8.619 -2.1871 -1.1810 -0.0367
  767MOL0     H 5824   6.407   2.777   8.486  1.4497  0.3905 -0.7692
  767MOL0     H 5825   6.407   2.690   8.334  0.8966 -2.2334 -0.4471
  767MOL0     H 5826   5.708   2.099   8.195  0.0115 -1.5920  0.3740
  767MOL0     H 5827   5.585   1.935   8.097  1.0803  2.4789 -3.4133
  767MOL0     H 5828   4.939   1.887   7.964  0.3200  0.1412  0.8516
  767MOL0     H 5829   4.825   1.684   7.890  0.0321 -1.0188  0.8085
  767MOL0     H 5830   4.785   1.382   9.345 -0.4025 -1.8632 -1.4749
  767MOL0     H 5831   4.571   1.315   9.251 -0.8469  0.8620 -0.0719
  767MOL0     H 5832   4.222   1.472   8.953 -0.2275  1.1111 -0.9805
  767MOL0     H 5833   4.037   1.422   8.811  0.5679  0.5709  0.1130
  767MOL0     H 5834   3.843   1.238   8.771  2.9293  2.2627  0.8892
  767MOL0     H 5835   3.885   1.360   8.650  0.3761  0.7666  0.3246
  767MOL0     H 5836   3.857   1.149   8.474  2.3407 -0.3551  1.5201
  767MOL0     H 5837   3.740   1.263   8.512  0.3283 -1.4096 -1.4927
  767MOL0     H 5838   3.776   0.988   8.643  2.0066  2.2743 -0.9326
  767MOL0     H 5839   3.658   1.116   8.707 -1.5341  2.5375 -1.8015
  767MOL0     H 5840   3.554   0.937   8.569 -0.2644 -0.7757 -0.3499
  767MOL0     H 5841   3.649   0.999   8.427 -1.9763 -0.7101  0.1191
  767MOL0     H 5842   3.332   1.274   8.521  1.2110 -0.5552  0.4068
  767MOL0     H 5843   4.220   1.057   8.695  0.8327  0.5781 -2.3854
  767MOL0     H 5844   4.543   1.131   8.741 -1.5633  0.7027 -1.3887
  767MOL0     H 5845   4.469   1.032   8.878  1.1758  0.9365  0.3695
  767MOL0     H 5846   4.413   1.011   8.713 -2.0355 -0.6251  1.5728
  768MOL0     O 5847   5.171   4.594  11.066 -0.6535 -1.2343 -1.0228
  768MOL0     C 5848   5.147   4.483  11.025  0.4817  0.2812  1.1434
  768MOL0     O 5849   5.233   4.412  10.946 -0.6767  0.0068 -0.4891
  768MOL0     C 5850   5.356   4.464  10.935 -0.0817  0.3258 -0.7905
  768MOL0     C 5851   5.403   4.497  10.809 -0.2323 -0.0041  0.0992
  768MOL0     C 5852   5.527   4.557  10.801  0.4088  0.0179  0.6259
  768MOL0     C 5853   5.609   4.580  10.911  0.3916 -0.4965  0.6199
  768MOL0     O 5854   5.716   4.659  10.889 -0.1711 -0.0646  0.1378
  768MOL0     C 5855   5.842   4.609  10.945  0.3874 -0.8653 -0.0270
  768MOL0     C 5856   5.884   4.476  10.877  0.3013 -0.7832 -0.1823
  768MOL0     C 5857   6.035   4.455  10.894 -0.4978 -0.7646  0.4750
  768MOL0     C 5858   6.092   4.327  10.836  0.1848  0.3621 -1.4619
  768MOL0     C 5859   6.239   4.309  10.863  0.1875  0.6723  0.2753
  768MOL0     C 5860   6.280   4.167  10.840  0.8035  1.3186  0.4823
  768MOL0     C 5861   6.425   4.134  10.834 -0.4835  0.5537  0.2031
  768MOL0     C 5862   6.473   4.141  10.693  0.9199 -1.3261  0.0140
  768MOL0     N 5863   6.611   4.104  10.686 -0.1209 -0.3042 -0.5764
  768MOL0     C 5864   6.709   4.196  10.712  0.0218 -0.0357  0.4868
  768MOL0     C 5865   6.817   4.119  10.702  0.2230  0.0834 -0.5313
  768MOL0     C 5866   6.954   4.163  10.742 -0.0046  0.5959 -0.7907
  768MOL0     C 5867   7.024   4.248  10.648 -0.2516 -0.0907  0.6843
  768MOL0     C 5868   7.179   4.271  10.676 -0.3516 -0.4587 -0.1520
  768MOL0     C 5869   7.253   4.366  10.580  0.5577  0.5424 -0.1299
  768MOL0     O 5870   7.202   4.498  10.595 -0.3274 -0.5195 -0.1311
  768MOL0     C 5871   7.229   4.576  10.704 -0.0191 -0.5745  0.0305
  768MOL0     C 5872   7.319   4.547  10.803  0.4091  0.0458 -1.0808
  768MOL0     C 5873   7.340   4.629  10.917 -0.0353 -0.0773 -0.8857
  768MOL0     C 5874   7.452   4.600  11.003  0.0631  1.0080  0.1238
  768MOL0     C 5875   7.258   4.741  10.949 -0.0229  0.1668  0.3644
  768MOL0     C 5876   7.256   4.819  11.066 -0.0386 -0.3060 -0.2573
  768MOL0     O 5877   7.171   4.928  11.058 -0.5777 -0.2821  1.1588
  768MOL0     C 5878   7.170   5.024  11.158  0.9138  0.5575  0.2592
  768MOL0     C 5879   7.152   4.990  11.289  0.4209  0.0449  0.6134
  768MOL0     C 5880   7.145   5.091  11.387  0.5062  0.3777  0.0873
  768MOL0     C 5881   7.157   5.230  11.351  0.0354  0.0480 -0.3303
  768MOL0     O 5882   7.160   5.334  11.442  0.5658  0.1839  0.5644
  768MOL0     C 5883   7.120   5.329  11.580 -0.0612  0.1546 -0.2705
  768MOL0     C 5884   7.105   5.466  11.638  0.5383  0.0972 -0.5107
  768MOL0     C 5885   7.241   5.538  11.650 -0.2591 -0.3423  0.0382
  768MOL0     C 5886   7.222   5.688  11.660  0.6507  0.2537 -0.0695
  768MOL0     C 5887   7.348   5.760  11.638  0.1859  0.6046  0.5629
  768MOL0     C 5888   7.323   5.911  11.623 -0.6551  0.4307 -0.9000
  768MOL0     C 5889   7.451   5.993  11.592 -0.5480  1.2122  0.4835
  768MOL0     C 5890   7.425   6.144  11.573 -0.7431 -0.2656 -0.0568
  768MOL0    Cl 5891   7.393   6.220  11.733 -0.0767 -0.6254  0.0480
  768MOL0     C 5892   7.165   5.260  11.221  0.3781  0.8962  0.6306
  768MOL0     C 5893   7.176   5.157  11.123  0.3147 -0.1235 -1.1012
  768MOL0     O 5894   7.303   4.772  11.174 -0.3441  0.5918 -0.1816
  768MOL0     C 5895   7.159   4.761  10.849  0.8807  0.0057  0.3215
  768MOL0     C 5896   7.149   4.688  10.727  0.2903 -0.9186  0.2523
  768MOL0     N 5897   6.788   3.993  10.657 -0.1401 -0.0943  0.4538
  768MOL0     N 5898   6.658   3.981  10.652  0.4668 -0.6608  0.0208
  768MOL0     C 5899   5.565   4.534  11.035 -0.0898 -0.2476  0.7707
  768MOL0     C 5900   5.434   4.477  11.051 -0.3866  1.5847 -0.6272
  768MOL0     C 5901   5.009   4.421  11.058 -0.0855 -0.6052 -0.7705
  768MOL0     C 5902   4.918   4.508  11.122  0.3834 -0.3106  0.6201
  768MOL0     C 5903   4.784   4.464  11.143  0.3958 -0.5903  0.1525
  768MOL0     C 5904   4.734   4.342  11.098 -0.2782 -0.9319  0.5433
  768MOL0     O 5905   4.607   4.293  11.118 -0.0171  0.0439  0.5113
  768MOL0     C 5906   4.553   4.341  11.233  0.4297  1.0320  0.1972
  768MOL0     C 5907   4.430   4.261  11.269  0.0294  0.3592 -0.7500
  768MOL0     C 5908   4.317   4.293  11.164 -0.0378 -0.3497 -0.3477
  768MOL0     C 5909   4.196   4.221  11.207  0.5648  0.2582 -0.3334
  768MOL0     C 5910   4.099   4.223  11.100 -0.7960  0.3849  0.8099
  768MOL0     C 5911   4.030   4.223  11.000  0.4260 -0.0620  0.8308
  768MOL0     C 5912   4.822   4.264  11.032 -0.4041  0.1483  0.6945
  768MOL0     C 5913   4.957   4.295  11.018  0.1798 -0.0564  0.5990
  768MOL0     C 5914   5.053   4.205  10.941 -0.4156  0.4916  0.0468
  768MOL0     H 5915   5.340   4.481  10.723 -1.3646 -1.5691  1.1703
  768MOL0     H 5916   5.560   4.602  10.708  0.7141 -0.3108  0.5714
  768MOL0     H 5917   5.839   4.606  11.054  1.0412  1.6932  0.1347
  768MOL0     H 5918   5.920   4.680  10.916 -2.9844  3.3011 -0.0419
  768MOL0     H 5919   5.825   4.394  10.921  0.9995 -0.9894  0.3892
  768MOL0     H 5920   5.863   4.489  10.770 -1.2142  2.0450  0.3689
  768MOL0     H 5921   6.091   4.537  10.848 -1.8177 -0.0122  0.1608
  768MOL0     H 5922   6.060   4.459  11.001 -2.7001 -0.7410  1.0392
  768MOL0     H 5923   6.036   4.243  10.878  1.8364 -0.5056 -0.9385
  768MOL0     H 5924   6.069   4.336  10.729 -4.2804 -0.7296 -0.8271
  768MOL0     H 5925   6.252   4.335  10.968 -2.7973  2.6421  0.2685
  768MOL0     H 5926   6.295   4.379  10.801  1.1629 -0.4193 -0.1165
  768MOL0     H 5927   6.220   4.102  10.904  1.5251 -0.2951 -0.4277
  768MOL0     H 5928   6.244   4.141  10.740 -0.2546 -1.5228  1.5157
  768MOL0     H 5929   6.430   4.035  10.881 -1.8967 -0.3498 -1.4362
  768MOL0     H 5930   6.479   4.206  10.895  0.3986 -0.0881  0.2048
  768MOL0     H 5931   6.423   4.063  10.635 -2.4737  1.3107 -0.9453
  768MOL0     H 5932   6.462   4.241  10.651  1.0277 -0.3995  2.0826
  768MOL0     H 5933   6.697   4.299  10.742  1.1588 -0.0633  1.1004
  768MOL0     H 5934   7.018   4.078  10.767  1.1062  1.1854 -1.5569
  768MOL0     H 5935   6.934   4.223  10.832 -1.4095 -2.3117  0.9669
  768MOL0     H 5936   7.015   4.211  10.546  0.6201  4.2181 -1.1957
  768MOL0     H 5937   6.970   4.343  10.640  1.5167  0.8542 -0.6215
  768MOL0     H 5938   7.189   4.319  10.774  3.2302 -1.1459 -0.0420
  768MOL0     H 5939   7.235   4.177  10.666  1.0466  0.4242 -0.9856
  768MOL0     H 5940   7.360   4.367  10.603  0.5239 -0.7907  0.1880
  768MOL0     H 5941   7.234   4.325  10.481  2.0084 -4.5889  1.3702
  768MOL0     H 5942   7.390   4.465  10.790  1.1016  0.0352  1.9721
  768MOL0     H 5943   7.428   4.530  11.083  1.4790  2.3643  1.8030
  768MOL0     H 5944   7.494   4.691  11.047 -0.6417  0.6764  1.5414
  768MOL0     H 5945   7.532   4.564  10.937  0.6002 -0.4472  1.5253
  768MOL0     H 5946   7.155   4.884  11.314 -3.5010 -0.6463 -1.1748
  768MOL0     H 5947   7.142   5.056  11.490  0.8701 -2.3224 -0.7385
  768MOL0     H 5948   7.025   5.273  11.581  0.0914 -0.1657 -1.4549
  768MOL0     H 5949   7.197   5.271  11.631 -0.8097 -1.2986 -0.7113
  768MOL0     H 5950   7.035   5.520  11.574 -0.6390 -0.1744  0.4961
  768MOL0     H 5951   7.061   5.474  11.738  0.3880  1.4861 -0.6761
  768MOL0     H 5952   7.292   5.506  11.559 -2.3692 -0.3471 -1.1896
  768MOL0     H 5953   7.301   5.518  11.740  3.3320 -1.9066 -2.4554
  768MOL0     H 5954   7.186   5.696  11.763  1.6730 -2.2804  0.5586
  768MOL0     H 5955   7.148   5.720  11.587  0.8578 -0.2936 -0.5242
  768MOL0     H 5956   7.421   5.738  11.716  0.9287  1.6059  0.1742
  768MOL0     H 5957   7.388   5.721  11.543  3.5802  0.7902  1.7801
  768MOL0     H 5958   7.271   5.933  11.716  2.0812  1.8047  0.4163
  768MOL0     H 5959   7.252   5.906  11.539 -1.1409  2.2248 -0.6312
  768MOL0     H 5960   7.498   5.952  11.502  0.0041  2.1130  0.3464
  768MOL0     H 5961   7.508   5.967  11.682  0.1768  0.3413 -0.2161
  768MOL0     H 5962   7.334   6.155  11.513 -2.3033 -0.5119  2.1250
  768MOL0     H 5963   7.520   6.191  11.545 -0.4477 -1.6577 -1.4970
  768MOL0     H 5964   7.169   5.363  11.187 -0.3105  0.4014 -1.0523
  768MOL0     H 5965   7.197   5.173  11.018  2.1737 -2.1893 -1.1194
  768MOL0     H 5966   7.100   4.852  10.853 -1.5239 -1.5222  3.0391
  768MOL0     H 5967   7.077   4.723  10.654 -2.0686 -1.3246  2.2241
  768MOL0     H 5968   5.623   4.557  11.124  1.7729  2.4525 -0.9753
  768MOL0     H 5969   5.402   4.439  11.148 -1.2664  0.1642 -1.4441
  768MOL0     H 5970   4.943   4.606  11.162 -1.0678  0.0767  0.6345
  768MOL0     H 5971   4.725   4.538  11.196  2.7773  2.7037 -1.4434
  768MOL0     H 5972   4.625   4.326  11.314 -0.6180 -2.2077  0.6605
  768MOL0     H 5973   4.520   4.444  11.221 -0.0746  1.0526  1.6324
  768MOL0     H 5974   4.400   4.298  11.367 -1.9635  1.7668 -1.8267
  768MOL0     H 5975   4.458   4.155  11.273  0.8731  0.6139  2.4215
  768MOL0     H 5976   4.303   4.402  11.159  0.9312 -0.2836 -2.3350
  768MOL0     H 5977   4.343   4.257  11.064  1.4680  1.9888 -0.8815
  768MOL0     H 5978   4.151   4.261  11.298 -0.6111 -0.7724 -0.4401
  768MOL0     H 5979   4.225   4.119  11.237 -1.1514  0.6958  3.3391
  768MOL0     H 5980   3.957   4.229  10.922 -0.3168  1.9960  1.5978
  768MOL0     H 5981   4.777   4.174  10.990 -1.1736  1.4275 -1.3958
  768MOL0     H 5982   5.010   4.105  10.932 -2.3277  1.1035  1.7851
  768MOL0     H 5983   5.073   4.251  10.844 -1.1431  1.0144  0.1428
  768MOL0     H 5984   5.149   4.169  10.980 -0.9745 -2.3882 -0.9170
  769MOL0     O 5985   5.282   3.849   7.805  1.0297  0.7170 -0.1733
  769MOL0     C 5986   5.186   3.904   7.755  0.5862 -0.2382  0.2646
  769MOL0     O 5987   5.053   3.871   7.780 -0.5902 -0.5045  0.6166
  769MOL0     C 5988   5.034   3.817   7.903 -0.6857  0.0773  0.9732
  769MOL0     C 5989   4.969   3.690   7.910 -0.2289 -0.3963 -0.4695
  769MOL0     C 5990   4.946   3.637   8.039 -0.7971  0.4767  0.9261
  769MOL0     C 5991   4.985   3.705   8.157 -0.3422 -0.1846 -1.1962
  769MOL0     O 5992   4.953   3.666   8.290 -0.2784 -0.4696  0.0214
  769MOL0     C 5993   4.883   3.535   8.313 -0.2924 -0.4607 -0.4945
  769MOL0     C 5994   4.963   3.408   8.294  0.2519 -0.0827 -0.0341
  769MOL0     C 5995   5.094   3.399   8.372  0.2908  0.2087 -0.0673
  769MOL0     C 5996   5.132   3.254   8.415  0.2658 -0.3316  0.2645
  769MOL0     C 5997   5.276   3.245   8.473 -0.0683  0.1461 -0.0644
  769MOL0     C 5998   5.299   3.112   8.534 -0.1994 -0.2357  0.2515
  769MOL0     C 5999   5.438   3.093   8.601 -0.3919  0.0835  0.6222
  769MOL0     C 6000   5.469   2.949   8.620  0.6017  0.1013 -0.9373
  769MOL0     N 6001   5.592   2.940   8.696 -0.7508  0.7175 -0.1426
  769MOL0     C 6002   5.603   2.971   8.829  0.8991 -0.1671  0.2519
  769MOL0     C 6003   5.738   2.975   8.861  0.0019 -0.5972 -0.2985
  769MOL0     C 6004   5.787   3.027   9.004  0.3127 -0.0213  0.5661
  769MOL0     C 6005   5.928   3.081   9.010  0.5929  0.6010 -0.2509
  769MOL0     C 6006   5.974   3.180   8.897 -0.7287  0.0104  0.2567
  769MOL0     C 6007   6.117   3.212   8.915 -0.4217 -0.5379  0.4954
  769MOL0     O 6008   6.149   3.258   9.043 -0.2525  0.4123  0.6865
  769MOL0     C 6009   6.278   3.277   9.076  0.2323  0.0158  0.0342
  769MOL0     C 6010   6.307   3.315   9.206 -0.1822 -0.0803 -0.2220
  769MOL0     C 6011   6.438   3.322   9.252 -0.0960  0.0233 -0.3001
  769MOL0     C 6012   6.457   3.346   9.407  0.6351  1.5321  0.2885
  769MOL0     C 6013   6.548   3.293   9.166 -0.1249 -0.0644 -0.2221
  769MOL0     C 6014   6.692   3.293   9.211 -0.2616 -0.3953  0.7810
  769MOL0     O 6015   6.781   3.299   9.105  0.5585 -0.0694 -0.1762
  769MOL0     C 6016   6.915   3.288   9.132  0.9592  0.0177  0.3594
  769MOL0     C 6017   7.001   3.384   9.075  0.0194 -0.7792  0.4290
  769MOL0     C 6018   7.138   3.375   9.087  0.4719 -0.7783 -0.0257
  769MOL0     C 6019   7.192   3.253   9.145 -0.3308 -0.0872  0.0113
  769MOL0     O 6020   7.325   3.232   9.148  0.4799 -0.3149 -0.0350
  769MOL0     C 6021   7.418   3.322   9.086 -0.2059 -0.8697 -0.2559
  769MOL0     C 6022   7.553   3.249   9.104  0.1249  0.0027 -0.4025
  769MOL0     C 6023   7.664   3.338   9.041  0.0971  0.3689  0.4604
  769MOL0     C 6024   7.806   3.301   9.082 -0.0945  0.1831 -0.1606
  769MOL0     C 6025   7.895   3.417   9.059 -0.6416 -0.4884 -0.3840
  769MOL0     C 6026   8.046   3.387   9.075 -0.2488 -0.5425  0.5591
  769MOL0     C 6027   8.097   3.291   8.966  0.1456  0.1203 -0.0593
  769MOL0     C 6028   8.218   3.209   9.018  0.5884  0.2024 -0.4822
  769MOL0    Cl 6029   8.279   3.136   8.866 -0.3778  0.0755 -0.2381
  769MOL0     C 6030   7.106   3.156   9.200 -0.2733 -0.2189  0.7005
  769MOL0     C 6031   6.971   3.177   9.194 -0.5621  0.2356  0.1506
  769MOL0     O 6032   6.729   3.301   9.328 -0.0697  0.2761  0.7511
  769MOL0     C 6033   6.516   3.265   9.036 -0.4761  0.1640  0.0490
  769MOL0     C 6034   6.388   3.255   8.993  0.9637  0.3221 -0.2774
  769MOL0     N 6035   5.803   2.943   8.747 -0.5980 -0.1149 -0.7891
  769MOL0     N 6036   5.722   2.925   8.655  0.2380 -0.0071  0.1798
  769MOL0     C 6037   5.061   3.824   8.142  0.9886 -0.3556 -0.4106
  769MOL0     C 6038   5.080   3.887   8.017  0.0308  0.0847 -0.5700
  769MOL0     C 6039   5.212   3.997   7.643 -1.2982  0.1407  0.1988
  769MOL0     C 6040   5.157   3.969   7.515  0.0673 -0.0539  0.0336
  769MOL0     C 6041   5.161   4.068   7.412  0.6422  0.2344  0.1514
  769MOL0     C 6042   5.212   4.198   7.436  0.6260 -0.3960 -0.4001
  769MOL0     O 6043   5.197   4.299   7.347 -0.2488  0.9985  0.3841
  769MOL0     C 6044   5.266   4.422   7.368 -0.4931 -0.4212  1.0184
  769MOL0     C 6045   5.284   4.492   7.236  0.0914  0.1279 -0.3464
  769MOL0     C 6046   5.336   4.402   7.120 -0.2729 -0.1712 -0.2229
  769MOL0     C 6047   5.365   4.490   6.995  0.4048  0.3048 -0.9126
  769MOL0     C 6048   5.501   4.546   7.004 -0.1644  1.4905  0.0214
  769MOL0     C 6049   5.617   4.577   7.015  0.0849 -0.1033  0.5194
  769MOL0     C 6050   5.258   4.228   7.566  0.2668  0.0153  0.1181
  769MOL0     C 6051   5.275   4.124   7.663 -0.9351  0.0347  0.6202
  769MOL0     C 6052   5.320   4.169   7.803  0.6389  0.8633  0.1879
  769MOL0     H 6053   4.915   3.640   7.830 -1.6882 -3.2391  2.0954
  769MOL0     H 6054   4.902   3.538   8.034  1.9975 -0.8089 -3.0484
  769MOL0     H 6055   4.793   3.529   8.251  0.0060 -1.7011 -0.8269
  769MOL0     H 6056   4.842   3.537   8.415  0.9681  0.6630  0.0107
  769MOL0     H 6057   4.897   3.322   8.310  2.4150 -2.0222 -0.9233
  769MOL0     H 6058   4.984   3.393   8.188 -3.6639 -4.7341 -0.5167
  769MOL0     H 6059   5.176   3.448   8.320  0.5005 -1.3324 -1.2390
  769MOL0     H 6060   5.080   3.452   8.467  1.3115  0.2034  0.0915
  769MOL0     H 6061   5.052   3.223   8.483  0.5350 -3.3742 -0.6348
  769MOL0     H 6062   5.116   3.182   8.334  2.1400  2.0922 -2.4724
  769MOL0     H 6063   5.283   3.321   8.552 -0.3951  0.3891 -0.2641
  769MOL0     H 6064   5.356   3.262   8.399  1.1862 -3.0343  0.4429
  769MOL0     H 6065   5.220   3.097   8.608  1.3721  0.4124  2.1776
  769MOL0     H 6066   5.289   3.042   8.451 -1.2511  1.0214 -0.6984
  769MOL0     H 6067   5.459   3.155   8.688  1.3478 -2.9924  2.5747
  769MOL0     H 6068   5.501   3.120   8.516 -1.0594 -1.8006 -0.5433
  769MOL0     H 6069   5.396   2.899   8.684  2.0210  2.3228  2.7955
  769MOL0     H 6070   5.476   2.901   8.522  0.4524  0.7672 -1.2863
  769MOL0     H 6071   5.522   3.000   8.896  2.1835  0.3252  1.6563
  769MOL0     H 6072   5.763   2.951   9.078 -2.4788 -2.3638 -2.4700
  769MOL0     H 6073   5.720   3.111   9.024  0.3185  0.8503 -2.4892
  769MOL0     H 6074   5.955   3.133   9.103  1.0955 -1.9038  1.1032
  769MOL0     H 6075   6.000   2.999   9.008 -0.2429 -0.1465 -0.4402
  769MOL0     H 6076   5.968   3.134   8.797  2.0987 -2.6392  1.1634
  769MOL0     H 6077   5.923   3.277   8.904  1.1685  1.1105 -0.4336
  769MOL0     H 6078   6.181   3.127   8.888 -0.1237 -0.1409 -0.0657
  769MOL0     H 6079   6.136   3.303   8.857  0.1344  0.9568  2.8989
  769MOL0     H 6080   6.227   3.327   9.278  0.3034  3.2458 -0.0705
  769MOL0     H 6081   6.499   3.255   9.452  1.6191  0.7405 -2.0932
  769MOL0     H 6082   6.366   3.377   9.460 -0.2901 -0.2559 -0.1622
  769MOL0     H 6083   6.531   3.425   9.424  1.2536  0.8981  0.6238
  769MOL0     H 6084   6.958   3.470   9.024  0.9770  0.7754  2.1329
  769MOL0     H 6085   7.194   3.450   9.032  0.9861  0.4569  2.0405
  769MOL0     H 6086   7.386   3.329   8.982  0.2691  0.6804 -0.3162
  769MOL0     H 6087   7.411   3.420   9.132 -0.0140 -1.3155  0.7567
  769MOL0     H 6088   7.576   3.232   9.210  0.8037  0.4896 -0.4594
  769MOL0     H 6089   7.561   3.149   9.060  0.8262 -0.2228  0.2252
  769MOL0     H 6090   7.645   3.440   9.078  0.8263 -0.6564  4.0703
  769MOL0     H 6091   7.655   3.336   8.932 -1.0712 -1.1222  0.5620
  769MOL0     H 6092   7.834   3.216   9.019 -1.3147 -0.7502  0.5140
  769MOL0     H 6093   7.808   3.277   9.188  0.7756 -1.5400 -0.5299
  769MOL0     H 6094   7.883   3.457   8.958  0.5476 -2.5114 -1.3796
  769MOL0     H 6095   7.869   3.498   9.128 -0.0942  0.5506 -1.3486
  769MOL0     H 6096   8.067   3.352   9.176 -3.0880  0.6975  1.6800
  769MOL0     H 6097   8.094   3.484   9.058 -1.7333  0.0245 -0.6167
  769MOL0     H 6098   8.150   3.344   8.886  0.9605 -1.4509 -0.6035
  769MOL0     H 6099   8.016   3.232   8.922  0.9680 -0.1414 -1.2831
  769MOL0     H 6100   8.197   3.137   9.098  2.0240  0.4668  0.1503
  769MOL0     H 6101   8.295   3.277   9.054  0.9684  0.2675 -1.3947
  769MOL0     H 6102   7.145   3.062   9.238  0.5456 -0.2400 -0.1438
  769MOL0     H 6103   6.908   3.103   9.241 -0.1736 -1.4145 -1.8182
  769MOL0     H 6104   6.594   3.244   8.963  0.2263  0.8863  0.5590
  769MOL0     H 6105   6.378   3.221   8.890 -3.0723 -1.5458  0.5466
  769MOL0     H 6106   5.088   3.870   8.236 -1.0577 -0.2675  0.1879
  769MOL0     H 6107   5.131   3.983   8.020 -2.5170  1.5062  0.0259
  769MOL0     H 6108   5.101   3.881   7.486  0.6688 -0.3063 -0.3707
  769MOL0     H 6109   5.103   4.050   7.322 -0.8365  3.1413  0.4169
  769MOL0     H 6110   5.206   4.476   7.441 -0.6550  0.3551  0.3196
  769MOL0     H 6111   5.366   4.410   7.410  1.0214  2.4398 -1.3734
  769MOL0     H 6112   5.341   4.586   7.236  2.0062 -0.9708 -1.1332
  769MOL0     H 6113   5.187   4.529   7.201  0.1086  0.7658  0.2571
  769MOL0     H 6114   5.430   4.350   7.144 -0.0164  0.8796  1.2099
  769MOL0     H 6115   5.256   4.332   7.094  0.8002 -1.6492  0.3525
  769MOL0     H 6116   5.297   4.576   6.989 -1.7774 -1.0917  1.6553
  769MOL0     H 6117   5.353   4.441   6.898  2.0905 -1.0230 -0.4941
  769MOL0     H 6118   5.714   4.614   7.042 -0.0016 -0.0507  0.7537
  769MOL0     H 6119   5.291   4.328   7.592  2.4147 -0.7737  0.6424
  769MOL0     H 6120   5.248   4.168   7.886  2.0113  0.0745  1.4187
  769MOL0     H 6121   5.413   4.119   7.833  0.0198 -0.8534 -0.6384
  769MOL0     H 6122   5.348   4.275   7.799 -1.9123  1.6326  0.6728
  770MOL0     O 6123   9.932  10.052   5.545 -0.1148  0.0076 -0.1182
  770MOL0     C 6124   9.990   9.951   5.504 -0.4190  0.1608  0.5624
  770MOL0     O 6125  10.113   9.905   5.547  0.9262  0.1219 -0.4075
  770MOL0     C 6126  10.181   9.971   5.649  0.5730 -0.7323  1.0132
  770MOL0     C 6127  10.204  10.109   5.631 -0.3248 -0.0533  0.2385
  770MOL0     C 6128  10.254  10.178   5.743  0.3163  0.6186  0.0480
  770MOL0     C 6129  10.299  10.121   5.858  0.2190  0.1583  0.5817
  770MOL0     O 6130  10.338  10.184   5.976 -0.2175  0.3624  0.7518
  770MOL0     C 6131  10.368  10.323   5.958 -0.3072 -0.4027 -0.7188
  770MOL0     C 6132  10.412  10.362   6.097 -0.5112 -0.1192  0.0790
  770MOL0     C 6133  10.526  10.282   6.158  0.4940 -0.1301  0.0973
  770MOL0     C 6134  10.663  10.316   6.093  0.0456  0.5826 -0.6585
  770MOL0     C 6135  10.777  10.315   6.200  0.8049  0.3099 -0.0869
  770MOL0     C 6136  10.906  10.360   6.122  0.8872  0.6915 -0.5758
  770MOL0     C 6137  11.032  10.356   6.215 -0.1710 -0.2720  0.4149
  770MOL0     C 6138  11.081  10.221   6.282  0.7398  0.1304 -0.3915
  770MOL0     N 6139  11.119  10.119   6.180 -0.4714 -0.6081  0.9119
  770MOL0     C 6140  11.203  10.141   6.074  0.4948  0.7462  0.3411
  770MOL0     C 6141  11.210  10.016   6.017 -0.5777  0.0758 -0.3241
  770MOL0     C 6142  11.296   9.966   5.906 -0.1785 -0.1277  0.4241
  770MOL0     C 6143  11.421   9.883   5.949 -0.4840 -0.4037  0.8897
  770MOL0     C 6144  11.383   9.769   6.039 -1.0780  0.9898 -0.0894
  770MOL0     C 6145  11.475   9.648   6.038  0.6268 -0.3368  0.4380
  770MOL0     O 6146  11.606   9.682   6.085 -0.4695 -0.4812 -0.4760
  770MOL0     C 6147  11.672   9.600   6.178  0.0953 -0.9548  0.9593
  770MOL0     C 6148  11.770   9.510   6.131 -0.5699 -0.1040 -0.1489
  770MOL0     C 6149  11.845   9.437   6.228 -0.3805 -0.4844 -0.2709
  770MOL0     C 6150  11.957   9.348   6.181  0.5287  0.5159 -0.2988
  770MOL0     C 6151  11.819   9.446   6.368 -0.2166  0.1710  0.6137
  770MOL0     C 6152  11.905   9.382   6.476 -0.1463 -0.5422  0.2369
  770MOL0     O 6153  11.832   9.345   6.591 -0.4320  0.1033  0.0035
  770MOL0     C 6154  11.903   9.281   6.679 -0.6547 -0.1475 -0.8502
  770MOL0     C 6155  11.957   9.152   6.657  0.5368  0.0685 -0.0150
  770MOL0     C 6156  12.042   9.093   6.754 -0.2228  0.0441  0.0973
  770MOL0     C 6157  12.066   9.160   6.873  0.1114 -0.4481  0.3019
  770MOL0     O 6158  12.154   9.094   6.953 -0.4183 -0.6066  0.2633
  770MOL0     C 6159  12.244   9.179   7.028 -1.1311  0.0833  0.5354
  770MOL0     C 6160  12.372   9.091   7.050  0.5639 -0.0257 -0.3411
  770MOL0     C 6161  12.453   9.066   6.919  1.5820 -0.0596  0.5688
  770MOL0     C 6162  12.554   8.960   6.936  0.2474  0.1982 -0.2918
  770MOL0     C 6163  12.649   8.937   6.813 -0.3395  0.2273  0.1056
  770MOL0     C 6164  12.775   8.844   6.850  0.0325  0.1422  0.0580
  770MOL0     C 6165  12.867   8.821   6.730  0.8493 -0.0975 -0.1434
  770MOL0     C 6166  13.026   8.826   6.761 -0.5689  0.2191 -0.5476
  770MOL0    Cl 6167  13.065   8.991   6.799 -0.1663 -0.3560 -0.3584
  770MOL0     C 6168  12.011   9.287   6.897 -0.4459 -0.4849 -0.0767
  770MOL0     C 6169  11.933   9.342   6.798  0.8973  0.1962  0.1683
  770MOL0     O 6170  12.022   9.366   6.460  0.5619  0.0662  0.2915
  770MOL0     C 6171  11.712   9.526   6.411 -0.2775  0.0629 -0.2906
  770MOL0     C 6172  11.645   9.602   6.317 -0.4699 -0.7561  0.6034
  770MOL0     N 6173  11.117   9.931   6.085 -0.2334 -0.1473 -0.2471
  770MOL0     N 6174  11.055  10.003   6.163  0.7654  0.4724 -0.4446
  770MOL0     C 6175  10.285   9.982   5.863 -0.5009 -0.8481 -0.6323
  770MOL0     C 6176  10.216   9.912   5.765 -0.2427  0.9092  0.4578
  770MOL0     C 6177   9.915   9.853   5.415  0.2652  0.4833  0.6898
  770MOL0     C 6178   9.954   9.717   5.425 -0.2446  0.5889  0.1205
  770MOL0     C 6179   9.913   9.622   5.336  0.6693  0.9593  0.0624
  770MOL0     C 6180   9.829   9.656   5.232 -0.0604  0.2627 -0.2053
  770MOL0     O 6181   9.792   9.570   5.139  0.0651  0.6520 -0.5346
  770MOL0     C 6182   9.719   9.611   5.027 -0.0028 -0.4105  0.2807
  770MOL0     C 6183   9.697   9.494   4.938  0.3571  0.4248 -0.2998
  770MOL0     C 6184   9.596   9.392   4.985  1.2717 -0.5643 -0.5147
  770MOL0     C 6185   9.584   9.273   4.889 -0.2588 -0.4128  0.1925
  770MOL0     C 6186   9.485   9.182   4.953  0.4849  0.2820  1.1573
  770MOL0     C 6187   9.415   9.098   5.000  0.2098  0.9139  0.0145
  770MOL0     C 6188   9.783   9.791   5.229  0.6738 -0.6292 -0.2696
  770MOL0     C 6189   9.819   9.891   5.321  0.2211  0.0059 -0.8308
  770MOL0     C 6190   9.765  10.028   5.315 -0.0377  0.7568 -0.1345
  770MOL0     H 6191  10.181  10.151   5.534  1.7310 -0.6204 -0.5614
  770MOL0     H 6192  10.254  10.287   5.734 -1.9407  0.7668  1.2931
  770MOL0     H 6193  10.274  10.373   5.935  1.0054  2.1211 -0.8491
  770MOL0     H 6194  10.443  10.331   5.879 -0.6789 -3.4733 -1.5129
  770MOL0     H 6195  10.445  10.465   6.077 -1.1601  0.5813  2.2628
  770MOL0     H 6196  10.332  10.366   6.172  0.4597  0.2971  1.1221
  770MOL0     H 6197  10.532  10.298   6.266  2.9603  1.8981 -0.2574
  770MOL0     H 6198  10.516  10.174   6.144 -1.7876 -0.6796  4.2185
  770MOL0     H 6199  10.692  10.239   6.022  2.2251  0.0051  0.7528
  770MOL0     H 6200  10.674  10.415   6.047  1.9067 -0.1901 -1.9683
  770MOL0     H 6201  10.781  10.216   6.246 -4.2304 -0.8129 -1.5034
  770MOL0     H 6202  10.749  10.389   6.276 -0.7051 -0.5609  0.2243
  770MOL0     H 6203  10.920  10.289   6.040  0.2977 -2.0425  1.5508
  770MOL0     H 6204  10.892  10.452   6.064  0.0442 -1.7032 -4.5317
  770MOL0     H 6205  11.016  10.422   6.300 -2.5255  1.1032 -0.9904
  770MOL0     H 6206  11.108  10.414   6.163 -1.3072 -0.7172 -1.8596
  770MOL0     H 6207  11.160  10.233   6.356 -0.7035 -1.3606  1.5053
  770MOL0     H 6208  11.006  10.168   6.342  0.8473  0.5780  0.1442
  770MOL0     H 6209  11.261  10.230   6.052 -1.0684  1.6776 -0.1562
  770MOL0     H 6210  11.321  10.058   5.851 -0.9938  0.3097  0.7588
  770MOL0     H 6211  11.232   9.909   5.838 -2.2868  1.3651  1.0445
  770MOL0     H 6212  11.477   9.842   5.864 -0.3053 -2.4333  1.9199
  770MOL0     H 6213  11.496   9.942   6.003 -0.0478  2.3905 -2.4396
  770MOL0     H 6214  11.364   9.810   6.138 -0.3185 -0.5908  0.7474
  770MOL0     H 6215  11.288   9.720   6.013 -0.5592 -0.3950  0.5551
  770MOL0     H 6216  11.424   9.568   6.092  0.2151 -0.4901 -0.1598
  770MOL0     H 6217  11.469   9.625   5.931  0.1886  0.9761  0.1602
  770MOL0     H 6218  11.783   9.501   6.023  0.7432 -3.3962  0.1620
  770MOL0     H 6219  11.934   9.313   6.080 -1.1212  0.0292  0.2162
  770MOL0     H 6220  11.952   9.253   6.235  1.2226  1.4175  1.4347
  770MOL0     H 6221  12.057   9.392   6.186  0.2890  1.1951 -1.0814
  770MOL0     H 6222  11.932   9.094   6.569  0.8692  0.3459 -0.2953
  770MOL0     H 6223  12.079   8.995   6.725  1.5731  0.3874  1.1084
  770MOL0     H 6224  12.290   9.267   6.983 -1.9531  0.5837  0.6656
  770MOL0     H 6225  12.203   9.211   7.124  1.9261 -0.3185  2.1156
  770MOL0     H 6226  12.441   9.131   7.125  1.1335 -0.0761 -0.8279
  770MOL0     H 6227  12.340   8.999   7.100 -0.8387 -0.3390 -1.7538
  770MOL0     H 6228  12.494   9.163   6.889  1.3896 -0.5966 -1.5938
  770MOL0     H 6229  12.380   9.038   6.842 -2.2549  0.1060  3.7961
  770MOL0     H 6230  12.512   8.863   6.964 -0.3189 -0.1370 -2.1595
  770MOL0     H 6231  12.622   8.991   7.016 -0.3261  0.9919 -0.1108
  770MOL0     H 6232  12.595   8.887   6.732  0.4838  0.8619 -0.8567
  770MOL0     H 6233  12.684   9.035   6.779  0.6823 -0.7077 -1.7048
  770MOL0     H 6234  12.733   8.749   6.885 -1.8392  0.5790 -0.8682
  770MOL0     H 6235  12.835   8.885   6.932  0.1001  0.7842 -0.3071
  770MOL0     H 6236  12.847   8.900   6.656  3.3053 -0.4393 -1.2766
  770MOL0     H 6237  12.845   8.725   6.683 -0.2186 -0.2836  0.7104
  770MOL0     H 6238  13.081   8.809   6.669 -1.5778  0.0975 -1.1471
  770MOL0     H 6239  13.041   8.755   6.844 -3.4158  1.6521  1.3556
  770MOL0     H 6240  12.027   9.331   6.995 -3.5839  2.1775 -0.5905
  770MOL0     H 6241  11.882   9.435   6.823 -0.5800 -0.4803 -0.2110
  770MOL0     H 6242  11.686   9.526   6.516 -0.5447 -1.6888 -0.3214
  770MOL0     H 6243  11.566   9.669   6.349 -0.5865  0.2091 -1.4826
  770MOL0     H 6244  10.326   9.916   5.940  1.4704 -1.6987 -2.3026
  770MOL0     H 6245  10.196   9.807   5.780  0.6713  0.5717 -0.5558
  770MOL0     H 6246  10.016   9.687   5.508  0.5286 -0.1239 -0.6891
  770MOL0     H 6247   9.948   9.519   5.335 -0.0456  0.7094 -1.2614
  770MOL0     H 6248   9.618   9.641   5.058  1.4460  2.0923  3.0737
  770MOL0     H 6249   9.754   9.698   4.971 -0.0528 -0.8074 -0.3893
  770MOL0     H 6250   9.796   9.452   4.921  0.2875  0.3237 -0.4527
  770MOL0     H 6251   9.670   9.527   4.837 -0.7298 -0.3709 -0.2908
  770MOL0     H 6252   9.630   9.364   5.085 -0.6449  3.2513  1.4053
  770MOL0     H 6253   9.503   9.448   4.982 -0.3638 -3.1588 -2.4931
  770MOL0     H 6254   9.682   9.225   4.885 -0.0230  0.1042 -2.9894
  770MOL0     H 6255   9.555   9.304   4.788  1.2438 -1.4977 -0.6059
  770MOL0     H 6256   9.364   9.010   5.032 -1.4925  1.2307 -1.6746
  770MOL0     H 6257   9.715   9.819   5.149  0.1815 -2.4005 -0.5114
  770MOL0     H 6258   9.835  10.108   5.288  0.9643 -0.2879 -0.7574
  770MOL0     H 6259   9.680  10.037   5.247  0.1035 -0.3369 -0.4810
  770MOL0     H 6260   9.731  10.048   5.417 -1.1006  0.0152 -0.3325
  771MOL0     O 6261   3.845   7.567   1.142 -0.5012  0.7055  0.0961
  771MOL0     C 6262   3.732   7.606   1.120 -0.3065 -0.6841 -0.1410
  771MOL0     O 6263   3.698   7.694   1.013 -0.4581  0.2039 -0.6045
  771MOL0     C 6264   3.796   7.729   0.928 -0.3138  0.3164 -0.0924
  771MOL0     C 6265   3.926   7.771   0.970  0.4890  0.7028  0.4168
  771MOL0     C 6266   4.005   7.835   0.883 -1.0600 -0.2743  0.0568
  771MOL0     C 6267   3.961   7.856   0.750  0.2288  0.1259  0.4221
  771MOL0     O 6268   4.038   7.908   0.649  0.3117  0.3913  0.0688
  771MOL0     C 6269   4.171   7.947   0.673  0.8965  0.2264  0.2960
  771MOL0     C 6270   4.224   8.034   0.564  0.5146  0.3159 -1.0042
  771MOL0     C 6271   4.357   8.107   0.595  0.8794 -0.3121  0.5376
  771MOL0     C 6272   4.414   8.165   0.466 -0.0833  0.0055 -0.1772
  771MOL0     C 6273   4.567   8.190   0.490 -0.0387 -0.2405 -0.5317
  771MOL0     C 6274   4.575   8.310   0.589 -1.1496 -0.6103  0.0183
  771MOL0     C 6275   4.726   8.319   0.634  0.4565  0.0495  0.4361
  771MOL0     C 6276   4.761   8.438   0.726 -0.1522  0.0855  0.8115
  771MOL0     N 6277   4.691   8.436   0.854 -0.3595 -0.0193  0.5676
  771MOL0     C 6278   4.708   8.338   0.951  1.3439  0.3473  0.0884
  771MOL0     C 6279   4.607   8.355   1.043 -0.5585  0.4015  0.3394
  771MOL0     C 6280   4.594   8.277   1.170 -0.3864  0.5295 -0.7910
  771MOL0     C 6281   4.699   8.297   1.284  0.6892 -0.1115  0.5228
  771MOL0     C 6282   4.732   8.449   1.295 -0.7539 -0.0906 -0.4205
  771MOL0     C 6283   4.812   8.465   1.430  0.9669 -0.0829 -0.7537
  771MOL0     O 6284   4.835   8.589   1.468 -0.2925 -1.1284  0.8119
  771MOL0     C 6285   4.953   8.627   1.413 -0.2861 -0.3251 -0.2395
  771MOL0     C 6286   5.068   8.597   1.485 -0.3576 -0.7238  0.0857
  771MOL0     C 6287   5.190   8.644   1.447  0.3292  0.0638  0.3826
  771MOL0     C 6288   5.310   8.614   1.532 -0.1280  0.6249 -0.0225
  771MOL0     C 6289   5.209   8.737   1.337 -0.3177 -1.2424 -0.4892
  771MOL0     C 6290   5.331   8.818   1.298 -0.0796 -0.2564  0.8582
  771MOL0     O 6291   5.318   8.869   1.171 -0.4368  0.4081 -0.0784
  771MOL0     C 6292   5.408   8.950   1.107 -0.7197  0.5921 -0.1993
  771MOL0     C 6293   5.455   9.068   1.170 -1.1003 -0.3860  0.0714
  771MOL0     C 6294   5.555   9.142   1.102  0.0743  0.1822  0.5694
  771MOL0     C 6295   5.613   9.098   0.981 -0.2213 -1.2204  0.1307
  771MOL0     O 6296   5.717   9.165   0.916 -0.6493  0.1082 -0.3584
  771MOL0     C 6297   5.837   9.202   0.995  0.0317 -1.0085 -0.0770
  771MOL0     C 6298   5.936   9.095   0.972 -0.0181 -0.7975  0.2375
  771MOL0     C 6299   6.061   9.127   1.053 -0.9531 -0.0331  0.4618
  771MOL0     C 6300   6.169   9.020   1.041  0.4331  0.9686 -0.3317
  771MOL0     C 6301   6.300   9.078   1.102 -0.4919 -0.2197 -1.0200
  771MOL0     C 6302   6.422   9.011   1.034 -0.3925  0.1648  0.2001
  771MOL0     C 6303   6.558   9.030   1.107  0.3462  0.6845 -0.1360
  771MOL0     C 6304   6.682   9.023   1.022  0.4597  0.9687 -1.1908
  771MOL0    Cl 6305   6.690   8.864   0.927 -0.0732 -0.0056 -0.3204
  771MOL0     C 6306   5.561   8.987   0.919 -0.1514  0.4921 -0.5171
  771MOL0     C 6307   5.461   8.910   0.986 -0.2607  0.4497  0.9164
  771MOL0     O 6308   5.422   8.842   1.366 -0.4757  0.7015 -0.2248
  771MOL0     C 6309   5.088   8.763   1.274 -0.0459 -0.6807 -0.9032
  771MOL0     C 6310   4.959   8.724   1.319  0.7835  0.3906  0.0452
  771MOL0     N 6311   4.536   8.465   1.007  0.4522  0.5793 -1.0086
  771MOL0     N 6312   4.579   8.503   0.886 -0.0978 -0.4264 -0.0618
  771MOL0     C 6313   3.827   7.818   0.712 -0.3521 -0.5063  0.0089
  771MOL0     C 6314   3.751   7.747   0.801  0.5397 -0.4457 -0.3807
  771MOL0     C 6315   3.611   7.571   1.194  0.2505  0.8371 -0.1989
  771MOL0     C 6316   3.614   7.447   1.268  0.1605 -0.4442  0.3708
  771MOL0     C 6317   3.499   7.400   1.344  0.7467  0.8498  0.2246
  771MOL0     C 6318   3.383   7.474   1.339 -0.3279  1.2388  0.3471
  771MOL0     O 6319   3.272   7.418   1.400 -0.1267 -0.4334 -0.0886
  771MOL0     C 6320   3.151   7.492   1.417  0.4539  0.6183  0.0534
  771MOL0     C 6321   3.060   7.451   1.542 -0.1735  0.5378  0.0647
  771MOL0     C 6322   2.980   7.578   1.590  0.5312  0.6630 -0.0417
  771MOL0     C 6323   2.885   7.629   1.479 -0.1544 -0.8461  0.2533
  771MOL0     C 6324   2.955   7.715   1.389  1.0777  0.0644  0.4174
  771MOL0     C 6325   3.030   7.770   1.316 -0.0753  0.8134 -1.0328
  771MOL0     C 6326   3.381   7.590   1.269 -0.4300 -0.1577 -0.6350
  771MOL0     C 6327   3.490   7.645   1.197 -0.2675 -0.1462  0.3219
  771MOL0     C 6328   3.442   7.764   1.101  0.1076 -0.2079 -0.5874
  771MOL0     H 6329   3.965   7.759   1.070 -0.6369 -1.1975  0.6826
  771MOL0     H 6330   4.100   7.865   0.925 -1.2061 -0.3687  0.4609
  771MOL0     H 6331   4.233   7.857   0.673  1.3711  0.5537  0.3225
  771MOL0     H 6332   4.183   8.011   0.761  0.9121 -1.2401  1.4101
  771MOL0     H 6333   4.234   7.967   0.479  0.3563 -0.5993 -0.3149
  771MOL0     H 6334   4.149   8.109   0.539 -1.1776 -1.3784 -1.2088
  771MOL0     H 6335   4.330   8.184   0.668  0.3891  1.3408 -1.3263
  771MOL0     H 6336   4.428   8.034   0.636  2.3289  0.5720 -0.2770
  771MOL0     H 6337   4.400   8.093   0.385 -1.0696  0.1334 -0.1246
  771MOL0     H 6338   4.350   8.250   0.441 -4.5934 -1.1986  5.3514
  771MOL0     H 6339   4.625   8.203   0.398  1.4536  0.1669  0.4332
  771MOL0     H 6340   4.600   8.099   0.540 -3.1562 -0.1065  2.1050
  771MOL0     H 6341   4.538   8.392   0.526 -1.6454 -1.3813 -0.7182
  771MOL0     H 6342   4.515   8.299   0.680  0.3741 -2.5034  0.8728
  771MOL0     H 6343   4.791   8.329   0.546 -0.7865 -0.2533 -0.5374
  771MOL0     H 6344   4.749   8.225   0.686  0.3961  1.1375  2.5603
  771MOL0     H 6345   4.869   8.445   0.739  0.4022 -4.1521 -0.1626
  771MOL0     H 6346   4.727   8.532   0.680 -0.3977 -0.3520  0.0811
  771MOL0     H 6347   4.785   8.263   0.939 -0.1962 -1.1780 -0.8747
  771MOL0     H 6348   4.600   8.169   1.153 -0.1671  0.1566  1.4147
  771MOL0     H 6349   4.493   8.301   1.204  0.3961  1.4480  1.0121
  771MOL0     H 6350   4.655   8.260   1.378  1.6497  2.2699  1.9935
  771MOL0     H 6351   4.786   8.234   1.266 -0.6291 -1.7879 -0.3147
  771MOL0     H 6352   4.786   8.468   1.202 -0.1563 -0.1932 -0.0942
  771MOL0     H 6353   4.641   8.510   1.291  0.0778  1.1890 -0.1292
  771MOL0     H 6354   4.760   8.422   1.516  0.4932  2.3932  0.2736
  771MOL0     H 6355   4.901   8.402   1.423  0.3657 -0.7962 -3.0755
  771MOL0     H 6356   5.064   8.530   1.571  2.6765  3.1557  3.7204
  771MOL0     H 6357   5.392   8.586   1.465  1.1142  1.2364  1.1962
  771MOL0     H 6358   5.292   8.534   1.604  0.9381  0.0885 -0.3347
  771MOL0     H 6359   5.328   8.705   1.591  1.3335  1.0175 -1.0308
  771MOL0     H 6360   5.416   9.097   1.267  0.2126 -1.8081  1.0763
  771MOL0     H 6361   5.599   9.231   1.146  3.0587 -1.6651  1.5977
  771MOL0     H 6362   5.882   9.295   0.960  1.6104 -1.6449  0.1399
  771MOL0     H 6363   5.818   9.209   1.103 -3.2600 -3.0244 -0.3975
  771MOL0     H 6364   5.891   8.997   0.992 -1.0981 -0.1704  1.0157
  771MOL0     H 6365   5.969   9.100   0.868  0.2422  2.2433  0.4024
  771MOL0     H 6366   6.041   9.150   1.158 -1.1235  0.6712  0.2839
  771MOL0     H 6367   6.113   9.216   1.016  1.7211 -1.9197 -0.6077
  771MOL0     H 6368   6.183   8.979   0.941  2.5579  2.2724 -0.6393
  771MOL0     H 6369   6.142   8.936   1.105 -1.8554 -0.6750 -3.2116
  771MOL0     H 6370   6.312   9.186   1.090  0.7934 -0.1344  0.7587
  771MOL0     H 6371   6.300   9.049   1.207  0.3428 -4.0810 -1.9094
  771MOL0     H 6372   6.428   9.055   0.934 -0.4761 -1.1811 -0.4189
  771MOL0     H 6373   6.402   8.906   1.008 -0.8699  0.3049 -0.0050
  771MOL0     H 6374   6.569   8.950   1.180 -1.5525  0.7513  0.2818
  771MOL0     H 6375   6.552   9.129   1.154 -1.0597  0.9595 -0.8443
  771MOL0     H 6376   6.779   9.018   1.072  0.0092 -2.3058 -0.4400
  771MOL0     H 6377   6.663   9.101   0.947 -0.6582 -1.1668 -3.2618
  771MOL0     H 6378   5.582   8.968   0.814 -3.0198 -1.2508 -0.8968
  771MOL0     H 6379   5.428   8.820   0.936  0.1703  1.9561 -2.3713
  771MOL0     H 6380   5.083   8.835   1.193 -0.0695  1.3325  0.8071
  771MOL0     H 6381   4.874   8.756   1.260  0.1951 -1.4924 -0.2017
  771MOL0     H 6382   3.793   7.828   0.609 -0.3672  3.5062  0.2531
  771MOL0     H 6383   3.659   7.700   0.768 -0.2465 -0.0091  1.0871
  771MOL0     H 6384   3.711   7.399   1.276  0.8713  1.0240  0.7612
  771MOL0     H 6385   3.498   7.303   1.393  0.9884  0.5973 -0.2633
  771MOL0     H 6386   3.193   7.589   1.446  0.9311  0.8673 -1.4144
  771MOL0     H 6387   3.090   7.504   1.327  1.5655 -2.9454 -1.3628
  771MOL0     H 6388   3.129   7.416   1.620 -1.4654 -1.1805  0.5066
  771MOL0     H 6389   2.998   7.365   1.516 -1.6620  1.6470 -0.2048
  771MOL0     H 6390   2.914   7.527   1.661  1.8088 -1.2439 -0.1486
  771MOL0     H 6391   3.044   7.656   1.634 -1.0371  1.9672  0.0199
  771MOL0     H 6392   2.809   7.674   1.544  0.3632 -2.1261  1.7969
  771MOL0     H 6393   2.832   7.545   1.432  0.1510 -1.2342  0.5916
  771MOL0     H 6394   3.092   7.821   1.244 -2.0477  1.8847 -2.0626
  771MOL0     H 6395   3.288   7.645   1.257 -1.1737 -0.9763  1.0109
  771MOL0     H 6396   3.512   7.847   1.085 -0.4857  0.5289  0.4690
  771MOL0     H 6397   3.403   7.724   1.007 -3.5731 -0.9087  1.0983
  771MOL0     H 6398   3.353   7.811   1.143  0.1163 -2.2433  1.9508
  772MOL0     O 6399   8.187   7.467   1.989  0.1147  0.0075 -0.2083
  772MOL0     C 6400   8.110   7.544   2.047 -0.4866 -0.5386 -0.3821
  772MOL0     O 6401   8.154   7.622   2.156 -0.7377  0.1401  0.6840
  772MOL0     C 6402   8.282   7.628   2.198 -1.0608  0.1292  0.4058
  772MOL0     C 6403   8.312   7.751   2.248  0.7767 -0.1405  0.3334
  772MOL0     C 6404   8.432   7.774   2.303 -0.6896 -0.7019 -0.0404
  772MOL0     C 6405   8.529   7.676   2.312 -0.6638 -0.1623 -0.2027
  772MOL0     O 6406   8.650   7.669   2.379  0.5001 -0.0321  0.1437
  772MOL0     C 6407   8.690   7.787   2.462 -0.3403  0.6212 -0.3235
  772MOL0     C 6408   8.846   7.775   2.481 -0.6977 -0.0839 -0.8441
  772MOL0     C 6409   8.871   7.696   2.610  0.2057 -0.0109  1.0621
  772MOL0     C 6410   9.022   7.675   2.628 -1.2074  0.5466 -2.2067
  772MOL0     C 6411   9.038   7.557   2.734  0.4555 -0.1626  0.1314
  772MOL0     C 6412   9.187   7.576   2.779  0.7473  0.1277  0.2086
  772MOL0     C 6413   9.226   7.451   2.857  0.4309  0.5355 -0.2469
  772MOL0     C 6414   9.377   7.445   2.887  0.4121 -0.5019 -0.4209
  772MOL0     N 6415   9.398   7.317   2.968  1.5524 -0.6635  0.4668
  772MOL0     C 6416   9.373   7.191   2.929 -0.6325 -0.3809 -0.2377
  772MOL0     C 6417   9.360   7.111   3.040 -0.2921  0.2201 -1.4406
  772MOL0     C 6418   9.316   6.966   3.046 -0.5023 -0.1760  0.3416
  772MOL0     C 6419   9.227   6.924   2.928 -0.1150 -1.3439 -0.1898
  772MOL0     C 6420   9.091   6.985   2.919 -0.0942  0.9584 -0.4702
  772MOL0     C 6421   9.028   6.962   2.781 -0.5786  0.1363  0.4202
  772MOL0     O 6422   9.119   7.019   2.684 -1.0152  0.7840 -0.0256
  772MOL0     C 6423   9.074   7.036   2.561  0.4521 -0.7484  0.2335
  772MOL0     C 6424   9.018   6.934   2.484  0.1053 -0.4853  0.3965
  772MOL0     C 6425   8.970   6.957   2.357 -0.0314 -0.1197  0.5970
  772MOL0     C 6426   8.913   6.835   2.286  0.0229  0.0022  0.2628
  772MOL0     C 6427   8.985   7.088   2.302  1.1086 -0.9783 -0.4228
  772MOL0     C 6428   8.917   7.127   2.172 -0.8498 -0.9051 -0.4054
  772MOL0     O 6429   8.972   7.250   2.118  0.2580 -0.1641 -0.0304
  772MOL0     C 6430   8.933   7.302   2.000  0.2182 -0.1526  1.0471
  772MOL0     C 6431   8.800   7.335   1.976 -0.1749 -0.1435 -0.2550
  772MOL0     C 6432   8.765   7.392   1.856 -0.6028 -0.1332 -0.1040
  772MOL0     C 6433   8.854   7.410   1.749  0.1880  0.3396 -0.3257
  772MOL0     O 6434   8.805   7.423   1.623 -0.0055  0.9029 -0.2458
  772MOL0     C 6435   8.866   7.532   1.546  0.3680 -0.4529 -0.5893
  772MOL0     C 6436   8.818   7.529   1.402  0.6899  0.3055  0.8988
  772MOL0     C 6437   8.864   7.653   1.321  0.0297 -0.0577  0.4687
  772MOL0     C 6438   9.011   7.670   1.321 -0.4558 -0.5782  0.0856
  772MOL0     C 6439   9.064   7.749   1.203 -0.4979 -0.4535  1.1234
  772MOL0     C 6440   9.071   7.905   1.218 -0.4772 -0.0354  0.1697
  772MOL0     C 6441   9.162   7.981   1.113 -1.2945  0.7523 -0.3315
  772MOL0     C 6442   9.144   7.940   0.968  0.0506  0.5191 -0.3162
  772MOL0    Cl 6443   9.259   8.023   0.860  0.2216 -0.3965  0.5873
  772MOL0     C 6444   8.983   7.379   1.772  0.7093  0.4354  0.0886
  772MOL0     C 6445   9.030   7.324   1.895  0.2536  0.0937 -0.4817
  772MOL0     O 6446   8.825   7.064   2.126 -0.2233 -0.6562  0.5362
  772MOL0     C 6447   9.050   7.188   2.374  0.6657 -0.0125 -0.1972
  772MOL0     C 6448   9.103   7.157   2.498  0.0791 -0.1486  0.2072
  772MOL0     N 6449   9.371   7.202   3.146 -0.4545 -0.4141 -0.1633
  772MOL0     N 6450   9.408   7.318   3.103  0.4570  0.0595  0.3153
  772MOL0     C 6451   8.501   7.556   2.262  1.0954  0.4852  0.0588
  772MOL0     C 6452   8.381   7.527   2.193 -0.2812 -0.1361 -0.7891
  772MOL0     C 6453   7.960   7.526   2.015 -0.8309  0.2906 -0.4075
  772MOL0     C 6454   7.908   7.403   1.981 -0.1808  0.0591  0.2743
  772MOL0     C 6455   7.771   7.392   1.946 -0.6086 -0.0360 -0.4892
  772MOL0     C 6456   7.682   7.500   1.945 -0.2894 -0.6494 -0.6623
  772MOL0     O 6457   7.549   7.471   1.924 -0.5826 -0.5549  0.1036
  772MOL0     C 6458   7.443   7.541   1.987  1.3127 -1.1423  0.7875
  772MOL0     C 6459   7.392   7.464   2.114 -0.0973  0.4483  0.7644
  772MOL0     C 6460   7.320   7.331   2.092  0.4078  0.5276 -0.5793
  772MOL0     C 6461   7.398   7.238   2.007  0.5696  0.0066  0.0528
  772MOL0     C 6462   7.316   7.109   2.000 -0.2465  0.2016 -0.4001
  772MOL0     C 6463   7.262   6.999   1.984  0.0386  0.4360  1.2793
  772MOL0     C 6464   7.733   7.624   1.986  0.9435 -0.4910 -0.0150
  772MOL0     C 6465   7.870   7.640   2.016 -0.4276 -0.1157 -1.0546
  772MOL0     C 6466   7.911   7.769   2.075 -0.0381 -1.2739 -0.6011
  772MOL0     H 6467   8.238   7.830   2.243 -1.7157 -2.3850 -0.1999
  772MOL0     H 6468   8.453   7.870   2.348  0.3007 -1.7421  1.8629
  772MOL0     H 6469   8.635   7.787   2.556  1.1403 -1.5683  0.6071
  772MOL0     H 6470   8.664   7.882   2.413 -1.8599  1.9401  2.7891
  772MOL0     H 6471   8.891   7.710   2.405 -0.5171 -2.4442  1.1503
  772MOL0     H 6472   8.885   7.876   2.489 -0.5303 -0.2895  1.4474
  772MOL0     H 6473   8.835   7.761   2.690  1.7787  1.4284  0.6772
  772MOL0     H 6474   8.812   7.605   2.606 -1.3650  0.8940  2.5137
  772MOL0     H 6475   9.078   7.647   2.539  0.2682 -0.0822 -1.1202
  772MOL0     H 6476   9.075   7.766   2.661 -0.6940 -0.4497 -0.0894
  772MOL0     H 6477   9.020   7.458   2.691 -1.5738 -0.2172  0.9715
  772MOL0     H 6478   8.971   7.566   2.820  3.2016  1.0469  2.2774
  772MOL0     H 6479   9.252   7.584   2.691 -0.6450 -3.6026 -1.3358
  772MOL0     H 6480   9.177   7.663   2.845 -1.2667 -1.1367  1.6779
  772MOL0     H 6481   9.201   7.362   2.798  0.7795  0.2738 -0.0050
  772MOL0     H 6482   9.176   7.441   2.954  1.3920 -1.3940  0.0925
  772MOL0     H 6483   9.440   7.429   2.799  0.5628  0.9520 -0.5979
  772MOL0     H 6484   9.404   7.543   2.927 -1.6507  0.2463 -0.7702
  772MOL0     H 6485   9.357   7.167   2.824 -3.8350  1.5398 -0.3217
  772MOL0     H 6486   9.263   6.954   3.141  0.8046 -0.4550  1.0654
  772MOL0     H 6487   9.398   6.894   3.053 -1.0022 -0.6049  2.4298
  772MOL0     H 6488   9.290   6.941   2.840  0.5789  0.9066  0.6835
  772MOL0     H 6489   9.198   6.820   2.946 -2.1966 -0.3293  3.2354
  772MOL0     H 6490   9.033   6.934   2.997 -0.5619 -1.0369 -2.0436
  772MOL0     H 6491   9.086   7.091   2.946  0.9823  0.4228  2.1495
  772MOL0     H 6492   9.018   6.855   2.759  2.3627 -0.0770 -0.3492
  772MOL0     H 6493   8.925   6.997   2.770 -1.1092 -2.0435 -2.9551
  772MOL0     H 6494   9.010   6.835   2.528 -0.1943 -0.8409 -0.4433
  772MOL0     H 6495   8.908   6.849   2.178 -1.8043  0.5770  0.3756
  772MOL0     H 6496   8.813   6.812   2.324  1.3933 -3.3529  2.3172
  772MOL0     H 6497   8.974   6.745   2.302  1.7606  0.8187 -1.4157
  772MOL0     H 6498   8.719   7.317   2.046 -0.5667 -0.9767 -0.8943
  772MOL0     H 6499   8.658   7.388   1.841 -0.8882  1.1012  1.4270
  772MOL0     H 6500   8.837   7.625   1.596  4.4852 -0.6415  2.7060
  772MOL0     H 6501   8.974   7.530   1.535  0.4100 -1.4470 -0.0887
  772MOL0     H 6502   8.838   7.432   1.355  0.2375 -0.2570  1.8165
  772MOL0     H 6503   8.709   7.533   1.406  0.7450  1.2951  1.5767
  772MOL0     H 6504   8.814   7.736   1.371 -2.6795 -1.4088  0.2171
  772MOL0     H 6505   8.825   7.644   1.219  0.1135 -0.6501  0.4832
  772MOL0     H 6506   9.057   7.573   1.302  2.5662  0.2692  2.2378
  772MOL0     H 6507   9.053   7.705   1.416  2.2346 -2.4679 -0.3031
  772MOL0     H 6508   9.166   7.714   1.182 -0.4679  1.4736 -2.7681
  772MOL0     H 6509   8.993   7.727   1.123  0.1361  1.6613 -0.0719
  772MOL0     H 6510   9.105   7.935   1.317  3.0271  0.4583 -1.0215
  772MOL0     H 6511   8.970   7.941   1.194 -0.6341 -1.6829 -1.9609
  772MOL0     H 6512   9.266   7.957   1.134 -1.6881 -0.5050  0.2588
  772MOL0     H 6513   9.146   8.089   1.109 -1.9506  0.6548 -0.4933
  772MOL0     H 6514   9.044   7.954   0.926  0.3896 -0.6084 -1.5916
  772MOL0     H 6515   9.176   7.836   0.960  1.5463  0.7673  1.6094
  772MOL0     H 6516   9.043   7.381   1.682 -2.0797 -1.1842 -1.9743
  772MOL0     H 6517   9.136   7.308   1.915  0.2052 -2.7824 -2.0199
  772MOL0     H 6518   9.059   7.287   2.332 -1.0718 -0.1135 -0.8884
  772MOL0     H 6519   9.155   7.234   2.554  1.6109 -0.6872 -0.4253
  772MOL0     H 6520   8.567   7.469   2.266 -1.1104 -1.3402 -0.7686
  772MOL0     H 6521   8.362   7.427   2.156 -0.2176 -0.0216 -1.1296
  772MOL0     H 6522   7.968   7.313   1.985 -1.7591 -1.0179  1.5278
  772MOL0     H 6523   7.747   7.290   1.919 -2.0766  0.2545 -0.3610
  772MOL0     H 6524   7.459   7.644   2.019 -2.7658 -0.8432  2.3974
  772MOL0     H 6525   7.362   7.561   1.916  3.5597  1.5793 -1.2666
  772MOL0     H 6526   7.315   7.530   2.157 -3.9381 -1.0330 -3.0178
  772MOL0     H 6527   7.469   7.444   2.188  0.0524 -2.7376 -0.1119
  772MOL0     H 6528   7.310   7.288   2.192 -2.0674  1.2616 -0.4428
  772MOL0     H 6529   7.222   7.347   2.045  0.7473  2.4992 -0.7088
  772MOL0     H 6530   7.496   7.211   2.047  1.0300  1.8143  0.2006
  772MOL0     H 6531   7.398   7.274   1.903 -4.0922 -3.0511 -1.3706
  772MOL0     H 6532   7.217   6.905   1.959  3.4381 -0.8958 -0.4503
  772MOL0     H 6533   7.660   7.704   1.998  0.5608 -0.8569  0.1067
  772MOL0     H 6534   7.925   7.756   2.182  0.7165  1.5245 -0.2654
  772MOL0     H 6535   8.006   7.798   2.028  0.0195 -0.2638  0.1056
  772MOL0     H 6536   7.836   7.849   2.073  1.9742  0.7217 -1.0758
  773MOL0     O 6537   8.460   9.246   8.685  0.6412 -0.0995 -0.3138
  773MOL0     C 6538   8.418   9.302   8.786 -0.3066 -0.4105 -0.5682
  773MOL0     O 6539   8.493   9.311   8.897 -0.2751 -0.6614 -0.6134
  773MOL0     C 6540   8.616   9.254   8.894 -0.1927 -0.8786  0.2132
  773MOL0     C 6541   8.729   9.337   8.875 -0.1609 -0.3977 -0.5043
  773MOL0     C 6542   8.858   9.279   8.894 -0.3630  0.2688 -0.4380
  773MOL0     C 6543   8.871   9.150   8.946 -0.2809 -0.2586  0.8344
  773MOL0     O 6544   8.995   9.092   8.966 -0.4820  0.4585  0.6332
  773MOL0     C 6545   9.115   9.116   8.885 -0.0878  0.2821  0.1226
  773MOL0     C 6546   9.215   9.007   8.924 -0.0945 -0.4688 -0.0128
  773MOL0     C 6547   9.329   8.995   8.819 -0.0632  0.4740 -0.3720
  773MOL0     C 6548   9.419   8.882   8.866  0.4638  0.3336  0.3065
  773MOL0     C 6549   9.544   8.868   8.775 -0.3285 -0.1595 -0.2093
  773MOL0     C 6550   9.646   8.767   8.826  0.3071 -0.4409  0.0897
  773MOL0     C 6551   9.766   8.760   8.731  0.9208 -0.7006 -0.8807
  773MOL0     C 6552   9.849   8.893   8.716 -0.2230  0.0017 -0.1511
  773MOL0     N 6553   9.992   8.865   8.699 -0.0644  1.0810  0.5853
  773MOL0     C 6554  10.068   8.783   8.607  0.6246  0.0585  0.2318
  773MOL0     C 6555  10.193   8.819   8.614 -0.8919  1.0254 -1.2465
  773MOL0     C 6556  10.307   8.769   8.534  0.5674  0.1438 -0.5876
  773MOL0     C 6557  10.411   8.684   8.613  0.6449 -0.0264  0.3571
  773MOL0     C 6558  10.524   8.624   8.516 -0.2211  0.9091  0.2385
  773MOL0     C 6559  10.641   8.556   8.595 -0.1191  0.3744 -0.1835
  773MOL0     O 6560  10.734   8.514   8.492 -0.5273  0.4107 -0.6803
  773MOL0     C 6561  10.857   8.448   8.530 -0.9276 -0.7562  0.6864
  773MOL0     C 6562  10.931   8.377   8.435 -0.1150  0.7777 -0.0281
  773MOL0     C 6563  11.053   8.322   8.456 -0.3386  0.5252  0.2750
  773MOL0     C 6564  11.126   8.275   8.342  0.0192  0.5641 -0.6423
  773MOL0     C 6565  11.098   8.321   8.589 -0.7873 -0.4901 -0.7424
  773MOL0     C 6566  11.220   8.245   8.620  0.0483  0.0328 -0.8807
  773MOL0     O 6567  11.294   8.306   8.718 -0.5770  0.4684 -0.2911
  773MOL0     C 6568  11.423   8.283   8.749 -0.3152  0.2687 -0.1451
  773MOL0     C 6569  11.463   8.323   8.876 -0.4365 -0.1072 -0.0705
  773MOL0     C 6570  11.593   8.300   8.917  0.1235 -1.7746 -0.4260
  773MOL0     C 6571  11.693   8.253   8.832  0.4002 -0.2036  0.1999
  773MOL0     O 6572  11.808   8.229   8.890 -0.3618  0.2061 -0.3530
  773MOL0     C 6573  11.931   8.215   8.813  0.1538 -0.2277  0.0952
  773MOL0     C 6574  11.951   8.059   8.796  0.7302 -0.7515 -0.1004
  773MOL0     C 6575  12.086   8.032   8.726 -0.0358  0.7012 -0.2147
  773MOL0     C 6576  12.203   8.065   8.828  0.1101 -0.5335  0.2035
  773MOL0     C 6577  12.332   8.010   8.791  0.1069  0.6002 -0.3466
  773MOL0     C 6578  12.337   7.856   8.802 -0.4110 -0.1667  0.7867
  773MOL0     C 6579  12.299   7.796   8.936  0.4187 -0.0719 -1.7306
  773MOL0     C 6580  12.354   7.652   8.957 -0.1250  0.5091 -0.5078
  773MOL0    Cl 6581  12.532   7.684   8.972  0.2435 -0.1960 -0.0460
  773MOL0     C 6582  11.651   8.225   8.698 -0.1647  0.5220  0.4968
  773MOL0     C 6583  11.515   8.241   8.660  0.3713 -0.5481 -0.1514
  773MOL0     O 6584  11.246   8.140   8.561  0.5751 -0.1126  0.0679
  773MOL0     C 6585  11.027   8.380   8.690 -0.2187 -0.2192 -0.3369
  773MOL0     C 6586  10.907   8.448   8.661  0.3906 -1.0673 -0.7814
  773MOL0     N 6587  10.202   8.926   8.705  0.6376  0.2634 -0.0260
  773MOL0     N 6588  10.088   8.945   8.760 -0.1421 -0.6793  0.2572
  773MOL0     C 6589   8.752   9.074   8.976 -0.2264  0.1932 -0.8575
  773MOL0     C 6590   8.627   9.130   8.950  0.2738  0.8817  0.9334
  773MOL0     C 6591   8.282   9.365   8.795  0.0483  0.7334 -0.2271
  773MOL0     C 6592   8.251   9.448   8.908 -0.3731 -0.3285 -0.5110
  773MOL0     C 6593   8.136   9.528   8.905 -0.1566 -0.9075 -0.0839
  773MOL0     C 6594   8.035   9.506   8.808 -0.4392 -0.0888 -1.1500
  773MOL0     O 6595   7.925   9.583   8.799 -0.4974  0.2687 -0.3230
  773MOL0     C 6596   7.846   9.599   8.914 -0.2515  0.1936 -0.8849
  773MOL0     C 6597   7.770   9.467   8.945 -0.5019  0.9243  0.1400
  773MOL0     C 6598   7.668   9.428   8.831  0.2041  0.6230 -0.2871
  773MOL0     C 6599   7.561   9.528   8.792  0.4335 -0.4870 -0.3949
  773MOL0     C 6600   7.601   9.629   8.691  0.9054  0.0931 -0.0778
  773MOL0     C 6601   7.659   9.716   8.624  0.5016  0.3454 -0.1251
  773MOL0     C 6602   8.071   9.423   8.698  0.7672 -0.1415 -0.0646
  773MOL0     C 6603   8.190   9.349   8.686  0.8226  0.0422  0.7382
  773MOL0     C 6604   8.201   9.251   8.569  0.5024 -0.7514 -0.2381
  773MOL0     H 6605   8.710   9.442   8.856 -3.2539 -0.2802  2.4113
  773MOL0     H 6606   8.945   9.340   8.876  0.5811 -0.9282 -0.0700
  773MOL0     H 6607   9.169   9.209   8.903 -1.2125  0.6172  2.0935
  773MOL0     H 6608   9.093   9.111   8.778 -1.8817 -1.7979  0.5236
  773MOL0     H 6609   9.263   9.036   9.018  2.0307 -0.3880 -1.0734
  773MOL0     H 6610   9.165   8.916   8.959 -1.3064  0.7167  1.5056
  773MOL0     H 6611   9.312   8.970   8.714  0.8495  1.4166 -0.7675
  773MOL0     H 6612   9.380   9.092   8.815 -0.5560  0.6888 -2.4520
  773MOL0     H 6613   9.441   8.894   8.973 -2.1428 -0.8306  1.0428
  773MOL0     H 6614   9.373   8.783   8.868  0.5917  0.2624  2.0832
  773MOL0     H 6615   9.587   8.967   8.790 -0.3769 -0.1639 -0.0454
  773MOL0     H 6616   9.507   8.844   8.674 -1.6578  1.1054 -0.0527
  773MOL0     H 6617   9.669   8.803   8.927 -0.3881  0.0371  0.0823
  773MOL0     H 6618   9.609   8.664   8.829 -1.2148  0.0565 -0.5996
  773MOL0     H 6619   9.729   8.728   8.634  0.3605  0.5293 -1.0931
  773MOL0     H 6620   9.831   8.684   8.776  0.9514 -1.1360 -1.6525
  773MOL0     H 6621   9.813   8.951   8.631  0.8268 -1.2385 -1.4995
  773MOL0     H 6622   9.841   8.947   8.811  3.1948  0.3632  0.0493
  773MOL0     H 6623  10.030   8.707   8.540 -0.4435 -0.0969  0.9873
  773MOL0     H 6624  10.371   8.850   8.496 -0.2049  0.6075 -0.9041
  773MOL0     H 6625  10.265   8.719   8.446 -2.3019  0.8750  0.2944
  773MOL0     H 6626  10.443   8.737   8.703  1.2743  0.9809 -0.4386
  773MOL0     H 6627  10.357   8.601   8.658  1.9535 -0.8599  0.4418
  773MOL0     H 6628  10.479   8.547   8.452 -0.3203  1.5774 -0.5198
  773MOL0     H 6629  10.567   8.703   8.453  3.3947 -0.5965  0.6109
  773MOL0     H 6630  10.694   8.624   8.662  0.9074  0.8111 -1.3875
  773MOL0     H 6631  10.604   8.478   8.661 -0.1091  0.4808 -0.0524
  773MOL0     H 6632  10.891   8.379   8.334 -3.0551 -0.0818  1.0091
  773MOL0     H 6633  11.110   8.168   8.324  1.8450 -0.1864  1.6348
  773MOL0     H 6634  11.232   8.297   8.361  0.4074 -0.3821 -1.5969
  773MOL0     H 6635  11.095   8.323   8.249  0.5507 -0.6373 -1.4609
  773MOL0     H 6636  11.395   8.375   8.942  0.1918 -1.1222  1.4365
  773MOL0     H 6637  11.618   8.332   9.018 -0.8286 -0.5041 -0.5817
  773MOL0     H 6638  11.929   8.256   8.712  0.0303 -1.3331 -0.3741
  773MOL0     H 6639  12.022   8.258   8.856  0.3265 -1.7203  1.3309
  773MOL0     H 6640  11.939   8.001   8.888  3.8771 -1.3964  0.0201
  773MOL0     H 6641  11.874   8.013   8.735  1.7209 -2.5521 -0.0723
  773MOL0     H 6642  12.101   8.093   8.636  3.8805  1.1960  0.6154
  773MOL0     H 6643  12.082   7.930   8.687 -4.8565  0.6246 -0.0990
  773MOL0     H 6644  12.174   8.037   8.930 -2.2036  2.9171  0.6854
  773MOL0     H 6645  12.216   8.174   8.825  1.9260 -0.7214 -2.5776
  773MOL0     H 6646  12.370   8.032   8.690  1.5206  0.1398  0.0620
  773MOL0     H 6647  12.402   8.044   8.868 -0.0511  2.4746 -0.9733
  773MOL0     H 6648  12.442   7.833   8.783 -0.3797 -1.4170  2.3126
  773MOL0     H 6649  12.287   7.804   8.719 -0.1667 -2.2450  1.8721
  773MOL0     H 6650  12.191   7.790   8.953  0.9002  0.1012  2.1379
  773MOL0     H 6651  12.329   7.842   9.030 -1.7943 -2.2678  0.2020
  773MOL0     H 6652  12.336   7.588   8.870  2.4757  0.8917 -1.4144
  773MOL0     H 6653  12.309   7.607   9.046 -0.5423 -1.6919 -1.7609
  773MOL0     H 6654  11.722   8.178   8.630 -0.5832 -0.3166  0.6373
  773MOL0     H 6655  11.487   8.212   8.559  0.0846 -2.7547  0.4964
  773MOL0     H 6656  11.066   8.373   8.791 -0.4918  2.2491  0.0017
  773MOL0     H 6657  10.858   8.494   8.747  2.3363 -1.5251  0.6408
  773MOL0     H 6658   8.760   8.974   9.019 -0.5904 -0.5548 -2.4668
  773MOL0     H 6659   8.537   9.073   8.974  0.7145 -0.1960  0.1384
  773MOL0     H 6660   8.330   9.473   8.978  2.0133 -2.6609 -2.1842
  773MOL0     H 6661   8.122   9.604   8.981 -0.7442 -1.3576  0.2712
  773MOL0     H 6662   7.905   9.631   9.000 -2.7312 -1.0277  1.4139
  773MOL0     H 6663   7.782   9.684   8.887  1.5377  1.4298 -1.3678
  773MOL0     H 6664   7.733   9.479   9.047  3.5388  0.7435  1.8301
  773MOL0     H 6665   7.836   9.380   8.952 -0.1682  1.0661 -0.9725
  773MOL0     H 6666   7.739   9.400   8.753 -0.6665 -2.3816 -0.1260
  773MOL0     H 6667   7.614   9.339   8.862  2.9723 -0.1476  3.0318
  773MOL0     H 6668   7.516   9.576   8.880 -0.8179 -0.0657 -1.2443
  773MOL0     H 6669   7.479   9.469   8.752 -0.4044 -0.6663  1.4611
  773MOL0     H 6670   7.710   9.795   8.572  2.7290 -0.2075  1.1139
  773MOL0     H 6671   8.005   9.414   8.612  1.6113  0.2854 -0.7708
  773MOL0     H 6672   8.102   9.253   8.524  0.5921  1.1954 -0.4372
  773MOL0     H 6673   8.272   9.282   8.492  0.6568  1.0464  0.5709
  773MOL0     H 6674   8.228   9.152   8.607  0.6246  0.5186  3.4278
  774MOL0     O 6675  11.305   4.495   1.339 -0.7737  0.5765 -0.3695
  774MOL0     C 6676  11.292   4.610   1.301 -0.0675 -0.6327  0.6712
  774MOL0     O 6677  11.378   4.718   1.344  0.5364  0.3084 -0.1201
  774MOL0     C 6678  11.497   4.685   1.406  0.2083  0.0739  0.3901
  774MOL0     C 6679  11.574   4.562   1.395  0.0895  0.0188 -0.0990
  774MOL0     C 6680  11.696   4.545   1.454 -0.3332  0.4658 -0.1256
  774MOL0     C 6681  11.752   4.647   1.531 -0.3055  0.4790 -0.0403
  774MOL0     O 6682  11.872   4.638   1.602  0.1532  0.6373  0.2939
  774MOL0     C 6683  11.992   4.566   1.546  0.9668  0.4296 -0.8236
  774MOL0     C 6684  12.116   4.641   1.593 -0.3533  0.9236  0.6043
  774MOL0     C 6685  12.105   4.792   1.608 -0.2891  0.0583 -0.5829
  774MOL0     C 6686  12.244   4.843   1.644 -0.0389 -0.4841 -0.8506
  774MOL0     C 6687  12.233   4.986   1.702  0.5168 -0.1036  0.9418
  774MOL0     C 6688  12.371   5.052   1.741  1.0858 -0.0416  0.3425
  774MOL0     C 6689  12.445   5.097   1.613  0.2115  0.1908  0.0204
  774MOL0     C 6690  12.558   5.197   1.637  0.7562  0.2430 -0.8142
  774MOL0     N 6691  12.655   5.118   1.718  0.5634 -0.7680 -1.0870
  774MOL0     C 6692  12.711   4.994   1.698  0.1056 -0.2252 -0.1223
  774MOL0     C 6693  12.798   4.973   1.798 -0.9172  0.9048 -0.3856
  774MOL0     C 6694  12.875   4.843   1.814 -0.9191  0.1071  0.6290
  774MOL0     C 6695  13.028   4.868   1.830 -1.2180  0.4631  0.3937
  774MOL0     C 6696  13.100   4.750   1.759 -0.0758  0.1839  0.1019
  774MOL0     C 6697  13.251   4.758   1.734  0.3469 -0.1879  0.0186
  774MOL0     O 6698  13.265   4.844   1.620 -0.3420 -0.9703 -0.1252
  774MOL0     C 6699  13.387   4.878   1.561  0.4945  0.5580  0.9780
  774MOL0     C 6700  13.374   4.938   1.429  0.1692 -0.3562 -0.5708
  774MOL0     C 6701  13.486   4.964   1.344 -0.3795 -0.1191 -0.1710
  774MOL0     C 6702  13.459   5.012   1.210 -0.0220  0.5279 -0.4498
  774MOL0     C 6703  13.610   4.945   1.401 -0.2882 -0.3981  0.0436
  774MOL0     C 6704  13.731   4.981   1.314 -1.1077 -0.1697 -0.1141
  774MOL0     O 6705  13.846   4.909   1.353  0.8199 -0.0747  0.4473
  774MOL0     C 6706  13.967   4.939   1.296 -0.1021  0.1787  0.4085
  774MOL0     C 6707  14.026   5.069   1.287 -0.1339  0.2316 -0.4908
  774MOL0     C 6708  14.142   5.099   1.223 -0.0862  0.0212  0.3292
  774MOL0     C 6709  14.229   4.990   1.193 -0.2444 -0.0524 -0.1499
  774MOL0     O 6710  14.353   5.015   1.141 -0.2528 -0.4496  0.0941
  774MOL0     C 6711  14.457   4.929   1.185  0.4078 -0.1501  0.7891
  774MOL0     C 6712  14.597   4.967   1.146  0.3057 -0.3820  0.0974
  774MOL0     C 6713  14.634   4.979   1.000 -0.1729 -0.2413 -0.2784
  774MOL0     C 6714  14.782   5.006   0.977  0.2624 -0.0349 -0.3267
  774MOL0     C 6715  14.879   4.874   0.977  0.0984 -0.1778  0.1782
  774MOL0     C 6716  15.025   4.927   0.975  0.7138 -1.0708 -0.5976
  774MOL0     C 6717  15.132   4.815   0.985 -0.5259  0.7453 -0.1341
  774MOL0     C 6718  15.269   4.878   1.009 -0.2254  0.1204 -0.5881
  774MOL0    Cl 6719  15.414   4.761   1.000  0.0885 -0.6544 -0.0867
  774MOL0     C 6720  14.180   4.855   1.202 -0.1519  0.2662  0.0256
  774MOL0     C 6721  14.054   4.834   1.264  0.0790 -0.6694  0.1567
  774MOL0     O 6722  13.729   5.075   1.243 -0.5866  0.1300  0.4158
  774MOL0     C 6723  13.625   4.902   1.531 -0.8854 -1.1517 -0.7951
  774MOL0     C 6724  13.508   4.864   1.609 -1.0691 -0.6032  0.2528
  774MOL0     N 6725  12.804   5.091   1.879  0.8661  0.9166  0.9460
  774MOL0     N 6726  12.710   5.171   1.828  0.1892  0.7229 -0.4451
  774MOL0     C 6727  11.676   4.766   1.550  0.4256  0.0411  1.0302
  774MOL0     C 6728  11.551   4.783   1.486  0.3072  0.7274 -0.3570
  774MOL0     C 6729  11.188   4.638   1.206 -0.0356  0.1277 -0.2381
  774MOL0     C 6730  11.157   4.775   1.191  0.6000 -0.7552 -0.0056
  774MOL0     C 6731  11.060   4.812   1.104 -0.3653 -0.6700  1.2000
  774MOL0     C 6732  10.991   4.720   1.026  0.9838 -0.6856 -0.7754
  774MOL0     O 6733  10.891   4.778   0.953 -0.1252 -0.3487 -0.4663
  774MOL0     C 6734  10.935   4.817   0.829  0.6987  0.6636  0.1907
  774MOL0     C 6735  10.879   4.726   0.722  0.8993  0.6711  0.4972
  774MOL0     C 6736  10.932   4.769   0.585  0.0121 -0.9211  0.0467
  774MOL0     C 6737  10.861   4.688   0.477  0.3319  0.1986  0.6156
  774MOL0     C 6738  10.927   4.558   0.459 -0.2549  0.6890 -0.6278
  774MOL0     C 6739  10.971   4.450   0.440  0.0988  0.0397  0.3044
  774MOL0     C 6740  11.032   4.590   1.029  0.5089 -0.7750  0.0002
  774MOL0     C 6741  11.124   4.546   1.122 -0.1154 -0.2269 -0.7240
  774MOL0     C 6742  11.145   4.403   1.128  0.4096 -0.1064  0.1506
  774MOL0     H 6743  11.539   4.487   1.326  2.4953  1.4153 -3.0817
  774MOL0     H 6744  11.751   4.452   1.437  1.1860  1.6190 -1.8739
  774MOL0     H 6745  11.990   4.546   1.439  0.2918 -1.1747 -0.5431
  774MOL0     H 6746  11.999   4.467   1.593 -1.3781  1.3343  1.7328
  774MOL0     H 6747  12.150   4.600   1.688  0.1491 -1.2735 -0.4499
  774MOL0     H 6748  12.192   4.623   1.515  1.3177 -1.2635  2.5950
  774MOL0     H 6749  12.070   4.836   1.514 -2.1928 -1.0137 -0.4222
  774MOL0     H 6750  12.035   4.805   1.691 -0.4412 -3.6504  0.0108
  774MOL0     H 6751  12.270   4.775   1.725  0.0524  1.6819  1.0601
  774MOL0     H 6752  12.311   4.849   1.558  0.4299  1.3011 -0.4053
  774MOL0     H 6753  12.173   4.975   1.793 -1.8325 -1.4622 -0.6758
  774MOL0     H 6754  12.182   5.055   1.634  1.3825  0.2687  0.6561
  774MOL0     H 6755  12.346   5.138   1.804  0.6404 -0.2185  0.4102
  774MOL0     H 6756  12.441   4.986   1.794 -0.7022 -2.1756  0.1764
  774MOL0     H 6757  12.378   5.139   1.538 -0.3385 -3.7059 -1.8957
  774MOL0     H 6758  12.488   5.010   1.564  2.0606  1.3774 -0.5787
  774MOL0     H 6759  12.592   5.237   1.541 -0.8515  1.2453 -0.9984
  774MOL0     H 6760  12.526   5.286   1.692  1.2221 -0.3043  0.3793
  774MOL0     H 6761  12.706   4.935   1.607 -0.8199  1.1328 -0.9981
  774MOL0     H 6762  12.840   4.772   1.739  0.8953 -1.1055  0.8454
  774MOL0     H 6763  12.848   4.796   1.909  3.4395 -0.6273  1.7523
  774MOL0     H 6764  13.043   4.970   1.795 -1.1700  0.5347  0.6182
  774MOL0     H 6765  13.052   4.857   1.936 -1.5228 -2.5325  0.2337
  774MOL0     H 6766  13.080   4.661   1.818  0.7120  0.4332  0.7683
  774MOL0     H 6767  13.061   4.747   1.656 -1.0470  1.6441  0.4012
  774MOL0     H 6768  13.316   4.784   1.818  1.6354 -0.4968 -0.8467
  774MOL0     H 6769  13.286   4.659   1.701 -1.8666 -1.7664  2.0621
  774MOL0     H 6770  13.277   4.965   1.388 -0.1486  1.8074  1.3880
  774MOL0     H 6771  13.501   5.111   1.189 -0.1014  0.0847 -2.8850
  774MOL0     H 6772  13.351   5.026   1.200 -0.1799  0.4333  0.9232
  774MOL0     H 6773  13.495   4.942   1.135  0.2752 -0.6660  0.7790
  774MOL0     H 6774  13.975   5.158   1.321  2.4081  1.2762  0.8942
  774MOL0     H 6775  14.175   5.202   1.229  3.3907 -0.8932 -0.7193
  774MOL0     H 6776  14.449   4.922   1.294  0.5675  1.2530  0.9057
  774MOL0     H 6777  14.440   4.831   1.140  1.6812  0.1955 -0.5109
  774MOL0     H 6778  14.621   5.064   1.190  2.5811 -0.1817 -1.4115
  774MOL0     H 6779  14.663   4.892   1.192  0.7857  0.5770  1.0124
  774MOL0     H 6780  14.574   5.063   0.964 -0.6157  0.8073  2.6599
  774MOL0     H 6781  14.606   4.884   0.952 -1.5613 -0.0447  0.1126
  774MOL0     H 6782  14.813   5.082   1.050  0.3076 -1.2629  0.9722
  774MOL0     H 6783  14.800   5.045   0.877  0.6425  1.7992  0.4157
  774MOL0     H 6784  14.863   4.808   1.063 -1.5071 -1.8952 -1.3430
  774MOL0     H 6785  14.856   4.819   0.885  0.8831  0.1452 -0.2207
  774MOL0     H 6786  15.029   5.007   1.050  4.1371  0.9642 -2.6872
  774MOL0     H 6787  15.046   4.983   0.884  0.4936  0.1255  0.0626
  774MOL0     H 6788  15.138   4.768   0.887 -2.4857  3.5106 -1.7393
  774MOL0     H 6789  15.108   4.737   1.057 -0.7408  0.3634 -0.6139
  774MOL0     H 6790  15.272   4.919   1.110 -3.0545 -0.3948 -0.2275
  774MOL0     H 6791  15.291   4.958   0.936 -1.1357 -0.3056 -1.3474
  774MOL0     H 6792  14.216   4.761   1.163 -1.2500 -0.4243  0.5953
  774MOL0     H 6793  14.024   4.731   1.283  2.2788 -1.3055  0.5015
  774MOL0     H 6794  13.726   4.905   1.571 -1.1774  2.0581 -0.0525
  774MOL0     H 6795  13.526   4.813   1.703  3.3436  3.9954  2.3472
  774MOL0     H 6796  11.713   4.850   1.609  2.8254 -0.6247  0.5989
  774MOL0     H 6797  11.490   4.872   1.499 -2.2850 -1.0397  0.3886
  774MOL0     H 6798  11.218   4.851   1.239 -0.5330 -0.6716  1.3644
  774MOL0     H 6799  11.045   4.919   1.090 -0.2327 -0.8241 -0.2581
  774MOL0     H 6800  10.902   4.921   0.817 -0.3337  0.2347 -0.9171
  774MOL0     H 6801  11.044   4.827   0.824  0.6027  1.4153 -0.6636
  774MOL0     H 6802  10.770   4.720   0.735  0.8804 -0.2757  0.0278
  774MOL0     H 6803  10.914   4.624   0.744 -2.2215 -0.5759  0.3195
  774MOL0     H 6804  10.900   4.874   0.583 -0.8613 -1.1448  1.0338
  774MOL0     H 6805  11.040   4.753   0.574 -0.3364 -2.5248 -1.4579
  774MOL0     H 6806  10.872   4.732   0.378  1.9054  1.2008  1.1911
  774MOL0     H 6807  10.757   4.664   0.502  0.0204  1.2100  0.3266
  774MOL0     H 6808  11.012   4.352   0.426  0.8165  0.0585  2.0783
  774MOL0     H 6809  10.984   4.520   0.962 -4.2730  0.6817  1.5008
  774MOL0     H 6810  11.056   4.354   1.086  1.4948 -0.9074 -1.2835
  774MOL0     H 6811  11.224   4.370   1.061 -1.0623 -0.9574 -1.2312
  774MOL0     H 6812  11.153   4.361   1.229  2.0394 -0.0215  0.0780
  775MOL0     O 6813   4.002  11.222  10.857  0.0826 -0.0932 -0.0096
  775MOL0     C 6814   3.977  11.143  10.768 -0.2499  0.3905  0.1999
  775MOL0     O 6815   4.012  11.011  10.774  0.1385  0.0957 -0.4163
  775MOL0     C 6816   4.107  10.966  10.862  0.3390  0.1799  0.3673
  775MOL0     C 6817   4.074  10.860  10.948  0.0351  0.0526  0.7618
  775MOL0     C 6818   4.176  10.818  11.041  0.0540 -0.2150  0.5911
  775MOL0     C 6819   4.298  10.881  11.051  0.0315  0.7415 -0.0001
  775MOL0     O 6820   4.388  10.832  11.139  0.0197 -0.7043 -0.0220
  775MOL0     C 6821   4.375  10.699  11.192 -0.3394  0.0066 -1.0163
  775MOL0     C 6822   4.511  10.676  11.260  0.2339 -0.0136  0.6507
  775MOL0     C 6823   4.500  10.539  11.331 -0.0973 -0.3649 -0.0047
  775MOL0     C 6824   4.602  10.535  11.445 -1.0450 -0.8728 -0.0218
  775MOL0     C 6825   4.746  10.557  11.387  1.2407  0.2621 -0.5422
  775MOL0     C 6826   4.855  10.496  11.476  0.8695 -0.2688  0.3790
  775MOL0     C 6827   4.995  10.474  11.414  0.3183 -0.0199 -0.3167
  775MOL0     C 6828   5.065  10.612  11.380  0.4566  0.4286 -0.4055
  775MOL0     N 6829   5.165  10.640  11.479  0.0974 -0.5712  0.3525
  775MOL0     C 6830   5.281  10.564  11.509 -0.4709  0.0947 -0.2921
  775MOL0     C 6831   5.356  10.641  11.599  0.2947  0.1014  0.0722
  775MOL0     C 6832   5.491  10.607  11.664  0.5339  0.2088  0.2005
  775MOL0     C 6833   5.602  10.627  11.563 -0.8212 -1.1668  0.0109
  775MOL0     C 6834   5.638  10.498  11.499  0.8730  0.5366 -0.5888
  775MOL0     C 6835   5.756  10.515  11.410 -0.3687  0.9557  0.0137
  775MOL0     O 6836   5.819  10.392  11.360  0.4923 -0.1848 -0.0963
  775MOL0     C 6837   5.918  10.404  11.259  0.8352  0.2184  0.1980
  775MOL0     C 6838   5.972  10.280  11.205  0.1838  0.6810  0.2065
  775MOL0     C 6839   6.062  10.278  11.092 -0.3410  0.7374  0.3665
  775MOL0     C 6840   6.094  10.139  11.027 -0.0537  0.2815 -0.3797
  775MOL0     C 6841   6.111  10.395  11.043 -0.7460 -0.4428 -0.2967
  775MOL0     C 6842   6.197  10.384  10.929 -0.1127 -0.0624 -0.1187
  775MOL0     O 6843   6.300  10.300  10.935 -0.4796  0.3559  0.7334
  775MOL0     C 6844   6.376  10.292  10.823  0.2517 -0.5394  0.3871
  775MOL0     C 6845   6.406  10.396  10.729 -0.4647 -0.6854  0.2778
  775MOL0     C 6846   6.476  10.364  10.603  0.0497  0.1027  0.2240
  775MOL0     C 6847   6.512  10.233  10.586 -0.3347  0.5092  0.3294
  775MOL0     O 6848   6.592  10.198  10.478 -0.0695  0.3312  0.1651
  775MOL0     C 6849   6.550  10.241  10.346 -0.5017  0.3533 -0.2229
  775MOL0     C 6850   6.432  10.153  10.306 -0.7199  0.1565  0.2625
  775MOL0     C 6851   6.400  10.169  10.153  0.1542 -0.4475 -0.1379
  775MOL0     C 6852   6.284  10.078  10.126 -0.0131 -0.2046 -0.3594
  775MOL0     C 6853   6.245  10.106   9.984  0.4906 -0.8313  0.3491
  775MOL0     C 6854   6.153  10.001   9.931  0.5789  0.8966  0.0176
  775MOL0     C 6855   6.077  10.020   9.793 -0.6251 -0.1153 -0.4996
  775MOL0     C 6856   5.972  10.133   9.807  0.4421 -0.5575 -0.2594
  775MOL0    Cl 6857   5.834  10.084   9.928 -0.1578 -0.2904 -0.0736
  775MOL0     C 6858   6.478  10.132  10.674 -0.3228  0.3959 -0.0683
  775MOL0     C 6859   6.409  10.160  10.785  0.9906 -0.4908 -0.3227
  775MOL0     O 6860   6.165  10.461  10.835 -0.1461  0.2436  0.0362
  775MOL0     C 6861   6.066  10.522  11.103 -0.5414  0.3986 -1.0122
  775MOL0     C 6862   5.967  10.530  11.210  1.2323 -0.2899  0.3469
  775MOL0     N 6863   5.273  10.757  11.622 -0.5999 -0.7327 -0.2716
  775MOL0     N 6864   5.167  10.753  11.556 -0.0016 -0.3215 -0.2124
  775MOL0     C 6865   4.313  10.995  10.975  0.6046  0.8050 -0.3294
  775MOL0     C 6866   4.221  11.033  10.880 -0.6394  0.4581  0.0857
  775MOL0     C 6867   3.885  11.174  10.656 -0.1449  0.4551 -0.0251
  775MOL0     C 6868   3.837  11.074  10.578  1.1440 -0.0174  0.1344
  775MOL0     C 6869   3.744  11.098  10.481 -0.0936  1.5847  0.7278
  775MOL0     C 6870   3.709  11.222  10.445 -0.3716 -1.0486  0.0689
  775MOL0     O 6871   3.603  11.252  10.361 -0.2728  0.1893  0.0122
  775MOL0     C 6872   3.503  11.147  10.365  0.0186  0.3466 -0.0181
  775MOL0     C 6873   3.375  11.200  10.302 -0.3496  0.0811 -0.3568
  775MOL0     C 6874   3.271  11.084  10.295  0.0087 -0.2338  0.4074
  775MOL0     C 6875   3.227  11.027  10.424 -0.3581 -0.6562  0.1241
  775MOL0     C 6876   3.108  10.942  10.391  0.2348  0.6278  0.4965
  775MOL0     C 6877   3.019  10.872  10.352  0.2252 -0.4554 -0.1313
  775MOL0     C 6878   3.780  11.328  10.503  0.1645 -0.3418 -0.7256
  775MOL0     C 6879   3.871  11.304  10.613  0.2039  0.0133  0.0477
  775MOL0     C 6880   3.934  11.423  10.674 -0.2355 -0.6573 -0.2264
  775MOL0     H 6881   3.969  10.835  10.939  0.0157  0.6353 -0.9004
  775MOL0     H 6882   4.153  10.735  11.107 -1.3172  0.5071  1.0463
  775MOL0     H 6883   4.349  10.620  11.122  2.6543 -0.0738 -2.1786
  775MOL0     H 6884   4.299  10.688  11.270  0.3169 -1.5115 -0.5634
  775MOL0     H 6885   4.591  10.668  11.187  0.6957  0.0620  1.1456
  775MOL0     H 6886   4.529  10.760  11.328 -3.0884 -1.6012  3.8391
  775MOL0     H 6887   4.402  10.533  11.379  0.5661 -3.7378  1.2492
  775MOL0     H 6888   4.507  10.461  11.254 -0.9189  1.7830 -2.4036
  775MOL0     H 6889   4.583  10.616  11.516 -0.9031  0.5972 -1.5899
  775MOL0     H 6890   4.591  10.440  11.497  0.0528 -0.8684  0.2421
  775MOL0     H 6891   4.766  10.665  11.378 -0.8582  0.8728  1.3408
  775MOL0     H 6892   4.756  10.507  11.290 -2.6525 -0.9613 -0.4841
  775MOL0     H 6893   4.858  10.552  11.570  1.3079  0.6625 -0.1791
  775MOL0     H 6894   4.819  10.398  11.510 -2.1841  0.4209 -0.5897
  775MOL0     H 6895   4.973  10.403  11.334 -0.9708 -1.8031  1.5298
  775MOL0     H 6896   5.058  10.416  11.481 -2.4453 -1.4037  1.2339
  775MOL0     H 6897   5.113  10.600  11.283  0.5833  1.3075 -0.4540
  775MOL0     H 6898   4.988  10.690  11.380  0.3183  0.4167  2.7363
  775MOL0     H 6899   5.310  10.472  11.461  1.4256 -0.0248  0.9775
  775MOL0     H 6900   5.489  10.506  11.706 -0.7429  0.4479  0.7527
  775MOL0     H 6901   5.507  10.679  11.745  0.1863  0.5863 -0.0583
  775MOL0     H 6902   5.587  10.700  11.484  1.4816 -2.0522 -1.3307
  775MOL0     H 6903   5.688  10.669  11.615 -1.6509 -1.1943  1.4859
  775MOL0     H 6904   5.663  10.437  11.586  1.9522  1.0574 -0.5302
  775MOL0     H 6905   5.551  10.451  11.452 -1.0594 -0.7020  3.7015
  775MOL0     H 6906   5.734  10.579  11.324 -0.8309 -1.1863 -1.5559
  775MOL0     H 6907   5.828  10.565  11.475  1.4570 -0.0146 -1.1399
  775MOL0     H 6908   5.932  10.184  11.236 -0.8940  1.1036  0.1737
  775MOL0     H 6909   6.073  10.148  10.920  3.2351 -0.5312 -1.1952
  775MOL0     H 6910   6.018  10.071  11.068 -1.0341  2.0100  0.8383
  775MOL0     H 6911   6.195  10.104  11.051 -0.1784  0.3304  0.2506
  775MOL0     H 6912   6.379  10.501  10.739  1.8549 -0.0619  0.5002
  775MOL0     H 6913   6.516  10.447  10.546  1.3359  0.0713  1.0481
  775MOL0     H 6914   6.527  10.348  10.345 -0.7141  0.3107  0.0358
  775MOL0     H 6915   6.632  10.219  10.277 -0.7944 -3.2205  0.4269
  775MOL0     H 6916   6.466  10.051  10.327  0.9139  0.5085 -0.4521
  775MOL0     H 6917   6.350  10.182  10.372 -0.3966  4.5132 -0.9207
  775MOL0     H 6918   6.486  10.153  10.087  0.9222 -0.7694  0.9029
  775MOL0     H 6919   6.367  10.273  10.148 -1.7928 -1.0405 -0.5445
  775MOL0     H 6920   6.208  10.113  10.197  2.2879  1.3032  1.5090
  775MOL0     H 6921   6.309   9.974  10.144  0.9883 -0.2505 -1.8684
  775MOL0     H 6922   6.184  10.196  10.000  0.9927 -0.6005  1.0460
  775MOL0     H 6923   6.328  10.113   9.913  1.0832 -3.4174  0.7091
  775MOL0     H 6924   6.076   9.995  10.008  0.7345 -2.2091  0.0311
  775MOL0     H 6925   6.211   9.909   9.929 -3.4476 -1.9503  1.0891
  775MOL0     H 6926   6.047   9.918   9.764  0.6730 -0.4842 -0.5764
  775MOL0     H 6927   6.142  10.054   9.712  2.6677 -0.8371  1.6379
  775MOL0     H 6928   5.925  10.146   9.709 -0.5419 -1.3740  0.0823
  775MOL0     H 6929   6.018  10.226   9.840 -0.6298 -0.6190  1.5364
  775MOL0     H 6930   6.507  10.031  10.644  3.4236  1.0915  0.6620
  775MOL0     H 6931   6.391  10.080  10.856  0.4096 -0.1700 -0.1053
  775MOL0     H 6932   6.109  10.609  11.054  0.0755 -0.4034 -1.9524
  775MOL0     H 6933   5.932  10.623  11.253  0.0428  0.2021 -1.5691
  775MOL0     H 6934   4.413  11.036  10.977  1.6486 -1.5897  0.2874
  775MOL0     H 6935   4.255  11.111  10.814 -1.0493 -0.9568 -1.8910
  775MOL0     H 6936   3.867  10.971  10.589 -1.0323 -0.9102 -1.5535
  775MOL0     H 6937   3.716  11.010  10.423  0.1655  2.2487 -0.4274
  775MOL0     H 6938   3.537  11.052  10.322 -2.5796 -0.2655 -0.8678
  775MOL0     H 6939   3.478  11.119  10.467 -1.9858 -0.7616 -0.7653
  775MOL0     H 6940   3.392  11.229  10.198  0.7383  3.2949  0.6114
  775MOL0     H 6941   3.341  11.286  10.359 -0.3855  1.3838 -2.2457
  775MOL0     H 6942   3.183  11.128  10.247 -0.3427 -2.3274 -1.0158
  775MOL0     H 6943   3.302  10.999  10.233 -2.1962 -0.2155 -0.8272
  775MOL0     H 6944   3.193  11.108  10.489  0.2826  0.5430 -0.9994
  775MOL0     H 6945   3.306  10.969  10.472 -0.4678 -0.5132  0.4842
  775MOL0     H 6946   2.938  10.803  10.336  0.5799 -0.6375 -1.1764
  775MOL0     H 6947   3.760  11.429  10.469 -0.9068  0.1368  1.2322
  775MOL0     H 6948   3.893  11.508  10.621 -1.6474 -0.6053  0.8868
  775MOL0     H 6949   3.906  11.439  10.779 -1.3127 -2.3405 -0.2117
  775MOL0     H 6950   4.043  11.424  10.678 -0.2201 -2.0564  1.4669
  776MOL0     O 6951   8.873  11.352   1.209 -0.2679  0.4456 -0.4358
  776MOL0     C 6952   8.840  11.466   1.190 -0.6514 -0.2322 -1.1126
  776MOL0     O 6953   8.883  11.579   1.256 -0.7473  0.1108 -0.4210
  776MOL0     C 6954   8.983  11.579   1.356  0.6868  0.1986 -0.3649
  776MOL0     C 6955   9.083  11.676   1.342  0.3433 -0.9130  0.0657
  776MOL0     C 6956   9.177  11.690   1.441  0.3565 -0.8861 -0.2633
  776MOL0     C 6957   9.166  11.619   1.563  0.5249 -0.6680 -0.5674
  776MOL0     O 6958   9.255  11.651   1.660  0.1586  0.3165 -0.9092
  776MOL0     C 6959   9.221  11.622   1.804  0.2948 -0.3596  0.1799
  776MOL0     C 6960   9.320  11.707   1.887 -0.1820 -0.3985 -0.3597
  776MOL0     C 6961   9.294  11.857   1.858 -1.2924  0.2798 -0.4118
  776MOL0     C 6962   9.381  11.949   1.945 -0.5800 -0.3509  0.0850
  776MOL0     C 6963   9.314  12.095   1.948 -0.2754 -0.5226 -0.2381
  776MOL0     C 6964   9.423  12.211   1.958 -0.2034 -0.2848  0.0695
  776MOL0     C 6965   9.520  12.200   2.078  0.3100  0.8752 -1.0436
  776MOL0     C 6966   9.441  12.241   2.208 -1.0991  0.3374 -0.7769
  776MOL0     N 6967   9.522  12.237   2.330  0.1607 -0.5203  0.2812
  776MOL0     C 6968   9.514  12.134   2.424  0.3299 -0.3198  0.4125
  776MOL0     C 6969   9.599  12.173   2.519 -0.6518  0.4877 -0.1217
  776MOL0     C 6970   9.622  12.089   2.642 -0.0714  0.1276  0.1206
  776MOL0     C 6971   9.519  12.130   2.753 -0.2334 -0.1196  0.1914
  776MOL0     C 6972   9.442  12.013   2.814  0.3674 -0.3900  0.9780
  776MOL0     C 6973   9.523  11.940   2.917 -0.4420 -0.3471  0.6599
  776MOL0     O 6974   9.559  12.018   3.029  0.1596  0.7247  0.1350
  776MOL0     C 6975   9.645  11.962   3.123 -0.7284  0.2050 -0.0323
  776MOL0     C 6976   9.647  12.038   3.243 -0.4848  0.5243 -0.2586
  776MOL0     C 6977   9.734  12.003   3.347 -0.6657 -0.3388 -0.1035
  776MOL0     C 6978   9.750  12.113   3.455  0.5805 -0.1636 -0.1556
  776MOL0     C 6979   9.827  11.900   3.332 -0.7800 -0.6273 -0.2375
  776MOL0     C 6980   9.942  11.867   3.423  0.4555 -0.3202 -0.3777
  776MOL0     O 6981  10.037  11.789   3.373 -0.9781 -0.0057  0.6693
  776MOL0     C 6982  10.153  11.773   3.443  0.0252  0.0565 -0.8052
  776MOL0     C 6983  10.223  11.869   3.529  0.3871 -0.0591 -0.6416
  776MOL0     C 6984  10.341  11.838   3.589 -0.2968 -0.2244 -0.3954
  776MOL0     C 6985  10.399  11.716   3.567 -0.4420  0.3240  0.3229
  776MOL0     O 6986  10.517  11.703   3.637  0.4369 -0.1290  0.3336
  776MOL0     C 6987  10.555  11.573   3.671 -0.7201  0.2199  0.3494
  776MOL0     C 6988  10.688  11.573   3.750 -0.1668 -0.4947 -0.2947
  776MOL0     C 6989  10.723  11.429   3.805  0.6877 -0.0400 -0.1787
  776MOL0     C 6990  10.857  11.452   3.877  0.4514 -1.2088  0.5303
  776MOL0     C 6991  10.913  11.309   3.912  0.0516  0.4787 -0.1774
  776MOL0     C 6992  10.850  11.256   4.041 -0.2199  0.4531  1.0505
  776MOL0     C 6993  10.888  11.116   4.082 -0.2216  0.7677  0.4221
  776MOL0     C 6994  10.889  11.090   4.239  0.3507 -0.3858  0.6597
  776MOL0    Cl 6995  10.735  11.155   4.313  0.0352  0.0868 -0.0214
  776MOL0     C 6996  10.335  11.625   3.486  0.3714  0.2871 -0.1311
  776MOL0     C 6997  10.215  11.652   3.422 -0.5890 -0.1903  0.0298
  776MOL0     O 6998   9.930  11.900   3.541  0.6979  0.2499 -0.7435
  776MOL0     C 6999   9.821  11.820   3.211 -0.2692 -0.5749 -0.0955
  776MOL0     C 7000   9.735  11.863   3.103 -0.1392 -0.3204 -0.1206
  776MOL0     N 7001   9.642  12.304   2.496 -0.4241  0.1626  0.5763
  776MOL0     N 7002   9.597  12.338   2.382 -0.2714  0.2532 -0.3240
  776MOL0     C 7003   9.066  11.522   1.581 -0.0874  0.5908  0.2774
  776MOL0     C 7004   8.974  11.501   1.473  1.3713 -0.3982 -0.0225
  776MOL0     C 7005   8.727  11.494   1.098 -0.6620 -0.0737 -0.2201
  776MOL0     C 7006   8.730  11.617   1.032  0.6912 -0.8438 -0.6807
  776MOL0     C 7007   8.615  11.667   0.970  0.2221 -0.0466  0.4349
  776MOL0     C 7008   8.500  11.592   0.964 -0.2739  0.7509  0.0345
  776MOL0     O 7009   8.396  11.638   0.891 -0.1826 -0.1358 -0.1523
  776MOL0     C 7010   8.270  11.564   0.864 -0.4329 -0.2028 -0.7603
  776MOL0     C 7011   8.161  11.666   0.860  0.2909 -0.2189 -0.9125
  776MOL0     C 7012   8.140  11.741   0.725 -0.8712 -0.0070  0.4702
  776MOL0     C 7013   8.025  11.838   0.742 -0.8416  0.4724  0.0420
  776MOL0     C 7014   7.966  11.879   0.621 -0.4834 -0.3945 -0.3435
  776MOL0     C 7015   7.906  11.932   0.524 -0.1031  0.3098  0.1973
  776MOL0     C 7016   8.501  11.464   1.020  0.7309 -0.5256  0.7453
  776MOL0     C 7017   8.610  11.411   1.086  0.1796  0.5654 -0.7767
  776MOL0     C 7018   8.606  11.278   1.151 -0.5565 -0.4789 -0.1777
  776MOL0     H 7019   9.094  11.746   1.259  1.5701  0.3769  1.2613
  776MOL0     H 7020   9.256  11.765   1.436 -1.0368  0.6692  0.1882
  776MOL0     H 7021   9.223  11.516   1.831  0.9452 -0.2216  0.6842
  776MOL0     H 7022   9.118  11.650   1.830  0.5403 -0.4605  1.3138
  776MOL0     H 7023   9.301  11.698   1.994 -1.9645 -0.4004 -0.6374
  776MOL0     H 7024   9.424  11.690   1.860 -0.3117  1.6903 -2.5864
  776MOL0     H 7025   9.320  11.882   1.755 -0.9850  1.4891 -0.0576
  776MOL0     H 7026   9.191  11.888   1.879 -0.8373  0.9481  0.9462
  776MOL0     H 7027   9.385  11.918   2.049 -0.2396  1.1054  0.5258
  776MOL0     H 7028   9.490  11.949   1.930 -0.6689  1.5346 -0.8569
  776MOL0     H 7029   9.244  12.083   2.031 -1.7827 -0.4895 -1.4632
  776MOL0     H 7030   9.244  12.120   1.867  0.1598  2.5495  0.2139
  776MOL0     H 7031   9.482  12.203   1.866  0.6765  0.0470  0.5904
  776MOL0     H 7032   9.379  12.311   1.954  0.0116 -0.0223  2.7673
  776MOL0     H 7033   9.609  12.263   2.063  0.0849  1.1013 -1.4425
  776MOL0     H 7034   9.558  12.098   2.086 -0.5752  0.4224 -2.3580
  776MOL0     H 7035   9.388  12.336   2.208 -4.3724 -1.2676  1.8200
  776MOL0     H 7036   9.359  12.171   2.225 -0.8084 -0.1312 -1.2501
  776MOL0     H 7037   9.464  12.037   2.420 -0.1137 -0.1487  1.4813
  776MOL0     H 7038   9.723  12.111   2.677 -0.3998  0.8932  0.6162
  776MOL0     H 7039   9.599  11.986   2.613 -4.1663  0.7490  0.5245
  776MOL0     H 7040   9.568  12.183   2.836  0.7122 -0.2205 -0.2865
  776MOL0     H 7041   9.440  12.191   2.708 -3.1870 -3.4046  0.5301
  776MOL0     H 7042   9.346  12.053   2.846  0.8954  0.9260  0.9674
  776MOL0     H 7043   9.416  11.946   2.731 -2.9484 -1.4569  2.7215
  776MOL0     H 7044   9.458  11.857   2.945  0.2787 -0.7913  1.0577
  776MOL0     H 7045   9.615  11.901   2.871  0.5475 -0.1361  2.3623
  776MOL0     H 7046   9.577  12.121   3.246  0.4003  1.3251 -1.0658
  776MOL0     H 7047   9.746  12.072   3.557 -0.8726  0.7036  0.1580
  776MOL0     H 7048   9.677  12.193   3.446  1.4411  0.5683 -0.7856
  776MOL0     H 7049   9.851  12.153   3.439  1.0423 -0.2271  2.2169
  776MOL0     H 7050  10.173  11.962   3.555 -0.6839 -0.8664  0.2827
  776MOL0     H 7051  10.383  11.906   3.662 -3.2202  0.3687  0.8673
  776MOL0     H 7052  10.472  11.519   3.718 -1.2321  1.5539  1.0156
  776MOL0     H 7053  10.571  11.515   3.579 -4.4923  0.1994 -0.4670
  776MOL0     H 7054  10.756  11.612   3.673 -2.7463 -0.4684 -2.6916
  776MOL0     H 7055  10.668  11.636   3.838  1.5253 -0.8871  0.4166
  776MOL0     H 7056  10.744  11.366   3.718 -0.5308 -2.7753  1.3702
  776MOL0     H 7057  10.650  11.394   3.878 -0.4983  2.3869 -0.1115
  776MOL0     H 7058  10.829  11.522   3.957  1.2134  0.4355 -0.5815
  776MOL0     H 7059  10.945  11.490   3.823  0.7348 -1.2223  0.9692
  776MOL0     H 7060  10.890  11.239   3.831 -3.4482 -0.1881  1.2374
  776MOL0     H 7061  11.021  11.317   3.930  0.7631 -4.8900 -0.6003
  776MOL0     H 7062  10.742  11.267   4.022 -0.4425 -1.6749  0.8327
  776MOL0     H 7063  10.882  11.332   4.113 -1.4710  1.9968  0.0518
  776MOL0     H 7064  10.987  11.094   4.041  0.3403  1.3312  1.4499
  776MOL0     H 7065  10.819  11.038   4.048  0.2422  1.1038 -1.4094
  776MOL0     H 7066  10.975  11.144   4.279 -0.0249  0.7149  0.0206
  776MOL0     H 7067  10.912  10.984   4.255 -0.4240 -0.5272  0.8967
  776MOL0     H 7068  10.380  11.529   3.461  0.5296  0.7130 -1.6198
  776MOL0     H 7069  10.159  11.584   3.359 -1.4151  0.9945 -0.5348
  776MOL0     H 7070   9.884  11.732   3.206  0.4095 -0.0604 -0.7756
  776MOL0     H 7071   9.758  11.810   3.012 -1.0840 -1.9681  0.5516
  776MOL0     H 7072   9.059  11.470   1.676  0.8445  0.1176  0.0983
  776MOL0     H 7073   8.890  11.434   1.483  0.2588  0.8774 -0.4649
  776MOL0     H 7074   8.818  11.681   1.029  0.3329 -0.3203 -0.1677
  776MOL0     H 7075   8.604  11.765   0.925 -0.4699  0.0214  0.7401
  776MOL0     H 7076   8.274  11.516   0.766  0.2019  0.2394 -0.9524
  776MOL0     H 7077   8.256  11.504   0.954  2.0466  1.5041  0.8944
  776MOL0     H 7078   8.176  11.739   0.940 -0.0023  0.9580 -1.9065
  776MOL0     H 7079   8.071  11.607   0.880  0.0849  0.8219  1.7559
  776MOL0     H 7080   8.231  11.793   0.695 -1.0549 -1.2941 -2.6306
  776MOL0     H 7081   8.128  11.672   0.641  0.2870 -0.6838  0.8395
  776MOL0     H 7082   8.055  11.927   0.798 -0.6209  0.4605 -0.0566
  776MOL0     H 7083   7.947  11.787   0.800  0.6275 -0.4742  1.2346
  776MOL0     H 7084   7.846  11.969   0.444  0.6949  0.5041 -0.3321
  776MOL0     H 7085   8.410  11.404   1.021  0.2222  0.2407  0.6719
  776MOL0     H 7086   8.518  11.218   1.128  0.7642 -2.8737  0.6611
  776MOL0     H 7087   8.686  11.213   1.113 -0.1416 -0.0597 -0.0334
  776MOL0     H 7088   8.613  11.288   1.260  2.2339 -3.5398  0.1020
  777MOL0     O 7089   0.918   7.734   0.914  0.1844  0.4735 -0.1243
  777MOL0     C 7090   0.855   7.789   1.007  1.2629 -1.1762 -0.1182
  777MOL0     O 7091   0.917   7.845   1.115 -0.3173  0.0931  0.6656
  777MOL0     C 7092   1.055   7.850   1.099  0.5296 -0.8202 -0.1231
  777MOL0     C 7093   1.120   7.968   1.068  0.5735  0.2965 -0.0828
  777MOL0     C 7094   1.260   7.971   1.063  0.1645  0.3536 -0.1598
  777MOL0     C 7095   1.342   7.858   1.083  0.4344 -0.7616 -0.0815
  777MOL0     O 7096   1.476   7.878   1.069  0.2045 -0.0976 -0.0870
  777MOL0     C 7097   1.560   7.786   1.143 -0.5516  0.0502  0.0396
  777MOL0     C 7098   1.681   7.859   1.208  0.2909  0.0854 -1.0088
  777MOL0     C 7099   1.808   7.779   1.195  0.3158 -0.2891 -0.4527
  777MOL0     C 7100   1.937   7.834   1.257 -0.1410  0.0584 -0.6255
  777MOL0     C 7101   2.053   7.732   1.267  1.0616  0.0995  0.4224
  777MOL0     C 7102   2.160   7.761   1.369 -0.7620 -0.3251  0.3104
  777MOL0     C 7103   2.246   7.881   1.336 -0.0430 -0.3646 -0.0091
  777MOL0     C 7104   2.318   7.942   1.456 -0.0234  0.4671  0.0148
  777MOL0     N 7105   2.413   7.864   1.523 -0.3210 -0.8483  0.7510
  777MOL0     C 7106   2.375   7.784   1.629 -0.2326 -1.1407 -0.0675
  777MOL0     C 7107   2.491   7.751   1.688  0.3834 -0.0295  0.2931
  777MOL0     C 7108   2.503   7.660   1.799 -0.5214 -1.6393  0.6708
  777MOL0     C 7109   2.608   7.554   1.782  0.3282  0.3918  0.9731
  777MOL0     C 7110   2.539   7.450   1.691 -0.0175  0.0131  0.4140
  777MOL0     C 7111   2.649   7.354   1.640  0.1068  0.7503 -0.0831
  777MOL0     O 7112   2.593   7.267   1.535 -0.0304 -0.5768 -0.3871
  777MOL0     C 7113   2.668   7.175   1.471 -0.9371  0.9087  0.1066
  777MOL0     C 7114   2.627   7.128   1.354  0.0569  0.4324  1.0652
  777MOL0     C 7115   2.706   7.047   1.270 -0.0840 -0.7345 -0.0064
  777MOL0     C 7116   2.640   7.005   1.138  1.2468  0.0681  0.5533
  777MOL0     C 7117   2.830   7.005   1.314 -0.0959 -0.6141  1.0730
  777MOL0     C 7118   2.931   6.927   1.229 -0.2250  1.0924 -0.0588
  777MOL0     O 7119   2.901   6.903   1.096 -0.3328  0.0141 -0.2711
  777MOL0     C 7120   2.987   6.842   1.007  0.1554 -0.2924  0.1049
  777MOL0     C 7121   3.090   6.909   0.940 -0.2134 -0.4926  0.5917
  777MOL0     C 7122   3.193   6.834   0.867  0.2313  0.0647  0.2731
  777MOL0     C 7123   3.170   6.698   0.848 -0.1496 -0.3477 -0.3113
  777MOL0     O 7124   3.258   6.631   0.768 -0.2169 -0.0685  0.2223
  777MOL0     C 7125   3.242   6.685   0.636  0.0135 -0.0033  0.3530
  777MOL0     C 7126   3.305   6.591   0.528 -0.2077 -0.0196  0.1966
  777MOL0     C 7127   3.308   6.669   0.396  0.8239  0.3243 -0.8682
  777MOL0     C 7128   3.424   6.618   0.307 -0.4992 -0.1386  0.4801
  777MOL0     C 7129   3.429   6.705   0.182  0.6085 -0.5865 -0.4821
  777MOL0     C 7130   3.548   6.670   0.091 -0.4193 -0.9501  0.2295
  777MOL0     C 7131   3.579   6.766  -0.024 -0.5604  0.0248 -0.0219
  777MOL0     C 7132   3.604   6.713  -0.164 -0.1278 -0.0838  0.4949
  777MOL0    Cl 7133   3.632   6.860  -0.267 -0.3070  0.1359  0.1094
  777MOL0     C 7134   3.066   6.627   0.916 -0.1179  0.0217  0.1599
  777MOL0     C 7135   2.976   6.703   0.991 -0.3155  0.1622 -0.5471
  777MOL0     O 7136   3.039   6.904   1.277  0.2320  1.0005 -0.0793
  777MOL0     C 7137   2.873   7.055   1.437  0.6381  0.0265  0.2382
  777MOL0     C 7138   2.799   7.131   1.520  0.6319  0.7608 -0.0733
  777MOL0     N 7139   2.595   7.812   1.621  0.5787 -0.3907  0.1281
  777MOL0     N 7140   2.546   7.878   1.521  0.2289 -0.3276  0.1887
  777MOL0     C 7141   1.271   7.731   1.099 -0.1675  0.6519  0.7744
  777MOL0     C 7142   1.133   7.733   1.115  0.0388  0.5580  0.2071
  777MOL0     C 7143   0.708   7.775   1.012 -0.3339 -0.3254 -0.4246
  777MOL0     C 7144   0.637   7.758   0.887  0.5257  0.3552 -0.4884
  777MOL0     C 7145   0.495   7.757   0.882 -0.1817 -0.3812 -0.2201
  777MOL0     C 7146   0.427   7.758   1.005 -0.0454  1.4114  0.0228
  777MOL0     O 7147   0.292   7.755   1.013  0.7288  0.2557 -0.0520
  777MOL0     C 7148   0.208   7.726   0.899  0.6804 -0.0528 -0.3539
  777MOL0     C 7149   0.068   7.703   0.947 -0.2687 -1.0557  0.5816
  777MOL0     C 7150   0.015   7.835   1.007 -0.1171 -0.1621  0.4373
  777MOL0     C 7151  -0.130   7.819   1.038 -0.9851  0.0915 -0.2888
  777MOL0     C 7152  -0.177   7.950   1.074 -0.0529 -0.6260 -0.3807
  777MOL0     C 7153  -0.220   8.061   1.116 -0.2810  0.1454 -0.8179
  777MOL0     C 7154   0.497   7.766   1.122  0.4910 -0.9466 -0.6204
  777MOL0     C 7155   0.634   7.761   1.132 -0.5629  0.4091  0.7641
  777MOL0     C 7156   0.698   7.733   1.269  0.4641  0.0985  0.6813
  777MOL0     H 7157   1.051   8.050   1.053  1.4470  0.7342 -2.2329
  777MOL0     H 7158   1.305   8.069   1.051 -0.7942  0.6451 -1.5219
  777MOL0     H 7159   1.592   7.712   1.069 -2.4726  0.6494 -1.4923
  777MOL0     H 7160   1.494   7.736   1.214  1.2211 -0.0463  1.6944
  777MOL0     H 7161   1.685   7.949   1.146 -0.2768 -1.3034 -3.1715
  777MOL0     H 7162   1.644   7.887   1.307  1.4592 -0.5938 -0.3600
  777MOL0     H 7163   1.795   7.687   1.253 -0.8861  1.8687  2.9790
  777MOL0     H 7164   1.824   7.763   1.088  1.3028 -3.2463  0.0370
  777MOL0     H 7165   1.956   7.928   1.204  0.5833  1.6378  2.2190
  777MOL0     H 7166   1.900   7.850   1.359 -2.5290  2.0856 -1.7083
  777MOL0     H 7167   2.088   7.713   1.165  0.3677  3.3099 -0.5207
  777MOL0     H 7168   2.009   7.634   1.289  0.1194  0.5367  0.5441
  777MOL0     H 7169   2.113   7.795   1.462  2.9791  2.4975  1.3985
  777MOL0     H 7170   2.210   7.668   1.399 -0.3891  0.1081  1.0628
  777MOL0     H 7171   2.183   7.958   1.290  0.5538  1.6288  2.3064
  777MOL0     H 7172   2.319   7.844   1.264  0.2138 -1.6100  0.8683
  777MOL0     H 7173   2.373   8.030   1.422 -0.6161  1.5224  1.6294
  777MOL0     H 7174   2.240   7.983   1.522  0.2450  0.1248  0.5440
  777MOL0     H 7175   2.271   7.761   1.650 -0.8928  0.5857 -1.2235
  777MOL0     H 7176   2.407   7.615   1.826 -1.2032  2.0746  6.1563
  777MOL0     H 7177   2.529   7.722   1.885  0.6481  0.5486 -1.1669
  777MOL0     H 7178   2.691   7.599   1.727 -0.8154 -0.3194 -1.4963
  777MOL0     H 7179   2.630   7.505   1.878 -3.8834 -1.0514  1.4312
  777MOL0     H 7180   2.460   7.403   1.752 -1.6533 -0.8200 -2.1990
  777MOL0     H 7181   2.499   7.498   1.602 -0.0859 -0.2680  0.2939
  777MOL0     H 7182   2.724   7.418   1.592  3.2286 -1.0521  2.0614
  777MOL0     H 7183   2.699   7.304   1.722  0.6301  1.2392 -0.0984
  777MOL0     H 7184   2.534   7.162   1.311  0.6394 -2.6313 -3.2618
  777MOL0     H 7185   2.708   7.031   1.056 -0.9388  1.1944 -1.0254
  777MOL0     H 7186   2.540   7.047   1.120  1.9010  2.2428  1.6725
  777MOL0     H 7187   2.632   6.896   1.135  1.6266  0.0522 -0.1837
  777MOL0     H 7188   3.111   7.014   0.955 -2.0193 -0.1013  0.6052
  777MOL0     H 7189   3.275   6.894   0.829  2.1315 -2.7740 -0.4302
  777MOL0     H 7190   3.139   6.716   0.612 -0.2003 -1.3588 -0.6145
  777MOL0     H 7191   3.306   6.773   0.636  0.3517 -0.0186  4.9739
  777MOL0     H 7192   3.407   6.565   0.557 -0.8156 -1.8910  0.8409
  777MOL0     H 7193   3.247   6.498   0.524 -0.2171 -0.0744  1.2769
  777MOL0     H 7194   3.319   6.777   0.410  0.9355  0.2948 -0.7196
  777MOL0     H 7195   3.216   6.639   0.345  0.2051 -0.3650  0.6155
  777MOL0     H 7196   3.425   6.510   0.288  0.6458 -0.7312  3.4510
  777MOL0     H 7197   3.521   6.641   0.352 -0.2912 -0.3391  0.1386
  777MOL0     H 7198   3.333   6.699   0.129  0.4754 -1.7506 -0.1388
  777MOL0     H 7199   3.444   6.810   0.207  0.8369 -0.6323 -0.4315
  777MOL0     H 7200   3.507   6.579   0.045 -1.4240  0.2330 -1.3291
  777MOL0     H 7201   3.644   6.653   0.140  0.9419  0.5672 -1.7438
  777MOL0     H 7202   3.666   6.827  -0.000  0.2529 -0.6717 -1.1098
  777MOL0     H 7203   3.488   6.827  -0.030 -2.4242 -2.4570  1.0038
  777MOL0     H 7204   3.524   6.651  -0.204  0.5014  0.9833 -2.7355
  777MOL0     H 7205   3.697   6.656  -0.163 -0.7483 -1.2497 -1.9277
  777MOL0     H 7206   3.057   6.521   0.891  0.5556  0.3443 -1.5473
  777MOL0     H 7207   2.885   6.666   1.037 -0.1435 -2.2197 -1.9981
  777MOL0     H 7208   2.975   7.043   1.471  1.3214 -2.8124 -2.4184
  777MOL0     H 7209   2.841   7.149   1.619 -0.6428  1.8413  0.2941
  777MOL0     H 7210   1.320   7.639   1.129  2.2671  0.7360 -2.4378
  777MOL0     H 7211   1.077   7.643   1.139  3.5336 -1.6346  0.7251
  777MOL0     H 7212   0.675   7.765   0.785 -0.7464  0.1216 -0.9996
  777MOL0     H 7213   0.448   7.763   0.785  1.1949 -0.2304 -0.8901
  777MOL0     H 7214   0.209   7.818   0.839  0.0907 -0.4914 -1.0637
  777MOL0     H 7215   0.246   7.643   0.839  0.6172 -0.1988 -0.1908
  777MOL0     H 7216   0.061   7.625   1.023 -1.2811 -2.2041 -0.6350
  777MOL0     H 7217   0.008   7.675   0.860  1.1187  3.6715 -2.2619
  777MOL0     H 7218   0.074   7.873   1.091 -1.1984  2.6896  0.0053
  777MOL0     H 7219   0.021   7.911   0.929 -1.2910 -0.5438 -0.0409
  777MOL0     H 7220  -0.147   7.756   1.126  0.4674 -0.4022 -0.3296
  777MOL0     H 7221  -0.185   7.780   0.952 -0.3824 -0.2171 -0.5403
  777MOL0     H 7222  -0.262   8.149   1.159 -0.1532 -1.1254  2.1776
  777MOL0     H 7223   0.442   7.757   1.215 -0.4210  2.6633 -0.6609
  777MOL0     H 7224   0.621   7.685   1.331 -0.6163  0.7909 -0.0916
  777MOL0     H 7225   0.782   7.663   1.261  2.0330  2.0964 -1.7641
  777MOL0     H 7226   0.723   7.829   1.315  0.6728 -0.9309  2.8331
  778MOL0     O 7227   6.392   6.513   9.527  0.4787  0.0577  0.6314
  778MOL0     C 7228   6.305   6.570   9.470  0.4230  0.1339 -0.2991
  778MOL0     O 7229   6.287   6.581   9.338 -0.4271  0.3487  0.0806
  778MOL0     C 7230   6.376   6.540   9.235  0.2723 -0.1766 -1.0502
  778MOL0     C 7231   6.518   6.529   9.249 -0.2006 -0.5861 -0.2056
  778MOL0     C 7232   6.603   6.492   9.147 -0.1589  0.1498  0.4526
  778MOL0     C 7233   6.549   6.460   9.027 -1.4880 -0.9169  0.3923
  778MOL0     O 7234   6.631   6.408   8.923 -0.0093 -0.1872  0.2474
  778MOL0     C 7235   6.764   6.377   8.950 -0.1755  0.6589  0.5077
  778MOL0     C 7236   6.821   6.293   8.834 -0.2958 -0.5266 -0.8879
  778MOL0     C 7237   6.978   6.294   8.832  0.2771  0.0449 -0.3071
  778MOL0     C 7238   7.028   6.198   8.721  1.0456  0.1806 -0.3720
  778MOL0     C 7239   7.182   6.206   8.707  0.6263  0.4191 -0.1280
  778MOL0     C 7240   7.227   6.121   8.588  0.3970 -0.0506  0.3208
  778MOL0     C 7241   7.162   5.978   8.575  0.3210 -0.1350  0.1153
  778MOL0     C 7242   7.221   5.902   8.454 -0.0904 -0.2976  0.4685
  778MOL0     N 7243   7.368   5.896   8.476  0.2677  0.3417 -0.3796
  778MOL0     C 7244   7.447   5.802   8.541  0.1999  0.4213  0.6919
  778MOL0     C 7245   7.572   5.823   8.495 -0.1720 -0.7669  0.2242
  778MOL0     C 7246   7.689   5.754   8.561  0.1772  0.4873  0.4806
  778MOL0     C 7247   7.765   5.674   8.457  0.6235 -0.0822 -0.4857
  778MOL0     C 7248   7.834   5.765   8.352  0.2891  0.0693  0.9201
  778MOL0     C 7249   7.890   5.893   8.421 -0.0642  1.0030  0.2314
  778MOL0     O 7250   7.951   5.978   8.332 -0.6203 -0.6411  0.1640
  778MOL0     C 7251   8.086   5.987   8.300  0.6029  0.5559  0.3955
  778MOL0     C 7252   8.123   6.048   8.184 -0.0285  0.1941  0.6074
  778MOL0     C 7253   8.255   6.054   8.134  0.0824  0.4098 -0.0028
  778MOL0     C 7254   8.272   6.124   8.005  0.2929  0.1242 -0.1171
  778MOL0     C 7255   8.364   6.005   8.209 -0.6054 -0.2224 -0.2771
  778MOL0     C 7256   8.503   5.996   8.162 -0.0667  0.3132  0.5947
  778MOL0     O 7257   8.601   6.010   8.258  0.8804 -0.0091 -0.2586
  778MOL0     C 7258   8.732   6.027   8.215 -0.1780  0.0651  0.1010
  778MOL0     C 7259   8.762   6.114   8.113  0.5732  0.6588  0.6482
  778MOL0     C 7260   8.884   6.123   8.055 -0.4395 -0.2806 -0.6803
  778MOL0     C 7261   8.990   6.054   8.105 -0.2801  0.2196 -0.5109
  778MOL0     O 7262   9.112   6.054   8.047  0.0887  0.2468 -0.5862
  778MOL0     C 7263   9.228   6.055   8.126 -0.8960  0.3649  0.4184
  778MOL0     C 7264   9.353   6.028   8.043 -0.5022  0.0840  0.4923
  778MOL0     C 7265   9.388   6.152   7.961  0.3350  0.6353 -0.1999
  778MOL0     C 7266   9.487   6.118   7.855  0.2469 -0.7303  0.5842
  778MOL0     C 7267   9.517   6.240   7.762  0.7282 -0.1593  0.3008
  778MOL0     C 7268   9.649   6.225   7.695 -0.5316 -0.2695  0.0982
  778MOL0     C 7269   9.674   6.333   7.585 -0.5169 -0.0153  0.3393
  778MOL0     C 7270   9.827   6.351   7.559 -0.2849  0.1236  0.3035
  778MOL0    Cl 7271   9.920   6.211   7.531 -0.0960  0.4125  0.2227
  778MOL0     C 7272   8.959   5.947   8.190 -0.8340  0.2466 -0.1561
  778MOL0     C 7273   8.830   5.940   8.255  0.2055  0.2842 -0.0118
  778MOL0     O 7274   8.517   5.960   8.048 -0.0916  0.4401  0.2406
  778MOL0     C 7275   8.325   5.951   8.338 -0.0801 -0.0260  0.5656
  778MOL0     C 7276   8.193   5.941   8.379  0.4650 -0.0478  0.5834
  778MOL0     N 7277   7.563   5.940   8.421  0.1735  0.0968  0.0474
  778MOL0     N 7278   7.443   5.982   8.411 -0.0916  0.4794  0.4242
  778MOL0     C 7279   6.419   6.474   9.003  0.2363 -0.7146 -0.7416
  778MOL0     C 7280   6.337   6.518   9.106 -0.0876 -0.4792  0.2505
  778MOL0     C 7281   6.210   6.661   9.544 -0.3461 -0.3502 -0.2354
  778MOL0     C 7282   6.122   6.750   9.472  0.4601 -0.6139  0.2177
  778MOL0     C 7283   6.028   6.833   9.536  0.8989  0.1893  0.1889
  778MOL0     C 7284   6.014   6.832   9.674  0.5384  0.4870  0.3908
  778MOL0     O 7285   5.932   6.909   9.748 -0.2561 -0.4350  0.1353
  778MOL0     C 7286   5.847   7.010   9.688 -0.2994 -0.1478  0.0507
  778MOL0     C 7287   5.917   7.144   9.700 -1.1265  0.2264  0.0396
  778MOL0     C 7288   5.903   7.201   9.843  0.2880 -0.3265  0.1129
  778MOL0     C 7289   5.789   7.304   9.853  0.6642  0.0800 -0.4344
  778MOL0     C 7290   5.777   7.362   9.980 -0.3859  0.1952  0.2426
  778MOL0     C 7291   5.783   7.391  10.098 -0.1364  0.1404 -0.4370
  778MOL0     C 7292   6.101   6.749   9.746  0.2439 -0.0889 -0.0972
  778MOL0     C 7293   6.197   6.665   9.686  0.4802  0.0416  0.4856
  778MOL0     C 7294   6.294   6.605   9.785 -0.0323  0.4698  0.3219
  778MOL0     H 7295   6.559   6.547   9.348 -0.2904 -1.1680 -0.0563
  778MOL0     H 7296   6.707   6.477   9.174  0.1656 -1.6096 -1.5419
  778MOL0     H 7297   6.786   6.322   9.041  1.3977  2.3321  1.2087
  778MOL0     H 7298   6.817   6.473   8.945 -0.6962  0.9129 -0.5140
  778MOL0     H 7299   6.784   6.193   8.857 -1.3423  0.2581  0.9755
  778MOL0     H 7300   6.789   6.337   8.739  2.5179  0.7499 -1.3729
  778MOL0     H 7301   7.004   6.395   8.799 -2.3510  0.6747 -0.7091
  778MOL0     H 7302   7.019   6.284   8.933  0.8438  0.9765 -0.4383
  778MOL0     H 7303   6.996   6.095   8.739  1.3999 -0.4638 -3.0406
  778MOL0     H 7304   6.987   6.229   8.625  1.7315  2.3833 -0.0175
  778MOL0     H 7305   7.227   6.167   8.798 -1.0228  0.7200  0.8605
  778MOL0     H 7306   7.203   6.313   8.693 -1.0797  0.5186 -2.4070
  778MOL0     H 7307   7.196   6.178   8.500 -1.2436  1.8128  1.9856
  778MOL0     H 7308   7.336   6.118   8.593  0.6453 -1.1645 -3.2629
  778MOL0     H 7309   7.058   6.009   8.562  0.5684  2.1651  2.7194
  778MOL0     H 7310   7.177   5.926   8.670  1.6999 -0.4669 -0.2587
  778MOL0     H 7311   7.169   5.806   8.443 -3.4564  1.2498  1.5075
  778MOL0     H 7312   7.196   5.953   8.361  1.4999  0.9407  0.6742
  778MOL0     H 7313   7.430   5.715   8.604 -1.2079  1.0053  1.1442
  778MOL0     H 7314   7.660   5.678   8.634  1.0641  1.2863  1.6933
  778MOL0     H 7315   7.746   5.827   8.619  0.0074 -0.2049  1.5456
  778MOL0     H 7316   7.836   5.612   8.512  0.6869 -0.0642 -0.5473
  778MOL0     H 7317   7.702   5.596   8.413  1.8496 -2.3274  1.5061
  778MOL0     H 7318   7.923   5.726   8.302 -0.5724  0.3533 -0.9225
  778MOL0     H 7319   7.765   5.798   8.274 -0.2458 -0.9441  0.9463
  778MOL0     H 7320   7.809   5.945   8.474 -0.6245  1.2976 -0.8799
  778MOL0     H 7321   7.967   5.856   8.489 -0.3021  1.4129  0.7427
  778MOL0     H 7322   8.040   6.094   8.131 -0.5237 -0.8385  0.4545
  778MOL0     H 7323   8.254   6.050   7.926 -1.0141 -0.1721  0.4338
  778MOL0     H 7324   8.360   6.184   7.979 -1.2207  1.5921 -2.2708
  778MOL0     H 7325   8.192   6.198   7.994  0.6419  0.8903  1.9951
  778MOL0     H 7326   8.684   6.175   8.069 -0.1746 -0.1262  0.8552
  778MOL0     H 7327   8.882   6.183   7.964  1.4606  0.1162 -0.5115
  778MOL0     H 7328   9.227   6.151   8.180 -2.3516  1.2572 -1.1100
  778MOL0     H 7329   9.230   5.975   8.200  1.5191 -0.3445 -0.3145
  778MOL0     H 7330   9.448   6.009   8.095 -2.2221 -1.2063  3.4461
  778MOL0     H 7331   9.335   5.940   7.982  0.9037  0.1655 -0.0686
  778MOL0     H 7332   9.423   6.235   8.022 -1.5953  0.1291  1.7391
  778MOL0     H 7333   9.304   6.196   7.907  0.8562  0.0913 -1.4863
  778MOL0     H 7334   9.444   6.037   7.795  0.3074 -0.1960 -0.1947
  778MOL0     H 7335   9.578   6.078   7.900  1.7569  1.4312 -0.4137
  778MOL0     H 7336   9.433   6.251   7.692  0.2043  0.6650  1.0458
  778MOL0     H 7337   9.527   6.332   7.819  1.9483  1.9386 -2.9951
  778MOL0     H 7338   9.663   6.129   7.643  0.1436  0.3064 -0.8198
  778MOL0     H 7339   9.725   6.235   7.772 -1.1262  1.3283  0.5137
  778MOL0     H 7340   9.642   6.436   7.602  1.5032  0.6936  0.0675
  778MOL0     H 7341   9.620   6.310   7.492 -1.3075 -3.1003  1.4397
  778MOL0     H 7342   9.876   6.395   7.647  0.5180 -1.0648  0.4726
  778MOL0     H 7343   9.844   6.419   7.475 -0.6017  0.8006  0.7788
  778MOL0     H 7344   9.043   5.884   8.221 -1.6640  0.1069  1.9940
  778MOL0     H 7345   8.815   5.852   8.316 -0.3350 -0.2664 -0.9150
  778MOL0     H 7346   8.400   5.916   8.409  0.2336 -0.9905 -0.2095
  778MOL0     H 7347   8.173   5.891   8.473  1.3948 -1.4087  0.0856
  778MOL0     H 7348   6.367   6.449   8.911  0.3691 -1.2515 -0.6740
  778MOL0     H 7349   6.231   6.523   9.083 -0.3992  1.2795  1.7544
  778MOL0     H 7350   6.132   6.759   9.364 -1.1007 -1.1394  0.0071
  778MOL0     H 7351   5.965   6.896   9.474 -0.6281 -2.0882 -0.6513
  778MOL0     H 7352   5.824   6.994   9.583 -0.3687 -0.6624  0.1400
  778MOL0     H 7353   5.752   7.016   9.743  0.0480 -0.5184  0.7157
  778MOL0     H 7354   5.871   7.214   9.631 -1.8219  1.7096  1.9076
  778MOL0     H 7355   6.020   7.122   9.670 -1.7918 -1.1879 -1.3870
  778MOL0     H 7356   5.895   7.118   9.913  0.5753  0.1873  0.7666
  778MOL0     H 7357   6.000   7.252   9.850  1.6218 -2.7512  0.2217
  778MOL0     H 7358   5.698   7.253   9.822  1.0127  0.3543 -2.0308
  778MOL0     H 7359   5.802   7.385   9.780  0.6906  2.1983  1.7632
  778MOL0     H 7360   5.808   7.404  10.201  3.0401  0.5236 -1.1548
  778MOL0     H 7361   6.109   6.768   9.853 -0.8786  0.5411 -0.1158
  778MOL0     H 7362   6.364   6.685   9.810  0.6077  0.3946 -1.1615
  778MOL0     H 7363   6.246   6.580   9.880 -0.3207 -0.6955 -0.1138
  778MOL0     H 7364   6.350   6.516   9.755  2.4078  1.9245  0.2987
  779MOL0     O 7365   2.622   9.652   4.149  0.1724  0.1816 -0.1766
  779MOL0     C 7366   2.642   9.571   4.056 -0.1445 -0.2123 -0.1542
  779MOL0     O 7367   2.689   9.614   3.933 -0.1207  0.2818 -0.1751
  779MOL0     C 7368   2.696   9.757   3.907 -0.4104  0.1712 -0.4962
  779MOL0     C 7369   2.824   9.811   3.869  0.2722  0.2783  0.2011
  779MOL0     C 7370   2.846   9.945   3.840 -0.3591 -0.3319 -0.8987
  779MOL0     C 7371   2.741  10.040   3.851  0.5973 -0.7039 -0.1726
  779MOL0     O 7372   2.775  10.177   3.829  0.1694  0.2288  0.0814
  779MOL0     C 7373   2.670  10.266   3.775 -0.7299 -0.2350 -0.3890
  779MOL0     C 7374   2.739  10.372   3.685  0.4450 -0.3312 -0.3730
  779MOL0     C 7375   2.803  10.473   3.780 -0.0360 -1.1187 -0.3632
  779MOL0     C 7376   2.828  10.609   3.713 -1.1855  0.7101 -0.2644
  779MOL0     C 7377   2.947  10.600   3.612  0.1349 -0.4453  0.0696
  779MOL0     C 7378   2.952  10.716   3.510 -0.3135  0.1233 -0.2717
  779MOL0     C 7379   2.831  10.732   3.424 -0.1236  0.3201 -0.3755
  779MOL0     C 7380   2.863  10.761   3.272  0.3370 -0.0098 -0.3704
  779MOL0     N 7381   2.906  10.642   3.194 -0.0404 -0.3794 -0.2780
  779MOL0     C 7382   2.977  10.537   3.255  0.6146  0.1025  0.8645
  779MOL0     C 7383   3.013  10.460   3.153  0.2372 -1.3459  1.1469
  779MOL0     C 7384   3.094  10.339   3.174 -0.5058 -0.6285  0.2546
  779MOL0     C 7385   3.233  10.347   3.103 -0.1344 -0.1128  0.4037
  779MOL0     C 7386   3.240  10.341   2.950  0.4027 -0.6203  1.2417
  779MOL0     C 7387   3.372  10.407   2.909  0.8667 -0.0396 -0.5462
  779MOL0     O 7388   3.474  10.326   2.964 -0.4951 -0.3556  0.5075
  779MOL0     C 7389   3.603  10.343   2.920 -0.3256 -0.5319  0.9940
  779MOL0     C 7390   3.649  10.447   2.836  0.1134 -0.3940 -0.5703
  779MOL0     C 7391   3.774  10.449   2.776  0.9643  0.3455 -0.5558
  779MOL0     C 7392   3.802  10.562   2.688  0.0836 -0.2304 -0.7141
  779MOL0     C 7393   3.864  10.337   2.794 -0.4774 -0.8763 -0.1944
  779MOL0     C 7394   3.993  10.315   2.727 -0.3512 -0.5282 -0.0912
  779MOL0     O 7395   4.053  10.193   2.736  0.0923 -0.4111 -0.5261
  779MOL0     C 7396   4.175  10.186   2.686  1.5658  0.7958 -0.1031
  779MOL0     C 7397   4.183  10.139   2.554 -0.0971 -0.2359  1.0290
  779MOL0     C 7398   4.302  10.139   2.495 -0.8450 -0.0021 -0.3090
  779MOL0     C 7399   4.420  10.177   2.566  0.1541  0.0698  0.8583
  779MOL0     O 7400   4.545  10.173   2.510  0.0566  0.1564 -0.0676
  779MOL0     C 7401   4.565  10.207   2.369  0.8622 -0.5970 -0.1686
  779MOL0     C 7402   4.708  10.225   2.329 -0.6108 -0.6291  0.0538
  779MOL0     C 7403   4.794  10.109   2.379 -0.3912  0.1032  0.0571
  779MOL0     C 7404   4.933  10.123   2.318 -0.5546  0.3008  0.4847
  779MOL0     C 7405   5.003   9.985   2.308  0.5831  0.2326 -0.5969
  779MOL0     C 7406   5.064   9.943   2.445  0.4040  0.6469  0.6498
  779MOL0     C 7407   5.160   9.820   2.431  0.3670  0.7046  0.6165
  779MOL0     C 7408   5.091   9.690   2.415 -0.5998 -0.1693 -0.5777
  779MOL0    Cl 7409   5.192   9.570   2.332  0.5716 -0.1881 -0.4793
  779MOL0     C 7410   4.405  10.205   2.703 -0.0718  0.4517  0.6180
  779MOL0     C 7411   4.279  10.212   2.765  0.0101  0.3675  0.9846
  779MOL0     O 7412   4.047  10.421   2.700 -0.0348  0.0419  0.8882
  779MOL0     C 7413   3.809  10.234   2.869  0.7062 -0.4282  0.3683
  779MOL0     C 7414   3.688  10.235   2.935  0.0633 -0.2401 -0.1448
  779MOL0     N 7415   2.962  10.511   3.036 -1.5387  0.0068 -0.2058
  779MOL0     N 7416   2.903  10.622   3.064 -0.0917 -0.0308 -0.3175
  779MOL0     C 7417   2.616   9.991   3.890  0.3125 -0.1074 -0.1557
  779MOL0     C 7418   2.592   9.855   3.919 -0.0817  0.1621  1.3272
  779MOL0     C 7419   2.643   9.430   4.089  0.3036  0.8574  0.3946
  779MOL0     C 7420   2.753   9.342   4.072  0.1275 -0.5239  0.4841
  779MOL0     C 7421   2.734   9.210   4.090 -0.7861  0.9102  0.2089
  779MOL0     C 7422   2.617   9.154   4.139  0.2158 -0.0749 -0.1477
  779MOL0     O 7423   2.593   9.016   4.164  0.8561 -0.3773 -0.0402
  779MOL0     C 7424   2.672   8.921   4.086  0.2466 -0.1512  0.9731
  779MOL0     C 7425   2.595   8.787   4.104  0.3622 -1.2100  0.1275
  779MOL0     C 7426   2.677   8.693   4.021  0.2491  0.0438  0.2374
  779MOL0     C 7427   2.644   8.548   4.061 -0.5206  0.7161  0.5837
  779MOL0     C 7428   2.738   8.447   4.005 -0.4860  0.7318 -0.5251
  779MOL0     C 7429   2.835   8.387   3.972  0.0663  0.0187 -0.2783
  779MOL0     C 7430   2.511   9.239   4.168  0.5127  0.4841  0.5687
  779MOL0     C 7431   2.521   9.376   4.148  0.2961  0.8219 -0.0953
  779MOL0     C 7432   2.395   9.463   4.171  0.0346 -0.2730 -0.1327
  779MOL0     H 7433   2.903   9.741   3.841  0.6964  1.1450 -0.8617
  779MOL0     H 7434   2.945   9.981   3.812  0.6945 -0.7925  1.8431
  779MOL0     H 7435   2.601  10.303   3.851 -0.0713 -0.7484  0.4739
  779MOL0     H 7436   2.610  10.206   3.706 -0.6584 -3.1109  1.8489
  779MOL0     H 7437   2.817  10.334   3.619  5.1262  1.6220  3.4360
  779MOL0     H 7438   2.654  10.411   3.629 -0.3094 -3.3690 -1.5191
  779MOL0     H 7439   2.734  10.507   3.858  0.3648  0.4017 -0.6224
  779MOL0     H 7440   2.898  10.434   3.818 -0.7604 -2.8466 -0.2490
  779MOL0     H 7441   2.743  10.649   3.658  0.2572 -0.8158 -3.8909
  779MOL0     H 7442   2.861  10.678   3.792 -0.5699 -0.9089  0.9467
  779MOL0     H 7443   2.946  10.500   3.568  0.9138 -1.5974  2.4789
  779MOL0     H 7444   3.038  10.603   3.673  0.2554 -3.7341  0.2158
  779MOL0     H 7445   2.947  10.797   3.584  0.0998 -0.2342  0.1577
  779MOL0     H 7446   3.045  10.723   3.452 -1.3441 -1.2335 -2.1788
  779MOL0     H 7447   2.762  10.808   3.462 -1.0060  1.1400 -3.3503
  779MOL0     H 7448   2.772  10.640   3.413  0.6414  0.1357 -3.9454
  779MOL0     H 7449   2.768  10.801   3.234 -1.3040 -0.8093  2.5525
  779MOL0     H 7450   2.940  10.838   3.259  0.3569  0.1493  0.5741
  779MOL0     H 7451   3.006  10.519   3.358 -0.0685  2.3194  1.5160
  779MOL0     H 7452   3.027  10.260   3.140 -0.9843 -0.6393  1.1749
  779MOL0     H 7453   3.104  10.313   3.280 -0.2524 -2.2255 -0.1398
  779MOL0     H 7454   3.274  10.443   3.136  0.0721  0.2424 -0.8535
  779MOL0     H 7455   3.293  10.264   3.142  0.7699  0.5098  0.3742
  779MOL0     H 7456   3.245  10.240   2.907  1.3949  0.0102 -0.2023
  779MOL0     H 7457   3.163  10.390   2.889  2.9138  2.0430 -0.0452
  779MOL0     H 7458   3.372  10.408   2.800 -0.1207  0.4392 -0.5554
  779MOL0     H 7459   3.385  10.510   2.943 -1.4365  0.8152 -1.9917
  779MOL0     H 7460   3.575  10.520   2.806  0.7017  0.3248 -0.3020
  779MOL0     H 7461   3.712  10.620   2.668 -0.5366 -1.3215 -1.1596
  779MOL0     H 7462   3.837  10.532   2.589  0.8935 -2.7299  0.2573
  779MOL0     H 7463   3.874  10.633   2.731 -2.4219  0.3007  3.1144
  779MOL0     H 7464   4.096  10.118   2.492  1.4674 -3.4986 -0.3083
  779MOL0     H 7465   4.305  10.108   2.392 -3.7313  0.6461 -0.6708
  779MOL0     H 7466   4.533  10.124   2.306  0.6505  0.7787 -1.9267
  779MOL0     H 7467   4.501  10.290   2.339  0.4308 -0.7793  0.2224
  779MOL0     H 7468   4.716  10.222   2.220 -0.1138  0.2919  0.0578
  779MOL0     H 7469   4.759  10.316   2.360 -2.2136  0.5194 -0.5377
  779MOL0     H 7470   4.738  10.018   2.354  0.5877 -1.4577  3.0812
  779MOL0     H 7471   4.801  10.109   2.488 -0.3816  1.3811  0.0638
  779MOL0     H 7472   4.999  10.186   2.378  0.4500  0.7426 -1.0203
  779MOL0     H 7473   4.931  10.161   2.215 -0.6861  2.8016  1.3565
  779MOL0     H 7474   4.950   9.903   2.258  2.0293 -1.2060  0.1530
  779MOL0     H 7475   5.084  10.002   2.237 -1.2403  0.5215 -2.7464
  779MOL0     H 7476   4.994   9.903   2.519  1.6773 -2.7248  0.2058
  779MOL0     H 7477   5.130  10.022   2.481  0.0926  1.2059  0.0079
  779MOL0     H 7478   5.222   9.828   2.521 -0.2683 -4.1776  1.7810
  779MOL0     H 7479   5.226   9.843   2.347  0.4410  0.9541  0.7414
  779MOL0     H 7480   4.996   9.701   2.362 -0.5761  0.6457 -0.4597
  779MOL0     H 7481   5.061   9.664   2.516 -1.0895  2.5498  0.0670
  779MOL0     H 7482   4.495  10.238   2.754 -0.5311 -0.8925  2.3883
  779MOL0     H 7483   4.263  10.238   2.869  0.2169  0.1232  1.0769
  779MOL0     H 7484   3.871  10.145   2.868  0.6412 -0.4755  0.7303
  779MOL0     H 7485   3.655  10.149   2.992  2.6349  1.6125  4.7491
  779MOL0     H 7486   2.528  10.054   3.903  0.4200 -0.1572  0.9151
  779MOL0     H 7487   2.499   9.820   3.962 -1.0641  0.6432 -0.3049
  779MOL0     H 7488   2.852   9.373   4.041  0.3852 -0.3730  1.4239
  779MOL0     H 7489   2.820   9.145   4.088 -2.1750 -1.0830  1.4227
  779MOL0     H 7490   2.672   8.943   3.978 -0.5832  0.8995  1.1660
  779MOL0     H 7491   2.776   8.916   4.119  0.8080  1.8729 -0.2941
  779MOL0     H 7492   2.491   8.793   4.072  0.4245 -0.1425  0.0716
  779MOL0     H 7493   2.594   8.768   4.212 -1.9267  3.3227  1.1813
  779MOL0     H 7494   2.654   8.708   3.915  1.5503 -0.2243 -0.1026
  779MOL0     H 7495   2.778   8.712   4.058 -0.5775  0.2802  2.5085
  779MOL0     H 7496   2.540   8.524   4.036 -0.3678  1.7479 -1.1944
  779MOL0     H 7497   2.658   8.549   4.169  2.1194  0.3679  0.3156
  779MOL0     H 7498   2.910   8.317   3.941 -0.6446 -1.2795  0.8178
  779MOL0     H 7499   2.421   9.192   4.205 -0.1323  1.4473  0.2470
  779MOL0     H 7500   2.308   9.396   4.171 -0.7700  0.7317  0.6403
  779MOL0     H 7501   2.398   9.492   4.277 -0.5180  0.0309 -0.1934
  779MOL0     H 7502   2.387   9.550   4.105  0.2734 -0.5479 -0.5285
  780MOL0     O 7503   3.140   2.470   8.516  0.5616 -0.0725  0.9249
  780MOL0     C 7504   3.174   2.584   8.545  0.7301 -0.3153 -0.4222
  780MOL0     O 7505   3.283   2.651   8.505  0.4091 -0.3464 -0.0258
  780MOL0     C 7506   3.379   2.581   8.443  0.0506 -0.0162  0.3347
  780MOL0     C 7507   3.422   2.608   8.312 -0.7213  0.7410 -0.5275
  780MOL0     C 7508   3.530   2.541   8.250 -1.2170 -0.8268  0.2160
  780MOL0     C 7509   3.596   2.438   8.315 -0.8208 -0.3509  0.4389
  780MOL0     O 7510   3.703   2.375   8.259 -0.2491  0.4303  0.1420
  780MOL0     C 7511   3.678   2.311   8.126  1.0641 -0.5237 -0.6222
  780MOL0     C 7512   3.807   2.306   8.042 -0.2607  0.2832 -0.3773
  780MOL0     C 7513   3.922   2.245   8.125  0.5684  0.8066 -0.1862
  780MOL0     C 7514   4.060   2.234   8.044  1.0862  0.1475 -0.3613
  780MOL0     C 7515   4.060   2.143   7.917  1.3372 -0.6192  0.9874
  780MOL0     C 7516   4.005   2.007   7.942  0.1144 -1.0932 -0.0531
  780MOL0     C 7517   4.086   1.926   8.042  0.2693  0.4375 -0.3485
  780MOL0     C 7518   4.032   1.786   8.057  0.0146 -0.0417 -0.2235
  780MOL0     N 7519   4.128   1.701   8.135  1.0302 -0.4693 -0.3331
  780MOL0     C 7520   4.115   1.673   8.268  0.5978 -0.2684 -0.4244
  780MOL0     C 7521   4.220   1.592   8.287  0.0314  0.4255 -0.8095
  780MOL0     C 7522   4.247   1.526   8.428 -0.1246  0.5509 -0.8924
  780MOL0     C 7523   4.290   1.626   8.535 -0.2910  0.7558  0.6137
  780MOL0     C 7524   4.434   1.688   8.529  0.0400  0.6775  0.2022
  780MOL0     C 7525   4.497   1.762   8.651 -0.1088 -0.6334 -0.3322
  780MOL0     O 7526   4.421   1.883   8.661  0.4767  0.3433  0.8997
  780MOL0     C 7527   4.481   2.012   8.680  1.0696  0.7132 -0.2525
  780MOL0     C 7528   4.395   2.116   8.710  0.5265 -0.4849  0.2055
  780MOL0     C 7529   4.446   2.252   8.741  0.4336  0.5550 -0.1887
  780MOL0     C 7530   4.345   2.362   8.750 -1.1696 -0.4110 -0.6065
  780MOL0     C 7531   4.582   2.269   8.756 -0.7431 -0.4485  0.1299
  780MOL0     C 7532   4.648   2.391   8.804 -0.8984  0.0468  0.4748
  780MOL0     O 7533   4.571   2.499   8.845 -0.3758 -0.6468  0.7710
  780MOL0     C 7534   4.631   2.623   8.855 -0.1209  0.5151  0.2204
  780MOL0     C 7535   4.709   2.655   8.968 -0.4512  0.3307 -0.1601
  780MOL0     C 7536   4.770   2.786   8.967 -0.8559  0.1576 -0.1110
  780MOL0     C 7537   4.730   2.884   8.880 -0.5228 -0.3359  0.9157
  780MOL0     O 7538   4.767   3.018   8.878 -0.2199  0.1811  0.3460
  780MOL0     C 7539   4.818   3.077   8.998  0.2161  0.5441 -0.2660
  780MOL0     C 7540   4.892   3.219   8.979  0.1700 -0.2180 -0.4186
  780MOL0     C 7541   4.928   3.288   9.113 -0.2110 -0.0286  0.3076
  780MOL0     C 7542   4.799   3.353   9.165  0.5284  0.0429  1.0905
  780MOL0     C 7543   4.819   3.433   9.282 -0.6367 -0.1477 -0.8279
  780MOL0     C 7544   4.682   3.459   9.360 -0.1454  0.4829  0.4777
  780MOL0     C 7545   4.719   3.536   9.487 -0.1854 -0.0847 -0.3969
  780MOL0     C 7546   4.596   3.534   9.576 -0.1485  0.6835  0.3168
  780MOL0    Cl 7547   4.479   3.647   9.477 -0.0248  0.0213 -0.4575
  780MOL0     C 7548   4.637   2.857   8.778 -0.1887  0.4461 -0.4512
  780MOL0     C 7549   4.597   2.723   8.769 -0.0189  0.4308 -0.0516
  780MOL0     O 7550   4.773   2.399   8.805  0.0989 -0.2482  0.6370
  780MOL0     C 7551   4.672   2.155   8.739 -0.8934  0.1727  0.1321
  780MOL0     C 7552   4.621   2.036   8.692 -0.5339  0.1907 -0.1386
  780MOL0     N 7553   4.287   1.562   8.166 -0.1687 -0.8616 -0.4037
  780MOL0     N 7554   4.228   1.634   8.076 -0.1873 -0.4144  0.7528
  780MOL0     C 7555   3.554   2.408   8.447 -0.0053  0.5760  0.9023
  780MOL0     C 7556   3.449   2.477   8.505  0.1130 -0.1760  0.7702
  780MOL0     C 7557   3.084   2.679   8.626 -0.4538 -0.3085  0.8273
  780MOL0     C 7558   3.122   2.810   8.655 -0.4562 -0.2449  0.2646
  780MOL0     C 7559   3.044   2.895   8.729 -0.4785 -0.2035  0.7292
  780MOL0     C 7560   2.927   2.859   8.777  0.5445 -0.2038 -0.3141
  780MOL0     O 7561   2.868   2.967   8.851 -0.2415  0.0506 -0.4901
  780MOL0     C 7562   2.735   2.959   8.898 -0.3484  0.5332 -0.1538
  780MOL0     C 7563   2.724   2.931   9.049 -0.2461  0.2449 -0.6128
  780MOL0     C 7564   2.775   2.786   9.080  0.0553  0.3171  0.8143
  780MOL0     C 7565   2.757   2.726   9.215  0.0282  0.0862 -0.7069
  780MOL0     C 7566   2.869   2.760   9.303 -0.1391 -0.6097  0.0575
  780MOL0     C 7567   2.964   2.783   9.374  0.3634  0.0808  0.0664
  780MOL0     C 7568   2.882   2.729   8.761  0.0938  0.4371  0.2003
  780MOL0     C 7569   2.959   2.637   8.690 -0.5328  0.5106 -0.0341
  780MOL0     C 7570   2.906   2.501   8.681  0.2035  1.1728 -0.4704
  780MOL0     H 7571   3.371   2.682   8.250 -1.8189  0.3556 -0.1053
  780MOL0     H 7572   3.562   2.566   8.149  2.2102 -1.5305  0.9894
  780MOL0     H 7573   3.613   2.373   8.064  0.8569  0.3715  0.4544
  780MOL0     H 7574   3.636   2.210   8.135 -1.5713  0.5455  0.0565
  780MOL0     H 7575   3.779   2.256   7.949 -4.5964  3.0198 -0.8627
  780MOL0     H 7576   3.834   2.409   8.018  1.2030 -0.1567 -0.6976
  780MOL0     H 7577   3.937   2.310   8.212 -2.1622  0.3573  0.7075
  780MOL0     H 7578   3.901   2.146   8.166 -0.2780  1.8565  2.1238
  780MOL0     H 7579   4.080   2.336   8.011 -1.9009  1.2249  0.8574
  780MOL0     H 7580   4.140   2.204   8.113  0.2886 -1.2224 -0.0020
  780MOL0     H 7581   4.163   2.131   7.881  1.7838  1.5961  1.4016
  780MOL0     H 7582   4.004   2.197   7.840  0.9553 -1.2441  0.8212
  780MOL0     H 7583   3.904   2.026   7.979  0.0297  3.2518 -1.9075
  780MOL0     H 7584   3.985   1.964   7.844 -1.8514  1.0582 -0.6920
  780MOL0     H 7585   4.085   1.973   8.140  1.3473  2.6748 -1.3482
  780MOL0     H 7586   4.189   1.921   8.006 -0.3211 -1.7928 -1.9907
  780MOL0     H 7587   3.935   1.789   8.109  0.2590  0.1876  0.2227
  780MOL0     H 7588   4.015   1.732   7.963 -3.6760  0.2574  0.1299
  780MOL0     H 7589   4.037   1.705   8.337  2.0584  1.3154  0.5655
  780MOL0     H 7590   4.331   1.457   8.426 -0.2764  0.3875 -1.8808
  780MOL0     H 7591   4.162   1.464   8.462  1.6008 -0.8836  1.1145
  780MOL0     H 7592   4.213   1.703   8.539 -1.0293  0.4745 -3.7152
  780MOL0     H 7593   4.298   1.567   8.627  0.5202  0.1835  0.1947
  780MOL0     H 7594   4.497   1.599   8.516  1.4592  1.3865  1.9093
  780MOL0     H 7595   4.446   1.751   8.440 -0.8077  2.3682  1.2365
  780MOL0     H 7596   4.505   1.705   8.744 -0.1798  0.4170  0.3412
  780MOL0     H 7597   4.602   1.779   8.626 -0.1808  1.0141  0.3144
  780MOL0     H 7598   4.287   2.100   8.714 -0.2369  2.0655 -3.6769
  780MOL0     H 7599   4.243   2.321   8.752 -0.5654 -2.0067  1.2455
  780MOL0     H 7600   4.351   2.428   8.664 -0.0924 -0.0963 -0.3034
  780MOL0     H 7601   4.353   2.414   8.846 -0.4471  2.8293 -2.2940
  780MOL0     H 7602   4.742   2.583   9.042  0.6486  0.6879 -0.2866
  780MOL0     H 7603   4.845   2.796   9.045 -1.2075 -0.8887  0.3843
  780MOL0     H 7604   4.732   3.078   9.066 -1.3013 -3.7154 -1.7389
  780MOL0     H 7605   4.888   3.004   9.042 -1.4251 -0.3011  1.0630
  780MOL0     H 7606   4.986   3.202   8.925  2.1036  2.4571  1.8049
  780MOL0     H 7607   4.826   3.291   8.929 -1.8147  0.0066  2.3367
  780MOL0     H 7608   5.001   3.363   9.081 -1.4380  0.5687 -1.2186
  780MOL0     H 7609   4.966   3.218   9.187  0.6970  0.0723 -0.0561
  780MOL0     H 7610   4.728   3.272   9.184 -0.2558  0.2541 -0.6814
  780MOL0     H 7611   4.755   3.420   9.089 -0.6747  3.0482  4.1582
  780MOL0     H 7612   4.880   3.380   9.356 -1.0909  1.7725  1.0207
  780MOL0     H 7613   4.874   3.527   9.266  1.9303 -1.0448  1.8441
  780MOL0     H 7614   4.642   3.360   9.385  1.2074 -0.1282  0.3365
  780MOL0     H 7615   4.613   3.515   9.296  0.4427  0.8448  0.1510
  780MOL0     H 7616   4.735   3.642   9.467  1.2568  0.7236  3.9714
  780MOL0     H 7617   4.807   3.499   9.540  0.5192  0.1422 -1.3719
  780MOL0     H 7618   4.631   3.572   9.672 -1.1087  0.0554  0.9382
  780MOL0     H 7619   4.556   3.432   9.585  1.5501 -0.1727 -1.3222
  780MOL0     H 7620   4.611   2.929   8.701  0.7279 -0.8606 -2.0429
  780MOL0     H 7621   4.541   2.685   8.685  1.6679 -3.7587  0.4707
  780MOL0     H 7622   4.780   2.160   8.750 -0.2776 -2.0463 -3.1909
  780MOL0     H 7623   4.696   1.959   8.683 -0.2450  0.6004 -1.5580
  780MOL0     H 7624   3.597   2.319   8.491  1.7390  1.1434  0.4457
  780MOL0     H 7625   3.401   2.444   8.596 -1.1801  2.6088  1.2110
  780MOL0     H 7626   3.210   2.852   8.607  1.0388 -2.2701  1.1023
  780MOL0     H 7627   3.079   2.994   8.756 -1.5070 -0.0146  1.4135
  780MOL0     H 7628   2.696   3.059   8.881 -1.1980  0.7854  2.6831
  780MOL0     H 7629   2.670   2.889   8.845 -0.7397 -0.2985  1.3420
  780MOL0     H 7630   2.622   2.941   9.086  0.5138  0.7478  1.5045
  780MOL0     H 7631   2.782   3.011   9.097 -0.1567  0.4984 -1.1376
  780MOL0     H 7632   2.711   2.728   9.013  1.3446 -1.5598  1.1204
  780MOL0     H 7633   2.876   2.777   9.038  1.2248 -2.2703  3.7834
  780MOL0     H 7634   2.744   2.617   9.211  1.3882 -0.1309  0.1477
  780MOL0     H 7635   2.664   2.759   9.261  0.0985 -1.4237  0.6284
  780MOL0     H 7636   3.050   2.796   9.435 -1.5247  2.0839  2.5060
  780MOL0     H 7637   2.795   2.709   8.823 -0.9728  0.7793 -1.1538
  780MOL0     H 7638   2.987   2.428   8.696  0.4463  1.6295  0.4952
  780MOL0     H 7639   2.828   2.483   8.755 -0.9073  1.4235 -1.5498
  780MOL0     H 7640   2.869   2.490   8.578 -2.7747 -2.1680  0.7752
  781MOL0     O 7641  10.465   1.380   8.596  0.6502 -0.3543  0.7992
  781MOL0     C 7642  10.480   1.483   8.660 -0.6662  0.1516 -0.2805
  781MOL0     O 7643  10.613   1.528   8.687  0.4476 -0.0414  0.4963
  781MOL0     C 7644  10.712   1.441   8.661 -0.0210 -0.2933 -0.5758
  781MOL0     C 7645  10.758   1.428   8.535 -0.4052  0.2452  0.6960
  781MOL0     C 7646  10.859   1.338   8.509  0.4463  0.8373  0.2229
  781MOL0     C 7647  10.922   1.273   8.620 -1.1418  0.0333 -0.4223
  781MOL0     O 7648  11.034   1.192   8.615  0.1836 -0.0608 -0.0213
  781MOL0     C 7649  11.112   1.196   8.492  0.3704  0.4506  0.5946
  781MOL0     C 7650  11.227   1.104   8.517 -0.1326 -0.2506 -0.3191
  781MOL0     C 7651  11.350   1.124   8.427  0.0199 -0.4536  0.3219
  781MOL0     C 7652  11.473   1.048   8.474 -0.8886 -0.4087 -0.5772
  781MOL0     C 7653  11.475   0.894   8.447 -0.1277 -0.4483  0.1248
  781MOL0     C 7654  11.509   0.860   8.295  0.8390 -0.3449 -0.3875
  781MOL0     C 7655  11.470   0.711   8.274  0.3458  1.4266 -0.2620
  781MOL0     C 7656  11.502   0.659   8.141  0.2571 -0.3382 -0.5044
  781MOL0     N 7657  11.442   0.535   8.123 -0.2339 -0.2801  0.2991
  781MOL0     C 7658  11.500   0.410   8.113 -0.5815  0.6518  0.5095
  781MOL0     C 7659  11.404   0.324   8.074 -0.4453  0.1246  0.1956
  781MOL0     C 7660  11.408   0.170   8.068  1.1711 -0.1206 -0.5706
  781MOL0     C 7661  11.447   0.121   7.931 -0.1195  0.6382 -0.0006
  781MOL0     C 7662  11.451  -0.029   7.946 -0.2415 -0.3941  0.2922
  781MOL0     C 7663  11.501  -0.111   7.820 -0.4798  0.0241  0.1113
  781MOL0     O 7664  11.638  -0.118   7.837  0.2383 -0.0442 -0.0437
  781MOL0     C 7665  11.724  -0.144   7.734  0.1707 -0.3633  0.1834
  781MOL0     C 7666  11.686  -0.171   7.601 -0.2020 -0.1346 -0.0754
  781MOL0     C 7667  11.783  -0.200   7.503  0.3454  0.2357  0.2743
  781MOL0     C 7668  11.734  -0.241   7.375 -0.4865  0.6301 -0.3998
  781MOL0     C 7669  11.923  -0.205   7.540  0.4184 -0.3726 -0.4237
  781MOL0     C 7670  12.033  -0.237   7.448 -0.0675  0.3093  0.2550
  781MOL0     O 7671  12.160  -0.256   7.504 -0.6843 -0.2222 -0.4999
  781MOL0     C 7672  12.273  -0.250   7.422  0.0495 -0.4890  0.3374
  781MOL0     C 7673  12.281  -0.317   7.299  0.0565 -0.3203  0.3412
  781MOL0     C 7674  12.387  -0.300   7.210  0.5841 -0.0581  0.0212
  781MOL0     C 7675  12.498  -0.227   7.247  0.3885 -0.6517 -0.6558
  781MOL0     O 7676  12.590  -0.214   7.153  0.4974  0.2512  0.7448
  781MOL0     C 7677  12.701  -0.122   7.173 -0.1790 -0.9810  0.0815
  781MOL0     C 7678  12.787  -0.134   7.050  0.1017 -0.3469 -0.3668
  781MOL0     C 7679  12.860  -0.262   7.039 -0.0146 -0.2976  0.1994
  781MOL0     C 7680  12.980  -0.253   7.132 -0.5501  0.0157 -0.2375
  781MOL0     C 7681  13.077  -0.364   7.123 -0.3342  1.1729  0.2410
  781MOL0     C 7682  13.201  -0.341   7.210 -0.3752 -0.4069  0.2095
  781MOL0     C 7683  13.301  -0.451   7.173  1.1087  1.1459 -0.4288
  781MOL0     C 7684  13.427  -0.422   7.262 -0.2180 -0.3212 -0.2035
  781MOL0    Cl 7685  13.511  -0.277   7.229  0.3826 -0.2355  0.1217
  781MOL0     C 7686  12.495  -0.157   7.371 -0.3719  0.4246 -1.3860
  781MOL0     C 7687  12.382  -0.171   7.461 -0.1516 -0.2082  0.2714
  781MOL0     O 7688  12.010  -0.214   7.328 -1.4144  0.3195  0.5217
  781MOL0     C 7689  11.947  -0.189   7.676 -0.5258  0.6374  0.0163
  781MOL0     C 7690  11.850  -0.158   7.771 -1.1448 -0.1950  0.1833
  781MOL0     N 7691  11.288   0.392   8.055  0.7590 -0.0714  0.0488
  781MOL0     N 7692  11.306   0.512   8.096 -0.1676 -0.2264  0.5048
  781MOL0     C 7693  10.861   1.276   8.752  0.0542  0.2499 -0.0340
  781MOL0     C 7694  10.749   1.362   8.769 -0.3345 -0.1877 -0.1712
  781MOL0     C 7695  10.369   1.546   8.725  0.2467  0.8403 -0.9938
  781MOL0     C 7696  10.409   1.654   8.814 -0.2036 -0.0263 -0.1426
  781MOL0     C 7697  10.310   1.714   8.889 -0.0252 -0.8993  0.7070
  781MOL0     C 7698  10.175   1.678   8.887  0.0381  0.7022 -0.0632
  781MOL0     O 7699  10.075   1.719   8.963  0.8507  0.4903  0.6851
  781MOL0     C 7700  10.087   1.808   9.074  0.9312  0.2361  0.2451
  781MOL0     C 7701   9.946   1.844   9.138  0.0207 -1.3046 -0.0190
  781MOL0     C 7702   9.870   1.935   9.038 -0.2866  0.2290 -0.2400
  781MOL0     C 7703   9.904   2.077   9.068  0.9023 -0.6481 -0.0068
  781MOL0     C 7704   9.832   2.154   8.964  0.0298  0.2986 -0.7605
  781MOL0     C 7705   9.802   2.249   8.897  0.0405  0.2039  0.1479
  781MOL0     C 7706  10.141   1.567   8.814 -0.1553 -0.3438  0.1882
  781MOL0     C 7707  10.228   1.503   8.723 -0.7549 -0.7280 -0.4165
  781MOL0     C 7708  10.175   1.398   8.628 -0.3698  1.0685 -0.2589
  781MOL0     H 7709  10.720   1.477   8.446  2.1019 -0.1865 -0.7144
  781MOL0     H 7710  10.875   1.316   8.404 -1.6211  4.4991 -1.0496
  781MOL0     H 7711  11.154   1.292   8.459 -0.7776  0.4263 -1.0425
  781MOL0     H 7712  11.043   1.162   8.415 -0.9509  3.9770  0.0057
  781MOL0     H 7713  11.255   1.128   8.621 -0.5668  3.6915 -0.9406
  781MOL0     H 7714  11.186   1.003   8.518 -2.6195  0.6980  1.0577
  781MOL0     H 7715  11.311   1.108   8.326  0.2146 -1.4289  0.3858
  781MOL0     H 7716  11.386   1.227   8.432  0.0167 -0.4822  1.0746
  781MOL0     H 7717  11.572   1.082   8.442 -0.5662  1.2628  1.9241
  781MOL0     H 7718  11.485   1.043   8.583  2.7457 -2.4306 -0.9073
  781MOL0     H 7719  11.375   0.856   8.468  0.3622 -2.5092 -0.9645
  781MOL0     H 7720  11.549   0.849   8.515  1.3667  1.7331  0.0559
  781MOL0     H 7721  11.450   0.910   8.218  1.9896  1.7292 -0.0139
  781MOL0     H 7722  11.617   0.877   8.284  1.1731 -2.9778 -1.8746
  781MOL0     H 7723  11.366   0.691   8.298  0.6166  0.0539 -0.1076
  781MOL0     H 7724  11.523   0.646   8.345  1.1149  2.7511  0.4013
  781MOL0     H 7725  11.449   0.725   8.073 -1.3907 -1.2893 -0.1943
  781MOL0     H 7726  11.611   0.666   8.128  0.1564 -2.1955 -3.4544
  781MOL0     H 7727  11.604   0.386   8.134  0.5072  3.6729 -0.9292
  781MOL0     H 7728  11.312   0.127   8.096  1.3774 -0.5785 -0.5630
  781MOL0     H 7729  11.479   0.138   8.146  1.2092 -2.0484 -1.3597
  781MOL0     H 7730  11.377   0.154   7.853 -2.6172  0.1375  1.9291
  781MOL0     H 7731  11.547   0.163   7.914  0.0984  0.3661  0.5929
  781MOL0     H 7732  11.516  -0.061   8.028 -0.5238 -2.5691 -0.2611
  781MOL0     H 7733  11.348  -0.065   7.952 -0.4823 -0.2478 -2.0198
  781MOL0     H 7734  11.461  -0.212   7.803 -1.0003  0.0308  1.2071
  781MOL0     H 7735  11.487  -0.049   7.730  1.0483  1.2174  0.6635
  781MOL0     H 7736  11.581  -0.185   7.579 -0.2934 -0.2954  0.4515
  781MOL0     H 7737  11.777  -0.184   7.292 -0.1653  1.6583  0.4476
  781MOL0     H 7738  11.627  -0.223   7.374 -0.2482  2.1502 -0.8030
  781MOL0     H 7739  11.743  -0.350   7.377  1.0643  0.7318  1.6815
  781MOL0     H 7740  12.197  -0.378   7.266 -0.7244  1.0842 -0.3889
  781MOL0     H 7741  12.393  -0.340   7.109  0.8596  2.1796 -0.8996
  781MOL0     H 7742  12.673  -0.017   7.166 -0.7738 -1.1872 -0.9305
  781MOL0     H 7743  12.762  -0.149   7.259 -0.7193 -1.6389  0.2744
  781MOL0     H 7744  12.732  -0.129   6.956 -0.3078  0.3978 -0.0914
  781MOL0     H 7745  12.860  -0.053   7.048 -1.3435  1.0479  0.5520
  781MOL0     H 7746  12.892  -0.264   6.934 -0.9447 -2.0200 -0.0787
  781MOL0     H 7747  12.802  -0.348   7.071 -1.1260  0.6713  0.8986
  781MOL0     H 7748  12.949  -0.254   7.237 -0.6936  0.7510 -0.2707
  781MOL0     H 7749  13.033  -0.159   7.113 -2.0824  0.4633 -2.6845
  781MOL0     H 7750  13.031  -0.460   7.147  1.8035  0.0493  0.1759
  781MOL0     H 7751  13.114  -0.375   7.021  1.7453 -0.6319  1.0959
  781MOL0     H 7752  13.165  -0.347   7.313  0.1878 -1.5716  0.3587
  781MOL0     H 7753  13.252  -0.246   7.194 -1.7470  0.2887 -0.1956
  781MOL0     H 7754  13.332  -0.455   7.068 -1.4084 -3.0616 -1.2485
  781MOL0     H 7755  13.258  -0.548   7.198 -1.5632  2.7269  1.6567
  781MOL0     H 7756  13.497  -0.501   7.236 -0.1461 -0.5609  0.6973
  781MOL0     H 7757  13.405  -0.420   7.369  2.2829  0.9365  0.3574
  781MOL0     H 7758  12.579  -0.095   7.402 -0.0042 -0.6712 -0.1265
  781MOL0     H 7759  12.368  -0.129   7.560 -1.4049 -2.2082  1.0170
  781MOL0     H 7760  12.045  -0.221   7.709 -0.9851 -0.9164 -0.0623
  781MOL0     H 7761  11.893  -0.151   7.870 -2.5870 -1.8936  0.9910
  781MOL0     H 7762  10.908   1.218   8.831  0.4872  0.6816  0.0304
  781MOL0     H 7763  10.715   1.371   8.871 -0.2115 -2.3749  0.1187
  781MOL0     H 7764  10.511   1.687   8.828 -0.2623  0.8436 -1.5573
  781MOL0     H 7765  10.342   1.802   8.943  2.0943  0.2289 -2.1448
  781MOL0     H 7766  10.147   1.761   9.152  1.0253 -0.8562 -0.4590
  781MOL0     H 7767  10.133   1.903   9.046 -1.5997  1.2688 -0.7541
  781MOL0     H 7768   9.969   1.902   9.228 -0.9938 -0.6773 -0.1503
  781MOL0     H 7769   9.877   1.763   9.164  0.6476 -1.4220  1.3812
  781MOL0     H 7770   9.902   1.902   8.939 -1.1220 -0.2960 -0.3447
  781MOL0     H 7771   9.762   1.917   9.043  0.2295 -3.2449  1.8036
  781MOL0     H 7772  10.012   2.092   9.060  1.2836 -2.7710  0.6581
  781MOL0     H 7773   9.868   2.094   9.170 -0.5185 -0.1919 -0.5505
  781MOL0     H 7774   9.773   2.325   8.828  1.2139  0.9390  0.4497
  781MOL0     H 7775  10.046   1.518   8.831 -0.1692 -1.0832 -1.7282
  781MOL0     H 7776  10.234   1.306   8.629 -2.4153 -0.3055  0.7402
  781MOL0     H 7777  10.069   1.371   8.639 -0.2520 -0.5223 -2.5097
  781MOL0     H 7778  10.196   1.435   8.528  0.3263  1.2511 -0.0514
  782MOL0     O 7779  10.362   9.052  10.543 -0.8836  0.1144 -0.1623
  782MOL0     C 7780  10.438   9.057  10.439  0.7135 -0.7491  0.8380
  782MOL0     O 7781  10.402   9.031  10.307 -0.2850  0.6577 -0.8088
  782MOL0     C 7782  10.267   9.011  10.285 -0.2643 -0.1669  0.7521
  782MOL0     C 7783  10.178   8.943  10.356  0.0172  0.0961  0.0784
  782MOL0     C 7784  10.047   8.933  10.311 -0.5794  0.3226  0.0008
  782MOL0     C 7785  10.007   8.965  10.181 -0.6897 -0.3651  0.7792
  782MOL0     O 7786   9.879   8.935  10.145 -0.5097  0.0726  0.2280
  782MOL0     C 7787   9.853   8.924  10.005  0.4700  0.2178  0.0438
  782MOL0     C 7788   9.696   8.897   9.979  0.3490  0.3553 -0.0342
  782MOL0     C 7789   9.601   9.010  10.025 -0.6029  0.5218  0.0984
  782MOL0     C 7790   9.448   8.968   9.993 -0.0869  0.0847 -0.9093
  782MOL0     C 7791   9.355   9.076   9.979  0.0577  0.7928  0.5075
  782MOL0     C 7792   9.399   9.175   9.867 -0.2820 -0.0423 -0.0919
  782MOL0     C 7793   9.281   9.266   9.818 -0.2600  0.0009  0.0516
  782MOL0     C 7794   9.210   9.219   9.686 -0.0833  0.1956 -0.1945
  782MOL0     N 7795   9.099   9.304   9.646  0.2282  0.0614  0.5655
  782MOL0     C 7796   9.098   9.441   9.609  0.0004  0.5166  0.5609
  782MOL0     C 7797   8.970   9.476   9.609  0.6091 -0.2174  1.0058
  782MOL0     C 7798   8.929   9.625   9.587 -0.6781 -0.0101 -1.0293
  782MOL0     C 7799   8.790   9.646   9.656  0.0435 -0.4118  0.2955
  782MOL0     C 7800   8.768   9.614   9.808  0.3044  0.4672  0.4804
  782MOL0     C 7801   8.877   9.684   9.897  0.3929  0.7443 -0.2282
  782MOL0     O 7802   8.831   9.686  10.037  0.3433  0.1338 -0.1025
  782MOL0     C 7803   8.758   9.795  10.090  0.1115  0.4242  0.6181
  782MOL0     C 7804   8.687   9.890  10.018 -0.6326 -0.2294 -0.1144
  782MOL0     C 7805   8.616   9.999  10.067 -0.0619 -0.4977 -0.5046
  782MOL0     C 7806   8.534  10.085   9.972 -0.0392 -0.2706  0.2802
  782MOL0     C 7807   8.610  10.001  10.207  0.3277 -0.0577 -0.9363
  782MOL0     C 7808   8.528  10.098  10.274  0.7121 -0.2633 -0.1311
  782MOL0     O 7809   8.575  10.215  10.342 -0.0813  0.9842 -0.1087
  782MOL0     C 7810   8.705  10.243  10.367 -0.8050  0.8493  0.6480
  782MOL0     C 7811   8.809  10.249  10.268  0.1239  0.6107 -0.2380
  782MOL0     C 7812   8.938  10.278  10.298  0.0655  0.0299 -0.4129
  782MOL0     C 7813   8.973  10.318  10.426  0.2062 -0.2660 -0.2234
  782MOL0     O 7814   9.100  10.368  10.467  1.1841 -0.8666  0.0975
  782MOL0     C 7815   9.201  10.368  10.363  0.1378 -1.3931 -0.5087
  782MOL0     C 7816   9.329  10.401  10.440  0.5458 -0.0612  0.5350
  782MOL0     C 7817   9.444  10.459  10.352 -0.6364  1.4568 -0.2761
  782MOL0     C 7818   9.563  10.495  10.454 -0.1831 -0.4094  1.2022
  782MOL0     C 7819   9.688  10.555  10.392  0.6938  0.5562  0.0961
  782MOL0     C 7820   9.671  10.703  10.356  0.9233  0.6569 -0.0543
  782MOL0     C 7821   9.817  10.764  10.319  1.4133 -0.4177  0.8631
  782MOL0     C 7822   9.804  10.910  10.272 -1.1968  0.3182 -0.3192
  782MOL0    Cl 7823   9.706  10.902  10.123 -0.3348 -0.2785 -0.6920
  782MOL0     C 7824   8.873  10.307  10.526  0.7653 -0.0700  0.0524
  782MOL0     C 7825   8.738  10.276  10.492  0.1987 -0.7171  0.3355
  782MOL0     O 7826   8.410  10.072  10.266  0.4898  0.5468 -0.4251
  782MOL0     C 7827   8.676   9.907  10.293 -0.0104  0.5454  0.8521
  782MOL0     C 7828   8.746   9.798  10.231  0.6641 -0.0243 -0.7226
  782MOL0     N 7829   8.897   9.355   9.610  0.1859  0.1842 -0.4899
  782MOL0     N 7830   8.967   9.255   9.648  0.1994 -0.0819  0.7832
  782MOL0     C 7831  10.103   9.027  10.101 -0.0756  1.1668  0.2400
  782MOL0     C 7832  10.233   9.048  10.157  0.2921 -0.1682  0.1807
  782MOL0     C 7833  10.581   9.094  10.458  0.0377  0.5776  0.7809
  782MOL0     C 7834  10.640   9.080  10.578 -0.1946 -0.6116 -0.2238
  782MOL0     C 7835  10.775   9.114  10.607 -0.5510  0.1165  0.2108
  782MOL0     C 7836  10.851   9.163  10.500 -0.5214  0.4009  0.5599
  782MOL0     O 7837  10.983   9.186  10.527 -0.7831  1.2885  0.0994
  782MOL0     C 7838  11.073   9.230  10.420 -0.2068 -0.9243  0.1205
  782MOL0     C 7839  11.214   9.251  10.466  0.6854  0.0970  0.0402
  782MOL0     C 7840  11.300   9.125  10.451  0.7240  0.1621 -0.0103
  782MOL0     C 7841  11.419   9.100  10.544  0.5090  0.2521  0.0193
  782MOL0     C 7842  11.504   9.220  10.540 -0.2808 -0.3903 -0.3021
  782MOL0     C 7843  11.574   9.318  10.557  0.2805 -0.1234 -0.4608
  782MOL0     C 7844  10.787   9.190  10.373 -0.3542  0.6388 -1.4510
  782MOL0     C 7845  10.653   9.153  10.352  1.2112 -0.1258 -0.1760
  782MOL0     C 7846  10.602   9.174  10.216 -0.5242  0.4625 -0.5541
  782MOL0     H 7847  10.208   8.909  10.455 -1.6515  1.1502  0.9879
  782MOL0     H 7848   9.971   8.879  10.366 -2.0644  0.7746 -1.5042
  782MOL0     H 7849   9.914   8.852   9.950 -0.2725 -0.0867 -0.3981
  782MOL0     H 7850   9.867   9.021   9.957 -1.4754  0.5336  0.0142
  782MOL0     H 7851   9.679   8.873   9.874 -0.6691  2.3844 -0.3804
  782MOL0     H 7852   9.678   8.805  10.035  0.1497 -0.7358 -1.8282
  782MOL0     H 7853   9.620   9.025  10.132  1.6346  0.3886 -0.2411
  782MOL0     H 7854   9.628   9.096   9.962  0.2207  0.6869  0.6580
  782MOL0     H 7855   9.438   8.915   9.898  0.6848 -2.0247  0.1217
  782MOL0     H 7856   9.414   8.905  10.075  0.1534  0.6231 -0.3873
  782MOL0     H 7857   9.338   9.133  10.071 -0.4102 -0.1961  1.0473
  782MOL0     H 7858   9.255   9.040   9.952 -0.3347  0.9396  1.6850
  782MOL0     H 7859   9.474   9.239   9.913 -0.4427  0.6990 -0.8328
  782MOL0     H 7860   9.447   9.123   9.784 -0.3531 -0.6632  0.2501
  782MOL0     H 7861   9.314   9.369   9.802 -3.3718  0.9736 -0.6892
  782MOL0     H 7862   9.195   9.269   9.886  0.4016 -0.3556  0.9269
  782MOL0     H 7863   9.282   9.220   9.603 -0.9747  3.5209 -1.0851
  782MOL0     H 7864   9.159   9.123   9.699 -1.0538  0.7769  0.3999
  782MOL0     H 7865   9.190   9.497   9.603  0.0141  0.4584  0.1938
  782MOL0     H 7866   8.920   9.653   9.481  1.4865  3.0874 -0.5470
  782MOL0     H 7867   9.000   9.700   9.623  0.7271 -0.1754 -3.3082
  782MOL0     H 7868   8.752   9.748   9.652 -0.5881 -0.5172  2.2913
  782MOL0     H 7869   8.718   9.593   9.593  0.7922  0.0132 -0.9448
  782MOL0     H 7870   8.668   9.643   9.841  0.5964  1.6406  0.3793
  782MOL0     H 7871   8.760   9.509   9.839  2.7360  1.0485  3.5251
  782MOL0     H 7872   8.964   9.617   9.889 -0.1080 -0.0228  0.6678
  782MOL0     H 7873   8.914   9.783   9.866 -0.0715  0.5296 -1.5268
  782MOL0     H 7874   8.688   9.874   9.910  2.0277 -1.2375 -0.0143
  782MOL0     H 7875   8.540  10.038   9.874  1.4551  0.7064 -0.1267
  782MOL0     H 7876   8.567  10.188   9.958  0.2419 -0.6077 -1.7714
  782MOL0     H 7877   8.425  10.085   9.984 -0.3862  1.0538 -2.1899
  782MOL0     H 7878   8.779  10.224  10.166 -0.7824  1.1816 -0.1222
  782MOL0     H 7879   9.009  10.289  10.217  1.7396 -2.5052  0.6111
  782MOL0     H 7880   9.222  10.267  10.326  4.0470 -1.3446  1.1120
  782MOL0     H 7881   9.170  10.433  10.281 -1.9506 -1.5825  0.0819
  782MOL0     H 7882   9.317  10.484  10.510  0.6537 -0.7403  1.3825
  782MOL0     H 7883   9.346  10.306  10.491  0.8145 -1.0505 -1.2968
  782MOL0     H 7884   9.414  10.554  10.306 -2.6822  0.5198 -0.9873
  782MOL0     H 7885   9.486  10.392  10.276  2.8275  2.6241  0.4189
  782MOL0     H 7886   9.588  10.408  10.515  1.2558  0.4372  1.8602
  782MOL0     H 7887   9.524  10.572  10.521 -6.0204 -1.0620 -0.7856
  782MOL0     H 7888   9.775  10.546  10.458 -0.6768  2.5368  2.3602
  782MOL0     H 7889   9.709  10.505  10.297 -1.1022  0.5951 -0.3466
  782MOL0     H 7890   9.623  10.757  10.438 -3.5476 -2.5499 -0.2250
  782MOL0     H 7891   9.598  10.712  10.275  0.9122  0.4837 -0.0648
  782MOL0     H 7892   9.853  10.698  10.239  1.0209  0.3705  0.0283
  782MOL0     H 7893   9.873  10.758  10.413 -0.7211 -1.1978  2.1709
  782MOL0     H 7894   9.906  10.947  10.257  0.3005 -2.5199  1.9251
  782MOL0     H 7895   9.753  10.975  10.345 -0.7352 -1.2283  1.4358
  782MOL0     H 7896   8.907  10.328  10.627  0.1018 -1.5925  0.6100
  782MOL0     H 7897   8.663  10.279  10.570  0.8516  1.9121  0.9642
  782MOL0     H 7898   8.667   9.923  10.400  1.2677 -0.8080  1.1903
  782MOL0     H 7899   8.804   9.734  10.296 -0.2753 -1.2709 -1.0767
  782MOL0     H 7900  10.088   9.043   9.995  0.9390 -1.1033 -0.3102
  782MOL0     H 7901  10.309   9.090  10.092 -1.1967  1.7945 -0.3918
  782MOL0     H 7902  10.578   9.040  10.658 -0.4332 -0.6069 -0.4069
  782MOL0     H 7903  10.830   9.114  10.701 -0.5525 -0.7929  0.2248
  782MOL0     H 7904  11.089   9.158  10.339 -1.0522 -0.7944 -0.1688
  782MOL0     H 7905  11.042   9.320  10.366  1.1362  0.0892  0.9734
  782MOL0     H 7906  11.211   9.276  10.573 -1.5293 -0.3759  0.1363
  782MOL0     H 7907  11.268   9.328  10.409  1.9644 -2.7439 -2.8598
  782MOL0     H 7908  11.241   9.033  10.455  1.0447 -0.1023 -1.0024
  782MOL0     H 7909  11.343   9.126  10.350 -0.5209  0.1329 -0.5546
  782MOL0     H 7910  11.478   9.012  10.515 -0.4616 -0.5386  0.3772
  782MOL0     H 7911  11.376   9.105  10.645  1.0905  0.4041  0.2638
  782MOL0     H 7912  11.637   9.403  10.578  1.6968 -0.3242 -3.2920
  782MOL0     H 7913  10.850   9.215  10.289 -0.8124  0.6096 -1.8049
  782MOL0     H 7914  10.689   9.215  10.165  0.1467  1.2617  1.1635
  782MOL0     H 7915  10.575   9.079  10.168  1.9577 -0.0844 -1.0294
  782MOL0     H 7916  10.514   9.239  10.216 -0.2015  1.0465  2.8497
  783MOL0     O 7917   8.854   2.086   5.827 -0.2218 -0.0532 -0.7751
  783MOL0     C 7918   8.926   2.186   5.810  0.9737 -0.4765 -0.6570
  783MOL0     O 7919   9.055   2.200   5.852  0.2493 -1.1262 -0.3553
  783MOL0     C 7920   9.105   2.099   5.924  0.2128  0.6066 -0.2591
  783MOL0     C 7921   9.043   2.033   6.032 -0.9745 -0.2149 -0.1112
  783MOL0     C 7922   9.122   1.962   6.127  0.2171 -0.6717  0.4023
  783MOL0     C 7923   9.257   1.945   6.104 -0.1839 -0.6196  1.1461
  783MOL0     O 7924   9.354   1.894   6.189 -0.2535  0.2253  0.7627
  783MOL0     C 7925   9.308   1.809   6.291  0.1062  0.8542 -0.2603
  783MOL0     C 7926   9.416   1.711   6.333  0.0368  0.2934  0.2693
  783MOL0     C 7927   9.519   1.787   6.418 -0.0200 -0.1491  1.1157
  783MOL0     C 7928   9.638   1.699   6.443  0.1209  0.5709 -0.0478
  783MOL0     C 7929   9.726   1.768   6.546  0.2838 -0.9441 -0.5460
  783MOL0     C 7930   9.866   1.695   6.566 -0.8784 -0.1745 -0.2875
  783MOL0     C 7931   9.965   1.779   6.645 -0.0024 -0.1991 -0.7129
  783MOL0     C 7932   9.945   1.781   6.806 -0.2376 -0.1366  0.8008
  783MOL0     N 7933  10.062   1.827   6.881 -0.1347 -0.1395 -0.2747
  783MOL0     C 7934  10.098   1.961   6.884 -0.3948  0.3599 -0.0734
  783MOL0     C 7935  10.210   1.961   6.958  0.1907  1.2112  0.1114
  783MOL0     C 7936  10.301   2.083   6.981 -0.4809  0.9814 -0.0083
  783MOL0     C 7937  10.237   2.191   7.070  0.1019 -0.2944 -0.8975
  783MOL0     C 7938  10.223   2.144   7.217 -0.5520 -0.0874 -0.0728
  783MOL0     C 7939  10.336   2.055   7.284  0.6216 -1.1224  0.4723
  783MOL0     O 7940  10.459   2.126   7.282 -0.5210  0.4145 -0.1904
  783MOL0     C 7941  10.577   2.073   7.324  0.3814  0.3263 -0.6515
  783MOL0     C 7942  10.601   1.983   7.432  0.4083  0.0853 -0.7247
  783MOL0     C 7943  10.733   1.947   7.465 -0.6296  0.7625 -0.3814
  783MOL0     C 7944  10.748   1.834   7.564  0.6637  0.9336 -0.5780
  783MOL0     C 7945  10.850   2.011   7.399 -0.4523  1.0938 -0.7040
  783MOL0     C 7946  10.987   1.968   7.430  0.2548  0.4458  0.7938
  783MOL0     O 7947  11.081   1.978   7.330 -0.0131  0.5906  0.3137
  783MOL0     C 7948  11.207   1.985   7.369 -0.4142 -0.0063 -0.3167
  783MOL0     C 7949  11.252   2.086   7.455  0.4274 -1.0292 -0.1625
  783MOL0     C 7950  11.387   2.098   7.500  0.4248 -0.8146 -0.5480
  783MOL0     C 7951  11.488   2.015   7.455  0.0529  0.3618  0.4570
  783MOL0     O 7952  11.616   2.021   7.488 -0.7665 -0.0721  0.0392
  783MOL0     C 7953  11.657   2.071   7.611 -0.0212  0.0151  0.2640
  783MOL0     C 7954  11.812   2.068   7.599  0.3998 -0.0711  0.2852
  783MOL0     C 7955  11.873   2.189   7.508 -0.7849 -0.0130  0.2909
  783MOL0     C 7956  12.007   2.148   7.440  0.4232  0.0697 -0.1639
  783MOL0     C 7957  11.981   2.039   7.333 -0.0948  0.3760 -0.4263
  783MOL0     C 7958  11.900   2.090   7.213 -0.0593  0.3077  0.5595
  783MOL0     C 7959  11.914   2.002   7.089 -0.9737 -0.1007  0.2766
  783MOL0     C 7960  11.847   1.866   7.103  0.8752 -0.8028 -0.1371
  783MOL0    Cl 7961  11.928   1.755   6.993  0.0115  0.1515 -0.4287
  783MOL0     C 7962  11.447   1.911   7.369  0.5068 -0.1847  0.1929
  783MOL0     C 7963  11.310   1.899   7.331  0.2859 -0.5681 -0.5909
  783MOL0     O 7964  11.019   1.957   7.545  0.3813  0.5567  0.3878
  783MOL0     C 7965  10.815   2.090   7.286 -0.4202  0.4976 -0.7623
  783MOL0     C 7966  10.683   2.127   7.258  0.4489 -0.0120  0.0211
  783MOL0     N 7967  10.239   1.832   7.008  0.5456 -0.0590  0.2513
  783MOL0     N 7968  10.146   1.756   6.957 -0.2933 -0.3658  0.0741
  783MOL0     C 7969   9.318   2.009   5.996  0.3804  0.4974  0.3030
  783MOL0     C 7970   9.242   2.085   5.905 -0.2709  0.2647  0.7116
  783MOL0     C 7971   8.861   2.311   5.753 -0.2461 -0.9319  0.1251
  783MOL0     C 7972   8.740   2.295   5.685 -0.2927 -0.3792  0.7761
  783MOL0     C 7973   8.684   2.399   5.609 -0.6170  0.2429  0.7653
  783MOL0     C 7974   8.751   2.520   5.603 -0.3189 -0.5537  0.4753
  783MOL0     O 7975   8.706   2.635   5.538  0.5169  0.7726  0.2860
  783MOL0     C 7976   8.577   2.613   5.477 -0.0327  0.1244 -0.0960
  783MOL0     C 7977   8.525   2.749   5.415  0.2355  0.2398 -0.3283
  783MOL0     C 7978   8.628   2.823   5.324 -0.0297 -0.5288 -0.1636
  783MOL0     C 7979   8.554   2.924   5.242 -0.3496 -0.0147  0.5723
  783MOL0     C 7980   8.642   2.993   5.148 -0.1624  0.0095 -0.0144
  783MOL0     C 7981   8.691   3.056   5.057 -1.0258 -0.3923 -0.1634
  783MOL0     C 7982   8.870   2.546   5.681 -0.7456  0.1122  0.3099
  783MOL0     C 7983   8.924   2.442   5.763  0.5527 -0.2245  0.9404
  783MOL0     C 7984   9.055   2.477   5.826  0.1204 -0.3260  0.1627
  783MOL0     H 7985   8.940   2.062   6.052 -0.0254  1.0060  3.7752
  783MOL0     H 7986   9.076   1.932   6.220 -0.7842  1.5989  0.7058
  783MOL0     H 7987   9.226   1.754   6.245 -0.2947  2.0097 -0.9644
  783MOL0     H 7988   9.268   1.867   6.375  1.8254  3.2854 -1.0303
  783MOL0     H 7989   9.366   1.642   6.400 -0.0701 -0.7272 -0.8282
  783MOL0     H 7990   9.458   1.665   6.243  0.8576  1.4093  0.0537
  783MOL0     H 7991   9.560   1.873   6.365  3.4723  0.3295  4.2048
  783MOL0     H 7992   9.468   1.820   6.509 -1.5656 -0.6140  0.4639
  783MOL0     H 7993   9.613   1.600   6.482  0.9189  1.3629  2.7213
  783MOL0     H 7994   9.697   1.678   6.354 -0.8035 -0.0177 -0.5336
  783MOL0     H 7995   9.664   1.787   6.634  0.0304 -0.5182 -0.8150
  783MOL0     H 7996   9.743   1.864   6.498  0.1656 -1.3152 -1.3392
  783MOL0     H 7997   9.847   1.602   6.620  0.9186 -0.0559  0.6295
  783MOL0     H 7998   9.914   1.672   6.471  2.2428  3.5790  0.1242
  783MOL0     H 7999   9.970   1.882   6.607 -0.9189  0.5322  1.0295
  783MOL0     H 8000  10.063   1.734   6.628  0.5727  0.5547  0.5254
  783MOL0     H 8001   9.854   1.834   6.836  0.3617  0.5709  1.4172
  783MOL0     H 8002   9.914   1.684   6.847 -1.2524 -0.6519 -1.0607
  783MOL0     H 8003  10.059   2.053   6.843  1.1252 -0.1191 -2.8339
  783MOL0     H 8004  10.315   2.127   6.882 -0.8262  1.8371  0.3116
  783MOL0     H 8005  10.402   2.059   7.015 -0.7990 -2.9167 -1.4051
  783MOL0     H 8006  10.306   2.275   7.060 -1.5014  0.9434 -2.1322
  783MOL0     H 8007  10.133   2.218   7.051 -0.1072  1.3041  1.9810
  783MOL0     H 8008  10.202   2.238   7.269 -1.3354  0.1771 -0.8470
  783MOL0     H 8009  10.128   2.091   7.211 -0.8166  0.5425 -2.3116
  783MOL0     H 8010  10.311   2.063   7.390 -2.4555 -0.9531 -0.1860
  783MOL0     H 8011  10.328   1.948   7.265 -0.6746 -0.9766  0.0991
  783MOL0     H 8012  10.517   1.945   7.489  1.5197  1.0463  1.6898
  783MOL0     H 8013  10.656   1.785   7.596  1.5778  0.5965  1.7122
  783MOL0     H 8014  10.799   1.857   7.658  2.3643 -2.8157 -0.4014
  783MOL0     H 8015  10.810   1.758   7.515  1.3007  0.9660  0.1534
  783MOL0     H 8016  11.177   2.158   7.485  1.1727 -0.8209  1.2752
  783MOL0     H 8017  11.405   2.182   7.566 -2.1224  0.0076 -0.8105
  783MOL0     H 8018  11.615   2.172   7.620 -0.2491  0.2767 -2.8493
  783MOL0     H 8019  11.613   2.001   7.683 -1.0123 -1.6483 -1.8427
  783MOL0     H 8020  11.857   2.080   7.699 -0.9343 -1.0349  1.0332
  783MOL0     H 8021  11.850   1.969   7.570  0.3345  0.0765 -0.3082
  783MOL0     H 8022  11.872   2.274   7.577 -3.8689  0.3846 -0.0970
  783MOL0     H 8023  11.800   2.210   7.429 -1.8907 -0.2791  1.2075
  783MOL0     H 8024  12.079   2.114   7.514  0.2250  0.6102  0.2835
  783MOL0     H 8025  12.055   2.235   7.396  0.3891  1.0983  1.7640
  783MOL0     H 8026  12.078   2.003   7.298  1.8759  3.2745  1.5602
  783MOL0     H 8027  11.924   1.958   7.379  0.4522 -0.3029 -0.9211
  783MOL0     H 8028  11.949   2.187   7.200 -1.2885  0.8826  0.0675
  783MOL0     H 8029  11.795   2.105   7.242  0.3391  0.1118  2.2454
  783MOL0     H 8030  12.019   1.977   7.074 -0.9117 -0.2584  0.9565
  783MOL0     H 8031  11.859   2.041   7.002 -0.8645 -3.1182 -1.2965
  783MOL0     H 8032  11.740   1.878   7.083  1.2090  0.2305 -1.4196
  783MOL0     H 8033  11.863   1.830   7.205 -1.5524  0.4725  0.7786
  783MOL0     H 8034  11.523   1.839   7.341  0.8907  1.2399 -2.9007
  783MOL0     H 8035  11.291   1.818   7.262  2.4005  1.0989 -3.3139
  783MOL0     H 8036  10.896   2.123   7.222  0.0695  2.3843  0.7418
  783MOL0     H 8037  10.658   2.199   7.180 -2.8999 -1.1145 -0.0749
  783MOL0     H 8038   9.426   1.995   5.987  0.2719  0.7575 -2.0161
  783MOL0     H 8039   9.289   2.137   5.822  1.9170 -1.0232  1.0537
  783MOL0     H 8040   8.689   2.199   5.688 -0.1814 -0.4874 -0.3062
  783MOL0     H 8041   8.598   2.381   5.544  0.5605 -0.6698 -0.5948
  783MOL0     H 8042   8.588   2.539   5.397 -0.2975 -0.4204  0.3642
  783MOL0     H 8043   8.505   2.577   5.551  1.5275 -0.3891  1.2187
  783MOL0     H 8044   8.497   2.819   5.494  2.2631  0.6845  0.0483
  783MOL0     H 8045   8.433   2.721   5.363 -0.5588 -0.9148  1.6114
  783MOL0     H 8046   8.703   2.878   5.382 -0.9507  1.0836 -0.4432
  783MOL0     H 8047   8.679   2.748   5.263 -1.5954  0.4720 -2.8936
  783MOL0     H 8048   8.524   3.003   5.311  0.3158 -3.2650  4.9786
  783MOL0     H 8049   8.464   2.890   5.189  0.1041  1.0787 -0.9957
  783MOL0     H 8050   8.729   3.105   4.969 -0.4355 -0.6173 -0.0388
  783MOL0     H 8051   8.902   2.649   5.671 -1.2794  0.1577 -1.0749
  783MOL0     H 8052   9.059   2.438   5.928  0.2166  0.5624  0.5119
  783MOL0     H 8053   9.143   2.435   5.777  2.0793 -0.2011  3.2277
  783MOL0     H 8054   9.070   2.586   5.832 -4.7848  0.5079  1.2830
  784MOL0     O 8055   3.764   8.057   0.197  0.0860 -0.1671  0.1416
  784MOL0     C 8056   3.707   7.951   0.223  0.4826 -0.0671 -0.4446
  784MOL0     O 8057   3.763   7.826   0.212 -0.2758 -0.7749 -0.8465
  784MOL0     C 8058   3.882   7.805   0.157  0.3280 -0.5487 -0.1072
  784MOL0     C 8059   3.898   7.711   0.048 -0.0721 -0.9902 -0.6491
  784MOL0     C 8060   4.028   7.670   0.008  0.6858  0.4051 -0.1759
  784MOL0     C 8061   4.141   7.732   0.059 -0.3993  1.2495  0.1331
  784MOL0     O 8062   4.273   7.693   0.041  0.0819 -0.3825 -0.0956
  784MOL0     C 8063   4.304   7.598  -0.054 -0.3576 -0.1264 -0.1562
  784MOL0     C 8064   4.454   7.599  -0.067  0.0087 -0.3020 -0.5572
  784MOL0     C 8065   4.505   7.459  -0.082 -0.9043  0.5068 -0.5338
  784MOL0     C 8066   4.491   7.409  -0.221  0.7800  0.1874  0.4365
  784MOL0     C 8067   4.525   7.264  -0.240  0.3211  0.1314 -0.3527
  784MOL0     C 8068   4.546   7.238  -0.395 -0.2404 -0.2118 -0.9625
  784MOL0     C 8069   4.555   7.081  -0.393  0.3045 -0.5237 -0.2555
  784MOL0     C 8070   4.699   7.034  -0.350  0.1146 -0.3295  0.2368
  784MOL0     N 8071   4.799   7.091  -0.444 -0.7803 -0.3293  0.3027
  784MOL0     C 8072   4.911   7.156  -0.401 -0.6441  0.3026  0.6197
  784MOL0     C 8073   4.971   7.204  -0.514  0.0750 -0.4863  0.5434
  784MOL0     C 8074   5.089   7.303  -0.532 -0.8061 -0.2817  0.3140
  784MOL0     C 8075   5.044   7.445  -0.516  0.4310  0.0180 -0.1431
  784MOL0     C 8076   5.152   7.557  -0.494 -0.0375  1.0428 -0.5647
  784MOL0     C 8077   5.248   7.545  -0.620  0.3165 -0.6114  0.7535
  784MOL0     O 8078   5.343   7.444  -0.592 -0.1977  0.1571 -0.0541
  784MOL0     C 8079   5.449   7.438  -0.683 -0.7648 -0.8884 -0.8443
  784MOL0     C 8080   5.493   7.531  -0.774  1.2005  0.4953  0.4951
  784MOL0     C 8081   5.596   7.513  -0.867 -0.1663 -0.7621  0.1255
  784MOL0     C 8082   5.621   7.622  -0.960 -0.4275 -0.5130 -0.0727
  784MOL0     C 8083   5.659   7.386  -0.862  0.2438  0.4816  0.0660
  784MOL0     C 8084   5.781   7.351  -0.941 -0.6551 -0.9464 -0.2262
  784MOL0     O 8085   5.823   7.224  -0.969  0.2411  0.1540  0.7423
  784MOL0     C 8086   5.919   7.200  -1.063 -0.0910  0.8079  0.7039
  784MOL0     C 8087   5.910   7.134  -1.181 -0.0425 -0.2048 -0.5236
  784MOL0     C 8088   6.019   7.114  -1.264 -0.8337 -0.2041  0.5543
  784MOL0     C 8089   6.150   7.159  -1.229  0.0153  0.1649 -0.3068
  784MOL0     O 8090   6.270   7.147  -1.301  0.1667 -0.2522  0.3498
  784MOL0     C 8091   6.279   7.042  -1.400  0.1683 -0.0565 -0.3032
  784MOL0     C 8092   6.408   7.047  -1.475  0.4319  0.2108  0.0442
  784MOL0     C 8093   6.377   6.996  -1.617 -0.2870 -0.0989 -0.5571
  784MOL0     C 8094   6.511   6.955  -1.676 -0.3962 -0.7022 -0.1702
  784MOL0     C 8095   6.499   6.935  -1.830  0.2283 -0.2372  0.5299
  784MOL0     C 8096   6.645   6.907  -1.890  0.4550  0.6713 -0.1579
  784MOL0     C 8097   6.627   6.867  -2.031  0.7081  0.2454 -0.2419
  784MOL0     C 8098   6.756   6.844  -2.113  0.3409 -0.0382  0.3173
  784MOL0    Cl 8099   6.854   6.718  -2.041  0.2126 -0.0962  0.4466
  784MOL0     C 8100   6.164   7.231  -1.110 -0.3536 -0.5933 -0.5218
  784MOL0     C 8101   6.057   7.241  -1.023  0.2417 -0.5270  0.1288
  784MOL0     O 8102   5.835   7.453  -0.990 -0.5581  0.1032  0.4045
  784MOL0     C 8103   5.616   7.295  -0.767  0.2178 -0.5898 -0.0796
  784MOL0     C 8104   5.516   7.317  -0.679 -0.4502 -0.0245 -0.1147
  784MOL0     N 8105   4.896   7.159  -0.624 -0.1894  0.1145 -0.0860
  784MOL0     N 8106   4.790   7.094  -0.576  0.4952 -0.6225 -0.1833
  784MOL0     C 8107   4.129   7.841   0.144  0.0090 -0.6689 -0.8858
  784MOL0     C 8108   4.002   7.869   0.207  1.0011 -0.1983 -0.1613
  784MOL0     C 8109   3.569   7.945   0.267  0.5899 -0.0034  0.2049
  784MOL0     C 8110   3.505   7.816   0.265 -0.5976 -0.7237  0.6621
  784MOL0     C 8111   3.373   7.796   0.301  0.6082  0.1051 -0.3761
  784MOL0     C 8112   3.304   7.907   0.346  1.4628 -0.9780  0.5325
  784MOL0     O 8113   3.165   7.908   0.377 -0.2225  0.4084  0.0289
  784MOL0     C 8114   3.106   7.784   0.409  0.9290 -0.0804 -0.0059
  784MOL0     C 8115   3.032   7.724   0.293  0.3836 -0.0647  0.0085
  784MOL0     C 8116   2.976   7.586   0.337 -0.5894 -0.9940 -0.6365
  784MOL0     C 8117   2.953   7.496   0.224 -0.1228  0.2176  0.0480
  784MOL0     C 8118   3.075   7.441   0.170 -0.6445 -0.2473  0.8830
  784MOL0     C 8119   3.176   7.409   0.106  1.5707  0.9918  0.2983
  784MOL0     C 8120   3.362   8.032   0.363 -0.3992  0.0116  0.1792
  784MOL0     C 8121   3.496   8.048   0.334 -0.0494 -0.3600  0.6030
  784MOL0     C 8122   3.558   8.185   0.352 -0.1296 -0.6845  0.3947
  784MOL0     H 8123   3.820   7.648   0.006 -0.4138 -1.7307  1.0142
  784MOL0     H 8124   4.029   7.575  -0.045  1.1228 -0.3868  1.2128
  784MOL0     H 8125   4.271   7.621  -0.156  2.9120  2.9200 -0.7013
  784MOL0     H 8126   4.289   7.492  -0.032  4.7916 -2.1094 -4.0052
  784MOL0     H 8127   4.484   7.665  -0.149 -1.8486 -1.2995 -2.1103
  784MOL0     H 8128   4.490   7.627   0.033  0.9526  4.8934 -2.0235
  784MOL0     H 8129   4.614   7.456  -0.070 -0.3584  3.9093 -3.1487
  784MOL0     H 8130   4.457   7.386  -0.016  0.9975  2.7660  3.7067
  784MOL0     H 8131   4.391   7.429  -0.263  0.9992 -2.8735 -1.9315
  784MOL0     H 8132   4.561   7.465  -0.283  0.0461  0.9070  0.2463
  784MOL0     H 8133   4.451   7.206  -0.184 -2.6210  2.7713 -1.2585
  784MOL0     H 8134   4.625   7.246  -0.198  1.1154  1.7630 -1.4462
  784MOL0     H 8135   4.461   7.280  -0.451 -1.4569 -0.2808  0.7234
  784MOL0     H 8136   4.640   7.279  -0.431 -0.0881  1.6975  1.3459
  784MOL0     H 8137   4.527   7.054  -0.495 -1.5358 -2.1804  0.6444
  784MOL0     H 8138   4.481   7.039  -0.326 -2.2983  1.3508 -1.7648
  784MOL0     H 8139   4.715   7.053  -0.243  3.8227 -0.4956 -0.1849
  784MOL0     H 8140   4.702   6.926  -0.363 -1.2579 -0.3514 -0.0808
  784MOL0     H 8141   4.942   7.177  -0.299  0.4227 -2.4359  0.9501
  784MOL0     H 8142   5.130   7.298  -0.634 -1.0867  0.7414  0.1406
  784MOL0     H 8143   5.169   7.280  -0.461  0.2564 -0.2399 -0.8177
  784MOL0     H 8144   4.986   7.481  -0.601  0.9932  2.2572  0.3516
  784MOL0     H 8145   4.980   7.448  -0.427  2.7532  1.7870  1.6047
  784MOL0     H 8146   5.124   7.662  -0.485  1.9318  1.5580  0.0085
  784MOL0     H 8147   5.213   7.541  -0.404 -1.8381  2.2217  0.9469
  784MOL0     H 8148   5.192   7.518  -0.710  2.3997 -2.7556 -0.0392
  784MOL0     H 8149   5.302   7.640  -0.629 -1.1441  0.5096  2.9874
  784MOL0     H 8150   5.437   7.625  -0.774  2.9146  1.5820  1.4231
  784MOL0     H 8151   5.528   7.679  -0.959 -0.2964 -0.2410 -1.3794
  784MOL0     H 8152   5.643   7.588  -1.061 -1.5362 -4.2228  0.8077
  784MOL0     H 8153   5.699   7.688  -0.919 -1.9782  2.4201 -1.5095
  784MOL0     H 8154   5.815   7.089  -1.209 -0.4959 -1.2475  2.3443
  784MOL0     H 8155   6.008   7.048  -1.349  0.4385 -0.0416  0.2372
  784MOL0     H 8156   6.285   6.946  -1.349  0.8704  1.0632  1.8110
  784MOL0     H 8157   6.195   7.037  -1.470  1.1890  1.5834 -1.7558
  784MOL0     H 8158   6.435   7.153  -1.479 -0.4050  0.4277 -0.0827
  784MOL0     H 8159   6.491   7.002  -1.420  0.7350  1.3137  0.5264
  784MOL0     H 8160   6.325   7.070  -1.679  0.7363  2.6592  1.6690
  784MOL0     H 8161   6.312   6.908  -1.609 -6.4253  3.8060 -0.9650
  784MOL0     H 8162   6.526   6.855  -1.634 -0.0310 -0.4580  0.2883
  784MOL0     H 8163   6.596   7.021  -1.653 -0.0714  0.8976 -4.8992
  784MOL0     H 8164   6.425   6.857  -1.848 -0.0905  0.3421 -0.8202
  784MOL0     H 8165   6.462   7.027  -1.877  0.9360  0.4428  1.2516
  784MOL0     H 8166   6.700   6.836  -1.828  0.8975  0.1431 -1.1375
  784MOL0     H 8167   6.689   7.007  -1.879  2.6799 -0.1904 -0.7155
  784MOL0     H 8168   6.579   6.953  -2.079  0.8613 -1.1857 -3.1763
  784MOL0     H 8169   6.564   6.778  -2.022 -0.6884  1.3106  1.0460
  784MOL0     H 8170   6.810   6.939  -2.113  1.1207 -0.4660  1.3854
  784MOL0     H 8171   6.729   6.817  -2.215 -2.1215  0.7166  0.6997
  784MOL0     H 8172   6.256   7.280  -1.081 -0.4521 -1.5129  1.5426
  784MOL0     H 8173   6.067   7.299  -0.932 -1.0257 -0.2063  0.0758
  784MOL0     H 8174   5.680   7.208  -0.753 -3.2371 -3.2179  0.8704
  784MOL0     H 8175   5.493   7.252  -0.595 -1.7839 -0.2584 -0.6426
  784MOL0     H 8176   4.212   7.905   0.173 -0.5179 -0.4520  0.2063
  784MOL0     H 8177   3.993   7.930   0.296 -0.6272 -1.6481  0.7227
  784MOL0     H 8178   3.556   7.734   0.216 -0.2694 -1.4635  2.1846
  784MOL0     H 8179   3.329   7.698   0.287  0.0583  0.1068  1.0616
  784MOL0     H 8180   3.186   7.720   0.447 -3.0657 -4.8712  1.3894
  784MOL0     H 8181   3.048   7.806   0.499  2.2872  0.4958  0.7671
  784MOL0     H 8182   3.099   7.731   0.207  0.1748 -0.1775 -0.1669
  784MOL0     H 8183   2.942   7.778   0.260 -1.6071 -3.5573 -0.8251
  784MOL0     H 8184   3.045   7.539   0.408 -0.9165  3.8640  3.4798
  784MOL0     H 8185   2.888   7.604   0.399  0.3038  2.4312 -0.1527
  784MOL0     H 8186   2.880   7.542   0.157 -3.3617  0.1254  3.2178
  784MOL0     H 8187   2.900   7.403   0.248  2.0215 -1.1086 -0.0865
  784MOL0     H 8188   3.261   7.388   0.044  1.2164  3.2179 -1.0594
  784MOL0     H 8189   3.302   8.107   0.414 -1.5702 -0.7502 -0.0315
  784MOL0     H 8190   3.662   8.191   0.386  0.0357 -0.0419 -0.1958
  784MOL0     H 8191   3.551   8.244   0.260 -0.2166 -1.6228 -0.2104
  784MOL0     H 8192   3.511   8.246   0.430  3.0797 -0.2804  2.2294
  785MOL0     O 8193   7.960  10.069   5.400  0.0034  0.0235 -0.2770
  785MOL0     C 8194   7.998  10.145   5.491 -0.2686  0.8618 -0.2057
  785MOL0     O 8195   7.958  10.283   5.505  0.1291  0.2988 -0.4695
  785MOL0     C 8196   7.871  10.344   5.411  0.9955 -0.8372 -1.1195
  785MOL0     C 8197   7.898  10.474   5.387  0.1332 -0.4497 -0.2258
  785MOL0     C 8198   7.806  10.542   5.303  0.2331 -0.6345 -0.4732
  785MOL0     C 8199   7.713  10.492   5.224 -0.1840  0.2660 -0.0992
  785MOL0     O 8200   7.633  10.560   5.138 -0.1969 -0.2475 -0.2225
  785MOL0     C 8201   7.703  10.626   5.027  0.6848  0.4087 -0.2467
  785MOL0     C 8202   7.607  10.734   4.969 -0.2972 -0.0650  0.7242
  785MOL0     C 8203   7.500  10.689   4.880  0.4417 -0.1948  0.0402
  785MOL0     C 8204   7.376  10.785   4.873 -0.1684  0.0098 -0.0155
  785MOL0     C 8205   7.375  10.888   4.762 -0.7422  0.1073  0.1695
  785MOL0     C 8206   7.256  10.981   4.764  0.1310  0.3492 -0.7656
  785MOL0     C 8207   7.235  11.079   4.884 -0.0819 -1.2467 -0.0674
  785MOL0     C 8208   7.325  11.205   4.890 -0.3463  0.5044  0.7228
  785MOL0     N 8209   7.339  11.274   4.759  0.1618  0.4019  0.0531
  785MOL0     C 8210   7.236  11.348   4.705 -0.0554 -0.3303  0.7122
  785MOL0     C 8211   7.270  11.380   4.580 -0.3976 -0.2367  0.1419
  785MOL0     C 8212   7.176  11.434   4.480  0.1427  0.1650  0.0584
  785MOL0     C 8213   7.079  11.332   4.428  0.1539 -0.4311  0.1148
  785MOL0     C 8214   6.996  11.399   4.315 -0.5058 -0.2086  1.0662
  785MOL0     C 8215   6.933  11.284   4.229  0.5698  0.2665  0.1504
  785MOL0     O 8216   6.802  11.249   4.272 -0.1411 -0.1762  0.0716
  785MOL0     C 8217   6.704  11.293   4.183  0.0495  0.0220 -0.5443
  785MOL0     C 8218   6.638  11.414   4.192 -0.2670 -0.3177 -0.3053
  785MOL0     C 8219   6.533  11.450   4.106 -0.3466  0.3722 -0.0114
  785MOL0     C 8220   6.494  11.600   4.108 -0.2875 -0.5107 -0.5987
  785MOL0     C 8221   6.484  11.354   4.017  0.1635  1.0419 -0.8370
  785MOL0     C 8222   6.362  11.375   3.926 -0.2662  0.0545  0.7701
  785MOL0     O 8223   6.311  11.500   3.910  0.0922 -0.3589  0.0066
  785MOL0     C 8224   6.207  11.517   3.826  0.5504 -0.1661  0.0170
  785MOL0     C 8225   6.076  11.480   3.861 -0.8133 -0.7359  0.1207
  785MOL0     C 8226   5.975  11.514   3.780  0.5124 -0.7307 -0.7416
  785MOL0     C 8227   5.985  11.588   3.660 -1.0650 -0.0746  0.3020
  785MOL0     O 8228   5.870  11.602   3.590  0.7421 -0.0988 -0.3748
  785MOL0     C 8229   5.864  11.695   3.478 -0.0212 -1.2006  0.8147
  785MOL0     C 8230   5.719  11.749   3.456 -0.0913 -0.1126 -0.1216
  785MOL0     C 8231   5.618  11.638   3.423 -0.4429  0.1424 -0.1751
  785MOL0     C 8232   5.640  11.580   3.282 -0.1546 -0.3559  0.0004
  785MOL0     C 8233   5.537  11.481   3.252  0.2505  0.3257  0.0708
  785MOL0     C 8234   5.561  11.428   3.117  0.1167  0.3919 -0.5815
  785MOL0     C 8235   5.448  11.314   3.091  0.3321  0.0564 -0.0892
  785MOL0     C 8236   5.429  11.296   2.936  0.0045  0.0426 -0.3089
  785MOL0    Cl 8237   5.573  11.269   2.835  0.0430  0.7962  0.3034
  785MOL0     C 8238   6.116  11.617   3.616  0.1218 -0.0926  0.4988
  785MOL0     C 8239   6.230  11.584   3.701  1.2475  0.6366 -0.9126
  785MOL0     O 8240   6.317  11.268   3.872  0.8100  0.2282  0.7911
  785MOL0     C 8241   6.550  11.227   4.009  0.5332  0.2532 -0.5835
  785MOL0     C 8242   6.659  11.191   4.092 -0.0888 -1.0597  0.2189
  785MOL0     N 8243   7.399  11.325   4.554  0.3126 -0.0480 -0.0451
  785MOL0     N 8244   7.436  11.266   4.663 -0.4975  0.2372 -0.0100
  785MOL0     C 8245   7.682  10.355   5.249 -0.5406 -0.0379  0.5061
  785MOL0     C 8246   7.765  10.279   5.336  0.4403 -0.9617 -0.7980
  785MOL0     C 8247   8.082  10.098   5.601 -1.0494  0.2818  0.8783
  785MOL0     C 8248   8.074   9.963   5.641 -0.7736  0.0389  0.3877
  785MOL0     C 8249   8.154   9.899   5.737  0.3426 -0.3792 -0.2563
  785MOL0     C 8250   8.237   9.976   5.820 -0.0491 -0.2436 -0.8921
  785MOL0     O 8251   8.316   9.908   5.919  0.6373 -0.2637 -0.1493
  785MOL0     C 8252   8.382   9.986   6.018  0.0818 -0.2214  0.8205
  785MOL0     C 8253   8.497   9.921   6.088  0.1885 -0.0045  0.1944
  785MOL0     C 8254   8.612   9.894   5.994 -0.0176 -0.4792 -1.1954
  785MOL0     C 8255   8.728   9.817   6.049  0.6400 -0.5225 -0.6558
  785MOL0     C 8256   8.761   9.845   6.190  0.3229 -0.0196 -0.3675
  785MOL0     C 8257   8.792   9.840   6.308  0.6180 -0.8340  0.3562
  785MOL0     C 8258   8.245  10.116   5.789  0.5877 -0.4023 -0.1928
  785MOL0     C 8259   8.168  10.179   5.684  0.0798  0.5182  0.9079
  785MOL0     C 8260   8.197  10.323   5.642  1.0110 -0.1289  0.2219
  785MOL0     H 8261   7.982  10.524   5.435 -0.6122  0.5069  0.1114
  785MOL0     H 8262   7.829  10.648   5.301 -0.0357 -0.5101  1.4494
  785MOL0     H 8263   7.722  10.549   4.951 -0.4430  0.9903 -1.1544
  785MOL0     H 8264   7.801  10.664   5.056  0.7149  0.1815 -0.0505
  785MOL0     H 8265   7.568  10.792   5.054 -0.1870 -1.3317  1.6689
  785MOL0     H 8266   7.666  10.797   4.902 -2.5289 -0.0962 -1.4052
  785MOL0     H 8267   7.543  10.663   4.783 -1.3350 -1.0868 -0.5647
  785MOL0     H 8268   7.459  10.599   4.927 -1.0205  0.6969  0.5725
  785MOL0     H 8269   7.282  10.731   4.884 -0.3171  0.4409  1.0130
  785MOL0     H 8270   7.370  10.843   4.966 -0.3335  0.8642 -0.5490
  785MOL0     H 8271   7.380  10.824   4.673 -0.4818 -0.9268  0.9066
  785MOL0     H 8272   7.467  10.945   4.777 -1.9497  2.5017 -0.9544
  785MOL0     H 8273   7.257  11.043   4.674 -1.7407  2.2675  0.4629
  785MOL0     H 8274   7.166  10.918   4.761  0.0023  0.5546 -1.5908
  785MOL0     H 8275   7.238  11.038   4.986 -2.4254  1.7904  1.3833
  785MOL0     H 8276   7.133  11.114   4.869 -0.0440 -0.9339  0.3894
  785MOL0     H 8277   7.283  11.277   4.960  0.6559  3.3984 -1.4625
  785MOL0     H 8278   7.425  11.183   4.927 -1.4759  0.0008  3.7696
  785MOL0     H 8279   7.139  11.373   4.748  0.1268 -1.8898  2.1247
  785MOL0     H 8280   7.245  11.455   4.398 -0.0089 -2.5291 -0.8546
  785MOL0     H 8281   7.127  11.523   4.521 -2.1478  0.4627 -3.0534
  785MOL0     H 8282   7.135  11.247   4.389  1.8041  0.6388  0.0849
  785MOL0     H 8283   7.004  11.305   4.502 -0.4229 -0.3206 -0.4146
  785MOL0     H 8284   6.926  11.471   4.360 -1.3854 -1.8691  2.4817
  785MOL0     H 8285   7.065  11.449   4.247 -1.6490 -1.2187 -0.9176
  785MOL0     H 8286   6.924  11.336   4.133 -3.9486  3.0265  1.7547
  785MOL0     H 8287   6.993  11.195   4.213  1.3608  1.2240 -2.8207
  785MOL0     H 8288   6.667  11.488   4.266  2.8273  0.5634 -2.1881
  785MOL0     H 8289   6.565  11.653   4.172  0.7448 -0.7080 -1.5452
  785MOL0     H 8290   6.395  11.593   4.153  0.4572 -0.7657  1.0571
  785MOL0     H 8291   6.480  11.643   4.008 -1.4319 -1.6197 -0.9461
  785MOL0     H 8292   6.058  11.429   3.955  1.0436 -0.6803  0.5303
  785MOL0     H 8293   5.878  11.494   3.824  0.9026  1.8217  1.5593
  785MOL0     H 8294   5.928  11.783   3.484 -1.5388  0.0045 -0.0648
  785MOL0     H 8295   5.910  11.637   3.397  1.8075 -0.1618  1.0562
  785MOL0     H 8296   5.681  11.792   3.549 -0.8629 -1.5752  0.2796
  785MOL0     H 8297   5.711  11.832   3.386  0.0923 -1.7376 -2.1603
  785MOL0     H 8298   5.518  11.683   3.425 -0.4241  0.5997 -3.6397
  785MOL0     H 8299   5.632  11.557   3.494 -1.9317  1.0870  1.2699
  785MOL0     H 8300   5.736  11.527   3.273 -1.1545 -2.0028 -1.5301
  785MOL0     H 8301   5.633  11.668   3.217  0.2294  2.9371  3.9723
  785MOL0     H 8302   5.525  11.396   3.320 -0.0428 -2.6002 -3.2980
  785MOL0     H 8303   5.440  11.531   3.249 -0.5168 -0.7738  3.2777
  785MOL0     H 8304   5.655  11.374   3.124  0.9408  1.7143 -0.9436
  785MOL0     H 8305   5.572  11.498   3.033  1.6191 -0.9753 -1.5858
  785MOL0     H 8306   5.351  11.336   3.135  0.0371 -1.2670 -0.0537
  785MOL0     H 8307   5.486  11.227   3.145  2.3709  1.8279  1.5611
  785MOL0     H 8308   5.390  11.391   2.897 -2.4794 -0.9912 -0.4823
  785MOL0     H 8309   5.362  11.211   2.925 -1.6403  1.2224  0.2083
  785MOL0     H 8310   6.142  11.665   3.522 -0.6064 -1.3057 -0.3486
  785MOL0     H 8311   6.330  11.605   3.666  0.8015 -1.6611 -3.9885
  785MOL0     H 8312   6.508  11.151   3.945 -6.2644  1.5312  1.5160
  785MOL0     H 8313   6.703  11.092   4.097  1.7120 -0.3854 -1.2119
  785MOL0     H 8314   7.603  10.304   5.195  0.8686 -1.8724  0.0453
  785MOL0     H 8315   7.738  10.179   5.366 -1.4447 -0.4283 -0.5826
  785MOL0     H 8316   8.012   9.897   5.582  0.5992 -0.7442 -0.2263
  785MOL0     H 8317   8.150   9.791   5.749  1.7798 -0.3754  0.4716
  785MOL0     H 8318   8.438  10.068   5.972 -0.9637  0.7843  1.2882
  785MOL0     H 8319   8.304  10.028   6.083 -0.8381  1.1010 -1.0494
  785MOL0     H 8320   8.453   9.822   6.109 -2.5523  0.3981 -2.8242
  785MOL0     H 8321   8.528   9.969   6.181 -1.4220 -0.6844  1.1253
  785MOL0     H 8322   8.575   9.840   5.906  0.1826  0.9339 -2.1895
  785MOL0     H 8323   8.654   9.991   5.964  2.4249 -1.0724  0.0860
  785MOL0     H 8324   8.820   9.831   5.991  0.6504  3.7564  0.0861
  785MOL0     H 8325   8.700   9.711   6.045 -0.7916 -0.1074 -3.0246
  785MOL0     H 8326   8.834   9.835   6.407  1.8312 -1.0548 -0.1446
  785MOL0     H 8327   8.306  10.181   5.850  0.9668  1.8386 -2.7668
  785MOL0     H 8328   8.282  10.365   5.696  2.0752 -1.7725 -0.0662
  785MOL0     H 8329   8.197  10.328   5.532 -3.7668 -2.0768 -0.0876
  785MOL0     H 8330   8.113  10.386   5.671  2.2321  0.5676  2.4846
  786MOL0     O 8331   7.155   7.372   5.112  0.2457 -0.0549 -0.6150
  786MOL0     C 8332   7.215   7.293   5.045  0.2097  0.8407  1.2651
  786MOL0     O 8333   7.282   7.313   4.925  0.1801 -0.3994  0.3997
  786MOL0     C 8334   7.262   7.433   4.860 -0.6965 -0.1188  0.8153
  786MOL0     C 8335   7.141   7.498   4.848 -0.8363 -0.0494  0.3377
  786MOL0     C 8336   7.135   7.604   4.747  0.9479 -0.1546  0.1392
  786MOL0     C 8337   7.240   7.648   4.672 -0.2336 -0.1821  0.7973
  786MOL0     O 8338   7.230   7.760   4.584  0.1772  0.2284 -0.4198
  786MOL0     C 8339   7.106   7.838   4.567 -0.5235  0.3161  0.1268
  786MOL0     C 8340   7.150   7.964   4.488 -0.4121  0.0395 -0.3731
  786MOL0     C 8341   7.027   8.029   4.414 -0.7872  0.1074  0.5359
  786MOL0     C 8342   6.908   8.055   4.509 -0.7996 -0.4118 -0.2447
  786MOL0     C 8343   6.835   8.178   4.465  0.3336 -0.9196  0.2898
  786MOL0     C 8344   6.710   8.180   4.543  0.9661 -0.4851  0.5859
  786MOL0     C 8345   6.636   8.312   4.529 -0.0447  1.5951  0.1648
  786MOL0     C 8346   6.709   8.422   4.606  0.1624  0.9937 -0.0346
  786MOL0     N 8347   6.643   8.552   4.606 -0.1619  0.2988 -0.0346
  786MOL0     C 8348   6.573   8.600   4.715  0.6609 -0.0569  0.2035
  786MOL0     C 8349   6.566   8.730   4.688  0.2234 -0.4478 -0.1437
  786MOL0     C 8350   6.534   8.840   4.794 -0.4309  0.0026  0.6012
  786MOL0     C 8351   6.655   8.931   4.838 -0.1893 -0.2250 -0.3570
  786MOL0     C 8352   6.613   9.055   4.912  0.0303  0.1527  0.1440
  786MOL0     C 8353   6.516   9.143   4.832  0.5862  0.2813 -0.6669
  786MOL0     O 8354   6.500   9.273   4.888  0.2008 -0.5148 -0.4768
  786MOL0     C 8355   6.459   9.296   5.020  0.6704  1.3249 -0.9003
  786MOL0     C 8356   6.389   9.198   5.087  0.1944 -0.3713  0.3811
  786MOL0     C 8357   6.359   9.196   5.222  0.2135 -0.3394  1.1552
  786MOL0     C 8358   6.263   9.089   5.278 -0.2155 -0.0140 -0.5349
  786MOL0     C 8359   6.415   9.299   5.301 -0.2041  0.0646 -0.6302
  786MOL0     C 8360   6.387   9.316   5.442  0.5424  1.0682 -0.0827
  786MOL0     O 8361   6.411   9.435   5.495 -0.1184  0.4588  0.4432
  786MOL0     C 8362   6.385   9.451   5.628  0.0081  0.0763 -0.1817
  786MOL0     C 8363   6.493   9.438   5.715  0.3055  0.8429 -0.0745
  786MOL0     C 8364   6.482   9.465   5.852 -0.1984 -0.1310  0.4145
  786MOL0     C 8365   6.365   9.489   5.909  0.5611  0.0559 -0.3110
  786MOL0     O 8366   6.352   9.496   6.048  0.4495 -0.0360  0.6268
  786MOL0     C 8367   6.252   9.592   6.090  0.8762 -0.7701  0.1804
  786MOL0     C 8368   6.288   9.660   6.224  0.1804  0.8481  0.3464
  786MOL0     C 8369   6.295   9.552   6.339  0.3959  0.4573 -0.0669
  786MOL0     C 8370   6.311   9.621   6.480 -0.4168 -0.3543  0.1316
  786MOL0     C 8371   6.263   9.534   6.597  0.2943  0.9067  0.3155
  786MOL0     C 8372   6.360   9.410   6.621 -0.4114  0.1172  0.5436
  786MOL0     C 8373   6.291   9.310   6.702  0.4372  1.1901  0.1309
  786MOL0     C 8374   6.381   9.189   6.738  0.7393 -0.6351 -0.7763
  786MOL0    Cl 8375   6.287   9.071   6.829 -0.0555 -0.2806  0.3276
  786MOL0     C 8376   6.248   9.496   5.824  0.2444  0.5053 -0.7786
  786MOL0     C 8377   6.262   9.478   5.682  0.2696  0.5233  0.5039
  786MOL0     O 8378   6.369   9.214   5.514 -0.5099  0.8066  0.0218
  786MOL0     C 8379   6.491   9.395   5.234  0.3928 -0.2701 -0.5333
  786MOL0     C 8380   6.514   9.396   5.099  0.2393  0.0665  0.4719
  786MOL0     N 8381   6.626   8.764   4.568  0.0754 -0.0295  0.6308
  786MOL0     N 8382   6.685   8.654   4.532  0.2512 -0.5633 -0.6306
  786MOL0     C 8383   7.365   7.592   4.699  1.1507 -0.4181 -0.5756
  786MOL0     C 8384   7.371   7.482   4.783  0.2394  0.3579  0.5859
  786MOL0     C 8385   7.204   7.153   5.086  0.0846  0.4756 -0.0263
  786MOL0     C 8386   7.090   7.107   5.157  0.2338 -0.8910 -1.6765
  786MOL0     C 8387   7.072   6.977   5.206  0.0027  0.8018  0.6518
  786MOL0     C 8388   7.174   6.883   5.189 -0.4233  0.2476  0.1498
  786MOL0     O 8389   7.167   6.755   5.234  0.8457  0.6681 -0.0748
  786MOL0     C 8390   7.098   6.664   5.151 -0.3372 -0.4374  0.6182
  786MOL0     C 8391   7.095   6.523   5.201  0.1338  0.4657 -0.5809
  786MOL0     C 8392   7.036   6.499   5.346 -0.5054 -0.3570 -0.2178
  786MOL0     C 8393   6.879   6.491   5.358 -0.1504  0.2718  0.0749
  786MOL0     C 8394   6.848   6.454   5.500  0.2993 -0.4116  0.0697
  786MOL0     C 8395   6.808   6.433   5.615  0.2016  0.2687  0.1126
  786MOL0     C 8396   7.290   6.924   5.125  0.2613  0.2106 -0.1565
  786MOL0     C 8397   7.306   7.053   5.071 -0.2265 -0.2260 -0.3854
  786MOL0     C 8398   7.437   7.084   5.004  0.4944 -0.1397  0.6298
  786MOL0     H 8399   7.047   7.471   4.894 -1.0358 -1.2035 -0.6970
  786MOL0     H 8400   7.037   7.644   4.727  0.0407 -1.4810  1.6980
  786MOL0     H 8401   7.061   7.873   4.660 -0.5307  3.1507 -0.8336
  786MOL0     H 8402   7.042   7.775   4.504 -0.1542  1.9255 -1.9510
  786MOL0     H 8403   7.190   8.031   4.566 -2.6145  0.0823  0.7879
  786MOL0     H 8404   7.230   7.947   4.416 -1.4417  0.7315 -1.7281
  786MOL0     H 8405   7.054   8.121   4.362 -1.0321  1.7075  3.0743
  786MOL0     H 8406   6.991   7.960   4.337 -0.1026 -0.1695  0.4580
  786MOL0     H 8407   6.850   7.962   4.514  1.8082 -2.1247  0.4658
  786MOL0     H 8408   6.946   8.069   4.611 -1.5523 -2.7063  0.4246
  786MOL0     H 8409   6.813   8.183   4.358 -1.5510 -0.1087  0.6902
  786MOL0     H 8410   6.904   8.259   4.488  0.0456 -0.7200  0.4507
  786MOL0     H 8411   6.642   8.104   4.504 -0.2165 -0.8880  3.2422
  786MOL0     H 8412   6.733   8.153   4.646  2.3810 -2.4733 -0.1965
  786MOL0     H 8413   6.538   8.294   4.575 -1.0767  0.9350 -2.1373
  786MOL0     H 8414   6.633   8.352   4.427  1.1869  2.9737  0.6445
  786MOL0     H 8415   6.724   8.393   4.711  0.2117 -1.0349 -0.5578
  786MOL0     H 8416   6.807   8.429   4.557 -0.5146  0.1448 -1.5649
  786MOL0     H 8417   6.546   8.561   4.812  0.6194  2.4392  1.2917
  786MOL0     H 8418   6.487   8.800   4.885  1.4319  0.2387  1.7256
  786MOL0     H 8419   6.459   8.903   4.746  1.9069  0.6300 -2.5269
  786MOL0     H 8420   6.725   8.865   4.891  2.1588  0.7886 -2.0003
  786MOL0     H 8421   6.710   8.963   4.749  0.5933  0.1005  0.2344
  786MOL0     H 8422   6.568   9.033   5.009 -1.1433  0.6831 -0.2618
  786MOL0     H 8423   6.706   9.108   4.938 -0.3600  0.5321  0.8018
  786MOL0     H 8424   6.562   9.172   4.737 -0.1377  0.1353 -1.0734
  786MOL0     H 8425   6.427   9.089   4.797  0.5970  0.1581 -0.5034
  786MOL0     H 8426   6.351   9.116   5.027 -1.2591  0.0649  0.6542
  786MOL0     H 8427   6.176   9.137   5.325  1.8478 -0.3192  4.2377
  786MOL0     H 8428   6.310   9.028   5.355  1.5578  1.0335 -0.7540
  786MOL0     H 8429   6.231   9.008   5.212 -2.6392 -0.6492  1.2598
  786MOL0     H 8430   6.591   9.417   5.674 -0.9410 -0.2503 -2.7350
  786MOL0     H 8431   6.570   9.456   5.915  0.1291 -0.9865 -0.1460
  786MOL0     H 8432   6.228   9.670   6.018  1.2086 -1.0055 -0.1919
  786MOL0     H 8433   6.162   9.533   6.113 -0.6048  0.0021 -3.1054
  786MOL0     H 8434   6.386   9.708   6.216 -0.5023  3.3998  4.2818
  786MOL0     H 8435   6.213   9.733   6.256 -1.3331 -0.6142  0.1922
  786MOL0     H 8436   6.382   9.488   6.322 -0.5726 -0.6030 -1.2162
  786MOL0     H 8437   6.209   9.485   6.337  1.2569 -0.6660 -0.4950
  786MOL0     H 8438   6.236   9.700   6.477  1.1720  1.4172  2.8011
  786MOL0     H 8439   6.409   9.667   6.497 -0.0814 -0.3980 -1.5237
  786MOL0     H 8440   6.265   9.598   6.686  0.7455 -0.3188  1.2353
  786MOL0     H 8441   6.164   9.494   6.572  0.6279 -1.3665  2.2378
  786MOL0     H 8442   6.448   9.454   6.668 -1.1900  0.5296  1.6557
  786MOL0     H 8443   6.397   9.361   6.530  1.1300  2.2276 -0.0543
  786MOL0     H 8444   6.203   9.271   6.649  0.6854  1.9385 -0.8583
  786MOL0     H 8445   6.262   9.357   6.796  3.8798  2.3398  0.7550
  786MOL0     H 8446   6.471   9.225   6.789  0.0365 -0.7857  0.6045
  786MOL0     H 8447   6.414   9.147   6.642 -1.5913 -4.2289 -0.1702
  786MOL0     H 8448   6.152   9.508   5.872  0.2075 -3.2185  0.4383
  786MOL0     H 8449   6.177   9.495   5.617  1.0446  0.9576 -0.4391
  786MOL0     H 8450   6.544   9.470   5.292 -0.0675  0.2469 -0.7699
  786MOL0     H 8451   6.579   9.468   5.049 -0.5274 -1.6443 -3.2991
  786MOL0     H 8452   7.455   7.630   4.652  1.1447 -1.1929 -1.2289
  786MOL0     H 8453   7.476   7.458   4.794  0.3916  1.0713  0.6962
  786MOL0     H 8454   7.018   7.184   5.181  1.5964  0.5480 -2.0657
  786MOL0     H 8455   6.982   6.948   5.259 -0.0151  0.3162  0.3611
  786MOL0     H 8456   6.993   6.696   5.149  0.0204  0.7542  0.4719
  786MOL0     H 8457   7.140   6.676   5.051  1.4050  2.3267  1.5990
  786MOL0     H 8458   7.197   6.483   5.192 -0.3385 -0.7277 -0.7642
  786MOL0     H 8459   7.039   6.462   5.129 -0.5901 -0.1529  0.4864
  786MOL0     H 8460   7.082   6.403   5.369  1.5417  0.4213 -0.8222
  786MOL0     H 8461   7.069   6.572   5.421  0.5395 -1.5507  0.5317
  786MOL0     H 8462   6.835   6.422   5.287  0.7355  2.1045 -2.3988
  786MOL0     H 8463   6.824   6.583   5.337 -1.2451 -0.2267  0.6970
  786MOL0     H 8464   6.785   6.397   5.713  3.1408 -3.9576 -0.4962
  786MOL0     H 8465   7.378   6.860   5.124 -1.3672 -2.1720 -0.4317
  786MOL0     H 8466   7.437   7.081   4.894 -1.6621 -3.0271  0.5847
  786MOL0     H 8467   7.478   7.178   5.039  0.7354  0.3793 -0.9489
  786MOL0     H 8468   7.504   7.003   5.034  0.8833  0.0049  0.1633
  787MOL0     O 8469   5.924   3.039   2.280 -0.2081 -0.6275  0.0480
  787MOL0     C 8470   5.818   3.076   2.226  0.2875 -0.7677  0.2964
  787MOL0     O 8471   5.766   3.012   2.112 -0.2065  0.5321 -0.1903
  787MOL0     C 8472   5.837   2.904   2.060  0.3736  0.2676  0.6524
  787MOL0     C 8473   5.841   2.777   2.124  0.3127  1.4649  0.7686
  787MOL0     C 8474   5.917   2.672   2.080  0.1373  0.3076  0.0386
  787MOL0     C 8475   5.976   2.678   1.952 -0.9240  0.3515  0.2692
  787MOL0     O 8476   6.054   2.580   1.900 -0.2766  0.3680  0.5504
  787MOL0     C 8477   6.172   2.552   1.976 -0.4482  0.5294  0.5029
  787MOL0     C 8478   6.288   2.489   1.903  0.4689  0.2250 -0.4589
  787MOL0     C 8479   6.247   2.371   1.813 -0.4106  0.6454 -0.4895
  787MOL0     C 8480   6.357   2.279   1.767 -0.2771 -0.4011  0.2081
  787MOL0     C 8481   6.487   2.360   1.744 -0.0415  0.3919  0.8453
  787MOL0     C 8482   6.600   2.265   1.678  0.7184  0.2977 -0.1697
  787MOL0     C 8483   6.725   2.345   1.630  0.3327 -0.3476 -0.7684
  787MOL0     C 8484   6.697   2.493   1.571 -0.4512  1.1464  0.3765
  787MOL0     N 8485   6.796   2.530   1.478 -0.7451  0.9248  0.2721
  787MOL0     C 8486   6.894   2.616   1.515  0.1706  0.1780  0.8301
  787MOL0     C 8487   6.971   2.629   1.404  0.5646  0.4596  0.3398
  787MOL0     C 8488   7.098   2.705   1.393  0.0421  0.1683 -0.3709
  787MOL0     C 8489   7.222   2.628   1.350  0.0563  0.1527 -1.0394
  787MOL0     C 8490   7.336   2.717   1.278  0.0120  0.1558 -1.1416
  787MOL0     C 8491   7.414   2.794   1.391 -1.2365  0.0520 -0.1620
  787MOL0     O 8492   7.463   2.712   1.498 -0.0880  0.2450  0.4238
  787MOL0     C 8493   7.593   2.665   1.510  0.4189  0.6613  0.5142
  787MOL0     C 8494   7.679   2.670   1.406 -0.2084  0.6222 -0.0860
  787MOL0     C 8495   7.806   2.624   1.437  0.2269  0.2829 -0.0174
  787MOL0     C 8496   7.917   2.660   1.336  0.1301  0.6978  0.0494
  787MOL0     C 8497   7.837   2.572   1.570 -0.3013 -0.6233 -0.6850
  787MOL0     C 8498   7.975   2.538   1.609 -0.0401  0.0417 -0.2322
  787MOL0     O 8499   8.038   2.455   1.517 -0.3537  0.0410  1.0405
  787MOL0     C 8500   8.161   2.409   1.553  0.0813  0.2274  0.0866
  787MOL0     C 8501   8.164   2.283   1.609 -0.4558  0.6598 -0.5894
  787MOL0     C 8502   8.286   2.227   1.630  0.6018  0.0359 -0.1287
  787MOL0     C 8503   8.405   2.296   1.605  0.6465  0.7496  0.9896
  787MOL0     O 8504   8.518   2.230   1.624 -0.1332 -0.0455 -0.3098
  787MOL0     C 8505   8.529   2.147   1.738  0.2942 -0.2908 -0.2181
  787MOL0     C 8506   8.670   2.139   1.774 -0.5224  1.1807 -0.0134
  787MOL0     C 8507   8.730   2.271   1.805  0.3619 -0.2036  0.1728
  787MOL0     C 8508   8.873   2.274   1.840  0.0478  0.2518  0.3860
  787MOL0     C 8509   8.950   2.391   1.767  0.4769 -0.2822  0.2917
  787MOL0     C 8510   8.915   2.536   1.817 -0.2591  0.6440  0.3984
  787MOL0     C 8511   9.010   2.640   1.768  0.1505 -0.5907 -0.5801
  787MOL0     C 8512   8.962   2.687   1.631 -0.8659 -1.7047 -0.4663
  787MOL0    Cl 8513   9.072   2.816   1.576  0.2489 -0.1804  0.1030
  787MOL0     C 8514   8.398   2.423   1.550 -0.6451 -0.3906  0.3392
  787MOL0     C 8515   8.274   2.484   1.521 -0.6507  0.3902  0.6259
  787MOL0     O 8516   8.018   2.568   1.722 -0.1535 -0.8202  0.0301
  787MOL0     C 8517   7.737   2.541   1.661 -0.6305  0.2253 -0.6393
  787MOL0     C 8518   7.616   2.596   1.626  0.5518 -0.5586  0.5121
  787MOL0     N 8519   6.915   2.544   1.307  0.4882 -0.3175 -0.4688
  787MOL0     N 8520   6.817   2.479   1.349  0.1280 -0.7031 -0.6040
  787MOL0     C 8521   5.974   2.800   1.881 -0.0211  0.2344  0.3087
  787MOL0     C 8522   5.908   2.915   1.933  0.9076 -0.2114 -0.2872
  787MOL0     C 8523   5.747   3.194   2.270  0.1380 -1.0555 -0.2081
  787MOL0     C 8524   5.662   3.259   2.175 -0.5621 -1.2132 -0.2673
  787MOL0     C 8525   5.604   3.376   2.225 -0.9746  0.2006 -0.1999
  787MOL0     C 8526   5.614   3.422   2.360  0.5492 -0.3557  0.2927
  787MOL0     O 8527   5.556   3.539   2.401  0.0916  0.2795  0.0538
  787MOL0     C 8528   5.551   3.586   2.537  0.4604 -0.2823 -0.8480
  787MOL0     C 8529   5.409   3.657   2.542 -0.2375 -0.6334  0.3690
  787MOL0     C 8530   5.377   3.719   2.678  0.2439 -0.3038 -0.5140
  787MOL0     C 8531   5.302   3.614   2.764  0.5073  0.1148  0.5212
  787MOL0     C 8532   5.263   3.667   2.894  0.8449 -0.3282 -0.7549
  787MOL0     C 8533   5.218   3.715   2.992 -0.5515  0.4488 -0.7130
  787MOL0     C 8534   5.706   3.356   2.442 -0.0281 -0.6831 -0.5822
  787MOL0     C 8535   5.770   3.238   2.404  0.0598  0.0647  0.3058
  787MOL0     C 8536   5.852   3.170   2.510  0.1990  0.3667 -0.8330
  787MOL0     H 8537   5.781   2.770   2.214  1.3262 -0.2836  1.3507
  787MOL0     H 8538   5.916   2.579   2.137 -3.6250 -0.2156 -0.5768
  787MOL0     H 8539   6.140   2.467   2.037  2.6087 -2.7343 -1.9794
  787MOL0     H 8540   6.195   2.638   2.039 -3.2296 -0.6676  3.4265
  787MOL0     H 8541   6.334   2.569   1.845 -2.1900  1.1511 -1.4510
  787MOL0     H 8542   6.363   2.453   1.974 -3.0817 -2.0694  2.5763
  787MOL0     H 8543   6.188   2.303   1.875 -0.2307  0.0199 -0.9927
  787MOL0     H 8544   6.183   2.397   1.728  0.0834  3.4918 -0.0842
  787MOL0     H 8545   6.375   2.211   1.851  1.5722  0.0526  0.2186
  787MOL0     H 8546   6.329   2.213   1.685 -0.7694  0.0555  0.0009
  787MOL0     H 8547   6.539   2.396   1.833  1.6499 -0.5065  0.2713
  787MOL0     H 8548   6.457   2.444   1.682 -1.4996 -1.2014 -0.7207
  787MOL0     H 8549   6.622   2.179   1.743  2.4938  1.3688  0.7223
  787MOL0     H 8550   6.556   2.205   1.598 -1.6732  0.4973  0.8841
  787MOL0     H 8551   6.780   2.290   1.553  1.1921 -0.3442 -0.1802
  787MOL0     H 8552   6.802   2.358   1.707  0.2811 -1.8881 -0.4193
  787MOL0     H 8553   6.597   2.494   1.525 -1.1628  3.4406  1.7901
  787MOL0     H 8554   6.686   2.572   1.646 -2.9170 -1.6013  3.1421
  787MOL0     H 8555   6.906   2.665   1.611 -3.4526  1.3585  0.8347
  787MOL0     H 8556   7.137   2.762   1.478  5.0570 -0.9731 -1.5757
  787MOL0     H 8557   7.079   2.777   1.313  1.4223 -0.8467 -1.6741
  787MOL0     H 8558   7.274   2.566   1.424  1.7290 -1.9038 -3.7499
  787MOL0     H 8559   7.184   2.555   1.278 -0.1897 -1.2552  0.4693
  787MOL0     H 8560   7.399   2.650   1.218  0.8205 -0.0653 -0.0635
  787MOL0     H 8561   7.284   2.783   1.208 -4.4381 -1.4394  0.3128
  787MOL0     H 8562   7.502   2.853   1.361 -0.0018 -1.9994 -0.7353
  787MOL0     H 8563   7.340   2.864   1.430  0.9647  1.4656  1.7911
  787MOL0     H 8564   7.656   2.713   1.309 -1.8481 -1.5801 -0.7554
  787MOL0     H 8565   7.966   2.569   1.300 -0.4068  0.8788 -1.2093
  787MOL0     H 8566   7.992   2.729   1.376  1.5805 -1.0943  0.5644
  787MOL0     H 8567   7.873   2.706   1.247 -1.7402 -0.5416  0.2712
  787MOL0     H 8568   8.070   2.231   1.621 -0.7473  1.7053  2.8049
  787MOL0     H 8569   8.290   2.124   1.666  1.1793  0.2801  0.5149
  787MOL0     H 8570   8.461   2.182   1.816  1.0702 -1.1607  0.8629
  787MOL0     H 8571   8.495   2.046   1.713 -1.1946  0.6946 -2.5597
  787MOL0     H 8572   8.671   2.076   1.864  1.9107 -0.0135 -0.7945
  787MOL0     H 8573   8.728   2.090   1.696 -2.4953 -1.3802  0.0143
  787MOL0     H 8574   8.666   2.321   1.878  1.5751  1.0635  0.4098
  787MOL0     H 8575   8.725   2.339   1.719 -2.1805  1.6642  1.6399
  787MOL0     H 8576   8.919   2.179   1.811  1.1235  0.9638 -0.2944
  787MOL0     H 8577   8.891   2.290   1.947  1.4547  0.3233  0.1555
  787MOL0     H 8578   9.056   2.376   1.787  1.3694  0.6691 -3.1472
  787MOL0     H 8579   8.953   2.381   1.659  3.4703  1.1558  0.1503
  787MOL0     H 8580   8.917   2.540   1.926  4.2868  0.9162  0.5020
  787MOL0     H 8581   8.815   2.553   1.776  0.4180 -1.7562 -2.6463
  787MOL0     H 8582   9.108   2.595   1.753 -0.2939 -0.9868 -2.6924
  787MOL0     H 8583   9.018   2.731   1.827  0.7717  1.1895 -3.2311
  787MOL0     H 8584   8.864   2.736   1.628  0.1239  0.3048 -1.9018
  787MOL0     H 8585   8.958   2.601   1.564  1.7680 -1.0986 -1.5260
  787MOL0     H 8586   8.492   2.464   1.514 -1.4456 -1.6469 -3.7428
  787MOL0     H 8587   8.267   2.576   1.464  0.4871  0.6546  0.8763
  787MOL0     H 8588   7.750   2.488   1.755  1.1747  1.5251 -0.0953
  787MOL0     H 8589   7.532   2.591   1.695 -1.1148  0.7354 -1.3124
  787MOL0     H 8590   6.019   2.800   1.783  1.0212 -3.0661  0.6483
  787MOL0     H 8591   5.906   3.013   1.888  0.0553  0.0006  0.1941
  787MOL0     H 8592   5.644   3.225   2.073 -0.6112 -0.3955 -0.5420
  787MOL0     H 8593   5.531   3.422   2.160  0.2700  3.3395  0.4238
  787MOL0     H 8594   5.546   3.515   2.621  2.3017  0.8674  0.3090
  787MOL0     H 8595   5.634   3.657   2.547 -0.6250  1.0610 -1.0947
  787MOL0     H 8596   5.337   3.587   2.499  1.4043  0.2434 -4.3645
  787MOL0     H 8597   5.420   3.742   2.475 -0.4302 -0.1229  0.9764
  787MOL0     H 8598   5.459   3.762   2.735 -1.0144  0.3465  0.8770
  787MOL0     H 8599   5.314   3.805   2.650  1.2857  0.3603 -0.8837
  787MOL0     H 8600   5.357   3.519   2.768  2.2120  1.0914  1.8363
  787MOL0     H 8601   5.210   3.598   2.706  0.6012  2.7922 -0.4901
  787MOL0     H 8602   5.183   3.765   3.080  1.2279  1.7969 -0.7297
  787MOL0     H 8603   5.735   3.400   2.536  0.6143 -0.7409 -0.7522
  787MOL0     H 8604   5.955   3.167   2.475 -0.3124  2.2243 -2.6920
  787MOL0     H 8605   5.849   3.213   2.611  0.0223 -0.3680 -0.5213
  787MOL0     H 8606   5.812   3.069   2.523  1.0683  0.0930 -0.2080
  788MOL0     O 8607  11.398   3.316   9.347 -0.1241  0.0552 -0.4746
  788MOL0     C 8608  11.409   3.436   9.309  0.9564  0.3379 -0.8247
  788MOL0     O 8609  11.490   3.486   9.216 -0.5008 -0.2885 -0.1168
  788MOL0     C 8610  11.567   3.403   9.147 -0.2362 -0.0164  0.1599
  788MOL0     C 8611  11.524   3.367   9.011 -0.3247  0.0202 -0.2704
  788MOL0     C 8612  11.607   3.284   8.937  0.3157  0.4277  0.0061
  788MOL0     C 8613  11.730   3.237   8.993 -0.9190  0.8105  0.0171
  788MOL0     O 8614  11.822   3.167   8.913  0.5616  0.0880 -0.0886
  788MOL0     C 8615  11.925   3.093   8.978  0.4818  0.0340  1.2634
  788MOL0     C 8616  11.986   2.998   8.878 -0.2504  0.0618 -0.3937
  788MOL0     C 8617  12.074   3.072   8.772  0.0093  0.3007 -0.1391
  788MOL0     C 8618  12.198   3.164   8.827 -0.2662  0.6557 -1.0209
  788MOL0     C 8619  12.299   3.213   8.719 -0.0924  0.3160  1.6748
  788MOL0     C 8620  12.426   3.286   8.776  0.4652  0.7838 -0.5735
  788MOL0     C 8621  12.531   3.315   8.665 -0.1973 -0.4083  0.2686
  788MOL0     C 8622  12.675   3.301   8.717  0.6840 -1.3302  0.1825
  788MOL0     N 8623  12.715   3.168   8.757  0.1661 -1.1087  0.1312
  788MOL0     C 8624  12.736   3.062   8.680 -0.2196 -1.0551 -0.0156
  788MOL0     C 8625  12.776   2.965   8.763  0.4413  0.0348  0.1204
  788MOL0     C 8626  12.786   2.819   8.727 -0.2933 -0.6081 -1.1508
  788MOL0     C 8627  12.923   2.757   8.726  0.4536  1.0291 -0.0917
  788MOL0     C 8628  13.016   2.837   8.645  0.6107 -0.6039  0.6490
  788MOL0     C 8629  13.154   2.768   8.626  0.5573 -0.2488 -0.3356
  788MOL0     O 8630  13.252   2.854   8.585  0.4805  0.0933  0.4312
  788MOL0     C 8631  13.327   2.801   8.479 -0.3153  0.0411 -0.4889
  788MOL0     C 8632  13.285   2.734   8.361 -0.3721 -0.2313  0.2022
  788MOL0     C 8633  13.374   2.707   8.247  0.3297  0.2838 -0.2336
  788MOL0     C 8634  13.310   2.627   8.130  0.4000 -0.4145  0.3010
  788MOL0     C 8635  13.508   2.748   8.252 -0.4796  0.1157  0.0330
  788MOL0     C 8636  13.608   2.710   8.153  0.4621 -0.5043 -1.3142
  788MOL0     O 8637  13.729   2.749   8.198 -0.9135  0.8876  0.0567
  788MOL0     C 8638  13.842   2.731   8.117 -0.3802 -0.0550 -0.6759
  788MOL0     C 8639  13.903   2.847   8.074 -0.0374  0.9199  0.5323
  788MOL0     C 8640  14.018   2.836   8.000 -0.1542  0.1154 -0.4005
  788MOL0     C 8641  14.068   2.715   7.959 -0.0949  0.6781  0.5088
  788MOL0     O 8642  14.183   2.724   7.892 -0.1291 -0.4148 -0.6380
  788MOL0     C 8643  14.263   2.609   7.855  0.3113  0.0251 -0.8568
  788MOL0     C 8644  14.388   2.640   7.786 -0.1630 -0.2259 -0.5739
  788MOL0     C 8645  14.479   2.520   7.753 -0.0215  0.3603 -0.1164
  788MOL0     C 8646  14.596   2.562   7.657 -0.1062 -0.2047  0.0585
  788MOL0     C 8647  14.676   2.444   7.598 -0.2631 -0.5147  1.3874
  788MOL0     C 8648  14.780   2.495   7.506 -0.8361  1.2363  0.2116
  788MOL0     C 8649  14.847   2.373   7.433  0.3425  0.2064  0.4813
  788MOL0     C 8650  14.962   2.413   7.357 -0.3100 -0.1800 -0.3379
  788MOL0    Cl 8651  14.919   2.529   7.225 -0.3391  0.6049 -0.0689
  788MOL0     C 8652  14.002   2.602   8.005 -0.4121  0.2239 -0.7179
  788MOL0     C 8653  13.887   2.607   8.083 -0.6511 -0.3982 -0.8692
  788MOL0     O 8654  13.585   2.653   8.045  0.1145  0.1740  0.0957
  788MOL0     C 8655  13.545   2.819   8.366 -0.7524  0.4634  0.2972
  788MOL0     C 8656  13.456   2.850   8.475 -0.6179  0.2268 -0.3987
  788MOL0     N 8657  12.782   3.012   8.888 -0.1981 -0.2570 -1.0349
  788MOL0     N 8658  12.755   3.137   8.885  0.1602  0.1766  0.7566
  788MOL0     C 8659  11.767   3.290   9.117 -0.2263 -0.8246 -0.2940
  788MOL0     C 8660  11.690   3.370   9.194  0.4390 -0.5707 -0.0086
  788MOL0     C 8661  11.309   3.535   9.368 -0.3219 -0.2488  0.1099
  788MOL0     C 8662  11.289   3.652   9.295  0.0886  0.5796 -0.0494
  788MOL0     C 8663  11.199   3.753   9.328 -0.4790  0.0791  0.1891
  788MOL0     C 8664  11.118   3.740   9.438  0.0745 -0.6164  0.3210
  788MOL0     O 8665  11.027   3.838   9.493 -0.1472 -0.5583  0.7873
  788MOL0     C 8666  11.029   3.964   9.418 -0.3889 -0.4608  0.9645
  788MOL0     C 8667  10.945   4.076   9.475  0.4211 -0.3918  0.0318
  788MOL0     C 8668  11.004   4.129   9.602 -0.0709  0.3403  0.6964
  788MOL0     C 8669  10.941   4.261   9.662 -0.2819 -0.0418  0.7560
  788MOL0     C 8670  10.967   4.374   9.569 -1.3254  0.0352 -0.1968
  788MOL0     C 8671  10.980   4.470   9.493 -0.5025  0.2178  0.4789
  788MOL0     C 8672  11.133   3.628   9.521  0.2512  0.9870 -0.1537
  788MOL0     C 8673  11.225   3.522   9.487  0.6892  0.6343 -0.0916
  788MOL0     C 8674  11.216   3.400   9.569  0.1671  1.2621  0.0994
  788MOL0     H 8675  11.426   3.392   8.970  0.0148  2.4638  0.2278
  788MOL0     H 8676  11.576   3.247   8.840  2.4608 -2.3636  0.2610
  788MOL0     H 8677  11.875   3.038   9.059  0.2591 -1.0655  0.4017
  788MOL0     H 8678  12.001   3.161   9.018  0.3403  0.0948  1.4293
  788MOL0     H 8679  12.059   2.938   8.932 -2.5872 -2.1940  0.4569
  788MOL0     H 8680  11.911   2.943   8.820  2.0575 -1.4466 -2.1114
  788MOL0     H 8681  12.123   2.995   8.711  0.6310  1.0465 -0.6084
  788MOL0     H 8682  12.018   3.137   8.705 -0.8321  2.1118  2.1533
  788MOL0     H 8683  12.153   3.246   8.884 -3.0012 -1.8096  0.6479
  788MOL0     H 8684  12.256   3.104   8.898 -0.8465 -0.6482 -1.6186
  788MOL0     H 8685  12.251   3.278   8.645 -0.2805 -1.0791  0.5308
  788MOL0     H 8686  12.335   3.121   8.673  0.0499  0.3989  1.6201
  788MOL0     H 8687  12.403   3.374   8.838 -3.2559 -1.2457  1.3246
  788MOL0     H 8688  12.461   3.206   8.842  1.1727  1.2158 -0.4178
  788MOL0     H 8689  12.528   3.419   8.631  1.6343 -0.6183 -0.6927
  788MOL0     H 8690  12.520   3.258   8.572  0.0835  0.9281 -0.6242
  788MOL0     H 8691  12.740   3.327   8.633 -1.2592 -1.8027 -1.5655
  788MOL0     H 8692  12.680   3.372   8.799  1.5169 -0.8803 -0.2470
  788MOL0     H 8693  12.743   3.061   8.571  2.6747  0.0605  0.0620
  788MOL0     H 8694  12.740   2.805   8.629 -2.8859 -2.0820  0.1791
  788MOL0     H 8695  12.719   2.753   8.782 -2.2095 -0.3395 -3.0291
  788MOL0     H 8696  12.961   2.757   8.829 -1.3609 -0.8363  0.6495
  788MOL0     H 8697  12.917   2.657   8.684 -0.0784  2.1517 -2.9252
  788MOL0     H 8698  12.979   2.866   8.546 -1.5193 -0.4514  1.4265
  788MOL0     H 8699  13.028   2.930   8.702  1.3120 -1.2573  1.5931
  788MOL0     H 8700  13.187   2.736   8.725 -0.3225 -1.7065 -0.4785
  788MOL0     H 8701  13.142   2.671   8.577  1.3644 -1.4086  1.6320
  788MOL0     H 8702  13.180   2.709   8.351 -0.0788 -1.4605  0.0564
  788MOL0     H 8703  13.353   2.527   8.129  0.4935 -0.3763 -0.1691
  788MOL0     H 8704  13.325   2.666   8.028 -1.0087 -0.5934  0.0041
  788MOL0     H 8705  13.202   2.622   8.147  0.5821  0.2397  1.8531
  788MOL0     H 8706  13.853   2.941   8.093  0.0058  1.6329 -2.3398
  788MOL0     H 8707  14.057   2.934   7.978 -0.3484  0.0482 -1.0602
  788MOL0     H 8708  14.301   2.559   7.944 -1.9878  1.6443  1.2002
  788MOL0     H 8709  14.198   2.544   7.795 -1.4272 -1.1670  2.1025
  788MOL0     H 8710  14.358   2.696   7.696  1.9151  0.1166 -1.1120
  788MOL0     H 8711  14.443   2.710   7.851 -0.1556 -0.1697 -0.6405
  788MOL0     H 8712  14.419   2.439   7.710 -0.6961  0.9593 -0.3214
  788MOL0     H 8713  14.517   2.484   7.849  1.4653  1.3305 -0.3025
  788MOL0     H 8714  14.660   2.632   7.711 -1.3097  0.3141  0.8494
  788MOL0     H 8715  14.553   2.623   7.577 -1.9414 -1.2638  0.1728
  788MOL0     H 8716  14.718   2.382   7.679  1.1402 -0.5907  0.6335
  788MOL0     H 8717  14.601   2.384   7.547  0.7884 -2.4109  1.9468
  788MOL0     H 8718  14.857   2.548   7.564  2.0625 -1.3920 -0.9375
  788MOL0     H 8719  14.738   2.558   7.427  1.0074 -0.0533 -1.9127
  788MOL0     H 8720  14.767   2.322   7.378  0.8547 -1.3018  1.1090
  788MOL0     H 8721  14.882   2.301   7.507 -1.9817 -0.7167  0.7576
  788MOL0     H 8722  15.006   2.318   7.324 -1.3840  0.0898 -2.7210
  788MOL0     H 8723  15.034   2.448   7.432 -0.4041 -3.3476  1.4583
  788MOL0     H 8724  14.047   2.504   7.989 -0.3161  0.1888 -0.2360
  788MOL0     H 8725  13.842   2.514   8.116 -0.9182  0.2940  0.7957
  788MOL0     H 8726  13.638   2.873   8.382  1.7018 -2.7117 -1.9255
  788MOL0     H 8727  13.478   2.912   8.561 -0.3155 -1.2560  0.6319
  788MOL0     H 8728  11.857   3.260   9.171 -0.2107  2.0004  1.4411
  788MOL0     H 8729  11.722   3.391   9.296 -2.6992  2.3079  0.5286
  788MOL0     H 8730  11.341   3.666   9.201 -2.1405  1.7388 -1.2033
  788MOL0     H 8731  11.194   3.839   9.261  1.2354 -0.0725 -0.1818
  788MOL0     H 8732  11.131   4.001   9.404 -1.4769  1.9121 -1.6370
  788MOL0     H 8733  10.990   3.946   9.318 -0.5467 -0.5490  1.0420
  788MOL0     H 8734  10.856   4.018   9.500  2.6971 -2.2639  4.9518
  788MOL0     H 8735  10.921   4.160   9.409 -3.5546 -2.2988 -1.2386
  788MOL0     H 8736  10.994   4.048   9.675  1.5140 -1.9768 -1.4621
  788MOL0     H 8737  11.113   4.131   9.597  0.0689  0.8316  3.0326
  788MOL0     H 8738  10.994   4.272   9.757  0.1641 -0.1387  0.5222
  788MOL0     H 8739  10.833   4.252   9.676 -0.2598 -0.0430  0.9212
  788MOL0     H 8740  10.997   4.556   9.432 -0.4350  0.2623  0.5620
  788MOL0     H 8741  11.082   3.621   9.617 -1.2653 -0.9280 -1.0141
  788MOL0     H 8742  11.182   3.403   9.673 -1.3669 -4.0216  0.0195
  788MOL0     H 8743  11.143   3.335   9.519  0.5161  1.1627 -0.2920
  788MOL0     H 8744  11.318   3.359   9.563  0.0677  1.1346 -0.9194
  789MOL0     O 8745   5.805   1.911  11.394  0.7812 -0.1881 -0.6533
  789MOL0     C 8746   5.728   1.978  11.336  0.3626 -0.0610 -0.2111
  789MOL0     O 8747   5.713   1.992  11.203  0.5355 -0.4419 -0.2020
  789MOL0     C 8748   5.804   1.963  11.110 -0.5718  0.0861  0.6320
  789MOL0     C 8749   5.758   1.982  10.978 -0.3620  0.4054  0.8692
  789MOL0     C 8750   5.826   1.977  10.863 -0.2423 -0.1177  0.2210
  789MOL0     C 8751   5.965   1.948  10.878  0.9039 -0.5970 -0.8747
  789MOL0     O 8752   6.051   1.956  10.769 -0.7066 -0.0676 -0.0242
  789MOL0     C 8753   6.178   2.024  10.793  0.0760  0.1430  0.7837
  789MOL0     C 8754   6.289   1.910  10.784 -0.4965 -0.2894 -1.0935
  789MOL0     C 8755   6.426   1.967  10.827  0.0930 -0.1749  0.0571
  789MOL0     C 8756   6.441   2.014  10.976  0.0529  0.0979 -1.0394
  789MOL0     C 8757   6.579   2.082  10.977 -0.6560  0.2423 -0.6560
  789MOL0     C 8758   6.612   2.140  11.116  0.1606  0.2297  0.7185
  789MOL0     C 8759   6.752   2.222  11.108  0.2008  0.3429 -0.1128
  789MOL0     C 8760   6.875   2.123  11.112  0.1285 -0.7534 -0.3062
  789MOL0     N 8761   6.996   2.201  11.130  0.8751 -0.6545  0.1555
  789MOL0     C 8762   7.016   2.307  11.219 -0.8696  0.2587 -0.0169
  789MOL0     C 8763   7.148   2.349  11.192 -0.4020 -0.1481  0.4168
  789MOL0     C 8764   7.217   2.462  11.260 -0.0966 -0.1947  0.5553
  789MOL0     C 8765   7.211   2.445  11.415  0.4132  0.0681 -1.1874
  789MOL0     C 8766   7.285   2.320  11.458 -0.6730 -0.5304  0.1890
  789MOL0     C 8767   7.444   2.337  11.438 -0.2520  0.2008  0.6448
  789MOL0     O 8768   7.496   2.452  11.508  0.3472 -0.5356 -0.1963
  789MOL0     C 8769   7.631   2.482  11.496 -0.4625 -0.8416  0.3740
  789MOL0     C 8770   7.721   2.386  11.442  0.8337  0.3072  0.2893
  789MOL0     C 8771   7.855   2.418  11.424  0.0405 -0.3999 -0.0924
  789MOL0     C 8772   7.935   2.300  11.364  0.4072  0.2505  0.5757
  789MOL0     C 8773   7.902   2.558  11.450  0.4804 -0.4219  0.9728
  789MOL0     C 8774   8.036   2.608  11.409 -0.2852  0.1801  0.2307
  789MOL0     O 8775   8.060   2.744  11.410  0.0249  0.3112  0.1608
  789MOL0     C 8776   8.164   2.796  11.337  0.3839 -0.1857 -0.7610
  789MOL0     C 8777   8.194   2.759  11.205  0.4162 -0.3459 -0.0964
  789MOL0     C 8778   8.289   2.837  11.133  0.9204 -0.4310 -0.1430
  789MOL0     C 8779   8.338   2.957  11.193 -0.0306  0.1838 -0.4358
  789MOL0     O 8780   8.431   3.041  11.134 -0.6117 -0.1375 -0.7151
  789MOL0     C 8781   8.464   3.014  11.000  0.4652  0.2446  0.2288
  789MOL0     C 8782   8.577   3.104  10.960  0.8540 -0.5049 -0.8671
  789MOL0     C 8783   8.554   3.251  10.954 -0.2467 -0.6890  0.3120
  789MOL0     C 8784   8.689   3.318  10.921 -0.0996 -0.5550  0.3637
  789MOL0     C 8785   8.775   3.335  11.043  0.1138  0.7160 -0.2717
  789MOL0     C 8786   8.888   3.430  11.003 -0.4399  0.4336  0.2012
  789MOL0     C 8787   8.980   3.464  11.121  0.3358  0.2781  0.5317
  789MOL0     C 8788   9.081   3.576  11.077  0.1122 -0.0939 -0.0019
  789MOL0    Cl 8789   9.010   3.720  11.021 -0.6136  0.0984 -0.0482
  789MOL0     C 8790   8.308   2.977  11.329 -0.6201 -0.5332  0.1186
  789MOL0     C 8791   8.222   2.903  11.398 -0.5822 -0.0495  0.5842
  789MOL0     O 8792   8.122   2.523  11.380  0.1665 -0.7775 -0.1172
  789MOL0     C 8793   7.817   2.641  11.511  0.3233  0.5041 -0.3657
  789MOL0     C 8794   7.680   2.606  11.529  0.2352 -0.0518  0.5834
  789MOL0     N 8795   7.196   2.261  11.095 -0.0105 -0.0597  1.1198
  789MOL0     N 8796   7.102   2.180  11.048 -0.3563 -0.0695 -0.3440
  789MOL0     C 8797   6.011   1.908  11.010 -0.4731  0.1674  0.3865
  789MOL0     C 8798   5.928   1.926  11.125 -0.5607 -0.0090  0.4823
  789MOL0     C 8799   5.631   2.067  11.404  0.2942 -0.4102  0.4084
  789MOL0     C 8800   5.568   2.018  11.516 -0.3670  1.2311 -0.2489
  789MOL0     C 8801   5.473   2.092  11.593  1.6428 -1.1722 -0.1964
  789MOL0     C 8802   5.445   2.220  11.553 -0.4601 -0.3237  0.2777
  789MOL0     O 8803   5.350   2.278  11.635  0.1717  0.4778 -0.3598
  789MOL0     C 8804   5.309   2.413  11.616  0.1902 -1.7416 -0.4488
  789MOL0     C 8805   5.173   2.413  11.690 -0.2190  0.1682 -0.1856
  789MOL0     C 8806   5.186   2.368  11.827 -0.2347 -0.3774 -0.5542
  789MOL0     C 8807   5.121   2.463  11.930 -0.2443  0.4776  0.1796
  789MOL0     C 8808   4.973   2.465  11.927  0.1857 -0.6670 -0.8328
  789MOL0     C 8809   4.850   2.465  11.923  0.9781  0.3194 -0.1696
  789MOL0     C 8810   5.519   2.281  11.446  0.3312  1.0410 -0.4213
  789MOL0     C 8811   5.618   2.204  11.376 -0.0762 -0.5591  0.5874
  789MOL0     C 8812   5.689   2.285  11.262  0.3540 -0.4482 -0.5342
  789MOL0     H 8813   5.654   2.010  10.967 -0.7717 -1.8923 -3.0359
  789MOL0     H 8814   5.774   2.002  10.771  0.9131  1.5171 -0.0303
  789MOL0     H 8815   6.190   2.081  10.886 -0.0111  1.4607  0.0190
  789MOL0     H 8816   6.200   2.092  10.710  0.4214  2.6426  2.8012
  789MOL0     H 8817   6.266   1.834  10.860 -1.0853  1.0312  0.1118
  789MOL0     H 8818   6.296   1.874  10.682  4.4148  0.5172 -1.2461
  789MOL0     H 8819   6.494   1.884  10.804  1.3124  0.0332  2.6304
  789MOL0     H 8820   6.439   2.055  10.763 -3.5455  2.0342  2.0566
  789MOL0     H 8821   6.368   2.092  11.000 -0.8633 -0.3029 -2.3928
  789MOL0     H 8822   6.442   1.933  11.050 -1.3312 -1.6464 -2.8207
  789MOL0     H 8823   6.577   2.152  10.892  0.9206  1.6501  0.4015
  789MOL0     H 8824   6.664   2.020  10.948 -1.3003 -0.6051 -0.7821
  789MOL0     H 8825   6.524   2.203  11.131 -1.4989 -2.1242  1.4488
  789MOL0     H 8826   6.617   2.060  11.190 -1.4752 -0.8260 -0.2444
  789MOL0     H 8827   6.762   2.290  11.193  2.0617  0.7400 -0.5967
  789MOL0     H 8828   6.764   2.290  11.023  3.6760  0.0230 -0.0259
  789MOL0     H 8829   6.870   2.055  11.197  0.8013  0.1864  0.5037
  789MOL0     H 8830   6.887   2.073  11.016  3.6396  0.6660 -0.7623
  789MOL0     H 8831   6.948   2.350  11.292  1.3805  1.2746  1.6064
  789MOL0     H 8832   7.153   2.548  11.238 -0.9300 -0.8228  0.5139
  789MOL0     H 8833   7.318   2.488  11.227 -0.2148 -0.2510  0.1410
  789MOL0     H 8834   7.235   2.536  11.472 -3.5283  0.7550 -0.3442
  789MOL0     H 8835   7.108   2.440  11.450  0.5908 -1.0317 -0.7933
  789MOL0     H 8836   7.267   2.304  11.565  0.5636 -0.9737  0.3468
  789MOL0     H 8837   7.259   2.233  11.398 -0.2246  0.6374 -1.7833
  789MOL0     H 8838   7.483   2.248  11.488 -4.0004 -1.1806  1.4432
  789MOL0     H 8839   7.479   2.345  11.335 -1.1126 -0.6571  0.2664
  789MOL0     H 8840   7.684   2.288  11.416  0.0272  0.5131  0.6536
  789MOL0     H 8841   7.955   2.343  11.265 -0.7031 -0.9726 -0.2063
  789MOL0     H 8842   7.877   2.209  11.345  2.6004 -1.3762  1.2321
  789MOL0     H 8843   8.033   2.285  11.411  1.0779  2.9198  0.2243
  789MOL0     H 8844   8.144   2.671  11.166 -0.2402 -0.8534  1.8221
  789MOL0     H 8845   8.322   2.818  11.031  0.5224  0.5461 -0.4679
  789MOL0     H 8846   8.500   2.913  10.978 -0.1396  0.1014 -0.1094
  789MOL0     H 8847   8.389   3.054  10.931  3.0037  3.2442 -1.0761
  789MOL0     H 8848   8.659   3.073  11.026 -0.8591 -1.2956  1.0206
  789MOL0     H 8849   8.618   3.088  10.860  1.9383 -2.7881 -0.1166
  789MOL0     H 8850   8.515   3.302  11.043  0.4906  0.5769 -0.0622
  789MOL0     H 8851   8.483   3.272  10.874 -0.3599 -2.5623 -0.1289
  789MOL0     H 8852   8.669   3.415  10.874  2.4943  0.5990  1.4894
  789MOL0     H 8853   8.744   3.255  10.850  0.4596 -1.7364  1.8017
  789MOL0     H 8854   8.711   3.367  11.126  1.1978 -2.7261  2.1241
  789MOL0     H 8855   8.813   3.236  11.068 -2.4298  0.4159  3.0823
  789MOL0     H 8856   8.834   3.519  10.969 -0.6495  0.1086 -0.3321
  789MOL0     H 8857   8.950   3.390  10.923  0.9284  0.4795  1.1986
  789MOL0     H 8858   9.036   3.373  11.145  0.7939  0.6733  1.0002
  789MOL0     H 8859   8.929   3.492  11.213 -0.3452 -1.4314  0.7129
  789MOL0     H 8860   9.149   3.544  10.998  0.0224 -0.5325  0.0956
  789MOL0     H 8861   9.149   3.604  11.158 -1.9218 -1.6728  2.4031
  789MOL0     H 8862   8.355   3.061  11.380  0.7872 -1.1836 -0.0530
  789MOL0     H 8863   8.194   2.934  11.498  1.1957 -1.6795  1.6523
  789MOL0     H 8864   7.851   2.739  11.545 -0.5645 -0.4935  4.0861
  789MOL0     H 8865   7.623   2.684  11.577  0.9877 -0.7846  2.8051
  789MOL0     H 8866   6.117   1.888  11.024 -0.7945 -1.4265  0.7316
  789MOL0     H 8867   5.983   1.910  11.217  0.9947  2.6370  0.0819
  789MOL0     H 8868   5.591   1.914  11.538  1.4839  1.0964 -2.4412
  789MOL0     H 8869   5.417   2.035  11.665 -1.8940 -1.5722 -2.9603
  789MOL0     H 8870   5.378   2.485  11.661 -1.0814  0.0809 -1.2680
  789MOL0     H 8871   5.287   2.451  11.515 -0.4928  2.0520  0.9669
  789MOL0     H 8872   5.108   2.338  11.645 -0.8941  0.6060  0.0408
  789MOL0     H 8873   5.129   2.512  11.679 -2.1499 -0.8029 -1.7361
  789MOL0     H 8874   5.149   2.266  11.837 -1.1651  0.0294  0.3304
  789MOL0     H 8875   5.290   2.354  11.858 -1.1059 -5.4531  1.0683
  789MOL0     H 8876   5.162   2.563  11.910  4.1126 -0.9661  0.8175
  789MOL0     H 8877   5.161   2.437  12.029  0.6315 -0.0853 -0.3074
  789MOL0     H 8878   4.743   2.458  11.929  1.0419  0.0430  0.8688
  789MOL0     H 8879   5.502   2.385  11.421 -0.8488  0.5370 -1.8593
  789MOL0     H 8880   5.617   2.299  11.180  1.6192 -1.0537 -1.7852
  789MOL0     H 8881   5.714   2.381  11.306 -4.2755 -0.3657  2.5648
  789MOL0     H 8882   5.774   2.226  11.225  0.0039 -1.6892  0.5642
  790MOL0     O 8883   0.791   7.455   1.150  0.1819 -0.5204 -0.3099
  790MOL0     C 8884   0.763   7.343   1.176 -0.2062  0.9212 -0.3126
  790MOL0     O 8885   0.856   7.239   1.155  0.5781  0.1337 -0.0267
  790MOL0     C 8886   0.988   7.256   1.165  0.1683  0.3426 -0.2188
  790MOL0     C 8887   1.074   7.176   1.094 -1.8185  0.7554  0.5130
  790MOL0     C 8888   1.211   7.206   1.076  0.2456 -0.5801 -0.0002
  790MOL0     C 8889   1.270   7.311   1.148 -0.7583 -1.2284 -0.0427
  790MOL0     O 8890   1.399   7.346   1.138 -1.1281  0.2276  0.4691
  790MOL0     C 8891   1.484   7.233   1.143 -0.6529  0.1232  0.0156
  790MOL0     C 8892   1.609   7.289   1.195 -0.3262 -0.2009 -0.3253
  790MOL0     C 8893   1.603   7.365   1.329 -0.4506 -0.0510 -0.2429
  790MOL0     C 8894   1.748   7.381   1.374 -0.6891  1.0002 -0.1146
  790MOL0     C 8895   1.735   7.466   1.505  1.2277  0.3793 -0.4142
  790MOL0     C 8896   1.869   7.470   1.568  0.2396 -0.0195 -0.2500
  790MOL0     C 8897   1.875   7.564   1.690 -0.0403 -0.8259  0.7400
  790MOL0     C 8898   2.014   7.615   1.735 -0.1372  0.1248  0.5365
  790MOL0     N 8899   2.104   7.503   1.770 -0.4023 -0.1524 -0.2147
  790MOL0     C 8900   2.173   7.428   1.675  0.0040  1.0879 -0.4048
  790MOL0     C 8901   2.208   7.312   1.733 -0.6744 -0.0466  0.2234
  790MOL0     C 8902   2.268   7.189   1.678  0.1998  0.8739  0.2372
  790MOL0     C 8903   2.177   7.075   1.706 -0.5960  0.1610 -0.0014
  790MOL0     C 8904   2.244   6.954   1.652 -0.7957  0.5011 -0.3380
  790MOL0     C 8905   2.336   6.882   1.759  0.5117 -0.6608 -0.7230
  790MOL0     O 8906   2.351   6.747   1.726  0.5492  0.2984  0.1349
  790MOL0     C 8907   2.449   6.705   1.646 -0.1238 -0.9258  0.3630
  790MOL0     C 8908   2.495   6.576   1.664 -0.5076  0.5892  0.2922
  790MOL0     C 8909   2.600   6.516   1.604 -0.3765 -0.7111 -0.3841
  790MOL0     C 8910   2.667   6.393   1.670  0.9234 -0.2575 -0.0014
  790MOL0     C 8911   2.668   6.592   1.493  0.0429  0.4013 -0.0772
  790MOL0     C 8912   2.788   6.553   1.435 -1.0170  0.1259  0.3722
  790MOL0     O 8913   2.873   6.469   1.497  0.0918  0.4802 -0.2940
  790MOL0     C 8914   2.977   6.400   1.435  0.8127 -0.0128 -0.1403
  790MOL0     C 8915   2.977   6.262   1.441 -0.7465  0.1046 -0.4752
  790MOL0     C 8916   3.078   6.187   1.373 -0.4990  0.7114 -0.7365
  790MOL0     C 8917   3.182   6.256   1.315 -0.8911 -0.0414 -0.0713
  790MOL0     O 8918   3.289   6.190   1.249 -0.5112  0.0772 -0.0871
  790MOL0     C 8919   3.392   6.120   1.322  0.0179  0.1281  0.1841
  790MOL0     C 8920   3.500   6.216   1.372  0.0761 -1.1884 -0.2106
  790MOL0     C 8921   3.561   6.305   1.274  0.4626 -0.3983 -0.0344
  790MOL0     C 8922   3.672   6.406   1.318  0.2677 -0.5200 -0.1218
  790MOL0     C 8923   3.803   6.379   1.250 -0.0476 -0.0238 -0.6009
  790MOL0     C 8924   3.918   6.448   1.327  0.2462 -0.0873 -0.0631
  790MOL0     C 8925   4.032   6.454   1.221  0.2834  0.1213 -0.4564
  790MOL0     C 8926   4.179   6.467   1.284 -0.1418  0.9229  0.1637
  790MOL0    Cl 8927   4.286   6.562   1.195 -0.0904  0.1990 -0.0087
  790MOL0     C 8928   3.173   6.393   1.296 -0.1478  0.8092 -0.6580
  790MOL0     C 8929   3.068   6.465   1.354  0.2014 -0.4516 -0.1940
  790MOL0     O 8930   2.811   6.597   1.318 -0.2035 -0.2849 -0.5344
  790MOL0     C 8931   2.621   6.718   1.471 -0.1897  0.2415  0.1373
  790MOL0     C 8932   2.522   6.777   1.548  0.2696  0.2481 -0.0047
  790MOL0     N 8933   2.166   7.325   1.866 -0.5931 -0.4903 -0.9048
  790MOL0     N 8934   2.118   7.443   1.890  0.0456  0.3306  0.3820
  790MOL0     C 8935   1.182   7.387   1.224 -0.9934  0.5727 -0.1248
  790MOL0     C 8936   1.047   7.355   1.241  0.3727 -0.5281  0.4217
  790MOL0     C 8937   0.618   7.309   1.208  0.7793 -0.1794 -1.2982
  790MOL0     C 8938   0.515   7.411   1.195 -0.2442  0.1081  0.0386
  790MOL0     C 8939   0.384   7.384   1.206  0.2521 -0.1811  0.1509
  790MOL0     C 8940   0.331   7.263   1.239  0.1174 -0.0728 -0.2902
  790MOL0     O 8941   0.200   7.246   1.257 -0.2327 -0.6078 -0.4232
  790MOL0     C 8942   0.154   7.315   1.375 -0.5280  0.1245 -0.1998
  790MOL0     C 8943   0.051   7.414   1.334 -1.2924  0.4039  0.3475
  790MOL0     C 8944   0.030   7.531   1.428  0.0318  0.7939 -0.0669
  790MOL0     C 8945   0.153   7.618   1.464  0.9609  0.2018  0.0624
  790MOL0     C 8946   0.121   7.742   1.546 -0.7049 -0.6895  0.3273
  790MOL0     C 8947   0.089   7.899   1.647 -0.4638  0.1137 -0.2119
  790MOL0     C 8948   0.429   7.159   1.261 -0.8433 -0.8212  0.9654
  790MOL0     C 8949   0.573   7.184   1.242  0.0517  0.1744 -0.3238
  790MOL0     C 8950   0.654   7.061   1.258 -0.2235 -0.0082 -0.0096
  790MOL0     H 8951   1.034   7.096   1.033  0.7757 -0.1641 -0.0880
  790MOL0     H 8952   1.271   7.149   1.006 -0.7945  0.7552 -2.0941
  790MOL0     H 8953   1.497   7.181   1.048  0.6390  1.7238 -0.7182
  790MOL0     H 8954   1.436   7.172   1.220 -3.0367  0.6067 -0.9829
  790MOL0     H 8955   1.670   7.198   1.196 -1.0349 -0.6894 -0.5563
  790MOL0     H 8956   1.648   7.356   1.117 -1.8657  0.1266 -0.8462
  790MOL0     H 8957   1.573   7.468   1.309  0.1297  0.5825  1.8348
  790MOL0     H 8958   1.549   7.315   1.410 -0.1255  0.1110  0.0802
  790MOL0     H 8959   1.785   7.283   1.404  1.2456  1.2934 -1.3542
  790MOL0     H 8960   1.816   7.435   1.307  1.2688 -0.0475  0.9383
  790MOL0     H 8961   1.673   7.430   1.588 -1.3919  2.0618 -1.5085
  790MOL0     H 8962   1.695   7.564   1.478  0.5492  0.1811 -0.1523
  790MOL0     H 8963   1.882   7.369   1.610 -1.7258 -0.7582 -1.2454
  790MOL0     H 8964   1.950   7.494   1.499  0.3424 -0.5296 -0.3137
  790MOL0     H 8965   1.827   7.513   1.774  2.4842 -0.9873  2.1746
  790MOL0     H 8966   1.820   7.653   1.657  2.7431 -0.0989 -2.5085
  790MOL0     H 8967   2.057   7.672   1.652  0.8957  2.9595  2.8918
  790MOL0     H 8968   2.000   7.682   1.819 -3.5374 -1.9669  1.8321
  790MOL0     H 8969   2.181   7.459   1.571  0.3452  0.5408 -0.5418
  790MOL0     H 8970   2.355   7.167   1.741 -0.1242  0.0750  0.4200
  790MOL0     H 8971   2.289   7.199   1.572 -0.2856  2.9393  0.2951
  790MOL0     H 8972   2.153   7.065   1.812 -2.2108  2.8554  0.0012
  790MOL0     H 8973   2.081   7.104   1.660 -0.4304  0.3977 -0.2037
  790MOL0     H 8974   2.166   6.881   1.630  0.6488 -0.3358 -3.1473
  790MOL0     H 8975   2.289   6.969   1.553 -0.1370 -0.5023 -0.2023
  790MOL0     H 8976   2.430   6.936   1.774  0.6231 -0.6471 -1.4269
  790MOL0     H 8977   2.281   6.895   1.853  1.0168  3.9425 -0.8404
  790MOL0     H 8978   2.447   6.523   1.745 -2.1125 -0.6232 -1.3733
  790MOL0     H 8979   2.601   6.342   1.740  2.8819 -1.9434  0.7090
  790MOL0     H 8980   2.752   6.442   1.718  1.0208 -0.0167 -0.4130
  790MOL0     H 8981   2.701   6.322   1.594  0.0320 -1.3838  0.6143
  790MOL0     H 8982   2.897   6.210   1.491 -1.6740  1.2181 -0.7568
  790MOL0     H 8983   3.079   6.078   1.367  2.0627  0.2125  4.0419
  790MOL0     H 8984   3.346   6.077   1.412  2.0270 -0.4890  0.9687
  790MOL0     H 8985   3.439   6.044   1.259  0.7718  0.1240  0.7392
  790MOL0     H 8986   3.456   6.285   1.444  1.1849  0.8338 -1.4033
  790MOL0     H 8987   3.586   6.164   1.417 -0.5666 -0.3846  2.0893
  790MOL0     H 8988   3.488   6.370   1.224  1.0244  2.0926  2.1886
  790MOL0     H 8989   3.604   6.242   1.196 -2.8333 -0.6274 -1.8504
  790MOL0     H 8990   3.673   6.402   1.427  0.2960 -0.3762 -0.1167
  790MOL0     H 8991   3.635   6.505   1.290 -0.0995 -0.4618  0.5327
  790MOL0     H 8992   3.826   6.272   1.250  0.2117  0.0319 -0.5766
  790MOL0     H 8993   3.795   6.415   1.147 -0.9704  3.9116  0.6725
  790MOL0     H 8994   3.958   6.388   1.410  0.7368  1.5999  0.9562
  790MOL0     H 8995   3.889   6.546   1.365 -1.6121 -0.9152  0.7769
  790MOL0     H 8996   4.014   6.535   1.150  0.8472 -0.0881 -0.8432
  790MOL0     H 8997   4.039   6.362   1.163  1.6563 -0.0658 -0.0236
  790MOL0     H 8998   4.218   6.365   1.286  0.5857  1.2024  1.1793
  790MOL0     H 8999   4.167   6.514   1.382  1.0983  2.6805 -0.4804
  790MOL0     H 9000   3.248   6.447   1.240  2.7485 -1.7331  0.4900
  790MOL0     H 9001   3.077   6.573   1.345  1.7082 -0.4641  0.7852
  790MOL0     H 9002   2.671   6.785   1.401 -1.8711 -0.4264 -1.8116
  790MOL0     H 9003   2.501   6.882   1.534 -0.7510  0.2146  1.1480
  790MOL0     H 9004   1.216   7.473   1.281  0.3200  0.7003 -1.0637
  790MOL0     H 9005   0.987   7.417   1.307 -0.0157  3.0239 -2.9148
  790MOL0     H 9006   0.548   7.511   1.168 -2.0907  0.9029  0.6094
  790MOL0     H 9007   0.317   7.468   1.184 -2.3147 -1.5681  2.1133
  790MOL0     H 9008   0.093   7.252   1.440 -2.7568  2.4004  0.0458
  790MOL0     H 9009   0.233   7.374   1.423 -1.2772  1.2990 -0.3955
  790MOL0     H 9010  -0.045   7.363   1.320 -0.5187 -0.8290 -0.7575
  790MOL0     H 9011   0.078   7.437   1.230  0.8905 -0.0420  0.7690
  790MOL0     H 9012  -0.034   7.607   1.382 -0.6147  0.8903  0.9671
  790MOL0     H 9013  -0.016   7.493   1.520  2.0205  0.5788  0.8961
  790MOL0     H 9014   0.207   7.636   1.371 -1.0099 -0.3307 -1.2399
  790MOL0     H 9015   0.216   7.557   1.530 -0.8441  0.6807  2.3682
  790MOL0     H 9016   0.068   7.988   1.701  0.6151 -0.3478  1.0221
  790MOL0     H 9017   0.395   7.069   1.310 -0.5356 -0.1203  2.5336
  790MOL0     H 9018   0.619   6.992   1.336 -0.3596  0.1259  0.0519
  790MOL0     H 9019   0.666   7.001   1.168  1.5324 -1.6991  1.2686
  790MOL0     H 9020   0.759   7.071   1.286 -0.4611 -0.8642  1.2762
  791MOL0     O 9021   7.741   1.257   5.958  0.3635 -0.0005 -0.4033
  791MOL0     C 9022   7.719   1.352   5.884  0.4436 -0.2639  0.5758
  791MOL0     O 9023   7.768   1.370   5.762 -0.4253  0.5739 -0.1495
  791MOL0     C 9024   7.889   1.310   5.732  0.5085 -0.4006 -0.4435
  791MOL0     C 9025   8.000   1.357   5.808 -0.6893  0.2643  0.0976
  791MOL0     C 9026   8.125   1.305   5.764  0.1411 -0.8282 -0.1829
  791MOL0     C 9027   8.141   1.220   5.658  0.3368 -0.4368  0.6666
  791MOL0     O 9028   8.266   1.181   5.639 -0.0269 -0.5449 -0.2808
  791MOL0     C 9029   8.287   1.067   5.562 -0.1876  0.7182 -0.1892
  791MOL0     C 9030   8.438   1.053   5.560 -0.4552 -0.3622  0.3705
  791MOL0     C 9031   8.480   0.918   5.528  0.1157  0.2735 -0.3867
  791MOL0     C 9032   8.629   0.885   5.550 -0.4430  1.2318  0.3401
  791MOL0     C 9033   8.670   0.735   5.522  0.8934 -0.4985  0.1570
  791MOL0     C 9034   8.819   0.709   5.537  0.2213  0.7040  0.2584
  791MOL0     C 9035   8.835   0.565   5.591  0.8012 -0.8572 -0.0740
  791MOL0     C 9036   8.985   0.537   5.633  0.6492 -0.3102  0.6742
  791MOL0     N 9037   9.025   0.590   5.762  0.2792  0.3879 -0.3189
  791MOL0     C 9038   9.055   0.513   5.876  0.2927 -1.1572  1.1507
  791MOL0     C 9039   9.077   0.608   5.972  0.5048 -1.1288  0.0929
  791MOL0     C 9040   9.118   0.597   6.119  1.2036  0.0155  0.0380
  791MOL0     C 9041   9.261   0.626   6.134 -0.3638 -0.4386  0.4889
  791MOL0     C 9042   9.313   0.584   6.276  0.4270 -0.6111 -0.1542
  791MOL0     C 9043   9.455   0.635   6.306  0.1000 -0.3080  0.1629
  791MOL0     O 9044   9.460   0.650   6.447  0.1993 -0.2345  0.5615
  791MOL0     C 9045   9.577   0.690   6.506  0.1313 -0.0121 -0.6222
  791MOL0     C 9046   9.700   0.692   6.442  0.0665  1.0959 -0.6310
  791MOL0     C 9047   9.821   0.711   6.513 -0.6461 -0.5996 -0.1842
  791MOL0     C 9048   9.951   0.699   6.427 -0.7553 -0.7230  0.6429
  791MOL0     C 9049   9.814   0.750   6.646  0.1762  0.0339  0.2369
  791MOL0     C 9050   9.931   0.783   6.724  0.4675 -0.1473  0.8074
  791MOL0     O 9051   9.933   0.734   6.848  0.5876  0.0939  0.6541
  791MOL0     C 9052  10.015   0.790   6.946 -0.0010 -0.6796  1.1216
  791MOL0     C 9053  10.148   0.798   6.920 -0.2483  0.6985 -0.0926
  791MOL0     C 9054  10.228   0.831   7.031  0.0259  0.5972  0.9440
  791MOL0     C 9055  10.174   0.901   7.144 -0.0754  0.8889  0.3163
  791MOL0     O 9056  10.247   0.966   7.244 -0.5318 -0.6269 -0.2061
  791MOL0     C 9057  10.337   0.882   7.321 -0.3693  0.1783  0.1346
  791MOL0     C 9058  10.418   0.954   7.434  0.1924 -0.2412  0.1351
  791MOL0     C 9059  10.517   1.054   7.375 -0.2161 -0.5498 -0.1401
  791MOL0     C 9060  10.515   1.177   7.461  0.3536 -0.2931  0.2890
  791MOL0     C 9061  10.640   1.264   7.434  1.1074 -0.9323  1.0355
  791MOL0     C 9062  10.615   1.334   7.304  0.2332  0.1008 -0.5125
  791MOL0     C 9063  10.649   1.482   7.285  0.3570  0.1335 -0.4619
  791MOL0     C 9064  10.531   1.588   7.318  0.6007  0.5523  0.2385
  791MOL0    Cl 9065  10.488   1.558   7.486  0.2946  0.3230 -0.1657
  791MOL0     C 9066  10.039   0.920   7.148 -0.2813 -0.2146 -0.4962
  791MOL0     C 9067   9.964   0.862   7.047  0.6996 -0.3031 -0.2954
  791MOL0     O 9068  10.005   0.867   6.677  0.0286  1.1113 -0.1875
  791MOL0     C 9069   9.686   0.753   6.709  0.6093  0.0165 -0.8778
  791MOL0     C 9070   9.568   0.726   6.637 -0.2024  0.0500  0.0814
  791MOL0     N 9071   9.072   0.731   5.916  0.3010  0.5818 -0.3260
  791MOL0     N 9072   9.053   0.719   5.787  0.7427  0.0583  0.3583
  791MOL0     C 9073   8.028   1.193   5.578  1.0790  0.1097 -0.6458
  791MOL0     C 9074   7.892   1.236   5.618 -0.9099 -0.0725 -0.4946
  791MOL0     C 9075   7.624   1.458   5.924 -0.4050  0.0161 -0.6449
  791MOL0     C 9076   7.600   1.564   5.831  0.6553  0.3009 -0.0284
  791MOL0     C 9077   7.526   1.671   5.867  0.3446 -0.0663  0.7419
  791MOL0     C 9078   7.459   1.683   5.988 -0.6904  0.1579 -0.7412
  791MOL0     O 9079   7.376   1.795   6.002 -0.6669  0.3980  0.8054
  791MOL0     C 9080   7.332   1.820   6.133  0.9286 -0.8394 -0.7579
  791MOL0     C 9081   7.274   1.963   6.149 -0.2851 -0.0295  0.6775
  791MOL0     C 9082   7.121   1.963   6.145  0.5507 -0.7922  0.1978
  791MOL0     C 9083   7.052   1.973   6.007  0.5097  0.3651 -0.3077
  791MOL0     C 9084   7.079   2.101   5.935 -0.9296 -0.1596 -0.4017
  791MOL0     C 9085   7.090   2.204   5.874 -0.0860  0.2275  0.6287
  791MOL0     C 9086   7.473   1.574   6.078 -0.4873 -0.2828  0.0566
  791MOL0     C 9087   7.556   1.469   6.054 -0.5218 -0.3283 -0.2533
  791MOL0     C 9088   7.561   1.359   6.156 -0.4158  0.0596 -0.1313
  791MOL0     H 9089   7.994   1.451   5.862 -0.3098  1.9986 -2.7013
  791MOL0     H 9090   8.216   1.339   5.814  1.7012 -1.3514 -2.4985
  791MOL0     H 9091   8.247   1.059   5.460 -1.6249  1.0036  0.3346
  791MOL0     H 9092   8.233   0.989   5.617 -0.7210  2.5747  2.0819
  791MOL0     H 9093   8.479   1.115   5.480  1.2294  1.8520  2.7705
  791MOL0     H 9094   8.484   1.086   5.653  1.5998 -2.8165  0.3259
  791MOL0     H 9095   8.425   0.848   5.592  0.6537 -0.2178 -0.4533
  791MOL0     H 9096   8.452   0.898   5.424 -1.3924 -0.9274  0.2204
  791MOL0     H 9097   8.688   0.950   5.485  3.9632 -0.9187  1.8186
  791MOL0     H 9098   8.659   0.919   5.650 -1.7320  2.6536  0.2851
  791MOL0     H 9099   8.643   0.724   5.416  0.6895  1.5114 -0.0409
  791MOL0     H 9100   8.618   0.668   5.590 -2.8869  1.7926 -0.1638
  791MOL0     H 9101   8.868   0.733   5.442 -1.0634  1.8324 -0.1527
  791MOL0     H 9102   8.864   0.773   5.614 -2.3052  0.5895  1.9455
  791MOL0     H 9103   8.797   0.492   5.518  1.2655 -0.2503 -0.9394
  791MOL0     H 9104   8.776   0.553   5.682 -1.0411 -1.0341 -1.2356
  791MOL0     H 9105   9.005   0.430   5.620  1.1766 -0.0992 -0.3578
  791MOL0     H 9106   9.055   0.575   5.558 -0.8397  0.2410 -0.4872
  791MOL0     H 9107   9.052   0.409   5.905  1.7978 -2.2961 -2.3001
  791MOL0     H 9108   9.090   0.499   6.159  1.0138 -0.1678 -0.5252
  791MOL0     H 9109   9.061   0.669   6.178  0.5139 -0.4886  0.0010
  791MOL0     H 9110   9.310   0.556   6.065  0.8244  0.3826  0.4774
  791MOL0     H 9111   9.285   0.730   6.111  0.9365 -0.6184  0.9585
  791MOL0     H 9112   9.256   0.640   6.350  3.6924  3.5143 -0.3946
  791MOL0     H 9113   9.319   0.476   6.294  0.8819 -0.4863  0.4827
  791MOL0     H 9114   9.537   0.570   6.275 -0.3494  0.0826 -2.0528
  791MOL0     H 9115   9.465   0.728   6.248  0.5621 -1.3294 -1.4643
  791MOL0     H 9116   9.717   0.678   6.336 -1.6268 -0.5200 -0.7349
  791MOL0     H 9117   9.957   0.800   6.385 -1.8847 -0.1761  1.7323
  791MOL0     H 9118   9.935   0.634   6.340  2.0424  2.5254 -2.6277
  791MOL0     H 9119  10.046   0.679   6.477 -0.7887 -0.6583  0.7330
  791MOL0     H 9120  10.188   0.751   6.831 -1.6581  0.7839 -0.7880
  791MOL0     H 9121  10.331   0.799   7.031 -0.3699 -1.1525 -2.0643
  791MOL0     H 9122  10.285   0.803   7.376 -1.4792  0.8333  0.0514
  791MOL0     H 9123  10.416   0.831   7.265 -1.3994  1.7034 -2.8889
  791MOL0     H 9124  10.350   1.005   7.503 -0.8134  3.3000 -3.0965
  791MOL0     H 9125  10.472   0.873   7.483  4.1044  1.4909 -0.9459
  791MOL0     H 9126  10.498   1.076   7.270  1.7310 -1.1388 -0.6568
  791MOL0     H 9127  10.620   1.017   7.383  0.2677  1.0728  2.5395
  791MOL0     H 9128  10.519   1.156   7.569  3.4804  1.7160  0.7151
  791MOL0     H 9129  10.422   1.229   7.437 -0.5294 -1.9565 -0.0594
  791MOL0     H 9130  10.645   1.342   7.510  0.9728  0.9075 -0.7647
  791MOL0     H 9131  10.738   1.216   7.441  0.2755 -2.6158  1.6272
  791MOL0     H 9132  10.514   1.326   7.262  1.2130  0.3207 -3.0451
  791MOL0     H 9133  10.678   1.281   7.233  0.6346 -0.8290  0.5122
  791MOL0     H 9134  10.679   1.497   7.181  0.4897 -2.1445 -0.8046
  791MOL0     H 9135  10.740   1.497   7.345  0.3811  2.0880 -0.9045
  791MOL0     H 9136  10.440   1.580   7.258  0.3164 -1.8488  0.8696
  791MOL0     H 9137  10.573   1.688   7.316  1.9331  0.0137  0.2752
  791MOL0     H 9138   9.980   0.973   7.222 -2.9370 -1.8901 -1.2418
  791MOL0     H 9139   9.856   0.865   7.048  0.5994 -1.4679 -2.4534
  791MOL0     H 9140   9.685   0.775   6.816  1.8389 -0.0050 -0.8455
  791MOL0     H 9141   9.473   0.734   6.688 -1.1980  0.4804 -1.7620
  791MOL0     H 9142   8.027   1.135   5.487  0.8233 -1.2066  0.1712
  791MOL0     H 9143   7.804   1.207   5.561  1.0667 -2.7683 -2.4184
  791MOL0     H 9144   7.647   1.572   5.733  0.8989 -2.5201 -0.2215
  791MOL0     H 9145   7.515   1.743   5.786 -0.8215 -1.0840 -0.0531
  791MOL0     H 9146   7.263   1.742   6.167  2.1317 -1.9353 -0.7338
  791MOL0     H 9147   7.409   1.816   6.210 -1.2415  0.4947  1.6166
  791MOL0     H 9148   7.321   2.028   6.075  0.9841  0.9947  2.3174
  791MOL0     H 9149   7.309   1.989   6.249 -1.8747  0.2343  1.1894
  791MOL0     H 9150   7.073   1.883   6.203 -0.1022 -0.1084  0.6334
  791MOL0     H 9151   7.086   2.051   6.200 -2.2097 -0.1654 -2.2813
  791MOL0     H 9152   6.945   1.956   6.022  0.2677  0.1551 -2.0463
  791MOL0     H 9153   7.083   1.881   5.955 -2.5156 -1.0966  0.2232
  791MOL0     H 9154   7.083   2.286   5.805 -2.4512 -0.9686 -0.6618
  791MOL0     H 9155   7.413   1.571   6.168 -0.4203  0.5221  0.1313
  791MOL0     H 9156   7.557   1.257   6.117 -0.1562 -0.1984  0.5036
  791MOL0     H 9157   7.650   1.363   6.220 -0.9360 -0.5139  0.6560
  791MOL0     H 9158   7.471   1.369   6.218  1.6900  0.7165  3.0455
  792MOL0     O 9159   2.821   7.753   2.390  0.5849  0.1032  0.8643
  792MOL0     C 9160   2.852   7.862   2.344 -0.5788 -0.1955 -0.3148
  792MOL0     O 9161   2.949   7.881   2.248  0.0520 -0.8064  0.4293
  792MOL0     C 9162   3.008   7.770   2.183  0.7983  0.0140  0.0067
  792MOL0     C 9163   2.940   7.703   2.080  0.2157 -1.1206 -0.6062
  792MOL0     C 9164   2.999   7.608   2.014  0.9224  0.0697  0.4061
  792MOL0     C 9165   3.129   7.559   2.041  0.4642  0.6152 -1.1719
  792MOL0     O 9166   3.178   7.459   1.966  0.3955  0.1670  0.0692
  792MOL0     C 9167   3.200   7.342   2.038 -0.0103 -0.1240 -0.4697
  792MOL0     C 9168   3.177   7.208   1.979 -0.7935 -0.9925  0.2830
  792MOL0     C 9169   3.254   7.183   1.855 -0.0741 -0.1476  0.0616
  792MOL0     C 9170   3.401   7.155   1.881 -0.0087 -0.2246  0.0542
  792MOL0     C 9171   3.473   7.125   1.748  0.2795 -0.6760  0.6005
  792MOL0     C 9172   3.621   7.092   1.774  0.1099 -0.9141  0.5132
  792MOL0     C 9173   3.696   7.037   1.653 -0.2214 -0.6175 -1.3186
  792MOL0     C 9174   3.844   7.005   1.676  0.8163  0.2567 -0.1393
  792MOL0     N 9175   3.870   6.875   1.752  0.0308 -0.6919  0.5270
  792MOL0     C 9176   3.884   6.762   1.683  0.6450 -0.2093 -0.0334
  792MOL0     C 9177   3.920   6.674   1.780  0.6011 -0.1479  0.7512
  792MOL0     C 9178   3.948   6.526   1.757  0.3347 -0.3279 -0.8816
  792MOL0     C 9179   3.841   6.436   1.824 -0.3839  0.1371 -0.4581
  792MOL0     C 9180   3.688   6.467   1.802 -0.3721 -0.4193 -0.3436
  792MOL0     C 9181   3.591   6.351   1.851  0.1245 -0.1521  0.3715
  792MOL0     O 9182   3.624   6.330   1.990  0.3846 -0.0940 -0.0419
  792MOL0     C 9183   3.564   6.413   2.085  0.9915 -0.7216  0.5895
  792MOL0     C 9184   3.466   6.508   2.053 -0.2637 -0.0219 -0.3290
  792MOL0     C 9185   3.412   6.599   2.145 -0.3607 -0.3257  0.7688
  792MOL0     C 9186   3.325   6.712   2.087  0.2167  0.7802 -0.0140
  792MOL0     C 9187   3.445   6.583   2.280 -0.2616  0.5642 -0.5207
  792MOL0     C 9188   3.400   6.675   2.391  1.1121 -0.1891  0.7991
  792MOL0     O 9189   3.451   6.648   2.514  0.2020  0.3877 -0.0043
  792MOL0     C 9190   3.427   6.706   2.639  0.7754 -0.6473 -0.3766
  792MOL0     C 9191   3.488   6.644   2.748 -0.9142 -0.3280 -0.8968
  792MOL0     C 9192   3.472   6.682   2.883 -0.1320 -0.8557 -0.0564
  792MOL0     C 9193   3.388   6.798   2.911 -0.8182  0.3307  0.7614
  792MOL0     O 9194   3.386   6.864   3.033 -0.2515 -0.2105 -0.1570
  792MOL0     C 9195   3.329   6.991   3.056  0.5203 -1.0674 -0.3097
  792MOL0     C 9196   3.367   7.037   3.194 -0.1188 -0.2370 -0.0071
  792MOL0     C 9197   3.505   7.104   3.203 -0.4182  0.4999 -0.2162
  792MOL0     C 9198   3.507   7.239   3.146 -1.0715  0.3476  0.4543
  792MOL0     C 9199   3.657   7.290   3.164 -0.1458 -0.0358  0.3294
  792MOL0     C 9200   3.704   7.310   3.312 -0.6641 -0.3219 -0.0678
  792MOL0     C 9201   3.808   7.419   3.319  0.6222 -0.1598 -0.6675
  792MOL0     C 9202   3.887   7.420   3.448 -0.2957 -0.5539  1.1197
  792MOL0    Cl 9203   3.781   7.435   3.597  0.2802 -0.1166 -0.0093
  792MOL0     C 9204   3.331   6.869   2.801 -0.5601 -0.2513  0.1084
  792MOL0     C 9205   3.349   6.819   2.674  0.0915 -0.1127  0.4895
  792MOL0     O 9206   3.328   6.776   2.370 -0.7445  0.2248 -0.0040
  792MOL0     C 9207   3.534   6.473   2.315  0.3962 -0.2084  0.3040
  792MOL0     C 9208   3.596   6.394   2.220  0.1662 -0.4028  0.6031
  792MOL0     N 9209   3.919   6.742   1.905  0.4775  0.3873  0.6283
  792MOL0     N 9210   3.900   6.868   1.878  0.2032  0.3403  0.6490
  792MOL0     C 9211   3.209   7.629   2.137  0.7679 -0.3447 -0.5499
  792MOL0     C 9212   3.146   7.738   2.208  0.8649 -0.1086 -0.1901
  792MOL0     C 9213   2.777   7.980   2.403  0.6386 -0.3338 -0.0778
  792MOL0     C 9214   2.806   8.104   2.360 -0.1544  0.0492  0.5350
  792MOL0     C 9215   2.751   8.221   2.400  0.6890 -1.1614 -0.3572
  792MOL0     C 9216   2.646   8.215   2.493  0.3530 -0.9653 -0.3777
  792MOL0     O 9217   2.586   8.337   2.543 -0.5192  0.2338  0.3500
  792MOL0     C 9218   2.506   8.412   2.452 -1.3559  0.5600  0.3032
  792MOL0     C 9219   2.364   8.424   2.497 -0.2961 -0.6939  0.5831
  792MOL0     C 9220   2.347   8.467   2.650  0.1608 -0.2497  1.4639
  792MOL0     C 9221   2.372   8.361   2.752  0.2403 -0.5589 -0.2293
  792MOL0     C 9222   2.243   8.340   2.827 -0.4271 -0.5014  0.9401
  792MOL0     C 9223   2.142   8.322   2.889  0.5543  0.1778 -1.1542
  792MOL0     C 9224   2.608   8.091   2.541 -0.2711  0.2932  0.2410
  792MOL0     C 9225   2.667   7.966   2.503  0.3753 -0.6663 -0.5316
  792MOL0     C 9226   2.623   7.834   2.566  0.2629  0.2986  0.1936
  792MOL0     H 9227   2.838   7.736   2.068  0.4748  0.1983  0.4962
  792MOL0     H 9228   2.938   7.554   1.942 -0.6486  0.5781  1.3063
  792MOL0     H 9229   3.150   7.355   2.134 -0.4047 -2.5729 -0.2738
  792MOL0     H 9230   3.306   7.348   2.067 -0.3228  2.3095  0.4435
  792MOL0     H 9231   3.220   7.142   2.056  0.1057  0.7882  1.3888
  792MOL0     H 9232   3.072   7.183   1.961 -0.3112 -2.6821 -0.3410
  792MOL0     H 9233   3.213   7.090   1.816  2.3480 -1.9567  1.4846
  792MOL0     H 9234   3.240   7.264   1.784  2.9962 -1.1079 -1.8266
  792MOL0     H 9235   3.442   7.242   1.933 -0.3086  0.7781 -1.3105
  792MOL0     H 9236   3.416   7.076   1.954 -0.4927  0.8713  1.3998
  792MOL0     H 9237   3.459   7.211   1.682 -0.6390 -1.4900 -0.3083
  792MOL0     H 9238   3.433   7.036   1.698 -1.0294 -0.4804  1.2391
  792MOL0     H 9239   3.659   7.188   1.812 -1.6416 -0.6455  1.7509
  792MOL0     H 9240   3.624   7.034   1.867  1.0409  0.1842  1.2072
  792MOL0     H 9241   3.698   7.105   1.567 -0.3436 -0.8245 -1.4864
  792MOL0     H 9242   3.646   6.947   1.617  0.2500 -0.9973 -1.0381
  792MOL0     H 9243   3.883   6.985   1.576 -1.4387 -2.7369 -0.5603
  792MOL0     H 9244   3.891   7.096   1.715 -1.7415  2.7548 -2.4298
  792MOL0     H 9245   3.866   6.758   1.577  0.9762 -0.1630 -0.0941
  792MOL0     H 9246   4.047   6.510   1.802 -0.3082 -0.7612  0.4221
  792MOL0     H 9247   3.944   6.511   1.649 -2.2996  1.0806 -1.0481
  792MOL0     H 9248   3.857   6.343   1.769 -0.3371  1.2601 -2.4274
  792MOL0     H 9249   3.859   6.430   1.932 -0.3061  1.7590 -0.3540
  792MOL0     H 9250   3.662   6.564   1.845 -1.0889 -0.3966 -0.8107
  792MOL0     H 9251   3.672   6.471   1.694  3.1392 -1.0654 -1.0217
  792MOL0     H 9252   3.487   6.358   1.817  0.7199 -1.6762 -2.0107
  792MOL0     H 9253   3.623   6.253   1.813  1.4056 -1.0736  3.4831
  792MOL0     H 9254   3.459   6.517   1.945  2.8219 -1.6295 -0.7918
  792MOL0     H 9255   3.332   6.719   1.978 -2.8595 -1.4818 -0.5005
  792MOL0     H 9256   3.360   6.809   2.123 -3.5232  2.8424 -1.3876
  792MOL0     H 9257   3.220   6.701   2.115  1.0974 -0.3686  3.2778
  792MOL0     H 9258   3.549   6.558   2.722 -0.3510 -0.4164  0.5950
  792MOL0     H 9259   3.524   6.642   2.969 -0.0276 -1.1478 -0.2549
  792MOL0     H 9260   3.365   7.066   2.985 -0.3311 -1.1374 -0.8280
  792MOL0     H 9261   3.221   6.981   3.041  0.1547  3.0732 -1.6763
  792MOL0     H 9262   3.294   7.104   3.239  3.5392  3.0967  1.5785
  792MOL0     H 9263   3.370   6.948   3.257  1.3061 -1.4750 -1.7072
  792MOL0     H 9264   3.582   7.038   3.162  1.6189  3.8694 -2.2965
  792MOL0     H 9265   3.534   7.112   3.308 -0.4472  0.4827 -0.2068
  792MOL0     H 9266   3.444   7.314   3.195  0.8889  2.5563 -0.2350
  792MOL0     H 9267   3.463   7.247   3.046 -0.6856  0.5721  0.3021
  792MOL0     H 9268   3.716   7.214   3.112  1.0287  0.2013  1.2863
  792MOL0     H 9269   3.665   7.379   3.101 -0.1500 -1.7151 -2.2182
  792MOL0     H 9270   3.755   7.222   3.353  0.8732  0.7634  0.4640
  792MOL0     H 9271   3.618   7.341   3.371  1.6283  0.4133  3.1817
  792MOL0     H 9272   3.758   7.513   3.293 -0.1552 -0.0091  1.1901
  792MOL0     H 9273   3.882   7.397   3.242  0.4095  0.5547 -1.0811
  792MOL0     H 9274   3.969   7.491   3.453  2.6330 -3.5023 -0.7816
  792MOL0     H 9275   3.943   7.326   3.457  0.3478 -0.1574  1.2594
  792MOL0     H 9276   3.263   6.953   2.810 -1.3535 -0.6129 -1.9539
  792MOL0     H 9277   3.295   6.870   2.595  2.1733 -0.2972 -1.1434
  792MOL0     H 9278   3.537   6.443   2.420  0.0940 -0.5205  0.2251
  792MOL0     H 9279   3.670   6.318   2.245 -0.8638 -2.2014 -1.4588
  792MOL0     H 9280   3.312   7.603   2.160  0.4957 -1.0331 -0.0485
  792MOL0     H 9281   3.188   7.794   2.291  0.4178  0.7812 -0.5496
  792MOL0     H 9282   2.873   8.113   2.274  1.5760 -4.2485  1.2038
  792MOL0     H 9283   2.774   8.314   2.349  0.3103  0.1372  1.7238
  792MOL0     H 9284   2.539   8.515   2.436 -0.7359  0.2300 -0.6453
  792MOL0     H 9285   2.504   8.361   2.355 -1.5976 -3.6338  2.3303
  792MOL0     H 9286   2.310   8.329   2.489 -2.0439  0.3592 -0.7827
  792MOL0     H 9287   2.323   8.498   2.428  1.7306  1.3060  1.3926
  792MOL0     H 9288   2.402   8.560   2.667 -0.9248  0.7024  0.0532
  792MOL0     H 9289   2.244   8.505   2.656  0.8464  1.8228  1.1028
  792MOL0     H 9290   2.445   8.398   2.824 -1.0687  1.6038  0.0845
  792MOL0     H 9291   2.401   8.273   2.693 -0.8431  2.7694 -6.7014
  792MOL0     H 9292   2.063   8.315   2.961  1.1509  1.6054 -0.3142
  792MOL0     H 9293   2.527   8.091   2.612 -0.3147  0.3922  0.1918
  792MOL0     H 9294   2.572   7.758   2.507  1.3097 -2.3706  2.5051
  792MOL0     H 9295   2.707   7.803   2.629 -0.1198  4.1856  2.9912
  792MOL0     H 9296   2.555   7.844   2.651 -0.8643 -2.4029 -0.2745
  793MOL0     O 9297   8.563  10.607   0.806  0.0417  0.1859 -0.2711
  793MOL0     C 9298   8.511  10.495   0.824 -0.0933  0.6914 -0.1911
  793MOL0     O 9299   8.383  10.472   0.787  0.5150 -0.5604 -0.5618
  793MOL0     C 9300   8.292  10.567   0.743  0.2737 -0.4047  0.6336
  793MOL0     C 9301   8.166  10.586   0.805  0.4502  0.1195  0.2300
  793MOL0     C 9302   8.060  10.654   0.737 -0.3159 -1.1075  0.2108
  793MOL0     C 9303   8.091  10.730   0.625  0.1316  0.6387 -0.0873
  793MOL0     O 9304   7.982  10.799   0.565 -0.1800 -0.2035  0.6579
  793MOL0     C 9305   7.970  10.801   0.422 -0.0009  0.3075  0.0420
  793MOL0     C 9306   7.824  10.776   0.384 -0.4705  0.6220  0.6416
  793MOL0     C 9307   7.719  10.873   0.431 -0.5379  0.2143 -0.0959
  793MOL0     C 9308   7.755  11.024   0.417 -0.1518 -0.7055 -0.1841
  793MOL0     C 9309   7.630  11.113   0.428 -0.0284  0.4423  0.8130
  793MOL0     C 9310   7.550  11.090   0.555  0.9822 -0.7438 -0.1728
  793MOL0     C 9311   7.454  11.208   0.587  0.9745 -0.0713  0.3046
  793MOL0     C 9312   7.341  11.209   0.483 -0.7237  0.4310 -0.6615
  793MOL0     N 9313   7.242  11.314   0.519  0.4147 -0.5618  0.3009
  793MOL0     C 9314   7.105  11.284   0.512  0.0876  0.1378  0.1977
  793MOL0     C 9315   7.047  11.407   0.535  0.3308 -0.1450 -0.2845
  793MOL0     C 9316   6.897  11.423   0.538  0.4906  0.2703  1.0358
  793MOL0     C 9317   6.840  11.395   0.388  0.1757 -0.0856  0.1140
  793MOL0     C 9318   6.891  11.510   0.285 -0.3940  0.3301 -0.7178
  793MOL0     C 9319   6.894  11.447   0.150  0.5956 -0.1695 -0.3477
  793MOL0     O 9320   6.982  11.338   0.132  0.1238 -0.1540 -0.5526
  793MOL0     C 9321   7.117  11.356   0.128 -0.2204  0.8472  0.4228
  793MOL0     C 9322   7.190  11.238   0.105  0.5291 -0.2712  0.3267
  793MOL0     C 9323   7.324  11.226   0.070 -0.7639 -0.1859  0.2055
  793MOL0     C 9324   7.368  11.088   0.029 -0.1623  0.0842  0.2195
  793MOL0     C 9325   7.400  11.345   0.071  0.8275 -0.7513  0.5681
  793MOL0     C 9326   7.548  11.352   0.043 -0.7614  0.0002  0.0462
  793MOL0     O 9327   7.610  11.230   0.025 -0.0761 -0.4734 -0.7132
  793MOL0     C 9328   7.739  11.238  -0.017 -0.1471 -0.4594  0.1492
  793MOL0     C 9329   7.776  11.215  -0.148 -0.3492 -0.3995 -0.9367
  793MOL0     C 9330   7.907  11.231  -0.196  0.3045 -0.0978 -0.6815
  793MOL0     C 9331   8.010  11.256  -0.108 -0.5930  0.5589 -0.0957
  793MOL0     O 9332   8.139  11.275  -0.150 -0.1794 -0.0292  0.2333
  793MOL0     C 9333   8.201  11.145  -0.133  0.2708 -0.5501 -0.3766
  793MOL0     C 9334   8.355  11.160  -0.148  0.8451  0.3683 -0.6412
  793MOL0     C 9335   8.379  11.177  -0.301  0.4928  0.2452 -0.3783
  793MOL0     C 9336   8.498  11.263  -0.337 -0.9059 -0.0816  0.7720
  793MOL0     C 9337   8.535  11.281  -0.490  0.1025  0.2182 -0.4356
  793MOL0     C 9338   8.663  11.345  -0.522 -1.0095  0.2563 -0.8662
  793MOL0     C 9339   8.696  11.316  -0.671 -0.1476 -0.9272  0.7280
  793MOL0     C 9340   8.834  11.369  -0.712  0.2627 -0.5638 -0.5128
  793MOL0    Cl 9341   8.945  11.269  -0.614 -0.2924  0.2310  0.1834
  793MOL0     C 9342   7.971  11.264   0.030 -0.4393 -0.2775  0.2475
  793MOL0     C 9343   7.840  11.261   0.078  0.1531 -0.8864  0.0176
  793MOL0     O 9344   7.602  11.456   0.035 -0.3078  0.4776 -0.1825
  793MOL0     C 9345   7.333  11.466   0.097  0.8426 -0.3788 -0.3770
  793MOL0     C 9346   7.195  11.472   0.126  0.7268 -0.1359  0.1800
  793MOL0     N 9347   7.147  11.502   0.555  0.8454  0.0327  0.2271
  793MOL0     N 9348   7.264  11.447   0.541  0.3389  0.7066 -0.4341
  793MOL0     C 9349   8.212  10.723   0.565 -0.8070  0.5165  0.2259
  793MOL0     C 9350   8.311  10.632   0.617 -0.0471  0.2324  0.3806
  793MOL0     C 9351   8.596  10.396   0.888  0.1938 -0.4375  0.4665
  793MOL0     C 9352   8.530  10.302   0.968 -0.1642 -0.7633  0.8353
  793MOL0     C 9353   8.588  10.207   1.053  1.1127 -0.2826  0.3061
  793MOL0     C 9354   8.721  10.196   1.048  0.2950  0.4859 -0.8979
  793MOL0     O 9355   8.802  10.107   1.110 -0.9731 -0.0875 -0.3885
  793MOL0     C 9356   8.748  10.064   1.235  1.0546  0.1973 -0.3317
  793MOL0     C 9357   8.868  10.033   1.324 -0.1598  0.4982 -0.2010
  793MOL0     C 9358   8.965   9.925   1.263  0.8103 -0.4529  0.9896
  793MOL0     C 9359   8.958   9.798   1.348  0.4006 -0.3180 -0.1251
  793MOL0     C 9360   8.825   9.733   1.363  0.3577 -0.0509 -0.4168
  793MOL0     C 9361   8.711   9.709   1.379 -0.1833 -0.6182  0.3975
  793MOL0     C 9362   8.793  10.276   0.957 -0.9620 -0.5846  0.8696
  793MOL0     C 9363   8.730  10.378   0.873 -0.4333 -0.0164 -0.2418
  793MOL0     C 9364   8.816  10.477   0.796  0.2705 -0.2300 -0.9501
  793MOL0     H 9365   8.136  10.524   0.889  0.7234 -1.1260 -0.5652
  793MOL0     H 9366   7.959  10.641   0.776 -0.9029  0.9828 -0.4482
  793MOL0     H 9367   8.016  10.722   0.362 -0.8807  1.7198 -2.6686
  793MOL0     H 9368   8.011  10.895   0.385 -1.2456 -0.1700 -2.8239
  793MOL0     H 9369   7.817  10.787   0.275 -2.1120  0.0883  0.6650
  793MOL0     H 9370   7.785  10.678   0.416  0.8964 -0.4459 -0.7818
  793MOL0     H 9371   7.621  10.856   0.385 -0.8750 -1.4438  1.1092
  793MOL0     H 9372   7.712  10.853   0.539  2.2574  2.0477  0.5342
  793MOL0     H 9373   7.817  11.041   0.505  4.4705 -0.2991 -3.1711
  793MOL0     H 9374   7.810  11.034   0.323  0.8453  1.3701  0.5611
  793MOL0     H 9375   7.568  11.107   0.338  0.0114  0.0120  0.8127
  793MOL0     H 9376   7.675  11.213   0.433  2.5182 -0.6962  2.3485
  793MOL0     H 9377   7.505  10.991   0.558 -1.1620  0.2226  1.9221
  793MOL0     H 9378   7.624  11.094   0.635  0.5493 -2.4464  0.3436
  793MOL0     H 9379   7.506  11.304   0.585  1.3448 -0.2663  0.5564
  793MOL0     H 9380   7.416  11.188   0.688 -0.5216  1.0701  0.0020
  793MOL0     H 9381   7.395  11.232   0.391  0.3152  1.8944  0.2661
  793MOL0     H 9382   7.289  11.113   0.479 -3.0003  1.6222 -1.2526
  793MOL0     H 9383   7.062  11.186   0.491 -0.0725  0.0023  1.1168
  793MOL0     H 9384   6.862  11.526   0.551 -1.7555  0.2871 -3.2198
  793MOL0     H 9385   6.849  11.358   0.611 -1.0759 -1.5506 -1.4430
  793MOL0     H 9386   6.883  11.303   0.347  1.3181  1.5870 -2.7844
  793MOL0     H 9387   6.731  11.393   0.389  0.1721 -2.3093  0.2470
  793MOL0     H 9388   6.839  11.606   0.289 -0.5738  0.2349  3.3045
  793MOL0     H 9389   6.987  11.544   0.325 -0.8601  0.6264  0.1745
  793MOL0     H 9390   6.795  11.414   0.116 -0.7634  0.6674  2.5274
  793MOL0     H 9391   6.928  11.535   0.095  2.9566 -0.6381  0.2446
  793MOL0     H 9392   7.143  11.141   0.093 -2.7924  1.3801 -1.3293
  793MOL0     H 9393   7.412  11.036   0.114 -0.9019  1.1588  1.3007
  793MOL0     H 9394   7.446  11.093  -0.047 -2.8511  3.9080 -2.7589
  793MOL0     H 9395   7.291  11.027  -0.019 -0.0456  0.7052 -0.7917
  793MOL0     H 9396   7.689  11.180  -0.204  0.5040 -1.4568 -1.6493
  793MOL0     H 9397   7.935  11.228  -0.301 -1.7808  2.5748 -1.3989
  793MOL0     H 9398   8.175  11.097  -0.038 -0.5001 -0.9101 -0.7575
  793MOL0     H 9399   8.160  11.084  -0.214  0.1658 -0.8709 -0.0834
  793MOL0     H 9400   8.372  11.258  -0.103  0.2521  0.8090 -1.3514
  793MOL0     H 9401   8.400  11.074  -0.098  0.6730  1.2866  1.1736
  793MOL0     H 9402   8.292  11.221  -0.351  1.5251  1.2265 -1.3827
  793MOL0     H 9403   8.392  11.079  -0.348  0.2302 -0.9522  1.9117
  793MOL0     H 9404   8.587  11.218  -0.293  0.3932  0.6195 -1.0200
  793MOL0     H 9405   8.478  11.360  -0.290  0.1738  1.2064 -1.2835
  793MOL0     H 9406   8.523  11.187  -0.543 -2.3046 -0.1549  0.6286
  793MOL0     H 9407   8.454  11.344  -0.529  0.2616  1.6686  1.4109
  793MOL0     H 9408   8.738  11.285  -0.470 -1.6485 -2.7547 -3.1229
  793MOL0     H 9409   8.672  11.444  -0.477 -1.9040  0.6134 -1.4331
  793MOL0     H 9410   8.619  11.356  -0.738  0.6322 -1.8576 -0.7824
  793MOL0     H 9411   8.704  11.209  -0.693 -0.9579 -0.5878 -1.5094
  793MOL0     H 9412   8.855  11.472  -0.682 -0.5512 -0.7178  0.6775
  793MOL0     H 9413   8.846  11.356  -0.820  0.4973  1.2211 -0.7318
  793MOL0     H 9414   8.062  11.274   0.087  1.2975  2.3935 -2.6499
  793MOL0     H 9415   7.805  11.270   0.180  1.7921  0.0632  0.5389
  793MOL0     H 9416   7.391  11.558   0.095  1.9943 -1.0993 -2.0269
  793MOL0     H 9417   7.143  11.558   0.166 -0.7608 -1.9732  2.4233
  793MOL0     H 9418   8.227  10.780   0.474  0.4533 -1.1279 -0.6570
  793MOL0     H 9419   8.409  10.629   0.571  1.4327  2.5498  3.0667
  793MOL0     H 9420   8.422  10.314   0.973 -0.3642 -1.4819 -0.9609
  793MOL0     H 9421   8.523  10.152   1.121  0.4242  0.9073  0.6423
  793MOL0     H 9422   8.674  10.128   1.284  3.1131  1.5710  1.1740
  793MOL0     H 9423   8.692   9.971   1.222 -0.6302  1.2006 -0.4806
  793MOL0     H 9424   8.827  10.004   1.421 -0.1990 -0.4212 -0.4811
  793MOL0     H 9425   8.920  10.129   1.333  0.9150 -0.0142 -0.6793
  793MOL0     H 9426   8.924   9.897   1.165 -0.6694 -0.9956  1.7365
  793MOL0     H 9427   9.061   9.975   1.251  0.2671  1.4018  3.5273
  793MOL0     H 9428   9.012   9.820   1.440  0.5044  1.0480 -0.4912
  793MOL0     H 9429   9.017   9.729   1.287  0.8404  2.6038 -3.3387
  793MOL0     H 9430   8.607   9.687   1.391  0.0245 -2.0581 -0.1889
  793MOL0     H 9431   8.899  10.257   0.949 -0.8010  0.7465 -0.7265
  793MOL0     H 9432   8.773  10.484   0.696  0.2382  1.1803 -0.8451
  793MOL0     H 9433   8.815  10.572   0.848  1.1175 -1.9010  2.3744
  793MOL0     H 9434   8.921  10.447   0.784  0.6642  0.8635 -0.3237
  794MOL0     O 9435   2.006   2.231   6.636  0.3979  0.2530  0.1748
  794MOL0     C 9436   1.977   2.270   6.742 -1.3680  0.2661 -0.3917
  794MOL0     O 9437   2.032   2.223   6.857 -0.3448 -0.2830  0.5523
  794MOL0     C 9438   2.132   2.132   6.860  0.2584 -0.6034 -0.1011
  794MOL0     C 9439   2.100   2.007   6.916  0.2492  0.0697 -0.4495
  794MOL0     C 9440   2.204   1.914   6.917  0.2201 -0.1243  0.2767
  794MOL0     C 9441   2.331   1.941   6.886 -0.3000  0.4305  0.1825
  794MOL0     O 9442   2.432   1.849   6.894 -0.3397  0.3706  0.0228
  794MOL0     C 9443   2.465   1.803   6.767 -0.1869 -0.1293 -0.0398
  794MOL0     C 9444   2.577   1.703   6.764 -0.1368  0.0937  0.2207
  794MOL0     C 9445   2.698   1.746   6.854 -0.2211 -0.6079  0.8426
  794MOL0     C 9446   2.772   1.875   6.788 -0.2757 -0.3985 -0.9076
  794MOL0     C 9447   2.921   1.861   6.831  0.0519 -0.1063 -0.1868
  794MOL0     C 9448   3.001   1.813   6.712  0.8899 -0.0416  0.1996
  794MOL0     C 9449   3.153   1.830   6.713  0.7340  0.4473 -0.0086
  794MOL0     C 9450   3.226   1.751   6.823  0.5625  1.0470 -0.2192
  794MOL0     N 9451   3.354   1.713   6.780 -0.7785  0.4387  0.4147
  794MOL0     C 9452   3.451   1.800   6.730 -0.5226  0.3764 -0.5847
  794MOL0     C 9453   3.559   1.723   6.728 -0.2436  0.6153 -0.2966
  794MOL0     C 9454   3.686   1.758   6.667  0.2040 -0.6187 -0.7061
  794MOL0     C 9455   3.765   1.827   6.781 -0.6926  0.5291 -0.0760
  794MOL0     C 9456   3.898   1.900   6.740 -0.3942 -0.5045 -0.9580
  794MOL0     C 9457   3.998   1.892   6.858  0.5198 -0.0146 -0.5405
  794MOL0     O 9458   4.122   1.963   6.833 -0.8540  0.0426  0.5072
  794MOL0     C 9459   4.244   1.923   6.887 -0.4410  0.1855  0.0108
  794MOL0     C 9460   4.284   1.791   6.890  0.5344  0.1504  0.4380
  794MOL0     C 9461   4.402   1.746   6.961 -0.0428 -0.1014  0.4158
  794MOL0     C 9462   4.418   1.603   6.982 -1.0197  0.1517  0.3952
  794MOL0     C 9463   4.473   1.849   7.024  0.1326  0.5856 -0.5963
  794MOL0     C 9464   4.603   1.824   7.103 -0.5697 -0.3218 -0.0391
  794MOL0     O 9465   4.620   1.708   7.178 -0.7545 -0.7381 -0.1529
  794MOL0     C 9466   4.736   1.669   7.247 -0.7311  0.6743  0.9710
  794MOL0     C 9467   4.730   1.675   7.385 -0.3830  0.3154 -0.1548
  794MOL0     C 9468   4.834   1.630   7.463  0.2046 -0.2717  0.0791
  794MOL0     C 9469   4.946   1.571   7.409 -0.9735  0.6057 -0.1995
  794MOL0     O 9470   5.049   1.526   7.484  0.2264  0.3736  0.0773
  794MOL0     C 9471   5.040   1.478   7.616  0.0087 -0.2740  0.4012
  794MOL0     C 9472   5.156   1.393   7.649 -0.4590  0.2282 -0.2568
  794MOL0     C 9473   5.297   1.436   7.613 -0.7344 -0.0942  0.1609
  794MOL0     C 9474   5.359   1.560   7.690  0.7078  0.5019 -0.6034
  794MOL0     C 9475   5.506   1.583   7.665  0.0953 -0.5914  0.2490
  794MOL0     C 9476   5.528   1.666   7.539  0.3378 -0.0149  0.0089
  794MOL0     C 9477   5.683   1.704   7.522  0.0540 -0.2734 -0.1371
  794MOL0     C 9478   5.788   1.602   7.484  0.7473  0.1589 -0.4575
  794MOL0    Cl 9479   5.806   1.474   7.600 -0.9222  0.3018  0.1361
  794MOL0     C 9480   4.957   1.567   7.268 -0.2624  0.3858  0.5947
  794MOL0     C 9481   4.846   1.613   7.186 -0.1926  1.3960 -0.3717
  794MOL0     O 9482   4.694   1.909   7.085  0.3796  0.7795 -0.4399
  794MOL0     C 9483   4.423   1.980   7.023 -0.0829  0.1060  1.6108
  794MOL0     C 9484   4.309   2.022   6.962  0.2119  1.0470  1.0713
  794MOL0     N 9485   3.530   1.600   6.783 -0.2853  0.0946 -0.0138
  794MOL0     N 9486   3.405   1.592   6.804  0.3824  0.2829 -0.4874
  794MOL0     C 9487   2.360   2.071   6.833  0.0268  0.5695  0.2373
  794MOL0     C 9488   2.263   2.173   6.813 -0.1876  0.0544 -0.2887
  794MOL0     C 9489   1.855   2.358   6.748 -0.7140  0.4314  0.6204
  794MOL0     C 9490   1.801   2.381   6.868  0.0856 -0.3778  0.4116
  794MOL0     C 9491   1.684   2.465   6.881 -1.3352  0.5373 -0.0987
  794MOL0     C 9492   1.618   2.511   6.773 -0.2018 -0.2160  0.7991
  794MOL0     O 9493   1.500   2.572   6.797 -0.1028 -0.1257  0.0312
  794MOL0     C 9494   1.380   2.496   6.766 -0.0526  0.1511  0.6519
  794MOL0     C 9495   1.254   2.543   6.848 -1.3173  0.3257 -0.4947
  794MOL0     C 9496   1.134   2.463   6.824  1.1161  0.3212 -0.2522
  794MOL0     C 9497   1.073   2.477   6.685  0.3722 -0.3874  0.1299
  794MOL0     C 9498   1.006   2.362   6.635  0.0475  0.0877 -0.1919
  794MOL0     C 9499   0.940   2.269   6.603  0.2627 -0.1615  0.3967
  794MOL0     C 9500   1.671   2.479   6.651  1.8261  0.6995  1.3947
  794MOL0     C 9501   1.782   2.400   6.633 -0.1979 -0.3376  0.0605
  794MOL0     C 9502   1.829   2.383   6.490 -0.6558  0.3173  0.5504
  794MOL0     H 9503   1.998   1.993   6.948  0.8915  1.0231  2.2643
  794MOL0     H 9504   2.186   1.812   6.950  3.3961 -1.6693 -2.2465
  794MOL0     H 9505   2.490   1.885   6.699  1.8429 -0.2283  0.5336
  794MOL0     H 9506   2.371   1.761   6.730 -1.2382 -0.3341  2.6214
  794MOL0     H 9507   2.546   1.603   6.797 -0.0346  1.1481  4.0474
  794MOL0     H 9508   2.606   1.682   6.661 -0.1010  1.7610 -0.1446
  794MOL0     H 9509   2.667   1.775   6.955 -1.6439  1.8164 -0.2080
  794MOL0     H 9510   2.766   1.660   6.856 -1.4410 -1.6300  0.2558
  794MOL0     H 9511   2.758   1.875   6.680 -0.0448  0.3203 -0.9435
  794MOL0     H 9512   2.730   1.965   6.836 -0.5221 -0.8336 -0.2872
  794MOL0     H 9513   2.931   1.795   6.918 -0.9981  3.4394  2.9028
  794MOL0     H 9514   2.977   1.954   6.848  0.8488 -0.3095 -1.5556
  794MOL0     H 9515   2.981   1.706   6.704 -1.0219 -0.0374  3.1589
  794MOL0     H 9516   2.969   1.856   6.617  0.0255 -2.5702 -0.7305
  794MOL0     H 9517   3.172   1.936   6.729 -0.9379  0.7513  0.0792
  794MOL0     H 9518   3.185   1.810   6.610 -0.0845  2.8141 -0.7820
  794MOL0     H 9519   3.222   1.806   6.917  0.6414  0.7530 -0.0434
  794MOL0     H 9520   3.166   1.663   6.849  1.4303  0.9491  1.6191
  794MOL0     H 9521   3.433   1.900   6.690 -1.1268  0.2125 -0.7319
  794MOL0     H 9522   3.661   1.824   6.584  2.0784 -1.1968 -1.7824
  794MOL0     H 9523   3.728   1.666   6.626 -1.5822 -1.1963 -1.2990
  794MOL0     H 9524   3.705   1.905   6.829  0.0746  0.6802  0.6622
  794MOL0     H 9525   3.778   1.742   6.849  1.0236 -0.0942 -1.1359
  794MOL0     H 9526   3.944   1.873   6.645 -1.8641 -2.9970 -1.0440
  794MOL0     H 9527   3.878   2.007   6.732 -0.3066 -0.2067  1.8221
  794MOL0     H 9528   3.947   1.923   6.950 -2.2750 -1.9448 -1.3096
  794MOL0     H 9529   4.015   1.785   6.875  0.7593 -0.1438 -1.5402
  794MOL0     H 9530   4.218   1.721   6.841 -0.6123  0.4952  1.4384
  794MOL0     H 9531   4.520   1.568   7.004 -0.2577  2.8108  1.5133
  794MOL0     H 9532   4.399   1.563   6.882  0.2448  0.3053  0.0742
  794MOL0     H 9533   4.357   1.555   7.059  0.7414 -0.4072  1.5183
  794MOL0     H 9534   4.638   1.720   7.421  1.4010  3.4403  0.8635
  794MOL0     H 9535   4.840   1.641   7.571  0.5605 -1.7250  0.2212
  794MOL0     H 9536   5.052   1.570   7.675  2.3097  2.3064 -3.5450
  794MOL0     H 9537   4.946   1.428   7.638  0.6460 -2.2618 -1.0595
  794MOL0     H 9538   5.162   1.375   7.757 -0.2510  0.5101 -0.2193
  794MOL0     H 9539   5.137   1.296   7.601 -3.6583 -2.2943  5.0958
  794MOL0     H 9540   5.301   1.469   7.508  2.4119 -1.4537 -0.2893
  794MOL0     H 9541   5.365   1.353   7.634  1.2790  1.8984  2.0583
  794MOL0     H 9542   5.346   1.552   7.798  1.9640  0.6257 -0.4265
  794MOL0     H 9543   5.294   1.647   7.681 -1.3016 -0.2378  3.9083
  794MOL0     H 9544   5.554   1.644   7.742 -2.5093  1.8325  0.0943
  794MOL0     H 9545   5.561   1.489   7.652  0.2819 -0.6381  1.2974
  794MOL0     H 9546   5.463   1.752   7.551 -0.5445 -0.8653  1.8230
  794MOL0     H 9547   5.498   1.610   7.450  0.8909  0.0331 -0.2154
  794MOL0     H 9548   5.710   1.749   7.617 -2.1822 -1.5258  1.1907
  794MOL0     H 9549   5.697   1.779   7.443 -1.0477 -2.2058 -2.2901
  794MOL0     H 9550   5.884   1.655   7.484  0.1012  1.5580 -3.7695
  794MOL0     H 9551   5.766   1.566   7.383 -1.3068  1.7690 -0.6617
  794MOL0     H 9552   5.039   1.511   7.224  0.1847 -0.2974  2.2318
  794MOL0     H 9553   4.825   1.604   7.080 -0.7591  1.8697 -0.3055
  794MOL0     H 9554   4.485   2.051   7.077  0.3755 -0.3031  1.6331
  794MOL0     H 9555   4.279   2.125   6.975 -1.5754  1.0344 -2.0051
  794MOL0     H 9556   2.467   2.092   6.830  0.5487 -1.3523  2.5003
  794MOL0     H 9557   2.270   2.276   6.780 -0.9416  0.0132 -0.6013
  794MOL0     H 9558   1.845   2.334   6.955 -1.8298 -1.9082  0.6063
  794MOL0     H 9559   1.654   2.460   6.985 -1.5109 -0.3494 -0.1833
  794MOL0     H 9560   1.353   2.496   6.660 -3.1056 -0.0176  1.3137
  794MOL0     H 9561   1.404   2.391   6.789  0.4794  0.8071  3.5797
  794MOL0     H 9562   1.239   2.650   6.834 -1.5422  0.8273  2.8264
  794MOL0     H 9563   1.273   2.535   6.955 -1.5165  0.7287 -0.4283
  794MOL0     H 9564   1.142   2.356   6.843 -1.8798  0.2316  1.2107
  794MOL0     H 9565   1.059   2.509   6.889 -2.0351 -2.0494 -1.8937
  794MOL0     H 9566   1.144   2.520   6.615  0.5421  1.2373  1.2322
  794MOL0     H 9567   0.995   2.554   6.683  0.9557  0.1865 -0.6961
  794MOL0     H 9568   0.874   2.196   6.558  0.4239  0.8311 -1.5467
  794MOL0     H 9569   1.617   2.518   6.565  1.2369 -0.7825  1.0603
  794MOL0     H 9570   1.796   2.287   6.451  2.3781  0.3723 -2.5613
  794MOL0     H 9571   1.775   2.453   6.426  0.3368  1.8956  1.3740
  794MOL0     H 9572   1.938   2.395   6.489 -0.6940  0.7106  0.8426
  795MOL0     O 9573   8.186   2.024   9.110 -0.0030 -0.4668 -0.4405
  795MOL0     C 9574   8.141   2.102   9.198  0.1718 -0.2662  1.5847
  795MOL0     O 9575   8.184   2.106   9.326 -0.0520 -0.1650 -0.3128
  795MOL0     C 9576   8.257   1.998   9.366 -0.1891  1.3271 -0.2337
  795MOL0     C 9577   8.190   1.880   9.406 -0.2698 -0.9619  0.3491
  795MOL0     C 9578   8.272   1.772   9.465  0.8186 -0.0290  0.4443
  795MOL0     C 9579   8.411   1.778   9.476  0.9232  0.3422  0.2014
  795MOL0     O 9580   8.482   1.687   9.562  0.2951 -0.7544 -0.4402
  795MOL0     C 9581   8.607   1.645   9.523  0.5991 -0.7340 -0.2237
  795MOL0     C 9582   8.694   1.605   9.647 -0.7596  1.1185 -0.1838
  795MOL0     C 9583   8.836   1.586   9.606 -0.5028  0.8866 -0.3072
  795MOL0     C 9584   8.929   1.552   9.729 -0.5043 -0.5296  0.5836
  795MOL0     C 9585   9.067   1.501   9.677  0.2033 -0.5869 -0.2948
  795MOL0     C 9586   9.154   1.444   9.788  1.1409  0.6969 -0.5470
  795MOL0     C 9587   9.284   1.378   9.731  0.0451  0.2811 -0.4853
  795MOL0     C 9588   9.388   1.354   9.843 -0.0301  0.3807  0.0113
  795MOL0     N 9589   9.482   1.251   9.797  0.1446  0.5000  0.2916
  795MOL0     C 9590   9.620   1.286   9.772  0.3225 -0.0613 -0.3203
  795MOL0     C 9591   9.672   1.164   9.758  0.5018 -0.3720 -0.5295
  795MOL0     C 9592   9.818   1.143   9.725  0.5383  0.1743  0.9111
  795MOL0     C 9593   9.826   1.066   9.595  0.0149  0.2636  1.5498
  795MOL0     C 9594   9.881   1.148   9.473 -1.2679  0.2722  0.4403
  795MOL0     C 9595  10.025   1.172   9.481  1.0338 -0.3466 -0.5431
  795MOL0     O 9596  10.066   1.193   9.349 -0.1382 -0.1857  0.0613
  795MOL0     C 9597  10.196   1.252   9.343  1.1658  0.6564  0.3400
  795MOL0     C 9598  10.241   1.288   9.214  1.5322 -0.9344  0.1157
  795MOL0     C 9599  10.368   1.343   9.197 -0.0883  0.2298 -0.0235
  795MOL0     C 9600  10.403   1.389   9.059 -0.3705 -0.4248 -0.1099
  795MOL0     C 9601  10.461   1.343   9.306  0.6794 -0.1413  0.8936
  795MOL0     C 9602  10.607   1.373   9.293 -1.2346 -0.5674  0.5237
  795MOL0     O 9603  10.678   1.305   9.195  0.0295  0.0898 -0.0343
  795MOL0     C 9604  10.791   1.362   9.136 -0.1286  0.1785 -1.1959
  795MOL0     C 9605  10.801   1.503   9.126 -0.7528  0.2521  0.1714
  795MOL0     C 9606  10.911   1.574   9.072 -0.2154  0.8623 -0.4979
  795MOL0     C 9607  11.026   1.502   9.039  0.3489  0.2250  0.2721
  795MOL0     O 9608  11.136   1.567   9.004  0.1658  0.8510  0.3309
  795MOL0     C 9609  11.232   1.499   8.916  0.2214  0.2352 -0.1008
  795MOL0     C 9610  11.271   1.586   8.790  0.8578 -0.6341  0.0568
  795MOL0     C 9611  11.173   1.554   8.670  0.9886  0.0205  0.0272
  795MOL0     C 9612  11.194   1.661   8.554  0.1976 -0.2618 -0.1902
  795MOL0     C 9613  11.103   1.630   8.440  0.8512  0.8671 -0.0982
  795MOL0     C 9614  11.111   1.728   8.328  0.3263  1.1058  0.4283
  795MOL0     C 9615  11.034   1.685   8.199  0.2708  0.3887 -0.0441
  795MOL0     C 9616  11.106   1.578   8.122 -0.1750  0.6016  0.1050
  795MOL0    Cl 9617  11.274   1.604   8.081 -0.1368 -0.2984 -0.6290
  795MOL0     C 9618  11.029   1.365   9.059  0.1626  0.6761 -0.5084
  795MOL0     C 9619  10.914   1.295   9.104  0.0522  0.7702  0.1398
  795MOL0     O 9620  10.661   1.437   9.388  0.1633 -0.8777  0.0091
  795MOL0     C 9621  10.417   1.308   9.426  0.6865  0.5145  0.0848
  795MOL0     C 9622  10.284   1.276   9.453 -0.2999 -0.2157 -0.3863
  795MOL0     N 9623   9.589   1.060   9.793 -0.2173 -0.2923 -0.2238
  795MOL0     N 9624   9.468   1.114   9.809 -1.0708  0.8862  0.6634
  795MOL0     C 9625   8.471   1.904   9.440 -0.4514  0.9236  0.3600
  795MOL0     C 9626   8.391   2.009   9.384 -0.9261  0.3944 -0.1023
  795MOL0     C 9627   8.058   2.218   9.162 -0.8181 -0.7217  0.1977
  795MOL0     C 9628   8.019   2.305   9.268  0.2053 -0.9518  0.5184
  795MOL0     C 9629   7.936   2.414   9.239  0.5415 -0.0815 -0.2601
  795MOL0     C 9630   7.889   2.434   9.117  0.5446 -0.1291 -0.6776
  795MOL0     O 9631   7.801   2.537   9.092  0.4883  0.3989 -0.2053
  795MOL0     C 9632   7.778   2.643   9.182 -0.5477 -0.2414 -0.5426
  795MOL0     C 9633   7.708   2.763   9.118  0.5351  0.7338  0.4569
  795MOL0     C 9634   7.709   2.883   9.206 -1.1357  0.0849  0.0996
  795MOL0     C 9635   7.848   2.953   9.217  0.7782  1.1926  0.7504
  795MOL0     C 9636   7.929   2.957   9.092 -0.9553  0.1918 -0.1283
  795MOL0     C 9637   7.994   2.938   8.991  0.2141  0.0596 -0.0048
  795MOL0     C 9638   7.939   2.361   9.014  0.6747  0.5443 -0.5645
  795MOL0     C 9639   8.026   2.249   9.027  0.1527  0.0066 -0.8418
  795MOL0     C 9640   8.089   2.193   8.910  0.2004 -0.4844 -0.3365
  795MOL0     H 9641   8.083   1.887   9.389  0.0600 -0.5148 -1.7393
  795MOL0     H 9642   8.226   1.682   9.505  1.2363 -0.3867  0.1258
  795MOL0     H 9643   8.657   1.719   9.459 -1.7350 -1.1932 -2.7979
  795MOL0     H 9644   8.585   1.561   9.456  0.1859 -1.7521  1.1380
  795MOL0     H 9645   8.684   1.679   9.726  0.9549  0.4399  0.7302
  795MOL0     H 9646   8.657   1.514   9.695  0.8256  0.5522  0.0265
  795MOL0     H 9647   8.842   1.505   9.533  2.6449 -0.8284  1.6519
  795MOL0     H 9648   8.866   1.678   9.555  2.0891  0.0723 -0.3802
  795MOL0     H 9649   8.941   1.634   9.801  1.6817 -1.6791  1.6120
  795MOL0     H 9650   8.876   1.482   9.794  1.4521  0.3830  3.3617
  795MOL0     H 9651   9.124   1.577   9.623  2.0422 -1.8736 -0.2399
  795MOL0     H 9652   9.056   1.424   9.600  5.4027 -2.4149  0.3837
  795MOL0     H 9653   9.195   1.519   9.856  0.2227 -0.9473  1.9160
  795MOL0     H 9654   9.100   1.380   9.857  0.0167  0.9930 -1.1155
  795MOL0     H 9655   9.321   1.452   9.660 -0.5880  2.2337  1.1493
  795MOL0     H 9656   9.263   1.292   9.666 -3.1099  1.7574 -1.6763
  795MOL0     H 9657   9.432   1.453   9.855  2.3591 -0.6319  0.1737
  795MOL0     H 9658   9.336   1.309   9.928 -1.2549  0.0184 -0.8902
  795MOL0     H 9659   9.668   1.383   9.772  0.0474  0.0755 -0.2365
  795MOL0     H 9660   9.867   1.082   9.802  2.4916 -2.0818 -1.8687
  795MOL0     H 9661   9.870   1.239   9.713 -0.6057  0.6080 -0.9581
  795MOL0     H 9662   9.889   0.976   9.597 -2.1198 -1.2995  1.4116
  795MOL0     H 9663   9.730   1.050   9.546  1.0026  2.3010 -1.3146
  795MOL0     H 9664   9.861   1.096   9.379 -2.2268 -2.3015  1.9749
  795MOL0     H 9665   9.844   1.251   9.468  0.1919  0.8943  1.4799
  795MOL0     H 9666  10.035   1.255   9.551  2.2509 -1.0332  0.1430
  795MOL0     H 9667  10.084   1.088   9.520  1.5849 -0.0431 -0.7213
  795MOL0     H 9668  10.173   1.269   9.132  1.1679  1.6685 -0.2779
  795MOL0     H 9669  10.346   1.324   8.991 -0.4699 -1.4827  0.9676
  795MOL0     H 9670  10.508   1.377   9.029 -0.1462 -0.1490  0.5530
  795MOL0     H 9671  10.371   1.494   9.058 -0.2022 -0.3652  0.6163
  795MOL0     H 9672  10.719   1.568   9.157 -1.6899 -1.2183  0.8605
  795MOL0     H 9673  10.903   1.682   9.058 -1.6478  1.1536  1.9335
  795MOL0     H 9674  11.329   1.480   8.963 -0.5334 -0.4384  1.2455
  795MOL0     H 9675  11.191   1.405   8.877 -0.0264 -0.0239  0.7598
  795MOL0     H 9676  11.274   1.692   8.815  0.3459 -0.3670 -0.9654
  795MOL0     H 9677  11.369   1.551   8.755  2.2786  2.2138  0.8750
  795MOL0     H 9678  11.072   1.576   8.707  1.0582  0.9978 -0.3280
  795MOL0     H 9679  11.186   1.455   8.626  0.9033  1.5103 -3.6909
  795MOL0     H 9680  11.301   1.673   8.534  0.5964  0.9507  2.2606
  795MOL0     H 9681  11.164   1.760   8.590 -0.5223 -0.1543 -1.0345
  795MOL0     H 9682  11.127   1.529   8.403 -1.3743  0.8017 -1.5869
  795MOL0     H 9683  11.003   1.623   8.484 -0.1686  4.0643 -1.6362
  795MOL0     H 9684  11.213   1.744   8.292  0.8140 -0.9476  0.7333
  795MOL0     H 9685  11.085   1.830   8.354  1.0860  1.3613  0.2214
  795MOL0     H 9686  11.048   1.773   8.136  1.0131  1.0058  0.9548
  795MOL0     H 9687  10.927   1.667   8.209  0.1789  1.5902  1.7038
  795MOL0     H 9688  11.060   1.558   8.024  0.6844 -3.2156  0.2908
  795MOL0     H 9689  11.100   1.481   8.172  0.5953 -0.3862 -1.6067
  795MOL0     H 9690  11.121   1.310   9.038  0.2745 -0.3873  2.2914
  795MOL0     H 9691  10.912   1.188   9.122 -0.1378  0.7583  0.0406
  795MOL0     H 9692  10.486   1.298   9.509  2.6948 -0.9795 -1.6587
  795MOL0     H 9693  10.271   1.247   9.557  2.6533 -3.2699 -0.6646
  795MOL0     H 9694   8.578   1.917   9.437 -0.2342 -0.7145 -2.7331
  795MOL0     H 9695   8.429   2.108   9.358  0.4988 -0.2018 -0.4045
  795MOL0     H 9696   8.054   2.293   9.370  0.6267 -1.5092  0.3121
  795MOL0     H 9697   7.919   2.478   9.324 -1.8025  0.1561 -0.8406
  795MOL0     H 9698   7.713   2.606   9.262  1.4677 -2.7270  0.0846
  795MOL0     H 9699   7.870   2.676   9.232  0.7610 -2.0216 -1.6393
  795MOL0     H 9700   7.602   2.740   9.130  1.4346 -2.6094  3.8897
  795MOL0     H 9701   7.748   2.781   9.018  1.8264  1.3257  1.0507
  795MOL0     H 9702   7.630   2.953   9.176 -0.3382  1.4175  0.9923
  795MOL0     H 9703   7.675   2.864   9.308 -3.8428  1.1973 -0.5073
  795MOL0     H 9704   7.905   2.898   9.293 -0.3376  0.7137  1.2681
  795MOL0     H 9705   7.824   3.053   9.254 -2.6496  1.7022 -2.3183
  795MOL0     H 9706   8.063   2.910   8.914  0.6486 -0.5618  0.5900
  795MOL0     H 9707   7.915   2.384   8.911 -2.4675  3.2336  0.6112
  795MOL0     H 9708   8.075   2.267   8.830  0.1893  2.9746  2.6188
  795MOL0     H 9709   8.196   2.177   8.923 -0.1622 -0.9359  2.9638
  795MOL0     H 9710   8.042   2.096   8.890 -0.9559 -0.3416  1.4751
  796MOL0     O 9711   0.160   1.002   7.783 -0.4572  0.8729  0.6771
  796MOL0     C 9712   0.099   1.013   7.890  0.1101  0.1109 -0.0165
  796MOL0     O 9713  -0.030   0.973   7.917 -0.8365 -0.1968 -0.7092
  796MOL0     C 9714  -0.091   0.895   7.829  0.0473 -0.6125  0.2936
  796MOL0     C 9715  -0.036   0.771   7.805  0.4788  0.0546 -0.3243
  796MOL0     C 9716  -0.099   0.686   7.714 -0.9712 -0.2006 -1.0863
  796MOL0     C 9717  -0.223   0.716   7.663  0.7474  0.5438 -0.6446
  796MOL0     O 9718  -0.288   0.633   7.572 -0.1856 -0.1451  0.4600
  796MOL0     C 9719  -0.400   0.563   7.625 -0.2419 -0.0636 -0.2844
  796MOL0     C 9720  -0.345   0.431   7.681  0.8606  0.2724 -0.1267
  796MOL0     C 9721  -0.450   0.342   7.765 -0.5211 -0.2315  0.4591
  796MOL0     C 9722  -0.589   0.324   7.706  0.5160 -0.3684 -1.0970
  796MOL0     C 9723  -0.579   0.256   7.566  0.2824  0.1601 -0.2843
  796MOL0     C 9724  -0.726   0.231   7.520 -0.9073 -0.2951 -0.3987
  796MOL0     C 9725  -0.724   0.162   7.375 -0.7292  0.1562  1.1193
  796MOL0     C 9726  -0.867   0.171   7.320 -0.5080 -0.9962 -0.3196
  796MOL0     N 9727  -0.891   0.109   7.191 -0.3868  0.1946  0.1952
  796MOL0     C 9728  -0.876   0.162   7.063  0.6980 -0.5836 -1.1746
  796MOL0     C 9729  -0.940   0.074   6.979 -0.0058 -0.1214  0.0354
  796MOL0     C 9730  -0.966   0.099   6.841 -0.2936  0.1122  0.5217
  796MOL0     C 9731  -1.071   0.012   6.784  0.3838 -0.7328  0.5866
  796MOL0     C 9732  -1.068   0.027   6.629  0.8293  0.4890 -0.1261
  796MOL0     C 9733  -1.166  -0.075   6.569  0.0845 -0.4089 -0.0831
  796MOL0     O 9734  -1.309  -0.041   6.603 -0.2127 -0.1812 -0.2000
  796MOL0     C 9735  -1.396  -0.131   6.534 -0.4188  0.9695  0.6092
  796MOL0     C 9736  -1.376  -0.212   6.421 -0.5947 -0.1771  0.5596
  796MOL0     C 9737  -1.471  -0.297   6.369 -0.2483 -0.3570  0.3677
  796MOL0     C 9738  -1.433  -0.372   6.243  0.4545  0.2889 -0.5043
  796MOL0     C 9739  -1.591  -0.316   6.445 -0.6044 -0.2401  0.7867
  796MOL0     C 9740  -1.701  -0.415   6.401 -0.6492 -0.6571  0.4069
  796MOL0     O 9741  -1.820  -0.398   6.460 -0.1337  0.8734  0.1333
  796MOL0     C 9742  -1.921  -0.479   6.424 -0.5462 -0.2331  0.8876
  796MOL0     C 9743  -2.001  -0.447   6.310 -0.0477 -0.4256  0.3723
  796MOL0     C 9744  -2.088  -0.545   6.258 -0.4449 -1.0508  0.3796
  796MOL0     C 9745  -2.114  -0.668   6.328 -0.1773  0.0952 -0.0480
  796MOL0     O 9746  -2.203  -0.760   6.286  0.1921  0.1650 -0.0731
  796MOL0     C 9747  -2.320  -0.723   6.203 -0.1918  0.2996 -0.8692
  796MOL0     C 9748  -2.412  -0.854   6.194 -0.4299  0.5437 -0.0058
  796MOL0     C 9749  -2.500  -0.853   6.070 -0.0329 -0.2125  0.0169
  796MOL0     C 9750  -2.618  -0.947   6.092 -0.9393 -0.0128 -0.4906
  796MOL0     C 9751  -2.579  -1.090   6.124  0.4746  0.5171 -1.0182
  796MOL0     C 9752  -2.501  -1.154   6.004 -0.4402  0.2890 -0.2368
  796MOL0     C 9753  -2.465  -1.292   6.045  0.0818 -0.8763  0.3575
  796MOL0     C 9754  -2.385  -1.362   5.942 -0.5692  0.7860 -0.0073
  796MOL0    Cl 9755  -2.236  -1.274   5.906 -0.4317  0.5565  0.3926
  796MOL0     C 9756  -2.053  -0.684   6.450  1.0586  0.2607  0.4718
  796MOL0     C 9757  -1.952  -0.596   6.498 -0.0532 -0.6008  0.1534
  796MOL0     O 9758  -1.678  -0.500   6.311 -0.1580 -0.7757 -1.3426
  796MOL0     C 9759  -1.618  -0.226   6.555  0.0153 -0.3194  0.1986
  796MOL0     C 9760  -1.523  -0.137   6.588 -0.1385  0.8527 -0.2804
  796MOL0     N 9761  -0.990  -0.032   7.067  0.2031  0.1805  0.3311
  796MOL0     N 9762  -0.954  -0.011   7.187  0.0819  0.2550  0.1512
  796MOL0     C 9763  -0.280   0.834   7.696  0.1301 -1.8146 -0.0148
  796MOL0     C 9764  -0.212   0.929   7.771  0.4623 -0.6539  0.1700
  796MOL0     C 9765   0.164   1.077   8.009  0.0891  0.5165  0.4889
  796MOL0     C 9766   0.298   1.027   8.034 -0.0563 -0.0596  0.8033
  796MOL0     C 9767   0.375   1.066   8.135 -0.2743  0.6045 -0.4521
  796MOL0     C 9768   0.327   1.146   8.236  0.3170 -0.0005  0.0742
  796MOL0     O 9769   0.388   1.196   8.349  0.0231  0.8090  0.1204
  796MOL0     C 9770   0.526   1.187   8.379 -0.0071 -0.5527  0.3188
  796MOL0     C 9771   0.570   1.072   8.458 -0.2399  0.6589 -1.5263
  796MOL0     C 9772   0.490   1.059   8.588 -0.8766  0.0804  0.5494
  796MOL0     C 9773   0.528   0.931   8.675  0.4262  0.2486 -0.1868
  796MOL0     C 9774   0.662   0.943   8.737  0.1526  0.3459 -0.3726
  796MOL0     C 9775   0.760   0.944   8.803 -0.2995 -0.9516  0.0260
  796MOL0     C 9776   0.199   1.200   8.221 -0.2296  0.3666 -0.1838
  796MOL0     C 9777   0.114   1.168   8.103 -0.9320  0.1542  0.3718
  796MOL0     C 9778   0.000   1.252   8.081 -0.0008  0.0767 -0.2993
  796MOL0     H 9779   0.059   0.742   7.848  1.6432  2.4376 -1.1768
  796MOL0     H 9780  -0.071   0.582   7.696 -2.1858 -1.6292  3.7386
  796MOL0     H 9781  -0.472   0.541   7.546 -1.1454 -0.5154  0.6415
  796MOL0     H 9782  -0.456   0.624   7.697 -0.7959  0.8291 -1.4383
  796MOL0     H 9783  -0.296   0.374   7.601  0.8653  0.5713 -0.3373
  796MOL0     H 9784  -0.263   0.447   7.752 -0.7974 -2.0843  2.5294
  796MOL0     H 9785  -0.410   0.243   7.788 -0.4047  0.3824  3.2431
  796MOL0     H 9786  -0.448   0.393   7.862  0.5843  1.9218 -0.6115
  796MOL0     H 9787  -0.644   0.261   7.776  3.1011  0.8744  2.3204
  796MOL0     H 9788  -0.640   0.420   7.700  0.0121 -0.5579 -0.0291
  796MOL0     H 9789  -0.528   0.161   7.580 -0.0600  0.1327  0.8788
  796MOL0     H 9790  -0.533   0.323   7.493 -3.2618  0.5805 -2.3777
  796MOL0     H 9791  -0.780   0.174   7.596 -1.1761  1.7769  1.0745
  796MOL0     H 9792  -0.773   0.330   7.511 -1.0746 -0.1484  1.5449
  796MOL0     H 9793  -0.690   0.058   7.388 -4.5808 -1.4294 -0.0992
  796MOL0     H 9794  -0.654   0.219   7.313 -0.6693  0.9771  1.9236
  796MOL0     H 9795  -0.937   0.121   7.389 -1.8528 -1.1587 -1.7438
  796MOL0     H 9796  -0.902   0.274   7.319 -2.5948 -1.6471 -2.0908
  796MOL0     H 9797  -0.844   0.264   7.042 -0.5726 -0.5990 -3.6679
  796MOL0     H 9798  -0.874   0.101   6.782 -1.9451  1.5496 -2.2495
  796MOL0     H 9799  -1.000   0.203   6.836  4.4901  2.0288  2.2445
  796MOL0     H 9800  -1.043  -0.089   6.818  1.0979  0.2266  3.1083
  796MOL0     H 9801  -1.175   0.036   6.808 -0.4897  0.7443 -3.7984
  796MOL0     H 9802  -1.100   0.125   6.593  0.4306  0.3789 -0.0701
  796MOL0     H 9803  -0.966   0.008   6.594  1.0276 -0.2966  0.8392
  796MOL0     H 9804  -1.141  -0.073   6.463  0.8733 -1.0363  0.0849
  796MOL0     H 9805  -1.138  -0.175   6.603 -2.5075 -2.1363 -2.5604
  796MOL0     H 9806  -1.277  -0.201   6.377 -1.1001  1.7281 -0.2186
  796MOL0     H 9807  -1.349  -0.321   6.194  0.2902  0.8364 -0.2245
  796MOL0     H 9808  -1.518  -0.349   6.179 -0.1737 -0.9013 -0.1159
  796MOL0     H 9809  -1.416  -0.480   6.252  0.6227  0.4102  0.8449
  796MOL0     H 9810  -1.988  -0.357   6.249 -3.0567 -1.4627 -2.0851
  796MOL0     H 9811  -2.150  -0.526   6.171 -1.2103  1.9400  1.4496
  796MOL0     H 9812  -2.380  -0.650   6.257 -1.1531 -0.3590 -1.0061
  796MOL0     H 9813  -2.296  -0.684   6.104  0.5246  2.5208  0.1147
  796MOL0     H 9814  -2.354  -0.946   6.201  0.9056  1.3247 -0.4388
  796MOL0     H 9815  -2.476  -0.852   6.283  0.6565  0.9056  0.7961
  796MOL0     H 9816  -2.448  -0.873   5.976 -2.6471 -2.9440 -1.0364
  796MOL0     H 9817  -2.535  -0.750   6.057 -0.4940  0.0066  2.4591
  796MOL0     H 9818  -2.683  -0.950   6.004 -0.1908  1.8526 -1.1629
  796MOL0     H 9819  -2.690  -0.914   6.168 -0.3313  0.8068 -0.2589
  796MOL0     H 9820  -2.523  -1.097   6.218 -0.0074 -0.4636 -0.7920
  796MOL0     H 9821  -2.675  -1.138   6.144 -1.5584  4.1602 -1.1315
  796MOL0     H 9822  -2.415  -1.095   5.970  0.3482 -0.0936  1.0382
  796MOL0     H 9823  -2.569  -1.160   5.919  0.6606  1.1258 -1.2168
  796MOL0     H 9824  -2.558  -1.342   6.073  0.4150 -0.5163  2.2155
  796MOL0     H 9825  -2.410  -1.287   6.139 -1.0155  0.7421  0.9724
  796MOL0     H 9826  -2.441  -1.374   5.849 -1.5042 -1.6411  0.7875
  796MOL0     H 9827  -2.369  -1.461   5.984 -0.4502 -0.4137 -2.7204
  796MOL0     H 9828  -2.075  -0.770   6.514 -0.8851  1.2492  1.2153
  796MOL0     H 9829  -1.888  -0.607   6.585 -0.6543 -2.5622  0.3822
  796MOL0     H 9830  -1.720  -0.227   6.592 -0.1541  2.1308 -0.0044
  796MOL0     H 9831  -1.548  -0.064   6.664  2.9234  1.4994  0.2152
  796MOL0     H 9832  -0.378   0.851   7.652 -0.4962  0.6023  2.1283
  796MOL0     H 9833  -0.262   1.021   7.800 -0.8366 -1.3187  0.1308
  796MOL0     H 9834   0.342   0.955   7.966 -2.3633 -1.0429  0.2457
  796MOL0     H 9835   0.475   1.029   8.155 -0.2129  1.8206  1.7398
  796MOL0     H 9836   0.582   1.181   8.285 -1.0733  1.1955 -0.4716
  796MOL0     H 9837   0.559   1.278   8.430  1.5006  0.4915 -2.3332
  796MOL0     H 9838   0.670   1.087   8.499 -1.9060 -1.8866  4.5313
  796MOL0     H 9839   0.553   0.979   8.404 -2.1380 -0.7611  1.3174
  796MOL0     H 9840   0.515   1.145   8.650 -1.8797 -0.5777  1.9257
  796MOL0     H 9841   0.384   1.055   8.559 -1.7539 -1.3204  3.5760
  796MOL0     H 9842   0.516   0.840   8.615 -2.0667 -0.0271  0.5808
  796MOL0     H 9843   0.463   0.919   8.763  1.5916  3.5055  1.2505
  796MOL0     H 9844   0.841   0.944   8.873 -0.6881 -1.9583  0.5084
  796MOL0     H 9845   0.157   1.274   8.287 -3.7339 -1.1146 -0.5425
  796MOL0     H 9846  -0.089   1.189   8.094 -0.0695 -0.9899 -4.3959
  796MOL0     H 9847  -0.011   1.336   8.150  1.1148  1.0004 -1.1978
  796MOL0     H 9848   0.015   1.293   7.981 -1.1606  0.4160 -0.3420
  797MOL0     O 9849  10.494   8.087   1.066  0.4585 -0.3204  1.4959
  797MOL0     C 9850  10.390   8.018   1.054  0.4539 -0.3859  0.4725
  797MOL0     O 9851  10.302   8.018   0.950  0.2745 -0.2825  0.2077
  797MOL0     C 9852  10.318   8.109   0.853  0.0456  0.4730 -0.7096
  797MOL0     C 9853  10.391   8.072   0.739 -1.3979 -0.4062  0.2441
  797MOL0     C 9854  10.403   8.166   0.635  0.3544  0.6845  0.3491
  797MOL0     C 9855  10.339   8.286   0.644  0.8089 -0.4694 -0.2649
  797MOL0     O 9856  10.358   8.375   0.539 -0.1111 -0.0159  0.5278
  797MOL0     C 9857  10.415   8.505   0.580 -0.1045 -0.4114 -0.3160
  797MOL0     C 9858  10.500   8.573   0.480  1.0851 -0.7332 -0.0315
  797MOL0     C 9859  10.578   8.698   0.528  0.8313  0.2507  0.1284
  797MOL0     C 9860  10.686   8.651   0.632 -0.0213 -0.6425  0.6167
  797MOL0     C 9861  10.802   8.751   0.627  0.0039 -0.8365  0.8157
  797MOL0     C 9862  10.919   8.704   0.712 -0.4505 -0.6136 -0.8117
  797MOL0     C 9863  11.050   8.789   0.692 -0.1058  1.1113 -0.7519
  797MOL0     C 9864  11.164   8.747   0.790  0.0143 -0.6374 -0.2648
  797MOL0     N 9865  11.280   8.844   0.815  0.2557 -0.4732 -0.0560
  797MOL0     C 9866  11.396   8.845   0.737 -0.1705 -0.8518  1.0936
  797MOL0     C 9867  11.495   8.904   0.805 -0.0713  0.7288 -0.1258
  797MOL0     C 9868  11.642   8.930   0.783  0.3170 -0.0644 -0.4543
  797MOL0     C 9869  11.687   8.900   0.640 -0.3596  1.2927 -1.3401
  797MOL0     C 9870  11.818   8.974   0.603 -0.0248 -0.3555 -0.7400
  797MOL0     C 9871  11.944   8.926   0.682  0.1853 -0.8563  0.0126
  797MOL0     O 9872  12.055   9.021   0.665  0.0377  0.3075 -0.0302
  797MOL0     C 9873  12.167   9.008   0.732 -0.8577  0.4392 -0.2706
  797MOL0     C 9874  12.262   9.095   0.689  0.6957 -0.3376  0.2934
  797MOL0     C 9875  12.387   9.091   0.748 -0.5611  0.1722  0.5027
  797MOL0     C 9876  12.484   9.193   0.698 -0.1034 -0.3108 -0.6065
  797MOL0     C 9877  12.422   8.998   0.849 -0.0232 -0.7197  0.1349
  797MOL0     C 9878  12.550   9.003   0.916 -0.1789  0.1802 -0.2280
  797MOL0     O 9879  12.619   9.122   0.939  0.5086  0.2951  0.0662
  797MOL0     C 9880  12.749   9.119   0.994  0.6125 -0.3140  0.6754
  797MOL0     C 9881  12.858   9.141   0.913 -0.0786 -0.2604 -0.4827
  797MOL0     C 9882  12.982   9.133   0.965 -1.0734  0.8725  0.2238
  797MOL0     C 9883  13.002   9.095   1.100 -0.8282 -0.1861 -0.5975
  797MOL0     O 9884  13.124   9.066   1.164 -0.0813  0.4721  0.7194
  797MOL0     C 9885  13.255   9.063   1.094 -0.5556  0.8102 -0.1806
  797MOL0     C 9886  13.329   9.200   1.068  0.1508  0.7049  0.6547
  797MOL0     C 9887  13.357   9.278   1.191 -1.9908  0.4044 -0.1596
  797MOL0     C 9888  13.244   9.371   1.226  0.1299  0.1050  0.0661
  797MOL0     C 9889  13.264   9.443   1.362 -0.3692  0.0945 -0.0251
  797MOL0     C 9890  13.145   9.442   1.456  0.3094  0.0022  0.4455
  797MOL0     C 9891  13.049   9.569   1.448 -1.1601  0.1289  0.4891
  797MOL0     C 9892  13.000   9.594   1.304 -0.7498  0.0744 -0.3724
  797MOL0    Cl 9893  12.911   9.761   1.291  0.0944 -0.4681  0.1423
  797MOL0     C 9894  12.893   9.078   1.190 -1.1589 -0.3676  0.5703
  797MOL0     C 9895  12.766   9.089   1.136 -0.2164 -0.8086  0.2974
  797MOL0     O 9896  12.598   8.888   0.945  0.1374 -0.6113 -0.1342
  797MOL0     C 9897  12.319   8.917   0.893 -0.7721 -0.2889 -0.2500
  797MOL0     C 9898  12.191   8.920   0.837 -0.1701 -0.3124  0.1013
  797MOL0     N 9899  11.429   8.959   0.920 -0.4649 -0.3425  0.0369
  797MOL0     N 9900  11.306   8.919   0.927  0.4811 -0.4165  0.6035
  797MOL0     C 9901  10.267   8.323   0.752 -1.1791 -0.7851 -0.4169
  797MOL0     C 9902  10.250   8.232   0.857  0.0551 -0.2538  0.0303
  797MOL0     C 9903  10.370   7.906   1.154 -0.1215 -1.4578 -0.5157
  797MOL0     C 9904  10.253   7.834   1.150 -0.8870 -0.2256  0.5282
  797MOL0     C 9905  10.226   7.745   1.252  0.7930 -0.8158 -0.1404
  797MOL0     C 9906  10.311   7.712   1.354  0.3452 -0.1439 -0.6116
  797MOL0     O 9907  10.256   7.627   1.440  0.1157  0.1976  0.0180
  797MOL0     C 9908  10.352   7.559   1.525  0.0940  0.1051  0.4917
  797MOL0     C 9909  10.269   7.468   1.615 -0.1598 -0.1125  0.5073
  797MOL0     C 9910  10.168   7.524   1.716  0.0797  0.6855  0.2454
  797MOL0     C 9911  10.228   7.636   1.792 -1.0170 -0.4084 -0.0243
  797MOL0     C 9912  10.337   7.598   1.880 -0.3256 -0.0243 -0.1110
  797MOL0     C 9913  10.404   7.554   1.967  0.8921  0.1231 -0.2749
  797MOL0     C 9914  10.422   7.789   1.369 -0.0072  0.3507  0.0982
  797MOL0     C 9915  10.453   7.887   1.271 -0.2347  0.5723 -0.2632
  797MOL0     C 9916  10.579   7.962   1.297 -0.4307 -0.2000  0.0693
  797MOL0     H 9917  10.434   7.972   0.733 -2.7739 -1.2173  2.5119
  797MOL0     H 9918  10.470   8.135   0.555  0.8981  1.7535  0.3759
  797MOL0     H 9919  10.471   8.487   0.673 -1.8998  1.0569  1.1305
  797MOL0     H 9920  10.335   8.577   0.597  1.1708  2.1952 -4.0081
  797MOL0     H 9921  10.565   8.498   0.433 -0.5594 -2.3782  0.2384
  797MOL0     H 9922  10.433   8.612   0.403  2.2060  3.4278  0.8089
  797MOL0     H 9923  10.613   8.750   0.439  0.4749 -0.4671 -0.4454
  797MOL0     H 9924  10.509   8.772   0.570 -0.6573 -0.2700 -1.2906
  797MOL0     H 9925  10.649   8.640   0.734 -1.9177 -1.3973 -0.0990
  797MOL0     H 9926  10.724   8.558   0.589  3.2480  0.0019  1.8555
  797MOL0     H 9927  10.766   8.848   0.663  1.9561 -0.1005  0.8829
  797MOL0     H 9928  10.840   8.766   0.525 -0.9461  1.0707  0.7012
  797MOL0     H 9929  10.890   8.711   0.818  1.9525  0.4093 -0.1539
  797MOL0     H 9930  10.937   8.598   0.691  2.4900 -0.6355  1.1859
  797MOL0     H 9931  11.025   8.893   0.714  1.4000  1.3791 -0.2015
  797MOL0     H 9932  11.087   8.781   0.589 -0.0012 -2.3078 -0.5696
  797MOL0     H 9933  11.115   8.724   0.885  0.9610 -1.4742  0.0372
  797MOL0     H 9934  11.198   8.648   0.760  0.5397 -1.0968  1.7014
  797MOL0     H 9935  11.406   8.791   0.644 -1.6963 -1.5820  1.3263
  797MOL0     H 9936  11.703   8.887   0.863  1.5078  3.6532  0.8390
  797MOL0     H 9937  11.651   9.037   0.800  0.3422 -0.1455  0.0583
  797MOL0     H 9938  11.704   8.792   0.629  2.2216  1.5454 -0.6033
  797MOL0     H 9939  11.611   8.928   0.567 -0.6554 -2.3337 -2.6620
  797MOL0     H 9940  11.840   8.950   0.499 -1.5336 -3.0292 -0.5266
  797MOL0     H 9941  11.805   9.082   0.616  0.3389 -0.0172 -2.8987
  797MOL0     H 9942  11.929   8.911   0.790  2.1823 -0.7798  0.3469
  797MOL0     H 9943  11.967   8.825   0.645 -2.8996 -0.9501 -1.9573
  797MOL0     H 9944  12.230   9.163   0.611 -0.6426 -3.0811 -1.7194
  797MOL0     H 9945  12.577   9.143   0.667  0.4955  0.7384 -0.5701
  797MOL0     H 9946  12.499   9.280   0.763 -1.6848  0.6015 -1.3869
  797MOL0     H 9947  12.442   9.226   0.603 -1.6359 -0.9410 -0.1638
  797MOL0     H 9948  12.858   9.163   0.807  2.1563  1.1853 -0.2562
  797MOL0     H 9949  13.073   9.140   0.907 -1.0595  0.2374  0.1666
  797MOL0     H 9950  13.313   9.012   1.172 -0.1485  0.1623 -0.8962
  797MOL0     H 9951  13.253   9.012   0.998 -3.8665  0.7056 -0.1886
  797MOL0     H 9952  13.427   9.183   1.022  2.0248  1.8492  3.8725
  797MOL0     H 9953  13.274   9.257   0.993  2.7513  0.6342 -1.4808
  797MOL0     H 9954  13.446   9.340   1.180 -1.8578  0.8531  2.6310
  797MOL0     H 9955  13.377   9.218   1.281  0.8293  1.6193  0.1263
  797MOL0     H 9956  13.157   9.305   1.226 -0.7194  1.0875 -2.7387
  797MOL0     H 9957  13.228   9.452   1.154  0.5535 -1.2045 -1.5485
  797MOL0     H 9958  13.345   9.397   1.419  0.8861  1.7335 -0.4048
  797MOL0     H 9959  13.288   9.548   1.341  1.2320 -0.4559 -1.1792
  797MOL0     H 9960  13.183   9.444   1.559 -0.1209  1.1361  0.5988
  797MOL0     H 9961  13.076   9.357   1.449 -1.1793  1.2606 -1.4990
  797MOL0     H 9962  13.097   9.662   1.480  1.1384 -1.2632  1.3485
  797MOL0     H 9963  12.965   9.549   1.515  0.3785 -0.5046  2.3549
  797MOL0     H 9964  12.935   9.507   1.286  0.3897 -1.1247  1.0450
  797MOL0     H 9965  13.080   9.586   1.230  1.4266  2.2358  1.6007
  797MOL0     H 9966  12.913   9.062   1.296  0.7695  2.0149  0.6668
  797MOL0     H 9967  12.684   9.074   1.206  1.1706 -1.3171  1.8793
  797MOL0     H 9968  12.349   8.846   0.970  0.0115 -1.1242 -1.2985
  797MOL0     H 9969  12.112   8.853   0.871 -0.7960  0.7267  0.7503
  797MOL0     H 9970  10.232   8.424   0.773 -1.1040 -1.5964  5.0507
  797MOL0     H 9971  10.219   8.264   0.956 -0.7121  0.0355 -0.2955
  797MOL0     H 9972  10.190   7.832   1.061  3.3248  1.7442 -2.8547
  797MOL0     H 9973  10.127   7.702   1.252 -1.2233  3.2939  0.7465
  797MOL0     H 9974  10.421   7.502   1.463  0.1950  0.2785  0.4431
  797MOL0     H 9975  10.409   7.633   1.582 -3.7775  3.1372  0.8852
  797MOL0     H 9976  10.344   7.402   1.660 -0.1045 -3.8993 -4.2910
  797MOL0     H 9977  10.210   7.395   1.558 -1.4046  1.1659  0.1001
  797MOL0     H 9978  10.091   7.564   1.650  3.1366  0.6885 -3.6656
  797MOL0     H 9979  10.125   7.442   1.775 -1.9674  0.7759 -1.0639
  797MOL0     H 9980  10.146   7.674   1.854 -0.9988  0.3144 -0.4272
  797MOL0     H 9981  10.264   7.724   1.737  2.6231 -0.6938  1.6618
  797MOL0     H 9982  10.474   7.496   2.023 -0.4285  1.9980  3.7320
  797MOL0     H 9983  10.489   7.775   1.452  1.0288 -2.5130 -1.0821
  797MOL0     H 9984  10.653   7.946   1.218  0.0571  0.7680  0.3226
  797MOL0     H 9985  10.559   8.068   1.311 -1.1775 -0.2872 -0.2797
  797MOL0     H 9986  10.632   7.931   1.388  0.7863  0.7895 -0.2768
  798MOL0     O 9987  10.836   4.264   3.681  0.0269  0.4827 -0.6768
  798MOL0     C 9988  10.771   4.268   3.790 -0.6901 -0.0229 -0.3826
  798MOL0     O 9989  10.833   4.252   3.909  0.1680 -0.5792  0.0198
  798MOL0     C 9990  10.968   4.260   3.912 -1.3871 -0.0494  0.6583
  798MOL0     C 9991  11.031   4.381   3.900 -0.0307  0.2728 -0.1575
  798MOL0     C 9992  11.171   4.391   3.910 -0.7673  0.5251 -0.1623
  798MOL0     C 9993  11.255   4.283   3.962  0.3655  1.3625  0.9782
  798MOL0     O 9994  11.384   4.286   3.989 -0.3185 -0.8504 -0.4578
  798MOL0     C 9995  11.458   4.396   3.930  0.7644 -0.5929  0.3498
  798MOL0     C 9996  11.612   4.368   3.951 -0.7701  0.0785  0.2312
  798MOL0     C 9997  11.700   4.480   3.898  0.5845  0.8131  0.0518
  798MOL0     C 9998  11.758   4.463   3.750  0.5627  0.1983  0.3076
  798MOL0     C 9999  11.907   4.440   3.726 -0.4563 -0.7064  0.4811
  798MOL0     C10000  11.960   4.313   3.778 -0.5727 -0.5368  0.3575
  798MOL0     C10001  12.104   4.285   3.724  0.4897 -0.9647 -0.0352
  798MOL0     C10002  12.165   4.162   3.795  0.3593  1.1666  0.5898
  798MOL0     N10003  12.296   4.118   3.744 -0.3349 -0.3068 -0.0022
  798MOL0     C10004  12.395   4.205   3.711  0.2778 -0.0499 -0.4173
  798MOL0     C10005  12.478   4.129   3.646  0.0571  0.3287  0.3304
  798MOL0     C10006  12.608   4.182   3.586  0.4386 -0.6830 -0.4410
  798MOL0     C10007  12.590   4.307   3.490  0.3480 -0.5509 -0.0804
  798MOL0     C10008  12.727   4.363   3.444 -0.7872 -0.0856  0.2092
  798MOL0     C10009  12.707   4.492   3.362  0.6579 -1.4964 -0.2018
  798MOL0     O10010  12.656   4.595   3.451  0.7205 -0.1793  0.1057
  798MOL0     C10011  12.740   4.694   3.480  0.7770 -0.0978 -0.0417
  798MOL0     C10012  12.707   4.830   3.460  0.4241 -0.2343  1.1601
  798MOL0     C10013  12.798   4.940   3.490  0.0168 -0.4074 -0.7727
  798MOL0     C10014  12.731   5.075   3.450  0.7098  0.1813 -0.4040
  798MOL0     C10015  12.929   4.918   3.537 -0.0559  0.4063 -0.0182
  798MOL0     C10016  13.030   5.021   3.548  0.7378 -0.0345 -0.3840
  798MOL0     O10017  13.156   4.973   3.552  0.7875 -0.3808 -0.2010
  798MOL0     C10018  13.263   5.054   3.568  0.9716  0.1093 -0.9253
  798MOL0     C10019  13.386   4.994   3.532 -0.2631 -0.6854  0.0061
  798MOL0     C10020  13.511   5.062   3.524  0.1894  0.2634 -1.2181
  798MOL0     C10021  13.505   5.198   3.564  0.4479  0.7920  0.4559
  798MOL0     O10022  13.609   5.285   3.558 -0.5135 -0.6514  0.6416
  798MOL0     C10023  13.742   5.226   3.535 -0.2796 -0.3320  0.0295
  798MOL0     C10024  13.832   5.340   3.557  0.1620 -0.2748  0.0648
  798MOL0     C10025  13.979   5.304   3.520  0.5777  0.1165  0.1059
  798MOL0     C10026  14.011   5.241   3.381  0.9649 -0.9172  0.3507
  798MOL0     C10027  14.156   5.253   3.337 -0.9971 -0.2265 -0.3399
  798MOL0     C10028  14.195   5.398   3.298  0.1982  0.7607  0.5403
  798MOL0     C10029  14.330   5.396   3.226 -0.6876  1.7766 -0.9329
  798MOL0     C10030  14.379   5.534   3.188 -0.4280  0.7813  0.0005
  798MOL0    Cl10031  14.418   5.528   3.009  0.4006 -0.0082 -0.0673
  798MOL0     C10032  13.394   5.255   3.618  0.0011 -0.3273 -0.0871
  798MOL0     C10033  13.279   5.175   3.629 -0.1782 -0.0241  0.0115
  798MOL0     O10034  12.989   5.133   3.588 -0.6460  0.4246  0.8070
  798MOL0     C10035  12.963   4.778   3.556 -0.5262 -0.1456  0.2549
  798MOL0     C10036  12.870   4.675   3.527 -0.5640 -0.2470 -0.0932
  798MOL0     N10037  12.443   3.993   3.646  0.5303  0.1131  0.0527
  798MOL0     N10038  12.324   3.992   3.701 -0.1240 -0.2476  1.0942
  798MOL0     C10039  11.183   4.163   3.974  0.3055  0.4320  0.7763
  798MOL0     C10040  11.045   4.149   3.940 -0.6318  0.3760  0.6833
  798MOL0     C10041  10.631   4.298   3.795 -0.9942  0.7887 -1.1858
  798MOL0     C10042  10.558   4.272   3.914 -0.5147  0.2803 -0.0927
  798MOL0     C10043  10.426   4.296   3.909  0.5712 -0.1956  0.1328
  798MOL0     C10044  10.357   4.348   3.798  0.3200  0.2759 -0.0566
  798MOL0     O10045  10.226   4.375   3.787  0.6397 -0.0643  0.3115
  798MOL0     C10046  10.148   4.385   3.911  0.5412  0.0027  1.0280
  798MOL0     C10047  10.098   4.240   3.933  0.1065 -0.6404 -0.1905
  798MOL0     C10048  10.020   4.209   4.067 -0.2666 -0.4690 -0.6420
  798MOL0     C10049   9.965   4.075   4.076  0.1844  0.0578 -0.5879
  798MOL0     C10050   9.914   4.048   4.207  0.0980  0.5294  0.3798
  798MOL0     C10051   9.854   4.015   4.305 -0.1360  0.2915  0.2108
  798MOL0     C10052  10.426   4.372   3.687 -1.3113  0.0003  0.5580
  798MOL0     C10053  10.565   4.348   3.678  0.5045 -0.5494  0.2063
  798MOL0     C10054  10.631   4.389   3.545 -0.8734  0.3870 -0.1747
  798MOL0     H10055  10.971   4.470   3.884 -0.1227  0.7243  2.3073
  798MOL0     H10056  11.205   4.493   3.895 -0.3243  0.9097  2.8080
  798MOL0     H10057  11.425   4.490   3.975 -2.5917 -2.5636  2.3898
  798MOL0     H10058  11.436   4.409   3.823 -0.2409 -0.6696  0.5409
  798MOL0     H10059  11.622   4.360   4.059 -1.5122  4.4696  0.8148
  798MOL0     H10060  11.638   4.272   3.905 -1.1287 -0.2404  0.6836
  798MOL0     H10061  11.635   4.568   3.893 -0.3664  0.0939 -0.6688
  798MOL0     H10062  11.775   4.499   3.975 -1.9259  0.6952  2.7435
  798MOL0     H10063  11.696   4.382   3.712  1.4503 -0.0771 -0.5954
  798MOL0     H10064  11.741   4.555   3.693 -2.1965  0.5098  1.4706
  798MOL0     H10065  11.959   4.529   3.761 -1.9508  0.9930 -1.3195
  798MOL0     H10066  11.921   4.435   3.617  0.6044  0.2855  0.5643
  798MOL0     H10067  11.957   4.319   3.887  0.3077 -0.7594  0.3999
  798MOL0     H10068  11.888   4.244   3.734  2.1801 -1.1283 -3.7470
  798MOL0     H10069  12.169   4.370   3.746  0.6802 -0.4462 -2.3175
  798MOL0     H10070  12.100   4.270   3.615  0.3045 -1.6648  0.0628
  798MOL0     H10071  12.174   4.173   3.903  0.5371 -1.3330  0.8747
  798MOL0     H10072  12.115   4.070   3.765  0.3891  2.0047 -2.3484
  798MOL0     H10073  12.405   4.308   3.744  1.6035 -0.0855 -0.6358
  798MOL0     H10074  12.661   4.105   3.529 -1.0837 -0.0710 -2.8644
  798MOL0     H10075  12.669   4.214   3.671  1.4788  1.6245 -1.9335
  798MOL0     H10076  12.525   4.297   3.403  0.0311 -0.4989  0.1489
  798MOL0     H10077  12.552   4.382   3.560  0.0147  1.3977 -2.2299
  798MOL0     H10078  12.800   4.371   3.525 -0.1801  1.5433 -0.4621
  798MOL0     H10079  12.764   4.285   3.376  1.9268  1.3953 -0.1534
  798MOL0     H10080  12.797   4.525   3.310 -1.0247  1.8875 -1.2368
  798MOL0     H10081  12.640   4.461   3.281  1.3795  1.8356 -2.2464
  798MOL0     H10082  12.606   4.848   3.425  0.2746  0.0273  1.7234
  798MOL0     H10083  12.798   5.160   3.435 -0.4827  1.1189 -0.4997
  798MOL0     H10084  12.655   5.105   3.522 -0.0629  1.3605 -1.6709
  798MOL0     H10085  12.671   5.063   3.360 -2.5802  1.5025  1.4260
  798MOL0     H10086  13.384   4.890   3.503  2.5916 -0.1979 -2.3993
  798MOL0     H10087  13.595   4.997   3.501  0.1730 -0.1268 -0.2295
  798MOL0     H10088  13.766   5.152   3.612  0.8749  0.6177  0.6133
  798MOL0     H10089  13.758   5.186   3.435 -1.1171 -0.7869  0.0676
  798MOL0     H10090  13.808   5.414   3.481 -0.5521  0.4445  0.9609
  798MOL0     H10091  13.823   5.393   3.652 -1.1240 -1.1073  0.4351
  798MOL0     H10092  14.019   5.234   3.594 -0.1746 -3.0366 -2.2441
  798MOL0     H10093  14.026   5.401   3.534 -2.2478  1.3255  2.2309
  798MOL0     H10094  13.950   5.281   3.299  1.1389  0.4779  0.8737
  798MOL0     H10095  13.985   5.135   3.385 -1.8086 -0.3095  0.2607
  798MOL0     H10096  14.222   5.220   3.418 -0.4461  1.7261  0.0571
  798MOL0     H10097  14.169   5.192   3.247 -1.0929  0.5991 -0.9253
  798MOL0     H10098  14.212   5.463   3.384 -0.0636  0.7017  0.6368
  798MOL0     H10099  14.113   5.438   3.237 -1.6300 -2.8196  0.4169
  798MOL0     H10100  14.320   5.325   3.144 -4.5441  0.4695  0.4337
  798MOL0     H10101  14.398   5.349   3.299 -1.1738  1.0017 -0.9751
  798MOL0     H10102  14.472   5.552   3.242  0.2875  3.0511 -1.7936
  798MOL0     H10103  14.312   5.613   3.225 -2.2714 -0.0846 -1.3029
  798MOL0     H10104  13.385   5.360   3.643  2.0857  0.1959 -1.3107
  798MOL0     H10105  13.192   5.209   3.684 -0.9855 -0.1091 -1.1879
  798MOL0     H10106  13.066   4.759   3.583 -0.9144 -1.7571  0.6767
  798MOL0     H10107  12.914   4.580   3.554 -1.1137 -0.0230  1.7881
  798MOL0     H10108  11.243   4.081   4.010  0.5869  0.3532  0.1324
  798MOL0     H10109  11.002   4.050   3.952 -0.1756  0.3248  2.0663
  798MOL0     H10110  10.602   4.226   4.001 -2.3330  0.5335  1.0263
  798MOL0     H10111  10.383   4.253   3.998  2.8817 -1.2296  0.8216
  798MOL0     H10112  10.199   4.426   3.999 -3.8685  2.2888  2.8586
  798MOL0     H10113  10.059   4.448   3.908 -0.3090 -1.1970 -0.5956
  798MOL0     H10114  10.180   4.168   3.927 -0.3811 -1.2137 -0.0759
  798MOL0     H10115  10.040   4.213   3.844 -0.0193 -1.4101  0.1206
  798MOL0     H10116  10.091   4.230   4.148 -1.2857  0.0062  0.1481
  798MOL0     H10117   9.943   4.286   4.076  1.0434  1.1319 -2.3481
  798MOL0     H10118  10.033   3.995   4.043 -1.8387 -1.9711 -0.1306
  798MOL0     H10119   9.876   4.082   4.012  0.6444  0.0991 -1.2299
  798MOL0     H10120   9.808   4.003   4.401  0.3994 -0.4998  0.3800
  798MOL0     H10121  10.382   4.401   3.592  2.2810  0.3851 -1.1770
  798MOL0     H10122  10.672   4.294   3.511 -0.4441 -0.4437  2.4476
  798MOL0     H10123  10.569   4.433   3.466  0.9807 -0.6749 -2.3282
  798MOL0     H10124  10.723   4.447   3.560 -0.2626  0.2275 -2.8262
  799MOL0     O10125   3.385  11.309   6.305  0.3546  0.2443  0.0496
  799MOL0     C10126   3.327  11.367   6.211  0.8646  0.2730 -0.1983
  799MOL0     O10127   3.379  11.466   6.136 -0.1209 -0.7848  0.4275
  799MOL0     C10128   3.510  11.498   6.161  0.3503  0.3257  0.3975
  799MOL0     C10129   3.616  11.422   6.101  0.1098  0.0168  0.3389
  799MOL0     C10130   3.754  11.436   6.136 -0.0189  0.4462 -0.1389
  799MOL0     C10131   3.776  11.548   6.218 -0.7983  0.9053  0.2039
  799MOL0     O10132   3.908  11.550   6.234  0.0953 -0.2977 -0.0983
  799MOL0     C10133   3.968  11.641   6.329  0.2027 -0.1858 -0.4088
  799MOL0     C10134   3.987  11.770   6.249  0.1391  0.5559 -0.1842
  799MOL0     C10135   4.078  11.866   6.327 -1.6857 -0.0489  0.0425
  799MOL0     C10136   4.049  12.021   6.306  0.8133 -0.1096  0.7950
  799MOL0     C10137   4.158  12.094   6.379  1.1179  0.3096 -0.3162
  799MOL0     C10138   4.297  12.084   6.328 -0.0899  0.6402  0.5789
  799MOL0     C10139   4.314  12.133   6.183  0.4889 -0.0063  0.4733
  799MOL0     C10140   4.420  12.243   6.172 -0.0734  0.0712 -0.2542
  799MOL0     N10141   4.461  12.278   6.028 -0.3425  0.9006  0.4232
  799MOL0     C10142   4.525  12.185   5.951  0.9043 -0.4580  0.7916
  799MOL0     C10143   4.530  12.232   5.823 -0.2239 -0.1938  0.4719
  799MOL0     C10144   4.589  12.153   5.714  0.0182  0.4508 -0.4346
  799MOL0     C10145   4.609  12.205   5.573 -0.7644  0.3647  0.6876
  799MOL0     C10146   4.658  12.103   5.477 -0.2333 -0.3630  0.6048
  799MOL0     C10147   4.811  12.083   5.468 -0.1188 -0.4661  0.1780
  799MOL0     O10148   4.829  12.020   5.342 -0.3108  0.0175  0.0428
  799MOL0     C10149   4.961  11.989   5.310 -0.4482 -0.4328  0.1451
  799MOL0     C10150   5.066  12.077   5.329 -0.6023  0.5157  0.3124
  799MOL0     C10151   5.192  12.058   5.270 -0.6622  0.2836 -0.4479
  799MOL0     C10152   5.294  12.174   5.283  0.4068  0.6548 -0.1745
  799MOL0     C10153   5.224  11.933   5.209 -0.2732  0.0064  0.2694
  799MOL0     C10154   5.361  11.897   5.151 -0.5181 -0.3541 -0.0230
  799MOL0     O10155   5.372  11.766   5.096 -0.3586  0.0879  0.1347
  799MOL0     C10156   5.479  11.710   5.028  0.4753  0.3996  0.2454
  799MOL0     C10157   5.512  11.582   5.041 -0.0892  0.8231 -0.0606
  799MOL0     C10158   5.618  11.524   4.964 -0.1442 -0.0717 -0.8146
  799MOL0     C10159   5.701  11.602   4.885  0.9820  0.1503 -1.1103
  799MOL0     O10160   5.798  11.527   4.820 -0.1852 -0.1323 -0.3133
  799MOL0     C10161   5.895  11.598   4.749  0.2787  0.1046 -0.0741
  799MOL0     C10162   6.015  11.644   4.839  0.6028  0.7031  0.2343
  799MOL0     C10163   6.152  11.655   4.753  0.5256 -0.2038 -0.1881
  799MOL0     C10164   6.275  11.683   4.836  0.2373 -0.8135  0.1411
  799MOL0     C10165   6.407  11.615   4.776 -0.3335 -0.2842  0.5615
  799MOL0     C10166   6.448  11.702   4.650 -0.1626 -0.0933 -0.8560
  799MOL0     C10167   6.590  11.664   4.614 -0.8562  0.3814 -0.0975
  799MOL0     C10168   6.642  11.762   4.503  0.5221  0.0731  0.1225
  799MOL0    Cl10169   6.811  11.733   4.461  0.5897 -0.2253  0.1045
  799MOL0     C10170   5.671  11.742   4.877  0.4615  0.6462 -0.9950
  799MOL0     C10171   5.557  11.792   4.938  0.3108 -0.0905  0.3141
  799MOL0     O10172   5.451  11.981   5.151 -0.3581  0.4124  0.2527
  799MOL0     C10173   5.123  11.847   5.198 -0.1528  0.8851  0.3213
  799MOL0     C10174   4.994  11.870   5.236  0.7684  0.2030 -0.1155
  799MOL0     N10175   4.456  12.354   5.826  0.6607  0.0756 -0.3531
  799MOL0     N10176   4.412  12.373   5.948 -0.1359 -0.7115 -0.0171
  799MOL0     C10177   3.680  11.633   6.279 -0.0170  0.9317  0.2533
  799MOL0     C10178   3.540  11.598   6.256  0.5414 -0.4805  0.1199
  799MOL0     C10179   3.185  11.333   6.185  0.0465  0.7488 -0.0207
  799MOL0     C10180   3.097  11.439   6.155 -0.3031 -0.1868  0.2582
  799MOL0     C10181   2.954  11.426   6.160  0.0550  0.1420  0.7452
  799MOL0     C10182   2.897  11.306   6.184 -0.7674 -0.3179  0.2109
  799MOL0     O10183   2.766  11.273   6.184  0.2778 -0.3766  0.7634
  799MOL0     C10184   2.670  11.349   6.122  1.5228 -0.9342  0.0352
  799MOL0     C10185   2.528  11.283   6.105  0.3457  0.4213 -0.2499
  799MOL0     C10186   2.439  11.338   5.990 -1.0582  0.7538 -0.5464
  799MOL0     C10187   2.370  11.465   6.030  0.8838 -0.1814  0.1984
  799MOL0     C10188   2.288  11.513   5.922 -0.2200 -1.1218 -0.4497
  799MOL0     C10189   2.214  11.550   5.834 -0.2504 -0.6695 -0.0973
  799MOL0     C10190   2.988  11.197   6.200 -0.4795  0.4548  0.4844
  799MOL0     C10191   3.128  11.201   6.198  0.4667 -0.2248 -0.0718
  799MOL0     C10192   3.203  11.082   6.252 -0.1900  0.2319 -0.6639
  799MOL0     H10193   3.592  11.338   6.036  2.3706 -0.7515  0.4317
  799MOL0     H10194   3.831  11.371   6.096 -2.5107 -3.2846  0.5735
  799MOL0     H10195   4.059  11.596   6.369 -0.6243 -1.5091  0.0324
  799MOL0     H10196   3.897  11.657   6.410 -0.5145  0.7047 -1.1785
  799MOL0     H10197   4.041  11.743   6.157  1.0431 -0.0530  0.5058
  799MOL0     H10198   3.893  11.819   6.222  0.0532  1.3681  1.4806
  799MOL0     H10199   4.068  11.850   6.435  0.6920 -1.1411  0.1687
  799MOL0     H10200   4.183  11.850   6.300 -1.9115  0.4413 -1.1864
  799MOL0     H10201   4.036  12.050   6.201 -3.6904 -0.5231  1.0440
  799MOL0     H10202   3.954  12.033   6.359 -0.9913 -3.1078 -1.4247
  799MOL0     H10203   4.159  12.065   6.484  1.2162  1.3462 -0.0145
  799MOL0     H10204   4.114  12.194   6.370 -1.6026 -0.6182  1.4293
  799MOL0     H10205   4.359  12.127   6.407  2.4822 -2.5043  0.4534
  799MOL0     H10206   4.327  11.979   6.334  1.3067  1.1086  2.6128
  799MOL0     H10207   4.222  12.171   6.137  0.6297 -1.2264 -0.9029
  799MOL0     H10208   4.349  12.055   6.114  1.4478 -1.0500  2.0691
  799MOL0     H10209   4.389  12.336   6.222 -0.3940 -0.3744  0.3949
  799MOL0     H10210   4.511  12.206   6.219  0.9530  0.5799 -1.7654
  799MOL0     H10211   4.573  12.095   5.987  1.3687 -0.7007 -0.3723
  799MOL0     H10212   4.518  12.070   5.704 -0.3783  0.4136  2.1043
  799MOL0     H10213   4.685  12.114   5.749  0.4558  0.4303 -1.6020
  799MOL0     H10214   4.512  12.233   5.531 -0.6012 -0.9772 -0.6733
  799MOL0     H10215   4.684  12.284   5.576 -0.1355  0.6715 -6.3195
  799MOL0     H10216   4.605  12.009   5.498 -1.0212  0.1114  0.7652
  799MOL0     H10217   4.624  12.140   5.380  3.2902  0.3224 -0.5162
  799MOL0     H10218   4.852  12.184   5.471 -1.1536 -0.0385 -0.0322
  799MOL0     H10219   4.867  12.031   5.547  0.8888 -0.9245 -0.8020
  799MOL0     H10220   5.042  12.173   5.374 -2.7461 -0.9149  2.4122
  799MOL0     H10221   5.362  12.134   5.359 -1.0166 -0.3805  0.6163
  799MOL0     H10222   5.246  12.260   5.330 -0.2269 -0.3744  1.1261
  799MOL0     H10223   5.347  12.211   5.195  0.1239  1.3537 -0.0604
  799MOL0     H10224   5.454  11.520   5.109  0.3792 -0.5390 -0.8491
  799MOL0     H10225   5.647  11.420   4.956  0.6413 -0.0001  0.7089
  799MOL0     H10226   5.941  11.525   4.682  0.3755 -0.4109  0.5390
  799MOL0     H10227   5.852  11.680   4.690 -1.8755 -1.5607 -0.9725
  799MOL0     H10228   5.994  11.742   4.885  1.2611  1.2499 -0.5911
  799MOL0     H10229   6.023  11.570   4.920  0.7124 -0.4040 -0.7740
  799MOL0     H10230   6.143  11.745   4.691 -1.1890 -2.3920 -3.3807
  799MOL0     H10231   6.166  11.569   4.687  1.4558 -2.1773  2.4102
  799MOL0     H10232   6.252  11.645   4.937 -0.9540 -2.6038 -0.7570
  799MOL0     H10233   6.290  11.791   4.849  1.8481 -1.2060  2.1650
  799MOL0     H10234   6.486  11.608   4.852  0.0936 -0.5059  0.0993
  799MOL0     H10235   6.377  11.513   4.748  2.1245 -0.4730 -1.6995
  799MOL0     H10236   6.450  11.806   4.682 -0.1550 -0.8028  1.6873
  799MOL0     H10237   6.375  11.696   4.569 -0.6631 -1.3845 -0.3472
  799MOL0     H10238   6.594  11.559   4.584  0.7703  0.4819 -0.3761
  799MOL0     H10239   6.665  11.671   4.693 -0.7726  0.5499 -0.1894
  799MOL0     H10240   6.632  11.867   4.533  2.2507 -0.1216  1.5235
  799MOL0     H10241   6.577  11.747   4.416  1.0738 -1.3028 -0.0739
  799MOL0     H10242   5.726  11.804   4.807 -1.4014  0.8666 -2.3505
  799MOL0     H10243   5.532  11.898   4.933  3.2450  0.6930  0.5473
  799MOL0     H10244   5.137  11.745   5.163  2.0399  0.5769  1.8854
  799MOL0     H10245   4.914  11.797   5.226 -0.0191  1.3608 -3.2642
  799MOL0     H10246   3.707  11.713   6.348  1.7274 -0.5089  1.3431
  799MOL0     H10247   3.464  11.666   6.295  0.3295 -0.9642  0.5682
  799MOL0     H10248   3.126  11.544   6.154 -3.3025  0.7499  0.6203
  799MOL0     H10249   2.889  11.511   6.143 -1.1924 -1.0624 -0.9747
  799MOL0     H10250   2.648  11.442   6.175 -3.7774 -1.0514 -1.2989
  799MOL0     H10251   2.706  11.376   6.022  3.0720 -0.6205  0.6549
  799MOL0     H10252   2.471  11.290   6.198  0.9977 -2.0748  0.4201
  799MOL0     H10253   2.553  11.176   6.096  2.7766  1.0865 -2.6574
  799MOL0     H10254   2.499  11.351   5.900  1.5649  1.8156  1.2185
  799MOL0     H10255   2.363  11.262   5.968  0.3558 -1.3616  1.3219
  799MOL0     H10256   2.424  11.554   6.066  1.1399 -0.1692 -0.2118
  799MOL0     H10257   2.299  11.424   6.103  1.0842 -3.9526 -1.4950
  799MOL0     H10258   2.149  11.588   5.757 -0.2073  0.8752  0.5884
  799MOL0     H10259   2.946  11.100   6.225  0.5706 -0.1480 -0.0564
  799MOL0     H10260   3.219  11.099   6.358 -1.2743  3.0335 -0.8669
  799MOL0     H10261   3.140  10.994   6.232 -0.3260  0.4834 -1.3692
  799MOL0     H10262   3.303  11.073   6.209  0.5671 -0.8251  1.2244
  800MOL0     O10263   3.376   7.191   9.675 -0.2083  0.2958 -0.7686
  800MOL0     C10264   3.358   7.246   9.783 -0.1530  0.0161  0.7731
  800MOL0     O10265   3.429   7.225   9.900 -0.6034  0.1887 -0.1264
  800MOL0     C10266   3.501   7.110   9.900 -0.2726 -0.3294 -0.0461
  800MOL0     C10267   3.436   6.989   9.876  0.4207 -0.2742 -0.0334
  800MOL0     C10268   3.511   6.872   9.877  0.5895  0.8716 -0.3093
  800MOL0     C10269   3.639   6.865   9.918  0.1202 -0.3462 -0.1839
  800MOL0     O10270   3.704   6.746   9.932 -0.5664 -0.6037  0.3268
  800MOL0     C10271   3.667   6.670  10.043 -0.4085  0.4873  0.4012
  800MOL0     C10272   3.680   6.743  10.176 -0.7458  0.3767  0.0974
  800MOL0     C10273   3.833   6.773  10.197  0.1672 -0.5965  0.3027
  800MOL0     C10274   3.906   6.656  10.255 -0.6717 -0.2545  0.2675
  800MOL0     C10275   4.051   6.687  10.267 -0.5178 -0.1021  0.1160
  800MOL0     C10276   4.128   6.593  10.358  0.7851 -0.3728  0.1159
  800MOL0     C10277   4.278   6.642  10.341  0.7993  0.8224 -0.1105
  800MOL0     C10278   4.348   6.608  10.211  0.0024 -0.7304  0.4657
  800MOL0     N10279   4.502   6.620  10.220 -0.0550  0.3809 -0.4712
  800MOL0     C10280   4.582   6.550  10.132  0.1849  0.3096 -0.6021
  800MOL0     C10281   4.709   6.568  10.183  0.9832 -0.5526  0.8568
  800MOL0     C10282   4.811   6.481  10.121 -0.1329  0.1546 -0.5475
  800MOL0     C10283   4.815   6.337  10.174  0.4488 -0.2103  0.1220
  800MOL0     C10284   4.869   6.230  10.085  0.5716  0.9068 -0.3238
  800MOL0     C10285   5.024   6.222  10.093  0.0953 -0.1891 -0.5325
  800MOL0     O10286   5.057   6.133  10.203 -0.3688 -0.7577 -0.4054
  800MOL0     C10287   5.178   6.152  10.263 -0.7901 -1.2271  0.6940
  800MOL0     C10288   5.299   6.191  10.205 -0.3878  0.7935  0.5344
  800MOL0     C10289   5.406   6.195  10.291  1.2472  0.0929  0.0661
  800MOL0     C10290   5.528   6.241  10.219 -0.6264  0.1241  0.2184
  800MOL0     C10291   5.397   6.161  10.425  0.4639  0.1693 -0.0734
  800MOL0     C10292   5.516   6.165  10.522  0.7976 -0.1549  0.0393
  800MOL0     O10293   5.599   6.272  10.505 -0.5962  0.0863 -0.2655
  800MOL0     C10294   5.721   6.287  10.577 -0.6423  0.3625 -0.6406
  800MOL0     C10295   5.723   6.305  10.716 -0.1886  0.5143  0.2636
  800MOL0     C10296   5.849   6.321  10.774 -0.0633 -0.3492  0.0234
  800MOL0     C10297   5.967   6.342  10.699  0.0313 -0.1459 -0.2903
  800MOL0     O10298   6.086   6.378  10.748 -0.3226  0.2063 -0.4543
  800MOL0     C10299   6.097   6.406  10.891 -0.4631 -0.9196  0.3581
  800MOL0     C10300   6.042   6.543  10.925  0.2696  0.4793 -0.2667
  800MOL0     C10301   6.105   6.578  11.058 -0.1498  0.0784  0.0951
  800MOL0     C10302   6.025   6.704  11.101  0.8894  0.9005 -0.2478
  800MOL0     C10303   6.076   6.777  11.233 -0.5947 -0.7747 -1.1864
  800MOL0     C10304   6.137   6.678  11.332 -0.1544 -0.5731  0.5712
  800MOL0     C10305   6.205   6.758  11.449 -0.4858 -0.6017  0.4653
  800MOL0     C10306   6.261   6.674  11.556 -0.0168 -0.1486 -0.2589
  800MOL0    Cl10307   6.140   6.614  11.668  0.1298 -0.1570  0.1409
  800MOL0     C10308   5.969   6.331  10.565  1.2075  0.0603 -0.5681
  800MOL0     C10309   5.841   6.297  10.508  0.9737 -0.6645 -1.1381
  800MOL0     O10310   5.508   6.096  10.622  0.0723  0.6861  0.1151
  800MOL0     C10311   5.272   6.122  10.477 -0.0905 -0.3375  0.2750
  800MOL0     C10312   5.162   6.123  10.393 -0.3289 -0.3858  0.3079
  800MOL0     N10313   4.704   6.657  10.289  0.2135  0.8650 -0.2020
  800MOL0     N10314   4.582   6.677  10.310 -0.2092  0.6573  0.5561
  800MOL0     C10315   3.715   6.982   9.939  0.8965 -0.9608  0.4203
  800MOL0     C10316   3.642   7.103   9.941  0.3232  0.3640 -0.1461
  800MOL0     C10317   3.231   7.323   9.789 -0.4501  0.2287  0.2005
  800MOL0     C10318   3.169   7.327   9.914  0.8197 -0.5451 -0.0538
  800MOL0     C10319   3.041   7.388   9.928 -0.2058  0.3572 -0.5949
  800MOL0     C10320   2.984   7.444   9.818  0.3725 -0.0450  0.5700
  800MOL0     O10321   2.860   7.498   9.842 -0.8753 -0.2920  0.0531
  800MOL0     C10322   2.781   7.560   9.741  0.4230  1.1895  0.5408
  800MOL0     C10323   2.653   7.616   9.805  0.7368  0.4133  0.0236
  800MOL0     C10324   2.674   7.697   9.935  0.0146 -0.1464 -0.5046
  800MOL0     C10325   2.660   7.612  10.058 -0.1780  0.0679  0.1721
  800MOL0     C10326   2.529   7.543  10.075  0.2472 -0.4147  0.6695
  800MOL0     C10327   2.409   7.513  10.090 -0.2072  0.0393 -0.0785
  800MOL0     C10328   3.047   7.441   9.695  0.2238 -0.1480 -0.8466
  800MOL0     C10329   3.173   7.388   9.676  0.6099  0.1377 -0.3344
  800MOL0     C10330   3.232   7.392   9.536  0.4529 -1.0454 -0.3557
  800MOL0     H10331   3.331   6.993   9.848  0.6269  1.2554 -0.7185
  800MOL0     H10332   3.445   6.789   9.853  3.6552 -1.9433  0.3177
  800MOL0     H10333   3.713   6.571  10.049 -0.6442  0.4506  3.6185
  800MOL0     H10334   3.560   6.647  10.032 -0.4256 -0.3369  1.9366
  800MOL0     H10335   3.618   6.833  10.173 -0.1136  0.8935  1.6653
  800MOL0     H10336   3.637   6.685  10.259 -1.6222 -0.7685 -1.1062
  800MOL0     H10337   3.879   6.813  10.107 -1.7294 -1.0235 -0.9152
  800MOL0     H10338   3.836   6.853  10.272  0.9709  0.8129 -1.1769
  800MOL0     H10339   3.866   6.641  10.355  2.0690  1.2981  1.7157
  800MOL0     H10340   3.899   6.569  10.190 -1.8891  0.2926 -0.3595
  800MOL0     H10341   4.066   6.792  10.296  1.0315 -0.4310  0.6092
  800MOL0     H10342   4.104   6.673  10.172  1.4283 -0.0435  1.1346
  800MOL0     H10343   4.094   6.598  10.462  2.1903 -0.1784  0.5815
  800MOL0     H10344   4.113   6.489  10.328 -0.6484 -0.5677  1.3623
  800MOL0     H10345   4.333   6.581  10.413 -0.0014 -4.3498 -3.4004
  800MOL0     H10346   4.290   6.748  10.364 -2.7289  1.3955 -0.4145
  800MOL0     H10347   4.315   6.511  10.174 -5.0444  1.2521 -0.9662
  800MOL0     H10348   4.316   6.678  10.133  0.3980  3.5989  3.7736
  800MOL0     H10349   4.548   6.493  10.047 -0.8026 -0.2333  0.1351
  800MOL0     H10350   4.903   6.538  10.134  0.4555 -0.8084 -0.4197
  800MOL0     H10351   4.783   6.471  10.015  0.7183 -4.4479 -0.5142
  800MOL0     H10352   4.860   6.341  10.274  0.8106 -0.4762 -0.0300
  800MOL0     H10353   4.708   6.320  10.189  0.2075  0.3240 -0.8905
  800MOL0     H10354   4.810   6.138  10.092  3.2604 -0.9537 -0.7603
  800MOL0     H10355   4.859   6.265   9.982 -0.3679  0.1255 -0.5140
  800MOL0     H10356   5.069   6.188   9.999 -2.1517  0.5888 -1.9610
  800MOL0     H10357   5.066   6.323  10.100  1.2982 -0.5528 -1.9170
  800MOL0     H10358   5.298   6.198  10.096  3.1276  1.8942  0.4650
  800MOL0     H10359   5.507   6.335  10.167  0.8830 -0.5435 -1.7271
  800MOL0     H10360   5.560   6.164  10.148  0.2439  2.2351 -1.7806
  800MOL0     H10361   5.606   6.264  10.292  0.3958  0.1369 -0.8666
  800MOL0     H10362   5.631   6.300  10.773 -1.7236  2.7879 -1.8587
  800MOL0     H10363   5.850   6.343  10.880  0.4667 -0.4762  0.0495
  800MOL0     H10364   6.063   6.330  10.961 -0.0018  0.5696  2.2673
  800MOL0     H10365   6.204   6.429  10.898 -1.0095  3.3407 -1.9165
  800MOL0     H10366   6.087   6.608  10.850 -2.3398  0.4820 -1.9591
  800MOL0     H10367   5.933   6.542  10.912  0.3101 -0.2094 -0.6117
  800MOL0     H10368   6.211   6.600  11.046 -0.2672  0.5430 -0.1383
  800MOL0     H10369   6.085   6.499  11.131 -3.1852 -1.4201 -2.1149
  800MOL0     H10370   5.925   6.669  11.131 -0.3965  2.5995 -2.2818
  800MOL0     H10371   6.011   6.773  11.017  1.3019  0.0507 -1.0326
  800MOL0     H10372   6.137   6.860  11.196 -0.7896 -0.8822 -1.7588
  800MOL0     H10373   5.994   6.822  11.289  1.4325 -1.7353  2.9904
  800MOL0     H10374   6.218   6.618  11.289 -0.1733 -1.3425  1.5769
  800MOL0     H10375   6.052   6.623  11.373  1.3381 -1.8944  2.0357
  800MOL0     H10376   6.141   6.836  11.493  2.7655  1.1594  2.4434
  800MOL0     H10377   6.287   6.813  11.403  1.6431 -3.4648  0.5590
  800MOL0     H10378   6.328   6.741  11.612  1.1035 -1.9838  0.6965
  800MOL0     H10379   6.334   6.597  11.530  0.1182 -0.4724  1.0143
  800MOL0     H10380   6.064   6.344  10.516  3.4678 -0.1898  3.3463
  800MOL0     H10381   5.845   6.284  10.400 -2.4298  0.2252 -1.4657
  800MOL0     H10382   5.280   6.083  10.578  3.6873  0.1669  0.3346
  800MOL0     H10383   5.065   6.097  10.433 -1.1863  2.1052 -0.0419
  800MOL0     H10384   3.822   6.985   9.956  0.9537 -1.9314  0.3395
  800MOL0     H10385   3.695   7.193   9.971 -0.4824  0.1756  1.9732
  800MOL0     H10386   3.218   7.274   9.995  2.8608 -0.2497 -1.0176
  800MOL0     H10387   2.986   7.385  10.021  3.1373  0.5278  1.5579
  800MOL0     H10388   2.833   7.643   9.692 -0.9699  2.2716  0.8196
  800MOL0     H10389   2.760   7.478   9.671 -0.8582  0.5980  1.5790
  800MOL0     H10390   2.582   7.533   9.811 -1.9266  2.3558 -1.9696
  800MOL0     H10391   2.600   7.686   9.739 -3.2890 -0.7599  1.6892
  800MOL0     H10392   2.767   7.755   9.937 -2.1317  3.6171 -1.1789
  800MOL0     H10393   2.588   7.763   9.945 -1.6741 -2.1943 -0.8134
  800MOL0     H10394   2.668   7.675  10.147 -1.8965  2.0684 -0.9938
  800MOL0     H10395   2.744   7.541  10.055 -0.0116  0.2418  0.7110
  800MOL0     H10396   2.307   7.487  10.105 -0.5667  0.1766 -1.9997
  800MOL0     H10397   3.002   7.504   9.619  1.8468  0.7145 -1.1479
  800MOL0     H10398   3.312   7.465   9.552  0.3040 -1.1516  0.9924
  800MOL0     H10399   3.268   7.298   9.492 -0.1780 -1.2764 -0.3856
  800MOL0     H10400   3.160   7.435   9.467 -0.1845  0.0874  0.9854
  801MOL0     O10401   4.420  10.710   0.937  0.1407 -0.3213  0.4170
  801MOL0     C10402   4.460  10.789   1.019  0.3150  0.0311 -0.5080
  801MOL0     O10403   4.420  10.915   1.023 -0.0844  0.0209  0.6924
  801MOL0     C10404   4.352  10.962   0.915  0.3085 -0.7523 -0.5644
  801MOL0     C10405   4.418  10.974   0.797 -0.1173 -0.4123 -0.4757
  801MOL0     C10406   4.358  11.026   0.681 -0.7074  0.3463 -0.2709
  801MOL0     C10407   4.221  11.050   0.686  0.8201  0.2685  0.2055
  801MOL0     O10408   4.153  11.085   0.574  0.8301  0.9091  0.2353
  801MOL0     C10409   4.204  11.193   0.500  0.3044 -0.1544  0.0917
  801MOL0     C10410   4.119  11.318   0.543 -0.3445  0.2392  0.4794
  801MOL0     C10411   3.970  11.314   0.551  0.3811  0.7714 -0.0716
  801MOL0     C10412   3.888  11.445   0.573 -0.4463  0.4147  0.6656
  801MOL0     C10413   3.947  11.556   0.489 -0.2389  0.3330 -0.6801
  801MOL0     C10414   3.842  11.673   0.499 -0.0348 -0.4981 -0.4772
  801MOL0     C10415   3.895  11.791   0.425  0.2490 -1.0952  0.2729
  801MOL0     C10416   3.797  11.850   0.319  0.3587 -1.2715  0.4721
  801MOL0     N10417   3.669  11.907   0.371 -0.2823 -0.3247  0.3516
  801MOL0     C10418   3.546  11.844   0.363 -0.0806 -0.6066  0.2215
  801MOL0     C10419   3.468  11.925   0.441  0.3931  0.2372 -0.8544
  801MOL0     C10420   3.317  11.922   0.458 -0.0998  0.4981  0.3856
  801MOL0     C10421   3.285  11.790   0.530  0.8637  1.1555  0.3306
  801MOL0     C10422   3.317  11.786   0.678 -0.4846 -0.3628  0.8672
  801MOL0     C10423   3.205  11.854   0.760 -0.1452 -0.4605  0.2502
  801MOL0     O10424   3.083  11.780   0.773  0.5508  0.1660  0.3180
  801MOL0     C10425   3.088  11.655   0.800 -0.3331  0.0067 -0.6474
  801MOL0     C10426   3.029  11.560   0.715 -0.0271 -0.5307 -0.9300
  801MOL0     C10427   3.010  11.423   0.745 -0.1442  0.1304  0.6180
  801MOL0     C10428   2.928  11.334   0.655  0.7575 -0.5250  0.2635
  801MOL0     C10429   3.088  11.372   0.854  0.8161 -0.2995  0.4412
  801MOL0     C10430   3.103  11.232   0.898  0.4533  0.0770  0.2217
  801MOL0     O10431   3.214  11.199   0.977 -0.0722  0.4220  0.1960
  801MOL0     C10432   3.228  11.070   1.011  0.8765 -0.4864 -0.2049
  801MOL0     C10433   3.268  10.973   0.920  0.3698 -0.7927 -0.4164
  801MOL0     C10434   3.320  10.853   0.969 -0.0544 -0.5939  0.7078
  801MOL0     C10435   3.338  10.829   1.102  0.1713 -1.0597  0.3482
  801MOL0     O10436   3.392  10.722   1.166 -0.6960 -0.4784 -0.3220
  801MOL0     C10437   3.388  10.592   1.110  0.0173 -0.1033  0.9312
  801MOL0     C10438   3.528  10.523   1.113 -0.2241 -0.1997 -0.1097
  801MOL0     C10439   3.564  10.459   1.244 -0.2979 -0.3349  0.6395
  801MOL0     C10440   3.624  10.560   1.339 -0.5291 -0.4737 -0.2069
  801MOL0     C10441   3.642  10.502   1.484 -0.2601 -0.4885  0.7955
  801MOL0     C10442   3.738  10.595   1.558  0.3917 -0.0577 -0.4110
  801MOL0     C10443   3.747  10.548   1.703  0.0656 -0.6210 -0.5387
  801MOL0     C10444   3.878  10.589   1.772 -0.0357  0.4404  0.2211
  801MOL0    Cl10445   3.878  10.533   1.940 -0.6520  0.1848 -0.2847
  801MOL0     C10446   3.281  10.921   1.189  0.7133  0.7011  0.0629
  801MOL0     C10447   3.218  11.034   1.147 -0.5644 -0.2770 -0.1460
  801MOL0     O10448   3.015  11.152   0.864 -0.5140 -0.8374  0.1038
  801MOL0     C10449   3.155  11.472   0.938  0.9560  0.2230 -0.1828
  801MOL0     C10450   3.157  11.609   0.913 -0.3726  0.0582  0.3910
  801MOL0     N10451   3.537  12.043   0.458  0.6109 -0.5971 -0.4414
  801MOL0     N10452   3.656  12.026   0.428 -0.3587  0.1224  0.1863
  801MOL0     C10453   4.148  11.038   0.802  0.0456 -0.6203  0.3007
  801MOL0     C10454   4.218  11.007   0.916  0.7529  0.0540  0.0984
  801MOL0     C10455   4.519  10.729   1.148  0.8597  0.0385 -0.4262
  801MOL0     C10456   4.518  10.813   1.262 -1.1570  0.0514 -0.1173
  801MOL0     C10457   4.579  10.772   1.374  0.3656 -0.2829 -0.2086
  801MOL0     C10458   4.638  10.653   1.398  0.1773  0.3052 -0.1321
  801MOL0     O10459   4.685  10.633   1.525  0.6076  0.0633  0.1441
  801MOL0     C10460   4.733  10.503   1.557 -0.1429 -0.3737 -0.2720
  801MOL0     C10461   4.761  10.501   1.707 -0.1783 -0.1144 -0.1724
  801MOL0     C10462   4.805  10.361   1.762 -0.0597 -0.8592  0.1691
  801MOL0     C10463   4.846  10.365   1.912  0.1662 -0.7813  1.4338
  801MOL0     C10464   4.728  10.395   2.001  0.4390 -0.4144  0.8170
  801MOL0     C10465   4.627  10.430   2.073  0.1242  0.3105  0.5971
  801MOL0     C10466   4.643  10.574   1.286 -0.0265 -0.0917 -0.3455
  801MOL0     C10467   4.579  10.603   1.164  0.7586  0.3081 -0.1900
  801MOL0     C10468   4.594  10.517   1.048 -0.4430 -0.4474  0.3519
  801MOL0     H10469   4.518  10.937   0.777 -0.7813 -1.6550 -1.6861
  801MOL0     H10470   4.420  11.035   0.593  0.0025 -0.2080  0.1583
  801MOL0     H10471   4.192  11.166   0.394  1.8802 -0.3298 -0.0726
  801MOL0     H10472   4.309  11.217   0.520 -0.0890  0.3318  1.7318
  801MOL0     H10473   4.153  11.340   0.645  3.9098  2.5146 -1.1868
  801MOL0     H10474   4.155  11.407   0.490 -0.9146  0.5315  0.5718
  801MOL0     H10475   3.928  11.282   0.455  0.2378  1.5538 -0.2778
  801MOL0     H10476   3.936  11.255   0.637 -0.4332  2.2377  0.6444
  801MOL0     H10477   3.781  11.439   0.551 -0.7540 -0.5164  2.2644
  801MOL0     H10478   3.902  11.466   0.679 -2.8342 -2.2886  1.6500
  801MOL0     H10479   3.959  11.525   0.385  1.0031  2.5814 -1.2835
  801MOL0     H10480   4.043  11.584   0.533 -0.1181 -3.0558  1.5192
  801MOL0     H10481   3.748  11.641   0.453 -0.3837  1.8469 -1.5205
  801MOL0     H10482   3.828  11.698   0.605  0.4969  0.2946 -0.5859
  801MOL0     H10483   3.981  11.762   0.364 -0.9043 -1.2924 -1.3129
  801MOL0     H10484   3.917  11.875   0.491  3.7644 -0.4086 -1.5434
  801MOL0     H10485   3.857  11.925   0.266  1.5851 -1.8291  1.0128
  801MOL0     H10486   3.773  11.777   0.242 -0.5776 -0.0506 -0.4225
  801MOL0     H10487   3.518  11.754   0.309  0.2711 -2.5741  3.1441
  801MOL0     H10488   3.268  11.934   0.361 -0.9703  0.6282  0.8347
  801MOL0     H10489   3.279  11.999   0.525 -0.8081 -0.0387  0.6179
  801MOL0     H10490   3.182  11.758   0.515  1.5410 -1.2916  0.4080
  801MOL0     H10491   3.343  11.711   0.481 -1.5748  0.0599 -0.9461
  801MOL0     H10492   3.329  11.679   0.699 -0.5393 -1.8847 -5.1924
  801MOL0     H10493   3.407  11.847   0.687 -0.8864  1.1490 -3.3593
  801MOL0     H10494   3.246  11.868   0.861 -0.8822  1.1332  0.3579
  801MOL0     H10495   3.183  11.953   0.721 -0.5186 -1.5540 -2.6056
  801MOL0     H10496   2.992  11.596   0.619 -1.2063 -1.2933 -0.7788
  801MOL0     H10497   2.823  11.324   0.684  0.5504 -0.2871 -0.4039
  801MOL0     H10498   2.975  11.236   0.643  0.6910 -0.4364 -0.8169
  801MOL0     H10499   2.925  11.370   0.552  3.0478  0.2402  0.4073
  801MOL0     H10500   3.254  11.003   0.817  0.0412  3.3418  0.6640
  801MOL0     H10501   3.354  10.788   0.889  2.6626  0.4712  0.8886
  801MOL0     H10502   3.310  10.530   1.156  0.9061 -1.9356  0.0918
  801MOL0     H10503   3.353  10.595   1.007  0.7917 -1.9472  0.5637
  801MOL0     H10504   3.534  10.429   1.056 -1.9483 -0.4260  0.0229
  801MOL0     H10505   3.608  10.585   1.070 -0.3361  1.1573  1.5619
  801MOL0     H10506   3.634  10.375   1.237 -1.4902 -1.2739 -0.9496
  801MOL0     H10507   3.480  10.401   1.283 -1.8512  0.0204 -1.9309
  801MOL0     H10508   3.561  10.649   1.338  0.0801 -0.0311  0.2453
  801MOL0     H10509   3.721  10.595   1.302 -0.8110 -1.4422 -2.0077
  801MOL0     H10510   3.553  10.490   1.546 -0.3947 -0.8156  0.5426
  801MOL0     H10511   3.695  10.407   1.482  4.5213  1.8324  2.6075
  801MOL0     H10512   3.706  10.700   1.560 -0.0814 -0.2053  0.2740
  801MOL0     H10513   3.836  10.583   1.511  0.7369  2.1162 -0.3655
  801MOL0     H10514   3.745  10.439   1.705  2.7285 -0.7340  0.8906
  801MOL0     H10515   3.659  10.591   1.752  0.6480  0.9121 -0.7719
  801MOL0     H10516   3.879  10.698   1.773 -0.8238  0.5252 -1.8690
  801MOL0     H10517   3.966  10.544   1.724  0.2430  1.3566 -0.1588
  801MOL0     H10518   3.279  10.896   1.294  1.5548  1.9092  0.3985
  801MOL0     H10519   3.184  11.105   1.222 -0.8998  2.0196 -2.3236
  801MOL0     H10520   3.212  11.448   1.027  3.7081  2.2964 -1.2426
  801MOL0     H10521   3.206  11.674   0.985 -0.8819  1.9576 -0.9261
  801MOL0     H10522   4.044  11.068   0.799  0.7465  2.0144  0.4729
  801MOL0     H10523   4.168  11.002   1.012  0.4887  0.4505 -0.0177
  801MOL0     H10524   4.499  10.920   1.263  0.7060  0.4449 -1.5421
  801MOL0     H10525   4.575  10.841   1.457  1.6386  0.6461 -0.8897
  801MOL0     H10526   4.656  10.429   1.531 -0.7937 -0.8674  2.7314
  801MOL0     H10527   4.827  10.478   1.507 -0.9707 -2.3322 -0.9353
  801MOL0     H10528   4.668  10.531   1.756 -0.4390 -1.7883  0.4171
  801MOL0     H10529   4.838  10.568   1.745  2.3841 -1.4467 -2.6361
  801MOL0     H10530   4.718  10.298   1.746  0.5561 -1.8145  0.5238
  801MOL0     H10531   4.898  10.334   1.710 -0.0362 -0.5308  0.0359
  801MOL0     H10532   4.921  10.443   1.923  2.9525 -3.0645 -0.1458
  801MOL0     H10533   4.907  10.279   1.941  3.3520  1.3672  1.6106
  801MOL0     H10534   4.542  10.443   2.136 -1.9911  0.2066 -2.0724
  801MOL0     H10535   4.706  10.487   1.302 -0.1728  0.1507  1.7553
  801MOL0     H10536   4.625  10.567   0.956 -2.1212 -0.0576 -0.0363
  801MOL0     H10537   4.652  10.428   1.073  0.9300  0.6382  1.1683
  801MOL0     H10538   4.492  10.482   1.034 -0.4152 -0.3705 -0.0526
  802MOL0     O10539   6.451   3.843   4.558 -0.1617  0.0683 -0.6331
  802MOL0     C10540   6.415   3.723   4.550 -0.2993 -0.1977  0.9502
  802MOL0     O10541   6.498   3.619   4.572 -0.1441  0.0752 -0.5169
  802MOL0     C10542   6.629   3.645   4.600  0.1805  0.8756  0.9216
  802MOL0     C10543   6.668   3.674   4.725 -0.0521  0.2916 -0.4475
  802MOL0     C10544   6.786   3.737   4.746  0.5723  0.3363 -0.3513
  802MOL0     C10545   6.870   3.763   4.641  0.1003  0.3026  0.0790
  802MOL0     O10546   6.991   3.831   4.658 -0.0848  1.5041  0.5246
  802MOL0     C10547   7.024   3.900   4.779 -0.4455  1.0109  0.1060
  802MOL0     C10548   7.177   3.912   4.798  1.2384  0.7565 -0.0886
  802MOL0     C10549   7.257   4.003   4.704 -0.4874 -0.3088 -1.4318
  802MOL0     C10550   7.408   3.994   4.750  0.0119 -0.1057  0.0862
  802MOL0     C10551   7.500   4.074   4.650 -0.0130  0.2963  0.1642
  802MOL0     C10552   7.642   4.064   4.705  0.3457 -0.1890  0.1120
  802MOL0     C10553   7.735   4.177   4.648  0.4531  0.4026  0.7219
  802MOL0     C10554   7.884   4.139   4.680 -0.3608 -0.2344 -0.2783
  802MOL0     N10555   7.977   4.227   4.610  0.2529 -0.9688  0.1315
  802MOL0     C10556   8.091   4.189   4.547 -0.3101 -0.6313  0.3916
  802MOL0     C10557   8.160   4.299   4.518 -0.3813 -0.3425  0.7174
  802MOL0     C10558   8.281   4.304   4.428 -1.0068 -0.7410 -0.5888
  802MOL0     C10559   8.384   4.393   4.499 -0.0939 -0.1670 -0.0940
  802MOL0     C10560   8.506   4.428   4.412  0.6768  0.0244  0.1204
  802MOL0     C10561   8.621   4.324   4.433  0.5293  0.6103 -0.4083
  802MOL0     O10562   8.582   4.205   4.355  0.4388 -0.3205  0.4788
  802MOL0     C10563   8.658   4.091   4.365  0.8255 -0.5687 -0.1822
  802MOL0     C10564   8.791   4.100   4.412  0.1778  0.2430  0.3537
  802MOL0     C10565   8.875   3.989   4.399 -0.4004  0.8091  0.5578
  802MOL0     C10566   9.016   3.995   4.454  0.4881 -0.4360  0.1649
  802MOL0     C10567   8.829   3.874   4.332  1.0496  0.1361  0.4754
  802MOL0     C10568   8.907   3.746   4.319  1.0749  0.8915  0.8397
  802MOL0     O10569   8.878   3.684   4.208 -0.1086 -0.0094 -0.4577
  802MOL0     C10570   8.949   3.577   4.164 -0.7487  0.0098  0.2012
  802MOL0     C10571   9.090   3.542   4.199 -0.4440  0.2846  0.2249
  802MOL0     C10572   9.141   3.431   4.138 -0.7336  0.1970  0.5591
  802MOL0     C10573   9.072   3.354   4.038 -0.5221 -0.2034  0.2914
  802MOL0     O10574   9.130   3.244   3.975  0.4659  1.0735  0.0471
  802MOL0     C10575   9.237   3.159   4.035 -0.1070 -0.4549  0.9974
  802MOL0     C10576   9.199   3.039   4.120  0.2280  0.3081 -0.0113
  802MOL0     C10577   9.166   3.082   4.266  0.5428 -0.2447  0.6395
  802MOL0     C10578   9.136   2.972   4.360  0.9513  0.6171  0.4886
  802MOL0     C10579   9.008   2.890   4.313  0.1118  0.3955  0.3675
  802MOL0     C10580   8.961   2.773   4.413 -0.2773 -0.6108  0.5668
  802MOL0     C10581   8.837   2.707   4.365 -0.0570  0.7475 -0.0741
  802MOL0     C10582   8.804   2.572   4.439 -0.3222 -0.0631 -0.4263
  802MOL0    Cl10583   8.795   2.604   4.613 -0.2493 -0.0695 -0.0922
  802MOL0     C10584   8.938   3.386   4.016  0.6088  0.3013  0.8559
  802MOL0     C10585   8.877   3.495   4.076  0.6414  0.2283 -0.1569
  802MOL0     O10586   8.972   3.703   4.416 -0.3206  0.2505 -0.2018
  802MOL0     C10587   8.695   3.860   4.294  0.3072  0.3596 -1.0351
  802MOL0     C10588   8.606   3.967   4.313 -0.8342 -0.9436 -0.4440
  802MOL0     N10589   8.080   4.401   4.555 -0.0410 -0.3216 -0.1057
  802MOL0     N10590   7.971   4.363   4.600 -0.1687  0.1746 -1.4150
  802MOL0     C10591   6.841   3.717   4.518 -0.6087  0.0898  0.4081
  802MOL0     C10592   6.721   3.663   4.501  0.3215  0.4220 -0.4924
  802MOL0     C10593   6.291   3.694   4.477  0.5217  0.0691 -0.7143
  802MOL0     C10594   6.233   3.800   4.402  0.0029  0.3741  0.5741
  802MOL0     C10595   6.122   3.773   4.318  0.0913  0.2789  1.2721
  802MOL0     C10596   6.058   3.651   4.322  0.2152 -0.0097  0.4601
  802MOL0     O10597   5.962   3.611   4.227  1.3505  0.3545  0.2159
  802MOL0     C10598   5.917   3.717   4.132  0.1484  1.4135 -0.2367
  802MOL0     C10599   5.828   3.804   4.213  0.6018  0.8379  0.3519
  802MOL0     C10600   5.704   3.722   4.251  0.5351 -1.4371  0.2424
  802MOL0     C10601   5.593   3.804   4.323  0.0106  0.6550 -0.2756
  802MOL0     C10602   5.467   3.729   4.330  1.1872 -0.4188 -0.2454
  802MOL0     C10603   5.361   3.673   4.346  0.0786 -0.2199 -0.6648
  802MOL0     C10604   6.103   3.551   4.403 -0.0389 -0.0877  0.6000
  802MOL0     C10605   6.225   3.568   4.473 -0.2961  0.4143 -0.3488
  802MOL0     C10606   6.267   3.456   4.560  0.2499 -0.1426  0.7090
  802MOL0     H10607   6.618   3.628   4.810  0.9686 -3.4799 -1.6835
  802MOL0     H10608   6.802   3.762   4.851 -1.3150  1.6868 -0.3503
  802MOL0     H10609   6.977   3.857   4.868 -2.5036  1.0465 -0.9023
  802MOL0     H10610   6.974   3.997   4.781 -2.4092  0.1036  3.1571
  802MOL0     H10611   7.196   3.944   4.901 -2.8611 -0.0581  1.0988
  802MOL0     H10612   7.218   3.811   4.797 -0.0757  0.1480  1.8367
  802MOL0     H10613   7.248   3.965   4.602 -2.5345  1.1333 -1.8616
  802MOL0     H10614   7.233   4.110   4.702  3.1958  0.6398 -3.0324
  802MOL0     H10615   7.422   4.035   4.850 -1.6387 -1.9078  1.1391
  802MOL0     H10616   7.435   3.889   4.768 -0.1031  0.0825  1.5231
  802MOL0     H10617   7.449   4.171   4.653  0.4545  0.5640  3.4152
  802MOL0     H10618   7.485   4.032   4.550 -1.4884  2.3546 -0.5493
  802MOL0     H10619   7.648   4.076   4.813  0.3337  2.8117 -0.1327
  802MOL0     H10620   7.687   3.966   4.690  4.5230  1.8977 -3.5614
  802MOL0     H10621   7.713   4.276   4.690  3.3145  2.2701 -1.7454
  802MOL0     H10622   7.716   4.185   4.541 -0.2847  0.4993  0.8527
  802MOL0     H10623   7.891   4.146   4.789 -0.7915 -0.4000 -0.2388
  802MOL0     H10624   7.899   4.032   4.663  0.9992 -0.2910  1.0690
  802MOL0     H10625   8.122   4.086   4.531  0.1778 -0.3882 -0.2458
  802MOL0     H10626   8.244   4.345   4.332 -0.9490 -0.3040 -0.4288
  802MOL0     H10627   8.323   4.208   4.398 -2.2745 -1.4060 -0.3041
  802MOL0     H10628   8.332   4.486   4.523 -0.7387 -0.6740  0.5356
  802MOL0     H10629   8.422   4.348   4.591  0.9811 -0.6520 -0.7545
  802MOL0     H10630   8.494   4.440   4.304  3.4637  1.1578 -0.1200
  802MOL0     H10631   8.542   4.523   4.452  0.7430  1.5286 -3.1460
  802MOL0     H10632   8.717   4.367   4.401  1.2005  0.4616  1.2764
  802MOL0     H10633   8.629   4.302   4.540 -1.3131 -0.9323 -0.5424
  802MOL0     H10634   8.840   4.194   4.436 -0.6851  0.9649 -0.6171
  802MOL0     H10635   9.082   3.974   4.369 -1.8747 -1.6161 -1.5040
  802MOL0     H10636   9.040   3.928   4.538 -1.6018 -2.6628 -0.8656
  802MOL0     H10637   9.043   4.095   4.488  0.9526 -1.0106  1.5733
  802MOL0     H10638   9.155   3.592   4.270  2.3824 -1.8220 -0.6860
  802MOL0     H10639   9.245   3.410   4.159 -1.1017 -1.2508  1.0524
  802MOL0     H10640   9.275   3.112   3.944  1.4885  0.0958  1.3505
  802MOL0     H10641   9.322   3.216   4.074 -1.4661  2.8647 -0.5117
  802MOL0     H10642   9.112   2.993   4.073 -0.4356  1.3524  0.1631
  802MOL0     H10643   9.283   2.968   4.111  0.7352  0.6721  1.5068
  802MOL0     H10644   9.076   3.143   4.253 -0.4837 -1.9347 -0.5542
  802MOL0     H10645   9.249   3.140   4.309 -1.3465  1.0366  2.7747
  802MOL0     H10646   9.119   3.024   4.455 -1.7410  1.4739 -0.3573
  802MOL0     H10647   9.223   2.907   4.371  1.4500  0.4655 -3.1566
  802MOL0     H10648   8.927   2.963   4.307  1.5913  2.0202 -1.2151
  802MOL0     H10649   9.032   2.847   4.215 -1.7897  2.5306 -1.1280
  802MOL0     H10650   8.951   2.809   4.516  1.3974  0.9689  0.2249
  802MOL0     H10651   9.048   2.708   4.407  1.8826  2.2646 -2.1382
  802MOL0     H10652   8.855   2.675   4.261  1.6892  1.1938  0.0618
  802MOL0     H10653   8.749   2.771   4.367 -2.0886 -1.8153 -0.6837
  802MOL0     H10654   8.884   2.500   4.420  0.1960 -0.5624  2.8910
  802MOL0     H10655   8.708   2.536   4.400 -0.9416  1.3243 -0.2618
  802MOL0     H10656   8.889   3.315   3.950  0.6991  0.4529  0.6200
  802MOL0     H10657   8.774   3.513   4.048  0.1867 -0.9067  0.7188
  802MOL0     H10658   8.648   3.774   4.247 -3.4727  1.9508 -0.5441
  802MOL0     H10659   8.502   3.970   4.279 -1.7151 -0.0861  2.0849
  802MOL0     H10660   6.913   3.735   4.438 -0.8550 -3.2829 -0.7398
  802MOL0     H10661   6.686   3.649   4.399  0.0853 -2.2038 -0.1177
  802MOL0     H10662   6.286   3.894   4.396  0.4456  0.1886  1.3968
  802MOL0     H10663   6.088   3.848   4.247 -0.7457 -0.9883  0.2740
  802MOL0     H10664   5.995   3.774   4.081 -0.1607  1.3256 -0.8128
  802MOL0     H10665   5.855   3.669   4.057  0.2946  1.3937 -0.3461
  802MOL0     H10666   5.802   3.898   4.162 -1.0692 -0.7495 -1.9577
  802MOL0     H10667   5.872   3.833   4.308 -0.2677 -1.9289  1.6983
  802MOL0     H10668   5.667   3.675   4.159 -2.7990 -3.4725  2.4393
  802MOL0     H10669   5.740   3.641   4.315  3.2614 -1.9078 -1.6979
  802MOL0     H10670   5.577   3.897   4.268  0.8216  0.3775 -0.9941
  802MOL0     H10671   5.607   3.823   4.430 -1.6587 -5.3620  1.3912
  802MOL0     H10672   5.265   3.625   4.356 -0.1959 -0.9003 -4.7807
  802MOL0     H10673   6.054   3.455   4.409  0.5047 -0.4400 -0.3734
  802MOL0     H10674   6.348   3.394   4.521 -2.0710 -2.8610 -0.1424
  802MOL0     H10675   6.288   3.497   4.660 -1.9595  5.6479 -0.7862
  802MOL0     H10676   6.179   3.392   4.564  0.3812 -0.3380  0.4377
  803MOL0     O10677   1.054   7.203  10.365 -0.3105  0.2766  0.4276
  803MOL0     C10678   1.028   7.316  10.395  0.2386 -0.8476 -0.2992
  803MOL0     O10679   0.909   7.356  10.446 -0.1542  0.7415  0.0273
  803MOL0     C10680   0.812   7.254  10.457  0.8462 -0.2248 -1.4569
  803MOL0     C10681   0.764   7.191  10.344 -1.0351 -1.1963 -0.9589
  803MOL0     C10682   0.662   7.100  10.362  0.0195 -0.1880  0.2305
  803MOL0     C10683   0.609   7.069  10.485 -0.4374  0.0337 -0.4149
  803MOL0     O10684   0.497   6.998  10.496  0.0205 -0.7047 -0.0095
  803MOL0     C10685   0.493   6.877  10.422 -0.3420 -0.1109  0.4097
  803MOL0     C10686   0.370   6.790  10.460 -0.6049 -0.8718 -0.3684
  803MOL0     C10687   0.238   6.865  10.442  0.3647 -0.7352 -0.0672
  803MOL0     C10688   0.185   6.865  10.302 -0.0475  0.5537 -0.1666
  803MOL0     C10689   0.056   6.942  10.289 -0.5433  0.3126 -0.1933
  803MOL0     C10690  -0.064   6.903  10.380 -0.0157 -0.0263 -0.2537
  803MOL0     C10691  -0.097   6.751  10.376 -0.8687  0.0664 -0.2875
  803MOL0     C10692  -0.163   6.705  10.245 -0.0600  0.5703  0.0096
  803MOL0     N10693  -0.117   6.583  10.173  0.7277  0.3566  0.0287
  803MOL0     C10694  -0.030   6.590  10.064  0.3093  0.0752 -0.7321
  803MOL0     C10695   0.002   6.462  10.036 -0.1159  0.0983  0.0122
  803MOL0     C10696   0.100   6.414   9.937 -0.2729  0.0147  0.3092
  803MOL0     C10697   0.203   6.327   9.998  0.2772 -0.3595  0.2092
  803MOL0     C10698   0.330   6.335   9.909  0.0706 -0.2971 -0.6281
  803MOL0     C10699   0.300   6.293   9.762 -0.0988  0.1999 -0.0381
  803MOL0     O10700   0.420   6.226   9.707 -0.2109  0.1498 -0.0727
  803MOL0     C10701   0.524   6.309   9.679 -0.5737 -1.3692 -0.5942
  803MOL0     C10702   0.542   6.444   9.729  0.3564  0.4948 -0.4167
  803MOL0     C10703   0.647   6.521   9.685 -0.0862 -0.1172 -0.6236
  803MOL0     C10704   0.671   6.650   9.743  0.4307  0.3716  0.0946
  803MOL0     C10705   0.753   6.461   9.618 -0.7345 -0.0593 -0.5135
  803MOL0     C10706   0.884   6.537   9.594  0.0882  0.0086  0.5158
  803MOL0     O10707   0.995   6.474   9.649  0.5903  0.0669  0.7562
  803MOL0     C10708   1.114   6.471   9.576 -0.6596 -0.2191  0.2054
  803MOL0     C10709   1.198   6.366   9.615 -0.6598  0.5883  0.3012
  803MOL0     C10710   1.328   6.357   9.556  0.1781 -0.4387  0.2358
  803MOL0     C10711   1.369   6.440   9.453 -0.7784 -0.7157  0.2837
  803MOL0     O10712   1.488   6.434   9.388 -0.1379 -0.0420  0.0269
  803MOL0     C10713   1.578   6.333   9.413 -0.9269  0.1600 -0.1786
  803MOL0     C10714   1.678   6.294   9.296  0.5825  0.7896 -0.2172
  803MOL0     C10715   1.748   6.163   9.329 -1.3146 -0.3501  0.8852
  803MOL0     C10716   1.677   6.045   9.254 -0.5111 -0.7037 -0.3867
  803MOL0     C10717   1.653   5.935   9.354  0.6308  0.0582  0.1436
  803MOL0     C10718   1.598   5.803   9.281 -0.0023 -0.0366  0.2350
  803MOL0     C10719   1.688   5.737   9.180 -0.0621 -0.4904 -0.5471
  803MOL0     C10720   1.831   5.718   9.232  0.3482  0.7979  0.1524
  803MOL0    Cl10721   1.905   5.588   9.128  0.0002  0.1482 -0.2709
  803MOL0     C10722   1.281   6.543   9.423 -0.3208 -0.5322 -0.0465
  803MOL0     C10723   1.153   6.558   9.473  0.2647 -0.2195  0.0123
  803MOL0     O10724   0.881   6.650   9.546 -0.8892 -0.4860 -0.0084
  803MOL0     C10725   0.761   6.326   9.597 -0.6757 -1.3051 -0.4517
  803MOL0     C10726   0.639   6.256   9.627  0.3729 -0.0540  0.5223
  803MOL0     N10727  -0.072   6.375  10.114 -1.1260 -0.1675  0.3409
  803MOL0     N10728  -0.141   6.446  10.194  0.2768 -0.7118 -0.0038
  803MOL0     C10729   0.660   7.129  10.599  0.9109  0.1566 -0.4209
  803MOL0     C10730   0.764   7.224  10.586  0.5140  0.4677 -0.2643
  803MOL0     C10731   1.129   7.424  10.376  0.5641  0.5633  0.2925
  803MOL0     C10732   1.094   7.530  10.309  0.2780 -0.4459  0.0872
  803MOL0     C10733   1.187   7.622  10.256  0.4681 -0.0900 -0.1804
  803MOL0     C10734   1.322   7.600  10.281 -0.0478  0.4102  0.0196
  803MOL0     O10735   1.431   7.671  10.240  0.3112  0.2289 -0.0689
  803MOL0     C10736   1.411   7.759  10.132 -0.0161 -0.0625  0.1905
  803MOL0     C10737   1.543   7.813  10.068 -0.4691  0.1990  0.0734
  803MOL0     C10738   1.625   7.689  10.031 -0.9586 -0.2080 -0.3374
  803MOL0     C10739   1.758   7.746   9.983 -0.4701 -0.6380  0.3709
  803MOL0     C10740   1.845   7.644   9.931  0.7006 -0.0501  0.5931
  803MOL0     C10741   1.921   7.554   9.899 -0.3295  1.2038 -0.3525
  803MOL0     C10742   1.359   7.494  10.364  0.5788  0.3489 -0.5951
  803MOL0     C10743   1.266   7.405  10.400  0.1644 -0.4466  0.9481
  803MOL0     C10744   1.330   7.280  10.453  1.0137  0.7834 -0.7528
  803MOL0     H10745   0.803   7.223  10.249  0.1384 -2.2213 -0.8568
  803MOL0     H10746   0.613   7.066  10.271  1.0269  2.0203 -1.2206
  803MOL0     H10747   0.584   6.819  10.442  0.6952  0.8544 -1.2211
  803MOL0     H10748   0.491   6.910  10.318  1.9221  0.2289  0.4120
  803MOL0     H10749   0.360   6.696  10.405 -1.0116 -0.9513 -0.1638
  803MOL0     H10750   0.383   6.776  10.568 -0.1838 -1.6055 -0.5086
  803MOL0     H10751   0.168   6.805  10.501  0.6664 -1.1749 -0.1443
  803MOL0     H10752   0.240   6.970  10.470 -1.5051  0.2920 -3.3024
  803MOL0     H10753   0.258   6.921  10.242 -0.1388  0.1927 -0.6170
  803MOL0     H10754   0.171   6.765  10.261  1.3754  1.0089 -1.9090
  803MOL0     H10755   0.029   6.942  10.183 -0.4825 -0.5308 -0.2131
  803MOL0     H10756   0.077   7.047  10.309  1.7159 -0.0955 -0.1487
  803MOL0     H10757  -0.040   6.935  10.482 -0.4755  0.3060 -0.2486
  803MOL0     H10758  -0.153   6.961  10.354  0.7002  0.6264 -1.3041
  803MOL0     H10759  -0.170   6.732  10.456 -0.4633 -0.8446 -0.1257
  803MOL0     H10760  -0.008   6.691  10.400 -0.7096  0.3766 -0.0899
  803MOL0     H10761  -0.263   6.669  10.268 -0.4704  0.5920 -1.6480
  803MOL0     H10762  -0.168   6.785  10.170 -0.9077 -1.5443 -2.3342
  803MOL0     H10763   0.028   6.675  10.028 -1.0078  1.0217 -0.7137
  803MOL0     H10764   0.137   6.504   9.886 -3.0569  0.2206 -1.6144
  803MOL0     H10765   0.031   6.363   9.868  0.2943 -0.4383  0.0737
  803MOL0     H10766   0.226   6.362  10.099 -0.5648 -0.4120  0.4238
  803MOL0     H10767   0.178   6.221  10.013  2.4231 -0.6374  2.6152
  803MOL0     H10768   0.372   6.434   9.928  1.9440 -1.0304 -0.7450
  803MOL0     H10769   0.406   6.272   9.954  1.5745  2.5731  1.1984
  803MOL0     H10770   0.219   6.221   9.748  0.3016 -0.5603  1.4114
  803MOL0     H10771   0.259   6.377   9.705 -3.6144 -1.7323 -0.5791
  803MOL0     H10772   0.463   6.509   9.765 -1.9351 -1.3867 -1.7914
  803MOL0     H10773   0.761   6.645   9.805  1.1165  0.5903 -0.8549
  803MOL0     H10774   0.587   6.683   9.804 -0.5580 -1.2461 -0.3483
  803MOL0     H10775   0.676   6.718   9.657  0.0458  0.7145  0.3412
  803MOL0     H10776   1.169   6.294   9.690  0.8437  1.2320  1.5650
  803MOL0     H10777   1.386   6.273   9.594 -0.3384 -0.7284  0.3907
  803MOL0     H10778   1.633   6.352   9.506  0.7159 -3.1449 -0.3282
  803MOL0     H10779   1.512   6.246   9.424 -2.6066  1.2720 -1.0492
  803MOL0     H10780   1.628   6.287   9.199  0.5497 -2.8062 -0.0460
  803MOL0     H10781   1.755   6.372   9.293 -1.9537  3.8256  3.5493
  803MOL0     H10782   1.756   6.155   9.437  1.0174 -1.1667  0.7048
  803MOL0     H10783   1.854   6.159   9.302 -1.4536 -1.8276  0.4710
  803MOL0     H10784   1.740   6.024   9.167  0.5356 -0.9851  0.4170
  803MOL0     H10785   1.574   6.068   9.226 -0.7444 -4.2025 -3.1148
  803MOL0     H10786   1.752   5.908   9.394  0.0960 -4.1478 -0.8301
  803MOL0     H10787   1.586   5.963   9.436 -1.7171  0.9465 -1.9852
  803MOL0     H10788   1.498   5.807   9.237 -0.8833  0.1854  2.1588
  803MOL0     H10789   1.589   5.724   9.355  2.5605 -0.4293  0.2126
  803MOL0     H10790   1.697   5.796   9.088  1.0828 -2.3326 -1.6714
  803MOL0     H10791   1.644   5.640   9.152 -1.3486  0.0672 -0.5578
  803MOL0     H10792   1.817   5.673   9.331 -3.9325 -3.0062 -1.8120
  803MOL0     H10793   1.896   5.806   9.235  3.8191 -1.5821  0.8115
  803MOL0     H10794   1.326   6.607   9.348  1.7903 -1.9372 -0.0567
  803MOL0     H10795   1.095   6.647   9.450  0.3951  0.7828  3.1788
  803MOL0     H10796   0.846   6.272   9.558 -0.1910 -1.7878  1.2213
  803MOL0     H10797   0.637   6.154   9.590 -0.4553  0.2340 -0.2692
  803MOL0     H10798   0.616   7.109  10.697  2.1272 -1.9505 -0.2569
  803MOL0     H10799   0.822   7.275  10.662  1.1769  0.2161 -0.5886
  803MOL0     H10800   0.987   7.538  10.287  0.1147  0.6581  1.1812
  803MOL0     H10801   1.156   7.700  10.186  0.2682  0.8683  0.9506
  803MOL0     H10802   1.362   7.710  10.047 -0.4712  1.8308 -0.6873
  803MOL0     H10803   1.352   7.844  10.165  1.0997  0.5944  0.5673
  803MOL0     H10804   1.594   7.876  10.142 -0.8035  0.3033  0.2173
  803MOL0     H10805   1.521   7.875   9.981 -2.2848  3.7489  2.7602
  803MOL0     H10806   1.645   7.632  10.122  1.7671 -2.4092 -2.1417
  803MOL0     H10807   1.575   7.627   9.955 -2.5810  0.6236  0.0002
  803MOL0     H10808   1.808   7.806  10.060  0.2092  3.0680 -2.6257
  803MOL0     H10809   1.740   7.816   9.900  0.3614 -1.1745 -0.2739
  803MOL0     H10810   2.001   7.484   9.888 -0.6592  0.9143 -1.0310
  803MOL0     H10811   1.464   7.483  10.392  0.5084 -0.4509 -0.6220
  803MOL0     H10812   1.423   7.298  10.507 -0.4506  1.6055  1.6621
  803MOL0     H10813   1.268   7.254  10.539  0.0408 -0.0788 -1.6866
  803MOL0     H10814   1.329   7.205  10.373  3.1636 -0.9984  0.7684
  804MOL0     O10815  10.429   9.305   1.662 -0.4597 -0.2328 -0.0577
  804MOL0     C10816  10.483   9.270   1.557 -0.5127  0.6471  0.0958
  804MOL0     O10817  10.549   9.149   1.535  0.4014 -0.5485 -0.3964
  804MOL0     C10818  10.547   9.059   1.640 -0.8736 -0.1778  0.1853
  804MOL0     C10819  10.671   9.045   1.711  0.2224  0.5119 -0.3896
  804MOL0     C10820  10.673   8.971   1.835  0.9496 -0.9283  0.4889
  804MOL0     C10821  10.553   8.913   1.888 -0.4303  0.7401 -0.3999
  804MOL0     O10822  10.535   8.871   2.018 -0.1240  0.2781  0.2809
  804MOL0     C10823  10.657   8.822   2.069 -0.3835 -0.9729 -0.2455
  804MOL0     C10824  10.622   8.735   2.188 -0.7352 -0.3622 -0.4435
  804MOL0     C10825  10.746   8.728   2.289 -0.0547  0.8247  0.1369
  804MOL0     C10826  10.699   8.641   2.408  0.5478 -0.1871 -0.0154
  804MOL0     C10827  10.807   8.558   2.462 -0.3448 -0.0541  0.3844
  804MOL0     C10828  10.935   8.626   2.500  0.1994 -0.3819  0.0617
  804MOL0     C10829  11.037   8.520   2.561  0.2014  0.0635  0.0800
  804MOL0     C10830  11.021   8.514   2.711 -0.5354  0.0559  0.0778
  804MOL0     N10831  11.129   8.427   2.768  0.2500  0.2907 -0.0258
  804MOL0     C10832  11.215   8.337   2.699 -0.0227  0.1056  0.0480
  804MOL0     C10833  11.308   8.291   2.793  0.6480  0.9145  0.0988
  804MOL0     C10834  11.408   8.186   2.763  0.0969 -0.3676  0.3376
  804MOL0     C10835  11.519   8.177   2.868 -0.0198 -0.0077  0.6553
  804MOL0     C10836  11.613   8.068   2.830 -0.0242 -0.5752 -0.6772
  804MOL0     C10837  11.740   8.120   2.776  0.2044 -0.0254  0.3409
  804MOL0     O10838  11.814   8.183   2.893  0.8224  0.3594  0.5768
  804MOL0     C10839  11.912   8.255   2.844  0.7300  0.0784  0.7426
  804MOL0     C10840  11.928   8.385   2.878 -0.0312  0.1845 -0.9353
  804MOL0     C10841  12.042   8.458   2.854 -0.5038  0.0219  0.8094
  804MOL0     C10842  12.063   8.602   2.907 -0.3164  0.7967 -0.2367
  804MOL0     C10843  12.139   8.393   2.782 -0.3087 -0.4375  1.0664
  804MOL0     C10844  12.279   8.450   2.765 -0.0848 -0.5007  0.4989
  804MOL0     O10845  12.344   8.417   2.642  0.0628  0.1078  0.7017
  804MOL0     C10846  12.474   8.449   2.613 -0.7165 -0.6633  0.1661
  804MOL0     C10847  12.488   8.511   2.483 -0.2625 -0.5283 -0.2706
  804MOL0     C10848  12.608   8.579   2.460  0.0828 -0.1092  0.2028
  804MOL0     C10849  12.718   8.566   2.552 -1.0954 -0.2187  0.2252
  804MOL0     O10850  12.833   8.636   2.527  0.0691  0.0583  0.4084
  804MOL0     C10851  12.917   8.697   2.635  0.3221  0.7399  0.2936
  804MOL0     C10852  12.953   8.839   2.609 -0.2532  0.0276  0.2196
  804MOL0     C10853  13.073   8.901   2.686 -0.4395 -0.7233  0.0113
  804MOL0     C10854  13.217   8.851   2.672 -0.2628  1.3014  0.7160
  804MOL0     C10855  13.254   8.867   2.527 -0.5855  1.3586 -0.5492
  804MOL0     C10856  13.365   8.775   2.479  0.0063  0.7725 -0.0128
  804MOL0     C10857  13.509   8.817   2.537 -0.7103 -0.5468 -0.7054
  804MOL0     C10858  13.613   8.854   2.422 -0.6119  0.5384  0.3628
  804MOL0    Cl10859  13.533   8.996   2.332  0.0756 -0.2819 -0.6073
  804MOL0     C10860  12.706   8.500   2.668  0.8276 -0.4681  0.0964
  804MOL0     C10861  12.588   8.442   2.702 -0.7993  0.2411  0.1174
  804MOL0     O10862  12.333   8.508   2.860 -0.4208 -0.1509  0.1846
  804MOL0     C10863  12.117   8.273   2.725 -0.5885  0.3410  0.3797
  804MOL0     C10864  12.003   8.200   2.759  0.3336  0.3563 -0.2190
  804MOL0     N10865  11.271   8.345   2.919  0.7242  0.2434 -0.4069
  804MOL0     N10866  11.159   8.417   2.906 -0.4372 -0.0033 -0.2178
  804MOL0     C10867  10.437   8.928   1.811  0.3158  0.3624 -0.4795
  804MOL0     C10868  10.431   9.002   1.692 -0.3834 -0.6090  0.0604
  804MOL0     C10869  10.477   9.369   1.445  0.6208  0.3157 -0.3794
  804MOL0     C10870  10.543   9.334   1.328 -0.6151 -0.3292  0.5705
  804MOL0     C10871  10.548   9.422   1.218 -0.3225 -0.1978  0.0296
  804MOL0     C10872  10.501   9.552   1.223 -0.1730 -0.0634 -0.8345
  804MOL0     O10873  10.539   9.631   1.118  0.5591 -1.1475 -0.4507
  804MOL0     C10874  10.530   9.769   1.140 -0.0178  0.3062 -1.0781
  804MOL0     C10875  10.582   9.848   1.020 -0.1648 -0.4804 -0.5475
  804MOL0     C10876  10.741   9.858   0.998 -0.0400  0.2897  0.2281
  804MOL0     C10877  10.778   9.930   0.860  0.5923 -0.4930  0.0316
  804MOL0     C10878  10.926   9.931   0.853 -0.2939  0.3800  0.9012
  804MOL0     C10879  11.045   9.933   0.839  0.2364  0.6372 -0.1274
  804MOL0     C10880  10.434   9.593   1.346  0.4338 -0.5291 -0.1082
  804MOL0     C10881  10.424   9.503   1.457 -0.7215  0.1545  0.5307
  804MOL0     C10882  10.352   9.546   1.571  0.3490 -0.9038  0.2027
  804MOL0     H10883  10.758   9.099   1.675 -0.2355  2.8981  1.7860
  804MOL0     H10884  10.760   8.973   1.900  1.9731 -0.8668 -0.8659
  804MOL0     H10885  10.718   8.904   2.107 -3.1475  1.0164  0.2103
  804MOL0     H10886  10.714   8.760   1.999  1.6088 -1.9714  2.1160
  804MOL0     H10887  10.530   8.770   2.236 -2.9031 -3.9286 -1.6037
  804MOL0     H10888  10.601   8.631   2.163 -1.7464 -0.4651  0.7112
  804MOL0     H10889  10.838   8.699   2.237 -1.0689 -1.9067 -0.2612
  804MOL0     H10890  10.764   8.831   2.322 -0.1004  1.2228 -1.0090
  804MOL0     H10891  10.650   8.699   2.487 -2.7022  1.5961 -3.0305
  804MOL0     H10892  10.625   8.563   2.387 -0.1349 -0.0974  1.8509
  804MOL0     H10893  10.831   8.471   2.400 -0.5533  0.4846 -0.4688
  804MOL0     H10894  10.777   8.505   2.553  0.8239 -1.4106  0.0144
  804MOL0     H10895  10.978   8.673   2.411 -3.2563  1.8111 -0.6039
  804MOL0     H10896  10.913   8.709   2.569  1.9843  2.7208 -2.7915
  804MOL0     H10897  11.134   8.548   2.519  0.4713 -1.4613 -0.3688
  804MOL0     H10898  11.019   8.420   2.521  1.4394 -0.3212  0.4601
  804MOL0     H10899  11.037   8.606   2.768 -2.0707 -0.0369  0.7014
  804MOL0     H10900  10.920   8.482   2.735 -0.6021  1.7304  2.3650
  804MOL0     H10901  11.217   8.298   2.598  0.7773 -2.5453  0.9972
  804MOL0     H10902  11.459   8.210   2.669  2.3687 -1.1525  1.3058
  804MOL0     H10903  11.363   8.087   2.751  0.9607 -0.5976 -1.3753
  804MOL0     H10904  11.567   8.273   2.889 -2.1288  1.1773  0.3430
  804MOL0     H10905  11.469   8.151   2.962 -1.3055 -1.7268 -0.4422
  804MOL0     H10906  11.619   8.014   2.925 -0.1928  2.6099  1.2984
  804MOL0     H10907  11.573   8.000   2.754 -0.0563 -0.2538 -0.9525
  804MOL0     H10908  11.795   8.038   2.730 -0.2067  0.0660 -0.3296
  804MOL0     H10909  11.719   8.193   2.698 -0.9903 -1.5151 -0.7985
  804MOL0     H10910  11.842   8.428   2.930 -0.5672  1.9258 -3.0792
  804MOL0     H10911  11.974   8.661   2.930 -0.7712  0.8693 -2.0729
  804MOL0     H10912  12.126   8.667   2.846  1.5972  0.2795  1.0798
  804MOL0     H10913  12.115   8.586   3.002  1.2294  1.4498 -0.9447
  804MOL0     H10914  12.401   8.501   2.418  1.6890 -0.4198 -3.0933
  804MOL0     H10915  12.621   8.627   2.363  1.8826 -0.3394  0.3079
  804MOL0     H10916  12.866   8.705   2.732  2.4827 -0.6711  1.6392
  804MOL0     H10917  13.003   8.629   2.645 -1.6933 -1.9969  0.3028
  804MOL0     H10918  12.964   8.848   2.500 -2.6163  2.4968  0.0727
  804MOL0     H10919  12.860   8.888   2.640 -0.5636 -0.3540 -0.1046
  804MOL0     H10920  13.051   8.913   2.792  1.1729 -0.4912  0.3439
  804MOL0     H10921  13.081   9.001   2.642  5.0685 -1.1466 -0.6999
  804MOL0     H10922  13.227   8.745   2.698  3.0054  1.1805 -0.5969
  804MOL0     H10923  13.275   8.916   2.738  2.2874 -0.3498  0.2410
  804MOL0     H10924  13.175   8.845   2.455 -1.5573  0.3722  0.7713
  804MOL0     H10925  13.285   8.971   2.514 -3.0987  2.3087  0.3772
  804MOL0     H10926  13.378   8.770   2.371  0.8121 -0.8466  0.1162
  804MOL0     H10927  13.334   8.674   2.508 -2.0021  0.8886 -1.5296
  804MOL0     H10928  13.549   8.729   2.590  0.4842 -0.3208 -1.1972
  804MOL0     H10929  13.508   8.902   2.607 -0.1652 -0.4104 -0.8572
  804MOL0     H10930  13.626   8.774   2.348  0.0157 -0.3774  1.4365
  804MOL0     H10931  13.704   8.884   2.474 -2.2073  1.8090  2.6475
  804MOL0     H10932  12.795   8.481   2.729  2.5218  0.1416 -2.0568
  804MOL0     H10933  12.584   8.391   2.797 -0.8772 -3.2331 -1.5791
  804MOL0     H10934  12.185   8.234   2.650 -2.5457 -0.3305 -1.1254
  804MOL0     H10935  12.001   8.094   2.735  1.1748  0.5717 -1.3644
  804MOL0     H10936  10.354   8.880   1.861  2.0702 -1.8003  0.5365
  804MOL0     H10937  10.338   9.022   1.640  0.8709  2.1208 -1.3266
  804MOL0     H10938  10.599   9.242   1.315  1.5129  0.9789 -0.0130
  804MOL0     H10939  10.612   9.397   1.135  1.8763  0.8870  1.3052
  804MOL0     H10940  10.429   9.796   1.172  0.4424  0.1963  0.5306
  804MOL0     H10941  10.591   9.787   1.229 -1.5860  0.2095  0.0556
  804MOL0     H10942  10.554   9.950   1.049 -1.5063 -1.5946  2.5347
  804MOL0     H10943  10.533   9.836   0.924  0.7141  0.7594 -1.1833
  804MOL0     H10944  10.787   9.897   1.090 -0.5412  0.6732  0.3235
  804MOL0     H10945  10.780   9.757   0.986  3.4703  1.3837  1.1997
  804MOL0     H10946  10.746  10.034   0.848  1.0160 -0.5665 -2.0893
  804MOL0     H10947  10.738   9.868   0.780 -4.6407  0.6691  1.3556
  804MOL0     H10948  11.152   9.925   0.832  0.3038 -1.6554  2.1368
  804MOL0     H10949  10.403   9.692   1.376 -1.5295 -1.0593 -0.2516
  804MOL0     H10950  10.294   9.638   1.562 -2.4631 -2.6219 -0.7619
  804MOL0     H10951  10.268   9.477   1.587 -1.0279  0.5203 -0.6496
  804MOL0     H10952  10.417   9.550   1.658  0.2639 -2.6604  0.3987
  805MOL0     O10953   8.844   4.435   7.840 -0.2546 -0.1505  0.1772
  805MOL0     C10954   8.903   4.410   7.944 -0.3547  0.6914  0.5795
  805MOL0     O10955   9.031   4.450   7.979 -0.1897  0.0076  0.0476
  805MOL0     C10956   9.095   4.537   7.894 -0.1541  0.0969 -0.2700
  805MOL0     C10957   9.083   4.677   7.903 -0.0649 -0.0247 -1.5361
  805MOL0     C10958   9.164   4.761   7.826  0.8506 -0.2344  1.0445
  805MOL0     C10959   9.241   4.702   7.729 -0.3911  0.6583  0.1355
  805MOL0     O10960   9.313   4.788   7.651  0.2570  0.0132  0.9705
  805MOL0     C10961   9.377   4.731   7.533  0.5723  0.0534  0.2539
  805MOL0     C10962   9.451   4.836   7.455  0.4904 -0.7223 -0.6490
  805MOL0     C10963   9.564   4.899   7.540  0.5490 -0.3663  0.9182
  805MOL0     C10964   9.637   5.005   7.454 -0.7109  0.0722  0.3915
  805MOL0     C10965   9.715   5.113   7.529 -0.1018 -0.8812 -0.3118
  805MOL0     C10966   9.792   5.201   7.428 -0.6731 -0.3032 -0.9102
  805MOL0     C10967   9.919   5.253   7.492 -1.3383  0.2388  0.8554
  805MOL0     C10968   9.918   5.325   7.632 -0.4872 -0.1835 -0.8390
  805MOL0     N10969   9.815   5.425   7.661  0.6110 -0.2736 -0.2389
  805MOL0     C10970   9.812   5.554   7.618 -0.6642  0.9865 -0.7213
  805MOL0     C10971   9.712   5.615   7.679  0.0466  0.7216  0.4474
  805MOL0     C10972   9.693   5.759   7.672 -0.1134  0.1004  0.2828
  805MOL0     C10973   9.819   5.837   7.718  0.1588 -0.1791  0.1047
  805MOL0     C10974   9.845   5.808   7.867 -1.1548  0.6327 -0.8178
  805MOL0     C10975   9.967   5.873   7.925 -0.1302  0.2423 -0.3400
  805MOL0     O10976   9.981   5.818   8.059  0.8594 -0.1913 -0.2955
  805MOL0     C10977  10.112   5.840   8.099 -0.5266  0.3133  0.6058
  805MOL0     C10978  10.157   5.971   8.122  0.1092  0.8414  0.1526
  805MOL0     C10979  10.287   5.996   8.167  0.6215 -0.3428 -0.2247
  805MOL0     C10980  10.316   6.137   8.213  0.3427  0.0187 -0.4939
  805MOL0     C10981  10.372   5.885   8.195 -0.5779 -0.0208 -0.0238
  805MOL0     C10982  10.506   5.892   8.273  0.4366  0.6570  0.8672
  805MOL0     O10983  10.556   5.776   8.311 -0.7065  0.5935  0.1864
  805MOL0     C10984  10.680   5.760   8.378 -0.2659  1.0002  0.5421
  805MOL0     C10985  10.712   5.632   8.422 -0.0503  0.0276  0.4664
  805MOL0     C10986  10.831   5.606   8.486 -0.0599 -0.1150  0.9320
  805MOL0     C10987  10.928   5.704   8.515 -1.0294  0.4187 -0.1865
  805MOL0     O10988  11.046   5.650   8.579 -0.2350 -0.4236  0.2419
  805MOL0     C10989  11.093   5.726   8.699 -0.6137  0.2983  0.5143
  805MOL0     C10990  11.202   5.646   8.765  0.1507  0.0286 -0.2219
  805MOL0     C10991  11.144   5.535   8.856  0.2134  0.0866  0.2240
  805MOL0     C10992  11.262   5.452   8.915  0.3563 -0.3999  0.1433
  805MOL0     C10993  11.217   5.352   9.022  0.8717 -0.0247 -0.8671
  805MOL0     C10994  11.319   5.326   9.134 -0.1399 -0.1288  1.1228
  805MOL0     C10995  11.270   5.239   9.244 -0.3438  0.3758 -0.4929
  805MOL0     C10996  11.357   5.262   9.367 -0.3206  0.2285 -0.0263
  805MOL0    Cl10997  11.313   5.155   9.501  0.5190  0.4694 -0.5268
  805MOL0     C10998  10.887   5.834   8.481 -0.6221  0.2833 -0.0789
  805MOL0     C10999  10.771   5.861   8.419 -0.1388  0.5701 -0.0346
  805MOL0     O11000  10.558   5.997   8.263 -0.2219 -0.0880  0.0070
  805MOL0     C11001  10.326   5.758   8.162  0.1508 -0.5574 -0.1157
  805MOL0     C11002  10.196   5.736   8.109  0.9933  0.0934 -0.4026
  805MOL0     N11003   9.651   5.528   7.762  0.1972  1.2038  0.1694
  805MOL0     N11004   9.716   5.416   7.759  0.7806  0.7260 -0.0094
  805MOL0     C11005   9.246   4.558   7.716 -0.0857 -0.1892  0.9480
  805MOL0     C11006   9.172   4.482   7.795  0.4812  0.1117 -0.1325
  805MOL0     C11007   8.833   4.322   8.044 -0.3546  0.4054 -1.0093
  805MOL0     C11008   8.918   4.250   8.133 -0.1845  0.1049  0.1593
  805MOL0     C11009   8.865   4.165   8.232  0.7529  0.5310 -0.3801
  805MOL0     C11010   8.730   4.140   8.226 -0.2565  0.2964 -0.1000
  805MOL0     O11011   8.675   4.054   8.320 -0.0973 -0.1462  0.3138
  805MOL0     C11012   8.552   4.087   8.391  0.3438  0.2598 -0.9861
  805MOL0     C11013   8.568   4.004   8.515  0.1491  0.3717  0.4439
  805MOL0     C11014   8.550   3.851   8.485  0.6426  0.3227  0.6034
  805MOL0     C11015   8.466   3.765   8.587  0.0899 -0.0951  0.6204
  805MOL0     C11016   8.549   3.744   8.712  0.0134  1.6908 -0.6559
  805MOL0     C11017   8.626   3.719   8.801  0.5092 -0.6255 -0.4214
  805MOL0     C11018   8.640   4.214   8.147  1.1898  0.2371  0.1296
  805MOL0     C11019   8.690   4.306   8.059  1.1930  0.4119  0.2253
  805MOL0     C11020   8.583   4.356   7.962 -1.0732 -0.9550 -0.0818
  805MOL0     H11021   9.016   4.715   7.979  0.6083 -1.0126 -0.4051
  805MOL0     H11022   9.146   4.867   7.812  0.6099 -0.6231 -2.6695
  805MOL0     H11023   9.301   4.678   7.474  0.7916 -1.7687  1.5198
  805MOL0     H11024   9.458   4.659   7.553  0.7784  0.3293  0.4285
  805MOL0     H11025   9.487   4.792   7.361  0.8425 -0.3946 -0.6691
  805MOL0     H11026   9.378   4.915   7.436 -0.2673 -1.6876 -1.8958
  805MOL0     H11027   9.536   4.941   7.637  0.8468 -2.1947  1.8444
  805MOL0     H11028   9.645   4.829   7.567  0.7920 -0.4311  0.0448
  805MOL0     H11029   9.710   4.950   7.394 -0.5333  0.3073  0.3917
  805MOL0     H11030   9.562   5.047   7.387  1.8279  2.4566 -1.1546
  805MOL0     H11031   9.776   5.074   7.611  1.0281 -1.6698 -1.4809
  805MOL0     H11032   9.638   5.172   7.578  0.3007 -0.5098 -0.1214
  805MOL0     H11033   9.828   5.152   7.337  0.3336  0.0595 -0.7272
  805MOL0     H11034   9.721   5.275   7.388  1.5936  2.9353  0.6179
  805MOL0     H11035   9.967   5.319   7.419  1.8081  0.8892  3.3215
  805MOL0     H11036   9.992   5.173   7.504 -0.8187  1.0936  4.8388
  805MOL0     H11037   9.896   5.247   7.706 -1.6926  0.5660 -0.3753
  805MOL0     H11038  10.018   5.364   7.654 -0.7286 -0.4558  0.9183
  805MOL0     H11039   9.893   5.588   7.553  1.5300  0.3904  1.5596
  805MOL0     H11040   9.614   5.801   7.734 -0.7832  0.3109 -0.6938
  805MOL0     H11041   9.666   5.777   7.567 -2.1450  1.1828  0.9510
  805MOL0     H11042   9.902   5.809   7.652 -1.6752 -1.3438 -1.8494
  805MOL0     H11043   9.799   5.943   7.700  0.9131 -0.3680 -2.2229
  805MOL0     H11044   9.757   5.836   7.927 -1.2042 -1.7007  0.2922
  805MOL0     H11045   9.868   5.702   7.878  3.1096  1.3268 -1.5354
  805MOL0     H11046  10.043   5.859   7.848 -3.6921 -2.3657 -3.7133
  805MOL0     H11047   9.950   5.980   7.909 -0.5820  0.0995 -0.8326
  805MOL0     H11048  10.098   6.060   8.105  4.3521  4.3700  2.0066
  805MOL0     H11049  10.367   6.143   8.309  1.1849 -2.5254 -0.7050
  805MOL0     H11050  10.220   6.186   8.233  0.5507 -0.1435  0.9980
  805MOL0     H11051  10.377   6.195   8.143 -0.2559  0.2794 -0.8127
  805MOL0     H11052  10.638   5.560   8.389  1.0493 -0.6161 -0.6797
  805MOL0     H11053  10.848   5.499   8.494  1.3127 -0.1075 -1.0527
  805MOL0     H11054  11.130   5.827   8.681  0.0269 -0.2896 -1.8354
  805MOL0     H11055  11.008   5.726   8.768  0.8803 -1.5825  2.4883
  805MOL0     H11056  11.275   5.623   8.686  0.8566  3.0533 -0.5812
  805MOL0     H11057  11.242   5.721   8.834 -0.1651  1.2983 -1.3685
  805MOL0     H11058  11.077   5.479   8.790  0.0292 -0.1435  0.6059
  805MOL0     H11059  11.101   5.573   8.949  1.4983 -2.6027  2.0666
  805MOL0     H11060  11.334   5.517   8.964 -0.4143 -0.5098  1.4653
  805MOL0     H11061  11.322   5.401   8.839 -1.0879 -1.4431 -0.3402
  805MOL0     H11062  11.127   5.394   9.067 -0.0452 -1.2272 -1.5217
  805MOL0     H11063  11.183   5.254   8.987 -0.5093  0.3841 -0.7342
  805MOL0     H11064  11.355   5.421   9.175  0.2580 -1.1382  3.2491
  805MOL0     H11065  11.408   5.279   9.091  0.3239  2.8338 -1.5637
  805MOL0     H11066  11.278   5.136   9.207 -1.3524  0.7558 -1.8686
  805MOL0     H11067  11.166   5.258   9.274 -0.6736  0.5556 -1.6887
  805MOL0     H11068  11.358   5.367   9.397 -0.7595  1.3285 -3.4322
  805MOL0     H11069  11.452   5.228   9.324 -0.4751 -0.0695 -0.1294
  805MOL0     H11070  10.945   5.921   8.511 -0.5407  1.3675 -3.0737
  805MOL0     H11071  10.746   5.962   8.390 -2.8434 -0.4244 -1.5605
  805MOL0     H11072  10.377   5.663   8.172  0.5052 -0.4099 -0.4745
  805MOL0     H11073  10.169   5.634   8.085  1.4476  0.5521 -3.2992
  805MOL0     H11074   9.303   4.502   7.643 -3.8452 -1.2076 -1.4985
  805MOL0     H11075   9.168   4.375   7.778  2.7806 -0.5641  2.6588
  805MOL0     H11076   9.026   4.258   8.137 -0.0043 -2.2810  2.6043
  805MOL0     H11077   8.920   4.102   8.302  0.2238  0.7473  0.2381
  805MOL0     H11078   8.541   4.192   8.419 -0.6687 -0.7220  2.9050
  805MOL0     H11079   8.463   4.063   8.332  0.4326  0.1443 -1.0754
  805MOL0     H11080   8.497   4.044   8.588 -0.6610 -1.7555  0.9181
  805MOL0     H11081   8.667   4.024   8.557  0.6639 -1.4161  0.1815
  805MOL0     H11082   8.483   3.850   8.398 -0.0497 -2.3710  1.0770
  805MOL0     H11083   8.643   3.800   8.459  0.9253  1.4991 -0.8444
  805MOL0     H11084   8.438   3.662   8.561 -3.2136  0.2775  2.1644
  805MOL0     H11085   8.382   3.825   8.624 -1.8809 -1.4697 -1.3808
  805MOL0     H11086   8.690   3.692   8.883 -1.4657 -1.5045  0.9449
  805MOL0     H11087   8.534   4.192   8.141  1.3559 -0.1498 -2.9744
  805MOL0     H11088   8.558   4.294   7.875  0.4172  0.2708 -1.4587
  805MOL0     H11089   8.486   4.369   8.011 -0.6753  1.3786  0.2134
  805MOL0     H11090   8.622   4.452   7.927 -1.3838 -0.5657  0.6245
  806MOL0     O11091   3.457   9.441   7.168  0.0647  0.1875 -0.1820
  806MOL0     C11092   3.349   9.457   7.121  0.9822 -0.4865  0.3576
  806MOL0     O11093   3.271   9.561   7.150 -0.8098 -0.2516 -0.0204
  806MOL0     C11094   3.329   9.690   7.145  0.3181  0.6215 -0.6656
  806MOL0     C11095   3.283   9.794   7.219  0.0285 -0.5025 -0.3127
  806MOL0     C11096   3.336   9.921   7.220  0.6529 -0.2781  0.2330
  806MOL0     C11097   3.447   9.941   7.130  0.0299  0.7034  0.4696
  806MOL0     O11098   3.517  10.059   7.136  0.7109  0.3306  0.3178
  806MOL0     C11099   3.439  10.186   7.132  0.2230  0.0056  0.2445
  806MOL0     C11100   3.534  10.307   7.157 -0.4740 -1.2030  0.2602
  806MOL0     C11101   3.558  10.339   7.307 -0.4256 -0.3864 -0.4014
  806MOL0     C11102   3.679  10.429   7.333  0.4878  0.2069 -0.4893
  806MOL0     C11103   3.695  10.470   7.483 -0.2553 -0.2207 -0.3102
  806MOL0     C11104   3.841  10.454   7.524 -0.1507  0.4046  1.3613
  806MOL0     C11105   3.916  10.576   7.467  0.1909  0.5539 -0.7552
  806MOL0     C11106   4.055  10.589   7.520 -0.5299  0.0753 -0.1460
  806MOL0     N11107   4.126  10.467   7.499 -0.0939  0.2905  0.5159
  806MOL0     C11108   4.125  10.389   7.378 -0.1137  0.7823  0.1960
  806MOL0     C11109   4.226  10.298   7.406  0.6879 -0.3644 -0.4744
  806MOL0     C11110   4.289  10.205   7.306  0.6307 -0.2678  0.0908
  806MOL0     C11111   4.216  10.067   7.269 -0.4004  0.0111  0.3769
  806MOL0     C11112   4.266  10.018   7.126  0.1403 -0.2569  0.5583
  806MOL0     C11113   4.191   9.892   7.082 -0.3148  0.9471 -0.4382
  806MOL0     O11114   4.254   9.784   7.144  0.3248 -0.0509  0.0493
  806MOL0     C11115   4.255   9.664   7.085  0.4162  0.4760  0.9406
  806MOL0     C11116   4.331   9.566   7.157 -0.1850  0.0966 -0.0906
  806MOL0     C11117   4.358   9.436   7.113 -0.2212 -0.4479 -0.5074
  806MOL0     C11118   4.456   9.356   7.197 -0.5685 -0.0997  0.4365
  806MOL0     C11119   4.286   9.388   7.003  0.8197 -0.4476  0.0854
  806MOL0     C11120   4.295   9.245   6.951 -0.6688  0.1560 -0.3757
  806MOL0     O11121   4.208   9.213   6.852 -0.7357 -0.4656 -0.2282
  806MOL0     C11122   4.182   9.079   6.828  0.7940 -0.1769  0.1090
  806MOL0     C11123   4.158   8.994   6.931 -0.3398  0.0908  0.6310
  806MOL0     C11124   4.131   8.860   6.905  0.9233  0.4041 -0.0390
  806MOL0     C11125   4.113   8.811   6.777 -0.3126  0.7445 -1.0163
  806MOL0     O11126   4.082   8.672   6.764 -0.3291 -0.2063 -0.4301
  806MOL0     C11127   3.968   8.639   6.688  0.7631  0.2096 -0.5831
  806MOL0     C11128   3.908   8.502   6.728  0.2330  0.1406 -0.2585
  806MOL0     C11129   3.796   8.451   6.637  0.6131  0.0177  0.2151
  806MOL0     C11130   3.737   8.311   6.680  0.6802  0.1708 -0.5332
  806MOL0     C11131   3.679   8.229   6.568 -0.4509  0.3057 -0.4930
  806MOL0     C11132   3.585   8.123   6.632  0.5642  0.0211  0.9364
  806MOL0     C11133   3.533   8.013   6.529  0.1957  0.5453 -0.0400
  806MOL0     C11134   3.427   8.065   6.423 -0.6145 -0.4911 -0.3771
  806MOL0    Cl11135   3.284   8.127   6.496  0.1479 -0.5204 -0.0139
  806MOL0     C11136   4.125   8.902   6.675  0.3222  0.7906 -0.2157
  806MOL0     C11137   4.161   9.031   6.699  0.2592 -0.4219 -0.0536
  806MOL0     O11138   4.362   9.162   7.009 -0.3790  0.0906 -0.1878
  806MOL0     C11139   4.192   9.482   6.941  0.3563 -0.5410  0.1008
  806MOL0     C11140   4.178   9.614   6.976  0.7188  0.1791 -0.4768
  806MOL0     N11141   4.266  10.310   7.540  0.4970  0.0964  0.2041
  806MOL0     N11142   4.210  10.412   7.588 -0.0047 -0.2398 -0.2905
  806MOL0     C11143   3.492   9.842   7.052 -0.2395  0.3136  0.7508
  806MOL0     C11144   3.427   9.710   7.055 -0.2300 -0.4048  1.0327
  806MOL0     C11145   3.286   9.326   7.060  0.9327 -0.0186 -0.3343
  806MOL0     C11146   3.378   9.225   7.012  0.1848  0.3100 -0.1408
  806MOL0     C11147   3.319   9.103   6.974 -0.2718  0.0760 -0.0661
  806MOL0     C11148   3.181   9.073   6.972 -0.3453  0.1733  0.2240
  806MOL0     O11149   3.147   8.947   6.922 -0.1399 -0.5363 -0.2131
  806MOL0     C11150   3.012   8.909   6.921  0.4372  0.1980  0.7171
  806MOL0     C11151   2.975   8.821   6.802 -0.4741 -0.4282 -0.8490
  806MOL0     C11152   3.003   8.668   6.823 -0.5470  0.0626 -0.1568
  806MOL0     C11153   3.153   8.644   6.849  0.5768  0.0860 -0.3440
  806MOL0     C11154   3.195   8.511   6.853 -0.4971 -0.2720 -0.6779
  806MOL0     C11155   3.245   8.398   6.845  0.3895 -0.0642  1.0410
  806MOL0     C11156   3.097   9.171   7.025 -0.1572 -0.1874  0.3551
  806MOL0     C11157   3.148   9.300   7.063  0.3062  0.4045  0.0107
  806MOL0     C11158   3.040   9.408   7.105 -0.5052  0.1718 -0.3864
  806MOL0     H11159   3.206   9.774   7.294  1.2963  3.8305  2.5066
  806MOL0     H11160   3.304   9.997   7.291 -1.3930 -0.1043 -0.7826
  806MOL0     H11161   3.370  10.183   7.217  0.5660 -1.1719  0.4995
  806MOL0     H11162   3.388  10.193   7.036 -1.0849  1.6241  1.0082
  806MOL0     H11163   3.631  10.285   7.112 -0.3439 -0.2888  0.0816
  806MOL0     H11164   3.483  10.385   7.099  2.0107  0.4239  0.0874
  806MOL0     H11165   3.475  10.391   7.356  1.1059  1.4656  0.3810
  806MOL0     H11166   3.577  10.248   7.365 -0.4862 -1.8517 -2.5536
  806MOL0     H11167   3.767  10.374   7.297  0.6390 -1.0629  1.6174
  806MOL0     H11168   3.682  10.519   7.272 -2.5978 -0.6162 -2.0614
  806MOL0     H11169   3.647  10.397   7.548 -0.0199  1.0764  1.3751
  806MOL0     H11170   3.661  10.573   7.500 -0.5421 -0.3973  0.1816
  806MOL0     H11171   3.847  10.466   7.633  1.9192 -1.4861  1.5229
  806MOL0     H11172   3.885  10.359   7.494 -0.9313  0.5646 -0.3950
  806MOL0     H11173   3.856  10.667   7.482 -0.3564  0.1726 -0.6109
  806MOL0     H11174   3.912  10.566   7.358  1.7117  2.3663 -1.0302
  806MOL0     H11175   4.119  10.662   7.469 -1.2318  1.3537  0.7309
  806MOL0     H11176   4.063  10.621   7.624  2.0239 -1.9496  0.3820
  806MOL0     H11177   4.064  10.390   7.288 -2.3413 -2.1797  1.5187
  806MOL0     H11178   4.391  10.182   7.339  0.8372 -3.4677 -2.3322
  806MOL0     H11179   4.309  10.269   7.220  2.5464 -2.0285 -0.8695
  806MOL0     H11180   4.248   9.999   7.349 -0.3128  2.7721  2.8483
  806MOL0     H11181   4.108  10.081   7.279 -0.6376 -0.1198 -1.5353
  806MOL0     H11182   4.239  10.103   7.064 -0.5487 -0.1167  1.0310
  806MOL0     H11183   4.375  10.012   7.135  0.0931  0.9219  2.4100
  806MOL0     H11184   4.087   9.894   7.117 -0.6179  0.5589 -1.2758
  806MOL0     H11185   4.189   9.875   6.974  0.1913 -3.6346  0.0878
  806MOL0     H11186   4.385   9.599   7.245  1.2645  2.0522 -1.5958
  806MOL0     H11187   4.512   9.417   7.269 -4.3124  0.6310  3.0119
  806MOL0     H11188   4.529   9.301   7.138 -1.3590 -0.2331 -0.4282
  806MOL0     H11189   4.408   9.279   7.257  0.1131  0.0099  1.1497
  806MOL0     H11190   4.163   9.020   7.037  2.2380  2.1302  0.0982
  806MOL0     H11191   4.114   8.792   6.989  1.0944 -0.3388 -0.5905
  806MOL0     H11192   3.888   8.713   6.698 -0.0227 -0.7618  0.6845
  806MOL0     H11193   3.997   8.616   6.585  2.5145 -0.6021  0.0670
  806MOL0     H11194   3.998   8.440   6.731  2.1463  2.7014 -1.1840
  806MOL0     H11195   3.859   8.508   6.825 -0.7883  0.3434 -0.7792
  806MOL0     H11196   3.843   8.434   6.540  0.5630  0.1388  0.1697
  806MOL0     H11197   3.715   8.525   6.632  1.2235  1.0622  3.4443
  806MOL0     H11198   3.670   8.313   6.766  0.2453 -1.6684 -0.8006
  806MOL0     H11199   3.822   8.255   6.720  0.0744 -0.4632 -0.1110
  806MOL0     H11200   3.614   8.282   6.498 -1.0719 -0.7835 -0.7591
  806MOL0     H11201   3.763   8.184   6.514 -0.3062 -0.2301  0.1598
  806MOL0     H11202   3.498   8.178   6.668  1.1563  0.0501  2.4443
  806MOL0     H11203   3.629   8.071   6.718  2.3313 -1.0172 -0.5140
  806MOL0     H11204   3.477   7.937   6.585  2.5979 -2.6493 -1.6105
  806MOL0     H11205   3.606   7.949   6.477  0.5082 -0.9352  2.0749
  806MOL0     H11206   3.391   7.987   6.355 -0.8991  1.3021 -2.3942
  806MOL0     H11207   3.480   8.138   6.361  0.3596 -2.2728 -1.7240
  806MOL0     H11208   4.116   8.850   6.581  1.9996 -2.0858  1.0683
  806MOL0     H11209   4.159   9.104   6.619  0.4627  2.1908  2.1949
  806MOL0     H11210   4.144   9.445   6.851  0.4819 -0.1942 -0.1116
  806MOL0     H11211   4.100   9.676   6.933 -0.6408  0.9918  2.8522
  806MOL0     H11212   3.572   9.850   6.979  0.6726  1.3791  1.8277
  806MOL0     H11213   3.450   9.643   6.972  1.8412 -1.4404  2.3544
  806MOL0     H11214   3.486   9.232   7.010  0.2007  0.2554 -2.0601
  806MOL0     H11215   3.383   9.027   6.931 -0.7628 -0.4548  0.1261
  806MOL0     H11216   2.989   8.848   7.009  1.2711 -0.2480  0.6277
  806MOL0     H11217   2.952   9.000   6.920 -1.2082 -0.8396 -0.1903
  806MOL0     H11218   3.037   8.846   6.715 -1.1411 -0.0893 -1.2352
  806MOL0     H11219   2.868   8.834   6.785 -0.8255  1.1979  2.1576
  806MOL0     H11220   2.931   8.628   6.894  0.1717  1.9934  1.7774
  806MOL0     H11221   2.975   8.618   6.730 -4.5954  0.7044  0.5316
  806MOL0     H11222   3.186   8.688   6.943  1.8821 -0.1571 -0.6606
  806MOL0     H11223   3.207   8.699   6.771  1.1854 -0.1645 -0.1081
  806MOL0     H11224   3.277   8.296   6.838 -1.4734 -0.5637 -1.0975
  806MOL0     H11225   2.991   9.151   7.031 -0.1047 -1.5504 -2.1114
  806MOL0     H11226   3.062   9.502   7.054 -2.0042  1.5683  1.3606
  806MOL0     H11227   2.949   9.359   7.070  2.0820 -2.9607 -3.3268
  806MOL0     H11228   3.044   9.419   7.214  1.4051 -2.1155 -0.1473
  807MOL0     O11229   6.744   1.871   0.508 -0.3259  0.0436  0.3450
  807MOL0     C11230   6.799   1.763   0.538  0.2953 -0.6347  0.2152
  807MOL0     O11231   6.820   1.721   0.666 -0.1226  0.9647  0.6172
  807MOL0     C11232   6.737   1.780   0.762  0.6502  1.1213 -0.9711
  807MOL0     C11233   6.794   1.820   0.884  0.5139  0.6867 -0.6826
  807MOL0     C11234   6.713   1.869   0.990  0.6152 -0.3210  0.0847
  807MOL0     C11235   6.572   1.877   0.981  0.1618  0.4736  0.3262
  807MOL0     O11236   6.491   1.916   1.081 -0.7111  0.3190  0.6064
  807MOL0     C11237   6.546   1.908   1.211  0.7578  0.3594 -0.1728
  807MOL0     C11238   6.444   1.944   1.326  0.0506  0.1211 -0.4850
  807MOL0     C11239   6.341   1.832   1.334 -1.1206  0.1808  0.0277
  807MOL0     C11240   6.245   1.871   1.449  0.8147 -0.6624 -0.3061
  807MOL0     C11241   6.114   1.781   1.434 -0.3662 -0.1920  0.4036
  807MOL0     C11242   5.992   1.864   1.478 -0.0113 -0.8289 -0.7536
  807MOL0     C11243   5.987   1.879   1.633  0.4092 -0.1827 -0.1395
  807MOL0     C11244   5.872   1.967   1.673 -0.3091 -0.7180 -0.8887
  807MOL0     N11245   5.854   1.978   1.823  0.1169 -0.1699 -0.0204
  807MOL0     C11246   5.844   2.101   1.885 -0.1668 -0.1482 -0.7942
  807MOL0     C11247   5.825   2.069   2.017 -0.0270  0.3844  0.0850
  807MOL0     C11248   5.804   2.153   2.138 -0.2939 -0.2810  0.1503
  807MOL0     C11249   5.942   2.197   2.194 -0.7147  0.1591  0.3199
  807MOL0     C11250   5.941   2.265   2.332 -0.3094  0.7589 -0.1394
  807MOL0     C11251   6.076   2.240   2.403  0.0653 -0.7034  0.3129
  807MOL0     O11252   6.190   2.284   2.322  0.5868  0.0610 -0.1649
  807MOL0     C11253   6.321   2.243   2.352 -0.4690  0.0184 -0.1217
  807MOL0     C11254   6.403   2.248   2.237  0.4156  0.1258  0.1399
  807MOL0     C11255   6.535   2.224   2.251 -0.8382  0.6487  0.8677
  807MOL0     C11256   6.623   2.269   2.134 -0.0302 -0.0751  0.0948
  807MOL0     C11257   6.581   2.156   2.364 -0.4568 -1.2067 -0.7716
  807MOL0     C11258   6.715   2.110   2.391 -0.3261  0.1469  0.1944
  807MOL0     O11259   6.816   2.164   2.324 -0.1473 -0.2446 -0.0765
  807MOL0     C11260   6.935   2.091   2.296  0.7685  0.1817 -0.2972
  807MOL0     C11261   7.057   2.148   2.341 -0.4165 -0.6602  0.7910
  807MOL0     C11262   7.174   2.106   2.289 -0.6279 -0.5130  0.1596
  807MOL0     C11263   7.178   1.992   2.204  0.5014  0.0015 -0.1069
  807MOL0     O11264   7.286   1.933   2.143  1.2287 -0.5652 -0.1637
  807MOL0     C11265   7.414   1.992   2.168 -0.0771 -0.5188 -0.0486
  807MOL0     C11266   7.509   1.890   2.239  0.3312 -0.2288 -0.1209
  807MOL0     C11267   7.648   1.959   2.233  0.0510 -0.2164  0.0336
  807MOL0     C11268   7.759   1.890   2.313 -0.3610  0.5269  0.7232
  807MOL0     C11269   7.896   1.952   2.283 -0.2438 -0.6063 -0.2263
  807MOL0     C11270   8.013   1.866   2.318  0.5499 -0.0124  0.5315
  807MOL0     C11271   8.138   1.940   2.281  0.4884 -0.3320  0.4806
  807MOL0     C11272   8.252   1.841   2.262 -0.0869  0.4312  0.0188
  807MOL0    Cl11273   8.404   1.935   2.233  0.2594 -0.7702 -0.2308
  807MOL0     C11274   7.055   1.932   2.166  0.5082 -0.5954  0.4431
  807MOL0     C11275   6.932   1.986   2.206 -0.1102 -0.4399 -0.0771
  807MOL0     O11276   6.730   2.025   2.476 -0.5572 -0.8150 -0.3495
  807MOL0     C11277   6.496   2.138   2.468 -0.4927 -0.2509 -0.1105
  807MOL0     C11278   6.368   2.187   2.471 -0.1927  0.1208  0.6736
  807MOL0     N11279   5.817   1.935   2.032  0.7410 -0.7201 -0.0967
  807MOL0     N11280   5.821   1.879   1.915 -0.1066 -0.2162  0.3834
  807MOL0     C11281   6.515   1.839   0.856  0.1086 -0.4647  0.0945
  807MOL0     C11282   6.597   1.790   0.748 -0.4552  0.3190  0.0054
  807MOL0     C11283   6.827   1.671   0.431  0.2701  0.0773  0.8384
  807MOL0     C11284   6.773   1.702   0.295 -0.1914 -0.0106 -0.5640
  807MOL0     C11285   6.785   1.601   0.196  0.1511 -0.3329 -0.0753
  807MOL0     C11286   6.863   1.483   0.209 -0.0466 -0.0103 -0.7049
  807MOL0     O11287   6.894   1.396   0.114  0.6102 -0.3514 -0.0488
  807MOL0     C11288   6.861   1.419  -0.020  0.0743  0.4690 -0.0290
  807MOL0     C11289   6.935   1.319  -0.109  0.5672  0.3372  0.0545
  807MOL0     C11290   6.877   1.173  -0.112 -0.5875  0.0021  0.3148
  807MOL0     C11291   6.746   1.174  -0.180  0.2494  0.7620 -0.0641
  807MOL0     C11292   6.683   1.035  -0.181 -0.5038 -0.8883 -0.5871
  807MOL0     C11293   6.656   0.917  -0.155  0.3247  0.3758 -0.3592
  807MOL0     C11294   6.917   1.460   0.336 -0.4320  0.4372 -0.1251
  807MOL0     C11295   6.910   1.549   0.441  0.4271 -0.3672  0.1115
  807MOL0     C11296   6.989   1.503   0.563  0.1639 -0.1910  0.5582
  807MOL0     H11297   6.900   1.810   0.905  0.2078  0.6861  1.0402
  807MOL0     H11298   6.763   1.898   1.082  1.3917 -0.3133 -0.3297
  807MOL0     H11299   6.629   1.979   1.212 -0.3291  1.9061 -3.7503
  807MOL0     H11300   6.591   1.810   1.226 -1.1859 -0.4227  0.9661
  807MOL0     H11301   6.488   1.968   1.423 -1.6982  1.4062  0.0353
  807MOL0     H11302   6.392   2.036   1.299 -2.0570  0.3795  3.5580
  807MOL0     H11303   6.294   1.813   1.237 -1.0132  0.5687 -0.1039
  807MOL0     H11304   6.389   1.741   1.370 -2.8334 -0.1881  1.4929
  807MOL0     H11305   6.286   1.837   1.544 -1.0425 -1.1155  0.3672
  807MOL0     H11306   6.218   1.977   1.441 -0.8343 -1.1484 -2.0655
  807MOL0     H11307   6.121   1.690   1.494 -1.0854  0.3115  1.2783
  807MOL0     H11308   6.094   1.742   1.333 -2.6179 -1.0498  1.1226
  807MOL0     H11309   5.990   1.968   1.446 -3.2312 -0.1013  1.3380
  807MOL0     H11310   5.897   1.821   1.444 -0.7839  0.2452 -0.0051
  807MOL0     H11311   6.082   1.929   1.657  1.2399 -1.0526 -1.5299
  807MOL0     H11312   5.976   1.782   1.682 -2.8571  0.8755  1.5292
  807MOL0     H11313   5.890   2.065   1.629  2.1008 -0.4901  0.4566
  807MOL0     H11314   5.778   1.919   1.644 -1.2268 -0.5834  1.6287
  807MOL0     H11315   5.852   2.199   1.838  0.8667 -1.0372 -2.5278
  807MOL0     H11316   5.745   2.104   2.216 -0.1952 -2.6982 -1.2029
  807MOL0     H11317   5.751   2.242   2.103  0.5535  1.5326  3.1185
  807MOL0     H11318   5.998   2.105   2.211 -1.7469 -1.0925 -2.5303
  807MOL0     H11319   5.995   2.268   2.130  3.3360 -0.4423  2.6029
  807MOL0     H11320   5.918   2.372   2.324 -1.0861  0.6191  0.1718
  807MOL0     H11321   5.861   2.219   2.390 -0.2713  1.4719  0.5061
  807MOL0     H11322   6.072   2.298   2.496 -1.6723  0.4227 -0.4050
  807MOL0     H11323   6.091   2.132   2.413  1.3653 -0.4205  1.8029
  807MOL0     H11324   6.366   2.286   2.143  1.4144 -0.2446 -0.4177
  807MOL0     H11325   6.563   2.329   2.065 -0.5274  0.8329  1.2816
  807MOL0     H11326   6.683   2.189   2.090  1.0276  1.3788 -1.2534
  807MOL0     H11327   6.692   2.341   2.180 -1.8298  0.9285  1.3170
  807MOL0     H11328   7.045   2.240   2.397 -3.0788 -1.0461  0.9767
  807MOL0     H11329   7.255   2.175   2.314 -0.0778 -1.1297  0.0975
  807MOL0     H11330   7.451   2.013   2.067 -1.3915  1.6970 -0.1239
  807MOL0     H11331   7.410   2.090   2.215 -0.0476 -0.5908  0.1036
  807MOL0     H11332   7.486   1.872   2.344 -0.5156 -4.1442 -0.8305
  807MOL0     H11333   7.501   1.795   2.186 -0.6308 -0.9088  1.1767
  807MOL0     H11334   7.645   2.065   2.260 -3.2195  0.7289 -3.2251
  807MOL0     H11335   7.679   1.958   2.128 -2.3181  0.0211 -0.7312
  807MOL0     H11336   7.752   1.783   2.289 -0.0495 -0.1518  3.3751
  807MOL0     H11337   7.723   1.904   2.416 -0.7176  2.4645  0.3812
  807MOL0     H11338   7.909   1.959   2.175  0.5705 -1.3998 -0.1911
  807MOL0     H11339   7.912   2.054   2.318  3.2920 -1.6728  1.8062
  807MOL0     H11340   8.016   1.775   2.259 -1.8630 -0.5920  1.1994
  807MOL0     H11341   8.015   1.829   2.421 -0.0905 -0.5710  0.3478
  807MOL0     H11342   8.170   2.009   2.360  0.2748 -0.4256  0.6494
  807MOL0     H11343   8.127   2.010   2.197  1.7645 -1.0288 -0.3012
  807MOL0     H11344   8.238   1.778   2.174  3.3754  1.5958 -1.5401
  807MOL0     H11345   8.239   1.780   2.352 -0.4105 -1.7769 -1.4536
  807MOL0     H11346   7.064   1.855   2.089  0.8100  0.7697 -0.9369
  807MOL0     H11347   6.834   1.946   2.181  0.0399 -1.5761  1.0444
  807MOL0     H11348   6.534   2.104   2.564  0.1289 -2.5160 -1.0971
  807MOL0     H11349   6.302   2.170   2.555 -1.4478  0.3876 -0.2217
  807MOL0     H11350   6.409   1.852   0.838  0.3615 -1.9482 -3.3406
  807MOL0     H11351   6.538   1.760   0.662 -1.9901  0.2017  1.0517
  807MOL0     H11352   6.718   1.792   0.270  0.3199  0.0221 -1.5864
  807MOL0     H11353   6.741   1.624   0.099 -0.3842  4.2242  1.0144
  807MOL0     H11354   6.753   1.405  -0.031 -0.1212  0.4415  1.6854
  807MOL0     H11355   6.878   1.525  -0.040  1.1001  1.0595  3.3396
  807MOL0     H11356   7.033   1.313  -0.060 -0.0111  2.2489  1.5525
  807MOL0     H11357   6.957   1.347  -0.213  3.1150 -3.7482 -0.7459
  807MOL0     H11358   6.955   1.116  -0.163 -0.4388 -0.0268  0.5739
  807MOL0     H11359   6.872   1.130  -0.012  1.8131 -2.7226 -0.6011
  807MOL0     H11360   6.741   1.219  -0.280  2.4609 -0.8161 -0.9706
  807MOL0     H11361   6.680   1.241  -0.125 -2.1023 -0.0338 -1.7233
  807MOL0     H11362   6.631   0.818  -0.121  0.1041  0.4710 -0.2350
  807MOL0     H11363   6.972   1.369   0.355 -0.3887  0.6865  0.9906
  807MOL0     H11364   7.064   1.426   0.546  0.3441 -0.6012  2.8994
  807MOL0     H11365   7.047   1.593   0.583  3.8135 -0.6755 -5.4783
  807MOL0     H11366   6.937   1.461   0.649  1.3219 -3.8632 -0.3382
  808MOL0     O11367   6.459   7.582   4.637  0.1637 -0.6280 -0.1462
  808MOL0     C11368   6.356   7.650   4.631  1.3105 -0.5511  0.5029
  808MOL0     O11369   6.316   7.738   4.527  0.0684 -0.1896  0.0487
  808MOL0     C11370   6.381   7.712   4.413 -0.0589  0.3940  0.2119
  808MOL0     C11371   6.519   7.747   4.389  0.8968 -0.1798 -0.4852
  808MOL0     C11372   6.568   7.722   4.265 -0.1321 -0.0195  0.8516
  808MOL0     C11373   6.508   7.664   4.154 -1.1370  0.0852  0.4458
  808MOL0     O11374   6.561   7.640   4.031 -0.3227 -0.2127 -0.4716
  808MOL0     C11375   6.704   7.667   4.017  0.7210  0.5710  0.1540
  808MOL0     C11376   6.751   7.612   3.880 -0.7369 -0.9587 -0.5348
  808MOL0     C11377   6.702   7.705   3.768 -1.0519 -0.7848 -0.4234
  808MOL0     C11378   6.693   7.618   3.647 -0.1050 -0.8892 -0.0601
  808MOL0     C11379   6.624   7.698   3.536  0.2269 -0.4347  0.9657
  808MOL0     C11380   6.622   7.625   3.416  0.0054 -0.2072  0.2945
  808MOL0     C11381   6.575   7.711   3.302 -0.1709  0.1253 -0.1046
  808MOL0     C11382   6.565   7.626   3.168 -0.1039 -0.4376  0.6297
  808MOL0     N11383   6.472   7.515   3.167 -0.1011 -0.1726  0.0265
  808MOL0     C11384   6.469   7.418   3.071  0.2137  0.0420  0.0768
  808MOL0     C11385   6.358   7.344   3.084  0.7214  0.5793  0.5047
  808MOL0     C11386   6.328   7.229   3.005 -0.2163  0.5255 -0.5391
  808MOL0     C11387   6.189   7.173   3.029  0.4594 -0.2575  0.2382
  808MOL0     C11388   6.154   7.066   2.928  0.3890 -0.0590 -0.1701
  808MOL0     C11389   6.010   7.022   2.934 -0.2582 -0.3586 -0.6212
  808MOL0     O11390   6.005   6.882   2.888  0.2017  0.0209 -0.9259
  808MOL0     C11391   5.897   6.808   2.916  0.3384 -0.6837 -0.2894
  808MOL0     C11392   5.908   6.672   2.915 -0.9721 -0.0888  0.2997
  808MOL0     C11393   5.816   6.582   2.965  0.7163  0.0984 -0.4890
  808MOL0     C11394   5.853   6.439   2.941  0.9317 -0.1067  0.3402
  808MOL0     C11395   5.704   6.633   3.036  0.2354  0.7896  0.3795
  808MOL0     C11396   5.604   6.551   3.103  0.4010 -0.0319 -0.7414
  808MOL0     O11397   5.626   6.418   3.088  0.3408  0.0531  0.3018
  808MOL0     C11398   5.558   6.326   3.175 -0.4781  1.1951 -0.2642
  808MOL0     C11399   5.494   6.354   3.300  0.8824  0.4095  0.0329
  808MOL0     C11400   5.434   6.250   3.371 -0.1909  0.6959 -0.1970
  808MOL0     C11401   5.424   6.119   3.322 -0.1022 -0.1463  0.5424
  808MOL0     O11402   5.347   6.028   3.384  0.3713  1.1199 -0.3894
  808MOL0     C11403   5.213   6.054   3.425  0.5963  0.6074 -0.6900
  808MOL0     C11404   5.153   5.917   3.467  0.3062  0.7122  0.2226
  808MOL0     C11405   5.010   5.934   3.535 -1.0019 -0.3251 -0.1381
  808MOL0     C11406   4.961   5.822   3.633  0.4414  0.9234 -0.1313
  808MOL0     C11407   4.811   5.789   3.635 -0.4747 -0.4469  0.1820
  808MOL0     C11408   4.728   5.911   3.687  0.3686  0.6061 -0.7175
  808MOL0     C11409   4.584   5.856   3.691  0.0341 -0.2807  0.9100
  808MOL0     C11410   4.505   5.920   3.585  0.4022  0.1188 -0.0647
  808MOL0    Cl11411   4.348   5.840   3.569  0.0759  0.2032  0.0453
  808MOL0     C11412   5.485   6.090   3.198 -0.1942 -0.0996  0.0410
  808MOL0     C11413   5.555   6.190   3.134 -0.5517  0.0050  0.1547
  808MOL0     O11414   5.502   6.608   3.145 -0.2329 -0.8913  0.1857
  808MOL0     C11415   5.691   6.780   3.038 -0.1713  0.4642 -0.0051
  808MOL0     C11416   5.775   6.861   2.971 -0.1169 -0.7580  0.4363
  808MOL0     N11417   6.290   7.396   3.189 -0.3701  0.3421 -0.5626
  808MOL0     N11418   6.353   7.502   3.235 -0.4028 -0.4165  0.2134
  808MOL0     C11419   6.379   7.631   4.186  0.5581  0.0684 -0.3174
  808MOL0     C11420   6.316   7.644   4.310 -0.6642 -0.7201  0.1433
  808MOL0     C11421   6.254   7.645   4.734  0.2347  0.5653  0.4143
  808MOL0     C11422   6.121   7.666   4.691  0.0646 -0.0406  0.2171
  808MOL0     C11423   6.013   7.661   4.774 -0.2856 -0.5791 -0.3990
  808MOL0     C11424   6.035   7.649   4.912  0.1063  0.3335  0.1861
  808MOL0     O11425   5.925   7.648   4.990  0.6264 -0.0281  0.6267
  808MOL0     C11426   5.932   7.615   5.128  0.6717 -0.0516  0.7229
  808MOL0     C11427   5.792   7.625   5.198 -1.1483 -0.1371 -0.3999
  808MOL0     C11428   5.687   7.557   5.113  0.8835 -1.1510  0.0339
  808MOL0     C11429   5.704   7.408   5.137 -0.2490  0.4807 -0.7196
  808MOL0     C11430   5.596   7.333   5.071  0.0684 -0.1625  0.0780
  808MOL0     C11431   5.492   7.284   5.025 -0.4997 -0.0786  0.1200
  808MOL0     C11432   6.157   7.613   4.952 -0.2711 -0.1911  0.2573
  808MOL0     C11433   6.272   7.610   4.868  0.6822  0.4653  0.0904
  808MOL0     C11434   6.403   7.567   4.926 -0.4998  0.5098 -1.4483
  808MOL0     H11435   6.587   7.798   4.457  2.0560 -0.9912 -0.9970
  808MOL0     H11436   6.664   7.767   4.241 -1.3876  0.2893 -5.0188
  808MOL0     H11437   6.754   7.611   4.097  1.9606  0.2072 -0.8301
  808MOL0     H11438   6.725   7.774   4.024  0.0955  0.6149  1.6790
  808MOL0     H11439   6.859   7.601   3.871 -0.6731 -3.1751  1.8504
  808MOL0     H11440   6.705   7.513   3.874 -1.6541 -0.6042  0.2781
  808MOL0     H11441   6.612   7.763   3.790  0.2812  2.1368 -2.0011
  808MOL0     H11442   6.776   7.785   3.754 -2.4986  0.9446  1.2218
  808MOL0     H11443   6.795   7.595   3.617 -0.4819  0.0694 -2.2468
  808MOL0     H11444   6.634   7.528   3.668  1.2877 -1.5229  1.3270
  808MOL0     H11445   6.683   7.788   3.515 -2.1564  1.6358  2.5893
  808MOL0     H11446   6.528   7.734   3.573 -0.5578 -2.0697  0.5828
  808MOL0     H11447   6.725   7.596   3.390 -0.1039  0.7760 -1.3495
  808MOL0     H11448   6.548   7.545   3.423 -1.4639  1.1009  0.3037
  808MOL0     H11449   6.644   7.794   3.285  0.4472 -0.1799  0.8186
  808MOL0     H11450   6.477   7.757   3.320 -0.4910 -0.3545 -0.5943
  808MOL0     H11451   6.541   7.687   3.080  3.8469 -0.5928 -0.7419
  808MOL0     H11452   6.663   7.583   3.144  0.6622  2.4057 -1.9929
  808MOL0     H11453   6.548   7.403   2.998  1.2268 -2.8161  1.5765
  808MOL0     H11454   6.403   7.158   3.042 -1.1074 -0.2976 -0.2973
  808MOL0     H11455   6.339   7.249   2.898 -0.7795  2.8370 -0.2316
  808MOL0     H11456   6.170   7.135   3.130  2.0178 -0.0531  0.6293
  808MOL0     H11457   6.118   7.254   3.010 -0.1207 -1.1045 -1.4533
  808MOL0     H11458   6.186   7.101   2.829  2.9087  1.2664  1.0314
  808MOL0     H11459   6.210   6.978   2.958 -0.0992  0.1496  1.4325
  808MOL0     H11460   5.968   7.049   3.032  3.0396  3.2715  0.0645
  808MOL0     H11461   5.963   7.087   2.861  1.1065  0.7547 -0.5601
  808MOL0     H11462   6.003   6.631   2.882 -1.2860 -2.4327  2.1108
  808MOL0     H11463   5.854   6.391   3.039 -0.8016  0.9631  0.9232
  808MOL0     H11464   5.944   6.426   2.881 -0.9969  0.9314 -3.0866
  808MOL0     H11465   5.774   6.392   2.881 -1.2570  1.9310  1.4650
  808MOL0     H11466   5.492   6.456   3.336 -0.3154  0.4047  0.0402
  808MOL0     H11467   5.394   6.278   3.468  0.7351  1.8750 -0.1413
  808MOL0     H11468   5.239   6.119   3.509  1.9999 -2.3999  1.3995
  808MOL0     H11469   5.141   6.105   3.360  0.5573  0.1780 -0.9876
  808MOL0     H11470   5.137   5.852   3.381  1.8870 -2.6495  2.2966
  808MOL0     H11471   5.219   5.865   3.537  1.3868  1.7746  0.0130
  808MOL0     H11472   4.930   5.941   3.461 -1.1569  1.2177  0.1400
  808MOL0     H11473   5.013   6.024   3.597  0.1212 -1.4531  1.5154
  808MOL0     H11474   4.997   5.848   3.733  1.9803  0.3842 -0.5197
  808MOL0     H11475   5.020   5.734   3.605 -0.1173  0.1408  1.0340
  808MOL0     H11476   4.782   5.759   3.534  1.2695  0.2857 -0.5890
  808MOL0     H11477   4.790   5.701   3.696 -1.1984 -0.8474 -0.6282
  808MOL0     H11478   4.747   6.003   3.629  0.8775  0.5407 -0.6559
  808MOL0     H11479   4.759   5.930   3.790  0.7585 -0.2162 -0.6813
  808MOL0     H11480   4.539   5.843   3.790 -2.2295 -2.5955 -0.3132
  808MOL0     H11481   4.571   5.753   3.658  0.1980  0.4115 -1.4672
  808MOL0     H11482   4.562   5.919   3.492  0.9292  2.0131  0.1823
  808MOL0     H11483   4.501   6.027   3.609  1.2628 -0.1706  1.5520
  808MOL0     H11484   5.483   5.987   3.165 -2.6086 -1.0306  2.6663
  808MOL0     H11485   5.624   6.165   3.054 -0.5234  3.7534 -1.2089
  808MOL0     H11486   5.614   6.841   3.085  1.7462  2.4968  0.6724
  808MOL0     H11487   5.756   6.967   2.980  0.8263 -0.3454 -1.8416
  808MOL0     H11488   6.322   7.580   4.109  0.1641  0.6805 -0.4328
  808MOL0     H11489   6.211   7.619   4.324 -1.3251  2.2611  1.3201
  808MOL0     H11490   6.097   7.684   4.587 -1.4324 -1.6702  0.2368
  808MOL0     H11491   5.916   7.681   4.728  0.1281  0.0643 -1.0290
  808MOL0     H11492   5.966   7.511   5.141 -0.5726 -0.3066  2.2219
  808MOL0     H11493   6.022   7.662   5.171  0.8704 -1.0525  1.4567
  808MOL0     H11494   5.771   7.729   5.224 -1.4886 -0.5934  1.3309
  808MOL0     H11495   5.798   7.584   5.300 -2.8042 -0.6950 -0.4944
  808MOL0     H11496   5.590   7.595   5.147  1.8012  0.3389  1.1397
  808MOL0     H11497   5.694   7.574   5.005 -2.9387 -0.5635 -0.2518
  808MOL0     H11498   5.706   7.375   5.242 -3.6203 -0.6861 -0.9152
  808MOL0     H11499   5.798   7.375   5.091  0.6810  0.7291  0.9249
  808MOL0     H11500   5.402   7.241   4.985  1.6413 -2.7481 -2.2778
  808MOL0     H11501   6.168   7.563   5.048 -0.1945 -2.4422 -0.8372
  808MOL0     H11502   6.484   7.624   4.880  1.4657 -0.9663  0.0264
  808MOL0     H11503   6.400   7.560   5.035  1.4722 -2.1229 -1.4653
  808MOL0     H11504   6.412   7.463   4.894  0.5520 -0.1066  0.6871
  809MOL0     O11505   1.505   9.425   4.782  0.0846 -0.4216  0.4781
  809MOL0     C11506   1.422   9.498   4.731 -0.5110 -0.2996 -0.6628
  809MOL0     O11507   1.286   9.484   4.736  0.4112  0.0892 -1.0896
  809MOL0     C11508   1.231   9.371   4.793  0.0852 -0.6824 -0.2130
  809MOL0     C11509   1.139   9.286   4.721 -0.3889 -0.9822 -0.6811
  809MOL0     C11510   1.092   9.163   4.770 -1.4528  0.8379  0.3480
  809MOL0     C11511   1.133   9.116   4.898  0.1231 -0.9511 -0.2416
  809MOL0     O11512   1.092   8.992   4.929  0.5074 -0.6469 -0.0678
  809MOL0     C11513   1.197   8.896   4.956 -0.6409  0.2156  0.5465
  809MOL0     C11514   1.255   8.844   4.816  0.5183  0.7386 -0.1974
  809MOL0     C11515   1.144   8.791   4.727  0.2908  0.0937  0.8673
  809MOL0     C11516   1.175   8.809   4.576  0.5673  0.1437 -0.9488
  809MOL0     C11517   1.309   8.754   4.536 -0.0164 -0.0863 -0.2363
  809MOL0     C11518   1.329   8.765   4.386  0.2195  0.3335 -0.1398
  809MOL0     C11519   1.457   8.706   4.333 -0.4156  0.0040  0.3087
  809MOL0     C11520   1.577   8.800   4.335  0.4744 -0.0984 -0.7158
  809MOL0     N11521   1.645   8.838   4.204  0.5223  0.9786  0.1947
  809MOL0     C11522   1.596   8.923   4.108  0.1844 -0.1021  0.0892
  809MOL0     C11523   1.688   8.926   4.008 -0.9201 -0.3356  0.0941
  809MOL0     C11524   1.676   8.997   3.881 -0.2609 -0.1104  0.4949
  809MOL0     C11525   1.791   9.089   3.836 -0.6337  0.4672  0.5037
  809MOL0     C11526   1.770   9.155   3.701  0.7472 -0.0265  0.3413
  809MOL0     C11527   1.626   9.202   3.664  0.4338  0.2743 -0.1959
  809MOL0     O11528   1.635   9.309   3.570 -0.5780 -0.2516 -0.0247
  809MOL0     C11529   1.701   9.292   3.449  0.0370  0.6472 -0.0959
  809MOL0     C11530   1.787   9.395   3.411 -0.0032 -0.6669  0.2425
  809MOL0     C11531   1.862   9.385   3.295 -0.2900 -0.8430  0.3270
  809MOL0     C11532   1.952   9.490   3.262 -0.3481  0.0112  0.1530
  809MOL0     C11533   1.855   9.273   3.217  0.7579 -0.9521  0.0418
  809MOL0     C11534   1.930   9.264   3.082 -0.0750 -0.1624 -0.3413
  809MOL0     O11535   1.863   9.266   2.963  0.0748  0.3281 -0.1002
  809MOL0     C11536   1.934   9.308   2.856 -0.1891  0.7176  0.4275
  809MOL0     C11537   2.024   9.419   2.859 -0.4996 -0.5821  0.5448
  809MOL0     C11538   2.095   9.455   2.747  0.2545 -0.0370  0.3516
  809MOL0     C11539   2.087   9.373   2.639  0.5586 -0.0489 -0.0301
  809MOL0     O11540   2.156   9.413   2.520  0.7322  0.7451  0.0493
  809MOL0     C11541   2.126   9.349   2.399 -0.3763 -0.0340  0.1395
  809MOL0     C11542   2.244   9.406   2.307  0.9107 -0.4917 -0.2071
  809MOL0     C11543   2.211   9.547   2.261  0.1508 -0.6994  0.4913
  809MOL0     C11544   2.329   9.603   2.188 -0.7136 -0.8377  0.3209
  809MOL0     C11545   2.316   9.745   2.130  0.2165  0.0689 -0.0937
  809MOL0     C11546   2.434   9.793   2.045 -0.1463  0.8319  0.4711
  809MOL0     C11547   2.436   9.949   2.031 -0.1879  0.2141 -0.5810
  809MOL0     C11548   2.324   9.994   1.930 -0.6095  0.3298 -0.5775
  809MOL0    Cl11549   2.276  10.163   1.948 -0.1707 -0.1285 -0.3498
  809MOL0     C11550   2.005   9.258   2.636  0.1105  2.0805 -0.1639
  809MOL0     C11551   1.919   9.232   2.744 -0.1900 -0.3557 -0.1363
  809MOL0     O11552   2.053   9.266   3.096  0.4142 -0.3942  0.1935
  809MOL0     C11553   1.779   9.168   3.253  0.8983  0.5869 -0.7870
  809MOL0     C11554   1.710   9.168   3.379  0.5106 -0.4836 -0.5305
  809MOL0     N11555   1.799   8.857   4.053 -0.4581 -0.3958  0.6345
  809MOL0     N11556   1.768   8.810   4.163 -1.0046  0.8484 -0.4598
  809MOL0     C11557   1.209   9.207   4.973 -0.0252 -0.0760 -0.2114
  809MOL0     C11558   1.265   9.326   4.921  0.1398  0.3213  0.0329
  809MOL0     C11559   1.465   9.616   4.647  0.3495  0.4742 -1.0204
  809MOL0     C11560   1.602   9.647   4.639 -1.1449 -0.7663  0.0028
  809MOL0     C11561   1.652   9.745   4.558 -0.3995 -0.2874  0.7316
  809MOL0     C11562   1.570   9.835   4.502 -0.1677  0.4563 -0.0043
  809MOL0     O11563   1.622   9.938   4.426  0.1970  0.5960 -0.7511
  809MOL0     C11564   1.560  10.072   4.424 -0.1189  0.0527  0.7684
  809MOL0     C11565   1.623  10.161   4.533 -0.0188  0.2436 -0.5274
  809MOL0     C11566   1.771  10.178   4.514 -0.0915 -0.4458 -0.4907
  809MOL0     C11567   1.838  10.193   4.648  0.1094  0.0353  0.0006
  809MOL0     C11568   1.966  10.239   4.610  0.3567 -0.3013 -0.1071
  809MOL0     C11569   2.078  10.281   4.597  0.2290  0.0016  0.4193
  809MOL0     C11570   1.429   9.798   4.496  0.1239  0.2015 -0.2754
  809MOL0     C11571   1.372   9.696   4.571  0.1497  0.4861 -0.5637
  809MOL0     C11572   1.219   9.691   4.574 -0.8117  0.5965 -0.6761
  809MOL0     H11573   1.104   9.309   4.621 -0.9228  0.3516 -0.2085
  809MOL0     H11574   1.030   9.104   4.704 -0.9682  1.4749 -0.6890
  809MOL0     H11575   1.152   8.817   5.016 -1.6022 -1.7950 -2.5695
  809MOL0     H11576   1.276   8.935   5.021  0.5963 -1.8087  0.3559
  809MOL0     H11577   1.314   8.922   4.766  2.0901  2.2173  3.5767
  809MOL0     H11578   1.329   8.766   4.838  0.1415  0.3896 -0.1486
  809MOL0     H11579   1.146   8.683   4.747 -2.1899 -0.1017  0.3204
  809MOL0     H11580   1.041   8.823   4.745 -0.7295 -2.3805 -0.1983
  809MOL0     H11581   1.097   8.745   4.534  0.2626 -1.0467  1.2613
  809MOL0     H11582   1.160   8.914   4.551 -0.3009  0.5048  0.8610
  809MOL0     H11583   1.323   8.650   4.566  4.6033  1.0358  2.4482
  809MOL0     H11584   1.397   8.803   4.578  0.6455 -0.5527 -1.0292
  809MOL0     H11585   1.242   8.720   4.335  0.2806  1.0779 -0.9221
  809MOL0     H11586   1.326   8.871   4.363  0.7730  0.6188  1.0394
  809MOL0     H11587   1.461   8.678   4.227  1.4937 -0.3128  0.4282
  809MOL0     H11588   1.493   8.617   4.385  0.3165 -0.0905 -0.3240
  809MOL0     H11589   1.542   8.878   4.403  1.6723 -1.0294  1.0538
  809MOL0     H11590   1.657   8.753   4.394  1.1841  2.0012  0.1175
  809MOL0     H11591   1.498   8.971   4.108 -1.5776 -3.4268  0.4858
  809MOL0     H11592   1.596   9.070   3.894 -1.7917 -1.4246 -1.0543
  809MOL0     H11593   1.649   8.936   3.795 -4.2203  0.1301  1.3979
  809MOL0     H11594   1.818   9.159   3.916  3.5999 -1.2802  0.8564
  809MOL0     H11595   1.877   9.024   3.818 -1.3048 -0.1001 -0.7373
  809MOL0     H11596   1.836   9.242   3.710  0.9275  0.1534 -1.9886
  809MOL0     H11597   1.807   9.085   3.625 -0.1316  1.0191 -1.0918
  809MOL0     H11598   1.576   9.115   3.619  0.1830  0.7382 -0.8283
  809MOL0     H11599   1.565   9.234   3.749 -2.4299 -1.4807 -1.4334
  809MOL0     H11600   1.778   9.487   3.469 -0.9491 -2.6982  3.5902
  809MOL0     H11601   1.963   9.504   3.155 -0.8163 -0.8732 -0.0206
  809MOL0     H11602   2.056   9.469   3.290  0.6722  3.1172 -0.9415
  809MOL0     H11603   1.926   9.591   3.293  0.9579  0.4914 -0.2484
  809MOL0     H11604   2.027   9.479   2.949 -0.7828 -0.8199  0.7146
  809MOL0     H11605   2.140   9.554   2.739 -1.5299  0.7164 -0.9537
  809MOL0     H11606   2.125   9.240   2.415 -1.5028  0.3010  2.9999
  809MOL0     H11607   2.024   9.378   2.373 -0.7519 -1.5797 -0.2405
  809MOL0     H11608   2.337   9.391   2.363 -0.4560 -1.4157  1.9487
  809MOL0     H11609   2.240   9.338   2.222 -1.5919 -2.0397  1.0452
  809MOL0     H11610   2.173   9.614   2.339 -0.1323  0.8873 -0.9574
  809MOL0     H11611   2.129   9.552   2.188 -0.2643  0.1989  1.0000
  809MOL0     H11612   2.370   9.536   2.112 -0.1676 -0.6739  0.4721
  809MOL0     H11613   2.410   9.617   2.259  1.8456 -1.9886 -2.2040
  809MOL0     H11614   2.225   9.746   2.070  0.3226  0.6878 -0.2563
  809MOL0     H11615   2.308   9.814   2.215  2.8418  0.6832 -0.2579
  809MOL0     H11616   2.438   9.749   1.945  0.8370 -0.1567  0.9107
  809MOL0     H11617   2.527   9.763   2.095  0.0643 -0.5435 -0.6761
  809MOL0     H11618   2.533   9.994   2.007  0.6835 -2.8651 -3.6919
  809MOL0     H11619   2.403  10.000   2.122  0.7368  1.8218 -1.1226
  809MOL0     H11620   2.230   9.937   1.931  0.4396 -1.7398 -4.0590
  809MOL0     H11621   2.353   9.974   1.827  0.1983  0.4916 -0.3882
  809MOL0     H11622   1.993   9.197   2.547  0.2608  1.7323  0.0562
  809MOL0     H11623   1.860   9.141   2.751 -0.4516 -0.0959  1.3056
  809MOL0     H11624   1.778   9.074   3.198 -0.6904  0.8434 -1.2421
  809MOL0     H11625   1.657   9.075   3.401  1.1189 -1.1691 -1.8126
  809MOL0     H11626   1.228   9.188   5.078  0.0136  1.0550  0.0043
  809MOL0     H11627   1.326   9.391   4.983  0.2124 -0.4086  0.7445
  809MOL0     H11628   1.669   9.577   4.688 -1.0688 -1.1460 -0.6339
  809MOL0     H11629   1.761   9.747   4.561 -0.3634 -1.8223  3.4872
  809MOL0     H11630   1.579  10.111   4.324  0.6655 -1.9352  0.0870
  809MOL0     H11631   1.451  10.066   4.428 -0.2992  0.9524 -1.4419
  809MOL0     H11632   1.606  10.103   4.624  1.0350 -2.6428 -2.0207
  809MOL0     H11633   1.580  10.261   4.535  1.4044  0.8761  2.0539
  809MOL0     H11634   1.814  10.093   4.461 -0.2134  0.9798 -2.9981
  809MOL0     H11635   1.775  10.264   4.447 -3.6975  1.1595  1.1055
  809MOL0     H11636   1.857  10.100   4.703  1.1568  0.4084  0.2935
  809MOL0     H11637   1.789  10.266   4.714  0.7572  1.5700 -1.1567
  809MOL0     H11638   2.174  10.328   4.594 -0.3939  1.2421 -1.4108
  809MOL0     H11639   1.363   9.865   4.442  1.1096  1.9196  0.5881
  809MOL0     H11640   1.169   9.719   4.666 -0.4950 -1.0118  0.0238
  809MOL0     H11641   1.177   9.771   4.513  1.1257  1.8430 -0.4668
  809MOL0     H11642   1.180   9.594   4.541  3.2693 -1.4745 -0.1633
  810MOL0     O11643   9.728   6.514   7.227 -0.0390  0.1822 -0.2903
  810MOL0     C11644   9.619   6.491   7.175 -0.1116  0.3082 -0.3183
  810MOL0     O11645   9.586   6.399   7.078 -0.6155 -0.2509  0.3693
  810MOL0     C11646   9.667   6.314   7.009  0.5118 -0.1731 -0.1231
  810MOL0     C11647   9.615   6.260   6.891 -0.2152 -0.2746  0.1045
  810MOL0     C11648   9.706   6.181   6.810  0.7692  0.0941 -0.0482
  810MOL0     C11649   9.837   6.155   6.847  0.3194 -0.3726 -0.3669
  810MOL0     O11650   9.926   6.086   6.774  1.0061 -0.6823 -0.8033
  810MOL0     C11651   9.890   6.005   6.664  0.2968  0.1565 -0.0162
  810MOL0     C11652  10.016   5.947   6.604 -0.0156 -0.4622  0.5802
  810MOL0     C11653  10.089   6.061   6.527 -0.6801  0.4315 -0.4646
  810MOL0     C11654  10.234   6.020   6.512  0.5750  0.4575  0.6004
  810MOL0     C11655  10.324   6.130   6.455 -0.0092 -0.0343 -0.0726
  810MOL0     C11656  10.457   6.067   6.411 -0.4031  0.1874  0.9003
  810MOL0     C11657  10.539   6.008   6.529  0.1402 -0.5261 -0.3409
  810MOL0     C11658  10.687   5.969   6.485  0.7015  0.1444 -0.5018
  810MOL0     N11659  10.758   5.919   6.607  0.1386 -1.5055  0.6467
  810MOL0     C11660  10.754   5.797   6.666 -0.7324  0.3806 -0.2332
  810MOL0     C11661  10.829   5.814   6.781  0.0186 -0.0631 -0.2976
  810MOL0     C11662  10.866   5.701   6.888  0.0574  0.3619 -0.7273
  810MOL0     C11663  10.862   5.558   6.845  0.2570  0.6308 -0.1253
  810MOL0     C11664  10.914   5.446   6.938 -0.2214  0.6579 -0.0879
  810MOL0     C11665  10.841   5.439   7.071 -0.0174 -0.4958 -0.8589
  810MOL0     O11666  10.933   5.382   7.168 -0.4171 -0.3722 -0.5027
  810MOL0     C11667  11.033   5.459   7.222  0.7136 -0.2180  0.5392
  810MOL0     C11668  11.128   5.383   7.297 -0.3494 -0.1860  0.1010
  810MOL0     C11669  11.242   5.446   7.343  0.6042  0.0330 -0.5179
  810MOL0     C11670  11.337   5.360   7.418 -0.2474 -0.0852 -0.2407
  810MOL0     C11671  11.266   5.582   7.319 -0.4099 -0.2690 -0.1487
  810MOL0     C11672  11.392   5.652   7.350 -0.6719  0.7423 -0.4878
  810MOL0     O11673  11.505   5.574   7.372 -0.1323  0.3835  0.8936
  810MOL0     C11674  11.626   5.635   7.357  0.5139  0.0341 -0.0610
  810MOL0     C11675  11.716   5.640   7.463 -0.5610 -0.1607 -0.1710
  810MOL0     C11676  11.849   5.680   7.439 -0.9520  0.5476 -0.4770
  810MOL0     C11677  11.899   5.722   7.319 -0.0994  0.8967 -0.3940
  810MOL0     O11678  12.026   5.762   7.295 -0.1519  0.3822  0.9329
  810MOL0     C11679  12.113   5.775   7.413  0.4840 -0.4506  0.4172
  810MOL0     C11680  12.246   5.839   7.376 -0.3143 -0.1969 -0.2475
  810MOL0     C11681  12.335   5.868   7.490 -0.8003  0.0580  0.1100
  810MOL0     C11682  12.480   5.891   7.447 -0.3010  0.3125  0.2414
  810MOL0     C11683  12.576   5.860   7.565  0.1112 -0.1808  0.9240
  810MOL0     C11684  12.535   5.916   7.698  0.2730  0.4598 -0.5680
  810MOL0     C11685  12.619   5.869   7.812 -0.2080  0.3972  0.4430
  810MOL0     C11686  12.583   5.941   7.939  0.9520 -0.1579  0.5948
  810MOL0    Cl11687  12.699   5.898   8.060 -0.0043 -0.0950 -0.1592
  810MOL0     C11688  11.813   5.713   7.205 -0.2728 -0.5381 -0.0204
  810MOL0     C11689  11.683   5.664   7.227 -0.3140 -0.0620  0.6398
  810MOL0     O11690  11.383   5.772   7.346  0.5402 -0.0580  0.5186
  810MOL0     C11691  11.163   5.657   7.251 -0.7086 -0.1518 -0.1368
  810MOL0     C11692  11.059   5.591   7.198  0.1706 -0.9388 -0.0922
  810MOL0     N11693  10.882   5.944   6.776 -0.0073 -0.4505  0.3912
  810MOL0     N11694  10.835   6.008   6.674  0.4600  0.5130 -0.1348
  810MOL0     C11695   9.882   6.199   6.968  0.9279  0.2785 -0.7755
  810MOL0     C11696   9.802   6.283   7.049 -0.3252  0.4496  0.0519
  810MOL0     C11697   9.506   6.572   7.226 -0.6901  1.1252 -0.4829
  810MOL0     C11698   9.379   6.526   7.183 -0.9421 -0.5421 -0.1026
  810MOL0     C11699   9.261   6.601   7.216 -0.0134 -0.2290  0.2977
  810MOL0     C11700   9.272   6.716   7.300 -0.2487  0.4592  0.3691
  810MOL0     O11701   9.163   6.778   7.352  0.3091  0.2123  0.5180
  810MOL0     C11702   9.163   6.915   7.385 -0.6190  0.3322  0.7663
  810MOL0     C11703   9.016   6.959   7.413 -0.0329  0.8412 -0.0898
  810MOL0     C11704   9.017   7.078   7.515 -0.2758  0.2267 -0.5314
  810MOL0     C11705   9.031   7.226   7.458 -0.1554  0.6270  0.7530
  810MOL0     C11706   9.100   7.323   7.540 -1.3565 -0.4031 -0.1517
  810MOL0     C11707   9.170   7.405   7.602  0.3530 -0.1676 -0.0967
  810MOL0     C11708   9.399   6.764   7.328 -0.2247 -0.5474  0.6820
  810MOL0     C11709   9.515   6.697   7.286  0.3462 -0.5385  0.1609
  810MOL0     C11710   9.645   6.750   7.325 -0.0443 -1.0364  0.4997
  810MOL0     H11711   9.512   6.277   6.864 -0.5391 -0.6431  1.0715
  810MOL0     H11712   9.666   6.143   6.716  0.6673 -0.5245  0.2435
  810MOL0     H11713   9.825   6.054   6.591 -0.1053  0.1682  0.3508
  810MOL0     H11714   9.829   5.927   6.708 -0.2258  1.6777  2.0940
  810MOL0     H11715  10.080   5.904   6.682  0.7921  1.8328  1.2855
  810MOL0     H11716   9.978   5.870   6.537  0.9318  0.0489 -0.5801
  810MOL0     H11717  10.032   6.099   6.443  0.9090  1.1035 -1.2839
  810MOL0     H11718  10.101   6.136   6.605  0.0933  0.4893 -0.6320
  810MOL0     H11719  10.271   5.995   6.612  0.7816 -2.2924 -0.0892
  810MOL0     H11720  10.229   5.929   6.452 -1.9575  0.0951  1.2213
  810MOL0     H11721  10.342   6.211   6.527 -1.0601  1.6155 -1.5816
  810MOL0     H11722  10.276   6.191   6.378  1.9835  2.2453  0.3603
  810MOL0     H11723  10.419   5.982   6.352 -0.5067  1.3476 -0.7660
  810MOL0     H11724  10.521   6.128   6.347 -0.1091 -0.2918  0.7282
  810MOL0     H11725  10.494   5.916   6.567 -3.1461  1.2039  0.3549
  810MOL0     H11726  10.549   6.084   6.608  0.9315 -1.3416  0.3591
  810MOL0     H11727  10.687   5.885   6.415  0.5992  2.1355 -3.0252
  810MOL0     H11728  10.743   6.054   6.445  0.3936  1.5368  1.8143
  810MOL0     H11729  10.706   5.707   6.632 -0.1741  0.4957 -1.3845
  810MOL0     H11730  10.813   5.704   6.984  2.9481 -2.8092  1.2217
  810MOL0     H11731  10.970   5.720   6.917 -0.6609  2.5695  0.6767
  810MOL0     H11732  10.759   5.537   6.817  0.6995  0.3408 -1.5975
  810MOL0     H11733  10.917   5.551   6.751 -2.7639 -2.1868 -1.8793
  810MOL0     H11734  10.875   5.355   6.891  0.0472  0.1924  0.5853
  810MOL0     H11735  11.020   5.438   6.961  0.0581  0.3919 -1.3803
  810MOL0     H11736  10.815   5.542   7.100 -1.6230  0.3125 -4.5798
  810MOL0     H11737  10.745   5.387   7.065 -0.9520  1.0529 -0.0286
  810MOL0     H11738  11.103   5.281   7.323 -0.6306  0.2772  1.7074
  810MOL0     H11739  11.431   5.349   7.363  0.9613  1.3811  1.4482
  810MOL0     H11740  11.298   5.258   7.424 -0.5523  0.1002  1.2080
  810MOL0     H11741  11.365   5.388   7.520  2.8086 -2.4092 -0.2898
  810MOL0     H11742  11.691   5.616   7.566  1.8816 -2.2235  0.0467
  810MOL0     H11743  11.910   5.679   7.529 -2.8147  1.0836  0.8631
  810MOL0     H11744  12.062   5.839   7.486 -0.4525  0.3623 -0.9021
  810MOL0     H11745  12.139   5.676   7.451 -1.0515 -0.7028  0.8860
  810MOL0     H11746  12.302   5.782   7.302 -0.2344 -0.6388  0.1425
  810MOL0     H11747  12.227   5.938   7.335  3.0323  0.5520 -0.2582
  810MOL0     H11748  12.349   5.774   7.545  4.8019 -0.8679 -2.2236
  810MOL0     H11749  12.286   5.941   7.556 -2.4412  1.5299 -2.5564
  810MOL0     H11750  12.496   5.990   7.404  1.2945  1.1950  2.6786
  810MOL0     H11751  12.501   5.811   7.376 -1.8649 -0.1636  0.2592
  810MOL0     H11752  12.558   5.752   7.578 -0.3442 -0.1945  0.2206
  810MOL0     H11753  12.678   5.885   7.533 -1.4464  2.3326 -2.6386
  810MOL0     H11754  12.432   5.887   7.721 -0.1907  2.1687 -0.3980
  810MOL0     H11755  12.519   6.024   7.699 -4.0134  0.0083  0.6974
  810MOL0     H11756  12.723   5.902   7.804  0.3488 -0.4675  2.9383
  810MOL0     H11757  12.618   5.760   7.822 -3.2248  0.3605  0.7115
  810MOL0     H11758  12.483   5.919   7.978  1.2016 -0.2561  1.1956
  810MOL0     H11759  12.580   6.050   7.932  1.7249  0.0302  2.4238
  810MOL0     H11760  11.847   5.727   7.103 -0.8325 -2.8761 -0.6070
  810MOL0     H11761  11.615   5.657   7.143  1.4036 -0.1289 -0.8078
  810MOL0     H11762  11.175   5.764   7.235  0.1982  0.0140  1.3791
  810MOL0     H11763  11.003   5.651   7.126  1.0283  0.1600  0.1291
  810MOL0     H11764   9.977   6.166   7.007  0.0948 -1.7103 -0.2837
  810MOL0     H11765   9.847   6.322   7.140  0.4592 -1.5305  0.5571
  810MOL0     H11766   9.362   6.435   7.127 -0.1359 -1.7688  1.5510
  810MOL0     H11767   9.170   6.561   7.172 -0.8960 -0.3758  2.1846
  810MOL0     H11768   9.220   6.923   7.478  1.0968 -0.5469 -0.1415
  810MOL0     H11769   9.211   6.969   7.304 -1.4426 -1.3554 -0.9376
  810MOL0     H11770   8.960   6.878   7.462 -0.6248  0.3318 -1.5782
  810MOL0     H11771   8.964   6.986   7.322  2.5352 -2.2337 -2.7200
  810MOL0     H11772   8.915   7.080   7.554 -0.6659  1.0404 -1.5287
  810MOL0     H11773   9.089   7.068   7.597  1.6530  1.7915 -1.9149
  810MOL0     H11774   8.931   7.267   7.448 -1.0410 -1.4725  0.3883
  810MOL0     H11775   9.072   7.219   7.357 -0.2470  2.0103  0.6127
  810MOL0     H11776   9.225   7.467   7.670 -0.2578  1.9773 -1.4774
  810MOL0     H11777   9.404   6.856   7.385 -1.5396  0.0868 -0.1768
  810MOL0     H11778   9.685   6.773   7.227 -1.9925 -1.4046 -0.4297
  810MOL0     H11779   9.645   6.843   7.382 -0.4784 -2.3301  2.7616
  810MOL0     H11780   9.696   6.675   7.387  0.3053 -0.7418  0.5669
  811MOL0     O11781   3.181  10.545   6.526  0.1669  0.1272 -0.0384
  811MOL0     C11782   3.301  10.544   6.516 -0.1444 -1.5130  0.7921
  811MOL0     O11783   3.386  10.654   6.555 -0.1849 -0.2535  0.2950
  811MOL0     C11784   3.338  10.742   6.645  1.0855  0.3135  0.2217
  811MOL0     C11785   3.318  10.876   6.612  1.2314  0.5089  0.1699
  811MOL0     C11786   3.279  10.966   6.717 -0.8042 -0.5609  0.9388
  811MOL0     C11787   3.280  10.928   6.855 -0.3396  0.2159 -0.1382
  811MOL0     O11788   3.242  11.026   6.939 -0.1946 -0.4673 -0.7287
  811MOL0     C11789   3.236  10.999   7.078 -0.1609 -0.2726 -0.1844
  811MOL0     C11790   3.094  10.949   7.105  0.1291  0.0690  0.2816
  811MOL0     C11791   2.984  11.049   7.052 -0.3852  0.9901 -0.1327
  811MOL0     C11792   2.842  11.002   7.106 -0.3126  0.4093 -0.7883
  811MOL0     C11793   2.801  10.857   7.060  0.2870 -0.1479  0.3779
  811MOL0     C11794   2.665  10.810   7.110  0.5181 -0.3537 -0.0020
  811MOL0     C11795   2.636  10.673   7.061 -0.0991  0.6978  0.1336
  811MOL0     C11796   2.507  10.614   7.098  0.5808  0.4560 -0.0996
  811MOL0     N11797   2.377  10.681   7.061  0.7746 -0.4351  0.1108
  811MOL0     C11798   2.286  10.652   6.963 -0.0840 -0.1882  1.1334
  811MOL0     C11799   2.185  10.736   6.982 -0.7235 -0.7572  0.3194
  811MOL0     C11800   2.064  10.753   6.896 -0.0530  0.5095  0.8880
  811MOL0     C11801   1.982  10.622   6.912  0.0186  1.1701  0.2371
  811MOL0     C11802   1.858  10.643   6.826 -0.6318 -0.0905 -0.0584
  811MOL0     C11803   1.779  10.523   6.795  0.8587  0.2971  0.1740
  811MOL0     O11804   1.672  10.556   6.703 -0.1178 -0.0948  0.4950
  811MOL0     C11805   1.705  10.517   6.574  0.7794  0.0087 -0.0613
  811MOL0     C11806   1.738  10.622   6.484 -0.7373 -0.1891 -0.0049
  811MOL0     C11807   1.801  10.594   6.361  0.6229  0.8166  0.7367
  811MOL0     C11808   1.831  10.716   6.269 -0.6030 -0.3075  0.1975
  811MOL0     C11809   1.819  10.455   6.316  1.2627 -0.6020 -0.0363
  811MOL0     C11810   1.862  10.400   6.188 -0.3598  0.4947  0.3969
  811MOL0     O11811   1.859  10.260   6.166 -0.1759 -0.5913 -0.0962
  811MOL0     C11812   1.891  10.225   6.034 -0.2590  0.3059 -0.7180
  811MOL0     C11813   2.019  10.178   5.997 -0.1431  1.2400  0.2340
  811MOL0     C11814   2.033  10.117   5.875 -0.8201 -0.5429  0.1632
  811MOL0     C11815   1.929  10.112   5.782  1.4086 -0.4928  0.3187
  811MOL0     O11816   1.970  10.055   5.662  0.6339 -0.3482  0.4572
  811MOL0     C11817   1.882  10.015   5.558 -0.4672 -0.6913 -0.6251
  811MOL0     C11818   1.846   9.867   5.570  0.5099  0.4885  0.4504
  811MOL0     C11819   1.962   9.759   5.555  0.4953 -0.4591  0.1336
  811MOL0     C11820   2.034   9.766   5.421  0.7483  0.3888 -0.2209
  811MOL0     C11821   2.157   9.677   5.426  0.0654  0.5259  0.3941
  811MOL0     C11822   2.224   9.672   5.285 -0.6314 -0.2231 -0.0580
  811MOL0     C11823   2.369   9.623   5.287 -0.1054 -0.0748 -1.4192
  811MOL0     C11824   2.464   9.706   5.386  0.4112  0.5259  0.4333
  811MOL0    Cl11825   2.471   9.873   5.317  0.7056 -0.4503  0.1922
  811MOL0     C11826   1.806  10.176   5.815 -0.0495 -0.3930  0.3218
  811MOL0     C11827   1.787  10.224   5.949  0.2391  0.2007  0.5106
  811MOL0     O11828   1.910  10.478   6.109 -0.0206 -0.0494  0.0252
  811MOL0     C11829   1.784  10.356   6.416  0.2228  0.6413  0.2866
  811MOL0     C11830   1.716  10.383   6.538 -0.4144  0.0810 -0.2953
  811MOL0     N11831   2.215  10.817   7.096 -0.0854 -1.4637 -0.6418
  811MOL0     N11832   2.332  10.784   7.139 -0.9047 -0.4364  0.0068
  811MOL0     C11833   3.318  10.797   6.890 -0.4687  0.5118 -0.5114
  811MOL0     C11834   3.351  10.709   6.783  0.0342 -0.2917  0.4189
  811MOL0     C11835   3.371  10.428   6.452  0.0505  0.4946  0.4169
  811MOL0     C11836   3.514  10.434   6.454  0.9373 -0.2696  0.4414
  811MOL0     C11837   3.587  10.335   6.402 -0.1818 -0.2673 -0.5226
  811MOL0     C11838   3.530  10.232   6.324 -0.0416  1.3363  0.1291
  811MOL0     O11839   3.600  10.126   6.264  0.3660 -0.3563 -1.2874
  811MOL0     C11840   3.743  10.118   6.286 -0.0771 -0.5427 -0.5080
  811MOL0     C11841   3.823  10.003   6.216 -0.4202 -0.3516 -0.0128
  811MOL0     C11842   3.757   9.877   6.190 -0.4387  0.1153 -0.8320
  811MOL0     C11843   3.657   9.868   6.074  1.2759 -0.0634  0.3314
  811MOL0     C11844   3.581   9.745   6.056  0.0581  0.0586  0.5896
  811MOL0     C11845   3.521   9.643   6.027  0.5117 -0.1793  0.4029
  811MOL0     C11846   3.391  10.232   6.302  0.2115 -0.2635 -0.0940
  811MOL0     C11847   3.310  10.321   6.384  0.4491  1.0308  0.9073
  811MOL0     C11848   3.168  10.302   6.382  0.2943  0.3376 -0.5920
  811MOL0     H11849   3.331  10.903   6.507 -0.5927 -1.1420 -0.5404
  811MOL0     H11850   3.249  11.067   6.690  0.9311 -0.3696 -0.4296
  811MOL0     H11851   3.248  11.086   7.143  0.4746 -0.8599  0.5126
  811MOL0     H11852   3.323  10.940   7.109  3.3872  2.9856 -3.0308
  811MOL0     H11853   3.083  10.847   7.066 -0.9787  0.2231  0.1636
  811MOL0     H11854   3.069  10.947   7.212 -3.1407 -4.2109 -0.2611
  811MOL0     H11855   3.011  11.152   7.075  1.9878  1.1506 -3.0176
  811MOL0     H11856   2.993  11.048   6.943  2.8557 -0.7165  0.0183
  811MOL0     H11857   2.833  11.000   7.215  0.8073  0.1631 -0.6881
  811MOL0     H11858   2.775  11.069   7.052 -0.3937  1.2984  0.3683
  811MOL0     H11859   2.874  10.785   7.095 -0.0262 -0.5345  0.2436
  811MOL0     H11860   2.807  10.865   6.951  1.2264 -0.0378  0.4299
  811MOL0     H11861   2.665  10.792   7.218 -3.5501 -2.0138 -0.0992
  811MOL0     H11862   2.581  10.875   7.083  1.5762  0.0853 -2.5024
  811MOL0     H11863   2.712  10.615   7.114 -1.7274 -0.6142  1.1379
  811MOL0     H11864   2.658  10.661   6.954  0.1963  2.2576 -0.0136
  811MOL0     H11865   2.500  10.519   7.043  0.5304  1.4196 -1.8504
  811MOL0     H11866   2.509  10.591   7.204 -0.3626  0.9480  0.0370
  811MOL0     H11867   2.299  10.592   6.874 -2.5743 -0.9335  1.1814
  811MOL0     H11868   2.091  10.767   6.791 -1.0021 -1.4901  0.3419
  811MOL0     H11869   1.998  10.837   6.922 -0.8538  0.7160 -1.6043
  811MOL0     H11870   2.043  10.543   6.868 -2.9684  0.6036 -3.4090
  811MOL0     H11871   1.961  10.598   7.017  1.3362  0.3623  0.3410
  811MOL0     H11872   1.788  10.714   6.871 -0.2988  1.6126 -2.0462
  811MOL0     H11873   1.879  10.687   6.728 -0.8348 -2.3532 -1.1892
  811MOL0     H11874   1.843  10.441   6.761  1.0344 -1.1407  3.5383
  811MOL0     H11875   1.734  10.491   6.890  2.1853  0.5826  0.9184
  811MOL0     H11876   1.732  10.723   6.521 -4.3532 -0.8445  1.6270
  811MOL0     H11877   1.795  10.680   6.172 -4.5062  0.4484  1.1804
  811MOL0     H11878   1.937  10.742   6.263 -0.8576  1.7181  2.7517
  811MOL0     H11879   1.772  10.806   6.287  0.5816  1.2469 -2.8969
  811MOL0     H11880   2.097  10.157   6.069 -0.8139 -0.1938  0.5872
  811MOL0     H11881   2.127  10.077   5.837 -0.4874  2.2025 -2.2598
  811MOL0     H11882   1.786  10.063   5.576 -0.0801 -0.9637  3.0327
  811MOL0     H11883   1.918  10.025   5.456  1.0659  1.0461  0.0318
  811MOL0     H11884   1.794   9.848   5.664  1.0165 -2.3357  0.2331
  811MOL0     H11885   1.780   9.840   5.488  2.0266 -4.8218  0.6142
  811MOL0     H11886   1.924   9.660   5.585  0.5157 -0.3896  0.3945
  811MOL0     H11887   2.038   9.787   5.629  1.8604 -0.0634 -1.3748
  811MOL0     H11888   2.060   9.870   5.397  0.4991  0.0024 -2.4153
  811MOL0     H11889   1.960   9.738   5.346 -1.0791  1.8776  0.9446
  811MOL0     H11890   2.226   9.725   5.496 -0.5845  2.0503  0.0330
  811MOL0     H11891   2.130   9.578   5.462 -0.1261  1.0756  1.7900
  811MOL0     H11892   2.226   9.769   5.235  0.6438  0.0962  0.5574
  811MOL0     H11893   2.167   9.606   5.219 -1.1852 -0.5537  0.7328
  811MOL0     H11894   2.404   9.606   5.185 -0.8208 -1.2474 -1.4893
  811MOL0     H11895   2.361   9.525   5.336 -0.4723  0.0696 -1.1801
  811MOL0     H11896   2.563   9.661   5.384  0.8950  1.5228  0.8775
  811MOL0     H11897   2.436   9.709   5.492 -1.7751 -0.9244 -0.0480
  811MOL0     H11898   1.734  10.192   5.736  0.7997 -0.4775 -0.4940
  811MOL0     H11899   1.688  10.262   5.974  0.3100  3.5204 -3.1526
  811MOL0     H11900   1.815  10.255   6.388  2.4945  0.9945  1.3384
  811MOL0     H11901   1.693  10.300   6.605 -1.7191 -0.7817 -1.7687
  811MOL0     H11902   3.317  10.758   6.992  1.9046  1.7160  0.0344
  811MOL0     H11903   3.388  10.609   6.803  1.0603  0.2773  1.4453
  811MOL0     H11904   3.562  10.517   6.503 -0.0876  1.1881 -0.9168
  811MOL0     H11905   3.694  10.355   6.402  0.1512 -1.8245  0.3316
  811MOL0     H11906   3.793  10.210   6.256  0.3311 -1.2936 -2.2792
  811MOL0     H11907   3.748  10.108   6.395  2.3045  1.4299 -0.3312
  811MOL0     H11908   3.915   9.983   6.271  1.1527  3.3843 -0.9338
  811MOL0     H11909   3.850  10.036   6.115 -1.6070 -0.1778 -0.2936
  811MOL0     H11910   3.846   9.815   6.174 -0.2973 -1.3839  4.2159
  811MOL0     H11911   3.694   9.850   6.274 -2.2341 -0.5150 -2.3155
  811MOL0     H11912   3.701   9.881   5.975 -0.0008  0.0297 -0.2412
  811MOL0     H11913   3.591   9.953   6.091  1.6440  0.4533 -0.7426
  811MOL0     H11914   3.466   9.559   5.989 -1.8926  1.6346 -0.3857
  811MOL0     H11915   3.353  10.146   6.248  1.1991 -0.4463 -0.5259
  811MOL0     H11916   3.112  10.372   6.320 -1.2277 -2.3603 -2.4616
  811MOL0     H11917   3.128  10.207   6.346 -1.9219  1.2252 -0.6431
  811MOL0     H11918   3.136  10.319   6.486 -0.6861  2.5235 -1.2041
  812MOL0     O11919   0.340   1.046  10.880 -0.3313  0.2701  0.2178
  812MOL0     C11920   0.366   0.940  10.818  0.6107  0.3534 -0.2192
  812MOL0     O11921   0.476   0.919  10.739  0.0439 -0.2598  0.1322
  812MOL0     C11922   0.592   1.000  10.734  0.2397 -0.7318  0.7997
  812MOL0     C11923   0.712   0.974  10.803 -0.1531  0.1875 -0.8573
  812MOL0     C11924   0.818   1.070  10.797  0.2403  0.0610  0.4999
  812MOL0     C11925   0.815   1.183  10.715 -0.7888 -0.2255 -0.6041
  812MOL0     O11926   0.925   1.266  10.726  0.8121  0.4404 -0.8466
  812MOL0     C11927   0.942   1.378  10.640  0.1625  0.0276  1.2477
  812MOL0     C11928   1.074   1.458  10.656 -0.3885  0.1303 -0.1422
  812MOL0     C11929   1.209   1.382  10.668 -0.8235  0.0519  0.0000
  812MOL0     C11930   1.306   1.482  10.746  0.3387 -0.0289 -1.1499
  812MOL0     C11931   1.454   1.442  10.762  0.6565  0.5068  0.7708
  812MOL0     C11932   1.498   1.449  10.619 -0.6922 -0.1514 -0.6625
  812MOL0     C11933   1.655   1.419  10.610 -0.0361  0.8606 -0.0929
  812MOL0     C11934   1.702   1.362  10.474 -0.6162 -0.7045  0.5508
  812MOL0     N11935   1.790   1.250  10.484  0.1655  0.0330  0.6678
  812MOL0     C11936   1.754   1.123  10.439 -0.5828 -0.4941  0.2811
  812MOL0     C11937   1.843   1.036  10.495 -0.1014  0.8334 -0.0521
  812MOL0     C11938   1.843   0.888  10.482 -0.4595 -0.3770 -0.6356
  812MOL0     C11939   1.959   0.846  10.399  0.0978  0.0684  0.1830
  812MOL0     C11940   1.944   0.694  10.370  0.9632 -0.7947 -0.1982
  812MOL0     C11941   2.062   0.641  10.298 -0.5439 -0.3605  0.6363
  812MOL0     O11942   2.180   0.667  10.383  0.2424  0.5101  0.1300
  812MOL0     C11943   2.291   0.667  10.311 -0.1650  0.6169 -0.0289
  812MOL0     C11944   2.339   0.539  10.263  0.0198 -0.6019 -0.5429
  812MOL0     C11945   2.468   0.526  10.219 -0.6620  0.1987  0.3112
  812MOL0     C11946   2.502   0.392  10.149 -0.3256 -0.9027  0.5520
  812MOL0     C11947   2.548   0.650  10.216 -0.3021  0.0247 -0.4866
  812MOL0     C11948   2.691   0.642  10.184  0.4799 -0.6368  0.8765
  812MOL0     O11949   2.748   0.733  10.108 -0.2484 -0.3462  0.3547
  812MOL0     C11950   2.879   0.728  10.102 -1.7377  0.2187 -0.5266
  812MOL0     C11951   2.958   0.645  10.020 -0.0182 -0.9865  0.1842
  812MOL0     C11952   3.100   0.663  10.028 -0.0277  0.5423  0.0467
  812MOL0     C11953   3.165   0.755  10.108  0.4665  0.3396  1.4413
  812MOL0     O11954   3.298   0.787  10.129  0.2265  0.0807 -0.0747
  812MOL0     C11955   3.399   0.685  10.101 -0.6917  0.3675  0.1211
  812MOL0     C11956   3.544   0.745  10.126 -0.5934  0.0366 -0.3715
  812MOL0     C11957   3.668   0.646  10.111  0.3200 -0.5286 -0.3152
  812MOL0     C11958   3.660   0.523  10.208  0.1975  2.0382  0.3058
  812MOL0     C11959   3.775   0.434  10.175 -1.0775  0.7343 -0.2940
  812MOL0     C11960   3.738   0.314  10.082  0.9392 -0.2552 -0.2239
  812MOL0     C11961   3.860   0.243  10.039 -0.0823 -0.7785 -0.4876
  812MOL0     C11962   3.857   0.098  10.063  0.6198  1.4698  0.3753
  812MOL0    Cl11963   4.010   0.018  10.015  0.3275 -0.1621  0.0242
  812MOL0     C11964   3.080   0.844  10.171 -0.0475 -0.1103 -0.4974
  812MOL0     C11965   2.944   0.833  10.174  0.6912 -0.0651 -0.1791
  812MOL0     O11966   2.742   0.542  10.216  0.1633 -0.4875 -0.1090
  812MOL0     C11967   2.497   0.776  10.254  0.6706 -0.8439 -0.3143
  812MOL0     C11968   2.366   0.779  10.300  0.0077  0.2827 -0.2277
  812MOL0     N11969   1.919   1.100  10.587 -0.5369 -0.1792  0.6669
  812MOL0     N11970   1.895   1.228  10.579 -0.0426 -1.2496 -0.6230
  812MOL0     C11971   0.694   1.210  10.649  0.8118  0.9875 -0.0164
  812MOL0     C11972   0.579   1.123  10.665 -0.2331  0.0493 -0.2986
  812MOL0     C11973   0.251   0.852  10.812 -0.1397  0.0954  0.2288
  812MOL0     C11974   0.240   0.786  10.688  0.4064  0.1448  0.1861
  812MOL0     C11975   0.130   0.696  10.669 -0.3255  0.0508  0.3913
  812MOL0     C11976   0.039   0.661  10.772 -0.8413 -0.5419  0.4504
  812MOL0     O11977  -0.056   0.572  10.732 -0.0098  0.5794  0.7593
  812MOL0     C11978  -0.163   0.542  10.816  0.1475 -0.0623  0.0715
  812MOL0     C11979  -0.269   0.456  10.750 -0.1407 -0.1312 -0.1040
  812MOL0     C11980  -0.224   0.312  10.744 -0.2664 -0.6161 -0.0996
  812MOL0     C11981  -0.316   0.225  10.656  0.7191  0.3953 -1.3405
  812MOL0     C11982  -0.452   0.236  10.701  1.0320  0.4762 -0.1283
  812MOL0     C11983  -0.571   0.249  10.703  0.6710  0.9435  0.4684
  812MOL0     C11984   0.060   0.728  10.899 -0.0488  0.6586 -0.3671
  812MOL0     C11985   0.162   0.826  10.915 -0.3018  0.6275 -0.1319
  812MOL0     C11986   0.169   0.887  11.051 -0.2242  0.2995  0.0033
  812MOL0     H11987   0.721   0.894  10.875 -1.1569 -0.1241 -1.0621
  812MOL0     H11988   0.910   1.054  10.853  0.5703  3.1747  1.0207
  812MOL0     H11989   0.858   1.443  10.668 -0.0653  1.0567 -1.4989
  812MOL0     H11990   0.941   1.354  10.533 -2.9269  2.1277  0.6713
  812MOL0     H11991   1.079   1.525  10.570 -1.0803  1.8672  1.1016
  812MOL0     H11992   1.062   1.522  10.744  0.5991 -2.3153  1.9340
  812MOL0     H11993   1.193   1.283  10.712 -0.8063 -0.3553 -0.8919
  812MOL0     H11994   1.253   1.353  10.572  2.7789 -0.0062  1.5345
  812MOL0     H11995   1.313   1.577  10.693  0.8639 -0.3926 -1.7551
  812MOL0     H11996   1.271   1.502  10.848  0.9648  1.3013 -1.1703
  812MOL0     H11997   1.462   1.340  10.799 -0.8452 -0.7708 -2.1046
  812MOL0     H11998   1.509   1.505  10.833  3.1515 -1.7439  0.9839
  812MOL0     H11999   1.455   1.368  10.560 -0.8263 -0.4315 -0.1900
  812MOL0     H12000   1.473   1.539  10.561  0.3456 -0.1899 -1.1866
  812MOL0     H12001   1.678   1.349  10.691  2.0469  0.1292 -1.2455
  812MOL0     H12002   1.712   1.509  10.634  0.4442 -0.1775  3.2500
  812MOL0     H12003   1.620   1.331  10.408  0.5401  0.3233 -1.4992
  812MOL0     H12004   1.757   1.442  10.422 -2.7879  0.5637  0.0750
  812MOL0     H12005   1.680   1.088  10.369  1.1395 -0.3066 -1.7205
  812MOL0     H12006   1.748   0.847  10.447 -0.4538 -0.5961 -0.3919
  812MOL0     H12007   1.859   0.858  10.586 -0.2388 -2.4040 -1.2189
  812MOL0     H12008   1.944   0.894  10.302 -1.0773  0.9417  0.7666
  812MOL0     H12009   2.048   0.876  10.454  0.8511 -2.4907  0.4818
  812MOL0     H12010   1.946   0.637  10.463  4.1702 -1.9069 -0.8086
  812MOL0     H12011   1.858   0.663  10.309  1.4589  1.1409 -1.9860
  812MOL0     H12012   2.044   0.533  10.293 -1.6780 -0.1985  0.9780
  812MOL0     H12013   2.085   0.682  10.199  0.7563 -0.0889  1.0361
  812MOL0     H12014   2.280   0.448  10.275  1.2247 -1.3847 -0.4187
  812MOL0     H12015   2.433   0.377  10.065 -0.0133 -2.9365  0.6070
  812MOL0     H12016   2.505   0.312  10.224  0.7092 -2.4834 -1.0893
  812MOL0     H12017   2.603   0.402  10.108 -0.1310 -0.3572  1.1439
  812MOL0     H12018   2.906   0.578   9.952 -0.3841  1.8116 -2.4656
  812MOL0     H12019   3.156   0.587   9.973 -0.8751 -0.8205  1.0248
  812MOL0     H12020   3.379   0.601  10.169  1.7139 -1.1615 -0.9263
  812MOL0     H12021   3.395   0.663   9.993  2.8938 -1.5362  0.2301
  812MOL0     H12022   3.567   0.828  10.058 -0.0758 -0.4128 -0.7475
  812MOL0     H12023   3.548   0.791  10.226 -0.4289  0.2755 -0.4857
  812MOL0     H12024   3.752   0.713  10.133 -2.5559  3.9855 -1.5924
  812MOL0     H12025   3.669   0.613  10.007 -1.5512 -1.6109 -0.0312
  812MOL0     H12026   3.566   0.467  10.198  1.4572 -0.4040  1.3709
  812MOL0     H12027   3.659   0.554  10.312 -0.2436  1.3186  0.5231
  812MOL0     H12028   3.863   0.492  10.146 -0.3597  0.6209  1.5423
  812MOL0     H12029   3.821   0.395  10.266  1.9491  2.4122 -0.9660
  812MOL0     H12030   3.683   0.345   9.993  1.3305 -2.1693 -1.1928
  812MOL0     H12031   3.671   0.253  10.144  0.1440  1.3020  0.5057
  812MOL0     H12032   3.943   0.279  10.100 -0.1427  4.9696 -3.0844
  812MOL0     H12033   3.884   0.256   9.933 -2.6785 -3.2791 -1.5059
  812MOL0     H12034   3.779   0.045  10.007 -0.1644  0.6697  2.1356
  812MOL0     H12035   3.839   0.081  10.170 -1.1829  0.8184  0.0037
  812MOL0     H12036   3.125   0.924  10.230 -2.9247  0.5566  0.9629
  812MOL0     H12037   2.883   0.898  10.236  1.4949  1.7365 -1.2070
  812MOL0     H12038   2.565   0.860  10.241  1.4493 -1.1936  1.2378
  812MOL0     H12039   2.329   0.872  10.342  0.9953 -0.4938  2.5669
  812MOL0     H12040   0.680   1.300  10.590 -1.3681  1.9232  1.7652
  812MOL0     H12041   0.486   1.140  10.613 -0.2432  0.9240 -0.0017
  812MOL0     H12042   0.316   0.788  10.610  0.6321 -3.1066  0.1920
  812MOL0     H12043   0.106   0.655  10.572  0.6266  0.7350 -0.1554
  812MOL0     H12044  -0.125   0.505  10.912  0.6221 -0.8663 -0.4188
  812MOL0     H12045  -0.218   0.631  10.849 -2.2536 -2.9777  5.0981
  812MOL0     H12046  -0.273   0.492  10.646  1.8776  3.0155  0.7613
  812MOL0     H12047  -0.371   0.464  10.789 -0.1302  1.6520 -0.3493
  812MOL0     H12048  -0.126   0.309  10.695  0.8581 -0.1683  2.0016
  812MOL0     H12049  -0.206   0.260  10.839 -3.0288 -1.2146  0.1945
  812MOL0     H12050  -0.278   0.122  10.658  1.5957  0.7021 -1.9270
  812MOL0     H12051  -0.328   0.262  10.554 -1.0202  2.9142 -0.3152
  812MOL0     H12052  -0.676   0.237  10.682  1.5086 -1.3412 -3.4231
  812MOL0     H12053  -0.013   0.706  10.975 -0.3277 -0.2513 -0.8933
  812MOL0     H12054   0.274   0.898  11.080 -1.1317  0.3364  3.8540
  812MOL0     H12055   0.132   0.990  11.051 -0.3004  0.3003  1.7896
  812MOL0     H12056   0.123   0.819  11.124 -1.2713 -3.8413 -4.0583
  813MOL0     O12057  11.297   9.083   1.589 -0.5744  0.0006 -0.2331
  813MOL0     C12058  11.259   9.186   1.643  0.4208 -0.3999 -0.0877
  813MOL0     O12059  11.147   9.256   1.599 -0.6555  0.2256 -0.0573
  813MOL0     C12060  11.078   9.204   1.484 -0.3247  1.0337 -0.7220
  813MOL0     C12061  10.986   9.294   1.436 -0.4831 -0.4401 -0.2313
  813MOL0     C12062  10.914   9.256   1.323  0.0863 -0.9333  0.4470
  813MOL0     C12063  10.917   9.123   1.275  0.1688 -0.5093 -0.0920
  813MOL0     O12064  10.822   9.093   1.181 -0.2665 -0.5538 -0.4798
  813MOL0     C12065  10.857   9.002   1.082 -0.1402  0.1851  0.2968
  813MOL0     C12066  10.733   8.992   0.995 -0.7582  0.3772 -0.3711
  813MOL0     C12067  10.699   9.131   0.929 -0.5191 -0.4188  0.0202
  813MOL0     C12068  10.789   9.170   0.805 -0.1964 -0.6284  0.3951
  813MOL0     C12069  10.730   9.300   0.759 -0.1699 -0.9539  0.8877
  813MOL0     C12070  10.832   9.417   0.781  0.0114  0.4920 -0.3745
  813MOL0     C12071  10.834   9.449   0.927  0.5077 -0.3596 -0.7217
  813MOL0     C12072  10.943   9.551   0.965  0.1567  0.2142  0.4636
  813MOL0     N12073  11.072   9.485   0.966  0.0873  0.1073 -0.2686
  813MOL0     C12074  11.110   9.374   1.040  0.0825  0.4668  0.1465
  813MOL0     C12075  11.240   9.364   1.007  0.3653  0.0622  0.0840
  813MOL0     C12076  11.329   9.260   1.058 -0.2408  0.5996 -0.5553
  813MOL0     C12077  11.397   9.298   1.189 -0.2200  0.5842 -0.3451
  813MOL0     C12078  11.469   9.172   1.250 -0.6337  0.4766  0.0764
  813MOL0     C12079  11.558   9.195   1.371 -0.9878  0.0443 -0.3529
  813MOL0     O12080  11.498   9.307   1.442 -0.1295  1.3854 -0.1290
  813MOL0     C12081  11.577   9.399   1.517 -0.5121 -0.1050  0.5012
  813MOL0     C12082  11.715   9.392   1.532  0.5857  0.2693  0.1246
  813MOL0     C12083  11.788   9.494   1.588 -0.2436  0.3202 -0.1540
  813MOL0     C12084  11.939   9.467   1.592 -0.3530  0.9437  0.2548
  813MOL0     C12085  11.721   9.611   1.643 -0.2218  0.2410  0.2447
  813MOL0     C12086  11.798   9.731   1.692  0.1961 -0.4247  0.4465
  813MOL0     O12087  11.743   9.856   1.685  0.2314 -0.3924 -0.8975
  813MOL0     C12088  11.788   9.970   1.740  0.2092 -0.6076  0.3089
  813MOL0     C12089  11.902   9.980   1.831  0.2581  0.3691  1.4426
  813MOL0     C12090  11.951  10.105   1.868 -0.2439 -0.4619  0.1267
  813MOL0     C12091  11.886  10.223   1.829 -0.5720 -0.5900 -0.3232
  813MOL0     O12092  11.927  10.337   1.895 -0.5178 -0.6031 -0.5701
  813MOL0     C12093  11.907  10.468   1.827 -0.4505  0.6221  1.0726
  813MOL0     C12094  12.012  10.577   1.863  0.1941 -0.3436 -0.2394
  813MOL0     C12095  12.148  10.545   1.819 -0.1620  0.0506  0.2276
  813MOL0     C12096  12.165  10.546   1.664 -0.2463  0.8784 -0.4722
  813MOL0     C12097  12.312  10.539   1.605  0.7437 -0.3173 -0.5341
  813MOL0     C12098  12.371  10.406   1.620  0.0161  1.0101 -0.3094
  813MOL0     C12099  12.509  10.382   1.566  0.4800  0.2099  0.7763
  813MOL0     C12100  12.562  10.237   1.566 -0.3140 -1.0663  0.6398
  813MOL0    Cl12101  12.731  10.259   1.502 -0.4775  0.5335  0.5755
  813MOL0     C12102  11.772  10.214   1.743 -0.4500  0.8490  0.5027
  813MOL0     C12103  11.728  10.091   1.690 -0.7115  0.9394 -1.0839
  813MOL0     O12104  11.903   9.703   1.734  0.8133  1.2979 -0.4513
  813MOL0     C12105  11.579   9.617   1.635  0.6234 -0.0943 -0.5527
  813MOL0     C12106  11.514   9.514   1.568  0.4417  0.1117 -0.7171
  813MOL0     N12107  11.277   9.464   0.921  0.5921 -0.1324 -0.0577
  813MOL0     N12108  11.177   9.536   0.900  0.1228  0.2611  0.9994
  813MOL0     C12109  11.009   9.031   1.325  0.1965  0.5266  0.7024
  813MOL0     C12110  11.088   9.071   1.420 -0.4286 -0.4053 -0.5890
  813MOL0     C12111  11.350   9.238   1.755  0.0947 -0.5815 -0.2400
  813MOL0     C12112  11.480   9.193   1.764  0.9854  0.0082  0.2957
  813MOL0     C12113  11.579   9.247   1.858 -0.2576  0.0996  0.0669
  813MOL0     C12114  11.533   9.343   1.946 -0.1361 -0.2165  0.0564
  813MOL0     O12115  11.627   9.380   2.038 -0.0861 -0.1498 -0.1319
  813MOL0     C12116  11.595   9.464   2.146  0.4475 -0.5500 -0.9254
  813MOL0     C12117  11.652   9.605   2.127 -0.2702  0.7913  0.6717
  813MOL0     C12118  11.591   9.671   2.007 -0.2295 -0.7153 -0.5768
  813MOL0     C12119  11.469   9.741   2.058  0.5177 -0.2246 -1.2523
  813MOL0     C12120  11.405   9.792   1.936  0.0628  0.3918  0.0058
  813MOL0     C12121  11.353   9.841   1.835  0.3631  0.1380  0.1598
  813MOL0     C12122  11.403   9.394   1.938 -0.1565  0.4548  0.1126
  813MOL0     C12123  11.307   9.342   1.844 -0.8095 -1.1942  1.1721
  813MOL0     C12124  11.165   9.383   1.860 -0.2690 -0.0473 -0.0238
  813MOL0     H12125  11.000   9.393   1.478  3.2827 -1.0186  0.2826
  813MOL0     H12126  10.838   9.326   1.290 -0.3424 -0.8913  1.4819
  813MOL0     H12127  10.878   8.903   1.122 -2.4575 -1.2260 -1.7810
  813MOL0     H12128  10.947   9.039   1.031 -2.3079  2.8733 -1.9133
  813MOL0     H12129  10.748   8.912   0.922 -1.7812 -0.3036  0.1346
  813MOL0     H12130  10.648   8.959   1.056  0.0418 -0.0132  0.5629
  813MOL0     H12131  10.591   9.144   0.920 -0.2936  5.7305  1.8321
  813MOL0     H12132  10.718   9.203   1.009  1.3867 -0.7300 -0.0974
  813MOL0     H12133  10.897   9.163   0.816 -0.0487 -0.6095 -0.9169
  813MOL0     H12134  10.776   9.087   0.734  0.0626  0.0302 -0.4351
  813MOL0     H12135  10.632   9.327   0.800  0.4465 -0.3309  1.9766
  813MOL0     H12136  10.721   9.301   0.650 -1.5512 -2.6780  0.9317
  813MOL0     H12137  10.935   9.392   0.754 -0.6572 -1.2756 -1.4677
  813MOL0     H12138  10.800   9.507   0.728 -1.4017  0.7287  0.8113
  813MOL0     H12139  10.845   9.361   0.991 -0.8848  0.1539  0.2830
  813MOL0     H12140  10.735   9.482   0.959  0.4149 -2.0539  0.8948
  813MOL0     H12141  10.939   9.628   0.887 -1.4472  2.2489  2.4022
  813MOL0     H12142  10.925   9.599   1.061  2.0413 -0.0304  0.9921
  813MOL0     H12143  11.054   9.306   1.103 -1.7899 -1.7615 -3.5709
  813MOL0     H12144  11.410   9.236   0.988  0.1143 -0.0982  0.0781
  813MOL0     H12145  11.273   9.166   1.064  0.3681  0.1238 -1.9848
  813MOL0     H12146  11.455   9.389   1.175 -1.2956  1.5975  1.3889
  813MOL0     H12147  11.315   9.319   1.259 -1.4890 -1.9178 -0.9603
  813MOL0     H12148  11.390   9.110   1.292  1.3888 -1.1446  1.7221
  813MOL0     H12149  11.527   9.117   1.176 -3.5492 -1.9976 -0.5388
  813MOL0     H12150  11.549   9.108   1.436  0.2595 -0.4343 -0.7833
  813MOL0     H12151  11.664   9.197   1.343 -0.7030 -1.5497  0.5255
  813MOL0     H12152  11.768   9.314   1.478  1.1138  0.4974  0.3005
  813MOL0     H12153  11.960   9.359   1.589 -0.2098  0.9682  0.3512
  813MOL0     H12154  12.001   9.501   1.676  1.6351  0.0629 -0.7863
  813MOL0     H12155  11.983   9.515   1.504  2.1563 -1.3021  0.1384
  813MOL0     H12156  11.965   9.897   1.860  1.6139 -0.3999 -2.9377
  813MOL0     H12157  12.036  10.113   1.935 -1.6207  2.0849  1.7618
  813MOL0     H12158  11.911  10.450   1.719 -1.9653 -0.9468  1.2267
  813MOL0     H12159  11.807  10.509   1.845 -1.9380 -2.0086 -0.5455
  813MOL0     H12160  11.992  10.676   1.821  1.1427  0.4080  1.0282
  813MOL0     H12161  11.996  10.596   1.969  2.5613 -0.8666  0.2768
  813MOL0     H12162  12.158  10.442   1.855 -6.0075 -0.8958  0.1086
  813MOL0     H12163  12.224  10.603   1.873 -1.0707  1.2530  0.2529
  813MOL0     H12164  12.129  10.643   1.629 -0.3330  1.0108 -0.0203
  813MOL0     H12165  12.111  10.466   1.614  1.5265  1.8562 -4.2864
  813MOL0     H12166  12.325  10.583   1.506  0.5241  3.5355  1.0103
  813MOL0     H12167  12.369  10.614   1.661 -3.1404  1.1009  1.8841
  813MOL0     H12168  12.300  10.337   1.573  1.0322 -2.5182  2.8319
  813MOL0     H12169  12.370  10.385   1.727  1.7914 -2.9417 -0.8944
  813MOL0     H12170  12.579  10.445   1.623  0.9965  2.8124 -2.4298
  813MOL0     H12171  12.511  10.409   1.460 -1.0518 -0.8079  0.4686
  813MOL0     H12172  12.494  10.188   1.496  0.2383 -0.7163 -0.1501
  813MOL0     H12173  12.556  10.196   1.668  0.5290  1.8204  1.9394
  813MOL0     H12174  11.722  10.302   1.704 -2.5610 -2.1040 -4.4556
  813MOL0     H12175  11.658  10.086   1.608  0.9653 -2.0155 -2.5239
  813MOL0     H12176  11.513   9.693   1.676 -2.4816 -0.8514 -3.6920
  813MOL0     H12177  11.409   9.533   1.551  0.5680  0.1438 -1.5208
  813MOL0     H12178  11.005   8.927   1.291 -1.6076  1.1162 -1.1556
  813MOL0     H12179  11.157   8.992   1.448  0.2205 -0.0634 -1.1854
  813MOL0     H12180  11.501   9.108   1.700 -1.6731  0.0921 -0.7789
  813MOL0     H12181  11.680   9.213   1.878  1.1491  4.0948  0.7675
  813MOL0     H12182  11.491   9.457   2.181  0.9295  1.7898  1.2777
  813MOL0     H12183  11.637   9.418   2.236 -1.0820  1.9125  1.1974
  813MOL0     H12184  11.760   9.589   2.112 -0.3992  0.5043  0.0177
  813MOL0     H12185  11.634   9.669   2.214 -0.8902  2.2104 -0.4837
  813MOL0     H12186  11.648   9.754   1.964  0.2742 -1.1005 -0.6509
  813MOL0     H12187  11.574   9.605   1.922  1.7209 -0.7012 -1.0159
  813MOL0     H12188  11.497   9.825   2.122 -0.1357 -0.8330 -0.1368
  813MOL0     H12189  11.396   9.682   2.115  3.4541 -0.8993  2.1955
  813MOL0     H12190  11.311   9.870   1.741  1.9728 -0.4838 -0.7936
  813MOL0     H12191  11.358   9.468   2.004 -2.2903 -0.1188 -0.6174
  813MOL0     H12192  11.102   9.297   1.835 -1.2875  0.3932  0.9417
  813MOL0     H12193  11.161   9.400   1.968  1.0165 -0.5686  0.1294
  813MOL0     H12194  11.136   9.469   1.799  0.0692  1.2227  1.5288
  814MOL0     O12195   7.711   5.172   6.327 -0.6734  0.7086  0.3857
  814MOL0     C12196   7.635   5.074   6.306  0.2263 -0.6216 -0.2552
  814MOL0     O12197   7.552   5.033   6.403 -0.5204  0.4897  0.0020
  814MOL0     C12198   7.551   5.076   6.534  0.4659 -0.8207  0.8540
  814MOL0     C12199   7.524   5.216   6.562 -0.1009 -0.0725 -0.2680
  814MOL0     C12200   7.525   5.255   6.701 -0.3338  1.5276  1.0707
  814MOL0     C12201   7.552   5.159   6.799  0.4466  0.5774 -0.0485
  814MOL0     O12202   7.537   5.183   6.934 -0.1440 -0.2984 -0.0617
  814MOL0     C12203   7.481   5.301   6.982  0.7564 -0.1512  0.1875
  814MOL0     C12204   7.440   5.274   7.130  0.0348  0.7311 -1.0563
  814MOL0     C12205   7.362   5.138   7.145  0.2955 -0.1156  0.5132
  814MOL0     C12206   7.266   5.122   7.266 -0.0711  1.1188 -0.5815
  814MOL0     C12207   7.214   4.976   7.269 -0.7124 -0.2385  0.1839
  814MOL0     C12208   7.305   4.890   7.353 -0.6888  0.2875  0.4445
  814MOL0     C12209   7.293   4.740   7.335 -0.8083 -0.6520 -0.3864
  814MOL0     C12210   7.150   4.682   7.336 -0.6301 -0.7777  0.1338
  814MOL0     N12211   7.150   4.542   7.293  1.0434 -0.3051  0.2530
  814MOL0     C12212   7.220   4.486   7.192  0.4682  0.2997 -0.3802
  814MOL0     C12213   7.166   4.362   7.174 -0.0065  0.2698 -0.9936
  814MOL0     C12214   7.214   4.257   7.068 -0.6485 -0.1794 -0.3465
  814MOL0     C12215   7.334   4.173   7.125 -0.6993 -0.4200  0.5588
  814MOL0     C12216   7.416   4.090   7.026 -0.1913  0.0694  1.4686
  814MOL0     C12217   7.501   3.976   7.086 -0.9263 -0.2113  1.0458
  814MOL0     O12218   7.580   4.041   7.182 -0.4243 -0.3910 -0.0476
  814MOL0     C12219   7.690   3.974   7.224 -0.0780  0.8772  0.5606
  814MOL0     C12220   7.777   4.056   7.291  0.0040 -0.2510  0.5893
  814MOL0     C12221   7.906   4.010   7.323  0.0976  0.0584 -0.1596
  814MOL0     C12222   7.994   4.103   7.402  0.8879 -0.5426 -0.7064
  814MOL0     C12223   7.948   3.879   7.289 -0.1003 -0.8677 -0.5237
  814MOL0     C12224   8.092   3.833   7.299  0.1348 -0.5402  0.6524
  814MOL0     O12225   8.103   3.700   7.292 -1.1504 -0.5454  0.4564
  814MOL0     C12226   8.229   3.653   7.265 -0.2464 -0.0711 -1.3466
  814MOL0     C12227   8.281   3.659   7.138  1.4368  0.0052  0.0634
  814MOL0     C12228   8.415   3.643   7.114 -1.0147  0.9382  0.1155
  814MOL0     C12229   8.506   3.596   7.209  0.0859 -0.0739  0.0693
  814MOL0     O12230   8.640   3.590   7.170  0.2536  0.1957 -0.2307
  814MOL0     C12231   8.747   3.610   7.260 -1.2535  0.1643 -0.8305
  814MOL0     C12232   8.883   3.613   7.179  0.8926 -0.4374  0.1379
  814MOL0     C12233   8.905   3.470   7.105 -0.0032  0.1069 -0.6709
  814MOL0     C12234   9.039   3.457   7.028 -0.1986 -0.5964 -0.4050
  814MOL0     C12235   9.055   3.342   6.942 -0.4298  0.4506 -0.7029
  814MOL0     C12236   9.187   3.348   6.862 -0.0592  0.2731  0.0878
  814MOL0     C12237   9.219   3.213   6.799  0.7715  0.3094 -0.2652
  814MOL0     C12238   9.361   3.214   6.752 -0.4509  0.2075 -0.6743
  814MOL0    Cl12239   9.381   3.084   6.631  0.3194 -0.1377 -0.2681
  814MOL0     C12240   8.457   3.581   7.343 -0.2413  0.2581  0.7786
  814MOL0     C12241   8.320   3.608   7.364 -0.0709 -0.0696 -0.0428
  814MOL0     O12242   8.183   3.917   7.307  0.4564  0.4041  0.6609
  814MOL0     C12243   7.848   3.793   7.226 -0.4047  0.3207  0.4429
  814MOL0     C12244   7.722   3.843   7.187  0.2596 -0.2126 -0.0183
  814MOL0     N12245   7.069   4.345   7.265 -0.1367 -0.0653 -0.1485
  814MOL0     N12246   7.062   4.447   7.343  0.3022  0.2469  0.5009
  814MOL0     C12247   7.586   5.023   6.762  0.4984 -0.4619 -0.0549
  814MOL0     C12248   7.581   4.980   6.630 -0.4403  0.7915 -0.4185
  814MOL0     C12249   7.634   5.007   6.178  0.7252  0.2613 -0.0368
  814MOL0     C12250   7.564   4.877   6.176 -0.1914  0.6136  0.2055
  814MOL0     C12251   7.550   4.800   6.060  0.2348 -0.2639 -0.5786
  814MOL0     C12252   7.604   4.834   5.941 -0.9775 -0.6411 -1.1648
  814MOL0     O12253   7.614   4.764   5.823  0.7605 -0.3137  0.0162
  814MOL0     C12254   7.522   4.663   5.795  1.2219  0.2404 -0.7039
  814MOL0     C12255   7.404   4.732   5.718 -0.2127 -0.0257  0.0174
  814MOL0     C12256   7.299   4.623   5.675 -1.3666 -1.1141  0.1239
  814MOL0     C12257   7.182   4.602   5.767 -0.5573  0.2604  0.0468
  814MOL0     C12258   7.216   4.554   5.905 -0.0528  0.1237  1.0030
  814MOL0     C12259   7.252   4.540   6.018 -0.4544 -0.0702 -1.0738
  814MOL0     C12260   7.684   4.954   5.946 -0.0545  0.1140 -0.3883
  814MOL0     C12261   7.695   5.039   6.059  0.3868 -0.2419  0.1430
  814MOL0     C12262   7.797   5.142   6.038 -0.1162  0.2143 -0.6788
  814MOL0     H12263   7.496   5.293   6.490 -4.6616  0.4590  1.6999
  814MOL0     H12264   7.499   5.354   6.737 -0.9747  1.3570  1.0760
  814MOL0     H12265   7.390   5.321   6.924  0.0102 -1.8727  0.6940
  814MOL0     H12266   7.547   5.388   6.973 -0.4569  0.9132  1.1048
  814MOL0     H12267   7.529   5.253   7.190  0.4842 -0.9934 -2.2441
  814MOL0     H12268   7.394   5.361   7.178 -1.4713 -2.5222  4.1450
  814MOL0     H12269   7.282   5.132   7.070  0.3107 -0.8130  0.5480
  814MOL0     H12270   7.427   5.051   7.144 -0.4390 -0.6779  0.4409
  814MOL0     H12271   7.311   5.143   7.363  1.8067 -0.2264 -1.0886
  814MOL0     H12272   7.185   5.194   7.248 -2.5942 -1.5232 -0.4432
  814MOL0     H12273   7.219   4.938   7.167  1.7647 -1.6504  0.7484
  814MOL0     H12274   7.117   4.969   7.320 -0.7074 -0.8252  0.1261
  814MOL0     H12275   7.404   4.913   7.314 -1.9298  1.7997 -2.0852
  814MOL0     H12276   7.298   4.900   7.462  1.2528 -2.1239  0.8678
  814MOL0     H12277   7.343   4.693   7.420  1.1959 -0.4834 -1.4172
  814MOL0     H12278   7.356   4.722   7.247  2.4711 -1.0626  1.8649
  814MOL0     H12279   7.094   4.686   7.430 -1.8347  2.2931 -0.6099
  814MOL0     H12280   7.088   4.733   7.262 -2.2908 -0.5423  1.6051
  814MOL0     H12281   7.299   4.526   7.130 -0.7437  0.3999 -1.9023
  814MOL0     H12282   7.259   4.312   6.985  2.6049  1.3386  2.1671
  814MOL0     H12283   7.132   4.193   7.035 -0.8518 -0.0301 -0.1350
  814MOL0     H12284   7.398   4.241   7.181 -0.5655 -0.3819  0.3610
  814MOL0     H12285   7.288   4.110   7.202 -1.8874  0.4317  0.5654
  814MOL0     H12286   7.347   4.038   6.959  0.6626  0.2804  0.4156
  814MOL0     H12287   7.466   4.155   6.955 -0.3379 -0.3246  0.9976
  814MOL0     H12288   7.439   3.903   7.140 -0.1281 -0.4740  1.6251
  814MOL0     H12289   7.547   3.926   7.000 -1.6573 -2.1355  1.7165
  814MOL0     H12290   7.753   4.160   7.309  0.1962 -0.3032  1.1856
  814MOL0     H12291   8.083   4.137   7.348 -0.4041  2.7439 -0.9611
  814MOL0     H12292   8.032   4.051   7.491 -4.4495 -0.1018  2.2211
  814MOL0     H12293   7.950   4.197   7.436  3.8209  0.5570  0.4801
  814MOL0     H12294   8.228   3.702   7.054  0.6456  0.2530  0.6766
  814MOL0     H12295   8.473   3.664   7.025  1.8416  2.2743  2.1337
  814MOL0     H12296   8.730   3.702   7.315  1.6058  0.8615 -0.9282
  814MOL0     H12297   8.752   3.526   7.330  2.0116  0.3802 -0.6166
  814MOL0     H12298   8.888   3.693   7.104  0.7318  0.1391  0.7405
  814MOL0     H12299   8.968   3.624   7.247 -2.0204  1.5280  3.8207
  814MOL0     H12300   8.825   3.444   7.035  3.5257 -0.2726 -4.9775
  814MOL0     H12301   8.911   3.395   7.184 -0.8477  0.2487 -0.4620
  814MOL0     H12302   9.128   3.462   7.092  0.3084  2.0340 -1.1872
  814MOL0     H12303   9.031   3.539   6.956 -2.8620 -1.3845 -1.1164
  814MOL0     H12304   9.047   3.255   7.008 -2.2787  0.3573 -0.9937
  814MOL0     H12305   8.975   3.325   6.869 -1.7509 -2.2816  1.2269
  814MOL0     H12306   9.271   3.366   6.930 -1.4918 -1.1006  2.3765
  814MOL0     H12307   9.177   3.424   6.784 -2.7857  1.2153  1.2107
  814MOL0     H12308   9.154   3.179   6.718  2.1787  0.2075 -1.3800
  814MOL0     H12309   9.201   3.135   6.874 -3.2166 -0.4385 -1.7490
  814MOL0     H12310   9.427   3.190   6.836 -1.1300 -0.9550 -0.4524
  814MOL0     H12311   9.388   3.306   6.699 -0.0130 -0.5617 -1.8365
  814MOL0     H12312   8.531   3.563   7.421 -0.2039 -0.7439  0.5275
  814MOL0     H12313   8.265   3.610   7.457  0.2060  2.3767  0.1256
  814MOL0     H12314   7.875   3.696   7.186 -0.2995  0.1722  0.8764
  814MOL0     H12315   7.661   3.776   7.127 -1.7381  3.1079 -1.9997
  814MOL0     H12316   7.614   4.967   6.851  0.0067  1.3673  1.2947
  814MOL0     H12317   7.620   4.886   6.594  2.3069  0.8820  2.0243
  814MOL0     H12318   7.523   4.843   6.271 -1.9282  0.8707 -0.4135
  814MOL0     H12319   7.496   4.705   6.066  0.0231 -0.1838 -1.1684
  814MOL0     H12320   7.577   4.604   5.722  1.2749  1.8917 -2.0842
  814MOL0     H12321   7.487   4.604   5.880  1.5367 -0.4737 -1.0652
  814MOL0     H12322   7.458   4.777   5.633  1.3814 -2.2458 -0.2308
  814MOL0     H12323   7.362   4.796   5.796  0.3530 -0.2713  0.5321
  814MOL0     H12324   7.256   4.647   5.577  2.7229  1.5227 -1.2930
  814MOL0     H12325   7.357   4.530   5.667  1.8148  0.6464  0.9747
  814MOL0     H12326   7.109   4.536   5.720  1.3461 -2.1078  0.2812
  814MOL0     H12327   7.130   4.697   5.783 -0.7404 -0.3165  3.9120
  814MOL0     H12328   7.293   4.519   6.115 -1.9176  0.0487 -0.4128
  814MOL0     H12329   7.743   4.976   5.858  0.3801  5.8021  0.9868
  814MOL0     H12330   7.882   5.114   5.976 -1.8735 -3.6038 -1.6659
  814MOL0     H12331   7.754   5.228   5.985  0.2418  0.5050 -0.5001
  814MOL0     H12332   7.843   5.174   6.133 -1.1602 -1.1065  0.3061
  815MOL0     O12333   2.872   1.202   8.463  0.3675 -1.3604 -0.2407
  815MOL0     C12334   2.796   1.102   8.455 -0.3831 -0.9100  0.5234
  815MOL0     O12335   2.836   0.971   8.490 -0.2908 -0.1989 -0.3897
  815MOL0     C12336   2.957   0.933   8.559  0.2872  0.0652  0.7390
  815MOL0     C12337   2.999   0.801   8.553  0.1121  0.9071  0.2363
  815MOL0     C12338   3.122   0.747   8.599 -0.0740 -0.3956 -0.0090
  815MOL0     C12339   3.211   0.836   8.656 -0.3713  0.0240 -0.2270
  815MOL0     O12340   3.336   0.791   8.693 -0.1149  0.4152 -0.1563
  815MOL0     C12341   3.420   0.861   8.785  0.3076 -0.0367 -1.0363
  815MOL0     C12342   3.553   0.792   8.814 -0.8067 -0.7485 -0.1589
  815MOL0     C12343   3.634   0.870   8.919  0.2283 -0.3648  0.6354
  815MOL0     C12344   3.778   0.816   8.910  0.2080 -0.0156  0.7641
  815MOL0     C12345   3.892   0.906   8.961  1.0877 -0.7141  0.0155
  815MOL0     C12346   4.035   0.875   8.953 -0.1775  0.2490  0.0657
  815MOL0     C12347   4.137   0.964   9.022  0.3421 -0.2064 -0.0365
  815MOL0     C12348   4.147   0.951   9.172 -0.8284 -0.3902 -0.5288
  815MOL0     N12349   4.187   0.817   9.229 -0.4290  0.1809  0.3217
  815MOL0     C12350   4.313   0.750   9.219 -0.1293 -0.2575  0.2915
  815MOL0     C12351   4.303   0.647   9.302 -0.6627  1.0974  0.9704
  815MOL0     C12352   4.413   0.543   9.317 -0.1225  0.6516 -0.3381
  815MOL0     C12353   4.509   0.588   9.429 -0.7554 -0.0547  0.1950
  815MOL0     C12354   4.611   0.483   9.486 -0.1620 -0.7629 -0.1565
  815MOL0     C12355   4.696   0.411   9.388 -0.0957  0.1427  0.1770
  815MOL0     O12356   4.799   0.491   9.331  1.0737  0.3929  0.1118
  815MOL0     C12357   4.929   0.482   9.370 -0.9389  0.3661 -0.2183
  815MOL0     C12358   4.980   0.424   9.483 -0.2029  0.0535 -0.1729
  815MOL0     C12359   5.115   0.414   9.509  0.7976  0.7301 -0.5142
  815MOL0     C12360   5.161   0.308   9.615 -0.3361  0.3696 -0.3095
  815MOL0     C12361   5.202   0.492   9.438 -0.5889 -0.2028 -0.1915
  815MOL0     C12362   5.348   0.522   9.468 -0.7256  0.2461  0.8069
  815MOL0     O12363   5.401   0.634   9.416  0.1059 -0.4326 -0.7341
  815MOL0     C12364   5.542   0.639   9.409  0.0596  0.3649  0.1528
  815MOL0     C12365   5.611   0.763   9.422  0.0690 -0.2304  0.6514
  815MOL0     C12366   5.745   0.782   9.397  0.1743 -0.1568 -1.3063
  815MOL0     C12367   5.820   0.667   9.363  0.0748 -0.0653  0.0957
  815MOL0     O12368   5.958   0.671   9.345  0.4999  0.3269 -0.0837
  815MOL0     C12369   6.028   0.794   9.368  0.0655  0.9769 -0.1387
  815MOL0     C12370   6.181   0.762   9.369 -0.7835 -0.3953  0.3394
  815MOL0     C12371   6.256   0.896   9.366  0.1376 -0.2125  0.0707
  815MOL0     C12372   6.405   0.868   9.366  0.1991 -0.1710 -0.1491
  815MOL0     C12373   6.465   1.005   9.394 -0.2698 -0.4981  0.5869
  815MOL0     C12374   6.620   0.996   9.376  0.5365 -1.2715 -0.6925
  815MOL0     C12375   6.685   1.135   9.417  0.3136  0.8025  0.1470
  815MOL0     C12376   6.836   1.119   9.431  0.6365  0.3685 -0.1133
  815MOL0    Cl12377   6.895   1.049   9.281 -0.0048  0.2578  0.4073
  815MOL0     C12378   5.757   0.547   9.350  0.4321 -0.4886  0.2417
  815MOL0     C12379   5.622   0.531   9.373 -0.1353 -0.0900 -0.4353
  815MOL0     O12380   5.410   0.449   9.541  0.0976  0.0584  0.1943
  815MOL0     C12381   5.155   0.562   9.329  0.7484 -0.8043  0.3505
  815MOL0     C12382   5.016   0.562   9.292  0.1827  0.5782  0.7942
  815MOL0     N12383   4.183   0.646   9.364 -0.2259 -0.0093  0.3727
  815MOL0     N12384   4.113   0.749   9.319  0.3003  0.1148  0.5497
  815MOL0     C12385   3.174   0.969   8.674  0.1935  0.5522 -0.4897
  815MOL0     C12386   3.049   1.014   8.626 -0.6877 -0.5928  0.5739
  815MOL0     C12387   2.658   1.122   8.410 -0.4662 -0.2402  0.8950
  815MOL0     C12388   2.600   1.002   8.363 -0.7876  0.6652 -0.4244
  815MOL0     C12389   2.478   1.007   8.299 -0.2942 -0.3303  0.0315
  815MOL0     C12390   2.410   1.126   8.270 -0.1401 -0.7074  0.4097
  815MOL0     O12391   2.284   1.146   8.227 -0.0481 -0.2672 -0.0722
  815MOL0     C12392   2.231   1.055   8.136 -0.1627 -0.9539  0.2754
  815MOL0     C12393   2.319   1.021   8.011 -0.0630  0.0278  0.5046
  815MOL0     C12394   2.249   0.924   7.926 -0.0803 -0.1772  0.0649
  815MOL0     C12395   2.331   0.914   7.801  1.3488  0.6393  0.5125
  815MOL0     C12396   2.262   0.806   7.720 -0.8460 -0.1865  0.3327
  815MOL0     C12397   2.203   0.721   7.660 -0.5811  0.9890  0.4268
  815MOL0     C12398   2.483   1.245   8.303 -0.4696  0.2493 -1.0380
  815MOL0     C12399   2.607   1.241   8.370 -0.1132 -0.7661  0.0950
  815MOL0     C12400   2.673   1.377   8.394  0.9933 -0.4779 -0.3605
  815MOL0     H12401   2.936   0.731   8.499  1.0069  0.3535 -0.1159
  815MOL0     H12402   3.137   0.640   8.587 -4.6049 -1.2245 -0.2357
  815MOL0     H12403   3.364   0.866   8.878  0.1358 -0.4028 -1.1196
  815MOL0     H12404   3.442   0.964   8.754  1.3772  0.4253  1.0701
  815MOL0     H12405   3.533   0.691   8.850 -0.2435 -1.2186 -1.1450
  815MOL0     H12406   3.601   0.780   8.717  0.0296  0.6489  0.0477
  815MOL0     H12407   3.629   0.976   8.890  0.1398 -1.0203 -1.9521
  815MOL0     H12408   3.599   0.866   9.022 -1.5882  1.0002  0.1119
  815MOL0     H12409   3.789   0.719   8.958  1.7112  0.1286  0.7676
  815MOL0     H12410   3.794   0.795   8.804 -1.8956  1.9303  0.0006
  815MOL0     H12411   3.868   0.930   9.066 -1.2460  2.2971 -1.0316
  815MOL0     H12412   3.882   1.002   8.909 -3.0120 -0.5483  0.7579
  815MOL0     H12413   4.053   0.773   8.989  3.5122  0.0113 -1.9523
  815MOL0     H12414   4.061   0.871   8.846  2.5461  0.8325  0.6185
  815MOL0     H12415   4.120   1.067   8.991  0.0635  0.2886  1.6522
  815MOL0     H12416   4.231   0.937   8.972  0.2597 -1.5781  0.5016
  815MOL0     H12417   4.220   1.022   9.213  0.8125 -3.5563  2.6328
  815MOL0     H12418   4.055   0.978   9.224 -0.1207  1.7634 -0.2848
  815MOL0     H12419   4.404   0.772   9.163 -0.9716  2.3841 -0.1774
  815MOL0     H12420   4.472   0.519   9.228  1.0393 -0.2639  0.6528
  815MOL0     H12421   4.358   0.451   9.341 -1.4152  2.0387  2.4739
  815MOL0     H12422   4.556   0.684   9.407 -1.9395  0.9435  1.7411
  815MOL0     H12423   4.446   0.610   9.517 -2.0061 -1.2655 -0.3576
  815MOL0     H12424   4.669   0.542   9.557  0.9310 -2.1871  0.1763
  815MOL0     H12425   4.549   0.410   9.539 -2.1606  0.6325 -0.4382
  815MOL0     H12426   4.733   0.321   9.439 -0.4340 -0.5706 -0.8125
  815MOL0     H12427   4.630   0.368   9.313  0.4566  1.0776 -0.8747
  815MOL0     H12428   4.917   0.374   9.556 -0.8772  0.4348 -0.4840
  815MOL0     H12429   5.077   0.252   9.658 -0.6115  1.3854  0.5139
  815MOL0     H12430   5.218   0.356   9.695  1.1843  3.6455 -3.1307
  815MOL0     H12431   5.222   0.229   9.570 -0.1634 -1.1743  2.4185
  815MOL0     H12432   5.550   0.848   9.453 -0.6470 -0.4541 -0.0919
  815MOL0     H12433   5.778   0.885   9.406  1.0523 -0.5698  0.8862
  815MOL0     H12434   5.998   0.859   9.285 -1.6418  0.3653 -0.0317
  815MOL0     H12435   6.005   0.834   9.467 -0.8331 -2.0613  0.9947
  815MOL0     H12436   6.211   0.695   9.449  0.7155 -1.2779 -0.8922
  815MOL0     H12437   6.199   0.702   9.279 -3.2178 -0.7351 -0.0054
  815MOL0     H12438   6.233   0.974   9.439 -1.1968  0.7885 -1.3572
  815MOL0     H12439   6.235   0.941   9.268  0.0027 -0.3354  0.0442
  815MOL0     H12440   6.447   0.827   9.275  0.7749  1.7482 -0.8068
  815MOL0     H12441   6.420   0.799   9.449  0.5444 -0.7889 -0.7225
  815MOL0     H12442   6.424   1.075   9.321  0.6467  3.4965  3.5687
  815MOL0     H12443   6.432   1.046   9.490 -0.8842  2.2139 -0.6970
  815MOL0     H12444   6.651   0.959   9.278  1.0213  1.6530 -1.7567
  815MOL0     H12445   6.659   0.924   9.449  2.8721  1.5233  1.0541
  815MOL0     H12446   6.635   1.153   9.513 -3.0701 -4.2147 -0.2490
  815MOL0     H12447   6.673   1.208   9.336 -2.1562 -0.7816 -1.0674
  815MOL0     H12448   6.860   1.061   9.521 -2.3522 -0.4216  0.2635
  815MOL0     H12449   6.879   1.219   9.447  0.9830  0.0600  0.9682
  815MOL0     H12450   5.820   0.466   9.314 -0.2576 -0.0194 -2.1906
  815MOL0     H12451   5.567   0.440   9.351 -2.8255  1.2902  0.0766
  815MOL0     H12452   5.228   0.625   9.280  3.1653 -0.2991  4.1816
  815MOL0     H12453   4.982   0.605   9.198  4.5065 -1.4389 -2.0290
  815MOL0     H12454   3.236   1.041   8.727 -0.3988  1.8707 -1.5033
  815MOL0     H12455   3.024   1.119   8.634  0.5073 -0.3378  1.1623
  815MOL0     H12456   2.644   0.904   8.373  0.5488  1.1924 -0.8591
  815MOL0     H12457   2.441   0.906   8.283 -1.4651 -0.0993  1.1311
  815MOL0     H12458   2.211   0.964   8.193 -3.2875  0.1540  1.2142
  815MOL0     H12459   2.132   1.090   8.104 -0.0811 -0.5973  0.4012
  815MOL0     H12460   2.413   0.972   8.035  0.0751  0.1544  0.2319
  815MOL0     H12461   2.334   1.113   7.953  0.5985 -1.9098 -2.6802
  815MOL0     H12462   2.239   0.831   7.983  2.8271  0.2396  1.4202
  815MOL0     H12463   2.145   0.945   7.897 -0.9878 -1.6587  1.9841
  815MOL0     H12464   2.433   0.882   7.822  0.9428 -1.1630 -0.0732
  815MOL0     H12465   2.334   1.003   7.737 -0.8618 -1.7403 -3.2632
  815MOL0     H12466   2.177   0.638   7.597  0.2338 -0.9991  2.5694
  815MOL0     H12467   2.432   1.335   8.269  3.6710  2.1704 -2.8355
  815MOL0     H12468   2.769   1.373   8.341  0.5027  2.6395 -1.7312
  815MOL0     H12469   2.601   1.443   8.345 -2.4609 -1.8586  2.4271
  815MOL0     H12470   2.695   1.402   8.498 -0.9789 -1.9397  0.4803
  816MOL0     O12471  10.010  10.424   4.894 -0.2012  0.3691  0.3096
  816MOL0     C12472   9.946  10.329   4.851 -0.3877 -0.3800  0.6521
  816MOL0     O12473   9.979  10.194   4.867  0.3159 -0.5283  0.3342
  816MOL0     C12474  10.082  10.167   4.960 -0.4323 -0.6503 -0.1390
  816MOL0     C12475  10.059  10.114   5.084  0.5116  0.2445  0.1562
  816MOL0     C12476  10.167  10.069   5.161  0.2465 -0.0450  0.4518
  816MOL0     C12477  10.295  10.095   5.113  0.0888  0.0586  0.8045
  816MOL0     O12478  10.410  10.068   5.176 -0.0777 -0.2239  0.1575
  816MOL0     C12479  10.398  10.092   5.319 -0.0136  0.9140 -0.4359
  816MOL0     C12480  10.537  10.116   5.371  0.0701  0.3318 -0.4927
  816MOL0     C12481  10.547  10.141   5.521  0.0631 -0.2986 -1.5735
  816MOL0     C12482  10.688  10.105   5.571 -0.3151 -0.3690  1.0041
  816MOL0     C12483  10.682  10.073   5.717 -0.7961  0.7738  0.1168
  816MOL0     C12484  10.831  10.037   5.764  1.2245 -0.0650  0.3807
  816MOL0     C12485  10.836  10.003   5.908  0.1716  0.3344 -0.5935
  816MOL0     C12486  10.756   9.876   5.950  0.0474 -0.1946 -0.5586
  816MOL0     N12487  10.800   9.761   5.879 -0.0932 -0.2470  0.4094
  816MOL0     C12488  10.931   9.719   5.869  0.2015 -0.6079 -0.9579
  816MOL0     C12489  10.925   9.615   5.787  0.3402 -0.2634 -0.3878
  816MOL0     C12490  11.044   9.555   5.726  0.3858  0.2947  0.0872
  816MOL0     C12491  11.148   9.499   5.818 -0.2320 -0.2689  0.1355
  816MOL0     C12492  11.119   9.355   5.860  0.4886 -0.3636  0.0865
  816MOL0     C12493  11.220   9.299   5.953  0.2245  0.2082  0.1700
  816MOL0     O12494  11.219   9.156   5.968  0.0718 -0.6983  0.4892
  816MOL0     C12495  11.315   9.109   6.054 -0.6230  0.3220  0.7510
  816MOL0     C12496  11.413   9.180   6.116 -0.4105 -1.0039 -0.3614
  816MOL0     C12497  11.509   9.116   6.192  0.0585  0.2544 -0.3842
  816MOL0     C12498  11.604   9.202   6.261  1.1973  0.3659 -0.4836
  816MOL0     C12499  11.500   8.977   6.219  1.0688 -0.2137 -0.6306
  816MOL0     C12500  11.601   8.895   6.291 -0.2861  0.0279 -0.4866
  816MOL0     O12501  11.733   8.940   6.307  0.6488  0.2252  0.1069
  816MOL0     C12502  11.818   8.877   6.396  0.5161 -0.5427  0.4592
  816MOL0     C12503  11.945   8.838   6.350  0.1988 -0.7127 -0.7258
  816MOL0     C12504  12.040   8.764   6.433  0.2566 -0.2998 -0.2077
  816MOL0     C12505  12.017   8.768   6.573 -1.8581 -0.0192 -0.1321
  816MOL0     O12506  12.131   8.725   6.651  0.0545  0.0781  0.9412
  816MOL0     C12507  12.114   8.715   6.789  0.7340 -0.5965  0.1408
  816MOL0     C12508  12.256   8.707   6.845 -0.6802 -0.2390 -0.0453
  816MOL0     C12509  12.323   8.581   6.795 -0.5560 -0.6223 -1.4964
  816MOL0     C12510  12.475   8.586   6.803  0.4222 -0.0322 -0.4905
  816MOL0     C12511  12.561   8.457   6.791 -0.1020  1.2712  0.0765
  816MOL0     C12512  12.504   8.347   6.883 -0.3312  0.5228 -0.0877
  816MOL0     C12513  12.603   8.228   6.875  0.0392 -0.9696  0.4588
  816MOL0     C12514  12.568   8.117   6.970 -0.5367 -0.4401 -0.7821
  816MOL0    Cl12515  12.692   7.988   6.953  0.1444  0.7604 -0.2482
  816MOL0     C12516  11.888   8.817   6.621  1.2450  0.4689 -0.1381
  816MOL0     C12517  11.786   8.871   6.534  0.0164 -0.1715 -0.3642
  816MOL0     O12518  11.556   8.790   6.346 -1.0085  0.4868  0.1686
  816MOL0     C12519  11.397   8.905   6.163 -0.3967  0.5950  0.3404
  816MOL0     C12520  11.307   8.971   6.085  0.1907  0.3317  0.5346
  816MOL0     N12521  10.792   9.580   5.763  0.3159  0.1198 -0.3853
  816MOL0     N12522  10.721   9.673   5.810  0.6834  0.3487 -0.6374
  816MOL0     C12523  10.315  10.150   4.982 -0.0927 -0.2331  0.0650
  816MOL0     C12524  10.207  10.180   4.902  0.2257 -0.6230  1.2157
  816MOL0     C12525   9.825  10.363   4.777  0.0975  0.8199  0.9090
  816MOL0     C12526   9.743  10.260   4.736  0.3321 -0.0986 -0.1501
  816MOL0     C12527   9.649  10.279   4.636  0.0705  0.0730  0.2071
  816MOL0     C12528   9.626  10.410   4.577 -0.8957 -0.0746 -0.4806
  816MOL0     O12529   9.545  10.437   4.467  0.2227 -0.4268  0.0046
  816MOL0     C12530   9.530  10.343   4.358  0.2972 -1.0479  0.5783
  816MOL0     C12531   9.663  10.316   4.304 -0.9220 -1.1351 -0.4618
  816MOL0     C12532   9.738  10.433   4.255 -0.4430 -0.3238  0.1665
  816MOL0     C12533   9.890  10.404   4.234  0.3077 -0.1726  0.6671
  816MOL0     C12534   9.951  10.346   4.355  0.3108 -0.3741 -0.7797
  816MOL0     C12535   9.972  10.301   4.462  0.3321  0.4893 -0.3589
  816MOL0     C12536   9.685  10.523   4.633 -0.7654 -0.2079  0.8370
  816MOL0     C12537   9.789  10.500   4.728  1.3187  0.5812 -0.3885
  816MOL0     C12538   9.864  10.629   4.762  0.0409 -0.0708  0.2328
  816MOL0     H12539   9.960  10.105   5.126  0.6238  1.8827  0.8697
  816MOL0     H12540  10.145  10.030   5.260 -1.4247 -1.6846 -0.5086
  816MOL0     H12541  10.351  10.006   5.368  2.7055 -0.6046 -0.3085
  816MOL0     H12542  10.345  10.184   5.346 -2.9617 -1.1304  1.4199
  816MOL0     H12543  10.604  10.034   5.345 -0.3702  0.6792 -2.9366
  816MOL0     H12544  10.580  10.202   5.318 -0.3105  1.4105  0.8866
  816MOL0     H12545  10.527  10.244   5.550 -1.0272 -1.0355  0.4957
  816MOL0     H12546  10.475  10.075   5.570  1.3782 -0.8867 -0.3656
  816MOL0     H12547  10.730  10.018   5.521 -1.2879 -0.6816  0.7129
  816MOL0     H12548  10.757  10.184   5.542 -1.4801 -0.0186 -0.9407
  816MOL0     H12549  10.622   9.983   5.734  2.7566 -1.8715 -0.0693
  816MOL0     H12550  10.643  10.155   5.778 -2.2612 -1.5062  2.4902
  816MOL0     H12551  10.861   9.952   5.702 -3.2029 -0.3632 -1.7486
  816MOL0     H12552  10.888  10.128   5.741 -0.5999  1.2636  0.8382
  816MOL0     H12553  10.794  10.079   5.975  1.2533 -0.4964  1.0965
  816MOL0     H12554  10.941   9.989   5.934 -0.2888 -1.9156  0.2847
  816MOL0     H12555  10.786   9.863   6.054 -0.8786  2.1783  0.0834
  816MOL0     H12556  10.647   9.892   5.949  0.0233 -0.0237 -3.0430
  816MOL0     H12557  11.020   9.768   5.908 -0.9762 -0.8575  2.3302
  816MOL0     H12558  11.103   9.632   5.674 -1.1941 -0.6284 -3.3626
  816MOL0     H12559  11.005   9.477   5.661  3.1515 -1.2128  0.0819
  816MOL0     H12560  11.249   9.514   5.778 -1.3567  3.8677 -1.7267
  816MOL0     H12561  11.150   9.563   5.907  1.1169  1.2876 -0.9462
  816MOL0     H12562  11.021   9.361   5.909  0.6592  1.0150  0.3093
  816MOL0     H12563  11.111   9.288   5.774  0.6310 -2.2337  1.4806
  816MOL0     H12564  11.317   9.325   5.909  0.6370 -0.7540  0.4879
  816MOL0     H12565  11.205   9.356   6.046 -0.0956  1.1442 -0.4467
  816MOL0     H12566  11.432   9.286   6.104 -1.6260 -0.4864  1.7287
  816MOL0     H12567  11.562   9.303   6.264 -0.7853 -0.4307 -0.0459
  816MOL0     H12568  11.705   9.198   6.219  1.4778 -0.0360  0.2170
  816MOL0     H12569  11.609   9.168   6.365  4.1496  1.5935 -0.1271
  816MOL0     H12570  11.964   8.848   6.243  1.3335  1.1393 -0.3960
  816MOL0     H12571  12.132   8.716   6.400  0.3596 -0.2659  0.0270
  816MOL0     H12572  12.080   8.813   6.823  0.4950 -0.2536 -1.0142
  816MOL0     H12573  12.047   8.634   6.822  1.4900 -0.5497  1.8902
  816MOL0     H12574  12.309   8.795   6.806 -0.8651 -0.2719 -0.3734
  816MOL0     H12575  12.265   8.716   6.953  1.4823  1.6100 -0.2986
  816MOL0     H12576  12.292   8.554   6.694 -2.6239  0.6358 -1.2468
  816MOL0     H12577  12.295   8.499   6.862  0.4491 -0.0461 -0.3174
  816MOL0     H12578  12.493   8.628   6.902  0.2743 -1.5506  0.2134
  816MOL0     H12579  12.507   8.665   6.736  0.5346 -2.2018 -3.1830
  816MOL0     H12580  12.561   8.420   6.688 -1.1907 -2.4983  1.2722
  816MOL0     H12581  12.666   8.471   6.816  0.7006 -1.3974 -1.3716
  816MOL0     H12582  12.408   8.315   6.840  0.2112 -0.4568 -0.6130
  816MOL0     H12583  12.503   8.385   6.986  3.5482  0.7610 -0.0118
  816MOL0     H12584  12.706   8.260   6.891  0.4123 -1.1982 -1.2355
  816MOL0     H12585  12.609   8.190   6.772  2.5127 -3.2152  1.3318
  816MOL0     H12586  12.466   8.080   6.950  0.3124 -1.8747 -2.8475
  816MOL0     H12587  12.582   8.145   7.075 -3.4076 -0.4976 -0.2971
  816MOL0     H12588  11.868   8.831   6.727 -1.3682  0.4586 -0.5567
  816MOL0     H12589  11.689   8.893   6.577 -0.5017 -2.1421 -0.3906
  816MOL0     H12590  11.393   8.797   6.174 -2.2905  0.6248  0.1898
  816MOL0     H12591  11.231   8.910   6.037 -1.1122  0.7964  1.9297
  816MOL0     H12592  10.419  10.173   4.959 -0.8347  1.5707 -1.7801
  816MOL0     H12593  10.214  10.215   4.800  1.7569 -2.2400  0.7338
  816MOL0     H12594   9.769  10.156   4.754 -1.3334 -0.2876  1.5104
  816MOL0     H12595   9.616  10.187   4.591 -1.4528  1.3012 -1.3206
  816MOL0     H12596   9.482  10.254   4.401 -0.0970 -1.7196 -1.1730
  816MOL0     H12597   9.468  10.401   4.289  0.0982 -1.8327  0.0842
  816MOL0     H12598   9.654  10.238   4.228  3.9507 -0.6855 -1.8809
  816MOL0     H12599   9.714  10.264   4.385  0.4027  0.1164 -0.4516
  816MOL0     H12600   9.695  10.464   4.159 -2.3988 -1.4247  0.6543
  816MOL0     H12601   9.719  10.512   4.328 -1.6956  1.3328 -1.8516
  816MOL0     H12602   9.939  10.499   4.210 -2.8692  1.0555 -1.6934
  816MOL0     H12603   9.896  10.333   4.150 -0.0299 -0.6308  1.0262
  816MOL0     H12604  10.000  10.274   4.562  3.3612 -0.0263 -1.2504
  816MOL0     H12605   9.648  10.618   4.596 -0.1744 -0.1623  0.3476
  816MOL0     H12606   9.972  10.627   4.777  0.3092 -1.0930 -1.6100
  816MOL0     H12607   9.856  10.704   4.683  3.1203 -0.5889 -0.7025
  816MOL0     H12608   9.822  10.668   4.856 -0.7597 -2.4221  0.9171
  817MOL0     O12609   7.569  10.005   1.784  0.3065  0.2853  0.3637
  817MOL0     C12610   7.615  10.031   1.895 -0.2706  0.3141 -0.3934
  817MOL0     O12611   7.740   9.994   1.937 -0.5459  0.1371 -0.1413
  817MOL0     C12612   7.836   9.932   1.856  0.4733 -0.5459 -0.2871
  817MOL0     C12613   7.810   9.852   1.749  1.2819 -1.4755  0.5899
  817MOL0     C12614   7.910   9.783   1.677 -0.0527 -0.2070 -0.1915
  817MOL0     C12615   8.045   9.803   1.713  0.2750 -0.1830 -0.4272
  817MOL0     O12616   8.141   9.734   1.654  0.2866 -0.1169 -0.3490
  817MOL0     C12617   8.272   9.729   1.704 -0.2712 -0.1257 -0.5882
  817MOL0     C12618   8.342   9.602   1.642 -0.5702  0.1512 -1.0167
  817MOL0     C12619   8.492   9.590   1.702  0.5872  0.1052  0.1889
  817MOL0     C12620   8.573   9.478   1.643 -0.1144  0.0965 -0.2554
  817MOL0     C12621   8.530   9.336   1.677  0.3957  0.0913 -0.9653
  817MOL0     C12622   8.639   9.237   1.635 -0.5186 -1.0471  0.3383
  817MOL0     C12623   8.594   9.094   1.669 -0.0278  0.8801 -0.6888
  817MOL0     C12624   8.694   8.986   1.608 -0.5268 -1.0495 -0.0965
  817MOL0     N12625   8.673   8.997   1.461  0.1037  0.8608  0.8906
  817MOL0     C12626   8.770   9.031   1.366  0.7371 -0.4575  0.5421
  817MOL0     C12627   8.704   9.004   1.249  0.3211 -0.0254 -0.0149
  817MOL0     C12628   8.761   9.031   1.107 -0.6439  0.2784 -0.3322
  817MOL0     C12629   8.769   8.908   1.010 -0.4243 -0.3714  0.9543
  817MOL0     C12630   8.813   8.957   0.871  0.3953  0.9160  0.6792
  817MOL0     C12631   8.713   9.048   0.796 -0.0403  0.3226 -0.1211
  817MOL0     O12632   8.577   8.995   0.813  0.2828  0.7431 -0.1574
  817MOL0     C12633   8.494   9.050   0.708 -0.2738  0.5446  0.4109
  817MOL0     C12634   8.398   8.966   0.656  1.1310  0.0161  0.1498
  817MOL0     C12635   8.306   9.008   0.559 -0.4579 -0.1768 -0.1607
  817MOL0     C12636   8.206   8.906   0.519  0.5670 -0.8190 -0.3222
  817MOL0     C12637   8.306   9.145   0.514  0.9394 -0.8343  0.1577
  817MOL0     C12638   8.193   9.201   0.421 -0.6479 -0.9186 -0.1247
  817MOL0     O12639   8.195   9.345   0.410 -0.1490 -0.0969 -0.2135
  817MOL0     C12640   8.093   9.408   0.344 -0.2527 -0.7588 -1.4755
  817MOL0     C12641   7.963   9.396   0.394  0.0850 -0.9130 -0.9583
  817MOL0     C12642   7.856   9.458   0.321  0.2189  0.3301  0.0848
  817MOL0     C12643   7.877   9.531   0.208  0.4131 -1.0048 -0.3786
  817MOL0     O12644   7.766   9.558   0.145 -0.0195  0.0143  0.0664
  817MOL0     C12645   7.776   9.630   0.024  0.8975 -0.9210 -0.1199
  817MOL0     C12646   7.645   9.687  -0.026 -0.1396  0.2880  0.4021
  817MOL0     C12647   7.662   9.736  -0.171 -0.0930 -0.4406 -0.0946
  817MOL0     C12648   7.531   9.790  -0.224  0.0029  0.0459  0.0001
  817MOL0     C12649   7.536   9.817  -0.379  0.1023  0.8896  0.0425
  817MOL0     C12650   7.402   9.859  -0.436 -0.3753 -0.3958  0.3582
  817MOL0     C12651   7.408   9.914  -0.573  0.1155  0.0792 -0.0282
  817MOL0     C12652   7.270   9.943  -0.630  0.1939 -0.6728 -1.0397
  817MOL0    Cl12653   7.142   9.822  -0.623  0.2804  0.2398 -0.1022
  817MOL0     C12654   8.012   9.537   0.158 -0.0780 -1.0197 -0.6126
  817MOL0     C12655   8.114   9.479   0.230  0.0891 -0.0424  0.3231
  817MOL0     O12656   8.108   9.132   0.372 -0.4253 -0.1297  0.3575
  817MOL0     C12657   8.400   9.235   0.562 -0.2442 -0.4035 -0.8715
  817MOL0     C12658   8.489   9.189   0.657 -1.0785 -0.4279 -0.1704
  817MOL0     N12659   8.569   8.972   1.280 -0.0532 -0.4481  0.0102
  817MOL0     N12660   8.557   8.970   1.405 -0.9442  0.3057  0.1318
  817MOL0     C12661   8.070   9.891   1.821  0.0610 -0.7663  0.4992
  817MOL0     C12662   7.969   9.954   1.890 -0.3702 -0.3271  0.1456
  817MOL0     C12663   7.526  10.091   1.993  0.8448  0.0693  0.4877
  817MOL0     C12664   7.406  10.015   2.015  0.3262 -0.2494 -0.1019
  817MOL0     C12665   7.301  10.071   2.091 -0.5024  0.1705  0.5989
  817MOL0     C12666   7.332  10.182   2.174  2.3397 -0.5285  0.4600
  817MOL0     O12667   7.238  10.238   2.259 -0.2023 -0.5711 -0.0619
  817MOL0     C12668   7.099  10.190   2.252 -0.3848  0.0436 -0.0948
  817MOL0     C12669   7.018  10.271   2.367  0.3124 -0.1689  0.1608
  817MOL0     C12670   7.023  10.193   2.499 -0.6806  0.6124 -0.0026
  817MOL0     C12671   6.953  10.274   2.608 -0.1538  0.6494  0.7897
  817MOL0     C12672   6.812  10.253   2.594 -0.0572  0.8583 -0.2138
  817MOL0     C12673   6.694  10.216   2.586 -0.4512  0.3129 -1.3735
  817MOL0     C12674   7.460  10.249   2.158  0.0078 -0.2261  0.1616
  817MOL0     C12675   7.559  10.204   2.075  0.0136  0.5015  0.6174
  817MOL0     C12676   7.693  10.271   2.077  0.0034  0.3963  0.0318
  817MOL0     H12677   7.707   9.828   1.726  0.4721  1.0633  1.2211
  817MOL0     H12678   7.894   9.696   1.615  0.3107 -0.7705  0.4933
  817MOL0     H12679   8.266   9.718   1.812  0.3983 -2.2397 -0.7277
  817MOL0     H12680   8.325   9.823   1.689 -0.8248  0.1503 -0.8526
  817MOL0     H12681   8.287   9.513   1.674  0.2096  1.0012  3.2614
  817MOL0     H12682   8.354   9.598   1.533 -0.1219 -1.5123 -0.9348
  817MOL0     H12683   8.553   9.680   1.699 -1.9383  1.8955 -0.6689
  817MOL0     H12684   8.490   9.569   1.809  1.2516 -0.2625  0.1319
  817MOL0     H12685   8.571   9.491   1.534 -1.9898 -2.3199 -0.5959
  817MOL0     H12686   8.678   9.491   1.669 -0.0597  1.3161 -0.9841
  817MOL0     H12687   8.436   9.299   1.636  0.3336 -2.5021  1.2251
  817MOL0     H12688   8.524   9.340   1.786 -2.0794 -1.7362 -0.9489
  817MOL0     H12689   8.664   9.250   1.529  1.0410  1.0701  0.8787
  817MOL0     H12690   8.730   9.272   1.685 -1.2180 -0.3327  1.1468
  817MOL0     H12691   8.495   9.081   1.625 -1.4409  0.4594  2.3247
  817MOL0     H12692   8.575   9.086   1.777 -0.7400 -0.3407 -0.8885
  817MOL0     H12693   8.798   8.988   1.641 -0.4579 -1.4987 -0.2858
  817MOL0     H12694   8.654   8.897   1.657 -0.4701 -0.5451  0.9153
  817MOL0     H12695   8.870   9.066   1.389  0.2956 -0.8078  3.3038
  817MOL0     H12696   8.863   9.070   1.114 -0.3547 -0.7691  2.1637
  817MOL0     H12697   8.690   9.092   1.049 -1.4481 -1.7858 -1.6464
  817MOL0     H12698   8.846   8.839   1.044  0.1171  0.2119  0.9346
  817MOL0     H12699   8.674   8.855   1.008 -0.4410 -0.3504  1.1412
  817MOL0     H12700   8.916   8.992   0.886  0.0677  1.2956  2.1921
  817MOL0     H12701   8.808   8.862   0.816 -1.7413  0.2380  1.9541
  817MOL0     H12702   8.720   9.150   0.836 -2.3209  0.0116  1.2663
  817MOL0     H12703   8.748   9.047   0.693 -0.5960 -0.7092 -0.3081
  817MOL0     H12704   8.399   8.870   0.706  1.3826  0.7321  1.6058
  817MOL0     H12705   8.234   8.804   0.547 -0.7453 -1.2213 -0.3834
  817MOL0     H12706   8.198   8.906   0.409  2.1149 -2.3930 -0.4764
  817MOL0     H12707   8.108   8.922   0.565 -1.0240 -0.9794 -3.3247
  817MOL0     H12708   7.930   9.350   0.487 -3.2933 -1.0997 -2.1129
  817MOL0     H12709   7.753   9.459   0.355  0.1197  2.2809 -0.2063
  817MOL0     H12710   7.838   9.719   0.032 -2.1054  1.4521 -1.0904
  817MOL0     H12711   7.810   9.568  -0.060 -0.5389  0.8169 -2.0979
  817MOL0     H12712   7.572   9.608  -0.011 -0.6194  0.6638  0.0834
  817MOL0     H12713   7.622   9.776   0.034  0.3953  0.7031  0.0135
  817MOL0     H12714   7.704   9.660  -0.238 -0.0086  0.6281 -1.2808
  817MOL0     H12715   7.730   9.820  -0.183 -2.4830  1.4004 -1.8348
  817MOL0     H12716   7.501   9.885  -0.180 -0.0181 -0.4470  1.0728
  817MOL0     H12717   7.455   9.716  -0.198 -0.3382  0.2309 -0.4438
  817MOL0     H12718   7.615   9.890  -0.402  0.0442  1.4668  1.5543
  817MOL0     H12719   7.577   9.728  -0.428  1.9042  0.3426  2.3089
  817MOL0     H12720   7.360   9.939  -0.374 -1.0722 -0.8414  0.4695
  817MOL0     H12721   7.328   9.778  -0.430 -0.6201 -0.5234 -2.6088
  817MOL0     H12722   7.462   9.840  -0.632  0.6747 -1.0327  1.8136
  817MOL0     H12723   7.471  10.004  -0.576  1.5065 -0.7769  1.7359
  817MOL0     H12724   7.285   9.977  -0.733 -1.0762 -0.3803 -1.1399
  817MOL0     H12725   7.232  10.035  -0.584 -0.0271 -1.4880  0.4754
  817MOL0     H12726   8.033   9.594   0.068  0.5217  1.6970  1.1246
  817MOL0     H12727   8.213   9.489   0.188 -0.2299  0.4284 -0.3306
  817MOL0     H12728   8.412   9.339   0.531 -2.8328  0.7032  1.3906
  817MOL0     H12729   8.553   9.260   0.708 -1.3402 -0.2385 -0.1039
  817MOL0     H12730   8.174   9.913   1.845 -0.3842  0.0529  1.7974
  817MOL0     H12731   7.991  10.031   1.964 -0.1386 -1.1605  0.9594
  817MOL0     H12732   7.396   9.928   1.951  2.9353 -1.8509  1.4829
  817MOL0     H12733   7.206  10.019   2.099 -1.1456  1.2019 -0.1561
  817MOL0     H12734   7.057  10.206   2.152  3.7476  3.8667 -1.5359
  817MOL0     H12735   7.100  10.085   2.281 -0.5515  0.2493  0.6679
  817MOL0     H12736   6.912  10.278   2.342 -0.8602 -2.3111  3.7659
  817MOL0     H12737   7.074  10.365   2.379  2.2274 -1.5425  3.7806
  817MOL0     H12738   6.965  10.100   2.491 -2.0172  1.3326  1.0632
  817MOL0     H12739   7.127  10.164   2.521 -0.3194 -1.7228 -3.7952
  817MOL0     H12740   6.975  10.381   2.601 -0.8606  0.9523  2.5609
  817MOL0     H12741   6.989  10.247   2.708  1.0598  1.6366  0.6586
  817MOL0     H12742   6.589  10.193   2.583 -0.5709  0.9279 -2.7371
  817MOL0     H12743   7.478  10.334   2.223  3.3123 -0.1784 -0.6333
  817MOL0     H12744   7.685  10.371   2.121  1.7203  1.0473 -1.0041
  817MOL0     H12745   7.763  10.202   2.126 -3.5597 -3.4104  0.2743
  817MOL0     H12746   7.732  10.285   1.975  1.2081 -2.3262  0.0240
  818MOL0     O12747   1.292   4.645   1.469  0.0097 -0.7075  0.9933
  818MOL0     C12748   1.322   4.526   1.478 -0.2295 -0.7640  1.0266
  818MOL0     O12749   1.436   4.464   1.417  0.2445 -0.1957  0.6623
  818MOL0     C12750   1.508   4.544   1.333  0.6493 -0.6515 -0.4346
  818MOL0     C12751   1.633   4.595   1.373  0.0648  0.1827  0.8088
  818MOL0     C12752   1.722   4.647   1.278  0.4175 -1.2926  0.2481
  818MOL0     C12753   1.681   4.691   1.153  0.7487  0.9157  0.3378
  818MOL0     O12754   1.772   4.766   1.082  0.7933  0.2358  0.4912
  818MOL0     C12755   1.780   4.753   0.942  0.2274  0.4533  0.0130
  818MOL0     C12756   1.703   4.882   0.899 -0.5614 -0.4496 -0.4348
  818MOL0     C12757   1.746   4.929   0.756  0.9503 -0.0489 -0.6480
  818MOL0     C12758   1.719   4.832   0.649 -0.2395  0.3255  0.4776
  818MOL0     C12759   1.696   4.906   0.508  0.1712 -0.1202 -0.4586
  818MOL0     C12760   1.655   4.826   0.384 -0.2828 -0.4254  0.1289
  818MOL0     C12761   1.756   4.715   0.336  0.1398 -0.3809  0.4089
  818MOL0     C12762   1.866   4.762   0.245  0.4373  0.9289 -0.2824
  818MOL0     N12763   1.955   4.867   0.297 -0.3199  0.6678  0.0771
  818MOL0     C12764   2.067   4.862   0.373  0.0806  0.1126 -0.1009
  818MOL0     C12765   2.112   4.988   0.384  0.4035 -0.1615 -0.0174
  818MOL0     C12766   2.232   5.043   0.450 -0.2359  0.7158 -0.2769
  818MOL0     C12767   2.354   5.046   0.352  0.9659 -0.3661 -0.9089
  818MOL0     C12768   2.484   5.099   0.424  0.1438  0.3877 -0.1610
  818MOL0     C12769   2.606   5.099   0.334  0.4069  0.5919  0.0528
  818MOL0     O12770   2.593   5.215   0.250  0.2759 -0.0827 -0.2767
  818MOL0     C12771   2.669   5.228   0.136 -1.0643  0.0374 -0.4883
  818MOL0     C12772   2.640   5.327   0.040 -0.6768 -0.7098 -0.4139
  818MOL0     C12773   2.709   5.342  -0.082 -0.1459  0.3310  0.0045
  818MOL0     C12774   2.650   5.450  -0.170 -0.7934 -0.8407 -0.0891
  818MOL0     C12775   2.830   5.258  -0.096  0.4826 -0.6652  1.3905
  818MOL0     C12776   2.901   5.252  -0.226 -0.6071 -0.6172  1.3674
  818MOL0     O12777   2.990   5.147  -0.249  0.6238  0.0508 -0.1872
  818MOL0     C12778   3.038   5.133  -0.378 -0.2390 -0.1767  0.5106
  818MOL0     C12779   3.169   5.106  -0.408 -0.9914 -0.0405 -0.6463
  818MOL0     C12780   3.209   5.073  -0.535  0.4014 -0.5372 -0.1075
  818MOL0     C12781   3.112   5.067  -0.642 -0.5416  0.0958 -0.2014
  818MOL0     O12782   3.158   5.037  -0.769  0.2082 -0.2108 -0.3392
  818MOL0     C12783   3.112   4.899  -0.801 -0.4846 -1.0405 -0.1085
  818MOL0     C12784   3.175   4.860  -0.930 -0.1302 -0.2941 -0.3670
  818MOL0     C12785   3.328   4.832  -0.932  0.4532  0.1824  0.8801
  818MOL0     C12786   3.391   4.789  -1.067  0.1838 -0.1572 -0.4875
  818MOL0     C12787   3.539   4.787  -1.072  0.1779  0.0967 -0.4137
  818MOL0     C12788   3.597   4.731  -1.204  0.3355 -0.4944  0.5777
  818MOL0     C12789   3.742   4.784  -1.240  0.3346  0.0498  0.2814
  818MOL0     C12790   3.757   4.825  -1.386 -0.0878  0.0793 -1.0619
  818MOL0    Cl12791   3.790   4.682  -1.488 -0.3274  0.0809 -0.3142
  818MOL0     C12792   2.975   5.078  -0.606 -0.7150  0.1839  0.0760
  818MOL0     C12793   2.943   5.108  -0.480 -0.2687 -0.3383 -0.4134
  818MOL0     O12794   2.873   5.335  -0.310  0.0193 -0.0258  0.8489
  818MOL0     C12795   2.856   5.162  -0.002  0.0529 -0.2087  0.7392
  818MOL0     C12796   2.778   5.147   0.118 -0.6825 -0.4565  0.6644
  818MOL0     N12797   2.024   5.067   0.315 -0.3146 -0.3984 -0.4733
  818MOL0     N12798   1.930   4.995   0.267  0.4430  0.1282  0.4669
  818MOL0     C12799   1.557   4.639   1.109  0.6599  0.6388  0.1069
  818MOL0     C12800   1.468   4.566   1.200 -0.7956 -0.2495  0.5930
  818MOL0     C12801   1.227   4.441   1.552 -0.2150  0.0433  0.4691
  818MOL0     C12802   1.238   4.304   1.521 -1.2588 -0.3192 -0.8494
  818MOL0     C12803   1.150   4.210   1.575 -0.5246 -0.5328 -0.1767
  818MOL0     C12804   1.042   4.249   1.661 -0.0576  0.5032  0.2858
  818MOL0     O12805   0.987   4.138   1.727  0.9030 -1.2230 -0.1653
  818MOL0     C12806   0.846   4.143   1.733  1.0127  0.3923 -0.4997
  818MOL0     C12807   0.775   4.100   1.607 -0.2151 -0.4829  0.2738
  818MOL0     C12808   0.772   4.200   1.485  1.1077  1.0680  0.1818
  818MOL0     C12809   0.679   4.150   1.369  0.3095 -0.7581 -0.2708
  818MOL0     C12810   0.623   4.265   1.295  1.1623  0.3291  0.0420
  818MOL0     C12811   0.579   4.365   1.240 -0.8353 -0.5523  1.0867
  818MOL0     C12812   1.021   4.389   1.683 -0.4440 -0.3248  0.3360
  818MOL0     C12813   1.116   4.485   1.624  1.3035 -0.1542 -0.6238
  818MOL0     C12814   1.078   4.632   1.641 -0.2183  0.8494 -0.8339
  818MOL0     H12815   1.665   4.573   1.474 -0.3649  2.0112  1.3873
  818MOL0     H12816   1.818   4.686   1.309  0.1367  1.8172 -2.3643
  818MOL0     H12817   1.733   4.666   0.895 -0.5576  0.3362  0.9713
  818MOL0     H12818   1.886   4.752   0.917  0.7373  0.2756  2.0198
  818MOL0     H12819   1.599   4.851   0.913  0.6331 -3.5230  4.3370
  818MOL0     H12820   1.718   4.958   0.976  1.9585 -2.8879  1.7152
  818MOL0     H12821   1.680   5.015   0.741 -0.4838 -0.4393  2.5918
  818MOL0     H12822   1.853   4.952   0.760  1.5783 -2.6581 -0.3985
  818MOL0     H12823   1.804   4.764   0.650  1.7002  2.5703 -0.9791
  818MOL0     H12824   1.628   4.773   0.663  0.6218 -1.5665 -1.3691
  818MOL0     H12825   1.787   4.956   0.474 -0.5526  1.4306 -0.2246
  818MOL0     H12826   1.622   4.983   0.533 -3.9832 -3.3883 -1.5542
  818MOL0     H12827   1.560   4.774   0.400 -0.6389  0.2523  0.2315
  818MOL0     H12828   1.623   4.895   0.306 -1.2331  0.2149  1.0598
  818MOL0     H12829   1.697   4.648   0.274 -4.0584  2.2089  1.2124
  818MOL0     H12830   1.795   4.664   0.425  3.1172  0.2529 -0.4414
  818MOL0     H12831   1.934   4.682   0.213  0.2213  0.3658  0.6472
  818MOL0     H12832   1.815   4.802   0.157  0.5343  1.8746  0.0754
  818MOL0     H12833   2.118   4.777   0.417  1.4872  0.7106 -0.5191
  818MOL0     H12834   2.251   4.982   0.540 -2.0080  1.3277  0.5558
  818MOL0     H12835   2.211   5.142   0.491  2.0024  0.7050  1.0885
  818MOL0     H12836   2.370   4.945   0.313  0.4621 -0.6341 -0.4357
  818MOL0     H12837   2.329   5.120   0.275 -2.0735  0.2358  0.5294
  818MOL0     H12838   2.472   5.202   0.457  1.6531  0.0728  1.5174
  818MOL0     H12839   2.510   5.040   0.513 -0.7621  1.5464  0.9049
  818MOL0     H12840   2.695   5.098   0.398 -0.4478 -2.4529  1.3624
  818MOL0     H12841   2.597   5.010   0.272  1.0741  0.6652 -0.1563
  818MOL0     H12842   2.548   5.382   0.051  0.1580  0.7142 -0.2929
  818MOL0     H12843   2.640   5.421  -0.275 -1.4413  1.9270 -0.8873
  818MOL0     H12844   2.708   5.543  -0.163 -0.5672 -1.0423  0.9571
  818MOL0     H12845   2.548   5.477  -0.142 -0.7324 -0.2811 -0.3996
  818MOL0     H12846   3.249   5.107  -0.334 -2.7834 -1.9867  1.4647
  818MOL0     H12847   3.315   5.057  -0.553  1.2811  2.2256  1.8791
  818MOL0     H12848   3.156   4.831  -0.728 -0.5654  0.3387  1.2572
  818MOL0     H12849   3.003   4.887  -0.798 -0.7233  0.7039 -0.5367
  818MOL0     H12850   3.123   4.770  -0.966  0.9959 -0.6156 -1.2739
  818MOL0     H12851   3.155   4.939  -1.003 -1.4746 -1.3355 -1.1792
  818MOL0     H12852   3.339   4.757  -0.853 -2.8979 -0.4415  0.9045
  818MOL0     H12853   3.372   4.930  -0.909 -0.7109  1.2348 -1.0797
  818MOL0     H12854   3.359   4.864  -1.139  0.3667 -1.4818 -1.9848
  818MOL0     H12855   3.353   4.694  -1.105 -2.3866  0.9200 -0.8450
  818MOL0     H12856   3.574   4.890  -1.061 -0.4693  0.2890 -0.1008
  818MOL0     H12857   3.572   4.728  -0.986 -0.5201 -0.6633 -0.6541
  818MOL0     H12858   3.527   4.732  -1.288 -1.3788  1.7123  1.9124
  818MOL0     H12859   3.614   4.625  -1.182  0.3174 -0.2935  1.5973
  818MOL0     H12860   3.813   4.711  -1.199 -0.7789 -2.4352 -1.9435
  818MOL0     H12861   3.770   4.873  -1.183  1.0963 -0.7289  1.1649
  818MOL0     H12862   3.839   4.896  -1.400  0.3198 -0.0683  0.3801
  818MOL0     H12863   3.669   4.884  -1.410 -0.1067  1.8333  2.6412
  818MOL0     H12864   2.890   5.068  -0.672 -0.7944 -2.8416  0.5197
  818MOL0     H12865   2.838   5.123  -0.456  0.0254 -1.1011  1.5218
  818MOL0     H12866   2.936   5.090  -0.016 -0.5217 -0.6325 -0.5696
  818MOL0     H12867   2.797   5.068   0.189 -3.2716 -1.0577  0.7792
  818MOL0     H12868   1.525   4.671   1.010 -1.1279  1.5765  0.9535
  818MOL0     H12869   1.369   4.545   1.161 -0.1996  1.2900 -1.9805
  818MOL0     H12870   1.307   4.252   1.456 -1.9161 -1.4220 -0.6887
  818MOL0     H12871   1.162   4.103   1.560 -0.6652 -0.1619 -3.7536
  818MOL0     H12872   0.811   4.082   1.817  0.5232  0.6391 -0.5252
  818MOL0     H12873   0.816   4.241   1.771 -0.6533 -1.7050  4.3836
  818MOL0     H12874   0.669   4.077   1.620 -0.1564 -0.2184  1.2896
  818MOL0     H12875   0.835   4.013   1.578 -0.1617 -2.3040  4.8978
  818MOL0     H12876   0.739   4.289   1.539 -3.4203 -0.7176  0.8516
  818MOL0     H12877   0.867   4.226   1.440  0.4538  1.7162 -0.8576
  818MOL0     H12878   0.593   4.102   1.417  1.1898 -0.8355  1.3049
  818MOL0     H12879   0.732   4.079   1.305  1.0000  0.3351 -0.9659
  818MOL0     H12880   0.537   4.432   1.168  0.9011 -2.1069 -1.5131
  818MOL0     H12881   0.939   4.430   1.740  0.9785  1.0357  1.5080
  818MOL0     H12882   0.971   4.649   1.657 -0.5483  1.8888 -3.4788
  818MOL0     H12883   1.136   4.684   1.718 -2.7389  0.9036  1.1736
  818MOL0     H12884   1.093   4.685   1.546  1.8626 -0.8583 -1.5252
  819MOL0     O12885   2.238   1.946   9.304 -0.0873  0.0271 -0.8572
  819MOL0     C12886   2.319   1.938   9.217 -0.1408 -0.8111  0.5056
  819MOL0     O12887   2.411   1.841   9.207  0.2774 -0.9347  0.1234
  819MOL0     C12888   2.426   1.754   9.313 -0.7039  0.2439 -0.3908
  819MOL0     C12889   2.396   1.619   9.278  0.4305 -0.1266 -0.6312
  819MOL0     C12890   2.419   1.522   9.377 -0.1932 -0.6882 -0.2076
  819MOL0     C12891   2.467   1.559   9.507  1.2068 -0.2966  0.4877
  819MOL0     O12892   2.498   1.466   9.597  0.3962 -0.4766 -0.2138
  819MOL0     C12893   2.587   1.373   9.552 -0.5654  0.1865  0.0514
  819MOL0     C12894   2.700   1.363   9.653 -0.2993  0.2532  0.1564
  819MOL0     C12895   2.768   1.506   9.653 -0.0111 -0.9395 -0.7402
  819MOL0     C12896   2.887   1.500   9.745 -0.1930 -0.2723  0.0106
  819MOL0     C12897   2.999   1.616   9.730  0.1302  0.3909 -1.3591
  819MOL0     C12898   3.119   1.589   9.833  1.0381  0.5548  0.6853
  819MOL0     C12899   3.207   1.706   9.857  0.2802 -0.5375  0.1267
  819MOL0     C12900   3.125   1.826   9.913 -0.7856  0.5140  0.8555
  819MOL0     N12901   3.176   1.956   9.862  0.1362 -0.0489 -0.5281
  819MOL0     C12902   3.310   1.999   9.845  0.6990  0.0975 -0.4445
  819MOL0     C12903   3.295   2.127   9.802 -1.1159  0.6756 -0.0029
  819MOL0     C12904   3.403   2.223   9.787  0.1757 -0.4635  0.1479
  819MOL0     C12905   3.436   2.295   9.920  0.0941 -0.2234 -0.7093
  819MOL0     C12906   3.553   2.396   9.923  0.7813  0.1480 -0.1901
  819MOL0     C12907   3.524   2.509   9.826  0.0761 -0.3986  0.0386
  819MOL0     O12908   3.636   2.605   9.855 -0.2052  0.5422 -0.6390
  819MOL0     C12909   3.641   2.727   9.799  0.6035  0.0061  0.4517
  819MOL0     C12910   3.541   2.773   9.709  0.8046 -0.2507  0.0541
  819MOL0     C12911   3.554   2.890   9.624 -0.0934 -0.2543  0.6510
  819MOL0     C12912   3.431   2.919   9.549  0.0059  0.1548  0.9579
  819MOL0     C12913   3.675   2.963   9.630 -0.1052  0.4236 -0.2839
  819MOL0     C12914   3.698   3.079   9.547 -0.6179 -0.0452  1.4618
  819MOL0     O12915   3.744   3.194   9.616  0.1173  0.5789 -0.0377
  819MOL0     C12916   3.747   3.306   9.540  0.8893  0.0824 -0.9024
  819MOL0     C12917   3.654   3.405   9.557  0.1791  0.4815 -0.6013
  819MOL0     C12918   3.670   3.531   9.496 -0.1600  0.2232 -0.7852
  819MOL0     C12919   3.768   3.543   9.397 -0.4291  0.3420 -0.3265
  819MOL0     O12920   3.781   3.660   9.329  0.2100 -0.2642  0.4648
  819MOL0     C12921   3.667   3.705   9.250  0.2746  0.4775  0.6729
  819MOL0     C12922   3.658   3.863   9.254  0.6468  0.6615 -0.3541
  819MOL0     C12923   3.635   3.921   9.399 -0.5345  0.4437 -0.1824
  819MOL0     C12924   3.644   4.074   9.393  0.0325 -0.3954  0.1989
  819MOL0     C12925   3.658   4.128   9.542  0.3717  0.4411  0.0357
  819MOL0     C12926   3.667   4.286   9.538 -0.8514  0.8670 -0.3099
  819MOL0     C12927   3.701   4.340   9.673  0.3078  0.3612 -0.6827
  819MOL0     C12928   3.653   4.478   9.685  0.1276 -0.1132 -0.3606
  819MOL0    Cl12929   3.762   4.584   9.593 -0.0815 -0.2013 -0.6179
  819MOL0     C12930   3.858   3.439   9.366  0.0792  0.5827 -0.3346
  819MOL0     C12931   3.852   3.320   9.442 -0.7204 -1.0106 -0.1477
  819MOL0     O12932   3.681   3.072   9.427  0.5309  0.1917 -0.0445
  819MOL0     C12933   3.772   2.912   9.721 -0.4265 -0.4318  0.6732
  819MOL0     C12934   3.755   2.797   9.808 -0.4935 -1.1097  0.2512
  819MOL0     N12935   3.158   2.158   9.805 -0.2827 -0.0171  0.2027
  819MOL0     N12936   3.093   2.060   9.851  0.0557  0.1616 -0.2200
  819MOL0     C12937   2.481   1.692   9.544  0.3745 -0.3458 -0.2759
  819MOL0     C12938   2.469   1.788   9.443 -0.3185 -0.0732  0.4203
  819MOL0     C12939   2.306   2.044   9.109 -0.6772 -0.4847 -0.6746
  819MOL0     C12940   2.269   2.169   9.154  0.8777 -1.0306  0.1824
  819MOL0     C12941   2.261   2.279   9.070  0.9973 -0.1505 -0.2558
  819MOL0     C12942   2.292   2.263   8.931  0.6741 -0.2681 -0.3146
  819MOL0     O12943   2.275   2.359   8.828 -0.1067 -0.2254 -0.3706
  819MOL0     C12944   2.199   2.477   8.852  1.5191 -0.1559 -0.5402
  819MOL0     C12945   2.048   2.444   8.887  0.1264 -0.2699  0.4454
  819MOL0     C12946   1.978   2.574   8.925 -0.3533  1.2855 -0.6092
  819MOL0     C12947   1.823   2.554   8.956  0.1486  0.9129 -0.6852
  819MOL0     C12948   1.759   2.684   8.983  0.0665  0.5611 -0.4766
  819MOL0     C12949   1.704   2.797   8.995  0.0521  0.9173  0.6778
  819MOL0     C12950   2.320   2.137   8.881  0.3869 -0.7197 -0.7224
  819MOL0     C12951   2.334   2.026   8.968 -0.0504 -0.5320 -0.6699
  819MOL0     C12952   2.383   1.890   8.906  0.9646  0.5210 -0.4956
  819MOL0     H12953   2.351   1.602   9.181  1.2606  0.9713 -1.2400
  819MOL0     H12954   2.404   1.418   9.351  1.9811 -0.2092 -4.1658
  819MOL0     H12955   2.641   1.388   9.458 -1.6212 -2.1854 -1.0065
  819MOL0     H12956   2.535   1.278   9.537 -2.0723  1.0474 -0.3551
  819MOL0     H12957   2.659   1.335   9.751 -1.4522 -0.5039 -0.5183
  819MOL0     H12958   2.767   1.287   9.613 -0.7832  0.3899 -0.9474
  819MOL0     H12959   2.799   1.538   9.553  2.5328  1.1268  0.5776
  819MOL0     H12960   2.700   1.583   9.691  0.5545  0.1241 -1.8286
  819MOL0     H12961   2.858   1.499   9.850  3.3223 -0.0668  1.0939
  819MOL0     H12962   2.936   1.409   9.709  1.7121  1.1567 -1.2491
  819MOL0     H12963   2.955   1.716   9.740  0.9717  0.7236 -0.9276
  819MOL0     H12964   3.047   1.614   9.632  3.2268 -0.5628  0.0690
  819MOL0     H12965   3.073   1.555   9.926  0.1022 -3.2641 -0.9984
  819MOL0     H12966   3.186   1.509   9.801  0.3990 -0.0394  0.8224
  819MOL0     H12967   3.243   1.741   9.760  0.7752  0.6973  0.7375
  819MOL0     H12968   3.297   1.677   9.911  1.0320  1.4723  0.0395
  819MOL0     H12969   3.018   1.805   9.904 -0.3662 -1.1096 -1.1728
  819MOL0     H12970   3.136   1.823  10.022 -0.0586 -3.6158  0.8433
  819MOL0     H12971   3.398   1.940   9.866  0.6447 -1.1887 -3.4151
  819MOL0     H12972   3.363   2.294   9.714  0.4894 -0.6773 -0.2403
  819MOL0     H12973   3.486   2.167   9.741  0.1953  0.4596 -1.0045
  819MOL0     H12974   3.344   2.341   9.956  0.8032  0.2919  0.5030
  819MOL0     H12975   3.470   2.215   9.987 -3.2256 -1.7196 -0.5955
  819MOL0     H12976   3.556   2.435  10.025 -1.7367  0.2156 -0.1005
  819MOL0     H12977   3.646   2.343   9.901  1.2658  1.3675 -1.2413
  819MOL0     H12978   3.515   2.473   9.723 -0.2536  0.3646 -0.2112
  819MOL0     H12979   3.426   2.554   9.840  0.5224  1.1052 -1.3054
  819MOL0     H12980   3.447   2.719   9.704 -0.2877  1.6508 -0.8725
  819MOL0     H12981   3.338   2.884   9.595 -1.5435  2.7374  0.0347
  819MOL0     H12982   3.435   2.888   9.444 -1.2538 -2.6805  1.6571
  819MOL0     H12983   3.427   3.028   9.560 -1.9135  0.0855  1.3068
  819MOL0     H12984   3.575   3.390   9.630  0.1438  1.2100 -0.4817
  819MOL0     H12985   3.610   3.615   9.529 -1.2699 -0.4652 -1.0093
  819MOL0     H12986   3.688   3.678   9.147 -2.7679  0.3487 -0.0278
  819MOL0     H12987   3.573   3.656   9.278  0.3860 -1.4846 -2.0182
  819MOL0     H12988   3.753   3.899   9.213 -0.1679  2.9319 -0.3490
  819MOL0     H12989   3.578   3.886   9.183 -0.8969 -1.5211  0.5515
  819MOL0     H12990   3.690   3.877   9.482 -2.0336 -2.0702 -0.4337
  819MOL0     H12991   3.533   3.885   9.417  0.3367 -2.0671  0.0943
  819MOL0     H12992   3.561   4.123   9.342  0.1026  0.4634  0.8966
  819MOL0     H12993   3.732   4.104   9.334 -0.9535  1.2757 -0.4834
  819MOL0     H12994   3.568   4.096   9.596  2.1070 -4.0109  0.7298
  819MOL0     H12995   3.745   4.084   9.593 -0.7008 -1.7003  0.1523
  819MOL0     H12996   3.585   4.345   9.496  0.3399  2.0293 -1.0531
  819MOL0     H12997   3.750   4.311   9.471  0.5151  1.3269  1.4904
  819MOL0     H12998   3.805   4.318   9.699 -0.4407 -3.3147 -0.3270
  819MOL0     H12999   3.647   4.286   9.750  1.5148  0.5940  0.3700
  819MOL0     H13000   3.661   4.508   9.789  1.0719 -1.9525  0.1412
  819MOL0     H13001   3.545   4.490   9.671 -0.0442  3.6902  2.7136
  819MOL0     H13002   3.945   3.461   9.305  0.5018 -0.8029 -0.2656
  819MOL0     H13003   3.926   3.241   9.447 -0.9469 -1.3162  6.2808
  819MOL0     H13004   3.868   2.961   9.714  0.3183 -0.8437  5.0531
  819MOL0     H13005   3.839   2.752   9.860  0.6568 -1.9784 -2.1780
  819MOL0     H13006   2.510   1.716   9.646 -2.0604 -0.5798  0.5413
  819MOL0     H13007   2.506   1.888   9.462 -0.4290  0.8727 -3.4333
  819MOL0     H13008   2.231   2.183   9.255  0.3566  1.2058 -0.2513
  819MOL0     H13009   2.221   2.374   9.105 -0.3802 -0.1848 -1.6076
  819MOL0     H13010   2.240   2.534   8.935 -1.4244 -1.8863  2.3719
  819MOL0     H13011   2.201   2.530   8.756  0.7225 -3.5311 -2.5851
  819MOL0     H13012   2.030   2.364   8.959 -1.3970 -0.1096  0.2677
  819MOL0     H13013   1.990   2.408   8.802  0.1389 -0.3715  0.4788
  819MOL0     H13014   2.033   2.613   9.011 -0.0450  0.3841 -0.3940
  819MOL0     H13015   1.985   2.646   8.842 -1.8729  2.0462 -0.1315
  819MOL0     H13016   1.809   2.486   9.041  1.2656  1.7886  0.2356
  819MOL0     H13017   1.773   2.517   8.866  2.4087 -1.8043 -0.9825
  819MOL0     H13018   1.647   2.886   8.979 -0.5349  0.1991 -1.6577
  819MOL0     H13019   2.319   2.133   8.773  1.8514 -0.8154 -0.7641
  819MOL0     H13020   2.304   1.816   8.923  0.9448  0.8964  1.2033
  819MOL0     H13021   2.426   1.891   8.806 -0.5911 -2.9263 -1.3743
  819MOL0     H13022   2.467   1.849   8.963 -0.4558 -1.9517 -0.0231
  820MOL0     O13023   1.236   2.290   6.387  0.0676 -0.6196  0.5031
  820MOL0     C13024   1.281   2.178   6.399  0.8582  0.3354  0.1044
  820MOL0     O13025   1.362   2.119   6.304 -1.5820  0.3560  0.4184
  820MOL0     C13026   1.391   2.208   6.195  1.4621  0.0420 -0.1925
  820MOL0     C13027   1.516   2.262   6.172 -0.2055 -0.1691 -0.3493
  820MOL0     C13028   1.542   2.354   6.067 -0.3888 -0.3130 -0.0917
  820MOL0     C13029   1.443   2.374   5.970 -0.4042  0.0835 -0.8376
  820MOL0     O13030   1.448   2.462   5.865 -0.0877 -0.5475  0.0965
  820MOL0     C13031   1.578   2.485   5.811 -0.7590 -0.1676  0.3114
  820MOL0     C13032   1.633   2.350   5.746  0.5847 -0.1241 -0.5092
  820MOL0     C13033   1.753   2.375   5.655  0.7427 -0.3931 -0.3648
  820MOL0     C13034   1.823   2.248   5.609 -0.3672 -0.5246 -0.0517
  820MOL0     C13035   1.935   2.285   5.506 -0.1073 -0.0831 -0.5346
  820MOL0     C13036   1.983   2.163   5.433 -0.6297 -0.6008 -0.1647
  820MOL0     C13037   2.113   2.189   5.368 -0.7872 -0.2293 -0.9425
  820MOL0     C13038   2.095   2.298   5.266  0.2079 -0.3725  0.2797
  820MOL0     N13039   2.200   2.300   5.159  0.2733 -0.1562 -0.6951
  820MOL0     C13040   2.332   2.264   5.179  0.5855 -0.2505 -0.9087
  820MOL0     C13041   2.395   2.293   5.063  0.0236 -0.8781 -0.5311
  820MOL0     C13042   2.538   2.246   5.033 -0.0475  1.2588  0.0900
  820MOL0     C13043   2.650   2.333   5.080  0.0324  0.3161  0.5241
  820MOL0     C13044   2.704   2.301   5.221 -0.5872  0.9062 -0.3090
  820MOL0     C13045   2.851   2.351   5.251 -0.2193 -0.4303  0.1830
  820MOL0     O13046   2.888   2.324   5.384  0.1912 -0.0697  0.3182
  820MOL0     C13047   3.019   2.328   5.421 -1.4471 -0.1618 -0.1282
  820MOL0     C13048   3.120   2.377   5.335  0.4281  0.7553  0.2567
  820MOL0     C13049   3.255   2.395   5.381  1.9500 -0.5618  0.6979
  820MOL0     C13050   3.356   2.419   5.266  0.2264 -0.1159 -0.2768
  820MOL0     C13051   3.289   2.373   5.518  0.5903  1.5099  0.0317
  820MOL0     C13052   3.426   2.374   5.576 -1.2702  0.2650 -0.0826
  820MOL0     O13053   3.541   2.402   5.504  0.6006  0.1955 -0.0139
  820MOL0     C13054   3.663   2.423   5.563 -0.1804  1.0659 -0.6541
  820MOL0     C13055   3.776   2.366   5.505 -0.4167 -0.5507 -0.0301
  820MOL0     C13056   3.905   2.397   5.559  0.0418 -0.2372  1.4617
  820MOL0     C13057   3.916   2.490   5.661 -0.5297  0.6025 -0.2832
  820MOL0     O13058   4.048   2.516   5.696  0.7890 -0.5116 -0.2878
  820MOL0     C13059   4.086   2.548   5.835 -0.1086 -0.8918  0.6513
  820MOL0     C13060   4.069   2.692   5.875 -0.3770 -0.5947 -0.8542
  820MOL0     C13061   4.171   2.755   5.961 -0.0687 -0.1129  0.2617
  820MOL0     C13062   4.163   2.711   6.107 -0.4110 -0.0010  0.8440
  820MOL0     C13063   4.275   2.781   6.189 -0.1362  1.0170 -0.3649
  820MOL0     C13064   4.266   2.745   6.338  0.5172  0.5353  0.4059
  820MOL0     C13065   4.356   2.829   6.433 -0.4785 -0.8778 -0.2049
  820MOL0     C13066   4.506   2.819   6.385  0.1053  0.7507  0.0056
  820MOL0    Cl13067   4.553   2.652   6.338  0.2162 -0.5471 -0.3996
  820MOL0     C13068   3.804   2.547   5.711  0.3048 -0.7811  0.0023
  820MOL0     C13069   3.680   2.511   5.669 -0.3609  0.0332  0.1760
  820MOL0     O13070   3.430   2.340   5.699 -0.4862  0.6573 -0.2980
  820MOL0     C13071   3.182   2.331   5.608 -0.8653 -0.5353  0.3354
  820MOL0     C13072   3.055   2.311   5.554 -0.5478  0.6472 -0.1188
  820MOL0     N13073   2.299   2.340   4.973  0.1486 -0.9954  0.2959
  820MOL0     N13074   2.189   2.339   5.029  0.2292 -0.6580 -0.8668
  820MOL0     C13075   1.317   2.321   6.003  0.4707 -0.2006  0.5755
  820MOL0     C13076   1.291   2.232   6.102  0.6383  0.5160  0.1409
  820MOL0     C13077   1.236   2.103   6.521 -0.4359 -0.1191  0.4821
  820MOL0     C13078   1.287   2.135   6.648  0.3445  0.3349 -0.4314
  820MOL0     C13079   1.233   2.057   6.760 -1.1330 -0.2806 -0.6139
  820MOL0     C13080   1.140   1.959   6.743 -0.4759 -0.6903 -0.4044
  820MOL0     O13081   1.088   1.890   6.850 -0.4250 -0.5094 -0.2697
  820MOL0     C13082   1.015   1.954   6.956  0.1623  0.5245  0.5117
  820MOL0     C13083   0.880   2.016   6.913 -0.4124 -1.1388  0.7931
  820MOL0     C13084   0.786   1.922   6.837 -0.3520  0.1879  0.1113
  820MOL0     C13085   0.695   1.991   6.742 -0.5404  0.0445 -0.0953
  820MOL0     C13086   0.654   1.916   6.633 -0.1462  0.7202 -0.0470
  820MOL0     C13087   0.621   1.852   6.534  0.7833 -1.5328 -1.2083
  820MOL0     C13088   1.114   1.921   6.618 -0.7002  0.3763 -1.0093
  820MOL0     C13089   1.159   1.985   6.501 -0.4417 -0.5011 -0.4599
  820MOL0     C13090   1.113   1.924   6.373 -0.8891  0.9730  0.1367
  820MOL0     H13091   1.596   2.225   6.236 -2.4590 -1.3566  1.9330
  820MOL0     H13092   1.644   2.388   6.080 -1.0966  1.2090  2.2295
  820MOL0     H13093   1.654   2.513   5.885  2.7749 -1.5564 -2.4912
  820MOL0     H13094   1.579   2.563   5.735 -2.6134  0.0000  0.4271
  820MOL0     H13095   1.661   2.286   5.830  0.3153 -0.9598 -1.0330
  820MOL0     H13096   1.561   2.292   5.686  0.0427 -1.3039  1.2082
  820MOL0     H13097   1.720   2.427   5.565 -0.3089  2.0484  1.3409
  820MOL0     H13098   1.821   2.445   5.705 -1.7715 -0.7662  4.0746
  820MOL0     H13099   1.849   2.185   5.695  1.1162 -1.3255 -1.0441
  820MOL0     H13100   1.745   2.187   5.564 -0.0156 -1.8346  1.0396
  820MOL0     H13101   2.011   2.345   5.557 -0.9821  0.6359 -0.0504
  820MOL0     H13102   1.902   2.366   5.440 -1.0482  0.5467  0.6698
  820MOL0     H13103   1.995   2.087   5.511  2.4643  1.8618  2.0461
  820MOL0     H13104   1.910   2.121   5.364 -0.5465 -2.6251  0.8821
  820MOL0     H13105   2.154   2.103   5.315 -1.0158  0.2694 -1.9456
  820MOL0     H13106   2.194   2.212   5.439 -1.4823  0.6177 -0.3936
  820MOL0     H13107   2.004   2.286   5.207  1.1582  0.0574 -1.3478
  820MOL0     H13108   2.092   2.394   5.319 -0.5842 -1.0253  1.4543
  820MOL0     H13109   2.382   2.227   5.268 -0.8629  0.8087  0.4222
  820MOL0     H13110   2.545   2.256   4.924  1.1109 -0.0573  0.0338
  820MOL0     H13111   2.557   2.143   5.063  0.5805  1.0177 -1.0765
  820MOL0     H13112   2.728   2.338   5.003  0.8111 -0.0368  1.2662
  820MOL0     H13113   2.614   2.435   5.093 -2.3263 -0.2964 -0.6235
  820MOL0     H13114   2.637   2.338   5.299 -0.2259 -1.2231  1.1032
  820MOL0     H13115   2.705   2.192   5.235 -0.1945  0.4288 -3.3082
  820MOL0     H13116   2.920   2.299   5.183 -0.0666 -1.6743  1.2583
  820MOL0     H13117   2.858   2.456   5.222 -1.0325 -0.3843  0.1521
  820MOL0     H13118   3.098   2.394   5.230  0.0124 -0.1717  0.1789
  820MOL0     H13119   3.310   2.449   5.171  0.1216  1.9443  0.3826
  820MOL0     H13120   3.416   2.327   5.257  0.5177  0.1788 -1.5234
  820MOL0     H13121   3.426   2.496   5.300 -0.0055 -0.0168 -0.0246
  820MOL0     H13122   3.767   2.309   5.413 -0.0458 -1.7026  0.6304
  820MOL0     H13123   4.004   2.374   5.521 -0.3676 -0.4292  0.4872
  820MOL0     H13124   4.022   2.493   5.905 -3.8974  1.9955 -0.1826
  820MOL0     H13125   4.189   2.513   5.841 -0.5971 -3.5277 -2.8793
  820MOL0     H13126   4.080   2.736   5.776  3.8926 -1.8612 -1.1403
  820MOL0     H13127   3.966   2.713   5.907  0.1991  1.8615 -0.3383
  820MOL0     H13128   4.164   2.863   5.947  2.1496  0.3192  1.9226
  820MOL0     H13129   4.269   2.725   5.921  2.2248  1.8580  3.7953
  820MOL0     H13130   4.175   2.602   6.101  1.2142  0.0528  2.3356
  820MOL0     H13131   4.066   2.745   6.145 -0.8458  1.8028 -1.6718
  820MOL0     H13132   4.363   2.735   6.144 -0.8703 -0.8298 -0.0184
  820MOL0     H13133   4.268   2.890   6.177 -2.5119  0.9249 -0.3461
  820MOL0     H13134   4.288   2.639   6.355  1.3486  0.3689 -1.4113
  820MOL0     H13135   4.162   2.767   6.360  0.0446  0.8128 -1.8700
  820MOL0     H13136   4.350   2.795   6.537  2.7324  0.2926  0.5006
  820MOL0     H13137   4.319   2.932   6.429 -1.0774 -1.1013 -0.4588
  820MOL0     H13138   4.576   2.855   6.461  0.7509  0.3418 -0.3806
  820MOL0     H13139   4.513   2.873   6.290 -0.0408  0.8256  0.0372
  820MOL0     H13140   3.817   2.611   5.798  0.6785 -1.9523  0.8295
  820MOL0     H13141   3.588   2.554   5.707 -0.2376 -0.9439  1.6634
  820MOL0     H13142   3.189   2.316   5.715 -2.0467  3.6668  1.1852
  820MOL0     H13143   2.980   2.280   5.626 -0.2283  0.6680  0.2276
  820MOL0     H13144   1.240   2.357   5.936  1.9008 -1.2956 -1.7856
  820MOL0     H13145   1.196   2.180   6.100 -0.7262  2.8080  0.8173
  820MOL0     H13146   1.345   2.224   6.667 -0.5455  0.9489 -0.5340
  820MOL0     H13147   1.252   2.084   6.863 -2.1193 -2.4633  0.2058
  820MOL0     H13148   1.004   1.877   7.033 -0.3994  2.1077  2.0790
  820MOL0     H13149   1.079   2.034   6.994  1.1511 -0.7301  1.5788
  820MOL0     H13150   0.891   2.109   6.858 -3.1172  0.7315  3.1501
  820MOL0     H13151   0.824   2.048   7.001 -1.3956  1.1088 -0.5898
  820MOL0     H13152   0.860   1.870   6.776 -0.2877 -0.4894  0.7521
  820MOL0     H13153   0.746   1.842   6.900  2.3429 -2.7461 -1.5949
  820MOL0     H13154   0.744   2.080   6.702  0.3818 -0.0176  0.8409
  820MOL0     H13155   0.618   2.025   6.812 -1.3200 -1.2492 -0.3018
  820MOL0     H13156   0.589   1.798   6.447 -2.3799 -1.5067 -0.1762
  820MOL0     H13157   1.061   1.827   6.618  0.6123 -0.3867 -0.7660
  820MOL0     H13158   1.096   1.818   6.395 -0.6093  0.8773 -0.1126
  820MOL0     H13159   1.017   1.961   6.334 -0.0624  2.2111 -0.7886
  820MOL0     H13160   1.195   1.940   6.304  0.6012  0.9551  1.8352
  821MOL0     O13161   0.632   7.998  10.375  0.4550  0.0649 -0.8175
  821MOL0     C13162   0.638   7.905  10.295  0.3935 -0.4039 -0.2259
  821MOL0     O13163   0.753   7.860  10.223  0.4716 -0.1101 -0.4242
  821MOL0     C13164   0.871   7.910  10.270  0.3877 -1.1738 -0.0868
  821MOL0     C13165   0.935   7.987  10.176 -0.3281  0.0307  0.2351
  821MOL0     C13166   1.060   8.043  10.204 -0.3094 -0.3597  0.4779
  821MOL0     C13167   1.118   8.017  10.332 -0.6850  0.5661  0.2169
  821MOL0     O13168   1.232   8.092  10.357 -0.9927  0.2362 -0.4910
  821MOL0     C13169   1.320   8.053  10.468  0.5191 -0.0501 -0.9180
  821MOL0     C13170   1.472   8.040  10.429  1.0131  0.1484  0.5617
  821MOL0     C13171   1.513   8.151  10.342 -0.6409  0.4130 -0.4896
  821MOL0     C13172   1.661   8.128  10.311  0.1560  0.0012 -0.0463
  821MOL0     C13173   1.729   8.210  10.206 -0.2598  1.2588  0.2387
  821MOL0     C13174   1.690   8.164  10.065  0.4740 -0.0001  0.5028
  821MOL0     C13175   1.760   8.256   9.957 -0.1998  0.4488  0.4867
  821MOL0     C13176   1.708   8.405   9.954  0.4903 -0.8437 -0.8084
  821MOL0     N13177   1.777   8.480   9.844  0.2255 -0.7488 -0.1162
  821MOL0     C13178   1.763   8.611   9.817  0.4979 -0.7348  0.2614
  821MOL0     C13179   1.829   8.634   9.705 -0.0757  0.5396 -0.0962
  821MOL0     C13180   1.843   8.762   9.625  0.3068 -0.5727 -0.6798
  821MOL0     C13181   1.797   8.743   9.482 -0.0178 -1.1461  0.3044
  821MOL0     C13182   1.646   8.738   9.451  0.5337 -0.3138 -0.1525
  821MOL0     C13183   1.630   8.701   9.305 -0.1642 -0.3532  0.3203
  821MOL0     O13184   1.493   8.742   9.265 -0.3331  0.8030  0.2119
  821MOL0     C13185   1.454   8.739   9.130  0.3982  0.2567 -0.6274
  821MOL0     C13186   1.328   8.790   9.097  0.3181 -0.2430  0.5744
  821MOL0     C13187   1.281   8.800   8.961  0.2070  0.3507 -1.3133
  821MOL0     C13188   1.139   8.855   8.940 -0.2291 -0.2880  0.4567
  821MOL0     C13189   1.358   8.744   8.857 -0.7435 -0.0780  0.0013
  821MOL0     C13190   1.317   8.727   8.713  0.5458  0.4049  0.5322
  821MOL0     O13191   1.182   8.719   8.688 -0.3891  0.4086 -0.3212
  821MOL0     C13192   1.137   8.665   8.570  0.0618  0.9970  1.1502
  821MOL0     C13193   1.011   8.700   8.528 -0.4475 -0.2563 -0.5098
  821MOL0     C13194   0.945   8.640   8.412 -0.0178  0.0716 -0.2628
  821MOL0     C13195   1.003   8.529   8.348 -0.4796  0.3493 -0.5848
  821MOL0     O13196   0.944   8.459   8.247  0.0307 -0.2575  0.3565
  821MOL0     C13197   0.829   8.504   8.177 -0.1232  0.2030  0.2550
  821MOL0     C13198   0.773   8.395   8.083 -0.7379 -0.0723  0.1323
  821MOL0     C13199   0.866   8.357   7.971  0.0423 -0.2661  0.3992
  821MOL0     C13200   0.808   8.237   7.894 -0.1919  0.5270  0.4042
  821MOL0     C13201   0.910   8.194   7.780  0.3251 -0.6433  0.8144
  821MOL0     C13202   0.912   8.042   7.752 -0.5049 -0.0357 -0.0336
  821MOL0     C13203   1.037   7.997   7.683  0.1731 -0.0551  0.3867
  821MOL0     C13204   1.041   7.841   7.698  0.6149  0.2713 -0.3990
  821MOL0    Cl13205   1.168   7.765   7.601 -0.0372 -0.0042  0.3051
  821MOL0     C13206   1.129   8.496   8.394 -0.5108 -1.0516  1.0728
  821MOL0     C13207   1.187   8.555   8.503  0.3865  0.2757 -0.3227
  821MOL0     O13208   1.404   8.733   8.629  0.0677  0.3131  0.3814
  821MOL0     C13209   1.484   8.705   8.892 -0.5014  0.1038  0.3065
  821MOL0     C13210   1.532   8.702   9.015 -0.8008 -0.5281 -0.2430
  821MOL0     N13211   1.913   8.519   9.681  0.6161 -0.4086 -0.8450
  821MOL0     N13212   1.879   8.426   9.763 -0.2018  0.3876 -0.1862
  821MOL0     C13213   1.046   7.953  10.429 -1.1600  1.1284  0.2057
  821MOL0     C13214   0.923   7.898  10.397  0.3359  0.5881  0.4267
  821MOL0     C13215   0.526   7.807  10.290  0.5553 -0.2913  0.1897
  821MOL0     C13216   0.554   7.675  10.253  0.2837 -0.0630 -0.6999
  821MOL0     C13217   0.450   7.579  10.230 -0.5219 -0.5371  1.0517
  821MOL0     C13218   0.319   7.613  10.248  0.2849 -0.1601 -0.0819
  821MOL0     O13219   0.232   7.509  10.253 -0.0713 -0.0101  0.2548
  821MOL0     C13220   0.118   7.521  10.172 -0.4058 -1.5317 -0.4879
  821MOL0     C13221   0.041   7.385  10.168 -0.6347 -0.3061 -0.0222
  821MOL0     C13222  -0.108   7.398  10.172 -0.1267  0.6039 -1.2181
  821MOL0     C13223  -0.186   7.267  10.212 -0.5820 -0.6569 -0.2370
  821MOL0     C13224  -0.205   7.182  10.099 -0.3837 -0.3992 -0.1313
  821MOL0     C13225  -0.210   7.127   9.990 -0.2595  0.1597  0.2141
  821MOL0     C13226   0.287   7.742  10.289 -0.6604 -0.1348  0.4705
  821MOL0     C13227   0.384   7.841  10.315 -0.3583  1.1203 -0.2239
  821MOL0     C13228   0.326   7.977  10.360 -0.2336  0.2926 -0.7642
  821MOL0     H13229   0.898   8.003  10.075 -1.4594 -0.4747  0.5575
  821MOL0     H13230   1.094   8.114  10.129 -3.1454 -0.5561 -1.1691
  821MOL0     H13231   1.288   7.963  10.522  1.0942  1.3921  1.9920
  821MOL0     H13232   1.321   8.133  10.542 -2.0879 -0.2727 -0.5239
  821MOL0     H13233   1.526   8.059  10.523 -1.6707 -1.0952  2.4804
  821MOL0     H13234   1.477   7.936  10.397 -1.1054  0.7188 -1.9022
  821MOL0     H13235   1.458   8.144  10.247 -0.9279 -5.0800 -0.2178
  821MOL0     H13236   1.504   8.250  10.388  1.3860  0.7758 -0.7992
  821MOL0     H13237   1.715   8.149  10.403 -0.0705 -0.5838  0.2227
  821MOL0     H13238   1.670   8.024  10.280  1.6041 -0.6548  2.3704
  821MOL0     H13239   1.834   8.184  10.226 -0.0413  1.7102 -0.3070
  821MOL0     H13240   1.707   8.317  10.210 -0.6656  1.2298 -0.9731
  821MOL0     H13241   1.716   8.060  10.044 -0.0726 -0.2732  1.1421
  821MOL0     H13242   1.581   8.168  10.059  0.4183 -2.1754 -1.6926
  821MOL0     H13243   1.742   8.209   9.860  1.7122  0.9130 -0.1297
  821MOL0     H13244   1.868   8.263   9.970  0.5264 -1.4766 -3.1032
  821MOL0     H13245   1.600   8.413   9.942  0.4035  2.3383  1.1146
  821MOL0     H13246   1.735   8.444  10.052 -0.9057 -0.7371 -0.4452
  821MOL0     H13247   1.705   8.686   9.870  2.3283  1.2855 -0.4452
  821MOL0     H13248   1.947   8.793   9.619 -0.5825  3.0535  0.2692
  821MOL0     H13249   1.790   8.843   9.676  0.3001 -2.2837  2.2498
  821MOL0     H13250   1.838   8.824   9.422 -2.5520 -0.0115 -0.0465
  821MOL0     H13251   1.839   8.644   9.461 -0.7688 -1.4322  0.1177
  821MOL0     H13252   1.601   8.653   9.504  0.3576 -0.2756 -0.2402
  821MOL0     H13253   1.581   8.823   9.473  3.5877  2.2499 -0.3866
  821MOL0     H13254   1.698   8.764   9.247  0.6469 -2.4360 -1.1135
  821MOL0     H13255   1.655   8.598   9.279 -1.4259 -0.3898 -0.8517
  821MOL0     H13256   1.265   8.813   9.183 -1.2292 -2.4762  0.0932
  821MOL0     H13257   1.136   8.921   8.852 -1.5577  0.6344  1.1531
  821MOL0     H13258   1.111   8.916   9.027 -1.0785  4.4500 -2.7406
  821MOL0     H13259   1.065   8.780   8.910 -1.5999  0.9545  0.6017
  821MOL0     H13260   0.947   8.764   8.587 -1.4467 -1.7739  0.1201
  821MOL0     H13261   0.854   8.686   8.376  0.7149  3.4402  1.8024
  821MOL0     H13262   0.753   8.539   8.247  0.7258  0.1968  1.1991
  821MOL0     H13263   0.851   8.594   8.119  1.6893  0.0736  0.6543
  821MOL0     H13264   0.752   8.307   8.144 -1.3505  0.3050  0.4695
  821MOL0     H13265   0.676   8.425   8.042 -0.5923 -1.7791 -1.6428
  821MOL0     H13266   0.969   8.328   7.994  0.0067 -1.8464 -1.1533
  821MOL0     H13267   0.880   8.442   7.903 -1.1761 -2.5297 -2.9718
  821MOL0     H13268   0.706   8.257   7.859 -0.4258 -2.1589 -0.6888
  821MOL0     H13269   0.795   8.157   7.967  1.8928 -0.0309  0.2183
  821MOL0     H13270   0.887   8.261   7.697 -0.9053 -0.5393  1.2180
  821MOL0     H13271   1.010   8.226   7.812  1.0350  2.9564 -3.9428
  821MOL0     H13272   0.825   8.011   7.693 -1.1691  0.0043  0.8947
  821MOL0     H13273   0.905   7.979   7.841  1.4279 -1.7589 -1.0257
  821MOL0     H13274   1.124   8.032   7.738 -0.2433  2.8632 -0.6160
  821MOL0     H13275   1.041   8.036   7.581 -1.4310 -0.3915  0.1695
  821MOL0     H13276   0.943   7.807   7.663  0.5569  0.9281 -0.9161
  821MOL0     H13277   1.043   7.807   7.802  0.4506 -2.0558 -1.1141
  821MOL0     H13278   1.174   8.414   8.339  0.6158  2.0755 -3.2044
  821MOL0     H13279   1.286   8.529   8.540  0.3496  0.3719 -0.1569
  821MOL0     H13280   1.556   8.676   8.816  0.8878  2.1265  0.7784
  821MOL0     H13281   1.635   8.672   9.031 -1.0018 -0.8330  0.5336
  821MOL0     H13282   1.083   7.941  10.530 -1.4237  1.8942  0.4067
  821MOL0     H13283   0.860   7.847  10.468 -1.1352  1.1034 -0.4671
  821MOL0     H13284   0.654   7.636  10.238  1.0825  1.7115 -0.2110
  821MOL0     H13285   0.490   7.483  10.197  0.8140  0.9498 -2.0774
  821MOL0     H13286   0.056   7.601  10.214  0.1620 -1.9355  1.1731
  821MOL0     H13287   0.153   7.549  10.072  0.6089 -1.0448 -0.0103
  821MOL0     H13288   0.070   7.327  10.257 -0.8808  1.3188  1.1651
  821MOL0     H13289   0.081   7.341  10.076 -0.1795 -0.2574  0.1494
  821MOL0     H13290  -0.127   7.461  10.259  3.4897  0.8674 -0.4453
  821MOL0     H13291  -0.157   7.443  10.085 -1.2604 -0.0958 -0.9695
  821MOL0     H13292  -0.289   7.288  10.243 -0.1057  0.6667  0.5558
  821MOL0     H13293  -0.127   7.211  10.286  0.6874  1.3092  0.3212
  821MOL0     H13294  -0.224   7.082   9.895  1.5829  2.0351 -1.0490
  821MOL0     H13295   0.184   7.771  10.304 -1.5178 -1.9063 -1.4661
  821MOL0     H13296   0.313   7.978  10.469 -1.0363  2.5471 -0.8221
  821MOL0     H13297   0.395   8.058  10.335  1.1661 -0.1642  1.3789
  821MOL0     H13298   0.231   7.989  10.306 -0.5832 -4.2908 -1.5703
  822MOL0     O13299  10.934   7.584   7.341  0.0252  0.6500  0.3966
  822MOL0     C13300  10.972   7.536   7.230 -1.0899 -0.2400  0.5826
  822MOL0     O13301  11.092   7.569   7.174 -0.2714  0.3723 -0.0371
  822MOL0     C13302  11.202   7.617   7.250  0.4103 -0.0466  0.6240
  822MOL0     C13303  11.246   7.539   7.354  0.3037 -0.8652  0.2093
  822MOL0     C13304  11.370   7.579   7.413  0.5225 -0.0503 -0.5141
  822MOL0     C13305  11.441   7.692   7.382 -0.0681 -0.5753  0.3348
  822MOL0     O13306  11.568   7.716   7.434  0.3884  0.2300 -0.0157
  822MOL0     C13307  11.650   7.816   7.385  0.5109  1.0118  0.2246
  822MOL0     C13308  11.633   7.963   7.442 -0.1978  0.6835 -0.2830
  822MOL0     C13309  11.755   8.021   7.499 -0.1897  0.6320 -0.4350
  822MOL0     C13310  11.794   7.963   7.636  0.5025  1.4545 -0.6950
  822MOL0     C13311  11.896   8.057   7.693  0.7553 -0.4013  0.4811
  822MOL0     C13312  11.947   8.011   7.827  0.3104 -0.0707  0.2468
  822MOL0     C13313  12.039   7.884   7.820 -0.1640  0.1059  0.4597
  822MOL0     C13314  12.099   7.856   7.964 -0.6170  0.9176 -0.0312
  822MOL0     N13315  12.178   7.736   7.960  0.2828  0.3913 -0.5828
  822MOL0     C13316  12.127   7.609   7.949 -0.5151 -0.0587 -1.5788
  822MOL0     C13317  12.240   7.530   7.931 -0.3125 -0.2817  0.2156
  822MOL0     C13318  12.231   7.389   7.915  0.2622  0.5247 -0.3351
  822MOL0     C13319  12.253   7.312   8.053 -1.2622  0.2313  0.0475
  822MOL0     C13320  12.146   7.327   8.154 -0.4489 -0.0163 -0.2097
  822MOL0     C13321  12.019   7.266   8.110  0.0241 -0.1375  0.0764
  822MOL0     O13322  11.908   7.281   8.204 -0.2757  0.0439 -0.3644
  822MOL0     C13323  11.796   7.201   8.177  0.1285 -0.1495 -0.1144
  822MOL0     C13324  11.704   7.202   8.284 -0.1476 -0.6446 -0.4188
  822MOL0     C13325  11.597   7.120   8.287 -0.6761 -0.2872  0.7637
  822MOL0     C13326  11.509   7.137   8.408  0.3768 -0.1042  0.1687
  822MOL0     C13327  11.558   7.040   8.177  0.7401 -1.0034  0.3898
  822MOL0     C13328  11.432   6.958   8.174  1.1140 -0.3095  0.0762
  822MOL0     O13329  11.318   7.009   8.234  0.0864 -0.4735  0.2052
  822MOL0     C13330  11.204   6.938   8.220  0.3912 -0.3321 -0.1880
  822MOL0     C13331  11.120   6.970   8.110 -0.1587  0.2751 -0.3367
  822MOL0     C13332  10.980   6.934   8.114 -0.0047 -0.9427  0.4257
  822MOL0     C13333  10.936   6.846   8.219  0.7330  0.0076 -0.2864
  822MOL0     O13334  10.808   6.805   8.228 -0.1816  0.2173  0.1455
  822MOL0     C13335  10.720   6.806   8.119  0.0016 -0.5048  0.0586
  822MOL0     C13336  10.661   6.953   8.116 -0.1978  1.0288  0.4976
  822MOL0     C13337  10.569   6.972   8.002 -0.7268  0.2229  0.1173
  822MOL0     C13338  10.639   6.969   7.861 -0.2078  0.7664  0.2571
  822MOL0     C13339  10.541   7.013   7.749  0.6525  0.0281  0.3827
  822MOL0     C13340  10.579   6.974   7.605 -0.7489  0.5206  0.6745
  822MOL0     C13341  10.512   6.835   7.573 -0.0654  0.2634  0.6445
  822MOL0     C13342  10.580   6.786   7.447  0.2175  0.1937  1.4495
  822MOL0    Cl13343  10.576   6.606   7.415 -0.0612 -0.3252 -0.3001
  822MOL0     C13344  11.028   6.802   8.321  0.4010 -0.2204  0.3635
  822MOL0     C13345  11.162   6.847   8.319  0.0305 -0.4812 -0.9367
  822MOL0     O13346  11.433   6.859   8.096 -0.2789  0.1010  0.1212
  822MOL0     C13347  11.649   7.035   8.075  0.3344  0.2163 -0.0401
  822MOL0     C13348  11.765   7.113   8.072  0.7261 -0.4426 -1.0022
  822MOL0     N13349  12.351   7.611   7.934  0.5933  0.4306  0.9790
  822MOL0     N13350  12.311   7.727   7.964  0.1767 -0.5891 -0.6522
  822MOL0     C13351  11.383   7.764   7.280 -0.3862 -0.4348 -0.2575
  822MOL0     C13352  11.272   7.726   7.212  0.8768  0.4805 -0.3347
  822MOL0     C13353  10.879   7.475   7.148  0.3847  0.6594 -0.4756
  822MOL0     C13354  10.908   7.351   7.091  0.8612 -0.2746 -0.7171
  822MOL0     C13355  10.824   7.289   6.997  0.1971 -0.1051  0.4721
  822MOL0     C13356  10.695   7.336   6.977  0.1887  0.5313  0.7704
  822MOL0     O13357  10.601   7.271   6.899 -0.5437 -0.7384  0.4536
  822MOL0     C13358  10.545   7.358   6.794  1.1033  1.0233  0.1534
  822MOL0     C13359  10.494   7.268   6.688  1.1216  0.0889  0.2689
  822MOL0     C13360  10.407   7.340   6.577  0.5686  0.4833 -0.3823
  822MOL0     C13361  10.375   7.244   6.458 -0.0071 -0.1644 -0.1898
  822MOL0     C13362  10.265   7.286   6.376  0.2053  0.2909 -0.5077
  822MOL0     C13363  10.172   7.327   6.311  1.2816  0.2838 -0.4870
  822MOL0     C13364  10.669   7.463   7.031 -0.2035  0.1539  0.3026
  822MOL0     C13365  10.754   7.537   7.117 -0.6861 -0.2788  0.3594
  822MOL0     C13366  10.713   7.681   7.153  0.5060 -1.8742  0.6200
  822MOL0     H13367  11.186   7.452   7.377 -1.3342  0.1941  0.0731
  822MOL0     H13368  11.414   7.512   7.486 -0.9033 -0.9293 -0.4187
  822MOL0     H13369  11.654   7.821   7.276 -2.0174  1.2481  0.0935
  822MOL0     H13370  11.747   7.778   7.421 -1.1626  0.4346  4.7568
  822MOL0     H13371  11.611   8.023   7.353  3.3369  0.3280 -1.5528
  822MOL0     H13372  11.553   7.964   7.516 -0.8018  0.1851 -0.9030
  822MOL0     H13373  11.836   8.008   7.428 -1.0051 -0.4683 -1.2066
  822MOL0     H13374  11.734   8.128   7.509  0.2199  0.5650  1.5471
  822MOL0     H13375  11.703   7.969   7.697  0.4035  0.6565 -0.7594
  822MOL0     H13376  11.830   7.860   7.635  0.9406  1.5956 -0.2438
  822MOL0     H13377  11.849   8.152   7.719  2.2114  0.1752  1.1344
  822MOL0     H13378  11.976   8.077   7.621  0.0009  0.2088 -0.2117
  822MOL0     H13379  11.995   8.094   7.880 -2.5616  0.7072  1.8393
  822MOL0     H13380  11.863   7.970   7.884  0.4132 -2.7527 -1.3705
  822MOL0     H13381  12.119   7.904   7.749 -0.4677 -1.2932 -0.3311
  822MOL0     H13382  11.992   7.791   7.786  1.1328 -0.7877  1.0342
  822MOL0     H13383  12.157   7.940   8.004  0.8608 -0.1967  0.2604
  822MOL0     H13384  12.016   7.833   8.031 -1.4677 -0.2576 -1.4247
  822MOL0     H13385  12.026   7.569   7.954 -1.3833  2.0812  2.3326
  822MOL0     H13386  12.313   7.358   7.848  0.5479 -0.6568  0.5282
  822MOL0     H13387  12.138   7.360   7.866  2.7948 -3.3372 -3.4926
  822MOL0     H13388  12.271   7.209   8.019  0.3122  0.0321  1.3759
  822MOL0     H13389  12.350   7.335   8.099 -2.2487  2.1979  1.2653
  822MOL0     H13390  12.166   7.281   8.251  0.3588  0.6116 -0.0652
  822MOL0     H13391  12.131   7.435   8.171  2.1814  0.3151  0.4742
  822MOL0     H13392  11.988   7.319   8.020  2.9089 -0.6034 -1.3112
  822MOL0     H13393  12.028   7.161   8.080 -2.6201 -0.2032 -0.7081
  822MOL0     H13394  11.732   7.259   8.372 -2.0735 -0.7378  0.3036
  822MOL0     H13395  11.561   7.198   8.482 -1.3417  2.2813 -0.5007
  822MOL0     H13396  11.491   7.039   8.454  1.1045  0.4811  1.7465
  822MOL0     H13397  11.417   7.182   8.369  0.5272 -0.5495 -0.7223
  822MOL0     H13398  11.157   7.027   8.026 -0.6824 -0.3891 -1.0356
  822MOL0     H13399  10.910   6.967   8.038 -1.6445 -2.0521  1.3700
  822MOL0     H13400  10.760   6.775   8.022 -3.7368 -1.6519 -1.2577
  822MOL0     H13401  10.640   6.734   8.134  0.8944 -1.8246 -1.2629
  822MOL0     H13402  10.607   6.971   8.210 -1.0119 -0.4860  0.3506
  822MOL0     H13403  10.736   7.033   8.121 -0.1384  0.9423  1.1597
  822MOL0     H13404  10.510   7.061   8.026 -4.7391 -1.6917 -1.7049
  822MOL0     H13405  10.500   6.887   8.006 -0.9783  0.4641  2.8420
  822MOL0     H13406  10.676   6.870   7.833  0.8642  1.4114 -0.6997
  822MOL0     H13407  10.733   7.025   7.863  1.4829 -1.7658 -1.4055
  822MOL0     H13408  10.437   6.989   7.776  0.4780  0.7417  0.3679
  822MOL0     H13409  10.539   7.122   7.759 -1.6481  0.0879 -0.0357
  822MOL0     H13410  10.686   6.978   7.583 -1.0288  0.6723 -0.7996
  822MOL0     H13411  10.541   7.042   7.528  2.0330 -0.7249 -2.0384
  822MOL0     H13412  10.404   6.850   7.563  0.3341  3.7957  0.4585
  822MOL0     H13413  10.523   6.763   7.655 -2.8746  0.4468  1.3122
  822MOL0     H13414  10.687   6.806   7.460  0.5386 -2.1911  3.0711
  822MOL0     H13415  10.545   6.841   7.359  0.5651 -0.3741  0.9469
  822MOL0     H13416  10.997   6.730   8.396  1.0527  0.6863  1.5287
  822MOL0     H13417  11.235   6.816   8.393 -2.3737 -2.2956  0.8331
  822MOL0     H13418  11.625   6.981   7.984  1.0977 -0.7740  0.3260
  822MOL0     H13419  11.846   7.114   8.000  3.4001  1.6078  1.7497
  822MOL0     H13420  11.436   7.856   7.256  1.8003 -1.6105 -0.2282
  822MOL0     H13421  11.232   7.784   7.130  0.9196  1.0782  0.0527
  822MOL0     H13422  10.997   7.298   7.125 -1.3475 -2.5101  2.0616
  822MOL0     H13423  10.847   7.196   6.946  1.0576 -0.1405  0.9003
  822MOL0     H13424  10.454   7.404   6.834 -2.0293 -4.5392  0.4092
  822MOL0     H13425  10.613   7.426   6.743  0.2289  0.8395 -1.2894
  822MOL0     H13426  10.422   7.203   6.739 -2.3902  1.9409 -1.9314
  822MOL0     H13427  10.565   7.201   6.638 -1.9482 -1.4754 -2.3558
  822MOL0     H13428  10.315   7.380   6.619  2.6364  1.2704  3.9004
  822MOL0     H13429  10.462   7.425   6.536 -2.4852  2.4170 -0.7999
  822MOL0     H13430  10.366   7.146   6.505  2.5163 -0.1363  0.4800
  822MOL0     H13431  10.461   7.245   6.390 -1.3783 -1.0257 -2.0397
  822MOL0     H13432  10.084   7.345   6.253  2.2616 -1.1407 -2.5226
  822MOL0     H13433  10.573   7.511   7.016 -1.6420 -2.1418  1.6344
  822MOL0     H13434  10.695   7.739   7.063  1.2282 -0.7679  1.1514
  822MOL0     H13435  10.614   7.676   7.198  0.0725 -0.6412 -0.1464
  822MOL0     H13436  10.790   7.736   7.209 -0.1377 -0.8826  0.5533
  823MOL0     O13437   3.748   1.297   7.468 -0.0380  0.2827 -0.2460
  823MOL0     C13438   3.776   1.181   7.500  0.4910 -1.0820  0.4748
  823MOL0     O13439   3.862   1.095   7.438  0.2483 -0.0535 -0.0703
  823MOL0     C13440   3.973   1.130   7.364 -0.0421  0.4047  0.1415
  823MOL0     C13441   4.035   1.253   7.385 -0.4086  0.7225 -0.4500
  823MOL0     C13442   4.151   1.287   7.311  0.7228  0.8366 -0.5685
  823MOL0     C13443   4.200   1.199   7.217  0.2382 -0.0358  0.3200
  823MOL0     O13444   4.300   1.250   7.132  0.6331  0.6406 -0.6010
  823MOL0     C13445   4.311   1.192   7.005 -0.9790 -0.0333 -0.3921
  823MOL0     C13446   4.422   1.088   7.010 -0.0779  0.1090  0.3079
  823MOL0     C13447   4.551   1.132   7.084 -0.1247 -0.0527  0.1325
  823MOL0     C13448   4.629   1.245   7.010 -0.7405 -0.1350  0.5387
  823MOL0     C13449   4.769   1.284   7.054 -0.0761 -0.1519  0.2885
  823MOL0     C13450   4.864   1.164   7.010  0.1667  0.1415  0.0010
  823MOL0     C13451   5.017   1.196   7.022  0.1550  0.3701  0.0863
  823MOL0     C13452   5.066   1.215   7.163 -1.4893 -1.0203  0.7121
  823MOL0     N13453   5.216   1.217   7.159 -0.3031  0.0898 -0.0110
  823MOL0     C13454   5.296   1.299   7.232 -0.9014 -0.1419 -0.8976
  823MOL0     C13455   5.425   1.277   7.204  0.1406 -0.5637 -0.5702
  823MOL0     C13456   5.551   1.334   7.253 -1.2768 -0.3361 -0.2605
  823MOL0     C13457   5.603   1.272   7.389  0.2685 -1.0570  0.3685
  823MOL0     C13458   5.624   1.125   7.367 -0.2722 -0.2962  0.5873
  823MOL0     C13459   5.717   1.080   7.242  0.7207  0.4398  0.0948
  823MOL0     O13460   5.850   1.142   7.271  0.3036 -0.1751 -0.3509
  823MOL0     C13461   5.936   1.177   7.178 -0.7272 -0.2444  0.0243
  823MOL0     C13462   6.033   1.267   7.211  0.3201  0.4467 -0.4946
  823MOL0     C13463   6.132   1.308   7.121 -1.1388 -0.4407  0.7242
  823MOL0     C13464   6.242   1.404   7.166 -1.4474 -0.0074 -0.2903
  823MOL0     C13465   6.134   1.251   6.990  0.1667  1.2731  0.1274
  823MOL0     C13466   6.249   1.282   6.888 -0.5913 -0.1895  0.0320
  823MOL0     O13467   6.240   1.208   6.776  0.2425 -0.2576  0.4586
  823MOL0     C13468   6.349   1.197   6.685  1.2059  0.4718 -0.7367
  823MOL0     C13469   6.320   1.151   6.563  0.1498 -0.0870 -0.1789
  823MOL0     C13470   6.425   1.133   6.466  1.2918  0.6446 -0.7765
  823MOL0     C13471   6.560   1.162   6.500 -0.0993 -0.2461  0.4171
  823MOL0     O13472   6.668   1.138   6.414  0.2135  0.4190  0.3040
  823MOL0     C13473   6.652   1.078   6.283 -0.4772  0.1857 -0.7200
  823MOL0     C13474   6.787   1.023   6.235  0.3982 -0.0072  0.3603
  823MOL0     C13475   6.805   0.971   6.089 -0.9729  0.0920  0.1194
  823MOL0     C13476   6.942   0.909   6.065  0.7345  0.1281  0.0267
  823MOL0     C13477   6.958   0.848   5.928  0.5399  0.1643  0.0780
  823MOL0     C13478   7.105   0.803   5.905 -0.6216 -0.2662  0.2108
  823MOL0     C13479   7.124   0.727   5.778 -0.3664 -0.3362  0.6154
  823MOL0     C13480   7.267   0.688   5.766  0.4143  0.0565  0.4217
  823MOL0    Cl13481   7.310   0.562   5.896 -0.3449  0.1109 -0.8299
  823MOL0     C13482   6.584   1.217   6.625 -0.0456 -1.0254  0.2693
  823MOL0     C13483   6.478   1.238   6.711  0.6637 -1.0119 -0.1073
  823MOL0     O13484   6.317   1.382   6.904  0.0293 -0.1918 -0.2212
  823MOL0     C13485   6.037   1.150   6.961  0.0405 -0.2305 -1.1499
  823MOL0     C13486   5.939   1.114   7.052 -0.2518  0.3878 -0.5636
  823MOL0     N13487   5.424   1.175   7.108 -0.7310  0.0242  0.1402
  823MOL0     N13488   5.298   1.147   7.081  0.6640  1.1325 -0.3788
  823MOL0     C13489   4.143   1.075   7.198 -0.2366  0.2551  0.4847
  823MOL0     C13490   4.021   1.042   7.270 -0.4591  0.3978 -0.1761
  823MOL0     C13491   3.704   1.124   7.616 -0.0323  0.8959  0.5544
  823MOL0     C13492   3.565   1.165   7.620  0.8310  0.4522  0.1080
  823MOL0     C13493   3.484   1.111   7.717  0.0492 -0.3044  0.3895
  823MOL0     C13494   3.531   1.030   7.815 -0.9491 -0.2117  0.4018
  823MOL0     O13495   3.439   0.999   7.913  0.4744  0.1812 -0.1215
  823MOL0     C13496   3.475   0.892   8.003  0.5867 -0.2655 -1.2939
  823MOL0     C13497   3.355   0.867   8.094 -0.3107  0.3000  0.3332
  823MOL0     C13498   3.335   0.984   8.191 -0.5140  0.8666  0.1092
  823MOL0     C13499   3.230   0.949   8.295 -0.4657  0.1824  0.0131
  823MOL0     C13500   3.098   0.988   8.246 -0.0797 -0.1105  0.3152
  823MOL0     C13501   2.987   1.028   8.208  0.7003  0.2454 -0.1471
  823MOL0     C13502   3.663   0.977   7.808  0.8912 -0.1404 -1.0014
  823MOL0     C13503   3.755   1.034   7.718  0.1160  0.1710 -0.4126
  823MOL0     C13504   3.902   0.992   7.724 -0.1987 -0.0690 -0.0764
  823MOL0     H13505   4.014   1.330   7.458  1.5181 -0.1397  1.0964
  823MOL0     H13506   4.194   1.386   7.320 -0.8992  1.6493 -1.3753
  823MOL0     H13507   4.335   1.273   6.936  2.2547  0.8229  1.5346
  823MOL0     H13508   4.219   1.146   6.967  0.1086 -0.2319 -2.9801
  823MOL0     H13509   4.378   1.006   7.067 -0.0322  1.3402  2.1631
  823MOL0     H13510   4.444   1.036   6.916  1.9610 -2.4532  2.0448
  823MOL0     H13511   4.526   1.158   7.187 -2.2065 -1.8630  0.1603
  823MOL0     H13512   4.622   1.049   7.089  0.9235  0.8166  0.0791
  823MOL0     H13513   4.637   1.222   6.903  0.5369  1.2081  0.3071
  823MOL0     H13514   4.578   1.341   6.999  1.5845  1.5681  3.2322
  823MOL0     H13515   4.758   1.303   7.161 -2.4299  0.5758 -0.0202
  823MOL0     H13516   4.801   1.379   7.010 -0.4637  1.0002  2.4019
  823MOL0     H13517   4.837   1.077   7.069 -1.3859  0.3709 -0.3230
  823MOL0     H13518   4.841   1.136   6.907  0.6534  2.5163 -0.8254
  823MOL0     H13519   5.035   1.284   6.960  0.9753  0.4606  0.4429
  823MOL0     H13520   5.053   1.107   6.970 -0.1080  0.3196 -0.0108
  823MOL0     H13521   5.040   1.313   7.204  3.1389  0.8897 -0.3081
  823MOL0     H13522   5.034   1.137   7.233 -2.1432 -0.4524  1.0549
  823MOL0     H13523   5.256   1.374   7.299  0.2541 -0.1315 -0.1923
  823MOL0     H13524   5.549   1.443   7.265  0.8346  0.0966 -2.9175
  823MOL0     H13525   5.627   1.330   7.175 -1.7479 -4.2698 -0.7182
  823MOL0     H13526   5.694   1.315   7.431  0.4071  0.1985 -1.1071
  823MOL0     H13527   5.522   1.295   7.458 -0.5507 -0.6794 -0.6931
  823MOL0     H13528   5.642   1.062   7.456 -1.7546 -2.5362 -0.5885
  823MOL0     H13529   5.529   1.087   7.329  0.5231 -0.3316 -1.4410
  823MOL0     H13530   5.732   0.973   7.232  1.4810  0.4855  0.7331
  823MOL0     H13531   5.676   1.120   7.148 -1.8079  1.7323  1.6453
  823MOL0     H13532   6.033   1.307   7.312  1.0796  1.1368 -0.7593
  823MOL0     H13533   6.337   1.362   7.133 -1.6957  0.6903 -1.9438
  823MOL0     H13534   6.234   1.424   7.274 -1.9678  0.1563 -0.3543
  823MOL0     H13535   6.228   1.502   7.121 -3.1008 -0.7363 -1.4680
  823MOL0     H13536   6.218   1.127   6.532  0.0190 -2.3015  1.7004
  823MOL0     H13537   6.387   1.099   6.370  1.8577  0.1730 -0.8371
  823MOL0     H13538   6.576   1.000   6.277  0.1027 -0.4359 -0.2485
  823MOL0     H13539   6.620   1.160   6.218 -1.6565  1.0152  0.8529
  823MOL0     H13540   6.867   1.095   6.255 -0.5296  1.6559 -1.5120
  823MOL0     H13541   6.801   0.942   6.308 -0.3777 -0.2822  0.2202
  823MOL0     H13542   6.798   1.062   6.028  0.1939  0.2363  0.1768
  823MOL0     H13543   6.727   0.898   6.064  1.7243 -3.3445  1.0868
  823MOL0     H13544   6.967   0.834   6.141 -1.0856  0.8692  1.4388
  823MOL0     H13545   7.019   0.985   6.073  1.0363 -0.2339  0.6925
  823MOL0     H13546   6.886   0.767   5.917 -2.0049  2.1980  0.6723
  823MOL0     H13547   6.933   0.917   5.847  0.1457 -0.4257 -0.3114
  823MOL0     H13548   7.144   0.747   5.990  0.5644  3.0135  1.9843
  823MOL0     H13549   7.164   0.894   5.895  0.7874 -1.3350 -1.9090
  823MOL0     H13550   7.103   0.799   5.697  2.8561 -1.0366 -0.9820
  823MOL0     H13551   7.054   0.644   5.762 -0.9847  0.3388 -0.3198
  823MOL0     H13552   7.331   0.776   5.767 -4.4047  4.0136  2.0526
  823MOL0     H13553   7.285   0.646   5.667  4.1905  0.1870  0.9368
  823MOL0     H13554   6.687   1.247   6.645  0.1021  0.0370 -1.8273
  823MOL0     H13555   6.500   1.274   6.811  0.7412  2.8979 -1.3775
  823MOL0     H13556   6.050   1.105   6.863 -1.7612  0.9232 -1.9501
  823MOL0     H13557   5.882   1.024   7.034 -0.2742 -0.0244  1.3406
  823MOL0     H13558   4.180   0.994   7.135 -0.9794 -2.0382  2.8100
  823MOL0     H13559   3.984   0.940   7.269 -0.4817  0.4129 -1.1830
  823MOL0     H13560   3.522   1.216   7.534  0.7673 -1.0023 -0.7632
  823MOL0     H13561   3.377   1.129   7.718 -0.2106 -1.0765 -2.7970
  823MOL0     H13562   3.501   0.795   7.959 -1.0264 -1.3091 -0.0793
  823MOL0     H13563   3.563   0.919   8.061  0.4895 -0.1877 -1.1824
  823MOL0     H13564   3.366   0.776   8.153 -0.3433  0.3332  0.3911
  823MOL0     H13565   3.268   0.851   8.030 -0.2254 -1.2762  0.5718
  823MOL0     H13566   3.426   0.998   8.251  2.6191 -2.2081 -3.4003
  823MOL0     H13567   3.326   1.080   8.139 -1.4774  0.9440  0.4066
  823MOL0     H13568   3.247   1.009   8.385 -1.5024  1.0917 -0.3579
  823MOL0     H13569   3.229   0.841   8.309  0.2940  0.0415 -0.9511
  823MOL0     H13570   2.893   1.072   8.179  1.5374 -0.4259 -4.4967
  823MOL0     H13571   3.696   0.905   7.882  1.1263  3.1132  2.4196
  823MOL0     H13572   3.943   1.011   7.824  1.4562  1.1013 -0.9129
  823MOL0     H13573   3.925   0.893   7.684 -1.1210  0.0558 -0.9550
  823MOL0     H13574   3.963   1.053   7.657  0.1666  1.5319  1.6247
  824MOL0     O13575   1.971   4.392   4.497 -0.2910 -0.1877 -0.5290
  824MOL0     C13576   2.092   4.419   4.512  0.4024 -0.1613  0.0695
  824MOL0     O13577   2.197   4.374   4.436 -0.2883 -1.0390 -0.1838
  824MOL0     C13578   2.163   4.296   4.325  0.1514 -0.2127  0.1831
  824MOL0     C13579   2.218   4.164   4.322  0.8954  0.6670 -0.0997
  824MOL0     C13580   2.196   4.084   4.206  0.2666 -0.9629  0.8422
  824MOL0     C13581   2.118   4.136   4.099 -0.7488  1.0549  0.2925
  824MOL0     O13582   2.096   4.068   3.980 -0.6840  0.0125  0.0148
  824MOL0     C13583   2.214   4.044   3.903 -0.5392  0.6349 -0.3873
  824MOL0     C13584   2.212   3.910   3.821  0.4040 -0.8006 -0.2215
  824MOL0     C13585   2.069   3.889   3.751 -0.3025 -0.0841 -1.0042
  824MOL0     C13586   2.083   3.781   3.650 -0.5781 -0.0797 -0.0697
  824MOL0     C13587   1.954   3.713   3.615 -0.4554  0.0963 -0.0042
  824MOL0     C13588   1.857   3.804   3.546  0.0569 -0.6595 -0.1160
  824MOL0     C13589   1.757   3.728   3.467 -0.2001  0.2812 -0.7165
  824MOL0     C13590   1.818   3.649   3.340  0.8635  0.1821 -0.4846
  824MOL0     N13591   1.901   3.733   3.255 -0.4480 -0.2226 -0.3591
  824MOL0     C13592   1.862   3.838   3.163 -0.3258  0.2528 -0.3806
  824MOL0     C13593   1.979   3.887   3.109 -0.5339  1.0273  0.3202
  824MOL0     C13594   1.986   4.005   3.019 -0.0732 -0.4666  1.2515
  824MOL0     C13595   1.918   3.965   2.886  1.1225  0.5853 -0.9456
  824MOL0     C13596   1.896   4.091   2.793  1.2346  0.5662 -0.6796
  824MOL0     C13597   2.024   4.118   2.718 -0.1138  0.6895 -0.4557
  824MOL0     O13598   2.038   4.017   2.618  0.4466 -0.5013 -0.1996
  824MOL0     C13599   2.153   4.031   2.550  0.4842 -0.0860  0.0000
  824MOL0     C13600   2.207   3.912   2.495  0.1715 -0.4363 -0.1537
  824MOL0     C13601   2.318   3.901   2.422 -0.2226 -0.0864  0.7961
  824MOL0     C13602   2.362   3.749   2.398  0.4952  0.3164  0.3317
  824MOL0     C13603   2.393   4.022   2.397 -1.6257  0.6249  0.0536
  824MOL0     C13604   2.526   4.015   2.323  0.0211  0.2099  0.1704
  824MOL0     O13605   2.549   3.906   2.243  0.4195 -0.6741 -0.1727
  824MOL0     C13606   2.665   3.890   2.182 -0.0823  0.3655  0.4059
  824MOL0     C13607   2.736   3.773   2.208  0.0685  0.4521  0.1183
  824MOL0     C13608   2.849   3.738   2.136 -0.2234  0.8939 -0.4328
  824MOL0     C13609   2.910   3.844   2.062 -0.7046 -0.1913  0.0045
  824MOL0     O13610   3.024   3.840   1.989  0.0876  0.3812 -0.6339
  824MOL0     C13611   3.113   3.734   2.000 -0.0997  0.4033 -0.3765
  824MOL0     C13612   3.236   3.785   1.923 -0.1763 -0.6361  0.4781
  824MOL0     C13613   3.371   3.700   1.934  0.4939  0.6408 -0.1342
  824MOL0     C13614   3.339   3.543   1.939 -0.0086 -0.2435  0.0717
  824MOL0     C13615   3.470   3.461   1.960  0.2216 -0.4742  0.3493
  824MOL0     C13616   3.455   3.314   1.911  0.1495 -0.5577  0.0829
  824MOL0     C13617   3.590   3.235   1.919  0.1582  0.6144 -0.0578
  824MOL0     C13618   3.557   3.089   1.941 -0.0058  0.1139 -0.8110
  824MOL0    Cl13619   3.674   2.992   1.862  0.4289  0.0070  0.3158
  824MOL0     C13620   2.838   3.957   2.042  0.0992 -0.4793  0.3397
  824MOL0     C13621   2.717   3.987   2.104  0.4490 -0.6949 -0.8286
  824MOL0     O13622   2.602   4.109   2.342  0.7943  0.3511  0.1173
  824MOL0     C13623   2.347   4.142   2.457  0.0435  0.2021  0.7031
  824MOL0     C13624   2.232   4.149   2.537  0.7784  0.7650  0.0938
  824MOL0     N13625   2.087   3.808   3.157 -0.0533  0.6249 -0.0488
  824MOL0     N13626   2.039   3.720   3.246  0.6559  0.5688  0.0745
  824MOL0     C13627   2.069   4.265   4.113  0.0557 -0.4240  0.0478
  824MOL0     C13628   2.088   4.341   4.223 -0.2579 -0.6110  0.2005
  824MOL0     C13629   2.112   4.516   4.628  0.1938 -0.4893 -0.1587
  824MOL0     C13630   2.007   4.600   4.670  0.3811 -0.7349  0.7783
  824MOL0     C13631   2.018   4.678   4.785 -0.3251  0.4719  0.5553
  824MOL0     C13632   2.137   4.690   4.849  0.0402 -0.0236  0.3078
  824MOL0     O13633   2.142   4.772   4.959 -0.4194  1.0135 -0.1228
  824MOL0     C13634   2.259   4.749   5.046 -0.3745  0.4921  0.4845
  824MOL0     C13635   2.244   4.844   5.158  0.0244  0.0613 -0.7645
  824MOL0     C13636   2.368   4.844   5.244 -0.1433 -0.0095 -0.1373
  824MOL0     C13637   2.334   4.922   5.379  0.2986  0.2076 -1.0427
  824MOL0     C13638   2.423   4.888   5.486  0.2604  0.0613  0.8138
  824MOL0     C13639   2.504   4.857   5.572 -0.5667 -0.1358  1.1796
  824MOL0     C13640   2.242   4.611   4.799  0.1975  0.1053 -0.1776
  824MOL0     C13641   2.234   4.527   4.690  0.0596  0.3623  0.4929
  824MOL0     C13642   2.359   4.453   4.648  0.5605  0.6359 -0.1555
  824MOL0     H13643   2.262   4.111   4.406  1.8709  0.3412 -0.7901
  824MOL0     H13644   2.241   3.986   4.194  0.5978 -0.7236  0.0395
  824MOL0     H13645   2.302   4.037   3.967 -1.0692 -0.4468  0.2497
  824MOL0     H13646   2.224   4.121   3.826  1.2044  0.6466 -0.1797
  824MOL0     H13647   2.286   3.914   3.740 -1.6629  1.1749 -2.1710
  824MOL0     H13648   2.234   3.823   3.883 -2.2466 -1.1880  0.2673
  824MOL0     H13649   1.989   3.876   3.826  0.1328  2.3651 -0.0084
  824MOL0     H13650   2.044   3.983   3.701  0.2859  1.3240  1.1891
  824MOL0     H13651   2.127   3.819   3.557 -1.6545 -1.2448 -1.1122
  824MOL0     H13652   2.158   3.706   3.677  2.4806  3.4055  2.1153
  824MOL0     H13653   1.904   3.671   3.703  1.4389 -0.1025  1.0479
  824MOL0     H13654   1.972   3.632   3.544  0.6824  1.0654 -0.8523
  824MOL0     H13655   1.814   3.858   3.631 -0.0151  3.2137 -2.3687
  824MOL0     H13656   1.894   3.881   3.478 -1.3008 -0.2791 -0.4638
  824MOL0     H13657   1.681   3.798   3.431 -0.4329  0.2368 -0.3113
  824MOL0     H13658   1.709   3.660   3.538  1.6424  1.4291  1.7724
  824MOL0     H13659   1.866   3.554   3.366  2.0992  0.3048 -2.1012
  824MOL0     H13660   1.727   3.629   3.283 -0.8377  0.6425  1.9492
  824MOL0     H13661   1.765   3.874   3.131 -0.8592  0.7919  1.6426
  824MOL0     H13662   2.093   4.022   3.006  0.2381 -1.6563  2.0583
  824MOL0     H13663   1.932   4.088   3.064 -0.5012  0.8051 -1.4300
  824MOL0     H13664   1.975   3.887   2.835  2.6443  0.5732  0.6896
  824MOL0     H13665   1.825   3.912   2.906  0.2238  2.1133 -0.9073
  824MOL0     H13666   1.821   4.078   2.714 -0.1140 -0.6802  0.7344
  824MOL0     H13667   1.860   4.176   2.852 -0.5772 -2.1765  2.5040
  824MOL0     H13668   2.014   4.216   2.671 -2.7308  0.5114 -0.4081
  824MOL0     H13669   2.106   4.110   2.790 -2.2337 -1.8542  1.9274
  824MOL0     H13670   2.143   3.825   2.508 -0.9891  0.4914  0.6617
  824MOL0     H13671   2.411   3.707   2.486  0.7129 -0.5070 -0.1722
  824MOL0     H13672   2.418   3.717   2.310  4.7310  0.5804  2.6689
  824MOL0     H13673   2.265   3.699   2.395  0.8874 -0.5119  1.1043
  824MOL0     H13674   2.710   3.696   2.281  3.0705 -0.2270  0.6157
  824MOL0     H13675   2.907   3.650   2.163 -0.4803  1.5159  2.5587
  824MOL0     H13676   3.141   3.732   2.106  1.6238  0.3074 -0.8089
  824MOL0     H13677   3.079   3.647   1.943  1.1886  0.6758 -1.6091
  824MOL0     H13678   3.223   3.804   1.816  0.6855 -0.6367  0.3677
  824MOL0     H13679   3.261   3.886   1.957  1.6654 -0.1723 -1.9617
  824MOL0     H13680   3.414   3.740   2.027  1.2962  2.2291 -1.1564
  824MOL0     H13681   3.433   3.725   1.848  1.4294 -1.4310 -0.1122
  824MOL0     H13682   3.286   3.519   1.846  1.4037 -0.8194 -0.6298
  824MOL0     H13683   3.283   3.527   2.031  0.0660  1.6441  0.4883
  824MOL0     H13684   3.549   3.501   1.898  0.7361 -0.8262  0.7659
  824MOL0     H13685   3.512   3.471   2.061 -1.1837  0.3749  0.8764
  824MOL0     H13686   3.409   3.310   1.813  0.1635 -2.9420  0.1253
  824MOL0     H13687   3.379   3.265   1.973 -1.4997  1.1936 -0.4510
  824MOL0     H13688   3.660   3.269   1.996  1.3227 -2.2021  0.2751
  824MOL0     H13689   3.654   3.237   1.831  1.6790  1.6482  1.0291
  824MOL0     H13690   3.462   3.072   1.889  0.4109 -0.5667 -1.3762
  824MOL0     H13691   3.543   3.078   2.049 -3.6162  1.8476 -0.9689
  824MOL0     H13692   2.885   4.023   1.970 -1.4691  1.4023  0.9484
  824MOL0     H13693   2.653   4.072   2.084  1.9843  0.4851 -0.9129
  824MOL0     H13694   2.395   4.239   2.455 -0.4113  0.4772  2.1293
  824MOL0     H13695   2.193   4.244   2.571  0.6584  1.1297 -1.0086
  824MOL0     H13696   2.009   4.306   4.032  0.7998  0.1423 -0.2256
  824MOL0     H13697   2.051   4.443   4.220  2.4240  0.4346 -1.1020
  824MOL0     H13698   1.913   4.604   4.616 -0.3373 -2.4462  1.8326
  824MOL0     H13699   1.935   4.744   4.804  1.2046  2.7678 -0.2679
  824MOL0     H13700   2.249   4.650   5.092  0.9480  1.1679  2.3681
  824MOL0     H13701   2.353   4.768   4.993  1.1058  0.5192  2.9209
  824MOL0     H13702   2.155   4.805   5.208 -0.3105  2.9300  1.1404
  824MOL0     H13703   2.216   4.946   5.127  1.6366  0.9326  0.4809
  824MOL0     H13704   2.402   4.742   5.261 -1.5680 -0.5610 -0.4802
  824MOL0     H13705   2.455   4.896   5.201  0.6388 -1.6291 -0.5892
  824MOL0     H13706   2.236   4.894   5.420  3.0882 -3.9562  3.9519
  824MOL0     H13707   2.338   5.029   5.358 -2.0789  0.0314 -2.9192
  824MOL0     H13708   2.562   4.824   5.656  1.2953  0.8625  0.3517
  824MOL0     H13709   2.339   4.624   4.845  0.1043 -3.0308  1.0991
  824MOL0     H13710   2.437   4.446   4.725  0.5229 -3.1076 -0.2897
  824MOL0     H13711   2.330   4.350   4.624  0.1945  0.7006 -0.0079
  824MOL0     H13712   2.409   4.508   4.568  2.0492 -0.0870  0.2533
  825MOL0     O13713   3.358   7.286   2.323  0.0106  0.0167  0.3218
  825MOL0     C13714   3.304   7.369   2.401  0.0461 -0.3212  0.5199
  825MOL0     O13715   3.366   7.487   2.448 -0.0027  0.4798  1.1073
  825MOL0     C13716   3.482   7.537   2.396 -0.6350 -0.0027 -0.2522
  825MOL0     C13717   3.592   7.463   2.354 -0.9048  0.7023 -0.7253
  825MOL0     C13718   3.700   7.529   2.292  0.8347 -0.5474 -0.3670
  825MOL0     C13719   3.689   7.664   2.269 -0.8347 -0.4800 -0.2082
  825MOL0     O13720   3.805   7.727   2.218 -0.2476 -0.7031  0.0234
  825MOL0     C13721   3.805   7.863   2.173  0.0927  0.0576  0.6328
  825MOL0     C13722   3.937   7.894   2.102  0.0147  0.4061  0.9875
  825MOL0     C13723   3.966   7.796   1.984  0.4571 -0.8613 -0.2628
  825MOL0     C13724   4.108   7.834   1.928  0.8218 -0.3300 -0.0899
  825MOL0     C13725   4.149   7.746   1.820  0.0568  1.0186  0.2606
  825MOL0     C13726   4.194   7.605   1.868  0.1067  1.0090  1.2355
  825MOL0     C13727   4.264   7.513   1.762 -0.3856  0.8186 -0.1279
  825MOL0     C13728   4.404   7.561   1.706  0.1881 -0.0160 -0.1007
  825MOL0     N13729   4.493   7.627   1.810 -0.1183  0.8802 -0.3596
  825MOL0     C13730   4.549   7.566   1.919 -1.1937  0.9538  1.0145
  825MOL0     C13731   4.595   7.667   1.997 -1.0798 -0.3647  0.0984
  825MOL0     C13732   4.648   7.664   2.140 -0.4466 -0.2680 -0.0069
  825MOL0     C13733   4.794   7.685   2.138 -0.5218 -0.1004  0.0175
  825MOL0     C13734   4.858   7.739   2.269  0.3295 -0.2030  1.2011
  825MOL0     C13735   4.806   7.670   2.391 -0.1381 -0.8398  0.1346
  825MOL0     O13736   4.849   7.530   2.391 -0.2728 -0.1174 -0.6434
  825MOL0     C13737   4.786   7.445   2.477 -0.1664  0.0196 -0.8882
  825MOL0     C13738   4.772   7.466   2.613  0.1111 -0.9819  0.0733
  825MOL0     C13739   4.721   7.373   2.703  1.3574 -0.2958 -0.2728
  825MOL0     C13740   4.733   7.398   2.850 -0.1452 -0.4690  0.1452
  825MOL0     C13741   4.661   7.259   2.650 -0.0376  0.1290 -0.5646
  825MOL0     C13742   4.572   7.159   2.724 -0.3018  0.3835  0.3579
  825MOL0     O13743   4.511   7.202   2.836  0.1100 -0.5149 -0.0752
  825MOL0     C13744   4.406   7.130   2.891  0.3427  0.5519  0.2957
  825MOL0     C13745   4.277   7.192   2.887 -0.6778  0.9746 -0.3361
  825MOL0     C13746   4.170   7.112   2.920  0.5008 -0.3055 -0.6363
  825MOL0     C13747   4.183   6.976   2.969  0.2273  0.2082  0.9396
  825MOL0     O13748   4.082   6.887   3.005 -0.0331  0.3208 -0.7724
  825MOL0     C13749   3.951   6.936   3.017 -0.2491 -0.4824 -0.2288
  825MOL0     C13750   3.886   6.933   2.885  0.0438  0.0341  1.0032
  825MOL0     C13751   3.736   6.966   2.888 -0.0133 -0.4526  0.0079
  825MOL0     C13752   3.685   7.007   2.751  0.3309  0.3314 -0.0667
  825MOL0     C13753   3.670   7.155   2.745  0.3902 -0.4523 -0.3471
  825MOL0     C13754   3.791   7.237   2.787 -0.0917  1.0049  0.5075
  825MOL0     C13755   3.787   7.380   2.752  0.2791  0.0683 -0.2674
  825MOL0     C13756   3.827   7.415   2.610  0.3015 -0.3462  0.7836
  825MOL0    Cl13757   3.993   7.356   2.579  0.2718 -0.0565  0.1778
  825MOL0     C13758   4.315   6.916   2.975 -0.1514 -0.1843  0.3873
  825MOL0     C13759   4.418   6.996   2.939  0.2784  0.4154 -0.4645
  825MOL0     O13760   4.559   7.044   2.677  0.1823  0.4588  0.1054
  825MOL0     C13761   4.671   7.235   2.514  0.4098  1.0193 -0.1538
  825MOL0     C13762   4.736   7.323   2.427 -0.5097  0.3944 -0.8910
  825MOL0     N13763   4.581   7.785   1.918  0.0382 -1.1041  0.1463
  825MOL0     N13764   4.523   7.757   1.810 -0.4346  0.6723 -0.3352
  825MOL0     C13765   3.574   7.735   2.300  0.2683  0.3651 -0.0148
  825MOL0     C13766   3.465   7.670   2.366  0.0771  0.8300  0.2384
  825MOL0     C13767   3.161   7.360   2.430 -0.7019 -0.6114  0.6081
  825MOL0     C13768   3.081   7.470   2.425 -0.9011  0.1277 -0.4360
  825MOL0     C13769   2.953   7.470   2.474 -0.6513 -0.5982  0.4531
  825MOL0     C13770   2.894   7.348   2.504 -0.3781  0.3293 -0.1770
  825MOL0     O13771   2.771   7.335   2.559 -0.2581  0.2408  0.3755
  825MOL0     C13772   2.688   7.444   2.588 -0.8537  0.1898  0.4080
  825MOL0     C13773   2.547   7.383   2.614 -0.4135  0.8532  0.1945
  825MOL0     C13774   2.438   7.473   2.683 -0.5320 -0.5971  0.7852
  825MOL0     C13775   2.297   7.406   2.673 -0.4689 -0.1219  0.1757
  825MOL0     C13776   2.190   7.507   2.699 -0.5443 -0.1072 -0.0368
  825MOL0     C13777   2.096   7.581   2.716  0.0548 -0.6502  0.5524
  825MOL0     C13778   2.966   7.228   2.495  0.2723  0.2630  0.2749
  825MOL0     C13779   3.100   7.233   2.460 -0.2506 -0.3967 -0.8184
  825MOL0     C13780   3.176   7.098   2.463  1.1055  0.9692  0.3094
  825MOL0     H13781   3.605   7.356   2.368  4.2798  1.4877  3.4301
  825MOL0     H13782   3.792   7.477   2.266  1.2226 -0.3301  0.5478
  825MOL0     H13783   3.788   7.932   2.256  2.7946  0.2543  1.0987
  825MOL0     H13784   3.730   7.872   2.093 -0.2836  0.9303  1.0652
  825MOL0     H13785   3.944   7.996   2.063 -0.4950 -0.0050 -0.2343
  825MOL0     H13786   4.018   7.877   2.173  0.9152 -0.9576 -0.3156
  825MOL0     H13787   3.982   7.694   2.021 -0.8782 -1.6128 -1.6450
  825MOL0     H13788   3.882   7.807   1.915  1.3068  4.7829 -0.8779
  825MOL0     H13789   4.120   7.936   1.891  0.0558 -0.1778  0.0465
  825MOL0     H13790   4.182   7.821   2.007 -0.1852 -3.1845  0.5111
  825MOL0     H13791   4.231   7.799   1.771  0.5437  1.0777  1.1273
  825MOL0     H13792   4.071   7.739   1.743 -0.7545 -3.5586  1.1931
  825MOL0     H13793   4.271   7.609   1.946  2.2806 -1.3435 -0.6369
  825MOL0     H13794   4.109   7.557   1.917  0.2044  0.3699  0.7876
  825MOL0     H13795   4.198   7.505   1.675 -1.4247  0.1856  0.6969
  825MOL0     H13796   4.301   7.426   1.818 -2.5954 -0.0967  0.0170
  825MOL0     H13797   4.455   7.473   1.664  0.6279  0.0398  0.3069
  825MOL0     H13798   4.380   7.642   1.637 -0.5181  0.1772  0.3491
  825MOL0     H13799   4.539   7.460   1.944 -1.5904  0.5503 -0.7229
  825MOL0     H13800   4.629   7.573   2.198 -0.9304  0.9406  1.8007
  825MOL0     H13801   4.594   7.744   2.190 -1.1156 -1.7458  1.7635
  825MOL0     H13802   4.842   7.592   2.108 -1.8049 -0.8947  0.3342
  825MOL0     H13803   4.813   7.761   2.062 -1.6484 -0.3497 -0.5302
  825MOL0     H13804   4.967   7.745   2.261  0.1323  3.7418 -1.1861
  825MOL0     H13805   4.819   7.841   2.282 -2.4077 -0.5889 -2.5327
  825MOL0     H13806   4.838   7.722   2.481  2.5646 -2.5425  0.2802
  825MOL0     H13807   4.699   7.679   2.370 -0.1039 -1.0076 -0.1183
  825MOL0     H13808   4.814   7.555   2.659  0.2402  0.0409 -1.9364
  825MOL0     H13809   4.650   7.461   2.882 -0.7396 -1.8340  1.3766
  825MOL0     H13810   4.830   7.440   2.876  0.1837 -0.5358 -0.9044
  825MOL0     H13811   4.736   7.303   2.904  2.2714 -0.4532  0.1727
  825MOL0     H13812   4.278   7.299   2.868 -2.2545  1.0064 -0.3223
  825MOL0     H13813   4.071   7.154   2.908 -0.2370 -2.2319 -1.7690
  825MOL0     H13814   3.896   6.876   3.091  0.0171  0.3102  0.6284
  825MOL0     H13815   3.955   7.040   3.051 -0.2645 -0.3418 -0.6597
  825MOL0     H13816   3.949   6.988   2.815 -1.1247 -2.2576 -2.0518
  825MOL0     H13817   3.892   6.832   2.842  2.1664 -0.9792  3.4476
  825MOL0     H13818   3.708   7.036   2.967 -1.3678 -1.0954  0.1309
  825MOL0     H13819   3.686   6.873   2.914 -2.1472  0.9826  1.4376
  825MOL0     H13820   3.586   6.963   2.733  1.3817 -0.9221 -3.5739
  825MOL0     H13821   3.764   6.981   2.681 -0.6551  1.4166 -1.6463
  825MOL0     H13822   3.633   7.176   2.644 -1.1222 -0.1423  0.2568
  825MOL0     H13823   3.594   7.197   2.811  2.0884 -0.3859  1.6665
  825MOL0     H13824   3.883   7.193   2.747 -0.6460  1.2275 -1.0938
  825MOL0     H13825   3.811   7.222   2.893  0.0418  2.7482  0.7515
  825MOL0     H13826   3.857   7.433   2.817 -0.6702 -0.9911  1.7042
  825MOL0     H13827   3.685   7.413   2.773 -1.1997  0.6663 -6.4401
  825MOL0     H13828   3.830   7.522   2.590  3.3051 -0.1137  1.9842
  825MOL0     H13829   3.761   7.370   2.535  2.4184 -1.8977 -0.2551
  825MOL0     H13830   4.328   6.815   3.012  0.0757  1.4819  5.5192
  825MOL0     H13831   4.516   6.949   2.941 -1.0269 -2.4808  1.3720
  825MOL0     H13832   4.632   7.146   2.466  2.2686 -0.3456  0.7341
  825MOL0     H13833   4.732   7.307   2.319 -0.6038  0.7055 -0.9362
  825MOL0     H13834   3.555   7.836   2.266  3.5577  1.3957  0.8312
  825MOL0     H13835   3.376   7.732   2.375  0.1693  0.7604  1.9198
  825MOL0     H13836   3.121   7.570   2.408 -3.3329  0.9735 -1.6905
  825MOL0     H13837   2.900   7.561   2.502 -2.4812 -1.5213  0.1525
  825MOL0     H13838   2.742   7.485   2.674  1.0953  3.1310 -1.9879
  825MOL0     H13839   2.681   7.516   2.506 -3.7078  1.1108  1.3357
  825MOL0     H13840   2.552   7.290   2.671  0.2909  0.0772 -1.0809
  825MOL0     H13841   2.502   7.340   2.524 -1.2403 -0.9471  1.4126
  825MOL0     H13842   2.462   7.502   2.785  0.9372 -1.1429  0.6072
  825MOL0     H13843   2.444   7.567   2.627  1.8286 -0.3127  1.4172
  825MOL0     H13844   2.291   7.318   2.738  1.2259 -0.5393 -0.1621
  825MOL0     H13845   2.284   7.377   2.568  1.5114 -1.1798  0.1669
  825MOL0     H13846   2.010   7.635   2.750 -0.5365  0.1925 -2.0426
  825MOL0     H13847   2.934   7.134   2.538 -1.6435  0.1195 -1.3607
  825MOL0     H13848   3.107   7.028   2.511 -1.8662  3.5379  0.0982
  825MOL0     H13849   3.187   7.063   2.359 -0.5226  1.3850 -0.0299
  825MOL0     H13850   3.271   7.105   2.517  0.1098 -0.5417  2.4089
  826MOL0     O13851   7.011   1.445   5.254 -0.2749 -0.1896  0.1357
  826MOL0     C13852   6.968   1.453   5.136  0.0465  0.3360 -0.1748
  826MOL0     O13853   6.841   1.444   5.104 -0.6455 -0.2516  0.5668
  826MOL0     C13854   6.733   1.431   5.187  0.0901 -0.3212  0.2457
  826MOL0     C13855   6.729   1.371   5.312 -0.2470  0.0841 -0.6850
  826MOL0     C13856   6.607   1.370   5.385 -0.3744 -0.4661 -0.1622
  826MOL0     C13857   6.493   1.423   5.328 -0.0900  0.3420  0.2938
  826MOL0     O13858   6.378   1.414   5.405  0.2652  0.0232 -0.0594
  826MOL0     C13859   6.255   1.400   5.329 -0.8549 -0.3504 -0.1168
  826MOL0     C13860   6.141   1.343   5.418  0.2610  0.3356  0.2861
  826MOL0     C13861   6.013   1.317   5.328 -0.0668 -0.5581  0.0800
  826MOL0     C13862   5.941   1.449   5.298  0.1569  0.5294 -0.2504
  826MOL0     C13863   5.828   1.417   5.213  0.0974 -0.2568  0.7516
  826MOL0     C13864   5.701   1.365   5.283 -0.1494 -0.4359  0.1888
  826MOL0     C13865   5.593   1.313   5.191  0.8650 -0.2987 -0.4500
  826MOL0     C13866   5.523   1.429   5.116  0.3423 -0.4164  0.1752
  826MOL0     N13867   5.403   1.376   5.049 -0.2883 -0.1291  0.0938
  826MOL0     C13868   5.276   1.414   5.083 -1.0596 -1.0849 -0.1589
  826MOL0     C13869   5.191   1.330   5.019  0.2891  0.6854 -0.9459
  826MOL0     C13870   5.043   1.322   5.027  0.3387 -0.4176  1.0823
  826MOL0     C13871   4.998   1.223   5.129  0.7275 -0.3611 -0.4383
  826MOL0     C13872   5.075   1.212   5.269  0.4446 -0.2381 -0.1810
  826MOL0     C13873   4.984   1.164   5.384  0.2170 -0.6139  0.2996
  826MOL0     O13874   4.976   1.021   5.362 -0.0376  0.4684  0.2609
  826MOL0     C13875   4.849   0.979   5.318 -0.9866  0.5738  0.4576
  826MOL0     C13876   4.843   0.880   5.215  0.4150 -0.2474 -0.0961
  826MOL0     C13877   4.725   0.838   5.157  0.4419  0.4633 -0.2199
  826MOL0     C13878   4.728   0.723   5.052 -0.0550  0.2958  0.2121
  826MOL0     C13879   4.600   0.907   5.187 -0.1097  0.9831 -0.9364
  826MOL0     C13880   4.471   0.885   5.115  0.3255  0.2688 -0.1897
  826MOL0     O13881   4.356   0.942   5.168 -0.6857 -0.7407 -0.2695
  826MOL0     C13882   4.247   0.945   5.087  0.3509  0.7426 -0.3737
  826MOL0     C13883   4.234   1.054   4.993  0.4090  0.2060 -0.9014
  826MOL0     C13884   4.118   1.064   4.909 -0.3351  0.7206 -0.0447
  826MOL0     C13885   4.011   0.971   4.922  0.1017  0.2056  0.1685
  826MOL0     O13886   3.892   0.985   4.864  0.6853 -0.1901 -0.4715
  826MOL0     C13887   3.873   0.905   4.747 -0.1191  1.1775 -0.1006
  826MOL0     C13888   3.855   0.755   4.778  0.5507  0.0821  0.6222
  826MOL0     C13889   3.780   0.674   4.677 -0.6500 -0.2308  0.0398
  826MOL0     C13890   3.786   0.534   4.719 -0.1077 -0.4349 -0.0440
  826MOL0     C13891   3.734   0.429   4.626  0.3945 -0.2229 -0.2139
  826MOL0     C13892   3.589   0.449   4.581 -0.0751 -0.4163  0.7952
  826MOL0     C13893   3.482   0.433   4.693 -0.1284 -0.0908  0.0603
  826MOL0     C13894   3.341   0.462   4.651  0.3671  0.0326 -0.6212
  826MOL0    Cl13895   3.312   0.626   4.584  0.5538 -0.0271 -0.1624
  826MOL0     C13896   4.033   0.859   5.010  0.7605 -0.1068  0.0216
  826MOL0     C13897   4.145   0.847   5.090 -0.0071  0.5043 -0.0812
  826MOL0     O13898   4.464   0.819   5.009 -0.2077 -0.1671 -0.4300
  826MOL0     C13899   4.607   1.007   5.287 -0.3230 -0.1819  0.2025
  826MOL0     C13900   4.727   1.037   5.360  0.5249 -0.1914 -0.3798
  826MOL0     N13901   5.277   1.243   4.964 -0.3197  0.0396 -0.2273
  826MOL0     N13902   5.399   1.269   4.972  0.1010  0.0901 -0.2744
  826MOL0     C13903   6.504   1.508   5.214 -0.1452 -1.0911 -0.1432
  826MOL0     C13904   6.623   1.507   5.141  0.6027  0.9504  0.2588
  826MOL0     C13905   7.066   1.445   5.016  0.3286 -0.1616  0.2366
  826MOL0     C13906   7.005   1.410   4.892  0.7117 -0.2670  0.7810
  826MOL0     C13907   7.078   1.418   4.775 -0.4229 -0.0864  0.1233
  826MOL0     C13908   7.213   1.462   4.779 -0.5669  0.3007 -1.1682
  826MOL0     O13909   7.254   1.467   4.655  0.2779  0.0002  0.1645
  826MOL0     C13910   7.391   1.501   4.635 -0.0449  0.5687 -0.3155
  826MOL0     C13911   7.459   1.366   4.604 -0.0650  0.3166  0.5675
  826MOL0     C13912   7.618   1.396   4.614 -0.4919  1.7004 -0.6317
  826MOL0     C13913   7.694   1.276   4.566 -0.3084  0.1765  0.8496
  826MOL0     C13914   7.830   1.327   4.558  0.0327  0.2406 -0.2719
  826MOL0     C13915   7.940   1.367   4.542 -0.7439  0.3339 -0.5213
  826MOL0     C13916   7.271   1.496   4.907 -0.4700  1.0491  0.5504
  826MOL0     C13917   7.194   1.487   5.024 -0.6479  0.0613  0.0116
  826MOL0     C13918   7.272   1.501   5.150 -0.9541 -0.6496 -0.6602
  826MOL0     H13919   6.817   1.320   5.349 -0.8216  0.0032  0.6246
  826MOL0     H13920   6.604   1.310   5.476 -2.5288 -0.9847 -0.5117
  826MOL0     H13921   6.263   1.337   5.240  1.1577  0.3225 -0.4525
  826MOL0     H13922   6.226   1.503   5.304  0.6615 -0.2234 -1.5014
  826MOL0     H13923   6.178   1.252   5.466  1.1664 -0.8112 -2.3481
  826MOL0     H13924   6.119   1.425   5.486 -1.7490  0.3143 -0.2639
  826MOL0     H13925   6.033   1.263   5.235  0.9769  1.3244 -0.8609
  826MOL0     H13926   5.949   1.245   5.381  0.0147 -1.6275 -1.2275
  826MOL0     H13927   5.924   1.498   5.394  3.4188  0.3913  0.5044
  826MOL0     H13928   6.006   1.516   5.241 -0.6022  1.4770 -0.0218
  826MOL0     H13929   5.857   1.355   5.128 -0.5815  0.0954  0.2573
  826MOL0     H13930   5.806   1.513   5.166 -0.9487 -2.1018 -2.8442
  826MOL0     H13931   5.722   1.287   5.357 -0.7324  1.5329  2.5461
  826MOL0     H13932   5.654   1.444   5.342 -0.3499 -0.1800 -0.3103
  826MOL0     H13933   5.516   1.259   5.248 -0.9601  0.9444 -1.6142
  826MOL0     H13934   5.641   1.232   5.135 -0.8242 -3.6792  2.5649
  826MOL0     H13935   5.491   1.508   5.185  0.0294 -0.9587  0.6576
  826MOL0     H13936   5.601   1.470   5.051  0.0728  1.5680  1.0114
  826MOL0     H13937   5.254   1.498   5.149 -1.1503 -2.3423  1.4810
  826MOL0     H13938   5.003   1.295   4.930  2.0629  0.7033 -0.0127
  826MOL0     H13939   4.994   1.419   5.046  1.7254  0.5919 -0.2619
  826MOL0     H13940   4.892   1.250   5.139  1.5405  2.4380  1.6196
  826MOL0     H13941   4.996   1.123   5.084  1.0405  0.1100 -1.5303
  826MOL0     H13942   5.166   1.153   5.255  0.4229 -0.7828  1.7408
  826MOL0     H13943   5.108   1.313   5.294 -3.8326  0.6468  3.1001
  826MOL0     H13944   5.034   1.187   5.478  1.2791  1.1777 -0.6534
  826MOL0     H13945   4.892   1.223   5.381  0.7317  0.3682  2.5623
  826MOL0     H13946   4.938   0.843   5.177  0.0225  1.0136 -2.5450
  826MOL0     H13947   4.711   0.755   4.948 -0.2151  0.6270  0.3388
  826MOL0     H13948   4.652   0.650   5.082 -2.5906  2.9246  0.6050
  826MOL0     H13949   4.828   0.680   5.058  0.0194  0.5206  0.6156
  826MOL0     H13950   4.304   1.136   5.004  1.3505 -0.9029  3.1494
  826MOL0     H13951   4.116   1.161   4.860  0.0979  0.0936 -1.3508
  826MOL0     H13952   3.780   0.945   4.705 -1.0388 -0.2379  0.5279
  826MOL0     H13953   3.949   0.920   4.670 -0.0381  1.3856  0.0192
  826MOL0     H13954   3.955   0.713   4.793  0.7252  0.9814  2.1219
  826MOL0     H13955   3.805   0.754   4.875  0.6058 -1.2910  0.6546
  826MOL0     H13956   3.818   0.691   4.576  0.7347  0.6017  0.6684
  826MOL0     H13957   3.677   0.711   4.687 -1.2281 -2.1034  1.5730
  826MOL0     H13958   3.742   0.521   4.818  0.1648  0.5572  0.2151
  826MOL0     H13959   3.888   0.501   4.740  0.2380  0.5251 -0.1855
  826MOL0     H13960   3.792   0.437   4.534 -1.0613 -2.4894 -1.4501
  826MOL0     H13961   3.757   0.326   4.656  2.4533 -0.2586 -1.7174
  826MOL0     H13962   3.576   0.375   4.501  1.1147  0.1579  0.0497
  826MOL0     H13963   3.571   0.547   4.537 -1.6787 -1.3452 -0.7426
  826MOL0     H13964   3.492   0.505   4.774 -0.7306 -2.5830  2.5343
  826MOL0     H13965   3.483   0.330   4.732 -0.9806 -0.7148 -1.4652
  826MOL0     H13966   3.283   0.439   4.741  2.2801  1.0497  0.9373
  826MOL0     H13967   3.307   0.395   4.571 -0.3655 -1.1491  0.6208
  826MOL0     H13968   3.943   0.797   5.014 -0.7063  1.8060 -1.5396
  826MOL0     H13969   4.150   0.767   5.163  0.2043  0.7531  0.1789
  826MOL0     H13970   4.521   1.070   5.309 -0.2685 -0.0084 -0.0782
  826MOL0     H13971   4.719   1.096   5.451  1.3145 -2.3260  1.1580
  826MOL0     H13972   6.418   1.571   5.194 -0.9254 -1.5995  1.4037
  826MOL0     H13973   6.627   1.569   5.052 -0.8830 -2.4736 -2.4187
  826MOL0     H13974   6.899   1.390   4.884  0.5067  0.6861  0.8921
  826MOL0     H13975   7.037   1.380   4.681  1.7778 -1.2044 -0.4562
  826MOL0     H13976   7.394   1.570   4.550 -0.7322 -0.6950 -1.4078
  826MOL0     H13977   7.445   1.550   4.716 -0.5108  0.1785  0.2387
  826MOL0     H13978   7.425   1.324   4.509  1.0814 -0.9444  0.6866
  826MOL0     H13979   7.437   1.287   4.676  0.9660 -0.8699 -0.3620
  826MOL0     H13980   7.642   1.488   4.559  1.4111  0.9788 -1.0670
  826MOL0     H13981   7.636   1.419   4.720 -0.1385 -3.7140  0.7508
  826MOL0     H13982   7.647   1.234   4.476  1.9910 -1.5125  0.3447
  826MOL0     H13983   7.691   1.214   4.656 -0.5088  0.8052  1.2883
  826MOL0     H13984   8.042   1.398   4.541 -0.9622  1.1830  0.6287
  826MOL0     H13985   7.378   1.511   4.900 -0.0660 -1.9287 -2.0009
  826MOL0     H13986   7.257   1.408   5.205 -0.4590 -1.0772 -1.2454
  826MOL0     H13987   7.378   1.525   5.136 -0.7700  0.7285  2.2574
  826MOL0     H13988   7.238   1.587   5.209  2.3502 -0.4412  1.1796
  827MOL0     O13989   2.267   9.942   4.045 -0.2290  0.3289  0.0116
  827MOL0     C13990   2.164   9.982   4.102  0.3961  0.5359 -0.1996
  827MOL0     O13991   2.129   9.973   4.234 -0.6788  0.2384 -0.5299
  827MOL0     C13992   2.207   9.908   4.328  0.5894 -0.3941 -0.0784
  827MOL0     C13993   2.328   9.833   4.307 -0.2900 -1.0793  0.5477
  827MOL0     C13994   2.398   9.783   4.415  0.2364  0.4950  0.1254
  827MOL0     C13995   2.362   9.801   4.546  0.5632 -0.5922  0.2124
  827MOL0     O13996   2.443   9.751   4.642 -0.5014  0.3002 -1.3114
  827MOL0     C13997   2.402   9.759   4.782 -0.0117 -0.1726  0.2344
  827MOL0     C13998   2.507   9.671   4.850 -0.5341 -0.0322 -0.3936
  827MOL0     C13999   2.651   9.713   4.845  0.8845  0.5725  0.0377
  827MOL0     C14000   2.720   9.696   4.988 -0.4766 -0.1424  0.1048
  827MOL0     C14001   2.747   9.543   5.008  0.1907 -0.1422  0.2124
  827MOL0     C14002   2.796   9.521   5.149 -0.0432 -0.5223 -0.7294
  827MOL0     C14003   2.831   9.373   5.178  0.1380  0.9847  0.4620
  827MOL0     C14004   2.889   9.354   5.320 -0.1821 -0.6613 -0.3045
  827MOL0     N14005   3.019   9.427   5.338  0.5226 -1.0181  0.1888
  827MOL0     C14006   3.144   9.402   5.294  0.3449  0.5812  0.4122
  827MOL0     C14007   3.228   9.473   5.376 -0.3692 -0.7488 -0.5698
  827MOL0     C14008   3.377   9.454   5.380 -0.7501  0.2202  0.0367
  827MOL0     C14009   3.452   9.578   5.431  0.7232  0.3190  0.3258
  827MOL0     C14010   3.572   9.532   5.515 -0.0254 -0.0309  0.5759
  827MOL0     C14011   3.661   9.638   5.587 -0.1292 -0.1287 -0.2354
  827MOL0     O14012   3.786   9.576   5.605 -0.9169  0.4398  0.4116
  827MOL0     C14013   3.893   9.645   5.658  0.8354 -0.1596  0.3970
  827MOL0     C14014   3.881   9.770   5.723 -0.0685 -0.3335 -0.1181
  827MOL0     C14015   4.001   9.833   5.764  0.7052 -0.3874 -0.3573
  827MOL0     C14016   3.974   9.964   5.827 -0.4582 -0.0892 -0.2015
  827MOL0     C14017   4.130   9.768   5.756  1.0987 -0.0514 -0.5881
  827MOL0     C14018   4.262   9.825   5.787 -0.0496 -0.3129 -0.5164
  827MOL0     O14019   4.373   9.767   5.744 -1.1219 -0.2785 -0.6992
  827MOL0     C14020   4.499   9.797   5.792  1.0906  0.0832  0.3001
  827MOL0     C14021   4.599   9.734   5.718 -0.4201  0.9129  0.1390
  827MOL0     C14022   4.736   9.746   5.740 -0.5770 -0.0289 -0.2230
  827MOL0     C14023   4.767   9.830   5.850  0.0735 -0.1265  0.8902
  827MOL0     O14024   4.894   9.860   5.883 -0.1290  0.0600  0.6520
  827MOL0     C14025   5.002   9.821   5.791 -0.4091  0.3732 -0.4592
  827MOL0     C14026   5.130   9.818   5.877  0.5030  0.4890  0.1779
  827MOL0     C14027   5.244   9.797   5.783  0.4539 -0.5699  0.8225
  827MOL0     C14028   5.381   9.775   5.841  0.0398  0.2827 -0.7236
  827MOL0     C14029   5.475   9.746   5.732 -0.6964  1.4902  0.2986
  827MOL0     C14030   5.616   9.705   5.795 -0.6298  0.6091 -0.0097
  827MOL0     C14031   5.609   9.574   5.878  0.2418  0.6280 -0.6919
  827MOL0     C14032   5.723   9.477   5.849 -0.1481  0.1997 -0.3407
  827MOL0    Cl14033   5.883   9.548   5.886  0.0385 -0.2974  0.3416
  827MOL0     C14034   4.672   9.887   5.936 -0.2134  0.3675 -0.0191
  827MOL0     C14035   4.537   9.867   5.904 -0.4444 -0.1910  0.8160
  827MOL0     O14036   4.257   9.944   5.833  0.1419  0.4483 -0.4965
  827MOL0     C14037   4.129   9.638   5.706  0.0635  0.1733  0.2265
  827MOL0     C14038   4.017   9.575   5.650 -0.8070  0.4501 -0.4888
  827MOL0     N14039   3.158   9.560   5.454 -0.0417  0.2606  0.4738
  827MOL0     N14040   3.033   9.520   5.437 -0.2072 -1.2348  0.2110
  827MOL0     C14041   2.248   9.884   4.568  0.4153 -0.0742 -0.8725
  827MOL0     C14042   2.174   9.929   4.462  0.3036 -0.6590  0.2060
  827MOL0     C14043   2.072  10.045   4.009  0.5233  0.1710 -0.1082
  827MOL0     C14044   1.993  10.166   4.061  0.0977  0.6441  0.1265
  827MOL0     C14045   1.907  10.240   3.986 -0.5960  1.0251 -0.4630
  827MOL0     C14046   1.881  10.205   3.852 -0.5965 -0.0264 -0.8588
  827MOL0     O14047   1.787  10.279   3.780 -0.1471 -0.2279 -0.0167
  827MOL0     C14048   1.751  10.248   3.648  0.2950  0.1007 -0.3449
  827MOL0     C14049   1.642  10.142   3.659  0.3236 -0.1953 -0.4213
  827MOL0     C14050   1.575  10.105   3.527  0.1064 -0.6263 -0.1219
  827MOL0     C14051   1.450  10.018   3.548 -0.4078 -0.2895  0.0725
  827MOL0     C14052   1.495   9.884   3.595 -0.3699  0.5788 -1.3174
  827MOL0     C14053   1.518   9.775   3.646 -0.0109 -0.7035  0.3193
  827MOL0     C14054   1.959  10.100   3.797 -0.5798 -0.3297  0.3087
  827MOL0     C14055   2.054  10.021   3.871 -0.6826  0.1224  0.5211
  827MOL0     C14056   2.149   9.933   3.784 -0.7977  0.8005 -0.7103
  827MOL0     H14057   2.375   9.801   4.214  1.9218 -1.2825  1.6660
  827MOL0     H14058   2.483   9.718   4.398 -0.2298  0.0218 -0.5042
  827MOL0     H14059   2.312   9.703   4.807  0.0669 -1.1804 -1.5389
  827MOL0     H14060   2.387   9.863   4.811 -1.2040 -0.5335  1.0116
  827MOL0     H14061   2.477   9.666   4.955  0.2647  2.0425 -0.0090
  827MOL0     H14062   2.494   9.571   4.810  2.2744 -0.6245 -0.0827
  827MOL0     H14063   2.707   9.653   4.773  0.8647  1.2293 -0.5380
  827MOL0     H14064   2.652   9.818   4.813  3.4248  0.6754  0.2597
  827MOL0     H14065   2.813   9.752   4.978 -1.4663  1.7291  1.0690
  827MOL0     H14066   2.656   9.736   5.066  2.1947  2.4708  1.1590
  827MOL0     H14067   2.826   9.499   4.947  0.3283  0.3771  0.0113
  827MOL0     H14068   2.662   9.476   4.992 -0.3342  0.1010  1.7666
  827MOL0     H14069   2.889   9.577   5.165 -0.5199  0.9754 -2.7418
  827MOL0     H14070   2.728   9.563   5.223  0.5631  1.4133 -1.2252
  827MOL0     H14071   2.902   9.342   5.101  2.5954 -0.0710  2.9909
  827MOL0     H14072   2.734   9.322   5.167 -0.2043  1.8659 -0.7881
  827MOL0     H14073   2.821   9.380   5.402  0.7738 -0.1437  0.3358
  827MOL0     H14074   2.911   9.248   5.336 -3.1271 -1.6086 -1.7253
  827MOL0     H14075   3.185   9.334   5.220  0.0796 -0.2622  1.0143
  827MOL0     H14076   3.424   9.417   5.288 -0.3945 -3.2316  1.4540
  827MOL0     H14077   3.379   9.367   5.447  2.7225  1.8576  2.3563
  827MOL0     H14078   3.475   9.647   5.349 -1.3656  0.3029 -0.3283
  827MOL0     H14079   3.383   9.634   5.495 -0.9579 -0.7735 -0.4683
  827MOL0     H14080   3.535   9.465   5.593 -2.4194 -0.4553 -0.8068
  827MOL0     H14081   3.636   9.472   5.450  0.5649 -0.5785  1.6451
  827MOL0     H14082   3.676   9.730   5.529  0.4509 -1.9994 -3.3079
  827MOL0     H14083   3.622   9.666   5.685  2.0956 -2.0620  1.3130
  827MOL0     H14084   3.786   9.822   5.723  1.1358  2.0587  1.2923
  827MOL0     H14085   4.033  10.044   5.781 -0.4874  0.6322  0.9906
  827MOL0     H14086   4.000   9.949   5.932 -0.1750 -1.4848 -0.4455
  827MOL0     H14087   3.871   9.997   5.818  0.0075  0.9630 -2.3801
  827MOL0     H14088   4.567   9.682   5.628 -0.9871  3.1046 -1.0196
  827MOL0     H14089   4.812   9.695   5.680  1.0798 -0.1675  1.8565
  827MOL0     H14090   5.002   9.719   5.753  1.2207  0.4719 -0.8011
  827MOL0     H14091   5.010   9.885   5.703 -0.3763  2.1828  0.7897
  827MOL0     H14092   5.143   9.915   5.926  0.7753 -0.3691  1.8945
  827MOL0     H14093   5.134   9.738   5.951  1.4926 -2.1523 -2.5574
  827MOL0     H14094   5.246   9.877   5.709  1.2511 -1.9887 -0.7696
  827MOL0     H14095   5.223   9.705   5.728  1.7138 -0.0925 -0.5342
  827MOL0     H14096   5.366   9.698   5.917  0.3790  4.3600  3.9462
  827MOL0     H14097   5.407   9.865   5.897  0.8398 -0.7594  0.6774
  827MOL0     H14098   5.444   9.662   5.668 -0.1794  0.4158  1.4150
  827MOL0     H14099   5.490   9.827   5.661  1.0873  0.5630 -0.4483
  827MOL0     H14100   5.651   9.789   5.855  0.5246 -0.2887  0.6206
  827MOL0     H14101   5.686   9.690   5.712  1.3935 -2.1993  1.9883
  827MOL0     H14102   5.518   9.524   5.844 -0.9350  3.2443 -1.6360
  827MOL0     H14103   5.586   9.596   5.982 -1.0375 -1.9643 -0.3560
  827MOL0     H14104   5.714   9.434   5.749  0.7215  1.0856 -0.8192
  827MOL0     H14105   5.724   9.388   5.913  0.1913 -0.8522 -1.7814
  827MOL0     H14106   4.707   9.956   6.013 -0.4420  0.2251  0.2163
  827MOL0     H14107   4.459   9.913   5.963 -0.5398 -1.9680  2.1381
  827MOL0     H14108   4.221   9.581   5.700  0.2086  0.5027 -1.0294
  827MOL0     H14109   4.007   9.482   5.596 -0.0764  1.3346 -2.2287
  827MOL0     H14110   2.216   9.908   4.669  0.4501  0.1172 -0.9071
  827MOL0     H14111   2.080   9.979   4.484  0.1127 -1.6230  1.8245
  827MOL0     H14112   2.012  10.196   4.163  1.0998  4.7504 -1.0911
  827MOL0     H14113   1.845  10.320   4.027 -0.7982  0.6846 -0.1059
  827MOL0     H14114   1.706  10.337   3.604  0.5849 -0.1520 -1.1643
  827MOL0     H14115   1.838  10.213   3.591  1.6643  1.2664  0.9532
  827MOL0     H14116   1.560  10.175   3.724  0.6363 -1.3630  0.5993
  827MOL0     H14117   1.689  10.052   3.700  3.8917  1.8077  0.3066
  827MOL0     H14118   1.551  10.200   3.479  2.1151  1.2805  2.3879
  827MOL0     H14119   1.646  10.049   3.465 -0.3913 -0.1253 -1.1792
  827MOL0     H14120   1.401  10.001   3.452  2.2184  0.6188 -1.5507
  827MOL0     H14121   1.383  10.075   3.613  0.6886  0.6296  0.4392
  827MOL0     H14122   1.551   9.688   3.699  1.4407 -0.6744 -0.4835
  827MOL0     H14123   1.964  10.070   3.693  0.8562 -1.2424  0.6045
  827MOL0     H14124   2.213   9.858   3.831  0.5822  0.5569 -2.8425
  827MOL0     H14125   2.082   9.877   3.717 -2.6341  1.0998  0.7837
  827MOL0     H14126   2.219   9.997   3.730 -1.5015  2.6216  0.4347
  828MOL0     O14127   1.209   5.276   9.783  0.7057  0.2456 -0.9043
  828MOL0     C14128   1.154   5.335   9.876  0.0901 -0.3106 -0.5313
  828MOL0     O14129   1.212   5.368   9.986 -0.4461  0.1295 -0.8544
  828MOL0     C14130   1.342   5.340  10.020  0.1074 -0.2655  0.7469
  828MOL0     C14131   1.389   5.204  10.016  0.3571  0.3727  0.3413
  828MOL0     C14132   1.514   5.167  10.055 -0.3427  0.3782  0.1956
  828MOL0     C14133   1.604   5.266  10.097 -0.4010  0.0574 -0.3237
  828MOL0     O14134   1.737   5.258  10.115 -0.4619 -0.6245  0.1400
  828MOL0     C14135   1.806   5.151  10.046  0.0982 -0.0469 -0.5870
  828MOL0     C14136   1.953   5.188  10.026 -0.1956 -0.0777 -0.6160
  828MOL0     C14137   2.057   5.080  10.055 -0.3283  0.9982 -0.5031
  828MOL0     C14138   2.054   4.963   9.952  0.1349 -0.0020 -0.1157
  828MOL0     C14139   2.125   4.831   9.994  0.2446 -0.7721 -0.0813
  828MOL0     C14140   2.269   4.858  10.054 -0.7790 -0.3896 -0.2438
  828MOL0     C14141   2.343   4.726  10.085 -0.5439 -0.2089 -0.0065
  828MOL0     C14142   2.364   4.709  10.241 -0.7423 -0.2932  0.2419
  828MOL0     N14143   2.239   4.654  10.297  0.4130  0.2838 -0.6209
  828MOL0     C14144   2.139   4.725  10.346 -0.6323  0.0046  0.0582
  828MOL0     C14145   2.050   4.636  10.399  0.2455 -1.0368  0.9220
  828MOL0     C14146   1.912   4.671  10.450 -0.0780  0.3156 -0.3648
  828MOL0     C14147   1.903   4.631  10.590  0.6300 -0.6224 -0.3334
  828MOL0     C14148   1.774   4.662  10.669 -0.1715  0.3850  1.3941
  828MOL0     C14149   1.643   4.642  10.590  0.1568  0.6659  0.0534
  828MOL0     O14150   1.645   4.503  10.555  0.2044 -0.0428  0.0152
  828MOL0     C14151   1.564   4.472  10.442 -0.9010 -0.1941 -0.3821
  828MOL0     C14152   1.440   4.533  10.422  0.3196 -0.3031  0.5706
  828MOL0     C14153   1.363   4.514  10.308 -0.2423 -0.3004  0.5370
  828MOL0     C14154   1.238   4.606  10.298 -0.0890 -0.3037  0.3314
  828MOL0     C14155   1.412   4.436  10.202  0.1123  0.8487 -1.3659
  828MOL0     C14156   1.347   4.425  10.071 -0.7500  0.3009  0.0724
  828MOL0     O14157   1.412   4.341   9.984 -0.5162  0.0729 -0.5129
  828MOL0     C14158   1.350   4.305   9.858  0.2763 -0.1298 -0.5563
  828MOL0     C14159   1.444   4.242   9.774  0.4322  0.1015 -0.2617
  828MOL0     C14160   1.415   4.214   9.645 -0.2745  0.7010 -0.4547
  828MOL0     C14161   1.287   4.232   9.594 -0.0785  0.2553 -0.2204
  828MOL0     O14162   1.242   4.216   9.464  0.4156  0.8448 -0.3171
  828MOL0     C14163   1.343   4.172   9.375  0.4839  0.4684 -0.5505
  828MOL0     C14164   1.267   4.157   9.241  0.3616  0.2614 -0.4564
  828MOL0     C14165   1.166   4.045   9.229 -0.2392  0.0902  0.7966
  828MOL0     C14166   1.137   3.994   9.079 -0.0092  0.0107 -0.9725
  828MOL0     C14167   1.080   3.853   9.082 -0.1390 -0.2682 -0.3293
  828MOL0     C14168   1.041   3.803   8.945 -0.0560 -0.2881 -0.1903
  828MOL0     C14169   1.155   3.761   8.865 -0.0028  0.3909  0.0380
  828MOL0     C14170   1.111   3.660   8.759 -0.3585  0.4782  0.6254
  828MOL0    Cl14171   1.238   3.632   8.641 -0.1359 -0.2722 -0.1107
  828MOL0     C14172   1.194   4.286   9.677 -0.0515 -0.5804  0.1230
  828MOL0     C14173   1.216   4.319   9.808 -0.5930 -0.1448 -1.2459
  828MOL0     O14174   1.232   4.467  10.057  0.0676  0.6021 -0.7716
  828MOL0     C14175   1.527   4.356  10.237  0.5839  0.4902  0.2778
  828MOL0     C14176   1.602   4.375  10.354  0.5480 -0.1269  0.4235
  828MOL0     N14177   2.101   4.509  10.373 -0.7017  0.2595 -0.3714
  828MOL0     N14178   2.220   4.518  10.321  0.3241  0.3996  0.4296
  828MOL0     C14179   1.559   5.398  10.118  0.4485  0.2429 -0.3612
  828MOL0     C14180   1.423   5.435  10.082 -0.6478 -0.0865  0.0465
  828MOL0     C14181   1.005   5.366   9.872  0.3337  0.0684  0.2840
  828MOL0     C14182   0.921   5.253   9.826 -0.1841 -1.1897  0.6583
  828MOL0     C14183   0.779   5.269   9.829  0.3060  0.8791  0.0834
  828MOL0     C14184   0.718   5.396   9.849 -0.1371 -0.4275 -0.3807
  828MOL0     O14185   0.578   5.393   9.836 -0.3939  0.0548 -0.2488
  828MOL0     C14186   0.503   5.520   9.851 -0.1906  0.5159  0.1434
  828MOL0     C14187   0.512   5.607   9.724  0.6487 -0.6188 -0.4862
  828MOL0     C14188   0.429   5.733   9.766 -0.5009  0.0054  0.7890
  828MOL0     C14189   0.402   5.827   9.639  0.1033 -0.4650  0.2067
  828MOL0     C14190   0.528   5.848   9.568 -0.7200  0.7803  0.0546
  828MOL0     C14191   0.633   5.855   9.514 -0.2331  0.0275 -0.7409
  828MOL0     C14192   0.805   5.508   9.880  0.4263  0.3874 -0.3722
  828MOL0     C14193   0.942   5.493   9.896 -0.3989 -0.0915  0.6204
  828MOL0     C14194   1.019   5.616   9.928 -0.3346  0.9977 -1.3202
  828MOL0     H14195   1.320   5.131   9.975  1.8236 -0.2286 -1.2018
  828MOL0     H14196   1.546   5.063  10.052 -0.6349  0.2434  1.3997
  828MOL0     H14197   1.758   5.149   9.948 -1.1535  0.9756 -0.0319
  828MOL0     H14198   1.792   5.056  10.097  0.3120  0.3117  0.1527
  828MOL0     H14199   1.968   5.235   9.928 -1.4243  5.5879  1.5496
  828MOL0     H14200   1.987   5.260  10.101  1.0375 -1.6772  0.4415
  828MOL0     H14201   2.158   5.119  10.041 -0.5028  1.2321 -1.1261
  828MOL0     H14202   2.049   5.038  10.156  0.5791  2.4210  0.1945
  828MOL0     H14203   1.952   4.945   9.918  0.4779  1.5846 -2.1807
  828MOL0     H14204   2.108   5.000   9.864 -1.9449 -0.3845 -1.6221
  828MOL0     H14205   2.144   4.770   9.905  2.6446  0.2997 -0.3770
  828MOL0     H14206   2.066   4.773  10.066 -2.2817  2.4728  0.7101
  828MOL0     H14207   2.320   4.919   9.979 -2.6215  1.0909 -0.3606
  828MOL0     H14208   2.257   4.909  10.150 -1.5786 -1.5313  0.2892
  828MOL0     H14209   2.446   4.726  10.048 -0.9703 -0.6998 -1.2510
  828MOL0     H14210   2.282   4.645  10.044 -3.0403  2.3607 -1.7461
  828MOL0     H14211   2.436   4.632  10.269  0.3293  0.3315 -0.7030
  828MOL0     H14212   2.408   4.799  10.285  1.7976 -1.9917  1.4020
  828MOL0     H14213   2.144   4.833  10.333  0.2627 -0.3701 -3.8132
  828MOL0     H14214   1.834   4.613  10.398  0.1579 -0.8297  0.5041
  828MOL0     H14215   1.904   4.780  10.442  1.1043  0.3155 -1.9115
  828MOL0     H14216   1.916   4.522  10.587 -0.3075 -0.8481  1.9024
  828MOL0     H14217   1.989   4.671  10.645  0.1940 -0.4909  0.2684
  828MOL0     H14218   1.776   4.603  10.761 -0.1655 -1.5361  0.2139
  828MOL0     H14219   1.785   4.766  10.699  0.4752  0.2264  1.7245
  828MOL0     H14220   1.558   4.678  10.648  1.6386  2.0102  1.4756
  828MOL0     H14221   1.647   4.710  10.504 -0.6727 -0.5830 -1.0130
  828MOL0     H14222   1.410   4.600  10.503  1.7392  1.6341 -0.4344
  828MOL0     H14223   1.259   4.686  10.369  0.1869  1.0898 -1.2400
  828MOL0     H14224   1.145   4.551  10.312  0.2998 -1.2900 -0.7665
  828MOL0     H14225   1.222   4.663  10.206  2.1322  2.3982  1.4709
  828MOL0     H14226   1.543   4.220   9.815  1.2184 -1.2804 -2.6916
  828MOL0     H14227   1.493   4.158   9.594 -1.3003 -4.5921  3.0459
  828MOL0     H14228   1.413   4.255   9.363 -0.4300  1.7650  2.2610
  828MOL0     H14229   1.391   4.080   9.409 -1.3327  0.6068  2.7547
  828MOL0     H14230   1.204   4.245   9.226 -0.8017 -0.2762  1.0241
  828MOL0     H14231   1.353   4.151   9.173 -0.3773 -1.8855 -1.3027
  828MOL0     H14232   1.075   4.081   9.277 -0.0474  1.3702  0.2488
  828MOL0     H14233   1.198   3.955   9.282 -0.2102 -0.8354 -0.7178
  828MOL0     H14234   1.232   4.002   9.025  0.1577  0.3774 -0.6247
  828MOL0     H14235   1.072   4.065   9.027 -1.6735 -0.9075 -0.2233
  828MOL0     H14236   1.151   3.785   9.129  2.6387  2.6249 -0.0401
  828MOL0     H14237   0.995   3.857   9.150  0.9797 -3.0529  1.4411
  828MOL0     H14238   0.983   3.879   8.892  0.9753  1.3537  0.9602
  828MOL0     H14239   0.978   3.715   8.965  1.2274 -1.4455 -1.0233
  828MOL0     H14240   1.232   3.721   8.932  1.0635  0.8159 -0.9109
  828MOL0     H14241   1.207   3.845   8.819 -0.6946  0.8707  0.1253
  828MOL0     H14242   1.029   3.706   8.703  0.9320 -0.5667 -2.2866
  828MOL0     H14243   1.077   3.562   8.796  2.6553 -1.2853 -0.9020
  828MOL0     H14244   1.104   4.321   9.629  0.0246  1.7150  1.5115
  828MOL0     H14245   1.136   4.357   9.870  0.5773 -0.2972  0.4451
  828MOL0     H14246   1.552   4.277  10.167 -1.9741 -2.1621  2.1202
  828MOL0     H14247   1.697   4.323  10.366  0.6304 -0.3592 -1.0496
  828MOL0     H14248   1.630   5.470  10.156  1.2003  0.1316 -1.5121
  828MOL0     H14249   1.404   5.542  10.087  1.3345  0.3423 -0.4624
  828MOL0     H14250   0.978   5.162   9.807  0.7536 -0.7538  1.3061
  828MOL0     H14251   0.714   5.186   9.806 -0.8111  1.5452  0.7457
  828MOL0     H14252   0.398   5.500   9.873 -0.6697  2.7222  0.1459
  828MOL0     H14253   0.543   5.571   9.939 -0.1232  0.7991 -0.0503
  828MOL0     H14254   0.466   5.557   9.638  0.1392 -2.2787  0.7102
  828MOL0     H14255   0.614   5.632   9.693  0.1228  2.8439  0.1401
  828MOL0     H14256   0.333   5.709   9.812 -0.3506  0.7506  1.4943
  828MOL0     H14257   0.492   5.791   9.833  0.7783  0.2817 -0.6163
  828MOL0     H14258   0.343   5.915   9.665 -0.4197 -1.3376  2.1820
  828MOL0     H14259   0.333   5.785   9.564 -0.7906 -0.4618  1.0028
  828MOL0     H14260   0.708   5.841   9.438 -0.0922 -1.4914 -0.3499
  828MOL0     H14261   0.778   5.613   9.881 -0.7555  0.1178 -1.6628
  828MOL0     H14262   1.043   5.611  10.035 -2.6830  2.1823 -0.6578
  828MOL0     H14263   1.102   5.637   9.860  0.8533 -0.1785 -0.2939
  828MOL0     H14264   0.954   5.703   9.912  1.6629  2.1717 -3.6055
  829MOL0     O14265   0.652   4.507  10.623 -0.4620  0.3774  0.6405
  829MOL0     C14266   0.743   4.434  10.658 -0.1373 -0.2788  0.0085
  829MOL0     O14267   0.733   4.297  10.674 -0.0177  0.6432 -0.7898
  829MOL0     C14268   0.622   4.228  10.636  0.1533  0.4265 -0.6507
  829MOL0     C14269   0.656   4.109  10.559 -0.5120  0.0226  0.0600
  829MOL0     C14270   0.558   4.029  10.511 -0.0773 -0.0154 -0.3331
  829MOL0     C14271   0.425   4.059  10.543  0.0578  0.9586  0.5918
  829MOL0     O14272   0.331   3.974  10.486 -0.0011 -0.1580 -0.6222
  829MOL0     C14273   0.213   4.035  10.429 -0.0982  0.4974 -1.2764
  829MOL0     C14274   0.119   3.930  10.366 -0.2623 -0.1538  0.5487
  829MOL0     C14275   0.061   3.835  10.469 -0.3893  0.2189  0.2030
  829MOL0     C14276  -0.023   3.901  10.569  0.1735  0.8040  0.9311
  829MOL0     C14277  -0.130   3.804  10.634 -0.8965 -0.3944 -0.7756
  829MOL0     C14278  -0.248   3.773  10.539  0.2174 -0.2379 -0.4284
  829MOL0     C14279  -0.330   3.898  10.480  0.7295 -0.3694 -1.2765
  829MOL0     C14280  -0.434   3.972  10.569 -0.4276 -0.1784  0.4839
  829MOL0     N14281  -0.365   4.071  10.656  0.0753  0.2637 -0.5339
  829MOL0     C14282  -0.300   4.190  10.612 -0.1001  0.7649  0.7050
  829MOL0     C14283  -0.287   4.257  10.732  0.5138  1.1746 -0.8882
  829MOL0     C14284  -0.217   4.388  10.734 -0.1618 -0.1792  0.1898
  829MOL0     C14285  -0.102   4.385  10.835  0.0136  0.0964  0.0336
  829MOL0     C14286   0.008   4.281  10.791 -0.6828  0.3877  0.7270
  829MOL0     C14287   0.121   4.272  10.891 -0.5595 -1.2546 -0.0111
  829MOL0     O14288   0.208   4.388  10.876  0.2488  0.2969  0.7261
  829MOL0     C14289   0.302   4.402  10.974  0.7985 -0.5064  0.1200
  829MOL0     C14290   0.406   4.491  10.937 -0.1922 -0.5106 -0.4186
  829MOL0     C14291   0.519   4.516  11.016 -0.1499  0.4817  0.1460
  829MOL0     C14292   0.623   4.609  10.964  0.8808 -1.0440  0.1288
  829MOL0     C14293   0.526   4.448  11.141  0.4299  0.6394  0.6899
  829MOL0     C14294   0.619   4.473  11.248 -0.0684 -0.3138  0.0448
  829MOL0     O14295   0.618   4.388  11.352 -0.6072 -0.4248  0.4073
  829MOL0     C14296   0.697   4.404  11.457 -0.3359  0.4484 -0.1338
  829MOL0     C14297   0.836   4.424  11.453 -0.1771  0.2808 -0.6358
  829MOL0     C14298   0.909   4.440  11.571 -0.2098  0.1503 -0.0226
  829MOL0     C14299   0.849   4.436  11.693  0.2624  0.1480 -0.0291
  829MOL0     O14300   0.920   4.460  11.808 -0.2735 -0.0766  0.1170
  829MOL0     C14301   0.858   4.504  11.931  0.2936  0.1606  0.2777
  829MOL0     C14302   0.978   4.557  12.013  0.1197 -1.0750  0.6845
  829MOL0     C14303   0.943   4.591  12.157  0.2756 -0.3255  0.0124
  829MOL0     C14304   0.952   4.470  12.248 -0.1669  0.4808 -0.7766
  829MOL0     C14305   0.894   4.500  12.386  0.1433  0.1304 -0.0654
  829MOL0     C14306   0.977   4.548  12.504  0.1199 -0.2343  0.0163
  829MOL0     C14307   0.882   4.554  12.631 -0.3609  0.4896  0.2341
  829MOL0     C14308   0.955   4.593  12.766 -0.9112 -0.5789  0.6217
  829MOL0    Cl14309   0.940   4.776  12.776  0.5494  0.0427  0.0741
  829MOL0     C14310   0.708   4.409  11.695  0.2455  0.1497 -0.2043
  829MOL0     C14311   0.634   4.391  11.585 -0.0238  0.0115  0.3074
  829MOL0     O14312   0.707   4.563  11.234 -0.4214  0.2322  0.3019
  829MOL0     C14313   0.418   4.355  11.177 -0.2321  0.4881 -0.2661
  829MOL0     C14314   0.307   4.334  11.098 -0.1862 -0.6001 -0.8588
  829MOL0     N14315  -0.344   4.189  10.833  0.5390 -0.2521  0.0066
  829MOL0     N14316  -0.378   4.070  10.792  0.4013  1.0254  0.1087
  829MOL0     C14317   0.391   4.178  10.610 -1.0890 -0.9958  0.0211
  829MOL0     C14318   0.484   4.255  10.668  0.1898 -0.5209 -0.1727
  829MOL0     C14319   0.873   4.487  10.689 -0.2647  0.0031 -0.2711
  829MOL0     C14320   0.917   4.600  10.610 -0.1585 -0.0920  0.0416
  829MOL0     C14321   1.030   4.670  10.637  0.0196  0.2696 -0.0170
  829MOL0     C14322   1.107   4.628  10.733  0.6870  0.6023  0.5732
  829MOL0     O14323   1.215   4.701  10.754 -0.2038 -1.1155 -0.0894
  829MOL0     C14324   1.307   4.677  10.866  0.3965 -0.7654  0.2908
  829MOL0     C14325   1.288   4.782  10.976  0.1547 -0.3384 -0.1977
  829MOL0     C14326   1.379   4.772  11.093 -0.4577 -0.8416 -0.2009
  829MOL0     C14327   1.365   4.878  11.199 -0.1445 -0.2459  0.4544
  829MOL0     C14328   1.441   4.997  11.163 -0.2299 -0.0104  0.9342
  829MOL0     C14329   1.485   5.102  11.118 -0.1049 -0.3321 -0.0301
  829MOL0     C14330   1.073   4.506  10.808 -0.3239 -0.2520 -0.1304
  829MOL0     C14331   0.954   4.439  10.794  0.2496  0.4328  0.6445
  829MOL0     C14332   0.911   4.333  10.884 -0.8520 -0.8439 -0.2610
  829MOL0     H14333   0.757   4.092  10.525 -1.4661 -1.0449 -2.5186
  829MOL0     H14334   0.585   3.945  10.448  1.5339  1.4834 -1.7566
  829MOL0     H14335   0.258   4.091  10.346 -0.7775  2.1859 -0.5385
  829MOL0     H14336   0.163   4.104  10.497  2.7334 -0.2179  1.7807
  829MOL0     H14337   0.041   3.993  10.323  0.3697  0.5254  0.3843
  829MOL0     H14338   0.167   3.886  10.279  3.5278  2.5498  1.0384
  829MOL0     H14339   0.004   3.769  10.403 -0.0577  0.6102 -0.4859
  829MOL0     H14340   0.133   3.771  10.521 -1.9071 -0.3963  1.6319
  829MOL0     H14341   0.047   3.931  10.648  1.7885 -0.9832  0.2590
  829MOL0     H14342  -0.074   3.990  10.532 -0.1561 -0.2381 -1.2776
  829MOL0     H14343  -0.157   3.842  10.733  2.4146  2.3293 -0.7219
  829MOL0     H14344  -0.082   3.709  10.658 -2.8758 -0.9086  1.5243
  829MOL0     H14345  -0.210   3.713  10.456 -0.9550  1.4341 -2.2495
  829MOL0     H14346  -0.317   3.721  10.606  2.5667 -0.6409  1.8788
  829MOL0     H14347  -0.388   3.852  10.400  0.4727  1.2894 -2.0895
  829MOL0     H14348  -0.266   3.964  10.420  1.8368 -2.0355 -1.9870
  829MOL0     H14349  -0.496   4.031  10.501  1.0968  2.0635  0.9276
  829MOL0     H14350  -0.500   3.903  10.622  0.8783  0.4597  3.0803
  829MOL0     H14351  -0.269   4.225  10.514 -1.7488 -1.7110 -0.8289
  829MOL0     H14352  -0.291   4.462  10.766  0.3555 -0.3851  1.9651
  829MOL0     H14353  -0.177   4.414  10.636 -0.7244  1.8000  0.4366
  829MOL0     H14354  -0.060   4.486  10.832 -0.5009  0.2944 -0.7486
  829MOL0     H14355  -0.123   4.376  10.942 -0.0195 -0.7624 -0.0379
  829MOL0     H14356  -0.027   4.178  10.780  2.6768 -0.7451 -0.8850
  829MOL0     H14357   0.049   4.302  10.691 -0.3708  0.5828  0.8918
  829MOL0     H14358   0.074   4.278  10.990 -1.5322  3.7725 -0.4901
  829MOL0     H14359   0.182   4.181  10.886  0.1968 -0.6768 -2.6710
  829MOL0     H14360   0.403   4.538  10.839  3.2480  1.8806  0.4328
  829MOL0     H14361   0.605   4.607  10.856  0.7476 -4.8224  0.1066
  829MOL0     H14362   0.725   4.574  10.981  0.6222 -0.7669  2.6196
  829MOL0     H14363   0.623   4.711  11.004  2.2742 -2.0948  3.0636
  829MOL0     H14364   0.888   4.432  11.359  0.8340 -0.4977 -0.1628
  829MOL0     H14365   1.013   4.470  11.559  0.0398 -0.0318  1.4679
  829MOL0     H14366   0.780   4.579  11.913  1.2787  1.1843  0.1940
  829MOL0     H14367   0.807   4.422  11.983 -3.1012  0.5341 -2.1485
  829MOL0     H14368   1.053   4.478  12.017  0.3341 -0.9577 -0.6318
  829MOL0     H14369   1.015   4.647  11.963  1.3711 -0.9125  1.8385
  829MOL0     H14370   0.838   4.621  12.163  0.5117  0.3875  0.6470
  829MOL0     H14371   1.010   4.673  12.187  2.8939 -1.7099 -1.6337
  829MOL0     H14372   1.055   4.440  12.269 -1.3598 -1.4154  3.7119
  829MOL0     H14373   0.889   4.395  12.201 -4.4712  3.0057  0.3535
  829MOL0     H14374   0.823   4.583  12.382  0.1456  0.0851 -1.9527
  829MOL0     H14375   0.846   4.408  12.421  0.9010 -0.2024  0.1130
  829MOL0     H14376   1.000   4.653  12.482  1.8642 -0.9607 -1.9839
  829MOL0     H14377   1.074   4.498  12.513  0.1245 -1.0138 -3.0246
  829MOL0     H14378   0.829   4.459  12.641  3.0512 -1.9560 -2.3956
  829MOL0     H14379   0.812   4.631  12.599 -1.3603 -0.6287 -0.3544
  829MOL0     H14380   1.063   4.572  12.758 -0.2306  2.7413 -0.2503
  829MOL0     H14381   0.901   4.550  12.850 -1.8484 -0.3040  0.1661
  829MOL0     H14382   0.654   4.416  11.788 -1.4361 -2.6369 -0.8334
  829MOL0     H14383   0.526   4.385  11.586 -0.0771  0.7744 -0.4112
  829MOL0     H14384   0.419   4.306  11.274 -2.5560  1.6970  0.4605
  829MOL0     H14385   0.227   4.266  11.126  0.9272 -0.7868  2.2075
  829MOL0     H14386   0.287   4.206  10.627 -0.5040  2.8145 -1.7237
  829MOL0     H14387   0.456   4.343  10.726 -3.3464 -0.5841 -1.5268
  829MOL0     H14388   0.850   4.649  10.539  1.2397  1.8191 -0.0253
  829MOL0     H14389   1.056   4.759  10.582 -3.4187  1.1766 -0.4328
  829MOL0     H14390   1.297   4.578  10.910 -0.7112 -1.9243 -2.4218
  829MOL0     H14391   1.404   4.694  10.817  0.1941  1.0797  0.4366
  829MOL0     H14392   1.181   4.783  11.002 -0.0974  1.9237 -1.1481
  829MOL0     H14393   1.315   4.874  10.925  6.0396 -2.4744 -1.7169
  829MOL0     H14394   1.343   4.679  11.136  1.1523  0.1223  3.7021
  829MOL0     H14395   1.484   4.762  11.065 -0.6760  1.2029 -2.0304
  829MOL0     H14396   1.412   4.837  11.289 -0.3766 -1.3281  0.1019
  829MOL0     H14397   1.258   4.892  11.220 -0.4698  0.2867 -1.3991
  829MOL0     H14398   1.533   5.192  11.086 -3.3837  1.4026 -0.5388
  829MOL0     H14399   1.132   4.476  10.894  0.1398  2.3115  0.5266
  829MOL0     H14400   0.973   4.340  10.974 -2.4058  1.8314  0.7219
  829MOL0     H14401   0.816   4.369  10.925  0.9858  0.2243  3.6177
  829MOL0     H14402   0.904   4.234  10.839 -0.5158 -1.0335  0.0882
  830MOL0     O14403   8.078   2.616   0.746  1.5414  0.2053  0.8223
  830MOL0     C14404   8.119   2.500   0.729  0.8602  0.3837 -0.6547
  830MOL0     O14405   8.044   2.393   0.700  0.6595  0.6087 -0.0284
  830MOL0     C14406   7.913   2.416   0.657  0.0554  0.6545  0.0263
  830MOL0     C14407   7.866   2.374   0.522  0.2102 -0.2033 -0.2134
  830MOL0     C14408   7.734   2.409   0.475 -0.6382  0.5728 -0.7065
  830MOL0     C14409   7.636   2.455   0.561 -0.0035 -0.2441  0.2217
  830MOL0     O14410   7.502   2.468   0.535  0.0295 -0.2034  0.1231
  830MOL0     C14411   7.479   2.490   0.390  0.1555 -0.7396 -0.3500
  830MOL0     C14412   7.353   2.566   0.379  0.6926  0.7538  0.3412
  830MOL0     C14413   7.231   2.504   0.450  0.7321 -0.7602  0.5911
  830MOL0     C14414   7.157   2.392   0.378 -0.9203 -0.8294 -0.1604
  830MOL0     C14415   7.013   2.390   0.424 -0.4906  0.1532  0.7979
  830MOL0     C14416   6.931   2.292   0.351  0.7002 -0.5983 -0.9198
  830MOL0     C14417   6.784   2.311   0.402  0.1483 -0.0933  0.8324
  830MOL0     C14418   6.769   2.259   0.543  0.0335 -0.0122 -0.3169
  830MOL0     N14419   6.632   2.286   0.583  0.4861 -0.6777 -1.1494
  830MOL0     C14420   6.520   2.202   0.573 -0.4992  0.4447  0.2676
  830MOL0     C14421   6.411   2.273   0.610 -0.0908 -0.6413  1.0057
  830MOL0     C14422   6.271   2.223   0.609 -0.0314  0.2814  0.2342
  830MOL0     C14423   6.205   2.202   0.741  0.1347  0.3506 -0.5661
  830MOL0     C14424   6.061   2.133   0.707 -1.1904  0.0105 -0.3628
  830MOL0     C14425   5.970   2.123   0.828  0.2110 -0.1375  0.7261
  830MOL0     O14426   6.022   2.048   0.929  0.3465  0.3895  0.6677
  830MOL0     C14427   5.979   2.074   1.055 -0.1311 -0.4674  0.1622
  830MOL0     C14428   6.060   2.146   1.134  0.9132 -0.0025  0.7251
  830MOL0     C14429   6.008   2.203   1.259  0.6905  0.1414  0.2003
  830MOL0     C14430   6.090   2.293   1.344  0.2399 -0.4787  0.9238
  830MOL0     C14431   5.865   2.180   1.294 -0.9840 -0.3300 -0.2496
  830MOL0     C14432   5.799   2.248   1.402  0.0965 -0.8487 -0.2495
  830MOL0     O14433   5.802   2.387   1.424 -0.8161 -0.1468 -0.6593
  830MOL0     C14434   5.739   2.438   1.539 -0.0292  0.6116 -0.1291
  830MOL0     C14435   5.794   2.465   1.662 -0.2475  0.5917  0.0321
  830MOL0     C14436   5.721   2.531   1.765  0.4036 -0.4824  0.5153
  830MOL0     C14437   5.594   2.566   1.749  0.0432 -0.2316  0.6266
  830MOL0     O14438   5.532   2.627   1.862  0.1433 -0.2460  0.3533
  830MOL0     C14439   5.442   2.741   1.839 -0.3789 -0.1107  0.1359
  830MOL0     C14440   5.516   2.881   1.843 -0.8063 -0.3192  0.4107
  830MOL0     C14441   5.579   2.924   1.712 -0.5967  0.4215 -0.1456
  830MOL0     C14442   5.636   3.068   1.722  0.5168 -0.3082  0.9562
  830MOL0     C14443   5.735   3.080   1.605  0.0284  0.1650 -0.1381
  830MOL0     C14444   5.661   3.118   1.476 -0.8630 -0.1271 -0.3185
  830MOL0     C14445   5.748   3.084   1.357 -0.2926 -0.3375  0.1367
  830MOL0     C14446   5.695   3.143   1.221  0.1525 -0.4073 -0.7382
  830MOL0    Cl14447   5.570   3.025   1.158  0.3538 -0.0834 -0.1281
  830MOL0     C14448   5.523   2.529   1.632 -0.4738  0.2604  0.3746
  830MOL0     C14449   5.600   2.474   1.528 -0.1920  0.6122  0.1093
  830MOL0     O14450   5.731   2.177   1.472 -0.2941  0.3335 -0.0010
  830MOL0     C14451   5.795   2.096   1.212  0.1429  0.1053 -0.1247
  830MOL0     C14452   5.852   2.045   1.098 -0.3118  0.1762  0.8839
  830MOL0     N14453   6.450   2.389   0.663 -0.9989 -0.5568 -0.7922
  830MOL0     N14454   6.585   2.391   0.643  0.6794 -0.0099 -0.2361
  830MOL0     C14455   7.679   2.483   0.689  0.4279  0.1727 -1.2924
  830MOL0     C14456   7.809   2.454   0.738 -0.1281 -0.3095 -0.3234
  830MOL0     C14457   8.262   2.477   0.739  0.1026  0.2190  1.1964
  830MOL0     C14458   8.308   2.352   0.681 -0.3624 -0.5274  1.1962
  830MOL0     C14459   8.440   2.312   0.690 -0.4872 -0.2505  0.5532
  830MOL0     C14460   8.538   2.407   0.737 -0.1373 -1.1100 -0.3897
  830MOL0     O14461   8.669   2.383   0.774 -0.3565  0.8118  0.3113
  830MOL0     C14462   8.719   2.248   0.766 -0.0513 -0.3268 -0.2459
  830MOL0     C14463   8.863   2.242   0.798  0.8485  0.5078 -0.8213
  830MOL0     C14464   8.911   2.118   0.875 -0.2397  0.9176  0.5885
  830MOL0     C14465   9.062   2.149   0.905 -0.7001  0.2067  0.5683
  830MOL0     C14466   9.077   2.231   1.021  0.0796 -0.1918 -0.5205
  830MOL0     C14467   9.098   2.307   1.115  0.4547 -0.0337  1.0610
  830MOL0     C14468   8.491   2.538   0.772 -0.3015  0.7495 -0.8166
  830MOL0     C14469   8.357   2.572   0.781 -0.5623  0.0779  0.0329
  830MOL0     C14470   8.322   2.701   0.844  0.0558  0.5040  0.4636
  830MOL0     H14471   7.938   2.355   0.443  0.3707  1.8521 -0.6363
  830MOL0     H14472   7.721   2.392   0.369  1.6124  1.9415 -1.2803
  830MOL0     H14473   7.460   2.393   0.343 -2.5760 -0.5084  0.1061
  830MOL0     H14474   7.546   2.554   0.331 -0.4390  2.5132  2.2287
  830MOL0     H14475   7.350   2.670   0.412 -3.0432  0.1720  2.4470
  830MOL0     H14476   7.328   2.562   0.272  1.5194 -1.4988  0.1726
  830MOL0     H14477   7.264   2.475   0.551 -1.7281  2.9669  2.7262
  830MOL0     H14478   7.157   2.584   0.462  1.1912  0.3859 -3.1849
  830MOL0     H14479   7.146   2.406   0.270 -0.9905  1.2470  0.0691
  830MOL0     H14480   7.208   2.297   0.398  1.2164  0.9455  4.0142
  830MOL0     H14481   6.958   2.482   0.403  2.3096  2.3500  2.3405
  830MOL0     H14482   7.020   2.364   0.531  1.2751 -0.1056  0.6528
  830MOL0     H14483   6.921   2.294   0.242  0.3475  0.8151 -0.8888
  830MOL0     H14484   6.975   2.196   0.379 -0.9423 -0.8738  0.9229
  830MOL0     H14485   6.706   2.270   0.337 -0.4598 -1.3124  2.2676
  830MOL0     H14486   6.758   2.418   0.397  2.1785  0.5917  2.9432
  830MOL0     H14487   6.790   2.152   0.552 -2.8166 -0.4736  3.2650
  830MOL0     H14488   6.842   2.302   0.612 -2.0206  0.0906  1.9542
  830MOL0     H14489   6.529   2.101   0.536  0.5988  0.6517 -0.0634
  830MOL0     H14490   6.278   2.127   0.557 -1.9993  0.6704 -0.8164
  830MOL0     H14491   6.211   2.296   0.553 -2.7848 -1.0027  1.3798
  830MOL0     H14492   6.268   2.133   0.797  0.1489  0.4428 -0.4692
  830MOL0     H14493   6.184   2.288   0.805  1.2435 -1.5128  2.5140
  830MOL0     H14494   6.014   2.204   0.638 -1.1323  0.8762  0.4656
  830MOL0     H14495   6.080   2.033   0.667  2.3788  0.6697 -0.7364
  830MOL0     H14496   5.955   2.225   0.864  1.6601  0.2790  0.2516
  830MOL0     H14497   5.873   2.077   0.806  0.3733 -1.7195  3.0220
  830MOL0     H14498   6.162   2.176   1.110  0.5432  0.3799 -0.4391
  830MOL0     H14499   6.055   2.289   1.447 -0.3143  0.1967  0.7693
  830MOL0     H14500   6.098   2.396   1.307  1.7019  0.0695  2.5997
  830MOL0     H14501   6.195   2.261   1.344 -0.1520 -2.0803 -1.6556
  830MOL0     H14502   5.898   2.436   1.677 -0.3937 -0.3681 -0.6458
  830MOL0     H14503   5.781   2.542   1.855 -0.4291 -2.3528  1.3415
  830MOL0     H14504   5.376   2.729   1.752  0.8631 -0.8872 -0.7367
  830MOL0     H14505   5.372   2.737   1.923  0.9126 -1.0710  1.2091
  830MOL0     H14506   5.447   2.959   1.877  0.9069  2.2064 -1.5092
  830MOL0     H14507   5.600   2.872   1.912 -1.0560  0.5760  0.8378
  830MOL0     H14508   5.507   2.913   1.630 -0.8530  1.3479 -0.0528
  830MOL0     H14509   5.660   2.852   1.693 -1.0639 -1.0991  2.8629
  830MOL0     H14510   5.693   3.083   1.814  1.0163 -0.6389  0.7048
  830MOL0     H14511   5.552   3.139   1.721  0.1146 -0.7748  0.6958
  830MOL0     H14512   5.809   3.158   1.625 -0.0642  0.0197  0.8096
  830MOL0     H14513   5.794   2.987   1.599 -2.6464 -1.6215 -0.5394
  830MOL0     H14514   5.650   3.226   1.475 -3.4305 -0.2553  2.0766
  830MOL0     H14515   5.561   3.075   1.472 -1.2680  0.4310  1.9674
  830MOL0     H14516   5.752   2.975   1.361  1.4587 -0.2612  2.5859
  830MOL0     H14517   5.847   3.129   1.370  0.0878 -0.2294 -2.5022
  830MOL0     H14518   5.784   3.138   1.157  0.1603  1.9028 -1.0011
  830MOL0     H14519   5.659   3.246   1.225 -0.6876 -0.6390 -1.7577
  830MOL0     H14520   5.415   2.537   1.621 -0.6409 -1.9787 -0.1436
  830MOL0     H14521   5.548   2.456   1.434  1.7210 -1.7599 -0.6210
  830MOL0     H14522   5.689   2.074   1.227  0.2850  0.2498  1.1553
  830MOL0     H14523   5.792   1.981   1.034  2.5241 -1.6074 -0.1718
  830MOL0     H14524   7.599   2.521   0.751  2.9356  2.4927  0.7905
  830MOL0     H14525   7.835   2.471   0.842  0.9952 -3.6574  0.0608
  830MOL0     H14526   8.237   2.283   0.636 -0.1343 -1.1528  1.7645
  830MOL0     H14527   8.467   2.212   0.657  1.1655  0.2259  0.3817
  830MOL0     H14528   8.662   2.194   0.842  0.6967  0.4055  0.8724
  830MOL0     H14529   8.699   2.209   0.666 -0.9939  1.1319 -0.6595
  830MOL0     H14530   8.893   2.329   0.857  1.2303 -0.3638  0.2884
  830MOL0     H14531   8.925   2.243   0.707  2.8030 -0.5802  0.4355
  830MOL0     H14532   8.854   2.098   0.967  0.2800 -1.4095  0.4568
  830MOL0     H14533   8.907   2.027   0.815 -0.7597 -0.0318  2.0116
  830MOL0     H14534   9.124   2.202   0.833  0.0395  0.9372  1.7025
  830MOL0     H14535   9.109   2.056   0.941  0.5885  0.7373  0.2905
  830MOL0     H14536   9.104   2.372   1.200 -2.7435  0.6292  0.9211
  830MOL0     H14537   8.574   2.606   0.789  0.3706 -0.0311 -0.8613
  830MOL0     H14538   8.420   2.736   0.878  1.3126  1.0026 -3.2305
  830MOL0     H14539   8.282   2.773   0.772 -1.1732 -1.2637 -0.6978
  830MOL0     H14540   8.258   2.687   0.932  1.4044  1.9095  1.7339
  831MOL0     O14541   0.131   5.446   0.817 -0.1613  0.1398 -0.7091
  831MOL0     C14542   0.083   5.559   0.799  0.2937 -0.1666 -0.1002
  831MOL0     O14543   0.129   5.642   0.698 -0.4704  0.0766  0.1620
  831MOL0     C14544   0.221   5.588   0.610 -0.0761  0.0294 -0.1417
  831MOL0     C14545   0.351   5.619   0.632 -0.5674 -0.2543  0.5053
  831MOL0     C14546   0.447   5.582   0.535  0.2039 -0.3727  0.2150
  831MOL0     C14547   0.405   5.512   0.422  0.0658 -0.0189  0.0778
  831MOL0     O14548   0.506   5.472   0.339  0.1977 -0.4121  0.0554
  831MOL0     C14549   0.477   5.398   0.219 -0.3290 -0.2108 -0.2468
  831MOL0     C14550   0.607   5.362   0.138 -0.0108  0.4359 -0.5412
  831MOL0     C14551   0.740   5.331   0.210 -0.2731  0.0897 -0.4555
  831MOL0     C14552   0.849   5.279   0.111  0.6505 -0.5159 -0.2073
  831MOL0     C14553   0.974   5.257   0.196  0.3326  0.2038  0.5834
  831MOL0     C14554   1.094   5.213   0.117  0.2003 -0.1309  0.8494
  831MOL0     C14555   1.141   5.311   0.004 -0.0384 -0.4489 -0.3082
  831MOL0     C14556   1.250   5.241  -0.078 -0.5042 -0.0978 -0.5477
  831MOL0     N14557   1.372   5.211   0.003  0.5847  0.9933  0.6727
  831MOL0     C14558   1.468   5.295   0.043  0.5685  0.6414  0.3115
  831MOL0     C14559   1.557   5.223   0.120  0.0303 -0.7655 -0.0664
  831MOL0     C14560   1.666   5.284   0.207 -0.2629  0.1109  0.6836
  831MOL0     C14561   1.654   5.228   0.348  0.5341  0.1361  0.4148
  831MOL0     C14562   1.718   5.322   0.453  0.2553 -0.4743 -0.7476
  831MOL0     C14563   1.869   5.339   0.441  0.0499  0.1547  0.9908
  831MOL0     O14564   1.908   5.460   0.502 -0.1289  0.4686 -0.0514
  831MOL0     C14565   2.031   5.514   0.462  0.7760  0.1640  0.7825
  831MOL0     C14566   2.045   5.659   0.482 -0.4200  0.2561  0.0435
  831MOL0     C14567   2.159   5.728   0.423  0.7036 -0.3670 -0.3338
  831MOL0     C14568   2.172   5.875   0.452  0.2408 -0.7397  0.4979
  831MOL0     C14569   2.261   5.652   0.355 -0.2806 -0.3517 -1.1684
  831MOL0     C14570   2.379   5.726   0.293  0.1040 -0.3742 -0.5240
  831MOL0     O14571   2.464   5.645   0.226 -1.0203 -0.7617  0.0639
  831MOL0     C14572   2.586   5.691   0.172 -0.5855 -0.4593  0.4543
  831MOL0     C14573   2.597   5.792   0.075  0.3184  0.0321 -0.5882
  831MOL0     C14574   2.713   5.809   0.004 -0.4927 -0.0835 -0.4364
  831MOL0     C14575   2.824   5.724   0.013 -0.3155  0.4630 -0.5381
  831MOL0     O14576   2.938   5.732  -0.063 -0.3102 -0.1202  0.2303
  831MOL0     C14577   3.005   5.600  -0.083  0.2717 -0.0500  0.5411
  831MOL0     C14578   3.128   5.637  -0.174 -0.4788 -0.1943  0.5879
  831MOL0     C14579   3.197   5.501  -0.212 -0.8541 -0.8586  0.7099
  831MOL0     C14580   3.330   5.529  -0.289 -0.4899  0.1173 -0.0659
  831MOL0     C14581   3.383   5.397  -0.331  0.1237 -0.1374 -0.3881
  831MOL0     C14582   3.518   5.417  -0.400 -0.0690  0.5088 -0.2352
  831MOL0     C14583   3.624   5.311  -0.398  0.7701  0.8811 -1.3582
  831MOL0     C14584   3.755   5.351  -0.449 -0.7582  0.0398  0.7648
  831MOL0    Cl14585   3.860   5.216  -0.438  0.4532  0.3352 -0.0566
  831MOL0     C14586   2.818   5.633   0.124  0.1076  0.4534 -0.1296
  831MOL0     C14587   2.703   5.615   0.198  0.6524  0.5399  0.3188
  831MOL0     O14588   2.415   5.836   0.319 -0.1971  0.2218 -0.3338
  831MOL0     C14589   2.243   5.514   0.345 -0.4821 -0.6968  0.6467
  831MOL0     C14590   2.132   5.442   0.385  0.4928 -1.0362  0.2693
  831MOL0     N14591   1.497   5.094   0.126 -0.9372 -0.0547  0.7130
  831MOL0     N14592   1.392   5.088   0.053 -0.4340 -0.3192 -0.2258
  831MOL0     C14593   0.271   5.485   0.404  0.1494  0.2726  0.0973
  831MOL0     C14594   0.178   5.518   0.500 -0.1548 -0.7213  0.3906
  831MOL0     C14595  -0.027   5.602   0.879  0.4011 -0.7150  0.1325
  831MOL0     C14596  -0.084   5.511   0.974 -0.5276 -0.1201  0.3327
  831MOL0     C14597  -0.189   5.548   1.060  0.2759  0.2924  0.4156
  831MOL0     C14598  -0.233   5.677   1.064  0.6600 -0.7959  0.7360
  831MOL0     O14599  -0.324   5.714   1.163  0.3409 -0.6058 -0.2496
  831MOL0     C14600  -0.349   5.620   1.264 -0.3586  0.7234 -0.8663
  831MOL0     C14601  -0.436   5.696   1.371 -0.0265 -0.7193 -0.7200
  831MOL0     C14602  -0.582   5.730   1.332 -0.0380 -0.5343  0.1505
  831MOL0     C14603  -0.652   5.827   1.429 -0.3095  0.3362 -0.3876
  831MOL0     C14604  -0.593   5.964   1.426  0.3381  0.2218 -0.5365
  831MOL0     C14605  -0.538   6.070   1.414  0.5328  0.0930 -0.4319
  831MOL0     C14606  -0.198   5.764   0.963 -0.4442  0.4105 -0.3049
  831MOL0     C14607  -0.096   5.729   0.867 -0.4163 -0.0922  0.2356
  831MOL0     C14608  -0.066   5.825   0.760  1.1035 -0.8589  0.5127
  831MOL0     H14609   0.374   5.691   0.710  0.6565  1.3284 -1.2370
  831MOL0     H14610   0.547   5.620   0.552 -0.2724  0.4610  1.2662
  831MOL0     H14611   0.409   5.470   0.173 -0.3809  0.1516  0.3893
  831MOL0     H14612   0.434   5.305   0.258  0.6578 -0.3578  0.5124
  831MOL0     H14613   0.581   5.284   0.066 -1.0599 -1.4750  1.7580
  831MOL0     H14614   0.622   5.454   0.082  0.3461 -0.8794 -2.7193
  831MOL0     H14615   0.786   5.407   0.275 -0.9613  1.1922 -1.2247
  831MOL0     H14616   0.715   5.249   0.279 -0.9582  0.6958  0.0332
  831MOL0     H14617   0.823   5.190   0.053 -4.0261  0.6629 -0.3325
  831MOL0     H14618   0.880   5.349   0.033  1.3876  0.7025  1.1319
  831MOL0     H14619   0.953   5.177   0.268  1.4460 -1.4091 -0.8373
  831MOL0     H14620   1.004   5.351   0.245 -1.3122  2.4227 -2.3415
  831MOL0     H14621   1.174   5.208   0.191  0.3522  1.1857  0.7914
  831MOL0     H14622   1.080   5.115   0.070  3.4199  0.3298 -1.4325
  831MOL0     H14623   1.175   5.409   0.039 -1.8915 -0.1940  0.8799
  831MOL0     H14624   1.057   5.345  -0.057  1.0373  3.2386  0.0274
  831MOL0     H14625   1.208   5.153  -0.127 -3.2671  0.5349  0.5320
  831MOL0     H14626   1.275   5.316  -0.154  0.8065  1.5368  1.3855
  831MOL0     H14627   1.467   5.402   0.028 -0.3828  0.8937  1.9586
  831MOL0     H14628   1.660   5.393   0.204 -1.6646  0.0555  0.7094
  831MOL0     H14629   1.758   5.252   0.157  0.8388  2.0543  1.3815
  831MOL0     H14630   1.547   5.218   0.368 -0.2953  0.2516 -3.2711
  831MOL0     H14631   1.709   5.136   0.332 -2.4644 -1.4133 -2.1340
  831MOL0     H14632   1.656   5.412   0.449 -3.1949 -2.3400  2.9932
  831MOL0     H14633   1.695   5.276   0.550  1.6219  0.2441 -0.0607
  831MOL0     H14634   1.909   5.251   0.494  1.9826  0.5581  0.2814
  831MOL0     H14635   1.909   5.339   0.339  2.1714 -1.5459  1.7298
  831MOL0     H14636   1.963   5.705   0.537 -0.1110 -0.4029  1.0629
  831MOL0     H14637   2.240   5.898   0.534  2.6588 -0.2188 -1.5358
  831MOL0     H14638   2.069   5.906   0.473  0.1896  0.6777 -1.5255
  831MOL0     H14639   2.197   5.939   0.367 -2.5492  0.3644  0.4034
  831MOL0     H14640   2.517   5.864   0.060  1.0391  1.4602  1.8275
  831MOL0     H14641   2.704   5.882  -0.076 -1.8833  1.2339  0.8546
  831MOL0     H14642   3.047   5.545   0.002  0.5910 -0.4202  0.1455
  831MOL0     H14643   2.939   5.532  -0.138  0.9915  1.3230 -2.2115
  831MOL0     H14644   3.093   5.683  -0.267  1.4611  0.8349  0.3196
  831MOL0     H14645   3.199   5.705  -0.125  0.1194 -0.5880  0.2719
  831MOL0     H14646   3.138   5.430  -0.269  0.0900 -0.6974 -0.5089
  831MOL0     H14647   3.225   5.449  -0.120  1.4894  1.3451  1.3990
  831MOL0     H14648   3.397   5.580  -0.219 -1.4968  0.2331  0.8395
  831MOL0     H14649   3.305   5.598  -0.370  1.8376  0.5475 -0.4854
  831MOL0     H14650   3.392   5.345  -0.235  1.8075  2.0255  0.7106
  831MOL0     H14651   3.322   5.334  -0.396  1.5088 -0.5512 -1.3322
  831MOL0     H14652   3.566   5.498  -0.346 -1.0424  0.6018  0.5281
  831MOL0     H14653   3.496   5.446  -0.503  0.9561 -0.0133 -0.6195
  831MOL0     H14654   3.604   5.215  -0.445  3.8623 -0.2845 -0.5291
  831MOL0     H14655   3.649   5.287  -0.294  2.8401 -0.4787 -2.1241
  831MOL0     H14656   3.793   5.430  -0.384  1.1335  3.4632 -3.9103
  831MOL0     H14657   3.749   5.386  -0.552 -0.3816 -0.2228  0.6492
  831MOL0     H14658   2.901   5.570   0.154 -0.7780  0.1043  1.7641
  831MOL0     H14659   2.699   5.547   0.282  2.4657  1.1471  0.9320
  831MOL0     H14660   2.320   5.454   0.297 -0.0755  0.1887  0.1719
  831MOL0     H14661   2.118   5.340   0.350 -0.3729 -0.2882 -1.7279
  831MOL0     H14662   0.235   5.421   0.324  0.1514  0.9310 -0.4427
  831MOL0     H14663   0.075   5.484   0.503 -0.0633 -0.9425  1.1537
  831MOL0     H14664  -0.057   5.407   0.967  1.5359  0.4908 -2.3004
  831MOL0     H14665  -0.218   5.462   1.120  0.4441 -0.6666 -0.8287
  831MOL0     H14666  -0.397   5.527   1.231  0.4247 -0.9740  2.3628
  831MOL0     H14667  -0.259   5.599   1.323 -1.1924 -0.7800 -0.0859
  831MOL0     H14668  -0.388   5.792   1.392 -1.2139  0.6527 -3.6745
  831MOL0     H14669  -0.440   5.639   1.464 -1.6264 -0.5560 -0.6576
  831MOL0     H14670  -0.591   5.767   1.229 -1.8109 -0.6185  0.2519
  831MOL0     H14671  -0.639   5.637   1.327 -0.5734 -0.2461  0.7975
  831MOL0     H14672  -0.642   5.787   1.530  3.0559  3.2205  0.6490
  831MOL0     H14673  -0.759   5.833   1.406 -1.5427 -2.5497  3.5470
  831MOL0     H14674  -0.484   6.161   1.400  1.0007  0.0234  0.7535
  831MOL0     H14675  -0.235   5.866   0.962  1.4297  1.1575  1.2721
  831MOL0     H14676  -0.055   5.776   0.663  2.1875  0.1985  0.0722
  831MOL0     H14677  -0.145   5.900   0.749  1.5096 -0.1768  1.9928
  831MOL0     H14678   0.020   5.888   0.788 -0.0167  0.8551  0.2702
  832MOL0     O14679   5.538  10.108   5.233 -0.7248  0.7401 -0.0776
  832MOL0     C14680   5.581  10.088   5.348 -0.0079  0.5945  0.7387
  832MOL0     O14681   5.509  10.059   5.463  0.0607 -0.3912  0.2033
  832MOL0     C14682   5.383  10.009   5.446  0.9449  0.4192  0.0545
  832MOL0     C14683   5.265  10.082   5.466 -0.8363  0.5456 -0.4082
  832MOL0     C14684   5.142  10.020   5.460 -0.5958 -0.1026 -0.7094
  832MOL0     C14685   5.133   9.884   5.422 -0.6467 -0.5626 -1.0093
  832MOL0     O14686   5.013   9.822   5.405 -0.2073 -0.7381  0.1455
  832MOL0     C14687   4.889   9.904   5.422  0.1692 -0.6105  0.2742
  832MOL0     C14688   4.797   9.821   5.335 -0.2753  0.0842 -0.3991
  832MOL0     C14689   4.674   9.888   5.299  1.0652  0.1858  0.7400
  832MOL0     C14690   4.552   9.888   5.391 -0.0783  0.6241  0.0891
  832MOL0     C14691   4.446   9.990   5.353  0.0176 -0.7963 -0.4601
  832MOL0     C14692   4.322   9.982   5.430 -0.1483  0.1710  0.5987
  832MOL0     C14693   4.233  10.079   5.361  0.1621  0.8818 -0.1204
  832MOL0     C14694   4.252  10.222   5.419 -1.1673 -0.2783  0.5342
  832MOL0     N14695   4.138  10.277   5.496 -0.1843 -0.1458 -0.1490
  832MOL0     C14696   4.118  10.272   5.625 -0.6030 -0.6571 -0.3297
  832MOL0     C14697   4.021  10.363   5.655 -0.5495 -0.1092  0.0943
  832MOL0     C14698   3.958  10.398   5.789  1.0410 -0.2796  0.5061
  832MOL0     C14699   3.840  10.308   5.817  0.6411 -0.4403 -0.0870
  832MOL0     C14700   3.718  10.338   5.726 -0.1320  1.1101 -0.0736
  832MOL0     C14701   3.620  10.221   5.721  0.7012  0.1932  0.3413
  832MOL0     O14702   3.598  10.177   5.853 -0.6218  0.1062  0.4921
  832MOL0     C14703   3.485  10.100   5.857 -0.6709  0.0106  1.0318
  832MOL0     C14704   3.377  10.152   5.927 -0.2936 -0.8304  0.3310
  832MOL0     C14705   3.254  10.088   5.930 -0.4797 -0.8218  0.8030
  832MOL0     C14706   3.147  10.144   6.025  0.2741  0.3335  0.1901
  832MOL0     C14707   3.247   9.956   5.868 -0.5343  0.1901 -0.1408
  832MOL0     C14708   3.126   9.868   5.875 -0.7165  1.0541 -0.2762
  832MOL0     O14709   3.136   9.760   5.782 -0.2968 -1.1484 -1.0482
  832MOL0     C14710   3.017   9.702   5.760  0.7343  0.5192 -0.0632
  832MOL0     C14711   2.946   9.742   5.645 -0.6234  0.1482  0.5903
  832MOL0     C14712   2.824   9.680   5.612  0.2062  0.5256 -0.5060
  832MOL0     C14713   2.773   9.581   5.701  0.7951 -0.6956  0.0561
  832MOL0     O14714   2.653   9.525   5.656 -0.1075  0.9933  0.7389
  832MOL0     C14715   2.596   9.425   5.735  0.5353 -0.3651 -0.0430
  832MOL0     C14716   2.483   9.349   5.655  0.1659  0.2276  0.9930
  832MOL0     C14717   2.524   9.270   5.524 -0.0292  0.0295  0.4679
  832MOL0     C14718   2.401   9.221   5.446 -0.2756 -0.6410  1.4483
  832MOL0     C14719   2.428   9.209   5.290 -0.2197  0.9418  0.7816
  832MOL0     C14720   2.290   9.189   5.207  0.0946 -0.0016 -0.0892
  832MOL0     C14721   2.312   9.208   5.062  0.0361  0.6936  0.2042
  832MOL0     C14722   2.175   9.208   5.001  0.4963 -0.1493  0.3940
  832MOL0    Cl14723   2.192   9.225   4.817  0.2553 -0.0555 -0.0922
  832MOL0     C14724   2.843   9.550   5.827  0.0111  0.2579  0.2366
  832MOL0     C14725   2.959   9.612   5.852 -0.8087 -0.1524 -0.5211
  832MOL0     O14726   3.029   9.892   5.943  0.3460  0.0063  0.0775
  832MOL0     C14727   3.364   9.903   5.809 -0.1637  0.1987 -0.5570
  832MOL0     C14728   3.479   9.981   5.787  0.0617 -0.2599 -0.5338
  832MOL0     N14729   3.973  10.421   5.540  0.0056 -0.8334 -0.6432
  832MOL0     N14730   4.048  10.375   5.448 -0.2672  0.3093 -0.7185
  832MOL0     C14731   5.252   9.806   5.407 -0.2879 -0.7965 -0.2435
  832MOL0     C14732   5.372   9.877   5.413  0.2867  0.1840 -0.9719
  832MOL0     C14733   5.729  10.071   5.371 -0.0383 -0.2637  0.6644
  832MOL0     C14734   5.782  10.033   5.496 -0.5287 -0.2026 -0.1200
  832MOL0     C14735   5.919  10.032   5.522 -0.2686 -0.3572 -0.3236
  832MOL0     C14736   6.009  10.040   5.424 -0.1051 -0.5492  1.2194
  832MOL0     O14737   6.138  10.010   5.457  0.1539 -0.4337 -0.2408
  832MOL0     C14738   6.242  10.025   5.353  0.3650 -0.2365  0.6135
  832MOL0     C14739   6.357   9.941   5.383  0.6983  0.3622 -0.4386
  832MOL0     C14740   6.454   9.931   5.269 -0.3059 -0.2557  0.5450
  832MOL0     C14741   6.592   9.868   5.305 -0.3064  0.2811 -0.0012
  832MOL0     C14742   6.685   9.896   5.201 -0.5904  0.1519 -0.2931
  832MOL0     C14743   6.771   9.904   5.115 -0.2124  0.7534 -1.0242
  832MOL0     C14744   5.963  10.081   5.291  0.8207 -0.1509 -0.1436
  832MOL0     C14745   5.825  10.093   5.265  0.3610  0.6211 -0.6067
  832MOL0     C14746   5.794  10.135   5.120  1.0254 -1.2627  0.1146
  832MOL0     H14747   5.285  10.182   5.503  2.5891  0.3790 -1.4755
  832MOL0     H14748   5.061  10.088   5.486 -0.1472 -1.0451  4.0258
  832MOL0     H14749   4.900  10.005   5.380  2.8412 -0.6672  0.6512
  832MOL0     H14750   4.844   9.913   5.521  0.8108 -1.2273  0.6340
  832MOL0     H14751   4.845   9.791   5.242 -2.3171  2.8812 -2.5075
  832MOL0     H14752   4.775   9.729   5.390  0.0083  0.1966 -0.0921
  832MOL0     H14753   4.700   9.993   5.284 -0.5017  0.4439 -0.4208
  832MOL0     H14754   4.648   9.868   5.194  0.2396  2.5553  0.4306
  832MOL0     H14755   4.508   9.788   5.384 -0.6241  0.8801 -0.1616
  832MOL0     H14756   4.578   9.905   5.496 -0.0994  1.6784 -0.0665
  832MOL0     H14757   4.425   9.960   5.250 -0.4943 -0.2472 -0.5216
  832MOL0     H14758   4.492  10.088   5.362  1.3406 -1.5168  1.1786
  832MOL0     H14759   4.296   9.876   5.422  1.6952 -0.2317 -0.5385
  832MOL0     H14760   4.342  10.008   5.535  1.5503  2.3566 -0.1980
  832MOL0     H14761   4.128  10.048   5.373  0.4973 -1.4997 -2.2224
  832MOL0     H14762   4.242  10.076   5.252 -0.1748 -3.7387 -0.2421
  832MOL0     H14763   4.342  10.232   5.480  2.3465  0.0572 -4.1203
  832MOL0     H14764   4.267  10.299   5.343  2.1879  1.4751  2.7354
  832MOL0     H14765   4.174  10.218   5.701 -0.3941  2.6113  2.0966
  832MOL0     H14766   3.918  10.499   5.789 -2.2651 -1.3677 -2.6995
  832MOL0     H14767   4.030  10.395   5.872 -0.3881  2.6072  1.9882
  832MOL0     H14768   3.862  10.203   5.797 -0.4762 -0.6112 -0.4834
  832MOL0     H14769   3.809  10.305   5.922  1.3175  0.3601  0.1425
  832MOL0     H14770   3.667  10.427   5.763 -2.0057  0.8144 -1.8134
  832MOL0     H14771   3.751  10.356   5.623  0.1616 -0.5729 -0.3037
  832MOL0     H14772   3.526  10.259   5.681  1.0766  1.5643  0.6889
  832MOL0     H14773   3.652  10.137   5.660 -0.0706 -0.4605  0.8246
  832MOL0     H14774   3.386  10.253   5.966  2.3790 -0.5536 -0.8010
  832MOL0     H14775   3.169  10.242   6.070 -2.3817  0.2614  1.8309
  832MOL0     H14776   3.134  10.073   6.107  4.0360 -0.0668  0.6560
  832MOL0     H14777   3.056  10.152   5.966 -0.0329  0.2862  0.6489
  832MOL0     H14778   2.997   9.815   5.583  1.8310  0.5344  2.8707
  832MOL0     H14779   2.779   9.704   5.517  0.7491  1.1032 -0.6221
  832MOL0     H14780   2.677   9.356   5.760 -0.0394 -0.9857  0.1406
  832MOL0     H14781   2.559   9.463   5.831  0.3444  0.8592 -0.5912
  832MOL0     H14782   2.437   9.277   5.723  0.4932 -1.4206 -0.4487
  832MOL0     H14783   2.407   9.420   5.622 -1.2752 -2.6500 -2.5592
  832MOL0     H14784   2.589   9.187   5.554 -1.2743 -0.9401  0.5635
  832MOL0     H14785   2.591   9.331   5.462 -1.0565  2.3089  1.4635
  832MOL0     H14786   2.322   9.297   5.448  0.4207  0.2255 -0.5560
  832MOL0     H14787   2.354   9.130   5.484 -2.1527 -0.5495 -0.4683
  832MOL0     H14788   2.467   9.306   5.261 -2.7793  2.0666  0.8003
  832MOL0     H14789   2.502   9.130   5.274  1.1209  1.6783  2.9431
  832MOL0     H14790   2.218   9.262   5.244 -0.5258 -1.5837  2.0282
  832MOL0     H14791   2.245   9.095   5.239  3.2373 -1.0314  1.8506
  832MOL0     H14792   2.379   9.129   5.030  0.9695  2.1540 -1.6092
  832MOL0     H14793   2.360   9.306   5.053 -1.3473  1.6482  2.2145
  832MOL0     H14794   2.128   9.301   5.032  1.0656 -0.0067  0.8342
  832MOL0     H14795   2.113   9.121   5.026 -0.8703  1.1018  1.5501
  832MOL0     H14796   2.799   9.469   5.885 -2.0501 -0.4656 -2.1380
  832MOL0     H14797   3.014   9.579   5.940 -1.8097 -0.2995  0.0713
  832MOL0     H14798   3.378   9.805   5.764  2.7436  0.1216  0.2877
  832MOL0     H14799   3.567   9.950   5.732 -1.0863 -3.1995 -0.9059
  832MOL0     H14800   5.250   9.711   5.354  4.5198  0.8864 -4.0971
  832MOL0     H14801   5.459   9.825   5.376  0.3667  0.3793 -1.0608
  832MOL0     H14802   5.709  10.032   5.576  0.2290  0.6751  0.5974
  832MOL0     H14803   5.967  10.000   5.614  0.6230 -0.1785 -0.7140
  832MOL0     H14804   6.199   9.997   5.257 -0.9541 -1.2053  1.4515
  832MOL0     H14805   6.275  10.129   5.360  1.6742 -0.6685  1.1278
  832MOL0     H14806   6.325   9.837   5.396  0.1202  0.5183 -0.5862
  832MOL0     H14807   6.414   9.971   5.472  1.6518 -1.4840 -0.3914
  832MOL0     H14808   6.407   9.873   5.189  0.1411  0.3287 -0.1546
  832MOL0     H14809   6.462  10.033   5.228 -1.5511  0.8351  2.8036
  832MOL0     H14810   6.591   9.761   5.327 -0.7032  0.3452  0.3040
  832MOL0     H14811   6.637   9.903   5.398 -1.5538  0.0878  0.6984
  832MOL0     H14812   6.857   9.900   5.051 -0.9122 -0.2091 -1.9380
  832MOL0     H14813   6.027  10.089   5.204  1.3013 -1.0328  0.1217
  832MOL0     H14814   5.752  10.052   5.062  0.9795 -0.6813 -0.6892
  832MOL0     H14815   5.727  10.221   5.109  0.3695 -1.8241 -0.3732
  832MOL0     H14816   5.886  10.165   5.069 -0.4485 -1.7763 -3.0870
  833MOL0     O14817   9.769   3.300   3.032  0.3863  0.0439 -0.6103
  833MOL0     C14818   9.802   3.398   3.093  0.3207  0.4354  0.2118
  833MOL0     O14819   9.819   3.406   3.229  0.0546 -0.3616 -0.2676
  833MOL0     C14820   9.830   3.291   3.308  0.4151 -0.5341 -0.0225
  833MOL0     C14821   9.791   3.293   3.444 -0.4483  1.2860 -0.6167
  833MOL0     C14822   9.783   3.171   3.523  0.1949  0.4886  0.1448
  833MOL0     C14823   9.846   3.053   3.477  0.1337 -0.3303  0.4702
  833MOL0     O14824   9.849   2.936   3.551 -0.0849  0.2038 -0.1345
  833MOL0     C14825   9.802   2.933   3.690 -0.1506 -0.2475 -0.2403
  833MOL0     C14826   9.879   2.826   3.770  0.6786 -0.3652  0.3299
  833MOL0     C14827   9.848   2.686   3.716 -0.3559  0.1865 -1.1733
  833MOL0     C14828   9.892   2.566   3.811  0.0757  0.1951  0.2832
  833MOL0     C14829   9.840   2.433   3.755 -0.3886  0.3690  0.6855
  833MOL0     C14830   9.853   2.319   3.860  0.4646  0.1173 -0.0762
  833MOL0     C14831   9.783   2.189   3.816 -0.4996  0.0318  0.6271
  833MOL0     C14832   9.871   2.099   3.723 -0.1144 -0.1641  0.7270
  833MOL0     N14833  10.005   2.055   3.774  0.7451 -0.2477  0.1171
  833MOL0     C14834  10.093   1.987   3.692  0.1799 -0.0660  0.6211
  833MOL0     C14835  10.203   1.959   3.767  0.1259  0.3046 -0.3134
  833MOL0     C14836  10.308   1.865   3.705  0.0324 -0.0052  0.8036
  833MOL0     C14837  10.313   1.714   3.756 -0.1982  0.5164 -0.4896
  833MOL0     C14838  10.401   1.692   3.876 -0.2332  0.0493  1.1150
  833MOL0     C14839  10.348   1.754   4.002  0.6836  0.5441 -0.3074
  833MOL0     O14840  10.435   1.708   4.105 -0.0066 -0.2319  0.4095
  833MOL0     C14841  10.448   1.793   4.216 -0.0460  1.1415 -1.3712
  833MOL0     C14842  10.355   1.899   4.246 -0.0350  1.0564  0.2403
  833MOL0     C14843  10.370   1.981   4.357  0.2282 -0.5058 -0.1654
  833MOL0     C14844  10.254   2.074   4.395 -0.1636 -0.9129 -0.3699
  833MOL0     C14845  10.488   1.964   4.442 -0.1784  0.7618 -0.6560
  833MOL0     C14846  10.509   2.043   4.575 -0.2002  0.4266 -0.5661
  833MOL0     O14847  10.414   2.129   4.611 -0.8648 -0.1463  0.0646
  833MOL0     C14848  10.418   2.205   4.730 -0.5997 -0.5733  0.5285
  833MOL0     C14849  10.395   2.345   4.719  0.0774 -0.0967  0.1071
  833MOL0     C14850  10.409   2.423   4.833 -0.0315  0.2538 -0.6590
  833MOL0     C14851  10.453   2.370   4.958  0.0304 -0.3578  0.0967
  833MOL0     O14852  10.451   2.441   5.081 -0.0189 -0.2765 -0.4088
  833MOL0     C14853  10.378   2.379   5.187  0.0917 -0.6458  0.0110
  833MOL0     C14854  10.351   2.487   5.288 -0.9318 -0.9712  0.3563
  833MOL0     C14855  10.483   2.529   5.361  0.3744 -0.0190 -0.0970
  833MOL0     C14856  10.477   2.627   5.470  0.1618 -0.0830  0.5993
  833MOL0     C14857  10.604   2.658   5.538 -0.8824 -0.0927 -0.3712
  833MOL0     C14858  10.597   2.760   5.656 -1.0803 -0.0889  0.5172
  833MOL0     C14859  10.736   2.806   5.718 -0.1092 -0.3334  0.6279
  833MOL0     C14860  10.842   2.852   5.617 -0.5514 -0.6154  0.5756
  833MOL0    Cl14861  10.759   2.981   5.529  0.2692  0.1065 -0.0606
  833MOL0     C14862  10.491   2.233   4.962  0.4576 -0.4799 -0.0528
  833MOL0     C14863  10.462   2.157   4.855  0.3364 -0.1907  0.2530
  833MOL0     O14864  10.608   2.009   4.644  0.3580 -0.3930 -0.0082
  833MOL0     C14865  10.586   1.863   4.405  0.3201  0.1352  0.0642
  833MOL0     C14866  10.568   1.787   4.291 -0.2934  0.5795  0.0092
  833MOL0     N14867  10.177   2.007   3.891 -0.0560 -0.6302 -0.8183
  833MOL0     N14868  10.053   2.057   3.900  0.0765  0.1241  0.0521
  833MOL0     C14869   9.893   3.049   3.347 -0.5521 -0.6647 -0.2987
  833MOL0     C14870   9.891   3.166   3.264  0.9313  0.4646  0.4484
  833MOL0     C14871   9.783   3.517   3.014 -0.9930 -0.1945  0.2045
  833MOL0     C14872   9.743   3.633   3.077 -0.1646 -0.6215  0.5096
  833MOL0     C14873   9.711   3.758   3.008 -0.8201 -0.2815 -1.8436
  833MOL0     C14874   9.733   3.768   2.872 -0.3093  0.8000  0.2304
  833MOL0     O14875   9.722   3.878   2.800  0.0297  1.0364 -0.7332
  833MOL0     C14876   9.728   4.006   2.867  0.0711  0.3159  0.3111
  833MOL0     C14877   9.594   4.070   2.907 -0.9234  0.0894 -0.3064
  833MOL0     C14878   9.502   4.114   2.787  0.2530 -0.3571  0.5094
  833MOL0     C14879   9.381   4.182   2.843  0.8604 -0.1011 -0.2500
  833MOL0     C14880   9.402   4.327   2.875  0.5875 -0.2554 -0.1057
  833MOL0     C14881   9.413   4.447   2.866  0.7024 -0.6574 -0.2787
  833MOL0     C14882   9.768   3.649   2.807 -0.2942 -0.1415 -0.0351
  833MOL0     C14883   9.793   3.524   2.869 -0.4257  0.7782  1.1077
  833MOL0     C14884   9.832   3.413   2.776 -0.1375 -0.6015  0.2900
  833MOL0     H14885   9.743   3.385   3.477  1.4873  1.7353  1.2068
  833MOL0     H14886   9.728   3.176   3.617 -1.7955  1.8196 -1.0155
  833MOL0     H14887   9.695   2.914   3.690 -0.6215  2.0423  0.8893
  833MOL0     H14888   9.834   3.027   3.736  1.8696 -0.2968 -1.4251
  833MOL0     H14889   9.987   2.839   3.761  0.3982  1.4335 -1.1322
  833MOL0     H14890   9.852   2.836   3.876 -3.1563  0.8065 -0.5907
  833MOL0     H14891   9.740   2.684   3.700 -0.8864  1.3483  1.6521
  833MOL0     H14892   9.899   2.671   3.620  0.1711  1.4745 -1.1082
  833MOL0     H14893  10.002   2.568   3.812  0.0726  0.6553 -0.1668
  833MOL0     H14894   9.854   2.592   3.910  2.8526  0.9898  1.2285
  833MOL0     H14895   9.888   2.397   3.664 -0.1731 -1.9190  1.6328
  833MOL0     H14896   9.733   2.439   3.735 -0.8852 -1.8223  2.3468
  833MOL0     H14897   9.954   2.301   3.898  0.9936 -1.8772 -2.1816
  833MOL0     H14898   9.793   2.359   3.942  1.1090  0.0047  0.4609
  833MOL0     H14899   9.687   2.207   3.765 -0.0319  0.1761 -0.2219
  833MOL0     H14900   9.764   2.140   3.912  0.1924 -3.0551 -0.7148
  833MOL0     H14901   9.815   2.006   3.709  1.3374 -1.0965  0.9259
  833MOL0     H14902   9.873   2.136   3.620 -0.7693 -2.6221 -0.2492
  833MOL0     H14903  10.067   1.962   3.590 -0.8970 -1.8137  1.2882
  833MOL0     H14904  10.410   1.903   3.707  1.1377 -2.5302 -1.1807
  833MOL0     H14905  10.282   1.857   3.599  2.5709 -2.6172  0.2667
  833MOL0     H14906  10.212   1.696   3.795  0.1401 -0.0137  0.1357
  833MOL0     H14907  10.334   1.635   3.684 -3.0591 -0.6318 -0.2155
  833MOL0     H14908  10.409   1.588   3.908  0.2635  0.0842  1.1099
  833MOL0     H14909  10.502   1.720   3.846 -0.7107  1.9243  1.1219
  833MOL0     H14910  10.349   1.862   3.981  1.5527  0.2516 -1.9733
  833MOL0     H14911  10.252   1.710   4.027  1.2665 -1.1393 -0.9194
  833MOL0     H14912  10.276   1.919   4.175  0.1221 -1.5352 -0.7935
  833MOL0     H14913  10.234   2.062   4.502  0.3368 -3.9322 -0.5211
  833MOL0     H14914  10.167   2.058   4.332  0.1185 -2.0638 -0.4908
  833MOL0     H14915  10.285   2.175   4.368 -0.8065 -1.0479 -1.6748
  833MOL0     H14916  10.373   2.382   4.619  2.8065  0.7767 -0.2536
  833MOL0     H14917  10.392   2.530   4.828 -0.3627  0.2354 -0.0229
  833MOL0     H14918  10.281   2.340   5.153  1.0214 -0.6705 -2.8805
  833MOL0     H14919  10.438   2.299   5.230  1.1948  1.2350  2.1831
  833MOL0     H14920  10.305   2.571   5.236  0.5591 -0.0250  0.4983
  833MOL0     H14921  10.275   2.452   5.359 -1.7884  2.3328  1.2179
  833MOL0     H14922  10.554   2.574   5.291  3.2323 -1.2655  1.8146
  833MOL0     H14923  10.541   2.444   5.399 -0.4531 -1.4982 -1.9933
  833MOL0     H14924  10.403   2.600   5.546 -1.1341  1.2148 -0.1484
  833MOL0     H14925  10.427   2.718   5.435 -0.3908  0.2819  2.2534
  833MOL0     H14926  10.638   2.563   5.581 -0.5376 -0.5513 -1.6001
  833MOL0     H14927  10.678   2.691   5.464  0.0959 -0.6502  0.3282
  833MOL0     H14928  10.544   2.703   5.733  0.1401 -0.0785  1.4022
  833MOL0     H14929  10.537   2.848   5.629 -0.0074  0.9692  1.4233
  833MOL0     H14930  10.772   2.714   5.765  1.8838  0.3439  0.5317
  833MOL0     H14931  10.724   2.881   5.796  1.7707 -1.9091  2.5493
  833MOL0     H14932  10.878   2.772   5.552  1.0630 -0.3381  1.0871
  833MOL0     H14933  10.929   2.895   5.666 -1.8592  0.7735  1.8010
  833MOL0     H14934  10.531   2.177   5.046  0.4193 -2.3385 -1.2064
  833MOL0     H14935  10.494   2.056   4.879  1.3534  0.5471  2.2215
  833MOL0     H14936  10.681   1.877   4.455 -0.3172  2.6809  0.7071
  833MOL0     H14937  10.644   1.724   4.245 -1.1870  0.2991 -1.1401
  833MOL0     H14938   9.935   2.951   3.329 -0.3402 -0.7191  0.4647
  833MOL0     H14939   9.944   3.160   3.170 -0.3529 -1.3618 -0.2087
  833MOL0     H14940   9.738   3.636   3.185  1.2943  2.8103  0.6209
  833MOL0     H14941   9.680   3.839   3.073 -0.3348 -1.8128  0.4230
  833MOL0     H14942   9.792   4.001   2.956 -1.2403  1.3354  1.3566
  833MOL0     H14943   9.769   4.079   2.797 -0.7121  1.5578  1.1143
  833MOL0     H14944   9.628   4.154   2.968  0.0818 -0.8234  0.4215
  833MOL0     H14945   9.549   3.994   2.972  0.9286 -0.7626  0.0479
  833MOL0     H14946   9.573   4.185   2.744  1.4114 -0.5588  2.0006
  833MOL0     H14947   9.458   4.037   2.723 -4.8908  1.3923  1.4224
  833MOL0     H14948   9.342   4.130   2.931  1.0243 -1.5940 -1.0255
  833MOL0     H14949   9.299   4.170   2.771  0.0812 -0.5973  0.6904
  833MOL0     H14950   9.422   4.553   2.854 -2.2226 -0.0682  1.6858
  833MOL0     H14951   9.783   3.646   2.699 -0.9475  1.0289 -0.1743
  833MOL0     H14952   9.883   3.470   2.698 -1.4826  1.2173  0.6793
  833MOL0     H14953   9.904   3.344   2.822  0.1648  0.3885  1.3501
  833MOL0     H14954   9.750   3.350   2.741 -2.8096  1.8220  1.8088
  834MOL0     O14955  10.239  10.289   8.126 -0.4662  0.8479  0.1522
  834MOL0     C14956  10.212  10.171   8.136 -0.5756  0.3834  0.7511
  834MOL0     O14957  10.098  10.128   8.197 -0.2806  0.5910 -0.1033
  834MOL0     C14958  10.065  10.001   8.169  0.2347 -0.0674 -0.0278
  834MOL0     C14959  10.114   9.903   8.259  0.2361  0.9653 -0.4425
  834MOL0     C14960  10.075   9.770   8.239 -0.5217  0.8754  0.8179
  834MOL0     C14961  10.001   9.729   8.122  0.1730  0.2732  0.0433
  834MOL0     O14962   9.975   9.591   8.106  0.6555 -0.7222 -0.1952
  834MOL0     C14963   9.994   9.543   7.973 -0.2563 -0.1551  0.6667
  834MOL0     C14964   9.927   9.402   7.965 -0.0488 -0.8241 -0.6640
  834MOL0     C14965   9.777   9.415   7.953  0.0195  0.5005 -0.5277
  834MOL0     C14966   9.720   9.278   7.932  0.0864  0.2368 -0.1730
  834MOL0     C14967   9.599   9.246   8.036  0.0247 -0.2527  1.3413
  834MOL0     C14968   9.662   9.221   8.174 -0.1077  0.3070  0.6126
  834MOL0     C14969   9.555   9.193   8.283  0.1980  0.5355  1.0351
  834MOL0     C14970   9.615   9.175   8.427  0.9006 -0.1128  0.6923
  834MOL0     N14971   9.676   9.284   8.494  0.3171 -0.0895 -0.9106
  834MOL0     C14972   9.711   9.416   8.456 -0.1420  0.1306  0.1877
  834MOL0     C14973   9.747   9.485   8.570 -0.1464 -0.0668  0.6863
  834MOL0     C14974   9.810   9.621   8.574  0.9183 -0.2713  0.0299
  834MOL0     C14975   9.904   9.635   8.704 -0.0756  0.2480 -0.1009
  834MOL0     C14976   9.832   9.660   8.838  0.0838 -0.8738 -0.3674
  834MOL0     C14977   9.927   9.634   8.949 -0.8221 -0.4046 -0.4069
  834MOL0     O14978  10.032   9.741   8.953 -0.2436  0.1372  0.4451
  834MOL0     C14979  10.102   9.749   9.067 -0.4244 -0.3357  0.2636
  834MOL0     C14980  10.148   9.877   9.104  0.0200  0.4743  0.5842
  834MOL0     C14981  10.231   9.895   9.219  0.3839  0.1629  0.4108
  834MOL0     C14982  10.281  10.037   9.241  0.0255  0.5306  0.2082
  834MOL0     C14983  10.263   9.776   9.290 -0.1883 -0.2567  0.2486
  834MOL0     C14984  10.346   9.778   9.413 -0.1304  0.5679  0.1157
  834MOL0     O14985  10.369   9.901   9.475 -0.1589 -0.1452 -1.0226
  834MOL0     C14986  10.459   9.908   9.578  0.1430 -0.2231 -0.9022
  834MOL0     C14987  10.592   9.853   9.593 -0.5287  0.2391 -0.1058
  834MOL0     C14988  10.667   9.865   9.708 -0.3183  0.4335 -0.0509
  834MOL0     C14989  10.617   9.943   9.805 -0.3100 -1.0878 -0.3950
  834MOL0     O14990  10.683   9.966   9.922  0.1318  0.3030 -0.5840
  834MOL0     C14991  10.762  10.097   9.933  0.0992  0.2478  0.8414
  834MOL0     C14992  10.901  10.084   9.998  0.0429  0.1546  0.1879
  834MOL0     C14993  10.996   9.987   9.924  1.1677 -0.1320 -0.6877
  834MOL0     C14994  11.022  10.019   9.776 -0.0202  0.4488  0.2040
  834MOL0     C14995  11.121   9.927   9.708 -0.8826  0.1027  0.3986
  834MOL0     C14996  11.263   9.957   9.742  0.4821 -0.4924 -0.1803
  834MOL0     C14997  11.350   9.994   9.619  0.1994  1.3764 -0.0443
  834MOL0     C14998  11.494  10.023   9.654 -0.1990  0.9894 -0.7807
  834MOL0    Cl14999  11.608  10.009   9.512  0.1529  0.5239  0.1728
  834MOL0     C15000  10.495  10.009   9.791  1.0273 -0.6826  0.7486
  834MOL0     C15001  10.414  10.000   9.677 -0.8598 -0.7424  0.5137
  834MOL0     O15002  10.375   9.670   9.467  0.0303  0.2840  0.7696
  834MOL0     C15003  10.217   9.651   9.258 -0.0466  0.0053  0.2497
  834MOL0     C15004  10.145   9.637   9.135  0.0107  0.3216  0.0630
  834MOL0     N15005   9.724   9.403   8.681 -0.3789  0.9093  0.2089
  834MOL0     N15006   9.677   9.286   8.635 -1.2211  0.1656  0.1687
  834MOL0     C15007   9.972   9.826   8.033  0.3464  0.8637  0.8283
  834MOL0     C15008   9.989   9.963   8.056  0.6128  0.6234  0.5501
  834MOL0     C15009  10.322  10.079   8.094 -0.1530  0.4396  0.1696
  834MOL0     C15010  10.305   9.997   7.979  0.2871 -0.2535  0.4800
  834MOL0     C15011  10.418   9.933   7.925 -0.1902  0.7652  0.3238
  834MOL0     C15012  10.553   9.940   7.976  0.4304 -0.5424  0.0883
  834MOL0     O15013  10.661   9.864   7.931 -0.1474 -0.0195  0.0155
  834MOL0     C15014  10.780   9.857   8.021  0.5064 -0.3624 -0.5985
  834MOL0     C15015  10.894   9.774   7.963  0.6126 -0.2667  0.8410
  834MOL0     C15016  10.866   9.626   7.942  0.2324 -0.0716 -0.0602
  834MOL0     C15017  10.958   9.570   7.829  0.0143 -0.3766 -0.6692
  834MOL0     C15018  10.908   9.434   7.798 -0.5382 -1.0733 -0.1466
  834MOL0     C15019  10.872   9.331   7.763  1.0549  0.1577  0.9058
  834MOL0     C15020  10.561  10.014   8.099 -0.4352 -0.1824  0.2500
  834MOL0     C15021  10.451  10.085   8.156 -0.4385  0.4186  0.6698
  834MOL0     C15022  10.479  10.161   8.282 -0.0183  0.5619  0.9121
  834MOL0     H15023  10.162   9.921   8.355 -1.3100 -0.8022  0.7458
  834MOL0     H15024  10.104   9.695   8.312  0.6870 -0.7711 -1.2228
  834MOL0     H15025  10.102   9.549   7.957  0.1449 -2.8149  1.8202
  834MOL0     H15026   9.930   9.612   7.917 -1.1863 -0.0923  1.7521
  834MOL0     H15027   9.963   9.353   7.874 -0.3072 -2.3304  0.0267
  834MOL0     H15028   9.961   9.350   8.054  0.8539  3.5693  1.8579
  834MOL0     H15029   9.740   9.451   8.049 -2.8519 -0.6923 -1.0904
  834MOL0     H15030   9.755   9.484   7.871 -0.9445  0.4801 -0.2899
  834MOL0     H15031   9.692   9.280   7.827 -1.0220  3.1961  0.0856
  834MOL0     H15032   9.800   9.205   7.944  0.1084  0.3099  0.1463
  834MOL0     H15033   9.547   9.154   8.010 -1.6367  0.2300  2.7270
  834MOL0     H15034   9.534   9.334   8.046 -1.1411 -1.3047  3.7035
  834MOL0     H15035   9.731   9.137   8.173 -2.7587 -2.0406 -0.3058
  834MOL0     H15036   9.711   9.312   8.211  1.8240 -2.4738  5.8127
  834MOL0     H15037   9.502   9.103   8.252 -2.7761  2.0168  1.3985
  834MOL0     H15038   9.477   9.269   8.284  0.4048  0.7546  0.8054
  834MOL0     H15039   9.532   9.132   8.484 -1.5521  0.4430 -2.2094
  834MOL0     H15040   9.703   9.112   8.407  0.7332  0.3212 -1.8209
  834MOL0     H15041   9.714   9.462   8.358  0.6914  1.5166  0.8320
  834MOL0     H15042   9.731   9.692   8.600 -0.0526 -1.5610  0.7467
  834MOL0     H15043   9.859   9.639   8.478 -0.7586 -0.1921 -0.8562
  834MOL0     H15044   9.967   9.546   8.705  1.9092  1.5882  0.9134
  834MOL0     H15045   9.982   9.709   8.683  0.7078 -1.1674 -2.5732
  834MOL0     H15046   9.798   9.764   8.830  1.8884 -0.1341  0.9657
  834MOL0     H15047   9.745   9.595   8.855 -0.1654 -0.3791  0.3238
  834MOL0     H15048   9.880   9.636   9.048  0.4656 -1.5774  0.2602
  834MOL0     H15049   9.951   9.527   8.941  0.8268 -0.5676  3.8849
  834MOL0     H15050  10.131   9.956   9.031 -2.9645 -1.5266 -1.1271
  834MOL0     H15051  10.387  10.053   9.262  0.6500  1.8352 -3.2879
  834MOL0     H15052  10.224  10.097   9.314  3.2478  2.8145  1.0595
  834MOL0     H15053  10.261  10.084   9.144 -2.2107 -1.0711 -0.1920
  834MOL0     H15054  10.639   9.815   9.503  2.3018  3.0579  0.0062
  834MOL0     H15055  10.761   9.814   9.727 -1.1842 -1.2617 -0.2216
  834MOL0     H15056  10.768  10.146   9.835  0.9723  0.7499  1.1267
  834MOL0     H15057  10.698  10.168   9.987  1.7155  1.0473  1.7973
  834MOL0     H15058  10.957  10.178  10.008  1.5458 -0.2542 -2.9879
  834MOL0     H15059  10.874  10.056  10.100 -3.5178 -1.3994 -1.0375
  834MOL0     H15060  10.957   9.886   9.940 -0.4917  0.9373  3.3901
  834MOL0     H15061  11.093   9.989   9.974  1.5343 -1.2525 -1.3350
  834MOL0     H15062  11.048  10.124   9.763 -1.3702  1.1437  2.5193
  834MOL0     H15063  10.930  10.010   9.716 -1.2661  2.0179  1.7783
  834MOL0     H15064  11.091   9.825   9.735 -2.5375  0.7880  1.2773
  834MOL0     H15065  11.107   9.920   9.599  1.3953 -5.6253  0.1066
  834MOL0     H15066  11.309   9.873   9.793 -2.6017 -2.2456 -0.0632
  834MOL0     H15067  11.269  10.040   9.813  1.2461 -1.8206  1.3493
  834MOL0     H15068  11.306  10.073   9.558  2.0325  2.5729  0.1089
  834MOL0     H15069  11.352   9.900   9.562 -2.2935 -0.0210  1.9814
  834MOL0     H15070  11.523   9.940   9.719 -4.7419 -0.6201 -0.4996
  834MOL0     H15071  11.502  10.113   9.716 -1.3819  0.1958  0.5750
  834MOL0     H15072  10.458  10.056   9.881 -0.3772  0.9409 -0.5970
  834MOL0     H15073  10.312  10.034   9.662 -1.4186 -3.5872 -4.3199
  834MOL0     H15074  10.234   9.565   9.322  3.8209  0.8319  0.6113
  834MOL0     H15075  10.124   9.537   9.097  1.4061  0.3964 -0.9669
  834MOL0     H15076   9.914   9.804   7.943  0.3712  0.3323  0.9435
  834MOL0     H15077   9.948  10.035   7.987 -1.7376 -0.2892  0.9090
  834MOL0     H15078  10.215   9.987   7.919  1.1445 -0.3486 -0.8432
  834MOL0     H15079  10.404   9.879   7.832  0.0330  1.2824 -0.0127
  834MOL0     H15080  10.828   9.954   8.040 -2.0583  0.4755  2.4994
  834MOL0     H15081  10.756   9.826   8.123 -3.4874  1.8046 -0.6587
  834MOL0     H15082  10.974   9.780   8.038 -0.4194  0.6327  1.9148
  834MOL0     H15083  10.916   9.808   7.862 -3.0922 -1.5039 -0.5425
  834MOL0     H15084  10.870   9.575   8.039 -1.3959  2.3523  1.3987
  834MOL0     H15085  10.761   9.617   7.910  0.4166  1.1383 -1.1086
  834MOL0     H15086  11.064   9.575   7.853 -0.8058  0.4396  3.5508
  834MOL0     H15087  10.955   9.637   7.743  0.9704 -2.7793 -2.6787
  834MOL0     H15088  10.834   9.235   7.736 -1.3726  1.6507 -1.4181
  834MOL0     H15089  10.658  10.012   8.149  0.0733  1.2035 -0.6459
  834MOL0     H15090  10.503  10.263   8.252  1.4378  0.4749  1.7267
  834MOL0     H15091  10.398  10.167   8.355  1.5600 -2.7689  3.1829
  834MOL0     H15092  10.561  10.117   8.339  0.4789  1.5459  0.9804
  835MOL0     O15093   0.915   0.116   5.526  0.0781 -0.3742 -0.2862
  835MOL0     C15094   0.829   0.086   5.608 -0.0668  0.7562  0.9888
  835MOL0     O15095   0.779  -0.044   5.628  0.1327  0.2411 -0.5604
  835MOL0     C15096   0.816  -0.144   5.537  0.0277  1.0684  0.0888
  835MOL0     C15097   0.714  -0.232   5.488  0.3935 -0.5224  0.2497
  835MOL0     C15098   0.754  -0.340   5.409 -0.1114 -0.3201  0.7339
  835MOL0     C15099   0.884  -0.371   5.383 -0.4769  0.5513 -0.7760
  835MOL0     O15100   0.920  -0.479   5.302 -0.3156  0.7295  0.1332
  835MOL0     C15101   1.019  -0.459   5.204 -0.0160  0.0606  0.1882
  835MOL0     C15102   1.130  -0.562   5.213  0.1206  0.8845 -0.0493
  835MOL0     C15103   1.087  -0.709   5.211  0.2490  0.2301  0.0725
  835MOL0     C15104   1.201  -0.808   5.188  1.0650 -0.0274 -0.1356
  835MOL0     C15105   1.298  -0.814   5.302  0.4739 -0.4003 -0.2078
  835MOL0     C15106   1.407  -0.922   5.291 -0.1059 -0.5948 -0.8131
  835MOL0     C15107   1.508  -0.903   5.407  0.8866  0.0942 -0.3480
  835MOL0     C15108   1.579  -1.029   5.457  0.2802 -0.3063  0.8906
  835MOL0     N15109   1.660  -1.082   5.345 -0.6181  0.4931 -0.6559
  835MOL0     C15110   1.757  -1.001   5.291  0.6213  0.1044  0.4979
  835MOL0     C15111   1.832  -1.087   5.222  0.1664  0.4917 -0.0604
  835MOL0     C15112   1.946  -1.035   5.134 -0.1477  0.6606  0.1666
  835MOL0     C15113   1.888  -1.012   4.990 -1.1132  0.8118 -0.0596
  835MOL0     C15114   2.014  -0.999   4.897 -0.1854 -0.7056 -0.4597
  835MOL0     C15115   2.093  -0.865   4.917 -0.1300 -0.3409 -0.0838
  835MOL0     O15116   2.053  -0.745   4.850  0.5797  0.5388 -0.4843
  835MOL0     C15117   2.117  -0.708   4.737  0.2478  0.4640  0.5556
  835MOL0     C15118   2.191  -0.794   4.652  0.0087 -0.5396 -0.1505
  835MOL0     C15119   2.256  -0.744   4.535 -0.4146 -0.8099  1.0061
  835MOL0     C15120   2.336  -0.856   4.454  0.0455  0.2161 -0.0763
  835MOL0     C15121   2.248  -0.608   4.497  0.9171  0.0378  0.2711
  835MOL0     C15122   2.292  -0.547   4.369  1.3192  0.2079  0.9826
  835MOL0     O15123   2.268  -0.415   4.353  0.5080 -0.3931 -0.2423
  835MOL0     C15124   2.316  -0.346   4.236  0.5713  0.4914 -0.5291
  835MOL0     C15125   2.220  -0.265   4.166  1.7303  0.1680  0.5220
  835MOL0     C15126   2.255  -0.204   4.047  0.1143  0.2440  0.7008
  835MOL0     C15127   2.379  -0.223   3.996 -0.4921  0.3030  0.4596
  835MOL0     O15128   2.391  -0.160   3.874  0.0401 -0.1530  0.4669
  835MOL0     C15129   2.529  -0.139   3.833 -0.9633 -0.5718  0.0322
  835MOL0     C15130   2.533  -0.002   3.747  1.2434 -0.2593 -0.4700
  835MOL0     C15131   2.672   0.038   3.720 -0.0062 -0.1136 -0.2057
  835MOL0     C15132   2.761   0.065   3.845  0.2106  0.0352  0.5259
  835MOL0     C15133   2.886   0.150   3.815  0.8212 -0.0746  0.1046
  835MOL0     C15134   2.973   0.104   3.698  1.1702 -0.5052 -0.9324
  835MOL0     C15135   3.090   0.201   3.689 -0.2904 -0.5992 -0.7767
  835MOL0     C15136   3.182   0.147   3.581 -0.7440  1.0648  0.1022
  835MOL0    Cl15137   3.327   0.250   3.587  0.3195 -0.1906 -0.3367
  835MOL0     C15138   2.475  -0.303   4.071 -0.2291  0.2875 -0.4815
  835MOL0     C15139   2.444  -0.360   4.194  0.2535 -0.1316  0.2853
  835MOL0     O15140   2.348  -0.619   4.292  0.3424  0.0811 -0.6643
  835MOL0     C15141   2.174  -0.526   4.587  0.6789  0.1964 -0.8519
  835MOL0     C15142   2.106  -0.576   4.698 -0.2464  0.0287 -0.0842
  835MOL0     N15143   1.784  -1.218   5.231 -0.3450  0.3037 -0.4502
  835MOL0     N15144   1.685  -1.213   5.316  0.3579 -0.5232  0.2540
  835MOL0     C15145   0.984  -0.288   5.444  0.0491 -0.3433  0.9623
  835MOL0     C15146   0.952  -0.171   5.509 -0.1493  0.6556 -0.1540
  835MOL0     C15147   0.771   0.187   5.691  0.0777  0.2014 -0.0760
  835MOL0     C15148   0.633   0.174   5.749 -0.1397 -0.2607  0.2617
  835MOL0     C15149   0.577   0.273   5.834  0.0051 -0.2197  0.7927
  835MOL0     C15150   0.635   0.396   5.845 -0.1713 -0.2131  0.0194
  835MOL0     O15151   0.592   0.510   5.909  0.2847  0.3675 -0.7870
  835MOL0     C15152   0.466   0.500   5.983  1.1449 -0.5405  0.0401
  835MOL0     C15153   0.440   0.634   6.039  0.2259 -0.7955 -0.1807
  835MOL0     C15154   0.403   0.737   5.932  0.5370  0.0167 -0.3086
  835MOL0     C15155   0.257   0.730   5.889  0.3577  0.4701  0.4564
  835MOL0     C15156   0.223   0.806   5.767 -0.9902  0.1555 -0.4337
  835MOL0     C15157   0.192   0.857   5.666 -0.5661 -0.8114  0.4375
  835MOL0     C15158   0.752   0.412   5.776  0.3504  0.7061 -0.3473
  835MOL0     C15159   0.827   0.317   5.711  0.0507  0.6746  0.4458
  835MOL0     C15160   0.960   0.357   5.661  0.8694 -0.3728  0.1374
  835MOL0     H15161   0.612  -0.217   5.522 -0.8069  0.8033 -3.4358
  835MOL0     H15162   0.670  -0.399   5.371 -1.6716  1.2133  1.6742
  835MOL0     H15163   1.062  -0.359   5.218 -0.6105  0.0059  3.0159
  835MOL0     H15164   0.961  -0.461   5.111  0.0707 -2.0802  0.1199
  835MOL0     H15165   1.191  -0.545   5.124  0.0144  0.2475 -0.2521
  835MOL0     H15166   1.190  -0.553   5.305  3.1579  0.6136 -1.8617
  835MOL0     H15167   1.024  -0.729   5.299 -0.0501 -0.8690 -0.3826
  835MOL0     H15168   1.028  -0.724   5.120  0.6983  1.0604 -0.3611
  835MOL0     H15169   1.154  -0.905   5.171  2.3929 -0.6524 -0.3904
  835MOL0     H15170   1.247  -0.766   5.098  1.1268  2.0363  0.7995
  835MOL0     H15171   1.241  -0.820   5.396  0.0797  0.5275 -0.3680
  835MOL0     H15172   1.347  -0.717   5.313  0.2404 -0.5018  2.7000
  835MOL0     H15173   1.351  -1.014   5.309 -3.2175  1.6828  2.6779
  835MOL0     H15174   1.465  -0.924   5.198  0.7518  1.8928 -0.3979
  835MOL0     H15175   1.450  -0.853   5.485 -1.9064 -1.6423 -1.1509
  835MOL0     H15176   1.580  -0.828   5.373  0.2076  0.4559 -1.0283
  835MOL0     H15177   1.643  -1.005   5.543  1.0939 -2.4644  0.9470
  835MOL0     H15178   1.502  -1.098   5.495  0.0377 -0.3677  0.2978
  835MOL0     H15179   1.758  -0.893   5.281 -3.6933  0.3208  0.2445
  835MOL0     H15180   2.029  -1.105   5.147  1.6595  2.7158  0.3387
  835MOL0     H15181   1.978  -0.936   5.166 -1.3932  1.0735  0.1850
  835MOL0     H15182   1.834  -1.097   4.948 -1.9848  0.2302  2.1277
  835MOL0     H15183   1.817  -0.930   4.982 -0.9678  1.4845  3.7433
  835MOL0     H15184   2.077  -1.085   4.924 -0.8739 -0.8430  0.7759
  835MOL0     H15185   1.992  -1.033   4.795  1.2051 -2.8995 -0.1059
  835MOL0     H15186   2.089  -0.843   5.024 -0.3298  0.9767 -0.3369
  835MOL0     H15187   2.199  -0.875   4.892  0.2756  3.6499 -0.6680
  835MOL0     H15188   2.184  -0.901   4.668 -0.4112 -0.7442 -1.5070
  835MOL0     H15189   2.443  -0.842   4.474  0.1079  1.5065 -1.1694
  835MOL0     H15190   2.334  -0.855   4.345 -1.6148 -2.4605 -0.1702
  835MOL0     H15191   2.298  -0.950   4.495  2.1431  0.6628  3.2498
  835MOL0     H15192   2.119  -0.247   4.204  1.4537  1.0077 -0.5550
  835MOL0     H15193   2.180  -0.159   3.983  1.6990 -0.1212 -1.5561
  835MOL0     H15194   2.596  -0.130   3.919  2.1510 -4.7972 -1.5815
  835MOL0     H15195   2.578  -0.215   3.771 -1.2710 -0.4597 -0.3571
  835MOL0     H15196   2.484  -0.003   3.649  1.5570 -0.1350 -0.6279
  835MOL0     H15197   2.476   0.073   3.802  1.1000 -2.3654  2.5231
  835MOL0     H15198   2.665   0.131   3.664  1.2131 -1.1082 -2.0996
  835MOL0     H15199   2.716  -0.042   3.659  0.8326 -0.8865  1.3401
  835MOL0     H15200   2.799  -0.031   3.882 -0.3950 -0.4266 -0.0357
  835MOL0     H15201   2.701   0.110   3.924 -0.7321 -3.0860  1.7310
  835MOL0     H15202   2.851   0.247   3.779  1.3474 -0.7406 -2.4295
  835MOL0     H15203   2.945   0.157   3.907  1.7290 -0.3826 -0.4373
  835MOL0     H15204   2.913   0.103   3.606  1.7904 -3.4564 -1.4166
  835MOL0     H15205   3.007   0.001   3.717 -1.3818 -0.7899  3.4112
  835MOL0     H15206   3.159   0.176   3.770  1.4718 -2.3845 -2.6751
  835MOL0     H15207   3.076   0.309   3.683 -1.7796 -0.8062 -1.6201
  835MOL0     H15208   3.140   0.160   3.480  1.2583 -2.1241 -1.2957
  835MOL0     H15209   3.208   0.041   3.589  4.2232  1.8743 -1.5514
  835MOL0     H15210   2.577  -0.329   4.046  0.1848 -0.0186  1.3778
  835MOL0     H15211   2.516  -0.416   4.254 -0.2758  0.0681  1.1256
  835MOL0     H15212   2.157  -0.419   4.579 -0.0108  0.2163  0.6947
  835MOL0     H15213   2.057  -0.497   4.755  0.1647 -0.4400  0.9498
  835MOL0     H15214   1.087  -0.312   5.417 -0.2623 -2.2164  1.3341
  835MOL0     H15215   1.024  -0.101   5.552 -1.6996  2.2360 -0.0016
  835MOL0     H15216   0.565   0.090   5.740 -3.3048  2.1170  0.3342
  835MOL0     H15217   0.481   0.252   5.881 -0.0737 -2.1021 -0.0995
  835MOL0     H15218   0.388   0.456   5.920  0.4119 -1.1693  1.3516
  835MOL0     H15219   0.487   0.437   6.070  0.1389 -0.8584  0.0580
  835MOL0     H15220   0.527   0.669   6.096 -0.9443 -0.6830  1.6308
  835MOL0     H15221   0.359   0.626   6.112  1.6093 -0.6209  1.4343
  835MOL0     H15222   0.425   0.839   5.965 -2.4082  0.2259  1.2765
  835MOL0     H15223   0.452   0.706   5.839 -2.6684  1.4729 -2.6529
  835MOL0     H15224   0.188   0.751   5.971 -0.4432  0.8694 -0.3113
  835MOL0     H15225   0.238   0.626   5.859  1.0971  0.7109 -0.9038
  835MOL0     H15226   0.158   0.905   5.576  1.6841 -1.8801 -1.0669
  835MOL0     H15227   0.800   0.509   5.786  1.3640  0.6955 -3.8899
  835MOL0     H15228   1.039   0.282   5.664  0.0271 -1.5702 -3.3273
  835MOL0     H15229   0.937   0.381   5.557 -1.4676 -1.6752  0.2737
  835MOL0     H15230   0.989   0.452   5.708 -0.4825  0.1108  0.0349
  836MOL0     O15231   7.453  11.129   3.410 -0.6060  0.2079 -0.8769
  836MOL0     C15232   7.392  11.217   3.353  0.1315  0.1838 -0.3680
  836MOL0     O15233   7.317  11.204   3.230 -0.1145 -0.2266  0.0646
  836MOL0     C15234   7.296  11.086   3.169  0.0114  0.4432  0.0816
  836MOL0     C15235   7.189  11.090   3.095  0.5836  0.5218  0.1875
  836MOL0     C15236   7.143  10.974   3.029  0.0866 -0.2408  0.1870
  836MOL0     C15237   7.219  10.864   3.024  0.2277 -0.3616 -0.3953
  836MOL0     O15238   7.168  10.770   2.946 -0.3922  0.8470 -0.9744
  836MOL0     C15239   7.251  10.709   2.857 -0.8902 -0.4655 -0.1009
  836MOL0     C15240   7.195  10.581   2.797 -0.1277  0.0170  0.3635
  836MOL0     C15241   7.315  10.503   2.739  0.6877 -0.5155 -0.0689
  836MOL0     C15242   7.279  10.369   2.681  0.4064 -0.2295  0.2310
  836MOL0     C15243   7.387  10.265   2.667  0.2656  0.5055 -0.4990
  836MOL0     C15244   7.486  10.316   2.556  0.4744  0.3853  0.2876
  836MOL0     C15245   7.597  10.214   2.518 -0.2416 -0.8251  0.0049
  836MOL0     C15246   7.547  10.070   2.483 -0.7579 -0.3166 -0.4421
  836MOL0     N15247   7.659   9.975   2.469 -0.7741  0.2509 -0.1339
  836MOL0     C15248   7.706   9.887   2.559 -0.4586  0.2665 -0.5826
  836MOL0     C15249   7.817   9.824   2.511  1.0109 -0.7448 -0.1635
  836MOL0     C15250   7.889   9.721   2.594  0.1715 -0.2210  0.9539
  836MOL0     C15251   7.892   9.587   2.518  0.7233 -0.4500  0.4705
  836MOL0     C15252   7.969   9.479   2.598 -0.2404 -0.0720 -0.0687
  836MOL0     C15253   8.126   9.482   2.577 -0.4382 -0.1718  0.2164
  836MOL0     O15254   8.186   9.357   2.622  0.4038  0.2867 -0.4226
  836MOL0     C15255   8.314   9.342   2.580 -0.0528 -0.2170  0.8736
  836MOL0     C15256   8.362   9.211   2.585  0.6866  0.4105  0.6453
  836MOL0     C15257   8.489   9.174   2.545 -1.1647 -0.6864  1.2965
  836MOL0     C15258   8.539   9.032   2.556  0.4711  0.1814  0.3047
  836MOL0     C15259   8.584   9.273   2.513 -0.5418 -1.3676  0.5444
  836MOL0     C15260   8.731   9.244   2.469  0.8352  0.6290  1.0449
  836MOL0     O15261   8.826   9.330   2.509  0.2199 -0.9322  0.3478
  836MOL0     C15262   8.954   9.292   2.499  0.0805  0.0588 -0.4057
  836MOL0     C15263   8.998   9.191   2.586 -0.2697  0.1361 -0.4069
  836MOL0     C15264   9.128   9.139   2.587  0.3534  0.8296 -0.3440
  836MOL0     C15265   9.212   9.185   2.492  0.4759  0.2029 -0.0947
  836MOL0     O15266   9.332   9.120   2.496 -0.1324 -0.1955 -0.1642
  836MOL0     C15267   9.447   9.193   2.460  0.3208  0.3967  0.5158
  836MOL0     C15268   9.526   9.117   2.339  0.1959  0.2841 -0.5754
  836MOL0     C15269   9.551   8.978   2.397 -0.8856  0.1128  0.6778
  836MOL0     C15270   9.646   8.899   2.302  0.7149 -0.8290 -0.6962
  836MOL0     C15271   9.576   8.881   2.165  0.9453 -0.1004  0.4152
  836MOL0     C15272   9.664   8.792   2.069 -0.8324 -0.0674 -0.7615
  836MOL0     C15273   9.673   8.639   2.093  0.7950 -0.6473 -0.0297
  836MOL0     C15274   9.720   8.546   1.972  0.2029 -0.2728 -1.1109
  836MOL0    Cl15275   9.600   8.421   1.959 -0.5322  0.1947  0.0554
  836MOL0     C15276   9.169   9.283   2.395 -0.0361 -0.2353 -0.7850
  836MOL0     C15277   9.040   9.337   2.404  0.7322 -0.9733  0.9785
  836MOL0     O15278   8.759   9.145   2.393 -0.2294 -0.6511 -0.8512
  836MOL0     C15279   8.535   9.408   2.501 -0.3435  0.1268 -0.1674
  836MOL0     C15280   8.399   9.435   2.532  0.0225  0.3458 -0.4929
  836MOL0     N15281   7.824   9.868   2.373  0.1415  0.1606 -1.1250
  836MOL0     N15282   7.730   9.954   2.355  0.7652 -0.2614  0.5329
  836MOL0     C15283   7.342  10.855   3.099  0.2356 -0.4539  0.3348
  836MOL0     C15284   7.365  10.961   3.191 -0.1706  0.0993 -0.3369
  836MOL0     C15285   7.397  11.339   3.427 -0.5347 -0.7953  0.2430
  836MOL0     C15286   7.463  11.451   3.374  1.4384 -0.6341 -1.2521
  836MOL0     C15287   7.449  11.570   3.461 -0.1688 -0.5726  0.3141
  836MOL0     C15288   7.384  11.578   3.584  0.4205  0.4896 -0.0460
  836MOL0     O15289   7.373  11.693   3.654  0.5812 -0.4539  0.3964
  836MOL0     C15290   7.426  11.816   3.604  0.1209  0.0575 -0.5466
  836MOL0     C15291   7.366  11.930   3.689  0.0945  0.5359 -0.2098
  836MOL0     C15292   7.215  11.955   3.688 -0.6068 -0.5287 -0.6974
  836MOL0     C15293   7.145  11.956   3.555 -0.2032  0.3037  0.2012
  836MOL0     C15294   7.209  12.054   3.466  0.3005 -0.2573 -0.2444
  836MOL0     C15295   7.272  12.137   3.400  0.0196 -0.3363 -0.3947
  836MOL0     C15296   7.345  11.455   3.635  0.0201 -0.2867 -0.0521
  836MOL0     C15297   7.346  11.336   3.558 -0.3047 -0.4310 -1.1628
  836MOL0     C15298   7.276  11.221   3.624 -0.4645  0.1487 -0.6552
  836MOL0     H15299   7.123  11.175   3.087 -0.8533 -0.6466 -0.9444
  836MOL0     H15300   7.055  10.993   2.969  0.5944  4.7307  0.6063
  836MOL0     H15301   7.347  10.681   2.902 -2.2745 -3.0831  1.4507
  836MOL0     H15302   7.259  10.784   2.777  0.2499 -0.5704 -0.0992
  836MOL0     H15303   7.150  10.523   2.878  3.0367 -1.5466  1.1538
  836MOL0     H15304   7.118  10.613   2.725  0.8110  2.6466  0.3936
  836MOL0     H15305   7.364  10.564   2.663 -1.2683 -0.3940 -1.2910
  836MOL0     H15306   7.392  10.491   2.816  0.6064  0.6728  0.2185
  836MOL0     H15307   7.196  10.326   2.738 -1.9833  1.6017 -1.6358
  836MOL0     H15308   7.244  10.393   2.580 -0.3262 -1.6002  0.1383
  836MOL0     H15309   7.342  10.171   2.631  1.8330 -1.2237  1.7695
  836MOL0     H15310   7.429  10.246   2.766  1.3631 -1.7911 -1.3140
  836MOL0     H15311   7.432  10.334   2.463  2.1888  0.6086 -0.7083
  836MOL0     H15312   7.519  10.417   2.584 -1.4494  0.4048  2.8175
  836MOL0     H15313   7.657  10.196   2.607 -2.0876  0.2013  1.5306
  836MOL0     H15314   7.660  10.267   2.446  0.5015  1.2231  2.0348
  836MOL0     H15315   7.466  10.037   2.548 -0.3318 -1.5173 -0.5034
  836MOL0     H15316   7.503  10.074   2.382  0.2757 -0.3357 -0.9115
  836MOL0     H15317   7.663   9.878   2.658  0.0348 -1.5229 -0.4964
  836MOL0     H15318   7.837   9.712   2.690 -2.7498  0.7748 -0.4119
  836MOL0     H15319   7.988   9.762   2.616  0.0549  1.4459 -1.2713
  836MOL0     H15320   7.792   9.547   2.501 -0.0005  1.6671 -0.6257
  836MOL0     H15321   7.938   9.597   2.419  1.2875 -0.8114  0.6923
  836MOL0     H15322   7.933   9.471   2.701  1.6427  2.6775  0.9148
  836MOL0     H15323   7.948   9.382   2.552 -4.8933  0.9128 -0.5552
  836MOL0     H15324   8.151   9.500   2.472  1.1931  2.5152  0.9710
  836MOL0     H15325   8.167   9.559   2.642 -0.0469 -0.8506  0.7869
  836MOL0     H15326   8.297   9.129   2.614  1.9905 -1.5005 -1.4869
  836MOL0     H15327   8.481   8.965   2.621 -1.4416  3.5186  2.3048
  836MOL0     H15328   8.642   9.029   2.591  0.7026 -0.4251 -0.3862
  836MOL0     H15329   8.539   8.989   2.455 -1.0989  0.7722  0.0174
  836MOL0     H15330   8.928   9.156   2.662 -0.0816  1.4889  0.4231
  836MOL0     H15331   9.155   9.063   2.660  6.2781  3.4170  0.7459
  836MOL0     H15332   9.430   9.296   2.426  1.3554  0.2451 -0.5133
  836MOL0     H15333   9.505   9.199   2.552 -1.3233  1.8357  1.5366
  836MOL0     H15334   9.476   9.118   2.242  3.0999 -1.7720 -2.2568
  836MOL0     H15335   9.620   9.171   2.321  0.6745 -0.1282  0.5919
  836MOL0     H15336   9.456   8.924   2.405 -1.5610  0.9840 -0.9434
  836MOL0     H15337   9.611   8.988   2.488  3.5358 -1.4590 -1.7626
  836MOL0     H15338   9.670   8.798   2.338  1.3258 -0.3975  0.1295
  836MOL0     H15339   9.739   8.955   2.296 -0.0468  0.7110  0.9120
  836MOL0     H15340   9.482   8.827   2.172  1.2198 -1.1094 -2.3608
  836MOL0     H15341   9.568   8.980   2.120  0.8744  1.0479  2.7836
  836MOL0     H15342   9.765   8.830   2.084 -0.7679 -0.8737  1.2638
  836MOL0     H15343   9.632   8.810   1.966 -0.7571 -1.5746 -1.0662
  836MOL0     H15344   9.570   8.611   2.115  1.0466 -0.1154  2.0961
  836MOL0     H15345   9.726   8.610   2.185 -1.4068  1.8119  2.1878
  836MOL0     H15346   9.809   8.496   2.013 -2.2911 -2.2231  2.4193
  836MOL0     H15347   9.753   8.610   1.889 -0.3108  2.6769  0.8156
  836MOL0     H15348   9.229   9.323   2.314  0.4449 -0.2704 -0.4492
  836MOL0     H15349   9.006   9.399   2.322  0.6133  1.1938  2.5792
  836MOL0     H15350   8.589   9.494   2.462 -0.6962  0.6371  0.4529
  836MOL0     H15351   8.356   9.534   2.519 -1.5277 -0.1510  0.5588
  836MOL0     H15352   7.402  10.766   3.114  0.1285 -0.6136 -0.1943
  836MOL0     H15353   7.445  10.951   3.264  0.5610  2.3576 -0.7444
  836MOL0     H15354   7.504  11.463   3.274 -0.0925 -1.0677 -1.9637
  836MOL0     H15355   7.502  11.658   3.428  1.2243 -1.3081  0.5132
  836MOL0     H15356   7.534  11.800   3.616  0.1791 -1.9053 -2.8174
  836MOL0     H15357   7.407  11.814   3.496  3.0055 -1.4008 -1.1303
  836MOL0     H15358   7.412  12.028   3.677 -1.4557  1.5430  1.5166
  836MOL0     H15359   7.373  11.899   3.794 -6.3248  3.5982  1.6342
  836MOL0     H15360   7.163  11.876   3.743 -0.7138 -0.2022 -0.3215
  836MOL0     H15361   7.194  12.050   3.738  0.1932  0.2558 -1.8051
  836MOL0     H15362   7.043  11.979   3.585  0.8495  3.4067  1.7854
  836MOL0     H15363   7.145  11.860   3.501  1.1208  1.0140 -1.1439
  836MOL0     H15364   7.343  12.209   3.364  0.1876  2.1120  4.1749
  836MOL0     H15365   7.291  11.453   3.730 -0.3636  0.4475 -0.2503
  836MOL0     H15366   7.339  11.142   3.665  0.3729  0.1840 -1.8231
  836MOL0     H15367   7.211  11.263   3.701 -1.8023  0.0003 -1.6556
  836MOL0     H15368   7.204  11.176   3.555 -1.6967 -1.2351  1.4586
  837MOL0     O15369   6.385   0.019   6.596  0.5062  0.6530 -0.5755
  837MOL0     C15370   6.337   0.092   6.511  0.3089  0.2555 -0.5893
  837MOL0     O15371   6.397   0.192   6.439 -0.2290 -0.5585 -0.5412
  837MOL0     C15372   6.532   0.183   6.432 -1.1446 -0.1173  0.8161
  837MOL0     C15373   6.601   0.127   6.317 -0.4435 -0.3776  1.2158
  837MOL0     C15374   6.740   0.120   6.316 -0.5430 -0.2675  0.5903
  837MOL0     C15375   6.815   0.185   6.409 -1.1916  0.4300 -0.6576
  837MOL0     O15376   6.957   0.174   6.408  0.9325  0.2220 -0.5645
  837MOL0     C15377   7.029   0.204   6.525  0.2504 -0.6278  1.2166
  837MOL0     C15378   7.166   0.135   6.514  0.5133  0.0832  0.2983
  837MOL0     C15379   7.151  -0.014   6.509 -0.6490  0.3498 -0.3636
  837MOL0     C15380   7.290  -0.071   6.505  0.5076 -0.6230 -0.0012
  837MOL0     C15381   7.282  -0.222   6.519  0.1813  0.0345 -0.0708
  837MOL0     C15382   7.414  -0.292   6.514  0.5483 -0.0258  0.0249
  837MOL0     C15383   7.480  -0.267   6.655  0.0198  0.0086  0.0893
  837MOL0     C15384   7.615  -0.335   6.679  0.0560 -0.0470 -0.4987
  837MOL0     N15385   7.603  -0.478   6.659 -0.9478  0.2588 -0.2982
  837MOL0     C15386   7.520  -0.562   6.731  1.3843 -0.7439 -0.0749
  837MOL0     C15387   7.514  -0.671   6.655 -0.3045  0.2344 -0.5108
  837MOL0     C15388   7.426  -0.788   6.699 -0.9437 -0.3928  0.0821
  837MOL0     C15389   7.505  -0.886   6.789 -0.3264  0.5957  0.3951
  837MOL0     C15390   7.614  -0.972   6.728  0.4402  0.1421  0.0513
  837MOL0     C15391   7.696  -1.057   6.815  0.1484  0.1615 -0.5716
  837MOL0     O15392   7.751  -1.152   6.736 -0.2252  0.4231  0.0876
  837MOL0     C15393   7.879  -1.175   6.763  0.0160  0.0290 -0.4784
  837MOL0     C15394   7.966  -1.183   6.651  0.0764  0.4399 -1.1129
  837MOL0     C15395   8.098  -1.220   6.669 -0.3042  0.6822 -1.6462
  837MOL0     C15396   8.185  -1.223   6.543  0.6900 -0.3581  0.2270
  837MOL0     C15397   8.140  -1.269   6.795  0.1133  0.9435  0.2142
  837MOL0     C15398   8.275  -1.311   6.835 -0.3056 -0.0114 -0.0333
  837MOL0     O15399   8.347  -1.393   6.751  0.8849 -0.2423 -0.6679
  837MOL0     C15400   8.463  -1.440   6.784 -0.4721  0.0684  0.2489
  837MOL0     C15401   8.558  -1.439   6.682  0.1856  0.2801 -0.5272
  837MOL0     C15402   8.692  -1.485   6.703  0.5808 -0.1832  0.4305
  837MOL0     C15403   8.735  -1.515   6.832  0.0640  0.4840  0.6838
  837MOL0     O15404   8.861  -1.547   6.861  0.5542  0.4092 -0.0395
  837MOL0     C15405   8.982  -1.537   6.780  0.1491  0.1444  0.1958
  837MOL0     C15406   8.994  -1.669   6.698 -0.3555 -0.5938 -0.1608
  837MOL0     C15407   9.135  -1.687   6.634 -0.3730 -0.2761  0.0920
  837MOL0     C15408   9.143  -1.777   6.508 -0.1728  0.3609  0.2082
  837MOL0     C15409   9.261  -1.883   6.524  0.2643  0.6383 -0.3419
  837MOL0     C15410   9.228  -2.016   6.594  0.3670  0.6285 -0.4363
  837MOL0     C15411   9.343  -2.127   6.585  0.1286 -0.8492 -0.6547
  837MOL0     C15412   9.478  -2.058   6.600 -0.6279 -0.2379  0.4754
  837MOL0    Cl15413   9.605  -2.188   6.641 -0.0148 -0.1101  0.1752
  837MOL0     C15414   8.641  -1.521   6.930  0.2945  0.5519  0.4928
  837MOL0     C15415   8.504  -1.482   6.915 -0.5088 -0.6588 -0.0899
  837MOL0     O15416   8.318  -1.263   6.942 -0.0205 -0.0892 -0.2228
  837MOL0     C15417   8.048  -1.266   6.907  0.0492 -0.1153  0.2083
  837MOL0     C15418   7.924  -1.214   6.888 -0.4484  0.1864  0.4230
  837MOL0     N15419   7.593  -0.659   6.546 -0.4273  0.0885 -0.1147
  837MOL0     N15420   7.646  -0.548   6.550  0.1986  0.2094 -0.2419
  837MOL0     C15421   6.747   0.245   6.514 -0.6613 -0.0985  0.3941
  837MOL0     C15422   6.610   0.238   6.526 -0.5127 -0.0800 -0.6522
  837MOL0     C15423   6.189   0.067   6.496  0.1581 -0.1307  0.2876
  837MOL0     C15424   6.124   0.140   6.389  0.1420 -0.4625  0.1268
  837MOL0     C15425   5.989   0.123   6.366 -0.0278  0.0235 -0.7437
  837MOL0     C15426   5.903   0.037   6.440 -0.6717  0.1199 -1.0437
  837MOL0     O15427   5.767   0.023   6.417  0.1245  0.5301  0.3923
  837MOL0     C15428   5.697   0.129   6.345  0.4627  0.3893 -0.1887
  837MOL0     C15429   5.543   0.085   6.341  0.2817 -0.5712 -0.1296
  837MOL0     C15430   5.476   0.080   6.480  1.1579  0.1445 -0.5070
  837MOL0     C15431   5.326   0.052   6.465  0.4869  0.1668 -0.6702
  837MOL0     C15432   5.260   0.012   6.591 -0.5525  0.2563 -0.8410
  837MOL0     C15433   5.186  -0.018   6.687 -0.2034  0.1519 -0.0282
  837MOL0     C15434   5.977  -0.054   6.528  0.1555 -0.9845 -0.1185
  837MOL0     C15435   6.112  -0.041   6.553 -0.4858 -1.1632 -0.4390
  837MOL0     C15436   6.173  -0.143   6.644  0.5752  0.0662  0.0908
  837MOL0     H15437   6.537   0.101   6.233  2.2408 -0.3338 -0.9508
  837MOL0     H15438   6.790   0.079   6.228 -0.5850  3.0183 -1.1074
  837MOL0     H15439   6.976   0.164   6.612 -3.6335  0.6564 -0.3263
  837MOL0     H15440   7.028   0.313   6.540 -6.6010 -0.1862  0.8040
  837MOL0     H15441   7.211   0.183   6.426 -1.1487  0.3830 -0.4164
  837MOL0     H15442   7.227   0.171   6.598 -0.1009  0.7375  0.4796
  837MOL0     H15443   7.093  -0.043   6.597 -0.8177 -0.1646 -0.6394
  837MOL0     H15444   7.091  -0.037   6.421 -1.1655 -3.5433  0.8330
  837MOL0     H15445   7.342  -0.054   6.410 -1.4091  1.4974 -0.7526
  837MOL0     H15446   7.350  -0.019   6.580 -2.3562 -0.8309  2.6349
  837MOL0     H15447   7.222  -0.255   6.434 -0.0764 -1.6528  0.7152
  837MOL0     H15448   7.234  -0.256   6.611  0.7561 -0.2079  0.1425
  837MOL0     H15449   7.394  -0.398   6.493 -1.7218  0.8179 -2.5756
  837MOL0     H15450   7.468  -0.252   6.428  0.9815  1.2542  0.8674
  837MOL0     H15451   7.412  -0.303   6.733 -0.7824  0.9476 -0.1482
  837MOL0     H15452   7.486  -0.158   6.670 -0.7501  0.3102 -1.5246
  837MOL0     H15453   7.691  -0.290   6.614  2.4335  0.8709  2.6625
  837MOL0     H15454   7.649  -0.303   6.778 -0.3386  0.0821 -0.4043
  837MOL0     H15455   7.446  -0.532   6.805  2.6151  2.5854 -0.0326
  837MOL0     H15456   7.407  -0.844   6.608 -0.7233 -0.3728  0.0235
  837MOL0     H15457   7.330  -0.757   6.742  0.2489  1.3631  1.6571
  837MOL0     H15458   7.549  -0.830   6.872 -0.6514  1.5480 -0.0647
  837MOL0     H15459   7.431  -0.941   6.848  2.8059 -0.0189  4.1741
  837MOL0     H15460   7.555  -1.039   6.664  1.6037 -1.2367  0.3797
  837MOL0     H15461   7.685  -0.914   6.668  2.1134 -0.9191  0.9170
  837MOL0     H15462   7.771  -1.002   6.872  1.7760 -2.1533 -0.3430
  837MOL0     H15463   7.628  -1.103   6.887  1.9584 -0.1035  1.0446
  837MOL0     H15464   7.925  -1.162   6.553  1.0426  0.0640 -1.6202
  837MOL0     H15465   8.167  -1.313   6.485  0.7026 -0.7678  0.8456
  837MOL0     H15466   8.292  -1.222   6.569  1.2093  2.6793 -1.5103
  837MOL0     H15467   8.151  -1.140   6.480 -0.4170 -1.1732 -0.2577
  837MOL0     H15468   8.525  -1.428   6.579 -1.8583  4.0523  0.3209
  837MOL0     H15469   8.753  -1.497   6.614  1.9691  0.2958  1.2949
  837MOL0     H15470   8.982  -1.440   6.729  0.6545  0.3243  0.5183
  837MOL0     H15471   9.068  -1.536   6.848 -1.4305  0.5828  2.2903
  837MOL0     H15472   8.975  -1.755   6.763 -2.4507 -0.5550 -0.6468
  837MOL0     H15473   8.925  -1.682   6.614  1.2612 -0.7169 -1.5036
  837MOL0     H15474   9.207  -1.714   6.712  2.5087  1.7072 -1.6990
  837MOL0     H15475   9.149  -1.593   6.580 -3.7553 -0.4851 -1.4040
  837MOL0     H15476   9.158  -1.711   6.423  0.3360  0.3245  0.2680
  837MOL0     H15477   9.049  -1.827   6.483  0.9843 -1.4595 -0.6858
  837MOL0     H15478   9.294  -1.912   6.424  0.4723  1.6679 -0.5871
  837MOL0     H15479   9.336  -1.832   6.585 -1.3681  4.4175 -1.1767
  837MOL0     H15480   9.136  -2.061   6.558 -0.5415  0.2675  2.1322
  837MOL0     H15481   9.201  -1.994   6.698 -0.2398 -2.3111  0.1092
  837MOL0     H15482   9.345  -2.167   6.483 -0.1960  0.1992 -1.0808
  837MOL0     H15483   9.336  -2.205   6.661 -4.2252 -0.1735 -0.0739
  837MOL0     H15484   9.475  -1.996   6.690  1.5404 -0.2120  0.5950
  837MOL0     H15485   9.510  -2.015   6.505 -0.4949  1.8121  1.3998
  837MOL0     H15486   8.681  -1.565   7.021  0.1535 -1.7996 -0.4957
  837MOL0     H15487   8.440  -1.476   7.002 -3.8905  3.2149 -2.4592
  837MOL0     H15488   8.078  -1.286   7.009  2.0204  1.5015  0.0228
  837MOL0     H15489   7.858  -1.195   6.972 -0.0744 -0.3510  0.8473
  837MOL0     H15490   6.799   0.299   6.593  2.2861  1.8521 -2.6292
  837MOL0     H15491   6.558   0.269   6.616  2.6878  0.9506  0.9786
  837MOL0     H15492   6.178   0.220   6.340 -0.4624  1.4170  2.3848
  837MOL0     H15493   5.946   0.183   6.286 -0.0214  0.2418 -0.5869
  837MOL0     H15494   5.719   0.227   6.386  1.7176  0.0276  0.0623
  837MOL0     H15495   5.738   0.130   6.244  0.9699 -2.4411 -0.1015
  837MOL0     H15496   5.520  -0.012   6.296 -1.9135  0.2539 -0.9433
  837MOL0     H15497   5.486   0.145   6.270  2.5129  1.4107 -0.3772
  837MOL0     H15498   5.526  -0.004   6.529  1.6095  0.7902  0.1729
  837MOL0     H15499   5.490   0.172   6.538 -1.0070  1.0386 -1.2735
  837MOL0     H15500   5.310  -0.024   6.388  0.2802  0.5069 -0.9669
  837MOL0     H15501   5.282   0.148   6.437  3.3150  0.7742 -3.5510
  837MOL0     H15502   5.118  -0.042   6.766 -1.5696  1.6306 -0.6940
  837MOL0     H15503   5.912  -0.124   6.579 -5.8455  2.1367 -2.5110
  837MOL0     H15504   6.250  -0.197   6.588  1.0312  2.0506 -1.3161
  837MOL0     H15505   6.210  -0.108   6.741 -0.0841 -1.3671  0.8946
  837MOL0     H15506   6.097  -0.214   6.676  1.3108 -1.0025 -0.4729
  838MOL0     O15507   8.284  11.067   6.193 -0.6735 -0.5462  0.2619
  838MOL0     C15508   8.239  10.959   6.160 -0.7219  0.7077  0.0715
  838MOL0     O15509   8.314  10.843   6.156 -0.6519  0.1315 -0.2639
  838MOL0     C15510   8.438  10.854   6.213  0.6579  0.8665  0.1195
  838MOL0     C15511   8.448  10.861   6.356  0.3055 -0.1241  0.3083
  838MOL0     C15512   8.568  10.859   6.414  0.2388  0.2325 -0.5708
  838MOL0     C15513   8.681  10.820   6.341 -0.5677 -0.1009  0.3059
  838MOL0     O15514   8.808  10.795   6.394 -0.2538 -0.1394 -0.2984
  838MOL0     C15515   8.833  10.807   6.534  0.0338 -0.6957 -0.1502
  838MOL0     C15516   8.994  10.822   6.557  0.9058  0.0930  0.5091
  838MOL0     C15517   9.028  10.969   6.521  0.4078  1.3004  0.1421
  838MOL0     C15518   9.159  11.023   6.595  1.3638 -0.4499  0.0566
  838MOL0     C15519   9.181  11.165   6.538 -0.2791 -0.3155 -0.0186
  838MOL0     C15520   9.308  11.218   6.603  0.3329  0.1274  0.2985
  838MOL0     C15521   9.342  11.361   6.565 -0.6476  0.4278  0.3099
  838MOL0     C15522   9.409  11.361   6.426 -0.5386 -0.0489  0.5504
  838MOL0     N15523   9.468  11.491   6.396  0.3037  0.1926  0.2531
  838MOL0     C15524   9.588  11.534   6.439  0.5600 -0.3010  0.8194
  838MOL0     C15525   9.585  11.664   6.393 -0.9234 -1.0579 -0.6588
  838MOL0     C15526   9.698  11.768   6.370 -0.6107  0.4466 -0.9845
  838MOL0     C15527   9.832  11.699   6.336  0.6874 -0.0415  0.9347
  838MOL0     C15528   9.951  11.784   6.398  0.7009 -0.8781  0.0011
  838MOL0     C15529   9.983  11.750   6.540 -0.7472 -0.5295  0.0149
  838MOL0     O15530  10.105  11.828   6.563 -0.6337  0.7453 -0.2202
  838MOL0     C15531  10.160  11.840   6.691 -0.0372  0.2690  0.4408
  838MOL0     C15532  10.128  11.746   6.790  0.0520  0.4499  0.4886
  838MOL0     C15533  10.175  11.756   6.917 -0.1330  0.2309  0.2369
  838MOL0     C15534  10.138  11.641   7.014 -0.2573 -0.3863 -0.3127
  838MOL0     C15535  10.258  11.864   6.953  0.6498  0.6710  0.2306
  838MOL0     C15536  10.309  11.885   7.095 -0.2933 -0.3369 -0.2024
  838MOL0     O15537  10.238  11.827   7.197 -0.5524 -0.1574 -1.0182
  838MOL0     C15538  10.280  11.846   7.327 -1.0211  0.0885  0.0183
  838MOL0     C15539  10.270  11.739   7.408  0.5696  0.3718 -0.1158
  838MOL0     C15540  10.302  11.751   7.549  1.0270 -0.4989 -0.1494
  838MOL0     C15541  10.345  11.878   7.595  1.2564 -0.0887 -0.8228
  838MOL0     O15542  10.381  11.907   7.721  0.2739  0.0833 -0.5124
  838MOL0     C15543  10.381  11.807   7.818 -0.7125 -0.4970 -0.1523
  838MOL0     C15544  10.444  11.866   7.945  0.2383  0.5038 -0.1684
  838MOL0     C15545  10.598  11.881   7.931  0.3378  0.3163  0.2760
  838MOL0     C15546  10.626  12.027   7.964  0.0819 -0.6626 -0.2653
  838MOL0     C15547  10.774  12.053   7.957  0.2938 -0.2786  0.1244
  838MOL0     C15548  10.813  12.190   8.015  0.6643 -0.3191 -0.1540
  838MOL0     C15549  10.954  12.224   7.991  0.4050  0.3139 -0.0775
  838MOL0     C15550  10.998  12.331   8.094 -0.4740 -0.2763  0.1661
  838MOL0    Cl15551  10.947  12.495   8.047 -0.0783  0.5239  0.8766
  838MOL0     C15552  10.361  11.984   7.508  0.8272  0.0096 -0.7393
  838MOL0     C15553  10.329  11.969   7.378 -0.5586  0.7812  0.5777
  838MOL0     O15554  10.394  11.973   7.105  0.1160 -0.2658 -0.0953
  838MOL0     C15555  10.294  11.963   6.856 -0.5652 -0.4102  0.4955
  838MOL0     C15556  10.250  11.945   6.719  0.6942 -0.5112  0.5503
  838MOL0     N15557   9.466  11.689   6.339  0.4739 -0.3113 -0.0551
  838MOL0     N15558   9.395  11.590   6.347  0.1980  0.1303  0.6973
  838MOL0     C15559   8.672  10.815   6.204  0.4074 -0.1411 -0.7747
  838MOL0     C15560   8.557  10.838   6.140  0.5504  1.0078 -0.3388
  838MOL0     C15561   8.096  10.951   6.117  0.5547 -0.0097 -0.0307
  838MOL0     C15562   8.043  10.822   6.101 -0.0687  0.1684 -0.2054
  838MOL0     C15563   7.908  10.801   6.056 -0.8224  0.2034 -0.0355
  838MOL0     C15564   7.814  10.908   6.048  0.4132 -0.8273 -0.6165
  838MOL0     O15565   7.682  10.900   6.014  0.5394 -0.4603 -0.3755
  838MOL0     C15566   7.627  10.765   6.008 -0.7215  0.4243  0.9975
  838MOL0     C15567   7.481  10.774   5.966 -0.9895 -0.2465  0.2920
  838MOL0     C15568   7.390  10.841   6.068 -0.1576 -0.1678  0.1011
  838MOL0     C15569   7.245  10.824   6.032  1.1025  0.3700  0.2724
  838MOL0     C15570   7.151  10.932   6.087 -0.9550  0.4350  0.9645
  838MOL0     C15571   7.077  10.999   6.155 -0.0160  0.3352 -0.3816
  838MOL0     C15572   7.868  11.036   6.068  0.4357 -0.3800 -1.2198
  838MOL0     C15573   8.002  11.066   6.112  0.6181 -0.4059  0.4440
  838MOL0     C15574   8.043  11.212   6.121 -0.2767  0.5489  0.7956
  838MOL0     H15575   8.358  10.871   6.415 -0.1462  2.8392 -0.7025
  838MOL0     H15576   8.572  10.861   6.522 -1.5476 -2.6902 -0.3396
  838MOL0     H15577   8.802  10.720   6.592 -4.1269  0.1161 -0.8043
  838MOL0     H15578   8.768  10.889   6.565 -0.5403 -0.8784 -0.8199
  838MOL0     H15579   9.028  10.824   6.662 -0.5336  3.3333  1.0497
  838MOL0     H15580   9.058  10.748   6.508  0.0631  0.0013 -0.4735
  838MOL0     H15581   9.029  10.974   6.411 -1.1896 -1.8436 -0.1148
  838MOL0     H15582   8.947  11.037   6.551 -1.7618  0.0061 -2.3446
  838MOL0     H15583   9.137  11.034   6.702  2.3820 -1.7558  0.4303
  838MOL0     H15584   9.247  10.959   6.581  0.1319 -2.0870 -0.6438
  838MOL0     H15585   9.102  11.233   6.571  1.4460  0.7182  2.1668
  838MOL0     H15586   9.176  11.160   6.428 -0.5830  1.1033 -0.0913
  838MOL0     H15587   9.300  11.221   6.712  2.4268  1.2412  0.4896
  838MOL0     H15588   9.389  11.153   6.569 -1.2627 -0.3253 -3.0581
  838MOL0     H15589   9.402  11.395   6.650  1.8530 -0.1157 -1.1570
  838MOL0     H15590   9.257  11.430   6.558 -0.5822  0.6012  1.1914
  838MOL0     H15591   9.478  11.277   6.421 -1.9517 -1.2645  0.7462
  838MOL0     H15592   9.341  11.342   6.342 -0.5655  1.8580  0.0849
  838MOL0     H15593   9.672  11.478   6.479  0.4286 -1.5229 -0.5523
  838MOL0     H15594   9.704  11.824   6.464 -2.6161 -0.0366 -0.5278
  838MOL0     H15595   9.666  11.838   6.292 -0.4636 -0.7549 -2.1526
  838MOL0     H15596   9.839  11.601   6.383  2.3748  0.0761  0.9887
  838MOL0     H15597   9.841  11.690   6.228 -2.0111  1.0370  0.5318
  838MOL0     H15598  10.041  11.768   6.338 -0.6306 -4.3235 -1.3194
  838MOL0     H15599   9.914  11.886   6.391 -2.3580 -2.0113 -4.5447
  838MOL0     H15600   9.904  11.781   6.609 -0.2585  2.0541 -0.4837
  838MOL0     H15601  10.010  11.644   6.543  0.0314 -0.3338  0.2512
  838MOL0     H15602  10.064  11.663   6.760  1.3221 -1.0984  1.9284
  838MOL0     H15603  10.096  11.551   6.968  0.0312 -0.3777 -0.5960
  838MOL0     H15604  10.066  11.661   7.095  2.2091 -0.9209  2.1523
  838MOL0     H15605  10.229  11.599   7.056 -0.0409 -0.3160 -0.7126
  838MOL0     H15606  10.213  11.652   7.377  0.1679 -0.3478  2.4031
  838MOL0     H15607  10.282  11.663   7.610 -0.8901 -1.0949 -1.5417
  838MOL0     H15608  10.281  11.767   7.839 -0.2700 -1.2571  0.5758
  838MOL0     H15609  10.436  11.714   7.801 -2.2651 -1.6170  0.6704
  838MOL0     H15610  10.389  11.957   7.969 -0.4080 -0.3269  1.6935
  838MOL0     H15611  10.419  11.801   8.030  1.0887 -1.3386 -1.2686
  838MOL0     H15612  10.629  11.843   7.833 -0.1105  3.0926 -1.0208
  838MOL0     H15613  10.641  11.824   8.014  0.0219 -1.0542 -0.4632
  838MOL0     H15614  10.588  12.055   8.063 -0.6730 -1.7083 -0.2427
  838MOL0     H15615  10.575  12.095   7.895  2.4061 -1.4153 -2.9065
  838MOL0     H15616  10.824  11.983   8.024  0.2588 -0.8585 -0.4550
  838MOL0     H15617  10.813  12.031   7.857 -2.3462 -0.5096 -0.9372
  838MOL0     H15618  10.789  12.187   8.121 -0.3154 -0.2382 -0.3709
  838MOL0     H15619  10.754  12.279   7.994  2.1556  0.6459 -0.4624
  838MOL0     H15620  10.974  12.249   7.887 -1.6051 -3.8772 -1.7110
  838MOL0     H15621  11.011  12.135   8.022 -2.1711 -1.2472  0.4817
  838MOL0     H15622  11.107  12.335   8.090 -0.1042 -4.9573  0.3756
  838MOL0     H15623  10.965  12.312   8.196  0.4350  1.4137  0.8131
  838MOL0     H15624  10.395  12.080   7.544 -1.5597  0.9916 -0.8807
  838MOL0     H15625  10.331  12.059   7.317 -1.2881  0.8372  0.6182
  838MOL0     H15626  10.349  12.054   6.877 -1.2564 -0.3625  2.2441
  838MOL0     H15627  10.292  12.009   6.642  0.4288 -2.4183 -1.2439
  838MOL0     H15628   8.762  10.808   6.144  2.1105  1.3208  1.4582
  838MOL0     H15629   8.565  10.832   6.031  2.5464  1.2000 -0.2514
  838MOL0     H15630   8.103  10.735   6.121 -1.3533 -0.2741  2.1451
  838MOL0     H15631   7.878  10.698   6.037  5.0692 -1.9755  0.3531
  838MOL0     H15632   7.690  10.715   5.934 -2.2222  0.9797 -0.7254
  838MOL0     H15633   7.629  10.721   6.108  0.2168 -1.0601  0.3475
  838MOL0     H15634   7.442  10.674   5.946 -4.0996  1.4032 -2.8865
  838MOL0     H15635   7.490  10.827   5.871  3.4469 -1.8306 -0.4107
  838MOL0     H15636   7.398  10.791   6.165 -0.6016  1.1112  0.8301
  838MOL0     H15637   7.420  10.945   6.086  1.5596 -0.8433  1.4856
  838MOL0     H15638   7.216  10.721   6.056  0.6242  0.5816  0.6180
  838MOL0     H15639   7.225  10.832   5.925  0.3658 -0.1865  0.3663
  838MOL0     H15640   7.011  11.056   6.217 -3.6704 -1.4283 -2.3861
  838MOL0     H15641   7.804  11.124   6.066  1.3918  0.3738 -0.1208
  838MOL0     H15642   8.101  11.252   6.204 -1.7406  2.9237  0.7454
  838MOL0     H15643   8.094  11.246   6.031 -2.0613 -1.7543 -1.2266
  838MOL0     H15644   7.949  11.267   6.129 -0.8019 -0.4848  2.4441
  839MOL0     O15645   1.399  10.851   7.457  0.0909 -0.0772 -0.1062
  839MOL0     C15646   1.369  10.749   7.509 -0.8014  0.1091  0.1725
  839MOL0     O15647   1.449  10.647   7.525 -0.3867  0.6544  0.5647
  839MOL0     C15648   1.584  10.659   7.489 -0.7788 -0.3212  0.0657
  839MOL0     C15649   1.681  10.695   7.594 -0.1601 -1.0575 -0.0850
  839MOL0     C15650   1.817  10.707   7.566  0.5273 -0.6789 -0.3927
  839MOL0     C15651   1.867  10.682   7.440  0.3030  0.6379  0.2016
  839MOL0     O15652   1.995  10.693   7.394 -0.2743 -0.6112 -0.3862
  839MOL0     C15653   2.080  10.785   7.468 -0.0818 -0.4578 -0.1717
  839MOL0     C15654   2.163  10.719   7.576 -0.0181  0.5952  1.0239
  839MOL0     C15655   2.303  10.688   7.530 -1.2505  0.8861  0.7084
  839MOL0     C15656   2.396  10.809   7.545  0.2543  0.3042 -0.0033
  839MOL0     C15657   2.521  10.808   7.457 -0.2714  0.4077  0.5257
  839MOL0     C15658   2.593  10.937   7.464  1.3437  0.2080 -0.6625
  839MOL0     C15659   2.671  10.962   7.595 -0.0736  0.5660  0.3081
  839MOL0     C15660   2.749  11.092   7.581  0.2897 -0.1408 -0.4303
  839MOL0     N15661   2.878  11.075   7.648 -0.5478  0.3586  0.2857
  839MOL0     C15662   3.001  11.083   7.578  0.3091 -0.4834  0.0202
  839MOL0     C15663   3.095  11.057   7.672 -0.8221 -0.0423  0.2339
  839MOL0     C15664   3.249  11.062   7.657 -0.4581  0.5647 -0.2970
  839MOL0     C15665   3.318  11.150   7.557 -0.2506 -0.8344  0.4322
  839MOL0     C15666   3.472  11.150   7.579 -0.5352 -0.1224  0.3936
  839MOL0     C15667   3.546  11.266   7.512  0.0262  0.1084  0.6509
  839MOL0     O15668   3.531  11.263   7.367  0.8563 -0.6130  0.5026
  839MOL0     C15669   3.589  11.172   7.284  0.1817  0.0179  0.2901
  839MOL0     C15670   3.540  11.179   7.151 -0.8305 -0.1241  0.0270
  839MOL0     C15671   3.588  11.094   7.052 -0.2035 -0.0016 -0.3081
  839MOL0     C15672   3.557  11.144   6.908 -0.3422 -0.3479  0.1245
  839MOL0     C15673   3.677  10.984   7.086 -0.0150 -0.6841  0.0542
  839MOL0     C15674   3.722  10.883   6.985 -0.7576 -1.2853  0.5271
  839MOL0     O15675   3.720  10.911   6.849  0.5943 -0.0808  0.1475
  839MOL0     C15676   3.797  10.824   6.773  0.1120  0.4480 -0.2268
  839MOL0     C15677   3.935  10.800   6.799  0.9383 -0.6238  0.1440
  839MOL0     C15678   4.001  10.725   6.698 -0.1840 -0.9707 -0.1842
  839MOL0     C15679   3.943  10.681   6.572 -0.6185 -0.0879 -0.3312
  839MOL0     O15680   4.025  10.628   6.470  0.6261  0.3189 -0.1084
  839MOL0     C15681   4.075  10.491   6.493 -0.4928  0.0624 -0.0778
  839MOL0     C15682   4.213  10.473   6.437  0.3305 -0.4691  0.1837
  839MOL0     C15683   4.327  10.557   6.507  0.8816 -0.0968  0.9247
  839MOL0     C15684   4.457  10.477   6.520  0.0975 -0.5628 -0.5526
  839MOL0     C15685   4.564  10.585   6.551 -0.3892  0.1155 -0.0987
  839MOL0     C15686   4.544  10.667   6.675  0.0036  0.5214 -0.2085
  839MOL0     C15687   4.687  10.713   6.720  0.1523  0.2095  0.7497
  839MOL0     C15688   4.686  10.762   6.866 -0.1600 -1.0392  0.0576
  839MOL0    Cl15689   4.850  10.815   6.887 -0.3974  0.7363 -0.2887
  839MOL0     C15690   3.804  10.708   6.556  0.1984 -0.6245 -0.4926
  839MOL0     C15691   3.737  10.776   6.658 -0.1603 -0.2490  0.9529
  839MOL0     O15692   3.779  10.781   7.036  0.3504 -0.3922 -0.8416
  839MOL0     C15693   3.722  10.982   7.217 -0.9912  1.1179  1.0485
  839MOL0     C15694   3.681  11.077   7.319  0.4103  0.3655 -0.1436
  839MOL0     N15695   3.029  11.038   7.794 -0.4946 -0.4236  0.0901
  839MOL0     N15696   2.907  11.042   7.775  0.3033 -0.0190 -0.0262
  839MOL0     C15697   1.774  10.628   7.345  0.3117  0.0276 -1.0072
  839MOL0     C15698   1.639  10.626   7.361  0.3145  0.3276 -0.2628
  839MOL0     C15699   1.233  10.727   7.561  0.9164 -0.8111 -0.2675
  839MOL0     C15700   1.130  10.788   7.482 -0.0898 -0.0810 -0.6799
  839MOL0     C15701   0.994  10.763   7.520 -0.9317  0.0389 -0.4036
  839MOL0     C15702   0.968  10.674   7.630  0.6049 -0.5035 -0.2515
  839MOL0     O15703   0.833  10.650   7.649 -0.6784 -0.1236  0.1833
  839MOL0     C15704   0.797  10.530   7.716  0.4434 -0.4388  1.4578
  839MOL0     C15705   0.647  10.508   7.749  0.0833 -0.1768 -0.4545
  839MOL0     C15706   0.630  10.375   7.819 -0.5522 -0.5996  0.0915
  839MOL0     C15707   0.491  10.328   7.842  0.3008 -0.6315  0.2160
  839MOL0     C15708   0.495  10.188   7.891 -0.1918 -0.7264 -0.2519
  839MOL0     C15709   0.486  10.084   7.948 -0.0311  0.4424  1.1241
  839MOL0     C15710   1.072  10.603   7.688 -0.2370  0.0739  0.6784
  839MOL0     C15711   1.206  10.642   7.667  0.4101  0.5769 -0.6311
  839MOL0     C15712   1.303  10.551   7.751  0.0115  0.5451  0.7189
  839MOL0     H15713   1.651  10.736   7.690 -2.6942 -1.1219 -0.7796
  839MOL0     H15714   1.877  10.735   7.652 -1.2142 -1.3725  1.1049
  839MOL0     H15715   2.018  10.863   7.515 -2.1110 -1.4458 -1.0904
  839MOL0     H15716   2.141  10.827   7.387 -0.0691 -1.1874 -0.5456
  839MOL0     H15717   2.153  10.771   7.672  1.6167  3.2299 -0.1019
  839MOL0     H15718   2.109  10.625   7.590 -3.1084  2.0933  0.1465
  839MOL0     H15719   2.343  10.599   7.581  2.5425  2.0422  0.0457
  839MOL0     H15720   2.300  10.669   7.422 -2.1735 -0.5233  0.9467
  839MOL0     H15721   2.336  10.899   7.529  2.2290  1.4472 -1.6037
  839MOL0     H15722   2.413  10.812   7.653  1.0306 -2.6607  0.0566
  839MOL0     H15723   2.484  10.796   7.355 -2.0032  0.8964  1.0666
  839MOL0     H15724   2.598  10.732   7.471  2.2232  2.3213 -1.6748
  839MOL0     H15725   2.664  10.936   7.381  1.5454 -0.8388 -0.4985
  839MOL0     H15726   2.540  11.023   7.423  0.6709  1.0962  1.8684
  839MOL0     H15727   2.737  10.876   7.608  0.7319  0.8624 -1.5692
  839MOL0     H15728   2.599  10.965   7.677  0.4920 -2.6716  1.0831
  839MOL0     H15729   2.765  11.113   7.474 -1.4127 -1.4033 -0.9837
  839MOL0     H15730   2.689  11.180   7.607  0.1364  0.6706 -3.1185
  839MOL0     H15731   3.018  11.090   7.471  1.0464 -1.5005  0.0549
  839MOL0     H15732   3.280  10.959   7.637  0.5174  0.5334  1.1729
  839MOL0     H15733   3.291  11.077   7.757  0.6155 -5.3006  0.5391
  839MOL0     H15734   3.301  11.115   7.455  1.5213 -1.1402  0.2040
  839MOL0     H15735   3.272  11.249   7.559  4.0733  1.4186  1.3576
  839MOL0     H15736   3.496  11.167   7.684 -0.5048  1.0115  0.2072
  839MOL0     H15737   3.507  11.050   7.549 -2.0239 -0.8718  1.0620
  839MOL0     H15738   3.496  11.359   7.542 -2.2160 -0.9068  0.2261
  839MOL0     H15739   3.652  11.267   7.539 -0.4129 -1.5478  2.7139
  839MOL0     H15740   3.475  11.263   7.126 -0.7364 -0.5792 -1.8598
  839MOL0     H15741   3.624  11.226   6.880 -0.6403 -0.1122  0.0887
  839MOL0     H15742   3.457  11.188   6.918 -0.2210 -0.0269 -0.0384
  839MOL0     H15743   3.552  11.066   6.832  0.2457 -1.5523  1.2976
  839MOL0     H15744   3.988  10.838   6.885 -2.1506  2.3440  0.9491
  839MOL0     H15745   4.109  10.715   6.698 -0.0758  0.0004 -0.6759
  839MOL0     H15746   4.091  10.463   6.598  0.8003 -2.3510 -0.8325
  839MOL0     H15747   4.007  10.416   6.450 -0.4701 -0.6030  0.9936
  839MOL0     H15748   4.235  10.367   6.453  3.2165  0.1302  0.7523
  839MOL0     H15749   4.190  10.492   6.332 -0.9650 -5.0246 -0.6026
  839MOL0     H15750   4.288  10.576   6.608  1.0229  2.6909  0.5171
  839MOL0     H15751   4.342  10.649   6.450 -0.5571  1.0015  2.2367
  839MOL0     H15752   4.484  10.420   6.431 -1.3996 -1.2215 -0.6177
  839MOL0     H15753   4.440  10.404   6.599 -0.3372  0.1841  0.0648
  839MOL0     H15754   4.661  10.535   6.555 -0.5005 -0.0211  1.6527
  839MOL0     H15755   4.583  10.659   6.473  2.2618 -0.2201  0.1311
  839MOL0     H15756   4.491  10.612   6.753  2.0061 -0.0051  0.8604
  839MOL0     H15757   4.476  10.748   6.646 -0.0458  0.2811 -0.7623
  839MOL0     H15758   4.733  10.792   6.659 -2.0722  1.1308  0.1699
  839MOL0     H15759   4.756  10.629   6.722 -0.5313 -0.3545  0.9143
  839MOL0     H15760   4.656  10.684   6.938  2.8518 -0.9407  1.5908
  839MOL0     H15761   4.614  10.841   6.885 -4.6787 -3.8591 -3.2941
  839MOL0     H15762   3.759  10.681   6.461 -0.1179  0.4944 -0.6632
  839MOL0     H15763   3.632  10.796   6.636  0.2272  2.3570  1.1729
  839MOL0     H15764   3.800  10.912   7.244  0.1694 -0.0747 -4.3708
  839MOL0     H15765   3.715  11.061   7.421 -2.9258  3.7040  1.7697
  839MOL0     H15766   1.826  10.601   7.254  2.1481  2.0551 -0.6712
  839MOL0     H15767   1.572  10.582   7.289 -0.8040  0.7344  0.5109
  839MOL0     H15768   1.152  10.849   7.396 -3.0078 -0.3269 -1.7264
  839MOL0     H15769   0.914  10.814   7.467 -1.9953 -0.3172  0.8014
  839MOL0     H15770   0.833  10.446   7.656 -0.9490  0.8507 -1.3345
  839MOL0     H15771   0.849  10.520   7.812  1.5657 -2.5815  0.6953
  839MOL0     H15772   0.601  10.509   7.650  0.1663 -1.6108 -0.5229
  839MOL0     H15773   0.613  10.594   7.806 -0.0870 -0.5393 -0.0045
  839MOL0     H15774   0.677  10.302   7.753 -1.9115 -0.5987 -0.9349
  839MOL0     H15775   0.679  10.382   7.917 -0.6208 -0.9455  0.1544
  839MOL0     H15776   0.429  10.349   7.754  0.1525  0.0408  0.4739
  839MOL0     H15777   0.443  10.392   7.917  0.7013 -0.8382  0.6506
  839MOL0     H15778   0.476   9.988   7.995  2.4597  0.2605  1.3873
  839MOL0     H15779   1.046  10.519   7.752 -1.2205 -0.0373  0.1429
  839MOL0     H15780   1.263  10.507   7.843  3.9928  0.0624  2.4242
  839MOL0     H15781   1.335  10.472   7.683  2.1541 -1.7429  4.0751
  839MOL0     H15782   1.384  10.621   7.772  1.8683 -0.8225 -1.4459
  840MOL0     O15783   4.908   2.277   4.413 -0.8673  0.4164  0.9958
  840MOL0     C15784   4.872   2.167   4.454 -0.1800  0.3168  0.0185
  840MOL0     O15785   4.962   2.056   4.457 -0.3046 -0.2804 -0.9493
  840MOL0     C15786   5.092   2.073   4.406  0.5484  0.6234 -1.0291
  840MOL0     C15787   5.178   2.179   4.429 -0.5280 -1.1445  0.0281
  840MOL0     C15788   5.316   2.157   4.402  0.1817 -1.1481 -0.3350
  840MOL0     C15789   5.361   2.043   4.339 -0.5614  0.0705  0.4012
  840MOL0     O15790   5.493   2.040   4.320  0.4737 -0.0964  0.3127
  840MOL0     C15791   5.543   1.983   4.197 -0.5094 -0.9369 -0.2297
  840MOL0     C15792   5.660   2.060   4.148  0.4403  0.3601  0.5129
  840MOL0     C15793   5.795   2.040   4.217 -1.2179 -0.0673 -1.0191
  840MOL0     C15794   5.873   2.169   4.191  0.4761  0.3517 -0.8299
  840MOL0     C15795   6.018   2.160   4.251  0.9070 -0.2960  0.0818
  840MOL0     C15796   6.095   2.285   4.210 -0.6603 -0.1255 -0.3407
  840MOL0     C15797   6.237   2.290   4.278 -0.3084  0.8421  0.0563
  840MOL0     C15798   6.322   2.167   4.260 -0.4492  0.5614 -0.4190
  840MOL0     N15799   6.440   2.193   4.334  0.3892 -0.5583 -0.2492
  840MOL0     C15800   6.459   2.174   4.468  0.1868  0.3973 -0.0598
  840MOL0     C15801   6.585   2.209   4.482  0.4006 -0.8085  0.1450
  840MOL0     C15802   6.662   2.187   4.606 -0.2956 -0.5446  0.2464
  840MOL0     C15803   6.731   2.313   4.649  0.7952  0.3226 -0.5980
  840MOL0     C15804   6.832   2.284   4.758 -0.7815  0.1528 -0.4306
  840MOL0     C15805   6.899   2.404   4.832 -0.3466 -0.2546  0.2516
  840MOL0     O15806   6.958   2.356   4.951 -0.1956  0.3020  0.3812
  840MOL0     C15807   7.093   2.343   4.961  0.1132  0.7195 -0.1660
  840MOL0     C15808   7.194   2.337   4.860 -0.0544 -0.2655 -0.3068
  840MOL0     C15809   7.329   2.315   4.893 -0.1953  0.4081  0.2690
  840MOL0     C15810   7.431   2.305   4.773 -0.0318  0.0032 -0.5348
  840MOL0     C15811   7.357   2.283   5.025 -0.2180  0.2462 -0.1472
  840MOL0     C15812   7.485   2.235   5.068  0.2105 -0.4289  0.4416
  840MOL0     O15813   7.592   2.317   5.036 -0.5787  0.6549 -1.4314
  840MOL0     C15814   7.717   2.288   5.082 -0.4448  0.2367  0.1542
  840MOL0     C15815   7.816   2.250   4.988  0.0256 -0.2947 -0.4470
  840MOL0     C15816   7.943   2.215   5.029  0.0318  0.0473  0.7534
  840MOL0     C15817   7.977   2.232   5.161 -0.0208  0.5916  1.2188
  840MOL0     O15818   8.096   2.189   5.215  0.2645 -1.2591  0.3957
  840MOL0     C15819   8.189   2.119   5.129  0.0990  0.2618 -0.1536
  840MOL0     C15820   8.279   2.036   5.218 -0.4519  0.6320 -0.2314
  840MOL0     C15821   8.401   2.119   5.264  0.2995  0.2389  1.0375
  840MOL0     C15822   8.473   2.028   5.364 -0.6535 -0.1028  0.2491
  840MOL0     C15823   8.623   2.075   5.381 -0.3758  0.2812 -0.4798
  840MOL0     C15824   8.677   1.998   5.502 -0.4470 -0.3076 -0.0246
  840MOL0     C15825   8.690   1.847   5.479  0.8428  0.9446 -0.2872
  840MOL0     C15826   8.580   1.779   5.567  0.4668  0.3098  0.2159
  840MOL0    Cl15827   8.600   1.806   5.737 -0.6220  0.3718  0.1310
  840MOL0     C15828   7.880   2.285   5.249 -0.0267  0.3422 -0.6345
  840MOL0     C15829   7.754   2.297   5.215  0.5297 -0.8223  0.1156
  840MOL0     O15830   7.486   2.132   5.135 -0.1504  0.7027  1.3316
  840MOL0     C15831   7.259   2.278   5.124 -0.1739  0.4444  0.0235
  840MOL0     C15832   7.127   2.311   5.091  0.4652  0.1565  0.6114
  840MOL0     N15833   6.646   2.259   4.370 -0.0987 -0.2238  0.3152
  840MOL0     N15834   6.550   2.244   4.278 -0.5681 -0.5122  0.0369
  840MOL0     C15835   5.270   1.946   4.304  0.1709 -0.2412  0.2396
  840MOL0     C15836   5.136   1.963   4.330 -0.2761 -0.0271 -0.0386
  840MOL0     C15837   4.740   2.165   4.518 -0.5753 -0.3567  0.1210
  840MOL0     C15838   4.718   2.057   4.605 -0.0938  0.4653 -0.2339
  840MOL0     C15839   4.605   2.044   4.681 -0.5081 -0.6089 -0.3262
  840MOL0     C15840   4.496   2.133   4.670  0.3885  0.1637  0.1941
  840MOL0     O15841   4.380   2.110   4.745 -1.1724 -0.3618  0.3693
  840MOL0     C15842   4.259   2.177   4.705 -0.3521 -0.2292 -1.0366
  840MOL0     C15843   4.132   2.109   4.746 -0.0412 -0.3615 -0.4537
  840MOL0     C15844   4.140   2.028   4.878  0.1720 -0.7549 -0.4965
  840MOL0     C15845   4.018   1.955   4.901 -0.4875  0.2779  0.3775
  840MOL0     C15846   4.035   1.843   4.981 -0.6476 -0.5051 -0.4132
  840MOL0     C15847   4.037   1.748   5.059 -0.0382  0.1125 -0.3783
  840MOL0     C15848   4.509   2.242   4.587 -0.6632 -0.4335 -0.1667
  840MOL0     C15849   4.634   2.267   4.517  0.9801  0.1722 -0.8423
  840MOL0     C15850   4.650   2.400   4.444 -0.5690 -0.1638  0.1733
  840MOL0     H15851   5.148   2.260   4.495 -0.2210 -2.3809  1.7805
  840MOL0     H15852   5.385   2.231   4.442 -0.8585 -1.1958  1.6860
  840MOL0     H15853   5.470   1.990   4.116 -0.4309  1.8134 -0.1341
  840MOL0     H15854   5.574   1.880   4.219  4.0994  0.0477 -0.9667
  840MOL0     H15855   5.681   2.031   4.045  3.1260  1.0689  0.7669
  840MOL0     H15856   5.633   2.166   4.144  1.2783  0.5531 -2.9392
  840MOL0     H15857   5.791   2.013   4.323 -0.3741  3.3248  0.0154
  840MOL0     H15858   5.857   1.965   4.167  0.4117  1.6883 -1.7535
  840MOL0     H15859   5.882   2.175   4.082 -3.0735 -1.9135 -1.4225
  840MOL0     H15860   5.819   2.255   4.233 -1.3552 -1.2699  0.3383
  840MOL0     H15861   6.058   2.066   4.213  0.6469  0.3489 -1.9209
  840MOL0     H15862   6.011   2.157   4.360 -2.9641 -3.1435 -0.0175
  840MOL0     H15863   6.108   2.279   4.102 -0.4408  0.8080 -0.3716
  840MOL0     H15864   6.047   2.378   4.239  0.4296  0.7876 -1.3687
  840MOL0     H15865   6.218   2.296   4.385  1.8856 -0.7746  0.6069
  840MOL0     H15866   6.287   2.383   4.249  2.4893 -0.5617  0.0733
  840MOL0     H15867   6.267   2.075   4.283  2.3339 -2.0036 -3.1129
  840MOL0     H15868   6.346   2.152   4.155  0.1340 -1.8836 -0.0041
  840MOL0     H15869   6.390   2.145   4.546 -0.2544 -2.9624 -1.5071
  840MOL0     H15870   6.729   2.102   4.592 -1.9655 -1.9460  0.5133
  840MOL0     H15871   6.599   2.150   4.688 -0.7851 -2.8967 -1.1127
  840MOL0     H15872   6.794   2.357   4.570  4.3245 -1.0323  1.2152
  840MOL0     H15873   6.659   2.386   4.686  0.8770 -0.0151  0.2447
  840MOL0     H15874   6.778   2.232   4.837  0.6388 -2.5153 -1.0932
  840MOL0     H15875   6.901   2.205   4.725 -1.0344 -0.7787  1.1583
  840MOL0     H15876   6.972   2.461   4.775  0.6634  1.7312  3.2609
  840MOL0     H15877   6.813   2.470   4.842 -1.2539 -1.4321  0.5343
  840MOL0     H15878   7.169   2.346   4.755 -0.1763 -2.8738 -0.5567
  840MOL0     H15879   7.374   2.281   4.683 -1.3072 -0.5653  0.3933
  840MOL0     H15880   7.503   2.226   4.796 -0.8877 -0.9630 -1.0546
  840MOL0     H15881   7.486   2.399   4.768 -0.8687  0.7658  2.4893
  840MOL0     H15882   7.794   2.269   4.883 -1.4336 -1.6475 -0.4160
  840MOL0     H15883   8.014   2.186   4.953  0.1254 -0.3427  0.9865
  840MOL0     H15884   8.128   2.054   5.065 -0.6143  0.0870  0.6866
  840MOL0     H15885   8.240   2.198   5.074 -0.0165  0.9886  0.7516
  840MOL0     H15886   8.214   1.999   5.297 -3.2613  1.1660 -2.1304
  840MOL0     H15887   8.316   1.950   5.163 -1.8129  0.8150 -1.4947
  840MOL0     H15888   8.366   2.206   5.321  0.4055  0.6963  0.4159
  840MOL0     H15889   8.462   2.152   5.179 -2.0137 -2.0427 -1.7143
  840MOL0     H15890   8.498   1.931   5.319  0.3325 -1.0474  2.6719
  840MOL0     H15891   8.402   2.022   5.446 -1.7091 -1.7227 -0.7311
  840MOL0     H15892   8.686   2.049   5.296  2.0208 -1.0569  1.5504
  840MOL0     H15893   8.622   2.183   5.397 -0.5427  0.2385 -0.1869
  840MOL0     H15894   8.610   2.023   5.586  0.9768  0.4349  0.9407
  840MOL0     H15895   8.773   2.032   5.541 -1.5483 -1.0806  3.8896
  840MOL0     H15896   8.791   1.815   5.505 -0.3467 -2.8933  0.2188
  840MOL0     H15897   8.676   1.821   5.374 -1.2230 -1.0965  0.4021
  840MOL0     H15898   8.573   1.670   5.560 -0.3484  0.3047  0.9479
  840MOL0     H15899   8.481   1.814   5.537  1.5999  2.6739 -1.0142
  840MOL0     H15900   7.914   2.310   5.349  1.0093 -2.5945 -0.1402
  840MOL0     H15901   7.678   2.326   5.286  1.4247  0.1120  0.7130
  840MOL0     H15902   7.284   2.251   5.226 -0.6370  2.6029  0.7745
  840MOL0     H15903   7.051   2.319   5.168  0.2532  0.1619  0.4038
  840MOL0     H15904   5.322   1.863   4.257  1.4556  2.2012 -3.0113
  840MOL0     H15905   5.062   1.886   4.311 -0.7217 -0.0711  1.7178
  840MOL0     H15906   4.784   1.971   4.604 -2.1194 -1.1625 -1.6667
  840MOL0     H15907   4.601   1.969   4.760 -2.5698 -0.0408  0.1785
  840MOL0     H15908   4.254   2.280   4.741 -0.9643 -0.4113 -0.5788
  840MOL0     H15909   4.253   2.184   4.596 -1.2615 -1.9439 -1.1293
  840MOL0     H15910   4.103   2.040   4.666 -0.0294 -2.0264  0.9269
  840MOL0     H15911   4.051   2.182   4.754 -2.8973 -3.0308 -2.3652
  840MOL0     H15912   4.230   1.965   4.878  1.0936  0.4831  0.9454
  840MOL0     H15913   4.166   2.101   4.956 -0.4059 -1.1105  0.0396
  840MOL0     H15914   3.985   1.919   4.803 -2.8873 -1.5396  1.7714
  840MOL0     H15915   3.943   2.022   4.942 -0.6963 -0.0100  0.4657
  840MOL0     H15916   4.038   1.664   5.125 -0.7079  0.7115  0.4084
  840MOL0     H15917   4.433   2.318   4.569  1.6649  2.2311  0.4295
  840MOL0     H15918   4.726   2.465   4.489  0.1199 -0.3260 -0.7286
  840MOL0     H15919   4.683   2.366   4.345  1.9705 -3.5587  1.9700
  840MOL0     H15920   4.560   2.462   4.436  0.3899  1.2797  0.0734
  841MOL0     O15921   3.038   4.002  10.453  0.5672 -0.5287  0.0027
  841MOL0     C15922   3.112   3.933  10.518 -0.3175 -0.5862 -0.0503
  841MOL0     O15923   3.081   3.819  10.590  0.3387 -0.4348 -0.2316
  841MOL0     C15924   2.975   3.744  10.537  0.6936 -0.1113 -0.5137
  841MOL0     C15925   2.984   3.681  10.411 -0.3297 -0.4414  1.1059
  841MOL0     C15926   2.878   3.604  10.361 -0.3143  0.0660  0.6230
  841MOL0     C15927   2.769   3.590  10.436 -0.4314 -0.6037 -0.8306
  841MOL0     O15928   2.672   3.498  10.396 -0.2328 -0.0626 -1.2866
  841MOL0     C15929   2.612   3.518  10.266  0.1001  0.1237  0.1105
  841MOL0     C15930   2.517   3.407  10.225 -0.8732  0.1073 -0.2071
  841MOL0     C15931   2.597   3.275  10.215  0.7902 -1.3576  0.1276
  841MOL0     C15932   2.540   3.173  10.120 -0.8734  0.5608  1.1099
  841MOL0     C15933   2.507   3.225   9.977 -0.0246  0.1646  0.3558
  841MOL0     C15934   2.440   3.104   9.909  0.4108 -0.2607  0.0658
  841MOL0     C15935   2.384   3.136   9.772  0.3364  0.7418  1.1762
  841MOL0     C15936   2.305   3.017   9.727  0.3953 -0.0262  0.1284
  841MOL0     N15937   2.398   2.908   9.686  0.5271 -0.0470 -0.4411
  841MOL0     C15938   2.448   2.804   9.761 -0.4301 -0.3787  0.4080
  841MOL0     C15939   2.533   2.740   9.672 -0.0412  1.0316 -0.4036
  841MOL0     C15940   2.624   2.625   9.716 -0.2964  0.3679 -0.9126
  841MOL0     C15941   2.742   2.592   9.618 -0.2793  0.2079  0.6498
  841MOL0     C15942   2.825   2.468   9.667 -0.0878 -1.1817  0.1298
  841MOL0     C15943   2.930   2.401   9.576 -1.0211 -0.1022  0.0615
  841MOL0     O15944   3.003   2.485   9.479  0.0496  0.3368 -0.2703
  841MOL0     C15945   3.067   2.418   9.382 -0.6120  0.6477  0.2142
  841MOL0     C15946   3.044   2.459   9.249  0.2260  0.0531  0.5623
  841MOL0     C15947   3.112   2.391   9.135 -0.1737 -0.3938  0.0805
  841MOL0     C15948   3.072   2.428   8.997 -0.1697 -0.5693 -0.4234
  841MOL0     C15949   3.198   2.276   9.164 -0.6139 -1.0180 -1.0818
  841MOL0     C15950   3.272   2.204   9.064  0.9305 -1.0953 -0.2553
  841MOL0     O15951   3.264   2.237   8.931 -0.3404 -0.2240  0.3813
  841MOL0     C15952   3.314   2.166   8.828 -0.4100 -0.1717 -0.2837
  841MOL0     C15953   3.285   2.211   8.700  0.1868 -0.5228 -0.6000
  841MOL0     C15954   3.334   2.154   8.582 -0.9813 -0.1829  0.0908
  841MOL0     C15955   3.408   2.037   8.590  0.4151 -0.3477 -0.1772
  841MOL0     O15956   3.433   1.975   8.475 -0.4832  0.5134  0.4699
  841MOL0     C15957   3.557   1.893   8.474 -0.0291  0.7724  1.0737
  841MOL0     C15958   3.601   1.872   8.328  0.6391 -0.4489 -0.4464
  841MOL0     C15959   3.719   1.787   8.299  0.4501 -0.4804 -0.6382
  841MOL0     C15960   3.675   1.635   8.315  0.0655 -1.4258  0.5320
  841MOL0     C15961   3.564   1.598   8.208  0.3746  0.5479 -0.5429
  841MOL0     C15962   3.549   1.447   8.191 -0.2794  0.4888 -0.3224
  841MOL0     C15963   3.678   1.366   8.173 -0.4643  0.4055 -0.2787
  841MOL0     C15964   3.658   1.216   8.140 -0.6907  0.4962  0.2170
  841MOL0    Cl15965   3.809   1.122   8.122 -0.5095 -0.3914 -0.0068
  841MOL0     C15966   3.443   1.990   8.720  0.5185 -0.1127 -0.2672
  841MOL0     C15967   3.394   2.054   8.833 -0.0595  0.6024  0.5965
  841MOL0     O15968   3.347   2.117   9.111  0.1054 -0.1221  0.0823
  841MOL0     C15969   3.204   2.236   9.300  0.0093  0.6278 -0.6379
  841MOL0     C15970   3.144   2.302   9.408 -1.0166 -0.2615 -0.3023
  841MOL0     N15971   2.513   2.790   9.547  0.2224  0.7294 -0.3175
  841MOL0     N15972   2.429   2.889   9.556  0.2046  0.0562  0.2340
  841MOL0     C15973   2.755   3.641  10.570 -0.1844 -0.2447  0.2095
  841MOL0     C15974   2.859   3.724  10.624 -0.2538 -0.2343  0.0265
  841MOL0     C15975   3.248   3.982  10.548 -0.5430  0.9825 -0.5895
  841MOL0     C15976   3.293   3.980  10.679 -0.3985  1.3278  0.1764
  841MOL0     C15977   3.411   4.036  10.725  1.1676  0.9470 -0.7628
  841MOL0     C15978   3.500   4.088  10.630 -0.1045  0.0271  0.7895
  841MOL0     O15979   3.629   4.124  10.655 -0.7651  0.0328 -0.2023
  841MOL0     C15980   3.667   4.178  10.781 -0.0802  0.1155  0.9314
  841MOL0     C15981   3.611   4.315  10.787 -0.8031 -0.0306 -0.4431
  841MOL0     C15982   3.724   4.418  10.762 -0.1693  0.5447 -0.2052
  841MOL0     C15983   3.753   4.444  10.608 -0.8229  0.9309  0.2834
  841MOL0     C15984   3.821   4.573  10.587 -0.4699 -0.0798  0.4790
  841MOL0     C15985   3.882   4.676  10.558 -0.3314 -0.0708 -0.0584
  841MOL0     C15986   3.457   4.101  10.496 -0.2617 -0.4226 -0.0543
  841MOL0     C15987   3.329   4.050  10.459 -0.2672  0.9660 -0.7894
  841MOL0     C15988   3.276   4.078  10.320 -0.3155  0.6034  0.0385
  841MOL0     H15989   3.078   3.689  10.358  0.2549  1.3691  2.3306
  841MOL0     H15990   2.900   3.568  10.261 -0.1374  1.9430 -0.0528
  841MOL0     H15991   2.684   3.533  10.185 -1.7178  0.1220 -1.5889
  841MOL0     H15992   2.554   3.611  10.270  0.3201  0.2629  0.0573
  841MOL0     H15993   2.438   3.409  10.300 -0.7647 -0.1861 -0.0825
  841MOL0     H15994   2.480   3.433  10.125  1.1321 -0.4862 -1.1539
  841MOL0     H15995   2.704   3.287  10.197  0.9770 -1.5906  1.0185
  841MOL0     H15996   2.587   3.219  10.309  0.2970 -1.9910 -0.2894
  841MOL0     H15997   2.616   3.095  10.103 -0.5926  1.2263 -0.9270
  841MOL0     H15998   2.451   3.120  10.155 -0.8757 -1.0631 -1.0845
  841MOL0     H15999   2.591   3.269   9.923 -1.6278  0.0055 -2.4315
  841MOL0     H16000   2.427   3.299   9.978 -1.7608 -1.6030 -1.1519
  841MOL0     H16001   2.516   3.027   9.895  1.0804  0.5661 -1.0749
  841MOL0     H16002   2.360   3.083   9.980 -1.4017  2.4351 -1.0194
  841MOL0     H16003   2.463   3.159   9.700 -0.2334  2.1608  0.9678
  841MOL0     H16004   2.321   3.226   9.777 -4.4678 -2.0648 -1.2309
  841MOL0     H16005   2.240   2.997   9.813 -1.2569 -0.8515 -1.2493
  841MOL0     H16006   2.244   3.034   9.638 -0.3571  0.6579  0.7607
  841MOL0     H16007   2.433   2.799   9.868 -1.7153  0.7234  0.3152
  841MOL0     H16008   2.549   2.546   9.710 -1.0288  1.0811 -1.4790
  841MOL0     H16009   2.659   2.653   9.815 -1.9096 -0.5508 -0.0474
  841MOL0     H16010   2.698   2.553   9.525 -1.0889 -1.0414  1.5264
  841MOL0     H16011   2.810   2.674   9.592 -2.0958  0.9236 -2.3317
  841MOL0     H16012   2.864   2.493   9.766 -2.9804  0.7919  0.9338
  841MOL0     H16013   2.756   2.385   9.683  0.4494 -1.6700 -0.0470
  841MOL0     H16014   2.994   2.342   9.641  0.9151  0.2770 -1.4094
  841MOL0     H16015   2.886   2.324   9.511 -0.7108  0.1223 -0.4250
  841MOL0     H16016   2.971   2.534   9.220 -2.1728 -1.3797  2.4861
  841MOL0     H16017   3.074   2.349   8.922 -1.3278 -1.0906  0.0768
  841MOL0     H16018   3.156   2.492   8.968  1.6669 -2.1297  1.1352
  841MOL0     H16019   2.980   2.486   8.994  0.6262  1.0308  2.2039
  841MOL0     H16020   3.210   2.287   8.681  2.2594  1.2324 -2.3517
  841MOL0     H16021   3.321   2.214   8.493  0.2156  3.4453  2.1395
  841MOL0     H16022   3.640   1.939   8.529  1.4805  1.9018 -1.9019
  841MOL0     H16023   3.524   1.795   8.510 -2.3831  1.5480  1.1853
  841MOL0     H16024   3.509   1.856   8.271 -0.1217  0.4391  0.4818
  841MOL0     H16025   3.646   1.970   8.312  2.7879 -1.6121 -1.9975
  841MOL0     H16026   3.805   1.817   8.360 -1.9352  0.8947  2.3323
  841MOL0     H16027   3.746   1.796   8.193  1.7879 -1.3273 -0.3954
  841MOL0     H16028   3.650   1.623   8.421  1.0415  2.0884  1.2990
  841MOL0     H16029   3.766   1.581   8.289 -1.5119 -2.1322 -4.6406
  841MOL0     H16030   3.467   1.631   8.245 -0.1017 -0.0380 -1.2433
  841MOL0     H16031   3.587   1.649   8.113  1.8346  1.1713  0.1128
  841MOL0     H16032   3.479   1.418   8.113 -2.2404  1.7102  0.9107
  841MOL0     H16033   3.501   1.409   8.282 -0.0674  0.8008 -0.0761
  841MOL0     H16034   3.729   1.350   8.268 -0.6476  0.1246 -0.2269
  841MOL0     H16035   3.747   1.403   8.097  1.4232 -0.1989  1.0858
  841MOL0     H16036   3.592   1.199   8.054  1.0692  0.7284 -1.2311
  841MOL0     H16037   3.605   1.162   8.219  0.2740 -2.0045 -0.7513
  841MOL0     H16038   3.495   1.896   8.739 -1.5536 -1.3825 -0.5889
  841MOL0     H16039   3.437   2.004   8.920  2.1937 -1.3632 -1.4944
  841MOL0     H16040   3.262   2.148   9.329  0.7917  1.8005  1.5835
  841MOL0     H16041   3.147   2.257   9.507 -2.1186  1.3085  0.4770
  841MOL0     H16042   2.669   3.606  10.626  0.6414 -1.8426  0.5277
  841MOL0     H16043   2.865   3.768  10.723  2.2329 -2.6872  1.0835
  841MOL0     H16044   3.247   3.928  10.762  2.2848 -1.3839  0.1140
  841MOL0     H16045   3.437   4.015  10.829  0.5952 -0.0346 -0.8039
  841MOL0     H16046   3.639   4.128  10.873 -2.8257  0.7639  0.5470
  841MOL0     H16047   3.776   4.175  10.781 -0.0562 -2.4757 -1.1591
  841MOL0     H16048   3.571   4.336  10.887 -0.1506 -1.2597  0.0882
  841MOL0     H16049   3.520   4.324  10.726 -0.9873 -1.4689 -0.4110
  841MOL0     H16050   3.705   4.519  10.799  0.7853  0.9222 -0.7117
  841MOL0     H16051   3.815   4.382  10.811 -0.7115 -1.2191 -0.4292
  841MOL0     H16052   3.656   4.436  10.559 -1.7201  0.5441  2.0259
  841MOL0     H16053   3.822   4.373  10.561 -0.4094 -0.8562  3.2970
  841MOL0     H16054   3.937   4.765  10.531 -1.6919  0.5903 -0.7562
  841MOL0     H16055   3.524   4.148  10.424  1.7387  0.3392  2.1951
  841MOL0     H16056   3.196   4.153  10.325  1.5576  2.6801  0.2242
  841MOL0     H16057   3.357   4.109  10.254 -0.5812 -1.7394 -1.4948
  841MOL0     H16058   3.249   3.981  10.276  1.8679  0.3106 -0.7473
  842MOL0     O16059   8.126   2.799   6.905 -0.0681  0.1763  0.3128
  842MOL0     C16060   8.058   2.812   7.009 -0.2770  0.6140 -0.6658
  842MOL0     O16061   8.103   2.785   7.135 -0.6343  0.2801 -0.7502
  842MOL0     C16062   8.239   2.758   7.152  0.0390 -1.0400 -0.2846
  842MOL0     C16063   8.318   2.859   7.215  0.0059  0.4046 -0.4766
  842MOL0     C16064   8.453   2.840   7.237 -0.5457  0.1180  0.0439
  842MOL0     C16065   8.514   2.716   7.197 -0.0463 -0.4032  1.0271
  842MOL0     O16066   8.640   2.683   7.206  0.5660  0.7105 -0.2619
  842MOL0     C16067   8.709   2.737   7.316 -0.2025 -0.3390  1.1089
  842MOL0     C16068   8.846   2.672   7.339 -0.4062  0.1296  0.1179
  842MOL0     C16069   8.939   2.677   7.210  0.3467  1.0949 -0.2589
  842MOL0     C16070   8.956   2.824   7.171 -0.5928 -0.3105 -0.4926
  842MOL0     C16071   9.079   2.863   7.081 -0.4147 -0.7821 -0.0722
  842MOL0     C16072   9.072   2.779   6.950  0.1046  0.1276 -0.3194
  842MOL0     C16073   9.198   2.815   6.862 -0.4534  0.3137 -0.4549
  842MOL0     C16074   9.194   2.769   6.713  0.0509  0.3931  0.0997
  842MOL0     N16075   9.164   2.633   6.692  0.0686  0.7156 -0.3400
  842MOL0     C16076   9.262   2.540   6.646  0.4207 -0.4499  0.9569
  842MOL0     C16077   9.195   2.450   6.564 -0.4660 -0.5678 -0.1689
  842MOL0     C16078   9.252   2.343   6.485 -0.4546 -0.9321 -0.0643
  842MOL0     C16079   9.258   2.370   6.337  1.0559  0.2847  0.5180
  842MOL0     C16080   9.346   2.273   6.256 -0.3970  0.7442  0.0360
  842MOL0     C16081   9.491   2.262   6.302  0.3751 -0.2007 -0.9798
  842MOL0     O16082   9.543   2.391   6.356 -0.5098 -0.0032  0.0749
  842MOL0     C16083   9.648   2.387   6.450 -0.5273  0.3801  0.4580
  842MOL0     C16084   9.721   2.276   6.477 -0.1873  0.2298 -0.1024
  842MOL0     C16085   9.821   2.264   6.564 -0.4898  0.0907 -0.8085
  842MOL0     C16086   9.881   2.130   6.579  0.0916 -0.5223 -0.5446
  842MOL0     C16087   9.885   2.384   6.623  0.6019  0.8616  0.5748
  842MOL0     C16088   9.989   2.386   6.724 -0.0981 -0.5029 -0.5169
  842MOL0     O16089  10.057   2.506   6.742  0.3253 -0.3903  0.2608
  842MOL0     C16090  10.158   2.525   6.834 -0.3161  0.2827 -0.4488
  842MOL0     C16091  10.136   2.568   6.965  0.6227 -0.4018 -0.7547
  842MOL0     C16092  10.237   2.586   7.059  0.3098  0.1747 -1.7076
  842MOL0     C16093  10.366   2.561   7.019 -0.0693  0.6105 -0.3078
  842MOL0     O16094  10.452   2.568   7.124  1.0660  0.5306 -0.4121
  842MOL0     C16095  10.593   2.554   7.103 -0.1450 -0.2825 -0.5418
  842MOL0     C16096  10.672   2.601   7.223  0.0967  0.2281 -0.2494
  842MOL0     C16097  10.806   2.538   7.249 -0.8155  0.3664 -0.6007
  842MOL0     C16098  10.914   2.562   7.148  0.1402 -0.1588 -0.2989
  842MOL0     C16099  11.047   2.495   7.182 -0.3406  0.2819 -0.3805
  842MOL0     C16100  11.054   2.342   7.164  0.1440  0.1336 -0.9741
  842MOL0     C16101  11.198   2.281   7.185  0.5312  0.2518 -0.6179
  842MOL0     C16102  11.298   2.331   7.087  0.1133 -0.2913 -0.0593
  842MOL0    Cl16103  11.441   2.222   7.089  0.1780 -0.1813  0.0930
  842MOL0     C16104  10.401   2.514   6.891 -0.3822 -0.5904  0.4642
  842MOL0     C16105  10.290   2.501   6.802 -0.5449 -0.2607  0.0572
  842MOL0     O16106  10.015   2.285   6.784  0.5641 -0.6340 -0.5472
  842MOL0     C16107   9.819   2.504   6.588 -0.1037 -0.2250  0.5588
  842MOL0     C16108   9.702   2.503   6.506 -0.2945 -0.4551  0.4296
  842MOL0     N16109   9.063   2.479   6.583  0.2981  0.6766 -0.3735
  842MOL0     N16110   9.045   2.582   6.656 -0.6403 -0.6930  0.6320
  842MOL0     C16111   8.436   2.617   7.136  0.3748 -0.1195 -0.4663
  842MOL0     C16112   8.303   2.643   7.105  0.2140  0.5296 -0.2220
  842MOL0     C16113   7.923   2.873   6.992  0.7437 -0.3430  0.0267
  842MOL0     C16114   7.887   2.944   6.875  0.2989 -0.7675 -0.5639
  842MOL0     C16115   7.756   2.993   6.851 -0.6378 -0.4294  0.0895
  842MOL0     C16116   7.653   2.985   6.948 -0.1087 -0.1646 -0.5783
  842MOL0     O16117   7.538   3.047   6.917  0.1463 -0.7272  0.2140
  842MOL0     C16118   7.488   3.129   7.032 -0.5574  0.5084  0.0663
  842MOL0     C16119   7.435   3.249   6.964  0.5922 -0.3525 -0.4960
  842MOL0     C16120   7.406   3.361   7.073 -0.4858 -0.3975 -0.6602
  842MOL0     C16121   7.529   3.441   7.099 -0.5544 -1.6960  0.2229
  842MOL0     C16122   7.494   3.541   7.203 -0.2982  0.1215  1.3670
  842MOL0     C16123   7.466   3.593   7.305  0.0133 -0.0977  0.0010
  842MOL0     C16124   7.689   2.918   7.065  0.2103  0.2713 -0.3362
  842MOL0     C16125   7.808   2.849   7.084 -0.7942 -0.4163  0.3328
  842MOL0     C16126   7.824   2.773   7.207  0.6266  0.0797 -0.2626
  842MOL0     H16127   8.275   2.955   7.244  0.6429  0.9557 -1.2997
  842MOL0     H16128   8.511   2.915   7.291  1.0241  0.2204 -1.6910
  842MOL0     H16129   8.641   2.734   7.402 -2.6541  0.3302 -0.6766
  842MOL0     H16130   8.731   2.844   7.316  0.8027 -0.5322 -0.2197
  842MOL0     H16131   8.889   2.730   7.421 -2.4176  2.1666 -0.1770
  842MOL0     H16132   8.817   2.571   7.371 -3.7136  0.2628 -1.9406
  842MOL0     H16133   9.035   2.635   7.241 -1.1767 -1.6787  1.1231
  842MOL0     H16134   8.894   2.616   7.131  0.3952  0.1846  0.4059
  842MOL0     H16135   8.866   2.864   7.122 -2.2304  0.2178  2.6791
  842MOL0     H16136   8.978   2.886   7.258 -1.8016 -0.3756 -0.1288
  842MOL0     H16137   9.175   2.848   7.130  0.6868  1.2375 -1.4930
  842MOL0     H16138   9.084   2.969   7.057  2.4165 -0.1491  2.6739
  842MOL0     H16139   9.061   2.674   6.980 -1.4545  0.3716  0.0703
  842MOL0     H16140   8.972   2.797   6.909 -0.0889  0.6746  0.3614
  842MOL0     H16141   9.284   2.770   6.913 -0.5655 -0.9068 -1.2993
  842MOL0     H16142   9.218   2.922   6.864 -1.0260  0.4204  0.1346
  842MOL0     H16143   9.135   2.839   6.653 -1.0992 -0.5969  0.0356
  842MOL0     H16144   9.291   2.795   6.671 -0.9743  2.9625 -0.9035
  842MOL0     H16145   9.369   2.551   6.651  0.4647  3.3315 -2.6425
  842MOL0     H16146   9.184   2.259   6.503 -0.1111 -1.7612 -2.2293
  842MOL0     H16147   9.349   2.314   6.527  0.4243  0.5683 -0.9610
  842MOL0     H16148   9.157   2.364   6.297  0.5105  0.0138  1.8688
  842MOL0     H16149   9.298   2.471   6.331  0.4344  0.6933  2.4487
  842MOL0     H16150   9.307   2.171   6.264  2.1033 -0.2132  1.2120
  842MOL0     H16151   9.350   2.302   6.151  0.5908 -0.3613 -0.2510
  842MOL0     H16152   9.480   2.193   6.386  0.5937 -0.0302 -0.8092
  842MOL0     H16153   9.557   2.223   6.225  1.7343  1.3074 -0.6375
  842MOL0     H16154   9.689   2.181   6.434  1.6943 -1.2870  1.6481
  842MOL0     H16155   9.834   2.054   6.517 -1.9353  0.6291 -0.5137
  842MOL0     H16156   9.861   2.104   6.684  1.4458 -0.0730 -0.1512
  842MOL0     H16157   9.989   2.121   6.565  0.4009 -1.2026  1.7541
  842MOL0     H16158  10.035   2.569   7.005 -0.3060 -0.9453 -2.9828
  842MOL0     H16159  10.214   2.607   7.163  0.2739 -1.8815 -1.2511
  842MOL0     H16160  10.613   2.447   7.100 -0.1758 -0.2716 -1.3918
  842MOL0     H16161  10.626   2.602   7.011  3.4388 -1.6603 -0.1197
  842MOL0     H16162  10.695   2.706   7.204 -0.0946  0.4967  0.8847
  842MOL0     H16163  10.603   2.589   7.308 -0.8437 -0.9612 -1.1351
  842MOL0     H16164  10.786   2.431   7.264 -3.1852  0.5840 -1.8215
  842MOL0     H16165  10.843   2.569   7.347  1.4866  0.0026 -1.3010
  842MOL0     H16166  10.925   2.670   7.130  1.1980 -0.5645 -2.3406
  842MOL0     H16167  10.881   2.514   7.056  1.2764 -1.1429 -0.2024
  842MOL0     H16168  11.118   2.536   7.109  1.3183  1.0132  1.5339
  842MOL0     H16169  11.098   2.520   7.276  0.3615 -2.2118 -0.0268
  842MOL0     H16170  11.009   2.311   7.069  1.7089 -2.2803 -1.0218
  842MOL0     H16171  10.985   2.294   7.233 -0.2785 -0.6089 -1.8794
  842MOL0     H16172  11.186   2.173   7.176 -0.2912  0.1694  1.0586
  842MOL0     H16173  11.234   2.292   7.288 -1.6951 -0.1837  0.2583
  842MOL0     H16174  11.329   2.430   7.122  0.3637  0.6235 -2.6427
  842MOL0     H16175  11.247   2.345   6.992  0.1380 -2.4322 -0.4413
  842MOL0     H16176  10.499   2.480   6.859 -0.0376 -0.6047  1.5089
  842MOL0     H16177  10.314   2.482   6.698 -0.3601 -0.2256  0.0927
  842MOL0     H16178   9.841   2.604   6.624 -4.0376  1.9926 -2.3543
  842MOL0     H16179   9.650   2.596   6.483 -0.2909 -0.5521  0.0099
  842MOL0     H16180   8.475   2.519   7.110 -1.6324 -1.2796  0.6170
  842MOL0     H16181   8.259   2.560   7.051  2.2484 -2.4118  2.3352
  842MOL0     H16182   7.968   2.974   6.809  2.3441  0.1464  2.1690
  842MOL0     H16183   7.722   3.043   6.760 -0.0098 -1.0660 -0.5035
  842MOL0     H16184   7.414   3.076   7.092  0.9760  1.8475  3.3710
  842MOL0     H16185   7.567   3.163   7.100 -1.0974  0.3848  0.7668
  842MOL0     H16186   7.343   3.219   6.912 -0.3911 -2.7973  2.4081
  842MOL0     H16187   7.509   3.282   6.890  2.9193 -0.8215  1.5218
  842MOL0     H16188   7.323   3.419   7.031 -1.2364 -1.5753 -0.8451
  842MOL0     H16189   7.371   3.319   7.168  1.5683  2.5055  1.5954
  842MOL0     H16190   7.547   3.494   7.005 -3.5378 -0.1980  0.3768
  842MOL0     H16191   7.620   3.385   7.124  0.6162 -0.3731 -0.8942
  842MOL0     H16192   7.424   3.627   7.398  0.5093 -1.9293  0.9628
  842MOL0     H16193   7.618   2.922   7.147 -0.4291 -1.2647 -0.7770
  842MOL0     H16194   7.901   2.810   7.276  0.0405 -0.2352  0.5798
  842MOL0     H16195   7.731   2.778   7.265  1.1886  0.6737  0.6239
  842MOL0     H16196   7.843   2.668   7.182  2.9152  0.1855  0.7566
  843MOL0     O16197   6.736   7.224   9.335 -0.1656 -0.4277 -0.1148
  843MOL0     C16198   6.722   7.305   9.424 -0.8844 -0.1767  1.1524
  843MOL0     O16199   6.827   7.335   9.513  0.5067 -0.2046  0.9657
  843MOL0     C16200   6.945   7.278   9.476 -0.4030  0.1859 -0.3172
  843MOL0     C16201   7.029   7.341   9.384  0.3405  0.1406  0.2931
  843MOL0     C16202   7.154   7.288   9.350  0.8648 -0.3441  0.3441
  843MOL0     C16203   7.196   7.163   9.397  0.0717 -0.0036  0.5650
  843MOL0     O16204   7.319   7.112   9.363  0.5429 -0.3972  0.1393
  843MOL0     C16205   7.340   6.973   9.399 -0.6017 -0.6942  0.0428
  843MOL0     C16206   7.477   6.911   9.355  0.3550  0.0293 -0.0063
  843MOL0     C16207   7.549   7.007   9.253  0.4954  0.3858 -0.3192
  843MOL0     C16208   7.648   6.934   9.169  0.1969  0.2107 -0.3804
  843MOL0     C16209   7.729   7.021   9.071 -0.0957  0.0479  0.0433
  843MOL0     C16210   7.830   7.114   9.142 -0.1894 -0.1220 -0.5332
  843MOL0     C16211   7.894   7.216   9.051 -0.0987  0.3923 -0.6635
  843MOL0     C16212   7.999   7.144   8.959  0.1205  0.1614 -0.4906
  843MOL0     N16213   8.108   7.081   9.044 -0.1893  0.0197  0.0056
  843MOL0     C16214   8.120   6.949   9.064 -1.0621 -0.0501  0.1117
  843MOL0     C16215   8.209   6.943   9.164 -1.3228 -0.4923  0.2465
  843MOL0     C16216   8.265   6.822   9.230 -0.3299  0.6182  0.0457
  843MOL0     C16217   8.214   6.805   9.376  0.0038 -0.5424  0.5744
  843MOL0     C16218   8.173   6.667   9.405 -0.0926  0.2266 -0.3111
  843MOL0     C16219   8.288   6.577   9.432 -0.1791  0.5295  0.4937
  843MOL0     O16220   8.350   6.527   9.308 -0.2398  0.3512 -0.1014
  843MOL0     C16221   8.423   6.412   9.314  0.4373  0.0696 -0.1456
  843MOL0     C16222   8.413   6.341   9.200 -1.1252  0.0781 -0.5132
  843MOL0     C16223   8.482   6.219   9.182 -0.3678  0.2742 -1.0612
  843MOL0     C16224   8.461   6.148   9.057 -0.0828  0.0387 -0.0725
  843MOL0     C16225   8.560   6.174   9.292  0.6351  0.5607 -0.5474
  843MOL0     C16226   8.656   6.061   9.277  0.6105 -0.3695  0.1459
  843MOL0     O16227   8.709   6.038   9.155  0.4551  0.2289  0.0419
  843MOL0     C16228   8.783   5.922   9.128  0.5198  1.4053 -0.4036
  843MOL0     C16229   8.728   5.827   9.034 -1.0283 -0.0892 -1.4831
  843MOL0     C16230   8.810   5.716   9.019  0.2916  0.3714  0.6296
  843MOL0     C16231   8.939   5.692   9.070  0.8946 -0.0599  1.0225
  843MOL0     O16232   9.014   5.575   9.043 -0.4369 -0.0122 -0.2479
  843MOL0     C16233   9.158   5.580   9.031 -0.1651 -0.0774  0.0520
  843MOL0     C16234   9.188   5.438   9.060 -0.4557  0.1805  0.3383
  843MOL0     C16235   9.331   5.412   9.080 -0.3467 -0.4958  0.2986
  843MOL0     C16236   9.399   5.408   8.941  0.3596  0.1478 -0.5612
  843MOL0     C16237   9.550   5.368   8.951 -0.0556  0.7139 -0.1855
  843MOL0     C16238   9.578   5.228   9.002  0.1389  0.1832 -0.9108
  843MOL0     C16239   9.727   5.214   9.033 -0.5123  0.2884  0.8475
  843MOL0     C16240   9.751   5.069   9.098  0.1938 -0.0730  0.1714
  843MOL0    Cl16241   9.933   5.062   9.119 -0.0818 -0.2356 -0.1148
  843MOL0     C16242   8.994   5.795   9.153  0.0017 -0.0264  0.1172
  843MOL0     C16243   8.912   5.908   9.184 -0.1189  0.5173  0.3077
  843MOL0     O16244   8.686   5.995   9.376 -0.2187  0.0255  0.3460
  843MOL0     C16245   8.559   6.244   9.416 -0.5878  1.1522  0.0078
  843MOL0     C16246   8.488   6.355   9.432  0.3211 -0.2972 -0.6918
  843MOL0     N16247   8.243   7.069   9.210  0.2441 -0.7634  0.0050
  843MOL0     N16248   8.184   7.154   9.135 -0.1575  0.1567 -0.5489
  843MOL0     C16249   7.098   7.097   9.471  0.0210  0.7563  0.8845
  843MOL0     C16250   6.978   7.146   9.511  0.7470 -0.0050  0.5709
  843MOL0     C16251   6.587   7.343   9.452  0.1241  0.1181  0.0304
  843MOL0     C16252   6.551   7.335   9.589 -0.0548 -0.0485  0.4508
  843MOL0     C16253   6.413   7.348   9.622  0.7666  0.1574 -0.5713
  843MOL0     C16254   6.326   7.383   9.520  1.0924  0.5896  0.0360
  843MOL0     O16255   6.199   7.411   9.569 -0.3456 -0.2835  0.4290
  843MOL0     C16256   6.117   7.505   9.498 -0.1035  0.8132  0.8473
  843MOL0     C16257   6.034   7.579   9.599  0.0311 -0.0317  1.4476
  843MOL0     C16258   6.120   7.657   9.701 -0.6059  0.3038  0.3511
  843MOL0     C16259   6.043   7.767   9.777 -0.3409  0.0433 -0.0715
  843MOL0     C16260   5.945   7.722   9.880  0.5624  1.0130  0.0501
  843MOL0     C16261   5.862   7.680   9.964 -0.0908  0.0408 -0.0941
  843MOL0     C16262   6.362   7.395   9.383  0.8179 -0.8145 -0.5129
  843MOL0     C16263   6.492   7.377   9.351 -0.2284 -0.4101 -0.5958
  843MOL0     C16264   6.528   7.381   9.209 -0.6545  0.2732  0.2717
  843MOL0     H16265   6.985   7.431   9.344 -1.8469 -1.4487 -1.0876
  843MOL0     H16266   7.214   7.348   9.282  0.1055  3.3662  2.6254
  843MOL0     H16267   7.257   6.906   9.372 -0.6099 -1.1776  1.2171
  843MOL0     H16268   7.345   6.973   9.508 -0.4650 -3.4764  0.1083
  843MOL0     H16269   7.550   6.917   9.436  0.9703  0.5875 -0.5860
  843MOL0     H16270   7.465   6.809   9.317  4.6919 -0.7965  0.3057
  843MOL0     H16271   7.480   7.060   9.186 -1.8719  0.8473  2.3096
  843MOL0     H16272   7.599   7.071   9.326 -1.0932 -1.9934  3.1517
  843MOL0     H16273   7.724   6.887   9.232 -0.1059 -3.3254 -2.4260
  843MOL0     H16274   7.602   6.858   9.106 -1.5410  0.2259  0.8138
  843MOL0     H16275   7.661   7.079   9.009  1.2441  2.7014  0.9203
  843MOL0     H16276   7.799   6.963   9.010 -2.0463 -2.0157 -0.3621
  843MOL0     H16277   7.783   7.176   9.220  0.8600 -0.9508  0.8144
  843MOL0     H16278   7.905   7.067   9.207  0.0772  2.5669  1.2673
  843MOL0     H16279   7.948   7.275   9.125  0.3701 -2.3732  1.3520
  843MOL0     H16280   7.829   7.285   8.996 -1.1734 -0.5219 -0.5867
  843MOL0     H16281   7.946   7.065   8.905 -1.7940  1.3135 -0.3863
  843MOL0     H16282   8.040   7.216   8.887  1.8979 -3.2216 -3.1695
  843MOL0     H16283   8.070   6.871   9.008  0.3071 -1.1033  0.2997
  843MOL0     H16284   8.373   6.836   9.224  0.4701 -2.6810  3.0096
  843MOL0     H16285   8.240   6.732   9.172  0.7171  1.0440 -1.0984
  843MOL0     H16286   8.291   6.848   9.441  1.7169  0.6635 -2.0455
  843MOL0     H16287   8.127   6.870   9.386  0.8525  0.3865  2.3768
  843MOL0     H16288   8.117   6.665   9.499 -0.1481 -1.1466 -0.3505
  843MOL0     H16289   8.104   6.628   9.330 -0.9478 -2.2281  1.6118
  843MOL0     H16290   8.366   6.620   9.495  1.6998 -2.0341  0.0968
  843MOL0     H16291   8.250   6.489   9.485 -0.2146  1.0981  1.4402
  843MOL0     H16292   8.363   6.382   9.113  1.6770 -1.4884 -3.0432
  843MOL0     H16293   8.432   6.046   9.083  1.6281 -0.4270  0.1301
  843MOL0     H16294   8.558   6.154   9.007  0.5126  1.4389  1.1458
  843MOL0     H16295   8.378   6.187   8.999  0.6135 -0.8167 -1.7218
  843MOL0     H16296   8.636   5.823   8.976 -0.7670  0.9438 -1.9920
  843MOL0     H16297   8.769   5.659   8.935  3.0112 -0.0025 -0.5585
  843MOL0     H16298   9.190   5.588   8.927  1.5247 -1.5137  0.4234
  843MOL0     H16299   9.206   5.648   9.102 -0.2947  0.9254 -0.7873
  843MOL0     H16300   9.151   5.423   9.162 -1.8179  0.2760 -0.1181
  843MOL0     H16301   9.140   5.370   8.988  0.1532 -1.8634  1.7591
  843MOL0     H16302   9.335   5.318   9.136  1.7491 -0.8362 -0.3327
  843MOL0     H16303   9.382   5.488   9.140  2.4308 -0.4866 -1.8666
  843MOL0     H16304   9.393   5.506   8.893  2.8737  0.2206 -0.8925
  843MOL0     H16305   9.329   5.339   8.893 -3.6167  3.0388  0.5327
  843MOL0     H16306   9.606   5.370   8.857  0.7303 -1.0481  0.2019
  843MOL0     H16307   9.602   5.434   9.020  2.1593 -2.1153  1.0575
  843MOL0     H16308   9.541   5.146   8.940 -1.6397 -1.1442  1.7361
  843MOL0     H16309   9.528   5.215   9.098 -0.1491 -1.0507 -1.2092
  843MOL0     H16310   9.752   5.292   9.106  2.2667 -0.0872  0.4178
  843MOL0     H16311   9.793   5.211   8.945 -2.1257  2.6912 -0.5405
  843MOL0     H16312   9.725   4.983   9.035  0.2292  1.0214 -1.4113
  843MOL0     H16313   9.706   5.069   9.197  0.5366  2.4032  0.3912
  843MOL0     H16314   9.088   5.789   9.207 -0.3192 -0.4101  0.6455
  843MOL0     H16315   8.947   5.992   9.243 -1.1686 -0.2945  2.1591
  843MOL0     H16316   8.609   6.206   9.504  0.3077  0.1670 -0.8905
  843MOL0     H16317   8.483   6.414   9.522  0.1631  1.6569 -1.9275
  843MOL0     H16318   7.121   7.000   9.513 -0.3795 -0.3834 -1.3691
  843MOL0     H16319   6.914   7.087   9.575  0.8552 -0.7391  0.0201
  843MOL0     H16320   6.621   7.306   9.666 -1.5903 -1.5916  1.3605
  843MOL0     H16321   6.385   7.331   9.725  1.0041  0.8065 -0.3921
  843MOL0     H16322   6.174   7.583   9.448  2.6495 -2.0864 -0.8494
  843MOL0     H16323   6.065   7.456   9.415  1.0486  0.5812  0.2467
  843MOL0     H16324   5.965   7.509   9.647 -1.9317 -0.0463 -1.1326
  843MOL0     H16325   5.985   7.657   9.539  2.8454 -0.9010 -2.3493
  843MOL0     H16326   6.150   7.588   9.781  0.5484  0.2885 -0.0916
  843MOL0     H16327   6.211   7.696   9.656  1.7784 -6.2062 -1.6138
  843MOL0     H16328   5.991   7.825   9.701 -0.9133  0.0922  0.3506
  843MOL0     H16329   6.109   7.844   9.817 -0.5486  0.2041 -0.0388
  843MOL0     H16330   5.785   7.655  10.035  0.8942 -2.9990  0.0550
  843MOL0     H16331   6.301   7.425   9.299  1.5810  2.2282 -0.1100
  843MOL0     H16332   6.529   7.283   9.160 -0.5660 -0.3166  1.4079
  843MOL0     H16333   6.463   7.446   9.150  0.9500 -1.0243 -3.1765
  843MOL0     H16334   6.628   7.424   9.201 -0.6526  0.4734  1.1726
  844MOL0     O16335   3.606   8.699   8.425  0.1979  0.4538 -0.0188
  844MOL0     C16336   3.620   8.706   8.303  0.2510  0.1278  0.1974
  844MOL0     O16337   3.688   8.613   8.224  0.7510  0.0596  0.0127
  844MOL0     C16338   3.738   8.496   8.280 -0.8910  1.0242  0.0687
  844MOL0     C16339   3.858   8.505   8.359 -0.4873  0.0642  0.1341
  844MOL0     C16340   3.909   8.393   8.417 -0.3619  0.6842 -0.0732
  844MOL0     C16341   3.860   8.260   8.395 -0.5881 -0.1057 -0.1623
  844MOL0     O16342   3.916   8.141   8.435 -0.0071 -0.2257  0.0095
  844MOL0     C16343   4.012   8.133   8.544  0.2141 -0.9215 -0.3879
  844MOL0     C16344   4.059   7.991   8.533  0.3719 -0.9389  0.2681
  844MOL0     C16345   4.165   7.983   8.430 -0.1573 -0.3273 -0.5687
  844MOL0     C16346   4.246   7.854   8.454 -0.1618  0.0774  0.8448
  844MOL0     C16347   4.370   7.849   8.372  0.0551  0.4529  0.5961
  844MOL0     C16348   4.346   7.850   8.219  0.6799  0.3412  1.2854
  844MOL0     C16349   4.480   7.848   8.153 -0.4577  0.8007  1.1510
  844MOL0     C16350   4.472   7.883   7.999  0.1006  0.1347  0.8819
  844MOL0     N16351   4.545   8.011   7.955  0.9785  0.4180  0.1244
  844MOL0     C16352   4.679   8.034   7.974  0.3809 -0.8042 -0.1461
  844MOL0     C16353   4.702   8.135   7.898 -0.3873  0.1182  0.5901
  844MOL0     C16354   4.826   8.220   7.887 -0.9374 -0.2263 -0.6123
  844MOL0     C16355   4.811   8.372   7.871 -0.0814 -0.2207 -0.7841
  844MOL0     C16356   4.943   8.448   7.870 -0.0311 -0.1176  0.1496
  844MOL0     C16357   4.966   8.515   7.999 -0.6833 -0.2973  0.5171
  844MOL0     O16358   5.063   8.618   7.994 -0.9815 -1.1512  0.2587
  844MOL0     C16359   5.199   8.599   7.994  1.0013  0.5359 -0.5813
  844MOL0     C16360   5.274   8.713   7.979 -0.0196 -0.5559 -0.4122
  844MOL0     C16361   5.414   8.714   7.962 -0.4207 -0.1842  0.0019
  844MOL0     C16362   5.480   8.849   7.936 -0.2678 -0.8361 -0.2278
  844MOL0     C16363   5.486   8.593   7.979  0.3777 -0.2099  0.4731
  844MOL0     C16364   5.630   8.588   7.936 -0.1701  0.1294  0.0849
  844MOL0     O16365   5.661   8.635   7.810  0.1837 -0.3502  0.5435
  844MOL0     C16366   5.788   8.640   7.779 -0.9942 -0.5067 -0.2005
  844MOL0     C16367   5.844   8.555   7.676 -0.3952  0.4053  0.3137
  844MOL0     C16368   5.985   8.559   7.663 -0.5680 -0.8082  0.6205
  844MOL0     C16369   6.074   8.627   7.752 -0.5350 -0.2431  0.2959
  844MOL0     O16370   6.207   8.604   7.761  0.6016 -0.4566 -0.7881
  844MOL0     C16371   6.287   8.662   7.668  0.2692  0.5792 -0.6531
  844MOL0     C16372   6.411   8.573   7.654  0.4136  0.3016  0.1447
  844MOL0     C16373   6.508   8.631   7.556 -0.3306 -0.1289 -0.8240
  844MOL0     C16374   6.614   8.527   7.502 -0.4696 -0.5318 -0.9173
  844MOL0     C16375   6.722   8.599   7.416 -0.1728  0.1943  0.0045
  844MOL0     C16376   6.845   8.526   7.372  0.2732  0.2892 -0.6942
  844MOL0     C16377   6.918   8.603   7.263  0.3595 -0.3747 -0.5354
  844MOL0     C16378   7.056   8.552   7.227 -0.1904  0.7560  0.4074
  844MOL0    Cl16379   7.141   8.671   7.117 -0.1283 -0.1981 -0.1138
  844MOL0     C16380   6.023   8.726   7.834  0.0982 -0.5070  0.1983
  844MOL0     C16381   5.880   8.736   7.846  0.2251  0.9214  0.3244
  844MOL0     O16382   5.709   8.533   8.008 -0.6816 -0.2424  0.1075
  844MOL0     C16383   5.410   8.471   8.006  0.0199 -1.2398 -0.2315
  844MOL0     C16384   5.269   8.485   8.012  0.1620  0.6928  0.1963
  844MOL0     N16385   4.590   8.179   7.825 -0.0393 -0.4234 -0.2746
  844MOL0     N16386   4.496   8.095   7.867  0.7603  0.9434  0.6619
  844MOL0     C16387   3.742   8.247   8.325  0.0005 -0.1176  0.7558
  844MOL0     C16388   3.675   8.368   8.280 -0.0653  0.0177  0.1071
  844MOL0     C16389   3.566   8.828   8.228 -0.3909  0.7068 -0.1686
  844MOL0     C16390   3.644   8.869   8.108  0.7353  0.2862  0.9173
  844MOL0     C16391   3.617   8.982   8.032  0.1313  0.0138  0.0588
  844MOL0     C16392   3.508   9.067   8.077 -0.7124  0.0350  0.2350
  844MOL0     O16393   3.484   9.189   8.023  0.5974 -0.5001 -0.0448
  844MOL0     C16394   3.481   9.215   7.880  0.2138  0.4373  0.5832
  844MOL0     C16395   3.359   9.273   7.833 -0.0955 -0.1132  0.9167
  844MOL0     C16396   3.255   9.164   7.826 -0.3193  0.5357  0.4557
  844MOL0     C16397   3.126   9.206   7.750 -0.3139 -0.0339  0.7450
  844MOL0     C16398   3.156   9.244   7.607  0.5656  0.0006 -0.5600
  844MOL0     C16399   3.192   9.250   7.495  0.0468  0.3818  0.2771
  844MOL0     C16400   3.433   9.028   8.200 -1.0026 -0.6175 -0.3798
  844MOL0     C16401   3.459   8.911   8.277 -0.2173  0.1026  0.2982
  844MOL0     C16402   3.391   8.892   8.409 -0.6404  0.7543 -0.2599
  844MOL0     H16403   3.906   8.598   8.387 -0.9451  0.6294 -0.9329
  844MOL0     H16404   4.005   8.398   8.468  0.4479 -0.8709 -1.3472
  844MOL0     H16405   3.952   8.150   8.634  0.3699  3.6258 -0.9293
  844MOL0     H16406   4.079   8.219   8.547  1.0225 -1.5491  1.9168
  844MOL0     H16407   4.096   7.958   8.631 -0.3926 -0.1576  0.8355
  844MOL0     H16408   3.980   7.923   8.498  2.7654 -2.6704 -2.2638
  844MOL0     H16409   4.125   7.993   8.329 -2.5013  1.2875  0.4086
  844MOL0     H16410   4.246   8.056   8.438 -0.4085 -0.1743  0.8695
  844MOL0     H16411   4.282   7.857   8.557 -1.0185 -0.4357  1.1750
  844MOL0     H16412   4.178   7.769   8.438  0.3507 -0.3893  1.0984
  844MOL0     H16413   4.415   7.752   8.393  1.0669  0.3555 -1.7250
  844MOL0     H16414   4.431   7.933   8.409 -0.9901  0.5991  2.1107
  844MOL0     H16415   4.296   7.761   8.180  1.7972  1.0723 -2.1791
  844MOL0     H16416   4.296   7.940   8.182 -3.4096 -1.3269  2.3184
  844MOL0     H16417   4.493   7.739   8.160 -0.8231  0.3866 -2.4418
  844MOL0     H16418   4.561   7.903   8.201 -0.9411  1.1881  1.5263
  844MOL0     H16419   4.510   7.801   7.937  1.6346  1.4375  0.0241
  844MOL0     H16420   4.370   7.896   7.961  0.3923 -0.8500 -0.3015
  844MOL0     H16421   4.748   7.974   8.033 -3.7380 -1.9458  4.1497
  844MOL0     H16422   4.877   8.176   7.801 -0.3747 -3.3031  1.1797
  844MOL0     H16423   4.893   8.193   7.969  0.7113 -1.1792 -2.1999
  844MOL0     H16424   4.752   8.386   7.780 -2.7546  3.4485  1.2350
  844MOL0     H16425   4.763   8.403   7.964  2.0580 -0.1584  0.3500
  844MOL0     H16426   5.024   8.382   7.841 -0.7544 -2.2489  2.5511
  844MOL0     H16427   4.936   8.529   7.796 -0.4599  0.5456  0.8886
  844MOL0     H16428   4.875   8.566   8.031 -0.6863  0.7057 -0.9913
  844MOL0     H16429   5.002   8.443   8.074 -0.9116 -2.5330 -1.4009
  844MOL0     H16430   5.221   8.807   7.970 -0.4981 -0.9285 -1.7798
  844MOL0     H16431   5.554   8.883   8.008  0.2700 -0.1132 -1.0944
  844MOL0     H16432   5.407   8.931   7.932 -0.4080 -0.8634  1.3699
  844MOL0     H16433   5.530   8.856   7.839  0.2024  1.4953  0.1209
  844MOL0     H16434   5.784   8.505   7.601  2.3619 -0.3111 -1.5707
  844MOL0     H16435   6.029   8.494   7.588  1.5621 -1.8105  2.5848
  844MOL0     H16436   6.242   8.672   7.569  4.7877  1.5008 -2.8558
  844MOL0     H16437   6.319   8.763   7.696 -1.4267  0.2111  3.2716
  844MOL0     H16438   6.461   8.563   7.751  0.0964  2.6076  0.6082
  844MOL0     H16439   6.372   8.479   7.613 -1.8290  1.6728 -1.0601
  844MOL0     H16440   6.545   8.724   7.598 -1.0449 -0.3711  0.3921
  844MOL0     H16441   6.454   8.671   7.470  2.1602  3.7984 -0.7686
  844MOL0     H16442   6.573   8.444   7.444  1.7300 -1.7223 -0.8394
  844MOL0     H16443   6.652   8.485   7.595 -1.6997  0.3388  0.0168
  844MOL0     H16444   6.664   8.621   7.325  1.5666 -1.7430 -1.6699
  844MOL0     H16445   6.745   8.694   7.466  1.1025  0.4938 -1.0902
  844MOL0     H16446   6.817   8.425   7.339  0.6812 -0.7384  1.8293
  844MOL0     H16447   6.915   8.510   7.455  2.9829  0.0138 -2.8880
  844MOL0     H16448   6.932   8.703   7.304 -0.7989 -0.6600  0.6353
  844MOL0     H16449   6.853   8.603   7.175 -0.2382 -0.6616 -0.1020
  844MOL0     H16450   7.057   8.453   7.181 -0.0881  0.3277  1.3062
  844MOL0     H16451   7.104   8.537   7.324 -0.9195 -3.7373  0.3159
  844MOL0     H16452   6.088   8.791   7.893  0.6682  1.0102 -1.9841
  844MOL0     H16453   5.834   8.811   7.909  0.0322  0.7316  0.4122
  844MOL0     H16454   5.460   8.374   8.008 -1.7964 -2.2509 -1.4471
  844MOL0     H16455   5.213   8.394   8.032  0.9900  0.2101  0.3680
  844MOL0     H16456   3.695   8.152   8.303  2.9241 -1.7720  1.1239
  844MOL0     H16457   3.586   8.360   8.218  0.8384 -2.6992 -1.0147
  844MOL0     H16458   3.720   8.802   8.069 -0.7703 -0.1682 -1.4394
  844MOL0     H16459   3.684   9.007   7.951  3.1244 -3.1250  1.3092
  844MOL0     H16460   3.552   9.297   7.860 -0.7451  1.1253 -0.0503
  844MOL0     H16461   3.509   9.120   7.834 -1.0043  0.5813 -0.5066
  844MOL0     H16462   3.374   9.316   7.733 -1.8828 -2.4197 -0.4701
  844MOL0     H16463   3.318   9.338   7.911  0.7352  1.3535  0.1721
  844MOL0     H16464   3.300   9.077   7.777 -0.5776  1.0183 -0.6686
  844MOL0     H16465   3.226   9.132   7.927 -0.6051  2.4854  1.0273
  844MOL0     H16466   3.079   9.293   7.795 -1.2247  1.5001 -2.8116
  844MOL0     H16467   3.058   9.120   7.755  0.6670 -1.1449 -2.3481
  844MOL0     H16468   3.229   9.243   7.395 -2.6462  0.9081 -0.8347
  844MOL0     H16469   3.365   9.101   8.244 -1.4133 -1.4174  0.3461
  844MOL0     H16470   3.460   8.848   8.482  0.4439  0.1015 -1.6335
  844MOL0     H16471   3.357   8.985   8.456 -2.3743 -0.7436  1.6502
  844MOL0     H16472   3.306   8.826   8.395 -0.4626  0.9186 -2.4846
  845MOL0     O16473   2.873   5.023   8.408 -0.6303 -0.1958  0.3022
  845MOL0     C16474   2.781   4.981   8.334 -0.2132  0.3000  0.2919
  845MOL0     O16475   2.661   4.941   8.383  0.1633  0.2506  0.2709
  845MOL0     C16476   2.638   4.966   8.514 -0.1920  0.2143  0.2871
  845MOL0     C16477   2.614   5.097   8.563 -0.6995  0.1010  0.0824
  845MOL0     C16478   2.593   5.110   8.700  0.3138  0.0989  0.3292
  845MOL0     C16479   2.593   5.007   8.789  0.2758 -0.3921  0.0461
  845MOL0     O16480   2.572   5.045   8.921  0.0266  0.2155 -0.0894
  845MOL0     C16481   2.627   4.943   9.014  0.0036 -0.2766  0.2158
  845MOL0     C16482   2.603   4.991   9.157  1.1155 -0.0551 -0.7423
  845MOL0     C16483   2.458   4.964   9.196 -0.3577 -1.3165 -0.1139
  845MOL0     C16484   2.419   4.992   9.348  0.0324  1.4152  0.2457
  845MOL0     C16485   2.270   4.957   9.377  0.1297 -0.1064  0.2699
  845MOL0     C16486   2.224   4.806   9.346  0.7601  0.0308  0.3363
  845MOL0     C16487   2.300   4.696   9.427  0.8707 -0.7011  0.4849
  845MOL0     C16488   2.269   4.697   9.581 -0.5464 -0.1002  0.0269
  845MOL0     N16489   2.388   4.649   9.656 -1.0071  0.0336 -0.5975
  845MOL0     C16490   2.452   4.524   9.646  0.5688 -0.4799  0.2689
  845MOL0     C16491   2.565   4.526   9.726 -0.4864  0.1796  0.1544
  845MOL0     C16492   2.671   4.425   9.748 -0.2119 -0.2579  0.1218
  845MOL0     C16493   2.734   4.394   9.626 -0.1522 -0.8231  0.3101
  845MOL0     C16494   2.850   4.292   9.638 -0.5808  0.1194 -1.3829
  845MOL0     C16495   2.869   4.215   9.515 -0.7620 -0.0052 -0.8484
  845MOL0     O16496   3.000   4.151   9.519 -0.4044  0.0306  0.0695
  845MOL0     C16497   3.033   4.049   9.434  0.3904  0.4065  0.1475
  845MOL0     C16498   2.934   3.987   9.347  0.3794 -1.1009  0.2341
  845MOL0     C16499   2.959   3.907   9.238  1.7250  0.9778 -0.0543
  845MOL0     C16500   2.840   3.851   9.158 -0.6835 -0.6151 -0.1938
  845MOL0     C16501   3.096   3.866   9.221  0.2136  0.3069 -0.0073
  845MOL0     C16502   3.145   3.763   9.123  0.2199  0.7955 -0.0103
  845MOL0     O16503   3.246   3.689   9.180 -0.1748 -0.3876  0.1802
  845MOL0     C16504   3.303   3.574   9.130 -0.0916  0.3637  0.1828
  845MOL0     C16505   3.276   3.511   9.009  0.1783  0.6726 -0.7362
  845MOL0     C16506   3.347   3.392   8.980 -0.4569  0.0564 -0.2377
  845MOL0     C16507   3.440   3.343   9.073 -0.2106 -0.1831  0.5763
  845MOL0     O16508   3.505   3.229   9.016 -0.2828 -0.2597 -0.8412
  845MOL0     C16509   3.610   3.169   9.087 -0.2926 -0.6503  0.5345
  845MOL0     C16510   3.656   3.050   8.999 -0.0404 -0.4150 -0.5143
  845MOL0     C16511   3.791   3.089   8.925  0.7573  0.5371 -0.2923
  845MOL0     C16512   3.837   2.956   8.854  0.2974 -0.1092 -0.6302
  845MOL0     C16513   3.963   2.967   8.767 -0.0206 -0.8766  0.2971
  845MOL0     C16514   3.979   2.853   8.665 -0.5123  0.7135 -0.8031
  845MOL0     C16515   4.106   2.864   8.578  0.7186  0.1309 -0.1008
  845MOL0     C16516   4.238   2.870   8.644 -0.1999  0.1848  0.0172
  845MOL0    Cl16517   4.370   2.855   8.516  0.2387  0.4252  0.1753
  845MOL0     C16518   3.454   3.395   9.207 -1.3146 -0.0770 -0.0343
  845MOL0     C16519   3.380   3.513   9.231  0.4155 -0.5780 -0.1042
  845MOL0     O16520   3.111   3.757   9.000 -0.6642 -0.0858 -0.4200
  845MOL0     C16521   3.190   3.913   9.314 -0.5713  0.4404 -0.2269
  845MOL0     C16522   3.161   4.005   9.413  0.7745  0.3691 -0.0750
  845MOL0     N16523   2.563   4.657   9.784 -0.1687 -0.5792 -0.2034
  845MOL0     N16524   2.457   4.723   9.752  0.4470 -0.4262 -0.0158
  845MOL0     C16525   2.636   4.874   8.748  0.2719  0.0997  0.2020
  845MOL0     C16526   2.658   4.855   8.609  0.0648  0.1737  0.4257
  845MOL0     C16527   2.803   4.970   8.190 -0.2691  0.2484  0.4024
  845MOL0     C16528   2.689   4.953   8.106  0.5856  0.0908  1.5362
  845MOL0     C16529   2.698   4.953   7.963 -0.0026  0.3297  0.2565
  845MOL0     C16530   2.818   4.967   7.898  0.1222  0.0261  0.1503
  845MOL0     O16531   2.809   4.961   7.766 -0.2726  0.6691  0.0022
  845MOL0     C16532   2.833   5.083   7.693  0.8329  0.6683 -0.9175
  845MOL0     C16533   2.813   5.039   7.548  0.1130  0.2058 -0.2176
  845MOL0     C16534   2.912   4.938   7.497 -0.1959 -0.6614 -0.2612
  845MOL0     C16535   2.890   4.907   7.347  0.2805  0.1681 -0.2099
  845MOL0     C16536   2.984   4.811   7.293 -0.1378 -0.5935 -0.0256
  845MOL0     C16537   3.075   4.736   7.267 -0.5211 -1.4812 -1.1384
  845MOL0     C16538   2.938   4.978   7.982 -0.0747 -0.3744  0.3533
  845MOL0     C16539   2.928   4.976   8.119 -0.0508 -1.1379 -1.1492
  845MOL0     C16540   3.058   4.972   8.186  0.1084 -0.5557 -0.4015
  845MOL0     H16541   2.601   5.176   8.491  0.1283 -0.5471 -0.7995
  845MOL0     H16542   2.570   5.213   8.727 -0.7914 -0.1994  0.5663
  845MOL0     H16543   2.736   4.940   9.012 -0.0077 -0.4641 -0.0544
  845MOL0     H16544   2.578   4.847   8.997  1.2581 -0.9077  0.0600
  845MOL0     H16545   2.677   4.946   9.224  1.3468  1.8875  0.3588
  845MOL0     H16546   2.617   5.099   9.160 -0.8265  0.2026  0.0663
  845MOL0     H16547   2.398   5.027   9.129  1.7555  2.8835  1.5768
  845MOL0     H16548   2.432   4.860   9.173  2.3880 -1.7604 -1.6803
  845MOL0     H16549   2.480   4.925   9.409  1.8833  0.5452 -2.3965
  845MOL0     H16550   2.442   5.092   9.386  0.8731  1.2884  0.0923
  845MOL0     H16551   2.202   5.026   9.326  1.8079 -0.2846 -2.3731
  845MOL0     H16552   2.255   4.970   9.484 -2.7660  0.2209 -0.0896
  845MOL0     H16553   2.117   4.809   9.371  0.1213 -0.2433 -2.0352
  845MOL0     H16554   2.227   4.766   9.244 -2.9792 -1.0314  0.4734
  845MOL0     H16555   2.408   4.713   9.420  0.4515  1.7155 -1.3238
  845MOL0     H16556   2.284   4.598   9.380  0.9269  0.2416 -1.5978
  845MOL0     H16557   2.260   4.800   9.618  0.8258 -0.1461  0.5323
  845MOL0     H16558   2.173   4.648   9.602 -0.2783 -0.1791  1.1485
  845MOL0     H16559   2.392   4.451   9.592  0.6894 -0.2460 -0.1875
  845MOL0     H16560   2.614   4.339   9.785 -0.9434  0.1253 -0.1112
  845MOL0     H16561   2.744   4.467   9.818  1.4695  0.6523 -2.0736
  845MOL0     H16562   2.660   4.345   9.561  0.2369  1.0444 -1.6850
  845MOL0     H16563   2.783   4.477   9.573 -0.7225 -1.4849 -1.3465
  845MOL0     H16564   2.943   4.344   9.663 -0.4648 -0.0824 -1.3909
  845MOL0     H16565   2.837   4.226   9.724  0.4479 -1.7632 -2.5865
  845MOL0     H16566   2.778   4.157   9.500 -1.1939  0.7491 -1.2167
  845MOL0     H16567   2.876   4.281   9.428 -0.6622 -0.3163 -1.0810
  845MOL0     H16568   2.828   4.010   9.350  0.0051 -2.2627 -1.9132
  845MOL0     H16569   2.864   3.744   9.157  1.5894 -0.1623  0.2533
  845MOL0     H16570   2.831   3.902   9.061  0.2742  1.1827  0.6143
  845MOL0     H16571   2.745   3.867   9.209 -1.9907 -5.0999 -0.7943
  845MOL0     H16572   3.213   3.544   8.928  1.4413  0.2013 -1.9522
  845MOL0     H16573   3.322   3.333   8.893 -0.9015  1.3826 -1.0545
  845MOL0     H16574   3.695   3.237   9.101  0.0642 -1.5017  3.2023
  845MOL0     H16575   3.569   3.118   9.175  1.1567 -2.3618  0.2755
  845MOL0     H16576   3.667   2.956   9.054 -3.0770 -1.5929 -1.6830
  845MOL0     H16577   3.579   3.022   8.926  0.9780  0.4008 -1.9668
  845MOL0     H16578   3.874   3.117   8.990  1.7657 -1.3786 -0.6693
  845MOL0     H16579   3.775   3.173   8.857  0.8012  1.1289  0.4130
  845MOL0     H16580   3.758   2.926   8.784 -0.9141 -0.0911  0.6766
  845MOL0     H16581   3.860   2.880   8.929  1.1221  1.2204  0.5129
  845MOL0     H16582   3.967   3.063   8.715 -0.3442 -0.1462  1.5740
  845MOL0     H16583   4.057   2.955   8.821  0.3384 -1.9010 -0.5237
  845MOL0     H16584   3.896   2.835   8.596  1.4627  0.6784 -3.3149
  845MOL0     H16585   3.986   2.768   8.734 -3.1825  2.3240  1.6629
  845MOL0     H16586   4.077   2.942   8.507 -0.5099  0.3533  0.6050
  845MOL0     H16587   4.122   2.772   8.521 -2.0884 -1.3296  1.2587
  845MOL0     H16588   4.257   2.790   8.716 -0.5404  1.1438  1.2084
  845MOL0     H16589   4.258   2.963   8.699 -1.0323  1.5053 -1.8036
  845MOL0     H16590   3.514   3.357   9.288 -2.2356  0.3077  0.8469
  845MOL0     H16591   3.384   3.557   9.330 -1.9306 -2.4497  0.9145
  845MOL0     H16592   3.296   3.891   9.299  0.0195  1.7556  1.6471
  845MOL0     H16593   3.241   4.058   9.464  1.2716 -1.3060  0.9627
  845MOL0     H16594   2.642   4.787   8.811 -2.4320  0.2397  0.7863
  845MOL0     H16595   2.685   4.764   8.556 -1.0831  0.0046  0.1033
  845MOL0     H16596   2.587   4.943   8.140 -0.6201  3.4088 -0.5680
  845MOL0     H16597   2.610   4.942   7.900 -0.1172  3.0254 -0.1907
  845MOL0     H16598   2.756   5.149   7.734 -0.3812 -2.5769  2.5722
  845MOL0     H16599   2.930   5.125   7.720  0.8072  1.0209 -1.3546
  845MOL0     H16600   2.824   5.130   7.487 -0.0496 -1.0217 -2.1760
  845MOL0     H16601   2.710   5.005   7.538 -0.4264  1.8096 -0.4106
  845MOL0     H16602   3.014   4.970   7.517 -0.4633  1.5295 -2.0792
  845MOL0     H16603   2.897   4.844   7.550  0.3543 -1.3652 -1.3183
  845MOL0     H16604   2.895   5.003   7.294  4.2893 -0.1101 -0.5905
  845MOL0     H16605   2.788   4.869   7.337 -0.3036  1.1559  1.4682
  845MOL0     H16606   3.149   4.661   7.243  1.1447 -0.2186 -0.2040
  845MOL0     H16607   3.034   4.973   7.932 -1.2429  3.0914 -2.6516
  845MOL0     H16608   3.048   4.951   8.293 -0.2650  3.3965  0.4582
  845MOL0     H16609   3.115   4.886   8.148  3.9329  2.9674 -3.6042
  845MOL0     H16610   3.113   5.065   8.171 -1.3067  0.2485 -0.7164
  846MOL0     O16611   1.058   9.950   4.640  0.2016  0.1494  0.1009
  846MOL0     C16612   0.961  10.024   4.629  0.9788  0.5101 -0.0549
  846MOL0     O16613   0.908  10.049   4.506  0.5015 -0.5010 -0.0535
  846MOL0     C16614   0.951   9.976   4.395  0.0546 -0.2111 -0.1050
  846MOL0     C16615   1.036  10.027   4.300  0.4877  0.8454  0.7049
  846MOL0     C16616   1.083   9.954   4.190 -0.2321  0.1976  0.0322
  846MOL0     C16617   1.050   9.820   4.182 -0.9797  0.4857 -0.2200
  846MOL0     O16618   1.122   9.733   4.102  0.0729  0.8590 -0.4540
  846MOL0     C16619   1.256   9.708   4.141  0.0536 -0.0346 -0.0746
  846MOL0     C16620   1.313   9.612   4.041  0.2777 -0.6792 -0.0155
  846MOL0     C16621   1.449   9.554   4.077 -0.1504 -0.6903 -0.0872
  846MOL0     C16622   1.449   9.457   4.196 -0.2599  0.0900 -0.2441
  846MOL0     C16623   1.598   9.403   4.213  1.1623  1.1405 -0.1917
  846MOL0     C16624   1.613   9.257   4.271  0.2439  0.6834 -1.3055
  846MOL0     C16625   1.751   9.217   4.320 -0.6152 -0.4902 -0.4442
  846MOL0     C16626   1.848   9.206   4.203 -0.4337 -0.1570 -0.3630
  846MOL0     N16627   1.974   9.149   4.251 -0.4495 -0.2545 -0.1017
  846MOL0     C16628   2.012   9.016   4.262  0.1113 -0.0202 -0.0726
  846MOL0     C16629   2.147   9.020   4.292  0.0748  0.0422  0.5946
  846MOL0     C16630   2.230   8.897   4.321 -0.3687  0.1300 -0.1837
  846MOL0     C16631   2.167   8.822   4.439  0.4495  0.3301  0.3247
  846MOL0     C16632   2.273   8.721   4.497  0.4839  0.4224 -0.9384
  846MOL0     C16633   2.265   8.693   4.652  0.1818 -0.1385  0.2645
  846MOL0     O16634   2.299   8.817   4.716  0.0721 -0.4700  0.5484
  846MOL0     C16635   2.270   8.814   4.847 -0.5802 -0.9348 -0.7525
  846MOL0     C16636   2.138   8.841   4.874  0.4463  1.2345 -0.2755
  846MOL0     C16637   2.094   8.853   5.007  0.4846 -0.6076  0.7180
  846MOL0     C16638   1.955   8.914   5.033 -0.3514  0.2878 -0.8284
  846MOL0     C16639   2.180   8.815   5.120 -0.1204 -0.0567 -0.0504
  846MOL0     C16640   2.140   8.805   5.263 -0.0319 -0.1836  1.2570
  846MOL0     O16641   2.236   8.756   5.350 -1.1172  0.2910 -0.1033
  846MOL0     C16642   2.211   8.764   5.484 -0.4159  0.0171 -0.3902
  846MOL0     C16643   2.098   8.712   5.546 -0.2130  0.7170  0.9221
  846MOL0     C16644   2.082   8.708   5.685 -0.0555 -0.4155 -0.6339
  846MOL0     C16645   2.190   8.751   5.771  0.8122 -0.5885 -0.2430
  846MOL0     O16646   2.179   8.738   5.910  0.0689 -0.0015 -0.1898
  846MOL0     C16647   2.054   8.692   5.965  0.3991  0.7149 -0.8351
  846MOL0     C16648   2.078   8.694   6.117  0.1808 -0.2473 -0.1108
  846MOL0     C16649   2.059   8.838   6.168  0.7050 -0.3241  0.3054
  846MOL0     C16650   2.097   8.832   6.312 -1.1898 -0.6644 -0.1666
  846MOL0     C16651   2.075   8.974   6.378 -0.1211  0.0284  0.7159
  846MOL0     C16652   1.924   9.012   6.387  0.1192 -0.0080  0.3089
  846MOL0     C16653   1.901   9.135   6.485 -0.1855  0.5388 -0.2550
  846MOL0     C16654   1.753   9.170   6.526 -0.2873 -0.2773 -0.2410
  846MOL0    Cl16655   1.645   9.180   6.384 -0.1790  0.1886 -0.2236
  846MOL0     C16656   2.300   8.788   5.713  0.2999  0.6933  0.2913
  846MOL0     C16657   2.314   8.803   5.576 -0.3829 -1.1560  0.2310
  846MOL0     O16658   2.026   8.844   5.288  0.1646 -0.1802  0.6669
  846MOL0     C16659   2.321   8.793   5.095  0.3455  0.1217 -0.1110
  846MOL0     C16660   2.366   8.797   4.955 -1.2133 -0.5695 -0.6332
  846MOL0     N16661   2.194   9.154   4.294 -0.1268  0.2915  0.1634
  846MOL0     N16662   2.089   9.226   4.270 -0.1388 -1.1968  0.1992
  846MOL0     C16663   0.963   9.765   4.279  0.2197  0.1655 -0.8041
  846MOL0     C16664   0.909   9.842   4.389  0.5221  0.2150  0.4276
  846MOL0     C16665   0.912  10.078   4.752  0.8106 -0.0801  0.0717
  846MOL0     C16666   0.855  10.204   4.733  0.4182 -0.3143 -0.7189
  846MOL0     C16667   0.805  10.273   4.841 -1.0866 -0.1851 -0.2828
  846MOL0     C16668   0.820  10.228   4.976 -0.3704  0.2000  0.0667
  846MOL0     O16669   0.762  10.273   5.090  1.1341 -1.4251  0.7917
  846MOL0     C16670   0.750  10.417   5.101 -0.8594 -0.8697 -0.3681
  846MOL0     C16671   0.605  10.453   5.090 -0.0477  1.0102 -0.4065
  846MOL0     C16672   0.581  10.598   5.131 -0.1101 -0.2975 -0.8287
  846MOL0     C16673   0.566  10.597   5.290 -0.5856 -0.4063 -0.1868
  846MOL0     C16674   0.527  10.727   5.336  0.1252  0.0206  1.0501
  846MOL0     C16675   0.494  10.837   5.360 -0.2030  0.1161  0.3222
  846MOL0     C16676   0.879  10.108   4.989  0.9867  0.4783 -0.5058
  846MOL0     C16677   0.927  10.031   4.884  0.0088 -0.5380  0.0269
  846MOL0     C16678   1.002   9.902   4.919  0.1874 -0.3896 -0.2032
  846MOL0     H16679   1.081  10.124   4.318  0.2197  0.7100  2.2259
  846MOL0     H16680   1.157   9.997   4.123 -2.0586  3.7721  0.0474
  846MOL0     H16681   1.246   9.653   4.236 -1.9869 -1.9921 -1.3219
  846MOL0     H16682   1.327   9.789   4.154  0.7530 -0.3364 -1.7696
  846MOL0     H16683   1.240   9.535   4.017 -0.3150  0.2174 -1.2053
  846MOL0     H16684   1.324   9.671   3.949 -1.5337 -2.2994 -1.3447
  846MOL0     H16685   1.507   9.524   3.990  2.3730  1.1639  0.8029
  846MOL0     H16686   1.505   9.638   4.120  0.7245 -2.2238  1.9007
  846MOL0     H16687   1.422   9.510   4.288  0.2096 -0.6188  0.3134
  846MOL0     H16688   1.383   9.370   4.185  1.3321 -1.3642  1.0939
  846MOL0     H16689   1.643   9.478   4.278  1.5999  1.4299 -0.8193
  846MOL0     H16690   1.653   9.411   4.119  1.7815  3.1864  0.2912
  846MOL0     H16691   1.538   9.241   4.349  0.9772 -0.7757 -0.8534
  846MOL0     H16692   1.573   9.191   4.194 -1.1573 -1.8402  1.3907
  846MOL0     H16693   1.747   9.121   4.374  2.2456  0.9496  2.7109
  846MOL0     H16694   1.780   9.283   4.402  1.3263 -0.6031 -0.9848
  846MOL0     H16695   1.814   9.137   4.125  0.4958 -0.3008 -0.6569
  846MOL0     H16696   1.862   9.297   4.143 -0.8685 -0.7039 -1.3113
  846MOL0     H16697   1.945   8.931   4.246  0.6570 -0.5780  0.5455
  846MOL0     H16698   2.331   8.931   4.345  0.1006 -0.9040 -0.6273
  846MOL0     H16699   2.233   8.819   4.245 -1.7939  0.9275 -1.1206
  846MOL0     H16700   2.127   8.892   4.513  0.2895  0.4558  0.1202
  846MOL0     H16701   2.083   8.764   4.399 -0.0864  2.0666 -1.1861
  846MOL0     H16702   2.271   8.625   4.445  1.0808  0.7039 -1.4885
  846MOL0     H16703   2.375   8.759   4.485  1.0733  0.3564  2.5661
  846MOL0     H16704   2.164   8.661   4.681 -0.2007  2.8025  2.6423
  846MOL0     H16705   2.342   8.621   4.679  1.3148  1.5337  1.6826
  846MOL0     H16706   2.075   8.866   4.789  0.7201  1.2971 -0.4620
  846MOL0     H16707   1.887   8.834   5.065  2.6106 -1.6311  1.2292
  846MOL0     H16708   1.916   8.955   4.940  0.5712 -1.0422 -1.8456
  846MOL0     H16709   1.968   8.984   5.116 -2.4425 -0.7160  0.4418
  846MOL0     H16710   2.017   8.675   5.484  0.1878  1.5550 -0.1446
  846MOL0     H16711   1.995   8.655   5.723  0.6562  0.8992  3.2425
  846MOL0     H16712   1.971   8.758   5.937 -0.4377  0.7672  1.5469
  846MOL0     H16713   2.029   8.590   5.934 -3.3325  1.9300 -2.3888
  846MOL0     H16714   2.002   8.633   6.165 -5.3764  4.5374 -1.6847
  846MOL0     H16715   2.177   8.651   6.134  1.3072  1.4970 -1.7599
  846MOL0     H16716   1.956   8.874   6.161  0.7900 -0.1837 -0.2672
  846MOL0     H16717   2.116   8.912   6.110 -0.6035  0.0508 -0.5357
  846MOL0     H16718   2.204   8.812   6.321 -1.0464  0.8332  2.4451
  846MOL0     H16719   2.059   8.751   6.375  1.3726 -0.1382  2.2645
  846MOL0     H16720   2.127   8.962   6.474  1.3850 -0.3783 -0.1289
  846MOL0     H16721   2.122   9.051   6.317  0.9471 -0.2543  1.1695
  846MOL0     H16722   1.858   8.933   6.421 -3.2067  1.0900 -2.9667
  846MOL0     H16723   1.888   9.032   6.286 -1.2520 -0.2151  0.7491
  846MOL0     H16724   1.939   9.221   6.430  3.2167  0.0148  1.0015
  846MOL0     H16725   1.957   9.125   6.579  0.1732 -1.3932 -0.6315
  846MOL0     H16726   1.756   9.262   6.584  0.0804 -1.1246  1.1061
  846MOL0     H16727   1.709   9.093   6.590 -2.0448 -0.5342 -1.6501
  846MOL0     H16728   2.382   8.820   5.777  1.4872  0.9543 -1.2805
  846MOL0     H16729   2.395   8.859   5.530 -1.7169 -0.6377 -1.5863
  846MOL0     H16730   2.396   8.766   5.168  1.3956 -1.9604 -1.8411
  846MOL0     H16731   2.471   8.788   4.932 -1.7534 -1.7583 -3.0146
  846MOL0     H16732   0.932   9.665   4.254  1.0059 -1.0341  2.4654
  846MOL0     H16733   0.840   9.796   4.459 -0.3658 -1.5913 -1.5183
  846MOL0     H16734   0.852  10.250   4.635  0.8609 -1.0381 -1.0887
  846MOL0     H16735   0.752  10.364   4.817 -2.6955 -0.6897  1.1163
  846MOL0     H16736   0.791  10.446   5.199  0.5583 -0.0141 -1.1848
  846MOL0     H16737   0.811  10.476   5.032  2.7976 -3.2725  0.5508
  846MOL0     H16738   0.549  10.376   5.143  1.2606  0.3851  0.1093
  846MOL0     H16739   0.584  10.438   4.983 -1.1291  1.4188 -0.2643
  846MOL0     H16740   0.663  10.668   5.112 -1.1459  1.4626  0.7945
  846MOL0     H16741   0.497  10.642   5.076  1.8662 -0.2015 -4.0457
  846MOL0     H16742   0.661  10.575   5.342  0.3837  1.7894 -0.9026
  846MOL0     H16743   0.489  10.529   5.326  2.5599 -3.7939  0.7460
  846MOL0     H16744   0.440  10.928   5.377 -0.8924 -0.2641  0.2311
  846MOL0     H16745   0.903  10.086   5.092 -1.9048  4.3072  1.2687
  846MOL0     H16746   0.970   9.832   4.841  0.5992 -0.7193 -0.0758
  846MOL0     H16747   1.110   9.915   4.905  0.3111 -1.0688  0.0638
  846MOL0     H16748   0.976   9.881   5.023 -1.2060  0.6697 -0.3052
  847MOL0     O16749   5.197   9.555   3.871  0.6970  0.0736 -0.0561
  847MOL0     C16750   5.228   9.598   3.762 -0.5242  0.0808 -0.0230
  847MOL0     O16751   5.285   9.717   3.743 -0.5695 -0.4099  0.5404
  847MOL0     C16752   5.330   9.793   3.854  0.7614  0.3891  0.6487
  847MOL0     C16753   5.258   9.810   3.982  0.9737  0.7036 -0.4504
  847MOL0     C16754   5.320   9.879   4.082 -0.2547 -0.2398 -0.0031
  847MOL0     C16755   5.440   9.946   4.062 -0.7856 -0.1347 -1.0158
  847MOL0     O16756   5.486  10.025   4.167 -0.4120 -0.2610 -0.1226
  847MOL0     C16757   5.402  10.139   4.196  0.4492 -0.6780  0.5958
  847MOL0     C16758   5.402  10.238   4.085 -0.1942  0.5714 -0.0236
  847MOL0     C16759   5.541  10.313   4.094 -0.4317  0.2637  0.5528
  847MOL0     C16760   5.649  10.278   3.988 -0.7485 -0.5116 -0.1509
  847MOL0     C16761   5.762  10.381   3.981  0.3276 -0.6847 -0.0260
  847MOL0     C16762   5.876  10.330   3.888 -1.0262 -0.1655 -0.0636
  847MOL0     C16763   6.008  10.426   3.876  1.0672  0.2676 -0.0274
  847MOL0     C16764   6.132  10.360   3.803  0.3281 -0.3200 -0.4951
  847MOL0     N16765   6.220  10.281   3.888  0.6831  0.3519 -1.1341
  847MOL0     C16766   6.206  10.163   3.943 -0.1960  0.7014 -0.2921
  847MOL0     C16767   6.336  10.120   3.964 -0.0882 -0.5542 -0.5635
  847MOL0     C16768   6.388   9.989   4.009 -0.2700  0.2077  0.1831
  847MOL0     C16769   6.292   9.878   4.052 -0.0819  0.5389 -0.3465
  847MOL0     C16770   6.338   9.758   4.138 -0.3941  1.1473  0.0440
  847MOL0     C16771   6.455   9.684   4.073  0.0373  0.4265 -0.2040
  847MOL0     O16772   6.431   9.623   3.945  0.2724 -0.0838  0.7843
  847MOL0     C16773   6.360   9.507   3.954  1.1721 -0.4340  0.8911
  847MOL0     C16774   6.252   9.481   3.868  0.8210  0.7848 -0.9027
  847MOL0     C16775   6.181   9.356   3.869 -0.3348 -0.6961  0.1046
  847MOL0     C16776   6.056   9.342   3.778 -0.7025  0.6490  0.2830
  847MOL0     C16777   6.231   9.251   3.948 -0.8846  0.5390 -0.6834
  847MOL0     C16778   6.171   9.112   3.947 -0.4337 -0.2029  0.5571
  847MOL0     O16779   6.034   9.093   3.962  0.1221  0.1964  0.4397
  847MOL0     C16780   5.994   8.967   3.994  0.3017  0.5278 -0.5625
  847MOL0     C16781   6.050   8.880   4.088 -0.0542 -0.5388  0.2222
  847MOL0     C16782   5.986   8.761   4.123 -0.4457  0.2971  0.3480
  847MOL0     C16783   5.867   8.723   4.060 -0.2768  1.0134  0.3558
  847MOL0     O16784   5.807   8.608   4.099  0.3735 -1.1551  0.2758
  847MOL0     C16785   5.671   8.581   4.059 -1.1443  0.0565  0.1437
  847MOL0     C16786   5.624   8.446   4.114  0.0245  0.4886 -0.8162
  847MOL0     C16787   5.572   8.461   4.262 -0.4772  0.6701 -0.3692
  847MOL0     C16788   5.671   8.513   4.366 -0.1595 -0.9641  0.1461
  847MOL0     C16789   5.598   8.515   4.508 -0.8328  0.0064 -0.4044
  847MOL0     C16790   5.693   8.547   4.621 -0.8556 -0.1787  0.6875
  847MOL0     C16791   5.644   8.565   4.760  0.5255 -0.3062  0.3718
  847MOL0     C16792   5.518   8.488   4.795  0.1734 -0.8590  0.4956
  847MOL0    Cl16793   5.563   8.323   4.795  0.0480 -0.1936  0.0352
  847MOL0     C16794   5.813   8.805   3.959  0.6204  0.5644 -0.6401
  847MOL0     C16795   5.869   8.929   3.937 -0.8520 -0.1720 -0.0647
  847MOL0     O16796   6.260   9.025   3.933 -0.1854 -0.2866  0.4999
  847MOL0     C16797   6.329   9.283   4.046  0.2852 -0.3424  0.2180
  847MOL0     C16798   6.396   9.411   4.047 -0.0063  0.2704  0.3854
  847MOL0     N16799   6.426  10.222   3.930 -0.0211  0.3829 -0.5402
  847MOL0     N16800   6.346  10.320   3.892 -0.6664  0.4820 -0.4569
  847MOL0     C16801   5.498   9.944   3.930  0.0346  0.5318 -0.6672
  847MOL0     C16802   5.442   9.873   3.828  0.1527  0.6237  0.4247
  847MOL0     C16803   5.210   9.521   3.641 -0.0938  0.2298  0.6159
  847MOL0     C16804   5.282   9.570   3.527  0.1183 -0.6364 -0.0084
  847MOL0     C16805   5.263   9.512   3.399  0.3278 -0.1290  0.2642
  847MOL0     C16806   5.172   9.400   3.385  0.9701 -0.3540  0.5829
  847MOL0     O16807   5.127   9.333   3.273 -0.5039  0.4209  0.3189
  847MOL0     C16808   5.143   9.394   3.140  0.5596  0.4920 -0.1202
  847MOL0     C16809   5.276   9.352   3.068  0.1698 -1.0475  1.0066
  847MOL0     C16810   5.278   9.202   3.033 -0.2529  0.3868  0.2005
  847MOL0     C16811   5.180   9.185   2.918  0.4416  0.2268  0.5076
  847MOL0     C16812   5.229   9.215   2.790 -0.2743 -0.3549 -0.6314
  847MOL0     C16813   5.266   9.231   2.675 -0.7998 -0.1709  1.0873
  847MOL0     C16814   5.116   9.359   3.506  0.2239 -0.5197  0.5071
  847MOL0     C16815   5.126   9.411   3.629 -0.9313  0.3337  0.4273
  847MOL0     C16816   5.053   9.345   3.741  0.0841 -0.4642 -0.5652
  847MOL0     H16817   5.163   9.759   3.990  2.2665 -1.6223  1.8826
  847MOL0     H16818   5.263   9.869   4.174  2.5970 -1.8435  1.7205
  847MOL0     H16819   5.428  10.195   4.287  0.5989 -0.3984  0.3851
  847MOL0     H16820   5.302  10.098   4.216  0.1919 -1.7169 -2.2870
  847MOL0     H16821   5.387  10.193   3.986  3.3693  1.3442 -1.0639
  847MOL0     H16822   5.319  10.304   4.111  0.1064  0.4646  1.2685
  847MOL0     H16823   5.521  10.420   4.091  0.7041  0.5083  0.8979
  847MOL0     H16824   5.581  10.302   4.196 -1.8866 -0.0272  1.1077
  847MOL0     H16825   5.684  10.175   3.997  0.3261 -0.0132  1.8958
  847MOL0     H16826   5.595  10.284   3.893 -0.9690  0.8562  0.0381
  847MOL0     H16827   5.801  10.397   4.082 -1.0803  0.9839  0.3042
  847MOL0     H16828   5.727  10.484   3.968  0.2550 -0.6470  0.4594
  847MOL0     H16829   5.907  10.232   3.925  0.1538  0.6546  1.2269
  847MOL0     H16830   5.840  10.305   3.788  1.4713 -1.1347 -0.7902
  847MOL0     H16831   6.036  10.441   3.980  0.6095  1.6802 -0.0847
  847MOL0     H16832   5.980  10.523   3.833  1.0207 -1.0944 -3.3776
  847MOL0     H16833   6.099  10.302   3.717  1.2906 -0.4905 -0.7678
  847MOL0     H16834   6.190  10.443   3.761 -0.3972  0.8744  0.7818
  847MOL0     H16835   6.115  10.105   3.949 -1.3601  2.1856 -2.3905
  847MOL0     H16836   6.458  10.004   4.092 -1.2278  1.7475  0.7714
  847MOL0     H16837   6.442   9.950   3.922  2.6450  3.2319  0.4404
  847MOL0     H16838   6.215   9.929   4.110 -0.8495 -0.5018 -0.4303
  847MOL0     H16839   6.261   9.825   3.961  1.7012 -0.7589 -0.2610
  847MOL0     H16840   6.368   9.790   4.238 -0.3377 -0.2084  0.4737
  847MOL0     H16841   6.249   9.695   4.145  1.4760 -2.1310 -2.4111
  847MOL0     H16842   6.532   9.761   4.062 -0.4412  0.8593 -0.5640
  847MOL0     H16843   6.486   9.613   4.151  4.2589  0.3475 -1.6936
  847MOL0     H16844   6.211   9.554   3.799 -4.2492 -1.7057 -0.9916
  847MOL0     H16845   6.069   9.410   3.693  2.0810 -0.6584 -0.4722
  847MOL0     H16846   5.971   9.374   3.838 -1.7253  0.2509 -0.9107
  847MOL0     H16847   6.034   9.241   3.742  1.2580  0.8369 -1.6337
  847MOL0     H16848   6.142   8.894   4.144 -0.9347 -0.5871  1.7393
  847MOL0     H16849   6.020   8.709   4.212 -1.3488 -0.6955  0.1332
  847MOL0     H16850   5.595   8.651   4.095 -0.0216  0.5677  1.6104
  847MOL0     H16851   5.662   8.576   3.950 -0.9520  1.2479  0.0627
  847MOL0     H16852   5.535   8.413   4.060  1.6010 -1.8856 -2.1812
  847MOL0     H16853   5.699   8.366   4.114 -1.6557 -1.3176  3.1272
  847MOL0     H16854   5.534   8.365   4.298  0.1321  0.8278  0.7078
  847MOL0     H16855   5.483   8.525   4.262 -0.0874  1.2243 -0.9885
  847MOL0     H16856   5.699   8.613   4.334 -2.8382 -1.2003 -3.4013
  847MOL0     H16857   5.757   8.445   4.373 -0.9462 -2.4081 -2.7541
  847MOL0     H16858   5.527   8.598   4.520  0.3903  1.4284 -2.3538
  847MOL0     H16859   5.550   8.418   4.520 -1.4962  0.4396  0.5966
  847MOL0     H16860   5.759   8.632   4.599 -0.3272 -0.4349  1.2485
  847MOL0     H16861   5.769   8.468   4.616 -0.8924 -0.2561  1.2540
  847MOL0     H16862   5.624   8.670   4.781  0.0862 -0.2181 -0.4445
  847MOL0     H16863   5.722   8.537   4.831  0.4402 -1.6625 -0.0377
  847MOL0     H16864   5.437   8.500   4.723 -1.5727 -0.9272  2.3425
  847MOL0     H16865   5.484   8.543   4.884 -1.5421  1.2525 -1.3511
  847MOL0     H16866   5.726   8.775   3.901 -0.0332  3.2780 -1.2523
  847MOL0     H16867   5.832   8.997   3.861  2.5745 -1.9245 -3.6665
  847MOL0     H16868   6.357   9.205   4.116 -3.1958 -0.6400  1.4591
  847MOL0     H16869   6.492   9.428   4.095  0.3797  0.2166 -0.3481
  847MOL0     H16870   5.571  10.019   3.902  0.9639 -0.2053 -0.2634
  847MOL0     H16871   5.500   9.872   3.737  1.4621 -2.4671  1.1615
  847MOL0     H16872   5.348   9.655   3.517 -0.5565  0.1520  1.8369
  847MOL0     H16873   5.308   9.558   3.312  1.5130  0.1439  0.9986
  847MOL0     H16874   5.057   9.356   3.085  0.7608  2.3506 -1.8134
  847MOL0     H16875   5.134   9.503   3.139  4.4735  0.9525 -1.1875
  847MOL0     H16876   5.361   9.377   3.132  1.3063  0.0519 -0.8625
  847MOL0     H16877   5.288   9.402   2.972  1.3158  0.7244  2.0048
  847MOL0     H16878   5.379   9.167   3.009  0.5124  0.8577  2.4534
  847MOL0     H16879   5.240   9.152   3.122  1.0715  1.3919  1.3876
  847MOL0     H16880   5.090   9.244   2.938  3.0392  3.7050  3.2019
  847MOL0     H16881   5.157   9.078   2.912  1.2848 -0.0005  1.1876
  847MOL0     H16882   5.282   9.250   2.571 -2.3073  2.3399  1.2240
  847MOL0     H16883   5.049   9.275   3.491 -0.1206  0.1435 -2.2497
  847MOL0     H16884   4.993   9.422   3.789 -0.9447 -0.4412 -1.8119
  847MOL0     H16885   4.973   9.287   3.695 -1.0966  1.6475 -1.2843
  847MOL0     H16886   5.113   9.286   3.811  0.3625  2.0475  1.4398
  848MOL0     O16887   3.640   9.810   9.561  0.2361 -0.0790  0.1744
  848MOL0     C16888   3.555   9.823   9.646  0.2409 -0.4046 -0.4341
  848MOL0     O16889   3.565   9.881   9.769  0.0193  0.7439  0.9374
  848MOL0     C16890   3.691   9.917   9.801 -0.4587 -0.5369  0.1435
  848MOL0     C16891   3.735  10.050   9.767 -0.1194  1.0109  0.2053
  848MOL0     C16892   3.861  10.094   9.806  0.6461 -0.0421  0.3742
  848MOL0     C16893   3.943  10.005   9.889  0.9677  0.1090 -0.0954
  848MOL0     O16894   4.049  10.055   9.951 -0.6280 -0.8652  0.0497
  848MOL0     C16895   4.168  10.034   9.874  0.0575  0.0303 -0.1204
  848MOL0     C16896   4.278  10.110   9.950  0.3756  0.0006 -0.1605
  848MOL0     C16897   4.420  10.089   9.889  0.0769 -0.6795  0.5844
  848MOL0     C16898   4.482   9.957   9.925 -0.3626  0.1195  0.3715
  848MOL0     C16899   4.608   9.918   9.844  0.5646 -0.4865 -0.4505
  848MOL0     C16900   4.721  10.017   9.879  0.4886  0.9389 -0.3236
  848MOL0     C16901   4.862   9.967   9.830  0.3495  0.4676 -0.0557
  848MOL0     C16902   4.970  10.048   9.875 -0.8354 -0.3291  0.0813
  848MOL0     N16903   5.103   9.986   9.884  0.1477  1.0290 -0.3298
  848MOL0     C16904   5.173   9.937   9.987  0.5293  0.3765  0.6214
  848MOL0     C16905   5.295   9.894   9.942 -0.0661 -0.9353 -0.4417
  848MOL0     C16906   5.413   9.856  10.027 -0.4661 -0.2498  0.3375
  848MOL0     C16907   5.540   9.821   9.949  0.4946  0.0803  0.2169
  848MOL0     C16908   5.663   9.795  10.037  0.0679 -0.0473  0.2051
  848MOL0     C16909   5.780   9.747   9.950  0.1271  0.4117  0.1781
  848MOL0     O16910   5.880   9.721  10.047 -0.1849 -0.1907 -0.2551
  848MOL0     C16911   6.008   9.680  10.006  0.2561  0.6783 -0.2102
  848MOL0     C16912   6.045   9.657   9.874  0.1717  0.9044 -0.0726
  848MOL0     C16913   6.173   9.608   9.832 -0.0349  0.3291  0.8312
  848MOL0     C16914   6.208   9.596   9.684 -0.3400 -0.9190 -0.5795
  848MOL0     C16915   6.272   9.585   9.936 -0.6372 -0.5087  0.3243
  848MOL0     C16916   6.408   9.540   9.904  0.6070  0.5525  0.0290
  848MOL0     O16917   6.444   9.415   9.959 -0.3274  0.1917 -0.6345
  848MOL0     C16918   6.562   9.355   9.916  0.3371 -0.9738  0.3869
  848MOL0     C16919   6.608   9.350   9.783 -0.5902 -0.0216 -0.3739
  848MOL0     C16920   6.731   9.298   9.750  0.5043 -0.5449 -0.1860
  848MOL0     C16921   6.811   9.243   9.848  0.1473  0.7602 -0.4370
  848MOL0     O16922   6.925   9.188   9.820 -0.2102  0.4048  0.5726
  848MOL0     C16923   6.978   9.165   9.685 -0.0117 -0.3188  0.0859
  848MOL0     C16924   7.067   9.056   9.694 -0.3983  0.2410 -0.0477
  848MOL0     C16925   7.125   9.021   9.555 -0.8017  0.2715  0.1690
  848MOL0     C16926   7.214   8.900   9.579 -0.3314  0.4060  0.2139
  848MOL0     C16927   7.280   8.832   9.456  0.0216 -0.2259  0.2182
  848MOL0     C16928   7.181   8.775   9.347  0.0436 -0.1618 -0.1694
  848MOL0     C16929   7.244   8.690   9.237  1.0937 -0.6972  0.2647
  848MOL0     C16930   7.313   8.777   9.133  0.6257  0.4812  0.3636
  848MOL0    Cl16931   7.397   8.687   9.013 -0.2126  0.0139 -0.3006
  848MOL0     C16932   6.774   9.240   9.979 -0.4100 -0.5918 -0.6892
  848MOL0     C16933   6.641   9.296  10.012 -0.4114 -0.5052  0.0614
  848MOL0     O16934   6.486   9.620   9.841  0.0274 -0.3826 -0.3150
  848MOL0     C16935   6.236   9.612  10.065  0.8303  0.1391  0.3805
  848MOL0     C16936   6.109   9.664  10.098 -0.1506  0.0151 -0.3972
  848MOL0     N16937   5.305   9.929   9.810  0.5041 -0.7137  0.9279
  848MOL0     N16938   5.186   9.967   9.775 -0.0761 -0.0711 -0.1655
  848MOL0     C16939   3.901   9.876   9.903 -0.5046  0.0757 -0.1236
  848MOL0     C16940   3.783   9.828   9.852  0.1506 -0.8322  1.3527
  848MOL0     C16941   3.428   9.745   9.617 -1.1446 -0.1496  0.6220
  848MOL0     C16942   3.402   9.702   9.485 -0.6264 -0.0111 -0.3507
  848MOL0     C16943   3.284   9.653   9.441  1.3116  0.0738  0.4556
  848MOL0     C16944   3.173   9.640   9.528  0.2790  0.3141  1.0487
  848MOL0     O16945   3.053   9.592   9.479 -0.9236  0.3172 -0.7321
  848MOL0     C16946   2.951   9.684   9.469  0.2215  0.0002  0.3564
  848MOL0     C16947   2.928   9.717   9.325  0.1588  0.1114 -0.4132
  848MOL0     C16948   2.903   9.593   9.234  0.7084 -0.4454  0.0611
  848MOL0     C16949   2.967   9.601   9.096  0.5036  0.2979 -0.4448
  848MOL0     C16950   2.938   9.484   9.017  0.3769 -0.2954  0.4673
  848MOL0     C16951   2.914   9.377   8.964 -0.6380  0.5529 -0.2540
  848MOL0     C16952   3.200   9.683   9.657  0.0232  0.6303  0.1072
  848MOL0     C16953   3.325   9.728   9.707 -0.1801  0.0596 -0.2183
  848MOL0     C16954   3.335   9.756   9.854 -0.5055  0.8724 -0.4451
  848MOL0     H16955   3.671  10.113   9.706  0.9697 -1.6857 -4.1215
  848MOL0     H16956   3.889  10.198   9.789 -4.6922  1.6105 -0.0221
  848MOL0     H16957   4.157  10.079   9.775 -0.4381  2.3910  0.9403
  848MOL0     H16958   4.197   9.928   9.868 -0.1086 -0.1279  1.5014
  848MOL0     H16959   4.251  10.216   9.942  2.8783  0.7959  1.1197
  848MOL0     H16960   4.277  10.081  10.056  2.8675  1.4477  0.3374
  848MOL0     H16961   4.408  10.082   9.780 -0.4677 -1.6187  0.7012
  848MOL0     H16962   4.483  10.178   9.904 -2.7856  2.1265 -2.4750
  848MOL0     H16963   4.503   9.964  10.033  1.4998  1.6758 -0.0403
  848MOL0     H16964   4.411   9.875   9.912  1.8792 -2.0259  0.8607
  848MOL0     H16965   4.590   9.919   9.736  0.2576 -0.0607 -0.4006
  848MOL0     H16966   4.650   9.823   9.878 -1.7168 -0.8220  1.7382
  848MOL0     H16967   4.696  10.118   9.846  0.4238  0.1127 -3.0629
  848MOL0     H16968   4.729  10.024   9.987 -2.8290  0.2317  0.0794
  848MOL0     H16969   4.858   9.971   9.721 -0.9380 -0.8923 -0.0928
  848MOL0     H16970   4.894   9.868   9.864  1.8555  0.8028 -0.4205
  848MOL0     H16971   4.971  10.131   9.804  0.5646 -1.1353 -0.8981
  848MOL0     H16972   4.950  10.096   9.971  2.3658  0.0755  0.6632
  848MOL0     H16973   5.130   9.935  10.087 -2.0177  2.7684 -0.3345
  848MOL0     H16974   5.386   9.765  10.083 -1.3933 -0.2558 -0.1051
  848MOL0     H16975   5.428   9.937  10.098 -2.6199  1.0089 -0.5532
  848MOL0     H16976   5.514   9.732   9.892 -1.5087  0.9182 -0.2714
  848MOL0     H16977   5.568   9.896   9.873 -1.5213  0.7738  0.0884
  848MOL0     H16978   5.693   9.888  10.087  2.9050 -0.3808 -0.7368
  848MOL0     H16979   5.639   9.720  10.113  0.0691  1.2326  1.5256
  848MOL0     H16980   5.758   9.654   9.897  2.2121 -0.0252 -0.0037
  848MOL0     H16981   5.800   9.820   9.871  0.0251 -1.2122 -1.4233
  848MOL0     H16982   5.984   9.666   9.785 -0.2432  0.7695  0.1940
  848MOL0     H16983   6.190   9.494   9.647  0.0401 -0.4069 -2.2900
  848MOL0     H16984   6.313   9.611   9.656 -1.1712  0.6849 -3.1764
  848MOL0     H16985   6.144   9.661   9.624  0.1699  0.1315 -0.0158
  848MOL0     H16986   6.556   9.396   9.700 -0.9416  0.9776  0.3787
  848MOL0     H16987   6.757   9.303   9.645  0.3334 -4.3436 -0.5512
  848MOL0     H16988   6.893   9.131   9.625 -0.6981  2.3476 -0.5928
  848MOL0     H16989   7.033   9.243   9.632  0.7090 -2.8102 -3.1595
  848MOL0     H16990   7.145   9.082   9.766 -0.8843  0.5939  0.3495
  848MOL0     H16991   7.020   8.968   9.739 -1.7870  0.7268 -0.5044
  848MOL0     H16992   7.171   9.111   9.512  0.8190 -1.3398 -1.7076
  848MOL0     H16993   7.052   8.987   9.481  0.2436  0.2714 -0.9086
  848MOL0     H16994   7.155   8.824   9.630 -1.2127 -0.5647 -2.1061
  848MOL0     H16995   7.291   8.926   9.652  0.9412 -0.1382 -0.9007
  848MOL0     H16996   7.353   8.903   9.416  0.7632  0.2901  2.3542
  848MOL0     H16997   7.343   8.748   9.485  0.6005 -0.0314 -0.4525
  848MOL0     H16998   7.126   8.864   9.315 -2.0073  0.0109  3.3066
  848MOL0     H16999   7.104   8.722   9.405 -1.2504  1.2804 -0.5085
  848MOL0     H17000   7.163   8.638   9.185  2.2979 -0.2985 -2.1291
  848MOL0     H17001   7.317   8.617   9.274  1.1375  0.2232  2.1204
  848MOL0     H17002   7.381   8.833   9.197 -0.8969  0.6124  1.9498
  848MOL0     H17003   7.240   8.840   9.081 -0.4333  1.4841  2.9000
  848MOL0     H17004   6.845   9.185  10.039 -0.3358 -2.3772 -2.3133
  848MOL0     H17005   6.613   9.293  10.117  4.9373 -0.8512  1.7883
  848MOL0     H17006   6.309   9.593  10.143  0.6314 -1.2855  0.2634
  848MOL0     H17007   6.076   9.661  10.201  1.1396 -1.3760  0.0019
  848MOL0     H17008   3.969   9.810   9.955 -1.4208  0.2777  1.3869
  848MOL0     H17009   3.756   9.723   9.860  0.9716 -1.3637 -1.5797
  848MOL0     H17010   3.483   9.712   9.413  2.1728 -1.7634  2.3120
  848MOL0     H17011   3.282   9.621   9.337  0.0704  0.3730  0.3746
  848MOL0     H17012   2.862   9.632   9.504 -0.1289  1.0207  1.0404
  848MOL0     H17013   2.955   9.775   9.530 -1.5499  0.6817 -0.4990
  848MOL0     H17014   3.023   9.757   9.287  0.4170 -0.5294 -0.4589
  848MOL0     H17015   2.843   9.784   9.309 -0.7545 -1.3440 -1.9380
  848MOL0     H17016   2.943   9.500   9.276  1.5729 -0.5125 -0.8796
  848MOL0     H17017   2.796   9.571   9.237  0.8198 -1.6320 -2.1045
  848MOL0     H17018   3.074   9.617   9.113  0.5496 -1.8929  2.1112
  848MOL0     H17019   2.916   9.687   9.052 -0.1835  0.0503 -0.1421
  848MOL0     H17020   2.886   9.283   8.922 -0.3148  0.4160 -0.1621
  848MOL0     H17021   3.112   9.697   9.718 -1.0038 -0.6857 -1.0060
  848MOL0     H17022   3.431   9.724   9.895 -0.8908  0.7935  0.4241
  848MOL0     H17023   3.314   9.862   9.872  0.4777  0.8897  0.7404
  848MOL0     H17024   3.250   9.707   9.903  0.0580 -1.7999 -1.9084
  849MOL0     O17025   8.040   1.688   1.040  0.4821  0.8893 -0.4720
  849MOL0     C17026   7.927   1.669   1.075 -0.7743 -0.8738 -0.2231
  849MOL0     O17027   7.841   1.764   1.115 -0.9568  0.9385  0.7763
  849MOL0     C17028   7.894   1.884   1.139 -0.2249 -0.1601  0.3454
  849MOL0     C17029   8.004   1.925   1.232  0.2714 -0.8126 -0.2963
  849MOL0     C17030   8.052   2.051   1.243  0.7051 -0.5038  0.7270
  849MOL0     C17031   8.000   2.148   1.151 -0.3867 -0.5525 -0.1378
  849MOL0     O17032   8.050   2.271   1.130  0.5031 -0.5334 -0.1340
  849MOL0     C17033   8.187   2.303   1.169 -0.2280 -0.1955  0.1299
  849MOL0     C17034   8.231   2.439   1.114  0.0378 -0.3253  0.4885
  849MOL0     C17035   8.368   2.489   1.155 -0.4317 -0.0539  0.4372
  849MOL0     C17036   8.473   2.384   1.116  0.3350 -0.5897 -0.2268
  849MOL0     C17037   8.605   2.441   1.086 -0.7712 -0.6717 -0.8135
  849MOL0     C17038   8.676   2.482   1.210 -0.1154 -0.9645  0.1674
  849MOL0     C17039   8.826   2.518   1.188  0.4982  0.5491  0.6730
  849MOL0     C17040   8.859   2.621   1.073  0.0132 -0.4776 -0.1272
  849MOL0     N17041   9.004   2.653   1.072  0.1496 -0.0367  0.1651
  849MOL0     C17042   9.089   2.662   1.179 -0.8500  0.2112 -0.3853
  849MOL0     C17043   9.210   2.706   1.122  1.8437 -0.0297 -1.1887
  849MOL0     C17044   9.332   2.750   1.193  0.1249 -0.2497  0.9826
  849MOL0     C17045   9.315   2.834   1.318  0.0582  0.0958  0.5297
  849MOL0     C17046   9.232   2.963   1.323  0.2678 -0.7322  0.5555
  849MOL0     C17047   9.294   3.064   1.230 -1.2841 -0.3124  0.4234
  849MOL0     O17048   9.255   3.198   1.272 -0.1025  0.8311 -0.1207
  849MOL0     C17049   9.322   3.297   1.208 -0.3152  0.1013 -0.5140
  849MOL0     C17050   9.307   3.422   1.258  0.0974 -0.1585  0.6651
  849MOL0     C17051   9.369   3.536   1.202 -0.2405 -0.2879 -0.1436
  849MOL0     C17052   9.329   3.668   1.261 -0.4774  0.6511  0.2809
  849MOL0     C17053   9.483   3.514   1.117  0.3666  0.5720  1.5186
  849MOL0     C17054   9.573   3.615   1.067  0.2882 -0.2007  1.5813
  849MOL0     O17055   9.656   3.597   0.961  0.3005 -0.6477  0.0126
  849MOL0     C17056   9.738   3.695   0.909 -0.1434  0.5183 -0.2109
  849MOL0     C17057   9.724   3.735   0.773 -0.4001  0.1323  0.4843
  849MOL0     C17058   9.804   3.832   0.719  0.1598  0.5456  0.1601
  849MOL0     C17059   9.903   3.893   0.791  0.1700 -0.9808 -0.0087
  849MOL0     O17060   9.980   4.001   0.757  0.0129 -0.1892 -0.7960
  849MOL0     C17061  10.008   4.022   0.620 -0.0274  0.4842 -0.3673
  849MOL0     C17062  10.077   4.163   0.613  0.6888 -0.1756  0.5164
  849MOL0     C17063  10.215   4.168   0.693 -0.4848  0.1763 -0.1047
  849MOL0     C17064  10.287   4.300   0.685  0.1871 -0.8841  0.6004
  849MOL0     C17065  10.437   4.283   0.731 -0.8442  0.1855  0.1234
  849MOL0     C17066  10.520   4.417   0.715 -0.1047  0.9647  0.2481
  849MOL0     C17067  10.670   4.398   0.715  0.6239  0.6777  1.0511
  849MOL0     C17068  10.726   4.328   0.837 -0.2768  0.1891  0.7436
  849MOL0    Cl17069  10.709   4.439   0.972 -0.0180  0.0647  0.0552
  849MOL0     C17070   9.920   3.848   0.922  0.4737  0.4634 -0.0639
  849MOL0     C17071   9.840   3.754   0.982 -0.0937  0.3325  0.1494
  849MOL0     O17072   9.574   3.719   1.129  0.4937 -0.2647 -0.0362
  849MOL0     C17073   9.499   3.381   1.067  0.4519  0.0441  0.3665
  849MOL0     C17074   9.421   3.277   1.108  0.1470  0.1283  0.1714
  849MOL0     N17075   9.202   2.693   0.984  0.4949 -0.0507  0.2376
  849MOL0     N17076   9.074   2.682   0.962  0.7229 -0.9932  0.0185
  849MOL0     C17077   7.892   2.107   1.066 -0.8420 -0.5603 -0.5843
  849MOL0     C17078   7.841   1.978   1.060  0.9380 -0.0987  0.7315
  849MOL0     C17079   7.887   1.525   1.095 -0.1685  0.1080  0.1564
  849MOL0     C17080   7.798   1.496   1.198  0.3742 -0.1665 -0.3752
  849MOL0     C17081   7.725   1.380   1.219  0.2273 -0.1449 -0.0012
  849MOL0     C17082   7.775   1.263   1.151 -0.2734 -0.5492  0.3750
  849MOL0     O17083   7.710   1.151   1.194 -0.1371 -0.3689 -0.0089
  849MOL0     C17084   7.780   1.024   1.195 -0.6974  0.2037  0.1587
  849MOL0     C17085   7.712   0.920   1.290 -0.1732 -0.8105  0.3295
  849MOL0     C17086   7.568   0.888   1.235  0.0483  0.6440 -0.2637
  849MOL0     C17087   7.455   0.992   1.257 -0.0187  0.1970 -0.6470
  849MOL0     C17088   7.335   0.972   1.178  0.0466  0.0640 -0.0494
  849MOL0     C17089   7.235   0.979   1.114 -0.1385  0.0742 -1.0947
  849MOL0     C17090   7.863   1.281   1.046 -0.2670 -0.1474  0.2719
  849MOL0     C17091   7.917   1.414   1.014 -0.0575 -0.5373  1.1642
  849MOL0     C17092   8.019   1.425   0.906  0.1500  0.3284  0.1721
  849MOL0     H17093   8.055   1.849   1.289 -1.0109  0.1106  2.2683
  849MOL0     H17094   8.124   2.080   1.318  0.5743  1.3970  0.1694
  849MOL0     H17095   8.247   2.232   1.112  0.5299  0.6290 -0.1215
  849MOL0     H17096   8.192   2.288   1.277 -3.1754 -0.4828  0.3079
  849MOL0     H17097   8.225   2.430   1.005 -0.5451 -0.2320  0.5113
  849MOL0     H17098   8.172   2.527   1.144  0.4858  0.3734 -0.6015
  849MOL0     H17099   8.389   2.586   1.108  0.2919 -0.9830 -1.2725
  849MOL0     H17100   8.366   2.495   1.264 -1.8956  2.1486  0.3401
  849MOL0     H17101   8.482   2.312   1.198  2.8970  1.0995  1.1062
  849MOL0     H17102   8.436   2.329   1.029  0.5866  0.1411 -0.8105
  849MOL0     H17103   8.597   2.515   1.006  1.7288 -2.4181 -2.8748
  849MOL0     H17104   8.675   2.372   1.037  2.1155  1.9904 -0.7680
  849MOL0     H17105   8.624   2.565   1.259  0.5083 -1.4163  1.6746
  849MOL0     H17106   8.670   2.401   1.283 -0.4802 -0.7196  0.4115
  849MOL0     H17107   8.879   2.428   1.155 -0.6313  0.4814 -1.1262
  849MOL0     H17108   8.871   2.549   1.283  0.2917 -2.4898  1.8648
  849MOL0     H17109   8.825   2.571   0.982  1.5971 -1.8074 -0.0312
  849MOL0     H17110   8.802   2.712   1.093  0.2035 -0.5253  0.6670
  849MOL0     H17111   9.066   2.660   1.285 -0.2891  0.5920 -0.2511
  849MOL0     H17112   9.385   2.809   1.118  1.1079 -1.6236  0.5759
  849MOL0     H17113   9.394   2.662   1.208  3.3677  1.3678 -1.6713
  849MOL0     H17114   9.273   2.758   1.385  0.0589 -0.1787  0.2210
  849MOL0     H17115   9.410   2.848   1.370 -0.0229 -1.1244  1.0545
  849MOL0     H17116   9.134   2.935   1.284  0.6031  1.2170 -1.9766
  849MOL0     H17117   9.230   3.013   1.420  2.7024  0.7501 -0.0587
  849MOL0     H17118   9.400   3.054   1.252 -0.6374 -0.5806 -2.4225
  849MOL0     H17119   9.281   3.042   1.124  0.3301 -0.5863  0.2604
  849MOL0     H17120   9.232   3.437   1.335 -1.4019 -1.5753 -0.4406
  849MOL0     H17121   9.324   3.735   1.174  2.3493 -1.5238 -1.8046
  849MOL0     H17122   9.406   3.696   1.334  1.6635 -0.4345 -1.4152
  849MOL0     H17123   9.229   3.660   1.304 -0.4244  1.7630  0.6424
  849MOL0     H17124   9.637   3.701   0.718 -2.2496  1.5633  2.3591
  849MOL0     H17125   9.784   3.858   0.615 -0.2037  0.2985  0.1671
  849MOL0     H17126  10.067   3.944   0.571 -3.8126 -2.2988 -0.8884
  849MOL0     H17127   9.913   4.029   0.566 -0.9746  0.8307  1.2705
  849MOL0     H17128  10.094   4.167   0.505 -0.6556 -1.7094  0.2163
  849MOL0     H17129  10.020   4.248   0.651  2.4231 -0.1754  3.4851
  849MOL0     H17130  10.282   4.087   0.662 -0.6653 -0.9764  2.3068
  849MOL0     H17131  10.207   4.142   0.799  0.2299 -0.7008 -0.2506
  849MOL0     H17132  10.249   4.384   0.745 -0.3790  0.1582 -1.1514
  849MOL0     H17133  10.298   4.330   0.581 -0.8937  0.6439  0.9009
  849MOL0     H17134  10.452   4.236   0.829  1.9632  0.5280 -0.0812
  849MOL0     H17135  10.490   4.212   0.667  0.3266 -0.7830  2.0788
  849MOL0     H17136  10.495   4.495   0.788  3.2206  1.6757  0.7951
  849MOL0     H17137  10.506   4.463   0.617  0.7219 -1.1585 -0.9412
  849MOL0     H17138  10.730   4.489   0.702  0.0311  0.9184 -0.1024
  849MOL0     H17139  10.690   4.331   0.631 -0.6873 -0.2457  1.4383
  849MOL0     H17140  10.829   4.307   0.809 -0.3645  1.0762 -0.2877
  849MOL0     H17141  10.673   4.234   0.854 -1.7666  0.8156 -0.2353
  849MOL0     H17142   9.986   3.906   0.985 -1.0117  1.2286  0.8481
  849MOL0     H17143   9.841   3.749   1.091 -0.3715  1.8399  0.2496
  849MOL0     H17144   9.571   3.371   0.987  1.0369  1.7737  0.6350
  849MOL0     H17145   9.418   3.185   1.049  0.9839  0.9575 -1.2183
  849MOL0     H17146   7.855   2.179   0.993  1.5464  0.8459 -0.5108
  849MOL0     H17147   7.779   1.942   0.979  1.2231 -0.3193  0.6081
  849MOL0     H17148   7.766   1.575   1.266  0.0322  0.6704 -1.4815
  849MOL0     H17149   7.653   1.364   1.298  1.1805 -1.0047  0.7187
  849MOL0     H17150   7.802   0.983   1.096 -3.6794  0.0283 -0.5372
  849MOL0     H17151   7.880   1.034   1.238 -0.4837  0.3098 -0.3655
  849MOL0     H17152   7.717   0.968   1.388 -0.0339 -0.9136  0.3745
  849MOL0     H17153   7.775   0.831   1.303 -1.2455 -1.4714  1.1547
  849MOL0     H17154   7.581   0.878   1.127  1.4539  4.0094 -0.5242
  849MOL0     H17155   7.523   0.797   1.276 -3.0691  2.1460 -0.1373
  849MOL0     H17156   7.491   1.095   1.248  0.4800 -0.0059 -1.0129
  849MOL0     H17157   7.440   0.984   1.365  1.8981 -1.5589 -0.4533
  849MOL0     H17158   7.156   0.995   1.043 -1.3630  1.3576  0.4735
  849MOL0     H17159   7.891   1.189   0.996  1.9957  1.5867 -1.9151
  849MOL0     H17160   8.017   1.340   0.837  2.6086  0.4106 -0.1036
  849MOL0     H17161   7.998   1.514   0.847  1.9207  0.1335 -0.8297
  849MOL0     H17162   8.119   1.447   0.945  0.2118  1.0436 -0.3755
  850MOL0     O17163   4.707   3.213   0.280  0.3095  0.5871  0.5686
  850MOL0     C17164   4.665   3.211   0.162 -0.1853 -0.7170 -0.0654
  850MOL0     O17165   4.736   3.165   0.058  0.3816  1.2532 -0.4036
  850MOL0     C17166   4.870   3.133   0.074  0.7177  0.1934 -0.0998
  850MOL0     C17167   4.907   3.013   0.126 -0.4701  0.0353 -1.0077
  850MOL0     C17168   5.044   2.987   0.156 -0.1204  0.3021  1.2014
  850MOL0     C17169   5.134   3.087   0.138  0.0318  0.4620 -0.7059
  850MOL0     O17170   5.267   3.084   0.169 -0.4324  0.6508  0.2631
  850MOL0     C17171   5.317   2.988   0.260 -0.4944 -0.1933 -0.4901
  850MOL0     C17172   5.451   3.035   0.314 -0.1909 -0.6635  0.2968
  850MOL0     C17173   5.513   2.952   0.425  0.2726  0.3237  0.7318
  850MOL0     C17174   5.643   2.874   0.382  0.1735  0.3265 -1.2051
  850MOL0     C17175   5.704   2.797   0.505 -0.4922  0.7848  0.3518
  850MOL0     C17176   5.848   2.737   0.465 -0.0517  0.2796 -0.2069
  850MOL0     C17177   5.937   2.693   0.586  0.0036  0.0073  0.3356
  850MOL0     C17178   6.056   2.615   0.535 -0.4316  0.2855 -1.0783
  850MOL0     N17179   6.171   2.706   0.509  0.1686 -0.0636  0.5263
  850MOL0     C17180   6.288   2.682   0.568  0.0038  0.1283  0.4441
  850MOL0     C17181   6.381   2.745   0.493 -0.1935 -0.0608 -0.3746
  850MOL0     C17182   6.528   2.745   0.486 -0.0291 -0.3897 -0.3559
  850MOL0     C17183   6.593   2.868   0.535 -0.0239  0.5458 -0.1212
  850MOL0     C17184   6.543   2.990   0.472 -0.6092 -0.6594 -0.2114
  850MOL0     C17185   6.633   3.112   0.494  0.2515  0.2429 -1.2699
  850MOL0     O17186   6.615   3.167   0.628  0.3745 -0.7241  0.1266
  850MOL0     C17187   6.708   3.249   0.692 -0.3132  1.0993 -0.2187
  850MOL0     C17188   6.708   3.226   0.824  0.5122 -0.3381 -0.4332
  850MOL0     C17189   6.779   3.310   0.904  0.1708  0.1660  0.8516
  850MOL0     C17190   6.775   3.288   1.046  0.4575 -0.1443  0.1972
  850MOL0     C17191   6.869   3.404   0.845  0.3370 -0.3903  0.8981
  850MOL0     C17192   6.965   3.497   0.914 -0.3322 -0.1526 -0.6313
  850MOL0     O17193   6.993   3.616   0.847  0.4509  0.3680  0.2297
  850MOL0     C17194   7.081   3.714   0.889 -0.5028 -0.4168 -1.1809
  850MOL0     C17195   7.176   3.708   0.986  0.8594  0.0638 -0.0241
  850MOL0     C17196   7.263   3.818   1.013  0.3295 -0.6262 -0.6710
  850MOL0     C17197   7.253   3.931   0.938 -0.4864 -0.8440  0.4767
  850MOL0     O17198   7.350   4.032   0.943  0.4682  0.0538 -0.2610
  850MOL0     C17199   7.433   4.061   1.052 -0.2461  0.5957 -0.2193
  850MOL0     C17200   7.481   4.203   1.041 -0.8431 -0.0301 -0.0944
  850MOL0     C17201   7.580   4.230   0.927 -0.0404  0.3984  0.7422
  850MOL0     C17202   7.719   4.273   0.982 -0.5393  0.1476 -0.0482
  850MOL0     C17203   7.802   4.311   0.860 -0.1847  0.4150 -0.8637
  850MOL0     C17204   7.938   4.384   0.888 -0.0072 -0.2789  0.3730
  850MOL0     C17205   7.980   4.464   0.756  0.5758 -0.5270  0.0382
  850MOL0     C17206   8.110   4.543   0.767 -0.2503 -0.7446 -0.6745
  850MOL0    Cl17207   8.103   4.674   0.886 -0.3594  0.2681  0.3406
  850MOL0     C17208   7.165   3.935   0.832  0.6350  0.3186  0.1926
  850MOL0     C17209   7.074   3.835   0.818 -0.4936 -0.1332  0.5179
  850MOL0     O17210   7.009   3.470   1.027  0.8105  0.3171  0.3198
  850MOL0     C17211   6.857   3.431   0.708 -0.4272  1.0067  0.8778
  850MOL0     C17212   6.777   3.348   0.630 -0.1899  0.3490  0.3535
  850MOL0     N17213   6.316   2.814   0.396 -0.7302 -0.3172 -0.3995
  850MOL0     N17214   6.196   2.780   0.402 -0.6711 -0.2175  0.4396
  850MOL0     C17215   5.097   3.209   0.082 -0.8215  1.0649 -0.4879
  850MOL0     C17216   4.966   3.232   0.058  0.0139 -0.2850  0.0646
  850MOL0     C17217   4.521   3.208   0.141  1.4711 -1.1238 -0.3174
  850MOL0     C17218   4.471   3.168   0.014  0.6654  0.3493 -0.4736
  850MOL0     C17219   4.328   3.166  -0.012 -0.3373  0.0882 -0.2967
  850MOL0     C17220   4.237   3.201   0.086  0.1059  0.2441  0.0466
  850MOL0     O17221   4.103   3.175   0.059  0.2262 -0.5701 -0.1756
  850MOL0     C17222   4.013   3.118   0.159  0.0108  0.6905 -0.0543
  850MOL0     C17223   3.872   3.137   0.106 -0.5237  0.0193  0.7758
  850MOL0     C17224   3.788   3.008   0.116 -0.7161 -0.7371  0.6905
  850MOL0     C17225   3.636   3.032   0.089 -0.2323  0.3428  0.2087
  850MOL0     C17226   3.565   3.023   0.221 -0.6593  0.0941  1.1094
  850MOL0     C17227   3.506   3.000   0.323 -0.1556  0.1456 -0.1041
  850MOL0     C17228   4.284   3.249   0.208  0.7514 -0.6593 -0.5379
  850MOL0     C17229   4.421   3.263   0.231  0.1835 -0.4411 -0.6271
  850MOL0     C17230   4.468   3.327   0.358 -0.5101  0.3398  0.1299
  850MOL0     H17231   4.834   2.938   0.153 -0.8609  0.8148  0.1779
  850MOL0     H17232   5.066   2.890   0.200 -1.9437 -0.6564  0.1541
  850MOL0     H17233   5.337   2.893   0.210 -0.8977  0.5821 -2.2229
  850MOL0     H17234   5.244   2.966   0.339  3.6926  1.6083  4.4161
  850MOL0     H17235   5.517   3.038   0.227  1.3314  1.2133  1.4313
  850MOL0     H17236   5.430   3.135   0.354  1.3038 -0.7374  1.3466
  850MOL0     H17237   5.554   3.011   0.508 -2.0494 -0.2674  2.4215
  850MOL0     H17238   5.441   2.877   0.460 -0.6464  1.3815  1.1619
  850MOL0     H17239   5.625   2.801   0.303 -0.7765 -1.8306  0.8842
  850MOL0     H17240   5.707   2.955   0.346 -0.2505  1.4164  0.3583
  850MOL0     H17241   5.636   2.714   0.529  2.3179 -1.9970 -0.5263
  850MOL0     H17242   5.715   2.863   0.591  0.1062 -1.8489  2.4625
  850MOL0     H17243   5.842   2.660   0.387  0.5762  2.1216 -2.1469
  850MOL0     H17244   5.900   2.824   0.424  0.5753  0.4854  0.9804
  850MOL0     H17245   5.883   2.631   0.659 -1.9283 -0.0598 -1.0728
  850MOL0     H17246   5.970   2.783   0.640 -1.3399  0.8991 -0.2776
  850MOL0     H17247   6.080   2.544   0.614 -2.1816 -1.0969 -1.7220
  850MOL0     H17248   6.019   2.565   0.445 -1.5885  0.6404 -0.8222
  850MOL0     H17249   6.302   2.637   0.665 -1.0275 -1.1604  0.0285
  850MOL0     H17250   6.561   2.730   0.383  1.2104  2.2563 -0.4315
  850MOL0     H17251   6.563   2.657   0.540 -1.3229 -1.8448 -1.7856
  850MOL0     H17252   6.589   2.880   0.644 -0.7001  0.1815 -0.0992
  850MOL0     H17253   6.699   2.849   0.512 -0.1457  0.4461 -0.6023
  850MOL0     H17254   6.524   2.971   0.366 -0.9511  0.0668 -0.2917
  850MOL0     H17255   6.442   3.010   0.509 -0.4953  1.9768 -1.1219
  850MOL0     H17256   6.735   3.074   0.488 -0.5636 -2.5886  0.5475
  850MOL0     H17257   6.609   3.183   0.414 -1.2316  0.6284 -0.5280
  850MOL0     H17258   6.639   3.153   0.867  0.1665  0.6027  0.6541
  850MOL0     H17259   6.791   3.383   1.099  1.7377 -1.2054  1.8232
  850MOL0     H17260   6.853   3.221   1.084  0.0873 -0.5916  0.1761
  850MOL0     H17261   6.685   3.237   1.083  0.4630  1.3921  2.5810
  850MOL0     H17262   7.200   3.610   1.026  2.1858 -1.2572 -3.7088
  850MOL0     H17263   7.323   3.814   1.104 -0.8951  1.0592  0.2605
  850MOL0     H17264   7.384   4.064   1.150  0.3470 -2.6584  0.2855
  850MOL0     H17265   7.515   3.990   1.066 -0.9954 -0.4491 -0.9429
  850MOL0     H17266   7.384   4.253   1.035 -2.3143 -2.8257 -1.5610
  850MOL0     H17267   7.533   4.229   1.134  0.7110 -3.2611  0.1061
  850MOL0     H17268   7.538   4.310   0.866  0.0595 -0.2600 -0.2107
  850MOL0     H17269   7.596   4.149   0.856 -0.2187  3.0754 -2.6320
  850MOL0     H17270   7.769   4.185   1.023  1.7051  0.2446 -2.3577
  850MOL0     H17271   7.708   4.360   1.048  2.3999  0.6860 -0.1323
  850MOL0     H17272   7.816   4.222   0.800 -1.0284 -1.2997  1.3349
  850MOL0     H17273   7.739   4.385   0.808 -0.3923  1.9925  1.4674
  850MOL0     H17274   8.015   4.311   0.912  0.6865  0.6473  1.0123
  850MOL0     H17275   7.932   4.459   0.967 -1.0590  0.9525 -0.8217
  850MOL0     H17276   7.903   4.532   0.718 -0.0902 -1.0853  0.3738
  850MOL0     H17277   7.981   4.396   0.671 -0.9571  2.6091 -2.7665
  850MOL0     H17278   8.144   4.577   0.668  0.1291  0.1522 -0.2492
  850MOL0     H17279   8.194   4.476   0.789  0.1105  0.4016  1.6758
  850MOL0     H17280   7.138   4.020   0.770  0.1870 -1.2966 -1.9496
  850MOL0     H17281   6.993   3.856   0.748  1.7454  0.6881 -2.0102
  850MOL0     H17282   6.908   3.507   0.650  0.7607 -0.1999  0.2995
  850MOL0     H17283   6.757   3.371   0.526  1.2618  1.4859  0.2903
  850MOL0     H17284   5.169   3.288   0.066  1.1546 -1.1626 -3.6288
  850MOL0     H17285   4.935   3.330   0.023 -1.5186 -0.0881  1.8446
  850MOL0     H17286   4.533   3.141  -0.071 -0.2246 -2.2580 -0.3646
  850MOL0     H17287   4.302   3.128  -0.111  1.7220  2.7932 -2.0040
  850MOL0     H17288   4.041   3.012   0.161 -2.3634 -0.0282 -1.1409
  850MOL0     H17289   4.027   3.168   0.256  0.4002  1.3073 -0.4254
  850MOL0     H17290   3.878   3.162  -0.001  1.8170 -0.0963  0.8186
  850MOL0     H17291   3.817   3.220   0.150 -0.0577  0.8852 -0.2310
  850MOL0     H17292   3.828   2.934   0.046 -1.8444 -1.1568  0.4506
  850MOL0     H17293   3.807   2.967   0.215  1.6542  1.9007  1.4265
  850MOL0     H17294   3.592   2.954   0.027  1.1404 -1.5391  1.5023
  850MOL0     H17295   3.612   3.119   0.027  2.2955 -0.6169 -2.3112
  850MOL0     H17296   3.457   3.009   0.417 -1.1414  2.5386 -0.7598
  850MOL0     H17297   4.217   3.289   0.283  1.3094  1.0781 -0.9218
  850MOL0     H17298   4.555   3.392   0.342 -0.1624 -0.6218 -2.4300
  850MOL0     H17299   4.392   3.396   0.397  2.4338  4.2574 -0.3530
  850MOL0     H17300   4.483   3.252   0.436 -1.2032  1.2431  1.1550
  851MOL0     O17301   5.822  11.210   1.092  0.2327  0.5170 -0.1268
  851MOL0     C17302   5.845  11.119   1.012  0.4970 -0.6623  0.0988
  851MOL0     O17303   5.759  11.022   0.967  0.3965 -0.1358  0.1578
  851MOL0     C17304   5.631  11.036   1.012 -0.6766 -0.3838 -0.4197
  851MOL0     C17305   5.548  11.131   0.950  0.3114 -0.3795  1.2857
  851MOL0     C17306   5.415  11.149   0.993 -0.3970 -0.2178  0.9251
  851MOL0     C17307   5.358  11.060   1.086  0.3582 -0.5508  0.1016
  851MOL0     O17308   5.228  11.062   1.143 -0.1312 -0.6256  0.2618
  851MOL0     C17309   5.143  11.162   1.084 -0.2741 -0.0781  0.2886
  851MOL0     C17310   5.000  11.142   1.126 -0.4078  0.6521 -1.1172
  851MOL0     C17311   4.885  11.180   1.029 -0.2137  0.4607 -0.9235
  851MOL0     C17312   4.749  11.130   1.083 -0.0304 -0.1349 -1.5287
  851MOL0     C17313   4.618  11.185   1.016 -0.5094 -0.2490  0.2197
  851MOL0     C17314   4.610  11.337   1.031 -0.4355  0.4004  0.2284
  851MOL0     C17315   4.464  11.403   1.001  0.1853  0.2770 -0.5180
  851MOL0     C17316   4.404  11.359   0.868 -0.2483 -0.2057 -0.9716
  851MOL0     N17317   4.289  11.447   0.846  0.1464  0.6138 -0.3269
  851MOL0     C17318   4.184  11.462   0.939 -0.6379  0.7436 -0.0934
  851MOL0     C17319   4.113  11.559   0.881  0.2279  0.6113 -0.1135
  851MOL0     C17320   3.988  11.613   0.940  0.1431  0.0615 -0.1329
  851MOL0     C17321   4.014  11.650   1.092  0.3866  1.2783 -1.1288
  851MOL0     C17322   4.107  11.760   1.119 -0.0176 -0.9762 -0.6755
  851MOL0     C17323   4.171  11.771   1.259  0.2347 -0.5242 -0.5477
  851MOL0     O17324   4.262  11.666   1.289  0.3630  0.9678 -0.5117
  851MOL0     C17325   4.397  11.688   1.283  0.0725  0.8820  0.2625
  851MOL0     C17326   4.463  11.789   1.211 -0.0461  0.2593  0.3951
  851MOL0     C17327   4.598  11.782   1.189 -0.7775 -0.8805  1.0229
  851MOL0     C17328   4.650  11.886   1.089  0.7680 -0.5082  0.1915
  851MOL0     C17329   4.675  11.685   1.249 -0.8836  0.2690 -1.0821
  851MOL0     C17330   4.820  11.660   1.225 -0.3054  0.3359  0.3097
  851MOL0     O17331   4.875  11.703   1.103  0.2452 -0.0153  1.0249
  851MOL0     C17332   5.012  11.708   1.106  0.3473  0.3050 -0.2073
  851MOL0     C17333   5.108  11.606   1.126  0.4809 -0.4077 -0.5559
  851MOL0     C17334   5.243  11.632   1.119 -0.5763 -0.4388 -0.6529
  851MOL0     C17335   5.293  11.755   1.084 -0.2452  0.3728  0.6327
  851MOL0     O17336   5.429  11.752   1.062 -0.7249 -0.8800  0.4687
  851MOL0     C17337   5.469  11.862   0.976  0.7771 -0.4770 -0.6726
  851MOL0     C17338   5.624  11.846   0.968 -1.2957 -0.3983 -1.2101
  851MOL0     C17339   5.695  11.953   0.884 -0.2410 -0.3516  0.7037
  851MOL0     C17340   5.842  11.954   0.905 -0.7170 -0.2121  0.4226
  851MOL0     C17341   5.908  12.053   0.796  0.4851  0.1068 -0.3793
  851MOL0     C17342   6.051  12.070   0.819  0.3400  0.1950  0.0437
  851MOL0     C17343   6.132  11.951   0.762 -0.3841  1.2801 -0.4227
  851MOL0     C17344   6.278  11.982   0.796 -0.4140  0.0497 -0.4399
  851MOL0    Cl17345   6.378  11.837   0.744 -0.3253 -0.1217 -0.2387
  851MOL0     C17346   5.198  11.855   1.052 -0.5597  0.5944  0.5690
  851MOL0     C17347   5.052  11.826   1.059 -0.7201  0.4485 -0.0952
  851MOL0     O17348   4.887  11.600   1.311 -0.1933  0.3359 -0.0387
  851MOL0     C17349   4.612  11.592   1.336 -0.6803 -0.1896  0.4364
  851MOL0     C17350   4.479  11.591   1.344 -0.1036  0.1962  0.4022
  851MOL0     N17351   4.169  11.598   0.767 -0.8743 -0.1146  0.6941
  851MOL0     N17352   4.276  11.531   0.739  0.9509  0.1566 -0.7094
  851MOL0     C17353   5.425  10.953   1.131  0.1511  0.3726 -0.4328
  851MOL0     C17354   5.564  10.950   1.106  0.2285 -0.4942 -0.1147
  851MOL0     C17355   5.989  11.106   0.975 -0.8194  0.5450  0.1423
  851MOL0     C17356   6.037  10.979   0.936  0.3406 -0.0951 -0.9660
  851MOL0     C17357   6.170  10.957   0.914  0.3341  1.1859 -0.2254
  851MOL0     C17358   6.270  11.053   0.938  1.1935  0.2643 -0.0281
  851MOL0     O17359   6.403  11.016   0.950  0.3670 -0.4263  0.0700
  851MOL0     C17360   6.457  10.944   0.837 -0.8945 -0.1917 -0.3375
  851MOL0     C17361   6.599  11.003   0.802 -0.7287 -0.6757  0.6787
  851MOL0     C17362   6.664  10.917   0.686  0.4828 -0.9060 -0.6979
  851MOL0     C17363   6.814  10.952   0.678 -0.7181 -0.6570  0.1037
  851MOL0     C17364   6.866  10.913   0.552 -0.2389  0.3997  0.0109
  851MOL0     C17365   6.930  10.892   0.452 -0.1016  0.3464 -0.4321
  851MOL0     C17366   6.227  11.177   0.979  0.2172 -0.0993 -0.5524
  851MOL0     C17367   6.086  11.209   0.992  0.0304  1.0842  0.3803
  851MOL0     C17368   6.060  11.350   1.015  0.5997  0.9473 -0.1297
  851MOL0     H17369   5.591  11.201   0.879  1.9788 -0.6756  1.9531
  851MOL0     H17370   5.348  11.218   0.943  0.5506 -0.2622 -0.4715
  851MOL0     H17371   5.135  11.181   0.976 -2.6507  2.1149  0.7654
  851MOL0     H17372   5.164  11.263   1.122 -3.7967  0.4033  1.3292
  851MOL0     H17373   4.991  11.035   1.146  1.2313  0.8967  1.3496
  851MOL0     H17374   4.984  11.194   1.221  0.2997  1.9671 -1.6950
  851MOL0     H17375   4.887  11.289   1.019  0.6333  0.4883 -0.5531
  851MOL0     H17376   4.902  11.135   0.931  2.3454 -0.9477  0.0810
  851MOL0     H17377   4.751  11.021   1.075 -2.8029 -0.2943 -1.0785
  851MOL0     H17378   4.741  11.155   1.190 -0.3279 -1.0502 -1.3251
  851MOL0     H17379   4.524  11.149   1.059 -0.6370  0.3131  0.4264
  851MOL0     H17380   4.628  11.153   0.912  1.5760 -1.1920  0.6761
  851MOL0     H17381   4.636  11.347   1.137  0.5474 -1.8238  0.2613
  851MOL0     H17382   4.693  11.373   0.970  0.7500  0.1087  1.6146
  851MOL0     H17383   4.467  11.512   0.995 -3.6492  0.7437  2.0990
  851MOL0     H17384   4.396  11.383   1.085  1.8864  0.2250  0.9004
  851MOL0     H17385   4.483  11.373   0.793  1.3490 -1.7585  0.3230
  851MOL0     H17386   4.369  11.256   0.883  1.2082 -0.5848  0.0173
  851MOL0     H17387   4.163  11.404   1.029  1.5258 -0.0370 -0.0272
  851MOL0     H17388   3.895  11.556   0.929  0.3173 -0.2204 -0.1374
  851MOL0     H17389   3.953  11.700   0.883  0.7379  2.4362  2.8614
  851MOL0     H17390   3.921  11.696   1.125  0.1041 -1.4106  2.4047
  851MOL0     H17391   4.039  11.558   1.145  1.9573  1.6927 -1.0936
  851MOL0     H17392   4.182  11.749   1.040  1.5139 -2.2169  0.8658
  851MOL0     H17393   4.056  11.856   1.105 -0.8820 -1.5672 -1.6882
  851MOL0     H17394   4.211  11.872   1.270 -3.2830  0.9085  0.4592
  851MOL0     H17395   4.083  11.773   1.325  0.1108  3.2071 -0.5942
  851MOL0     H17396   4.404  11.867   1.163 -1.2836 -0.6120  0.4557
  851MOL0     H17397   4.736  11.934   1.136 -0.4506  1.8010  0.2051
  851MOL0     H17398   4.579  11.968   1.070  2.2350  0.7701  0.0685
  851MOL0     H17399   4.670  11.849   0.988 -0.9405 -0.2092 -0.2896
  851MOL0     H17400   5.071  11.505   1.144  1.8399 -0.6367  1.3038
  851MOL0     H17401   5.317  11.553   1.131  0.4243  0.6395  0.5469
  851MOL0     H17402   5.415  11.842   0.883 -0.8463 -1.4634  0.4178
  851MOL0     H17403   5.447  11.960   1.017 -1.0623 -2.3228  3.3388
  851MOL0     H17404   5.655  11.841   1.073 -2.2066  0.4771 -0.8840
  851MOL0     H17405   5.640  11.750   0.919 -1.5052 -1.5693  0.9039
  851MOL0     H17406   5.658  12.055   0.895  0.9040  0.2550 -0.7290
  851MOL0     H17407   5.665  11.933   0.780 -1.1740 -2.8549  1.3675
  851MOL0     H17408   5.884  11.854   0.890  3.1712  1.1739  0.9169
  851MOL0     H17409   5.861  11.981   1.009 -0.2733  3.0277 -0.3702
  851MOL0     H17410   5.884  12.019   0.694 -0.3123  1.6769 -0.7581
  851MOL0     H17411   5.866  12.154   0.795  1.2529  0.4341 -0.2274
  851MOL0     H17412   6.066  12.065   0.928  0.2289 -2.2323  0.0132
  851MOL0     H17413   6.096  12.158   0.773 -1.3842  1.0683 -0.0295
  851MOL0     H17414   6.122  11.948   0.654  1.9828  0.1006 -0.6744
  851MOL0     H17415   6.098  11.859   0.811 -0.7795  2.8335  2.4894
  851MOL0     H17416   6.283  12.006   0.902  0.8856 -0.8831 -0.2570
  851MOL0     H17417   6.320  12.067   0.740 -1.2479  2.2609  2.0987
  851MOL0     H17418   5.222  11.952   1.010 -1.0932  1.1603  1.5369
  851MOL0     H17419   4.986  11.905   1.026 -0.9873  0.1441 -0.2918
  851MOL0     H17420   4.671  11.525   1.397 -2.0906 -1.3032  0.6368
  851MOL0     H17421   4.447  11.514   1.413  0.1684 -0.3096 -0.0367
  851MOL0     H17422   5.382  10.889   1.208  1.2770  2.1192  1.7406
  851MOL0     H17423   5.627  10.891   1.171 -0.9980  1.1168  2.7143
  851MOL0     H17424   5.975  10.892   0.916 -0.8494  0.6267 -0.5028
  851MOL0     H17425   6.202  10.860   0.879  1.5722  1.1775  0.8296
  851MOL0     H17426   6.470  10.845   0.883  0.3547  0.7918  1.5733
  851MOL0     H17427   6.387  10.950   0.754  0.2679 -0.0930 -1.3381
  851MOL0     H17428   6.668  11.007   0.886  0.4520 -0.1491 -0.2896
  851MOL0     H17429   6.588  11.099   0.751  2.5351 -1.2247 -1.3535
  851MOL0     H17430   6.648  10.809   0.692 -1.7554 -0.5188  1.7008
  851MOL0     H17431   6.611  10.937   0.592  2.7017 -2.8783 -2.5091
  851MOL0     H17432   6.865  10.895   0.756 -1.3439 -1.0614  0.2289
  851MOL0     H17433   6.842  11.055   0.699 -0.5809 -0.5000 -0.8189
  851MOL0     H17434   6.988  10.891   0.362  1.8149 -3.6431  0.6218
  851MOL0     H17435   6.303  11.255   0.980  2.1697 -1.9146  0.2618
  851MOL0     H17436   5.973  11.385   0.959  0.1427  4.6468  2.5118
  851MOL0     H17437   6.030  11.374   1.118 -0.5310  1.9930 -0.6759
  851MOL0     H17438   6.141  11.414   0.978  0.0804  0.9562 -1.2726
  852MOL0     O17439   0.442   2.951   4.206 -0.3104  0.1322  0.2365
  852MOL0     C17440   0.520   2.876   4.262 -0.3825  0.1337  1.0733
  852MOL0     O17441   0.653   2.861   4.237  0.2375 -0.7168  0.7606
  852MOL0     C17442   0.727   2.935   4.148 -0.4632 -0.1278 -0.3575
  852MOL0     C17443   0.695   3.072   4.110  0.1224  0.0497  0.4179
  852MOL0     C17444   0.760   3.136   4.002 -0.1475  0.1989  0.5017
  852MOL0     C17445   0.861   3.078   3.929  0.0224 -0.3620  0.0732
  852MOL0     O17446   0.907   3.141   3.819 -0.4290  0.1137 -0.1229
  852MOL0     C17447   0.970   3.055   3.717  0.1326  0.0752  0.5518
  852MOL0     C17448   1.057   3.146   3.638  0.5877 -0.0361 -0.2521
  852MOL0     C17449   1.127   3.077   3.521  0.3539  1.2084 -0.0585
  852MOL0     C17450   1.234   2.973   3.554 -0.6596 -0.2208  0.3983
  852MOL0     C17451   1.302   2.909   3.438 -0.2875 -1.0304 -0.3895
  852MOL0     C17452   1.454   2.889   3.482  0.8185  0.3412  0.2678
  852MOL0     C17453   1.528   2.820   3.361  0.9146 -0.2581  0.3921
  852MOL0     C17454   1.679   2.829   3.389 -0.3795  0.4378  0.4835
  852MOL0     N17455   1.758   2.720   3.327  1.1599  0.0720  0.5827
  852MOL0     C17456   1.787   2.727   3.195  0.2089  1.0990 -0.9441
  852MOL0     C17457   1.838   2.603   3.163  0.4059  0.8202 -0.0590
  852MOL0     C17458   1.907   2.578   3.026 -0.1845 -0.2267  0.4191
  852MOL0     C17459   2.056   2.620   3.002 -0.6350 -0.2745  0.7079
  852MOL0     C17460   2.154   2.564   3.110  0.0162 -0.7038  0.1834
  852MOL0     C17461   2.302   2.545   3.055 -0.3771  0.6693 -1.1684
  852MOL0     O17462   2.367   2.668   3.040  0.4395  0.0834 -0.7466
  852MOL0     C17463   2.478   2.675   2.967  0.1816  0.0278 -0.7398
  852MOL0     C17464   2.502   2.805   2.921  0.7450  0.1417 -0.1807
  852MOL0     C17465   2.598   2.831   2.824  0.6071 -0.3161 -1.4837
  852MOL0     C17466   2.610   2.978   2.789 -0.2930  1.0701  0.5266
  852MOL0     C17467   2.683   2.730   2.777 -0.3845 -0.4545  0.3820
  852MOL0     C17468   2.788   2.744   2.672 -0.4694 -0.5959  0.1816
  852MOL0     O17469   2.868   2.633   2.658 -0.4473 -0.4550  0.2893
  852MOL0     C17470   2.999   2.657   2.604 -0.0005  0.2843 -0.2325
  852MOL0     C17471   3.085   2.760   2.653 -0.1697 -0.3090  0.5485
  852MOL0     C17472   3.219   2.767   2.602 -0.5919 -0.7022 -0.3819
  852MOL0     C17473   3.264   2.678   2.511  0.0274 -0.6447 -0.5191
  852MOL0     O17474   3.391   2.713   2.473 -0.0646  0.5188 -0.0949
  852MOL0     C17475   3.466   2.600   2.417  0.4775  0.0269 -0.0479
  852MOL0     C17476   3.615   2.624   2.429 -0.2411  0.1552 -1.2486
  852MOL0     C17477   3.653   2.753   2.357  0.7103 -0.5526 -0.7348
  852MOL0     C17478   3.806   2.774   2.359  0.4799  0.3422  0.6265
  852MOL0     C17479   3.833   2.925   2.335  0.5723 -0.4005  0.2414
  852MOL0     C17480   3.977   2.960   2.324  0.9330 -0.2721  0.3667
  852MOL0     C17481   3.981   3.117   2.313 -0.7201 -0.0311  0.2144
  852MOL0     C17482   4.093   3.169   2.221  0.3957 -0.9826  0.5433
  852MOL0    Cl17483   4.066   3.122   2.048  0.0725 -0.0109 -0.0770
  852MOL0     C17484   3.180   2.587   2.455  0.4367  1.1999  1.0327
  852MOL0     C17485   3.047   2.571   2.502  0.1868  1.0039 -0.4622
  852MOL0     O17486   2.797   2.847   2.598  0.1033  0.8713 -0.3955
  852MOL0     C17487   2.658   2.602   2.831 -0.4127  0.4043 -0.0245
  852MOL0     C17488   2.562   2.575   2.932  1.1331  0.6153 -0.1041
  852MOL0     N17489   1.844   2.531   3.286 -0.1871 -0.0376  0.1395
  852MOL0     N17490   1.803   2.607   3.385  0.3826 -0.4685  0.7773
  852MOL0     C17491   0.905   2.952   3.974 -0.4082 -0.7647  0.3247
  852MOL0     C17492   0.839   2.882   4.075  0.5224 -0.8500  0.0954
  852MOL0     C17493   0.467   2.792   4.376  0.1610 -0.9201  0.3303
  852MOL0     C17494   0.346   2.842   4.435  0.5690 -0.5334  0.4051
  852MOL0     C17495   0.281   2.764   4.537  0.7062  0.4929  0.6066
  852MOL0     C17496   0.333   2.649   4.584 -0.9758 -0.6845 -1.0617
  852MOL0     O17497   0.259   2.592   4.685 -0.9250 -0.6012  0.2542
  852MOL0     C17498   0.320   2.479   4.756 -0.6558  0.2365  1.1313
  852MOL0     C17499   0.238   2.455   4.880 -0.6864  0.4838 -0.3692
  852MOL0     C17500   0.291   2.331   4.951  0.1329 -0.3236  0.6661
  852MOL0     C17501   0.201   2.275   5.061  0.3060 -0.2836  0.0452
  852MOL0     C17502   0.233   2.137   5.081 -0.8710 -0.3156  0.2423
  852MOL0     C17503   0.253   2.020   5.100  0.3666 -0.3478 -0.3051
  852MOL0     C17504   0.464   2.617   4.545  0.5392  0.0983 -0.4639
  852MOL0     C17505   0.531   2.677   4.439  1.0760  1.0996  0.4697
  852MOL0     C17506   0.645   2.595   4.382 -0.2402  1.1957  0.2967
  852MOL0     H17507   0.607   3.129   4.137  0.4264  0.9422 -0.4178
  852MOL0     H17508   0.725   3.231   3.965 -0.4476 -1.4024 -3.9887
  852MOL0     H17509   0.897   3.015   3.647  0.2370 -1.2676  1.1945
  852MOL0     H17510   1.027   2.969   3.752 -1.3964 -2.3151 -2.3755
  852MOL0     H17511   0.992   3.227   3.603  0.9674  1.2186  1.7994
  852MOL0     H17512   1.130   3.193   3.704  0.8675  0.8122 -1.1447
  852MOL0     H17513   1.051   3.025   3.461  0.1774  2.1571 -0.6897
  852MOL0     H17514   1.163   3.147   3.444  0.4398 -1.8809 -3.0578
  852MOL0     H17515   1.312   3.020   3.614 -0.7163 -0.8424  0.9799
  852MOL0     H17516   1.185   2.899   3.618 -0.6551  0.5776  1.3429
  852MOL0     H17517   1.288   2.961   3.343 -3.2394 -2.5001 -0.8539
  852MOL0     H17518   1.246   2.815   3.440  0.0541 -1.2294  0.4982
  852MOL0     H17519   1.502   2.983   3.512  1.5347  0.4361 -1.0952
  852MOL0     H17520   1.437   2.816   3.561  1.0323 -0.6509 -0.5776
  852MOL0     H17521   1.500   2.875   3.271  0.1715 -0.1275  0.6908
  852MOL0     H17522   1.479   2.722   3.359 -1.0665  0.6764 -1.6496
  852MOL0     H17523   1.732   2.921   3.363  0.3588 -0.3846 -1.1444
  852MOL0     H17524   1.692   2.814   3.497 -0.5312  2.4457  0.8192
  852MOL0     H17525   1.751   2.799   3.123  0.1367 -0.0031 -2.0499
  852MOL0     H17526   1.848   2.628   2.948  1.6224  1.1435 -0.1553
  852MOL0     H17527   1.907   2.471   3.004  0.2494  0.0868 -1.2802
  852MOL0     H17528   2.099   2.584   2.908  3.4475  2.6762  1.1774
  852MOL0     H17529   2.067   2.729   3.000  1.8019 -0.4661 -1.6167
  852MOL0     H17530   2.163   2.641   3.187 -0.6988 -0.5605  0.1336
  852MOL0     H17531   2.115   2.473   3.158 -3.1714  0.7034  0.4953
  852MOL0     H17532   2.365   2.495   3.128 -1.2946  2.3977  0.9246
  852MOL0     H17533   2.300   2.485   2.963  0.0833  2.0337 -2.1181
  852MOL0     H17534   2.430   2.881   2.951  0.1108 -0.4249 -0.2604
  852MOL0     H17535   2.552   2.989   2.697  1.2783 -0.7283 -0.7725
  852MOL0     H17536   2.711   3.019   2.780  0.4220 -0.2964  1.8824
  852MOL0     H17537   2.573   3.046   2.867  3.3895  1.4278  2.1530
  852MOL0     H17538   3.044   2.835   2.721 -0.3407  1.2578 -1.2256
  852MOL0     H17539   3.277   2.849   2.644 -2.8022  1.8040 -1.9051
  852MOL0     H17540   3.443   2.505   2.467  0.3125  0.2442  0.2967
  852MOL0     H17541   3.438   2.595   2.312 -1.4184 -0.9759  0.4516
  852MOL0     H17542   3.636   2.630   2.537  0.2536  0.6696 -1.3677
  852MOL0     H17543   3.675   2.542   2.389  0.5735  0.2696 -0.3150
  852MOL0     H17544   3.614   2.845   2.401  0.1870 -0.3451 -1.6104
  852MOL0     H17545   3.620   2.756   2.252 -2.0306 -1.0463  0.0268
  852MOL0     H17546   3.860   2.712   2.286  1.2290  1.7111 -0.0196
  852MOL0     H17547   3.832   2.746   2.461 -4.9407  1.1454  2.5362
  852MOL0     H17548   3.779   2.950   2.243 -1.3821 -0.9299  1.1816
  852MOL0     H17549   3.792   2.985   2.417 -0.9753 -0.4451 -0.4539
  852MOL0     H17550   4.023   2.906   2.240  2.6174  1.2356  0.2430
  852MOL0     H17551   4.036   2.922   2.408  0.2071 -0.1005  0.9629
  852MOL0     H17552   3.979   3.159   2.414 -0.8998 -3.5456  1.8208
  852MOL0     H17553   3.887   3.151   2.267  0.1222  0.5620 -1.1463
  852MOL0     H17554   4.189   3.121   2.244  2.2363  0.0912 -3.8990
  852MOL0     H17555   4.106   3.276   2.237  0.9891 -0.8048 -0.9852
  852MOL0     H17556   3.212   2.534   2.365 -0.9963  0.1367  1.1062
  852MOL0     H17557   2.971   2.507   2.458  0.6856  0.6155 -0.7832
  852MOL0     H17558   2.722   2.516   2.810  0.2205 -0.1074  3.3231
  852MOL0     H17559   2.541   2.474   2.966 -0.9985  0.1238 -2.5649
  852MOL0     H17560   0.967   2.884   3.916 -1.3336 -1.7433  0.4517
  852MOL0     H17561   0.882   2.782   4.080  0.7574 -0.9944 -2.7210
  852MOL0     H17562   0.298   2.936   4.409 -1.4866 -2.1068 -1.8699
  852MOL0     H17563   0.183   2.805   4.560  0.5735  1.6250 -1.7097
  852MOL0     H17564   0.315   2.386   4.698 -1.9497  0.3256  1.0698
  852MOL0     H17565   0.422   2.503   4.787  0.4612  0.9738 -2.5970
  852MOL0     H17566   0.132   2.449   4.854 -1.0790  0.2057  1.1959
  852MOL0     H17567   0.229   2.531   4.958  0.6841 -1.3463  1.6948
  852MOL0     H17568   0.312   2.257   4.873 -1.6627  0.4144 -0.5910
  852MOL0     H17569   0.388   2.351   4.997 -0.7155  1.1734  1.9231
  852MOL0     H17570   0.096   2.291   5.035  1.2938  2.6877 -2.7261
  852MOL0     H17571   0.215   2.325   5.157  0.3030 -0.3103  0.0602
  852MOL0     H17572   0.266   1.913   5.103 -0.2033 -0.4047  1.4843
  852MOL0     H17573   0.517   2.538   4.598 -0.9090  1.3134  3.1470
  852MOL0     H17574   0.619   2.575   4.278  0.0642  0.5070  0.3514
  852MOL0     H17575   0.735   2.657   4.377 -0.4919  1.4644 -2.3975
  852MOL0     H17576   0.663   2.495   4.422 -0.9830 -0.5027 -3.1917
  853MOL0     O17577   5.007   9.884  10.781 -0.2082 -0.2999 -0.1510
  853MOL0     C17578   4.938   9.824  10.863 -0.3494  0.2280 -0.6652
  853MOL0     O17579   4.981   9.806  10.993 -0.1150 -0.0833  0.0142
  853MOL0     C17580   5.105   9.839  11.018 -0.4689 -0.4013  0.4240
  853MOL0     C17581   5.130   9.957  11.099 -0.3114  0.1736  0.0418
  853MOL0     C17582   5.262   9.986  11.133  0.2679  0.1476  0.4957
  853MOL0     C17583   5.370   9.911  11.086 -0.6832  0.1318 -0.2129
  853MOL0     O17584   5.497   9.938  11.128 -0.0611 -0.4379  1.0132
  853MOL0     C17585   5.556  10.057  11.072 -0.6393 -0.6316  0.0361
  853MOL0     C17586   5.584  10.051  10.914 -0.5648 -0.0062 -0.6715
  853MOL0     C17587   5.601  10.186  10.851 -0.0324  0.1877 -0.1039
  853MOL0     C17588   5.735  10.266  10.881  0.6003 -0.6266  0.7455
  853MOL0     C17589   5.736  10.410  10.827  0.2362 -0.4700  0.6522
  853MOL0     C17590   5.620  10.493  10.884 -0.3241  0.1023  0.4064
  853MOL0     C17591   5.619  10.497  11.043  0.4675  1.5712 -0.3532
  853MOL0     C17592   5.497  10.572  11.102 -0.3225 -0.4368  0.1055
  853MOL0     N17593   5.375  10.492  11.079 -0.0607  0.3798  0.4182
  853MOL0     C17594   5.281  10.483  10.974 -0.9600 -0.5448  0.3440
  853MOL0     C17595   5.194  10.393  11.022 -0.1413 -0.2536  0.4925
  853MOL0     C17596   5.067  10.345  10.947 -0.3065 -0.1300  0.2233
  853MOL0     C17597   5.100  10.219  10.857  0.9279  0.0860  0.0679
  853MOL0     C17598   5.134  10.269  10.710 -0.7105  0.3766 -0.5712
  853MOL0     C17599   5.118  10.164  10.598  0.9499  0.4355 -0.0050
  853MOL0     O17600   5.210  10.187  10.491 -0.4607  0.3464  0.2803
  853MOL0     C17601   5.179  10.242  10.370 -0.8940  0.7458  0.4516
  853MOL0     C17602   5.056  10.307  10.343 -0.0589 -0.1274 -0.7167
  853MOL0     C17603   5.030  10.358  10.219 -0.1010 -0.6810 -0.9518
  853MOL0     C17604   4.905  10.425  10.182  0.4230  0.1748 -0.0904
  853MOL0     C17605   5.135  10.346  10.113  0.1614  0.0022 -0.4645
  853MOL0     C17606   5.124  10.421   9.987  0.2353  0.1845 -0.6153
  853MOL0     O17607   5.094  10.549   9.980 -0.5960  1.1734 -0.3273
  853MOL0     C17608   5.170  10.639  10.053 -0.1750 -0.4087  0.0536
  853MOL0     C17609   5.305  10.629  10.057  0.0195 -0.7636 -0.3593
  853MOL0     C17610   5.374  10.724  10.130  0.3410  0.0006  0.0572
  853MOL0     C17611   5.308  10.826  10.195 -0.0722 -0.4445 -0.3108
  853MOL0     O17612   5.396  10.919  10.246  0.3187 -0.3284 -0.1700
  853MOL0     C17613   5.337  11.039  10.314  0.3466  0.0168 -0.2415
  853MOL0     C17614   5.444  11.148  10.334 -0.6536 -0.1361 -0.3856
  853MOL0     C17615   5.414  11.265  10.432 -0.4621  0.1851  0.1873
  853MOL0     C17616   5.522  11.375  10.421  0.0105  0.1835 -0.2726
  853MOL0     C17617   5.502  11.501  10.511 -0.2159  0.5142  0.0727
  853MOL0     C17618   5.518  11.486  10.666 -0.5353  0.9083  0.1690
  853MOL0     C17619   5.665  11.463  10.706  0.0117  0.0632 -0.4364
  853MOL0     C17620   5.680  11.442  10.857 -0.8214  0.1872  0.1971
  853MOL0    Cl17621   5.585  11.309  10.922 -0.2048  0.2838  0.6965
  853MOL0     C17622   5.170  10.830  10.197 -0.0082 -0.2101 -0.4007
  853MOL0     C17623   5.097  10.740  10.121 -0.1137  0.1324  0.4078
  853MOL0     O17624   5.130  10.351   9.888  0.4226  0.1217  0.1927
  853MOL0     C17625   5.254  10.273  10.141 -0.3632 -0.7623 -0.0441
  853MOL0     C17626   5.278  10.219  10.271  0.1315  0.5359 -0.1806
  853MOL0     N17627   5.229  10.353  11.148 -0.1979  0.2621 -0.3068
  853MOL0     N17628   5.344  10.402  11.173  0.7875 -0.9618  0.9632
  853MOL0     C17629   5.344   9.789  11.017 -1.1731  0.0355  0.0497
  853MOL0     C17630   5.214   9.759  10.985  0.9137  0.0668  0.0076
  853MOL0     C17631   4.808   9.780  10.828  0.2658 -0.3303 -0.4485
  853MOL0     C17632   4.770   9.655  10.882  0.1640 -0.0728 -0.7273
  853MOL0     C17633   4.640   9.611  10.859  0.7823  0.2802 -0.4951
  853MOL0     C17634   4.543   9.693  10.798 -0.1861  0.1056 -0.7961
  853MOL0     O17635   4.416   9.654  10.771 -0.6022 -0.4257  0.5088
  853MOL0     C17636   4.396   9.514  10.749 -0.5083 -0.1597  0.5122
  853MOL0     C17637   4.258   9.479  10.703  0.9011  0.7714  0.5258
  853MOL0     C17638   4.246   9.418  10.564  0.3876  0.2721  0.3307
  853MOL0     C17639   4.235   9.257  10.559 -0.2257  0.8092 -0.5950
  853MOL0     C17640   4.329   9.191  10.652  0.3087 -0.1892  0.0417
  853MOL0     C17641   4.400   9.158  10.743  0.3597 -0.0410 -0.2881
  853MOL0     C17642   4.579   9.824  10.757  0.0532  0.1757  0.3891
  853MOL0     C17643   4.710   9.868  10.773  0.3803  0.5157 -0.3645
  853MOL0     C17644   4.730  10.014  10.773 -0.2662 -0.4108  0.5940
  853MOL0     H17645   5.053  10.028  11.127  0.1409  0.3387  0.8971
  853MOL0     H17646   5.271  10.076  11.193  3.2674 -0.7141  1.5153
  853MOL0     H17647   5.647  10.067  11.132 -2.5046 -0.2894  3.0389
  853MOL0     H17648   5.502  10.150  11.090  1.3518  1.0931 -2.2671
  853MOL0     H17649   5.662   9.980  10.886 -0.0561  0.7552 -1.2485
  853MOL0     H17650   5.489  10.015  10.876 -1.5106 -0.0145  1.5182
  853MOL0     H17651   5.583  10.183  10.744  0.0064 -0.4691 -0.0945
  853MOL0     H17652   5.515  10.243  10.887 -1.5573 -0.6364 -2.2739
  853MOL0     H17653   5.760  10.267  10.987  1.3860 -0.2150  0.5592
  853MOL0     H17654   5.813  10.217  10.823 -0.2583  1.4674 -2.4825
  853MOL0     H17655   5.730  10.390  10.720  1.3289 -3.2930  1.0359
  853MOL0     H17656   5.827  10.469  10.843 -0.0777  0.1554  0.1906
  853MOL0     H17657   5.627  10.596  10.849  0.1115  0.2715  0.9634
  853MOL0     H17658   5.532  10.440  10.849  1.2014 -0.9588 -2.0393
  853MOL0     H17659   5.706  10.552  11.079  1.2118 -1.4870  2.9709
  853MOL0     H17660   5.622  10.396  11.083 -1.0566  1.1027 -1.3378
  853MOL0     H17661   5.514  10.597  11.207  0.0733  2.0726 -0.4761
  853MOL0     H17662   5.495  10.671  11.055  2.9105  0.6735  1.9730
  853MOL0     H17663   5.272  10.544  10.885 -4.0453 -0.6748  0.4720
  853MOL0     H17664   5.032  10.429  10.886  0.0498  0.5827  0.9677
  853MOL0     H17665   4.993  10.337  11.027  0.4917  5.9625  2.1067
  853MOL0     H17666   5.181  10.164  10.906 -1.4237 -2.4767  1.3000
  853MOL0     H17667   5.012  10.155  10.850 -1.9626  3.2486  3.4223
  853MOL0     H17668   5.066  10.352  10.689 -0.6533  0.1346 -1.7823
  853MOL0     H17669   5.233  10.314  10.713 -0.2802 -0.5574 -0.0902
  853MOL0     H17670   5.130  10.063  10.638  2.5787  0.7573  0.3847
  853MOL0     H17671   5.013  10.162  10.566  0.8152 -4.7341  0.0383
  853MOL0     H17672   4.981  10.330  10.419 -0.2152 -0.6219 -0.7209
  853MOL0     H17673   4.817  10.397  10.241 -0.1778 -1.1021 -1.5346
  853MOL0     H17674   4.876  10.384  10.085 -0.0634  1.7336 -0.6417
  853MOL0     H17675   4.900  10.533  10.164  0.1245  0.1200 -0.3627
  853MOL0     H17676   5.352  10.555   9.992  0.7742  1.4027 -2.4100
  853MOL0     H17677   5.482  10.715  10.128  0.6080  2.3601 -2.3943
  853MOL0     H17678   5.258  11.086  10.254 -1.4707 -1.1094  1.1927
  853MOL0     H17679   5.306  11.010  10.414  0.7659  1.1483  0.2381
  853MOL0     H17680   5.530  11.094  10.374  0.6582  4.2025  3.4278
  853MOL0     H17681   5.485  11.172  10.235 -1.4779 -1.0101 -0.9562
  853MOL0     H17682   5.396  11.222  10.531 -2.0368  2.3402  0.9079
  853MOL0     H17683   5.322  11.314  10.400 -0.6917  0.5498  1.3826
  853MOL0     H17684   5.535  11.408  10.317  1.7336  2.7490  0.6597
  853MOL0     H17685   5.619  11.335  10.451  0.1496  1.1889  0.6638
  853MOL0     H17686   5.577  11.574  10.478  0.4989 -0.4040 -0.3950
  853MOL0     H17687   5.409  11.543  10.473  0.2813  3.0610  1.4228
  853MOL0     H17688   5.444  11.411  10.695 -0.9772  0.9893 -0.7023
  853MOL0     H17689   5.476  11.577  10.711 -1.0973  0.9989 -0.5240
  853MOL0     H17690   5.727  11.549  10.679 -2.2785  1.1807 -2.4499
  853MOL0     H17691   5.701  11.380  10.644 -2.4925  0.3617 -2.4878
  853MOL0     H17692   5.646  11.539  10.894 -0.3329  0.1696  0.6991
  853MOL0     H17693   5.785  11.432  10.885 -0.4103  2.4779 -0.3548
  853MOL0     H17694   5.116  10.912  10.244  0.3287 -0.7650  0.9980
  853MOL0     H17695   4.990  10.751  10.104  0.0876 -0.6110 -1.7145
  853MOL0     H17696   5.336  10.255  10.073  0.7855 -0.5144  1.2355
  853MOL0     H17697   5.359  10.152  10.295  0.4489  0.7377 -0.6605
  853MOL0     H17698   5.420   9.713  10.996 -0.4842  0.7247 -0.0043
  853MOL0     H17699   5.188   9.669  10.929 -0.0391  0.4431 -0.1651
  853MOL0     H17700   4.838   9.601  10.948 -2.0151 -2.1363 -0.0405
  853MOL0     H17701   4.603   9.517  10.899 -0.0089 -0.0095 -1.8386
  853MOL0     H17702   4.469   9.475  10.677  0.0187  1.2613  0.2403
  853MOL0     H17703   4.410   9.471  10.849  0.5728 -0.7097  0.1502
  853MOL0     H17704   4.190   9.565  10.702  0.6907  0.7034 -3.3663
  853MOL0     H17705   4.216   9.408  10.775  1.6202 -1.6179 -1.3026
  853MOL0     H17706   4.152   9.446  10.514 -1.8889 -2.7504  2.5198
  853MOL0     H17707   4.330   9.450  10.502  2.1198 -2.3899  1.1721
  853MOL0     H17708   4.275   9.221  10.464  0.6347  3.0924 -1.1584
  853MOL0     H17709   4.136   9.213  10.574  1.7047 -3.1282  2.6945
  853MOL0     H17710   4.467   9.137  10.824 -0.4956  0.3321  0.5373
  853MOL0     H17711   4.499   9.883  10.714  0.9561  0.9575 -0.2304
  853MOL0     H17712   4.797  10.041  10.691  1.8085  1.0697  2.6483
  853MOL0     H17713   4.634  10.060  10.746  0.0861 -1.7112 -3.6431
  853MOL0     H17714   4.776  10.055  10.863  1.6311  2.2144 -1.4429
  854MOL0     O17715   3.693   2.940  10.699  0.4729  0.8716 -0.6901
  854MOL0     C17716   3.645   2.986  10.599  1.2609 -0.3063  0.2388
  854MOL0     O17717   3.696   3.086  10.528 -0.5747  0.2694 -0.6805
  854MOL0     C17718   3.815   3.144  10.551 -0.3038  0.2304 -0.3517
  854MOL0     C17719   3.929   3.079  10.587 -0.5443  1.0208  0.4378
  854MOL0     C17720   4.049   3.146  10.612  0.1746  0.3391  0.6033
  854MOL0     C17721   4.052   3.287  10.590 -1.2078  0.7875 -0.5702
  854MOL0     O17722   4.167   3.352  10.616  0.1744  0.0087 -0.1812
  854MOL0     C17723   4.167   3.488  10.642  0.1257 -0.4107  0.7196
  854MOL0     C17724   4.297   3.544  10.703 -1.3094 -1.2806  0.5163
  854MOL0     C17725   4.339   3.684  10.639 -0.7050 -0.4750 -0.3054
  854MOL0     C17726   4.228   3.785  10.667 -0.1292  0.0067  0.0631
  854MOL0     C17727   4.277   3.929  10.627  0.2773  0.2216  0.5895
  854MOL0     C17728   4.169   4.025  10.677  0.3201  0.2344 -0.7158
  854MOL0     C17729   4.162   4.169  10.614 -0.2391 -0.4704 -0.3449
  854MOL0     C17730   4.261   4.257  10.676 -0.3629 -1.3868 -0.0329
  854MOL0     N17731   4.406   4.239  10.679 -0.4839 -0.6711  1.1068
  854MOL0     C17732   4.484   4.179  10.584  0.6905  0.1199  0.0287
  854MOL0     C17733   4.609   4.187  10.629  0.5114  0.2301  0.0716
  854MOL0     C17734   4.725   4.130  10.552 -0.8880  0.1292  0.7566
  854MOL0     C17735   4.857   4.177  10.594  0.0836 -0.4670  0.7435
  854MOL0     C17736   4.969   4.099  10.519 -0.1653  0.4887 -0.1467
  854MOL0     C17737   5.108   4.147  10.562 -0.6736  0.9892  0.6605
  854MOL0     O17738   5.183   4.112  10.440  0.4902 -0.3135  0.0455
  854MOL0     C17739   5.317   4.154  10.442  0.3436  0.2852 -0.5752
  854MOL0     C17740   5.397   4.079  10.356 -0.9372 -0.0395  0.0062
  854MOL0     C17741   5.537   4.095  10.339  0.0214  0.0523  0.5222
  854MOL0     C17742   5.604   3.982  10.258 -0.4522  0.0334  0.0441
  854MOL0     C17743   5.597   4.207  10.401  0.1641  0.0761 -0.3285
  854MOL0     C17744   5.744   4.234  10.390 -0.2864 -0.2599 -1.2093
  854MOL0     O17745   5.794   4.331  10.480 -0.0802 -0.4794 -0.0657
  854MOL0     C17746   5.922   4.375  10.478  0.2505 -1.1171  0.9162
  854MOL0     C17747   5.938   4.511  10.510 -0.3276 -0.3276  0.6218
  854MOL0     C17748   6.073   4.565  10.529  0.3192  0.9062  1.5164
  854MOL0     C17749   6.182   4.475  10.515 -0.2968  0.5615 -0.8111
  854MOL0     O17750   6.311   4.512  10.541  0.2204 -0.8162  0.6296
  854MOL0     C17751   6.349   4.634  10.478 -0.1831 -0.3379  0.4450
  854MOL0     C17752   6.493   4.664  10.507  0.7232 -0.4309  0.0978
  854MOL0     C17753   6.604   4.558  10.477 -0.2108  0.0769  0.5653
  854MOL0     C17754   6.751   4.588  10.471  0.1238  0.3614  0.5370
  854MOL0     C17755   6.830   4.470  10.411  0.1178  0.7724  0.1505
  854MOL0     C17756   6.826   4.476  10.259 -0.0557  0.3200  0.1962
  854MOL0     C17757   6.927   4.374  10.193  0.0724  0.3938  0.4723
  854MOL0     C17758   7.064   4.385  10.233  0.1503 -0.0531 -0.3586
  854MOL0    Cl17759   7.157   4.302  10.112 -0.0451 -0.4580 -0.1722
  854MOL0     C17760   6.165   4.343  10.481  0.0932  0.5949  0.2410
  854MOL0     C17761   6.037   4.298  10.452 -0.1630 -0.4709  0.0385
  854MOL0     O17762   5.806   4.184  10.297  0.0113  0.6052 -0.3397
  854MOL0     C17763   5.514   4.284  10.492 -0.3234 -0.0408  0.0432
  854MOL0     C17764   5.375   4.260  10.506  0.7941 -0.3181 -0.1350
  854MOL0     N17765   4.606   4.258  10.748  0.3741  0.3020  0.7152
  854MOL0     N17766   4.485   4.277  10.776  0.4885 -0.7372 -0.0876
  854MOL0     C17767   3.937   3.353  10.550  0.7014 -1.1977  0.5246
  854MOL0     C17768   3.815   3.279  10.534 -1.5691  0.2216 -0.4485
  854MOL0     C17769   3.514   2.928  10.554 -0.3291 -0.7323  0.1665
  854MOL0     C17770   3.449   2.836  10.631  0.7392  1.2050 -0.3536
  854MOL0     C17771   3.318   2.781  10.608  0.1091 -0.6096  0.9621
  854MOL0     C17772   3.256   2.823  10.493  0.1999  0.5593  0.0922
  854MOL0     O17773   3.131   2.805  10.447  0.7436  0.2952  0.2046
  854MOL0     C17774   3.025   2.774  10.539  0.4702 -0.2048 -0.6318
  854MOL0     C17775   2.889   2.775  10.463 -0.1276 -0.4895  0.4029
  854MOL0     C17776   2.773   2.734  10.557  0.2932 -0.0068 -0.0758
  854MOL0     C17777   2.715   2.863  10.621 -0.1243  0.3071 -0.3165
  854MOL0     C17778   2.640   2.938  10.523 -0.6470 -0.2163  0.5035
  854MOL0     C17779   2.568   2.995  10.449  0.7698  0.8956  0.4109
  854MOL0     C17780   3.314   2.928  10.424  1.0291 -0.0366 -0.2027
  854MOL0     C17781   3.439   2.972  10.443 -0.7060  0.9872  1.2692
  854MOL0     C17782   3.494   3.057  10.336 -0.9748  0.2981  0.4105
  854MOL0     H17783   3.931   2.971  10.597  0.8147  1.0719  1.0273
  854MOL0     H17784   4.138   3.100  10.655  0.9008  1.2393  0.1270
  854MOL0     H17785   4.086   3.515  10.711  1.4918  3.2946  1.1152
  854MOL0     H17786   4.153   3.541  10.548 -0.7932 -0.2345  0.9503
  854MOL0     H17787   4.292   3.549  10.812  0.8743 -1.4323  0.6744
  854MOL0     H17788   4.380   3.480  10.673 -1.2490 -1.6140  1.3871
  854MOL0     H17789   4.430   3.725  10.685 -3.1857  4.1439  1.0485
  854MOL0     H17790   4.349   3.678  10.530  0.1082 -1.0227 -0.2107
  854MOL0     H17791   4.138   3.761  10.610  0.6647  0.8190 -1.6179
  854MOL0     H17792   4.203   3.788  10.773  2.9025 -1.2331  0.9097
  854MOL0     H17793   4.294   3.943  10.520  2.7755  1.3542  1.0686
  854MOL0     H17794   4.375   3.949  10.672  0.8869  1.6686 -1.2625
  854MOL0     H17795   4.069   3.980  10.669  0.1644  0.5146 -0.3903
  854MOL0     H17796   4.180   4.034  10.786  0.6850  0.0121 -0.7329
  854MOL0     H17797   4.063   4.210  10.634  0.4285  0.7085  0.6556
  854MOL0     H17798   4.180   4.161  10.506  0.0071 -1.2281 -0.2581
  854MOL0     H17799   4.246   4.359  10.638  0.5096 -0.3479  2.1718
  854MOL0     H17800   4.234   4.272  10.781  1.4397 -0.8770  0.3920
  854MOL0     H17801   4.463   4.130  10.490  2.1731  0.6622 -0.6097
  854MOL0     H17802   4.714   4.163  10.448  0.6141  0.6718  0.7499
  854MOL0     H17803   4.714   4.023  10.571 -0.0839 -0.3921 -1.3922
  854MOL0     H17804   4.866   4.281  10.561  1.2702 -1.1010 -1.0996
  854MOL0     H17805   4.864   4.164  10.702  2.8148  2.3527  1.0435
  854MOL0     H17806   4.974   3.992  10.539  2.8203  0.2050 -1.7119
  854MOL0     H17807   4.957   4.113  10.411  1.5069  0.2800 -0.3959
  854MOL0     H17808   5.103   4.253  10.592 -0.3611  1.6652 -1.5214
  854MOL0     H17809   5.149   4.086  10.643  0.3662  0.9208  0.0948
  854MOL0     H17810   5.352   3.992  10.309 -2.0966 -0.2669  1.4543
  854MOL0     H17811   5.708   3.980  10.291 -0.2109 -1.1819 -0.7409
  854MOL0     H17812   5.592   4.004  10.152 -0.6897  0.1051  0.0853
  854MOL0     H17813   5.551   3.888  10.276 -0.3795  0.2395  1.4794
  854MOL0     H17814   5.854   4.579  10.513  0.9241  1.3194 -0.0067
  854MOL0     H17815   6.080   4.667  10.565  1.0734  1.9302 -1.3029
  854MOL0     H17816   6.328   4.622  10.371  1.7957 -0.0515 -0.0029
  854MOL0     H17817   6.285   4.712  10.520 -3.2692 -1.6078 -1.4793
  854MOL0     H17818   6.523   4.760  10.463  1.1306 -0.4918  0.2430
  854MOL0     H17819   6.499   4.690  10.613  0.7945 -1.4761  0.3571
  854MOL0     H17820   6.577   4.517  10.379  1.4955 -2.8600  1.1845
  854MOL0     H17821   6.592   4.480  10.553 -2.7749 -0.2394 -0.0512
  854MOL0     H17822   6.783   4.608  10.573  0.7217 -1.0283  0.6392
  854MOL0     H17823   6.762   4.685  10.421 -1.7285  2.2391  3.4907
  854MOL0     H17824   6.931   4.491  10.447  1.3875 -1.7477 -1.6887
  854MOL0     H17825   6.801   4.376  10.459 -1.2161  1.8002  1.4904
  854MOL0     H17826   6.854   4.575  10.221 -0.1781  0.6576  0.9786
  854MOL0     H17827   6.722   4.461  10.229  0.1856  0.1510 -0.5964
  854MOL0     H17828   6.927   4.405  10.089  1.2615  2.7899  1.1095
  854MOL0     H17829   6.907   4.268  10.207  3.5302 -0.6303 -1.3246
  854MOL0     H17830   7.081   4.340  10.331 -2.9571 -1.1313 -0.2083
  854MOL0     H17831   7.095   4.489  10.243 -2.4681  0.8163 -0.4932
  854MOL0     H17832   6.246   4.271  10.473 -0.6540 -0.3054  0.5746
  854MOL0     H17833   6.027   4.191  10.439 -1.1839 -0.2385 -1.4269
  854MOL0     H17834   5.576   4.359  10.540  1.7359 -2.3577  1.2282
  854MOL0     H17835   5.307   4.316  10.569 -1.0405 -0.8732 -1.5378
  854MOL0     H17836   3.929   3.460  10.539 -3.5489 -1.3985 -0.1768
  854MOL0     H17837   3.731   3.327  10.485  0.1176  1.3054 -2.4370
  854MOL0     H17838   3.503   2.808  10.721  0.9154  2.1192 -0.1650
  854MOL0     H17839   3.267   2.726  10.687  0.4530 -1.0744  0.8617
  854MOL0     H17840   3.038   2.679  10.592 -0.3420  0.7432  1.3588
  854MOL0     H17841   3.024   2.856  10.611  2.0989 -1.1631  0.5614
  854MOL0     H17842   2.900   2.690  10.394 -1.0091  0.3824 -0.8546
  854MOL0     H17843   2.862   2.862  10.402  1.6696 -2.0138 -2.8310
  854MOL0     H17844   2.702   2.688  10.488 -1.8357  2.1930  0.5274
  854MOL0     H17845   2.813   2.669  10.635  0.0419  1.8451  1.6663
  854MOL0     H17846   2.787   2.923  10.676  1.7496 -1.2443 -0.9807
  854MOL0     H17847   2.641   2.836  10.698 -1.3233 -2.6799 -2.2982
  854MOL0     H17848   2.505   3.048  10.381  0.6185  0.7078  0.4035
  854MOL0     H17849   3.252   2.958  10.341  0.9409  3.4949  0.9805
  854MOL0     H17850   3.429   3.033  10.251 -1.7780  0.3144  1.0032
  854MOL0     H17851   3.483   3.163  10.357 -0.8700  0.7863 -1.7701
  854MOL0     H17852   3.597   3.025  10.319 -0.1685  3.0369 -0.2738
  855MOL0     O17853   4.762  10.610   5.362  0.0790 -0.3699 -0.3513
  855MOL0     C17854   4.728  10.555   5.262 -0.4759  0.3393  0.2613
  855MOL0     O17855   4.812  10.470   5.184 -0.1971 -0.2957 -0.2255
  855MOL0     C17856   4.946  10.486   5.200 -0.5194  0.0231 -0.0160
  855MOL0     C17857   5.030  10.516   5.092  0.3282  0.4663  1.2658
  855MOL0     C17858   5.175  10.524   5.104  0.7534  0.5656  0.7833
  855MOL0     C17859   5.231  10.507   5.229 -0.3782  0.0147 -0.6303
  855MOL0     O17860   5.362  10.546   5.250 -0.0571 -0.8719 -0.0007
  855MOL0     C17861   5.428  10.548   5.377 -0.2909 -0.1965 -0.3558
  855MOL0     C17862   5.468  10.411   5.421 -0.1966 -0.2776  0.1003
  855MOL0     C17863   5.611  10.410   5.486  0.5057  0.5289 -0.4127
  855MOL0     C17864   5.732  10.418   5.389  0.5072 -0.1776 -0.4906
  855MOL0     C17865   5.860  10.413   5.471  0.9238 -0.0517 -0.0765
  855MOL0     C17866   5.975  10.457   5.376 -0.1020 -0.1446  0.4984
  855MOL0     C17867   6.110  10.425   5.433 -0.0447 -0.0636 -0.2675
  855MOL0     C17868   6.163  10.502   5.557 -0.1435 -0.3187  0.5585
  855MOL0     N17869   6.307  10.475   5.591 -0.2433  0.1307 -0.8871
  855MOL0     C17870   6.367  10.354   5.568 -0.7928 -0.2650 -0.4984
  855MOL0     C17871   6.464  10.344   5.660 -0.6353 -0.4680  0.0083
  855MOL0     C17872   6.560  10.228   5.685 -0.1358 -0.0227  0.1565
  855MOL0     C17873   6.690  10.227   5.595  0.3232  0.0326  0.2955
  855MOL0     C17874   6.669  10.190   5.455  0.0481 -0.1087  0.9822
  855MOL0     C17875   6.801  10.155   5.374 -0.9695 -0.1534  0.5181
  855MOL0     O17876   6.882  10.052   5.443 -0.1627  0.0217 -0.0211
  855MOL0     C17877   7.016  10.050   5.419 -1.2389  1.2726 -0.0116
  855MOL0     C17878   7.092  10.138   5.343  0.3806  0.5556 -0.2308
  855MOL0     C17879   7.230  10.110   5.312  0.3754  0.5907  0.0135
  855MOL0     C17880   7.302  10.207   5.226 -0.0008 -0.1694  0.6760
  855MOL0     C17881   7.287   9.996   5.368 -0.3308  0.2993 -0.8412
  855MOL0     C17882   7.430   9.966   5.360  0.4219  0.0037  0.0491
  855MOL0     O17883   7.463   9.830   5.353 -0.3429  0.1338 -0.3617
  855MOL0     C17884   7.585   9.789   5.308  0.3373 -0.0919  1.1711
  855MOL0     C17885   7.644   9.679   5.363 -0.1114 -0.2434 -0.0754
  855MOL0     C17886   7.771   9.637   5.339 -0.0950  0.3677  0.5703
  855MOL0     C17887   7.844   9.699   5.237 -0.7107  0.1134  0.8622
  855MOL0     O17888   7.963   9.645   5.202  0.2953  0.6089  0.3011
  855MOL0     C17889   8.070   9.733   5.240  0.5041  0.2342  1.0083
  855MOL0     C17890   8.183   9.747   5.136 -0.4971  0.1460  0.0720
  855MOL0     C17891   8.139   9.824   5.011 -0.0470 -0.0580  0.4926
  855MOL0     C17892   8.118   9.980   5.036  0.0122  0.1068 -0.5618
  855MOL0     C17893   8.111  10.045   4.897  0.1640 -0.3343  0.0251
  855MOL0     C17894   8.084  10.191   4.893  0.7198 -0.3762  0.2078
  855MOL0     C17895   7.949  10.234   4.968  0.2165  0.0245 -0.5228
  855MOL0     C17896   7.824  10.169   4.908  0.3120  0.7324 -0.1534
  855MOL0    Cl17897   7.667  10.250   4.938  0.1675 -0.1519  0.3285
  855MOL0     C17898   7.792   9.814   5.179  0.2711  0.0611 -0.7823
  855MOL0     C17899   7.665   9.863   5.214 -0.7577 -0.2042 -0.9055
  855MOL0     O17900   7.513  10.051   5.374 -0.4207 -0.2114  0.3940
  855MOL0     C17901   7.208   9.905   5.432  0.9256 -0.0563 -0.0208
  855MOL0     C17902   7.073   9.929   5.466 -0.1665  0.9676  1.0328
  855MOL0     N17903   6.462  10.460   5.727  0.1816  0.5332 -0.4537
  855MOL0     N17904   6.369  10.545   5.693  0.7478  0.1104  0.2510
  855MOL0     C17905   5.159  10.471   5.346  0.5036 -0.1262  0.0225
  855MOL0     C17906   5.014  10.457   5.325 -0.1951  0.7161  0.0865
  855MOL0     C17907   4.587  10.564   5.219  1.7396  0.0779  0.0418
  855MOL0     C17908   4.551  10.580   5.082 -1.6134  0.3624 -0.0741
  855MOL0     C17909   4.412  10.590   5.051 -0.5108 -0.2504 -0.0810
  855MOL0     C17910   4.311  10.573   5.142 -0.0297  0.2883  0.1680
  855MOL0     O17911   4.181  10.604   5.107 -0.0494  0.4791  0.5292
  855MOL0     C17912   4.074  10.622   5.190  0.1072  0.7666  0.3469
  855MOL0     C17913   3.986  10.736   5.135 -0.0740 -1.0384  0.4746
  855MOL0     C17914   3.902  10.812   5.241  0.0375 -0.7336  0.7648
  855MOL0     C17915   3.841  10.933   5.169 -0.1632 -0.3591  0.6056
  855MOL0     C17916   3.935  11.024   5.103 -0.3679 -0.2305  0.7409
  855MOL0     C17917   4.007  11.090   5.033  0.0710  0.0934 -0.3976
  855MOL0     C17918   4.347  10.547   5.278  0.0384 -0.5261  0.6043
  855MOL0     C17919   4.485  10.550   5.314 -0.3716  0.5584 -0.7631
  855MOL0     C17920   4.516  10.530   5.463  0.4309 -0.1214 -0.4060
  855MOL0     H17921   4.983  10.538   4.997  0.7563 -1.7198  0.5153
  855MOL0     H17922   5.240  10.559   5.025  2.2253  1.0729  2.1679
  855MOL0     H17923   5.361  10.600   5.446 -1.2958 -0.6597 -0.9675
  855MOL0     H17924   5.522  10.605   5.375  0.1295 -0.8218 -3.4011
  855MOL0     H17925   5.396  10.376   5.495  1.4085 -1.0319  1.3692
  855MOL0     H17926   5.464  10.353   5.328 -3.0358 -1.6822  0.9863
  855MOL0     H17927   5.611  10.494   5.556 -2.6937 -1.9143  2.8615
  855MOL0     H17928   5.620  10.314   5.536  0.3979  0.4414 -0.5610
  855MOL0     H17929   5.728  10.336   5.317 -0.3554 -1.8460  1.3644
  855MOL0     H17930   5.732  10.514   5.337 -0.6015 -1.2183 -2.4927
  855MOL0     H17931   5.872  10.307   5.493 -0.9613 -0.8127 -2.3065
  855MOL0     H17932   5.844  10.468   5.565 -2.0326  0.3585 -0.7090
  855MOL0     H17933   5.973  10.409   5.278  4.1504 -1.9514  1.0775
  855MOL0     H17934   5.979  10.565   5.357  2.8342 -0.4129 -0.8462
  855MOL0     H17935   6.182  10.446   5.354  3.5164  0.8535  2.9226
  855MOL0     H17936   6.128  10.320   5.458  0.3140 -0.2750 -1.3915
  855MOL0     H17937   6.159  10.610   5.542  2.9523 -0.2673 -0.7505
  855MOL0     H17938   6.110  10.468   5.646 -0.3683  1.8133  1.2727
  855MOL0     H17939   6.334  10.286   5.490 -0.4868  1.0239 -1.8096
  855MOL0     H17940   6.508  10.133   5.671 -1.0276  0.5338 -0.4147
  855MOL0     H17941   6.593  10.234   5.790  3.0835  2.3072 -0.8314
  855MOL0     H17942   6.732  10.328   5.599 -0.1982  0.2375  0.7502
  855MOL0     H17943   6.766  10.161   5.638  1.2033 -2.0567 -3.9430
  855MOL0     H17944   6.608  10.099   5.462  0.6546 -0.7222 -0.8777
  855MOL0     H17945   6.617  10.262   5.392  0.9835  0.8435  1.2740
  855MOL0     H17946   6.788  10.133   5.268  2.7111  0.5744 -0.2256
  855MOL0     H17947   6.861  10.246   5.366  0.8353 -1.3472 -0.1097
  855MOL0     H17948   7.042  10.224   5.298  0.7601  0.5479 -0.6753
  855MOL0     H17949   7.229  10.278   5.186  0.8365 -0.5156 -1.6116
  855MOL0     H17950   7.343  10.158   5.137 -1.6864  0.4655 -0.4953
  855MOL0     H17951   7.383  10.260   5.278 -1.4991  1.8645  1.0631
  855MOL0     H17952   7.590   9.623   5.438  0.4691 -0.3495  0.2732
  855MOL0     H17953   7.788   9.531   5.357  0.6783  0.5967  1.2290
  855MOL0     H17954   8.028   9.831   5.263 -0.8724 -0.4355  1.4164
  855MOL0     H17955   8.110   9.695   5.334  1.1297 -0.5460  0.4471
  855MOL0     H17956   8.256   9.813   5.184 -0.3905  0.9414 -1.1539
  855MOL0     H17957   8.226   9.649   5.113 -2.2158 -1.1224  1.8975
  855MOL0     H17958   8.053   9.767   4.975  2.0610 -2.5996 -0.9315
  855MOL0     H17959   8.210   9.815   4.928 -0.2665 -2.0023  0.4621
  855MOL0     H17960   8.199  10.025   5.095  1.4489 -1.2220 -1.4529
  855MOL0     H17961   8.022  10.005   5.082 -1.0368  0.2203 -2.7170
  855MOL0     H17962   8.202  10.019   4.841 -0.0860 -0.6967 -0.2145
  855MOL0     H17963   8.029  10.001   4.840  2.6450 -0.7610 -3.5775
  855MOL0     H17964   8.084  10.216   4.786 -0.9110  2.5965  0.7979
  855MOL0     H17965   8.164  10.246   4.943  0.9519  0.0066 -0.5701
  855MOL0     H17966   7.936  10.342   4.960 -1.7917 -0.1847 -0.6198
  855MOL0     H17967   7.963  10.208   5.073 -2.0906 -2.0828 -0.6273
  855MOL0     H17968   7.813  10.067   4.945  0.3180  0.8441  0.1616
  855MOL0     H17969   7.832  10.161   4.799  2.2166  2.4333 -0.1977
  855MOL0     H17970   7.849   9.855   5.097  1.1712 -1.7330 -1.0981
  855MOL0     H17971   7.617   9.942   5.158 -3.6959 -2.0118 -1.1797
  855MOL0     H17972   7.255   9.820   5.481  1.0123  0.9876  1.8098
  855MOL0     H17973   7.006   9.860   5.516 -0.6981 -1.2898 -2.4139
  855MOL0     H17974   5.203  10.465   5.445 -0.7348  2.5408  0.8274
  855MOL0     H17975   4.952  10.439   5.412  1.5914  0.2826  1.3239
  855MOL0     H17976   4.632  10.608   5.015  1.6819  0.2135  3.5064
  855MOL0     H17977   4.390  10.610   4.947  1.6237 -1.5519 -0.8552
  855MOL0     H17978   4.011  10.535   5.172  0.3906  1.0512 -2.5335
  855MOL0     H17979   4.095  10.631   5.297  0.3436  0.6168  0.3157
  855MOL0     H17980   3.934  10.702   5.046 -2.6247  2.5597  0.3805
  855MOL0     H17981   4.059  10.806   5.092 -0.6239 -3.3989 -5.1609
  855MOL0     H17982   3.810  10.753   5.255  0.9055 -2.9767 -1.8448
  855MOL0     H17983   3.961  10.837   5.329 -2.8071  0.3500  2.4971
  855MOL0     H17984   3.781  10.979   5.247  2.0544  0.0721  2.1357
  855MOL0     H17985   3.786  10.888   5.085  2.4473 -1.7970 -0.4568
  855MOL0     H17986   4.075  11.153   4.980 -1.1766  3.1304  1.3745
  855MOL0     H17987   4.262  10.532   5.344 -0.2929  0.1041  0.3243
  855MOL0     H17988   4.434  10.495   5.526 -1.0646  3.1131 -0.3415
  855MOL0     H17989   4.591  10.453   5.483 -3.2962 -4.2606 -0.7727
  855MOL0     H17990   4.561  10.619   5.509  0.1876  0.0148 -0.4285
  856MOL0     O17991   8.496   4.503   1.010  0.3963 -0.3830 -0.8084
  856MOL0     C17992   8.413   4.537   1.097  0.1582 -0.3631 -0.7259
  856MOL0     O17993   8.409   4.660   1.167  0.5356 -0.5405  0.2361
  856MOL0     C17994   8.484   4.766   1.121 -0.2228  0.1262 -0.0721
  856MOL0     C17995   8.573   4.829   1.207 -0.7476 -0.7668  0.2419
  856MOL0     C17996   8.651   4.938   1.174  0.2844  0.1173 -0.2065
  856MOL0     C17997   8.644   4.982   1.045 -0.4121  0.5947  1.1769
  856MOL0     O17998   8.692   5.102   0.996  0.1882  0.1042 -0.4079
  856MOL0     C17999   8.793   5.172   1.079 -0.6645 -0.3147  0.0926
  856MOL0     C18000   8.929   5.091   1.099 -0.0562 -0.2568  0.1262
  856MOL0     C18001   9.042   5.174   1.174  0.4011  0.5682  0.0449
  856MOL0     C18002   9.173   5.090   1.191  0.0151 -0.5306 -0.5445
  856MOL0     C18003   9.288   5.113   1.085 -0.1357 -0.1663 -0.3893
  856MOL0     C18004   9.387   4.993   1.076 -0.7199 -0.5748 -0.4913
  856MOL0     C18005   9.409   4.921   1.219 -0.0370 -0.4610  0.7941
  856MOL0     C18006   9.516   4.819   1.204 -0.6195 -0.3392  0.7740
  856MOL0     N18007   9.539   4.741   1.327 -0.1738  0.1183 -0.6975
  856MOL0     C18008   9.638   4.764   1.431  0.2063  0.0103 -0.5497
  856MOL0     C18009   9.629   4.659   1.513 -0.3283 -0.1187 -0.6408
  856MOL0     C18010   9.716   4.615   1.625 -0.8107 -0.0568  0.2600
  856MOL0     C18011   9.727   4.461   1.634 -0.0423 -1.1864 -0.2019
  856MOL0     C18012   9.847   4.431   1.735  0.9061 -0.6175 -0.3622
  856MOL0     C18013   9.825   4.497   1.876 -0.5292  0.1654  0.3055
  856MOL0     O18014   9.932   4.470   1.969 -0.4038 -0.5197 -0.7932
  856MOL0     C18015   9.903   4.469   2.107 -0.2059  0.4770  0.9295
  856MOL0     C18016   9.992   4.422   2.203  0.4031 -0.0457  0.4834
  856MOL0     C18017   9.973   4.410   2.342  0.6588 -0.2922 -0.0699
  856MOL0     C18018  10.083   4.352   2.427 -0.0424  0.0494  1.3177
  856MOL0     C18019   9.844   4.444   2.395  0.2927  0.7047  0.4663
  856MOL0     C18020   9.810   4.449   2.547  0.5101  0.2858  0.2545
  856MOL0     O18021   9.900   4.378   2.625  0.0117  0.0553 -0.0880
  856MOL0     C18022   9.908   4.373   2.767  0.2304 -0.6979 -0.5879
  856MOL0     C18023   9.827   4.429   2.867 -0.9808 -1.5769  0.0418
  856MOL0     C18024   9.836   4.398   3.007 -0.5897 -0.5969  0.2201
  856MOL0     C18025   9.938   4.318   3.049  0.6943 -0.5473  0.0962
  856MOL0     O18026   9.935   4.300   3.184  0.0802  0.3870  0.0267
  856MOL0     C18027  10.030   4.207   3.241 -0.2760  0.1892 -0.1797
  856MOL0     C18028  10.032   4.191   3.393 -0.2440  0.6520 -0.5790
  856MOL0     C18029  10.140   4.078   3.427  0.0246 -0.6190 -0.4110
  856MOL0     C18030  10.159   4.070   3.577 -0.1517 -0.8821  0.1479
  856MOL0     C18031  10.263   3.962   3.610 -0.1400 -0.4822  0.4368
  856MOL0     C18032  10.330   3.989   3.750 -0.2603 -0.4030  0.0952
  856MOL0     C18033  10.374   3.861   3.821 -0.2934 -0.8826 -0.2666
  856MOL0     C18034  10.444   3.890   3.952 -0.8423 -0.2322  0.4465
  856MOL0    Cl18035  10.328   3.939   4.075  0.1959  0.8694 -0.0287
  856MOL0     C18036  10.020   4.255   2.952 -0.3966 -0.1189  0.4160
  856MOL0     C18037  10.008   4.282   2.814  0.0149 -0.9372  0.1204
  856MOL0     O18038   9.707   4.504   2.584  1.1444  0.3332  0.0807
  856MOL0     C18039   9.749   4.489   2.300 -0.1468 -1.0478  0.1707
  856MOL0     C18040   9.778   4.506   2.162 -0.3067  0.1506 -0.5396
  856MOL0     N18041   9.520   4.589   1.472 -0.0201  0.5215  1.3840
  856MOL0     N18042   9.478   4.624   1.359  0.3555  1.0053 -0.2095
  856MOL0     C18043   8.556   4.918   0.954 -0.5780 -0.0761  0.0407
  856MOL0     C18044   8.474   4.808   0.990 -0.5541 -0.7370 -0.6534
  856MOL0     C18045   8.335   4.434   1.163 -0.7523 -0.6832 -0.4532
  856MOL0     C18046   8.191   4.445   1.160 -0.3747 -0.7021 -0.1731
  856MOL0     C18047   8.115   4.360   1.237  0.0680  1.0955  0.7192
  856MOL0     C18048   8.174   4.261   1.312  0.4719 -0.6312  0.2820
  856MOL0     O18049   8.106   4.176   1.391  0.6017  0.9449 -0.1340
  856MOL0     C18050   7.962   4.182   1.407 -0.4311 -0.2549  0.0540
  856MOL0     C18051   7.896   4.077   1.307  0.4021 -0.5962  0.7009
  856MOL0     C18052   7.736   4.064   1.305 -1.0044 -1.0003 -1.0828
  856MOL0     C18053   7.675   4.004   1.430  0.0816  0.2256 -0.1570
  856MOL0     C18054   7.541   3.969   1.395 -0.3689  0.3482 -0.0834
  856MOL0     C18055   7.427   3.946   1.367  0.6657  0.3137  0.5951
  856MOL0     C18056   8.313   4.251   1.319  0.2236 -1.1002 -0.2596
  856MOL0     C18057   8.394   4.350   1.253  0.3776 -0.0814  0.1360
  856MOL0     C18058   8.541   4.358   1.286 -0.3511 -0.2823 -0.3280
  856MOL0     H18059   8.578   4.783   1.305  0.8684 -4.7935 -1.5250
  856MOL0     H18060   8.722   4.987   1.240  0.1865  1.5145 -1.0925
  856MOL0     H18061   8.765   5.191   1.183  2.5193  0.9517  0.8653
  856MOL0     H18062   8.819   5.268   1.032 -1.9146  0.7505  1.4773
  856MOL0     H18063   8.906   5.004   1.160  0.5171  0.3207  1.1866
  856MOL0     H18064   8.978   5.058   1.007  0.7858 -2.4733  1.3127
  856MOL0     H18065   9.075   5.253   1.105  1.7866 -1.2041 -1.4475
  856MOL0     H18066   8.998   5.206   1.269 -1.3838  2.7634 -1.4084
  856MOL0     H18067   9.221   5.116   1.286  1.2865 -2.9743 -0.4222
  856MOL0     H18068   9.146   4.985   1.204  1.4826 -1.0359 -1.3730
  856MOL0     H18069   9.339   5.199   1.128  0.3103  0.0018 -1.2292
  856MOL0     H18070   9.252   5.140   0.985 -1.9635  1.8878  0.7452
  856MOL0     H18071   9.341   4.926   1.002 -0.7753  4.0456 -5.2119
  856MOL0     H18072   9.485   5.013   1.031 -0.9827  2.7340  0.1426
  856MOL0     H18073   9.323   4.860   1.249  1.0483 -2.7862 -0.5507
  856MOL0     H18074   9.428   4.993   1.298  1.2152  1.2922 -0.9897
  856MOL0     H18075   9.485   4.749   1.125  1.7545 -0.3650 -0.2093
  856MOL0     H18076   9.615   4.855   1.176  0.1077  0.1187  3.6507
  856MOL0     H18077   9.713   4.842   1.434  0.2085  0.1066 -2.2044
  856MOL0     H18078   9.680   4.665   1.716  1.1893  1.8984  0.0919
  856MOL0     H18079   9.813   4.659   1.600  0.9117 -4.1309 -0.9879
  856MOL0     H18080   9.639   4.410   1.674  0.4595  1.0663  4.3693
  856MOL0     H18081   9.753   4.431   1.532  1.3871  2.2614 -1.0133
  856MOL0     H18082   9.855   4.325   1.761  2.3236 -0.1676  1.1976
  856MOL0     H18083   9.938   4.463   1.684 -0.3029  3.4616 -0.2768
  856MOL0     H18084   9.824   4.606   1.864  0.3205  0.3787  1.9582
  856MOL0     H18085   9.733   4.459   1.922 -0.2193  0.8709  1.5314
  856MOL0     H18086  10.083   4.386   2.156  0.6977 -0.4310  1.3217
  856MOL0     H18087  10.115   4.418   2.508  0.5103  2.7123 -0.9099
  856MOL0     H18088  10.173   4.349   2.365  0.4569  1.7552  1.8892
  856MOL0     H18089  10.061   4.254   2.470  0.3611  0.4375  2.4533
  856MOL0     H18090   9.751   4.497   2.829 -0.4621 -1.2834 -0.4898
  856MOL0     H18091   9.769   4.442   3.080 -0.7955 -2.4144  1.1818
  856MOL0     H18092  10.012   4.104   3.207  0.0752  0.3635 -0.9251
  856MOL0     H18093  10.127   4.248   3.211 -2.0802  5.2533 -0.0379
  856MOL0     H18094  10.056   4.282   3.448 -0.8049  0.0632  0.6947
  856MOL0     H18095   9.932   4.157   3.422 -1.5017  3.0724 -1.8118
  856MOL0     H18096  10.238   4.112   3.393  1.3292 -1.7005  1.9910
  856MOL0     H18097  10.114   3.984   3.378 -0.2924 -1.0143  0.4946
  856MOL0     H18098  10.060   4.046   3.617  0.1641 -1.2749  0.7074
  856MOL0     H18099  10.187   4.170   3.611 -1.3196 -1.4318  2.9737
  856MOL0     H18100  10.213   3.865   3.612 -1.1373 -0.0560 -1.4117
  856MOL0     H18101  10.338   3.961   3.530 -0.4220  1.1530  0.1119
  856MOL0     H18102  10.240   4.027   3.800 -2.0307  0.7370 -3.5866
  856MOL0     H18103  10.408   4.065   3.757  0.9024 -1.6869  2.4546
  856MOL0     H18104  10.438   3.804   3.753 -0.7084 -2.2000  0.4132
  856MOL0     H18105  10.286   3.802   3.847 -0.7721  0.0831  0.3626
  856MOL0     H18106  10.523   3.964   3.952 -0.0421 -1.0590 -0.0977
  856MOL0     H18107  10.478   3.793   3.988  0.4788  0.1571  0.2764
  856MOL0     H18108  10.088   4.183   2.996 -0.8857  0.1364  1.6092
  856MOL0     H18109  10.065   4.227   2.740  0.2008  0.3427 -0.7134
  856MOL0     H18110   9.652   4.500   2.347  1.4718  0.8048  3.4131
  856MOL0     H18111   9.697   4.553   2.106 -0.0923 -1.3466 -2.1878
  856MOL0     H18112   8.576   4.947   0.852 -0.5592 -2.2224 -0.5965
  856MOL0     H18113   8.412   4.757   0.917 -2.5384  0.9462 -0.2383
  856MOL0     H18114   8.142   4.531   1.115  0.4514  0.1703  0.5598
  856MOL0     H18115   8.010   4.383   1.222  0.1475  1.1942  0.3050
  856MOL0     H18116   7.942   4.160   1.513  2.6863  1.6593  1.1847
  856MOL0     H18117   7.914   4.280   1.395  1.4052  0.6935  0.1763
  856MOL0     H18118   7.929   3.974   1.324 -1.8131 -1.4615  0.1005
  856MOL0     H18119   7.940   4.108   1.212 -1.0960  1.4840  0.6111
  856MOL0     H18120   7.690   4.163   1.294  0.7351  0.1642  1.1396
  856MOL0     H18121   7.720   3.998   1.220  0.7903 -1.6089 -0.9989
  856MOL0     H18122   7.678   4.074   1.515 -2.0675 -0.5542  0.6357
  856MOL0     H18123   7.737   3.919   1.460  0.7671  1.6620  2.8797
  856MOL0     H18124   7.322   3.954   1.351  0.6166 -0.1713  0.6797
  856MOL0     H18125   8.351   4.182   1.393 -0.0354 -1.4411 -0.4395
  856MOL0     H18126   8.543   4.449   1.347  0.8233  1.5490 -2.9299
  856MOL0     H18127   8.579   4.267   1.333 -4.7932 -2.2374  0.0538
  856MOL0     H18128   8.607   4.382   1.202  1.3230  3.1932  1.7489
  857MOL0     O18129   0.837   4.345   8.361  0.0802  0.5302  0.1171
  857MOL0     C18130   0.789   4.390   8.258  0.0505  0.2058  0.0035
  857MOL0     O18131   0.846   4.483   8.175 -0.6406  0.1238  0.1217
  857MOL0     C18132   0.967   4.518   8.229 -0.5430 -0.2706 -0.1181
  857MOL0     C18133   0.976   4.642   8.292 -0.9026 -0.5970 -0.3371
  857MOL0     C18134   1.108   4.673   8.339 -0.6485 -0.4764 -0.3727
  857MOL0     C18135   1.220   4.590   8.324  1.3289  0.2887 -0.0937
  857MOL0     O18136   1.343   4.624   8.373  1.1105  0.3225  0.5084
  857MOL0     C18137   1.432   4.521   8.419  0.4387  0.3374  0.6995
  857MOL0     C18138   1.506   4.602   8.531  0.0992 -0.2362  0.7320
  857MOL0     C18139   1.578   4.731   8.502 -0.6384 -0.4424  0.0610
  857MOL0     C18140   1.735   4.706   8.490  0.2047 -0.6005 -0.1529
  857MOL0     C18141   1.801   4.839   8.449 -0.2493 -0.2385  0.2662
  857MOL0     C18142   1.950   4.809   8.417 -0.2676 -0.3337 -0.0006
  857MOL0     C18143   2.034   4.769   8.538 -0.6792  0.5658  0.4462
  857MOL0     C18144   2.166   4.717   8.477 -1.7035  0.1639  1.0003
  857MOL0     N18145   2.227   4.627   8.579 -0.0100  0.2117 -0.0953
  857MOL0     C18146   2.326   4.657   8.665 -0.2022 -0.5671 -0.5165
  857MOL0     C18147   2.348   4.546   8.732  0.6620  0.3800  0.1586
  857MOL0     C18148   2.456   4.512   8.830 -0.2395  0.0243 -0.3515
  857MOL0     C18149   2.594   4.487   8.764  0.2858  0.2815 -0.5728
  857MOL0     C18150   2.704   4.499   8.866 -0.0712  0.1733  0.6779
  857MOL0     C18151   2.829   4.516   8.798  0.0228  0.3540 -0.1600
  857MOL0     O18152   2.848   4.641   8.727  0.1103  0.2659  1.0860
  857MOL0     C18153   2.957   4.661   8.654 -0.1317  0.0110 -0.2960
  857MOL0     C18154   3.049   4.554   8.624  0.7580  0.6966 -0.6714
  857MOL0     C18155   3.158   4.577   8.548 -0.0284 -0.2503  0.8499
  857MOL0     C18156   3.249   4.455   8.521 -0.8364  0.0581  0.0366
  857MOL0     C18157   3.191   4.710   8.497 -0.6436  0.2378 -0.6424
  857MOL0     C18158   3.310   4.744   8.412  0.7709  0.4599 -0.8827
  857MOL0     O18159   3.369   4.859   8.442 -1.0784 -0.1612 -0.7583
  857MOL0     C18160   3.491   4.887   8.388  0.4083 -1.1953  0.3196
  857MOL0     C18161   3.599   4.931   8.468 -0.2890  1.1054 -0.4348
  857MOL0     C18162   3.721   4.960   8.409 -0.5290  0.7080 -0.5114
  857MOL0     C18163   3.732   4.957   8.264  0.8693 -1.3527 -0.4808
  857MOL0     O18164   3.831   5.012   8.191 -0.2521 -0.6356 -0.0154
  857MOL0     C18165   3.960   5.014   8.260 -0.7192  0.0382  0.0468
  857MOL0     C18166   4.021   4.864   8.258 -0.1649 -0.2011 -0.2899
  857MOL0     C18167   4.122   4.853   8.365  0.4624  0.8266 -0.3821
  857MOL0     C18168   4.243   4.766   8.322 -0.5655 -0.5296  0.0908
  857MOL0     C18169   4.360   4.757   8.425 -0.2351 -0.9908  0.0733
  857MOL0     C18170   4.313   4.722   8.573 -0.6764  0.3872 -0.0852
  857MOL0     C18171   4.243   4.584   8.562 -0.0123 -0.3353 -0.0571
  857MOL0     C18172   4.224   4.525   8.700 -0.5640 -0.2233 -0.0303
  857MOL0    Cl18173   4.129   4.635   8.795 -0.4707  0.1207  0.0287
  857MOL0     C18174   3.617   4.926   8.188 -0.3365  0.3016  0.1327
  857MOL0     C18175   3.500   4.897   8.248  0.3155  0.0923  0.1694
  857MOL0     O18176   3.350   4.665   8.333  0.3109  1.2719 -0.0261
  857MOL0     C18177   3.103   4.815   8.533 -0.1343  0.1869  0.1361
  857MOL0     C18178   2.984   4.790   8.613  0.9177  0.2021  0.7243
  857MOL0     N18179   2.258   4.451   8.696  1.4093  0.8682  0.7141
  857MOL0     N18180   2.184   4.504   8.606 -0.1042 -0.2098  0.0002
  857MOL0     C18181   1.203   4.469   8.257  0.6650 -0.9439 -0.3458
  857MOL0     C18182   1.078   4.438   8.213  0.1403 -0.2221  0.0353
  857MOL0     C18183   0.647   4.361   8.229  0.3357  0.8230  0.9116
  857MOL0     C18184   0.609   4.371   8.094 -0.0905 -0.1600 -0.1945
  857MOL0     C18185   0.473   4.334   8.058 -0.4169  0.2941  0.2084
  857MOL0     C18186   0.383   4.298   8.147  0.9231  0.0319  0.4820
  857MOL0     O18187   0.267   4.244   8.098 -0.1876  0.1809  0.6637
  857MOL0     C18188   0.149   4.227   8.186  0.0266  0.7698 -0.2057
  857MOL0     C18189   0.011   4.243   8.118  0.0886  0.0286 -0.1636
  857MOL0     C18190  -0.023   4.384   8.065  0.0917 -0.3548 -0.3074
  857MOL0     C18191  -0.166   4.389   8.002  0.5001  0.6103  0.0900
  857MOL0     C18192  -0.275   4.395   8.110 -0.1086 -0.0482 -0.3654
  857MOL0     C18193  -0.360   4.431   8.194 -0.4995  0.7194 -0.4921
  857MOL0     C18194   0.419   4.289   8.279  0.0349 -0.7929 -0.1456
  857MOL0     C18195   0.549   4.320   8.325  0.0566 -0.3246 -1.2892
  857MOL0     C18196   0.562   4.308   8.477 -0.1244 -0.1879 -0.1824
  857MOL0     H18197   0.896   4.712   8.314 -1.0800 -0.7710 -0.4266
  857MOL0     H18198   1.114   4.772   8.385 -0.5442 -0.4651 -0.4097
  857MOL0     H18199   1.501   4.491   8.339 -0.7616  0.4064 -0.3913
  857MOL0     H18200   1.375   4.436   8.457  0.5359  1.2457  3.0036
  857MOL0     H18201   1.437   4.626   8.613 -0.3051  1.1640  0.0105
  857MOL0     H18202   1.581   4.533   8.570 -1.4943 -1.5245  1.6466
  857MOL0     H18203   1.551   4.762   8.401  1.3293 -0.7871 -0.6127
  857MOL0     H18204   1.552   4.795   8.587  1.5596 -0.0417  0.4815
  857MOL0     H18205   1.772   4.671   8.587  0.2856 -1.1314 -0.3730
  857MOL0     H18206   1.757   4.628   8.417 -3.2522 -0.0778 -1.9155
  857MOL0     H18207   1.785   4.925   8.514 -0.1154  1.5710 -1.9374
  857MOL0     H18208   1.756   4.872   8.355  0.1094 -0.0594  0.1570
  857MOL0     H18209   1.951   4.729   8.343 -2.5136 -0.7124  0.3117
  857MOL0     H18210   2.000   4.890   8.364 -0.6168 -1.2604 -1.8116
  857MOL0     H18211   1.984   4.685   8.587 -0.6509  1.8609  2.8420
  857MOL0     H18212   2.070   4.847   8.605  1.5758  1.4534 -1.6487
  857MOL0     H18213   2.152   4.663   8.383  0.6866  0.8660  0.1820
  857MOL0     H18214   2.240   4.794   8.455  0.2504 -1.7306  0.6243
  857MOL0     H18215   2.386   4.747   8.671 -0.0458 -0.5497 -1.9032
  857MOL0     H18216   2.432   4.425   8.892  0.6995 -0.2545 -0.3644
  857MOL0     H18217   2.462   4.593   8.904 -0.9403 -1.8257  1.8725
  857MOL0     H18218   2.608   4.391   8.714  0.3760  1.5537 -3.1567
  857MOL0     H18219   2.606   4.559   8.682 -1.3214  0.4183 -0.7234
  857MOL0     H18220   2.692   4.587   8.928  0.6674  1.6935 -1.2310
  857MOL0     H18221   2.697   4.410   8.929  0.9571 -1.4611 -1.3633
  857MOL0     H18222   2.903   4.500   8.877 -1.2274  0.9752  1.1854
  857MOL0     H18223   2.834   4.428   8.732 -0.9778 -0.1991  0.4872
  857MOL0     H18224   3.035   4.456   8.667 -0.4814  0.1587 -2.2229
  857MOL0     H18225   3.255   4.457   8.412 -1.3161  3.7496 -0.0251
  857MOL0     H18226   3.220   4.357   8.561  1.3608 -1.0699 -0.9668
  857MOL0     H18227   3.348   4.481   8.560 -0.6673  1.5898 -1.3023
  857MOL0     H18228   3.605   4.923   8.576  0.7941  0.1032 -0.5549
  857MOL0     H18229   3.808   4.984   8.469  2.9354 -3.2054 -3.3562
  857MOL0     H18230   4.029   5.083   8.210 -1.2226  2.2055  2.1821
  857MOL0     H18231   3.960   5.045   8.365  0.7280 -2.7172  0.9755
  857MOL0     H18232   3.939   4.793   8.272 -1.0515  0.7893 -0.3226
  857MOL0     H18233   4.068   4.849   8.161 -0.3286  0.0567 -0.4100
  857MOL0     H18234   4.067   4.817   8.452  0.0804  0.7175 -0.6615
  857MOL0     H18235   4.162   4.945   8.406 -1.7007  1.0224  1.4905
  857MOL0     H18236   4.295   4.799   8.231 -1.7506  0.9757 -0.0717
  857MOL0     H18237   4.205   4.667   8.296  0.0560 -0.1018 -2.8843
  857MOL0     H18238   4.435   4.686   8.390 -0.3385 -1.4282  0.7377
  857MOL0     H18239   4.404   4.856   8.414 -1.8344 -0.3506 -1.0619
  857MOL0     H18240   4.247   4.801   8.610 -0.2900  0.8305 -0.3354
  857MOL0     H18241   4.406   4.719   8.631 -0.9315 -1.1855  0.2886
  857MOL0     H18242   4.301   4.514   8.500  1.5106  1.4563 -0.7465
  857MOL0     H18243   4.144   4.599   8.518  0.7270  2.1416 -1.0453
  857MOL0     H18244   4.319   4.515   8.753 -1.0902 -2.9838  0.5595
  857MOL0     H18245   4.176   4.427   8.699  1.7352 -1.6500  4.4091
  857MOL0     H18246   3.633   4.934   8.081  0.3663 -0.6252  0.1537
  857MOL0     H18247   3.414   4.890   8.181  0.9951 -0.2852 -0.6754
  857MOL0     H18248   3.133   4.914   8.502  1.2923 -0.3248 -0.2010
  857MOL0     H18249   2.917   4.875   8.629 -1.6098 -1.2882 -1.1897
  857MOL0     H18250   1.295   4.414   8.239  2.9969  1.7420  2.3166
  857MOL0     H18251   1.084   4.343   8.161  4.7274 -0.5314  0.6645
  857MOL0     H18252   0.678   4.403   8.016 -0.4153  1.4943  0.1580
  857MOL0     H18253   0.446   4.342   7.953  0.2588  0.8114  0.0664
  857MOL0     H18254   0.159   4.132   8.239 -0.3124  0.9247  0.1373
  857MOL0     H18255   0.143   4.294   8.272 -1.5945 -3.1717  3.0825
  857MOL0     H18256  -0.053   4.202   8.196  2.4779 -3.3930  0.2052
  857MOL0     H18257   0.012   4.179   8.029  3.5196  0.7318 -0.7817
  857MOL0     H18258  -0.022   4.455   8.148  2.8817 -1.2798  0.5774
  857MOL0     H18259   0.057   4.411   7.995 -0.0448 -3.5129 -1.8831
  857MOL0     H18260  -0.189   4.290   7.960  0.1326  0.9428 -0.5175
  857MOL0     H18261  -0.177   4.465   7.924 -3.1587 -0.7376 -0.9194
  857MOL0     H18262  -0.420   4.489   8.262 -0.0669  1.0374 -0.3750
  857MOL0     H18263   0.349   4.244   8.349  1.2688 -1.3157  0.7731
  857MOL0     H18264   0.466   4.334   8.523  0.5664  0.6818  0.7960
  857MOL0     H18265   0.599   4.209   8.505  3.0569  0.2500 -2.3364
  857MOL0     H18266   0.642   4.373   8.511  0.4778 -1.1677  0.3045
  858MOL0     O18267   2.715   0.260   6.073 -0.7685  0.9857  0.2167
  858MOL0     C18268   2.722   0.318   5.970 -0.2109  0.2342  0.7276
  858MOL0     O18269   2.632   0.417   5.927  0.1579 -0.9035 -0.6223
  858MOL0     C18270   2.528   0.449   6.011  0.4652 -0.4646 -0.4963
  858MOL0     C18271   2.396   0.404   5.993 -0.0566  0.2488 -0.3469
  858MOL0     C18272   2.299   0.442   6.091  0.7634 -0.6702 -0.2092
  858MOL0     C18273   2.328   0.514   6.201 -0.8067  0.0463  0.2163
  858MOL0     O18274   2.235   0.561   6.285  0.9693 -0.0512  0.5550
  858MOL0     C18275   2.174   0.687   6.246  0.2474 -0.5856 -0.1451
  858MOL0     C18276   2.025   0.689   6.284  0.0181  0.1758 -0.5807
  858MOL0     C18277   1.933   0.607   6.185 -0.5675 -0.4883 -0.1630
  858MOL0     C18278   1.781   0.630   6.216 -0.5872  0.5244  0.2698
  858MOL0     C18279   1.694   0.565   6.104 -0.6711 -0.5234  0.6964
  858MOL0     C18280   1.550   0.598   6.132  0.5695  0.2171 -0.5890
  858MOL0     C18281   1.466   0.529   6.025  0.5548  0.1903  0.1881
  858MOL0     C18282   1.314   0.536   6.051  0.3491 -0.5063 -1.0050
  858MOL0     N18283   1.275   0.435   6.140 -0.4939  0.4306  0.4135
  858MOL0     C18284   1.262   0.446   6.274  1.0288  0.3196  1.0902
  858MOL0     C18285   1.197   0.332   6.305 -0.8934 -0.1120  0.1404
  858MOL0     C18286   1.113   0.320   6.434  0.5571  0.2429  1.1111
  858MOL0     C18287   1.026   0.437   6.463  0.5060 -0.6449 -0.0650
  858MOL0     C18288   0.930   0.456   6.341 -0.7687 -0.5843 -0.0523
  858MOL0     C18289   0.836   0.571   6.364  0.1400  0.6491 -1.0507
  858MOL0     O18290   0.758   0.553   6.484 -0.4314  0.6298 -0.6329
  858MOL0     C18291   0.674   0.652   6.527  0.0405 -0.1166 -0.1083
  858MOL0     C18292   0.639   0.757   6.451 -0.2285  0.2319  0.4635
  858MOL0     C18293   0.567   0.868   6.500  0.3528  0.5308 -0.2391
  858MOL0     C18294   0.529   0.972   6.401  0.3026 -0.6769  0.7870
  858MOL0     C18295   0.530   0.870   6.636  0.5659 -0.2854  0.5609
  858MOL0     C18296   0.473   0.988   6.690 -0.0610 -0.0245 -0.8360
  858MOL0     O18297   0.523   1.024   6.805  0.3413 -0.7565  0.0425
  858MOL0     C18298   0.497   1.133   6.888 -0.1669  0.6551 -0.1831
  858MOL0     C18299   0.569   1.154   7.006 -0.0071 -0.5154  0.2694
  858MOL0     C18300   0.543   1.268   7.095 -0.3712 -0.9659  0.5462
  858MOL0     C18301   0.447   1.357   7.062  0.3783  0.1304  0.1564
  858MOL0     O18302   0.407   1.467   7.141  0.5475 -0.2315  0.2759
  858MOL0     C18303   0.402   1.435   7.277  0.3146 -1.0093 -0.3328
  858MOL0     C18304   0.339   1.551   7.370 -0.1228 -0.6599 -0.9748
  858MOL0     C18305   0.209   1.604   7.326 -0.2228 -0.6060  0.6542
  858MOL0     C18306   0.105   1.504   7.269 -0.3733  0.6428  0.8599
  858MOL0     C18307  -0.026   1.574   7.253 -0.1059 -0.6090 -0.7955
  858MOL0     C18308  -0.136   1.491   7.189  0.1206 -0.6546  0.6054
  858MOL0     C18309  -0.271   1.566   7.176  0.3067  0.6649 -0.4973
  858MOL0     C18310  -0.389   1.483   7.122  1.1475  0.1475  0.7512
  858MOL0    Cl18311  -0.408   1.320   7.188  0.5537 -0.2979  0.5119
  858MOL0     C18312   0.383   1.346   6.944  0.9378 -0.0666 -0.0770
  858MOL0     C18313   0.402   1.231   6.867 -0.0608 -0.7191  0.4199
  858MOL0     O18314   0.379   1.033   6.638 -0.0807  0.6994 -0.7711
  858MOL0     C18315   0.567   0.765   6.719  0.0081 -0.3656  0.2757
  858MOL0     C18316   0.643   0.659   6.659  0.1814  0.0052 -0.6442
  858MOL0     N18317   1.187   0.246   6.195  0.3234  0.7018 -0.1513
  858MOL0     N18318   1.232   0.318   6.097  0.4156  0.8057 -0.8581
  858MOL0     C18319   2.459   0.552   6.223  0.4660 -0.3817  1.3069
  858MOL0     C18320   2.561   0.512   6.135  0.3164  1.0011 -0.0975
  858MOL0     C18321   2.826   0.293   5.868 -0.1584  0.0319 -0.6358
  858MOL0     C18322   2.790   0.236   5.742 -1.6334 -0.6743 -0.1983
  858MOL0     C18323   2.882   0.179   5.651  0.4923  0.5080 -0.7985
  858MOL0     C18324   3.015   0.175   5.684 -0.5032 -0.7781 -0.3346
  858MOL0     O18325   3.097   0.100   5.603  0.3854  0.3597  0.5301
  858MOL0     C18326   3.236   0.080   5.623  0.1064 -0.5707  0.2029
  858MOL0     C18327   3.248  -0.026   5.743 -0.9849  0.9049  0.3762
  858MOL0     C18328   3.207  -0.167   5.711  0.8652  0.3826  0.1965
  858MOL0     C18329   3.288  -0.284   5.784 -0.5702  0.4109  0.4624
  858MOL0     C18330   3.225  -0.419   5.774 -0.1056 -0.6642 -0.4434
  858MOL0     C18331   3.174  -0.527   5.763 -0.2870  0.7166 -0.3199
  858MOL0     C18332   3.064   0.243   5.796 -0.8884  0.6643 -0.0766
  858MOL0     C18333   2.968   0.288   5.895 -0.1245  0.6018  0.2512
  858MOL0     C18334   3.019   0.349   6.022 -0.3520 -0.2269  0.5636
  858MOL0     H18335   2.375   0.344   5.905 -0.6441 -3.7193  2.2218
  858MOL0     H18336   2.199   0.408   6.066  1.0477 -0.9107 -1.0583
  858MOL0     H18337   2.187   0.715   6.141  0.9201 -0.2452  0.0227
  858MOL0     H18338   2.220   0.755   6.319  0.4529  0.0825 -0.8816
  858MOL0     H18339   2.013   0.656   6.387 -2.0848 -0.6334 -1.0493
  858MOL0     H18340   1.988   0.791   6.290 -0.1293  0.0123  2.8265
  858MOL0     H18341   1.954   0.632   6.081  1.1580 -2.3681 -0.3373
  858MOL0     H18342   1.944   0.498   6.193 -2.3867 -0.7866 -1.3348
  858MOL0     H18343   1.753   0.597   6.316 -2.0935 -0.9639 -0.5881
  858MOL0     H18344   1.765   0.738   6.223 -0.2785  0.4590  2.4897
  858MOL0     H18345   1.706   0.457   6.095  1.3238 -0.2561 -0.5305
  858MOL0     H18346   1.727   0.600   6.006 -0.3328 -2.6378  0.0166
  858MOL0     H18347   1.536   0.564   6.236  1.9616 -1.1553 -0.8272
  858MOL0     H18348   1.544   0.706   6.123  1.4693  0.2763 -0.5217
  858MOL0     H18349   1.481   0.421   6.027 -2.6492 -0.3486  2.0408
  858MOL0     H18350   1.491   0.575   5.929 -0.3293  1.9778  0.7673
  858MOL0     H18351   1.288   0.632   6.095  0.4494 -0.7625 -0.3764
  858MOL0     H18352   1.264   0.521   5.955 -0.8130  0.4566 -0.5689
  858MOL0     H18353   1.270   0.531   6.342 -2.8948  2.3527 -0.6941
  858MOL0     H18354   1.185   0.314   6.516  2.4560  1.2781 -0.3889
  858MOL0     H18355   1.041   0.237   6.431  1.2008 -0.4061  2.6314
  858MOL0     H18356   0.976   0.431   6.561 -0.2470  0.7785 -0.3367
  858MOL0     H18357   1.082   0.530   6.466 -4.1382  2.5004 -0.2503
  858MOL0     H18358   0.997   0.478   6.257  1.3100  0.2089  1.6937
  858MOL0     H18359   0.879   0.360   6.343 -2.4826  0.1654  4.3428
  858MOL0     H18360   0.885   0.669   6.362 -0.3146  0.8741 -1.5334
  858MOL0     H18361   0.768   0.579   6.279 -0.4754  1.8496 -0.4702
  858MOL0     H18362   0.665   0.742   6.347  0.1460  0.0271  0.5830
  858MOL0     H18363   0.552   0.941   6.299 -0.2313  1.3287  0.0111
  858MOL0     H18364   0.582   1.065   6.421 -1.1776  0.0024  1.7900
  858MOL0     H18365   0.421   0.992   6.399  0.6778  1.5537 -0.8167
  858MOL0     H18366   0.641   1.078   7.033 -1.5352 -2.9409 -2.0627
  858MOL0     H18367   0.603   1.277   7.185  1.0433 -3.2451 -0.0626
  858MOL0     H18368   0.358   1.336   7.290 -2.5669  0.2211  0.0400
  858MOL0     H18369   0.504   1.417   7.312  0.4430 -0.8274 -0.6075
  858MOL0     H18370   0.337   1.509   7.471 -0.1683  1.5363 -0.0015
  858MOL0     H18371   0.412   1.630   7.388 -0.0640 -1.3483  2.5104
  858MOL0     H18372   0.218   1.683   7.251  1.2016 -0.8127  0.5928
  858MOL0     H18373   0.162   1.649   7.413  2.9944  0.5588  1.8964
  858MOL0     H18374   0.104   1.420   7.340  0.9176 -1.9638 -1.9647
  858MOL0     H18375   0.142   1.462   7.175  1.4439 -3.0942  3.0010
  858MOL0     H18376  -0.059   1.605   7.353 -0.7327 -0.5335 -1.0179
  858MOL0     H18377  -0.010   1.667   7.198  0.3607  0.4957  1.1078
  858MOL0     H18378  -0.148   1.403   7.252  1.0808 -2.2707 -1.3275
  858MOL0     H18379  -0.110   1.456   7.088  1.0339  0.3579  0.4730
  858MOL0     H18380  -0.261   1.656   7.115  2.3802  0.7014 -0.1746
  858MOL0     H18381  -0.284   1.594   7.281  3.0188  0.0008  0.0849
  858MOL0     H18382  -0.393   1.497   7.014  0.6848  2.9848  1.0496
  858MOL0     H18383  -0.479   1.525   7.166  0.7433 -1.2571  1.3256
  858MOL0     H18384   0.312   1.422   6.912  0.0653 -0.6028  0.5277
  858MOL0     H18385   0.337   1.218   6.781 -1.2537 -1.0654  1.3587
  858MOL0     H18386   0.559   0.761   6.827  1.5604  1.7407  0.5388
  858MOL0     H18387   0.677   0.572   6.713 -0.0095 -1.0342 -2.1477
  858MOL0     H18388   2.490   0.580   6.324  3.8722 -1.8093  0.8013
  858MOL0     H18389   2.661   0.541   6.162  0.1015  0.0690  1.8119
  858MOL0     H18390   2.688   0.224   5.708 -1.9699  2.0670 -0.3362
  858MOL0     H18391   2.852   0.116   5.568  0.1684  0.7330 -0.8528
  858MOL0     H18392   3.287   0.057   5.529  2.1900 -0.9916  1.3949
  858MOL0     H18393   3.293   0.167   5.657  0.6496 -0.0331 -1.8928
  858MOL0     H18394   3.180   0.004   5.824  2.4156  2.1985  3.0451
  858MOL0     H18395   3.349  -0.017   5.786 -0.5273 -2.4222  0.2447
  858MOL0     H18396   3.101  -0.181   5.737  0.4405 -1.1156 -2.0288
  858MOL0     H18397   3.210  -0.193   5.604  3.4620 -0.5418  0.4173
  858MOL0     H18398   3.301  -0.255   5.889  1.9098  2.8654 -0.3990
  858MOL0     H18399   3.390  -0.297   5.747 -0.2329 -1.2790  1.8568
  858MOL0     H18400   3.131  -0.626   5.764 -0.7878  0.9063  1.7616
  858MOL0     H18401   3.171   0.248   5.812 -0.7824 -0.6148 -0.2558
  858MOL0     H18402   3.127   0.355   6.035 -0.5583  0.6282  2.1462
  858MOL0     H18403   2.980   0.451   6.020  0.3395  0.0359 -0.4883
  858MOL0     H18404   2.975   0.312   6.115 -1.5323  0.1794  0.1841
  859MOL0     O18405   0.314  11.286   9.748  0.5150  0.3659  0.2767
  859MOL0     C18406   0.337  11.328   9.863  0.7144  0.3661  0.5702
  859MOL0     O18407   0.268  11.422   9.928 -0.2902 -0.1193  0.6452
  859MOL0     C18408   0.164  11.488   9.865 -0.4847  0.1002  0.9408
  859MOL0     C18409   0.040  11.430   9.861 -0.0173  0.2171  0.1744
  859MOL0     C18410  -0.072  11.497   9.805 -0.1699 -0.4141  0.5606
  859MOL0     C18411  -0.041  11.629   9.750  0.0693 -0.3807  0.1620
  859MOL0     O18412  -0.144  11.707   9.715 -0.2923 -0.2259  0.3416
  859MOL0     C18413  -0.206  11.660   9.591 -0.2912  0.3154  0.4715
  859MOL0     C18414  -0.352  11.679   9.614  0.1323  0.1827 -0.4369
  859MOL0     C18415  -0.422  11.601   9.504  0.6011 -0.2567 -0.3902
  859MOL0     C18416  -0.571  11.631   9.519  0.7362  0.8543 -0.0284
  859MOL0     C18417  -0.655  11.539   9.423 -0.3624 -0.1699  0.4563
  859MOL0     C18418  -0.813  11.535   9.432 -0.7704 -0.5822 -1.0933
  859MOL0     C18419  -0.883  11.589   9.559 -0.2078  0.0644  0.1595
  859MOL0     C18420  -1.025  11.540   9.570  0.1996  0.3700 -0.4358
  859MOL0     N18421  -1.083  11.575   9.702  0.3368  0.2559 -0.2219
  859MOL0     C18422  -1.021  11.555   9.818  0.5303  0.6002 -0.0071
  859MOL0     C18423  -1.075  11.646   9.901 -0.5652  0.1326 -0.1234
  859MOL0     C18424  -1.065  11.631  10.053  0.3974 -0.1509 -0.5260
  859MOL0     C18425  -0.933  11.687  10.120 -0.5459 -0.3804  0.6394
  859MOL0     C18426  -0.881  11.807  10.057  0.0865 -0.6654  0.0004
  859MOL0     C18427  -0.731  11.849  10.080 -0.6906 -0.0019  0.9535
  859MOL0     O18428  -0.706  11.964   9.999 -0.0341 -0.3495  0.3768
  859MOL0     C18429  -0.577  12.004   9.989 -0.1762 -1.4418  0.1297
  859MOL0     C18430  -0.445  11.935  10.008  0.2265  0.0030 -0.3260
  859MOL0     C18431  -0.325  11.999   9.986  0.4770 -0.1168  0.2471
  859MOL0     C18432  -0.193  11.919  10.007  0.2603 -0.0364  0.2956
  859MOL0     C18433  -0.335  12.133   9.935 -0.3297  0.5685 -0.0784
  859MOL0     C18434  -0.215  12.204   9.876  0.9178  0.5654  0.2258
  859MOL0     O18435  -0.240  12.322   9.801 -0.9750  1.1024  0.2043
  859MOL0     C18436  -0.141  12.391   9.731  0.3658 -0.3988 -0.1552
  859MOL0     C18437  -0.051  12.469   9.806  0.3322  0.3766  0.3618
  859MOL0     C18438   0.034  12.562   9.748 -0.4910 -0.4792 -0.0113
  859MOL0     C18439   0.023  12.593   9.619 -0.7397  0.3306 -0.2080
  859MOL0     O18440   0.108  12.687   9.568 -0.9969  0.4397 -0.0916
  859MOL0     C18441   0.169  12.680   9.436  0.5438  0.3048  0.2155
  859MOL0     C18442   0.281  12.789   9.446 -0.1519  0.1547 -0.2819
  859MOL0     C18443   0.358  12.771   9.576  0.3407 -0.0902  0.5661
  859MOL0     C18444   0.473  12.861   9.559 -0.4133 -0.4776 -0.1907
  859MOL0     C18445   0.560  12.880   9.693  0.3087 -0.1471 -0.2199
  859MOL0     C18446   0.546  13.016   9.767  0.1766 -0.4826  0.2748
  859MOL0     C18447   0.648  13.036   9.880 -0.8052  0.1586  0.9871
  859MOL0     C18448   0.678  12.921   9.972  0.0286 -0.5466  0.0613
  859MOL0    Cl18449   0.807  12.958  10.092  0.0576 -0.0001  0.6172
  859MOL0     C18450  -0.077  12.523   9.543  0.2419 -0.5221 -0.0042
  859MOL0     C18451  -0.161  12.427   9.596 -1.1931  0.0344 -0.3723
  859MOL0     O18452  -0.105  12.164   9.914 -0.3163  0.3625 -0.0089
  859MOL0     C18453  -0.452  12.211   9.933 -0.2455  0.2581 -0.2743
  859MOL0     C18454  -0.575  12.145   9.963 -0.8773  0.2935 -0.4551
  859MOL0     N18455  -1.180  11.700   9.828  0.7809  0.4172 -0.5579
  859MOL0     N18456  -1.176  11.665   9.705  0.6747 -0.1122 -0.3560
  859MOL0     C18457   0.084  11.681   9.752 -0.7333 -0.7786  0.3773
  859MOL0     C18458   0.192  11.611   9.812  0.4284  0.2446 -0.1005
  859MOL0     C18459   0.438  11.253   9.947 -0.5344  0.1686  0.7565
  859MOL0     C18460   0.467  11.312  10.071  0.4110 -0.0361 -0.5578
  859MOL0     C18461   0.554  11.256  10.162 -0.1787  0.0394 -0.1000
  859MOL0     C18462   0.622  11.137  10.132  0.8876  0.3095 -0.1115
  859MOL0     O18463   0.716  11.074  10.211 -0.5934 -0.0555  0.1721
  859MOL0     C18464   0.777  11.132  10.327 -0.4451 -0.1869 -0.0765
  859MOL0     C18465   0.716  11.092  10.466 -0.1976  0.2228  0.1168
  859MOL0     C18466   0.752  10.941  10.488  0.1980 -0.1792 -0.4584
  859MOL0     C18467   0.832  10.923  10.612 -0.4898  0.0186 -0.6961
  859MOL0     C18468   0.971  10.969  10.595 -0.4322  0.4541 -0.2311
  859MOL0     C18469   1.075  11.020  10.594 -0.4637  0.9277 -0.7119
  859MOL0     C18470   0.606  11.085  10.003 -0.5539 -0.4716 -0.0593
  859MOL0     C18471   0.520  11.142   9.904 -0.8238 -0.4597 -0.3367
  859MOL0     C18472   0.531  11.068   9.766  0.2797 -0.1300  0.6523
  859MOL0     H18473   0.042  11.331   9.904  4.0540  0.3459  0.6240
  859MOL0     H18474  -0.173  11.456   9.806 -0.8844  1.2769  0.1489
  859MOL0     H18475  -0.186  11.554   9.574 -1.8542  0.2878 -1.5805
  859MOL0     H18476  -0.166  11.728   9.515  2.2048 -1.5775 -0.0180
  859MOL0     H18477  -0.383  11.635   9.710  0.1934  2.0872  0.4902
  859MOL0     H18478  -0.370  11.786   9.605 -3.9114 -0.4788 -2.5337
  859MOL0     H18479  -0.388  11.642   9.409  0.1524  1.1809  0.0431
  859MOL0     H18480  -0.399  11.495   9.495  0.7040 -0.0388 -3.9564
  859MOL0     H18481  -0.599  11.607   9.622 -0.5489 -4.6600 -1.3527
  859MOL0     H18482  -0.594  11.736   9.496 -3.1508  0.2574  0.4694
  859MOL0     H18483  -0.614  11.442   9.452  3.3435  0.5754 -1.6875
  859MOL0     H18484  -0.628  11.567   9.320  0.4551 -1.0594  0.4103
  859MOL0     H18485  -0.842  11.589   9.341 -1.5860 -0.6212 -0.8606
  859MOL0     H18486  -0.838  11.432   9.407 -0.0566 -0.5090 -2.1790
  859MOL0     H18487  -0.884  11.698   9.561  3.2075  0.2913  4.4252
  859MOL0     H18488  -0.829  11.552   9.647  0.0981 -1.4173 -0.6107
  859MOL0     H18489  -1.083  11.593   9.493  1.3126 -0.0586 -1.5979
  859MOL0     H18490  -1.032  11.433   9.550  0.3627  0.8217 -3.3135
  859MOL0     H18491  -0.947  11.477   9.828 -0.0899 -0.3857 -2.4036
  859MOL0     H18492  -1.090  11.536  10.102 -1.4970  1.3418  1.6325
  859MOL0     H18493  -1.152  11.679  10.099  1.6826  1.0069  0.7898
  859MOL0     H18494  -0.952  11.710  10.226 -0.9416  1.6131  0.1791
  859MOL0     H18495  -0.854  11.612  10.115  0.5120  0.7145  0.4055
  859MOL0     H18496  -0.891  11.804   9.948 -1.7863 -0.8186  0.1446
  859MOL0     H18497  -0.948  11.889  10.085  1.0625  0.2424 -0.2149
  859MOL0     H18498  -0.710  11.871  10.185 -2.2570 -0.0523  1.3119
  859MOL0     H18499  -0.668  11.771  10.036 -0.3682  1.7397 -1.9672
  859MOL0     H18500  -0.445  11.829  10.034 -0.5487 -0.5513 -2.4145
  859MOL0     H18501  -0.130  11.975  10.077 -0.4087 -1.2588  1.9345
  859MOL0     H18502  -0.142  11.904   9.912 -3.3821 -0.4151 -1.7818
  859MOL0     H18503  -0.218  11.827  10.059 -3.0941  0.1471 -0.7101
  859MOL0     H18504  -0.030  12.440   9.908  0.5501 -1.4391 -0.1497
  859MOL0     H18505   0.101  12.613   9.816  0.6600 -0.3897 -1.1857
  859MOL0     H18506   0.213  12.580   9.425  3.6602  0.8231  4.8973
  859MOL0     H18507   0.098  12.699   9.355  2.2230 -1.1237 -1.6798
  859MOL0     H18508   0.336  12.776   9.352 -2.1809  2.1473 -1.8334
  859MOL0     H18509   0.235  12.888   9.450  2.3813  1.3780  0.7995
  859MOL0     H18510   0.386  12.666   9.590  0.2427 -1.1950 -5.1360
  859MOL0     H18511   0.302  12.807   9.663  0.8762  0.3322  0.7442
  859MOL0     H18512   0.430  12.956   9.527 -3.1842 -1.1191  1.3078
  859MOL0     H18513   0.532  12.814   9.480 -0.0442 -0.4103  0.0379
  859MOL0     H18514   0.520  12.809   9.765  0.1924  0.7974  0.6668
  859MOL0     H18515   0.666  12.867   9.666  0.8895  2.1788  0.6551
  859MOL0     H18516   0.444  13.032   9.805  0.2538 -0.2721  0.3939
  859MOL0     H18517   0.568  13.089   9.689  0.7668  0.8869  1.6682
  859MOL0     H18518   0.622  13.121   9.943  2.2819  0.2071  2.3529
  859MOL0     H18519   0.745  13.064   9.837 -1.3455  0.1899 -0.2725
  859MOL0     H18520   0.696  12.829   9.915  1.1990 -0.3393  0.0784
  859MOL0     H18521   0.588  12.902  10.031  0.8270  2.5481  2.5142
  859MOL0     H18522  -0.094  12.545   9.438 -1.1982 -0.5695  0.1920
  859MOL0     H18523  -0.252  12.393   9.546 -1.6355  2.4769 -1.3434
  859MOL0     H18524  -0.446  12.316   9.907 -0.7012  0.4331  0.2961
  859MOL0     H18525  -0.665  12.205   9.958 -0.3195  1.7108  3.3274
  859MOL0     H18526   0.101  11.782   9.717 -1.8596 -0.1521  1.5443
  859MOL0     H18527   0.292  11.653   9.806  0.4193  0.1049 -2.0332
  859MOL0     H18528   0.425  11.410  10.090 -0.0461  0.2366 -2.7124
  859MOL0     H18529   0.559  11.305  10.259 -1.0057  0.8111 -0.4356
  859MOL0     H18530   0.880  11.098  10.315  0.3066  2.4499 -2.1718
  859MOL0     H18531   0.787  11.241  10.319  4.3752 -0.5314 -2.1278
  859MOL0     H18532   0.610  11.120  10.470 -0.8152 -1.6941 -1.2324
  859MOL0     H18533   0.763  11.146  10.548  1.5763 -0.8163 -0.1719
  859MOL0     H18534   0.660  10.886  10.507 -0.7728  0.7568 -2.2143
  859MOL0     H18535   0.807  10.897  10.405 -3.0164 -1.7621 -1.9298
  859MOL0     H18536   0.844  10.815  10.630  1.6293  0.2673 -0.3166
  859MOL0     H18537   0.797  10.971  10.704 -2.2105  1.0305 -1.8362
  859MOL0     H18538   1.176  11.046  10.619 -0.2213 -1.9430  1.8728
  859MOL0     H18539   0.658  10.992   9.981 -1.4565 -1.2477  0.9401
  859MOL0     H18540   0.443  11.006   9.746 -0.3196  0.7353  0.5398
  859MOL0     H18541   0.544  11.134   9.679  5.1955 -0.0887  1.1460
  859MOL0     H18542   0.621  11.006   9.761  0.9439  0.7816 -4.4129
  860MOL0     O18543   3.826   7.854   3.234 -0.3105  0.2522  0.3063
  860MOL0     C18544   3.928   7.794   3.267 -0.5968 -0.4075 -0.6987
  860MOL0     O18545   3.972   7.767   3.398 -0.3026  0.4922 -0.5121
  860MOL0     C18546   3.917   7.840   3.492  0.4288  0.0433  0.1690
  860MOL0     C18547   3.943   7.979   3.500 -0.1509  0.2845 -0.2573
  860MOL0     C18548   3.876   8.058   3.595  0.3246  1.0396  0.1491
  860MOL0     C18549   3.794   8.000   3.692  0.9643 -0.1905  0.3227
  860MOL0     O18550   3.742   8.074   3.795 -0.6001  0.6277 -0.2130
  860MOL0     C18551   3.731   8.218   3.787  0.7404  0.1040  1.2687
  860MOL0     C18552   3.586   8.256   3.776  0.5373  0.4444  0.3182
  860MOL0     C18553   3.560   8.412   3.781  1.0281  0.4793  0.5396
  860MOL0     C18554   3.412   8.436   3.814  0.1360 -0.1553 -0.1853
  860MOL0     C18555   3.332   8.438   3.685 -0.5124  1.0535 -0.9578
  860MOL0     C18556   3.196   8.377   3.714 -0.1557  0.4413 -0.4379
  860MOL0     C18557   3.123   8.358   3.579 -0.1485  0.1091  0.0185
  860MOL0     C18558   2.979   8.302   3.598 -0.3425 -0.8619  0.0142
  860MOL0     N18559   2.979   8.167   3.655  0.6880 -0.1568  0.2456
  860MOL0     C18560   3.075   8.070   3.628 -0.2305  0.6772 -1.5253
  860MOL0     C18561   3.042   7.965   3.702 -0.2330  0.5978  0.2641
  860MOL0     C18562   3.114   7.830   3.692  0.6340  0.5133 -0.3478
  860MOL0     C18563   3.247   7.838   3.771  0.1212 -1.0128 -0.3476
  860MOL0     C18564   3.241   7.874   3.917 -0.7873 -0.0600 -0.5391
  860MOL0     C18565   3.377   7.854   3.991 -0.1583  0.0546  0.6690
  860MOL0     O18566   3.367   7.858   4.135  0.7869  0.9227  0.6354
  860MOL0     C18567   3.474   7.887   4.212 -0.2527  0.5569 -0.3166
  860MOL0     C18568   3.451   7.903   4.345 -0.2251  0.1227  0.2259
  860MOL0     C18569   3.551   7.943   4.432 -0.0578  0.0508 -0.1848
  860MOL0     C18570   3.512   7.958   4.576  0.2551 -0.4567  0.3937
  860MOL0     C18571   3.684   7.953   4.377 -0.3577  0.6551 -0.3649
  860MOL0     C18572   3.808   7.998   4.462  0.7947  0.2580  0.2048
  860MOL0     O18573   3.919   8.021   4.392 -0.6112 -0.1464  0.4172
  860MOL0     C18574   4.042   8.019   4.460  0.5096 -0.1790 -0.4327
  860MOL0     C18575   4.125   7.905   4.458  0.6815  0.8150  0.1719
  860MOL0     C18576   4.251   7.913   4.527  0.1213  0.8877  0.3798
  860MOL0     C18577   4.308   8.033   4.554 -0.3146  0.6603  0.1693
  860MOL0     O18578   4.434   8.016   4.606  0.1041 -0.6800  0.7905
  860MOL0     C18579   4.517   8.138   4.600 -0.4927 -0.2657  0.4177
  860MOL0     C18580   4.663   8.095   4.607  0.2101  0.3127 -0.2407
  860MOL0     C18581   4.703   8.021   4.475 -0.2078 -0.6904  0.2633
  860MOL0     C18582   4.784   7.884   4.491  0.9587 -0.3813  0.0575
  860MOL0     C18583   4.892   7.863   4.391  0.4699 -0.1903  0.6922
  860MOL0     C18584   4.839   7.852   4.247 -0.0149 -0.6535  0.0734
  860MOL0     C18585   4.962   7.814   4.158  0.2448 -0.2354  0.1741
  860MOL0     C18586   4.909   7.775   4.024  0.2044 -0.0814 -0.4233
  860MOL0    Cl18587   5.024   7.673   3.944 -0.2192 -0.0838  0.0325
  860MOL0     C18588   4.230   8.151   4.551 -0.2618 -0.2393  0.6831
  860MOL0     C18589   4.097   8.141   4.510 -0.2857  0.5562  0.4927
  860MOL0     O18590   3.802   8.011   4.585  0.9585 -0.8747  0.1694
  860MOL0     C18591   3.708   7.913   4.247 -0.0186 -0.4100  0.3197
  860MOL0     C18592   3.603   7.893   4.160  0.6712 -0.3037 -0.1101
  860MOL0     N18593   2.928   7.996   3.764 -0.5075 -0.2874  0.2027
  860MOL0     N18594   2.888   8.110   3.733  0.2636 -0.1453 -0.1039
  860MOL0     C18595   3.759   7.861   3.683 -0.4115 -1.6356  0.2476
  860MOL0     C18596   3.821   7.787   3.583  0.1841  0.0365  0.1012
  860MOL0     C18597   4.012   7.734   3.165  0.0432  1.4391 -0.2293
  860MOL0     C18598   4.153   7.723   3.189 -0.1899 -0.6338 -0.0766
  860MOL0     C18599   4.228   7.655   3.095 -0.5102  0.4808 -0.2631
  860MOL0     C18600   4.176   7.603   2.979  0.0820 -0.5851  0.2282
  860MOL0     O18601   4.265   7.534   2.897 -0.2904 -0.1500  0.3197
  860MOL0     C18602   4.250   7.569   2.756  0.0319  0.7491  0.2859
  860MOL0     C18603   4.380   7.535   2.671  0.6558 -0.4411 -0.3759
  860MOL0     C18604   4.361   7.520   2.517  0.2726 -0.3431  0.6069
  860MOL0     C18605   4.286   7.635   2.452  0.9323 -0.5758  0.3909
  860MOL0     C18606   4.380   7.747   2.459 -0.3284 -0.1980  0.4569
  860MOL0     C18607   4.464   7.839   2.464  0.7951 -0.1452  0.9267
  860MOL0     C18608   4.042   7.631   2.953 -0.8803  0.7643  0.5603
  860MOL0     C18609   3.956   7.693   3.039  1.1827 -0.5853 -0.4519
  860MOL0     C18610   3.804   7.690   3.011  0.1534  0.1149  0.0093
  860MOL0     H18611   4.006   8.038   3.435  0.2109  1.8566  1.4361
  860MOL0     H18612   3.902   8.163   3.598 -2.0818  1.6713  3.0984
  860MOL0     H18613   3.789   8.270   3.710  1.9917 -2.2501  0.5238
  860MOL0     H18614   3.778   8.255   3.879  3.7348 -2.0235  0.7389
  860MOL0     H18615   3.544   8.221   3.682 -2.4936  2.9717  0.5697
  860MOL0     H18616   3.533   8.207   3.858 -0.5415 -0.7892 -1.0561
  860MOL0     H18617   3.628   8.454   3.856  2.8786  1.9109 -1.7953
  860MOL0     H18618   3.573   8.459   3.683  0.0704 -0.5185 -0.0995
  860MOL0     H18619   3.381   8.367   3.893 -0.0681 -0.2399 -0.3407
  860MOL0     H18620   3.428   8.539   3.846  2.1857 -0.4344 -0.1266
  860MOL0     H18621   3.384   8.372   3.615 -1.8081  0.0706 -1.0270
  860MOL0     H18622   3.320   8.543   3.654 -1.9533  1.6395  1.3243
  860MOL0     H18623   3.199   8.281   3.767  1.0794 -0.5505 -2.1892
  860MOL0     H18624   3.135   8.437   3.782 -2.5864  0.9163 -2.8731
  860MOL0     H18625   3.183   8.294   3.514 -0.7234  0.2789 -0.6781
  860MOL0     H18626   3.115   8.454   3.526  1.5474  0.2861  0.0127
  860MOL0     H18627   2.923   8.369   3.665  1.3294  0.4123  0.1917
  860MOL0     H18628   2.929   8.303   3.501  1.7703  2.3077 -1.2086
  860MOL0     H18629   3.155   8.059   3.556  0.8641  2.6199 -0.6934
  860MOL0     H18630   3.133   7.793   3.591  0.5108  1.8143 -0.8651
  860MOL0     H18631   3.054   7.752   3.739  2.6817 -2.1538 -1.8370
  860MOL0     H18632   3.300   7.744   3.753 -0.6042 -1.6809  0.8613
  860MOL0     H18633   3.303   7.925   3.736 -0.0878  0.2927  2.3184
  860MOL0     H18634   3.215   7.980   3.917 -1.0245 -0.1142 -1.3649
  860MOL0     H18635   3.176   7.803   3.969  1.9896 -1.2670  1.5616
  860MOL0     H18636   3.434   7.766   3.963  0.5352 -0.8906  4.5443
  860MOL0     H18637   3.443   7.931   3.949  3.5622 -2.4728  1.4738
  860MOL0     H18638   3.350   7.899   4.384  0.4928  1.2741  2.3328
  860MOL0     H18639   3.527   8.063   4.604  1.0483 -1.2116  3.1453
  860MOL0     H18640   3.573   7.898   4.644 -0.1002 -1.7327 -0.3687
  860MOL0     H18641   3.408   7.926   4.590  1.2615 -2.6124  4.7405
  860MOL0     H18642   4.097   7.817   4.401 -0.1048  0.7890  0.5926
  860MOL0     H18643   4.300   7.817   4.522  1.8812  1.8087 -0.7637
  860MOL0     H18644   4.502   8.196   4.509 -2.4242  1.2532  1.6386
  860MOL0     H18645   4.499   8.202   4.687  0.0934 -0.7041  0.8755
  860MOL0     H18646   4.733   8.179   4.618 -2.4036  2.3257  3.0704
  860MOL0     H18647   4.681   8.044   4.702  0.1417 -0.5518 -0.6858
  860MOL0     H18648   4.764   8.096   4.425  0.1400 -1.0628  0.1263
  860MOL0     H18649   4.611   7.999   4.419 -1.1452  0.7929  1.1722
  860MOL0     H18650   4.715   7.800   4.485  0.4939 -0.1204  1.3405
  860MOL0     H18651   4.839   7.888   4.586  2.8045 -2.5602 -0.8433
  860MOL0     H18652   4.954   7.953   4.396  0.0716  0.3692 -2.4745
  860MOL0     H18653   4.951   7.778   4.427 -0.1740 -1.2031 -0.5568
  860MOL0     H18654   4.795   7.946   4.213 -3.5118 -1.6755  1.3201
  860MOL0     H18655   4.757   7.779   4.241 -1.3510  0.8856 -1.1461
  860MOL0     H18656   5.004   7.715   4.181  1.8536  0.1761 -0.8281
  860MOL0     H18657   5.038   7.891   4.163  1.2373 -1.1989  0.3517
  860MOL0     H18658   4.892   7.871   3.975 -0.6326  1.2988  2.3677
  860MOL0     H18659   4.810   7.730   4.035  0.4749 -0.4248  0.7429
  860MOL0     H18660   4.266   8.238   4.604 -0.0877  0.5553 -0.6887
  860MOL0     H18661   4.044   8.235   4.521 -2.7407 -0.4656 -1.5397
  860MOL0     H18662   3.806   7.916   4.200 -0.6935 -1.1913 -1.2045
  860MOL0     H18663   3.616   7.870   4.055  3.8750  2.1828 -0.3950
  860MOL0     H18664   3.689   7.827   3.759 -3.0064  1.6084 -0.4585
  860MOL0     H18665   3.784   7.686   3.571  1.0886 -0.3416  0.3607
  860MOL0     H18666   4.196   7.756   3.284  0.0320 -0.7752 -0.1263
  860MOL0     H18667   4.334   7.643   3.114 -0.7253  1.0128  1.4710
  860MOL0     H18668   4.167   7.513   2.712  2.2288 -3.1931  0.7391
  860MOL0     H18669   4.238   7.678   2.750  0.0911  0.8149  1.2877
  860MOL0     H18670   4.424   7.440   2.704 -0.3445 -0.1760  1.9795
  860MOL0     H18671   4.455   7.611   2.692  1.8831 -1.1194 -2.0860
  860MOL0     H18672   4.460   7.506   2.473  0.6800  1.3020  0.9369
  860MOL0     H18673   4.297   7.431   2.518  2.3932 -1.9285  0.1788
  860MOL0     H18674   4.190   7.659   2.497  0.9201 -0.6092  0.3827
  860MOL0     H18675   4.261   7.604   2.350 -0.7759  0.0204  0.6025
  860MOL0     H18676   4.550   7.898   2.486  1.4075  0.3589 -2.2415
  860MOL0     H18677   4.002   7.593   2.859  1.9899 -2.5804  0.4655
  860MOL0     H18678   3.742   7.653   3.093 -1.5192 -1.4095 -1.8307
  860MOL0     H18679   3.770   7.793   2.992 -1.2582 -0.1860  0.7549
  860MOL0     H18680   3.776   7.621   2.931  1.9360  1.3688 -1.8082
  861MOL0     O18681   3.309   5.007   2.203  1.1276 -0.3131 -0.4079
  861MOL0     C18682   3.228   5.097   2.180  0.4313 -0.6423  0.8132
  861MOL0     O18683   3.261   5.234   2.160 -0.6924  0.1912 -0.4877
  861MOL0     C18684   3.393   5.261   2.117 -0.3914 -0.4719 -0.0286
  861MOL0     C18685   3.450   5.213   1.999  0.2824 -0.3201  1.0563
  861MOL0     C18686   3.580   5.243   1.954  0.0356 -0.2731  0.6356
  861MOL0     C18687   3.663   5.326   2.041  0.8636  1.3131 -0.1477
  861MOL0     O18688   3.784   5.349   1.995 -0.3998  0.1345  0.2057
  861MOL0     C18689   3.857   5.447   2.066 -0.6225  0.7607  0.0158
  861MOL0     C18690   3.992   5.469   1.992  0.6632 -0.2750  0.0554
  861MOL0     C18691   4.077   5.571   2.069 -0.4282  0.4186  0.0817
  861MOL0     C18692   4.212   5.568   2.005 -0.1063 -0.1359 -0.8364
  861MOL0     C18693   4.319   5.676   2.048 -0.2417 -0.6050  0.1159
  861MOL0     C18694   4.433   5.668   1.946 -0.7281 -0.6415  0.1820
  861MOL0     C18695   4.573   5.732   1.969 -1.2749 -0.4237 -0.5823
  861MOL0     C18696   4.621   5.709   2.110 -1.4424 -0.3836  0.7065
  861MOL0     N18697   4.761   5.730   2.133  0.3505 -0.5721  0.7046
  861MOL0     C18698   4.841   5.811   2.055  0.4064 -0.0852 -0.3152
  861MOL0     C18699   4.959   5.802   2.122  0.2429  0.1472  0.1956
  861MOL0     C18700   5.083   5.891   2.084 -0.3022 -0.2737  1.1975
  861MOL0     C18701   5.052   5.998   1.982 -0.0663  0.1940 -0.5661
  861MOL0     C18702   5.179   6.077   1.943 -0.6894 -0.5218 -0.6230
  861MOL0     C18703   5.159   6.183   1.838 -0.8909  0.4692  0.0247
  861MOL0     O18704   5.171   6.140   1.702  0.1369  0.5816  0.7346
  861MOL0     C18705   5.296   6.107   1.647  0.2040  0.6904 -0.1682
  861MOL0     C18706   5.300   6.056   1.517  0.4468  0.5858  0.3262
  861MOL0     C18707   5.428   6.032   1.448  0.2803  0.2760 -0.3911
  861MOL0     C18708   5.420   5.998   1.296  0.4514  0.6818 -0.3194
  861MOL0     C18709   5.555   6.063   1.511  0.0134  0.1591 -0.1416
  861MOL0     C18710   5.687   6.056   1.443 -0.5144 -0.0612 -0.9050
  861MOL0     O18711   5.702   5.970   1.341  0.8991  0.8748 -0.3000
  861MOL0     C18712   5.823   5.942   1.278 -0.3017 -0.0520  0.1124
  861MOL0     C18713   5.959   5.961   1.335  0.9622  0.3835 -0.1086
  861MOL0     C18714   6.076   5.920   1.273  0.7574  0.0498  0.3307
  861MOL0     C18715   6.067   5.864   1.146 -0.2877  0.7121  0.8007
  861MOL0     O18716   6.183   5.832   1.080 -0.3790  0.2546 -0.3889
  861MOL0     C18717   6.195   5.797   0.942  0.2063  0.1945  0.4837
  861MOL0     C18718   6.336   5.772   0.892 -0.2435  0.0422 -0.6229
  861MOL0     C18719   6.361   5.626   0.894 -0.7767  0.2653 -0.0086
  861MOL0     C18720   6.511   5.594   0.846 -0.1686 -0.1856 -0.2419
  861MOL0     C18721   6.537   5.453   0.902  0.9600 -0.3473 -0.6986
  861MOL0     C18722   6.654   5.382   0.851  0.3334 -0.4878  0.2952
  861MOL0     C18723   6.660   5.248   0.920 -0.3241 -0.1883  0.2275
  861MOL0     C18724   6.771   5.169   0.868  0.0487  0.4980  0.6078
  861MOL0    Cl18725   6.792   5.013   0.948  0.1834 -0.0936  0.2707
  861MOL0     C18726   5.939   5.828   1.097 -0.1659 -0.2175  0.0362
  861MOL0     C18727   5.823   5.870   1.159  0.3765 -0.0188  0.0196
  861MOL0     O18728   5.775   6.134   1.478 -0.0093  0.0111  0.2240
  861MOL0     C18729   5.539   6.103   1.645  0.7319 -0.0518  0.1869
  861MOL0     C18730   5.420   6.123   1.712  0.9615 -0.5217 -0.0590
  861MOL0     N18731   4.951   5.721   2.240  0.2395 -0.4694  0.3136
  861MOL0     N18732   4.836   5.668   2.233  0.2184 -0.8497  0.8796
  861MOL0     C18733   3.608   5.366   2.160  0.1534  0.1832 -0.2294
  861MOL0     C18734   3.477   5.336   2.200  0.6719 -0.9088  0.2045
  861MOL0     C18735   3.087   5.060   2.178 -0.8025 -0.0345  0.0399
  861MOL0     C18736   3.011   5.174   2.194 -0.1754  0.7745  0.3780
  861MOL0     C18737   2.870   5.177   2.179 -0.0953  0.7672 -0.0485
  861MOL0     C18738   2.800   5.049   2.158  0.5338 -0.4582  0.4456
  861MOL0     O18739   2.669   5.021   2.150 -0.3785  0.6485 -0.3262
  861MOL0     C18740   2.582   5.131   2.117  0.5652  0.2375  1.3089
  861MOL0     C18741   2.516   5.193   2.245 -0.5291  0.0138 -0.0778
  861MOL0     C18742   2.437   5.086   2.333 -0.5866  0.3300  0.2637
  861MOL0     C18743   2.431   5.117   2.484  0.3107  0.6911 -0.2439
  861MOL0     C18744   2.372   5.245   2.520  0.2335 -1.1178 -0.5932
  861MOL0     C18745   2.315   5.345   2.553  0.8498  0.2948  0.2179
  861MOL0     C18746   2.876   4.937   2.160  0.9872 -0.3804  0.5037
  861MOL0     C18747   3.017   4.940   2.164  0.4182  0.2895  0.7073
  861MOL0     C18748   3.082   4.805   2.169 -0.6298 -1.2905  0.7493
  861MOL0     H18749   3.397   5.139   1.940 -0.9453 -1.0885  3.0305
  861MOL0     H18750   3.634   5.202   1.869  1.0270  1.6963  0.2549
  861MOL0     H18751   3.872   5.408   2.167 -3.2598  2.1854  1.0661
  861MOL0     H18752   3.806   5.542   2.087 -1.3150  0.1413  1.2045
  861MOL0     H18753   4.032   5.367   1.987 -2.5260 -1.9628  3.4295
  861MOL0     H18754   3.967   5.496   1.889  1.4098 -0.0170 -0.0652
  861MOL0     H18755   4.031   5.670   2.066 -2.4075 -0.4670 -0.4641
  861MOL0     H18756   4.085   5.549   2.176  0.0138  1.4365  0.2664
  861MOL0     H18757   4.259   5.470   2.016  4.6001  1.4116 -4.0377
  861MOL0     H18758   4.194   5.592   1.900 -1.6868  1.4790 -0.2486
  861MOL0     H18759   4.347   5.640   2.148  0.7490  0.3447  0.1979
  861MOL0     H18760   4.278   5.777   2.051  2.6352  0.8204 -2.7727
  861MOL0     H18761   4.454   5.563   1.921 -0.7039 -0.0002 -2.9849
  861MOL0     H18762   4.395   5.705   1.850  4.5681  1.6684 -1.4160
  861MOL0     H18763   4.575   5.840   1.952 -3.9417 -0.4739 -1.8062
  861MOL0     H18764   4.646   5.686   1.902 -2.2995 -0.7625 -1.4893
  861MOL0     H18765   4.562   5.772   2.177 -1.2025  1.0106 -0.3557
  861MOL0     H18766   4.609   5.601   2.126 -0.0044 -0.4727  1.3802
  861MOL0     H18767   4.823   5.886   1.979 -0.2936  1.5103  1.3784
  861MOL0     H18768   5.148   5.812   2.044  0.4594  0.9266 -0.0176
  861MOL0     H18769   5.129   5.939   2.171 -0.0320  0.0278  0.8950
  861MOL0     H18770   5.003   5.952   1.896 -4.3548  1.0130  1.2094
  861MOL0     H18771   4.981   6.069   2.023  2.1539  1.6202  1.0267
  861MOL0     H18772   5.218   6.140   2.024  0.6834  0.4741 -2.0009
  861MOL0     H18773   5.261   6.013   1.908 -0.5972  1.1139 -3.7433
  861MOL0     H18774   5.056   6.219   1.835 -1.2361 -0.5084 -0.3056
  861MOL0     H18775   5.212   6.278   1.853 -2.3966  1.4023 -0.3945
  861MOL0     H18776   5.208   6.051   1.459  0.9487  0.8065 -0.5081
  861MOL0     H18777   5.338   6.048   1.245 -0.7933  0.5796  1.5013
  861MOL0     H18778   5.422   5.889   1.281 -0.1401  0.8880 -2.1362
  861MOL0     H18779   5.510   6.037   1.247  0.3797 -1.9896 -2.8476
  861MOL0     H18780   5.956   6.005   1.434 -2.0747 -0.5625  0.3271
  861MOL0     H18781   6.170   5.929   1.327 -0.7900 -1.2220  3.5129
  861MOL0     H18782   6.128   5.711   0.928 -2.6491  1.9854  2.1243
  861MOL0     H18783   6.144   5.880   0.892  2.6240  0.4814 -1.7222
  861MOL0     H18784   6.337   5.811   0.790 -0.0006  1.9001  0.0484
  861MOL0     H18785   6.418   5.826   0.941 -0.7884 -0.5080  0.9557
  861MOL0     H18786   6.290   5.575   0.828  0.1231  0.6248 -1.3070
  861MOL0     H18787   6.338   5.591   0.995  0.3286 -0.2760  0.0658
  861MOL0     H18788   6.583   5.665   0.886 -0.9906  1.1846 -1.1221
  861MOL0     H18789   6.519   5.590   0.737  1.5705  2.2467 -0.2839
  861MOL0     H18790   6.531   5.455   1.011  2.4122  2.2803 -0.5745
  861MOL0     H18791   6.451   5.395   0.868 -0.5857  0.5209  1.4925
  861MOL0     H18792   6.741   5.445   0.868  1.0829 -1.0195 -1.3650
  861MOL0     H18793   6.639   5.378   0.742 -1.0576 -0.3695  0.4573
  861MOL0     H18794   6.571   5.187   0.904 -0.9930  1.1940 -1.6441
  861MOL0     H18795   6.688   5.264   1.025  0.6969  1.3965 -0.2508
  861MOL0     H18796   6.869   5.213   0.891  1.9421  0.4770 -5.4144
  861MOL0     H18797   6.753   5.166   0.760 -2.0214  1.2403  0.8869
  861MOL0     H18798   5.932   5.767   1.007  2.0078 -1.2794  0.4921
  861MOL0     H18799   5.724   5.860   1.116  0.5291  0.9179 -0.5748
  861MOL0     H18800   5.629   6.136   1.695 -0.6798  4.5074  0.1803
  861MOL0     H18801   5.438   6.176   1.805 -1.5037 -0.2413  0.3155
  861MOL0     H18802   3.659   5.421   2.238 -0.1483 -3.0673  2.5131
  861MOL0     H18803   3.434   5.371   2.293 -2.3404 -3.3189 -0.1298
  861MOL0     H18804   3.050   5.271   2.222  1.0205  0.2486  0.5806
  861MOL0     H18805   2.800   5.260   2.175 -2.5341 -1.2456 -1.6968
  861MOL0     H18806   2.623   5.201   2.043 -3.2829  0.4605 -0.8823
  861MOL0     H18807   2.498   5.092   2.058  0.6440  2.1708 -0.1684
  861MOL0     H18808   2.448   5.276   2.228  3.0065  3.6182  1.7020
  861MOL0     H18809   2.602   5.236   2.298 -0.9722  1.3593 -0.4139
  861MOL0     H18810   2.332   5.074   2.306 -1.0556  1.4095  1.4816
  861MOL0     H18811   2.476   4.986   2.311  0.7901  1.2309 -1.6078
  861MOL0     H18812   2.535   5.123   2.519  0.9963 -0.0343 -2.0529
  861MOL0     H18813   2.372   5.047   2.543 -0.4356  0.1251 -1.6229
  861MOL0     H18814   2.257   5.432   2.577  0.1577 -0.7954  2.8198
  861MOL0     H18815   2.831   4.838   2.160  2.2768 -1.0750 -2.2911
  861MOL0     H18816   3.106   4.777   2.272  4.4006 -1.8934 -0.3360
  861MOL0     H18817   3.021   4.724   2.129  1.3842 -1.3535 -2.5914
  861MOL0     H18818   3.169   4.800   2.103 -0.7584  1.0617  0.3078
  862MOL0     O18819   5.869   4.561   1.309 -0.1261 -0.4927  0.4504
  862MOL0     C18820   5.818   4.448   1.295  0.0150  0.0339 -1.6048
  862MOL0     O18821   5.854   4.344   1.385  0.0244 -0.3548  0.6223
  862MOL0     C18822   5.964   4.354   1.468 -0.3623 -0.6514  0.2058
  862MOL0     C18823   6.095   4.397   1.437 -0.8147 -0.1087  0.4001
  862MOL0     C18824   6.200   4.411   1.526  0.2199  0.4686  0.1034
  862MOL0     C18825   6.174   4.380   1.662 -0.1442 -0.2165  0.7113
  862MOL0     O18826   6.256   4.389   1.766  0.1141 -0.7261 -0.2170
  862MOL0     C18827   6.395   4.403   1.736 -0.5128 -0.2937 -0.4697
  862MOL0     C18828   6.471   4.428   1.867 -0.2418 -0.3022 -0.7528
  862MOL0     C18829   6.493   4.572   1.893 -0.1482 -0.7935 -0.0807
  862MOL0     C18830   6.609   4.580   1.988 -0.1651  0.9077  0.7680
  862MOL0     C18831   6.643   4.730   1.998  0.0615  0.2052  0.1306
  862MOL0     C18832   6.759   4.757   2.096  0.0757 -0.0312 -0.1974
  862MOL0     C18833   6.759   4.655   2.221  0.6510 -0.0259  0.2345
  862MOL0     C18834   6.873   4.679   2.322 -0.3255 -0.0968  0.2023
  862MOL0     N18835   6.858   4.813   2.371 -0.1471 -0.6137 -0.5813
  862MOL0     C18836   6.934   4.926   2.345  0.5551  0.5354  1.0297
  862MOL0     C18837   6.864   5.022   2.406  0.0263  0.0671  0.8358
  862MOL0     C18838   6.904   5.165   2.405 -0.7981  0.0003 -0.1207
  862MOL0     C18839   6.801   5.256   2.350  0.2986 -0.0032  0.2887
  862MOL0     C18840   6.837   5.414   2.346 -0.6216  0.2700 -0.7979
  862MOL0     C18841   6.931   5.467   2.235 -0.4491  0.2801  0.8013
  862MOL0     O18842   6.997   5.589   2.270 -0.1847  0.6619  0.0394
  862MOL0     C18843   7.072   5.643   2.171 -0.2878 -0.1003  0.4280
  862MOL0     C18844   7.063   5.614   2.028 -1.3310 -0.4614 -0.1663
  862MOL0     C18845   7.153   5.673   1.934  0.1187 -0.2351 -0.5296
  862MOL0     C18846   7.133   5.639   1.794  0.6762  0.3225 -0.1632
  862MOL0     C18847   7.242   5.775   1.984 -0.3407  0.1992 -0.1141
  862MOL0     C18848   7.339   5.852   1.897  0.9774 -0.1695 -1.1561
  862MOL0     O18849   7.378   5.972   1.956  0.2453 -0.4114  0.2959
  862MOL0     C18850   7.474   6.056   1.919  0.2607 -0.1272  0.5204
  862MOL0     C18851   7.503   6.157   2.012  0.2648  0.0695  0.3103
  862MOL0     C18852   7.598   6.255   1.979  0.0925 -0.2789  0.6507
  862MOL0     C18853   7.652   6.257   1.854  0.3293  0.1166 -0.1454
  862MOL0     O18854   7.737   6.363   1.837 -0.1969 -0.2077 -0.3109
  862MOL0     C18855   7.854   6.332   1.756 -0.0622  0.2123  0.0177
  862MOL0     C18856   7.947   6.449   1.776  0.4623  0.9032  0.5145
  862MOL0     C18857   8.062   6.439   1.885  0.1082 -0.3010  0.2324
  862MOL0     C18858   8.009   6.418   2.022 -0.5088 -0.1823 -0.1812
  862MOL0     C18859   8.110   6.476   2.118 -0.4666 -0.6995  0.5052
  862MOL0     C18860   8.076   6.449   2.269  0.4633  1.2031 -0.3691
  862MOL0     C18861   7.962   6.534   2.321  0.0250  0.9055 -0.9412
  862MOL0     C18862   7.951   6.501   2.476  0.2562  1.1106 -0.1614
  862MOL0    Cl18863   7.839   6.350   2.502  0.0079  0.2052 -0.3178
  862MOL0     C18864   7.627   6.166   1.755  0.2697  0.1329 -0.8951
  862MOL0     C18865   7.531   6.065   1.792 -0.7247 -0.3569  0.3712
  862MOL0     O18866   7.357   5.815   1.781 -0.1096  0.5976  0.7671
  862MOL0     C18867   7.249   5.799   2.125 -0.7105  0.2960  0.0543
  862MOL0     C18868   7.169   5.728   2.216  0.5636  0.4051 -0.4348
  862MOL0     N18869   6.756   4.978   2.475 -0.0526  0.3910  1.1027
  862MOL0     N18870   6.761   4.852   2.454  0.1407 -0.7978  0.6698
  862MOL0     C18871   6.047   4.336   1.693  0.5958  0.3789 -0.5413
  862MOL0     C18872   5.944   4.323   1.608  0.6194 -0.4011  0.2651
  862MOL0     C18873   5.736   4.422   1.174 -0.7218  0.2099  0.3994
  862MOL0     C18874   5.702   4.538   1.102  0.1777 -0.2692  1.1230
  862MOL0     C18875   5.636   4.526   0.975  0.3314 -0.5780  0.8349
  862MOL0     C18876   5.597   4.401   0.928 -1.0829 -0.0438  0.2336
  862MOL0     O18877   5.520   4.376   0.821 -0.0614  0.1226 -0.8687
  862MOL0     C18878   5.518   4.473   0.722  0.6117 -0.3831  0.6221
  862MOL0     C18879   5.639   4.475   0.633 -0.3031  0.3438  0.1690
  862MOL0     C18880   5.677   4.343   0.568  0.2619 -0.0062 -0.2750
  862MOL0     C18881   5.782   4.365   0.456  0.0190 -0.7709  0.2676
  862MOL0     C18882   5.791   4.236   0.375 -0.1425 -0.3705 -0.6213
  862MOL0     C18883   5.797   4.139   0.311  0.7143 -0.2049  0.1175
  862MOL0     C18884   5.629   4.291   1.009 -0.0976 -0.7060 -0.8486
  862MOL0     C18885   5.692   4.298   1.136  0.3438 -0.3935  0.8686
  862MOL0     C18886   5.718   4.171   1.209  0.2539  0.9165 -0.0921
  862MOL0     H18887   6.119   4.434   1.337 -1.7895  1.7444  0.8200
  862MOL0     H18888   6.298   4.450   1.500 -0.0258 -0.2135 -2.0160
  862MOL0     H18889   6.421   4.482   1.666 -2.5595  0.9174  0.0376
  862MOL0     H18890   6.428   4.307   1.695 -2.8032 -0.9811 -0.8781
  862MOL0     H18891   6.411   4.384   1.947 -1.2260  0.8559 -0.8200
  862MOL0     H18892   6.568   4.378   1.859 -0.1857 -0.1249 -1.1894
  862MOL0     H18893   6.513   4.615   1.795 -3.7479  1.3239 -0.0478
  862MOL0     H18894   6.401   4.618   1.930  0.2743  1.1662 -1.3132
  862MOL0     H18895   6.588   4.524   2.080  0.4052  0.0561  0.3948
  862MOL0     H18896   6.698   4.530   1.948 -1.4409 -0.5708 -0.3616
  862MOL0     H18897   6.565   4.787   2.049  0.5658  0.9340  0.1231
  862MOL0     H18898   6.651   4.781   1.901 -3.0835 -2.0323 -1.4492
  862MOL0     H18899   6.854   4.760   2.043  0.6243  1.8340  0.7839
  862MOL0     H18900   6.764   4.861   2.131  0.3240  0.1546 -0.7764
  862MOL0     H18901   6.763   4.551   2.187 -1.1033 -0.2093  0.5012
  862MOL0     H18902   6.665   4.673   2.274  0.1611  0.6251 -0.8194
  862MOL0     H18903   6.883   4.595   2.391  2.4468  0.4932  0.6127
  862MOL0     H18904   6.965   4.669   2.264  0.0501 -1.2513  0.9675
  862MOL0     H18905   7.027   4.940   2.292  0.4730 -1.4117  0.2847
  862MOL0     H18906   7.000   5.188   2.359 -0.9109  1.5475  0.3595
  862MOL0     H18907   6.923   5.197   2.508  0.1475 -2.8886  0.6952
  862MOL0     H18908   6.782   5.227   2.246 -0.4049 -0.2469  0.4795
  862MOL0     H18909   6.700   5.248   2.392 -0.1429  1.1339 -0.4994
  862MOL0     H18910   6.745   5.474   2.339  0.7211  2.3080 -1.9859
  862MOL0     H18911   6.873   5.439   2.447 -2.2561  0.7913 -0.3106
  862MOL0     H18912   7.014   5.396   2.230  0.5939  1.4664  0.6238
  862MOL0     H18913   6.867   5.468   2.147  0.9270  2.4375 -0.2519
  862MOL0     H18914   7.006   5.529   1.993  1.5144 -2.1030 -1.1277
  862MOL0     H18915   7.130   5.738   1.746 -2.3293 -0.0218 -0.9051
  862MOL0     H18916   7.039   5.591   1.765 -0.9353  3.7976 -1.2382
  862MOL0     H18917   7.218   5.581   1.759 -0.3599 -1.5975  0.3784
  862MOL0     H18918   7.447   6.157   2.105 -0.1518  0.7294  0.0670
  862MOL0     H18919   7.634   6.328   2.051  0.7457 -1.7328  1.8420
  862MOL0     H18920   7.906   6.243   1.792  3.1906  0.6948 -3.0125
  862MOL0     H18921   7.812   6.320   1.656 -4.2171 -0.7919  1.6657
  862MOL0     H18922   7.989   6.476   1.679 -0.1837  0.3807  0.0837
  862MOL0     H18923   7.889   6.535   1.811 -0.8567  0.6810 -1.0120
  862MOL0     H18924   8.126   6.527   1.872 -0.0881 -0.2309 -0.3106
  862MOL0     H18925   8.135   6.360   1.859  1.6737  0.5333  1.8859
  862MOL0     H18926   8.001   6.312   2.050 -2.3496  0.5372  2.4562
  862MOL0     H18927   7.907   6.456   2.031 -0.7347 -0.3250 -1.8680
  862MOL0     H18928   8.211   6.437   2.105  0.1533  0.5796  1.2114
  862MOL0     H18929   8.103   6.583   2.095 -0.1512 -1.3047 -2.9311
  862MOL0     H18930   8.166   6.480   2.323  1.2893 -1.1709 -0.2727
  862MOL0     H18931   8.062   6.341   2.271 -1.1845  1.4103  0.2887
  862MOL0     H18932   7.868   6.500   2.275 -1.0840 -0.3432  1.9928
  862MOL0     H18933   7.978   6.641   2.303  1.2075  0.9787  0.3896
  862MOL0     H18934   7.914   6.585   2.535  0.6723 -0.0866  1.9432
  862MOL0     H18935   8.052   6.477   2.512 -0.1744 -3.0411 -1.1459
  862MOL0     H18936   7.668   6.163   1.654 -0.0745 -0.3464 -1.0267
  862MOL0     H18937   7.510   5.993   1.714  0.5029 -1.0418  0.6393
  862MOL0     H18938   7.314   5.875   2.167 -1.4390  1.6652 -1.2055
  862MOL0     H18939   7.159   5.757   2.320  0.6046 -1.3271  0.0928
  862MOL0     H18940   6.024   4.321   1.798  0.9496  4.1241  0.2134
  862MOL0     H18941   5.847   4.302   1.651 -0.3049  1.9306 -0.5151
  862MOL0     H18942   5.728   4.639   1.132 -0.9831  1.8192 -3.9058
  862MOL0     H18943   5.621   4.624   0.929  0.5331 -0.3607  1.2292
  862MOL0     H18944   5.434   4.446   0.656  0.0644  0.7592  0.8281
  862MOL0     H18945   5.498   4.575   0.756  0.2305  0.0671 -0.8648
  862MOL0     H18946   5.724   4.515   0.690  0.7452 -1.5238 -0.0096
  862MOL0     H18947   5.626   4.551   0.556  0.2907  0.4172  0.1305
  862MOL0     H18948   5.720   4.282   0.648 -3.6867  0.3879  2.3995
  862MOL0     H18949   5.583   4.299   0.533  1.0881 -0.4850 -1.9974
  862MOL0     H18950   5.870   4.393   0.515 -2.2156  2.1870  2.5215
  862MOL0     H18951   5.754   4.450   0.393 -0.2017  0.8652  2.4552
  862MOL0     H18952   5.785   4.056   0.245 -0.2075 -1.2743  1.5545
  862MOL0     H18953   5.594   4.196   0.969 -0.5140 -0.4099 -1.1929
  862MOL0     H18954   5.656   4.089   1.171 -1.4861  1.5860  1.1259
  862MOL0     H18955   5.825   4.148   1.211  0.2031  0.7322  0.4697
  862MOL0     H18956   5.688   4.178   1.314 -0.4984 -0.1078 -0.2255
  863MOL0     O18957   7.084   3.495   1.708 -0.9388  0.0161 -0.7492
  863MOL0     C18958   7.006   3.581   1.660  0.0975  1.1084 -0.2525
  863MOL0     O18959   7.043   3.665   1.560  0.1510 -0.4024 -0.2101
  863MOL0     C18960   7.171   3.661   1.519 -0.6526 -0.2870  0.6194
  863MOL0     C18961   7.195   3.621   1.390 -0.1678 -0.8137  0.5866
  863MOL0     C18962   7.328   3.599   1.356 -0.4427  0.5682 -0.4792
  863MOL0     C18963   7.439   3.610   1.445 -1.3009  1.1459 -0.0894
  863MOL0     O18964   7.555   3.544   1.407 -0.4404 -0.1230  0.2121
  863MOL0     C18965   7.687   3.604   1.445 -0.8869 -0.0729  0.5574
  863MOL0     C18966   7.778   3.504   1.518 -0.2969  0.3066  0.3641
  863MOL0     C18967   7.924   3.550   1.525  0.0507 -0.4913  0.5347
  863MOL0     C18968   7.985   3.640   1.413 -0.4385  0.1816 -0.3720
  863MOL0     C18969   8.137   3.645   1.421  0.4015 -0.5035 -0.8415
  863MOL0     C18970   8.198   3.772   1.363 -1.1275  0.6602 -0.3257
  863MOL0     C18971   8.351   3.764   1.374  0.0445 -0.4495  0.2678
  863MOL0     C18972   8.412   3.887   1.312 -0.3785 -0.6033  0.0929
  863MOL0     N18973   8.544   3.911   1.371 -0.1201 -0.0906 -0.5228
  863MOL0     C18974   8.658   3.866   1.313  0.2070 -0.7087 -0.1181
  863MOL0     C18975   8.759   3.902   1.401  0.0426  0.2642  0.1673
  863MOL0     C18976   8.906   3.874   1.396  0.0448 -0.0624  0.1971
  863MOL0     C18977   8.946   3.782   1.273 -0.8030  0.7402 -0.6616
  863MOL0     C18978   8.931   3.638   1.316 -1.1803  0.6029 -0.1784
  863MOL0     C18979   8.922   3.539   1.201  0.0975 -0.5964  0.0598
  863MOL0     O18980   8.838   3.592   1.090  0.4363  0.6237 -0.3955
  863MOL0     C18981   8.708   3.567   1.075 -0.0462  0.0356 -0.3853
  863MOL0     C18982   8.637   3.482   1.154  0.9225 -0.2219  0.5987
  863MOL0     C18983   8.496   3.475   1.149 -0.4748 -0.9803  0.1132
  863MOL0     C18984   8.424   3.386   1.243  0.2755  0.1354 -0.4122
  863MOL0     C18985   8.431   3.546   1.046  0.6345 -0.1760  0.4693
  863MOL0     C18986   8.279   3.543   1.029  0.5594 -0.6356 -0.6593
  863MOL0     O18987   8.219   3.419   1.035 -0.4395 -0.1491 -0.6233
  863MOL0     C18988   8.087   3.407   1.081  0.2558 -0.0045  0.7243
  863MOL0     C18989   8.050   3.327   1.189 -0.1378 -0.1719 -0.2498
  863MOL0     C18990   7.916   3.293   1.236 -0.3556  0.0470 -0.0181
  863MOL0     C18991   7.814   3.361   1.165  0.6618  0.1177  0.3848
  863MOL0     O18992   7.685   3.342   1.194 -0.1604  0.4080 -0.0695
  863MOL0     C18993   7.647   3.206   1.231  0.3838 -0.4890  0.7066
  863MOL0     C18994   7.497   3.203   1.250  0.4433  0.0310  0.6254
  863MOL0     C18995   7.417   3.238   1.123 -0.0918  0.1227 -0.6447
  863MOL0     C18996   7.315   3.139   1.096  0.7716  0.0126 -0.0469
  863MOL0     C18997   7.272   3.161   0.947  0.0617 -0.3297  0.0510
  863MOL0     C18998   7.142   3.084   0.913  0.3304  0.1505  0.3353
  863MOL0     C18999   7.109   3.066   0.760 -0.8134  0.2175 -0.4712
  863MOL0     C19000   7.010   2.954   0.735 -1.6279  0.6182  0.3252
  863MOL0    Cl19001   6.981   2.911   0.564  0.2306  0.0066 -0.1944
  863MOL0     C19002   7.845   3.448   1.057  0.2915  0.6942 -1.2591
  863MOL0     C19003   7.976   3.459   1.008 -0.1258 -0.7633  0.4099
  863MOL0     O19004   8.224   3.653   1.038  0.5462 -0.1013  0.8096
  863MOL0     C19005   8.506   3.618   0.958  0.3532  0.3605 -1.0254
  863MOL0     C19006   8.645   3.632   0.973  0.4736  0.0860  0.6042
  863MOL0     N19007   8.695   3.979   1.502 -0.0657 -0.5306  0.2916
  863MOL0     N19008   8.564   3.980   1.489  0.3753  0.7116  0.3589
  863MOL0     C19009   7.412   3.670   1.574  0.2332 -0.3120  0.2424
  863MOL0     C19010   7.273   3.697   1.613 -0.4960 -0.1986 -0.2254
  863MOL0     C19011   6.864   3.582   1.703  0.0724 -0.8066 -0.7639
  863MOL0     C19012   6.782   3.667   1.633  0.1609 -0.4975  0.5073
  863MOL0     C19013   6.657   3.681   1.664  0.1369 -0.1130 -0.0366
  863MOL0     C19014   6.592   3.612   1.770 -0.2628 -0.1322 -0.3477
  863MOL0     O19015   6.461   3.628   1.799  0.3840 -0.5415 -0.9776
  863MOL0     C19016   6.383   3.692   1.701 -0.2883  0.3371 -0.0061
  863MOL0     C19017   6.373   3.834   1.739  0.1010 -0.0056 -0.8962
  863MOL0     C19018   6.342   3.857   1.892  0.3105 -0.0162  0.4598
  863MOL0     C19019   6.274   3.986   1.919  0.8105  0.1783  0.3760
  863MOL0     C19020   6.151   4.014   1.842 -0.7834  1.0113  0.5920
  863MOL0     C19021   6.058   4.016   1.772 -0.7310 -0.8090  0.8139
  863MOL0     C19022   6.673   3.524   1.841 -0.4569 -0.3534  0.6518
  863MOL0     C19023   6.812   3.505   1.807  0.0572  0.0961  0.4854
  863MOL0     C19024   6.886   3.397   1.884 -0.5889 -0.0633 -0.6106
  863MOL0     H19025   7.119   3.611   1.313 -1.4739  3.7424  0.9711
  863MOL0     H19026   7.349   3.557   1.258  2.0038 -0.4872  0.4195
  863MOL0     H19027   7.681   3.694   1.507 -0.0086  1.3689 -1.3466
  863MOL0     H19028   7.732   3.632   1.349 -2.5865  0.5011 -0.1142
  863MOL0     H19029   7.740   3.478   1.617 -0.8677 -0.2861  0.0012
  863MOL0     H19030   7.768   3.407   1.468 -0.5667  2.0595 -3.3278
  863MOL0     H19031   7.934   3.589   1.627 -2.5056  1.1859  0.2596
  863MOL0     H19032   7.980   3.457   1.525  0.3717 -0.3107 -0.8058
  863MOL0     H19033   7.967   3.597   1.314 -1.7750 -1.2677  0.4599
  863MOL0     H19034   7.964   3.746   1.427  3.7851  1.2458 -0.5621
  863MOL0     H19035   8.169   3.556   1.366 -0.7102 -1.1040 -0.5401
  863MOL0     H19036   8.170   3.631   1.524  1.2596  0.1158 -1.0240
  863MOL0     H19037   8.160   3.772   1.261 -2.6637 -3.9832 -0.0008
  863MOL0     H19038   8.169   3.862   1.419  3.2413  1.3312  1.2577
  863MOL0     H19039   8.395   3.683   1.315 -0.1929 -1.1147  0.9869
  863MOL0     H19040   8.390   3.760   1.476 -0.1321  0.1462  0.3632
  863MOL0     H19041   8.425   3.878   1.204 -1.4710 -1.6579  0.0203
  863MOL0     H19042   8.358   3.979   1.337  0.3006 -0.2757  0.3694
  863MOL0     H19043   8.655   3.809   1.221 -0.0127 -0.1111 -0.4827
  863MOL0     H19044   8.932   3.808   1.479 -1.3420 -2.7568 -1.3799
  863MOL0     H19045   8.954   3.973   1.398 -1.0567  0.4880 -0.1009
  863MOL0     H19046   8.888   3.817   1.188  1.4924  1.3182 -2.0783
  863MOL0     H19047   9.051   3.799   1.246 -0.3322 -0.5348  0.2331
  863MOL0     H19048   9.015   3.615   1.382 -0.3768  3.7833  0.0562
  863MOL0     H19049   8.836   3.623   1.369 -0.8096 -0.8901  0.1196
  863MOL0     H19050   9.018   3.525   1.151 -0.6370 -0.7465 -1.3520
  863MOL0     H19051   8.899   3.441   1.245  1.7348 -0.0606  2.2818
  863MOL0     H19052   8.676   3.425   1.238  2.5095 -1.4857 -0.9118
  863MOL0     H19053   8.348   3.442   1.297 -0.7384 -0.8385 -0.8044
  863MOL0     H19054   8.491   3.346   1.321  0.2789 -2.2999 -1.5698
  863MOL0     H19055   8.379   3.293   1.207 -1.5136 -0.6371  3.3327
  863MOL0     H19056   8.132   3.285   1.247 -1.3271  0.9129  2.3717
  863MOL0     H19057   7.894   3.222   1.314 -1.3760  0.2352 -0.1168
  863MOL0     H19058   7.667   3.130   1.154 -2.4695 -0.0766 -0.5471
  863MOL0     H19059   7.688   3.186   1.331  1.5683  0.9685  0.5376
  863MOL0     H19060   7.471   3.104   1.290 -3.5540  1.4326  1.9309
  863MOL0     H19061   7.468   3.278   1.324 -1.8303  0.0884 -0.2331
  863MOL0     H19062   7.482   3.245   1.035 -0.4153  1.6984 -0.7872
  863MOL0     H19063   7.373   3.337   1.138 -2.8743 -0.7334 -2.4255
  863MOL0     H19064   7.229   3.153   1.162  0.8758  0.4663 -0.0005
  863MOL0     H19065   7.356   3.039   1.108  1.0896  0.1668  0.1883
  863MOL0     H19066   7.249   3.265   0.921 -0.2741 -1.0516 -2.8375
  863MOL0     H19067   7.355   3.129   0.884  0.7229 -0.3013  0.8936
  863MOL0     H19068   7.069   3.147   0.965  2.2607  1.6771  1.3154
  863MOL0     H19069   7.155   2.987   0.961  0.8413 -0.3128 -0.7315
  863MOL0     H19070   7.195   3.052   0.694 -0.6029 -0.9089  0.0081
  863MOL0     H19071   7.051   3.156   0.738 -3.2456 -0.9832  0.6029
  863MOL0     H19072   6.912   2.985   0.773 -1.6154 -0.6609  1.4442
  863MOL0     H19073   7.041   2.863   0.786  1.7168  0.9310 -0.9237
  863MOL0     H19074   7.778   3.517   1.008  2.7840  6.5642  2.4253
  863MOL0     H19075   8.007   3.513   0.919  1.3072 -2.0706  0.0576
  863MOL0     H19076   8.460   3.658   0.868 -0.2706 -0.3789 -1.0442
  863MOL0     H19077   8.697   3.696   0.902 -1.4784 -0.4993 -1.4447
  863MOL0     H19078   7.493   3.658   1.645 -1.5624 -0.3312  2.3997
  863MOL0     H19079   7.247   3.730   1.712 -0.1990 -3.1470  0.9462
  863MOL0     H19080   6.819   3.734   1.555  1.5637 -1.4648  0.3160
  863MOL0     H19081   6.614   3.765   1.611 -0.1417 -0.9012 -1.0936
  863MOL0     H19082   6.415   3.668   1.599 -1.7473  0.1136 -0.4276
  863MOL0     H19083   6.283   3.650   1.712 -1.0736  0.6222 -4.2236
  863MOL0     H19084   6.283   3.877   1.693 -0.5875  1.3192  1.5135
  863MOL0     H19085   6.463   3.889   1.709 -1.4444  1.9743 -2.2279
  863MOL0     H19086   6.282   3.773   1.929  0.8018 -0.1580  0.9410
  863MOL0     H19087   6.437   3.858   1.946  0.7106  1.8695 -0.2019
  863MOL0     H19088   6.336   4.073   1.896  0.2136 -0.1910 -3.3276
  863MOL0     H19089   6.244   3.988   2.024 -0.3068  0.3041  0.0748
  863MOL0     H19090   5.965   4.021   1.718 -0.5694  4.8706  0.4983
  863MOL0     H19091   6.621   3.470   1.920  0.6456 -1.9118  0.3461
  863MOL0     H19092   6.979   3.437   1.926 -0.7897  0.6106 -0.7983
  863MOL0     H19093   6.823   3.351   1.961 -1.2560  0.2292 -0.9763
  863MOL0     H19094   6.900   3.314   1.814  4.2194 -0.8903  0.9005
  864MOL0     O19095   0.355   8.826   5.936  0.7036 -0.0820  0.7446
  864MOL0     C19096   0.251   8.759   5.934  0.8272  0.3121 -0.1750
  864MOL0     O19097   0.240   8.638   5.992 -0.3977  0.5789  0.4752
  864MOL0     C19098   0.351   8.584   6.050 -0.3877 -0.6684  1.0210
  864MOL0     C19099   0.344   8.570   6.188 -0.4333  0.4590  0.5514
  864MOL0     C19100   0.452   8.513   6.267  0.4804  0.1280 -0.5946
  864MOL0     C19101   0.565   8.469   6.200  0.2962 -0.2083  0.3413
  864MOL0     O19102   0.671   8.417   6.254 -0.7403  0.1481  0.1758
  864MOL0     C19103   0.661   8.361   6.384 -0.0748  0.3797  0.4992
  864MOL0     C19104   0.796   8.280   6.429  0.8565 -0.1514  0.3683
  864MOL0     C19105   0.843   8.157   6.350  0.1101 -0.1000 -0.5406
  864MOL0     C19106   0.985   8.124   6.398  0.3783  0.2688  0.2704
  864MOL0     C19107   1.024   8.002   6.325  0.6884  0.1748 -0.2018
  864MOL0     C19108   1.151   7.930   6.375  0.0593  0.0316 -0.6848
  864MOL0     C19109   1.180   7.810   6.282  0.0462  1.1567 -0.0415
  864MOL0     C19110   1.322   7.753   6.307 -0.4206 -0.5854 -0.4444
  864MOL0     N19111   1.319   7.675   6.429 -0.0469 -0.5646 -0.2261
  864MOL0     C19112   1.380   7.727   6.545  0.1479  0.0907 -0.2754
  864MOL0     C19113   1.386   7.620   6.626 -0.3539  0.4099  0.2385
  864MOL0     C19114   1.463   7.626   6.753 -0.1669  0.2678  0.0060
  864MOL0     C19115   1.613   7.656   6.724  0.2113 -0.0409  0.3431
  864MOL0     C19116   1.686   7.522   6.683  0.1286  0.2218  0.4018
  864MOL0     C19117   1.842   7.533   6.675  1.2567  0.3179  0.2867
  864MOL0     O19118   1.881   7.489   6.803  0.3434 -0.2321  0.5662
  864MOL0     C19119   2.013   7.507   6.834 -0.7556 -0.7489  0.1619
  864MOL0     C19120   2.111   7.592   6.778  0.0811  0.2334 -0.2964
  864MOL0     C19121   2.237   7.607   6.838 -0.1620  0.4239  0.5665
  864MOL0     C19122   2.330   7.692   6.762  0.4923 -0.4079  0.9243
  864MOL0     C19123   2.280   7.529   6.949  0.1692  0.1574 -0.7723
  864MOL0     C19124   2.409   7.545   7.028 -0.2577 -0.2514 -0.2750
  864MOL0     O19125   2.511   7.621   6.960 -0.2425 -0.0696 -0.0524
  864MOL0     C19126   2.643   7.629   7.009  1.3729 -0.7359 -1.1712
  864MOL0     C19127   2.707   7.569   7.120  0.2480 -0.4505 -0.2960
  864MOL0     C19128   2.836   7.602   7.167 -0.0914  0.2737 -0.0466
  864MOL0     C19129   2.902   7.713   7.110  0.3438  0.2141  0.5884
  864MOL0     O19130   3.012   7.787   7.143 -0.8375  0.0194 -0.6481
  864MOL0     C19131   3.097   7.727   7.239  0.0541 -0.7864 -0.2560
  864MOL0     C19132   3.044   7.737   7.389 -0.3243  0.1769  0.7316
  864MOL0     C19133   3.161   7.725   7.484  0.9619  0.0091 -0.2926
  864MOL0     C19134   3.236   7.858   7.512 -0.2695 -0.5525 -0.8082
  864MOL0     C19135   3.210   7.921   7.642 -0.1187  0.2461 -0.7549
  864MOL0     C19136   3.065   7.957   7.662 -0.2738 -0.2985  0.4188
  864MOL0     C19137   3.051   8.061   7.768 -0.5839  0.1256  0.1423
  864MOL0     C19138   3.052   8.204   7.715  0.1704  1.3636 -0.7448
  864MOL0    Cl19139   3.035   8.306   7.857 -0.4199 -0.0562 -0.5272
  864MOL0     C19140   2.844   7.777   7.003  0.7781  0.0710  0.3684
  864MOL0     C19141   2.717   7.737   6.951  0.2576  0.7091  0.2001
  864MOL0     O19142   2.415   7.486   7.138  0.2737 -0.4940  0.2042
  864MOL0     C19143   2.185   7.428   7.002 -0.1537 -0.4785  0.4924
  864MOL0     C19144   2.053   7.428   6.943  0.5877 -0.2420 -0.9034
  864MOL0     N19145   1.323   7.516   6.561 -0.1594  0.5042  0.3025
  864MOL0     N19146   1.294   7.544   6.443 -0.0187 -0.1614  0.9233
  864MOL0     C19147   0.570   8.485   6.069 -1.6905 -0.1889  1.5155
  864MOL0     C19148   0.471   8.546   5.989  0.4959 -0.1039 -0.1316
  864MOL0     C19149   0.139   8.804   5.857  0.4842 -0.4563  0.7299
  864MOL0     C19150   0.046   8.706   5.813  0.5056  0.4161  0.2852
  864MOL0     C19151  -0.076   8.739   5.759  1.2231 -0.1053  0.5649
  864MOL0     C19152  -0.108   8.882   5.725 -0.4443  0.8899 -0.6243
  864MOL0     O19153  -0.216   8.924   5.659 -0.0170  0.6047 -0.4678
  864MOL0     C19154  -0.310   8.822   5.617 -0.5047 -0.6004  0.0048
  864MOL0     C19155  -0.426   8.903   5.540 -0.4237 -0.1900  1.2307
  864MOL0     C19156  -0.492   9.010   5.627  0.6815  0.2487  0.2704
  864MOL0     C19157  -0.639   9.019   5.583  0.2474  1.3607 -0.5103
  864MOL0     C19158  -0.702   9.103   5.684  0.3117 -0.8944  0.2493
  864MOL0     C19159  -0.756   9.190   5.756  0.6114  1.1606 -0.9054
  864MOL0     C19160  -0.017   8.978   5.767 -0.7696  0.4928  1.0759
  864MOL0     C19161   0.103   8.945   5.826 -0.4309 -0.5124 -0.0350
  864MOL0     C19162   0.192   9.057   5.880 -0.2022 -0.2164 -0.2523
  864MOL0     H19163   0.254   8.590   6.245  0.8307 -0.3484  2.9737
  864MOL0     H19164   0.449   8.510   6.376  3.7094 -0.7180 -0.4507
  864MOL0     H19165   0.571   8.301   6.398 -0.8757  0.1147 -4.2871
  864MOL0     H19166   0.649   8.443   6.455  1.5323  1.1813 -0.1020
  864MOL0     H19167   0.870   8.361   6.424 -0.9985  1.5882  0.0932
  864MOL0     H19168   0.797   8.257   6.536  0.4381 -0.8488  0.2306
  864MOL0     H19169   0.776   8.071   6.359 -0.2311  0.1307 -0.8693
  864MOL0     H19170   0.843   8.186   6.244  0.2029  0.2910 -0.4345
  864MOL0     H19171   1.053   8.208   6.379  1.6099 -0.4604  1.3042
  864MOL0     H19172   0.994   8.104   6.505  2.1787 -1.1000 -0.0793
  864MOL0     H19173   1.032   8.013   6.216 -0.6757  0.9242 -0.2492
  864MOL0     H19174   0.943   7.929   6.340  1.0711 -0.4439 -1.0340
  864MOL0     H19175   1.231   8.004   6.373 -0.5625  0.7140 -2.9412
  864MOL0     H19176   1.128   7.889   6.474 -3.8929 -0.0164 -1.4377
  864MOL0     H19177   1.168   7.833   6.175 -1.5365  0.3890 -0.0677
  864MOL0     H19178   1.107   7.734   6.312  2.3691 -2.3548 -2.3723
  864MOL0     H19179   1.350   7.691   6.221  1.5079  0.4957 -0.6345
  864MOL0     H19180   1.393   7.833   6.327  0.3081 -1.5331  0.9508
  864MOL0     H19181   1.433   7.820   6.563  0.4122  0.1982 -1.5570
  864MOL0     H19182   1.462   7.530   6.805  0.9516 -0.9689 -2.1071
  864MOL0     H19183   1.413   7.698   6.818 -0.6978 -0.1117  0.0259
  864MOL0     H19184   1.631   7.738   6.654  0.5970 -0.5957 -0.2217
  864MOL0     H19185   1.647   7.698   6.820 -0.9696 -0.2736  0.8845
  864MOL0     H19186   1.659   7.446   6.757 -1.9204  1.1978  0.7347
  864MOL0     H19187   1.643   7.481   6.592  0.5777 -0.0241  0.3003
  864MOL0     H19188   1.864   7.471   6.588 -0.3219  1.8847 -1.3190
  864MOL0     H19189   1.875   7.635   6.653  2.2748 -0.3542 -1.5063
  864MOL0     H19190   2.085   7.650   6.691  1.2551  2.0371  0.5071
  864MOL0     H19191   2.411   7.628   6.724 -1.4381 -0.7705 -3.0130
  864MOL0     H19192   2.366   7.780   6.816  0.6169 -0.7735  1.4576
  864MOL0     H19193   2.271   7.730   6.679 -0.5917 -3.7220  0.0191
  864MOL0     H19194   2.662   7.481   7.165  1.2782  0.7252  3.4331
  864MOL0     H19195   2.881   7.548   7.250  1.0785 -0.5068 -1.1485
  864MOL0     H19196   3.123   7.624   7.214 -1.5125 -1.0546 -0.9075
  864MOL0     H19197   3.187   7.787   7.222  1.7074 -3.7056 -2.7449
  864MOL0     H19198   3.000   7.836   7.405  0.3238  0.7530 -0.8628
  864MOL0     H19199   2.964   7.662   7.394 -1.2389  1.0077 -0.7062
  864MOL0     H19200   3.226   7.657   7.429  0.4893  0.7029 -1.7707
  864MOL0     H19201   3.118   7.681   7.574  3.8785  2.5648  2.6503
  864MOL0     H19202   3.215   7.920   7.424  0.2050  1.4055  0.3932
  864MOL0     H19203   3.345   7.848   7.506 -0.1261  0.9540 -1.0011
  864MOL0     H19204   3.252   7.856   7.720  2.2512  1.2125 -1.1220
  864MOL0     H19205   3.283   8.002   7.655  1.1044 -0.5299 -2.3395
  864MOL0     H19206   3.018   7.866   7.700 -2.5190 -0.3139 -2.1292
  864MOL0     H19207   3.034   7.999   7.566  2.7134  0.1424 -0.4682
  864MOL0     H19208   3.141   8.053   7.830 -0.8797 -0.8694  0.4544
  864MOL0     H19209   2.956   8.054   7.822 -2.6224  0.8174 -3.0879
  864MOL0     H19210   2.963   8.218   7.653 -1.4169 -0.2295  1.0256
  864MOL0     H19211   3.144   8.227   7.660  2.2750 -1.8705  1.0425
  864MOL0     H19212   2.903   7.841   6.939  1.2298 -1.7947 -1.1518
  864MOL0     H19213   2.680   7.783   6.860  1.6270  1.9565  0.2411
  864MOL0     H19214   2.211   7.364   7.086  1.7373  0.9866  1.1058
  864MOL0     H19215   1.992   7.354   6.994  0.8575  0.8047  1.0442
  864MOL0     H19216   0.658   8.447   6.017 -2.2461  0.3015  0.1646
  864MOL0     H19217   0.475   8.558   5.881  0.5094 -1.2590 -0.2753
  864MOL0     H19218   0.064   8.602   5.836 -0.3356  0.5112  1.4330
  864MOL0     H19219  -0.143   8.658   5.730  0.6235  0.2488  0.9431
  864MOL0     H19220  -0.266   8.749   5.548 -1.9466 -0.2717 -1.3333
  864MOL0     H19221  -0.347   8.769   5.706 -3.3123  1.6653  0.3263
  864MOL0     H19222  -0.488   8.836   5.481 -0.5972  2.5249 -1.9617
  864MOL0     H19223  -0.374   8.953   5.458 -1.6583  1.5073  1.4180
  864MOL0     H19224  -0.491   8.976   5.731 -0.2081 -0.6185  0.0244
  864MOL0     H19225  -0.442   9.106   5.617  0.2967  0.2618 -2.1715
  864MOL0     H19226  -0.681   8.919   5.595  0.8181  0.9886 -1.5623
  864MOL0     H19227  -0.649   9.056   5.481 -1.4965 -1.0362 -1.2808
  864MOL0     H19228  -0.802   9.255   5.828  0.9880  0.5793 -0.1259
  864MOL0     H19229  -0.036   9.085   5.767 -0.6383  0.5183  1.4025
  864MOL0     H19230   0.294   9.053   5.841 -0.0367 -0.2616  0.1754
  864MOL0     H19231   0.164   9.159   5.852  2.2710  1.1218  1.7105
  864MOL0     H19232   0.198   9.046   5.989 -0.7048  2.0505  0.0628
  865MOL0     O19233   9.213   5.210   8.098  0.1309 -0.4418  0.2421
  865MOL0     C19234   9.298   5.252   8.021 -0.2168 -0.2356  0.3871
  865MOL0     O19235   9.408   5.193   7.968 -0.3948 -0.5830  0.6100
  865MOL0     C19236   9.439   5.066   8.005  0.7274 -0.3684  0.1488
  865MOL0     C19237   9.460   5.028   8.139 -0.0181 -0.1923 -1.1872
  865MOL0     C19238   9.492   4.900   8.179  0.1946 -0.4096 -0.5608
  865MOL0     C19239   9.498   4.801   8.089 -0.2304  0.4827 -0.7786
  865MOL0     O19240   9.517   4.669   8.127 -1.0543 -0.0239 -0.2451
  865MOL0     C19241   9.423   4.567   8.082 -0.7896  0.0257 -0.1013
  865MOL0     C19242   9.429   4.447   8.173  0.0874 -0.1319  0.3286
  865MOL0     C19243   9.349   4.478   8.303 -0.0089 -0.1760 -0.2401
  865MOL0     C19244   9.375   4.370   8.405 -0.6844  0.0545 -1.0719
  865MOL0     C19245   9.271   4.365   8.522 -0.7857 -0.7702 -0.7471
  865MOL0     C19246   9.147   4.271   8.498  0.1807 -0.5501  0.0511
  865MOL0     C19247   9.039   4.265   8.610 -0.4724  1.1618 -1.1330
  865MOL0     C19248   8.965   4.399   8.601 -0.1520  0.2815 -0.4007
  865MOL0     N19249   8.852   4.397   8.700 -0.4699 -0.3192  0.4914
  865MOL0     C19250   8.818   4.492   8.793 -0.0461 -0.5046 -0.4219
  865MOL0     C19251   8.697   4.454   8.837 -0.2038  0.2682  0.2564
  865MOL0     C19252   8.602   4.553   8.915  0.4752  0.2460  0.9567
  865MOL0     C19253   8.476   4.600   8.848  0.2466 -0.0697  0.2308
  865MOL0     C19254   8.397   4.475   8.808 -0.6927  1.0632  0.1060
  865MOL0     C19255   8.255   4.513   8.781 -0.8859 -0.1949 -0.2345
  865MOL0     O19256   8.248   4.600   8.670  0.5799  0.5425  0.1479
  865MOL0     C19257   8.124   4.662   8.662 -1.2128  0.5732  1.0379
  865MOL0     C19258   8.091   4.687   8.529  0.8094 -0.3998 -0.4189
  865MOL0     C19259   7.964   4.754   8.510  0.2343  0.1571 -0.3150
  865MOL0     C19260   7.940   4.770   8.367 -0.5091 -0.2060  0.9651
  865MOL0     C19261   7.876   4.793   8.616 -0.4832 -0.0833 -0.1175
  865MOL0     C19262   7.742   4.855   8.594  0.3102 -1.0029 -0.9565
  865MOL0     O19263   7.671   4.865   8.714 -0.4875 -0.0673  0.5964
  865MOL0     C19264   7.545   4.913   8.698  0.4799  0.2286  0.9673
  865MOL0     C19265   7.510   5.044   8.714  0.8762  0.5883 -0.4336
  865MOL0     C19266   7.382   5.090   8.695  0.3721  0.3794  0.0882
  865MOL0     C19267   7.276   5.000   8.656 -0.4307 -0.1658 -1.3741
  865MOL0     O19268   7.142   5.036   8.629  0.5984 -0.5545 -0.0819
  865MOL0     C19269   7.108   5.154   8.555  1.5404  0.3925 -0.2063
  865MOL0     C19270   6.966   5.161   8.486  0.3447  0.2510  0.3288
  865MOL0     C19271   6.928   5.308   8.462 -0.0659  0.0202 -0.6298
  865MOL0     C19272   6.799   5.316   8.377  0.2418 -0.8790  1.0799
  865MOL0     C19273   6.664   5.273   8.441  0.5255  0.8077  0.1356
  865MOL0     C19274   6.549   5.280   8.343 -0.2459  0.1057  0.2207
  865MOL0     C19275   6.471   5.413   8.358 -0.0225 -0.3198  0.1535
  865MOL0     C19276   6.353   5.429   8.272  0.7186  1.2087  0.9892
  865MOL0    Cl19277   6.395   5.414   8.088 -0.1821  0.6249 -0.3046
  865MOL0     C19278   7.307   4.867   8.649 -0.6455  0.0600 -0.7314
  865MOL0     C19279   7.441   4.820   8.666  0.8868  0.4541  0.0732
  865MOL0     O19280   7.708   4.903   8.482  0.1989 -0.6598  0.4114
  865MOL0     C19281   7.930   4.778   8.750 -0.7248  0.6925  0.2078
  865MOL0     C19282   8.049   4.711   8.770 -0.1828  0.4183 -0.1841
  865MOL0     N19283   8.662   4.332   8.775  0.0012  0.2184  0.7697
  865MOL0     N19284   8.755   4.309   8.690 -0.0407  1.2284  0.2650
  865MOL0     C19285   9.465   4.827   7.955  0.0397  0.4318  0.0156
  865MOL0     C19286   9.429   4.963   7.916 -0.2114  0.1644  0.9481
  865MOL0     C19287   9.283   5.389   7.965 -0.6066 -0.5057  0.6589
  865MOL0     C19288   9.392   5.485   7.965 -0.2227  0.4972 -0.1210
  865MOL0     C19289   9.380   5.612   7.904  0.0714 -0.5286 -0.6269
  865MOL0     C19290   9.251   5.649   7.858  0.3732 -0.0819  0.5231
  865MOL0     O19291   9.251   5.778   7.819  0.1820  0.0213  0.1178
  865MOL0     C19292   9.131   5.838   7.769  0.1120  0.2287 -1.2366
  865MOL0     C19293   9.154   5.961   7.692  0.6807 -0.2219 -1.1728
  865MOL0     C19294   9.043   6.032   7.613 -0.0662  1.1921  0.1938
  865MOL0     C19295   9.027   6.181   7.613 -0.0043  0.1607 -0.3077
  865MOL0     C19296   9.150   6.244   7.566  0.3367  0.1128 -0.0572
  865MOL0     C19297   9.228   6.320   7.522 -0.1645 -0.2702 -0.6601
  865MOL0     C19298   9.146   5.554   7.872 -0.1905 -0.1698  0.2065
  865MOL0     C19299   9.158   5.424   7.914 -0.1717 -0.9779  0.5157
  865MOL0     C19300   9.029   5.346   7.930 -0.1727  0.0606  0.3529
  865MOL0     H19301   9.468   5.104   8.216  0.8972 -0.4454 -1.0169
  865MOL0     H19302   9.517   4.867   8.279 -0.5501 -0.1319 -0.2721
  865MOL0     H19303   9.454   4.534   7.983 -1.8955 -0.9964 -0.1432
  865MOL0     H19304   9.321   4.606   8.068 -0.6433 -0.0681 -1.5976
  865MOL0     H19305   9.407   4.350   8.127 -1.9329  0.1513  0.6060
  865MOL0     H19306   9.535   4.438   8.198  0.5226  0.4393 -1.1875
  865MOL0     H19307   9.378   4.574   8.346  2.3670 -1.7761  2.0023
  865MOL0     H19308   9.241   4.480   8.282  0.1585 -0.8276 -1.2281
  865MOL0     H19309   9.387   4.270   8.363 -0.7195 -0.4484  0.0665
  865MOL0     H19310   9.470   4.394   8.454 -1.4812  1.1914 -0.0169
  865MOL0     H19311   9.243   4.469   8.542 -1.3146 -0.8143 -1.2125
  865MOL0     H19312   9.330   4.332   8.608 -2.5615 -1.0984  0.3833
  865MOL0     H19313   9.108   4.290   8.398  0.5620 -0.2486 -0.0457
  865MOL0     H19314   9.189   4.170   8.489 -0.3997 -0.6504 -2.2673
  865MOL0     H19315   9.077   4.237   8.709 -0.2923 -1.4624 -1.8487
  865MOL0     H19316   8.970   4.185   8.580  0.0972 -0.0095  0.5184
  865MOL0     H19317   9.026   4.488   8.620 -1.5802  1.1691  0.1571
  865MOL0     H19318   8.921   4.416   8.502  2.8037 -0.1801 -1.9315
  865MOL0     H19319   8.870   4.584   8.818 -0.8001  0.1499 -1.1991
  865MOL0     H19320   8.666   4.636   8.948  1.7744 -0.4442  0.2648
  865MOL0     H19321   8.554   4.512   9.004 -1.9925  0.6633 -0.0984
  865MOL0     H19322   8.425   4.668   8.917 -0.0980  0.2553 -0.3387
  865MOL0     H19323   8.508   4.659   8.762  2.9142 -4.3774 -2.1382
  865MOL0     H19324   8.435   4.428   8.716 -0.8953  0.5298  0.2896
  865MOL0     H19325   8.395   4.396   8.884 -0.7121  1.0237  0.0655
  865MOL0     H19326   8.200   4.419   8.770  0.1625 -0.9939  1.1113
  865MOL0     H19327   8.221   4.552   8.877 -0.0795 -3.6595  1.6104
  865MOL0     H19328   8.153   4.664   8.443 -0.4554 -0.9452 -1.2142
  865MOL0     H19329   7.954   4.874   8.335 -0.1800 -0.8327 -1.0509
  865MOL0     H19330   7.845   4.729   8.332  0.9597 -2.7447 -0.3493
  865MOL0     H19331   8.012   4.712   8.308 -1.0598 -1.5132  1.5329
  865MOL0     H19332   7.594   5.110   8.729  1.4479  0.1908 -1.6994
  865MOL0     H19333   7.356   5.195   8.680 -2.4191 -0.4425 -1.5346
  865MOL0     H19334   7.115   5.239   8.623  1.3024 -0.7204  1.2589
  865MOL0     H19335   7.186   5.154   8.478  2.6225 -0.0217  0.8527
  865MOL0     H19336   6.970   5.102   8.394  3.7243  1.2167 -0.3132
  865MOL0     H19337   6.894   5.118   8.556  0.9815 -0.3779  0.6093
  865MOL0     H19338   7.015   5.360   8.419  2.3732 -2.3516  1.0709
  865MOL0     H19339   6.894   5.347   8.558 -2.5799  0.5323 -1.6668
  865MOL0     H19340   6.814   5.263   8.283 -2.7231  0.9795 -0.5794
  865MOL0     H19341   6.772   5.417   8.345 -1.0002 -1.1974  1.0920
  865MOL0     H19342   6.657   5.169   8.475 -0.8686 -0.4336 -3.4652
  865MOL0     H19343   6.647   5.336   8.529 -2.6379 -1.5107  1.3803
  865MOL0     H19344   6.470   5.208   8.365  0.0796 -0.7915 -1.3603
  865MOL0     H19345   6.587   5.265   8.241 -2.3493  1.1378 -0.7730
  865MOL0     H19346   6.542   5.492   8.333  0.0953  0.1736  1.9225
  865MOL0     H19347   6.440   5.426   8.462 -2.7117 -1.4572 -0.4150
  865MOL0     H19348   6.317   5.530   8.294  0.8918  1.4048  0.4109
  865MOL0     H19349   6.280   5.350   8.290  1.5599  0.0737 -0.4041
  865MOL0     H19350   7.226   4.796   8.635 -1.6380  1.0771 -0.3490
  865MOL0     H19351   7.449   4.713   8.680  1.1313  0.2286 -1.6479
  865MOL0     H19352   7.872   4.816   8.833 -3.2985  0.7300 -1.4895
  865MOL0     H19353   8.079   4.697   8.874 -0.7652 -1.7761 -0.2553
  865MOL0     H19354   9.468   4.739   7.892  1.6468  1.5425 -1.5921
  865MOL0     H19355   9.397   4.994   7.817  2.1147  0.4393  0.2123
  865MOL0     H19356   9.492   5.462   7.999  0.7828  2.3898 -1.6018
  865MOL0     H19357   9.454   5.691   7.905 -0.6051  0.1205 -0.7745
  865MOL0     H19358   9.093   5.761   7.701 -1.6814 -4.5030  4.2312
  865MOL0     H19359   9.067   5.857   7.856  2.7725  2.1201  0.4687
  865MOL0     H19360   9.233   5.955   7.616  1.0844 -2.7163 -0.6187
  865MOL0     H19361   9.192   6.038   7.761 -1.2567  0.6455 -0.9948
  865MOL0     H19362   9.056   6.016   7.506  2.3247  0.6357  0.5085
  865MOL0     H19363   8.946   5.992   7.644 -0.4353  0.7307 -1.4548
  865MOL0     H19364   9.008   6.217   7.714  2.5635  0.4248  0.1563
  865MOL0     H19365   8.943   6.209   7.548  0.3941  0.7853 -0.5692
  865MOL0     H19366   9.318   6.364   7.485  0.3219  0.6120  1.4786
  865MOL0     H19367   9.043   5.578   7.847 -0.3900  0.1155  1.2249
  865MOL0     H19368   8.967   5.362   7.842  3.7490  2.8624 -2.2627
  865MOL0     H19369   9.063   5.242   7.934  0.1942  0.2080  1.4208
  865MOL0     H19370   8.976   5.372   8.022 -0.4825  1.5907 -0.2255
  866MOL0     O19371   3.518   2.226   2.195  0.3858 -0.1368  0.6270
  866MOL0     C19372   3.426   2.295   2.144  0.4283 -0.1653 -0.2307
  866MOL0     O19373   3.433   2.356   2.015  0.3807  0.0581 -0.2680
  866MOL0     C19374   3.551   2.394   1.961 -0.1896 -0.0933  0.4489
  866MOL0     C19375   3.625   2.304   1.874 -0.4996 -0.9386 -0.5767
  866MOL0     C19376   3.743   2.347   1.819 -0.4026  0.8999  0.1073
  866MOL0     C19377   3.792   2.475   1.832 -0.2308  0.5024 -0.2193
  866MOL0     O19378   3.910   2.509   1.768 -0.3200  0.0816 -0.5425
  866MOL0     C19379   3.971   2.641   1.784 -0.1698 -0.6481  0.5396
  866MOL0     C19380   3.902   2.741   1.688  0.3529 -0.0297 -0.7652
  866MOL0     C19381   3.966   2.889   1.697  0.5999  0.5029  1.1223
  866MOL0     C19382   4.103   2.902   1.632 -0.1635 -0.0237 -0.2596
  866MOL0     C19383   4.147   3.048   1.635 -0.6400 -0.4388 -0.8240
  866MOL0     C19384   4.279   3.072   1.564 -0.2674  0.2384  0.1255
  866MOL0     C19385   4.289   3.225   1.542 -0.0730 -0.5777  0.1747
  866MOL0     C19386   4.307   3.301   1.670  0.1450 -0.3662  1.1820
  866MOL0     N19387   4.410   3.255   1.765 -0.2209 -0.1519  0.2057
  866MOL0     C19388   4.549   3.280   1.744  0.7779 -0.9293 -0.2245
  866MOL0     C19389   4.611   3.226   1.856  0.1790 -0.0748 -0.3103
  866MOL0     C19390   4.759   3.232   1.891 -0.6009  1.0549 -0.2362
  866MOL0     C19391   4.832   3.151   1.784  0.2505 -0.1548 -0.1942
  866MOL0     C19392   4.975   3.133   1.824 -0.5047  0.5652 -0.8042
  866MOL0     C19393   5.058   3.091   1.700  0.0712 -0.0786  0.8107
  866MOL0     O19394   5.192   3.116   1.744 -0.0081  0.6401  0.3156
  866MOL0     C19395   5.271   3.204   1.669  0.5427  0.5146  0.5424
  866MOL0     C19396   5.267   3.214   1.529  0.0713 -0.5323  0.1868
  866MOL0     C19397   5.333   3.311   1.453 -0.3764 -0.1790  0.0824
  866MOL0     C19398   5.308   3.300   1.300  0.2090 -0.9609  0.2636
  866MOL0     C19399   5.419   3.403   1.512 -0.8155 -1.3255 -0.2558
  866MOL0     C19400   5.501   3.515   1.453  0.4840  0.4063  0.4113
  866MOL0     O19401   5.548   3.504   1.332 -0.6309  0.6510  0.7064
  866MOL0     C19402   5.569   3.606   1.250  0.2550 -0.7521  0.2559
  866MOL0     C19403   5.681   3.602   1.161 -0.5007  0.2771 -0.3092
  866MOL0     C19404   5.693   3.714   1.079  0.0533  0.6262  0.1769
  866MOL0     C19405   5.600   3.821   1.075 -1.0708 -0.9107  0.3758
  866MOL0     O19406   5.603   3.919   0.969  0.5671 -0.6939 -0.9611
  866MOL0     C19407   5.733   3.958   0.918 -0.2680 -0.0432  1.1973
  866MOL0     C19408   5.738   3.887   0.788  0.3693 -0.0223  0.2019
  866MOL0     C19409   5.627   3.911   0.687  1.2245  0.0781  0.2475
  866MOL0     C19410   5.670   3.845   0.554 -0.9449 -0.5794  0.6645
  866MOL0     C19411   5.569   3.882   0.443 -0.4580 -0.4415  0.0658
  866MOL0     C19412   5.450   3.788   0.444 -0.1548 -0.1962 -1.1879
  866MOL0     C19413   5.340   3.833   0.348 -0.4444 -0.0388  0.2343
  866MOL0     C19414   5.379   3.838   0.198  0.7008  0.0191 -0.2172
  866MOL0    Cl19415   5.461   3.990   0.155  0.0298  0.1985 -0.2138
  866MOL0     C19416   5.482   3.804   1.145  0.2273 -0.2315  0.3632
  866MOL0     C19417   5.477   3.701   1.235 -0.3627 -0.6037  0.3879
  866MOL0     O19418   5.530   3.607   1.523 -0.0564  0.4406  0.3995
  866MOL0     C19419   5.429   3.388   1.651  0.0684 -0.0134 -0.4635
  866MOL0     C19420   5.354   3.300   1.736 -0.7066  0.5686  0.7064
  866MOL0     N19421   4.517   3.166   1.937  0.3091 -0.6200  1.2994
  866MOL0     N19422   4.400   3.198   1.887 -0.0184  0.2220  0.6176
  866MOL0     C19423   3.711   2.560   1.913 -0.3139  0.4052 -0.5240
  866MOL0     C19424   3.593   2.520   1.979  0.3613 -0.1038 -0.2935
  866MOL0     C19425   3.291   2.300   2.196  0.3445  0.5705  0.4051
  866MOL0     C19426   3.197   2.380   2.134 -0.2122  0.1089  0.7732
  866MOL0     C19427   3.058   2.370   2.155 -0.1240 -0.3450  0.0757
  866MOL0     C19428   3.023   2.291   2.269  0.5738 -1.2386  0.2063
  866MOL0     O19429   2.883   2.275   2.284  0.7699 -0.1837 -0.8324
  866MOL0     C19430   2.832   2.183   2.379 -0.7429  0.2682 -0.7764
  866MOL0     C19431   2.727   2.098   2.309  0.5282 -0.2206 -0.9330
  866MOL0     C19432   2.614   2.173   2.244 -0.1640 -0.2632  0.1710
  866MOL0     C19433   2.510   2.074   2.181 -0.5762 -0.0107 -0.7891
  866MOL0     C19434   2.428   2.015   2.288 -0.0536 -0.4089  0.2539
  866MOL0     C19435   2.350   1.981   2.374 -0.1450 -0.5452  0.2637
  866MOL0     C19436   3.118   2.231   2.346  0.2970  0.8091 -0.1981
  866MOL0     C19437   3.252   2.244   2.321  0.4968  0.6827  0.3352
  866MOL0     C19438   3.341   2.184   2.418  0.0015 -0.6719  1.1030
  866MOL0     H19439   3.578   2.207   1.859 -2.8206 -0.7010  3.7462
  866MOL0     H19440   3.807   2.277   1.765 -1.3422 -0.8475  1.1541
  866MOL0     H19441   4.077   2.641   1.759 -0.3450 -1.6697 -0.2342
  866MOL0     H19442   3.972   2.671   1.889 -0.5028 -3.5098  1.4364
  866MOL0     H19443   3.922   2.714   1.584  0.3102 -0.3757 -0.6830
  866MOL0     H19444   3.796   2.752   1.711  0.9569  2.7360  1.3954
  866MOL0     H19445   3.898   2.959   1.648 -1.7307 -2.0898  0.4050
  866MOL0     H19446   3.983   2.919   1.801 -0.7257  2.4660  0.8095
  866MOL0     H19447   4.175   2.854   1.699  3.4020  1.2887 -2.8019
  866MOL0     H19448   4.106   2.869   1.528  0.8635 -0.8711  0.0225
  866MOL0     H19449   4.153   3.079   1.740  1.5093 -0.1669 -0.9913
  866MOL0     H19450   4.073   3.115   1.589 -1.3743  0.9812  2.1632
  866MOL0     H19451   4.363   3.036   1.624 -0.5970  0.2026  0.5718
  866MOL0     H19452   4.266   3.015   1.472  0.5502  1.6101 -0.8767
  866MOL0     H19453   4.203   3.262   1.487  0.1228  1.3059  1.0598
  866MOL0     H19454   4.364   3.242   1.465  0.3513 -2.7309  0.0386
  866MOL0     H19455   4.331   3.406   1.650  1.9217 -0.3253  3.1115
  866MOL0     H19456   4.215   3.302   1.730 -0.8031 -4.0168  0.0626
  866MOL0     H19457   4.606   3.321   1.662  0.4428 -0.5815 -0.2848
  866MOL0     H19458   4.772   3.199   1.994  1.0915  5.0380  1.0020
  866MOL0     H19459   4.802   3.332   1.902  0.1869  0.5245  1.9881
  866MOL0     H19460   4.786   3.055   1.759 -0.5248  0.3210 -0.6284
  866MOL0     H19461   4.828   3.214   1.695 -0.1512 -0.2631 -0.2560
  866MOL0     H19462   5.022   3.211   1.886  0.5099 -2.0728  2.0042
  866MOL0     H19463   4.976   3.053   1.899  0.6828  1.4326  0.1552
  866MOL0     H19464   5.043   2.988   1.666  0.4201 -0.9010  2.9833
  866MOL0     H19465   5.032   3.164   1.623  3.5001 -1.5206 -2.0500
  866MOL0     H19466   5.199   3.151   1.474  0.8494  0.1514 -1.6542
  866MOL0     H19467   5.346   3.379   1.234  0.5687 -2.2663 -1.1633
  866MOL0     H19468   5.200   3.300   1.288  0.1398 -0.4765  0.8218
  866MOL0     H19469   5.361   3.211   1.264  3.1006  1.0409 -0.8060
  866MOL0     H19470   5.751   3.520   1.166  0.6652  1.3216  1.4256
  866MOL0     H19471   5.776   3.714   1.008 -0.8554  1.1240 -0.9137
  866MOL0     H19472   5.727   4.064   0.892 -3.2483 -0.4638 -0.3281
  866MOL0     H19473   5.822   3.942   0.979  0.7711  0.7956 -0.0447
  866MOL0     H19474   5.830   3.927   0.745  0.2861 -1.2460 -1.1928
  866MOL0     H19475   5.758   3.781   0.811  1.7767 -0.4100 -2.4339
  866MOL0     H19476   5.610   4.016   0.665 -2.2619 -0.5911 -0.7983
  866MOL0     H19477   5.531   3.870   0.718  1.3675  1.8296  3.3949
  866MOL0     H19478   5.679   3.736   0.565  0.0154 -0.4567  1.1826
  866MOL0     H19479   5.768   3.889   0.533 -1.0151 -0.0983  1.3241
  866MOL0     H19480   5.539   3.987   0.449  0.6137 -0.0524 -0.9273
  866MOL0     H19481   5.620   3.873   0.346 -1.4619 -0.7367 -0.4555
  866MOL0     H19482   5.407   3.792   0.545  1.3263 -0.3137 -0.5231
  866MOL0     H19483   5.472   3.686   0.414  2.2038  0.1508 -0.8705
  866MOL0     H19484   5.314   3.932   0.386  2.2901  0.5564  0.7894
  866MOL0     H19485   5.245   3.780   0.358  0.3870 -1.8194 -0.8222
  866MOL0     H19486   5.290   3.819   0.137  1.2391 -2.4621 -0.3455
  866MOL0     H19487   5.452   3.759   0.180  1.8053  1.2032 -1.1407
  866MOL0     H19488   5.391   3.862   1.135 -1.1505 -2.5279 -1.7070
  866MOL0     H19489   5.395   3.698   1.306 -0.4259  1.2465  0.4523
  866MOL0     H19490   5.473   3.458   1.721 -3.6244 -0.4504  2.6494
  866MOL0     H19491   5.373   3.298   1.842  1.1983  1.0337  0.4120
  866MOL0     H19492   3.754   2.659   1.924  1.3276 -0.1431 -1.6114
  866MOL0     H19493   3.539   2.589   2.044  0.8095 -0.9910  1.0686
  866MOL0     H19494   3.219   2.428   2.039  3.3288 -3.5259 -0.5136
  866MOL0     H19495   2.987   2.413   2.087  0.0730 -3.0690 -2.0427
  866MOL0     H19496   2.909   2.113   2.411 -1.3147 -0.1669 -0.3333
  866MOL0     H19497   2.781   2.237   2.459  1.1223  0.7339  0.1657
  866MOL0     H19498   2.682   2.037   2.388  3.2576 -1.4230 -0.1960
  866MOL0     H19499   2.772   2.032   2.234  0.4550  1.1525 -2.2474
  866MOL0     H19500   2.563   2.242   2.312 -0.5589  0.1651 -0.5489
  866MOL0     H19501   2.665   2.224   2.163  1.7468 -2.2489  0.0263
  866MOL0     H19502   2.567   1.995   2.129 -0.7235 -0.0303 -0.9206
  866MOL0     H19503   2.440   2.134   2.123 -1.5798 -0.1010  0.3020
  866MOL0     H19504   2.271   1.955   2.442 -0.0077 -1.7137  0.0081
  866MOL0     H19505   3.093   2.163   2.427 -2.5063 -1.2405 -2.5578
  866MOL0     H19506   3.397   2.099   2.378  0.5283  0.6791 -1.2197
  866MOL0     H19507   3.409   2.254   2.467 -1.3947  0.6845  1.2097
  866MOL0     H19508   3.284   2.133   2.497 -2.4633  0.3799  0.1185
  867MOL0     O19509   9.338   8.967   8.478  0.0150 -0.1256 -0.1202
  867MOL0     C19510   9.276   8.915   8.381 -0.0127  0.0087 -0.4350
  867MOL0     O19511   9.329   8.833   8.286  0.1923  0.4367  0.4659
  867MOL0     C19512   9.463   8.844   8.269  0.8788 -0.7198  0.2504
  867MOL0     C19513   9.555   8.818   8.371 -0.2105  0.6003  0.1641
  867MOL0     C19514   9.694   8.812   8.344  0.2676  0.6205  0.4022
  867MOL0     C19515   9.739   8.820   8.213  0.0829 -0.1829  0.0805
  867MOL0     O19516   9.866   8.795   8.195  0.6839  0.3710  0.5458
  867MOL0     C19517   9.932   8.862   8.088  0.2230  0.5944  0.0154
  867MOL0     C19518  10.091   8.863   8.118  0.7280  0.1051 -1.0781
  867MOL0     C19519  10.119   8.950   8.244 -0.2693 -0.4535  0.0983
  867MOL0     C19520  10.073   9.104   8.228  1.0773  0.0584  0.0531
  867MOL0     C19521  10.105   9.200   8.343 -0.1659 -0.2596 -0.8585
  867MOL0     C19522  10.026   9.170   8.471 -0.1233 -0.4581  0.4081
  867MOL0     C19523  10.049   9.265   8.588  0.0869 -0.0830 -0.6819
  867MOL0     C19524  10.191   9.271   8.643  1.6878 -0.5824  0.1245
  867MOL0     N19525  10.242   9.400   8.695  0.1590 -0.5013 -0.2325
  867MOL0     C19526  10.274   9.517   8.627 -0.1157 -0.4032  0.2683
  867MOL0     C19527  10.350   9.587   8.717 -0.0733 -0.2296  0.6288
  867MOL0     C19528  10.424   9.713   8.668 -0.0241  0.1424  0.2401
  867MOL0     C19529  10.389   9.844   8.745 -0.2622 -0.4417 -0.7063
  867MOL0     C19530  10.444   9.976   8.693  0.4215 -0.0929 -0.3559
  867MOL0     C19531  10.590   9.980   8.672 -0.4237  0.4869 -0.9636
  867MOL0     O19532  10.623  10.117   8.628 -0.0643  0.7009 -0.8316
  867MOL0     C19533  10.754  10.144   8.620 -0.1592 -0.3631  0.9564
  867MOL0     C19534  10.828  10.187   8.731  0.2246  0.4068 -0.3938
  867MOL0     C19535  10.968  10.214   8.727  0.6993 -0.1904 -0.4836
  867MOL0     C19536  11.021  10.260   8.852 -0.5249 -0.5059 -0.2610
  867MOL0     C19537  11.026  10.217   8.597  0.3874 -0.4090  0.1615
  867MOL0     C19538  11.163  10.262   8.596  0.3567 -0.4770 -0.5961
  867MOL0     O19539  11.196  10.385   8.646  0.1887 -0.6765  0.2527
  867MOL0     C19540  11.316  10.453   8.642  0.9023  0.8100 -0.7960
  867MOL0     C19541  11.417  10.430   8.552 -0.5257 -0.6176 -0.4597
  867MOL0     C19542  11.540  10.505   8.588  0.4699 -0.4198  0.8835
  867MOL0     C19543  11.557  10.588   8.702 -0.5009  0.4066 -0.5859
  867MOL0     O19544  11.664  10.663   8.750 -0.5706  0.6987  0.4722
  867MOL0     C19545  11.796  10.617   8.691  0.2822 -0.4615 -0.7755
  867MOL0     C19546  11.911  10.682   8.762 -0.5397  0.9526 -0.6322
  867MOL0     C19547  12.046  10.626   8.714 -0.2834  0.3728  0.5171
  867MOL0     C19548  12.157  10.728   8.697 -0.2782 -0.6010 -0.7712
  867MOL0     C19549  12.251  10.734   8.811 -0.1695  1.0662  0.6127
  867MOL0     C19550  12.382  10.804   8.769 -0.3382 -0.0653 -0.0609
  867MOL0     C19551  12.479  10.829   8.885 -0.2120  0.1616  0.4678
  867MOL0     C19552  12.609  10.884   8.820  0.8135 -0.1176 -0.3988
  867MOL0    Cl19553  12.748  10.915   8.940  0.0559 -0.0524 -0.3329
  867MOL0     C19554  11.446  10.609   8.783 -0.3102  0.4794 -0.0101
  867MOL0     C19555  11.330  10.535   8.754  0.2944 -0.5490 -0.2500
  867MOL0     O19556  11.239  10.187   8.543  0.3875 -0.4159 -0.5179
  867MOL0     C19557  10.958  10.177   8.476  0.5155  1.5431  0.2655
  867MOL0     C19558  10.826  10.130   8.498  0.7167  0.0146 -0.7989
  867MOL0     N19559  10.365   9.521   8.840  0.6975 -0.3675  0.0818
  867MOL0     N19560  10.299   9.409   8.821  0.2303  0.0271  0.0121
  867MOL0     C19561   9.652   8.833   8.102  0.8907  0.4991 -0.8025
  867MOL0     C19562   9.512   8.836   8.130 -1.5663 -0.6360 -0.3204
  867MOL0     C19563   9.135   8.940   8.365  0.0396 -0.6798 -0.2683
  867MOL0     C19564   9.062   8.977   8.480 -0.5215  0.0235  0.3824
  867MOL0     C19565   8.916   8.976   8.474 -1.0159 -0.3547 -0.4090
  867MOL0     C19566   8.846   8.961   8.360 -0.0812  0.6925  1.1498
  867MOL0     O19567   8.710   8.970   8.339  0.8919  0.3133 -0.5405
  867MOL0     C19568   8.631   9.042   8.434  0.1722 -0.7450  0.2453
  867MOL0     C19569   8.523   9.114   8.346  0.7011 -0.1986  1.0150
  867MOL0     C19570   8.577   9.228   8.274 -0.9667 -0.5522  0.4695
  867MOL0     C19571   8.473   9.307   8.202  0.1884  0.0708 -0.5024
  867MOL0     C19572   8.530   9.449   8.201  0.4746 -0.2694 -0.0286
  867MOL0     C19573   8.573   9.556   8.181 -0.0830 -0.4721 -0.2030
  867MOL0     C19574   8.924   8.943   8.245 -0.0114  0.3977 -0.2180
  867MOL0     C19575   9.062   8.925   8.241  0.4828 -0.4498  0.1757
  867MOL0     C19576   9.140   8.917   8.115 -0.9390  1.1296  0.3760
  867MOL0     H19577   9.525   8.807   8.475  1.7664  0.4676  0.7596
  867MOL0     H19578   9.769   8.784   8.417  0.7079 -1.7629 -0.8581
  867MOL0     H19579   9.910   8.965   8.060 -0.2257  0.7114  0.7664
  867MOL0     H19580   9.920   8.810   7.992 -0.2590  1.1350 -0.2250
  867MOL0     H19581  10.111   8.759   8.143  0.8043  0.2239 -0.6328
  867MOL0     H19582  10.150   8.887   8.029  0.3848 -3.2367 -2.3294
  867MOL0     H19583  10.058   8.917   8.329  1.7854  0.3133  1.9650
  867MOL0     H19584  10.224   8.960   8.271 -0.7788  1.3046  1.6687
  867MOL0     H19585  10.116   9.128   8.131  0.1179 -3.2030 -1.3324
  867MOL0     H19586   9.966   9.110   8.206  0.6742 -1.7886  1.2374
  867MOL0     H19587  10.084   9.301   8.307  0.1285 -0.8794 -2.9161
  867MOL0     H19588  10.214   9.187   8.351 -0.3607 -1.4052  0.3686
  867MOL0     H19589   9.921   9.172   8.443  0.0681  0.9381 -0.3370
  867MOL0     H19590  10.041   9.067   8.505 -1.4464 -1.6180 -2.2401
  867MOL0     H19591   9.983   9.250   8.673 -1.9584  1.8688 -1.8185
  867MOL0     H19592  10.024   9.368   8.558 -1.9159 -0.4566 -0.3921
  867MOL0     H19593  10.191   9.189   8.715  0.7067 -1.0538 -0.3969
  867MOL0     H19594  10.268   9.255   8.567  1.9339 -3.8992  0.8880
  867MOL0     H19595  10.248   9.554   8.528 -1.3433 -0.8242  0.4229
  867MOL0     H19596  10.409   9.738   8.563  0.8020  2.5562  0.6351
  867MOL0     H19597  10.532   9.694   8.674  0.3743  1.1828 -2.3923
  867MOL0     H19598  10.281   9.851   8.733 -0.2145 -0.3234 -1.1019
  867MOL0     H19599  10.408   9.833   8.852 -1.1810  0.5390 -0.4204
  867MOL0     H19600  10.397   9.996   8.597 -1.3344 -1.9718  0.0400
  867MOL0     H19601  10.409  10.055   8.761  1.0710 -0.2651  0.1907
  867MOL0     H19602  10.638   9.964   8.769  0.1598  3.5792 -0.6441
  867MOL0     H19603  10.623   9.900   8.605  2.2558 -0.6970  1.5489
  867MOL0     H19604  10.774  10.193   8.825  0.2085 -1.3535 -0.2503
  867MOL0     H19605  11.130  10.264   8.851 -0.4993 -0.9492  0.3045
  867MOL0     H19606  10.998  10.186   8.929 -0.9963  0.9248  1.0324
  867MOL0     H19607  10.975  10.355   8.882  0.9149  0.2734 -0.4469
  867MOL0     H19608  11.413  10.358   8.471 -1.1301 -1.8876  0.6532
  867MOL0     H19609  11.621  10.503   8.515  0.0322 -4.7376  0.2219
  867MOL0     H19610  11.812  10.511   8.713 -0.3337 -0.6376 -1.1638
  867MOL0     H19611  11.800  10.639   8.584  1.6424  1.2928 -0.4112
  867MOL0     H19612  11.915  10.788   8.737  0.8473  0.5046 -2.5457
  867MOL0     H19613  11.916  10.673   8.871  0.3091  0.1958 -0.7209
  867MOL0     H19614  12.019  10.600   8.611  1.5781 -0.0305  0.1097
  867MOL0     H19615  12.077  10.535   8.766 -1.1402 -2.6222 -3.7121
  867MOL0     H19616  12.123  10.828   8.670 -0.5866  0.1391  2.0195
  867MOL0     H19617  12.223  10.695   8.617  1.3999 -0.9177  0.6770
  867MOL0     H19618  12.201  10.780   8.896 -2.2260  0.6138 -0.2972
  867MOL0     H19619  12.272  10.633   8.848  1.9523  0.7208 -1.2728
  867MOL0     H19620  12.351  10.902   8.731  1.0544  0.1944 -0.5914
  867MOL0     H19621  12.443  10.762   8.689 -0.6534  1.5876 -1.2242
  867MOL0     H19622  12.498  10.735   8.937  3.6941  0.8385  0.6147
  867MOL0     H19623  12.433  10.892   8.962 -1.4465  0.0653 -0.1648
  867MOL0     H19624  12.567  10.977   8.780  0.5658 -1.4664 -3.5942
  867MOL0     H19625  12.640  10.809   8.746  0.6401 -2.1078  1.4441
  867MOL0     H19626  11.463  10.685   8.860 -2.4458  0.6997  0.2909
  867MOL0     H19627  11.231  10.551   8.796  0.8153  0.9901  0.4801
  867MOL0     H19628  11.009  10.189   8.381 -1.2483  0.4880 -0.8600
  867MOL0     H19629  10.770  10.102   8.409 -1.4964 -0.7480  0.7435
  867MOL0     H19630   9.692   8.829   8.001  1.2307  0.5872 -0.6725
  867MOL0     H19631   9.436   8.836   8.052 -0.7760 -2.6492 -1.1654
  867MOL0     H19632   9.117   8.980   8.574  2.5643 -1.3950 -1.2135
  867MOL0     H19633   8.854   8.994   8.561 -1.2598  0.4265 -0.7363
  867MOL0     H19634   8.587   8.971   8.504 -0.0664 -1.0846 -0.2450
  867MOL0     H19635   8.688   9.114   8.494 -0.8637 -0.0426  0.4008
  867MOL0     H19636   8.442   9.154   8.408 -1.1200  1.9699 -2.4255
  867MOL0     H19637   8.468   9.042   8.285 -1.9465  1.4559  1.3006
  867MOL0     H19638   8.634   9.290   8.344  1.8900 -1.3838 -0.9591
  867MOL0     H19639   8.654   9.193   8.204 -0.5274  0.0999  0.6186
  867MOL0     H19640   8.382   9.293   8.261 -0.3096  0.7778 -1.0923
  867MOL0     H19641   8.454   9.270   8.101  1.0555  0.5385 -0.8492
  867MOL0     H19642   8.606   9.657   8.169 -3.1725  0.7755  0.8156
  867MOL0     H19643   8.878   8.933   8.148 -0.2564 -2.9817  0.1289
  867MOL0     H19644   9.171   8.814   8.098  1.9846  1.5351  2.4822
  867MOL0     H19645   9.082   8.941   8.026 -0.9281  1.7734  0.5335
  867MOL0     H19646   9.237   8.967   8.114  0.6018 -1.6676  0.6602
  868MOL0     O19647   5.776   1.038   8.173  0.0105 -1.0914 -0.1839
  868MOL0     C19648   5.832   0.992   8.276 -0.2243 -0.2067 -0.3995
  868MOL0     O19649   5.960   1.031   8.313 -0.3199 -0.1920  0.1997
  868MOL0     C19650   6.014   1.141   8.251 -0.3393 -0.5026  0.6331
  868MOL0     C19651   5.956   1.265   8.228 -0.2359  0.3098 -0.4442
  868MOL0     C19652   6.030   1.369   8.162  0.6622 -0.0943 -0.2967
  868MOL0     C19653   6.169   1.352   8.140  1.1262  0.4506 -0.2150
  868MOL0     O19654   6.254   1.445   8.084 -0.6089  0.1615 -0.6046
  868MOL0     C19655   6.234   1.567   8.157 -0.5729 -0.1462 -0.5242
  868MOL0     C19656   6.348   1.661   8.139 -0.5184  0.0441 -0.3081
  868MOL0     C19657   6.484   1.635   8.195  0.0416 -0.2814  0.6248
  868MOL0     C19658   6.579   1.751   8.167 -0.2456 -0.0531 -0.3033
  868MOL0     C19659   6.734   1.713   8.205 -0.4982  0.4179  0.7909
  868MOL0     C19660   6.824   1.836   8.181 -0.5733  0.4290 -0.4974
  868MOL0     C19661   6.930   1.861   8.293  0.5205  0.3157 -0.0481
  868MOL0     C19662   7.018   1.986   8.269 -0.3366 -0.5075 -0.4298
  868MOL0     N19663   6.946   2.116   8.299 -0.9859 -0.6567  0.2540
  868MOL0     C19664   6.871   2.185   8.202  0.1240 -1.0537  0.4247
  868MOL0     C19665   6.846   2.304   8.267 -0.8076 -0.4811  0.3720
  868MOL0     C19666   6.757   2.406   8.216  0.3540 -0.5122 -0.1122
  868MOL0     C19667   6.825   2.544   8.203 -0.4874  0.1769 -0.6436
  868MOL0     C19668   6.932   2.542   8.087 -0.0956 -0.7813  0.1772
  868MOL0     C19669   7.008   2.675   8.085  0.5950 -0.2249 -0.4813
  868MOL0     O19670   7.093   2.691   7.973 -0.4863  0.5097  0.2921
  868MOL0     C19671   7.044   2.756   7.856 -0.6074  0.0167 -0.2823
  868MOL0     C19672   7.142   2.791   7.760  0.2362 -0.5378 -0.9098
  868MOL0     C19673   7.116   2.852   7.640 -0.0810 -0.3819 -0.2679
  868MOL0     C19674   7.243   2.876   7.551  0.5489  0.4010  0.4350
  868MOL0     C19675   6.978   2.896   7.618  0.2175  0.6326  0.4375
  868MOL0     C19676   6.936   2.976   7.501  0.5392  0.0762 -0.5727
  868MOL0     O19677   7.037   3.029   7.421  0.3970 -0.1990 -0.2940
  868MOL0     C19678   7.001   3.128   7.330 -0.2450 -0.5026 -0.9109
  868MOL0     C19679   6.926   3.096   7.217 -0.0061  0.2735 -1.1003
  868MOL0     C19680   6.912   3.195   7.124 -0.2203 -0.1727  0.7507
  868MOL0     C19681   6.973   3.319   7.141 -0.1229  0.1822  0.4842
  868MOL0     O19682   6.986   3.416   7.050 -0.6626  0.3061  0.4604
  868MOL0     C19683   6.941   3.385   6.916 -0.2576 -0.0481  0.2180
  868MOL0     C19684   6.960   3.522   6.842  0.0906 -0.5580  0.7544
  868MOL0     C19685   7.113   3.554   6.807  0.9083  0.0734  0.1340
  868MOL0     C19686   7.166   3.460   6.699  0.3452  1.1533 -0.1740
  868MOL0     C19687   7.316   3.483   6.672  0.2291  0.4114 -0.0168
  868MOL0     C19688   7.365   3.401   6.553 -0.4007  0.2000  0.3268
  868MOL0     C19689   7.520   3.417   6.539 -0.2414  0.1168 -0.2643
  868MOL0     C19690   7.610   3.291   6.575  0.2180 -0.8896 -0.1312
  868MOL0    Cl19691   7.792   3.344   6.563 -0.2877 -0.0258 -0.0283
  868MOL0     C19692   7.045   3.342   7.254 -0.5284 -0.6324  1.3412
  868MOL0     C19693   7.061   3.250   7.354 -0.1629 -1.1832 -0.6058
  868MOL0     O19694   6.813   3.001   7.484 -0.0377 -0.2093  0.9739
  868MOL0     C19695   6.878   2.858   7.711  0.0638 -0.1361  0.0075
  868MOL0     C19696   6.909   2.799   7.832 -0.0685 -0.8230  0.4380
  868MOL0     N19697   6.910   2.307   8.389  0.3753  0.1945  0.2137
  868MOL0     N19698   6.976   2.195   8.407 -0.1605 -0.1944  0.1311
  868MOL0     C19699   6.223   1.227   8.169  0.2734 -0.1689  0.3903
  868MOL0     C19700   6.153   1.123   8.223  0.2656  0.6542  0.0636
  868MOL0     C19701   5.776   0.880   8.352  0.4260  0.6788  0.2852
  868MOL0     C19702   5.743   0.892   8.487  0.6595 -0.4538 -0.3143
  868MOL0     C19703   5.688   0.775   8.549  0.6390 -0.2910 -0.2372
  868MOL0     C19704   5.667   0.656   8.494  0.0264 -0.0226  1.1010
  868MOL0     O19705   5.616   0.559   8.575  0.5584 -0.3399 -0.2596
  868MOL0     C19706   5.587   0.429   8.515 -0.0330  0.1136 -0.5860
  868MOL0     C19707   5.486   0.340   8.603  0.2338 -0.4998  1.2202
  868MOL0     C19708   5.449   0.217   8.537  0.8571  0.1982  0.4515
  868MOL0     C19709   5.397   0.106   8.641  1.0284 -0.2226  0.5737
  868MOL0     C19710   5.255   0.134   8.653  1.4814  0.0618 -1.0098
  868MOL0     C19711   5.131   0.140   8.655 -0.0445  0.1125  0.2488
  868MOL0     C19712   5.702   0.642   8.369  0.3973  0.5752 -0.4582
  868MOL0     C19713   5.763   0.746   8.290 -0.2070 -0.7878  0.6921
  868MOL0     C19714   5.797   0.712   8.150  0.2548 -0.5420  0.1397
  868MOL0     H19715   5.849   1.280   8.242 -0.3744  1.0420 -2.0706
  868MOL0     H19716   5.985   1.464   8.133  1.4192  0.6877  0.9905
  868MOL0     H19717   6.209   1.562   8.264 -3.8992  2.2705 -1.0479
  868MOL0     H19718   6.142   1.616   8.124 -2.8226 -2.1483  2.2550
  868MOL0     H19719   6.376   1.684   8.036  0.4583 -1.6305 -0.4321
  868MOL0     H19720   6.317   1.749   8.197  2.6590  0.0997  1.5300
  868MOL0     H19721   6.483   1.613   8.302  2.3522 -4.2518 -0.0054
  868MOL0     H19722   6.522   1.539   8.161 -0.7946 -0.5641  0.4452
  868MOL0     H19723   6.575   1.775   8.060 -0.8735 -1.9313 -0.7392
  868MOL0     H19724   6.546   1.829   8.236 -0.2867  0.5555 -1.0066
  868MOL0     H19725   6.763   1.626   8.146 -0.9210  0.3341  0.7056
  868MOL0     H19726   6.734   1.688   8.311 -2.8145 -2.8240  0.1601
  868MOL0     H19727   6.881   1.809   8.091  0.4949  0.1883  0.2226
  868MOL0     H19728   6.773   1.932   8.170 -0.7514  0.4776  0.6017
  868MOL0     H19729   7.003   1.780   8.307  2.0307  1.9036  2.0102
  868MOL0     H19730   6.875   1.865   8.387  0.3392  1.9054 -0.2068
  868MOL0     H19731   7.107   1.977   8.333  0.1795 -0.1564 -1.0838
  868MOL0     H19732   7.044   1.980   8.163 -0.4394 -0.0394 -0.4858
  868MOL0     H19733   6.845   2.161   8.100  0.6185  1.3466 -0.3380
  868MOL0     H19734   6.671   2.416   8.283  1.7080 -1.6175  1.9010
  868MOL0     H19735   6.718   2.376   8.119  0.3768  0.0618 -0.3007
  868MOL0     H19736   6.753   2.618   8.167 -0.3180  0.5318 -0.2530
  868MOL0     H19737   6.874   2.571   8.297  0.3457 -2.7371 -0.1306
  868MOL0     H19738   7.002   2.458   8.094  0.2032 -0.3987  2.7347
  868MOL0     H19739   6.889   2.536   7.987  1.9983 -0.1357 -0.8381
  868MOL0     H19740   6.933   2.753   8.091  0.6016 -0.2788  0.3761
  868MOL0     H19741   7.069   2.688   8.175 -2.3946  1.0976  1.5319
  868MOL0     H19742   7.245   2.774   7.790  0.7514  0.6206 -1.9539
  868MOL0     H19743   7.217   2.875   7.444 -0.2334  1.5146  0.5958
  868MOL0     H19744   7.312   2.794   7.573 -0.4447 -0.8612 -0.9490
  868MOL0     H19745   7.292   2.970   7.578 -0.4537  0.4682  2.1388
  868MOL0     H19746   6.884   2.996   7.216 -3.2559  1.4213  1.8589
  868MOL0     H19747   6.859   3.176   7.031 -0.3001 -1.1437  0.9855
  868MOL0     H19748   6.981   3.302   6.857 -0.5391  1.5673 -2.4673
  868MOL0     H19749   6.833   3.365   6.917 -0.2477 -0.1239 -0.0639
  868MOL0     H19750   6.917   3.512   6.742  1.3197  0.8683  0.0335
  868MOL0     H19751   6.923   3.602   6.907 -2.0481 -2.9676  2.7193
  868MOL0     H19752   7.183   3.537   6.890  0.5875 -1.4472  0.1279
  868MOL0     H19753   7.125   3.657   6.771 -1.0031 -0.1862 -1.4328
  868MOL0     H19754   7.105   3.478   6.611  0.3587 -3.0460 -1.2548
  868MOL0     H19755   7.158   3.355   6.730  1.4130  2.1575  4.3392
  868MOL0     H19756   7.331   3.587   6.641  1.2018 -0.0090 -1.0723
  868MOL0     H19757   7.374   3.462   6.762 -0.1552  0.7807  0.3164
  868MOL0     H19758   7.315   3.451   6.469 -0.1430  3.3627  1.9011
  868MOL0     H19759   7.335   3.296   6.562 -3.0849  0.9229  0.4968
  868MOL0     H19760   7.549   3.504   6.598 -0.8553 -0.6531  1.2206
  868MOL0     H19761   7.540   3.451   6.437  0.5656 -0.7328 -0.3984
  868MOL0     H19762   7.594   3.207   6.506  0.0530 -0.4968 -0.5787
  868MOL0     H19763   7.579   3.262   6.676  1.5339 -0.7082  0.3351
  868MOL0     H19764   7.094   3.439   7.251 -1.8287  0.0263 -0.4625
  868MOL0     H19765   7.110   3.274   7.448  1.4712  0.2586 -1.7575
  868MOL0     H19766   6.780   2.905   7.699 -0.2278 -0.4332  1.0600
  868MOL0     H19767   6.830   2.774   7.902  1.7177 -0.8962  2.5058
  868MOL0     H19768   6.329   1.217   8.149  0.3159  1.6508 -0.5580
  868MOL0     H19769   6.192   1.025   8.249 -0.6892 -0.7441 -3.2303
  868MOL0     H19770   5.751   0.976   8.555 -2.2636  0.6016 -1.1328
  868MOL0     H19771   5.648   0.779   8.650  1.6529 -1.3954  0.2303
  868MOL0     H19772   5.548   0.452   8.416  0.6590  0.5387 -0.7650
  868MOL0     H19773   5.678   0.369   8.505 -0.4760 -1.4365  2.9675
  868MOL0     H19774   5.395   0.399   8.621 -0.7085 -1.5950  0.1884
  868MOL0     H19775   5.530   0.321   8.702 -1.5052 -2.0122  1.7596
  868MOL0     H19776   5.385   0.242   8.452  0.2071  1.7207  1.3406
  868MOL0     H19777   5.543   0.180   8.495  0.5028  0.1107 -0.2909
  868MOL0     H19778   5.447   0.112   8.738 -1.8470 -0.1573  2.1846
  868MOL0     H19779   5.419   0.016   8.584  0.5592  0.6286 -1.0382
  868MOL0     H19780   5.025   0.145   8.638  0.0227 -1.5172 -0.9205
  868MOL0     H19781   5.698   0.546   8.317  0.5718  0.3893 -0.1343
  868MOL0     H19782   5.705   0.696   8.093  0.2629 -1.2449  0.3151
  868MOL0     H19783   5.853   0.791   8.099  0.1027  0.5720  1.6378
  868MOL0     H19784   5.854   0.619   8.158  1.1772  0.0052  0.0013
  869MOL0     O19785   4.258   9.529   8.805 -0.5492  0.3665 -0.3963
  869MOL0     C19786   4.240   9.633   8.868 -0.2411 -0.1489 -1.1654
  869MOL0     O19787   4.130   9.718   8.856  0.1901  0.5186 -0.1232
  869MOL0     C19788   4.033   9.676   8.765 -0.4930 -0.3354 -0.0974
  869MOL0     C19789   3.922   9.607   8.826 -1.0047  0.0188  0.1829
  869MOL0     C19790   3.816   9.578   8.751  0.1452  0.1985 -0.5886
  869MOL0     C19791   3.815   9.590   8.613 -0.3921  0.5657 -0.4471
  869MOL0     O19792   3.718   9.530   8.527  0.0520 -0.0738 -0.4177
  869MOL0     C19793   3.653   9.414   8.577 -0.6895 -0.2161  0.3053
  869MOL0     C19794   3.580   9.336   8.455 -0.1520 -0.1360 -0.0249
  869MOL0     C19795   3.457   9.409   8.394 -0.4252  0.2047  0.1159
  869MOL0     C19796   3.338   9.421   8.495  0.2677  0.0212 -1.0168
  869MOL0     C19797   3.199   9.418   8.432 -0.5834  0.1442  0.6512
  869MOL0     C19798   3.141   9.551   8.379  0.0329 -0.4484 -0.0781
  869MOL0     C19799   3.182   9.586   8.232 -0.0978 -0.8366 -0.0481
  869MOL0     C19800   3.166   9.475   8.119  0.6640 -0.7605  0.8942
  869MOL0     N19801   3.026   9.436   8.099  0.1624 -0.1182 -0.5682
  869MOL0     C19802   2.918   9.520   8.106 -0.3771  0.4143  0.5984
  869MOL0     C19803   2.802   9.449   8.112 -0.9472  0.5826  0.5164
  869MOL0     C19804   2.656   9.499   8.123 -0.5689  0.4225 -0.0906
  869MOL0     C19805   2.650   9.612   8.226  0.1084 -0.3831  0.3373
  869MOL0     C19806   2.503   9.678   8.225  0.2940 -0.1466  0.8367
  869MOL0     C19807   2.480   9.757   8.361 -0.4941 -0.2639 -0.2105
  869MOL0     O19808   2.551   9.881   8.375 -1.0539  0.3252  0.7815
  869MOL0     C19809   2.664   9.887   8.459  0.6241 -0.2034 -0.0679
  869MOL0     C19810   2.704  10.013   8.477 -0.0930 -0.7919 -0.5125
  869MOL0     C19811   2.808  10.048   8.580  0.4534  1.0592  0.8846
  869MOL0     C19812   2.858  10.195   8.592 -0.1613  0.1224 -0.2584
  869MOL0     C19813   2.881   9.936   8.634 -0.8549  0.3456  0.7088
  869MOL0     C19814   2.996   9.945   8.724  0.3671  0.0735  0.0264
  869MOL0     O19815   3.016   9.833   8.802  0.2603  0.4336  0.4795
  869MOL0     C19816   3.131   9.813   8.867 -1.1789  0.1054 -0.2062
  869MOL0     C19817   3.193   9.907   8.950 -0.2139  0.1717 -0.2358
  869MOL0     C19818   3.305   9.871   9.025 -0.0173 -0.2636 -0.0831
  869MOL0     C19819   3.362   9.746   9.019  0.4981 -0.2623  0.9271
  869MOL0     O19820   3.488   9.726   9.070  0.6365  0.3019 -0.0201
  869MOL0     C19821   3.556   9.604   9.070 -0.8784  0.9599 -0.2478
  869MOL0     C19822   3.701   9.615   9.119 -1.0323 -0.4186  0.4293
  869MOL0     C19823   3.729   9.685   9.256  0.2140  0.8389  0.6859
  869MOL0     C19824   3.875   9.657   9.291 -0.1763 -0.3344 -0.1286
  869MOL0     C19825   3.902   9.698   9.439  0.7443 -0.3794  0.4772
  869MOL0     C19826   4.049   9.675   9.486 -0.6092 -0.6159 -0.1773
  869MOL0     C19827   4.079   9.741   9.619  0.0056 -0.4144  1.5297
  869MOL0     C19828   4.231   9.746   9.654 -0.3927 -0.1782  0.3716
  869MOL0    Cl19829   4.295   9.898   9.568 -0.1918  0.4787 -0.5343
  869MOL0     C19830   3.296   9.644   8.939 -0.9642 -0.0062 -0.1330
  869MOL0     C19831   3.180   9.680   8.868  0.1792  0.4799 -0.6412
  869MOL0     O19832   3.065  10.046   8.738  0.2607  0.1954  0.5536
  869MOL0     C19833   2.831   9.803   8.606 -0.1357 -0.9120 -0.3238
  869MOL0     C19834   2.730   9.778   8.523  0.3555 -0.4621  0.3491
  869MOL0     N19835   2.842   9.316   8.106 -0.0869  0.1930 -0.3983
  869MOL0     N19836   2.975   9.309   8.099 -0.5385 -0.2376 -0.1205
  869MOL0     C19837   3.925   9.655   8.551 -0.0608  0.5890 -0.3719
  869MOL0     C19838   4.028   9.710   8.634  0.6116 -1.1807 -0.3105
  869MOL0     C19839   4.342   9.670   8.966 -0.1168 -0.1158  0.2246
  869MOL0     C19840   4.461   9.598   8.974 -0.4376  0.3587  0.3888
  869MOL0     C19841   4.559   9.619   9.066  0.4376 -1.1040 -0.6063
  869MOL0     C19842   4.561   9.725   9.161 -0.6170  1.2110  0.4270
  869MOL0     O19843   4.666   9.770   9.238  0.4846 -0.4251  0.0197
  869MOL0     C19844   4.775   9.674   9.261 -0.0543  0.1401 -0.8670
  869MOL0     C19845   4.893   9.759   9.323 -0.1502 -0.5598  0.0059
  869MOL0     C19846   4.992   9.795   9.213 -0.6021  0.0043 -0.0201
  869MOL0     C19847   5.056   9.931   9.243  0.3624 -1.6464 -0.3794
  869MOL0     C19848   5.164   9.921   9.349  0.2052  0.4041 -0.1812
  869MOL0     C19849   5.233   9.925   9.453  0.6754 -0.0015  0.1457
  869MOL0     C19850   4.443   9.801   9.150  0.0709 -0.1290  0.4195
  869MOL0     C19851   4.333   9.775   9.063  0.0627  0.5412 -1.1566
  869MOL0     C19852   4.215   9.871   9.079 -0.1391 -0.2287 -0.3097
  869MOL0     H19853   3.927   9.579   8.931  2.1167 -0.8014 -0.0660
  869MOL0     H19854   3.729   9.535   8.800  2.1273 -0.3773  2.7126
  869MOL0     H19855   3.573   9.425   8.651 -2.2087 -0.8980 -1.1541
  869MOL0     H19856   3.721   9.333   8.603 -1.0153 -1.5331 -2.5757
  869MOL0     H19857   3.658   9.334   8.378 -1.2811  1.2672 -1.2820
  869MOL0     H19858   3.558   9.231   8.474 -0.9509  0.3028  1.6204
  869MOL0     H19859   3.479   9.507   8.351 -4.3250  0.2125 -2.3841
  869MOL0     H19860   3.424   9.344   8.313  1.8567 -0.3007 -0.4561
  869MOL0     H19861   3.343   9.334   8.561 -0.3595  0.3660 -0.5061
  869MOL0     H19862   3.359   9.511   8.555 -0.0010  0.6747 -1.8790
  869MOL0     H19863   3.131   9.413   8.518 -1.8588 -1.0022 -0.3769
  869MOL0     H19864   3.176   9.341   8.358 -1.8741  1.1788 -0.0636
  869MOL0     H19865   3.033   9.538   8.379 -0.2270  1.3545  1.0222
  869MOL0     H19866   3.158   9.638   8.443  1.2057 -1.0955  0.5236
  869MOL0     H19867   3.285   9.622   8.225 -0.7441  0.8423 -1.7229
  869MOL0     H19868   3.126   9.676   8.205  2.5184  0.6153 -0.9571
  869MOL0     H19869   3.192   9.520   8.023  0.9170 -2.2864  0.2250
  869MOL0     H19870   3.232   9.390   8.138  2.8964  0.8705  0.8690
  869MOL0     H19871   2.922   9.628   8.102 -1.3776  0.4721  0.8577
  869MOL0     H19872   2.588   9.418   8.152 -0.1551  0.2837  0.5123
  869MOL0     H19873   2.629   9.543   8.027 -1.0386 -0.3432 -0.3164
  869MOL0     H19874   2.657   9.572   8.328 -1.8717  3.7488  2.3794
  869MOL0     H19875   2.726   9.690   8.213 -1.4972  0.9437 -1.6883
  869MOL0     H19876   2.480   9.738   8.136 -0.0053  1.3180  1.8830
  869MOL0     H19877   2.430   9.596   8.218  0.7602 -0.4825 -0.5410
  869MOL0     H19878   2.381   9.802   8.368 -0.3952 -0.2096  1.1953
  869MOL0     H19879   2.497   9.688   8.444 -0.5981 -1.7525 -1.3962
  869MOL0     H19880   2.654  10.091   8.420 -2.3255 -1.5475  0.3290
  869MOL0     H19881   2.873  10.215   8.698  1.2455  0.7269 -0.5500
  869MOL0     H19882   2.793  10.275   8.554 -2.8726 -1.4860  0.7584
  869MOL0     H19883   2.954  10.204   8.540 -0.5094  3.1404 -0.5972
  869MOL0     H19884   3.149  10.005   8.937  1.9335  1.3081  0.6000
  869MOL0     H19885   3.352   9.953   9.078 -1.1283  2.0513 -2.4335
  869MOL0     H19886   3.514   9.528   9.136 -1.7483  0.9939 -0.7336
  869MOL0     H19887   3.560   9.571   8.966 -1.0562 -0.6311  0.2251
  869MOL0     H19888   3.742   9.514   9.130 -0.3125 -0.0270  1.5593
  869MOL0     H19889   3.753   9.671   9.040 -1.1507 -0.5994  0.2217
  869MOL0     H19890   3.658   9.629   9.317 -0.4828 -0.2279 -1.0155
  869MOL0     H19891   3.703   9.791   9.264 -2.3145  0.3894 -0.3869
  869MOL0     H19892   3.944   9.725   9.240  0.9691 -0.6355  0.9644
  869MOL0     H19893   3.890   9.551   9.271 -2.6572 -0.4516 -1.8202
  869MOL0     H19894   3.888   9.806   9.435 -2.2537 -0.7026 -0.2031
  869MOL0     H19895   3.829   9.646   9.502 -1.0543 -0.4830 -1.5517
  869MOL0     H19896   4.111   9.718   9.407 -0.5196 -0.4386 -0.0118
  869MOL0     H19897   4.074   9.569   9.492 -3.2845 -1.2436  4.4317
  869MOL0     H19898   4.025   9.688   9.698 -2.0606  0.9408  1.0810
  869MOL0     H19899   4.031   9.837   9.639 -1.2812 -1.1203  1.9443
  869MOL0     H19900   4.282   9.651   9.634  0.4998  0.6828 -1.7906
  869MOL0     H19901   4.242   9.753   9.763  2.3069 -1.4508  0.2677
  869MOL0     H19902   3.338   9.544   8.938  1.5799  0.9515  0.9829
  869MOL0     H19903   3.113   9.610   8.819  1.7607 -0.0514 -2.1452
  869MOL0     H19904   2.874   9.714   8.651  1.6610 -0.8039 -1.6710
  869MOL0     H19905   2.700   9.675   8.509  0.9189 -0.2646 -3.2853
  869MOL0     H19906   3.949   9.666   8.445  3.8145 -0.6749  0.2053
  869MOL0     H19907   4.110   9.772   8.598 -1.3888 -0.1518 -3.4371
  869MOL0     H19908   4.473   9.522   8.898 -0.4787  2.8920 -2.3174
  869MOL0     H19909   4.642   9.551   9.084  0.5723 -0.0550  4.0300
  869MOL0     H19910   4.742   9.599   9.334 -0.7725  0.0537 -1.2784
  869MOL0     H19911   4.806   9.616   9.174 -0.0170 -1.6230  0.2587
  869MOL0     H19912   4.942   9.707   9.405  1.4983  2.5204  1.1144
  869MOL0     H19913   4.850   9.852   9.362 -0.6265 -0.4689 -0.7002
  869MOL0     H19914   5.069   9.719   9.202 -1.5018 -0.8540 -0.5650
  869MOL0     H19915   4.939   9.801   9.117 -0.0254 -1.3304 -0.4315
  869MOL0     H19916   4.980   9.997   9.285  1.0142  0.4915 -2.3561
  869MOL0     H19917   5.092   9.985   9.155  3.1256 -2.3790  0.2034
  869MOL0     H19918   5.299   9.912   9.536 -2.1596  0.8631  2.7306
  869MOL0     H19919   4.438   9.884   9.219 -0.5431  0.2453 -0.0668
  869MOL0     H19920   4.208   9.932   8.988  0.8223 -0.5346 -0.6058
  869MOL0     H19921   4.124   9.816   9.101 -0.1667 -0.0906 -0.0845
  869MOL0     H19922   4.230   9.937   9.164  1.5859  0.7545 -1.3055
  870MOL0     O19923   5.387   4.855   9.964  0.3274 -0.4635 -0.4066
  870MOL0     C19924   5.360   4.738  10.002  0.4264 -0.5890  0.5005
  870MOL0     O19925   5.440   4.629   9.967 -0.4168 -0.0038  0.5358
  870MOL0     C19926   5.562   4.646   9.904  1.0401 -0.7339 -0.1395
  870MOL0     C19927   5.646   4.741   9.963  0.0761 -0.3147  0.0266
  870MOL0     C19928   5.766   4.771   9.901 -0.8251  0.6134  0.1705
  870MOL0     C19929   5.802   4.701   9.783 -0.5957  1.2750  0.4705
  870MOL0     O19930   5.918   4.735   9.720 -0.5452  0.1759 -0.1682
  870MOL0     C19931   6.031   4.640   9.744  0.0435 -0.4801 -0.4025
  870MOL0     C19932   6.131   4.664   9.633  0.2947  1.0441  0.4716
  870MOL0     C19933   6.256   4.573   9.668  0.3261 -0.1790 -0.0368
  870MOL0     C19934   6.378   4.652   9.609 -0.1960  0.1825  0.3005
  870MOL0     C19935   6.512   4.576   9.646  0.7573  0.7169  0.4564
  870MOL0     C19936   6.540   4.548   9.797 -0.7565  0.3473 -0.0718
  870MOL0     C19937   6.689   4.499   9.823  0.5124  0.3057 -0.1256
  870MOL0     C19938   6.771   4.632   9.826 -0.5269  0.6008 -0.0202
  870MOL0     N19939   6.918   4.604   9.835  0.2367  0.0388 -0.0002
  870MOL0     C19940   7.002   4.550   9.747  0.1930 -0.4454  0.5462
  870MOL0     C19941   7.120   4.546   9.810 -0.4525  0.6156 -1.3865
  870MOL0     C19942   7.238   4.481   9.742 -0.0727  0.2083 -0.4194
  870MOL0     C19943   7.332   4.411   9.843 -0.2861 -0.0543 -0.4539
  870MOL0     C19944   7.468   4.363   9.785 -0.6810  0.7986  0.1728
  870MOL0     C19945   7.567   4.303   9.881  0.4606 -0.1336 -0.0812
  870MOL0     O19946   7.667   4.215   9.823  1.3572 -0.4198  0.5010
  870MOL0     C19947   7.773   4.184   9.901  0.6278  0.1219 -0.0164
  870MOL0     C19948   7.872   4.277   9.925 -0.4653 -0.6294 -0.4221
  870MOL0     C19949   7.981   4.234   9.996 -0.4688  0.5299  0.1587
  870MOL0     C19950   8.096   4.329  10.020 -0.3818 -0.8799  0.8968
  870MOL0     C19951   7.995   4.100  10.043  0.0758 -0.4758 -0.2546
  870MOL0     C19952   8.118   4.037  10.110 -0.2309 -0.3264 -0.0278
  870MOL0     O19953   8.129   3.904  10.092 -0.4024  0.3850  0.9860
  870MOL0     C19954   8.231   3.840  10.168 -0.1265 -0.1967  0.1676
  870MOL0     C19955   8.362   3.845  10.128 -0.6543 -1.0199  0.3873
  870MOL0     C19956   8.462   3.806  10.218  0.2567  0.5624  0.2291
  870MOL0     C19957   8.439   3.742  10.337  0.3908  0.1325 -0.3749
  870MOL0     O19958   8.541   3.680  10.402  0.0090 -0.0315 -0.9353
  870MOL0     C19959   8.542   3.682  10.544 -0.6638  0.2426  0.0604
  870MOL0     C19960   8.674   3.659  10.613  0.1747 -0.8666  0.0555
  870MOL0     C19961   8.746   3.527  10.581  1.0934 -0.8606  0.4112
  870MOL0     C19962   8.650   3.408  10.574 -0.4578 -0.1701  0.4394
  870MOL0     C19963   8.731   3.278  10.552  0.4410 -0.2838 -0.6923
  870MOL0     C19964   8.633   3.158  10.553  0.6045  0.2178  0.0382
  870MOL0     C19965   8.704   3.027  10.545  0.1994  0.4938  0.3416
  870MOL0     C19966   8.589   2.914  10.537  0.7723  0.1499 -0.5536
  870MOL0    Cl19967   8.531   2.884  10.699 -0.3127  0.1049 -0.0007
  870MOL0     C19968   8.304   3.736  10.373 -0.6580 -0.8381  0.6155
  870MOL0     C19969   8.204   3.788  10.295  0.8731  0.7638 -0.0504
  870MOL0     O19970   8.207   4.107  10.153 -1.0219 -0.0306  0.0616
  870MOL0     C19971   7.884   4.010  10.029 -0.3704  0.4667  0.2852
  870MOL0     C19972   7.770   4.055   9.960 -0.2320 -0.2142 -0.1118
  870MOL0     N19973   7.111   4.602   9.940  0.0313  0.0094 -0.2501
  870MOL0     N19974   6.981   4.623   9.950  0.1714  0.5610 -0.0208
  870MOL0     C19975   5.730   4.593   9.732  0.3977 -0.0872 -0.0831
  870MOL0     C19976   5.605   4.571   9.788  0.2132 -0.8748 -1.2331
  870MOL0     C19977   5.237   4.710  10.088 -0.6452 -0.2350 -0.9447
  870MOL0     C19978   5.226   4.574  10.136 -0.6146 -1.5533 -0.8533
  870MOL0     C19979   5.133   4.539  10.234 -0.6164 -0.3167 -0.2457
  870MOL0     C19980   5.037   4.631  10.276  0.1548 -0.0178 -1.3004
  870MOL0     O19981   4.954   4.594  10.377 -0.0756 -0.0578  0.4126
  870MOL0     C19982   4.819   4.600  10.346  0.1341  0.8561  0.1926
  870MOL0     C19983   4.775   4.473  10.268 -0.7197 -0.0006  0.0413
  870MOL0     C19984   4.633   4.432  10.304 -0.4355  0.4573  0.0687
  870MOL0     C19985   4.531   4.546  10.293  0.0798  0.9111 -0.3565
  870MOL0     C19986   4.509   4.563  10.147  0.0286 -0.3588  0.0092
  870MOL0     C19987   4.493   4.570  10.020  0.6142  0.9017 -0.3669
  870MOL0     C19988   5.033   4.752  10.220  0.2215  0.6002  0.4326
  870MOL0     C19989   5.129   4.797  10.122  0.6860  0.6424 -1.2074
  870MOL0     C19990   5.122   4.942  10.081 -0.0572 -0.8430  0.4102
  870MOL0     H19991   5.611   4.797  10.049  3.0359  1.6409  0.0825
  870MOL0     H19992   5.839   4.846   9.930 -2.4883  2.7245 -0.8167
  870MOL0     H19993   5.995   4.537   9.740  1.3364 -1.0128  0.9798
  870MOL0     H19994   6.068   4.665   9.844 -0.5882 -1.5225  0.1049
  870MOL0     H19995   6.096   4.631   9.535 -0.3043  1.8501  0.4042
  870MOL0     H19996   6.156   4.770   9.630 -1.8306  1.6304  1.7508
  870MOL0     H19997   6.275   4.548   9.772  2.1571  0.1598 -0.2468
  870MOL0     H19998   6.239   4.484   9.608 -1.6090 -1.0661  1.7314
  870MOL0     H19999   6.385   4.666   9.501  0.2875  0.4274  0.3632
  870MOL0     H20000   6.378   4.754   9.648 -1.9796  0.9280 -1.4340
  870MOL0     H20001   6.587   4.645   9.606 -1.0192  0.3166 -4.1727
  870MOL0     H20002   6.508   4.481   9.592 -1.6722 -0.2519  2.2115
  870MOL0     H20003   6.544   4.642   9.853  1.4219 -1.7870  3.7652
  870MOL0     H20004   6.466   4.485   9.846  1.3601 -1.6119  0.7524
  870MOL0     H20005   6.713   4.436   9.737  1.2117 -0.0575  0.3292
  870MOL0     H20006   6.714   4.445   9.915 -0.4920 -0.2989 -0.1952
  870MOL0     H20007   6.749   4.691   9.736 -0.7997  2.2320  1.0751
  870MOL0     H20008   6.745   4.693   9.913 -4.6985  2.1143 -2.0358
  870MOL0     H20009   6.975   4.518   9.646  3.5183  0.5807 -0.7802
  870MOL0     H20010   7.291   4.552   9.678  3.5149 -3.7761 -2.3780
  870MOL0     H20011   7.188   4.414   9.671  0.6245  0.5562 -1.2613
  870MOL0     H20012   7.343   4.471   9.933  0.2298 -0.3323 -0.3283
  870MOL0     H20013   7.264   4.327   9.865 -1.2377  1.2169  1.7659
  870MOL0     H20014   7.461   4.296   9.698  0.2567 -2.1537  2.2208
  870MOL0     H20015   7.520   4.454   9.752  0.0289  1.1739  2.2058
  870MOL0     H20016   7.605   4.382   9.946 -0.3262  0.7614 -0.6772
  870MOL0     H20017   7.514   4.236   9.949  0.1220  0.2648  0.0517
  870MOL0     H20018   7.869   4.372   9.873  1.8574 -0.7098 -0.7930
  870MOL0     H20019   8.080   4.419   9.959  1.0157 -2.1369 -1.4887
  870MOL0     H20020   8.187   4.283   9.980 -0.5679  1.1131 -2.2235
  870MOL0     H20021   8.108   4.363  10.123 -0.4714  0.6627  0.4267
  870MOL0     H20022   8.391   3.882  10.031  1.7855 -2.8063  0.3550
  870MOL0     H20023   8.565   3.809  10.184 -0.0760 -0.0370 -0.8638
  870MOL0     H20024   8.517   3.784  10.572  1.4877  0.9700 -0.4889
  870MOL0     H20025   8.469   3.613  10.586  1.0053 -1.6512  0.0122
  870MOL0     H20026   8.734   3.746  10.586 -2.0951  0.5248 -0.7792
  870MOL0     H20027   8.642   3.646  10.717  0.0003 -1.7182 -0.0920
  870MOL0     H20028   8.830   3.511  10.648  0.9893  2.3175  1.4674
  870MOL0     H20029   8.783   3.542  10.480  0.8589 -1.0890  0.2899
  870MOL0     H20030   8.583   3.412  10.487 -0.0496 -0.7236  0.0984
  870MOL0     H20031   8.591   3.403  10.666 -3.0280  0.1997 -1.0803
  870MOL0     H20032   8.779   3.291  10.455 -2.3862  1.6392 -1.9693
  870MOL0     H20033   8.808   3.258  10.627  1.2669 -0.9075 -1.6936
  870MOL0     H20034   8.567   3.155  10.465  1.0482  0.4806 -0.3083
  870MOL0     H20035   8.567   3.169  10.639 -1.9185  1.8803 -1.9315
  870MOL0     H20036   8.775   3.008  10.626  0.5874  0.9358  0.1092
  870MOL0     H20037   8.769   3.024  10.457  0.0347 -3.3786  0.1661
  870MOL0     H20038   8.644   2.832  10.491  1.4371 -0.0560  0.5489
  870MOL0     H20039   8.504   2.930  10.471 -1.0504 -2.1900  1.0860
  870MOL0     H20040   8.278   3.695  10.470 -0.7079  3.3915  2.6039
  870MOL0     H20041   8.099   3.787  10.325  0.5645 -1.8964 -0.9168
  870MOL0     H20042   7.885   3.913  10.076  0.6287  0.5680  0.4974
  870MOL0     H20043   7.682   3.994   9.942  0.9835 -1.7040 -1.3458
  870MOL0     H20044   5.766   4.540   9.645  2.0400  0.5211  0.2035
  870MOL0     H20045   5.537   4.501   9.740 -1.2782  0.6583 -1.4473
  870MOL0     H20046   5.300   4.498  10.112 -1.7064 -2.6923 -0.7099
  870MOL0     H20047   5.151   4.449  10.292  3.1497 -1.3849 -2.7448
  870MOL0     H20048   4.765   4.600  10.441  2.1047  0.5339  1.3735
  870MOL0     H20049   4.801   4.694  10.294  0.5118 -0.4522 -2.5096
  870MOL0     H20050   4.836   4.388  10.301 -2.5494 -1.5009 -0.2586
  870MOL0     H20051   4.780   4.482  10.159 -0.3104  0.0541  0.0622
  870MOL0     H20052   4.607   4.350  10.237  0.9080  1.0641 -1.2502
  870MOL0     H20053   4.632   4.392  10.406 -0.4514 -0.9162 -0.4586
  870MOL0     H20054   4.571   4.634  10.344  3.7640 -1.8889  2.1225
  870MOL0     H20055   4.443   4.506  10.343  0.5447  0.8997  0.4654
  870MOL0     H20056   4.478   4.577   9.915  2.3060  0.2101 -0.6915
  870MOL0     H20057   4.967   4.828  10.261  0.2795  0.6644  0.4077
  870MOL0     H20058   5.045   5.004  10.128  1.0563 -0.1166  1.3290
  870MOL0     H20059   5.214   4.997  10.101 -2.2809  3.5145 -0.0753
  870MOL0     H20060   5.112   4.949   9.972  1.7573 -2.5091  0.0797
  871MOL0     O20061   7.513   3.620   9.884  0.2539  0.7748 -0.3134
  871MOL0     C20062   7.533   3.738   9.862  0.2299  0.1209 -0.4701
  871MOL0     O20063   7.648   3.790   9.843  0.4340  0.8194  0.1094
  871MOL0     C20064   7.767   3.716   9.858 -0.1874  0.0314  0.1697
  871MOL0     C20065   7.803   3.691   9.994  0.3143 -0.6487  0.4723
  871MOL0     C20066   7.929   3.632  10.020  0.5846  0.4721  0.4406
  871MOL0     C20067   8.012   3.600   9.913  0.1885 -0.0189 -0.1813
  871MOL0     O20068   8.131   3.546   9.941  0.7427  0.8529  0.1811
  871MOL0     C20069   8.242   3.602   9.869 -0.0223 -0.5112  0.5305
  871MOL0     C20070   8.336   3.498   9.817  0.0655 -1.3251 -0.7286
  871MOL0     C20071   8.266   3.384   9.741 -0.1630 -0.3809 -0.1721
  871MOL0     C20072   8.367   3.258   9.746  0.6150 -0.5776 -0.4312
  871MOL0     C20073   8.282   3.153   9.670 -0.5906 -0.0951  0.0998
  871MOL0     C20074   8.335   3.012   9.686 -0.3320  0.8251  0.9167
  871MOL0     C20075   8.249   2.899   9.629 -0.0565 -0.1384 -0.5444
  871MOL0     C20076   8.187   2.927   9.486  0.5493 -0.2885 -0.8467
  871MOL0     N20077   8.086   3.040   9.475 -0.6986 -0.2143 -0.7519
  871MOL0     C20078   7.984   3.044   9.558  0.3294  0.1277 -0.7323
  871MOL0     C20079   7.929   3.165   9.537 -0.2548 -0.7170  0.2847
  871MOL0     C20080   7.817   3.231   9.615 -0.2768 -0.1432  0.8191
  871MOL0     C20081   7.851   3.279   9.755 -0.0397  0.0555 -0.4569
  871MOL0     C20082   7.741   3.364   9.817 -0.0663  0.9335 -0.5714
  871MOL0     C20083   7.600   3.298   9.812  0.5154  0.7520 -0.3151
  871MOL0     O20084   7.619   3.177   9.891 -0.7915 -0.2341 -0.5020
  871MOL0     C20085   7.514   3.109   9.947  0.9232 -0.3823 -0.0875
  871MOL0     C20086   7.383   3.145   9.921 -0.2298 -0.2236  0.3088
  871MOL0     C20087   7.278   3.080   9.981  0.4321  0.4928 -0.6511
  871MOL0     C20088   7.137   3.126   9.951  0.4542  0.2892  0.0406
  871MOL0     C20089   7.302   2.964  10.065  0.8327 -0.7387  0.0943
  871MOL0     C20090   7.194   2.893  10.141 -0.0802 -1.1620  0.4899
  871MOL0     O20091   7.101   2.963  10.218  0.3134 -0.5401  0.1552
  871MOL0     C20092   7.019   2.884  10.296 -0.1161 -0.0224 -0.0446
  871MOL0     C20093   7.034   2.868  10.440 -0.7688  0.2359 -0.1742
  871MOL0     C20094   6.937   2.801  10.519 -0.4783 -0.8828 -0.1977
  871MOL0     C20095   6.835   2.739  10.452  0.2797 -0.4427 -0.3789
  871MOL0     O20096   6.739   2.671  10.518  1.1873  0.9833 -0.4623
  871MOL0     C20097   6.739   2.651  10.661  0.0032 -0.8272  0.2909
  871MOL0     C20098   6.644   2.540  10.700 -0.1952  0.3260 -0.2642
  871MOL0     C20099   6.492   2.563  10.676 -0.8048 -0.7481 -0.3502
  871MOL0     C20100   6.410   2.435  10.694 -0.2706 -0.5797  0.3169
  871MOL0     C20101   6.262   2.453  10.691  0.6384  0.2106  0.3435
  871MOL0     C20102   6.221   2.490  10.829 -0.1465  0.2602 -0.0972
  871MOL0     C20103   6.092   2.570  10.833 -0.6104 -0.6616 -0.0040
  871MOL0     C20104   6.040   2.600  10.974 -0.0447  0.5812  0.1010
  871MOL0    Cl20105   5.972   2.439  11.040  0.0870  0.2627  0.0945
  871MOL0     C20106   6.818   2.751  10.307 -0.6411  0.4235  0.7979
  871MOL0     C20107   6.917   2.819  10.227  1.0915 -0.3942  0.0924
  871MOL0     O20108   7.197   2.772  10.120 -0.4370 -0.4048  0.1394
  871MOL0     C20109   7.436   2.920  10.081  0.1462 -0.3474  0.5569
  871MOL0     C20110   7.536   2.992  10.014 -0.8212 -0.6366 -0.4555
  871MOL0     N20111   7.988   3.225   9.426 -0.0376 -0.4973  0.0047
  871MOL0     N20112   8.094   3.148   9.391  0.3913  0.0182 -0.2399
  871MOL0     C20113   7.973   3.620   9.774  0.2254  1.5236  0.3027
  871MOL0     C20114   7.854   3.688   9.749 -0.0364 -0.0492  0.5594
  871MOL0     C20115   7.418   3.832   9.839 -0.0615 -0.0254 -0.2356
  871MOL0     C20116   7.438   3.944   9.757  0.3430 -0.6493  0.0832
  871MOL0     C20117   7.335   4.030   9.713 -0.0913  0.0912  0.5099
  871MOL0     C20118   7.205   4.000   9.753 -0.7983  1.0609 -0.4323
  871MOL0     O20119   7.108   4.087   9.716 -0.1032 -0.1259  0.5077
  871MOL0     C20120   7.056   4.158   9.835  0.4086  0.7725 -0.1910
  871MOL0     C20121   6.908   4.108   9.872 -0.2924  0.7353  0.0740
  871MOL0     C20122   6.800   4.145   9.775 -0.5302  0.8668 -0.6150
  871MOL0     C20123   6.665   4.077   9.821  0.4530  0.2614  0.1782
  871MOL0     C20124   6.543   4.127   9.764  0.1713 -0.9601  0.3988
  871MOL0     C20125   6.440   4.161   9.716  0.2089  0.1285  0.1831
  871MOL0     C20126   7.181   3.887   9.835 -0.4635  0.9497  0.0618
  871MOL0     C20127   7.283   3.802   9.875 -0.8341 -1.1699  0.5645
  871MOL0     C20128   7.252   3.688   9.968  0.1750 -0.2861 -0.6266
  871MOL0     H20129   7.744   3.728  10.077 -1.2200  0.2136 -0.9406
  871MOL0     H20130   7.963   3.620  10.123 -0.1641  0.3521  0.6801
  871MOL0     H20131   8.297   3.670   9.935 -0.1216  2.6461 -2.3840
  871MOL0     H20132   8.209   3.656   9.781  0.6774 -0.0969  0.5190
  871MOL0     H20133   8.415   3.526   9.747  0.0319  2.0534  0.3830
  871MOL0     H20134   8.387   3.451   9.902  0.9483  1.6276  0.5062
  871MOL0     H20135   8.179   3.359   9.801 -0.4626  2.1341  0.5738
  871MOL0     H20136   8.230   3.418   9.643 -1.2327 -1.0482 -0.0191
  871MOL0     H20137   8.466   3.271   9.701  0.5415  0.0006 -0.4237
  871MOL0     H20138   8.384   3.233   9.851 -0.5335 -0.3348 -0.1720
  871MOL0     H20139   8.286   3.179   9.564 -0.7309  2.5821  0.6788
  871MOL0     H20140   8.181   3.148   9.714 -1.2473 -1.9275 -1.4478
  871MOL0     H20141   8.430   3.006   9.633 -0.9763 -1.2268 -0.1112
  871MOL0     H20142   8.362   2.998   9.790  0.8434 -2.1153  0.3047
  871MOL0     H20143   8.176   2.878   9.707  1.1901  0.3452  0.7891
  871MOL0     H20144   8.314   2.812   9.615  2.4231  1.3228  1.1168
  871MOL0     H20145   8.271   2.946   9.419  2.8057 -1.0086  1.6377
  871MOL0     H20146   8.143   2.836   9.444  0.3089 -0.7835  0.4176
  871MOL0     H20147   7.944   2.987   9.641 -0.9451  2.7955  0.6260
  871MOL0     H20148   7.744   3.150   9.620  0.1146 -0.5319  0.3058
  871MOL0     H20149   7.785   3.323   9.565  0.9578 -0.7032 -1.0732
  871MOL0     H20150   7.859   3.189   9.817 -0.2602  0.4098  0.0903
  871MOL0     H20151   7.943   3.337   9.744 -0.0770 -0.2555 -3.0015
  871MOL0     H20152   7.769   3.372   9.922  2.6332  0.2644 -1.1844
  871MOL0     H20153   7.736   3.466   9.776  2.2338  0.9888 -0.8276
  871MOL0     H20154   7.528   3.362   9.865 -1.9195 -2.2912  0.3721
  871MOL0     H20155   7.555   3.265   9.718 -1.2213  4.8778 -1.1463
  871MOL0     H20156   7.369   3.221   9.845 -2.2732 -1.7475 -0.9444
  871MOL0     H20157   7.076   3.039   9.924 -0.2219 -0.0839  2.5658
  871MOL0     H20158   7.121   3.205   9.877 -1.3862  2.7820  2.8433
  871MOL0     H20159   7.081   3.168  10.035  1.9293  1.6343  0.3984
  871MOL0     H20160   7.124   2.911  10.483 -0.4458  3.0423 -3.2575
  871MOL0     H20161   6.941   2.803  10.627  0.4119  0.3102 -0.2325
  871MOL0     H20162   6.834   2.619  10.705 -0.0950  0.1649  1.2551
  871MOL0     H20163   6.703   2.744  10.705 -1.2121 -0.9208 -0.4648
  871MOL0     H20164   6.676   2.457  10.636  1.0740 -0.2731  1.0675
  871MOL0     H20165   6.664   2.524  10.807  1.5770 -1.0644 -0.7468
  871MOL0     H20166   6.475   2.602  10.576 -2.4620 -1.3422 -0.3235
  871MOL0     H20167   6.458   2.633  10.753  1.5444  0.0866  0.0170
  871MOL0     H20168   6.451   2.381  10.780 -0.7130  0.3906  1.1685
  871MOL0     H20169   6.449   2.385  10.604 -5.6379 -1.0625 -2.0915
  871MOL0     H20170   6.227   2.531  10.623 -1.2612 -0.2807  0.6698
  871MOL0     H20171   6.194   2.369  10.670 -3.0558  3.1273 -0.4508
  871MOL0     H20172   6.303   2.544  10.878 -1.6694  1.3425  1.3671
  871MOL0     H20173   6.197   2.402  10.889 -1.4243  1.8435  1.8265
  871MOL0     H20174   6.029   2.512  10.765 -3.2995 -0.0849  1.8690
  871MOL0     H20175   6.098   2.664  10.776 -1.4672 -0.0591  0.8537
  871MOL0     H20176   5.958   2.671  10.960 -1.9734 -1.8806 -2.2093
  871MOL0     H20177   6.112   2.642  11.045 -2.3110  3.2485  0.9753
  871MOL0     H20178   6.729   2.709  10.261 -0.1655 -0.5357  0.7367
  871MOL0     H20179   6.911   2.818  10.119 -1.0310  1.5006  0.1202
  871MOL0     H20180   7.468   2.829  10.131  0.4982 -0.3052  0.4027
  871MOL0     H20181   7.642   2.972  10.027  0.0333  0.7925 -4.0732
  871MOL0     H20182   8.027   3.602   9.682 -0.4868  0.1736  0.1271
  871MOL0     H20183   7.820   3.723   9.652  2.0906  0.6859  0.0476
  871MOL0     H20184   7.537   3.962   9.716  0.0603  0.2001 -0.2552
  871MOL0     H20185   7.360   4.109   9.643  1.5731 -2.9112 -2.5572
  871MOL0     H20186   7.117   4.138   9.923  2.2052  1.6655 -1.1683
  871MOL0     H20187   7.054   4.264   9.809 -2.0723  0.9943  0.6864
  871MOL0     H20188   6.877   4.154   9.967 -0.0913 -0.3146  0.6653
  871MOL0     H20189   6.907   4.001   9.892 -1.6821  0.6098 -0.5912
  871MOL0     H20190   6.786   4.253   9.768 -0.8433  0.9831  1.1809
  871MOL0     H20191   6.838   4.104   9.681  2.0157 -0.7080  0.9697
  871MOL0     H20192   6.658   4.073   9.930  0.1576 -2.4983  0.1325
  871MOL0     H20193   6.669   3.969   9.804 -0.4316  0.2367  0.0800
  871MOL0     H20194   6.345   4.183   9.672 -0.5901 -2.8301  0.2365
  871MOL0     H20195   7.082   3.877   9.878 -1.3067  1.3986 -1.7086
  871MOL0     H20196   7.171   3.714  10.037  0.0910 -0.3339 -0.7064
  871MOL0     H20197   7.227   3.604   9.901 -0.0884  0.6509 -1.7335
  871MOL0     H20198   7.336   3.674  10.036 -0.5405  0.3210  0.4105
  872MOL0     O20199   9.857   6.689   5.742 -0.4242 -0.3915  0.1729
  872MOL0     C20200   9.828   6.640   5.848  0.1864  0.2983 -0.0912
  872MOL0     O20201   9.898   6.542   5.916 -0.6006  1.0755 -0.6537
  872MOL0     C20202   9.983   6.474   5.848 -0.9584  0.7019 -0.2319
  872MOL0     C20203   9.960   6.362   5.771 -1.0616  0.1245  0.4329
  872MOL0     C20204  10.063   6.286   5.709  0.2874 -0.4250  0.0877
  872MOL0     C20205  10.191   6.335   5.730 -0.3150  0.2709  1.0487
  872MOL0     O20206  10.312   6.282   5.685  0.5723 -0.3658 -0.3786
  872MOL0     C20207  10.311   6.140   5.655  0.1236 -0.1678 -0.4134
  872MOL0     C20208  10.467   6.109   5.639 -0.4755 -0.0097 -0.1092
  872MOL0     C20209  10.511   5.974   5.673 -1.3944  1.0524 -0.2121
  872MOL0     C20210  10.665   5.975   5.664 -0.2241 -0.2671  0.3498
  872MOL0     C20211  10.722   5.843   5.699  0.6918  0.0955  0.0126
  872MOL0     C20212  10.875   5.830   5.685 -0.0735  0.2366  0.9174
  872MOL0     C20213  10.948   5.698   5.744  0.3729 -0.0942 -0.3338
  872MOL0     C20214  10.916   5.568   5.661 -0.3573  0.2035 -0.4798
  872MOL0     N20215  10.994   5.454   5.707  0.0498  0.4303  0.6677
  872MOL0     C20216  10.974   5.353   5.802 -0.2951 -0.2712 -0.2081
  872MOL0     C20217  11.071   5.266   5.789  0.8365 -1.0925  0.3620
  872MOL0     C20218  11.096   5.144   5.886 -0.2193 -1.5490 -1.0728
  872MOL0     C20219  11.167   5.036   5.795  0.4279  0.1798 -0.3162
  872MOL0     C20220  11.164   4.887   5.859  1.0303  0.1676 -1.2009
  872MOL0     C20221  11.274   4.873   5.961 -0.3626  0.1559 -0.9014
  872MOL0     O20222  11.395   4.867   5.891 -0.7218  0.0083 -0.2055
  872MOL0     C20223  11.484   4.764   5.914 -0.6778  0.7032  1.0834
  872MOL0     C20224  11.455   4.629   5.952  0.5255  0.4946  0.4930
  872MOL0     C20225  11.565   4.547   5.983 -0.5947  0.7321 -0.0672
  872MOL0     C20226  11.534   4.411   6.042 -0.0673 -0.1319 -0.5600
  872MOL0     C20227  11.700   4.583   5.939  0.5364 -0.8112 -0.6179
  872MOL0     C20228  11.824   4.499   5.974 -1.4981  0.3370 -0.0125
  872MOL0     O20229  11.935   4.568   5.970 -0.5404 -0.1659 -0.8223
  872MOL0     C20230  12.053   4.509   6.017 -0.1096 -0.2492  0.5652
  872MOL0     C20231  12.100   4.394   5.958  0.7840 -0.1127 -0.5463
  872MOL0     C20232  12.206   4.331   6.006  0.4694  0.9651 -0.2769
  872MOL0     C20233  12.279   4.376   6.108 -1.1265 -0.2249 -0.1150
  872MOL0     O20234  12.401   4.315   6.156  0.6626 -0.3958 -0.4723
  872MOL0     C20235  12.398   4.176   6.174 -0.0184 -0.3562 -0.2877
  872MOL0     C20236  12.490   4.155   6.285 -0.2797  0.4854 -0.2947
  872MOL0     C20237  12.629   4.186   6.248  0.1988 -0.1576  0.5617
  872MOL0     C20238  12.735   4.122   6.345  0.6528 -0.4315 -0.0362
  872MOL0     C20239  12.878   4.198   6.333 -0.1770 -0.1002  0.7510
  872MOL0     C20240  12.970   4.132   6.438  0.1380 -0.1938  0.1229
  872MOL0     C20241  13.116   4.157   6.438  0.2675 -0.2775 -0.4753
  872MOL0     C20242  13.174   4.084   6.548  0.4394  0.2828  0.4646
  872MOL0    Cl20243  13.337   4.142   6.574  0.1859  0.3000  0.2625
  872MOL0     C20244  12.238   4.491   6.171 -0.0430 -0.5796 -0.0763
  872MOL0     C20245  12.130   4.564   6.129  0.0710  0.0708 -0.1917
  872MOL0     O20246  11.816   4.381   6.009 -0.2945 -1.5181  0.9053
  872MOL0     C20247  11.723   4.711   5.883  0.1257  0.1648 -0.4817
  872MOL0     C20248  11.615   4.800   5.884 -0.4399 -0.4908  0.6909
  872MOL0     N20249  11.144   5.304   5.678 -0.1636 -0.0243  0.4553
  872MOL0     N20250  11.105   5.416   5.634  0.6166  0.2747 -0.2204
  872MOL0     C20251  10.221   6.446   5.802  0.1079  0.4126 -0.1233
  872MOL0     C20252  10.118   6.517   5.863 -0.2928  0.5757 -0.7177
  872MOL0     C20253   9.700   6.692   5.906 -0.3040 -0.0249 -0.1497
  872MOL0     C20254   9.621   6.602   5.980  0.4108 -0.8305  0.0765
  872MOL0     C20255   9.505   6.648   6.049 -0.3034 -0.8446 -0.6887
  872MOL0     C20256   9.465   6.781   6.042 -0.5163  0.0362 -0.6827
  872MOL0     O20257   9.345   6.821   6.104  0.0141  0.0050  0.5212
  872MOL0     C20258   9.300   6.958   6.088 -0.1288  0.2985 -0.4533
  872MOL0     C20259   9.152   6.961   6.121  0.1990  0.3362  0.4194
  872MOL0     C20260   9.062   6.886   6.005 -0.4779 -0.5233  0.0313
  872MOL0     C20261   8.923   6.854   6.059  0.0074  0.0358  0.0895
  872MOL0     C20262   8.858   6.760   5.958 -0.5893 -0.7570 -0.9436
  872MOL0     C20263   8.812   6.678   5.885 -0.8334  0.6456 -0.0035
  872MOL0     C20264   9.548   6.874   5.982  0.0155 -0.6793  0.5133
  872MOL0     C20265   9.661   6.829   5.909  0.4587 -0.3506  0.1750
  872MOL0     C20266   9.744   6.935   5.846 -0.4775  0.2265 -0.2288
  872MOL0     H20267   9.856   6.335   5.754 -1.0422  0.3554 -0.0613
  872MOL0     H20268  10.049   6.188   5.663 -1.6920  0.5047 -1.4404
  872MOL0     H20269  10.246   6.118   5.570 -0.1481 -0.7685 -0.0542
  872MOL0     H20270  10.266   6.086   5.738 -2.2858  0.8749 -0.9505
  872MOL0     H20271  10.496   6.113   5.533  4.9417 -0.9245  1.0704
  872MOL0     H20272  10.535   6.188   5.672 -1.4236  1.6682 -1.9429
  872MOL0     H20273  10.477   5.938   5.770 -0.7164  0.4680 -0.1813
  872MOL0     H20274  10.471   5.906   5.596 -2.1483  0.8586  0.3400
  872MOL0     H20275  10.689   6.001   5.560  0.2469 -1.4351  0.1512
  872MOL0     H20276  10.709   6.057   5.722  1.3791  1.8903 -3.5292
  872MOL0     H20277  10.668   5.761   5.651 -0.9893  0.4719  1.1544
  872MOL0     H20278  10.695   5.835   5.805 -3.1278  0.0912 -0.8326
  872MOL0     H20279  10.906   5.830   5.580  0.2205  0.1427  1.0026
  872MOL0     H20280  10.917   5.917   5.736 -0.4711  1.1839 -0.3092
  872MOL0     H20281  10.916   5.688   5.848 -2.1163 -2.0219 -1.2069
  872MOL0     H20282  11.056   5.714   5.753  0.5269 -1.9325  2.1821
  872MOL0     H20283  10.811   5.537   5.657  0.2153 -1.9657  0.0202
  872MOL0     H20284  10.932   5.587   5.555  0.2234  1.6729 -0.1611
  872MOL0     H20285  10.891   5.348   5.871 -0.6704 -2.9183 -0.7488
  872MOL0     H20286  11.004   5.107   5.934 -0.1437 -0.3347  0.0841
  872MOL0     H20287  11.163   5.179   5.966 -2.3175  0.8641 -0.2216
  872MOL0     H20288  11.120   5.017   5.698  3.6085 -0.2441 -1.9289
  872MOL0     H20289  11.270   5.067   5.777  0.1938  2.1731  1.3836
  872MOL0     H20290  11.069   4.875   5.913  1.9498 -0.8453  0.2681
  872MOL0     H20291  11.164   4.806   5.786  0.1500 -0.8166 -0.1544
  872MOL0     H20292  11.272   4.958   6.029  1.2519  0.9582 -1.7986
  872MOL0     H20293  11.253   4.777   6.009  2.7142 -1.0905 -1.8138
  872MOL0     H20294  11.353   4.601   5.973  0.1848  1.4507  0.1330
  872MOL0     H20295  11.568   4.327   5.981  1.6461  0.3066 -0.2678
  872MOL0     H20296  11.427   4.395   6.056  0.0636 -1.6859 -1.0945
  872MOL0     H20297  11.576   4.400   6.143 -0.6654  0.8057 -0.1946
  872MOL0     H20298  12.045   4.354   5.873 -0.4696  1.4089 -0.4992
  872MOL0     H20299  12.238   4.245   5.948  0.5256 -0.5621  1.8655
  872MOL0     H20300  12.298   4.139   6.195 -0.0364  0.7043  1.6932
  872MOL0     H20301  12.434   4.119   6.088  0.5304 -2.0566  1.0071
  872MOL0     H20302  12.452   4.217   6.366  2.3659 -0.4057  1.7750
  872MOL0     H20303  12.476   4.053   6.322  0.5313 -0.1617 -1.6993
  872MOL0     H20304  12.637   4.295   6.241  1.5424 -0.2659  0.1576
  872MOL0     H20305  12.639   4.140   6.149  1.0652  0.1621  0.4889
  872MOL0     H20306  12.748   4.015   6.323 -1.7247 -0.5265 -1.2308
  872MOL0     H20307  12.697   4.120   6.448 -2.5519 -1.5548 -1.1271
  872MOL0     H20308  12.930   4.173   6.240 -2.5307 -0.9436 -0.4195
  872MOL0     H20309  12.864   4.306   6.341  0.3479  0.1090 -0.7385
  872MOL0     H20310  12.961   4.027   6.409 -0.5203  0.6328 -3.0085
  872MOL0     H20311  12.922   4.156   6.534 -0.5459  1.0110 -0.4976
  872MOL0     H20312  13.132   4.263   6.460  4.8195 -1.2360  1.9487
  872MOL0     H20313  13.157   4.123   6.343  2.0320 -0.9379  0.4679
  872MOL0     H20314  13.177   3.977   6.527 -1.0566  0.5937 -1.6296
  872MOL0     H20315  13.122   4.116   6.639  1.9532  2.9838  0.5017
  872MOL0     H20316  12.302   4.534   6.247 -0.3167 -0.1315 -0.0991
  872MOL0     H20317  12.098   4.653   6.182  1.3775  0.2525  0.3257
  872MOL0     H20318  11.822   4.747   5.853  0.1559 -0.2361 -0.8758
  872MOL0     H20319  11.630   4.901   5.846  1.8437 -1.6979 -2.0160
  872MOL0     H20320  10.324   6.477   5.816  0.9414 -2.2334  0.1724
  872MOL0     H20321  10.136   6.602   5.928  0.6573 -2.1294  2.8526
  872MOL0     H20322   9.638   6.495   5.992  0.5272 -0.5867  2.5706
  872MOL0     H20323   9.460   6.570   6.110 -1.8643 -1.4657 -2.5475
  872MOL0     H20324   9.356   7.019   6.159  0.5024 -0.2753 -0.4470
  872MOL0     H20325   9.321   7.000   5.989  2.3949 -0.9643 -0.5221
  872MOL0     H20326   9.120   7.066   6.115  1.1664  0.6308  0.2344
  872MOL0     H20327   9.127   6.923   6.220  2.5530  1.0019  1.3320
  872MOL0     H20328   9.069   6.950   5.917 -0.0788  2.9463  2.3999
  872MOL0     H20329   9.124   6.802   5.974  0.1517  0.5570 -1.7521
  872MOL0     H20330   8.868   6.948   6.068  0.3310  0.1098  1.6305
  872MOL0     H20331   8.922   6.808   6.159 -0.4751 -0.9217 -0.3415
  872MOL0     H20332   8.762   6.597   5.836 -2.2651 -0.6646  3.3475
  872MOL0     H20333   9.526   6.980   5.974  2.2354 -0.0840  1.3902
  872MOL0     H20334   9.736   6.934   5.737 -0.4795 -0.1488 -0.2262
  872MOL0     H20335   9.707   7.030   5.885 -1.3652 -0.3827  0.4383
  872MOL0     H20336   9.849   6.926   5.876 -0.5452  0.9554  0.2649
  873MOL0     O20337   5.232   6.902   5.360  0.2519  1.1229  0.3065
  873MOL0     C20338   5.118   6.865   5.366  0.4724 -1.1554 -0.3490
  873MOL0     O20339   5.040   6.890   5.477  0.2307 -0.3971  0.3505
  873MOL0     C20340   5.050   7.012   5.546  0.0702 -0.6562 -0.2003
  873MOL0     C20341   5.116   7.130   5.505  0.2175  0.3074  0.3884
  873MOL0     C20342   5.119   7.240   5.592 -0.0791 -0.2107  0.7171
  873MOL0     C20343   5.049   7.236   5.714 -0.4823  0.2543 -0.0052
  873MOL0     O20344   5.060   7.342   5.798 -0.0179  0.0237 -0.1543
  873MOL0     C20345   4.938   7.404   5.841 -0.0898 -0.2942 -0.0882
  873MOL0     C20346   4.950   7.554   5.869  0.3763  0.1592  0.1923
  873MOL0     C20347   5.060   7.601   5.967  0.0126 -0.1866  0.2244
  873MOL0     C20348   5.061   7.537   6.103  1.0242 -0.1625  0.1484
  873MOL0     C20349   5.180   7.582   6.191  0.0696 -0.8096  0.8179
  873MOL0     C20350   5.176   7.518   6.324  0.2891  0.3587 -0.1749
  873MOL0     C20351   5.308   7.538   6.404  0.3903  0.5283  0.0198
  873MOL0     C20352   5.308   7.470   6.540  0.5145  0.1550 -0.5706
  873MOL0     N20353   5.213   7.513   6.636  0.3267  0.0119 -0.3103
  873MOL0     C20354   5.090   7.466   6.654  0.2130  1.0272 -0.2299
  873MOL0     C20355   5.038   7.530   6.763 -0.1633 -0.0157  0.1882
  873MOL0     C20356   4.902   7.515   6.819 -0.8341 -0.0998 -0.0790
  873MOL0     C20357   4.858   7.634   6.908 -0.9193 -0.3766 -0.4819
  873MOL0     C20358   4.864   7.627   7.062  0.1797  0.1857  0.6351
  873MOL0     C20359   5.003   7.617   7.106 -0.5168  0.5599  0.5681
  873MOL0     O20360   5.024   7.610   7.247  0.7634 -0.6961  0.3709
  873MOL0     C20361   5.154   7.618   7.301  1.2116  0.0507 -0.3937
  873MOL0     C20362   5.273   7.609   7.226  0.8633 -0.0282 -0.3548
  873MOL0     C20363   5.396   7.612   7.275 -0.2520 -0.2159 -0.9006
  873MOL0     C20364   5.510   7.602   7.182 -0.0408  0.5118  0.3287
  873MOL0     C20365   5.408   7.650   7.405  0.0851 -0.7556  0.5262
  873MOL0     C20366   5.542   7.682   7.457 -0.2880  0.7026 -0.6000
  873MOL0     O20367   5.624   7.770   7.403  0.7118 -0.4485 -0.3429
  873MOL0     C20368   5.745   7.780   7.451  0.1741  0.6021  0.0835
  873MOL0     C20369   5.771   7.874   7.551 -0.7525 -1.1020 -0.1793
  873MOL0     C20370   5.901   7.885   7.605  0.1988  0.3422 -0.9500
  873MOL0     C20371   6.010   7.818   7.538 -0.3285  0.1863  0.6349
  873MOL0     O20372   6.134   7.829   7.586 -0.5684  0.1926  0.3319
  873MOL0     C20373   6.192   7.704   7.635  0.4212  0.5895  0.1639
  873MOL0     C20374   6.323   7.742   7.703 -1.3505 -1.3351 -0.4390
  873MOL0     C20375   6.393   7.625   7.776 -0.3639  0.2337 -0.2487
  873MOL0     C20376   6.540   7.643   7.742 -0.6836 -0.3818  0.0272
  873MOL0     C20377   6.624   7.525   7.805 -0.3769  0.9202 -0.0226
  873MOL0     C20378   6.778   7.544   7.791  0.7305  0.5056  0.1713
  873MOL0     C20379   6.860   7.410   7.809 -0.1625 -0.7799 -0.8912
  873MOL0     C20380   7.006   7.435   7.757  0.4596 -0.1781 -0.8850
  873MOL0    Cl20381   7.069   7.554   7.871  0.3863  0.1082 -0.1852
  873MOL0     C20382   5.980   7.733   7.440 -0.6850  0.0266  0.9765
  873MOL0     C20383   5.856   7.718   7.393 -0.1846  0.2179  0.1111
  873MOL0     O20384   5.573   7.612   7.557 -0.1920 -0.3048  0.1165
  873MOL0     C20385   5.297   7.674   7.489  0.1253  1.2961  0.8631
  873MOL0     C20386   5.170   7.644   7.441  0.0591  0.7122 -0.4590
  873MOL0     N20387   5.137   7.599   6.824  0.1797  0.4941  0.1644
  873MOL0     N20388   5.236   7.591   6.740 -0.3861 -0.9038 -0.1098
  873MOL0     C20389   4.978   7.121   5.753 -0.4152 -0.5284  0.0726
  873MOL0     C20390   4.982   7.015   5.666 -1.2895  0.8471  0.5880
  873MOL0     C20391   5.082   6.778   5.256 -0.5000  1.5410  0.7163
  873MOL0     C20392   5.180   6.707   5.180 -0.4281  0.5010  0.3176
  873MOL0     C20393   5.156   6.612   5.085 -0.1320 -0.7375 -0.1358
  873MOL0     C20394   5.026   6.567   5.070  0.6084 -0.6082  0.4350
  873MOL0     O20395   4.983   6.467   4.979  0.2266  0.5495  0.1353
  873MOL0     C20396   5.070   6.389   4.902 -0.5750  0.3118  0.4610
  873MOL0     C20397   5.140   6.290   4.986  0.2059  0.4854 -0.5053
  873MOL0     C20398   5.270   6.227   4.929  0.1206 -0.3035 -1.1595
  873MOL0     C20399   5.376   6.197   5.030  0.1090  0.0973  0.7243
  873MOL0     C20400   5.432   6.311   5.102 -0.6418  0.5613  0.0892
  873MOL0     C20401   5.483   6.396   5.176 -0.2607 -0.1007  0.2611
  873MOL0     C20402   4.927   6.625   5.148  0.6649 -0.1740 -0.2054
  873MOL0     C20403   4.952   6.721   5.232 -0.4466 -0.5675 -1.5250
  873MOL0     C20404   4.833   6.775   5.311  0.4379  0.1362 -0.2901
  873MOL0     H20405   5.174   7.137   5.413 -0.0213  1.9972  0.3388
  873MOL0     H20406   5.185   7.323   5.569 -1.5492  0.3216 -2.0671
  873MOL0     H20407   4.890   7.356   5.927 -0.5295  0.6660  0.2172
  873MOL0     H20408   4.861   7.401   5.764 -0.8392  0.8814  0.5812
  873MOL0     H20409   4.952   7.607   5.774  0.8530  0.1783  0.2080
  873MOL0     H20410   4.854   7.588   5.908  1.2703  1.7809  1.1136
  873MOL0     H20411   5.157   7.586   5.919 -0.5654  1.1502 -1.4465
  873MOL0     H20412   5.041   7.708   5.975 -1.3141 -0.4895  1.6998
  873MOL0     H20413   4.970   7.562   6.158  0.5736  2.3151 -1.5735
  873MOL0     H20414   5.068   7.428   6.089 -1.1225 -0.0117 -3.3629
  873MOL0     H20415   5.165   7.690   6.201  0.5545 -0.7564  1.0038
  873MOL0     H20416   5.273   7.569   6.134 -0.2978 -0.4294  0.1231
  873MOL0     H20417   5.098   7.554   6.392  0.5157  1.8594 -0.6597
  873MOL0     H20418   5.170   7.410   6.311 -0.5026  0.3431  0.2747
  873MOL0     H20419   5.319   7.647   6.410 -1.5190  0.6981  4.2723
  873MOL0     H20420   5.384   7.499   6.336  0.6741  2.7497 -1.0290
  873MOL0     H20421   5.303   7.363   6.520 -0.3714  0.0496  0.1700
  873MOL0     H20422   5.405   7.483   6.589  2.2238 -1.8950 -3.1246
  873MOL0     H20423   5.043   7.393   6.587  2.1801  1.9099 -2.7241
  873MOL0     H20424   4.909   7.426   6.882  1.2512  2.1327  3.1284
  873MOL0     H20425   4.835   7.503   6.733  0.5742  0.4871 -1.3145
  873MOL0     H20426   4.923   7.716   6.877  1.3858 -1.0964  2.0395
  873MOL0     H20427   4.756   7.657   6.874 -3.1696 -1.5978  4.4718
  873MOL0     H20428   4.830   7.721   7.108  2.1786  2.0615 -1.4269
  873MOL0     H20429   4.803   7.548   7.106 -1.7478  1.3032  0.0979
  873MOL0     H20430   5.028   7.523   7.056 -1.5279  1.3018 -1.4403
  873MOL0     H20431   5.056   7.703   7.065 -2.9810  2.7774  1.7721
  873MOL0     H20432   5.255   7.619   7.119 -3.1816 -2.8923 -0.1977
  873MOL0     H20433   5.506   7.676   7.101 -1.4469 -1.8013 -1.8417
  873MOL0     H20434   5.503   7.501   7.141  2.0582 -0.2337  1.6011
  873MOL0     H20435   5.615   7.611   7.213  1.0920  2.7305 -3.4809
  873MOL0     H20436   5.686   7.939   7.571  1.0510  0.9790  1.3193
  873MOL0     H20437   5.934   7.952   7.683 -1.4617 -1.8472  1.8065
  873MOL0     H20438   6.129   7.662   7.714 -0.4700 -0.3969 -1.0374
  873MOL0     H20439   6.205   7.629   7.558  1.9524  2.1808 -1.2146
  873MOL0     H20440   6.392   7.802   7.643 -2.1963  0.9625  0.7985
  873MOL0     H20441   6.302   7.813   7.783 -2.7985  0.6169 -2.4601
  873MOL0     H20442   6.361   7.530   7.732 -0.3934  0.8562 -1.6192
  873MOL0     H20443   6.369   7.608   7.882 -0.4384 -0.8781 -0.4315
  873MOL0     H20444   6.572   7.741   7.777 -1.9062 -0.4163  1.3283
  873MOL0     H20445   6.560   7.648   7.635  1.4371 -5.6817 -0.1399
  873MOL0     H20446   6.606   7.497   7.909 -0.6948  1.6389  0.1182
  873MOL0     H20447   6.590   7.436   7.750  1.4169  0.0100  0.2830
  873MOL0     H20448   6.803   7.613   7.872  0.7960  2.0672 -1.1281
  873MOL0     H20449   6.809   7.592   7.698  3.1753  1.3099  1.3172
  873MOL0     H20450   6.819   7.335   7.740  1.1196  1.0339 -3.8013
  873MOL0     H20451   6.854   7.369   7.911  0.7086  1.8597  0.3014
  873MOL0     H20452   7.021   7.468   7.654 -0.9482  0.8961 -0.7683
  873MOL0     H20453   7.056   7.338   7.759 -1.1134 -1.0457  1.8683
  873MOL0     H20454   6.062   7.671   7.405 -0.0813  2.1224 -1.5826
  873MOL0     H20455   5.843   7.642   7.317 -1.1648 -0.9449  1.3761
  873MOL0     H20456   5.298   7.713   7.590  0.9872  0.2631  1.2842
  873MOL0     H20457   5.081   7.659   7.501 -0.5538  0.9787 -1.4264
  873MOL0     H20458   4.937   7.110   5.853  1.7860 -0.7717  1.0134
  873MOL0     H20459   4.949   6.917   5.699  1.0520 -0.0878  0.3769
  873MOL0     H20460   5.286   6.725   5.197 -0.5991  0.7485  1.1308
  873MOL0     H20461   5.239   6.568   5.030  0.3984 -2.5514  2.0034
  873MOL0     H20462   5.008   6.316   4.849 -1.5444  1.3851  0.0920
  873MOL0     H20463   5.133   6.453   4.840 -2.9128  1.4732 -0.8283
  873MOL0     H20464   5.066   6.212   5.006 -0.9807  0.0411 -5.3236
  873MOL0     H20465   5.173   6.332   5.082 -1.7539  0.3271  0.2758
  873MOL0     H20466   5.230   6.141   4.875 -1.8560 -1.0984  1.3611
  873MOL0     H20467   5.316   6.292   4.854 -0.3899 -0.0459 -1.2559
  873MOL0     H20468   5.454   6.147   4.973 -1.7865  0.9800 -2.9297
  873MOL0     H20469   5.329   6.131   5.103 -1.9356 -0.9413 -1.4203
  873MOL0     H20470   5.537   6.477   5.221  1.7521  0.0334 -2.1507
  873MOL0     H20471   4.824   6.590   5.140 -0.0370  1.2824  1.6762
  873MOL0     H20472   4.831   6.884   5.312 -2.3148  0.1498 -0.1544
  873MOL0     H20473   4.743   6.741   5.257  0.6780 -0.3906 -0.3692
  873MOL0     H20474   4.832   6.737   5.413  1.1524  0.1179 -0.2895
  874MOL0     O20475   1.155   4.506   3.023 -0.0278 -0.0639 -0.3243
  874MOL0     C20476   1.063   4.487   2.945 -0.4992  0.0985 -0.6715
  874MOL0     O20477   0.932   4.521   2.980 -0.1758 -0.6321  0.2694
  874MOL0     C20478   0.903   4.568   3.107 -0.1959 -0.7242 -0.6700
  874MOL0     C20479   0.916   4.704   3.132  0.0073  0.0483  0.0919
  874MOL0     C20480   0.890   4.767   3.255 -0.2494 -0.7640  0.6474
  874MOL0     C20481   0.842   4.688   3.365 -0.9220  1.2279  0.0594
  874MOL0     O20482   0.811   4.736   3.483 -0.3226  0.1768  0.5498
  874MOL0     C20483   0.848   4.870   3.513  0.0971 -0.6842  0.7961
  874MOL0     C20484   0.844   4.886   3.667 -0.1762  0.2110  0.0460
  874MOL0     C20485   0.847   5.033   3.699  0.0286  0.2449  0.8911
  874MOL0     C20486   0.704   5.087   3.702 -0.0101 -1.0579  0.6301
  874MOL0     C20487   0.711   5.241   3.700 -0.2905  0.2100 -0.5332
  874MOL0     C20488   0.749   5.308   3.826 -0.7742  0.1579 -0.1263
  874MOL0     C20489   0.736   5.463   3.817  0.0922 -0.0697 -0.9147
  874MOL0     C20490   0.590   5.518   3.849 -0.3382  0.5602  1.2252
  874MOL0     N20491   0.552   5.504   3.992 -0.7562  0.1614 -0.3428
  874MOL0     C20492   0.617   5.549   4.105 -0.9568 -0.4790 -0.2101
  874MOL0     C20493   0.540   5.510   4.212  1.0292  0.4425  0.2329
  874MOL0     C20494   0.565   5.551   4.354 -0.2648 -0.1968  0.0965
  874MOL0     C20495   0.665   5.670   4.366 -0.5087  0.0235 -0.5082
  874MOL0     C20496   0.708   5.718   4.511  0.3614 -0.1311  0.9246
  874MOL0     C20497   0.780   5.613   4.588 -1.1594 -0.5715  0.3026
  874MOL0     O20498   0.898   5.576   4.525 -0.1005 -0.2612 -0.3387
  874MOL0     C20499   1.013   5.636   4.565  0.1816 -0.1266 -1.0418
  874MOL0     C20500   1.127   5.609   4.484  0.5673  0.7765 -0.8351
  874MOL0     C20501   1.256   5.663   4.517 -0.3595  0.5250  0.2241
  874MOL0     C20502   1.358   5.650   4.416  0.7209  0.2516  0.2280
  874MOL0     C20503   1.277   5.721   4.647 -1.0752 -0.0822  0.1384
  874MOL0     C20504   1.410   5.781   4.687  0.4488 -0.4573  1.0634
  874MOL0     O20505   1.528   5.733   4.624 -0.0118 -0.2921 -0.3533
  874MOL0     C20506   1.651   5.805   4.635 -0.4348  0.3047 -0.7557
  874MOL0     C20507   1.770   5.726   4.636 -0.3661  0.8545 -0.5042
  874MOL0     C20508   1.896   5.786   4.659 -0.2481  0.5722  0.0011
  874MOL0     C20509   1.908   5.924   4.676  1.0113  0.5575 -0.5267
  874MOL0     O20510   2.035   5.970   4.697  0.3531 -0.8346 -0.1624
  874MOL0     C20511   2.052   6.114   4.686  0.2150  0.8469 -0.0805
  874MOL0     C20512   2.014   6.182   4.819 -0.0912 -0.3089 -0.0460
  874MOL0     C20513   2.133   6.212   4.914  0.1244  0.3026 -0.7988
  874MOL0     C20514   2.107   6.311   5.019  0.6844 -1.0286 -0.4294
  874MOL0     C20515   2.232   6.356   5.097  0.0507  0.0717  0.6875
  874MOL0     C20516   2.212   6.503   5.151 -0.5144  0.8133  0.2723
  874MOL0     C20517   2.351   6.552   5.200  0.0930  0.8487 -0.6942
  874MOL0     C20518   2.337   6.701   5.227 -0.0414 -0.6845 -0.3284
  874MOL0    Cl20519   2.218   6.723   5.350  0.3634 -0.3133  0.2242
  874MOL0     C20520   1.798   6.004   4.664  0.0814 -0.6146  0.0632
  874MOL0     C20521   1.669   5.946   4.648  1.0233  1.1238 -0.5108
  874MOL0     O20522   1.409   5.867   4.770  1.1295 -0.6462 -0.3699
  874MOL0     C20523   1.166   5.738   4.722  0.7855 -0.2060 -1.0455
  874MOL0     C20524   1.037   5.697   4.687 -0.3810  0.1721  0.2173
  874MOL0     N20525   0.430   5.440   4.159  1.0296 -0.0201  0.4374
  874MOL0     N20526   0.443   5.444   4.030  0.5525  0.3862  0.1620
  874MOL0     C20527   0.824   4.551   3.343  0.4478 -0.2151  0.3273
  874MOL0     C20528   0.853   4.491   3.215  0.2622 -0.5844 -0.3964
  874MOL0     C20529   1.081   4.431   2.812  0.1220 -0.9114  0.5559
  874MOL0     C20530   0.970   4.425   2.732  0.3993  0.1834  0.1045
  874MOL0     C20531   0.969   4.362   2.604  0.1087 -0.0031 -1.2696
  874MOL0     C20532   1.081   4.303   2.549 -0.6074  0.3193  0.3837
  874MOL0     O20533   1.090   4.248   2.420 -0.2416 -0.1360  0.7705
  874MOL0     C20534   0.976   4.260   2.332 -0.2448 -0.0193 -0.2148
  874MOL0     C20535   1.007   4.207   2.197  0.1323 -0.2476  0.6644
  874MOL0     C20536   1.130   4.257   2.124  0.4827  0.6594  0.2487
  874MOL0     C20537   1.099   4.410   2.096 -0.2471 -0.1811 -0.1371
  874MOL0     C20538   1.208   4.452   2.008  0.3501  0.8225  0.4306
  874MOL0     C20539   1.294   4.501   1.934 -0.1344  0.2862  0.4905
  874MOL0     C20540   1.197   4.320   2.625 -0.4608 -0.6826 -0.8408
  874MOL0     C20541   1.196   4.377   2.756  0.6107  0.9910 -1.0242
  874MOL0     C20542   1.327   4.364   2.830 -0.2508  0.1802 -0.1024
  874MOL0     H20543   0.956   4.777   3.062 -2.1203  1.3392  0.1182
  874MOL0     H20544   0.902   4.875   3.258  0.3773 -0.6998 -1.9440
  874MOL0     H20545   0.768   4.927   3.466  3.1135  1.4273 -2.2999
  874MOL0     H20546   0.949   4.896   3.480 -0.2757  0.2223  0.3346
  874MOL0     H20547   0.759   4.837   3.715 -0.2147 -0.6415 -0.8720
  874MOL0     H20548   0.941   4.841   3.690  0.3434  0.5931 -1.2795
  874MOL0     H20549   0.879   5.038   3.804  2.7193  2.1384  0.0970
  874MOL0     H20550   0.913   5.091   3.634 -1.1690  1.4481  0.7169
  874MOL0     H20551   0.650   5.055   3.612 -2.2844  0.6723  1.2966
  874MOL0     H20552   0.643   5.055   3.787 -1.4996  2.5880  1.1155
  874MOL0     H20553   0.605   5.264   3.691 -1.0862 -2.9655 -0.5422
  874MOL0     H20554   0.764   5.277   3.610 -2.3742 -0.5720 -2.1414
  874MOL0     H20555   0.686   5.275   3.910 -0.0577 -1.8069 -0.2984
  874MOL0     H20556   0.855   5.284   3.834  0.0554  3.2476 -0.7398
  874MOL0     H20557   0.768   5.493   3.717 -0.9487  2.4923 -0.5476
  874MOL0     H20558   0.801   5.514   3.889  1.1706 -1.3486 -0.9336
  874MOL0     H20559   0.584   5.624   3.821  1.1714  0.7314  1.4460
  874MOL0     H20560   0.514   5.470   3.787 -0.4532  1.0393  0.9855
  874MOL0     H20561   0.715   5.595   4.112  0.2918 -2.8970 -0.6274
  874MOL0     H20562   0.604   5.465   4.409 -2.6900  0.8931  3.8666
  874MOL0     H20563   0.476   5.589   4.404 -0.6092  0.1142 -0.7425
  874MOL0     H20564   0.759   5.658   4.310 -1.2005  2.5832 -2.4391
  874MOL0     H20565   0.620   5.749   4.305  0.3133  0.4130 -0.6379
  874MOL0     H20566   0.765   5.811   4.516 -0.4751  0.3399  1.8838
  874MOL0     H20567   0.624   5.751   4.572 -0.3348  1.8652 -0.9945
  874MOL0     H20568   0.781   5.628   4.696 -5.0429  1.3345  0.2481
  874MOL0     H20569   0.703   5.535   4.587 -2.9743  1.0658  2.1775
  874MOL0     H20570   1.107   5.558   4.390 -1.6391 -1.2391  0.6219
  874MOL0     H20571   1.318   5.640   4.315  0.6973 -0.0928  0.2703
  874MOL0     H20572   1.431   5.571   4.437  0.4951 -0.3168 -1.0440
  874MOL0     H20573   1.419   5.740   4.412 -0.7527  1.3382  1.1829
  874MOL0     H20574   1.759   5.618   4.638  0.9340  0.7314  1.0762
  874MOL0     H20575   1.988   5.729   4.661 -0.8207 -0.3595  0.2540
  874MOL0     H20576   2.152   6.140   4.651  0.3358 -2.5187 -2.7539
  874MOL0     H20577   1.980   6.155   4.615 -2.7209 -1.8140  1.1164
  874MOL0     H20578   1.956   6.273   4.800 -1.7314 -1.3548 -0.3018
  874MOL0     H20579   1.941   6.119   4.871 -0.2797 -0.6319 -0.7021
  874MOL0     H20580   2.226   6.232   4.860  1.9031 -0.5342  1.7435
  874MOL0     H20581   2.149   6.117   4.967  0.5454  0.8398  0.0568
  874MOL0     H20582   2.031   6.267   5.084  0.2051 -2.4727 -1.8993
  874MOL0     H20583   2.056   6.400   4.979 -0.6660  0.0017  3.2437
  874MOL0     H20584   2.255   6.281   5.173 -3.0587  0.1000  1.8038
  874MOL0     H20585   2.318   6.363   5.030  0.0057  0.0383  0.6258
  874MOL0     H20586   2.139   6.507   5.233 -0.3569 -0.2055  0.4785
  874MOL0     H20587   2.169   6.551   5.062  1.1451  0.3505 -0.8143
  874MOL0     H20588   2.425   6.528   5.123 -0.9433  0.3240 -1.5652
  874MOL0     H20589   2.371   6.493   5.289 -0.0491  0.6821 -0.7703
  874MOL0     H20590   2.309   6.759   5.139 -0.4325  2.1650  1.5490
  874MOL0     H20591   2.434   6.737   5.262 -1.1313 -1.3798  3.9368
  874MOL0     H20592   1.797   6.112   4.674  3.4103 -0.5584  0.9958
  874MOL0     H20593   1.578   6.000   4.630 -0.2548 -0.9443 -0.6219
  874MOL0     H20594   1.156   5.785   4.819 -1.1080  0.9637 -1.7386
  874MOL0     H20595   0.959   5.736   4.751 -1.2789 -0.8732 -0.2118
  874MOL0     H20596   0.791   4.493   3.429 -1.0007  0.8227  0.5207
  874MOL0     H20597   0.852   4.383   3.212  1.8051 -0.7003  1.3278
  874MOL0     H20598   0.869   4.455   2.756  0.6669  1.3906 -0.2279
  874MOL0     H20599   0.874   4.367   2.551 -0.2258 -0.1690 -0.6898
  874MOL0     H20600   0.890   4.205   2.372 -1.0389 -1.6681 -3.7628
  874MOL0     H20601   0.944   4.364   2.318 -1.1142  0.3441  3.3590
  874MOL0     H20602   0.917   4.223   2.136  1.0423 -0.7163 -0.8623
  874MOL0     H20603   1.017   4.100   2.214  2.8858 -0.5499 -1.9549
  874MOL0     H20604   1.224   4.246   2.179  0.6604  1.0393  0.0272
  874MOL0     H20605   1.132   4.196   2.033 -1.3960  1.4096 -0.3454
  874MOL0     H20606   1.105   4.472   2.186 -2.0043  1.7360 -1.2601
  874MOL0     H20607   1.001   4.435   2.055  0.0613  0.0715 -0.7411
  874MOL0     H20608   1.366   4.551   1.873  0.6094 -2.0296 -0.6636
  874MOL0     H20609   1.283   4.276   2.576  0.5447  0.6810 -0.3676
  874MOL0     H20610   1.318   4.267   2.880 -0.1066 -0.9223 -2.1002
  874MOL0     H20611   1.407   4.368   2.755  0.0124  2.6325  0.2033
  874MOL0     H20612   1.358   4.438   2.905  0.9154 -0.4434  0.0521
  875MOL0     O20613   0.626   1.682   3.827 -0.3930 -0.6220  0.2207
  875MOL0     C20614   0.591   1.790   3.782  0.6461 -0.3284 -0.6496
  875MOL0     O20615   0.542   1.805   3.652  0.4961  0.1277  0.1942
  875MOL0     C20616   0.525   1.701   3.568 -0.4419 -0.4355  0.2419
  875MOL0     C20617   0.634   1.670   3.486  0.4438 -0.8739  0.4766
  875MOL0     C20618   0.615   1.583   3.373  0.3915  0.6353 -0.2846
  875MOL0     C20619   0.488   1.515   3.348 -0.1739 -0.5253  0.0287
  875MOL0     O20620   0.490   1.433   3.241  0.2156 -0.1269  0.6191
  875MOL0     C20621   0.425   1.297   3.265  0.1760  0.4906 -0.5164
  875MOL0     C20622   0.495   1.190   3.172 -0.2383 -0.2174 -0.0136
  875MOL0     C20623   0.395   1.073   3.141 -0.0314  0.0213  0.2509
  875MOL0     C20624   0.479   0.961   3.093  0.0956  0.0529  0.4178
  875MOL0     C20625   0.392   0.823   3.086 -0.7752  0.5402  1.1180
  875MOL0     C20626   0.439   0.720   2.978  0.0863 -0.5820  0.4940
  875MOL0     C20627   0.380   0.760   2.842  1.4341  0.6414  0.0625
  875MOL0     C20628   0.412   0.657   2.747 -0.2894  0.4915 -0.6241
  875MOL0     N20629   0.339   0.689   2.625 -0.6916  0.0892 -0.2295
  875MOL0     C20630   0.239   0.607   2.579 -0.1888 -0.6865  0.1503
  875MOL0     C20631   0.217   0.647   2.455  0.2766  0.2942  0.2651
  875MOL0     C20632   0.110   0.587   2.350  0.7369 -0.4724 -0.2634
  875MOL0     C20633   0.159   0.557   2.211  0.3191 -0.7707  0.3446
  875MOL0     C20634   0.101   0.430   2.152 -0.5527  0.6914  0.8265
  875MOL0     C20635  -0.044   0.444   2.095 -0.9264 -0.0129 -0.0128
  875MOL0     O20636  -0.028   0.532   1.978  0.0590 -0.3644 -0.0814
  875MOL0     C20637  -0.047   0.470   1.849  0.5068 -0.5249  0.3899
  875MOL0     C20638  -0.098   0.556   1.750  0.2574 -0.0470 -1.1883
  875MOL0     C20639  -0.123   0.515   1.617  0.3388 -0.5468  0.0971
  875MOL0     C20640  -0.160   0.611   1.513 -0.3071  0.2880  0.1915
  875MOL0     C20641  -0.103   0.379   1.582 -0.6681  0.4736  0.7114
  875MOL0     C20642  -0.157   0.312   1.463  0.1708  0.3788  1.2089
  875MOL0     O20643  -0.088   0.192   1.429 -0.0760  0.4895  0.6779
  875MOL0     C20644  -0.138   0.118   1.325  0.2546 -0.2413 -0.3329
  875MOL0     C20645  -0.269   0.071   1.299 -0.1651  0.2113  0.2716
  875MOL0     C20646  -0.296  -0.024   1.205  0.6784 -0.8042 -0.0971
  875MOL0     C20647  -0.193  -0.090   1.135  0.4115 -0.9685 -0.2690
  875MOL0     O20648  -0.231  -0.183   1.043  0.3125  0.4310 -0.1718
  875MOL0     C20649  -0.135  -0.202   0.933  0.6559 -0.3727 -0.5374
  875MOL0     C20650  -0.175  -0.310   0.829  0.5183 -0.7169 -0.4639
  875MOL0     C20651  -0.280  -0.255   0.739  0.3126 -0.2225 -0.7067
  875MOL0     C20652  -0.327  -0.353   0.632  0.5160 -0.4457 -0.0619
  875MOL0     C20653  -0.445  -0.287   0.552  0.8240  0.4412  0.0057
  875MOL0     C20654  -0.543  -0.395   0.495 -0.6734  0.0219 -0.3479
  875MOL0     C20655  -0.662  -0.321   0.421 -0.3507 -0.4953 -0.3599
  875MOL0     C20656  -0.771  -0.411   0.355  0.8722  0.5129  0.3127
  875MOL0    Cl20657  -0.941  -0.355   0.354  0.4244 -0.4267 -0.2279
  875MOL0     C20658  -0.064  -0.050   1.161  1.1153 -0.2250 -0.5677
  875MOL0     C20659  -0.040   0.053   1.256 -1.1783  1.0374 -1.0467
  875MOL0     O20660  -0.263   0.347   1.411 -0.1522 -0.0287  0.3706
  875MOL0     C20661  -0.028   0.297   1.676  0.2388 -0.4344  0.7627
  875MOL0     C20662  -0.015   0.342   1.811  0.1340 -0.5562  0.5709
  875MOL0     N20663   0.297   0.754   2.418  1.4843 -0.0167  0.1210
  875MOL0     N20664   0.377   0.772   2.523 -0.2058 -0.0881 -0.2036
  875MOL0     C20665   0.381   1.546   3.436  0.5035  0.1873 -0.2210
  875MOL0     C20666   0.403   1.631   3.549 -0.0867 -0.0173  0.2683
  875MOL0     C20667   0.601   1.906   3.869  0.1390  0.4721 -0.5283
  875MOL0     C20668   0.517   2.012   3.840 -0.2084 -0.0216 -0.0458
  875MOL0     C20669   0.501   2.129   3.917  0.1924  0.2526  0.9263
  875MOL0     C20670   0.572   2.141   4.036  0.4228  0.6452 -0.6052
  875MOL0     O20671   0.548   2.247   4.122  0.0507 -0.1274 -0.2511
  875MOL0     C20672   0.415   2.263   4.169  0.0365  0.3095 -0.2401
  875MOL0     C20673   0.410   2.240   4.323  0.1994 -0.7542  1.0398
  875MOL0     C20674   0.269   2.224   4.377 -1.4281 -0.7066 -0.3121
  875MOL0     C20675   0.199   2.354   4.405  0.0564 -0.0979 -0.9718
  875MOL0     C20676   0.057   2.334   4.432  0.1754  0.2603  0.3665
  875MOL0     C20677  -0.058   2.311   4.450  0.7052 -0.5256 -0.2145
  875MOL0     C20678   0.661   2.036   4.071  0.2073 -0.6280 -0.6060
  875MOL0     C20679   0.672   1.917   3.994  0.1735  0.5797  0.1528
  875MOL0     C20680   0.745   1.807   4.068 -0.2258  0.2308  0.7372
  875MOL0     H20681   0.727   1.723   3.505  0.5342 -0.5493 -0.7823
  875MOL0     H20682   0.699   1.556   3.311  0.2271 -2.6780  0.7661
  875MOL0     H20683   0.317   1.303   3.246 -0.1070 -0.9707  0.4515
  875MOL0     H20684   0.430   1.268   3.370  1.1798  0.5770 -0.5334
  875MOL0     H20685   0.535   1.235   3.080  2.1283  2.4181  2.1458
  875MOL0     H20686   0.581   1.155   3.229  1.6836  1.8796 -1.4606
  875MOL0     H20687   0.336   1.044   3.228  3.3112 -0.6820  2.4847
  875MOL0     H20688   0.333   1.104   3.056  0.3240  1.1188  0.3655
  875MOL0     H20689   0.490   0.993   2.989  0.0105 -0.2199  0.3239
  875MOL0     H20690   0.573   0.950   3.148  0.8694 -1.0212 -1.0491
  875MOL0     H20691   0.290   0.855   3.063 -0.0049  0.0911 -4.3084
  875MOL0     H20692   0.393   0.771   3.183  1.4121 -1.3846  0.1722
  875MOL0     H20693   0.549   0.724   2.974  0.0383  1.9268  0.1472
  875MOL0     H20694   0.400   0.619   2.994  1.9893 -1.2810  0.9894
  875MOL0     H20695   0.410   0.862   2.814  0.7722  0.2229 -2.3383
  875MOL0     H20696   0.272   0.774   2.856  1.4532  1.9758 -0.8933
  875MOL0     H20697   0.520   0.659   2.726 -0.2552  2.7395 -0.3984
  875MOL0     H20698   0.389   0.557   2.784  1.5809  0.7065  1.3537
  875MOL0     H20699   0.191   0.523   2.630  2.6938 -1.6402  1.4898
  875MOL0     H20700   0.020   0.649   2.338 -1.1494 -3.2075 -1.0054
  875MOL0     H20701   0.082   0.491   2.393 -2.1916 -0.9622 -2.9412
  875MOL0     H20702   0.115   0.633   2.146 -0.3277 -2.0463 -0.7626
  875MOL0     H20703   0.268   0.560   2.207  0.4029 -2.8246 -2.4723
  875MOL0     H20704   0.170   0.400   2.073  0.7976 -1.2119  2.6208
  875MOL0     H20705   0.107   0.351   2.228  4.7481  0.9552  1.0502
  875MOL0     H20706  -0.102   0.353   2.079 -0.7919  0.1934 -1.9726
  875MOL0     H20707  -0.108   0.503   2.162  1.5231  0.5185  2.0431
  875MOL0     H20708  -0.102   0.663   1.763  3.9360 -0.0547  1.5912
  875MOL0     H20709  -0.089   0.613   1.429 -2.3427  0.6267 -1.6112
  875MOL0     H20710  -0.156   0.715   1.548  1.4765  0.5080 -0.5561
  875MOL0     H20711  -0.261   0.597   1.474  0.6978  1.6410 -3.2321
  875MOL0     H20712  -0.346   0.112   1.365  0.1217 -0.8434  1.2736
  875MOL0     H20713  -0.400  -0.049   1.191 -0.1016  0.1003  3.1304
  875MOL0     H20714  -0.104  -0.105   0.892 -0.9695  0.3681 -0.1292
  875MOL0     H20715  -0.045  -0.248   0.972  0.5440  0.0965  0.2902
  875MOL0     H20716  -0.086  -0.341   0.773  3.4187 -1.1760  3.9029
  875MOL0     H20717  -0.216  -0.394   0.886  1.0444 -1.0625 -0.5893
  875MOL0     H20718  -0.258  -0.157   0.695 -2.5901  0.0899 -1.6658
  875MOL0     H20719  -0.362  -0.237   0.809 -0.4616 -2.9163 -0.8461
  875MOL0     H20720  -0.364  -0.442   0.683  3.8298 -0.9993  1.6783
  875MOL0     H20721  -0.241  -0.389   0.574 -0.0802 -2.3994  0.2188
  875MOL0     H20722  -0.491  -0.218   0.623 -1.7536 -2.1801  1.0894
  875MOL0     H20723  -0.407  -0.231   0.466  4.0412 -0.8190  0.4642
  875MOL0     H20724  -0.571  -0.458   0.581 -0.0876  1.3149  0.8223
  875MOL0     H20725  -0.501  -0.466   0.423 -1.2139 -3.2557  2.2914
  875MOL0     H20726  -0.629  -0.258   0.338 -0.9489 -0.7253 -0.7727
  875MOL0     H20727  -0.709  -0.246   0.486  0.9461  2.5218 -2.6591
  875MOL0     H20728  -0.772  -0.505   0.410 -2.8460  1.9968  3.2678
  875MOL0     H20729  -0.738  -0.436   0.254  0.0787 -0.0474  0.1898
  875MOL0     H20730   0.012  -0.098   1.099 -1.0049 -3.9562 -0.5665
  875MOL0     H20731   0.065   0.076   1.274 -1.3656  1.9194 -1.0409
  875MOL0     H20732  -0.003   0.194   1.651  3.8260  0.0253  1.7868
  875MOL0     H20733   0.018   0.272   1.887  1.9925  1.6282  1.8920
  875MOL0     H20734   0.280   1.507   3.429 -0.0375  1.2818  1.0122
  875MOL0     H20735   0.322   1.659   3.616  0.4082  0.5369  0.6528
  875MOL0     H20736   0.457   2.016   3.750 -0.3470  1.9798  0.0842
  875MOL0     H20737   0.420   2.200   3.906 -2.9003 -2.7947  2.1481
  875MOL0     H20738   0.390   2.367   4.144 -0.3302 -0.4952 -3.6436
  875MOL0     H20739   0.339   2.198   4.125 -3.1069  0.7454  3.8977
  875MOL0     H20740   0.460   2.321   4.376 -2.0057 -0.1031  2.2489
  875MOL0     H20741   0.483   2.162   4.347  0.3172 -1.9933 -2.6728
  875MOL0     H20742   0.203   2.163   4.316 -2.5529 -0.8630  1.0046
  875MOL0     H20743   0.284   2.172   4.472  0.9211  0.2383 -0.0797
  875MOL0     H20744   0.212   2.419   4.318  0.8320 -0.2807 -1.0003
  875MOL0     H20745   0.249   2.405   4.488 -1.7874  1.6225 -0.8490
  875MOL0     H20746  -0.155   2.296   4.494  0.9131  1.7678  1.2117
  875MOL0     H20747   0.716   2.058   4.162  0.2243  2.5565 -1.2963
  875MOL0     H20748   0.813   1.839   4.147 -0.3779 -2.2933  1.9802
  875MOL0     H20749   0.670   1.740   4.110  0.6102  1.2654  4.1434
  875MOL0     H20750   0.802   1.746   3.997  1.1320 -3.1177  4.3881
  876MOL0     O20751   4.987   7.630   8.944 -0.3186 -0.7413  0.0537
  876MOL0     C20752   5.090   7.636   9.014 -0.2002  1.4209  0.6688
  876MOL0     O20753   5.194   7.551   9.000 -0.3118  0.5772 -0.0850
  876MOL0     C20754   5.208   7.462   8.886  0.4699  0.8943 -0.0854
  876MOL0     C20755   5.130   7.345   8.881  1.2742 -0.2643  0.6216
  876MOL0     C20756   5.125   7.259   8.765 -0.0187  0.0966 -0.5867
  876MOL0     C20757   5.199   7.291   8.658  0.1712  0.0742 -0.9360
  876MOL0     O20758   5.191   7.203   8.556  0.5482  0.1681 -0.5093
  876MOL0     C20759   5.235   7.242   8.427  0.6682 -0.1065 -0.1799
  876MOL0     C20760   5.195   7.130   8.330  0.9414 -0.5938 -0.6191
  876MOL0     C20761   5.260   6.990   8.365  0.8845  0.1204 -0.2338
  876MOL0     C20762   5.165   6.881   8.415  0.7386  0.1725  0.7897
  876MOL0     C20763   5.245   6.746   8.430 -0.0693 -0.0325 -0.2089
  876MOL0     C20764   5.332   6.736   8.557  0.8901  0.1352  0.0777
  876MOL0     C20765   5.391   6.591   8.584  1.0859  0.0434  0.3494
  876MOL0     C20766   5.528   6.608   8.635 -0.0413  0.0644  0.2984
  876MOL0     N20767   5.587   6.477   8.657 -0.0601 -0.0412 -0.9478
  876MOL0     C20768   5.646   6.404   8.555 -0.3274 -0.1445  0.2396
  876MOL0     C20769   5.678   6.290   8.621 -0.0954  0.6759  1.3866
  876MOL0     C20770   5.749   6.174   8.559 -0.3637 -0.2354 -0.5872
  876MOL0     C20771   5.903   6.195   8.566 -0.2993 -0.1209 -0.2699
  876MOL0     C20772   5.987   6.082   8.488  0.1585 -0.8841  0.0829
  876MOL0     C20773   6.134   6.107   8.459  0.6327 -0.9927  0.0538
  876MOL0     O20774   6.186   5.991   8.394  0.7638 -0.0213  0.0412
  876MOL0     C20775   6.318   5.976   8.380  0.4818 -0.0467  0.2549
  876MOL0     C20776   6.410   6.073   8.415 -0.3246 -0.0449 -0.3936
  876MOL0     C20777   6.548   6.052   8.407  0.1748  0.7841  0.2546
  876MOL0     C20778   6.639   6.163   8.434 -0.5938  0.4439  0.3291
  876MOL0     C20779   6.599   5.932   8.341  0.3160 -0.1922 -0.3531
  876MOL0     C20780   6.739   5.910   8.295 -0.4555  0.1891 -0.4784
  876MOL0     O20781   6.759   5.849   8.170  0.5001  0.2204 -0.1140
  876MOL0     C20782   6.884   5.799   8.139 -0.7262  0.8821 -0.1478
  876MOL0     C20783   6.962   5.711   8.219 -0.8575 -0.5210 -0.4285
  876MOL0     C20784   7.093   5.670   8.182  0.5773  0.5407  0.2448
  876MOL0     C20785   7.144   5.728   8.060 -0.0755 -0.2879  0.2431
  876MOL0     O20786   7.267   5.705   8.002  0.0410 -0.1054 -0.6580
  876MOL0     C20787   7.352   5.622   8.090  0.3957 -1.0249  0.5810
  876MOL0     C20788   7.488   5.573   8.029  0.3826 -0.0236  0.1933
  876MOL0     C20789   7.599   5.688   8.032  0.4485 -0.1593  0.4220
  876MOL0     C20790   7.705   5.657   7.928 -0.7752  0.1537 -0.2480
  876MOL0     C20791   7.796   5.528   7.976 -0.8106 -1.0198 -0.6858
  876MOL0     C20792   7.886   5.492   7.862  0.4536 -0.4537 -1.3686
  876MOL0     C20793   7.824   5.393   7.752 -0.9698 -0.4144 -0.5028
  876MOL0     C20794   7.934   5.337   7.656  0.2995 -0.4888 -0.2890
  876MOL0    Cl20795   8.022   5.212   7.754 -0.3154  0.5743 -0.1214
  876MOL0     C20796   7.066   5.816   7.992  0.2067 -0.2785 -0.7102
  876MOL0     C20797   6.936   5.850   8.022 -0.4294 -0.1556 -0.2630
  876MOL0     O20798   6.835   5.934   8.377 -0.4672  0.4162  0.7676
  876MOL0     C20799   6.503   5.832   8.298 -0.2423  0.0802  0.4989
  876MOL0     C20800   6.365   5.858   8.325 -1.2323  0.7335 -0.3876
  876MOL0     N20801   5.644   6.297   8.753  0.9311 -0.0923 -0.1298
  876MOL0     N20802   5.573   6.407   8.772 -0.1102  0.4608  0.1156
  876MOL0     C20803   5.286   7.403   8.661 -0.9408  0.1330  0.2808
  876MOL0     C20804   5.284   7.488   8.777 -0.2352 -0.3792  0.3151
  876MOL0     C20805   5.099   7.740   9.122  0.1646  0.5739  0.2002
  876MOL0     C20806   4.989   7.818   9.147  0.6420  0.6321 -0.5929
  876MOL0     C20807   4.984   7.924   9.241 -0.0314 -0.2416 -0.3703
  876MOL0     C20808   5.101   7.945   9.311 -0.5139 -0.1322 -0.2845
  876MOL0     O20809   5.082   8.051   9.399 -0.4612  0.5700 -0.3973
  876MOL0     C20810   5.196   8.127   9.459 -0.0640  1.0013  0.5085
  876MOL0     C20811   5.149   8.268   9.476  0.2897  0.3276  0.6669
  876MOL0     C20812   5.032   8.289   9.565  0.5622  0.4571  0.4727
  876MOL0     C20813   4.993   8.436   9.555  0.6603 -0.5497  1.1658
  876MOL0     C20814   4.910   8.478   9.671  0.4003  0.1971  0.5458
  876MOL0     C20815   4.834   8.516   9.759 -0.3397  0.3667  0.9864
  876MOL0     C20816   5.218   7.873   9.287 -0.1663  0.2067  0.0561
  876MOL0     C20817   5.221   7.776   9.188  0.8390 -0.7045 -0.5626
  876MOL0     C20818   5.353   7.694   9.170  0.2871 -0.0832  0.9043
  876MOL0     H20819   5.065   7.313   8.961 -1.1528 -0.5415 -1.3517
  876MOL0     H20820   5.076   7.162   8.770  2.6406 -1.4944 -2.4596
  876MOL0     H20821   5.344   7.237   8.433  1.0192  1.5927 -3.2945
  876MOL0     H20822   5.189   7.334   8.391  0.0997 -0.6819 -0.9460
  876MOL0     H20823   5.086   7.130   8.321  0.5340 -1.4450  3.0000
  876MOL0     H20824   5.239   7.152   8.232  3.1614  0.4349  0.5434
  876MOL0     H20825   5.329   6.959   8.286  0.7205 -1.9785  0.3874
  876MOL0     H20826   5.317   7.003   8.458 -1.5415  1.0150  1.2088
  876MOL0     H20827   5.094   6.905   8.494 -1.5648  0.1272 -1.1581
  876MOL0     H20828   5.104   6.878   8.324  2.5002 -0.4962 -0.4523
  876MOL0     H20829   5.312   6.735   8.344  0.9462 -1.0420  0.6832
  876MOL0     H20830   5.177   6.660   8.433 -0.9006  0.4651 -2.5998
  876MOL0     H20831   5.406   6.816   8.553  0.2121  0.7444 -0.4349
  876MOL0     H20832   5.273   6.757   8.647  1.2413  0.2980  0.2762
  876MOL0     H20833   5.402   6.532   8.493  1.6709 -0.7220  0.9020
  876MOL0     H20834   5.326   6.537   8.654  1.0638  0.5023  0.6850
  876MOL0     H20835   5.603   6.655   8.571  0.7957 -2.0890 -0.4002
  876MOL0     H20836   5.531   6.667   8.727  1.6049  3.5276 -1.7928
  876MOL0     H20837   5.668   6.428   8.452 -2.9851  2.2077  0.0921
  876MOL0     H20838   5.720   6.178   8.453 -1.2704 -0.2148 -0.3445
  876MOL0     H20839   5.719   6.084   8.613 -0.1033 -0.8978 -1.5066
  876MOL0     H20840   5.936   6.296   8.540  4.6489 -1.6117 -0.7436
  876MOL0     H20841   5.925   6.193   8.673  0.0036  2.5219 -0.2208
  876MOL0     H20842   6.000   5.992   8.549  0.9582 -1.8100 -1.3997
  876MOL0     H20843   5.930   6.062   8.397 -0.8838  2.0371 -0.0209
  876MOL0     H20844   6.142   6.182   8.379  1.0818 -0.6816  0.3880
  876MOL0     H20845   6.196   6.141   8.542  3.5785 -0.9509 -2.0049
  876MOL0     H20846   6.380   6.169   8.458  0.7276  0.1680 -0.0998
  876MOL0     H20847   6.591   6.245   8.489  1.5003  0.8859  1.6127
  876MOL0     H20848   6.676   6.200   8.338 -0.4572 -0.6734 -0.0633
  876MOL0     H20849   6.713   6.125   8.504 -1.0295 -1.8345 -0.3670
  876MOL0     H20850   6.945   5.673   8.320  1.3089 -0.8845 -0.1629
  876MOL0     H20851   7.141   5.601   8.251 -0.1625 -1.8951 -1.5603
  876MOL0     H20852   7.368   5.672   8.186 -2.4737 -2.1538  1.7590
  876MOL0     H20853   7.287   5.537   8.114 -0.2959 -0.7003 -0.0918
  876MOL0     H20854   7.534   5.489   8.082  2.6817  1.4710  0.6779
  876MOL0     H20855   7.470   5.539   7.927  1.7667  0.4814 -0.2507
  876MOL0     H20856   7.637   5.709   8.132  4.2147  2.0533 -1.2599
  876MOL0     H20857   7.553   5.782   8.000  2.4551 -0.0437 -2.5137
  876MOL0     H20858   7.776   5.741   7.925 -0.0487 -0.4497 -2.8323
  876MOL0     H20859   7.667   5.650   7.826 -0.9877 -0.0116 -0.1584
  876MOL0     H20860   7.855   5.545   8.066  0.7785 -1.2326 -1.6502
  876MOL0     H20861   7.736   5.438   7.996 -0.2202 -1.2833 -0.0623
  876MOL0     H20862   7.976   5.450   7.908  0.9212  0.8073 -1.1187
  876MOL0     H20863   7.915   5.585   7.814  0.8562  0.8079  1.1833
  876MOL0     H20864   7.746   5.443   7.695 -1.9185 -3.1808 -1.7987
  876MOL0     H20865   7.777   5.305   7.798  1.2149 -1.0103  0.7312
  876MOL0     H20866   8.005   5.418   7.638 -3.2362  2.6868 -1.1573
  876MOL0     H20867   7.893   5.310   7.558 -3.6682  0.3040  0.9895
  876MOL0     H20868   7.099   5.868   7.902 -0.2025  1.6746  0.2121
  876MOL0     H20869   6.873   5.924   7.975 -2.0402 -1.8371 -0.9094
  876MOL0     H20870   6.524   5.752   8.228 -2.9231  1.3453 -1.9674
  876MOL0     H20871   6.281   5.801   8.287 -0.7868 -0.7783  0.8092
  876MOL0     H20872   5.349   7.421   8.574  1.7129 -4.1261  1.0523
  876MOL0     H20873   5.352   7.569   8.798  0.3155 -2.0025  7.0620
  876MOL0     H20874   4.898   7.785   9.097 -0.3150  1.1761  0.6967
  876MOL0     H20875   4.898   7.990   9.246  0.3766  0.2789 -0.1014
  876MOL0     H20876   5.213   8.089   9.560 -0.2442 -1.4998 -0.3289
  876MOL0     H20877   5.283   8.114   9.394 -1.1913 -0.2229 -0.8365
  876MOL0     H20878   5.125   8.312   9.378 -2.2191  1.9041  1.8740
  876MOL0     H20879   5.231   8.327   9.518  0.0652 -1.8245  4.6074
  876MOL0     H20880   4.950   8.226   9.530  2.0346 -0.9751 -0.5679
  876MOL0     H20881   5.046   8.267   9.671 -1.0783  1.2565  0.8766
  876MOL0     H20882   4.934   8.453   9.465 -0.0972  1.0475  1.9369
  876MOL0     H20883   5.076   8.507   9.555  1.5473 -1.5363 -0.1081
  876MOL0     H20884   4.769   8.541   9.840 -1.9362 -4.1372  1.3980
  876MOL0     H20885   5.304   7.899   9.347 -0.4343 -0.3692  0.6971
  876MOL0     H20886   5.318   7.593   9.192  0.1696 -0.5035 -1.0686
  876MOL0     H20887   5.389   7.702   9.067 -0.0065 -0.4556  0.7720
  876MOL0     H20888   5.432   7.740   9.230  0.8314  0.3435 -0.1026
  877MOL0     O20889  10.528   5.534   6.899  0.6526  0.3537 -0.0122
  877MOL0     C20890  10.437   5.531   6.988 -1.3074  0.4190  1.1345
  877MOL0     O20891  10.352   5.629   7.011 -0.1534 -0.9561  0.2367
  877MOL0     C20892  10.370   5.765   6.965  0.4899  0.3273 -0.5411
  877MOL0     C20893  10.496   5.817   6.939 -0.4373 -0.1398 -1.0795
  877MOL0     C20894  10.507   5.951   6.900  0.9721  0.6556 -0.1569
  877MOL0     C20895  10.396   6.031   6.874  1.4857  0.5100  0.1850
  877MOL0     O20896  10.409   6.154   6.832  0.3163 -0.0000 -0.4476
  877MOL0     C20897  10.356   6.256   6.916 -0.5527 -0.6134 -0.3358
  877MOL0     C20898  10.388   6.395   6.848  0.2425 -0.3386 -0.3666
  877MOL0     C20899  10.540   6.414   6.832 -0.3510  0.2671 -0.6796
  877MOL0     C20900  10.608   6.405   6.970  0.2423 -0.1962  0.1340
  877MOL0     C20901  10.753   6.441   6.947 -0.0463  0.2787  0.0896
  877MOL0     C20902  10.838   6.316   6.916  0.0562 -0.8402  0.3155
  877MOL0     C20903  10.974   6.360   6.860  1.4682  0.1148  0.0630
  877MOL0     C20904  11.070   6.232   6.852 -0.7723  0.1911  0.2187
  877MOL0     N20905  11.193   6.259   6.769  0.7981 -0.0138 -0.7939
  877MOL0     C20906  11.285   6.157   6.749  0.3914  0.4766 -0.1734
  877MOL0     C20907  11.396   6.218   6.687 -0.8630 -0.4472  0.4795
  877MOL0     C20908  11.535   6.158   6.648  1.0766 -0.5779  0.7803
  877MOL0     C20909  11.554   6.192   6.502  0.2792 -0.4021  0.4102
  877MOL0     C20910  11.600   6.341   6.488 -0.4501 -0.1772 -0.3673
  877MOL0     C20911  11.635   6.383   6.346  0.1597  0.9164  0.1466
  877MOL0     O20912  11.777   6.362   6.323  1.0167  0.4104 -0.1827
  877MOL0     C20913  11.826   6.241   6.266 -0.1174 -0.5076 -0.1983
  877MOL0     C20914  11.758   6.176   6.164 -0.1969 -0.9121  0.4425
  877MOL0     C20915  11.811   6.057   6.106 -0.5249 -0.8043  0.6653
  877MOL0     C20916  11.723   5.991   5.993 -0.2388  0.4346 -0.5291
  877MOL0     C20917  11.940   6.015   6.150 -0.5682  0.5823  0.0664
  877MOL0     C20918  12.010   5.889   6.099  0.2380 -0.3281  0.8702
  877MOL0     O20919  12.129   5.860   6.150 -0.2495 -0.1357 -0.2324
  877MOL0     C20920  12.199   5.758   6.101 -0.2236 -0.4377 -0.0903
  877MOL0     C20921  12.268   5.675   6.191  0.6678  0.5480  0.0182
  877MOL0     C20922  12.353   5.570   6.139 -0.9474 -0.6725  0.3860
  877MOL0     C20923  12.368   5.549   6.001 -0.1308  0.1194 -0.4783
  877MOL0     O20924  12.449   5.453   5.952  0.4614  0.3124 -0.1344
  877MOL0     C20925  12.547   5.494   5.857  0.2604 -0.7353 -0.2132
  877MOL0     C20926  12.644   5.386   5.826  0.6500 -0.1656 -0.0129
  877MOL0     C20927  12.715   5.338   5.953  0.4898 -0.1167  0.3443
  877MOL0     C20928  12.819   5.238   5.895  0.2369 -0.5633 -0.4347
  877MOL0     C20929  12.939   5.229   5.994  0.3285 -0.3172  0.0839
  877MOL0     C20930  13.042   5.124   5.949 -0.4373  0.1597  0.0889
  877MOL0     C20931  12.971   4.988   5.934 -0.5962  0.1622  0.2905
  877MOL0     C20932  13.066   4.879   5.943 -0.0908  0.6032  0.1719
  877MOL0    Cl20933  13.012   4.715   5.891 -0.3350  0.0319  0.2047
  877MOL0     C20934  12.289   5.625   5.923 -0.8998 -1.3771  0.0820
  877MOL0     C20935  12.227   5.737   5.969  0.3190 -0.2709  0.7522
  877MOL0     O20936  11.945   5.810   6.026 -0.0916  0.3712  0.0283
  877MOL0     C20937  12.015   6.090   6.236 -0.4067 -1.0378  0.1155
  877MOL0     C20938  11.959   6.210   6.284  0.3190  0.3142  1.0581
  877MOL0     N20939  11.350   6.349   6.678  0.2733  0.2869  0.6947
  877MOL0     N20940  11.235   6.377   6.723 -0.5935  1.3285  0.2668
  877MOL0     C20941  10.264   5.967   6.893  0.7341 -0.0358 -0.4715
  877MOL0     C20942  10.258   5.834   6.929  0.0030  0.2240  0.1828
  877MOL0     C20943  10.394   5.400   7.052 -0.8127 -1.2568 -0.0351
  877MOL0     C20944  10.305   5.411   7.164  1.4877 -0.1388 -0.2495
  877MOL0     C20945  10.252   5.302   7.229  0.0429  0.1140  0.1423
  877MOL0     C20946  10.278   5.171   7.193  0.3902  0.4176  0.1144
  877MOL0     O20947  10.243   5.067   7.279 -0.2540  0.1028  0.8791
  877MOL0     C20948  10.119   5.000   7.232 -1.1262 -0.6356  0.5879
  877MOL0     C20949  10.097   4.864   7.295  0.4368  0.6946  0.0493
  877MOL0     C20950  10.050   4.883   7.437 -1.4407 -0.0133 -0.0946
  877MOL0     C20951  10.019   4.759   7.508 -0.5891  1.0226 -0.3979
  877MOL0     C20952   9.908   4.686   7.449 -0.1168 -0.1717  0.7593
  877MOL0     C20953   9.817   4.623   7.402 -0.3007 -0.7068 -0.5575
  877MOL0     C20954  10.371   5.161   7.092  0.5220 -0.1408 -0.9019
  877MOL0     C20955  10.428   5.267   7.023  0.4109  0.4633  0.6140
  877MOL0     C20956  10.516   5.223   6.912 -0.4269  0.4374  1.1505
  877MOL0     H20957  10.586   5.763   6.968 -1.2231  0.4745  3.1654
  877MOL0     H20958  10.606   5.981   6.870  0.4364  2.7156  0.0276
  877MOL0     H20959  10.401   6.244   7.015  4.1600 -1.7132 -2.3138
  877MOL0     H20960  10.247   6.253   6.919 -0.5602 -0.0398  0.0367
  877MOL0     H20961  10.342   6.395   6.749 -0.4252 -4.6483 -0.2166
  877MOL0     H20962  10.352   6.482   6.904 -0.8008 -1.5181  0.8400
  877MOL0     H20963  10.586   6.335   6.772  0.5453 -0.4694  0.9071
  877MOL0     H20964  10.562   6.511   6.788 -1.6229  0.3437 -1.2078
  877MOL0     H20965  10.582   6.496   7.025 -0.2742  0.9474 -1.9221
  877MOL0     H20966  10.604   6.313   7.029  1.0327 -1.9466 -2.3959
  877MOL0     H20967  10.794   6.487   7.037 -3.6570  2.3340  0.8811
  877MOL0     H20968  10.769   6.514   6.866  2.3745  0.0668  0.3223
  877MOL0     H20969  10.851   6.253   7.005 -1.2494 -0.8297  0.5340
  877MOL0     H20970  10.801   6.246   6.840  2.0774 -1.0920 -0.5006
  877MOL0     H20971  11.019   6.440   6.919  0.3931  0.0821  0.9327
  877MOL0     H20972  10.962   6.398   6.758 -0.5952 -2.3898 -0.7431
  877MOL0     H20973  11.101   6.187   6.947  0.1458  0.9663  0.2953
  877MOL0     H20974  11.020   6.157   6.790  1.7908 -1.2420 -0.2542
  877MOL0     H20975  11.264   6.052   6.764 -0.3652  0.3834 -1.6934
  877MOL0     H20976  11.540   6.053   6.679  0.8657 -0.2605  1.9361
  877MOL0     H20977  11.602   6.206   6.720 -2.3787  3.9876  1.4080
  877MOL0     H20978  11.633   6.132   6.456 -1.1745 -0.3170 -2.4290
  877MOL0     H20979  11.461   6.178   6.446 -1.6386  1.5401  2.8537
  877MOL0     H20980  11.524   6.418   6.506 -1.1328 -0.5998 -1.3528
  877MOL0     H20981  11.682   6.360   6.558 -2.0773  0.6809  1.4010
  877MOL0     H20982  11.560   6.335   6.281 -1.3168  1.9754  0.9997
  877MOL0     H20983  11.622   6.491   6.335  0.0688  0.6594 -3.6894
  877MOL0     H20984  11.657   6.199   6.130  0.2414 -0.4832 -0.6155
  877MOL0     H20985  11.755   6.019   5.893  0.0529  0.5235 -0.4133
  877MOL0     H20986  11.618   6.019   6.011  0.3600  1.0251  2.7885
  877MOL0     H20987  11.714   5.883   6.002  2.7703  0.2104  0.9115
  877MOL0     H20988  12.245   5.681   6.296  0.3454  0.9215 -0.0696
  877MOL0     H20989  12.396   5.502   6.212 -0.0883 -1.3906 -0.7551
  877MOL0     H20990  12.507   5.545   5.769  0.5268  0.6540  0.4519
  877MOL0     H20991  12.596   5.573   5.913 -2.3403  1.0371 -0.2545
  877MOL0     H20992  12.601   5.298   5.778  0.5815 -0.6620  0.9480
  877MOL0     H20993  12.717   5.443   5.767  0.6809  2.3281  2.2470
  877MOL0     H20994  12.641   5.293   6.020 -2.5142 -3.1250 -4.3784
  877MOL0     H20995  12.760   5.427   5.999  0.4057 -0.4369  1.0708
  877MOL0     H20996  12.862   5.267   5.799  1.1075  3.2812  0.9414
  877MOL0     H20997  12.759   5.147   5.881 -1.5950  0.1659  1.9797
  877MOL0     H20998  12.995   5.321   6.011  2.9540 -1.5573 -1.2109
  877MOL0     H20999  12.906   5.202   6.095  1.2981  2.2840  1.1621
  877MOL0     H21000  13.132   5.114   6.009  1.6625  1.1653 -2.6520
  877MOL0     H21001  13.083   5.160   5.854  1.4497 -1.8146  0.0696
  877MOL0     H21002  12.934   4.988   5.831  0.7920 -0.4718 -0.2341
  877MOL0     H21003  12.887   4.978   6.004  0.8374 -0.4753  1.9899
  877MOL0     H21004  13.108   4.881   6.044 -1.6066 -2.7210  1.0083
  877MOL0     H21005  13.146   4.901   5.872 -1.2536  0.5222 -1.2112
  877MOL0     H21006  12.288   5.610   5.816 -2.5797  1.3044 -0.3546
  877MOL0     H21007  12.184   5.807   5.898 -1.6071 -2.1336 -0.0300
  877MOL0     H21008  12.115   6.067   6.271 -1.3611 -1.1692  3.0542
  877MOL0     H21009  12.012   6.269   6.357 -0.8698  1.9967  0.6277
  877MOL0     H21010  10.172   6.023   6.884 -0.4239 -1.6317  0.8626
  877MOL0     H21011  10.163   5.785   6.949  0.5838 -0.6573  0.8412
  877MOL0     H21012  10.273   5.508   7.201 -0.0714 -0.8522  0.3917
  877MOL0     H21013  10.188   5.316   7.315  0.8492  0.4122  0.7081
  877MOL0     H21014  10.037   5.072   7.243 -2.4252 -1.8624 -0.6661
  877MOL0     H21015  10.145   4.976   7.129  0.3733  1.5268  0.4083
  877MOL0     H21016  10.195   4.815   7.301 -0.3554 -0.8368  1.1044
  877MOL0     H21017  10.017   4.815   7.240 -0.1339  0.2783  1.2048
  877MOL0     H21018  10.127   4.931   7.498 -2.4273 -1.0498  2.0723
  877MOL0     H21019   9.953   4.934   7.438 -1.1352  0.6586  2.3668
  877MOL0     H21020   9.998   4.789   7.611 -0.6705 -0.6584  0.0940
  877MOL0     H21021  10.102   4.689   7.523 -1.1488  0.3016 -0.6139
  877MOL0     H21022   9.742   4.561   7.358 -0.7257 -1.0112  0.5547
  877MOL0     H21023  10.397   5.059   7.066  0.0962 -1.1482  2.2195
  877MOL0     H21024  10.612   5.188   6.951 -0.5528 -1.8020 -0.4198
  877MOL0     H21025  10.459   5.140   6.869  1.4140 -0.3117  0.0399
  877MOL0     H21026  10.524   5.302   6.837  0.6903 -1.0379 -0.3491
  878MOL0     O21027   2.233   1.883  11.451 -0.2424 -0.5130  0.6520
  878MOL0     C21028   2.309   1.808  11.391 -0.5412 -0.4900  0.3798
  878MOL0     O21029   2.409   1.845  11.303 -0.2392 -0.2457  0.0446
  878MOL0     C21030   2.464   1.968  11.328  0.4773 -0.2248 -1.4957
  878MOL0     C21031   2.561   1.980  11.427 -0.4178 -0.2804  0.3261
  878MOL0     C21032   2.633   2.097  11.442  0.6102  1.4260  0.1449
  878MOL0     C21033   2.600   2.206  11.368 -0.0314 -0.2972 -0.1866
  878MOL0     O21034   2.661   2.330  11.390 -0.3689  0.1735 -0.9013
  878MOL0     C21035   2.801   2.328  11.437 -0.4328  0.3695  0.8739
  878MOL0     C21036   2.854   2.469  11.417 -0.0933  0.2532  1.2235
  878MOL0     C21037   2.990   2.497  11.492  0.1400  0.6599 -0.3332
  878MOL0     C21038   3.051   2.632  11.443 -1.0131 -0.7357 -0.1993
  878MOL0     C21039   3.031   2.758  11.535 -0.1515 -0.9567 -0.3697
  878MOL0     C21040   2.997   2.890  11.468  0.2816  0.7325  0.0822
  878MOL0     C21041   2.976   2.990  11.577 -0.6907 -1.0512 -0.4296
  878MOL0     C21042   2.970   3.132  11.508  0.5261  0.2189 -0.1309
  878MOL0     N21043   3.078   3.189  11.428  0.2778 -0.4390 -0.1302
  878MOL0     C21044   3.208   3.153  11.413  0.0939 -0.4580  0.2700
  878MOL0     C21045   3.263   3.215  11.302 -0.4613 -0.5292 -0.4730
  878MOL0     C21046   3.405   3.208  11.250  0.0848  0.2475  0.3004
  878MOL0     C21047   3.488   3.313  11.313  0.4469 -0.5507  0.2464
  878MOL0     C21048   3.480   3.440  11.226 -0.0567  0.2554 -0.0626
  878MOL0     C21049   3.576   3.542  11.286 -0.0331  0.9796 -0.0260
  878MOL0     O21050   3.705   3.475  11.284  0.0066  0.3446  0.0061
  878MOL0     C21051   3.813   3.539  11.337  0.0218 -0.1442 -0.5598
  878MOL0     C21052   3.818   3.674  11.379  0.1539 -0.0140 -0.6068
  878MOL0     C21053   3.928   3.731  11.455  0.7363  0.2442  0.2319
  878MOL0     C21054   3.917   3.880  11.492  1.2648 -0.4045 -1.1537
  878MOL0     C21055   4.043   3.650  11.477  0.6895 -0.6253  0.5775
  878MOL0     C21056   4.155   3.702  11.557 -0.4549  0.5875  0.0745
  878MOL0     O21057   4.265   3.619  11.549  0.0506  0.7371  0.2283
  878MOL0     C21058   4.383   3.634  11.615 -0.4455  0.0116  0.3030
  878MOL0     C21059   4.485   3.560  11.564 -0.1360 -1.1039 -0.6077
  878MOL0     C21060   4.617   3.570  11.609 -0.9273 -0.1193 -0.2348
  878MOL0     C21061   4.646   3.663  11.720  0.2052 -0.6081  0.2083
  878MOL0     O21062   4.768   3.677  11.775 -0.6206  0.1957 -0.1526
  878MOL0     C21063   4.843   3.560  11.778 -1.0781  0.0742  0.1243
  878MOL0     C21064   4.971   3.600  11.849 -0.3570 -0.0520 -0.0735
  878MOL0     C21065   4.936   3.622  11.999  0.2720 -0.1922  0.2185
  878MOL0     C21066   5.059   3.647  12.082 -0.3762 -0.5628 -0.7592
  878MOL0     C21067   5.038   3.646  12.232  1.2921  0.5292  0.2221
  878MOL0     C21068   5.155   3.594  12.314  0.2876 -0.4005  0.0692
  878MOL0     C21069   5.282   3.689  12.312  0.2468 -0.9271  0.1586
  878MOL0     C21070   5.420   3.625  12.302 -1.1291  1.3933 -0.6942
  878MOL0    Cl21071   5.440   3.489  12.409  0.2661 -0.0099 -0.7917
  878MOL0     C21072   4.544   3.736  11.774  0.5622  0.0763 -0.4814
  878MOL0     C21073   4.414   3.718  11.726 -0.8093 -0.5231 -0.7157
  878MOL0     O21074   4.156   3.811  11.605  0.2199 -0.4612  0.9288
  878MOL0     C21075   4.037   3.515  11.428  0.3914 -0.3006 -0.3519
  878MOL0     C21076   3.925   3.458  11.364 -0.8959  0.0590  0.5174
  878MOL0     N21077   3.160   3.288  11.247 -0.3468  0.5705 -0.1896
  878MOL0     N21078   3.055   3.269  11.319  0.6798  0.5364  0.0920
  878MOL0     C21079   2.481   2.205  11.284 -0.2617  0.7884  0.8327
  878MOL0     C21080   2.425   2.082  11.256 -0.8691  0.0748 -0.2282
  878MOL0     C21081   2.270   1.672  11.389 -0.8555 -0.0812 -0.1652
  878MOL0     C21082   2.275   1.605  11.264  0.1432  0.4420  0.2155
  878MOL0     C21083   2.218   1.477  11.245 -0.1742 -0.2123 -0.1503
  878MOL0     C21084   2.165   1.408  11.358 -0.3107 -0.3030 -0.6104
  878MOL0     O21085   2.112   1.282  11.360 -0.1494 -0.2433 -0.1830
  878MOL0     C21086   2.135   1.186  11.252  0.7259 -0.1087  1.0320
  878MOL0     C21087   2.011   1.167  11.166  0.5950 -0.2393  0.3799
  878MOL0     C21088   1.880   1.139  11.249  0.5132  0.8576  0.0503
  878MOL0     C21089   1.754   1.151  11.165 -0.1580 -0.0627  0.6482
  878MOL0     C21090   1.728   1.283  11.092  0.0798 -0.1172 -0.4804
  878MOL0     C21091   1.713   1.394  11.041 -0.6568  0.6424 -0.1354
  878MOL0     C21092   2.183   1.468  11.474  0.6485  0.3624  0.1909
  878MOL0     C21093   2.239   1.590  11.496 -0.3450  0.3421 -0.4352
  878MOL0     C21094   2.276   1.635  11.651  0.3638  0.5516  0.8840
  878MOL0     H21095   2.607   1.894  11.475 -0.9819  0.1438  1.6666
  878MOL0     H21096   2.720   2.094  11.507  0.5215  0.4468  0.2414
  878MOL0     H21097   2.856   2.246  11.390 -3.0886 -2.0313  1.6630
  878MOL0     H21098   2.810   2.304  11.543  2.0353 -3.3284  0.0018
  878MOL0     H21099   2.867   2.488  11.310 -3.4835  0.4532  0.7225
  878MOL0     H21100   2.779   2.541  11.451 -1.2722 -0.1031 -0.4854
  878MOL0     H21101   2.966   2.504  11.598 -0.9100  1.9980 -0.6227
  878MOL0     H21102   3.063   2.417  11.477  1.2574  1.3196  1.2993
  878MOL0     H21103   3.157   2.612  11.423 -0.5499  1.7143 -0.4801
  878MOL0     H21104   3.019   2.649  11.340 -0.3085  1.9949 -0.0363
  878MOL0     H21105   3.123   2.782  11.588 -0.0841  2.1202 -1.6634
  878MOL0     H21106   2.945   2.737  11.599  0.9779  0.0507  1.5709
  878MOL0     H21107   3.075   2.933  11.405  0.4632  1.7213  0.9421
  878MOL0     H21108   2.908   2.881  11.405  2.1617  1.6994 -2.9089
  878MOL0     H21109   3.057   2.992  11.651 -1.9004  0.3395  0.9288
  878MOL0     H21110   2.885   2.975  11.636 -0.0726 -4.1314 -0.0666
  878MOL0     H21111   2.879   3.138  11.448  0.0924 -0.0011  0.4992
  878MOL0     H21112   2.964   3.205  11.590  2.3801 -0.7790  0.9496
  878MOL0     H21113   3.268   3.095  11.482 -0.0285  0.5416  1.2511
  878MOL0     H21114   3.399   3.227  11.142 -1.0113 -2.9952 -0.3276
  878MOL0     H21115   3.443   3.106  11.263  1.6304  0.8309  0.6036
  878MOL0     H21116   3.454   3.339  11.414  0.5267  0.5837 -0.0057
  878MOL0     H21117   3.589   3.273  11.328  1.2894  1.5842  0.7377
  878MOL0     H21118   3.522   3.415  11.128 -0.0479  2.4107 -0.6606
  878MOL0     H21119   3.382   3.490  11.220 -0.5037 -0.1154  2.7077
  878MOL0     H21120   3.564   3.631  11.223 -3.3041  0.4420 -0.3318
  878MOL0     H21121   3.533   3.565  11.384 -2.4159  1.1160 -1.0430
  878MOL0     H21122   3.734   3.741  11.361  1.2252  1.2258 -1.2113
  878MOL0     H21123   3.922   3.889  11.601  1.9500  1.7446 -1.3123
  878MOL0     H21124   3.823   3.931  11.469  1.0868  1.0725  2.2013
  878MOL0     H21125   3.989   3.945  11.441  1.3518 -0.8072 -1.5510
  878MOL0     H21126   4.464   3.514  11.468 -2.9699 -1.8691  0.2835
  878MOL0     H21127   4.692   3.521  11.547 -1.4172  1.0982 -1.8587
  878MOL0     H21128   4.789   3.480  11.829 -4.7108  1.1383 -1.6289
  878MOL0     H21129   4.866   3.536  11.674 -0.3282 -0.9267  0.5019
  878MOL0     H21130   5.037   3.512  11.842 -2.0865 -1.4192  0.0442
  878MOL0     H21131   5.019   3.689  11.808  1.6000 -1.0416 -0.0533
  878MOL0     H21132   4.884   3.532  12.033  0.7381  0.5295  3.0968
  878MOL0     H21133   4.871   3.709  12.010  0.2918  0.1612 -2.0562
  878MOL0     H21134   5.100   3.748  12.067  2.3512 -1.1328  1.8359
  878MOL0     H21135   5.136   3.572  12.061  0.5281  0.2609 -0.5286
  878MOL0     H21136   5.021   3.748  12.270 -0.1859  1.2680 -2.2182
  878MOL0     H21137   4.945   3.593  12.252  0.7659  1.2820 -0.1764
  878MOL0     H21138   5.182   3.493  12.284  2.8941  0.3079 -0.2412
  878MOL0     H21139   5.116   3.595  12.416 -2.2149 -0.6023 -0.8160
  878MOL0     H21140   5.279   3.761  12.394 -0.6186 -1.0650  0.2485
  878MOL0     H21141   5.276   3.752  12.223  1.6802 -1.2632 -0.2069
  878MOL0     H21142   5.510   3.687  12.310  3.7038 -4.5514 -1.7466
  878MOL0     H21143   5.425   3.583  12.201 -1.3144  0.6757 -0.4115
  878MOL0     H21144   4.566   3.814  11.846 -3.1313 -0.2496  1.2150
  878MOL0     H21145   4.336   3.788  11.755 -0.4615  1.1004 -3.3551
  878MOL0     H21146   4.122   3.450  11.442 -0.3428 -1.4195 -0.9607
  878MOL0     H21147   3.943   3.353  11.340  3.4214  0.4795  1.1805
  878MOL0     H21148   2.441   2.294  11.235  0.4799  0.0323 -1.2808
  878MOL0     H21149   2.359   2.067  11.171  0.3661 -2.2906 -0.8648
  878MOL0     H21150   2.317   1.647  11.173 -0.4176 -0.3759 -0.4475
  878MOL0     H21151   2.215   1.429  11.147  1.2351 -2.9926  1.0439
  878MOL0     H21152   2.229   1.206  11.201  1.0437  0.7968  1.9236
  878MOL0     H21153   2.144   1.083  11.285 -1.3220 -0.9463 -0.7424
  878MOL0     H21154   2.033   1.081  11.102  1.9298 -0.1193  0.6453
  878MOL0     H21155   1.995   1.254  11.102 -0.8139  0.5128  1.6785
  878MOL0     H21156   1.882   1.039  11.292  0.0094  0.4998 -0.7372
  878MOL0     H21157   1.864   1.208  11.333 -0.6337  0.5168  0.1305
  878MOL0     H21158   1.667   1.126  11.226 -0.0842 -0.5035  0.5728
  878MOL0     H21159   1.775   1.072  11.092  2.4918  2.6912 -1.8568
  878MOL0     H21160   1.689   1.491  11.003 -2.9612  0.6248  1.1587
  878MOL0     H21161   2.160   1.394  11.549 -1.0576  1.0426  0.3751
  878MOL0     H21162   2.311   1.739  11.648  2.8968 -0.2288 -1.7716
  878MOL0     H21163   2.190   1.626  11.718 -0.9584  0.1304 -0.7979
  878MOL0     H21164   2.359   1.576  11.692  1.7651  2.4646  0.9620
  879MOL0     O21165   2.954  11.140  11.445 -0.0890  1.0490 -0.2315
  879MOL0     C21166   2.989  11.100  11.556 -0.0103 -0.4360  1.2169
  879MOL0     O21167   3.020  11.175  11.668 -0.4494 -0.7215  0.5687
  879MOL0     C21168   3.023  11.319  11.673  0.5431 -0.2556  0.3179
  879MOL0     C21169   3.122  11.385  11.744 -0.2317 -0.2982  0.4998
  879MOL0     C21170   3.134  11.523  11.747 -0.3480 -0.1091 -0.6054
  879MOL0     C21171   3.039  11.603  11.685  1.3352 -0.1438 -0.2784
  879MOL0     O21172   3.059  11.743  11.689  0.4335  0.0070  0.1210
  879MOL0     C21173   2.935  11.812  11.709  1.4037  0.8045 -0.5669
  879MOL0     C21174   2.969  11.951  11.759  0.3026  0.0258 -0.5281
  879MOL0     C21175   2.958  11.975  11.905  0.6560  0.2817 -0.1224
  879MOL0     C21176   2.805  11.980  11.957  0.1960  0.0121 -0.6409
  879MOL0     C21177   2.799  11.973  12.110  0.2417 -0.5768  0.0588
  879MOL0     C21178   2.660  12.028  12.156  0.3028  0.7158  0.8767
  879MOL0     C21179   2.667  12.073  12.296  0.0132  0.2667 -0.7868
  879MOL0     C21180   2.541  12.150  12.326  0.0977  0.3100  0.4355
  879MOL0     N21181   2.519  12.170  12.469 -0.3610  0.1462  0.0864
  879MOL0     C21182   2.525  12.287  12.540 -0.2836  0.8099 -0.5186
  879MOL0     C21183   2.496  12.251  12.665  0.8406 -0.2790  0.7623
  879MOL0     C21184   2.502  12.343  12.786  0.0186 -0.1329 -0.5547
  879MOL0     C21185   2.648  12.390  12.826 -0.2371 -0.1064 -0.1460
  879MOL0     C21186   2.745  12.279  12.869  0.4147 -0.3648 -0.0283
  879MOL0     C21187   2.882  12.327  12.910  0.9258 -0.1933  0.0899
  879MOL0     O21188   2.945  12.230  12.996  0.3089 -0.7287 -0.2569
  879MOL0     C21189   3.077  12.243  13.040  0.2134  0.4651 -0.0615
  879MOL0     C21190   3.159  12.350  13.013  0.1798  0.1131 -0.5715
  879MOL0     C21191   3.295  12.354  13.061 -0.0282 -0.6402 -1.7300
  879MOL0     C21192   3.366  12.489  13.043 -0.4164 -0.1498  0.6816
  879MOL0     C21193   3.347  12.252  13.143  0.3307 -0.3190  0.6689
  879MOL0     C21194   3.493  12.252  13.187  0.6531  0.2889 -0.4053
  879MOL0     O21195   3.535  12.139  13.239 -0.3021  0.7835 -0.0897
  879MOL0     C21196   3.668  12.101  13.213 -0.6169 -0.0132  0.2499
  879MOL0     C21197   3.750  12.035  13.307 -0.3197 -0.1197 -0.7179
  879MOL0     C21198   3.870  11.973  13.270  0.2623  0.3154 -0.7521
  879MOL0     C21199   3.911  11.967  13.137  0.6308  0.9067  0.6139
  879MOL0     O21200   4.018  11.886  13.106 -0.4294  0.5157  0.3121
  879MOL0     C21201   4.146  11.923  13.165 -0.7161 -0.2377 -0.2268
  879MOL0     C21202   4.266  11.835  13.127 -0.4599  0.2188 -0.0040
  879MOL0     C21203   4.223  11.696  13.144 -0.0451  0.3813 -0.3230
  879MOL0     C21204   4.347  11.609  13.150  0.2068  0.4079 -0.3612
  879MOL0     C21205   4.392  11.570  13.292 -0.0986  0.9502  0.1499
  879MOL0     C21206   4.508  11.469  13.295 -0.5822 -0.5754 -0.6114
  879MOL0     C21207   4.553  11.460  13.444 -0.9297 -0.2390 -0.3868
  879MOL0     C21208   4.661  11.359  13.468  0.2459 -0.6191  0.3109
  879MOL0    Cl21209   4.716  11.369  13.644  0.9695  0.0275 -0.0874
  879MOL0     C21210   3.827  12.031  13.044 -0.4844 -0.3587  0.3352
  879MOL0     C21211   3.706  12.093  13.080  1.0328 -0.7380 -0.6683
  879MOL0     O21212   3.569  12.342  13.156  0.6328 -0.0774 -0.6152
  879MOL0     C21213   3.271  12.147  13.168  0.1420 -0.1479  0.0461
  879MOL0     C21214   3.136  12.146  13.122  0.6735  0.5558  0.1174
  879MOL0     N21215   2.477  12.115  12.675  0.1765 -0.3257 -0.7384
  879MOL0     N21216   2.496  12.067  12.559 -0.5664  0.1792 -0.4641
  879MOL0     C21217   2.940  11.536  11.617 -0.6603  0.2926  0.0911
  879MOL0     C21218   2.931  11.401  11.603  0.0542  0.5642  0.4558
  879MOL0     C21219   3.015  10.951  11.555 -1.3968 -1.1960  0.4356
  879MOL0     C21220   3.127  10.896  11.614 -0.3773  0.2301  0.3961
  879MOL0     C21221   3.152  10.759  11.614  0.4082 -0.1657  0.2107
  879MOL0     C21222   3.067  10.667  11.566 -0.0307 -0.5242  0.5629
  879MOL0     O21223   3.080  10.536  11.559 -0.1146  0.0109  0.4603
  879MOL0     C21224   3.192  10.464  11.616  1.1723  0.3386 -0.9648
  879MOL0     C21225   3.178  10.440  11.780 -0.2793  0.3785  0.7829
  879MOL0     C21226   3.046  10.358  11.814 -0.7307 -0.7101 -1.1036
  879MOL0     C21227   2.996  10.380  11.965 -0.2288 -0.0594  0.3471
  879MOL0     C21228   3.089  10.350  12.079 -0.2803  0.5457 -0.2868
  879MOL0     C21229   3.165  10.346  12.173  0.4246  0.2488 -0.2010
  879MOL0     C21230   2.953  10.724  11.499 -0.6655  0.0612  0.2842
  879MOL0     C21231   2.925  10.860  11.492 -1.9152 -0.1054 -0.3071
  879MOL0     C21232   2.797  10.906  11.449  0.3090 -0.5329  0.0295
  879MOL0     H21233   3.199  11.327  11.793  1.6534  2.2161  0.7353
  879MOL0     H21234   3.209  11.575  11.806 -0.1904  0.0444 -0.9384
  879MOL0     H21235   2.872  11.760  11.782  0.4073  0.6038 -1.5510
  879MOL0     H21236   2.879  11.811  11.615  1.4135 -3.9968 -0.7595
  879MOL0     H21237   3.077  11.963  11.747  0.8148  1.4153  3.8970
  879MOL0     H21238   2.927  12.028  11.694 -0.3808  0.3789  0.3180
  879MOL0     H21239   3.015  11.901  11.961 -0.7391 -1.3320 -0.7347
  879MOL0     H21240   3.001  12.072  11.931 -4.1723  2.1536  2.2316
  879MOL0     H21241   2.771  12.074  11.912  1.2619  0.7340  0.0322
  879MOL0     H21242   2.750  11.899  11.907  0.1947  1.3503 -2.9194
  879MOL0     H21243   2.881  12.038  12.141 -0.3895  0.0238  0.5045
  879MOL0     H21244   2.811  11.870  12.145 -2.2501 -1.3007 -0.9501
  879MOL0     H21245   2.640  12.116  12.094  1.8736  1.6677  1.6455
  879MOL0     H21246   2.583  11.954  12.132  0.0778  0.4146  2.4167
  879MOL0     H21247   2.758  12.131  12.312  1.0828 -0.9378 -2.2348
  879MOL0     H21248   2.667  11.989  12.366 -0.2981  1.1699  0.3248
  879MOL0     H21249   2.529  12.237  12.260  0.7115  0.3268  0.3341
  879MOL0     H21250   2.454  12.089  12.302  0.6260 -0.7099  1.0653
  879MOL0     H21251   2.562  12.383  12.505  2.9050 -0.4740 -1.0491
  879MOL0     H21252   2.454  12.282  12.863  0.1429 -0.3547 -0.6486
  879MOL0     H21253   2.426  12.420  12.770 -0.9035 -1.0501 -0.7011
  879MOL0     H21254   2.690  12.430  12.733  0.1743 -0.7936 -0.2631
  879MOL0     H21255   2.635  12.469  12.901  1.2865  0.1358 -0.1068
  879MOL0     H21256   2.706  12.222  12.954  0.6239  1.2612  1.2225
  879MOL0     H21257   2.768  12.219  12.781  3.4808 -1.4749  1.3777
  879MOL0     H21258   2.945  12.331  12.821  1.0886 -1.9543  0.0832
  879MOL0     H21259   2.876  12.424  12.960 -1.5277 -1.5872  2.8294
  879MOL0     H21260   3.119  12.444  12.975  0.8701  1.5391  2.0260
  879MOL0     H21261   3.448  12.486  12.971 -0.0426 -0.3872  1.1098
  879MOL0     H21262   3.403  12.520  13.141 -1.4585  2.4951  0.3314
  879MOL0     H21263   3.311  12.574  13.001  1.7337  2.0486  1.9953
  879MOL0     H21264   3.718  12.044  13.410  1.3796  1.6732 -0.2812
  879MOL0     H21265   3.925  11.926  13.350 -2.2139 -1.0648  0.2536
  879MOL0     H21266   4.173  12.024  13.135  1.2327 -1.8239 -4.6302
  879MOL0     H21267   4.135  11.938  13.273 -0.9685  1.5816 -0.4789
  879MOL0     H21268   4.293  11.847  13.021 -2.5334  0.3663 -0.5655
  879MOL0     H21269   4.350  11.853  13.195  0.2956 -0.5383 -0.7164
  879MOL0     H21270   4.167  11.658  13.057  1.0296 -1.6605 -0.2019
  879MOL0     H21271   4.171  11.686  13.240  1.1335 -2.5931  0.1199
  879MOL0     H21272   4.434  11.650  13.096  0.8288 -0.5144 -0.0834
  879MOL0     H21273   4.316  11.522  13.092  0.6209  0.2273 -0.3148
  879MOL0     H21274   4.419  11.662  13.346  0.6226 -0.9423  3.2498
  879MOL0     H21275   4.314  11.525  13.353  1.5760 -0.5176  1.2956
  879MOL0     H21276   4.583  11.507  13.225  0.2016  1.7832  1.3970
  879MOL0     H21277   4.472  11.370  13.263  1.9090 -1.9972  0.6927
  879MOL0     H21278   4.463  11.430  13.498 -0.7604 -0.7703 -0.3948
  879MOL0     H21279   4.590  11.554  13.486  0.7328 -1.1958  0.4093
  879MOL0     H21280   4.750  11.361  13.404 -0.9650 -0.6112 -1.4760
  879MOL0     H21281   4.612  11.264  13.445  0.6020 -0.7316  0.0053
  879MOL0     H21282   3.852  12.019  12.939 -1.2621 -0.6800  0.1793
  879MOL0     H21283   3.639  12.131  13.003  2.5334 -3.3513 -3.4419
  879MOL0     H21284   3.301  12.059  13.224 -1.0957 -0.5840  0.0760
  879MOL0     H21285   3.059  12.083  13.165 -0.1791  1.6326  0.2146
  879MOL0     H21286   2.870  11.582  11.548 -0.8709 -1.1722 -0.6912
  879MOL0     H21287   2.850  11.363  11.543 -1.3896  0.8493  2.1450
  879MOL0     H21288   3.193  10.958  11.675 -0.9371 -0.8791  2.2309
  879MOL0     H21289   3.244  10.723  11.659  0.1908 -1.0997 -0.0504
  879MOL0     H21290   3.186  10.364  11.571  0.2993 -0.2281  0.3625
  879MOL0     H21291   3.290  10.507  11.595  1.6336 -0.6277 -0.8291
  879MOL0     H21292   3.164  10.539  11.823 -1.7466 -0.8313  3.3448
  879MOL0     H21293   3.263  10.383  11.818 -1.1499  0.1281  2.4625
  879MOL0     H21294   2.955  10.389  11.761  1.2101  3.4408 -2.4822
  879MOL0     H21295   3.065  10.254  11.787  1.4175 -1.2748  2.0539
  879MOL0     H21296   2.917  10.305  11.973  1.2224 -1.7065 -0.0227
  879MOL0     H21297   2.950  10.477  11.983 -0.3056 -0.5058  2.9425
  879MOL0     H21298   3.240  10.347  12.249 -0.8775 -2.2887  1.2662
  879MOL0     H21299   2.874  10.667  11.450  0.3534 -0.9009 -0.2731
  879MOL0     H21300   2.730  10.823  11.427  0.7919 -0.8989 -0.0664
  879MOL0     H21301   2.739  10.965  11.521 -1.5757  0.6867 -2.3652
  879MOL0     H21302   2.802  10.966  11.358  2.1071 -1.4009 -0.4953
  880MOL0     O21303   1.378   9.769   5.957 -0.3897 -0.1106  0.7551
  880MOL0     C21304   1.425   9.844   5.864 -0.2350 -0.1853 -0.2602
  880MOL0     O21305   1.495   9.963   5.891  0.5354  0.3101 -0.0399
  880MOL0     C21306   1.487  10.009   6.023  1.0653  0.1436  0.1428
  880MOL0     C21307   1.598  10.027   6.105  0.5163  0.7180  0.4428
  880MOL0     C21308   1.587  10.089   6.223 -0.1902  0.2794 -0.3513
  880MOL0     C21309   1.469  10.146   6.269 -0.5355  0.5839  0.3003
  880MOL0     O21310   1.469  10.221   6.389 -0.5303  0.2770  0.7649
  880MOL0     C21311   1.402  10.162   6.502  0.8363  0.2701  1.2130
  880MOL0     C21312   1.385  10.264   6.614  0.0332  0.0104  0.1867
  880MOL0     C21313   1.366  10.189   6.750 -0.0837 -0.1105 -0.0571
  880MOL0     C21314   1.350  10.292   6.861 -0.1620  0.2564 -0.1642
  880MOL0     C21315   1.329  10.221   6.987 -0.9332  0.3175  1.1849
  880MOL0     C21316   1.460  10.185   7.059 -0.7339 -0.5220  0.0731
  880MOL0     C21317   1.525  10.304   7.137 -0.1209 -0.4513  0.0673
  880MOL0     C21318   1.645  10.266   7.232 -0.3741 -0.9943 -0.1060
  880MOL0     N21319   1.762  10.220   7.159 -0.2977  0.1572  0.8895
  880MOL0     C21320   1.788  10.093   7.120  1.2337  0.4425  0.1215
  880MOL0     C21321   1.874  10.107   7.018  0.1533  0.9002 -0.3618
  880MOL0     C21322   1.935   9.996   6.938 -0.8848 -0.2693  0.3756
  880MOL0     C21323   1.992   9.891   7.033 -0.7824 -0.2162  0.4047
  880MOL0     C21324   2.043   9.777   6.938  0.0649 -0.3172 -0.3689
  880MOL0     C21325   2.075   9.645   7.011  0.0323 -0.0140 -0.7439
  880MOL0     O21326   2.178   9.681   7.100  0.3002  0.6061  0.3740
  880MOL0     C21327   2.277   9.590   7.125 -0.0912 -0.8248 -0.4248
  880MOL0     C21328   2.249   9.455   7.109 -0.1238  0.5531  0.5301
  880MOL0     C21329   2.353   9.361   7.145  0.1765 -0.0242 -0.0996
  880MOL0     C21330   2.315   9.217   7.151  0.0376 -0.1400  0.0500
  880MOL0     C21331   2.486   9.404   7.163 -0.2311  0.6242  0.0876
  880MOL0     C21332   2.599   9.302   7.180 -0.1883 -0.0169 -0.1930
  880MOL0     O21333   2.605   9.218   7.283  0.3606 -0.9651 -0.0640
  880MOL0     C21334   2.678   9.098   7.270  0.9870 -0.6761  0.2076
  880MOL0     C21335   2.630   8.993   7.188  0.3493 -0.5763 -0.1754
  880MOL0     C21336   2.711   8.876   7.178 -0.6204  0.6160 -0.2744
  880MOL0     C21337   2.822   8.857   7.258 -0.0642 -0.3911  0.3412
  880MOL0     O21338   2.890   8.740   7.247 -0.5365  1.0120 -0.0768
  880MOL0     C21339   3.016   8.704   7.319  0.3996  0.4390 -0.7743
  880MOL0     C21340   2.989   8.674   7.466  0.6316  0.2870  0.5472
  880MOL0     C21341   3.121   8.653   7.548 -0.0370 -0.0716 -0.1683
  880MOL0     C21342   3.145   8.756   7.660 -0.3955  0.4549  0.1637
  880MOL0     C21343   3.242   8.696   7.766  0.1976  0.3882  0.6230
  880MOL0     C21344   3.386   8.720   7.737  0.6725 -0.3067  0.0003
  880MOL0     C21345   3.469   8.638   7.835  0.0706  0.0269 -0.3882
  880MOL0     C21346   3.614   8.633   7.788 -0.0196  0.1820 -0.9530
  880MOL0    Cl21347   3.629   8.513   7.656 -0.0353 -0.1266  0.1734
  880MOL0     C21348   2.873   8.970   7.331 -0.0932 -0.6199  0.4149
  880MOL0     C21349   2.798   9.087   7.342 -0.5793 -0.0436  0.1982
  880MOL0     O21350   2.668   9.292   7.071  0.7505  0.1079 -0.2229
  880MOL0     C21351   2.517   9.542   7.162  0.9602  0.5855 -0.3413
  880MOL0     C21352   2.404   9.633   7.157 -0.2415  0.0257 -0.3149
  880MOL0     N21353   1.903  10.245   7.002 -0.3901 -0.7026  0.4819
  880MOL0     N21354   1.835  10.313   7.083  0.1924  0.4540 -0.4816
  880MOL0     C21355   1.348  10.119   6.199 -0.0821 -0.8720  0.3020
  880MOL0     C21356   1.361  10.052   6.074 -0.1328  0.5474 -0.5813
  880MOL0     C21357   1.433   9.801   5.715 -0.5132  0.4383 -0.6564
  880MOL0     C21358   1.401   9.665   5.690  0.2382 -0.1360 -0.6930
  880MOL0     C21359   1.422   9.611   5.556 -0.0563  0.2835 -0.1883
  880MOL0     C21360   1.478   9.693   5.455  0.5623  0.0502  0.1488
  880MOL0     O21361   1.514   9.643   5.325 -0.2235 -0.1654 -0.6253
  880MOL0     C21362   1.402   9.586   5.256  0.0726  0.1628 -0.0026
  880MOL0     C21363   1.433   9.644   5.108 -0.2067  0.4023  0.1910
  880MOL0     C21364   1.354   9.767   5.078  0.4989 -0.4521 -0.9070
  880MOL0     C21365   1.416   9.836   4.952 -0.0513 -0.4210  0.3332
  880MOL0     C21366   1.551   9.904   4.974  0.1171 -0.2420  0.0164
  880MOL0     C21367   1.664   9.960   4.995 -0.4535  0.4710  0.0137
  880MOL0     C21368   1.483   9.832   5.478  0.0672  1.0136  0.4543
  880MOL0     C21369   1.459   9.883   5.605  0.6060 -0.1386 -0.0783
  880MOL0     C21370   1.463  10.034   5.617  0.2745 -0.4020  0.5933
  880MOL0     H21371   1.693   9.991   6.068 -0.9007 -3.1785  0.0973
  880MOL0     H21372   1.671  10.095   6.292  0.1574  1.1787 -0.8379
  880MOL0     H21373   1.468  10.082   6.535  2.2531  0.3751 -1.1653
  880MOL0     H21374   1.307  10.122   6.464  2.7866 -2.0013 -1.7127
  880MOL0     H21375   1.465  10.339   6.613 -0.7832  0.9600  1.7618
  880MOL0     H21376   1.298  10.325   6.589  2.2209  2.6861 -1.6013
  880MOL0     H21377   1.276  10.127   6.744  0.7403 -1.3872  0.2575
  880MOL0     H21378   1.449  10.121   6.773 -2.0975 -1.9868  2.1451
  880MOL0     H21379   1.432  10.364   6.861  1.8716 -1.9237 -1.3645
  880MOL0     H21380   1.261  10.341   6.822  2.2192  2.8530 -2.7919
  880MOL0     H21381   1.276  10.129   6.959 -0.1211  0.3472 -0.6310
  880MOL0     H21382   1.261  10.271   7.056 -0.7508  0.3760  1.3228
  880MOL0     H21383   1.452  10.099   7.125  2.6071 -3.8388 -3.3540
  880MOL0     H21384   1.542  10.142   7.001  0.0680 -1.1394  1.6012
  880MOL0     H21385   1.447  10.351   7.199 -0.0771  1.5080 -1.2762
  880MOL0     H21386   1.554  10.371   7.056 -1.1445 -0.1518 -0.0739
  880MOL0     H21387   1.681  10.352   7.288  0.5560 -3.5017  3.5287
  880MOL0     H21388   1.613  10.201   7.313 -1.4088 -0.3273  0.0302
  880MOL0     H21389   1.744  10.008   7.171  2.0414 -0.4052 -0.5508
  880MOL0     H21390   2.012  10.044   6.876 -0.8347 -1.7396 -0.7632
  880MOL0     H21391   1.860   9.944   6.879  1.1656 -0.8636 -1.8964
  880MOL0     H21392   2.074   9.937   7.090  0.7820 -1.4139 -0.7919
  880MOL0     H21393   1.922   9.850   7.106 -0.6050 -1.0491  0.1080
  880MOL0     H21394   1.956   9.748   6.879 -2.2018  2.4183  1.4022
  880MOL0     H21395   2.127   9.809   6.875  1.6886 -1.9421  0.8611
  880MOL0     H21396   1.986   9.599   7.055 -1.0133  3.0395  0.6890
  880MOL0     H21397   2.117   9.579   6.935 -1.5677  0.1587 -1.8169
  880MOL0     H21398   2.155   9.414   7.074 -0.6343  1.5608  0.6851
  880MOL0     H21399   2.382   9.159   7.086 -1.8259 -3.2645  0.7101
  880MOL0     H21400   2.216   9.207   7.106  0.6422 -0.9183 -1.1862
  880MOL0     H21401   2.329   9.183   7.254 -1.8953  1.9486  1.0797
  880MOL0     H21402   2.542   9.014   7.129 -1.2566 -3.2028  1.1020
  880MOL0     H21403   2.683   8.797   7.108  1.0375 -0.4140  0.1696
  880MOL0     H21404   3.064   8.618   7.271 -0.8240 -1.6946  1.6277
  880MOL0     H21405   3.092   8.783   7.313  3.4351 -2.1698  0.4137
  880MOL0     H21406   2.942   8.763   7.511  0.6917 -0.2977  1.8085
  880MOL0     H21407   2.922   8.587   7.471  2.7411 -1.4351  0.0799
  880MOL0     H21408   3.207   8.635   7.482 -0.2179  1.3620 -0.8383
  880MOL0     H21409   3.111   8.554   7.594 -0.0237 -0.7039 -1.4660
  880MOL0     H21410   3.047   8.764   7.708  0.1515  1.7297  1.1352
  880MOL0     H21411   3.186   8.852   7.626  3.7907 -1.4400 -0.7614
  880MOL0     H21412   3.231   8.738   7.866  0.0793  1.4893  0.1648
  880MOL0     H21413   3.214   8.590   7.766 -2.6795  1.0386 -0.7194
  880MOL0     H21414   3.407   8.827   7.752  0.7161 -0.3424  0.1930
  880MOL0     H21415   3.405   8.696   7.632 -1.5661  0.1648 -0.5811
  880MOL0     H21416   3.428   8.537   7.850 -1.9924  0.8708  0.0556
  880MOL0     H21417   3.470   8.692   7.930 -1.8224  1.1650 -0.9545
  880MOL0     H21418   3.684   8.600   7.867  0.1407  0.5132 -0.9560
  880MOL0     H21419   3.640   8.737   7.770 -2.4821  1.8210  3.4676
  880MOL0     H21420   2.975   8.978   7.367  0.1447 -1.3842 -0.0538
  880MOL0     H21421   2.826   9.163   7.414 -0.1982 -0.7249  0.7854
  880MOL0     H21422   2.620   9.572   7.177  1.2105 -0.4537  0.1823
  880MOL0     H21423   2.417   9.739   7.175 -1.5616  0.4342 -1.5670
  880MOL0     H21424   1.260  10.163   6.244  1.3443  0.4504  1.9423
  880MOL0     H21425   1.265  10.035   6.025 -0.0138 -3.5573  0.1896
  880MOL0     H21426   1.368   9.598   5.769 -0.3023 -0.7951 -1.4598
  880MOL0     H21427   1.393   9.509   5.529  0.3109  0.6232 -1.9710
  880MOL0     H21428   1.404   9.477   5.258  4.0115  0.0738  2.9458
  880MOL0     H21429   1.304   9.625   5.284  0.7403  2.1613 -0.3112
  880MOL0     H21430   1.412   9.579   5.023 -0.2813  2.1754 -1.2038
  880MOL0     H21431   1.539   9.667   5.096  0.1032 -1.1212 -0.2089
  880MOL0     H21432   1.247   9.752   5.062  0.5003 -0.1431 -1.2194
  880MOL0     H21433   1.360   9.840   5.159  3.6644 -0.4061 -1.0560
  880MOL0     H21434   1.347   9.915   4.921  0.5099  1.2780  3.0224
  880MOL0     H21435   1.424   9.763   4.871  0.7306 -0.0866  0.0942
  880MOL0     H21436   1.766   9.992   4.993 -0.2258 -0.2550 -0.4711
  880MOL0     H21437   1.520   9.893   5.396  0.6765  1.3672  0.9898
  880MOL0     H21438   1.475  10.082   5.519  1.9747  1.2296  1.5423
  880MOL0     H21439   1.371  10.070   5.664 -1.0784 -2.8785  0.0468
  880MOL0     H21440   1.549  10.057   5.680 -1.1947  0.3814  2.3995
  881MOL0     O21441   1.247   3.082   3.122 -0.4508 -0.3327 -0.1604
  881MOL0     C21442   1.245   3.057   3.004  0.2114 -0.1854  0.6096
  881MOL0     O21443   1.354   3.067   2.927 -0.9253 -0.7111  0.3593
  881MOL0     C21444   1.462   3.139   2.968  0.3885 -0.9733 -0.8160
  881MOL0     C21445   1.561   3.074   3.035  0.2302 -1.5289 -0.2697
  881MOL0     C21446   1.663   3.150   3.086  0.1587 -0.3312 -0.0868
  881MOL0     C21447   1.688   3.288   3.052 -0.4877 -0.2228 -0.1754
  881MOL0     O21448   1.809   3.349   3.081 -0.3917  0.2676  0.3414
  881MOL0     C21449   1.870   3.456   3.003 -0.2450 -0.1372 -0.4755
  881MOL0     C21450   1.964   3.397   2.896 -0.3538 -0.4258  0.0733
  881MOL0     C21451   2.047   3.494   2.813 -0.2427 -0.6198  0.4272
  881MOL0     C21452   2.164   3.553   2.887  0.6652  0.2239 -0.0468
  881MOL0     C21453   2.235   3.659   2.796  0.0236  0.1833 -0.3473
  881MOL0     C21454   2.378   3.683   2.853  0.7984 -0.3231 -0.3568
  881MOL0     C21455   2.467   3.776   2.775  0.2996 -0.2267 -0.1089
  881MOL0     C21456   2.599   3.790   2.841 -0.1810  1.2317 -0.4999
  881MOL0     N21457   2.711   3.754   2.750  0.6042 -0.2284 -0.3203
  881MOL0     C21458   2.765   3.846   2.670  0.2575  0.3298  0.1596
  881MOL0     C21459   2.865   3.783   2.603  0.0570 -0.8229 -0.3606
  881MOL0     C21460   2.952   3.835   2.497  0.3605 -0.1683  0.2121
  881MOL0     C21461   3.056   3.939   2.534 -0.3037 -0.4814 -0.3327
  881MOL0     C21462   3.154   3.978   2.426 -0.0021 -0.3178  0.4756
  881MOL0     C21463   3.253   4.084   2.463  0.0108  0.3377  0.2775
  881MOL0     O21464   3.368   4.036   2.533  0.7129  0.6799  0.7963
  881MOL0     C21465   3.457   4.128   2.588  0.8042  0.7705  0.4298
  881MOL0     C21466   3.446   4.264   2.586  0.1011 -1.4329  0.1204
  881MOL0     C21467   3.560   4.346   2.625 -0.2476 -0.3226 -0.0126
  881MOL0     C21468   3.521   4.491   2.614 -0.6192  0.9211 -0.3596
  881MOL0     C21469   3.681   4.288   2.677  0.9132  0.8697 -0.9809
  881MOL0     C21470   3.805   4.358   2.714 -0.9579  0.0111  0.7912
  881MOL0     O21471   3.877   4.314   2.829 -0.9262  0.0808 -0.8303
  881MOL0     C21472   3.983   4.390   2.879 -0.7699 -0.0481  0.5447
  881MOL0     C21473   4.117   4.349   2.866  0.5570 -0.0006  0.9381
  881MOL0     C21474   4.212   4.425   2.933 -0.4330  0.0627 -0.3499
  881MOL0     C21475   4.184   4.547   3.000  1.0023  0.3740 -0.5691
  881MOL0     O21476   4.272   4.622   3.068 -0.5056  0.2643 -0.2742
  881MOL0     C21477   4.343   4.705   2.975 -0.5077 -0.4716  0.1071
  881MOL0     C21478   4.373   4.836   3.043 -0.4563 -0.6499  0.5061
  881MOL0     C21479   4.255   4.935   3.066 -0.0497  0.1932  1.1253
  881MOL0     C21480   4.293   5.046   3.166 -0.2730 -0.4663  0.0883
  881MOL0     C21481   4.190   5.155   3.182  0.3017  0.0873  0.2953
  881MOL0     C21482   4.209   5.274   3.070 -0.5661 -0.3523 -0.2173
  881MOL0     C21483   4.083   5.360   3.056  0.5687  0.2125  0.0261
  881MOL0     C21484   4.092   5.472   2.956  0.4811  0.5456  0.4492
  881MOL0    Cl21485   4.222   5.593   2.998  0.2364 -0.0700  0.2537
  881MOL0     C21486   4.052   4.590   2.991  0.8628  0.1511  0.4328
  881MOL0     C21487   3.949   4.509   2.944 -0.8209 -0.5967 -0.0282
  881MOL0     O21488   3.845   4.439   2.626  0.1890 -0.3208 -0.4237
  881MOL0     C21489   3.678   4.149   2.685 -1.5095 -0.0899  0.0633
  881MOL0     C21490   3.573   4.073   2.635  0.3086  0.3076  0.4750
  881MOL0     N21491   2.870   3.653   2.650  0.2664 -0.5989 -0.8825
  881MOL0     N21492   2.774   3.639   2.739  0.0871 -0.0388  0.1853
  881MOL0     C21493   1.592   3.354   2.983  1.7113 -0.3000 -0.2404
  881MOL0     C21494   1.474   3.280   2.944  0.3530  0.5825 -0.7293
  881MOL0     C21495   1.126   2.993   2.943  0.1395 -0.1605  0.1906
  881MOL0     C21496   1.145   2.926   2.823  1.4360  0.0597  0.0628
  881MOL0     C21497   1.041   2.846   2.765  0.5029  0.7065  0.0791
  881MOL0     C21498   0.916   2.840   2.824  1.3096 -1.4364  0.0266
  881MOL0     O21499   0.813   2.784   2.762  0.0282 -0.4793  0.0315
  881MOL0     C21500   0.671   2.795   2.797  0.0814 -0.3134  0.8954
  881MOL0     C21501   0.624   2.675   2.873 -0.6431 -0.2082  0.6112
  881MOL0     C21502   0.478   2.637   2.860 -1.1113  0.1475 -0.1923
  881MOL0     C21503   0.375   2.751   2.887  0.1571  0.3398  0.2266
  881MOL0     C21504   0.371   2.776   3.032 -0.5717  0.6299  0.5136
  881MOL0     C21505   0.380   2.791   3.156 -1.0286  0.4248  0.2398
  881MOL0     C21506   0.897   2.900   2.955  0.5109 -0.7041  0.5214
  881MOL0     C21507   1.003   2.971   3.017 -0.4093  0.4367  0.3126
  881MOL0     C21508   0.971   2.996   3.153 -0.6032 -0.5823  0.2725
  881MOL0     H21509   1.553   2.966   3.046  1.9897 -1.6589  0.0152
  881MOL0     H21510   1.730   3.102   3.157 -0.1500 -0.4281  0.1422
  881MOL0     H21511   1.934   3.517   3.067  2.0666 -0.9341 -1.8883
  881MOL0     H21512   1.809   3.535   2.959 -3.1788 -3.3622 -2.6918
  881MOL0     H21513   2.038   3.326   2.937 -0.0819 -0.8125 -1.0442
  881MOL0     H21514   1.905   3.329   2.833  0.5060 -2.2184  1.1239
  881MOL0     H21515   2.091   3.451   2.723  1.8509  0.1106  1.0427
  881MOL0     H21516   1.981   3.577   2.785 -0.7177  0.2039  3.5616
  881MOL0     H21517   2.140   3.598   2.983  0.7042  0.3740 -0.1069
  881MOL0     H21518   2.223   3.462   2.902  0.1937 -0.4269 -1.8017
  881MOL0     H21519   2.180   3.753   2.797  1.9102  1.3901  2.2939
  881MOL0     H21520   2.239   3.629   2.691 -0.2916 -1.5384  0.0989
  881MOL0     H21521   2.360   3.726   2.952 -1.4445 -1.0656 -0.3860
  881MOL0     H21522   2.426   3.585   2.862  1.1889 -0.0212  1.3127
  881MOL0     H21523   2.416   3.872   2.765 -0.1140 -0.2757  1.3680
  881MOL0     H21524   2.487   3.742   2.672 -0.1920  1.3306 -0.7500
  881MOL0     H21525   2.623   3.886   2.888  1.0717  0.7309 -0.0612
  881MOL0     H21526   2.585   3.724   2.927 -2.5501  1.5605 -0.5604
  881MOL0     H21527   2.735   3.951   2.666  1.1194  0.5845  0.2388
  881MOL0     H21528   2.895   3.865   2.409 -1.1813 -4.4925 -0.5259
  881MOL0     H21529   3.022   3.757   2.463  1.6911  1.9338 -2.2414
  881MOL0     H21530   3.001   4.022   2.579 -1.0079 -1.4936  0.7150
  881MOL0     H21531   3.119   3.885   2.605 -3.0014  1.5850  4.0158
  881MOL0     H21532   3.213   3.892   2.389  0.8156  0.0125  0.9858
  881MOL0     H21533   3.095   4.009   2.339  0.9319  1.7528  0.5306
  881MOL0     H21534   3.283   4.140   2.374 -1.4537 -0.9358 -1.0858
  881MOL0     H21535   3.205   4.156   2.529 -0.3370  1.7746 -1.4611
  881MOL0     H21536   3.355   4.315   2.557  1.2910  0.5831 -0.2219
  881MOL0     H21537   3.452   4.507   2.531 -1.4421 -2.6676 -0.5084
  881MOL0     H21538   3.602   4.563   2.596 -1.0122  1.5530  0.3886
  881MOL0     H21539   3.460   4.517   2.700 -3.0103 -3.9847 -0.2501
  881MOL0     H21540   4.147   4.267   2.802  1.6840 -0.2511  1.7461
  881MOL0     H21541   4.310   4.380   2.923 -0.4614 -0.4268  1.3238
  881MOL0     H21542   4.439   4.663   2.944 -0.4286 -0.4109  0.2664
  881MOL0     H21543   4.278   4.725   2.890 -1.1678  3.2723  1.3073
  881MOL0     H21544   4.413   4.811   3.142 -0.6340 -2.2286  0.2054
  881MOL0     H21545   4.450   4.889   2.986 -1.7258 -0.5040 -1.1694
  881MOL0     H21546   4.173   4.876   3.107 -1.5402 -0.2454 -2.1588
  881MOL0     H21547   4.218   4.964   2.967  0.1222 -2.3920  0.2257
  881MOL0     H21548   4.385   5.095   3.132 -0.6319 -1.0091 -1.7998
  881MOL0     H21549   4.307   5.008   3.268 -3.1156  0.7336  1.0011
  881MOL0     H21550   4.086   5.121   3.185  0.5455 -0.7656 -0.4664
  881MOL0     H21551   4.207   5.190   3.284 -1.9766 -0.9452  1.0882
  881MOL0     H21552   4.237   5.236   2.971  1.4501  2.1610 -0.7381
  881MOL0     H21553   4.299   5.332   3.096 -0.7483 -1.0045  2.0588
  881MOL0     H21554   4.055   5.395   3.156  0.6871 -0.9046  0.4697
  881MOL0     H21555   4.005   5.294   3.015  1.1811 -0.2347 -0.4406
  881MOL0     H21556   3.999   5.530   2.955  0.3220  0.4224  2.5985
  881MOL0     H21557   4.121   5.419   2.865  0.1083 -0.1603  0.7376
  881MOL0     H21558   4.031   4.688   3.033 -0.9737 -0.0878  0.1688
  881MOL0     H21559   3.843   4.532   2.942 -0.3956  1.5291 -0.9481
  881MOL0     H21560   3.766   4.089   2.705 -1.5427 -1.4493 -3.1918
  881MOL0     H21561   3.586   3.966   2.621 -1.9106  0.0212  0.1183
  881MOL0     H21562   1.587   3.455   2.944 -3.0513  0.2341  1.0969
  881MOL0     H21563   1.394   3.321   2.884 -0.8110  0.9740  1.0324
  881MOL0     H21564   1.237   2.925   2.765  0.2018 -1.9523 -2.0641
  881MOL0     H21565   1.062   2.784   2.679 -3.6691 -0.4172 -0.3153
  881MOL0     H21566   0.649   2.891   2.844  0.6710  0.2899 -0.0354
  881MOL0     H21567   0.617   2.793   2.702  0.2823 -2.0564  0.7786
  881MOL0     H21568   0.650   2.702   2.976  0.6971  2.7795 -0.3890
  881MOL0     H21569   0.689   2.588   2.858  1.1815  0.9867  1.2002
  881MOL0     H21570   0.458   2.592   2.763  3.2422 -0.4763 -1.0075
  881MOL0     H21571   0.458   2.557   2.933  0.2730  0.0006  0.0584
  881MOL0     H21572   0.271   2.722   2.867  0.1158  0.5757  0.0971
  881MOL0     H21573   0.393   2.841   2.829  0.4791 -0.4883 -0.9887
  881MOL0     H21574   0.391   2.812   3.260 -3.1939  4.3846 -0.0893
  881MOL0     H21575   0.802   2.885   3.005 -1.2773 -0.9580 -2.6667
  881MOL0     H21576   0.874   2.973   3.198 -0.6834  0.7635  0.8164
  881MOL0     H21577   1.041   2.937   3.213  0.3166  1.7915  1.6936
  881MOL0     H21578   0.988   3.096   3.195 -0.0645 -0.5374 -0.0369
  882MOL0     O21579   8.952   1.796  10.613  0.3126 -0.3403 -0.4284
  882MOL0     C21580   8.851   1.728  10.587  0.6682 -0.4971 -0.3363
  882MOL0     O21581   8.746   1.777  10.520  0.8506 -0.2556 -0.6497
  882MOL0     C21582   8.747   1.907  10.476  0.5405 -0.3531  1.1857
  882MOL0     C21583   8.631   1.987  10.490  0.1027  1.5242  1.0416
  882MOL0     C21584   8.630   2.118  10.448 -0.3230  0.0772 -0.1471
  882MOL0     C21585   8.740   2.170  10.374  0.3880  0.0432  1.1588
  882MOL0     O21586   8.749   2.288  10.306 -0.2340 -0.1748  0.0319
  882MOL0     C21587   8.645   2.384  10.324 -0.4493  1.1160 -0.2302
  882MOL0     C21588   8.682   2.525  10.268 -0.4372  0.6537 -0.3350
  882MOL0     C21589   8.575   2.629  10.318  0.1211 -0.0230  0.0080
  882MOL0     C21590   8.428   2.602  10.273  1.1036  0.2014  0.5022
  882MOL0     C21591   8.338   2.718  10.328 -0.3358  0.0248  0.6174
  882MOL0     C21592   8.193   2.713  10.280  0.9936  0.8943 -0.3279
  882MOL0     C21593   8.111   2.585  10.323 -0.1634  0.2536 -0.4025
  882MOL0     C21594   8.105   2.563  10.478 -0.0594  0.6996  0.8013
  882MOL0     N21595   8.182   2.441  10.506 -0.5035 -0.3888 -0.6060
  882MOL0     C21596   8.116   2.323  10.504  0.5601  0.2395 -0.6569
  882MOL0     C21597   8.214   2.233  10.531 -0.2264  0.4255 -0.7702
  882MOL0     C21598   8.188   2.092  10.532 -0.1391  0.0129  0.1196
  882MOL0     C21599   8.280   2.019  10.434  0.3803 -0.1790 -0.2714
  882MOL0     C21600   8.233   2.027  10.284  0.0260  0.1736  0.3988
  882MOL0     C21601   8.208   2.174  10.237  0.5499  0.2062 -0.2309
  882MOL0     O21602   8.237   2.174  10.101  0.1192 -0.5607  0.8121
  882MOL0     C21603   8.177   2.277  10.030 -0.1912  0.8153 -0.1247
  882MOL0     C21604   8.237   2.406  10.017 -0.0811 -0.7385  0.2183
  882MOL0     C21605   8.177   2.503   9.933 -0.0349  0.9030 -0.1008
  882MOL0     C21606   8.259   2.629   9.907  0.0808  0.0007 -0.1027
  882MOL0     C21607   8.053   2.471   9.860 -1.1988 -0.3665 -0.1457
  882MOL0     C21608   7.975   2.575   9.789  0.2436  0.2294 -0.8756
  882MOL0     O21609   7.845   2.547   9.752 -0.3104  0.3652  0.6000
  882MOL0     C21610   7.766   2.640   9.686  0.0861 -0.9083 -0.0626
  882MOL0     C21611   7.689   2.604   9.572  0.7092  0.2360  0.3040
  882MOL0     C21612   7.594   2.688   9.514  0.2880  0.5163  0.7166
  882MOL0     C21613   7.572   2.813   9.570 -0.3281 -0.6318  1.0801
  882MOL0     O21614   7.480   2.894   9.510 -0.5495  0.0465  0.3701
  882MOL0     C21615   7.376   2.944   9.587 -0.0746 -0.0721 -0.6643
  882MOL0     C21616   7.251   2.882   9.528  0.5274  0.7737 -0.5052
  882MOL0     C21617   7.135   2.910   9.617  0.4594 -0.0179  0.3490
  882MOL0     C21618   7.081   3.052   9.592 -0.3213 -0.1091  0.3419
  882MOL0     C21619   6.953   3.075   9.655 -0.1663 -0.4166 -1.1557
  882MOL0     C21620   6.838   3.067   9.557 -0.3421  0.0627 -0.9240
  882MOL0     C21621   6.703   3.083   9.613 -0.4682  0.3811 -0.0646
  882MOL0     C21622   6.677   3.218   9.678 -0.1742 -1.2070 -0.4935
  882MOL0    Cl21623   6.527   3.232   9.773 -0.0242 -0.1554  0.2664
  882MOL0     C21624   7.653   2.853   9.676 -0.1758 -0.4580  0.9638
  882MOL0     C21625   7.753   2.776   9.728  0.1044 -0.2468 -0.5995
  882MOL0     O21626   8.025   2.680   9.756  0.6872  0.1628  0.0483
  882MOL0     C21627   8.004   2.343   9.868  0.3521 -0.0410 -0.9996
  882MOL0     C21628   8.055   2.255   9.961 -0.0378  0.4325 -0.1328
  882MOL0     N21629   8.329   2.297  10.562  0.0915 -0.0030  0.0889
  882MOL0     N21630   8.311   2.426  10.543 -0.5535  0.6739  0.9751
  882MOL0     C21631   8.846   2.086  10.353  0.1188  0.3179  0.7319
  882MOL0     C21632   8.856   1.955  10.409 -0.0179 -1.2277  0.5278
  882MOL0     C21633   8.847   1.596  10.638 -0.7111 -0.0341 -0.2001
  882MOL0     C21634   8.839   1.491  10.542  0.6068  0.2039 -0.7358
  882MOL0     C21635   8.830   1.363  10.594  0.5205  0.0150 -0.3176
  882MOL0     C21636   8.856   1.337  10.735  0.2641 -0.1854 -0.3673
  882MOL0     O21637   8.840   1.215  10.785  0.5168 -0.0728  0.2411
  882MOL0     C21638   8.826   1.102  10.706 -0.0081  0.4990  0.2679
  882MOL0     C21639   8.838   0.961  10.786 -1.0150  0.3999  0.4664
  882MOL0     C21640   8.865   0.820  10.712  1.3471 -0.3129 -0.1365
  882MOL0     C21641   8.834   0.794  10.568  0.5212  0.0002  0.1353
  882MOL0     C21642   8.693   0.790  10.539  0.0661 -1.3051 -0.0520
  882MOL0     C21643   8.576   0.777  10.515  0.2209  0.9813  0.4064
  882MOL0     C21644   8.888   1.440  10.821  0.5773 -0.5412  0.3267
  882MOL0     C21645   8.885   1.577  10.773  1.4376  0.0109  0.4950
  882MOL0     C21646   8.912   1.688  10.870 -0.4876  0.3045 -0.2168
  882MOL0     H21647   8.545   1.948  10.542  0.0966 -0.7340 -0.5065
  882MOL0     H21648   8.554   2.191  10.476 -1.3741 -0.8258 -0.5419
  882MOL0     H21649   8.629   2.383  10.432 -1.1272 -0.3952 -0.3100
  882MOL0     H21650   8.558   2.355  10.264 -0.2949 -1.2190  0.5748
  882MOL0     H21651   8.784   2.550  10.299 -1.5554  4.1109  1.1120
  882MOL0     H21652   8.693   2.518  10.159 -3.2996 -0.5143 -0.6419
  882MOL0     H21653   8.587   2.638  10.426  0.1761 -3.2190  0.3743
  882MOL0     H21654   8.599   2.723  10.267 -0.3189  1.3579  2.2085
  882MOL0     H21655   8.424   2.601  10.163 -1.5462  2.3664  0.4924
  882MOL0     H21656   8.389   2.511  10.318  1.2091  0.0219  0.2301
  882MOL0     H21657   8.383   2.814  10.299  2.2116 -1.6722 -1.4988
  882MOL0     H21658   8.349   2.718  10.437  1.6939  1.1714  0.4789
  882MOL0     H21659   8.144   2.804  10.315  0.3006  0.6054 -0.5445
  882MOL0     H21660   8.190   2.722  10.171  5.1870  0.4098 -0.6414
  882MOL0     H21661   8.148   2.502  10.263  2.6989  1.2810 -0.2218
  882MOL0     H21662   8.010   2.598  10.283 -0.3549 -1.7707 -0.6750
  882MOL0     H21663   8.142   2.655  10.523 -1.2975  2.6274 -1.8381
  882MOL0     H21664   8.001   2.554  10.512  0.4836  0.2040  2.4335
  882MOL0     H21665   8.012   2.302  10.483  0.8667 -2.6020  0.1738
  882MOL0     H21666   8.085   2.063  10.509 -0.8616 -0.2341  3.2372
  882MOL0     H21667   8.215   2.065  10.634 -0.8109 -0.1755  0.2509
  882MOL0     H21668   8.380   2.062  10.442  0.5547 -0.3840 -1.1871
  882MOL0     H21669   8.280   1.913  10.460  2.8491 -0.1324  0.1975
  882MOL0     H21670   8.302   1.973  10.218 -2.9498 -3.3484 -0.1998
  882MOL0     H21671   8.132   1.985  10.280  0.4093 -1.1906  3.0108
  882MOL0     H21672   8.105   2.200  10.262  0.9487  1.3662  0.2702
  882MOL0     H21673   8.279   2.244  10.282  0.3454  0.0136  0.4014
  882MOL0     H21674   8.334   2.418  10.065 -1.2314  1.1550  2.2432
  882MOL0     H21675   8.347   2.627   9.971 -0.0309 -2.9187  0.1051
  882MOL0     H21676   8.205   2.720   9.936 -0.4345 -0.9926  2.3373
  882MOL0     H21677   8.293   2.627   9.803 -2.1981  0.9853 -0.9287
  882MOL0     H21678   7.710   2.512   9.517 -1.7695 -1.2006  1.5646
  882MOL0     H21679   7.556   2.658   9.417  2.1237  1.0009 -0.2025
  882MOL0     H21680   7.393   2.936   9.695 -2.5505 -0.3408 -0.2352
  882MOL0     H21681   7.359   3.047   9.556 -1.9002 -0.1484 -0.0819
  882MOL0     H21682   7.231   2.909   9.424 -1.6463  1.0503 -0.0523
  882MOL0     H21683   7.257   2.773   9.542 -0.3501  0.9130  1.1818
  882MOL0     H21684   7.167   2.906   9.721  0.3464 -0.4349  0.3670
  882MOL0     H21685   7.053   2.840   9.597 -0.3757  1.0852 -0.2291
  882MOL0     H21686   7.071   3.070   9.484  0.8858  0.2033  0.2642
  882MOL0     H21687   7.152   3.127   9.627 -1.0436  0.7220  0.0511
  882MOL0     H21688   6.915   3.005   9.730 -5.0408  2.9825  0.0666
  882MOL0     H21689   6.964   3.172   9.705  0.4949 -1.7417  1.4491
  882MOL0     H21690   6.853   2.969   9.509  3.1591 -0.3550  0.7184
  882MOL0     H21691   6.853   3.131   9.470  0.2606  0.5416 -0.4724
  882MOL0     H21692   6.679   2.994   9.672  1.7251 -0.0217  0.3152
  882MOL0     H21693   6.628   3.074   9.535 -2.0942 -1.2002  1.5760
  882MOL0     H21694   6.661   3.294   9.600 -3.8119 -0.8953  0.3723
  882MOL0     H21695   6.766   3.250   9.732 -1.5872  0.3529  1.0587
  882MOL0     H21696   7.635   2.954   9.711 -1.1026 -0.7021  1.2142
  882MOL0     H21697   7.814   2.822   9.806  1.4532  0.9404 -2.2647
  882MOL0     H21698   7.917   2.322   9.806 -0.7846 -0.4822  0.6666
  882MOL0     H21699   8.009   2.158   9.976  2.0705 -1.2557 -3.2131
  882MOL0     H21700   8.936   2.119  10.302 -0.3444 -2.4481 -2.2029
  882MOL0     H21701   8.948   1.902  10.389 -0.3013 -1.0775 -1.4023
  882MOL0     H21702   8.835   1.517  10.437  2.0092  1.5006 -0.4979
  882MOL0     H21703   8.807   1.279  10.530 -2.9850  0.0891  0.6494
  882MOL0     H21704   8.734   1.106  10.647  0.1795 -1.4146 -0.2075
  882MOL0     H21705   8.912   1.110  10.638 -0.9362  0.0325 -0.9920
  882MOL0     H21706   8.741   0.966  10.836 -3.0393 -2.1592 -2.7912
  882MOL0     H21707   8.919   0.974  10.859  1.6837  2.3325 -2.5684
  882MOL0     H21708   8.973   0.807  10.702  1.1920 -0.9389 -1.0354
  882MOL0     H21709   8.820   0.749  10.781 -1.1496  2.9905  1.9817
  882MOL0     H21710   8.866   0.695  10.533 -2.4362 -2.1306  2.7858
  882MOL0     H21711   8.870   0.879  10.510 -2.9619  2.5438  1.3371
  882MOL0     H21712   8.471   0.765  10.502  0.5658 -0.4281 -1.4920
  882MOL0     H21713   8.902   1.411  10.925  1.2686 -2.1043 -0.1635
  882MOL0     H21714   8.909   1.654  10.974  1.7121  0.4492 -0.0608
  882MOL0     H21715   9.016   1.723  10.867 -1.3350  3.0239 -2.3080
  882MOL0     H21716   8.851   1.779  10.862  0.3892  1.0068  0.7571
  883MOL0     O21717   6.746   1.544   4.335 -0.4457  0.0916 -0.6386
  883MOL0     C21718   6.752   1.420   4.328  0.4473  0.1601 -0.6085
  883MOL0     O21719   6.857   1.352   4.280 -0.9415  0.8382  0.4045
  883MOL0     C21720   6.970   1.419   4.228 -0.5266  1.1643  0.4095
  883MOL0     C21721   6.970   1.512   4.122 -0.2167 -0.1564 -0.3481
  883MOL0     C21722   7.088   1.583   4.098  0.0974 -0.9328 -0.8969
  883MOL0     C21723   7.206   1.567   4.166 -0.3816 -0.9693 -0.1343
  883MOL0     O21724   7.313   1.631   4.111 -0.2642 -0.4662 -0.0061
  883MOL0     C21725   7.400   1.712   4.195  0.0007 -0.4166  0.0767
  883MOL0     C21726   7.534   1.638   4.209 -0.2008 -0.0501  0.1535
  883MOL0     C21727   7.649   1.729   4.268  0.5156  0.5415 -0.0635
  883MOL0     C21728   7.718   1.822   4.171  0.4745  0.0217 -0.0937
  883MOL0     C21729   7.849   1.879   4.229  0.2137 -0.1095  1.0223
  883MOL0     C21730   7.911   1.987   4.137 -0.7550  0.3215 -0.2108
  883MOL0     C21731   8.017   2.068   4.218 -0.0367  0.4597  0.2005
  883MOL0     C21732   8.048   2.202   4.160  0.3597  0.3357 -0.1252
  883MOL0     N21733   8.111   2.172   4.027 -1.0050 -1.0797 -1.2191
  883MOL0     C21734   8.208   2.080   4.000  0.3925 -0.8255 -0.4860
  883MOL0     C21735   8.233   2.092   3.866 -0.6559  0.0503  0.1985
  883MOL0     C21736   8.331   2.004   3.787  0.1652  0.0575 -0.1742
  883MOL0     C21737   8.323   1.859   3.838  0.2836 -0.4623 -0.2778
  883MOL0     C21738   8.411   1.758   3.759 -0.2307  0.2145 -0.0576
  883MOL0     C21739   8.431   1.616   3.812  0.1493 -0.1159  0.0193
  883MOL0     O21740   8.315   1.592   3.895 -0.0163  0.3475 -0.0212
  883MOL0     C21741   8.286   1.464   3.922  0.0048 -0.2282  0.4761
  883MOL0     C21742   8.185   1.436   4.008 -0.0112  0.3138  0.4386
  883MOL0     C21743   8.132   1.310   4.034 -0.5080 -0.1722 -0.0899
  883MOL0     C21744   8.016   1.307   4.130  0.3290  0.0276 -0.5149
  883MOL0     C21745   8.195   1.200   3.974 -0.0755  0.0544 -0.6409
  883MOL0     C21746   8.147   1.063   3.998 -0.7135  0.3138  0.1540
  883MOL0     O21747   8.109   1.027   4.126 -0.3111  0.2868  0.5120
  883MOL0     C21748   8.083   0.892   4.147  0.8974  0.2043  0.2019
  883MOL0     C21749   8.174   0.808   4.202 -0.2845 -0.3795 -0.9346
  883MOL0     C21750   8.148   0.673   4.229 -0.2937  0.0025  0.0875
  883MOL0     C21751   8.019   0.616   4.215 -0.2474 -0.5965 -0.5811
  883MOL0     O21752   7.981   0.485   4.234 -0.3219  0.1706 -0.1985
  883MOL0     C21753   8.054   0.417   4.342 -0.2373 -1.0159  0.5157
  883MOL0     C21754   7.987   0.278   4.354 -0.8670 -0.5096  0.6720
  883MOL0     C21755   7.837   0.291   4.377 -0.5778  0.0033  0.9066
  883MOL0     C21756   7.792   0.376   4.490 -0.1887 -0.5208  0.1428
  883MOL0     C21757   7.647   0.384   4.520 -0.5338 -0.2261 -0.4308
  883MOL0     C21758   7.581   0.256   4.575  0.1388 -0.7070 -0.3127
  883MOL0     C21759   7.434   0.282   4.599  0.9155  0.5463  1.0221
  883MOL0     C21760   7.353   0.335   4.481 -0.3301 -0.6955  0.0922
  883MOL0    Cl21761   7.180   0.301   4.515 -0.1382  0.0919 -0.4534
  883MOL0     C21762   7.929   0.707   4.168  0.0920  0.0881  0.0537
  883MOL0     C21763   7.958   0.841   4.130 -0.1044 -0.3266  0.2832
  883MOL0     O21764   8.150   0.987   3.902 -0.0098 -0.0320  0.4893
  883MOL0     C21765   8.303   1.223   3.885  0.2176 -1.5408  0.0944
  883MOL0     C21766   8.350   1.352   3.860 -0.2893 -0.4044 -0.4374
  883MOL0     N21767   8.160   2.199   3.821  0.1680  0.2752  0.1630
  883MOL0     N21768   8.083   2.242   3.916 -0.6078 -0.5295  0.2486
  883MOL0     C21769   7.215   1.470   4.267  0.0402  0.2832  0.1430
  883MOL0     C21770   7.095   1.401   4.298  0.1520 -0.4544  0.1478
  883MOL0     C21771   6.641   1.343   4.399  0.0876 -0.4724 -0.7142
  883MOL0     C21772   6.554   1.263   4.319  0.1144 -0.2253 -0.4787
  883MOL0     C21773   6.459   1.177   4.375 -0.9194 -0.1073  0.3882
  883MOL0     C21774   6.444   1.183   4.513  0.6368 -0.7110 -0.1849
  883MOL0     O21775   6.365   1.097   4.575  0.7677  0.3886 -0.1848
  883MOL0     C21776   6.229   1.121   4.565  0.0246  0.5768 -0.3558
  883MOL0     C21777   6.168   0.978   4.533  0.9945 -0.4273  0.6399
  883MOL0     C21778   6.015   0.979   4.521 -0.5779 -0.1117 -0.1124
  883MOL0     C21779   5.951   0.850   4.483  0.7004 -1.0902 -0.4621
  883MOL0     C21780   5.826   0.816   4.556 -0.4854  0.3845  0.0952
  883MOL0     C21781   5.723   0.779   4.619  0.4163 -0.8666 -1.0732
  883MOL0     C21782   6.514   1.278   4.599  0.4472 -0.1552  1.2121
  883MOL0     C21783   6.618   1.347   4.535 -0.1152  0.3657 -0.1193
  883MOL0     C21784   6.702   1.435   4.629 -0.2570  1.0567 -0.9667
  883MOL0     H21785   6.884   1.532   4.059  0.1240 -0.6815 -0.9953
  883MOL0     H21786   7.096   1.645   4.010  1.3335  1.5864  0.8722
  883MOL0     H21787   7.363   1.742   4.294  0.7030 -1.5358  0.6983
  883MOL0     H21788   7.422   1.800   4.134  0.9392 -1.1086 -0.6048
  883MOL0     H21789   7.522   1.559   4.284  0.3977 -0.6251 -0.3416
  883MOL0     H21790   7.556   1.607   4.106 -2.3017 -0.9614 -0.0779
  883MOL0     H21791   7.617   1.790   4.352 -0.5734 -2.0067  1.4971
  883MOL0     H21792   7.725   1.655   4.297 -0.5489 -0.6533 -0.2265
  883MOL0     H21793   7.746   1.770   4.079 -0.8894  1.5249 -1.4159
  883MOL0     H21794   7.652   1.897   4.128  1.6143  0.9359 -0.2949
  883MOL0     H21795   7.915   1.792   4.237 -0.6611 -0.7674  1.2269
  883MOL0     H21796   7.818   1.923   4.324  0.4315 -1.4369  1.7361
  883MOL0     H21797   7.948   1.949   4.041  0.4069  0.8200  0.0261
  883MOL0     H21798   7.833   2.063   4.120 -1.0860  0.3762  1.4069
  883MOL0     H21799   8.109   2.010   4.228  1.2895  2.0377 -1.9831
  883MOL0     H21800   7.976   2.075   4.319 -2.1255 -0.1460 -0.5447
  883MOL0     H21801   7.954   2.257   4.148 -0.4515 -0.7298  1.1096
  883MOL0     H21802   8.122   2.258   4.219  0.4304 -1.0468  1.1627
  883MOL0     H21803   8.239   2.001   4.069  0.7644 -0.6178 -0.4136
  883MOL0     H21804   8.432   2.037   3.812  1.0073 -0.9454 -2.0131
  883MOL0     H21805   8.316   2.008   3.679  2.1454  0.8553 -0.4518
  883MOL0     H21806   8.346   1.852   3.945 -4.3357 -1.3112  0.9134
  883MOL0     H21807   8.217   1.830   3.831  0.0362  0.5496 -0.9656
  883MOL0     H21808   8.353   1.743   3.667  0.6156 -2.1523 -0.2714
  883MOL0     H21809   8.506   1.810   3.740 -0.3476  1.5047  2.5033
  883MOL0     H21810   8.467   1.552   3.731  0.1913  0.7147 -0.6351
  883MOL0     H21811   8.508   1.602   3.888  1.9853 -1.8442 -2.0441
  883MOL0     H21812   8.136   1.521   4.054 -0.7679  0.7228 -1.0583
  883MOL0     H21813   8.059   1.279   4.226 -1.6056 -0.8978  0.1232
  883MOL0     H21814   7.949   1.222   4.117  1.2796 -0.6638 -1.0982
  883MOL0     H21815   7.958   1.399   4.125  0.3462  0.1827  1.4595
  883MOL0     H21816   8.267   0.858   4.229 -0.8047 -0.5215  1.3211
  883MOL0     H21817   8.227   0.609   4.267  0.8088  0.6535 -1.0598
  883MOL0     H21818   8.158   0.408   4.307 -0.5689  0.7975 -1.0738
  883MOL0     H21819   8.049   0.477   4.434 -0.9037 -0.8462  0.3711
  883MOL0     H21820   7.995   0.209   4.269  0.2062  0.5138 -0.0870
  883MOL0     H21821   8.038   0.224   4.434  1.5611  1.8934  0.8831
  883MOL0     H21822   7.812   0.186   4.398 -2.1551  0.2208  0.2631
  883MOL0     H21823   7.787   0.321   4.285 -3.1029 -3.5660  0.8985
  883MOL0     H21824   7.834   0.477   4.488  0.6243 -0.8116  1.2667
  883MOL0     H21825   7.847   0.334   4.575 -0.7397  2.9515  2.3948
  883MOL0     H21826   7.635   0.451   4.606 -2.4344  1.3313 -1.8095
  883MOL0     H21827   7.596   0.431   4.436  1.2883  0.0291 -1.4478
  883MOL0     H21828   7.639   0.242   4.667 -0.7843  0.7175  0.5331
  883MOL0     H21829   7.593   0.176   4.502 -5.6885 -2.6783  0.3419
  883MOL0     H21830   7.422   0.348   4.685 -0.0404  0.9757  0.5686
  883MOL0     H21831   7.391   0.186   4.629  1.2019  0.1312  0.1226
  883MOL0     H21832   7.383   0.287   4.387  3.6603 -0.3400  1.0361
  883MOL0     H21833   7.368   0.442   4.463 -0.2901 -0.6778  0.2276
  883MOL0     H21834   7.824   0.681   4.154  0.8128 -2.0125 -1.8657
  883MOL0     H21835   7.880   0.900   4.083 -0.9308 -2.4282 -1.0910
  883MOL0     H21836   8.354   1.146   3.827 -2.1822 -1.6237 -2.0678
  883MOL0     H21837   8.417   1.350   3.774  0.0569  0.5467 -0.2051
  883MOL0     H21838   7.312   1.457   4.315 -1.0180 -0.3584  2.2711
  883MOL0     H21839   7.103   1.330   4.380 -5.1248 -1.1898  0.3935
  883MOL0     H21840   6.572   1.254   4.212 -0.9735  0.9538 -0.7837
  883MOL0     H21841   6.410   1.101   4.316 -1.1895  1.7120 -1.8519
  883MOL0     H21842   6.183   1.160   4.656  0.7180 -0.8071  0.6103
  883MOL0     H21843   6.202   1.187   4.481  0.5846 -1.4006 -2.1947
  883MOL0     H21844   6.202   0.903   4.605  2.3877  0.1297  0.6044
  883MOL0     H21845   6.218   0.962   4.437  0.9128 -0.0004  0.5254
  883MOL0     H21846   5.981   1.015   4.619  2.1348  2.1672  0.1413
  883MOL0     H21847   5.983   1.054   4.448 -1.0208  2.0235  2.1188
  883MOL0     H21848   6.026   0.775   4.508 -0.0982 -3.0481 -3.3666
  883MOL0     H21849   5.943   0.842   4.374 -0.7530 -0.7109 -0.4047
  883MOL0     H21850   5.636   0.745   4.673  0.9832  0.9611  1.1162
  883MOL0     H21851   6.474   1.290   4.699  0.8421  0.0321  1.3482
  883MOL0     H21852   6.807   1.407   4.620 -0.8178 -1.5630 -0.1716
  883MOL0     H21853   6.681   1.539   4.601  0.9746  1.1832 -1.4703
  883MOL0     H21854   6.680   1.425   4.735  2.0970  2.5574 -0.2756
  884MOL0     O21855   3.125   2.261   7.995 -0.0004 -0.5176  0.2245
  884MOL0     C21856   3.204   2.335   8.048 -0.9289 -0.3909  0.2942
  884MOL0     O21857   3.339   2.326   8.046 -0.0892 -0.5060  0.5625
  884MOL0     C21858   3.394   2.219   7.996 -0.4230  0.1546  0.1943
  884MOL0     C21859   3.455   2.235   7.872  0.1927 -0.5889 -0.8336
  884MOL0     C21860   3.523   2.127   7.814 -0.5607 -0.7512 -0.4079
  884MOL0     C21861   3.518   1.999   7.877  0.2118  1.2145  0.7850
  884MOL0     O21862   3.575   1.883   7.828  0.9249  0.7487  0.8021
  884MOL0     C21863   3.659   1.902   7.710 -0.1751 -0.4415  0.5021
  884MOL0     C21864   3.727   1.781   7.664 -0.8063  0.0376  1.0150
  884MOL0     C21865   3.809   1.698   7.770  0.0533  1.9113 -0.0685
  884MOL0     C21866   3.803   1.540   7.731  0.1250 -0.0369 -0.6610
  884MOL0     C21867   3.891   1.452   7.829  0.0565  0.6421  0.3116
  884MOL0     C21868   4.037   1.466   7.786 -1.0074  0.3498 -0.1163
  884MOL0     C21869   4.119   1.365   7.865  0.6032  0.1118  0.4757
  884MOL0     C21870   4.267   1.369   7.819 -0.5923  1.2632  0.2283
  884MOL0     N21871   4.341   1.258   7.891  0.6296  0.2283 -0.6470
  884MOL0     C21872   4.305   1.200   8.005  0.1274  0.1156 -1.3192
  884MOL0     C21873   4.411   1.109   8.023  0.7137  0.2498  0.4171
  884MOL0     C21874   4.414   1.009   8.128 -0.2870  0.2102 -0.5208
  884MOL0     C21875   4.452   1.059   8.274 -0.3081 -0.5276  0.3542
  884MOL0     C21876   4.363   1.156   8.361  0.7412 -0.4949 -0.0557
  884MOL0     C21877   4.220   1.096   8.369  0.1825  0.0632 -0.4678
  884MOL0     O21878   4.223   0.982   8.449 -0.5680  0.0924  0.4652
  884MOL0     C21879   4.117   0.906   8.443  0.6700  1.2188 -0.8315
  884MOL0     C21880   4.106   0.805   8.549  0.5182 -0.5934  0.9631
  884MOL0     C21881   3.994   0.714   8.556  0.1815  0.0553 -0.4348
  884MOL0     C21882   4.001   0.614   8.674 -0.3784 -0.4691 -0.2051
  884MOL0     C21883   3.895   0.720   8.456 -0.2800  0.1615 -0.1986
  884MOL0     C21884   3.766   0.641   8.471  1.2106  0.3224 -0.5785
  884MOL0     O21885   3.654   0.697   8.395  0.1976  0.2501  0.1380
  884MOL0     C21886   3.568   0.608   8.339  0.0924  0.6579  1.1511
  884MOL0     C21887   3.607   0.508   8.248  0.5994 -1.2447  0.3747
  884MOL0     C21888   3.510   0.428   8.182 -0.3467  0.5731  0.2405
  884MOL0     C21889   3.372   0.433   8.214 -0.8394 -0.1752 -0.0214
  884MOL0     O21890   3.271   0.358   8.156  0.2410  0.1199 -0.1060
  884MOL0     C21891   3.278   0.340   8.015 -0.3035  0.5649 -0.0197
  884MOL0     C21892   3.134   0.316   7.959 -0.8454  0.0826  1.3078
  884MOL0     C21893   3.122   0.236   7.832 -0.0864  0.1087  0.0254
  884MOL0     C21894   2.977   0.210   7.799 -1.3639 -0.5200  0.8961
  884MOL0     C21895   2.965   0.081   7.723 -0.5003  0.5056  0.6446
  884MOL0     C21896   2.822   0.071   7.669  0.5350  0.8229  0.5794
  884MOL0     C21897   2.783  -0.046   7.579 -0.5036  0.2420 -0.7223
  884MOL0     C21898   2.830  -0.026   7.436  0.1737  0.3018 -0.1995
  884MOL0    Cl21899   2.733  -0.135   7.329 -0.0169  0.4049 -0.1824
  884MOL0     C21900   3.334   0.533   8.306  0.9395 -0.0721  0.0484
  884MOL0     C21901   3.427   0.614   8.367 -0.3057  0.0079 -0.0069
  884MOL0     O21902   3.764   0.531   8.521 -0.2457  0.2968  0.3524
  884MOL0     C21903   3.912   0.804   8.353  0.0909  0.8409 -0.2636
  884MOL0     C21904   4.011   0.898   8.346 -0.0818 -0.2990 -0.5826
  884MOL0     N21905   4.500   1.113   7.920  0.0927 -0.4960 -0.0992
  884MOL0     N21906   4.453   1.196   7.837 -0.0115  0.3925  1.1119
  884MOL0     C21907   3.454   1.981   7.997 -0.1959  0.7196  1.4826
  884MOL0     C21908   3.396   2.097   8.066  0.0316 -0.0909  0.9637
  884MOL0     C21909   3.159   2.468   8.080  1.0741  1.0011 -0.1642
  884MOL0     C21910   3.221   2.581   8.035  0.9010 -0.2550 -0.3886
  884MOL0     C21911   3.165   2.710   8.067  0.4649  0.0753  0.3829
  884MOL0     C21912   3.056   2.717   8.159  0.8727 -0.1200  0.7615
  884MOL0     O21913   3.013   2.837   8.193 -0.0274 -0.1781  0.7869
  884MOL0     C21914   2.886   2.867   8.142 -0.2451  0.1891  0.6077
  884MOL0     C21915   2.814   2.990   8.197 -0.1469  0.3883  0.0916
  884MOL0     C21916   2.839   3.029   8.346 -0.8298  0.7860 -0.3443
  884MOL0     C21917   2.770   3.162   8.384 -0.3811 -0.6093  0.5375
  884MOL0     C21918   2.847   3.281   8.339 -0.4928 -0.3280 -0.8329
  884MOL0     C21919   2.902   3.369   8.282  0.8840 -0.0353 -0.5854
  884MOL0     C21920   2.988   2.605   8.206 -0.4792 -0.1003 -0.6786
  884MOL0     C21921   3.040   2.485   8.164  0.9056 -0.5396 -0.0776
  884MOL0     C21922   2.966   2.370   8.225 -1.1483 -0.0289 -0.5747
  884MOL0     H21923   3.433   2.328   7.821 -2.2719  0.5921  2.0714
  884MOL0     H21924   3.562   2.142   7.713  1.7452 -1.4672  0.3115
  884MOL0     H21925   3.736   1.977   7.732  1.2257 -2.1855  1.8404
  884MOL0     H21926   3.602   1.939   7.624 -0.4220 -1.4406  0.2242
  884MOL0     H21927   3.643   1.717   7.633 -0.7309 -0.4324  1.7527
  884MOL0     H21928   3.801   1.811   7.590  0.0897  1.3654  2.3932
  884MOL0     H21929   3.914   1.728   7.771  0.6533  0.0292  2.2494
  884MOL0     H21930   3.755   1.709   7.864  1.0461 -0.5546  0.8882
  884MOL0     H21931   3.701   1.500   7.734 -0.2498  0.9482  0.2461
  884MOL0     H21932   3.835   1.538   7.626 -1.6742  1.8920 -1.3269
  884MOL0     H21933   3.864   1.346   7.818  0.5366  0.3838  1.4971
  884MOL0     H21934   3.881   1.487   7.932 -0.8517  0.7428  0.1986
  884MOL0     H21935   4.034   1.442   7.680  1.7689  0.2083 -0.2218
  884MOL0     H21936   4.087   1.562   7.801 -0.0380 -0.4010  1.8974
  884MOL0     H21937   4.085   1.265   7.838 -0.5512  0.8179 -0.7708
  884MOL0     H21938   4.107   1.388   7.971  2.5878 -0.6332  0.9025
  884MOL0     H21939   4.273   1.350   7.712 -1.8776 -2.5573  0.6728
  884MOL0     H21940   4.306   1.469   7.841 -2.3222  1.7959  1.0862
  884MOL0     H21941   4.215   1.208   8.065  0.1629 -3.5273 -0.5482
  884MOL0     H21942   4.494   0.936   8.113  1.3704  1.8381  0.1470
  884MOL0     H21943   4.322   0.951   8.116 -0.7708  0.8701 -0.0942
  884MOL0     H21944   4.471   0.968   8.332  0.2182 -1.9264 -1.9173
  884MOL0     H21945   4.542   1.119   8.255 -1.0244  0.5968  0.4333
  884MOL0     H21946   4.420   1.163   8.454  0.0500 -1.8369  0.4930
  884MOL0     H21947   4.360   1.255   8.313  2.5750  0.2034  1.1885
  884MOL0     H21948   4.156   1.170   8.418  2.3675  1.4425  0.4308
  884MOL0     H21949   4.180   1.077   8.268 -1.6913  1.0335  0.0372
  884MOL0     H21950   4.172   0.804   8.634  0.8525  1.5111  0.7897
  884MOL0     H21951   4.070   0.656   8.748 -0.6523 -1.4363  0.6077
  884MOL0     H21952   4.048   0.520   8.644 -0.4339 -0.7674  0.6374
  884MOL0     H21953   3.904   0.602   8.722  0.4437 -0.5882  1.5108
  884MOL0     H21954   3.713   0.494   8.231  0.4070 -2.2115 -0.1116
  884MOL0     H21955   3.541   0.361   8.102 -0.7428 -1.8139  1.9638
  884MOL0     H21956   3.299   0.432   7.960 -0.1686  0.0811 -0.7918
  884MOL0     H21957   3.343   0.256   7.988 -2.0551 -1.7544  2.3821
  884MOL0     H21958   3.083   0.266   8.042  0.4288 -1.0510  1.4516
  884MOL0     H21959   3.079   0.408   7.940 -2.5979 -1.7133 -4.3786
  884MOL0     H21960   3.171   0.140   7.854  1.0509  0.3775 -1.1633
  884MOL0     H21961   3.167   0.283   7.745 -0.0854  0.0226 -0.0209
  884MOL0     H21962   2.927   0.287   7.740 -1.9084 -0.7587  1.0309
  884MOL0     H21963   2.920   0.203   7.893 -0.3377  0.2863  1.5873
  884MOL0     H21964   3.031   0.083   7.636 -0.3774  2.4140  0.7194
  884MOL0     H21965   2.997   0.001   7.790  2.8189 -0.7513 -2.1365
  884MOL0     H21966   2.784   0.159   7.616 -3.0013 -0.6964  0.3614
  884MOL0     H21967   2.765   0.061   7.762 -0.7959 -1.5523 -0.4176
  884MOL0     H21968   2.679  -0.080   7.585 -0.5820  0.6538  0.3088
  884MOL0     H21969   2.846  -0.128   7.614 -0.4295  0.1680 -1.0239
  884MOL0     H21970   2.939  -0.037   7.437  0.0462 -1.1729 -0.3877
  884MOL0     H21971   2.801   0.074   7.402  0.3614  0.3940 -0.0884
  884MOL0     H21972   3.228   0.543   8.325  1.0884  0.1175  0.8032
  884MOL0     H21973   3.406   0.682   8.450 -1.7585 -1.1087  0.5822
  884MOL0     H21974   3.837   0.803   8.275  0.4820  0.6482 -0.6418
  884MOL0     H21975   4.014   0.962   8.258 -2.4864  0.5064 -0.1344
  884MOL0     H21976   3.455   1.886   8.049  1.1700 -1.1226 -1.6216
  884MOL0     H21977   3.341   2.091   8.159 -1.5260 -1.4962  0.0141
  884MOL0     H21978   3.305   2.565   7.968 -0.4228 -0.6497 -2.0493
  884MOL0     H21979   3.209   2.806   8.041  0.0989  0.4555  1.1210
  884MOL0     H21980   2.895   2.884   8.034  2.2486  0.9808  0.8819
  884MOL0     H21981   2.824   2.779   8.160 -0.0817  0.2867  1.7042
  884MOL0     H21982   2.708   2.967   8.186  0.3788 -3.1825  1.4331
  884MOL0     H21983   2.837   3.082   8.142  0.4677 -0.4590 -1.1178
  884MOL0     H21984   2.794   2.944   8.398 -0.8462  0.1277 -1.4019
  884MOL0     H21985   2.945   3.022   8.371 -1.4437 -3.8172  2.1532
  884MOL0     H21986   2.771   3.166   8.494  0.0156 -0.5328  0.5327
  884MOL0     H21987   2.663   3.162   8.361  0.0399  1.3747 -1.7524
  884MOL0     H21988   2.935   3.457   8.230 -2.8794  1.3397 -0.9947
  884MOL0     H21989   2.907   2.624   8.275  0.1146  2.7571 -0.6466
  884MOL0     H21990   2.944   2.300   8.145 -0.6600  0.7770 -1.4415
  884MOL0     H21991   3.025   2.314   8.299 -1.2136 -1.3948 -1.5178
  884MOL0     H21992   2.874   2.400   8.276 -1.9990 -2.8694 -0.2890
  885MOL0     O21993   7.631   8.242   4.557  0.4306 -0.2934  0.4667
  885MOL0     C21994   7.564   8.174   4.636  0.0193  0.4994  0.4235
  885MOL0     O21995   7.428   8.157   4.623 -0.5946  0.7345 -0.0105
  885MOL0     C21996   7.366   8.211   4.515  0.1366  0.9080  0.9863
  885MOL0     C21997   7.389   8.174   4.382 -1.0243  0.1562  0.7241
  885MOL0     C21998   7.327   8.237   4.273  0.0189 -0.3165  0.4618
  885MOL0     C21999   7.228   8.324   4.291 -0.3890  0.4641 -0.1438
  885MOL0     O22000   7.157   8.365   4.189 -0.1703 -0.0404  0.3857
  885MOL0     C22001   7.019   8.406   4.213  0.0114 -0.3819 -0.3931
  885MOL0     C22002   6.954   8.436   4.082 -0.6652 -1.0217 -0.0206
  885MOL0     C22003   6.804   8.455   4.099 -0.0221  0.0225 -0.1202
  885MOL0     C22004   6.772   8.586   4.179 -0.0656 -0.0981 -0.4730
  885MOL0     C22005   6.624   8.612   4.193  0.7255 -1.4385  0.5453
  885MOL0     C22006   6.609   8.764   4.218 -0.7989 -0.5095  0.4962
  885MOL0     C22007   6.460   8.780   4.255  0.6570  0.0407  0.4019
  885MOL0     C22008   6.440   8.929   4.282  0.6109 -0.5296 -0.5170
  885MOL0     N22009   6.315   8.960   4.349  0.6219 -0.4171  0.4514
  885MOL0     C22010   6.270   8.897   4.457 -0.4853  0.4115 -0.9416
  885MOL0     C22011   6.180   8.982   4.508  0.3379 -0.0282  0.3542
  885MOL0     C22012   6.110   8.976   4.635  0.1500  0.4471 -0.6191
  885MOL0     C22013   6.018   8.851   4.658  0.3596  0.3264 -0.6705
  885MOL0     C22014   5.964   8.864   4.803 -0.4148  0.0990 -0.0483
  885MOL0     C22015   6.073   8.869   4.907 -0.2978 -0.3916 -0.0724
  885MOL0     O22016   6.149   8.747   4.909 -0.5045  1.1252 -0.0694
  885MOL0     C22017   6.131   8.653   5.012 -0.3834  0.3233 -1.3496
  885MOL0     C22018   5.999   8.619   5.039 -0.7561 -0.1178 -0.8108
  885MOL0     C22019   5.970   8.520   5.141  0.3322 -0.1379  0.0127
  885MOL0     C22020   5.830   8.482   5.154 -0.2543  0.1464 -0.3053
  885MOL0     C22021   6.076   8.472   5.222  0.1284  0.6614 -0.1700
  885MOL0     C22022   6.059   8.363   5.321 -0.4463 -0.1489 -0.2601
  885MOL0     O22023   6.152   8.344   5.417 -0.1884  0.3753  0.1275
  885MOL0     C22024   6.165   8.246   5.515 -0.4793 -0.4141 -0.5446
  885MOL0     C22025   6.261   8.279   5.620  0.1178  0.8550 -0.1127
  885MOL0     C22026   6.297   8.185   5.713 -0.1861 -0.7507  0.4856
  885MOL0     C22027   6.243   8.062   5.716  1.0138  0.1231 -0.0728
  885MOL0     O22028   6.278   7.981   5.819  0.4764 -0.3966 -0.1224
  885MOL0     C22029   6.290   7.846   5.773  0.2169 -0.4943  0.0621
  885MOL0     C22030   6.380   7.759   5.852 -0.1072 -0.8894  0.0723
  885MOL0     C22031   6.530   7.791   5.831  0.5702  0.0624 -0.0652
  885MOL0     C22032   6.613   7.753   5.944 -0.0885  0.5208  0.0206
  885MOL0     C22033   6.760   7.798   5.935 -0.1512 -0.3120 -0.2538
  885MOL0     C22034   6.835   7.780   6.072 -0.2418  0.2163 -0.4175
  885MOL0     C22035   6.983   7.791   6.059 -0.3562  0.4672 -0.8950
  885MOL0     C22036   7.055   7.802   6.190  0.2707  0.8247  0.4928
  885MOL0    Cl22037   7.215   7.755   6.159 -0.1381 -0.2877  0.0842
  885MOL0     C22038   6.145   8.027   5.618  0.2038  0.6618  0.0564
  885MOL0     C22039   6.111   8.118   5.520  0.3824 -0.7797 -0.6215
  885MOL0     O22040   5.955   8.294   5.308 -0.5872  0.2067  0.4547
  885MOL0     C22041   6.209   8.520   5.197 -0.1299 -0.5011  0.3546
  885MOL0     C22042   6.236   8.600   5.090  0.1222 -0.3795  0.0826
  885MOL0     N22043   6.163   9.094   4.424  0.8318 -0.1852 -0.1019
  885MOL0     N22044   6.258   9.082   4.338 -0.1216 -0.7710  0.1831
  885MOL0     C22045   7.200   8.372   4.423  0.0707  0.4607  0.2590
  885MOL0     C22046   7.274   8.325   4.533 -0.2622  0.2840  0.6180
  885MOL0     C22047   7.638   8.085   4.736  0.0184 -0.5506  0.2825
  885MOL0     C22048   7.565   7.968   4.776 -0.8135  0.0669  0.2862
  885MOL0     C22049   7.617   7.876   4.868  0.9225 -0.4400  0.5367
  885MOL0     C22050   7.744   7.893   4.918  0.3687  0.1327  0.2741
  885MOL0     O22051   7.800   7.809   5.007  0.3192  0.9681  0.1880
  885MOL0     C22052   7.854   7.694   4.946 -0.2290  0.8735 -1.1676
  885MOL0     C22053   8.001   7.739   4.902  0.5400  0.0667  1.0167
  885MOL0     C22054   8.109   7.767   5.012 -0.4064 -0.6057 -0.2834
  885MOL0     C22055   8.256   7.814   4.963  0.8246  0.3814  0.0386
  885MOL0     C22056   8.255   7.909   4.850  0.2445 -0.1335 -0.0755
  885MOL0     C22057   8.251   7.980   4.754  0.0561 -0.0086  0.1395
  885MOL0     C22058   7.816   7.999   4.874 -0.4547 -0.8322 -0.1439
  885MOL0     C22059   7.769   8.097   4.788  1.1252 -0.2757  0.1614
  885MOL0     C22060   7.860   8.205   4.739 -0.0112 -1.1985  0.1543
  885MOL0     H22061   7.451   8.087   4.357 -3.3363 -1.6675  0.9986
  885MOL0     H22062   7.362   8.198   4.178  0.3556  2.8436 -0.8366
  885MOL0     H22063   7.011   8.496   4.275 -1.4229 -0.1159 -0.9281
  885MOL0     H22064   6.960   8.323   4.254 -0.9581  0.9808  1.1016
  885MOL0     H22065   6.995   8.522   4.029 -1.9503  0.1393  0.7811
  885MOL0     H22066   6.961   8.357   4.007 -0.0521 -1.2410  0.2674
  885MOL0     H22067   6.762   8.459   3.999  0.3337  1.9355 -0.2363
  885MOL0     H22068   6.773   8.364   4.150 -1.4312  0.3361 -0.3905
  885MOL0     H22069   6.814   8.570   4.279  1.7985 -0.0781 -1.2125
  885MOL0     H22070   6.829   8.666   4.131  0.2276  1.6215  2.5347
  885MOL0     H22071   6.588   8.542   4.268 -1.5621 -0.0432  0.8436
  885MOL0     H22072   6.585   8.590   4.093  1.4464  0.4517 -0.2143
  885MOL0     H22073   6.673   8.794   4.301  1.2048 -0.2111 -1.0699
  885MOL0     H22074   6.640   8.814   4.126  1.4281 -3.5749 -0.6029
  885MOL0     H22075   6.434   8.709   4.334  0.3866 -0.0270  0.2546
  885MOL0     H22076   6.412   8.764   4.158  0.4694  2.5208  0.0184
  885MOL0     H22077   6.510   8.965   4.357 -1.0220  0.9292  0.3963
  885MOL0     H22078   6.443   8.992   4.192  4.8074 -2.7863 -2.2280
  885MOL0     H22079   6.292   8.799   4.501  0.1078  0.6705 -0.6443
  885MOL0     H22080   6.041   9.060   4.647  0.6496  0.8366 -0.4359
  885MOL0     H22081   6.195   8.989   4.703  0.5111  0.4506 -1.0615
  885MOL0     H22082   5.938   8.841   4.585 -0.5151  1.0331  0.1574
  885MOL0     H22083   6.071   8.755   4.649 -1.5253 -0.7750 -0.5327
  885MOL0     H22084   5.901   8.953   4.814 -2.0780 -0.7558 -1.9095
  885MOL0     H22085   5.897   8.777   4.809  2.7849 -2.5329  0.3212
  885MOL0     H22086   6.136   8.957   4.892  0.0443 -0.9414 -2.0789
  885MOL0     H22087   6.025   8.880   5.005  1.7861  0.3020  0.9318
  885MOL0     H22088   5.914   8.655   4.983 -1.5968 -1.7180 -0.6169
  885MOL0     H22089   5.761   8.554   5.109 -1.5894 -1.2879 -0.6231
  885MOL0     H22090   5.809   8.491   5.261  0.3255  2.4618 -0.3260
  885MOL0     H22091   5.808   8.384   5.110  0.9867 -0.2346 -0.1383
  885MOL0     H22092   6.307   8.377   5.625 -2.3232  2.0264  0.8486
  885MOL0     H22093   6.373   8.220   5.781  0.4217 -2.7969  0.8957
  885MOL0     H22094   6.190   7.802   5.771  0.4049 -0.9098 -1.2344
  885MOL0     H22095   6.346   7.856   5.679  1.7576  0.6215  1.0585
  885MOL0     H22096   6.345   7.769   5.955  1.0735  1.5728  0.2953
  885MOL0     H22097   6.361   7.655   5.824 -0.0037 -1.3723  1.6523
  885MOL0     H22098   6.537   7.898   5.812 -0.9374 -0.3047 -3.3078
  885MOL0     H22099   6.579   7.753   5.741  1.5157  0.2896  0.3444
  885MOL0     H22100   6.616   7.644   5.957 -3.8529  0.1971 -0.7842
  885MOL0     H22101   6.565   7.804   6.028 -0.2654  0.9589 -0.3415
  885MOL0     H22102   6.791   7.731   5.854 -4.6582 -1.6651 -1.1297
  885MOL0     H22103   6.758   7.903   5.903 -1.3675 -0.2300  0.0513
  885MOL0     H22104   6.796   7.688   6.117 -1.2224 -1.1005 -3.6889
  885MOL0     H22105   6.799   7.859   6.139  3.7024 -0.2166  2.5962
  885MOL0     H22106   7.009   7.879   5.999  2.1994  0.5112  0.1736
  885MOL0     H22107   7.029   7.705   6.009  2.4871 -0.7219  3.2938
  885MOL0     H22108   7.010   7.730   6.259 -2.9189  2.3213  0.1780
  885MOL0     H22109   7.048   7.905   6.224  0.6981  0.3943  1.9642
  885MOL0     H22110   6.095   7.931   5.619  0.8989  0.2003 -2.4828
  885MOL0     H22111   6.033   8.106   5.445 -0.4421  1.0881 -0.1189
  885MOL0     H22112   6.289   8.504   5.268  2.0383 -4.8059 -2.6292
  885MOL0     H22113   6.334   8.644   5.074 -0.6623  1.7863  0.8261
  885MOL0     H22114   7.119   8.442   4.442  0.7621  1.5797 -0.7906
  885MOL0     H22115   7.241   8.355   4.633 -0.6869  1.5523  0.1148
  885MOL0     H22116   7.468   7.936   4.738 -0.6646 -2.4013  1.7887
  885MOL0     H22117   7.552   7.799   4.909  0.6616  0.8533  2.6849
  885MOL0     H22118   7.829   7.615   5.017 -2.2381  0.3343 -2.3705
  885MOL0     H22119   7.800   7.665   4.855  1.6723 -1.0010 -1.7502
  885MOL0     H22120   7.996   7.822   4.831 -2.5803  0.0377  1.0251
  885MOL0     H22121   8.044   7.655   4.846 -1.1965  0.8239 -1.6343
  885MOL0     H22122   8.078   7.847   5.080 -0.0340 -1.2966  0.7397
  885MOL0     H22123   8.125   7.678   5.074  0.5093 -1.8831 -2.2364
  885MOL0     H22124   8.309   7.724   4.931  0.3775 -0.0054  0.3613
  885MOL0     H22125   8.296   7.868   5.049 -0.6940  1.0967  0.3427
  885MOL0     H22126   8.252   8.055   4.678  0.2849  1.0654  1.1690
  885MOL0     H22127   7.918   8.016   4.909  0.2262  0.3024 -2.4813
  885MOL0     H22128   7.814   8.304   4.748  0.3096 -0.8966 -1.3093
  885MOL0     H22129   7.955   8.206   4.793 -0.7448  0.6543  1.5067
  885MOL0     H22130   7.880   8.196   4.632  2.8336  0.8618  0.3993
  886MOL0     O22131   6.382   0.554   2.837  0.3854 -0.1992  0.1473
  886MOL0     C22132   6.354   0.548   2.718  0.2421 -0.2912 -0.1080
  886MOL0     O22133   6.432   0.598   2.615  0.2415  0.0000  1.1823
  886MOL0     C22134   6.552   0.664   2.646  1.0861 -0.6865 -0.3279
  886MOL0     C22135   6.569   0.761   2.743 -0.1142  0.4326 -0.1896
  886MOL0     C22136   6.699   0.804   2.781  0.6252  0.7529 -0.2704
  886MOL0     C22137   6.807   0.761   2.710  0.3196 -0.6539 -0.3911
  886MOL0     O22138   6.919   0.832   2.724  0.3658  0.4112  0.4788
  886MOL0     C22139   7.044   0.767   2.701  0.1766  1.1410 -0.6171
  886MOL0     C22140   7.160   0.849   2.764  0.7833  0.2091  0.2569
  886MOL0     C22141   7.291   0.766   2.785 -0.2273 -0.4648 -1.1404
  886MOL0     C22142   7.392   0.833   2.879  0.5426  0.2542 -0.2009
  886MOL0     C22143   7.529   0.752   2.884  0.7885 -1.1644 -0.4006
  886MOL0     C22144   7.627   0.828   2.975  0.4514 -0.1741 -0.1125
  886MOL0     C22145   7.756   0.759   3.015  0.0927 -0.6467 -0.2936
  886MOL0     C22146   7.839   0.846   3.109  0.6402 -0.3018  0.2395
  886MOL0     N22147   7.975   0.790   3.130 -0.0954 -0.2238  0.1277
  886MOL0     C22148   8.073   0.788   3.032 -0.0646 -0.3553 -0.6007
  886MOL0     C22149   8.183   0.766   3.104  0.1422  0.2314 -0.0401
  886MOL0     C22150   8.324   0.772   3.045 -0.3632 -0.0099  0.2567
  886MOL0     C22151   8.384   0.646   2.984  0.1271  0.6998  0.3679
  886MOL0     C22152   8.305   0.607   2.860 -0.1348  0.1278 -0.2243
  886MOL0     C22153   8.351   0.471   2.805  0.1424 -0.2620 -0.0623
  886MOL0     O22154   8.278   0.420   2.696 -0.3486  0.6701  0.6598
  886MOL0     C22155   8.326   0.314   2.622  0.0360  0.3459 -0.5089
  886MOL0     C22156   8.449   0.249   2.654  0.4757 -0.1568 -0.4567
  886MOL0     C22157   8.502   0.171   2.559  0.2185 -0.4609  0.2304
  886MOL0     C22158   8.643   0.114   2.587  0.1908 -0.0978  0.4670
  886MOL0     C22159   8.429   0.128   2.447 -0.5577  0.4069 -0.2254
  886MOL0     C22160   8.468   0.016   2.357  0.4277  0.6931 -0.1579
  886MOL0     O22161   8.508  -0.099   2.418  0.6118  0.5057  0.4867
  886MOL0     C22162   8.529  -0.210   2.337 -0.4639  0.9941 -0.5394
  886MOL0     C22163   8.662  -0.266   2.329  0.4705  0.1690 -0.4171
  886MOL0     C22164   8.676  -0.393   2.265  0.6507  0.1811 -0.0566
  886MOL0     C22165   8.572  -0.456   2.198  0.8682 -0.1057  0.2597
  886MOL0     O22166   8.567  -0.571   2.124  0.5462 -0.1134 -0.0538
  886MOL0     C22167   8.692  -0.633   2.100  0.6347 -0.0484 -0.0495
  886MOL0     C22168   8.744  -0.734   2.199  0.3581 -0.4065  0.6983
  886MOL0     C22169   8.633  -0.815   2.253  0.4090  0.0649  0.1526
  886MOL0     C22170   8.677  -0.951   2.309  0.1424  0.1784  0.8006
  886MOL0     C22171   8.782  -1.015   2.219  0.4585  0.5208 -0.4781
  886MOL0     C22172   8.803  -1.162   2.258  0.2318 -0.8417 -0.2543
  886MOL0     C22173   8.922  -1.218   2.184 -0.0060  0.0505  0.3011
  886MOL0     C22174   8.962  -1.350   2.234 -0.3219 -0.7749 -0.0997
  886MOL0    Cl22175   8.827  -1.459   2.223 -0.5156  0.0196 -0.0596
  886MOL0     C22176   8.449  -0.403   2.206  0.6049 -0.6647 -0.1368
  886MOL0     C22177   8.429  -0.280   2.273  0.4708 -0.2672  0.1556
  886MOL0     O22178   8.453   0.026   2.240  0.7384 -0.3313  0.4197
  886MOL0     C22179   8.312   0.190   2.417  0.2951 -0.5060 -0.2374
  886MOL0     C22180   8.260   0.292   2.507 -0.4425  0.6972 -0.0787
  886MOL0     N22181   8.157   0.746   3.237 -0.1700  0.0528 -0.0642
  886MOL0     N22182   8.028   0.764   3.252  0.0802  0.5061 -0.3719
  886MOL0     C22183   6.793   0.681   2.599  1.1783  0.1279 -0.3558
  886MOL0     C22184   6.668   0.622   2.582  0.3261 -0.4072  0.3646
  886MOL0     C22185   6.242   0.467   2.674  0.1792  0.4817 -0.9333
  886MOL0     C22186   6.257   0.359   2.589 -1.0109  0.0157 -0.4069
  886MOL0     C22187   6.143   0.290   2.551  0.3071 -0.0061 -0.1415
  886MOL0     C22188   6.011   0.328   2.593  0.4022  0.3167  0.1870
  886MOL0     O22189   5.890   0.277   2.545  0.0868 -1.1388  0.3160
  886MOL0     C22190   5.885   0.208   2.421  0.5630  0.7053  0.8001
  886MOL0     C22191   5.753   0.195   2.360  0.7229  0.0698 -1.1029
  886MOL0     C22192   5.713   0.335   2.311 -0.3406 -0.0968 -0.4084
  886MOL0     C22193   5.582   0.326   2.229  0.3740 -0.3094 -0.5416
  886MOL0     C22194   5.490   0.436   2.264 -0.8023 -0.3849 -0.7165
  886MOL0     C22195   5.420   0.524   2.310 -0.3991  1.5546  0.1310
  886MOL0     C22196   6.003   0.425   2.692  0.2030  0.2229  0.0115
  886MOL0     C22197   6.115   0.500   2.732 -0.5459  0.1258  0.8035
  886MOL0     C22198   6.087   0.630   2.816  0.0740  0.0434 -0.6993
  886MOL0     H22199   6.493   0.809   2.804 -1.4437 -0.0293 -1.4487
  886MOL0     H22200   6.722   0.880   2.855 -0.6622  2.2485 -1.3357
  886MOL0     H22201   7.067   0.763   2.594  0.1515  0.8950 -0.6133
  886MOL0     H22202   7.048   0.665   2.738 -1.7585  0.2426 -2.6408
  886MOL0     H22203   7.167   0.945   2.711 -2.8862  0.1467 -0.6036
  886MOL0     H22204   7.125   0.872   2.865  1.6500  0.1966  0.5717
  886MOL0     H22205   7.262   0.673   2.834 -2.4947 -0.4951 -2.4113
  886MOL0     H22206   7.336   0.746   2.687 -0.2116  1.3712 -1.5457
  886MOL0     H22207   7.421   0.924   2.826  0.3718 -0.0654 -0.8479
  886MOL0     H22208   7.345   0.861   2.974 -2.2398  1.3747 -1.7886
  886MOL0     H22209   7.575   0.724   2.788  2.4464  0.6110 -0.1833
  886MOL0     H22210   7.498   0.654   2.923 -1.9727  0.8471  3.0117
  886MOL0     H22211   7.651   0.924   2.928 -2.6189  1.6243  1.6470
  886MOL0     H22212   7.574   0.866   3.063  0.4051  0.7940 -0.5448
  886MOL0     H22213   7.802   0.729   2.920 -1.2752  0.5495 -1.3884
  886MOL0     H22214   7.732   0.672   3.078  2.2456 -0.0277  1.4897
  886MOL0     H22215   7.857   0.945   3.065  1.5701 -0.9855 -0.9577
  886MOL0     H22216   7.803   0.861   3.211  6.4372  1.1944  2.4499
  886MOL0     H22217   8.065   0.814   2.927  2.7199 -1.0828 -1.0545
  886MOL0     H22218   8.390   0.789   3.130  0.2920  0.5511 -0.3527
  886MOL0     H22219   8.338   0.850   2.970  0.0128 -0.2977  0.0228
  886MOL0     H22220   8.486   0.662   2.948  1.0304 -1.3396  1.8227
  886MOL0     H22221   8.386   0.570   3.063 -1.4294  2.9971  2.7796
  886MOL0     H22222   8.201   0.587   2.888  0.5807 -2.2084  1.0402
  886MOL0     H22223   8.306   0.682   2.780 -3.7551 -0.1826 -0.7625
  886MOL0     H22224   8.456   0.481   2.775  0.4686  0.7259  1.2556
  886MOL0     H22225   8.343   0.392   2.881 -2.0257 -0.6341 -0.6073
  886MOL0     H22226   8.515   0.274   2.736 -0.1005  1.9113 -0.5753
  886MOL0     H22227   8.641   0.010   2.620 -1.3817  0.5093  2.4476
  886MOL0     H22228   8.698   0.169   2.664  1.1644 -1.1922  0.5749
  886MOL0     H22229   8.701   0.122   2.495  1.5101 -0.4480  1.2423
  886MOL0     H22230   8.743  -0.224   2.388 -2.8605 -0.6926  5.6067
  886MOL0     H22231   8.778  -0.429   2.272  0.7760  0.5587  0.0606
  886MOL0     H22232   8.688  -0.698   2.012  1.4465 -3.1629  2.0285
  886MOL0     H22233   8.764  -0.554   2.077  1.8892 -1.0259  0.3804
  886MOL0     H22234   8.813  -0.798   2.143 -2.2921 -2.8222 -0.0520
  886MOL0     H22235   8.790  -0.689   2.287  0.3586 -3.0365  2.1421
  886MOL0     H22236   8.560  -0.838   2.176 -0.9850 -1.9745  1.9695
  886MOL0     H22237   8.580  -0.751   2.324  2.4610  1.5986  0.4211
  886MOL0     H22238   8.588  -1.013   2.324  0.4225 -0.3060  0.4706
  886MOL0     H22239   8.726  -0.936   2.406  0.7873 -0.5107  0.5863
  886MOL0     H22240   8.754  -1.000   2.114  0.3938  1.4599 -0.3313
  886MOL0     H22241   8.880  -0.970   2.233  1.0570 -0.4763 -1.3207
  886MOL0     H22242   8.713  -1.220   2.237  0.1465 -1.8171  2.4443
  886MOL0     H22243   8.825  -1.163   2.365  2.2851  0.2721 -0.6001
  886MOL0     H22244   9.015  -1.163   2.201  0.3874  0.2411 -2.0361
  886MOL0     H22245   8.909  -1.223   2.075 -0.0728 -0.0151  0.3129
  886MOL0     H22246   8.991  -1.352   2.340 -0.4752 -0.4044 -0.0487
  886MOL0     H22247   9.044  -1.399   2.181  1.2617  0.3690  1.2082
  886MOL0     H22248   8.368  -0.455   2.156 -0.4092  0.7962 -0.0620
  886MOL0     H22249   8.326  -0.254   2.298  0.0901 -2.0506  0.5930
  886MOL0     H22250   8.254   0.163   2.330 -0.1780  0.5172 -0.2510
  886MOL0     H22251   8.172   0.349   2.476 -0.7041  1.9043  2.6627
  886MOL0     H22252   6.878   0.660   2.535 -0.1485 -0.7631 -1.8700
  886MOL0     H22253   6.674   0.543   2.507  2.6678  0.4466 -0.4335
  886MOL0     H22254   6.359   0.338   2.556 -0.5266  0.1045  0.9777
  886MOL0     H22255   6.155   0.194   2.503 -0.1764 -0.5751  0.8373
  886MOL0     H22256   5.945   0.263   2.347 -1.0414  3.3124  1.2848
  886MOL0     H22257   5.925   0.107   2.435  0.8426  0.8037  0.7299
  886MOL0     H22258   5.672   0.168   2.429 -1.9162  3.9507 -2.3310
  886MOL0     H22259   5.763   0.123   2.279  0.6726  0.6266 -1.6167
  886MOL0     H22260   5.703   0.398   2.400 -0.5978  0.8965 -1.1182
  886MOL0     H22261   5.798   0.380   2.260  0.0454  2.2048  2.0311
  886MOL0     H22262   5.531   0.230   2.248  0.7763 -0.1678  1.5356
  886MOL0     H22263   5.611   0.344   2.126  1.9614 -0.5365 -0.1586
  886MOL0     H22264   5.349   0.594   2.349 -2.6953  0.1118 -1.2492
  886MOL0     H22265   5.904   0.454   2.726 -1.3063 -1.5835 -2.4331
  886MOL0     H22266   6.174   0.696   2.818 -1.4308  2.1017  0.0748
  886MOL0     H22267   6.002   0.680   2.768  0.0305 -0.2057 -0.8845
  886MOL0     H22268   6.058   0.606   2.918  3.3620  1.2462  0.6381
  887MOL0     O22269   0.699  11.193   9.178 -0.2970  0.3781  0.1698
  887MOL0     C22270   0.729  11.316   9.162 -0.0977  0.1067  0.2539
  887MOL0     O22271   0.662  11.424   9.198 -0.1074 -0.5335 -0.2311
  887MOL0     C22272   0.534  11.400   9.231  0.6797 -0.1144 -1.2767
  887MOL0     C22273   0.429  11.420   9.141  0.8645  0.3916 -0.3390
  887MOL0     C22274   0.289  11.412   9.176 -0.3267 -1.1855  0.3068
  887MOL0     C22275   0.255  11.385   9.307 -0.5866  0.4110  0.0351
  887MOL0     O22276   0.122  11.373   9.333 -0.4943  0.3926 -0.3538
  887MOL0     C22277   0.078  11.332   9.461  0.0250  0.4168 -0.6600
  887MOL0     C22278  -0.076  11.330   9.452  0.4571  0.7070 -0.4966
  887MOL0     C22279  -0.130  11.215   9.367 -0.0064 -0.1425 -0.0744
  887MOL0     C22280  -0.264  11.169   9.418  0.5852  0.5218 -0.3507
  887MOL0     C22281  -0.344  11.103   9.303  1.0197 -0.1990 -0.1993
  887MOL0     C22282  -0.283  10.979   9.233  0.1034 -0.2274  0.0514
  887MOL0     C22283  -0.384  10.911   9.137 -0.2651  0.4247  1.0471
  887MOL0     C22284  -0.317  10.818   9.029  0.6165  1.0670 -0.3108
  887MOL0     N22285  -0.421  10.807   8.924 -0.2414  0.1898 -0.0969
  887MOL0     C22286  -0.492  10.691   8.906  0.9820 -0.5900  0.6040
  887MOL0     C22287  -0.588  10.719   8.811  1.3298 -0.5840  0.5251
  887MOL0     C22288  -0.670  10.615   8.739  0.0923 -0.1849 -0.1192
  887MOL0     C22289  -0.719  10.663   8.595  0.0613  0.1827 -0.4728
  887MOL0     C22290  -0.608  10.670   8.488  0.2715  0.0297 -0.1367
  887MOL0     C22291  -0.557  10.523   8.475  0.5546  0.1902 -0.1171
  887MOL0     O22292  -0.502  10.482   8.344  0.4418 -0.3144  0.1618
  887MOL0     C22293  -0.395  10.547   8.295 -0.7273 -0.7473 -0.6067
  887MOL0     C22294  -0.306  10.628   8.368 -0.4999 -0.1873  0.6016
  887MOL0     C22295  -0.200  10.700   8.311  0.6995 -0.3161 -0.2987
  887MOL0     C22296  -0.123  10.781   8.404  0.1692  0.0831 -0.0325
  887MOL0     C22297  -0.187  10.695   8.171  0.2389 -0.4324  0.2993
  887MOL0     C22298  -0.075  10.761   8.095 -0.5342  0.8590 -0.3419
  887MOL0     O22299   0.010  10.852   8.159 -0.8786  0.6784 -0.5033
  887MOL0     C22300   0.125  10.879   8.097  0.6841  0.2926 -0.6747
  887MOL0     C22301   0.236  10.786   8.089  0.2646  0.8009  0.0736
  887MOL0     C22302   0.359  10.836   8.043 -0.4945 -0.6048  0.8744
  887MOL0     C22303   0.370  10.968   7.982  1.1502  0.4698  0.0586
  887MOL0     O22304   0.474  11.018   7.913 -0.0380  0.5558 -0.1724
  887MOL0     C22305   0.600  10.951   7.938  0.6789 -0.1961  0.0340
  887MOL0     C22306   0.706  11.020   7.852 -0.0329  0.1573  0.1471
  887MOL0     C22307   0.849  10.974   7.903  0.8191  0.0076  0.0383
  887MOL0     C22308   0.956  11.010   7.810 -0.1554  0.8534 -0.1226
  887MOL0     C22309   1.090  11.015   7.873 -0.4577  0.0071  0.3869
  887MOL0     C22310   1.193  11.052   7.775 -0.5720  0.2287  0.4045
  887MOL0     C22311   1.325  11.087   7.846 -0.3605  1.2216 -0.6886
  887MOL0     C22312   1.444  11.059   7.768  0.3223  0.1559 -0.8913
  887MOL0    Cl22313   1.559  11.172   7.823  0.0167  0.6962 -0.1150
  887MOL0     C22314   0.255  11.049   7.993 -0.0981  0.0762 -0.2093
  887MOL0     C22315   0.136  11.009   8.049 -0.9550  0.7480  0.3113
  887MOL0     O22316  -0.073  10.730   7.975  0.2602 -0.3134  0.9897
  887MOL0     C22317  -0.291  10.628   8.098 -0.1029 -0.3015 -0.1252
  887MOL0     C22318  -0.388  10.553   8.158 -1.0765  0.4798  1.2364
  887MOL0     N22319  -0.567  10.855   8.771 -0.0448  0.0938 -0.4903
  887MOL0     N22320  -0.468  10.902   8.838 -0.1296  0.3937  0.6471
  887MOL0     C22321   0.353  11.354   9.399 -1.2665  0.2114 -0.0172
  887MOL0     C22322   0.494  11.370   9.362  0.8724  0.8185 -0.4623
  887MOL0     C22323   0.869  11.339   9.101 -0.4147  0.9337  0.0561
  887MOL0     C22324   0.893  11.460   9.031  0.3884  1.3466 -0.0513
  887MOL0     C22325   1.014  11.485   8.964 -0.3335 -0.9040 -0.5734
  887MOL0     C22326   1.124  11.399   8.979  0.5381 -0.0933 -1.0553
  887MOL0     O22327   1.239  11.400   8.909  0.0855 -0.3208  0.2556
  887MOL0     C22328   1.226  11.428   8.772 -0.0649  0.0045 -0.4955
  887MOL0     C22329   1.352  11.401   8.711 -0.8362  0.1410  0.4324
  887MOL0     C22330   1.332  11.368   8.560  0.9346 -0.1885  0.0689
  887MOL0     C22331   1.313  11.497   8.478  0.3018 -0.4065  0.3445
  887MOL0     C22332   1.324  11.471   8.328 -2.0976 -0.1929  0.2123
  887MOL0     C22333   1.353  11.442   8.212 -0.1691 -0.2491  0.4186
  887MOL0     C22334   1.107  11.286   9.066 -0.1523 -0.2509  0.2500
  887MOL0     C22335   0.983  11.256   9.121 -1.1187  0.8028 -0.7309
  887MOL0     C22336   0.984  11.137   9.212  0.1791  0.7077  0.3358
  887MOL0     H22337   0.462  11.475   9.053 -0.2316 -0.1310 -1.0960
  887MOL0     H22338   0.215  11.448   9.106 -0.8300 -0.9696  0.9432
  887MOL0     H22339   0.112  11.397   9.542  0.8939  2.2298 -2.4060
  887MOL0     H22340   0.102  11.232   9.499 -1.0597  1.1687  2.2502
  887MOL0     H22341  -0.108  11.330   9.557  1.8522 -1.7060 -0.0009
  887MOL0     H22342  -0.111  11.422   9.402 -1.1017  1.4127  1.7240
  887MOL0     H22343  -0.129  11.247   9.262 -0.1075  0.2721  0.0473
  887MOL0     H22344  -0.050  11.142   9.363 -0.2745 -0.4395 -3.7464
  887MOL0     H22345  -0.255  11.103   9.505  1.8172  3.2994  1.7833
  887MOL0     H22346  -0.322  11.247   9.467 -1.2005 -0.3963 -0.9080
  887MOL0     H22347  -0.356  11.181   9.226  2.4216 -1.1626 -1.4478
  887MOL0     H22348  -0.444  11.070   9.333  1.3738 -1.6933 -0.5912
  887MOL0     H22349  -0.186  10.999   9.189  0.3186 -2.1931 -0.4853
  887MOL0     H22350  -0.249  10.905   9.306  3.4893 -0.5095 -1.6258
  887MOL0     H22351  -0.432  10.985   9.072 -0.0460  0.8043  1.3065
  887MOL0     H22352  -0.465  10.866   9.195  1.1206 -0.5639  2.2753
  887MOL0     H22353  -0.232  10.870   8.983 -0.9351  2.5297 -1.6540
  887MOL0     H22354  -0.298  10.717   9.066  0.9281  1.3833  0.3934
  887MOL0     H22355  -0.483  10.595   8.955  1.3835  0.0178  1.7509
  887MOL0     H22356  -0.762  10.612   8.797  0.3244  0.4139  0.2874
  887MOL0     H22357  -0.623  10.516   8.737 -1.1246 -0.7967  0.3255
  887MOL0     H22358  -0.797  10.591   8.568  0.0109 -2.2836  4.8407
  887MOL0     H22359  -0.765  10.760   8.614  1.1280  0.3985  1.2788
  887MOL0     H22360  -0.665  10.708   8.402 -0.7389 -0.1695  0.4253
  887MOL0     H22361  -0.530  10.743   8.512  1.6155 -0.7764 -1.8408
  887MOL0     H22362  -0.482  10.500   8.552  0.2954 -1.1494 -0.2430
  887MOL0     H22363  -0.631  10.448   8.503  0.2650 -0.0398 -1.4196
  887MOL0     H22364  -0.315  10.624   8.476 -1.4106 -0.1201  0.5296
  887MOL0     H22365  -0.129  10.881   8.361  0.1141 -1.0091 -2.7625
  887MOL0     H22366  -0.018  10.750   8.403  0.5968  0.8797  4.0614
  887MOL0     H22367  -0.164  10.775   8.505 -0.1313 -2.9038 -0.2404
  887MOL0     H22368   0.237  10.681   8.114  0.5644  0.7155 -0.2907
  887MOL0     H22369   0.443  10.767   8.051  0.4028  0.6158  2.4281
  887MOL0     H22370   0.622  10.956   8.045  0.2072  1.4955  0.0880
  887MOL0     H22371   0.588  10.846   7.909 -0.7228 -0.8806  2.7166
  887MOL0     H22372   0.700  10.994   7.746 -1.1011 -0.0914  0.2640
  887MOL0     H22373   0.700  11.128   7.865 -3.5282  0.1325 -0.2674
  887MOL0     H22374   0.855  10.865   7.909  1.3249 -0.0421 -1.0537
  887MOL0     H22375   0.856  11.026   7.999 -0.9040  0.3005  0.0501
  887MOL0     H22376   0.927  11.107   7.768  0.3158  1.3249  0.6214
  887MOL0     H22377   0.969  10.933   7.733  0.9590  0.8032  0.1035
  887MOL0     H22378   1.095  11.085   7.957 -1.4487  0.2545  0.2507
  887MOL0     H22379   1.112  10.917   7.914 -4.5551 -1.7462 -1.0860
  887MOL0     H22380   1.170  11.141   7.716  1.0721  0.3049 -0.1726
  887MOL0     H22381   1.208  10.969   7.705 -0.8571 -1.2705  2.0527
  887MOL0     H22382   1.328  11.026   7.937 -0.5436  1.8136 -0.2813
  887MOL0     H22383   1.312  11.193   7.868 -2.3501  1.2297 -1.7285
  887MOL0     H22384   1.420  11.070   7.661  2.5919 -1.8484 -1.7029
  887MOL0     H22385   1.480  10.957   7.780  0.2917 -0.0463 -2.3496
  887MOL0     H22386   0.255  11.147   7.947 -2.6517  0.4172  0.3413
  887MOL0     H22387   0.050  11.076   8.058 -1.1050  0.6658 -0.4939
  887MOL0     H22388  -0.294  10.633   7.990 -2.9140 -1.5250 -0.1997
  887MOL0     H22389  -0.472  10.506   8.107 -0.0599 -0.8462  0.7448
  887MOL0     H22390   0.323  11.326   9.500 -3.0135  0.7670 -0.3441
  887MOL0     H22391   0.567  11.351   9.440 -2.8738 -3.4486  2.5077
  887MOL0     H22392   0.812  11.531   9.016  0.5804  1.5226 -0.2711
  887MOL0     H22393   1.020  11.575   8.905 -4.2893  0.4193  0.7632
  887MOL0     H22394   1.148  11.364   8.730  0.1768 -1.3906  1.0805
  887MOL0     H22395   1.204  11.534   8.759 -0.7482 -0.0751 -0.0456
  887MOL0     H22396   1.392  11.310   8.758  0.1602 -0.0236 -0.7037
  887MOL0     H22397   1.424  11.481   8.729  0.5016 -1.4151  2.3737
  887MOL0     H22398   1.417  11.313   8.518  1.0978  0.4913 -0.5023
  887MOL0     H22399   1.247  11.300   8.545  1.1083 -0.4436  0.2345
  887MOL0     H22400   1.401  11.559   8.501 -0.4511  0.7856  0.1026
  887MOL0     H22401   1.221  11.551   8.502  0.2553 -0.2406 -0.1873
  887MOL0     H22402   1.389  11.431   8.111 -3.1330  2.6502 -1.1550
  887MOL0     H22403   1.194  11.226   9.089 -0.8385 -0.2808  3.1388
  887MOL0     H22404   0.913  11.145   9.294  0.9196  0.5248  1.0022
  887MOL0     H22405   0.971  11.044   9.155  1.7630  1.6024 -1.6392
  887MOL0     H22406   1.080  11.133   9.264 -0.5907 -0.7146  1.7423
  888MOL0     O22407   7.619   5.709   2.982 -0.0880  0.0107 -0.2568
  888MOL0     C22408   7.518   5.673   2.920  0.1232 -0.0950 -0.2585
  888MOL0     O22409   7.487   5.543   2.902  0.9918 -0.6336 -0.1504
  888MOL0     C22410   7.516   5.458   3.003  0.5256  0.0452  0.3405
  888MOL0     C22411   7.450   5.471   3.132 -0.4456 -0.0646  0.1374
  888MOL0     C22412   7.491   5.375   3.236  0.2394  0.3170  0.1424
  888MOL0     C22413   7.583   5.275   3.206 -1.4932 -0.0972  0.5383
  888MOL0     O22414   7.618   5.204   3.316  0.1961  0.2024  0.2535
  888MOL0     C22415   7.727   5.109   3.322 -0.1154  0.3388 -1.4843
  888MOL0     C22416   7.866   5.181   3.326  0.1207 -0.0249 -0.4104
  888MOL0     C22417   7.976   5.070   3.346  1.0954  0.2131 -0.1569
  888MOL0     C22418   8.121   5.117   3.374 -0.3303 -0.3743 -0.9470
  888MOL0     C22419   8.220   5.007   3.378 -0.1479 -0.2610 -0.6582
  888MOL0     C22420   8.362   5.065   3.392  0.4997 -0.3436  0.4169
  888MOL0     C22421   8.461   4.965   3.447  0.2333  0.4534 -1.2924
  888MOL0     C22422   8.491   4.860   3.346 -0.1585  0.7958  0.2322
  888MOL0     N22423   8.594   4.762   3.376 -0.5246  0.3727 -0.4223
  888MOL0     C22424   8.726   4.787   3.405 -0.1888  0.3655 -0.3613
  888MOL0     C22425   8.787   4.664   3.427  0.5930  0.6783  0.2699
  888MOL0     C22426   8.916   4.625   3.488  0.4186  0.8987  0.3923
  888MOL0     C22427   8.954   4.478   3.485  0.2871  0.2263 -0.1757
  888MOL0     C22428   9.094   4.448   3.534  0.1047 -0.4665 -0.1743
  888MOL0     C22429   9.143   4.295   3.507  0.8923 -1.1748 -0.0722
  888MOL0     O22430   9.041   4.200   3.550 -0.7953  0.4779 -0.2875
  888MOL0     C22431   8.975   4.118   3.459  0.2669  0.3442  0.0635
  888MOL0     C22432   8.969   4.143   3.321 -0.2033 -0.5158 -0.9125
  888MOL0     C22433   8.898   4.061   3.235  0.4911  0.0907 -0.1076
  888MOL0     C22434   8.892   4.097   3.089 -0.0575 -0.2378  0.0929
  888MOL0     C22435   8.829   3.948   3.290 -0.7057 -0.0082 -0.5478
  888MOL0     C22436   8.741   3.852   3.213 -0.3871 -0.0822  0.5428
  888MOL0     O22437   8.685   3.763   3.298  0.4327 -0.0205  0.7953
  888MOL0     C22438   8.583   3.685   3.247  0.5280 -1.1655  0.4049
  888MOL0     C22439   8.596   3.555   3.196  0.7349  1.0132 -0.5204
  888MOL0     C22440   8.478   3.491   3.153 -0.4222 -0.2396 -0.3904
  888MOL0     C22441   8.355   3.548   3.142 -1.1156  0.6321 -0.5377
  888MOL0     O22442   8.256   3.473   3.084 -0.1543 -0.4180  0.0676
  888MOL0     C22443   8.204   3.357   3.149  0.8288 -0.4035 -0.4461
  888MOL0     C22444   8.057   3.366   3.136  1.1409  0.3138  0.2877
  888MOL0     C22445   7.970   3.255   3.197 -0.9224 -0.3341 -0.1883
  888MOL0     C22446   7.825   3.257   3.148  0.6328 -0.4956  0.7589
  888MOL0     C22447   7.792   3.271   2.995 -0.4860 -0.0353 -0.2105
  888MOL0     C22448   7.639   3.273   2.971 -0.8873 -0.5434  0.2088
  888MOL0     C22449   7.588   3.412   3.004 -0.6274  0.2779 -0.5317
  888MOL0     C22450   7.426   3.410   2.990  0.3159  0.2051 -0.0158
  888MOL0    Cl22451   7.346   3.573   3.006 -0.1827  0.6685 -0.0449
  888MOL0     C22452   8.348   3.679   3.181  0.6501 -0.3878  0.6990
  888MOL0     C22453   8.462   3.749   3.233  0.2665  0.6672  0.0130
  888MOL0     O22454   8.722   3.867   3.092 -0.6672  0.5875  0.0705
  888MOL0     C22455   8.840   3.932   3.425  0.5097  0.1256  1.5521
  888MOL0     C22456   8.910   4.011   3.511 -0.2522 -0.0630 -0.1962
  888MOL0     N22457   8.699   4.566   3.384  0.0112  0.5582  0.1182
  888MOL0     N22458   8.588   4.630   3.360  0.6993 -0.4159  0.5254
  888MOL0     C22459   7.640   5.259   3.081  1.2852  0.1896 -0.0079
  888MOL0     C22460   7.602   5.347   2.979  0.5969 -0.2242 -0.3430
  888MOL0     C22461   7.420   5.765   2.849 -0.1332  0.0612  0.2653
  888MOL0     C22462   7.288   5.721   2.826 -0.4356 -0.3961  1.0962
  888MOL0     C22463   7.190   5.811   2.775 -0.0754 -0.4811 -0.6847
  888MOL0     C22464   7.231   5.946   2.750 -0.0895  0.2232  0.2414
  888MOL0     O22465   7.143   6.040   2.711  0.4364 -0.5136 -0.4449
  888MOL0     C22466   7.013   6.037   2.776 -0.1203 -0.6126  0.2384
  888MOL0     C22467   6.945   6.176   2.772  0.1690 -0.1123 -0.2633
  888MOL0     C22468   7.023   6.270   2.870  0.8123  0.0300 -0.5889
  888MOL0     C22469   6.939   6.396   2.911  0.2460 -0.2667 -0.8285
  888MOL0     C22470   6.817   6.340   2.967  0.2017  0.2238  0.4292
  888MOL0     C22471   6.705   6.290   3.004 -0.2929  0.0008  0.4349
  888MOL0     C22472   7.366   5.985   2.759  0.8584  0.0519  0.0005
  888MOL0     C22473   7.451   5.894   2.815 -0.9234 -1.3189 -0.3958
  888MOL0     C22474   7.592   5.939   2.827  0.3037 -0.0555  0.6191
  888MOL0     H22475   7.380   5.552   3.151 -0.8067 -0.3273 -0.0364
  888MOL0     H22476   7.446   5.371   3.335 -1.4933 -3.5502 -0.5878
  888MOL0     H22477   7.723   5.034   3.242  1.1197  0.9550 -2.1704
  888MOL0     H22478   7.712   5.057   3.417 -0.8375  3.7035  0.4000
  888MOL0     H22479   7.887   5.249   3.243 -1.0692 -0.7217 -1.3165
  888MOL0     H22480   7.867   5.244   3.415 -3.5489  1.1522 -1.0168
  888MOL0     H22481   7.951   5.017   3.439  0.0300  0.2538 -0.4123
  888MOL0     H22482   7.963   4.995   3.267 -0.6416  2.8423 -2.5604
  888MOL0     H22483   8.144   5.186   3.292 -1.5474  1.3511  0.1045
  888MOL0     H22484   8.121   5.183   3.460 -0.0223 -2.5728  0.8252
  888MOL0     H22485   8.213   4.934   3.297  0.5895 -2.0644  0.8509
  888MOL0     H22486   8.196   4.946   3.465 -0.3126  1.0233  0.2337
  888MOL0     H22487   8.392   5.109   3.297  1.6357  0.6134  1.1885
  888MOL0     H22488   8.366   5.147   3.465 -0.9863  1.4786 -1.4535
  888MOL0     H22489   8.422   4.923   3.540  0.2266  3.0004 -0.0542
  888MOL0     H22490   8.548   5.026   3.473 -0.5134  1.0402 -0.0761
  888MOL0     H22491   8.399   4.806   3.322  0.3400  0.2471 -0.4764
  888MOL0     H22492   8.532   4.910   3.259 -1.3241  0.1966 -0.6939
  888MOL0     H22493   8.780   4.881   3.403 -0.8010  0.7262 -0.2876
  888MOL0     H22494   8.905   4.642   3.595  2.8936  1.7910  0.5663
  888MOL0     H22495   8.998   4.680   3.440 -1.3884  0.6463 -3.4105
  888MOL0     H22496   8.890   4.422   3.554  0.8270  1.7512  1.6527
  888MOL0     H22497   8.943   4.447   3.381  0.3048  2.5439 -0.9230
  888MOL0     H22498   9.167   4.512   3.484  1.0435 -2.0530 -0.9322
  888MOL0     H22499   9.106   4.471   3.640 -0.5212 -1.7020  0.1820
  888MOL0     H22500   9.161   4.288   3.400 -0.1948 -0.6230 -0.3076
  888MOL0     H22501   9.236   4.271   3.560  2.0584  2.0289 -0.4585
  888MOL0     H22502   9.026   4.227   3.282 -0.4675 -0.6184 -1.5437
  888MOL0     H22503   8.788   4.096   3.055 -0.3976  2.2792  0.8392
  888MOL0     H22504   8.956   4.026   3.036 -1.4634 -1.1299 -0.4633
  888MOL0     H22505   8.927   4.199   3.070  1.1913 -0.5966  0.4162
  888MOL0     H22506   8.686   3.494   3.208 -1.2981 -1.9742  0.7587
  888MOL0     H22507   8.480   3.390   3.113 -0.5181 -0.0798 -0.8009
  888MOL0     H22508   8.253   3.267   3.112  0.9528 -0.5121 -0.0283
  888MOL0     H22509   8.224   3.368   3.256 -2.1762  1.6659  0.0418
  888MOL0     H22510   8.020   3.463   3.169  3.3206  1.3879 -0.2531
  888MOL0     H22511   8.033   3.362   3.029 -1.3944  0.1515  0.7906
  888MOL0     H22512   7.973   3.258   3.306 -1.1703  0.3270 -0.1947
  888MOL0     H22513   8.013   3.161   3.161 -1.5194 -0.2870 -1.0643
  888MOL0     H22514   7.768   3.330   3.205 -2.9674 -1.6602 -1.0395
  888MOL0     H22515   7.774   3.165   3.176 -0.4723 -0.1130  0.0891
  888MOL0     H22516   7.837   3.362   2.954 -0.4526  1.0201  2.0295
  888MOL0     H22517   7.841   3.187   2.946 -1.2692 -1.3087  1.1061
  888MOL0     H22518   7.588   3.200   3.034 -0.0125 -0.2220  1.3313
  888MOL0     H22519   7.627   3.245   2.866  1.2363 -3.7221  0.6914
  888MOL0     H22520   7.631   3.484   2.934 -1.2927 -1.0636 -2.3951
  888MOL0     H22521   7.614   3.440   3.107 -1.4024  1.6194 -0.6757
  888MOL0     H22522   7.386   3.334   3.057 -0.5059 -1.3423 -2.1270
  888MOL0     H22523   7.394   3.388   2.887  0.5243  1.4703 -0.3704
  888MOL0     H22524   8.254   3.732   3.168 -0.3449 -2.6379 -2.5927
  888MOL0     H22525   8.464   3.856   3.251 -1.9285  0.5805  1.1139
  888MOL0     H22526   8.795   3.848   3.477 -2.8288  0.4332 -0.5203
  888MOL0     H22527   8.915   3.997   3.618  0.8728 -0.9370 -0.3522
  888MOL0     H22528   7.720   5.190   3.055  2.9543  1.9826  0.0889
  888MOL0     H22529   7.656   5.342   2.886  0.4465  0.1165 -0.4529
  888MOL0     H22530   7.264   5.617   2.844  1.4919 -0.8106  1.5302
  888MOL0     H22531   7.088   5.775   2.770 -0.3999  0.4930 -1.4206
  888MOL0     H22532   6.943   5.980   2.714 -1.4787  0.1685  0.9977
  888MOL0     H22533   7.017   5.983   2.872 -2.2632 -2.0695 -0.4043
  888MOL0     H22534   6.841   6.157   2.801  0.0796  0.0358 -0.4840
  888MOL0     H22535   6.947   6.224   2.673  1.4222  0.4026  0.0008
  888MOL0     H22536   7.048   6.218   2.963  0.5265  1.9368  0.6113
  888MOL0     H22537   7.114   6.304   2.820 -0.6537  0.6833 -2.9805
  888MOL0     H22538   6.915   6.467   2.832 -1.3580 -0.2598 -0.3543
  888MOL0     H22539   6.989   6.457   2.987  1.3351 -2.3979  0.2709
  888MOL0     H22540   6.612   6.273   3.053  0.1696 -0.5644  1.1321
  888MOL0     H22541   7.392   6.082   2.719 -0.2146 -0.5919 -2.4347
  888MOL0     H22542   7.664   5.870   2.782 -0.2059 -2.2677  2.9904
  888MOL0     H22543   7.609   6.037   2.782  2.4345 -0.8375 -0.3864
  888MOL0     H22544   7.610   5.942   2.935 -4.1811  0.3764  1.5575
  889MOL0     O22545   8.915   1.404   7.018 -0.5918 -0.6770 -0.0472
  889MOL0     C22546   8.986   1.315   7.060 -0.0958  0.0337  0.1834
  889MOL0     O22547   8.989   1.190   6.994  0.5019 -0.4462  0.5989
  889MOL0     C22548   8.888   1.176   6.896 -0.2790  0.3676  1.1720
  889MOL0     C22549   8.770   1.104   6.926 -0.8750 -0.9197 -0.6551
  889MOL0     C22550   8.687   1.066   6.825  0.0738  0.1243 -0.5121
  889MOL0     C22551   8.714   1.096   6.693 -0.0048 -0.6955  0.0698
  889MOL0     O22552   8.609   1.081   6.604 -0.9702  0.4998  0.4955
  889MOL0     C22553   8.624   1.120   6.464 -0.2233 -0.5977 -0.2031
  889MOL0     C22554   8.502   1.103   6.377  0.4408 -1.5212 -0.6069
  889MOL0     C22555   8.421   1.234   6.397  0.7680  0.3223  0.2516
  889MOL0     C22556   8.464   1.331   6.283  0.3542  0.4888 -0.2083
  889MOL0     C22557   8.406   1.466   6.321 -0.0440 -0.6784  0.0781
  889MOL0     C22558   8.442   1.573   6.214 -0.3742  0.6774  0.6962
  889MOL0     C22559   8.364   1.561   6.080 -0.0519  0.0196 -0.9318
  889MOL0     C22560   8.360   1.694   5.999 -0.2677  0.3337 -0.3708
  889MOL0     N22561   8.272   1.676   5.883 -0.5217 -0.4786  0.6359
  889MOL0     C22562   8.187   1.773   5.831  0.3201 -0.8462  0.9440
  889MOL0     C22563   8.157   1.729   5.702  0.2164 -0.4003  0.3774
  889MOL0     C22564   8.062   1.798   5.607 -0.7471 -0.4980 -0.3300
  889MOL0     C22565   7.928   1.729   5.582  1.0605 -0.6622  0.8949
  889MOL0     C22566   7.958   1.629   5.463  0.3882  0.3879 -0.0646
  889MOL0     C22567   7.829   1.557   5.419 -0.1001  0.3042 -0.3761
  889MOL0     O22568   7.751   1.659   5.359  0.4813 -0.2122  0.2719
  889MOL0     C22569   7.628   1.708   5.396  0.4625  0.9179 -0.5918
  889MOL0     C22570   7.543   1.638   5.480 -0.3167 -0.0124  0.7473
  889MOL0     C22571   7.412   1.676   5.501  1.2966  0.1261  0.1119
  889MOL0     C22572   7.327   1.573   5.579  0.6496 -0.5424 -0.2696
  889MOL0     C22573   7.361   1.804   5.456 -0.2700  0.1631 -0.4097
  889MOL0     C22574   7.224   1.849   5.465 -0.2270 -0.5425 -0.3918
  889MOL0     O22575   7.141   1.786   5.547  0.4618 -0.5988 -0.4856
  889MOL0     C22576   7.005   1.810   5.540 -0.3571  0.2366 -1.0155
  889MOL0     C22577   6.942   1.738   5.442 -0.1457  0.9078  1.4605
  889MOL0     C22578   6.802   1.740   5.445  1.4121 -0.0407 -0.4601
  889MOL0     C22579   6.724   1.807   5.541  0.4819  0.0267  0.7934
  889MOL0     O22580   6.583   1.809   5.525 -0.2586  0.1292 -0.8051
  889MOL0     C22581   6.514   1.702   5.589  0.7368  0.2089  0.5475
  889MOL0     C22582   6.396   1.753   5.664  0.1003 -0.0967 -0.6502
  889MOL0     C22583   6.333   1.671   5.772  0.6792  0.0402  0.9677
  889MOL0     C22584   6.247   1.559   5.718 -0.3905 -0.3245 -0.2400
  889MOL0     C22585   6.172   1.492   5.838 -0.1113 -0.3387 -0.6654
  889MOL0     C22586   6.267   1.404   5.924  0.3376  0.1631 -0.2815
  889MOL0     C22587   6.185   1.327   6.035 -1.1654 -0.2203 -0.2296
  889MOL0     C22588   6.284   1.238   6.122 -0.6421 -0.6693  0.2534
  889MOL0    Cl22589   6.390   1.355   6.207 -0.2088 -0.3393  0.2238
  889MOL0     C22590   6.794   1.882   5.638  0.2171  0.4168  0.4460
  889MOL0     C22591   6.936   1.880   5.643 -0.0568  0.2677  0.3416
  889MOL0     O22592   7.192   1.943   5.393  0.3546  0.8587  0.0399
  889MOL0     C22593   7.454   1.880   5.382  0.1306 -0.2195  0.8057
  889MOL0     C22594   7.587   1.831   5.348  0.4189 -0.0757  0.5426
  889MOL0     N22595   8.226   1.615   5.681 -0.0488 -0.3735 -0.7803
  889MOL0     N22596   8.297   1.585   5.784 -0.3362  0.7624 -0.1339
  889MOL0     C22597   8.832   1.159   6.655  0.4957 -0.1234 -0.5544
  889MOL0     C22598   8.913   1.218   6.760 -1.7582 -0.3577  0.7751
  889MOL0     C22599   9.074   1.348   7.181  0.5935 -0.1556  0.2619
  889MOL0     C22600   9.003   1.397   7.294 -0.2422 -0.4148  0.5189
  889MOL0     C22601   9.078   1.455   7.398 -0.3023 -0.0345  0.0850
  889MOL0     C22602   9.217   1.457   7.389 -0.2248  0.3818  0.3623
  889MOL0     O22603   9.299   1.500   7.487  0.1080  0.0915  0.0432
  889MOL0     C22604   9.242   1.552   7.601 -0.4058  0.1337 -0.4493
  889MOL0     C22605   9.186   1.693   7.587  0.3018 -0.3155 -0.2353
  889MOL0     C22606   9.098   1.745   7.701 -0.1514  0.5663 -0.0403
  889MOL0     C22607   9.176   1.783   7.829 -0.4199  0.1549 -0.1316
  889MOL0     C22608   9.223   1.660   7.901  0.4193 -0.9156  0.1616
  889MOL0     C22609   9.273   1.563   7.955 -0.9152  0.2211  0.5879
  889MOL0     C22610   9.285   1.412   7.276  0.4487 -0.2558 -0.5097
  889MOL0     C22611   9.212   1.348   7.176 -0.5386 -0.6988  0.5059
  889MOL0     C22612   9.293   1.274   7.073 -0.1831  0.1387  0.0116
  889MOL0     H22613   8.752   1.088   7.031 -1.1358 -0.6377 -0.6542
  889MOL0     H22614   8.591   1.020   6.846 -0.4527  1.0562 -0.8124
  889MOL0     H22615   8.699   1.054   6.421  1.5611  0.1261  1.6464
  889MOL0     H22616   8.670   1.218   6.444  1.3769 -1.1623  0.5492
  889MOL0     H22617   8.530   1.100   6.271  1.5142  0.0499 -0.3983
  889MOL0     H22618   8.450   1.009   6.400 -0.9418 -0.3644  1.2613
  889MOL0     H22619   8.318   1.205   6.374  1.2834 -3.0527  1.6648
  889MOL0     H22620   8.437   1.276   6.497  0.6898  0.6686  0.1191
  889MOL0     H22621   8.571   1.335   6.261 -0.0285 -1.5878 -2.8779
  889MOL0     H22622   8.422   1.291   6.191  1.6415 -0.1081 -0.5580
  889MOL0     H22623   8.452   1.492   6.416  0.4701  1.6132 -0.7216
  889MOL0     H22624   8.297   1.460   6.324 -0.3392 -0.0129 -3.8669
  889MOL0     H22625   8.408   1.664   6.266  1.1994  0.8041  1.5732
  889MOL0     H22626   8.551   1.576   6.208 -0.4191 -0.4474 -1.3884
  889MOL0     H22627   8.260   1.543   6.109 -0.1891  2.6421  0.5053
  889MOL0     H22628   8.404   1.481   6.018  0.8484 -1.3628  1.2985
  889MOL0     H22629   8.320   1.776   6.060 -1.2813 -0.2113 -0.2797
  889MOL0     H22630   8.460   1.721   5.962  0.1295  3.1116  2.2699
  889MOL0     H22631   8.150   1.859   5.885  0.5531  0.3636 -0.7231
  889MOL0     H22632   8.121   1.815   5.516  0.9751 -2.8329  0.2498
  889MOL0     H22633   8.045   1.897   5.650  0.9676  0.2122 -1.1845
  889MOL0     H22634   7.885   1.679   5.670 -1.2204 -0.2563  0.0784
  889MOL0     H22635   7.853   1.800   5.547  0.5377  0.8396  4.5328
  889MOL0     H22636   8.004   1.667   5.372  0.4811 -0.9047 -0.5771
  889MOL0     H22637   8.026   1.556   5.510  2.0685  2.4836  0.9342
  889MOL0     H22638   7.861   1.477   5.352  0.4944  1.0779 -1.0424
  889MOL0     H22639   7.789   1.514   5.511  1.9422 -0.6415  0.1343
  889MOL0     H22640   7.579   1.544   5.519  1.0412  0.9143  1.8250
  889MOL0     H22641   7.312   1.610   5.681  1.0647  2.0417 -1.0813
  889MOL0     H22642   7.381   1.478   5.586  1.4508 -0.0390  0.7010
  889MOL0     H22643   7.225   1.568   5.541  0.9815  2.2817 -1.7031
  889MOL0     H22644   6.993   1.682   5.364  0.9666  1.9642  1.3885
  889MOL0     H22645   6.751   1.680   5.370  1.1462  0.0747 -0.3726
  889MOL0     H22646   6.474   1.638   5.509 -0.7576 -0.4119  1.7411
  889MOL0     H22647   6.576   1.642   5.656 -0.0880 -0.6847  0.5356
  889MOL0     H22648   6.432   1.848   5.705  0.0992 -0.0968 -0.6489
  889MOL0     H22649   6.322   1.788   5.590 -1.3778 -0.1921  0.7311
  889MOL0     H22650   6.282   1.742   5.838 -3.3430 -0.7818 -0.9451
  889MOL0     H22651   6.403   1.617   5.837  2.4195  1.5128  0.4070
  889MOL0     H22652   6.313   1.482   5.677 -1.3986 -0.2019 -2.2092
  889MOL0     H22653   6.181   1.597   5.639  1.0330  0.5224 -1.0711
  889MOL0     H22654   6.118   1.558   5.906 -2.8481 -2.2627 -0.8057
  889MOL0     H22655   6.097   1.424   5.797 -0.4815  0.0327 -0.6134
  889MOL0     H22656   6.343   1.469   5.968  1.0839 -1.5736  1.0924
  889MOL0     H22657   6.310   1.332   5.853 -0.3002  1.0065 -1.5778
  889MOL0     H22658   6.103   1.271   5.989 -2.5271  0.9973  0.6356
  889MOL0     H22659   6.137   1.398   6.104  1.4661  0.4879  0.9944
  889MOL0     H22660   6.346   1.174   6.059 -2.5164 -1.4616 -0.8713
  889MOL0     H22661   6.225   1.182   6.195 -2.2714  3.3398  2.3330
  889MOL0     H22662   6.747   1.953   5.706  0.1610 -1.0125  1.9521
  889MOL0     H22663   6.997   1.928   5.719  0.4539  2.5518 -1.3903
  889MOL0     H22664   7.422   1.974   5.338 -2.9206 -1.5487 -0.1357
  889MOL0     H22665   7.642   1.900   5.287 -1.4444 -0.9979 -2.4166
  889MOL0     H22666   8.861   1.177   6.552  1.4785  0.0658 -0.2594
  889MOL0     H22667   9.005   1.266   6.730 -1.2727 -1.6972  0.0209
  889MOL0     H22668   8.895   1.412   7.299  0.1041  2.4383  1.3562
  889MOL0     H22669   9.024   1.488   7.486  0.0907 -2.2295  1.2035
  889MOL0     H22670   9.170   1.487   7.651  0.3777  0.0466  0.6029
  889MOL0     H22671   9.325   1.543   7.672 -0.4200 -2.0502 -0.6362
  889MOL0     H22672   9.133   1.708   7.492 -2.0481 -1.4241  0.8058
  889MOL0     H22673   9.271   1.762   7.586 -0.6746  0.9308 -0.6243
  889MOL0     H22674   9.041   1.831   7.665 -2.5327 -1.7658 -2.2224
  889MOL0     H22675   9.029   1.662   7.720 -1.7036  1.0816 -2.8789
  889MOL0     H22676   9.111   1.840   7.896  0.9693  0.7141  0.7835
  889MOL0     H22677   9.262   1.846   7.804  0.1965  0.5754  2.7547
  889MOL0     H22678   9.302   1.474   8.007  0.6946  0.3866  0.0137
  889MOL0     H22679   9.392   1.405   7.293  0.4293 -0.6887 -0.5526
  889MOL0     H22680   9.299   1.166   7.087 -0.5783  0.2321  0.9396
  889MOL0     H22681   9.246   1.300   6.978  1.2223  2.3478 -0.1482
  889MOL0     H22682   9.398   1.305   7.060  0.2169 -2.0071 -2.7930
  890MOL0     O22683   2.353  10.918   1.418 -0.1406 -0.5824  0.3039
  890MOL0     C22684   2.359  10.964   1.301 -0.8882 -0.6358  0.6237
  890MOL0     O22685   2.367  10.895   1.191  0.0113  0.2349  0.5577
  890MOL0     C22686   2.394  10.767   1.188 -0.9936 -0.0845  0.3048
  890MOL0     C22687   2.294  10.680   1.209  0.0218  0.8937 -0.4292
  890MOL0     C22688   2.326  10.539   1.210  1.2013 -0.0826  0.9050
  890MOL0     C22689   2.459  10.493   1.191 -0.8097 -0.3730  0.0286
  890MOL0     O22690   2.469  10.365   1.186  0.4448  0.7418 -0.2414
  890MOL0     C22691   2.598  10.314   1.214  0.5949  0.9355  0.1670
  890MOL0     C22692   2.588  10.166   1.252  0.1111 -0.7336  0.2655
  890MOL0     C22693   2.714  10.093   1.291 -0.0877  0.6677 -0.4359
  890MOL0     C22694   2.843  10.161   1.245 -0.3002 -0.0059 -0.1892
  890MOL0     C22695   2.964  10.079   1.306 -0.0930  0.5970  0.2997
  890MOL0     C22696   3.097  10.126   1.246 -0.6100  0.2991  0.2417
  890MOL0     C22697   3.215  10.074   1.338 -0.1930 -0.1911  0.2119
  890MOL0     C22698   3.235  10.158   1.462  0.1250  0.0328  0.5716
  890MOL0     N22699   3.358  10.117   1.545  0.6034  0.1489 -0.2195
  890MOL0     C22700   3.421  10.199   1.645  1.1705  0.1137 -0.2184
  890MOL0     C22701   3.504  10.120   1.708  0.4949 -0.1773 -0.1031
  890MOL0     C22702   3.589  10.171   1.817  0.1887 -0.5551  0.2563
  890MOL0     C22703   3.595  10.073   1.926 -0.9925 -0.1889 -0.9451
  890MOL0     C22704   3.460  10.017   1.974  0.1435 -0.9394 -1.2183
  890MOL0     C22705   3.478   9.950   2.111  0.6472 -0.2037 -0.5284
  890MOL0     O22706   3.365   9.871   2.117 -0.4812  0.3766  0.3665
  890MOL0     C22707   3.237   9.916   2.148 -0.8472  0.0687  0.2273
  890MOL0     C22708   3.127   9.828   2.120  0.4426  0.5210  0.1255
  890MOL0     C22709   2.992   9.857   2.154 -0.2634  0.3194  0.2234
  890MOL0     C22710   2.897   9.735   2.142 -0.2947  0.4020 -0.1947
  890MOL0     C22711   2.960   9.989   2.210 -0.7715 -1.0327  0.2334
  890MOL0     C22712   2.826  10.036   2.219 -0.5616 -0.5833 -0.2504
  890MOL0     O22713   2.801  10.130   2.315 -0.2702  0.0162 -0.4492
  890MOL0     C22714   2.682  10.184   2.326  0.4386  0.0294  0.8506
  890MOL0     C22715   2.602  10.220   2.220 -0.2473 -0.3623  0.7207
  890MOL0     C22716   2.477  10.270   2.240 -0.5573  0.5745  0.5031
  890MOL0     C22717   2.429  10.301   2.367 -0.6706  0.3930  0.9678
  890MOL0     O22718   2.299  10.339   2.386  0.4749 -0.2887 -0.9702
  890MOL0     C22719   2.193  10.278   2.321  0.3524  0.0264  0.1499
  890MOL0     C22720   2.177  10.129   2.330 -0.3723  0.1233  0.5862
  890MOL0     C22721   2.036  10.077   2.286  0.0158 -0.2436  0.3294
  890MOL0     C22722   2.047   9.935   2.253  0.3327 -0.3594  0.3086
  890MOL0     C22723   1.905   9.892   2.206 -0.4779  0.1499 -0.6431
  890MOL0     C22724   1.907   9.747   2.171  0.0631 -0.5706  0.7835
  890MOL0     C22725   1.768   9.704   2.134 -0.0506 -0.8173 -0.5474
  890MOL0     C22726   1.769   9.590   2.038  0.0522 -0.1003  0.1319
  890MOL0    Cl22727   1.620   9.588   1.945 -0.4735  0.2614 -0.2459
  890MOL0     C22728   2.512  10.280   2.471  0.0590  0.1063  0.2046
  890MOL0     C22729   2.651  10.229   2.455 -0.9963 -0.0642 -0.3203
  890MOL0     O22730   2.742   9.979   2.143 -0.4492  0.3049  0.5331
  890MOL0     C22731   3.071  10.085   2.224 -0.4239 -0.4293  0.5959
  890MOL0     C22732   3.202  10.046   2.195 -0.1316  0.2986 -0.6688
  890MOL0     N22733   3.491   9.992   1.648  0.0154  0.9286 -0.7909
  890MOL0     N22734   3.411   9.990   1.551 -0.4067 -0.1824 -0.2049
  890MOL0     C22735   2.563  10.592   1.166 -0.8567  0.1070 -0.2737
  890MOL0     C22736   2.527  10.728   1.167  0.8796  0.2452  0.9201
  890MOL0     C22737   2.336  11.112   1.277  0.0866 -1.0645  0.0065
  890MOL0     C22738   2.326  11.169   1.145 -0.2825 -0.7109  1.1412
  890MOL0     C22739   2.312  11.303   1.124  1.2289 -0.1024 -0.4150
  890MOL0     C22740   2.302  11.398   1.234 -0.7164  0.2092  0.5869
  890MOL0     O22741   2.283  11.532   1.227  0.3830 -0.3556 -0.1255
  890MOL0     C22742   2.315  11.604   1.111  0.1595  1.0684 -0.5589
  890MOL0     C22743   2.244  11.735   1.121 -0.3691 -0.7605  0.0082
  890MOL0     C22744   2.102  11.715   1.070 -0.8076 -0.0761  0.5078
  890MOL0     C22745   2.040  11.852   1.055  0.2935  0.0396 -0.6496
  890MOL0     C22746   2.031  11.938   1.177 -0.3439  0.1017  0.5098
  890MOL0     C22747   2.007  12.009   1.270 -0.7281  0.1476 -0.0313
  890MOL0     C22748   2.297  11.347   1.360  0.9589  0.5828  0.7195
  890MOL0     C22749   2.315  11.205   1.384 -0.9381 -0.3584 -1.0887
  890MOL0     C22750   2.294  11.165   1.527 -0.0405  0.9431 -0.4944
  890MOL0     H22751   2.190  10.711   1.209 -0.5430 -0.8913 -0.5905
  890MOL0     H22752   2.246  10.466   1.221 -0.0462  0.9797 -0.6054
  890MOL0     H22753   2.645  10.365   1.298 -1.5074  0.6217  1.6119
  890MOL0     H22754   2.649  10.323   1.117 -0.4449  2.3830 -0.2865
  890MOL0     H22755   2.517  10.160   1.334  1.4218 -0.1116  1.4833
  890MOL0     H22756   2.532  10.119   1.170 -1.4029  0.3231  0.6650
  890MOL0     H22757   2.712  10.092   1.400 -0.6236 -1.5363 -0.4161
  890MOL0     H22758   2.716   9.988   1.262 -0.0144  0.3258  0.7595
  890MOL0     H22759   2.845  10.169   1.136 -0.5429 -0.0926 -0.2026
  890MOL0     H22760   2.838  10.263   1.286 -1.3818  0.4340 -1.3493
  890MOL0     H22761   2.965   9.977   1.266  0.8512 -0.2540  2.3346
  890MOL0     H22762   2.955  10.074   1.415 -1.8257  1.2182  0.2173
  890MOL0     H22763   3.114  10.068   1.155  2.7718  0.4518  0.6376
  890MOL0     H22764   3.105  10.232   1.221  2.0663 -0.0102 -0.5555
  890MOL0     H22765   3.302  10.063   1.271 -0.8452  1.2597 -0.9336
  890MOL0     H22766   3.178   9.975   1.366 -1.8430 -0.5714 -2.8564
  890MOL0     H22767   3.250  10.259   1.423 -0.8390 -0.2975 -0.6995
  890MOL0     H22768   3.150  10.166   1.530  0.8480  0.7560  1.4158
  890MOL0     H22769   3.417  10.304   1.672  2.1965 -0.2868  1.7580
  890MOL0     H22770   3.557  10.268   1.856 -1.6252 -1.1226  0.2928
  890MOL0     H22771   3.693  10.187   1.789  0.2031  0.9871  1.0658
  890MOL0     H22772   3.671   9.999   1.899  2.3923  1.3577  3.1003
  890MOL0     H22773   3.636  10.120   2.016 -0.6825 -2.1113 -0.0306
  890MOL0     H22774   3.382  10.094   1.977 -1.9867 -2.9741  2.1469
  890MOL0     H22775   3.420   9.944   1.902 -0.5004 -1.8998  0.0684
  890MOL0     H22776   3.563   9.880   2.108  0.9671  0.1218  0.5295
  890MOL0     H22777   3.483  10.021   2.194  0.0998 -3.0855  2.1554
  890MOL0     H22778   3.128   9.727   2.079 -3.1232 -0.0331  1.0471
  890MOL0     H22779   2.796   9.749   2.183 -0.3788 -3.6583  1.4964
  890MOL0     H22780   2.941   9.652   2.198 -1.1214 -0.7854 -1.2200
  890MOL0     H22781   2.894   9.693   2.041  2.6177 -3.5621  1.1091
  890MOL0     H22782   2.640  10.204   2.120 -0.5011  0.9897  0.3925
  890MOL0     H22783   2.423  10.305   2.153  1.5275 -0.3432 -1.2482
  890MOL0     H22784   2.104  10.333   2.354  0.9564  2.0562 -1.4430
  890MOL0     H22785   2.208  10.299   2.215 -0.1668 -1.3383 -0.2093
  890MOL0     H22786   2.252  10.093   2.260 -0.7843  0.5489 -0.0845
  890MOL0     H22787   2.198  10.072   2.421 -0.2958 -3.7629 -1.6409
  890MOL0     H22788   2.004  10.127   2.194 -0.3948 -2.1786 -0.6332
  890MOL0     H22789   1.973  10.085   2.375 -0.6693 -0.8363 -0.0865
  890MOL0     H22790   2.077   9.878   2.342 -1.5884 -0.3009  1.0483
  890MOL0     H22791   2.126   9.925   2.178  0.0704  1.1642 -0.1935
  890MOL0     H22792   1.827   9.899   2.283 -1.3323  0.3554 -1.5173
  890MOL0     H22793   1.888   9.957   2.120  2.7221 -1.2092 -2.4788
  890MOL0     H22794   1.953   9.680   2.244  0.6979 -0.4594  0.4877
  890MOL0     H22795   1.978   9.742   2.088  0.5293 -0.4238  1.1748
  890MOL0     H22796   1.715   9.788   2.090  2.3800  1.6511  0.8875
  890MOL0     H22797   1.708   9.686   2.224  1.6664 -1.3526  0.5589
  890MOL0     H22798   1.773   9.502   2.104 -1.5272  0.7250  1.4139
  890MOL0     H22799   1.855   9.590   1.971  1.6729  3.2410  1.9992
  890MOL0     H22800   2.473  10.298   2.571  0.7620  2.1615  0.1382
  890MOL0     H22801   2.719  10.223   2.540 -0.8250 -0.0298 -0.4529
  890MOL0     H22802   3.046  10.182   2.266  2.2437  1.7897 -2.4802
  890MOL0     H22803   3.263  10.134   2.213 -1.5258  0.9160  1.3169
  890MOL0     H22804   2.667  10.561   1.158 -0.8770 -1.0011  2.4416
  890MOL0     H22805   2.598  10.807   1.146  2.0234 -0.7537  0.9044
  890MOL0     H22806   2.326  11.104   1.058  0.1379 -1.3244  1.5810
  890MOL0     H22807   2.295  11.347   1.026  1.6609  0.2644 -0.3249
  890MOL0     H22808   2.422  11.620   1.096  0.3550 -1.0530 -1.8380
  890MOL0     H22809   2.285  11.544   1.025  3.9375  0.1049 -1.3962
  890MOL0     H22810   2.296  11.808   1.059 -2.2089 -1.1348 -2.1080
  890MOL0     H22811   2.222  11.769   1.223 -2.4937 -1.0037 -0.3180
  890MOL0     H22812   2.100  11.670   0.970 -0.3637 -0.4990  0.6839
  890MOL0     H22813   2.047  11.650   1.138 -2.2816  1.6719  1.0517
  890MOL0     H22814   1.942  11.845   1.007 -0.3295  3.3767 -0.1516
  890MOL0     H22815   2.095  11.917   0.986  0.2098  0.1407 -0.6217
  890MOL0     H22816   2.004  12.076   1.354  1.9838  0.3892 -0.0438
  890MOL0     H22817   2.268  11.421   1.434 -2.2118  0.9228 -0.7096
  890MOL0     H22818   2.387  11.129   1.571 -1.2050 -0.3118  1.1201
  890MOL0     H22819   2.257  11.250   1.586 -2.0830  1.0465 -1.8233
  890MOL0     H22820   2.223  11.082   1.537  0.8763  0.2850  1.0303
  891MOL0     O22821   0.910   0.087   4.315  0.7565 -0.3158  0.0643
  891MOL0     C22822   1.018   0.136   4.278  0.2647 -0.5577 -0.9108
  891MOL0     O22823   1.049   0.270   4.278 -0.3388  0.1074  0.7660
  891MOL0     C22824   0.970   0.354   4.345  0.3961 -0.0746 -0.2324
  891MOL0     C22825   1.026   0.430   4.447 -0.4366 -0.9665 -0.6216
  891MOL0     C22826   0.943   0.510   4.528 -0.4825  0.8679  0.4691
  891MOL0     C22827   0.806   0.522   4.504  0.2863  0.8356  0.0230
  891MOL0     O22828   0.739   0.613   4.579  0.1220  0.2746 -0.3842
  891MOL0     C22829   0.603   0.594   4.599  0.0744 -0.0220  0.3053
  891MOL0     C22830   0.560   0.628   4.736  0.2548 -0.5164  0.7255
  891MOL0     C22831   0.507   0.773   4.756 -0.2807 -0.9213 -0.2806
  891MOL0     C22832   0.625   0.880   4.734 -0.0723 -0.1764  0.5801
  891MOL0     C22833   0.564   1.018   4.722 -0.6214 -1.0848 -0.0122
  891MOL0     C22834   0.487   1.073   4.850  0.0770  0.4811  0.5294
  891MOL0     C22835   0.460   1.229   4.826 -0.7269 -0.4207 -0.5600
  891MOL0     C22836   0.432   1.316   4.961  0.0627  0.5303  0.2226
  891MOL0     N22837   0.407   1.462   4.942  0.1968  0.9557  1.1640
  891MOL0     C22838   0.302   1.506   4.874 -0.2107  0.2452  1.0588
  891MOL0     C22839   0.312   1.645   4.882  0.8228 -0.0374 -0.1760
  891MOL0     C22840   0.221   1.754   4.831 -0.4488  1.0614 -0.2157
  891MOL0     C22841   0.287   1.863   4.732 -0.1987  0.3476 -0.2585
  891MOL0     C22842   0.300   1.801   4.594 -0.1024 -0.1543 -0.6634
  891MOL0     C22843   0.350   1.891   4.478  0.5262 -0.2989 -0.0715
  891MOL0     O22844   0.475   1.948   4.521  0.6430  0.0484  0.3590
  891MOL0     C22845   0.595   1.882   4.497  0.6083 -0.3916  0.1700
  891MOL0     C22846   0.606   1.755   4.447 -0.2865  0.4041 -0.1878
  891MOL0     C22847   0.723   1.687   4.415  0.0960 -0.0383  0.6090
  891MOL0     C22848   0.710   1.543   4.368 -0.0857 -0.4281  0.6696
  891MOL0     C22849   0.836   1.763   4.439 -0.2597  0.5770 -0.0833
  891MOL0     C22850   0.968   1.706   4.431  0.5396 -0.5276 -0.3669
  891MOL0     O22851   1.043   1.784   4.359 -0.0186  0.4834 -0.3502
  891MOL0     C22852   1.170   1.738   4.329  0.1671 -0.3506  0.2556
  891MOL0     C22853   1.269   1.714   4.430  0.2697  0.2584  0.6505
  891MOL0     C22854   1.400   1.694   4.402 -0.6808 -0.4951 -0.4655
  891MOL0     C22855   1.442   1.694   4.263  0.6589 -0.0309  1.3060
  891MOL0     O22856   1.573   1.677   4.237 -0.0767 -0.1145  0.0619
  891MOL0     C22857   1.627   1.577   4.149 -0.6648 -0.5431  0.4267
  891MOL0     C22858   1.774   1.599   4.095  0.5235  0.2966 -0.2581
  891MOL0     C22859   1.877   1.577   4.210  0.8179 -0.1978  1.0914
  891MOL0     C22860   2.013   1.536   4.153 -1.5983 -0.3403 -1.1648
  891MOL0     C22861   2.126   1.579   4.250 -0.2612  0.5782  0.2062
  891MOL0     C22862   2.121   1.490   4.376 -0.9486  0.3848  0.3771
  891MOL0     C22863   2.195   1.537   4.506  0.1608 -0.0698 -0.2201
  891MOL0     C22864   2.348   1.542   4.499 -0.4761  0.7180  0.1481
  891MOL0    Cl22865   2.429   1.546   4.663 -0.5715 -0.4534 -0.3683
  891MOL0     C22866   1.342   1.708   4.164 -0.1502 -0.0310 -0.0739
  891MOL0     C22867   1.210   1.719   4.201  0.4472 -0.5020  0.8365
  891MOL0     O22868   1.001   1.614   4.504 -0.2111  0.0041  0.7204
  891MOL0     C22869   0.828   1.893   4.500 -0.8738 -0.7601 -0.0915
  891MOL0     C22870   0.706   1.958   4.510  0.4931  0.1331  0.4437
  891MOL0     N22871   0.428   1.677   4.963  0.3849  0.8187  0.3166
  891MOL0     N22872   0.473   1.561   5.008  0.7752 -0.0123  0.1467
  891MOL0     C22873   0.753   0.433   4.411 -0.1387 -0.1224  0.2054
  891MOL0     C22874   0.832   0.363   4.325  0.3367 -0.4283 -0.2117
  891MOL0     C22875   1.117   0.045   4.209  0.1884 -0.0531 -0.3003
  891MOL0     C22876   1.207   0.103   4.127 -0.6492  0.3048  0.3051
  891MOL0     C22877   1.308   0.018   4.072  0.0771  0.1845  0.2380
  891MOL0     C22878   1.314  -0.120   4.088  0.1348  0.2150  0.0701
  891MOL0     O22879   1.408  -0.178   4.010  0.4594  0.5068 -0.0821
  891MOL0     C22880   1.446  -0.317   4.025 -0.1131  0.2644  0.0997
  891MOL0     C22881   1.349  -0.407   3.945 -0.1216  0.1315 -0.1583
  891MOL0     C22882   1.385  -0.415   3.798 -0.6938 -0.5577 -0.2349
  891MOL0     C22883   1.270  -0.484   3.729 -0.1778  0.7008  0.6554
  891MOL0     C22884   1.178  -0.381   3.686 -0.0511 -0.1973  0.3271
  891MOL0     C22885   1.077  -0.313   3.665 -0.5730 -0.2537  0.1021
  891MOL0     C22886   1.212  -0.181   4.163 -0.8227 -0.3854 -0.1834
  891MOL0     C22887   1.116  -0.100   4.234 -0.2610  0.0380  0.5108
  891MOL0     C22888   1.012  -0.179   4.317 -0.1331 -0.7287  1.0458
  891MOL0     H22889   1.131   0.419   4.469 -0.3546  0.2153 -0.3808
  891MOL0     H22890   0.982   0.566   4.612  0.0474 -0.7159  1.3172
  891MOL0     H22891   0.581   0.489   4.578  1.6138  0.1314 -2.6148
  891MOL0     H22892   0.546   0.652   4.526 -2.0992  0.6503  2.3907
  891MOL0     H22893   0.477   0.557   4.749  1.5405 -1.8069  2.2814
  891MOL0     H22894   0.632   0.603   4.814  1.8675 -0.0686 -0.5804
  891MOL0     H22895   0.435   0.791   4.676  1.1515  1.1695 -1.2026
  891MOL0     H22896   0.453   0.785   4.851 -0.2131  3.5818 -0.6017
  891MOL0     H22897   0.693   0.868   4.819  1.7050  2.4226 -0.3464
  891MOL0     H22898   0.678   0.870   4.639  1.0207  2.1193  0.8853
  891MOL0     H22899   0.501   1.021   4.633 -1.1349 -1.7120  0.3293
  891MOL0     H22900   0.644   1.092   4.708  0.3579 -2.3708 -1.4921
  891MOL0     H22901   0.392   1.020   4.863  1.0353 -1.8865 -1.3772
  891MOL0     H22902   0.556   1.061   4.934 -1.9044  0.8227  2.2853
  891MOL0     H22903   0.379   1.248   4.755  0.1961 -0.9878 -1.7917
  891MOL0     H22904   0.548   1.276   4.783 -0.1557  2.8678  3.5329
  891MOL0     H22905   0.339   1.279   5.006 -1.9483  1.6024 -2.7052
  891MOL0     H22906   0.519   1.316   5.027 -0.3345  2.2373  0.7988
  891MOL0     H22907   0.216   1.447   4.845 -0.0276  0.6273 -0.3298
  891MOL0     H22908   0.196   1.810   4.921  0.4866 -1.6925  1.8884
  891MOL0     H22909   0.126   1.721   4.786 -1.3693  3.7221 -0.3787
  891MOL0     H22910   0.223   1.951   4.739 -1.4298 -0.5709  0.5850
  891MOL0     H22911   0.384   1.888   4.774  1.0903 -1.2711 -2.0896
  891MOL0     H22912   0.373   1.721   4.611 -1.7830 -1.5279  0.4903
  891MOL0     H22913   0.208   1.752   4.560 -0.3794 -1.7731  2.1169
  891MOL0     H22914   0.350   1.838   4.383  1.4768  1.9300 -1.3970
  891MOL0     H22915   0.276   1.966   4.447 -0.2894 -1.2667 -0.5331
  891MOL0     H22916   0.523   1.688   4.432 -0.8348  1.4862 -2.4103
  891MOL0     H22917   0.606   1.513   4.349  0.8012 -2.3715 -1.6288
  891MOL0     H22918   0.753   1.468   4.436  1.0539 -2.6258 -2.2816
  891MOL0     H22919   0.760   1.533   4.271  1.8391  0.8729  1.4497
  891MOL0     H22920   1.241   1.721   4.535 -1.4924  1.9457  0.1185
  891MOL0     H22921   1.458   1.665   4.489  1.3470 -0.2825 -1.6680
  891MOL0     H22922   1.620   1.475   4.188  2.7998 -1.5925 -1.2875
  891MOL0     H22923   1.574   1.581   4.054  0.1550  0.3751 -0.0100
  891MOL0     H22924   1.772   1.512   4.028 -1.3750 -0.9528  1.2679
  891MOL0     H22925   1.778   1.702   4.061 -1.1269  0.4441 -0.0876
  891MOL0     H22926   1.837   1.509   4.286 -2.9153  0.1805 -0.3091
  891MOL0     H22927   1.877   1.677   4.255 -1.2456  0.0631  0.6141
  891MOL0     H22928   2.032   1.587   4.058  1.9040  1.9342  0.5168
  891MOL0     H22929   2.021   1.428   4.137  1.4913  0.0537 -3.1056
  891MOL0     H22930   2.224   1.574   4.201 -1.1892 -1.0874 -1.5770
  891MOL0     H22931   2.103   1.685   4.267 -1.4612  0.1589  1.3397
  891MOL0     H22932   2.170   1.395   4.352  0.9829  1.6889 -1.2141
  891MOL0     H22933   2.017   1.477   4.406 -1.9517  3.6448 -1.2052
  891MOL0     H22934   2.172   1.472   4.592 -0.7512  0.2438 -0.2246
  891MOL0     H22935   2.152   1.635   4.526 -0.4279 -0.3005 -0.3442
  891MOL0     H22936   2.375   1.635   4.448  0.0942  0.0684 -0.7519
  891MOL0     H22937   2.379   1.459   4.435 -0.9489  0.7632 -0.1416
  891MOL0     H22938   1.369   1.698   4.059 -3.1931 -3.9498 -0.7551
  891MOL0     H22939   1.135   1.718   4.123  0.1717  1.9283  0.9880
  891MOL0     H22940   0.920   1.948   4.513  0.4483 -2.8375 -0.1125
  891MOL0     H22941   0.710   2.062   4.540 -0.2258  0.9040 -1.9160
  891MOL0     H22942   0.649   0.444   4.381 -0.3728  0.4920  1.2054
  891MOL0     H22943   0.796   0.298   4.245 -0.0334 -1.3600  0.6964
  891MOL0     H22944   1.225   0.207   4.102  0.0440  0.5643  1.7983
  891MOL0     H22945   1.385   0.065   4.013 -0.2764  0.8547  0.2931
  891MOL0     H22946   1.548  -0.344   3.996 -0.1863  1.8771 -1.8069
  891MOL0     H22947   1.425  -0.351   4.127  1.0830  0.9972  0.6060
  891MOL0     H22948   1.253  -0.356   3.950 -0.4404 -0.5036  0.3188
  891MOL0     H22949   1.340  -0.501   4.001 -1.5296 -0.4627 -1.3235
  891MOL0     H22950   1.399  -0.316   3.754 -1.8670  0.0469  0.6931
  891MOL0     H22951   1.478  -0.471   3.787 -0.5288  0.1315 -2.8533
  891MOL0     H22952   1.222  -0.563   3.788 -0.9172 -0.6967 -1.6992
  891MOL0     H22953   1.308  -0.538   3.642 -0.9420 -0.6461  1.1122
  891MOL0     H22954   0.987  -0.259   3.642 -0.9319 -0.7005  0.4447
  891MOL0     H22955   1.195  -0.288   4.165 -4.0526  0.0491  0.9482
  891MOL0     H22956   0.912  -0.146   4.288 -0.2021 -1.4162  0.4685
  891MOL0     H22957   1.032  -0.284   4.298 -0.9196 -0.3146 -2.7216
  891MOL0     H22958   1.020  -0.168   4.426  1.8808 -0.1179  0.8671
  892MOL0     O22959   5.443   7.938   9.885 -0.2408  0.1201 -0.2934
  892MOL0     C22960   5.436   8.014   9.788 -0.9907 -0.2643 -0.2010
  892MOL0     O22961   5.464   7.986   9.663 -0.1260 -0.6701  0.4638
  892MOL0     C22962   5.536   7.876   9.625 -0.4093  0.1037 -0.1643
  892MOL0     C22963   5.546   7.858   9.489  0.2540 -0.3479 -0.8244
  892MOL0     C22964   5.624   7.751   9.443 -0.1971 -0.1610  0.1662
  892MOL0     C22965   5.676   7.656   9.523 -0.7984  0.0215  0.1543
  892MOL0     O22966   5.750   7.553   9.472 -0.5516 -0.1084 -0.1830
  892MOL0     C22967   5.739   7.507   9.339 -0.4138 -0.2881 -0.1287
  892MOL0     C22968   5.784   7.356   9.325  0.7249 -0.0565  1.7120
  892MOL0     C22969   5.797   7.318   9.181 -0.4154 -0.4919 -0.1768
  892MOL0     C22970   5.940   7.333   9.130  0.2219 -0.1007  0.2800
  892MOL0     C22971   6.039   7.222   9.187 -0.1514 -0.3231  0.1198
  892MOL0     C22972   6.028   7.077   9.119  0.4009 -0.0765 -0.4769
  892MOL0     C22973   6.133   6.977   9.177  0.3081  0.2781  0.1136
  892MOL0     C22974   6.283   7.009   9.174  0.4656  0.2504  0.4380
  892MOL0     N22975   6.318   7.035   9.039 -0.2710  0.5134  0.2258
  892MOL0     C22976   6.330   6.942   8.939  0.4084  0.5795  0.2513
  892MOL0     C22977   6.385   7.010   8.833 -0.6107 -0.3990  0.2218
  892MOL0     C22978   6.414   6.957   8.695 -1.5679 -0.4804 -0.0363
  892MOL0     C22979   6.290   7.004   8.609  0.1149  0.4665  1.3157
  892MOL0     C22980   6.302   6.946   8.463 -0.0163 -0.0354  0.6867
  892MOL0     C22981   6.233   7.025   8.356 -0.4585  0.6850  0.6238
  892MOL0     O22982   6.096   7.032   8.400 -0.2873  0.2302 -0.7084
  892MOL0     C22983   5.990   7.041   8.314  0.0429  0.0679  0.2635
  892MOL0     C22984   5.858   7.033   8.359 -0.3296 -0.1529 -0.8900
  892MOL0     C22985   5.748   7.040   8.277 -0.5488 -0.3645 -0.0668
  892MOL0     C22986   5.614   7.059   8.336  0.2049 -0.6213  0.3362
  892MOL0     C22987   5.773   7.056   8.137 -0.0111 -0.3963 -0.0077
  892MOL0     C22988   5.667   7.069   8.033  0.0176  0.0220  0.0533
  892MOL0     O22989   5.696   7.132   7.910  0.0417  0.0919  0.2484
  892MOL0     C22990   5.616   7.131   7.805  0.4555  0.5002 -0.1029
  892MOL0     C22991   5.640   7.049   7.692  0.2181 -0.4115 -0.2805
  892MOL0     C22992   5.544   7.046   7.587 -1.8692  0.1025  0.0814
  892MOL0     C22993   5.427   7.120   7.591 -0.4924 -0.1099  0.0640
  892MOL0     O22994   5.352   7.120   7.483 -0.4486 -0.2198 -0.1998
  892MOL0     C22995   5.215   7.161   7.485 -0.2133  0.4896  0.5509
  892MOL0     C22996   5.150   7.113   7.356 -0.8205 -0.6208 -0.2336
  892MOL0     C22997   5.205   7.176   7.229 -0.2220 -0.2703 -0.1786
  892MOL0     C22998   5.141   7.117   7.109  0.0075 -0.1320  0.2366
  892MOL0     C22999   5.147   7.201   6.976  0.0917 -0.6038  0.6881
  892MOL0     C23000   5.289   7.211   6.913 -0.3907 -0.1841  0.2024
  892MOL0     C23001   5.349   7.068   6.892 -0.1656  0.6510  0.1377
  892MOL0     C23002   5.468   7.088   6.810 -0.9474 -0.1846  0.5194
  892MOL0    Cl23003   5.546   6.927   6.786 -0.2864 -0.2041  0.5968
  892MOL0     C23004   5.398   7.187   7.712 -0.0278  0.4902  0.8363
  892MOL0     C23005   5.491   7.201   7.804 -0.7940  0.5206 -1.0694
  892MOL0     O23006   5.555   7.024   8.065  0.3277 -0.6620 -0.1216
  892MOL0     C23007   5.907   7.056   8.086  0.2417  0.2583 -0.3632
  892MOL0     C23008   6.009   7.060   8.180  0.1093  0.3339  0.0833
  892MOL0     N23009   6.402   7.142   8.876  0.5710 -0.0584  0.0614
  892MOL0     N23010   6.351   7.156   8.995  0.0205 -0.2121  0.5029
  892MOL0     C23011   5.666   7.672   9.663  0.1212 -0.2449  0.0256
  892MOL0     C23012   5.599   7.783   9.707 -0.1313  0.6699  0.2040
  892MOL0     C23013   5.375   8.150   9.808 -0.1505 -1.3469 -0.0273
  892MOL0     C23014   5.400   8.251   9.712  0.2841  0.6877  0.3057
  892MOL0     C23015   5.368   8.380   9.737  0.1294  0.1731 -0.4484
  892MOL0     C23016   5.307   8.423   9.850 -0.3864 -0.2582 -0.1224
  892MOL0     O23017   5.316   8.556   9.873 -0.0588  0.4798 -0.5670
  892MOL0     C23018   5.182   8.612   9.884 -0.2662  0.4894  0.6214
  892MOL0     C23019   5.166   8.722   9.768  0.3043 -0.0272  0.1536
  892MOL0     C23020   5.257   8.838   9.819  0.7018  0.0275  0.1931
  892MOL0     C23021   5.246   8.953   9.708 -0.1122 -0.6595 -0.4442
  892MOL0     C23022   5.330   9.067   9.739 -0.2884  0.2059  0.1916
  892MOL0     C23023   5.420   9.144   9.745  0.6347  0.1387 -0.0203
  892MOL0     C23024   5.262   8.321   9.930 -0.4879 -0.5027 -0.1736
  892MOL0     C23025   5.297   8.192   9.919 -0.3395  0.2458 -0.3298
  892MOL0     C23026   5.258   8.101  10.035  0.1228  0.4503 -0.4107
  892MOL0     H23027   5.517   7.934   9.418 -0.5293 -0.0244 -0.1711
  892MOL0     H23028   5.646   7.740   9.337 -0.1974  1.0379  0.0239
  892MOL0     H23029   5.808   7.557   9.269  2.5804 -3.7476  0.0392
  892MOL0     H23030   5.636   7.513   9.304 -0.5579 -0.4335  0.2654
  892MOL0     H23031   5.878   7.332   9.376  1.7247 -1.5855 -0.7262
  892MOL0     H23032   5.701   7.296   9.363  0.2560  0.0913  0.9407
  892MOL0     H23033   5.758   7.218   9.159 -0.6849 -0.0957 -1.6375
  892MOL0     H23034   5.726   7.384   9.130 -2.0672 -0.6826  1.7769
  892MOL0     H23035   5.944   7.319   9.022  5.9788 -0.5279  0.1967
  892MOL0     H23036   5.970   7.437   9.144 -1.2612  0.2919  0.7320
  892MOL0     H23037   6.023   7.222   9.295 -0.5720 -2.6732  0.1043
  892MOL0     H23038   6.141   7.259   9.172  0.2218 -0.8760  1.2284
  892MOL0     H23039   5.927   7.043   9.143  1.1390 -0.8963  1.6373
  892MOL0     H23040   6.039   7.066   9.010 -0.2486  0.2192 -0.5752
  892MOL0     H23041   6.116   6.880   9.131  2.7017  0.1006 -0.5594
  892MOL0     H23042   6.102   6.966   9.281 -4.6987  0.6021 -1.1117
  892MOL0     H23043   6.295   7.101   9.232 -1.8591  1.1513 -0.3845
  892MOL0     H23044   6.342   6.928   9.218  1.5565  1.4378  1.2400
  892MOL0     H23045   6.322   6.834   8.934  2.0155  0.4366  0.0776
  892MOL0     H23046   6.429   6.848   8.691  2.6946 -0.1548  1.7887
  892MOL0     H23047   6.499   7.016   8.661 -2.3927  1.3096  0.8848
  892MOL0     H23048   6.197   6.961   8.647  0.6178 -2.4945 -0.5250
  892MOL0     H23049   6.277   7.113   8.613 -0.4307  0.3781  2.1525
  892MOL0     H23050   6.408   6.943   8.438  0.3776  0.5517  2.1814
  892MOL0     H23051   6.268   6.841   8.464 -0.8355  0.1914  2.7852
  892MOL0     H23052   6.286   7.120   8.344  2.7550 -0.9594  0.7935
  892MOL0     H23053   6.245   6.970   8.263 -2.7323  0.0777  0.6185
  892MOL0     H23054   5.851   7.016   8.466 -2.3666  0.6893 -0.8461
  892MOL0     H23055   5.560   6.965   8.348  0.9525 -0.8369  2.3441
  892MOL0     H23056   5.560   7.127   8.269 -0.7183 -1.3094  0.3531
  892MOL0     H23057   5.617   7.107   8.434 -2.4500  3.0078 -1.1094
  892MOL0     H23058   5.734   6.995   7.690 -0.0646 -0.8973 -0.8970
  892MOL0     H23059   5.571   7.002   7.491 -0.4336 -0.4320  0.6943
  892MOL0     H23060   5.162   7.114   7.569  0.7476  0.4724  1.1682
  892MOL0     H23061   5.203   7.270   7.493 -1.8564  0.7150 -3.0496
  892MOL0     H23062   5.155   7.003   7.352  1.8017 -0.5597 -0.2925
  892MOL0     H23063   5.042   7.133   7.364 -0.9656 -1.1756 -0.6856
  892MOL0     H23064   5.314   7.167   7.228 -0.3222 -1.7608 -1.3384
  892MOL0     H23065   5.192   7.284   7.241 -2.7434 -0.6557  1.4673
  892MOL0     H23066   5.036   7.116   7.136  0.4892 -2.9891  2.4337
  892MOL0     H23067   5.183   7.017   7.098  0.0937  0.1687 -3.8633
  892MOL0     H23068   5.083   7.160   6.897  2.4546 -1.7090 -0.7768
  892MOL0     H23069   5.113   7.303   6.997  1.3330  0.3042 -1.4391
  892MOL0     H23070   5.350   7.273   6.979 -1.8437  0.0152  1.4136
  892MOL0     H23071   5.288   7.261   6.816 -2.7173 -0.7446 -0.1105
  892MOL0     H23072   5.275   7.003   6.845 -0.9972  1.0936  0.7946
  892MOL0     H23073   5.383   7.029   6.989 -1.6877  0.8862  0.7887
  892MOL0     H23074   5.539   7.162   6.849  2.4281 -2.0202 -1.5850
  892MOL0     H23075   5.427   7.119   6.713  1.8076 -0.5747 -0.8752
  892MOL0     H23076   5.299   7.230   7.716 -0.3745 -0.0193 -1.1357
  892MOL0     H23077   5.466   7.254   7.896 -1.8491  0.2634 -1.1978
  892MOL0     H23078   5.938   7.051   7.982  1.1805 -0.0275 -0.0779
  892MOL0     H23079   6.106   7.058   8.131 -0.1107 -2.2837 -0.3827
  892MOL0     H23080   5.712   7.608   9.737  2.1964  1.2202  0.0992
  892MOL0     H23081   5.612   7.794   9.814  1.7562  3.8437 -0.2170
  892MOL0     H23082   5.460   8.229   9.624 -2.0816  0.2035 -1.2552
  892MOL0     H23083   5.406   8.447   9.661  1.8599 -1.2141 -0.8836
  892MOL0     H23084   5.100   8.543   9.863 -0.9073  1.8659 -1.8954
  892MOL0     H23085   5.174   8.663   9.980  1.6083  0.7387  0.6833
  892MOL0     H23086   5.063   8.753   9.748 -0.3582 -2.0223  0.2666
  892MOL0     H23087   5.197   8.678   9.673 -2.0410 -1.5115 -0.0057
  892MOL0     H23088   5.215   8.877   9.912 -0.1511  1.3687 -0.7085
  892MOL0     H23089   5.361   8.809   9.835  0.6378 -0.1058  0.3724
  892MOL0     H23090   5.140   8.975   9.688  0.4320 -0.3641 -3.4301
  892MOL0     H23091   5.279   8.915   9.611  0.6797  1.9975 -1.2785
  892MOL0     H23092   5.502   9.209   9.766 -0.4173  0.5943  3.4295
  892MOL0     H23093   5.210   8.346  10.022 -0.7986  1.1875 -0.7741
  892MOL0     H23094   5.194   8.146  10.111  2.0322  1.1946  0.8348
  892MOL0     H23095   5.200   8.016   9.996  3.2465 -1.8306 -0.4573
  892MOL0     H23096   5.347   8.063  10.086 -0.0015 -0.7587 -1.0406
  893MOL0     O23097  11.166   5.232   0.703 -0.0201  0.6344  0.6439
  893MOL0     C23098  11.291   5.256   0.704 -0.0059 -0.8587  0.1469
  893MOL0     O23099  11.355   5.356   0.628  0.5932  0.2488  0.5594
  893MOL0     C23100  11.270   5.447   0.569  0.3637  0.4439 -0.1260
  893MOL0     C23101  11.184   5.533   0.643 -0.1572 -0.7901 -0.6471
  893MOL0     C23102  11.109   5.628   0.577  0.1691 -0.0316  0.6911
  893MOL0     C23103  11.110   5.647   0.436  0.1492 -0.1719 -0.2559
  893MOL0     O23104  11.039   5.731   0.361 -0.1269  0.3733  0.2043
  893MOL0     C23105  10.980   5.838   0.435  0.3621 -0.4299 -0.8877
  893MOL0     C23106  10.952   5.948   0.336 -0.8390  0.1936 -0.1135
  893MOL0     C23107  10.815   5.929   0.263 -0.4960 -0.1984  0.0534
  893MOL0     C23108  10.837   5.868   0.119  0.2893  0.1660  0.6840
  893MOL0     C23109  10.711   5.868   0.034  0.1260 -0.4315 -0.0224
  893MOL0     C23110  10.674   6.014  -0.020  0.0686  0.2348  0.2198
  893MOL0     C23111  10.550   6.016  -0.102  0.5568  0.5814  0.1636
  893MOL0     C23112  10.555   6.115  -0.215  0.1346 -0.4272  0.1130
  893MOL0     N23113  10.440   6.102  -0.302  0.0102  0.3049  0.2417
  893MOL0     C23114  10.304   6.127  -0.273 -0.4536 -0.2040  0.0537
  893MOL0     C23115  10.247   6.099  -0.390  0.1288 -0.0994  1.0229
  893MOL0     C23116  10.105   6.125  -0.452  0.6899  0.0525  0.5157
  893MOL0     C23117  10.012   6.212  -0.367 -0.4306  0.3582  0.8716
  893MOL0     C23118   9.860   6.190  -0.385  0.0311  0.5189  0.3157
  893MOL0     C23119   9.811   6.049  -0.423  0.4812  0.1086  0.4968
  893MOL0     O23120   9.842   5.956  -0.323  0.2066  0.3529 -0.3652
  893MOL0     C23121   9.771   5.959  -0.203  0.3263 -0.2370  0.8300
  893MOL0     C23122   9.656   6.026  -0.180 -0.0986 -0.1676 -0.4314
  893MOL0     C23123   9.576   5.988  -0.073  0.0093  0.1834  0.3689
  893MOL0     C23124   9.441   6.062  -0.081  1.0737  0.2581  0.0156
  893MOL0     C23125   9.621   5.912   0.028 -0.8250 -0.0095 -0.4824
  893MOL0     C23126   9.541   5.879   0.146  0.6713 -0.1707 -0.5646
  893MOL0     O23127   9.584   5.774   0.226 -0.2568 -0.3201 -0.4259
  893MOL0     C23128   9.523   5.732   0.341  0.0867 -0.2175 -0.0184
  893MOL0     C23129   9.497   5.594   0.362 -0.3354  0.0155  0.0587
  893MOL0     C23130   9.438   5.552   0.484 -0.1107  0.1025 -0.8663
  893MOL0     C23131   9.408   5.648   0.580  0.3452  0.0638 -0.3273
  893MOL0     O23132   9.341   5.618   0.696  0.0371  0.5278 -0.0526
  893MOL0     C23133   9.220   5.540   0.684  0.3990 -0.3559 -1.2190
  893MOL0     C23134   9.098   5.638   0.652 -1.4608  0.1817 -0.5880
  893MOL0     C23135   8.962   5.586   0.705 -0.0294  0.1822 -0.2782
  893MOL0     C23136   8.911   5.479   0.615  0.1678  0.4192 -0.1446
  893MOL0     C23137   8.768   5.415   0.648  0.6097 -0.6553  0.2113
  893MOL0     C23138   8.728   5.310   0.545 -0.8773  0.5581 -0.5909
  893MOL0     C23139   8.596   5.249   0.564 -0.5997 -0.3668  0.1921
  893MOL0     C23140   8.604   5.106   0.500  0.5117  0.1224 -0.2775
  893MOL0    Cl23141   8.712   5.007   0.593 -1.1058 -0.6383  0.1166
  893MOL0     C23142   9.434   5.782   0.560 -0.3633  0.4185 -0.6295
  893MOL0     C23143   9.494   5.823   0.437 -0.5555  0.2264 -0.2275
  893MOL0     O23144   9.426   5.923   0.157 -0.0733  0.3743  0.1612
  893MOL0     C23145   9.747   5.849   0.010  0.1147  0.1828 -0.5273
  893MOL0     C23146   9.822   5.872  -0.109  0.1203 -0.7631  0.3601
  893MOL0     N23147  10.333   6.045  -0.478 -0.4242 -0.1899 -0.7116
  893MOL0     N23148  10.443   6.039  -0.420  0.3331  0.6312  0.0992
  893MOL0     C23149  11.199   5.558   0.368 -0.4942  1.3863  0.2417
  893MOL0     C23150  11.273   5.456   0.426  0.4102  0.6212 -0.2378
  893MOL0     C23151  11.381   5.179   0.791  0.5557  0.4948  0.9594
  893MOL0     C23152  11.518   5.173   0.758  0.2201 -0.3333 -0.1197
  893MOL0     C23153  11.612   5.110   0.840  0.4656  0.2038  0.4825
  893MOL0     C23154  11.564   5.035   0.943  0.1801 -0.0811  0.6813
  893MOL0     O23155  11.655   4.945   0.990 -0.1699  0.5480 -0.0256
  893MOL0     C23156  11.629   4.841   1.085  0.4639 -0.2963 -1.0784
  893MOL0     C23157  11.753   4.758   1.112  0.7493 -0.8788  0.1775
  893MOL0     C23158  11.847   4.842   1.198  0.3227  0.4564 -0.6426
  893MOL0     C23159  11.996   4.809   1.172 -0.4758 -0.1128  0.9487
  893MOL0     C23160  12.041   4.869   1.048 -0.0205  0.2047  0.0963
  893MOL0     C23161  12.097   4.913   0.944 -0.3583  0.7988 -0.0151
  893MOL0     C23162  11.436   5.046   0.987 -0.6070  0.5551  0.3730
  893MOL0     C23163  11.342   5.116   0.908  0.1854 -0.7472 -0.0725
  893MOL0     C23164  11.214   5.146   0.976 -0.6791 -0.9299  0.3926
  893MOL0     H23165  11.168   5.519   0.749  2.6749 -1.5185 -0.2459
  893MOL0     H23166  11.039   5.688   0.635 -0.1651  1.8565 -1.5016
  893MOL0     H23167  11.051   5.875   0.510 -1.8220  0.5244  0.8291
  893MOL0     H23168  10.892   5.804   0.490 -0.3505 -1.7774 -2.7793
  893MOL0     H23169  10.955   6.047   0.382 -0.0355 -0.2953  0.9245
  893MOL0     H23170  11.038   5.942   0.268  2.0936 -6.2518  3.2593
  893MOL0     H23171  10.755   5.863   0.327 -1.5094 -2.3636 -2.8642
  893MOL0     H23172  10.756   6.019   0.245 -1.0086 -0.5233  0.0725
  893MOL0     H23173  10.920   5.921   0.070 -0.3580  0.5421 -0.0239
  893MOL0     H23174  10.865   5.762   0.126  0.6550  0.1895 -0.2253
  893MOL0     H23175  10.624   5.822   0.082  0.8867  0.6718  2.5140
  893MOL0     H23176  10.729   5.805  -0.054  0.2873 -0.5841  0.1195
  893MOL0     H23177  10.659   6.083   0.064  1.0995 -0.5848  1.1085
  893MOL0     H23178  10.752   6.057  -0.084 -0.0790  3.7457  2.1648
  893MOL0     H23179  10.458   6.033  -0.045  0.5357 -2.0822  1.0187
  893MOL0     H23180  10.532   5.915  -0.139 -0.5982  0.1532  1.7709
  893MOL0     H23181  10.566   6.209  -0.161  0.3597 -0.2638 -0.2166
  893MOL0     H23182  10.641   6.091  -0.278 -1.8382  0.9342 -3.4127
  893MOL0     H23183  10.275   6.180  -0.183  1.9105 -1.4727  1.6689
  893MOL0     H23184  10.060   6.025  -0.454  0.2451  0.2470  0.5985
  893MOL0     H23185  10.110   6.168  -0.552  1.0802  3.0765  1.7314
  893MOL0     H23186  10.052   6.189  -0.267  2.2209 -1.8925 -0.5555
  893MOL0     H23187  10.042   6.316  -0.384 -2.7134  0.7047 -1.7252
  893MOL0     H23188   9.805   6.226  -0.298 -0.6138 -2.1089  1.0925
  893MOL0     H23189   9.822   6.246  -0.472 -0.1572  0.8354  0.5981
  893MOL0     H23190   9.703   6.058  -0.441  0.3452  1.3377  1.7534
  893MOL0     H23191   9.857   6.012  -0.515  0.8302 -2.2640  1.5425
  893MOL0     H23192   9.616   6.092  -0.256  0.8889  0.0769 -0.7619
  893MOL0     H23193   9.421   6.136  -0.004 -1.3959  0.3710 -0.6515
  893MOL0     H23194   9.366   5.983  -0.086 -0.2493  1.5425 -2.2463
  893MOL0     H23195   9.430   6.120  -0.173  0.4597 -1.0541 -0.7640
  893MOL0     H23196   9.523   5.514   0.293 -0.9892  0.2922 -0.5279
  893MOL0     H23197   9.417   5.446   0.493  0.1696 -0.1195 -2.5163
  893MOL0     H23198   9.222   5.471   0.599  0.1483  0.6286 -2.0458
  893MOL0     H23199   9.195   5.490   0.778  0.8909 -0.2139 -1.0100
  893MOL0     H23200   9.121   5.735   0.697 -1.2611 -0.6135  1.0881
  893MOL0     H23201   9.099   5.659   0.545  4.3793  0.6848 -0.7823
  893MOL0     H23202   8.888   5.666   0.705 -0.3243 -0.0355 -2.4829
  893MOL0     H23203   8.978   5.544   0.805 -2.0329 -0.1129 -0.0350
  893MOL0     H23204   8.985   5.398   0.613 -0.5894 -0.3085 -2.8638
  893MOL0     H23205   8.912   5.525   0.516 -0.0489 -0.2480 -0.4615
  893MOL0     H23206   8.780   5.365   0.744  2.3633 -1.9013 -0.6046
  893MOL0     H23207   8.687   5.490   0.647 -0.3846 -1.6051  2.7440
  893MOL0     H23208   8.809   5.237   0.553  0.7233  1.9272 -3.0482
  893MOL0     H23209   8.732   5.357   0.446 -0.2626 -0.3307 -0.9979
  893MOL0     H23210   8.521   5.316   0.520  1.5954 -0.6914 -4.5934
  893MOL0     H23211   8.580   5.224   0.669  2.3261  0.2140  0.8692
  893MOL0     H23212   8.651   5.110   0.401  0.9807 -0.1185 -0.0686
  893MOL0     H23213   8.506   5.058   0.494  0.4687  0.3376 -1.6732
  893MOL0     H23214   9.410   5.848   0.643  3.6963  1.3103  0.0372
  893MOL0     H23215   9.525   5.925   0.416  2.3817 -0.5429 -0.1613
  893MOL0     H23216   9.795   5.792   0.090  2.3071  1.3867 -0.9177
  893MOL0     H23217   9.916   5.817  -0.116  0.1414 -0.9100  1.5749
  893MOL0     H23218  11.191   5.570   0.261  2.8218  0.2595 -0.2341
  893MOL0     H23219  11.337   5.385   0.375  1.3640  0.9869  0.4159
  893MOL0     H23220  11.558   5.241   0.684  2.8934 -2.6166 -0.9564
  893MOL0     H23221  11.719   5.118   0.825  0.9129  4.0017  3.8781
  893MOL0     H23222  11.595   4.876   1.183 -1.0483 -0.6870 -1.4471
  893MOL0     H23223  11.549   4.783   1.039  0.3486 -1.2106  0.2035
  893MOL0     H23224  11.801   4.732   1.017  0.9264  2.4415 -0.7629
  893MOL0     H23225  11.729   4.670   1.172 -2.5204 -0.6112 -0.5678
  893MOL0     H23226  11.843   4.951   1.183  2.5953  0.4843 -1.4693
  893MOL0     H23227  11.831   4.813   1.303 -1.6264  0.7753 -0.8193
  893MOL0     H23228  12.008   4.703   1.151 -0.6645  0.4611 -2.9082
  893MOL0     H23229  12.064   4.834   1.254  1.3169  1.4286 -0.8805
  893MOL0     H23230  12.120   4.938   0.842 -0.4136  0.2651 -0.1563
  893MOL0     H23231  11.398   4.994   1.074  1.3551 -1.0014  0.3719
  893MOL0     H23232  11.140   5.068   0.958 -0.9145 -0.7108  0.4049
  893MOL0     H23233  11.219   5.147   1.085  0.9674 -0.6843  0.3468
  893MOL0     H23234  11.170   5.240   0.940 -0.1929 -0.8461 -0.0053
  894MOL0     O23235   7.354  11.033   1.657  0.2497 -0.1733  0.6407
  894MOL0     C23236   7.382  11.150   1.657 -1.1963 -0.6938 -0.1607
  894MOL0     O23237   7.299  11.249   1.668  0.4465 -0.4437  0.6312
  894MOL0     C23238   7.167  11.233   1.687  0.1583  0.0457 -0.2777
  894MOL0     C23239   7.090  11.280   1.581 -0.4958 -0.9867  0.4744
  894MOL0     C23240   6.947  11.293   1.581  0.2818  0.0577 -0.6052
  894MOL0     C23241   6.883  11.212   1.672 -0.1939  0.7364 -0.4982
  894MOL0     O23242   6.744  11.220   1.659  0.2128 -0.3003 -0.8497
  894MOL0     C23243   6.658  11.132   1.741 -0.3106 -1.0615  0.5942
  894MOL0     C23244   6.513  11.167   1.715 -0.5734 -0.4361 -0.1473
  894MOL0     C23245   6.403  11.100   1.808  0.8838  0.0236  0.2962
  894MOL0     C23246   6.376  10.946   1.777 -1.2563 -0.7391  0.5805
  894MOL0     C23247   6.278  10.887   1.867 -0.7581  0.1555  0.3703
  894MOL0     C23248   6.143  10.952   1.865 -1.0421 -0.3544  0.5724
  894MOL0     C23249   6.055  10.888   1.973  0.0429  0.7961  1.0470
  894MOL0     C23250   6.018  10.978   2.089 -0.5666 -0.6800  0.0553
  894MOL0     N23251   6.135  10.990   2.177  0.2152 -0.2462  0.1157
  894MOL0     C23252   6.249  11.069   2.162 -0.1934 -0.5926 -0.2442
  894MOL0     C23253   6.321  11.051   2.271 -0.5830 -1.0262  0.2893
  894MOL0     C23254   6.441  11.113   2.315 -0.0206 -0.7634  0.4420
  894MOL0     C23255   6.581  11.068   2.259 -0.1602 -0.4969  0.2706
  894MOL0     C23256   6.611  10.920   2.295  0.8700 -0.1906  0.2664
  894MOL0     C23257   6.544  10.821   2.196 -0.3011 -0.4673  0.8362
  894MOL0     O23258   6.577  10.850   2.060 -0.2656  0.3939  0.0864
  894MOL0     C23259   6.704  10.808   2.013  0.5507  0.8221 -0.1153
  894MOL0     C23260   6.727  10.677   1.955  0.5028 -0.0705 -0.2032
  894MOL0     C23261   6.849  10.639   1.914 -0.7583  0.2953  0.0922
  894MOL0     C23262   6.857  10.514   1.834 -0.1908  0.0058 -0.5554
  894MOL0     C23263   6.957  10.727   1.931 -0.1351 -0.1619 -0.3852
  894MOL0     C23264   7.103  10.699   1.900 -0.0053 -0.3369  0.2542
  894MOL0     O23265   7.160  10.576   1.914 -0.4979 -0.2107 -0.2104
  894MOL0     C23266   7.273  10.544   1.838  0.3335 -0.2960 -0.6358
  894MOL0     C23267   7.284  10.411   1.800 -0.9259 -0.6804  0.3305
  894MOL0     C23268   7.397  10.358   1.739  0.1738 -1.2062  0.5053
  894MOL0     C23269   7.507  10.437   1.710  0.6889 -0.0935  0.5516
  894MOL0     O23270   7.608  10.378   1.650  0.3143  0.1547  0.3272
  894MOL0     C23271   7.745  10.423   1.683  0.8849 -0.9380  0.5644
  894MOL0     C23272   7.852  10.361   1.585  0.6624  0.4633 -0.3810
  894MOL0     C23273   7.845  10.203   1.590  0.0845 -0.1244  0.2968
  894MOL0     C23274   7.954  10.143   1.506 -0.6246 -0.1576  0.6295
  894MOL0     C23275   8.097  10.145   1.580 -0.1424 -0.1640 -0.1552
  894MOL0     C23276   8.214  10.137   1.486 -0.7690 -0.2106  0.1344
  894MOL0     C23277   8.210  10.018   1.399 -0.2233 -0.5872  0.2382
  894MOL0     C23278   8.345   9.971   1.350 -0.5295 -0.1750  0.7444
  894MOL0    Cl23279   8.472   9.949   1.458  0.1427 -0.1704  0.2032
  894MOL0     C23280   7.502  10.577   1.740 -0.1585  0.5675  0.2582
  894MOL0     C23281   7.383  10.630   1.798  0.4561  0.7451 -0.0033
  894MOL0     O23282   7.160  10.798   1.856 -0.9100  0.0187  0.6027
  894MOL0     C23283   6.935  10.858   1.986 -0.2426 -0.3030  0.3344
  894MOL0     C23284   6.810  10.901   2.025 -0.8081  0.1447  0.1642
  894MOL0     N23285   6.237  10.972   2.357 -0.0150 -0.5386 -0.3735
  894MOL0     N23286   6.145  10.921   2.290 -0.2042  0.3809 -0.1686
  894MOL0     C23287   6.951  11.150   1.781  0.1536 -0.1849  0.1743
  894MOL0     C23288   7.095  11.158   1.790  1.0276 -0.0134 -0.6843
  894MOL0     C23289   7.532  11.178   1.651  1.7071 -0.1609 -0.2890
  894MOL0     C23290   7.568  11.276   1.554 -1.2322 -0.1716  0.2831
  894MOL0     C23291   7.709  11.299   1.529 -0.8306 -0.6343  0.7935
  894MOL0     C23292   7.808  11.224   1.597  0.1785  0.3496  0.4408
  894MOL0     O23293   7.936  11.243   1.565 -0.6208 -0.3212  0.7636
  894MOL0     C23294   8.026  11.254   1.672  0.1433  0.0958  0.7175
  894MOL0     C23295   7.989  11.348   1.793  0.2798  0.0493 -0.0148
  894MOL0     C23296   8.112  11.360   1.888 -0.4780 -0.3595  0.0931
  894MOL0     C23297   8.163  11.222   1.961  0.9330 -0.8193  0.1083
  894MOL0     C23298   8.059  11.135   2.012 -0.4090 -0.5549 -0.0094
  894MOL0     C23299   7.964  11.069   2.056 -0.6683  0.2051 -0.6675
  894MOL0     C23300   7.763  11.121   1.687 -0.1126 -0.3515 -0.4240
  894MOL0     C23301   7.629  11.105   1.725 -0.4242  0.9459  0.1834
  894MOL0     C23302   7.583  11.001   1.836 -0.3250  0.3834 -0.4815
  894MOL0     H23303   7.139  11.341   1.505  3.0912 -0.7127  2.7826
  894MOL0     H23304   6.888  11.347   1.508 -2.3568  2.1788  2.8167
  894MOL0     H23305   6.686  11.151   1.845  0.3959  1.0085  0.0711
  894MOL0     H23306   6.671  11.024   1.728 -2.6380 -1.6032  2.2020
  894MOL0     H23307   6.509  11.273   1.742  2.0270 -0.4189  0.4387
  894MOL0     H23308   6.492  11.148   1.609  0.1565 -3.3747  0.1551
  894MOL0     H23309   6.435  11.102   1.913 -2.0831 -1.4002  1.3692
  894MOL0     H23310   6.304  11.148   1.802  1.1175  0.3707 -1.0397
  894MOL0     H23311   6.349  10.945   1.671 -3.1872 -2.8822  1.0178
  894MOL0     H23312   6.470  10.890   1.785  0.0590  1.2475 -0.1062
  894MOL0     H23313   6.306  10.880   1.973  0.3151  2.1425  0.2775
  894MOL0     H23314   6.260  10.788   1.826 -0.5514  0.6316 -0.9258
  894MOL0     H23315   6.156  11.059   1.882  0.0461  0.1085 -2.6437
  894MOL0     H23316   6.101  10.949   1.764 -0.2683  0.5845  0.2008
  894MOL0     H23317   6.096  10.796   2.016 -0.0874  0.6280  0.8179
  894MOL0     H23318   5.960  10.866   1.922  0.9706  0.2104 -0.5234
  894MOL0     H23319   5.981  11.075   2.055  2.4570  0.4931 -0.1987
  894MOL0     H23320   5.934  10.929   2.139  1.0109 -0.5676  3.0606
  894MOL0     H23321   6.272  11.126   2.073 -1.5361 -0.0473 -0.2609
  894MOL0     H23322   6.455  11.112   2.424  1.4299 -1.1183  0.2790
  894MOL0     H23323   6.431  11.219   2.289  1.4098 -1.1401 -1.9326
  894MOL0     H23324   6.581  11.075   2.150 -2.1157 -1.0406  0.2009
  894MOL0     H23325   6.653  11.135   2.305 -0.6978 -0.3328  0.8902
  894MOL0     H23326   6.718  10.899   2.291  0.8726 -0.3289  1.0455
  894MOL0     H23327   6.579  10.895   2.396  1.9170 -0.8190  0.4501
  894MOL0     H23328   6.572  10.720   2.227  0.5808 -0.3794  0.3655
  894MOL0     H23329   6.435  10.830   2.199 -0.4840 -1.1218 -1.4998
  894MOL0     H23330   6.639  10.617   1.934 -0.5511  1.5916 -0.6985
  894MOL0     H23331   6.759  10.468   1.819 -0.2791 -0.2124  0.6029
  894MOL0     H23332   6.922  10.437   1.876  1.6425 -0.0059 -3.1654
  894MOL0     H23333   6.901  10.542   1.738  0.6984 -1.0663 -0.4864
  894MOL0     H23334   7.207  10.337   1.821  1.2342 -3.9546 -2.3252
  894MOL0     H23335   7.393  10.254   1.707  1.8406 -0.1518 -3.8204
  894MOL0     H23336   7.755  10.532   1.690  0.3686 -0.9565  1.8553
  894MOL0     H23337   7.763  10.400   1.789 -0.7823  1.5589  1.4762
  894MOL0     H23338   7.824  10.381   1.481  1.2689  0.5513 -0.5288
  894MOL0     H23339   7.950  10.408   1.599  0.2694  1.6820 -1.4919
  894MOL0     H23340   7.747  10.166   1.561  0.1454 -0.1491  0.1214
  894MOL0     H23341   7.851  10.164   1.692  0.2696 -0.2146  0.2523
  894MOL0     H23342   7.976  10.192   1.410 -0.2008  0.4583  1.0282
  894MOL0     H23343   7.925  10.040   1.489  0.2781 -0.2750 -0.3274
  894MOL0     H23344   8.115  10.237   1.638  1.6879  1.6096 -3.2732
  894MOL0     H23345   8.098  10.063   1.652 -4.2142 -0.5721 -0.3357
  894MOL0     H23346   8.303  10.133   1.549  0.1102 -2.3868 -1.1169
  894MOL0     H23347   8.215  10.234   1.436 -2.0889  1.4191  3.0601
  894MOL0     H23348   8.143  10.043   1.316 -0.5068 -0.9158  0.3678
  894MOL0     H23349   8.170   9.939   1.463 -2.3353  1.0940  1.1126
  894MOL0     H23350   8.381  10.036   1.271 -0.5097  0.2427  1.0947
  894MOL0     H23351   8.332   9.874   1.300 -0.4880  0.8134 -1.2372
  894MOL0     H23352   7.589  10.639   1.720 -0.0231  0.8577  1.6416
  894MOL0     H23353   7.395  10.736   1.814  0.5517  0.3141  3.6950
  894MOL0     H23354   7.022  10.922   1.998 -0.7911  0.1848  2.0160
  894MOL0     H23355   6.792  10.998   2.070 -1.9390 -0.3393  0.7935
  894MOL0     H23356   6.903  11.077   1.844  2.1298 -2.3719 -0.7055
  894MOL0     H23357   7.153  11.109   1.867  0.7229  0.1956 -0.3205
  894MOL0     H23358   7.490  11.319   1.491  0.9695  2.8911 -0.5760
  894MOL0     H23359   7.737  11.378   1.460 -2.5748 -0.5219  0.1512
  894MOL0     H23360   8.063  11.157   1.704  0.8171 -0.1605 -0.7289
  894MOL0     H23361   8.121  11.301   1.644 -0.6930  2.4665  1.6488
  894MOL0     H23362   7.901  11.320   1.852  1.7419 -0.8674  1.8451
  894MOL0     H23363   7.966  11.449   1.757 -1.8094  0.1614  1.4500
  894MOL0     H23364   8.190  11.408   1.828 -1.1142  0.5459 -0.0248
  894MOL0     H23365   8.087  11.431   1.967  1.9663  2.1801 -1.2287
  894MOL0     H23366   8.231  11.245   2.044 -1.5701  1.9575  1.5620
  894MOL0     H23367   8.224  11.165   1.890  3.3533 -0.1160  1.4819
  894MOL0     H23368   7.891  11.002   2.098  2.4525 -0.5749  4.4750
  894MOL0     H23369   7.833  11.056   1.738 -0.4328 -0.4960 -0.1655
  894MOL0     H23370   7.661  10.978   1.910 -1.3414 -1.5252  0.0566
  894MOL0     H23371   7.500  11.043   1.894 -1.2519 -0.5670 -1.0855
  894MOL0     H23372   7.561  10.908   1.784  2.5122  0.8388 -2.7093
  895MOL0     O23373   7.957   7.166  10.570  0.2170  0.3885 -0.2984
  895MOL0     C23374   7.946   7.286  10.575  0.5880  0.1353  0.0498
  895MOL0     O23375   8.056   7.372  10.563 -0.7446 -0.2267  0.0754
  895MOL0     C23376   8.186   7.335  10.575  0.1609  0.3953  0.5459
  895MOL0     C23377   8.246   7.219  10.622  0.5902 -0.3593 -0.4267
  895MOL0     C23378   8.385   7.208  10.628  0.9970 -0.0018  0.6423
  895MOL0     C23379   8.468   7.306  10.586  0.4209  0.0974 -0.2466
  895MOL0     O23380   8.606   7.292  10.605 -0.2849  0.1175 -0.0751
  895MOL0     C23381   8.684   7.417  10.639  0.7472  0.1500  0.0982
  895MOL0     C23382   8.842   7.405  10.628 -0.4005 -0.2855 -0.8084
  895MOL0     C23383   8.894   7.326  10.744 -0.2000 -0.2184 -0.3188
  895MOL0     C23384   8.901   7.427  10.861 -0.1505 -0.7223 -0.0015
  895MOL0     C23385   8.973   7.368  10.979  0.1097  0.5618  0.2810
  895MOL0     C23386   8.975   7.470  11.095  0.5294 -0.1058 -0.4234
  895MOL0     C23387   9.039   7.417  11.220  0.2245 -1.0468 -0.5877
  895MOL0     C23388   9.191   7.377  11.212  0.5254 -1.1432 -0.5949
  895MOL0     N23389   9.216   7.236  11.168  0.1092 -0.7027 -0.2389
  895MOL0     C23390   9.305   7.197  11.072  0.3817  0.4014  0.0718
  895MOL0     C23391   9.326   7.060  11.089 -0.2506 -1.1620 -0.1268
  895MOL0     C23392   9.396   6.976  11.000 -1.2235 -0.3372 -1.1745
  895MOL0     C23393   9.320   6.847  10.957  0.4605  0.4993 -0.6125
  895MOL0     C23394   9.192   6.897  10.887  0.2602 -0.1935 -0.3008
  895MOL0     C23395   9.076   6.792  10.890  0.0066 -0.0669 -0.7456
  895MOL0     O23396   8.953   6.837  10.828 -0.6169  0.2511  0.0958
  895MOL0     C23397   8.861   6.918  10.896  0.3602 -0.2038 -0.6542
  895MOL0     C23398   8.854   6.957  11.033 -0.4106  0.6660  0.3502
  895MOL0     C23399   8.754   7.041  11.086 -0.1501 -0.2433  1.1887
  895MOL0     C23400   8.779   7.088  11.223 -0.6028  0.1535  0.3284
  895MOL0     C23401   8.657   7.095  10.993 -0.2776  0.7650 -0.6784
  895MOL0     C23402   8.556   7.189  11.028  0.5945  0.9514  0.6307
  895MOL0     O23403   8.478   7.238  10.929  0.5482  0.0466 -0.1405
  895MOL0     C23404   8.376   7.326  10.960 -0.0750 -0.1009 -0.1119
  895MOL0     C23405   8.276   7.297  11.054 -0.9494  0.5714 -0.2831
  895MOL0     C23406   8.159   7.382  11.071  0.2600 -0.1987  0.1133
  895MOL0     C23407   8.157   7.496  10.993  0.5938  0.0182 -0.2066
  895MOL0     O23408   8.049   7.580  10.993 -0.2266  0.0590  0.1759
  895MOL0     C23409   7.927   7.528  11.045 -0.4948  1.2104 -0.1084
  895MOL0     C23410   7.872   7.422  10.956  0.2733 -0.1656  0.4812
  895MOL0     C23411   7.764   7.343  11.023  0.1399 -0.0268 -0.2671
  895MOL0     C23412   7.637   7.440  11.051 -0.9467  0.1869 -0.3706
  895MOL0     C23413   7.518   7.355  11.106 -0.6082  0.5305  0.0250
  895MOL0     C23414   7.432   7.302  10.994  0.9049 -0.1953  0.3102
  895MOL0     C23415   7.318   7.224  11.060 -0.1469  0.1552 -0.1158
  895MOL0     C23416   7.209   7.181  10.956  0.4278 -0.2352  0.4284
  895MOL0    Cl23417   7.161   7.330  10.861 -0.5260  0.0574  0.3267
  895MOL0     C23418   8.264   7.523  10.903  0.6756 -0.8276  0.0059
  895MOL0     C23419   8.373   7.445  10.890  0.1479 -0.0941  0.1161
  895MOL0     O23420   8.533   7.205  11.152 -0.4793 -0.4501  0.0857
  895MOL0     C23421   8.668   7.060  10.858  0.7129 -0.8053 -0.0071
  895MOL0     C23422   8.768   6.975  10.815  0.4957  0.3912 -0.5325
  895MOL0     N23423   9.253   7.024  11.201  0.0228 -0.2240 -0.5123
  895MOL0     N23424   9.189   7.121  11.237  0.9886  0.8209  0.2055
  895MOL0     C23425   8.414   7.419  10.528  0.6925  0.4875  2.3105
  895MOL0     C23426   8.276   7.437  10.538  0.2044  0.3820  1.3066
  895MOL0     C23427   7.808   7.348  10.573 -0.2779  0.0264 -0.8082
  895MOL0     C23428   7.796   7.482  10.541  0.4056 -0.1085 -0.0520
  895MOL0     C23429   7.683   7.559  10.531  1.0328 -0.3579 -0.0670
  895MOL0     C23430   7.558   7.500  10.561  0.2950  0.2387 -0.4832
  895MOL0     O23431   7.448   7.576  10.538  0.3193  0.4833  0.4808
  895MOL0     C23432   7.336   7.538  10.605  0.2200 -0.2710 -0.2983
  895MOL0     C23433   7.204   7.619  10.583 -0.6226  0.0788 -0.3036
  895MOL0     C23434   7.215   7.759  10.652 -0.5822  0.4932 -0.1852
  895MOL0     C23435   7.096   7.839  10.648 -0.4197 -0.7895  0.4235
  895MOL0     C23436   7.124   7.984  10.690  0.4228  0.2842  0.0552
  895MOL0     C23437   7.155   8.090  10.725  0.6620 -0.2881 -0.7958
  895MOL0     C23438   7.561   7.359  10.594  0.3641 -0.4025  0.0149
  895MOL0     C23439   7.680   7.288  10.598 -0.3176  0.8083  0.7244
  895MOL0     C23440   7.661   7.137  10.640 -0.1447 -0.4860 -0.2543
  895MOL0     H23441   8.180   7.138  10.652 -1.1978  0.1963 -2.5854
  895MOL0     H23442   8.428   7.122  10.678  1.5713  0.6756  1.3358
  895MOL0     H23443   8.646   7.460  10.732  0.2468  0.1947 -0.1227
  895MOL0     H23444   8.660   7.499  10.570 -0.1695 -0.2285 -0.0424
  895MOL0     H23445   8.869   7.360  10.532  0.6066 -0.0391 -0.6552
  895MOL0     H23446   8.886   7.505  10.634  1.0667 -0.9736  1.6302
  895MOL0     H23447   8.837   7.236  10.769  2.8506 -2.7155 -1.6189
  895MOL0     H23448   8.994   7.289  10.717 -0.6151 -0.6202 -1.3792
  895MOL0     H23449   8.960   7.516  10.838  0.7992 -1.7689 -1.8544
  895MOL0     H23450   8.796   7.448  10.886  0.0768  0.5618 -0.0678
  895MOL0     H23451   9.075   7.337  10.954  0.6113  0.1888  2.4954
  895MOL0     H23452   8.926   7.271  11.001 -0.6786 -0.1942 -3.9886
  895MOL0     H23453   9.017   7.565  11.063  1.0197 -0.5094 -1.0001
  895MOL0     H23454   8.869   7.487  11.116  0.2266 -2.2894  0.1404
  895MOL0     H23455   8.977   7.344  11.273 -0.8484  1.0491  1.2088
  895MOL0     H23456   9.045   7.508  11.280  2.6502 -0.8509 -1.0386
  895MOL0     H23457   9.248   7.437  11.140  0.1855 -0.4011 -0.2510
  895MOL0     H23458   9.231   7.392  11.312 -1.2780 -0.9426  0.1398
  895MOL0     H23459   9.345   7.267  11.000 -1.2565 -1.1783 -2.5346
  895MOL0     H23460   9.488   6.938  11.045 -0.3540  1.2920 -1.4907
  895MOL0     H23461   9.440   7.026  10.914 -1.4710 -1.4948 -1.9940
  895MOL0     H23462   9.378   6.784  10.889  1.6582  0.0080  0.8246
  895MOL0     H23463   9.304   6.781  11.043 -0.2673  2.4040  0.7953
  895MOL0     H23464   9.144   6.987  10.926 -2.4770 -0.5492 -2.5457
  895MOL0     H23465   9.221   6.916  10.783 -0.9792  2.6907 -0.2291
  895MOL0     H23466   9.109   6.698  10.845  1.9522  0.7739 -1.1736
  895MOL0     H23467   9.055   6.763  10.994 -2.2206  0.7948 -0.9046
  895MOL0     H23468   8.925   6.914  11.103 -0.7255 -1.4579 -0.5546
  895MOL0     H23469   8.801   7.195  11.211  1.6996 -0.3707 -0.7110
  895MOL0     H23470   8.872   7.055  11.270 -0.0511  0.3543 -0.5796
  895MOL0     H23471   8.699   7.060  11.291 -1.7220  3.1891  0.4411
  895MOL0     H23472   8.274   7.199  11.099 -0.1155 -1.2275 -3.8163
  895MOL0     H23473   8.084   7.351  11.143  0.8511  1.9720  1.8040
  895MOL0     H23474   7.937   7.494  11.148  0.0089  0.2828 -0.4519
  895MOL0     H23475   7.859   7.613  11.050  0.0311  1.5821  0.8701
  895MOL0     H23476   7.839   7.479  10.869  0.1609  1.1975  1.3867
  895MOL0     H23477   7.948   7.351  10.922 -0.2476  0.1798 -1.5394
  895MOL0     H23478   7.811   7.293  11.108  0.0066  0.5716  0.1697
  895MOL0     H23479   7.735   7.256  10.964  1.4895 -0.4487 -0.3218
  895MOL0     H23480   7.608   7.489  10.957 -2.3874  0.5015  0.2064
  895MOL0     H23481   7.659   7.518  11.124 -0.9304 -1.4059  1.4056
  895MOL0     H23482   7.554   7.273  11.168  1.3828  0.0568 -1.6584
  895MOL0     H23483   7.452   7.415  11.170 -0.8217  0.9191 -0.5526
  895MOL0     H23484   7.488   7.229  10.934  1.1638  1.7074 -1.8824
  895MOL0     H23485   7.395   7.378  10.926 -0.9719 -1.7675 -0.5136
  895MOL0     H23486   7.264   7.286  11.133 -2.3698  1.2524 -2.5350
  895MOL0     H23487   7.364   7.137  11.106  1.3002 -0.6009 -2.7864
  895MOL0     H23488   7.122   7.137  11.006  1.3113 -1.3514  1.0293
  895MOL0     H23489   7.268   7.114  10.894  1.1628  2.4986 -2.0872
  895MOL0     H23490   8.247   7.614  10.845  0.9288 -0.6916  0.1437
  895MOL0     H23491   8.444   7.469  10.811 -0.9969  0.3096 -0.8292
  895MOL0     H23492   8.603   7.096  10.779  5.1598 -0.8054 -4.1803
  895MOL0     H23493   8.783   6.961  10.709  2.1885  0.5345 -0.3403
  895MOL0     H23494   8.474   7.489  10.470 -0.0278 -0.2194  0.6199
  895MOL0     H23495   8.230   7.529  10.504 -0.4816 -0.4149 -0.0022
  895MOL0     H23496   7.882   7.540  10.507  0.2756  0.8961  1.2492
  895MOL0     H23497   7.681   7.663  10.500 -2.9764 -1.1462 -3.1729
  895MOL0     H23498   7.314   7.439  10.563  1.4609 -1.2516  1.2436
  895MOL0     H23499   7.360   7.537  10.711  1.7686 -1.0993 -0.6272
  895MOL0     H23500   7.114   7.561  10.603 -1.8597  1.1897 -2.3519
  895MOL0     H23501   7.194   7.642  10.477 -1.3950  0.8967 -0.0619
  895MOL0     H23502   7.237   7.749  10.759  1.5279 -0.3857 -0.6526
  895MOL0     H23503   7.291   7.820  10.602 -0.6041 -0.6879 -1.7131
  895MOL0     H23504   7.010   7.800  10.703 -1.8623  0.8619 -0.5521
  895MOL0     H23505   7.073   7.863  10.544 -1.2652  1.8379  1.1641
  895MOL0     H23506   7.164   8.191  10.759  0.7509 -0.9259  1.2029
  895MOL0     H23507   7.469   7.308  10.620 -1.1127  1.4601 -1.2597
  895MOL0     H23508   7.593   7.090  10.568 -0.9806  0.8697 -0.4102
  895MOL0     H23509   7.757   7.086  10.650 -1.1600 -3.1281 -2.4981
  895MOL0     H23510   7.607   7.127  10.734  0.2839  0.6438  0.1255
  896MOL0     O23511   9.635   3.558   7.483  0.2238  0.1569  0.1286
  896MOL0     C23512   9.670   3.670   7.451  0.4595 -0.4929  0.3042
  896MOL0     O23513   9.761   3.702   7.356 -0.1511 -0.0723 -0.4013
  896MOL0     C23514   9.856   3.612   7.321  0.6755  1.2454 -0.2009
  896MOL0     C23515   9.899   3.613   7.193  0.5571 -0.3901 -0.2341
  896MOL0     C23516  10.002   3.528   7.148  0.1348 -0.3526 -0.6831
  896MOL0     C23517  10.057   3.436   7.249  0.2941 -0.2880 -0.4261
  896MOL0     O23518  10.159   3.345   7.218 -0.2253 -0.5204  0.2067
  896MOL0     C23519  10.197   3.310   7.082  0.3237  0.4314  0.2810
  896MOL0     C23520  10.096   3.219   7.012 -0.2435  0.5903  0.6136
  896MOL0     C23521  10.082   3.074   7.054 -0.7984  0.4855 -0.3504
  896MOL0     C23522   9.973   3.001   6.967 -0.5921  0.3307 -0.6835
  896MOL0     C23523   9.910   2.871   7.017 -0.4058  0.0584  0.4817
  896MOL0     C23524   9.822   2.801   6.908 -0.9095 -0.5053  0.3023
  896MOL0     C23525   9.685   2.874   6.879  0.2756  0.6623  0.1804
  896MOL0     C23526   9.589   2.855   6.990 -0.1587  0.2706 -0.4893
  896MOL0     N23527   9.525   2.732   6.981 -0.1802  0.3702  0.3651
  896MOL0     C23528   9.460   2.660   7.076 -0.1992 -0.4394  0.2916
  896MOL0     C23529   9.427   2.545   7.018  0.2295 -0.3001 -0.1151
  896MOL0     C23530   9.324   2.450   7.090 -0.7424  0.0525  0.2873
  896MOL0     C23531   9.415   2.391   7.202  0.2371 -0.9865  0.6008
  896MOL0     C23532   9.339   2.383   7.331  0.3077  0.2890 -0.2224
  896MOL0     C23533   9.436   2.339   7.446 -0.3595 -0.0307  0.9979
  896MOL0     O23534   9.368   2.336   7.575  0.2541 -0.0764  0.5722
  896MOL0     C23535   9.423   2.253   7.678  0.9939  0.6656  1.0811
  896MOL0     C23536   9.561   2.253   7.715  0.0190  0.8378 -0.6972
  896MOL0     C23537   9.603   2.183   7.827 -0.2926 -0.3792  0.3076
  896MOL0     C23538   9.758   2.173   7.850  0.9731 -0.2021  0.2821
  896MOL0     C23539   9.502   2.117   7.904  0.1237  0.4812 -0.3998
  896MOL0     C23540   9.535   2.036   8.024 -0.5708 -1.4365  0.2739
  896MOL0     O23541   9.462   1.924   8.039 -0.2883  0.5486  0.2910
  896MOL0     C23542   9.478   1.833   8.139  0.4335  0.9453  0.5212
  896MOL0     C23543   9.422   1.858   8.261  0.4365  0.5394  0.6896
  896MOL0     C23544   9.419   1.756   8.356 -0.0054  1.0617  0.3658
  896MOL0     C23545   9.469   1.624   8.329  0.4051  0.4716  0.1004
  896MOL0     O23546   9.428   1.524   8.413 -0.6269  0.5509 -0.0511
  896MOL0     C23547   9.400   1.393   8.349  0.2064 -0.0716 -0.0254
  896MOL0     C23548   9.266   1.339   8.408  0.2745  0.6270  0.4868
  896MOL0     C23549   9.150   1.440   8.409  1.2556 -0.5279  0.5000
  896MOL0     C23550   9.016   1.379   8.471 -0.6081 -0.4125 -0.5815
  896MOL0     C23551   8.905   1.482   8.459 -0.9956  0.5739 -0.6654
  896MOL0     C23552   8.769   1.438   8.513  0.3274 -0.2897  0.4870
  896MOL0     C23553   8.668   1.561   8.500  0.3347  0.2104  0.0532
  896MOL0     C23554   8.536   1.502   8.555  0.3943 -0.4440 -0.2784
  896MOL0    Cl23555   8.537   1.487   8.729  0.1157  0.5129 -0.0938
  896MOL0     C23556   9.548   1.607   8.210  0.9759 -0.9416 -0.2048
  896MOL0     C23557   9.550   1.713   8.117 -0.6466 -0.4118  0.2184
  896MOL0     O23558   9.623   2.077   8.107  0.3430  0.1782  1.1312
  896MOL0     C23559   9.366   2.126   7.867 -0.3128  0.5671  0.5407
  896MOL0     C23560   9.322   2.197   7.759 -1.2916  0.5914  0.9326
  896MOL0     N23561   9.480   2.538   6.889 -0.0056  0.8865  0.1236
  896MOL0     N23562   9.546   2.643   6.877  0.3836 -0.2824 -0.9232
  896MOL0     C23563  10.002   3.431   7.375 -0.6141  0.0428  0.7948
  896MOL0     C23564   9.912   3.520   7.409 -0.5768 -0.6723  0.4181
  896MOL0     C23565   9.608   3.781   7.525  0.1881  0.1978 -0.4853
  896MOL0     C23566   9.621   3.906   7.463  0.5133 -0.6483  0.3868
  896MOL0     C23567   9.557   4.019   7.527 -0.2818  0.1204  0.0032
  896MOL0     C23568   9.489   4.009   7.649  0.3054  0.6936  0.3746
  896MOL0     O23569   9.433   4.107   7.725 -0.1466  0.1686  0.5637
  896MOL0     C23570   9.478   4.244   7.713 -0.0428 -0.4612 -0.4711
  896MOL0     C23571   9.619   4.274   7.776  0.3907  0.8023  0.3757
  896MOL0     C23572   9.653   4.410   7.735 -0.6728 -0.9353 -0.7433
  896MOL0     C23573   9.800   4.442   7.790  1.0247 -0.6246 -0.2608
  896MOL0     C23574   9.904   4.422   7.689 -0.5707 -0.6812 -0.2629
  896MOL0     C23575  10.002   4.402   7.624  0.8853 -0.6035  0.6816
  896MOL0     C23576   9.481   3.882   7.708 -0.7801  0.2229  0.4020
  896MOL0     C23577   9.535   3.765   7.647 -0.0742 -0.1826 -0.5562
  896MOL0     C23578   9.514   3.640   7.736  0.6534 -0.4671 -0.5471
  896MOL0     H23579   9.854   3.688   7.129  1.2038 -1.9578 -2.6397
  896MOL0     H23580  10.046   3.528   7.049  0.6484 -1.2563 -0.4685
  896MOL0     H23581  10.292   3.258   7.096 -0.2134 -0.3678  1.0619
  896MOL0     H23582  10.215   3.399   7.021  4.2147  0.2975  0.9760
  896MOL0     H23583  10.001   3.272   7.018  0.2058  1.2866  4.0847
  896MOL0     H23584  10.131   3.219   6.908  1.2970 -0.3356  1.0937
  896MOL0     H23585  10.175   3.022   7.031 -1.2747  0.5195 -2.4886
  896MOL0     H23586  10.056   3.081   7.161  1.4991 -0.1397  0.3015
  896MOL0     H23587   9.889   3.068   6.949 -2.3598 -1.1994  1.4475
  896MOL0     H23588  10.018   2.975   6.870  0.2589  1.3435 -0.5796
  896MOL0     H23589   9.840   2.902   7.094  1.3667  1.0688  1.7677
  896MOL0     H23590   9.986   2.799   7.049  0.6001 -0.2208 -2.2119
  896MOL0     H23591   9.875   2.791   6.813 -0.0481  0.8130  0.6186
  896MOL0     H23592   9.803   2.695   6.928  1.1267 -1.3685 -1.8495
  896MOL0     H23593   9.643   2.834   6.786  0.1707  1.4959 -0.1357
  896MOL0     H23594   9.704   2.981   6.880  3.3861  0.1905 -0.1918
  896MOL0     H23595   9.631   2.858   7.091  2.1525 -2.2227 -1.2494
  896MOL0     H23596   9.523   2.941   6.974 -0.8460 -0.3206 -0.9238
  896MOL0     H23597   9.419   2.684   7.174  0.5644  1.1812  0.2420
  896MOL0     H23598   9.293   2.369   7.024  0.8474 -0.4186  0.0704
  896MOL0     H23599   9.237   2.505   7.126  0.2301  2.6428 -0.9980
  896MOL0     H23600   9.461   2.294   7.180  0.3893 -0.9885  0.9228
  896MOL0     H23601   9.504   2.453   7.218 -0.1495  0.0727 -1.1169
  896MOL0     H23602   9.284   2.473   7.357 -3.3641 -1.7555 -0.1517
  896MOL0     H23603   9.259   2.308   7.325  0.6243 -0.1447  0.6883
  896MOL0     H23604   9.471   2.241   7.413 -1.7400  0.5819 -2.8552
  896MOL0     H23605   9.521   2.407   7.439 -1.2257  0.9794 -0.3366
  896MOL0     H23606   9.637   2.297   7.651  2.0257 -2.5043 -0.8632
  896MOL0     H23607   9.779   2.071   7.885  0.2356 -0.9457 -1.3408
  896MOL0     H23608   9.793   2.251   7.919  1.1898 -0.2228  0.1970
  896MOL0     H23609   9.800   2.177   7.749  0.5965 -3.4302 -0.0869
  896MOL0     H23610   9.374   1.950   8.290 -0.5058 -0.9365  4.4159
  896MOL0     H23611   9.392   1.770   8.460  2.3114  2.0838  0.8952
  896MOL0     H23612   9.381   1.408   8.242  0.8376  1.2221  0.0268
  896MOL0     H23613   9.489   1.330   8.362  0.1188 -0.3514 -0.7176
  896MOL0     H23614   9.232   1.251   8.354 -0.9659 -0.4742  2.9232
  896MOL0     H23615   9.281   1.305   8.511 -0.1016 -2.1168 -0.2931
  896MOL0     H23616   9.129   1.482   8.310  2.0536  0.6191  0.7950
  896MOL0     H23617   9.185   1.523   8.471  2.5964  1.2792 -2.4431
  896MOL0     H23618   9.034   1.349   8.575  0.8955 -2.7337 -1.4180
  896MOL0     H23619   8.996   1.282   8.424 -0.2568 -0.7735 -0.0101
  896MOL0     H23620   8.941   1.573   8.507  0.5947 -0.1275 -0.4540
  896MOL0     H23621   8.895   1.496   8.351  2.1365 -0.8904 -1.2853
  896MOL0     H23622   8.783   1.410   8.618 -3.3692  0.8141  1.4370
  896MOL0     H23623   8.731   1.355   8.453  2.5816 -0.9203 -0.1598
  896MOL0     H23624   8.643   1.585   8.397  0.7550 -2.2023 -0.6850
  896MOL0     H23625   8.691   1.655   8.551 -0.5889  0.7702 -0.5399
  896MOL0     H23626   8.517   1.402   8.514  0.7898 -1.0354  0.9342
  896MOL0     H23627   8.448   1.557   8.521 -0.3817 -1.3024  0.2778
  896MOL0     H23628   9.600   1.514   8.188  4.1950 -0.3568  3.7107
  896MOL0     H23629   9.597   1.682   8.024 -0.8802  3.3270 -1.3215
  896MOL0     H23630   9.289   2.076   7.925  0.2466  0.1349  0.9193
  896MOL0     H23631   9.219   2.214   7.729 -0.9235 -0.1064 -0.8275
  896MOL0     H23632  10.046   3.358   7.443  0.3914 -0.0383  0.0772
  896MOL0     H23633   9.885   3.520   7.514 -1.9855  2.5233  0.1754
  896MOL0     H23634   9.655   3.909   7.360 -1.8078 -2.9655 -0.5881
  896MOL0     H23635   9.558   4.115   7.478  2.5535  2.8456  4.6897
  896MOL0     H23636   9.479   4.275   7.609  0.4606 -2.4288 -1.0949
  896MOL0     H23637   9.406   4.298   7.774 -1.8098 -2.3811 -0.7543
  896MOL0     H23638   9.688   4.196   7.741 -2.5144 -0.9647 -1.9545
  896MOL0     H23639   9.600   4.280   7.883 -0.2716  6.3862  0.2259
  896MOL0     H23640   9.638   4.424   7.627  1.3745  2.0575 -0.7597
  896MOL0     H23641   9.582   4.487   7.766 -0.3513 -0.3054 -1.5260
  896MOL0     H23642   9.806   4.387   7.884 -0.3130  0.8960  0.7719
  896MOL0     H23643   9.804   4.546   7.825  0.3200 -1.7018  3.3793
  896MOL0     H23644  10.093   4.388   7.569 -0.2970  2.3777 -2.4170
  896MOL0     H23645   9.437   3.871   7.807 -0.9741 -0.0917  0.2828
  896MOL0     H23646   9.447   3.657   7.820  0.3024  0.5232 -1.0131
  896MOL0     H23647   9.466   3.560   7.678 -1.0845  1.6559 -2.2278
  896MOL0     H23648   9.607   3.605   7.782  0.1082  1.8371  2.6125
  897MOL0     O23649   0.080   2.133   1.112  0.7579 -0.0770  0.2723
  897MOL0     C23650   0.104   2.026   1.167 -0.2352  0.0179  0.6581
  897MOL0     O23651   0.022   1.921   1.184  0.5838 -0.4793  0.7508
  897MOL0     C23652  -0.091   1.913   1.107  0.3659  0.5179  0.2312
  897MOL0     C23653  -0.197   1.828   1.156 -0.7526  0.5194  0.9011
  897MOL0     C23654  -0.319   1.817   1.082  0.5340 -1.2662  0.2608
  897MOL0     C23655  -0.323   1.871   0.948 -0.6203 -0.1214 -0.0664
  897MOL0     O23656  -0.433   1.858   0.872  0.5063 -0.1128 -0.4226
  897MOL0     C23657  -0.420   1.735   0.795  0.6334 -1.1700 -0.5116
  897MOL0     C23658  -0.538   1.728   0.700  0.6799  0.3952  0.7368
  897MOL0     C23659  -0.535   1.846   0.605  0.3240 -0.1095 -0.9524
  897MOL0     C23660  -0.647   1.837   0.502  0.5599  0.1846  0.0326
  897MOL0     C23661  -0.637   1.954   0.400  0.3905  0.6556 -0.5513
  897MOL0     C23662  -0.709   1.950   0.276  1.0655 -0.0472  1.7047
  897MOL0     C23663  -0.688   2.076   0.202  0.2124  0.2071 -0.5446
  897MOL0     C23664  -0.817   2.124   0.142  0.0722 -0.6333  0.1532
  897MOL0     N23665  -0.881   2.026   0.058 -0.4050  0.5742 -0.6448
  897MOL0     C23666  -1.005   1.976   0.066  0.2619 -0.0095  0.3050
  897MOL0     C23667  -1.018   1.898  -0.038  0.8035 -0.1859 -0.5937
  897MOL0     C23668  -1.144   1.827  -0.065  0.4351 -0.4295 -0.0624
  897MOL0     C23669  -1.245   1.907  -0.154 -0.2203  0.3846  0.1356
  897MOL0     C23670  -1.378   1.831  -0.159  0.0263  0.9379 -0.2021
  897MOL0     C23671  -1.476   1.893  -0.057 -0.2582 -1.2596 -0.2809
  897MOL0     O23672  -1.604   1.835  -0.066  0.0227  0.0636 -0.4067
  897MOL0     C23673  -1.696   1.883  -0.156 -0.9292  0.0725  0.1695
  897MOL0     C23674  -1.688   1.994  -0.243 -0.3205 -0.5988 -0.4776
  897MOL0     C23675  -1.803   2.041  -0.315 -0.0291  0.1576  1.0813
  897MOL0     C23676  -1.788   2.156  -0.404  0.4406  0.5958  0.5566
  897MOL0     C23677  -1.914   1.953  -0.321  0.6221 -0.1483  0.0700
  897MOL0     C23678  -2.028   1.979  -0.411  0.5282  0.6956 -0.1643
  897MOL0     O23679  -1.994   2.004  -0.545 -0.0349  0.5101 -1.4613
  897MOL0     C23680  -2.085   2.063  -0.621 -0.4807  0.3586  0.2303
  897MOL0     C23681  -2.054   2.195  -0.657  0.7853 -0.7030 -0.2986
  897MOL0     C23682  -2.153   2.257  -0.730  0.2160 -0.3535  0.9883
  897MOL0     C23683  -2.275   2.198  -0.760 -0.1493 -0.5433  0.5772
  897MOL0     O23684  -2.368   2.280  -0.823  0.9812  0.5761  0.3151
  897MOL0     C23685  -2.506   2.240  -0.825  0.1988  0.1916 -0.3807
  897MOL0     C23686  -2.564   2.269  -0.688  1.1184  0.1081 -0.0211
  897MOL0     C23687  -2.677   2.366  -0.685  0.2605  0.8676 -1.0243
  897MOL0     C23688  -2.652   2.502  -0.716 -0.0635 -0.5541 -0.3730
  897MOL0     C23689  -2.528   2.565  -0.641  0.5159  0.5927 -0.5940
  897MOL0     C23690  -2.544   2.728  -0.652  0.8391  0.8154  0.0511
  897MOL0     C23691  -2.405   2.785  -0.622  0.4583 -1.0806 -0.4379
  897MOL0     C23692  -2.421   2.937  -0.630 -0.7418  0.2527 -0.0494
  897MOL0    Cl23693  -2.270   3.018  -0.592 -0.1068 -0.3147  0.4151
  897MOL0     C23694  -2.292   2.057  -0.736  0.3026 -0.1952  0.2052
  897MOL0     C23695  -2.203   1.994  -0.659 -0.0748  0.3567 -0.1609
  897MOL0     O23696  -2.135   1.996  -0.354  0.1921  0.1336 -0.0589
  897MOL0     C23697  -1.918   1.848  -0.235  0.1245  0.5780  0.0254
  897MOL0     C23698  -1.814   1.813  -0.149 -0.6442  1.2073  0.8570
  897MOL0     N23699  -0.905   1.896  -0.113 -0.7392  0.5744  0.1885
  897MOL0     N23700  -0.819   1.967  -0.047  0.7667  0.9930 -0.3484
  897MOL0     C23701  -0.220   1.960   0.903 -0.4814  0.4161  0.1957
  897MOL0     C23702  -0.105   1.968   0.972 -0.8006 -0.7073 -0.5256
  897MOL0     C23703   0.245   2.004   1.222 -1.0711  0.2806 -0.2802
  897MOL0     C23704   0.260   1.882   1.282 -0.5098  0.0876 -0.4743
  897MOL0     C23705   0.382   1.845   1.339  0.9601  0.9615 -0.0284
  897MOL0     C23706   0.503   1.922   1.322 -0.7318 -0.0963 -0.4537
  897MOL0     O23707   0.633   1.899   1.375 -0.2913  0.5355  0.4180
  897MOL0     C23708   0.665   1.756   1.375  0.2266 -0.0349 -0.5616
  897MOL0     C23709   0.811   1.735   1.432 -0.7196  0.7121  0.4182
  897MOL0     C23710   0.825   1.781   1.581 -0.0707 -0.2161 -0.7443
  897MOL0     C23711   0.961   1.727   1.649 -0.3379 -0.2925 -0.2774
  897MOL0     C23712   1.058   1.834   1.631 -0.3087 -1.1761 -0.1725
  897MOL0     C23713   1.146   1.926   1.616 -0.2263 -0.5217  1.0783
  897MOL0     C23714   0.487   2.053   1.262  0.0795 -0.5768 -1.1912
  897MOL0     C23715   0.359   2.090   1.214 -0.9806 -0.3578  0.1792
  897MOL0     C23716   0.344   2.226   1.169 -0.2423 -0.2889 -0.6232
  897MOL0     H23717  -0.193   1.770   1.248  1.5415 -1.9395 -0.5827
  897MOL0     H23718  -0.401   1.761   1.128 -0.3129  0.0831  0.4640
  897MOL0     H23719  -0.421   1.641   0.851 -2.3380 -1.8134 -1.4562
  897MOL0     H23720  -0.323   1.734   0.744  2.3765  4.2636  1.9810
  897MOL0     H23721  -0.537   1.633   0.647  0.6654  0.7027  0.1707
  897MOL0     H23722  -0.629   1.736   0.760 -0.1247 -0.4733 -0.3266
  897MOL0     H23723  -0.535   1.943   0.655  1.9592  1.0764 -3.1274
  897MOL0     H23724  -0.438   1.842   0.557  1.1099  1.7349  0.3614
  897MOL0     H23725  -0.613   1.745   0.453 -0.8044 -0.6770  0.6399
  897MOL0     H23726  -0.738   1.816   0.558  1.3687 -1.3047  0.8722
  897MOL0     H23727  -0.531   1.958   0.374  0.2416 -1.8405 -1.8335
  897MOL0     H23728  -0.675   2.046   0.446 -3.0392 -1.2216  0.7307
  897MOL0     H23729  -0.684   1.869   0.206  2.8550  1.4416  0.5206
  897MOL0     H23730  -0.813   1.931   0.303 -0.4085  1.2702 -2.2493
  897MOL0     H23731  -0.617   2.053   0.122 -0.6179  1.2234 -1.5883
  897MOL0     H23732  -0.644   2.153   0.266 -0.7568 -1.6149  2.5395
  897MOL0     H23733  -0.883   2.168   0.218 -0.1078  0.8558 -0.8063
  897MOL0     H23734  -0.787   2.205   0.074 -0.4427  1.3934  2.2061
  897MOL0     H23735  -1.089   2.000   0.131  0.8575  4.1192 -0.1675
  897MOL0     H23736  -1.199   1.809   0.027  1.2855 -3.0071  0.0123
  897MOL0     H23737  -1.123   1.741  -0.129  1.1520 -0.6149  0.4176
  897MOL0     H23738  -1.246   2.003  -0.100 -1.6172 -0.1191  1.0582
  897MOL0     H23739  -1.213   1.924  -0.257  0.2010  1.2875  0.4029
  897MOL0     H23740  -1.424   1.844  -0.257  1.0418 -0.8940 -0.9708
  897MOL0     H23741  -1.372   1.724  -0.136  3.5592  0.4340 -2.6801
  897MOL0     H23742  -1.439   1.872   0.044  0.1271 -1.6460 -0.4972
  897MOL0     H23743  -1.468   2.001  -0.074  1.9110 -0.9230  2.1379
  897MOL0     H23744  -1.601   2.058  -0.247 -1.7494  1.7191  1.8625
  897MOL0     H23745  -1.775   2.121  -0.507  2.1267  0.7674  0.6857
  897MOL0     H23746  -1.701   2.213  -0.369  0.9597 -1.0833  2.1960
  897MOL0     H23747  -1.871   2.227  -0.396  3.1066  3.7933  2.6076
  897MOL0     H23748  -1.964   2.249  -0.632  1.0511 -0.4966 -1.6286
  897MOL0     H23749  -2.136   2.361  -0.754 -0.5512 -0.5123 -0.3526
  897MOL0     H23750  -2.557   2.307  -0.895 -0.4288 -0.2788 -0.3832
  897MOL0     H23751  -2.531   2.137  -0.851 -1.8190  0.6285 -0.3819
  897MOL0     H23752  -2.601   2.173  -0.649  1.9916 -0.8024 -1.3446
  897MOL0     H23753  -2.491   2.310  -0.618 -0.6423  0.8107  1.4755
  897MOL0     H23754  -2.699   2.362  -0.578  2.2922 -2.0753 -0.5935
  897MOL0     H23755  -2.760   2.330  -0.747  0.9475 -1.1672 -0.8408
  897MOL0     H23756  -2.743   2.557  -0.693  0.5726 -0.6774  2.8934
  897MOL0     H23757  -2.636   2.519  -0.823 -2.6325  0.3814 -0.6811
  897MOL0     H23758  -2.520   2.532  -0.537  3.2521 -0.5117 -1.0756
  897MOL0     H23759  -2.438   2.536  -0.695 -0.3886 -0.4338 -1.6084
  897MOL0     H23760  -2.628   2.770  -0.595  1.8655  0.0219  2.2674
  897MOL0     H23761  -2.569   2.759  -0.754 -0.4562  0.2115  0.1634
  897MOL0     H23762  -2.329   2.747  -0.692  0.5419 -1.9507  0.1107
  897MOL0     H23763  -2.374   2.774  -0.518 -0.5707  2.4667  0.3571
  897MOL0     H23764  -2.493   2.975  -0.556 -2.1390 -0.1333 -1.1534
  897MOL0     H23765  -2.464   2.961  -0.728  1.5321  1.2395 -0.8648
  897MOL0     H23766  -2.372   1.987  -0.759 -0.0828  0.1480  0.4905
  897MOL0     H23767  -2.207   1.891  -0.626  0.2926  0.1454 -0.7625
  897MOL0     H23768  -2.008   1.787  -0.238  0.8732 -0.6699  1.4704
  897MOL0     H23769  -1.823   1.731  -0.079 -1.2169 -0.6635 -1.2851
  897MOL0     H23770  -0.215   1.995   0.801  1.5964  0.7378  0.3625
  897MOL0     H23771  -0.014   2.014   0.935 -0.9270  1.8703  2.0692
  897MOL0     H23772   0.180   1.809   1.293  0.1790 -0.2878  3.2025
  897MOL0     H23773   0.382   1.758   1.404 -0.3090  1.7370  1.0667
  897MOL0     H23774   0.595   1.702   1.439  0.9942 -2.0331 -1.3213
  897MOL0     H23775   0.658   1.708   1.276 -0.2193  0.2565 -0.6707
  897MOL0     H23776   0.873   1.795   1.365 -2.9988  2.5423 -0.1628
  897MOL0     H23777   0.833   1.628   1.420 -1.1618  0.5601  0.9490
  897MOL0     H23778   0.829   1.890   1.589 -1.1914 -0.1616 -0.7077
  897MOL0     H23779   0.742   1.748   1.645  0.9500  0.1889  0.8497
  897MOL0     H23780   1.004   1.639   1.600  3.6800  0.9408  0.7012
  897MOL0     H23781   0.944   1.704   1.754  3.6203 -1.5812  0.2198
  897MOL0     H23782   1.204   2.016   1.614 -0.6199 -0.2613  1.4163
  897MOL0     H23783   0.569   2.124   1.264 -3.1724  3.5987  0.6979
  897MOL0     H23784   0.441   2.276   1.181 -1.0961  1.4255 -0.6155
  897MOL0     H23785   0.313   2.230   1.064 -1.2693 -1.0888 -0.3612
  897MOL0     H23786   0.276   2.289   1.227  3.5878  2.8973  0.9413
  898MOL0     O23787   8.864  10.910   4.200  0.4602 -0.2573 -0.2537
  898MOL0     C23788   8.977  10.867   4.179  0.8081  0.2036 -0.5049
  898MOL0     O23789   9.036  10.846   4.059 -0.1756  0.0704 -0.2441
  898MOL0     C23790   8.989  10.894   3.942  0.8091  1.8499  0.6622
  898MOL0     C23791   9.041  10.836   3.825 -0.3470  0.2417  0.8264
  898MOL0     C23792   8.996  10.862   3.694 -0.5996 -0.0674  0.9541
  898MOL0     C23793   8.888  10.943   3.682 -0.1950  0.1982 -0.4949
  898MOL0     O23794   8.836  10.971   3.557  0.6139  0.3821 -0.2371
  898MOL0     C23795   8.886  11.088   3.496 -0.2451  0.1559 -0.0496
  898MOL0     C23796   8.857  11.111   3.346  0.0728 -0.2297 -0.8610
  898MOL0     C23797   8.917  10.991   3.263  0.0327 -0.2954 -0.2745
  898MOL0     C23798   9.068  10.966   3.290  0.5106  0.4136 -0.0698
  898MOL0     C23799   9.128  10.856   3.194  0.5409 -0.2977  0.4336
  898MOL0     C23800   9.266  10.825   3.243  0.3932 -0.1363 -1.0211
  898MOL0     C23801   9.326  10.716   3.154 -0.0019 -0.6035 -0.3775
  898MOL0     C23802   9.465  10.693   3.216 -0.3014 -0.1413  0.0828
  898MOL0     N23803   9.451  10.620   3.346 -0.0311 -0.0496 -0.2594
  898MOL0     C23804   9.471  10.486   3.365 -0.4938 -0.0645 -0.4570
  898MOL0     C23805   9.470  10.469   3.506 -0.1842 -0.1788  0.0472
  898MOL0     C23806   9.476  10.333   3.577 -0.2111  1.3247 -0.3722
  898MOL0     C23807   9.596  10.318   3.661 -0.1987  0.4828  0.0652
  898MOL0     C23808   9.602  10.184   3.731 -0.3064 -0.6759 -1.1990
  898MOL0     C23809   9.690  10.211   3.854 -0.2832 -0.5189  0.2751
  898MOL0     O23810   9.766  10.093   3.880  0.4010 -1.2248  0.4839
  898MOL0     C23811   9.762  10.031   4.002  0.3822 -0.3603  0.7729
  898MOL0     C23812   9.661   9.945   4.050  0.6632 -0.4893 -0.2146
  898MOL0     C23813   9.665   9.895   4.184  0.1271 -0.1338  0.0197
  898MOL0     C23814   9.539   9.820   4.225  0.4679 -0.0302 -0.5980
  898MOL0     C23815   9.775   9.923   4.263 -1.1813  0.5827  0.5049
  898MOL0     C23816   9.809   9.851   4.399  0.4747 -0.6956  1.3153
  898MOL0     O23817   9.913   9.901   4.470 -0.3306 -0.4453 -0.4805
  898MOL0     C23818   9.959   9.841   4.587  0.8925  0.7941 -0.6093
  898MOL0     C23819  10.030   9.917   4.679 -0.6059  0.4498  0.0207
  898MOL0     C23820  10.067   9.861   4.801  0.0447  0.3430 -1.4040
  898MOL0     C23821  10.036   9.716   4.834  0.6708 -0.4032  0.0464
  898MOL0     O23822  10.056   9.661   4.961 -0.0711  0.0087  0.5567
  898MOL0     C23823  10.124   9.732   5.066  0.0643  0.2320 -0.2223
  898MOL0     C23824  10.196   9.630   5.149  0.6938  0.3219  0.7945
  898MOL0     C23825  10.269   9.703   5.258  0.6718  0.2145 -1.1531
  898MOL0     C23826  10.331   9.607   5.347 -0.3157 -0.2644 -0.1809
  898MOL0     C23827  10.391   9.678   5.466  0.2233  0.3263  0.9346
  898MOL0     C23828  10.467   9.584   5.562  0.5387  0.1977  0.3144
  898MOL0     C23829  10.357   9.486   5.626  0.3739 -0.2398 -0.1186
  898MOL0     C23830  10.420   9.411   5.741  0.2033 -0.6011  0.3332
  898MOL0    Cl23831  10.312   9.288   5.805  0.0795  0.0661 -0.2034
  898MOL0     C23832   9.976   9.636   4.735 -0.6898 -0.3680  0.1560
  898MOL0     C23833   9.942   9.699   4.615 -0.5165  0.4299  0.3965
  898MOL0     O23834   9.735   9.758   4.436 -0.6119 -0.1337  0.3959
  898MOL0     C23835   9.868  10.017   4.226 -0.4317  0.0372  0.2027
  898MOL0     C23836   9.858  10.064   4.094 -0.5724  0.2773  0.5532
  898MOL0     N23837   9.445  10.590   3.565 -0.0516 -0.5542  0.8798
  898MOL0     N23838   9.441  10.687   3.469 -0.2525  0.1373 -1.1793
  898MOL0     C23839   8.839  11.014   3.795 -0.4297  0.1523 -0.9658
  898MOL0     C23840   8.883  10.983   3.922  0.1779 -0.7742 -0.3215
  898MOL0     C23841   9.061  10.836   4.296  0.3302 -0.2931  0.4890
  898MOL0     C23842   9.191  10.784   4.276  0.3869  0.5691  0.4420
  898MOL0     C23843   9.274  10.745   4.379  0.3522  1.3996 -0.1742
  898MOL0     C23844   9.239  10.755   4.507  0.3356 -0.2081 -0.6302
  898MOL0     O23845   9.321  10.717   4.612  0.0580 -0.0702 -0.8479
  898MOL0     C23846   9.408  10.818   4.662  0.0555  0.2773 -0.7744
  898MOL0     C23847   9.467  10.807   4.803  0.5686 -0.2571  0.6726
  898MOL0     C23848   9.397  10.877   4.911 -0.1080 -0.0061 -0.0017
  898MOL0     C23849   9.258  10.807   4.940  0.1695  0.2037  0.1147
  898MOL0     C23850   9.203  10.852   5.070  0.4592  0.2720  0.0605
  898MOL0     C23851   9.153  10.871   5.179 -1.0626  0.5356  0.9759
  898MOL0     C23852   9.109  10.799   4.531 -1.1656  0.3979 -0.3247
  898MOL0     C23853   9.019  10.835   4.432  0.0418  0.9117  0.0833
  898MOL0     C23854   8.875  10.855   4.484  0.3750 -0.9217 -0.7456
  898MOL0     H23855   9.121  10.764   3.843 -1.8154 -1.1554  2.1061
  898MOL0     H23856   9.031  10.807   3.607 -2.9538  0.1768 -0.2577
  898MOL0     H23857   8.995  11.091   3.511 -0.4162  2.4247  1.1816
  898MOL0     H23858   8.844  11.166   3.561  0.8256 -0.6088  1.6343
  898MOL0     H23859   8.750  11.128   3.332  0.1962  3.8573  1.6912
  898MOL0     H23860   8.897  11.206   3.311 -0.8667 -0.3682 -2.4086
  898MOL0     H23861   8.863  10.897   3.280 -1.2028  0.8193  2.7335
  898MOL0     H23862   8.919  11.022   3.158  1.3763  1.0031  0.1030
  898MOL0     H23863   9.130  11.056   3.299 -1.2606  1.7685 -0.7098
  898MOL0     H23864   9.068  10.926   3.392 -1.1339 -0.8809 -0.5404
  898MOL0     H23865   9.128  10.885   3.089  0.5977  3.6187  1.3232
  898MOL0     H23866   9.065  10.767   3.199  0.4993 -0.3648 -0.9772
  898MOL0     H23867   9.327  10.916   3.234  1.4872 -0.8043 -0.5517
  898MOL0     H23868   9.259  10.799   3.349  0.1037  0.7747 -0.8112
  898MOL0     H23869   9.334  10.738   3.047  0.9532 -2.5618 -0.7615
  898MOL0     H23870   9.275  10.623   3.179 -1.1288 -0.0800 -0.6836
  898MOL0     H23871   9.530  10.631   3.154 -1.7151 -0.3586 -1.2518
  898MOL0     H23872   9.519  10.787   3.235 -1.7526  0.7782 -0.1830
  898MOL0     H23873   9.488  10.414   3.286 -2.3879  2.2978 -3.2052
  898MOL0     H23874   9.468  10.266   3.492 -0.5716  1.1126 -0.1754
  898MOL0     H23875   9.380  10.315   3.626 -0.0220  3.1671  0.7884
  898MOL0     H23876   9.682  10.344   3.599  0.3176  1.7271  1.2529
  898MOL0     H23877   9.590  10.397   3.737  1.3025 -2.1602  3.1571
  898MOL0     H23878   9.503  10.159   3.772  0.5697  2.4723  3.7541
  898MOL0     H23879   9.647  10.108   3.667  2.4250 -0.3000  0.1290
  898MOL0     H23880   9.762  10.289   3.828 -0.6811  0.5621  2.2259
  898MOL0     H23881   9.621  10.245   3.932 -1.0699 -2.0658  0.2932
  898MOL0     H23882   9.575   9.930   3.985  0.2433 -2.7789  0.7770
  898MOL0     H23883   9.570   9.723   4.262  2.9539 -0.0208 -2.4264
  898MOL0     H23884   9.470   9.802   4.141 -1.9494  1.1531  1.0055
  898MOL0     H23885   9.485   9.878   4.301  2.0692  1.0324 -0.2254
  898MOL0     H23886  10.065  10.017   4.656  1.8922 -0.5495 -0.8787
  898MOL0     H23887  10.111   9.922   4.879  0.1324 -0.9210 -0.4220
  898MOL0     H23888  10.191   9.812   5.031 -0.7156  0.5494 -1.0364
  898MOL0     H23889  10.044   9.784   5.120  0.1442 -0.4371  0.5505
  898MOL0     H23890  10.134   9.547   5.184 -0.5353  1.5348  1.5372
  898MOL0     H23891  10.269   9.585   5.080 -0.5826  0.8463 -0.9711
  898MOL0     H23892  10.197   9.761   5.316  0.3768 -1.5288  0.3309
  898MOL0     H23893  10.340   9.772   5.211 -0.6779  2.3893 -0.1117
  898MOL0     H23894  10.410   9.547   5.299  0.3849  0.8678 -0.4915
  898MOL0     H23895  10.253   9.540   5.384 -0.3128 -0.7824 -1.0726
  898MOL0     H23896  10.467   9.752   5.442 -0.9035  2.9593  4.6467
  898MOL0     H23897  10.321   9.735   5.527 -0.7601  0.2911 -0.1258
  898MOL0     H23898  10.517   9.642   5.640 -0.0350  2.2635 -0.7778
  898MOL0     H23899  10.546   9.532   5.507  2.3931  1.5799  1.5412
  898MOL0     H23900  10.330   9.405   5.556  0.9474 -0.3007 -0.2707
  898MOL0     H23901  10.264   9.536   5.653  0.4623  0.6340 -1.3461
  898MOL0     H23902  10.451   9.481   5.819  2.6268  1.3489 -2.1740
  898MOL0     H23903  10.505   9.361   5.694  1.1944  0.9554  0.4133
  898MOL0     H23904   9.961   9.533   4.766  1.4132 -0.1585  2.1161
  898MOL0     H23905   9.893   9.634   4.543 -2.6890  1.1808  1.0929
  898MOL0     H23906   9.942  10.060   4.293  1.3339  0.8907 -2.1672
  898MOL0     H23907   9.946  10.123   4.069  0.0954 -1.4510 -1.3648
  898MOL0     H23908   8.754  11.083   3.793  1.8395  3.7300  3.9628
  898MOL0     H23909   8.825  11.037   3.996  1.0784  0.1098 -0.2420
  898MOL0     H23910   9.231  10.780   4.175  0.8936 -0.5076  0.6751
  898MOL0     H23911   9.361  10.685   4.353 -0.9886 -1.1669  0.8806
  898MOL0     H23912   9.490  10.819   4.589  0.9901  0.0100  0.2485
  898MOL0     H23913   9.352  10.911   4.653 -4.0439 -1.8757  0.2879
  898MOL0     H23914   9.569  10.848   4.800  0.0010  1.1346 -0.0997
  898MOL0     H23915   9.476  10.701   4.829 -1.4281 -0.8351 -0.8011
  898MOL0     H23916   9.463  10.864   4.997  0.6463  0.0726 -0.5585
  898MOL0     H23917   9.374  10.981   4.886 -1.2796 -0.1210  0.5357
  898MOL0     H23918   9.283  10.701   4.946 -1.5229 -0.1739  1.2683
  898MOL0     H23919   9.182  10.826   4.864  0.1203  1.6356  0.4747
  898MOL0     H23920   9.110  10.906   5.270 -0.7384  0.5150  1.1381
  898MOL0     H23921   9.065  10.820   4.628 -1.2414 -1.1288 -0.0121
  898MOL0     H23922   8.812  10.776   4.444  1.0013 -2.4227  1.0788
  898MOL0     H23923   8.863  10.832   4.591  1.1867 -1.0553 -0.6746
  898MOL0     H23924   8.838  10.957   4.468  0.0940 -0.2188  3.2416
  899MOL0     O23925   5.430   2.044   3.538  0.6172 -0.3984  0.5418
  899MOL0     C23926   5.427   2.168   3.540 -0.0142 -0.0146 -0.1128
  899MOL0     O23927   5.537   2.248   3.574  0.0465  0.9191 -1.1705
  899MOL0     C23928   5.650   2.186   3.619 -0.7949  0.4177  0.7107
  899MOL0     C23929   5.724   2.260   3.714  0.3528 -0.6270  0.1842
  899MOL0     C23930   5.845   2.214   3.765  0.9016 -0.0923 -0.4070
  899MOL0     C23931   5.892   2.081   3.737  0.1008  0.1573  0.2171
  899MOL0     O23932   6.002   2.023   3.797 -0.6957  0.1370 -0.1013
  899MOL0     C23933   6.111   2.095   3.860 -0.7465 -0.9772  0.3069
  899MOL0     C23934   6.219   2.135   3.768 -0.9977 -0.2755  0.2217
  899MOL0     C23935   6.285   2.019   3.699 -0.0001  0.3288  0.9207
  899MOL0     C23936   6.409   2.058   3.607  0.5593  0.0847 -0.8284
  899MOL0     C23937   6.453   1.957   3.507  1.0658 -0.2811  1.1501
  899MOL0     C23938   6.580   1.999   3.426 -0.1080 -0.2674  0.4442
  899MOL0     C23939   6.550   2.111   3.329 -0.5982  0.1169 -0.4444
  899MOL0     C23940   6.651   2.115   3.215  0.0696  0.0805  0.8154
  899MOL0     N23941   6.777   2.182   3.242  0.2842  0.1293 -0.0316
  899MOL0     C23942   6.874   2.141   3.327 -0.3455  0.2512  0.2455
  899MOL0     C23943   6.968   2.242   3.323 -0.7753 -0.6555  0.5335
  899MOL0     C23944   7.076   2.250   3.421 -0.5275 -0.1532  0.3318
  899MOL0     C23945   7.194   2.336   3.375 -0.4107 -0.7656 -0.6500
  899MOL0     C23946   7.324   2.291   3.456  0.2274  0.0189 -0.2161
  899MOL0     C23947   7.453   2.333   3.380 -0.5458  0.8129 -0.4203
  899MOL0     O23948   7.459   2.287   3.240  0.2256 -0.3386  0.1779
  899MOL0     C23949   7.588   2.290   3.197 -0.4250 -0.1966 -0.0570
  899MOL0     C23950   7.652   2.170   3.188 -0.5128 -0.4928 -0.6494
  899MOL0     C23951   7.790   2.158   3.163 -0.3571 -0.3071  0.4251
  899MOL0     C23952   7.839   2.021   3.133 -0.2590 -0.5442 -0.3183
  899MOL0     C23953   7.861   2.276   3.121 -0.4325  0.5123 -0.1185
  899MOL0     C23954   7.999   2.285   3.083  0.2007 -1.4064 -0.8201
  899MOL0     O23955   8.035   2.407   3.038  0.2251  0.1809 -0.3823
  899MOL0     C23956   8.169   2.438   3.031  0.2125  0.3687 -0.4547
  899MOL0     C23957   8.252   2.443   3.141 -0.5905  0.3877  0.0292
  899MOL0     C23958   8.379   2.494   3.138 -0.4669  0.3029 -0.2185
  899MOL0     C23959   8.433   2.542   3.021 -0.4545  0.2580  1.3771
  899MOL0     O23960   8.561   2.578   2.989  0.0143 -1.0921 -0.9438
  899MOL0     C23961   8.629   2.651   3.094  0.0737 -0.7449 -0.5252
  899MOL0     C23962   8.754   2.699   3.038 -0.6177  0.1491  0.5236
  899MOL0     C23963   8.850   2.779   3.139  0.4674 -0.2761  0.0250
  899MOL0     C23964   8.986   2.810   3.065  0.0563 -0.3453 -0.3387
  899MOL0     C23965   9.085   2.701   3.061  0.3562  0.6337  0.4494
  899MOL0     C23966   9.091   2.600   3.175  0.3080 -0.1897  0.0591
  899MOL0     C23967   9.204   2.505   3.143 -1.0923  0.1759 -0.0199
  899MOL0     C23968   9.251   2.414   3.267  0.5761 -0.3277  0.8204
  899MOL0    Cl23969   9.168   2.413   3.424  0.1418 -0.0976  0.0989
  899MOL0     C23970   8.350   2.537   2.909  0.4041  0.4197  0.3410
  899MOL0     C23971   8.217   2.499   2.920 -0.1255  0.6128 -0.0159
  899MOL0     O23972   8.073   2.188   3.095  0.0966 -0.8500  0.1936
  899MOL0     C23973   7.791   2.395   3.129  0.2392 -0.3546 -0.2568
  899MOL0     C23974   7.655   2.407   3.176 -0.8315  1.1509 -0.4612
  899MOL0     N23975   6.927   2.338   3.235 -0.0362  0.2900 -0.5168
  899MOL0     N23976   6.820   2.295   3.180  1.0235  0.7876  0.2637
  899MOL0     C23977   5.815   2.010   3.650  0.1687  0.6666  0.7450
  899MOL0     C23978   5.707   2.060   3.576 -0.3194  0.0904 -0.3060
  899MOL0     C23979   5.286   2.224   3.523  0.1632 -0.2706  0.1567
  899MOL0     C23980   5.268   2.365   3.566 -1.0009  0.2576  0.2233
  899MOL0     C23981   5.146   2.420   3.582  0.4033 -1.1209  0.4809
  899MOL0     C23982   5.034   2.351   3.539 -0.1385  0.1503 -0.5850
  899MOL0     O23983   4.903   2.390   3.565 -0.2332  0.2173 -0.0031
  899MOL0     C23984   4.871   2.524   3.571  0.1781 -0.6191  0.4928
  899MOL0     C23985   4.875   2.580   3.713  0.3467  0.0070 -0.0734
  899MOL0     C23986   4.900   2.728   3.688 -0.1245  0.0441 -0.6085
  899MOL0     C23987   5.048   2.772   3.684 -0.7412 -0.0839 -1.0503
  899MOL0     C23988   5.119   2.741   3.806  0.2997 -0.3440 -1.7758
  899MOL0     C23989   5.182   2.727   3.906  0.6407  0.8770 -0.9196
  899MOL0     C23990   5.051   2.231   3.486  0.9920  0.7114 -0.4937
  899MOL0     C23991   5.168   2.159   3.477 -0.1605 -0.8503  0.3252
  899MOL0     C23992   5.148   2.025   3.416 -0.8017  0.5888 -0.0845
  899MOL0     H23993   5.687   2.360   3.734 -0.6812 -0.5328 -1.9145
  899MOL0     H23994   5.894   2.288   3.828  2.4337  1.3917 -3.1353
  899MOL0     H23995   6.144   2.022   3.935 -3.5126 -1.4862  1.1728
  899MOL0     H23996   6.081   2.187   3.911  3.7155  1.1315 -0.4451
  899MOL0     H23997   6.182   2.212   3.701 -0.5054  1.5443  1.9495
  899MOL0     H23998   6.295   2.194   3.821  0.3706 -0.5760 -1.3261
  899MOL0     H23999   6.305   1.939   3.772 -4.2239 -1.1271  0.7719
  899MOL0     H24000   6.214   1.975   3.630 -1.9383  2.2773  1.5582
  899MOL0     H24001   6.372   2.154   3.568  0.8232  0.9567  0.9624
  899MOL0     H24002   6.494   2.071   3.675 -0.9609 -0.7818  1.3217
  899MOL0     H24003   6.371   1.932   3.439  1.5965 -0.0901  0.4346
  899MOL0     H24004   6.473   1.867   3.567 -2.3502 -1.7959  0.2532
  899MOL0     H24005   6.654   2.035   3.498  0.4282  1.2306 -0.7986
  899MOL0     H24006   6.627   1.913   3.377 -0.5318  0.5066 -1.3935
  899MOL0     H24007   6.557   2.205   3.384  0.3508  0.9484 -1.9291
  899MOL0     H24008   6.447   2.113   3.294 -1.2178 -1.0008  1.1724
  899MOL0     H24009   6.669   2.010   3.191 -0.6520 -0.0934  1.0107
  899MOL0     H24010   6.606   2.159   3.126  1.1991 -2.4644 -1.1616
  899MOL0     H24011   6.877   2.056   3.396  3.5789  0.2089  0.2433
  899MOL0     H24012   7.105   2.151   3.456  0.4687 -0.0070 -0.0662
  899MOL0     H24013   7.036   2.296   3.513 -0.3157 -2.0896  1.4436
  899MOL0     H24014   7.211   2.309   3.271  0.6128 -0.6285 -0.5262
  899MOL0     H24015   7.185   2.445   3.377  3.9457 -0.2430 -0.5396
  899MOL0     H24016   7.315   2.322   3.560  0.8379  1.3254 -0.5438
  899MOL0     H24017   7.314   2.182   3.454 -2.3279  0.1982 -1.1469
  899MOL0     H24018   7.456   2.441   3.369  2.5257  0.6575 -2.0042
  899MOL0     H24019   7.538   2.306   3.444 -2.2334 -0.3565  1.4884
  899MOL0     H24020   7.602   2.078   3.213  1.9034 -2.0557 -1.2435
  899MOL0     H24021   7.770   1.951   3.179 -2.2414 -1.6248 -4.4128
  899MOL0     H24022   7.941   2.011   3.171  0.1058  0.8130 -0.8554
  899MOL0     H24023   7.848   1.997   3.026  1.5607  0.8769 -0.5539
  899MOL0     H24024   8.215   2.405   3.236  0.0066 -0.3869 -0.0374
  899MOL0     H24025   8.442   2.497   3.227  0.2174 -0.1088 -0.6766
  899MOL0     H24026   8.560   2.727   3.130  1.3919 -0.7511  2.2944
  899MOL0     H24027   8.652   2.589   3.181  0.8620 -0.9840 -0.8954
  899MOL0     H24028   8.810   2.612   3.003 -1.0770 -1.1902  2.8978
  899MOL0     H24029   8.734   2.766   2.953 -0.8901 -0.2512  0.2702
  899MOL0     H24030   8.864   2.715   3.227 -0.4016 -0.5101  0.0083
  899MOL0     H24031   8.804   2.872   3.172 -0.0754 -0.8368  0.8960
  899MOL0     H24032   9.022   2.888   3.133 -0.0638 -1.2834  0.8416
  899MOL0     H24033   8.973   2.845   2.962 -1.8050 -0.6560 -0.2465
  899MOL0     H24034   9.075   2.649   2.965 -0.3033  3.5234 -1.1605
  899MOL0     H24035   9.183   2.745   3.039 -1.0022  2.2338 -3.2232
  899MOL0     H24036   8.998   2.542   3.171 -0.2268  0.7167 -0.9140
  899MOL0     H24037   9.092   2.648   3.273  1.3468 -2.1658  1.0919
  899MOL0     H24038   9.292   2.563   3.112  0.5427 -1.7445  0.8078
  899MOL0     H24039   9.160   2.439   3.068 -2.3692  1.2947 -0.2987
  899MOL0     H24040   9.354   2.447   3.285  0.4445  2.7935 -2.8752
  899MOL0     H24041   9.249   2.313   3.227 -1.7098  0.8619 -2.5274
  899MOL0     H24042   8.389   2.565   2.811  0.9323  0.7150  0.6316
  899MOL0     H24043   8.154   2.519   2.834  1.0026  0.2242 -0.9555
  899MOL0     H24044   7.842   2.490   3.115  1.8034 -0.9192  1.1719
  899MOL0     H24045   7.617   2.508   3.187 -3.1583  0.3125 -0.3496
  899MOL0     H24046   5.837   1.908   3.621 -1.7371  0.6412 -0.8023
  899MOL0     H24047   5.663   1.982   3.515  1.3146 -0.6028 -0.6491
  899MOL0     H24048   5.352   2.427   3.595 -1.6773  2.3780 -2.0626
  899MOL0     H24049   5.138   2.519   3.625 -1.5689  0.0963 -2.3770
  899MOL0     H24050   4.932   2.586   3.505 -0.7595  1.7323  1.7241
  899MOL0     H24051   4.766   2.530   3.541  0.0890 -2.1977  0.4249
  899MOL0     H24052   4.962   2.540   3.765 -1.0322 -1.7761  0.9818
  899MOL0     H24053   4.784   2.559   3.770  0.2410 -0.3881 -0.3814
  899MOL0     H24054   4.837   2.769   3.608 -0.2740  1.6838  0.3038
  899MOL0     H24055   4.868   2.775   3.782  1.2700 -2.3995  1.2035
  899MOL0     H24056   5.051   2.881   3.678  1.2374  0.0577  1.2218
  899MOL0     H24057   5.114   2.742   3.601  0.7488  2.4461 -0.8622
  899MOL0     H24058   5.252   2.707   3.986 -0.5453  2.5403  0.6001
  899MOL0     H24059   4.961   2.177   3.461  1.0463 -1.0349  2.6202
  899MOL0     H24060   5.230   1.962   3.453  1.2721  4.1141  1.8384
  899MOL0     H24061   5.054   1.976   3.442 -1.0589  1.2335  0.2342
  899MOL0     H24062   5.165   2.038   3.309 -1.0375  0.7512 -0.1038
  900MOL0     O24063   6.244   3.381   7.514 -0.3025  0.8370  0.1761
  900MOL0     C24064   6.308   3.466   7.577 -0.2015  0.3779 -0.8389
  900MOL0     O24065   6.268   3.585   7.607 -0.0133  0.3940 -0.1396
  900MOL0     C24066   6.197   3.651   7.518  1.0745  1.3929  0.5010
  900MOL0     C24067   6.079   3.708   7.559  0.2979  0.2966  0.5904
  900MOL0     C24068   6.003   3.768   7.462 -0.1220 -0.5776  0.1110
  900MOL0     C24069   6.043   3.792   7.333  1.2267  0.3685  0.3423
  900MOL0     O24070   5.966   3.860   7.237 -0.3303  0.8990 -0.1508
  900MOL0     C24071   5.827   3.889   7.252 -0.6485  0.2385  0.2608
  900MOL0     C24072   5.766   3.916   7.113 -0.0671  0.1386  0.1313
  900MOL0     C24073   5.615   3.917   7.133 -0.4772 -0.3443  0.0416
  900MOL0     C24074   5.536   3.944   7.000 -0.2465  0.5521  0.7369
  900MOL0     C24075   5.504   4.090   6.978 -0.5209  0.5474  0.8279
  900MOL0     C24076   5.438   4.110   6.847  0.2522 -0.3763  0.3280
  900MOL0     C24077   5.523   4.080   6.724 -0.1937 -1.3796  0.8109
  900MOL0     C24078   5.469   4.143   6.601 -0.3074 -0.4794  0.4234
  900MOL0     N24079   5.468   4.290   6.599  0.1393 -0.2872  0.2020
  900MOL0     C24080   5.569   4.385   6.597  1.3467  0.4153 -0.5630
  900MOL0     C24081   5.499   4.511   6.588  0.5752  0.2536  0.3354
  900MOL0     C24082   5.570   4.637   6.610  0.1855 -0.3833 -0.5438
  900MOL0     C24083   5.686   4.656   6.514  1.6802 -0.3650  0.3139
  900MOL0     C24084   5.783   4.767   6.545  0.8778  0.1517 -0.2818
  900MOL0     C24085   5.876   4.770   6.426 -0.4871  0.7034  0.1157
  900MOL0     O24086   5.953   4.648   6.442  0.8598  0.0608 -0.0966
  900MOL0     C24087   6.082   4.664   6.398 -0.5441 -0.2484 -0.2870
  900MOL0     C24088   6.116   4.676   6.269  0.3168 -0.0403 -0.0154
  900MOL0     C24089   6.246   4.692   6.223 -0.4481  0.4781  0.0787
  900MOL0     C24090   6.279   4.684   6.079  0.1281  0.7164  0.2969
  900MOL0     C24091   6.351   4.702   6.328  0.1356  0.7460  0.3356
  900MOL0     C24092   6.498   4.721   6.298 -0.8543  1.3686 -1.0134
  900MOL0     O24093   6.578   4.663   6.393  0.1714 -0.1848 -0.1982
  900MOL0     C24094   6.709   4.627   6.369 -0.0580  1.3929 -0.7552
  900MOL0     C24095   6.766   4.578   6.252 -0.1398 -0.0772 -0.0179
  900MOL0     C24096   6.903   4.545   6.247 -0.8519  0.3249 -0.5745
  900MOL0     C24097   6.986   4.542   6.358 -0.0076 -0.4378  0.0887
  900MOL0     O24098   7.120   4.521   6.335 -0.3131  1.4078 -0.0983
  900MOL0     C24099   7.208   4.546   6.448  0.1521  0.5091 -0.3418
  900MOL0     C24100   7.344   4.481   6.417 -0.3273  1.0424  0.6882
  900MOL0     C24101   7.461   4.534   6.496 -0.1241  0.0258 -0.5154
  900MOL0     C24102   7.451   4.515   6.654  0.5619  0.1093  0.6298
  900MOL0     C24103   7.599   4.508   6.718  0.0583  0.3478  0.4421
  900MOL0     C24104   7.600   4.446   6.858 -0.2563 -0.5984  0.6250
  900MOL0     C24105   7.729   4.488   6.926 -0.6874 -1.1601 -0.5399
  900MOL0     C24106   7.730   4.479   7.081  0.4148 -0.4110  0.8422
  900MOL0    Cl24107   7.607   4.603   7.144 -0.0294  0.4826  0.2142
  900MOL0     C24108   6.929   4.580   6.478  0.3418  1.1842 -0.0053
  900MOL0     C24109   6.799   4.621   6.479  0.0902 -0.5758 -0.8779
  900MOL0     O24110   6.537   4.774   6.193  0.3525 -0.0435 -0.4423
  900MOL0     C24111   6.314   4.678   6.461 -0.4927 -0.7440  0.2729
  900MOL0     C24112   6.178   4.663   6.497 -0.6071  0.7741 -0.1645
  900MOL0     N24113   5.367   4.482   6.577 -0.1158  1.0040  0.0122
  900MOL0     N24114   5.352   4.349   6.570 -0.4235 -0.7709 -0.2519
  900MOL0     C24115   6.169   3.745   7.293 -0.0785 -1.2407 -0.7121
  900MOL0     C24116   6.250   3.684   7.390 -0.3783  0.7398  0.5985
  900MOL0     C24117   6.440   3.428   7.631  0.8442  1.1097 -0.1401
  900MOL0     C24118   6.493   3.507   7.734  0.0925  0.1571 -0.0989
  900MOL0     C24119   6.620   3.498   7.784 -0.1196  0.5700  0.2934
  900MOL0     C24120   6.714   3.405   7.732  0.0038  0.5357 -0.4321
  900MOL0     O24121   6.839   3.402   7.794  0.0941  0.2740  0.1928
  900MOL0     C24122   6.913   3.283   7.768 -0.4316 -0.6545  0.1137
  900MOL0     C24123   7.048   3.289   7.837  0.2935 -0.5270 -0.7630
  900MOL0     C24124   7.140   3.171   7.825  0.2722  1.4140  0.3077
  900MOL0     C24125   7.254   3.182   7.929  0.4753 -0.5784  0.3234
  900MOL0     C24126   7.348   3.074   7.926 -0.6852  0.1941  0.0675
  900MOL0     C24127   7.424   2.985   7.889 -1.6315 -0.3296 -1.3994
  900MOL0     C24128   6.665   3.316   7.634  1.7072 -0.0245  0.2823
  900MOL0     C24129   6.535   3.324   7.577  0.1842 -0.5582 -0.6414
  900MOL0     C24130   6.496   3.221   7.472  0.5628  0.1874 -0.6186
  900MOL0     H24131   6.065   3.707   7.667  2.3502 -1.6108  0.8968
  900MOL0     H24132   5.911   3.814   7.495 -0.6685 -1.7154  0.2513
  900MOL0     H24133   5.817   3.986   7.302  0.5091  0.9843 -0.9035
  900MOL0     H24134   5.764   3.813   7.300  0.5094 -1.1728 -0.3607
  900MOL0     H24135   5.802   4.015   7.082 -0.7306  0.2976 -0.1660
  900MOL0     H24136   5.801   3.830   7.056 -1.5810 -0.5764  0.2350
  900MOL0     H24137   5.596   3.815   7.170  0.7247 -0.2435  0.9764
  900MOL0     H24138   5.584   3.984   7.214  0.0686 -0.6019  0.4677
  900MOL0     H24139   5.589   3.898   6.916  2.2424  0.3777  2.2928
  900MOL0     H24140   5.439   3.895   7.010  0.3858 -1.8519 -3.0163
  900MOL0     H24141   5.592   4.155   6.982 -1.8349  2.5356 -0.6928
  900MOL0     H24142   5.430   4.114   7.054 -0.7527  0.7511  0.5351
  900MOL0     H24143   5.341   4.059   6.845  0.6267 -1.2791 -3.2925
  900MOL0     H24144   5.408   4.215   6.851 -0.0753 -0.3862 -1.0829
  900MOL0     H24145   5.539   3.972   6.717  0.5525 -1.4233  2.4901
  900MOL0     H24146   5.622   4.126   6.735  0.0292 -0.9894 -2.1361
  900MOL0     H24147   5.529   4.111   6.515 -2.5883  1.1571 -1.9263
  900MOL0     H24148   5.364   4.116   6.590 -0.2422  0.2918 -3.4901
  900MOL0     H24149   5.676   4.365   6.604  0.9405 -1.3212  3.2460
  900MOL0     H24150   5.597   4.655   6.715  1.6101  4.1302 -1.4544
  900MOL0     H24151   5.501   4.720   6.591  1.8031  1.3003  0.5565
  900MOL0     H24152   5.746   4.565   6.519 -0.8222 -2.3581 -2.2463
  900MOL0     H24153   5.645   4.673   6.414  2.3714  1.0033  0.2498
  900MOL0     H24154   5.735   4.865   6.553 -0.1545 -0.3072 -0.6111
  900MOL0     H24155   5.847   4.746   6.632  1.1338 -1.4290 -0.8140
  900MOL0     H24156   5.818   4.769   6.334 -0.9853 -2.2096  0.3712
  900MOL0     H24157   5.933   4.862   6.441 -0.3297  0.5609  0.3966
  900MOL0     H24158   6.035   4.668   6.197  0.5917  1.2836 -0.5023
  900MOL0     H24159   6.356   4.758   6.054  1.8415 -0.7832  0.9627
  900MOL0     H24160   6.194   4.691   6.011  0.2387 -3.0163 -0.4124
  900MOL0     H24161   6.334   4.593   6.057 -0.6824  0.6558 -1.6330
  900MOL0     H24162   6.708   4.580   6.160  2.4963  0.4067 -1.7812
  900MOL0     H24163   6.939   4.500   6.155 -3.0440  0.5818 -1.6203
  900MOL0     H24164   7.216   4.653   6.467  0.9616  0.1914  1.2649
  900MOL0     H24165   7.176   4.490   6.536  1.5367 -0.3761 -0.3626
  900MOL0     H24166   7.343   4.371   6.426 -1.7940  1.1161  1.8452
  900MOL0     H24167   7.366   4.498   6.312  2.5586 -2.1598  0.5744
  900MOL0     H24168   7.461   4.642   6.478  1.1722 -0.2838 -2.6517
  900MOL0     H24169   7.548   4.479   6.461 -0.1693 -0.0215 -0.5532
  900MOL0     H24170   7.412   4.415   6.676 -1.0852  0.4409 -0.5913
  900MOL0     H24171   7.382   4.582   6.706 -1.7152 -0.2492 -1.7211
  900MOL0     H24172   7.658   4.438   6.659 -1.8092 -0.3415 -0.6771
  900MOL0     H24173   7.644   4.607   6.710 -2.5005  1.4304 -2.4425
  900MOL0     H24174   7.602   4.337   6.852  2.8918 -0.5749 -1.4120
  900MOL0     H24175   7.512   4.478   6.914  0.0066 -1.9468  1.8842
  900MOL0     H24176   7.765   4.588   6.899  0.1008 -1.2404  0.1649
  900MOL0     H24177   7.808   4.421   6.893 -1.8646 -2.3046 -1.1226
  900MOL0     H24178   7.833   4.505   7.105  1.3005 -1.6020 -1.4284
  900MOL0     H24179   7.709   4.377   7.114 -2.7397 -0.3871 -0.6859
  900MOL0     H24180   6.990   4.586   6.568  0.6743  1.7303 -0.2595
  900MOL0     H24181   6.757   4.659   6.571  3.6490  2.3051 -0.2185
  900MOL0     H24182   6.381   4.682   6.545 -0.1703  1.4994 -0.0316
  900MOL0     H24183   6.135   4.665   6.597 -0.2115  1.0724  0.0041
  900MOL0     H24184   6.217   3.774   7.200 -0.8384 -1.0873 -1.0636
  900MOL0     H24185   6.354   3.661   7.370 -0.5332  1.4509 -1.1889
  900MOL0     H24186   6.431   3.587   7.774  0.3809  0.3402 -0.0133
  900MOL0     H24187   6.643   3.557   7.873  0.7155  0.5572  0.0970
  900MOL0     H24188   6.868   3.195   7.815 -0.2587 -1.2538 -0.8244
  900MOL0     H24189   6.928   3.276   7.660 -2.6672 -1.3724 -0.1857
  900MOL0     H24190   7.036   3.302   7.945  5.7569 -1.7327  0.2976
  900MOL0     H24191   7.110   3.376   7.815 -0.3119 -0.0918 -0.7606
  900MOL0     H24192   7.082   3.081   7.847  1.5434  0.1085 -1.3676
  900MOL0     H24193   7.164   3.152   7.720 -1.3478 -1.9607  0.3924
  900MOL0     H24194   7.211   3.178   8.030 -0.2421  0.6132  0.0837
  900MOL0     H24195   7.298   3.282   7.920 -2.3925  0.9295  1.5524
  900MOL0     H24196   7.498   2.924   7.841 -0.7898  1.4237 -2.4411
  900MOL0     H24197   6.725   3.238   7.590 -0.8228 -0.9766 -1.7298
  900MOL0     H24198   6.573   3.206   7.395  1.0227 -3.5991  0.4027
  900MOL0     H24199   6.468   3.123   7.512 -1.4593 -0.5584 -3.4988
  900MOL0     H24200   6.404   3.249   7.419 -0.4416 -1.8774 -0.0719
  901MOL0     O24201   5.663   0.647   1.217 -0.1881 -0.0804 -0.1607
  901MOL0     C24202   5.777   0.648   1.268  0.3371 -0.2468  0.2378
  901MOL0     O24203   5.839   0.542   1.312  0.6403  0.8244 -0.1703
  901MOL0     C24204   5.786   0.416   1.322 -0.4113  0.6130  0.4157
  901MOL0     C24205   5.659   0.387   1.361  0.4350 -0.7508  0.2271
  901MOL0     C24206   5.623   0.261   1.398  0.1317  0.0640 -0.5527
  901MOL0     C24207   5.721   0.164   1.398  0.8694  0.6610 -0.0281
  901MOL0     O24208   5.688   0.036   1.424  0.3086 -0.1125  0.4022
  901MOL0     C24209   5.704  -0.055   1.319 -0.4062 -0.3910  0.0337
  901MOL0     C24210   5.584  -0.047   1.221  0.3219 -0.9560 -0.4100
  901MOL0     C24211   5.466  -0.144   1.259  0.0540 -0.6358  0.7660
  901MOL0     C24212   5.414  -0.123   1.394  0.4731  0.4070  0.6657
  901MOL0     C24213   5.309  -0.224   1.438  0.3696 -0.1526 -0.7233
  901MOL0     C24214   5.369  -0.362   1.465  0.0821  0.4692  0.5521
  901MOL0     C24215   5.463  -0.363   1.587 -0.1166 -0.0516 -0.6498
  901MOL0     C24216   5.534  -0.498   1.608 -0.1006 -0.7361  0.5549
  901MOL0     N24217   5.594  -0.484   1.740 -0.2897 -0.4539  0.2632
  901MOL0     C24218   5.545  -0.516   1.859  0.1828  0.3263  0.1983
  901MOL0     C24219   5.647  -0.520   1.951  0.0890 -0.0935  0.6830
  901MOL0     C24220   5.620  -0.538   2.093  0.2223 -0.3657 -0.8364
  901MOL0     C24221   5.595  -0.682   2.131  0.3983  0.4840 -1.0486
  901MOL0     C24222   5.719  -0.757   2.157 -1.3986 -0.7992 -0.5248
  901MOL0     C24223   5.698  -0.902   2.197  0.1265 -0.7355  0.2558
  901MOL0     O24224   5.817  -0.977   2.234  0.4380 -0.9926  0.7309
  901MOL0     C24225   5.917  -0.980   2.144 -0.0379  0.4053 -0.0779
  901MOL0     C24226   6.040  -0.932   2.190 -0.6082 -0.0335  0.1422
  901MOL0     C24227   6.153  -0.942   2.108  0.8991 -0.1223 -0.0777
  901MOL0     C24228   6.292  -0.917   2.165 -0.9292 -0.1340 -0.0437
  901MOL0     C24229   6.130  -0.994   1.971 -0.1301 -0.1033 -0.1714
  901MOL0     C24230   6.241  -1.016   1.876 -0.9002 -0.7753 -0.0760
  901MOL0     O24231   6.222  -0.993   1.739 -0.5776  0.0290 -0.3509
  901MOL0     C24232   6.335  -1.000   1.660 -0.3514 -0.4183  0.2200
  901MOL0     C24233   6.298  -1.044   1.530  0.0281 -0.0792  0.7721
  901MOL0     C24234   6.399  -1.050   1.431 -0.0839 -0.3521  0.2435
  901MOL0     C24235   6.532  -1.004   1.451  0.1004 -0.0050 -0.4613
  901MOL0     O24236   6.633  -1.008   1.359  0.2968  0.7796 -0.7101
  901MOL0     C24237   6.608  -1.032   1.217  0.0099  0.1100 -0.3140
  901MOL0     C24238   6.741  -1.025   1.129 -0.0133  0.3854 -0.1651
  901MOL0     C24239   6.799  -0.887   1.098  0.2860  0.3710 -0.5152
  901MOL0     C24240   6.917  -0.918   1.014 -0.3333  0.3269  0.0902
  901MOL0     C24241   6.998  -0.788   1.004  0.2857  0.5699 -0.7994
  901MOL0     C24242   7.075  -0.746   1.125 -0.4961  0.2869  0.1165
  901MOL0     C24243   7.176  -0.633   1.079  0.6727  0.0684  0.3194
  901MOL0     C24244   7.300  -0.696   1.015 -0.3908  0.1348  0.0305
  901MOL0    Cl24245   7.400  -0.578   0.944  0.1363 -0.4577 -0.1125
  901MOL0     C24246   6.567  -0.977   1.587 -0.0319 -0.3525  0.2388
  901MOL0     C24247   6.464  -0.962   1.690 -0.4117 -0.3913 -0.6272
  901MOL0     O24248   6.343  -1.058   1.928  0.0529  0.1472  0.6916
  901MOL0     C24249   6.009  -1.034   1.924  1.1671  0.5609 -0.8398
  901MOL0     C24250   5.895  -1.033   2.015  0.3395  0.1829  0.9932
  901MOL0     N24251   5.754  -0.470   1.890 -0.2937  0.1738  0.3699
  901MOL0     N24252   5.731  -0.473   1.761  0.5146 -0.3955  0.3318
  901MOL0     C24253   5.858   0.190   1.363  1.1224  1.1282  0.0904
  901MOL0     C24254   5.889   0.318   1.332 -0.2879  1.0899 -0.3513
  901MOL0     C24255   5.854   0.778   1.278 -0.4128 -0.0718  0.4232
  901MOL0     C24256   5.909   0.793   1.408  0.1083  0.0471  0.2907
  901MOL0     C24257   5.976   0.911   1.432  0.0550  0.6736  0.0015
  901MOL0     C24258   5.983   1.019   1.343  0.0102  0.3944  1.2211
  901MOL0     O24259   6.045   1.134   1.372 -0.7180 -0.2982  0.2915
  901MOL0     C24260   5.994   1.210   1.489  0.7054  0.5265  1.3026
  901MOL0     C24261   5.934   1.350   1.456  0.1162  0.1782  0.5850
  901MOL0     C24262   5.789   1.334   1.418  0.5961 -1.0071 -0.1460
  901MOL0     C24263   5.719   1.466   1.398  0.6226 -0.1322 -0.1729
  901MOL0     C24264   5.721   1.549   1.521 -0.4900  0.9317  0.5465
  901MOL0     C24265   5.725   1.615   1.627 -0.7304  0.5947  0.4011
  901MOL0     C24266   5.938   1.004   1.214 -0.1444 -1.4233  0.0776
  901MOL0     C24267   5.876   0.878   1.174  0.5365  0.5544 -1.3495
  901MOL0     C24268   5.826   0.869   1.037 -0.6690  0.0669 -0.2768
  901MOL0     H24269   5.579   0.460   1.357  1.7170  0.6346 -1.4926
  901MOL0     H24270   5.522   0.235   1.427  0.3906 -2.0676 -1.3899
  901MOL0     H24271   5.718  -0.156   1.359  5.0562  1.0999  2.9454
  901MOL0     H24272   5.785  -0.028   1.251 -0.9873 -1.9571 -1.3510
  901MOL0     H24273   5.551   0.057   1.216  1.2015 -0.5409  1.5174
  901MOL0     H24274   5.618  -0.077   1.121  3.2669  1.1568 -0.2050
  901MOL0     H24275   5.382  -0.128   1.191 -0.9123 -2.2075  1.5469
  901MOL0     H24276   5.500  -0.245   1.237 -0.3731 -0.9759  1.6262
  901MOL0     H24277   5.500  -0.119   1.462  1.2191 -2.1721  0.0069
  901MOL0     H24278   5.361  -0.028   1.400 -4.7450 -2.0099 -0.7726
  901MOL0     H24279   5.234  -0.249   1.363  0.4591  0.5340 -1.0484
  901MOL0     H24280   5.248  -0.195   1.524  0.7911 -1.0378 -0.1058
  901MOL0     H24281   5.284  -0.429   1.480 -1.5376  2.4709  0.8936
  901MOL0     H24282   5.425  -0.392   1.376  1.4163  1.4824  1.0179
  901MOL0     H24283   5.399  -0.350   1.676 -1.4844 -5.2913 -0.5580
  901MOL0     H24284   5.544  -0.289   1.591 -0.3423  0.1397  1.5084
  901MOL0     H24285   5.458  -0.576   1.610  1.4337 -2.2917  2.2001
  901MOL0     H24286   5.610  -0.513   1.531 -0.5315  1.5718 -0.3912
  901MOL0     H24287   5.441  -0.540   1.883 -1.5919  4.3685 -2.3221
  901MOL0     H24288   5.549  -0.471   2.142  3.3266  0.6764  2.6187
  901MOL0     H24289   5.710  -0.504   2.144  0.1997 -0.9894 -0.3819
  901MOL0     H24290   5.538  -0.681   2.224  1.3737  0.5599 -0.4295
  901MOL0     H24291   5.532  -0.735   2.058 -0.1048 -3.0158  1.6599
  901MOL0     H24292   5.773  -0.760   2.062  2.1375 -0.5180  1.3140
  901MOL0     H24293   5.777  -0.693   2.225 -2.2031 -0.4755 -0.1370
  901MOL0     H24294   5.643  -0.899   2.292  2.1132 -0.6929  1.4777
  901MOL0     H24295   5.642  -0.955   2.120 -2.9283 -0.9375  2.4285
  901MOL0     H24296   6.046  -0.898   2.293  0.1264 -3.2817  1.2902
  901MOL0     H24297   6.352  -0.844   2.109  1.8093 -1.0454  1.4886
  901MOL0     H24298   6.354  -1.007   2.176  0.1865  0.8195  2.1265
  901MOL0     H24299   6.276  -0.885   2.268  0.2596  1.4979 -0.3075
  901MOL0     H24300   6.198  -1.079   1.506  0.0368  0.4440 -0.0391
  901MOL0     H24301   6.374  -1.094   1.335  1.9908 -4.0753  1.2423
  901MOL0     H24302   6.550  -1.124   1.209  0.4319 -0.0296 -2.1265
  901MOL0     H24303   6.556  -0.939   1.193  1.4917  1.1367  0.2559
  901MOL0     H24304   6.820  -1.087   1.173  1.3045  0.8283 -1.8258
  901MOL0     H24305   6.716  -1.073   1.034 -1.7857 -0.6662  0.7789
  901MOL0     H24306   6.826  -0.835   1.190 -0.1309  4.0371 -2.2702
  901MOL0     H24307   6.725  -0.825   1.047 -3.2584 -3.0690 -0.0318
  901MOL0     H24308   6.892  -0.957   0.915 -1.8902  0.1664  0.5334
  901MOL0     H24309   6.978  -0.992   1.067  0.1806  0.9118  0.3298
  901MOL0     H24310   7.064  -0.800   0.918 -1.1625 -3.3023 -1.5519
  901MOL0     H24311   6.929  -0.705   0.986 -1.4329 -0.4333  0.8361
  901MOL0     H24312   7.124  -0.826   1.181  0.4363  0.6155 -0.2074
  901MOL0     H24313   7.005  -0.700   1.196  0.7969 -1.7244  2.8795
  901MOL0     H24314   7.198  -0.574   1.168 -0.6965  1.8291 -0.4418
  901MOL0     H24315   7.129  -0.554   1.021  2.4638  1.3457  0.5258
  901MOL0     H24316   7.267  -0.780   0.954  0.0862  0.8370 -1.2334
  901MOL0     H24317   7.361  -0.744   1.093 -1.2948 -1.6258 -0.2979
  901MOL0     H24318   6.669  -0.959   1.619 -0.3968  1.3483  0.5427
  901MOL0     H24319   6.501  -0.921   1.783 -1.1653 -0.4730 -0.2783
  901MOL0     H24320   6.005  -1.071   1.822  5.1499  1.2682 -1.4581
  901MOL0     H24321   5.803  -1.084   1.987  1.1725  0.0882 -1.9166
  901MOL0     H24322   5.937   0.116   1.356 -1.9950 -2.3952 -0.9351
  901MOL0     H24323   5.995   0.326   1.307  0.3689 -4.8342 -0.9804
  901MOL0     H24324   5.908   0.722   1.490 -0.2661  2.7114  2.7244
  901MOL0     H24325   6.007   0.933   1.534 -1.2833 -0.8888  0.7806
  901MOL0     H24326   5.912   1.158   1.538 -1.1655  1.5726 -0.5474
  901MOL0     H24327   6.078   1.215   1.558  2.3619 -0.2860 -0.5621
  901MOL0     H24328   5.989   1.390   1.370 -0.0213 -1.4694 -0.3019
  901MOL0     H24329   5.949   1.421   1.538 -0.7048 -0.2666  1.1324
  901MOL0     H24330   5.788   1.287   1.319 -1.2627  2.0914 -1.7802
  901MOL0     H24331   5.738   1.273   1.493  0.1142 -1.7232 -1.0376
  901MOL0     H24332   5.619   1.461   1.355  1.1831  0.7869 -1.6449
  901MOL0     H24333   5.787   1.523   1.333  1.6868 -2.3410 -1.1076
  901MOL0     H24334   5.739   1.658   1.723  1.8712 -0.4250  0.5571
  901MOL0     H24335   5.939   1.094   1.153  2.1851 -1.6592 -0.3531
  901MOL0     H24336   5.766   0.779   1.025 -0.9833 -0.0294  1.6516
  901MOL0     H24337   5.765   0.956   1.011  1.2110  0.8769 -2.3032
  901MOL0     H24338   5.909   0.859   0.967  0.9238 -1.8184  1.7379
  902MOL0     O24339   8.215   3.109   2.654 -0.6301  0.3895  0.1898
  902MOL0     C24340   8.211   3.228   2.699  0.5164  0.4650 -0.5978
  902MOL0     O24341   8.090   3.297   2.713 -0.0039 -0.2309  0.5614
  902MOL0     C24342   7.963   3.268   2.663  0.7221  0.2561 -0.4462
  902MOL0     C24343   7.929   3.145   2.596 -0.9222 -0.9557 -0.3438
  902MOL0     C24344   7.797   3.115   2.562 -0.0304 -1.2428 -0.3012
  902MOL0     C24345   7.696   3.209   2.572  0.0922 -1.0218  0.4790
  902MOL0     O24346   7.570   3.195   2.531  0.0002  0.1158  0.0449
  902MOL0     C24347   7.521   3.058   2.521 -0.2536  0.1795 -0.8790
  902MOL0     C24348   7.378   3.052   2.464 -0.4306  0.2652  0.8384
  902MOL0     C24349   7.390   3.041   2.309  0.0171 -0.2855 -0.5410
  902MOL0     C24350   7.250   3.053   2.249  0.0254  0.6156  0.3295
  902MOL0     C24351   7.253   3.019   2.095 -0.7807  0.7127  0.9042
  902MOL0     C24352   7.128   3.052   2.029 -0.1590  0.3835 -0.0191
  902MOL0     C24353   7.128   2.978   1.888  0.0323  0.5946  0.6768
  902MOL0     C24354   7.022   3.042   1.794 -0.4507  0.4280  0.0977
  902MOL0     N24355   6.888   2.992   1.808 -0.0093  0.5533  1.0004
  902MOL0     C24356   6.811   3.011   1.924 -0.4119  0.2196  0.2525
  902MOL0     C24357   6.693   2.946   1.902  0.9143 -0.4953  0.2796
  902MOL0     C24358   6.590   2.936   2.010  0.2530 -0.2501 -0.3557
  902MOL0     C24359   6.519   2.803   2.003  0.1158  0.7354  0.8692
  902MOL0     C24360   6.583   2.667   2.040  0.7317 -0.2488 -0.5634
  902MOL0     C24361   6.715   2.638   1.976 -0.4200 -0.0869  0.5787
  902MOL0     O24362   6.768   2.517   2.022 -0.3712  0.3469 -0.2626
  902MOL0     C24363   6.903   2.501   1.988 -0.5451 -0.6836 -0.2341
  902MOL0     C24364   6.980   2.575   1.897  0.1191 -1.1997 -0.3645
  902MOL0     C24365   7.118   2.556   1.876  0.3233 -0.3671 -0.6381
  902MOL0     C24366   7.194   2.654   1.782  0.8395  0.8163 -0.0090
  902MOL0     C24367   7.182   2.447   1.949 -0.1290  0.4625  0.2986
  902MOL0     C24368   7.333   2.428   1.948  0.1079  0.0727  0.2897
  902MOL0     O24369   7.367   2.304   1.997 -0.1927  0.3419 -0.0689
  902MOL0     C24370   7.501   2.290   2.020 -0.2506 -0.3445  0.5819
  902MOL0     C24371   7.568   2.351   2.127  0.4869 -0.7072 -0.1969
  902MOL0     C24372   7.704   2.328   2.140  0.0851  0.3776 -0.6804
  902MOL0     C24373   7.784   2.269   2.041  0.5460  0.1106 -0.5308
  902MOL0     O24374   7.923   2.278   2.055 -0.2209 -0.4195 -0.4808
  902MOL0     C24375   8.005   2.304   1.933 -0.2116  0.5863  0.3219
  902MOL0     C24376   8.127   2.385   1.972 -0.1573 -1.4641  0.3180
  902MOL0     C24377   8.241   2.312   2.029 -0.0234  0.5453 -0.5134
  902MOL0     C24378   8.350   2.396   2.095  0.7254  0.2262 -0.3678
  902MOL0     C24379   8.468   2.321   2.141  0.1321 -0.3149  0.6848
  902MOL0     C24380   8.599   2.403   2.165 -0.0379  0.4009 -0.1172
  902MOL0     C24381   8.722   2.322   2.196 -0.4587  0.0862  0.3158
  902MOL0     C24382   8.770   2.329   2.338 -0.3340  0.1237  0.4113
  902MOL0    Cl24383   8.910   2.214   2.359 -0.5132  0.0146  0.2071
  902MOL0     C24384   7.716   2.208   1.934 -0.0311  0.8539  0.3626
  902MOL0     C24385   7.576   2.205   1.929  0.4684  0.5737 -0.3831
  902MOL0     O24386   7.414   2.523   1.922  0.0470  0.2112 -0.7640
  902MOL0     C24387   7.101   2.363   2.032  0.7583 -0.5190 -0.2179
  902MOL0     C24388   6.965   2.390   2.054 -0.2531  0.4526  0.6308
  902MOL0     N24389   6.700   2.892   1.769  0.6413  0.5706 -0.4084
  902MOL0     N24390   6.820   2.914   1.722 -0.2313 -0.1943  0.0666
  902MOL0     C24391   7.735   3.326   2.630 -0.6032  0.4883  0.2670
  902MOL0     C24392   7.859   3.362   2.676  0.4658  0.7841 -0.2395
  902MOL0     C24393   8.342   3.293   2.726  0.4796  0.3157  0.1757
  902MOL0     C24394   8.355   3.435   2.733  0.4812  0.6309 -0.2267
  902MOL0     C24395   8.471   3.504   2.760 -0.3232 -0.4672  0.3836
  902MOL0     C24396   8.582   3.432   2.798  0.0228 -0.0618 -0.6904
  902MOL0     O24397   8.711   3.477   2.820  0.1123 -0.0467  0.3996
  902MOL0     C24398   8.754   3.594   2.755 -0.7534 -0.3535  0.1166
  902MOL0     C24399   8.914   3.593   2.754 -0.0336  0.0928  0.4810
  902MOL0     C24400   8.990   3.635   2.880  0.0242  0.7695 -0.2229
  902MOL0     C24401   8.950   3.552   3.006  0.2179  0.0271  0.2196
  902MOL0     C24402   8.997   3.616   3.129 -0.3023  0.5867 -0.8038
  902MOL0     C24403   9.037   3.667   3.237 -0.8251  1.1317  1.2840
  902MOL0     C24404   8.574   3.293   2.783  0.7355 -0.5378 -0.4623
  902MOL0     C24405   8.464   3.217   2.756  1.1647 -0.4533  0.5328
  902MOL0     C24406   8.469   3.062   2.757  0.2090  0.4092 -0.1448
  902MOL0     H24407   8.003   3.068   2.578 -0.9101 -0.7181 -1.3772
  902MOL0     H24408   7.785   3.020   2.512  1.2336 -1.4559 -0.2291
  902MOL0     H24409   7.522   3.016   2.622 -1.5751  1.5585 -0.2587
  902MOL0     H24410   7.585   2.993   2.461  0.9295 -0.3240  0.8414
  902MOL0     H24411   7.332   2.959   2.500  0.0810 -0.3782 -0.1141
  902MOL0     H24412   7.320   3.137   2.501 -2.5315 -0.6973 -0.0711
  902MOL0     H24413   7.448   3.120   2.262 -0.0827  0.8342  1.1244
  902MOL0     H24414   7.427   2.938   2.300  1.3086  0.0417  0.7092
  902MOL0     H24415   7.181   2.993   2.308 -0.8894  1.9911  0.7052
  902MOL0     H24416   7.220   3.157   2.263  0.8647  1.1113 -1.3156
  902MOL0     H24417   7.280   2.915   2.075 -2.0768  0.8348 -1.8534
  902MOL0     H24418   7.336   3.073   2.050 -1.0853  1.8551  1.6666
  902MOL0     H24419   7.048   3.010   2.091 -0.6822 -1.2818 -1.7275
  902MOL0     H24420   7.123   3.159   2.007 -1.5365  0.2928 -0.2018
  902MOL0     H24421   7.111   2.873   1.911  0.2216  0.7136  1.3933
  902MOL0     H24422   7.222   2.994   1.833 -0.2254  2.0750  0.6291
  902MOL0     H24423   7.020   3.151   1.797  1.1923  0.6943 -3.4563
  902MOL0     H24424   7.057   3.031   1.691  1.9087 -0.0020  0.8641
  902MOL0     H24425   6.833   3.075   2.009 -0.5284 -0.0258  0.4692
  902MOL0     H24426   6.519   3.016   1.988  0.5476  0.2012  0.3054
  902MOL0     H24427   6.633   2.952   2.110 -1.0263  0.1072  0.1670
  902MOL0     H24428   6.429   2.810   2.066 -0.2237  2.4626  0.2298
  902MOL0     H24429   6.478   2.786   1.903 -0.6852 -2.4976  1.6184
  902MOL0     H24430   6.604   2.672   2.148 -1.5489  0.0104 -0.0849
  902MOL0     H24431   6.522   2.577   2.031  3.1902 -2.6668  3.6161
  902MOL0     H24432   6.708   2.644   1.867 -1.3518 -0.4424  0.6087
  902MOL0     H24433   6.784   2.717   2.005 -1.9103  1.2215  0.7338
  902MOL0     H24434   6.950   2.665   1.844  1.8140 -2.0026 -2.8459
  902MOL0     H24435   7.254   2.727   1.838  1.5222  1.6125 -1.6929
  902MOL0     H24436   7.121   2.704   1.718  1.5914  0.6778 -0.9988
  902MOL0     H24437   7.263   2.594   1.722 -2.1326 -1.4122 -1.4536
  902MOL0     H24438   7.519   2.422   2.192  0.4844 -0.3050 -0.6313
  902MOL0     H24439   7.759   2.374   2.222  1.4643 -0.6711 -0.9857
  902MOL0     H24440   8.032   2.211   1.882  0.5874  0.5156  0.8500
  902MOL0     H24441   7.946   2.363   1.862 -0.7612 -0.8017 -0.4057
  902MOL0     H24442   8.182   2.417   1.882  1.2860 -0.3952  1.5191
  902MOL0     H24443   8.097   2.472   2.032  1.6864 -1.1068  0.8045
  902MOL0     H24444   8.281   2.237   1.959 -2.5356 -3.2807  1.7921
  902MOL0     H24445   8.199   2.248   2.107  3.0561 -1.2923 -0.1864
  902MOL0     H24446   8.305   2.462   2.169  0.3734 -0.9171  0.4605
  902MOL0     H24447   8.394   2.458   2.016 -4.3515  2.1695 -2.1200
  902MOL0     H24448   8.442   2.273   2.236 -0.7303  0.9039  1.1041
  902MOL0     H24449   8.489   2.237   2.075  2.1293  1.9367 -1.7812
  902MOL0     H24450   8.577   2.472   2.247 -2.0277  0.9581 -1.0410
  902MOL0     H24451   8.621   2.457   2.072 -0.9757  0.1875 -0.4756
  902MOL0     H24452   8.799   2.364   2.131  0.1569  1.7840  2.0653
  902MOL0     H24453   8.694   2.221   2.166  0.0236 -0.9303  3.0193
  902MOL0     H24454   8.697   2.290   2.410  2.5637 -3.7621  1.5947
  902MOL0     H24455   8.787   2.434   2.365  1.0982  0.5212 -1.7584
  902MOL0     H24456   7.779   2.169   1.855  0.7554  3.4959 -0.4002
  902MOL0     H24457   7.526   2.158   1.845  0.0427 -0.3059  0.3477
  902MOL0     H24458   7.146   2.282   2.088  0.6289 -1.6707 -1.7051
  902MOL0     H24459   6.907   2.329   2.122 -1.4487  1.7622  0.8281
  902MOL0     H24460   7.659   3.402   2.647 -1.2382 -0.0893  0.0264
  902MOL0     H24461   7.871   3.463   2.715  1.8321  0.8133 -0.6870
  902MOL0     H24462   8.262   3.488   2.718  0.1128 -0.5365 -2.4856
  902MOL0     H24463   8.489   3.609   2.743 -1.0134 -0.8242 -3.5833
  902MOL0     H24464   8.713   3.602   2.654 -1.2544  0.3330  0.3686
  902MOL0     H24465   8.724   3.688   2.802  1.4982  0.2205  0.5314
  902MOL0     H24466   8.959   3.645   2.669  1.5404 -0.2448  1.0698
  902MOL0     H24467   8.951   3.490   2.743  1.4584  0.3562  2.5036
  902MOL0     H24468   9.099   3.628   2.869  0.4316 -2.2409  3.4149
  902MOL0     H24469   8.950   3.735   2.897  0.1518  0.5157  1.7644
  902MOL0     H24470   8.982   3.447   3.004 -0.2869 -0.1379 -1.6763
  902MOL0     H24471   8.841   3.549   3.015  0.1137  3.6948  1.9778
  902MOL0     H24472   9.075   3.711   3.327  0.2446  2.4173  0.2360
  902MOL0     H24473   8.651   3.226   2.821  0.0176 -0.5908  0.9756
  902MOL0     H24474   8.459   3.033   2.652 -0.4329 -0.4404  0.1392
  902MOL0     H24475   8.568   3.029   2.792 -0.0609 -0.0680  0.1726
  902MOL0     H24476   8.387   3.026   2.820 -0.9569  1.7054 -0.8678
  903MOL0     O24477   8.783   7.671   4.252  0.2262 -0.1337 -0.0048
  903MOL0     C24478   8.674   7.730   4.229  0.2960  0.2662  0.3869
  903MOL0     O24479   8.662   7.833   4.146 -1.0288  0.3661 -0.2237
  903MOL0     C24480   8.779   7.876   4.090  0.4065  0.5258  0.3995
  903MOL0     C24481   8.843   7.809   3.984 -0.1949  0.1829  0.4674
  903MOL0     C24482   8.973   7.837   3.947  0.0327 -0.3536  0.0824
  903MOL0     C24483   9.038   7.947   4.013 -0.1535 -0.1939 -0.2275
  903MOL0     O24484   9.168   7.984   3.978 -0.5110 -0.1996 -0.1404
  903MOL0     C24485   9.274   7.941   4.067  0.0946 -0.4075  0.4184
  903MOL0     C24486   9.304   8.049   4.186  0.1061  0.3131  0.8612
  903MOL0     C24487   9.440   7.992   4.251 -0.0928 -0.3220  0.1863
  903MOL0     C24488   9.470   8.086   4.375 -0.5549  0.3549 -0.2873
  903MOL0     C24489   9.603   8.063   4.441  0.1040  0.2522 -0.1883
  903MOL0     C24490   9.604   7.936   4.527 -0.6768  0.7450 -0.8155
  903MOL0     C24491   9.693   7.943   4.658 -0.0936 -0.5508  0.5830
  903MOL0     C24492   9.848   7.963   4.654 -0.0353 -0.1281  0.8409
  903MOL0     N24493   9.929   7.846   4.612 -0.6640  0.5247  0.3933
  903MOL0     C24494  10.011   7.769   4.696 -0.3499  0.7285 -0.4493
  903MOL0     C24495  10.052   7.670   4.610  0.6140 -0.2858 -0.7828
  903MOL0     C24496  10.144   7.563   4.648  0.3373 -0.2366 -0.0602
  903MOL0     C24497  10.265   7.567   4.566 -0.4257  0.2661 -0.2106
  903MOL0     C24498  10.375   7.477   4.618  0.2292 -1.0588 -1.1856
  903MOL0     C24499  10.500   7.495   4.542 -0.1171  0.4390 -1.0632
  903MOL0     O24500  10.551   7.630   4.569  0.1710 -0.5675 -0.6867
  903MOL0     C24501  10.685   7.660   4.550  0.1168  0.3730  0.2006
  903MOL0     C24502  10.723   7.798   4.577  1.5475 -0.3990  0.1748
  903MOL0     C24503  10.850   7.849   4.559 -0.6527  0.0222  0.3221
  903MOL0     C24504  10.863   8.003   4.573 -0.9108  0.2532 -0.0596
  903MOL0     C24505  10.965   7.764   4.534  1.0093 -0.7961  0.2699
  903MOL0     C24506  11.111   7.803   4.543 -0.0258 -0.3365 -0.5376
  903MOL0     O24507  11.150   7.930   4.576 -0.4069  0.3203  0.2990
  903MOL0     C24508  11.286   7.949   4.618 -0.3038 -0.5991 -0.6897
  903MOL0     C24509  11.356   8.065   4.572  0.6152 -0.1958 -0.6984
  903MOL0     C24510  11.482   8.104   4.632  0.0871  0.5103 -0.4682
  903MOL0     C24511  11.539   8.026   4.724  0.1554  0.8368  0.1813
  903MOL0     O24512  11.670   8.063   4.756 -0.2985  0.1861 -0.5349
  903MOL0     C24513  11.728   8.004   4.874 -0.1695  0.8550  0.4502
  903MOL0     C24514  11.667   8.057   4.996  0.2436  0.0641 -0.3048
  903MOL0     C24515  11.679   8.210   5.014 -0.0097 -0.4474 -0.3696
  903MOL0     C24516  11.650   8.265   5.156 -0.4636  0.4340 -0.6131
  903MOL0     C24517  11.744   8.228   5.275 -0.1770 -0.1915 -0.3602
  903MOL0     C24518  11.687   8.279   5.408 -0.0297  0.4305 -0.5747
  903MOL0     C24519  11.763   8.224   5.530 -0.2595 -0.5644 -0.4718
  903MOL0     C24520  11.917   8.267   5.520  0.5251  0.0289  0.1652
  903MOL0    Cl24521  12.010   8.285   5.677  0.1976  0.1824  0.2801
  903MOL0     C24522  11.462   7.918   4.776  0.6946  0.2546  0.0921
  903MOL0     C24523  11.339   7.883   4.722  0.2265  0.0720  0.2607
  903MOL0     O24524  11.184   7.706   4.537 -0.3961 -0.4525 -0.3242
  903MOL0     C24525  10.928   7.628   4.508  0.5828 -0.1348  0.0534
  903MOL0     C24526  10.792   7.579   4.522  0.2033  0.1452  0.2999
  903MOL0     N24527   9.991   7.695   4.482 -0.2653  1.1675  0.4929
  903MOL0     N24528   9.921   7.793   4.490 -0.9428 -0.8933 -0.2701
  903MOL0     C24529   8.972   8.020   4.115  0.6882  0.7148  0.6230
  903MOL0     C24530   8.842   7.988   4.152 -0.5986 -0.0001  0.0554
  903MOL0     C24531   8.556   7.701   4.315  0.7736  0.0372 -0.5054
  903MOL0     C24532   8.439   7.679   4.242  0.5305  0.1567 -0.0614
  903MOL0     C24533   8.322   7.653   4.310  0.6698  0.3003 -0.5325
  903MOL0     C24534   8.314   7.662   4.447  0.2718 -0.2955 -0.3428
  903MOL0     O24535   8.202   7.628   4.522  0.1769 -0.3413  0.1388
  903MOL0     C24536   8.082   7.580   4.463  0.7779  0.2981  0.8068
  903MOL0     C24537   7.999   7.702   4.416 -1.0518  0.0326 -0.2670
  903MOL0     C24538   7.931   7.767   4.539 -0.9731  0.0034  0.1031
  903MOL0     C24539   7.774   7.756   4.535 -0.6901 -0.8733  0.2174
  903MOL0     C24540   7.734   7.625   4.582  0.4761  0.2952 -0.0622
  903MOL0     C24541   7.711   7.515   4.635 -0.2478 -0.4309  0.2693
  903MOL0     C24542   8.427   7.678   4.524  0.0443  0.0457 -0.5226
  903MOL0     C24543   8.543   7.696   4.458 -0.0925 -0.6597 -0.3618
  903MOL0     C24544   8.668   7.721   4.539  0.0733 -0.1569 -0.2593
  903MOL0     H24545   8.787   7.733   3.931 -0.0222  2.2712 -3.0558
  903MOL0     H24546   9.020   7.781   3.866  1.8794 -1.0709  1.5536
  903MOL0     H24547   9.367   7.926   4.011  0.2213  1.6688 -0.0346
  903MOL0     H24548   9.241   7.856   4.128 -0.4243  0.9390  2.1113
  903MOL0     H24549   9.333   8.144   4.141 -1.4652 -0.0553 -1.0844
  903MOL0     H24550   9.216   8.063   4.249 -0.4684 -1.7542  0.5966
  903MOL0     H24551   9.413   7.892   4.287 -4.2416  0.3507 -0.6032
  903MOL0     H24552   9.524   7.993   4.180  0.2589  1.6382  0.5674
  903MOL0     H24553   9.476   8.190   4.344 -3.8254  0.8738  0.5019
  903MOL0     H24554   9.386   8.073   4.444 -1.6958  0.5486 -1.6023
  903MOL0     H24555   9.605   8.157   4.497 -2.4663 -0.0871  0.6002
  903MOL0     H24556   9.687   8.065   4.371  0.7419 -0.2332  0.5426
  903MOL0     H24557   9.502   7.913   4.560 -0.5379  0.3997 -0.6143
  903MOL0     H24558   9.636   7.852   4.464  0.5526 -0.2500  1.0127
  903MOL0     H24559   9.667   7.850   4.709  0.0944 -0.7263  0.3669
  903MOL0     H24560   9.661   8.029   4.717 -1.2738  0.5848 -1.5746
  903MOL0     H24561   9.882   8.043   4.587  1.3745 -1.9356 -0.7150
  903MOL0     H24562   9.883   7.983   4.755 -0.3711 -2.2921  1.4207
  903MOL0     H24563  10.053   7.783   4.795  0.4406  0.3040 -0.7204
  903MOL0     H24564  10.098   7.465   4.637 -1.5855  0.4809  1.0580
  903MOL0     H24565  10.175   7.569   4.753  0.1434 -1.0107  0.0434
  903MOL0     H24566  10.240   7.512   4.475 -0.6620  0.2397 -0.1317
  903MOL0     H24567  10.301   7.669   4.546  1.1832 -0.6275 -2.1633
  903MOL0     H24568  10.397   7.497   4.723 -0.9724  0.9765 -1.2494
  903MOL0     H24569  10.341   7.373   4.619 -1.0506 -0.6740 -1.5519
  903MOL0     H24570  10.568   7.414   4.572 -0.6143 -0.4631 -2.2832
  903MOL0     H24571  10.481   7.483   4.435 -1.9234  1.0397 -0.8396
  903MOL0     H24572  10.637   7.858   4.605  0.2564 -1.4528 -1.3863
  903MOL0     H24573  10.916   8.032   4.664  1.0859  2.0825 -1.7037
  903MOL0     H24574  10.770   8.059   4.583  0.1596  1.6772  3.6821
  903MOL0     H24575  10.924   8.033   4.487  2.8071 -3.7008  0.8505
  903MOL0     H24576  11.322   8.123   4.487 -0.4968 -2.4135 -1.8688
  903MOL0     H24577  11.529   8.196   4.596 -1.0220  1.6899  0.9796
  903MOL0     H24578  11.731   7.894   4.878  0.9058  0.8438 -0.3956
  903MOL0     H24579  11.836   8.022   4.871  0.1852 -1.1289 -0.6182
  903MOL0     H24580  11.560   8.035   4.992  0.0122  1.0050  0.3894
  903MOL0     H24581  11.709   7.992   5.074 -0.2248 -1.9512 -1.6525
  903MOL0     H24582  11.617   8.250   4.933 -0.2277  2.8873  1.2737
  903MOL0     H24583  11.779   8.241   4.981  1.6297 -0.7384  3.7680
  903MOL0     H24584  11.549   8.232   5.179 -0.7797  2.0678  0.5088
  903MOL0     H24585  11.642   8.374   5.159 -2.6571  0.3069  0.3753
  903MOL0     H24586  11.750   8.119   5.277 -0.5843 -0.2491 -1.5534
  903MOL0     H24587  11.845   8.265   5.255 -0.6844  0.7289 -1.3241
  903MOL0     H24588  11.585   8.248   5.433  1.5781 -2.5526  3.3883
  903MOL0     H24589  11.702   8.387   5.398 -2.1001  0.8708  0.4150
  903MOL0     H24590  11.746   8.118   5.548 -1.6627  0.0131  2.2239
  903MOL0     H24591  11.735   8.282   5.618  2.0873 -1.9500  1.2940
  903MOL0     H24592  11.908   8.359   5.461 -0.7497 -1.5953 -2.3512
  903MOL0     H24593  11.972   8.193   5.461 -0.1099 -1.0705  0.9135
  903MOL0     H24594  11.507   7.854   4.851 -1.6460 -0.2415  1.1648
  903MOL0     H24595  11.291   7.797   4.767  0.4415 -0.8928 -1.2588
  903MOL0     H24596  11.009   7.555   4.498  2.6151  2.1392 -1.1357
  903MOL0     H24597  10.790   7.474   4.496  1.0212  0.6524 -2.1236
  903MOL0     H24598   9.032   8.096   4.164  1.5699  0.4388 -0.0005
  903MOL0     H24599   8.799   8.045   4.234  0.4015 -1.9427  2.0207
  903MOL0     H24600   8.436   7.678   4.134 -0.0790 -1.1227 -0.0591
  903MOL0     H24601   8.228   7.634   4.260  1.0510  0.9685 -1.5333
  903MOL0     H24602   8.097   7.510   4.380  0.7401  0.9411  0.2510
  903MOL0     H24603   8.029   7.511   4.530 -2.2138  0.7264 -0.9492
  903MOL0     H24604   7.920   7.666   4.349 -2.7483  0.9036  1.1688
  903MOL0     H24605   8.068   7.769   4.366 -1.7762  0.8036 -0.2489
  903MOL0     H24606   7.967   7.746   4.640  0.8695  0.0606 -0.4982
  903MOL0     H24607   7.953   7.874   4.526 -2.9323  0.4049 -0.2562
  903MOL0     H24608   7.736   7.771   4.434  0.5218 -0.8439 -0.2421
  903MOL0     H24609   7.741   7.839   4.598 -1.2055 -1.9107  1.3906
  903MOL0     H24610   7.679   7.431   4.693  0.6948 -0.3252  0.9800
  903MOL0     H24611   8.422   7.674   4.632  0.2230  1.2742 -0.4511
  903MOL0     H24612   8.647   7.783   4.627 -2.1131 -2.4201  0.9568
  903MOL0     H24613   8.697   7.626   4.584  3.1321  0.0967 -1.4139
  903MOL0     H24614   8.759   7.746   4.483  1.5813 -2.5487  0.9408
  904MOL0     O24615   1.741   6.321   2.965 -0.2702  0.2411  0.9697
  904MOL0     C24616   1.696   6.205   2.985  0.6855 -0.1294  0.1022
  904MOL0     O24617   1.753   6.094   2.927 -0.8201 -0.4801  0.0818
  904MOL0     C24618   1.876   6.082   2.883 -0.6507 -0.2826  0.5292
  904MOL0     C24619   1.978   6.178   2.906 -0.9735 -0.5202 -0.3799
  904MOL0     C24620   2.110   6.156   2.860  0.0826  0.3886 -0.6019
  904MOL0     C24621   2.143   6.040   2.784  1.2358  0.4463 -0.3071
  904MOL0     O24622   2.271   6.027   2.745 -0.6382 -0.1619 -0.1652
  904MOL0     C24623   2.298   5.929   2.640 -0.9298 -0.3024  0.1990
  904MOL0     C24624   2.358   5.805   2.701  0.5940  0.3434  0.3432
  904MOL0     C24625   2.386   5.692   2.612  0.3799 -1.0198 -0.7477
  904MOL0     C24626   2.538   5.702   2.567 -0.0589  0.0643  0.3906
  904MOL0     C24627   2.595   5.581   2.481  0.6521 -0.8009  0.0904
  904MOL0     C24628   2.728   5.593   2.410  0.1195  0.3294  0.2574
  904MOL0     C24629   2.855   5.595   2.491 -0.8206  0.6045  0.1301
  904MOL0     C24630   2.983   5.625   2.411 -0.1076 -0.2454  0.4741
  904MOL0     N24631   3.096   5.569   2.476 -0.0172 -0.6236  0.6729
  904MOL0     C24632   3.144   5.580   2.604 -0.0376 -0.1826  1.0717
  904MOL0     C24633   3.220   5.475   2.615  0.0274 -0.4767  0.0424
  904MOL0     C24634   3.309   5.441   2.726 -0.1396 -0.1146  0.3891
  904MOL0     C24635   3.235   5.367   2.839 -0.7463 -0.3813 -0.4409
  904MOL0     C24636   3.287   5.408   2.970 -0.7141 -0.1018  0.1552
  904MOL0     C24637   3.262   5.301   3.075  0.0760 -0.1295 -0.1955
  904MOL0     O24638   3.330   5.346   3.198 -0.1546  0.3204  0.4965
  904MOL0     C24639   3.430   5.283   3.244 -0.5567  0.8692 -0.5902
  904MOL0     C24640   3.547   5.357   3.280 -0.5157 -0.7440  0.0223
  904MOL0     C24641   3.668   5.290   3.330  0.3959 -0.8407  0.5919
  904MOL0     C24642   3.792   5.377   3.322 -0.5822 -0.7117  0.4977
  904MOL0     C24643   3.661   5.149   3.361  0.8553  0.2567 -0.5176
  904MOL0     C24644   3.768   5.060   3.420  0.2293  0.0450  0.2027
  904MOL0     O24645   3.896   5.105   3.392 -0.4183  0.8799  0.8537
  904MOL0     C24646   3.979   5.008   3.438  0.4708 -0.3171  0.0489
  904MOL0     C24647   4.000   4.880   3.377 -0.1142 -1.1788 -0.1232
  904MOL0     C24648   4.112   4.804   3.414 -0.2932  0.8941  0.6110
  904MOL0     C24649   4.201   4.847   3.517  0.2557  0.0613 -0.5354
  904MOL0     O24650   4.319   4.791   3.559 -0.8622  0.5916  0.1972
  904MOL0     C24651   4.333   4.645   3.539  0.9064 -0.4839 -0.0727
  904MOL0     C24652   4.411   4.622   3.412 -0.1943 -0.3450  0.0325
  904MOL0     C24653   4.397   4.467   3.384  0.2079  0.6757 -0.1117
  904MOL0     C24654   4.499   4.420   3.273 -0.1773  0.0162 -0.0052
  904MOL0     C24655   4.465   4.288   3.198 -0.1439 -0.1275  0.5420
  904MOL0     C24656   4.468   4.175   3.297 -0.4799 -0.4858  0.3992
  904MOL0     C24657   4.398   4.042   3.260 -0.7951  0.4171  0.9182
  904MOL0     C24658   4.398   3.926   3.365  0.8454 -0.2194 -1.0203
  904MOL0    Cl24659   4.310   3.963   3.506 -0.1625 -0.2103  0.0474
  904MOL0     C24660   4.171   4.962   3.581  0.3744  0.5255  0.1859
  904MOL0     C24661   4.071   5.047   3.541  0.5138 -0.1918  0.5296
  904MOL0     O24662   3.731   4.952   3.466 -0.8422  0.3431 -0.4178
  904MOL0     C24663   3.539   5.087   3.339  0.2817  0.4739  0.0927
  904MOL0     C24664   3.423   5.152   3.292  0.1791 -0.2703 -0.1421
  904MOL0     N24665   3.220   5.394   2.505 -0.5855 -0.3110  0.1279
  904MOL0     N24666   3.142   5.454   2.422  0.0022 -0.3201 -0.0291
  904MOL0     C24667   2.040   5.945   2.762  0.2870 -0.1011  0.3031
  904MOL0     C24668   1.909   5.969   2.816  0.0742 -0.5215 -0.3771
  904MOL0     C24669   1.565   6.187   3.058 -0.3854  0.3193 -0.2291
  904MOL0     C24670   1.479   6.080   3.022  0.1895  0.5442 -0.0742
  904MOL0     C24671   1.358   6.057   3.090  0.6193 -0.3925  0.3242
  904MOL0     C24672   1.313   6.145   3.187  0.5097  0.5638 -0.8218
  904MOL0     O24673   1.192   6.118   3.250 -0.5803 -0.2742  0.3559
  904MOL0     C24674   1.103   6.235   3.276  0.6382  0.6210  0.8045
  904MOL0     C24675   0.961   6.182   3.271  0.0937 -0.2721 -0.2586
  904MOL0     C24676   0.857   6.282   3.317 -0.3453  0.3634  0.0885
  904MOL0     C24677   0.726   6.206   3.302 -0.1279 -0.1392  0.0308
  904MOL0     C24678   0.700   6.125   3.415  0.0976  0.1667  0.5404
  904MOL0     C24679   0.674   6.066   3.519  0.0018  0.1812  0.1512
  904MOL0     C24680   1.391   6.253   3.225 -0.4683 -0.1269  0.4886
  904MOL0     C24681   1.515   6.281   3.155  0.0462  0.7974 -0.4085
  904MOL0     C24682   1.592   6.401   3.203  0.3441 -0.0017  0.0347
  904MOL0     H24683   1.976   6.262   2.974  2.6032 -0.7817  0.2014
  904MOL0     H24684   2.195   6.215   2.891  0.7122 -1.3536  1.1888
  904MOL0     H24685   2.368   5.978   2.573 -0.0832 -0.6496  0.8144
  904MOL0     H24686   2.216   5.904   2.572  1.2805  0.7750 -3.1072
  904MOL0     H24687   2.453   5.823   2.752  0.2270  1.9465  0.5347
  904MOL0     H24688   2.284   5.776   2.776 -1.1998  2.3267 -0.5509
  904MOL0     H24689   2.379   5.597   2.665  3.8576  0.0027  1.8693
  904MOL0     H24690   2.324   5.692   2.521  0.0412  2.2031 -0.6383
  904MOL0     H24691   2.541   5.797   2.514 -1.3808 -1.4083 -2.5925
  904MOL0     H24692   2.607   5.710   2.651  2.2870 -1.4644 -1.2541
  904MOL0     H24693   2.526   5.561   2.398  0.1753 -1.1957  0.5763
  904MOL0     H24694   2.601   5.488   2.539 -2.1043 -1.8200 -1.0947
  904MOL0     H24695   2.733   5.524   2.325  0.6960 -1.5404  1.7372
  904MOL0     H24696   2.711   5.690   2.361  2.1537  1.8649  2.3984
  904MOL0     H24697   2.862   5.497   2.540 -0.7711  0.4560 -0.1686
  904MOL0     H24698   2.845   5.676   2.563 -1.7924 -0.5538  1.3483
  904MOL0     H24699   2.977   5.594   2.306 -0.2860 -0.3604  0.5172
  904MOL0     H24700   2.989   5.734   2.404 -0.6535 -0.1122  1.8712
  904MOL0     H24701   3.104   5.646   2.681 -1.3873 -1.8986  1.9223
  904MOL0     H24702   3.361   5.532   2.755  0.1812 -0.0820 -0.2735
  904MOL0     H24703   3.378   5.378   2.669  0.7671 -0.4172  1.7829
  904MOL0     H24704   3.128   5.388   2.836 -0.2842  2.1867 -1.0638
  904MOL0     H24705   3.260   5.262   2.821  2.6114 -0.2152  2.1939
  904MOL0     H24706   3.393   5.435   2.957 -1.4122  1.5055 -4.0906
  904MOL0     H24707   3.232   5.502   2.984 -0.5088 -0.0904  0.9056
  904MOL0     H24708   3.155   5.303   3.094 -0.0333  1.4184 -0.8170
  904MOL0     H24709   3.277   5.198   3.041  0.4666  0.5975 -2.4183
  904MOL0     H24710   3.558   5.461   3.249  2.5816 -0.7819  0.6275
  904MOL0     H24711   3.866   5.317   3.268  0.0174 -0.5680  1.1510
  904MOL0     H24712   3.838   5.402   3.417  3.8349 -0.5255 -1.4580
  904MOL0     H24713   3.779   5.471   3.268  3.2992 -1.2068 -1.6001
  904MOL0     H24714   3.931   4.840   3.303  0.3000 -1.5216 -0.3317
  904MOL0     H24715   4.124   4.711   3.359 -1.4577  1.3478 -0.4498
  904MOL0     H24716   4.370   4.605   3.633 -0.9420  2.5707  2.1542
  904MOL0     H24717   4.232   4.606   3.528 -0.6696  0.8272  5.9167
  904MOL0     H24718   4.371   4.687   3.333 -1.0260  1.4558  1.8546
  904MOL0     H24719   4.515   4.650   3.430 -0.7320  1.0920  1.0247
  904MOL0     H24720   4.296   4.430   3.363  0.7775 -0.8016 -0.4000
  904MOL0     H24721   4.432   4.410   3.470 -1.1115 -0.1213 -0.0701
  904MOL0     H24722   4.588   4.423   3.337 -1.5725 -1.8247  2.1557
  904MOL0     H24723   4.524   4.498   3.200 -0.2536  2.3315  2.2833
  904MOL0     H24724   4.361   4.296   3.164 -0.7200  0.2569  2.3113
  904MOL0     H24725   4.534   4.276   3.113 -0.1847  0.8639  0.3497
  904MOL0     H24726   4.417   4.212   3.386 -0.7194 -0.3966  0.2244
  904MOL0     H24727   4.573   4.168   3.329 -0.5179 -1.5352  0.3311
  904MOL0     H24728   4.445   3.989   3.177  1.0661  1.1504  1.4573
  904MOL0     H24729   4.295   4.063   3.231  0.0548 -0.1428 -3.0983
  904MOL0     H24730   4.498   3.900   3.402 -0.8839 -0.0537  4.6532
  904MOL0     H24731   4.351   3.832   3.336  0.5851 -0.8926  1.3847
  904MOL0     H24732   4.231   4.999   3.664 -0.5782  0.4442  0.9361
  904MOL0     H24733   4.062   5.145   3.587  3.0600 -0.9631  2.9418
  904MOL0     H24734   3.522   4.981   3.357  0.1447  0.3946 -0.5089
  904MOL0     H24735   3.329   5.101   3.270  0.3101 -0.1401 -1.0554
  904MOL0     H24736   2.047   5.850   2.710 -4.0662 -0.5732  0.2169
  904MOL0     H24737   1.851   5.879   2.803  0.9584 -0.9156 -1.8121
  904MOL0     H24738   1.512   6.005   2.951 -2.3785 -0.9318  0.1846
  904MOL0     H24739   1.291   5.980   3.052  0.8913 -2.2005  3.2772
  904MOL0     H24740   1.123   6.271   3.378  1.4626 -2.2300  1.7307
  904MOL0     H24741   1.118   6.307   3.195  1.9335 -0.2150  0.2828
  904MOL0     H24742   0.964   6.093   3.335  0.9145 -1.1682 -1.4915
  904MOL0     H24743   0.944   6.156   3.166 -1.4036 -0.7692  0.0902
  904MOL0     H24744   0.873   6.310   3.422 -0.7603 -1.1066  0.5614
  904MOL0     H24745   0.859   6.373   3.257  1.3871  0.4229  0.1989
  904MOL0     H24746   0.725   6.145   3.212 -3.4636 -2.5397  1.5038
  904MOL0     H24747   0.650   6.284   3.294  0.4315  0.5078  0.7864
  904MOL0     H24748   0.628   6.014   3.600 -1.1371  0.1685 -0.4765
  904MOL0     H24749   1.359   6.323   3.301  1.2127 -1.5729  2.6412
  904MOL0     H24750   1.699   6.386   3.185  0.4637  0.4544  0.3468
  904MOL0     H24751   1.559   6.492   3.152  1.5541 -0.4635 -1.6626
  904MOL0     H24752   1.581   6.396   3.312 -1.2922  2.5063  0.0649
  905MOL0     O24753   8.814   4.716   4.531  0.8351 -0.7900  0.2297
  905MOL0     C24754   8.870   4.604   4.548  0.9317 -0.1908  0.2107
  905MOL0     O24755   8.881   4.541   4.670 -0.6014  0.8826  0.0070
  905MOL0     C24756   8.821   4.595   4.784 -0.1349 -0.3031  0.7258
  905MOL0     C24757   8.692   4.550   4.825  0.4396 -0.0814  0.4279
  905MOL0     C24758   8.622   4.621   4.923  0.5472  0.5068 -0.0030
  905MOL0     C24759   8.685   4.719   4.993 -0.0279  0.0837 -0.1987
  905MOL0     O24760   8.606   4.788   5.080 -0.3338  0.5780  0.6294
  905MOL0     C24761   8.644   4.910   5.147 -0.2994 -0.3705 -1.2728
  905MOL0     C24762   8.574   5.034   5.097  0.6146 -0.5220  0.1067
  905MOL0     C24763   8.598   5.054   4.949 -0.6823  0.0343 -0.6158
  905MOL0     C24764   8.549   5.194   4.885  1.0854  0.9695 -0.2871
  905MOL0     C24765   8.600   5.222   4.746 -0.4133 -1.0278  0.2237
  905MOL0     C24766   8.597   5.381   4.698  0.1819 -0.0431 -0.0619
  905MOL0     C24767   8.446   5.418   4.702 -0.0723  0.5004  0.3304
  905MOL0     C24768   8.412   5.557   4.754 -0.2271 -0.1789 -0.4766
  905MOL0     N24769   8.461   5.658   4.666  0.2892  0.0344  0.2561
  905MOL0     C24770   8.450   5.650   4.528 -0.2909 -0.1790 -0.6635
  905MOL0     C24771   8.549   5.733   4.479  0.3131 -0.0202  0.3832
  905MOL0     C24772   8.578   5.766   4.335 -0.1337 -0.6108 -0.1001
  905MOL0     C24773   8.508   5.892   4.285 -0.1795 -0.7722  0.4480
  905MOL0     C24774   8.551   6.028   4.354 -0.0732  0.2780  0.2526
  905MOL0     C24775   8.691   6.074   4.301 -0.1220  0.3492  0.5112
  905MOL0     O24776   8.681   6.161   4.192 -0.2063 -0.8380  0.6196
  905MOL0     C24777   8.788   6.228   4.140 -0.0964 -0.8238 -0.0857
  905MOL0     C24778   8.761   6.330   4.044 -0.6843 -0.3005 -0.0434
  905MOL0     C24779   8.872   6.386   3.982 -0.3267 -1.2609 -0.3165
  905MOL0     C24780   8.839   6.495   3.886  0.4448  0.5691  0.5345
  905MOL0     C24781   9.005   6.337   4.001 -0.3357 -0.0388  0.1212
  905MOL0     C24782   9.132   6.402   3.945 -0.5697 -0.5058 -0.7998
  905MOL0     O24783   9.255   6.360   3.997 -0.6453  0.8311 -0.1725
  905MOL0     C24784   9.375   6.433   3.977  0.4629  0.3759 -0.5787
  905MOL0     C24785   9.485   6.374   3.929  0.2190 -0.0440  1.3765
  905MOL0     C24786   9.605   6.444   3.913 -0.7867 -0.0015 -0.5744
  905MOL0     C24787   9.612   6.583   3.959 -0.3363  0.1266  0.0099
  905MOL0     O24788   9.725   6.657   3.945  0.0607  0.2704 -0.7941
  905MOL0     C24789   9.793   6.705   4.060 -0.0053 -0.4331 -0.5768
  905MOL0     C24790   9.920   6.775   4.010  0.2355  0.7732  0.6335
  905MOL0     C24791  10.025   6.687   3.952  0.1480  0.8473 -0.2167
  905MOL0     C24792  10.011   6.665   3.799  0.5852 -0.1266 -0.0633
  905MOL0     C24793  10.121   6.584   3.732  0.2842 -0.0450 -0.1814
  905MOL0     C24794  10.159   6.448   3.796  0.9074  0.2684  0.4150
  905MOL0     C24795  10.055   6.343   3.759 -0.3609  0.5057  0.4735
  905MOL0     C24796  10.044   6.246   3.876  1.0374 -0.4677 -0.0213
  905MOL0    Cl24797  10.198   6.199   3.934 -0.1330 -0.2456  0.0300
  905MOL0     C24798   9.491   6.641   4.004 -0.4354 -0.0865 -0.4984
  905MOL0     C24799   9.373   6.566   4.013 -0.0565  0.4353 -0.0009
  905MOL0     O24800   9.128   6.485   3.858 -0.5621  0.4574  1.2583
  905MOL0     C24801   9.025   6.249   4.109  0.8991 -0.2871 -0.6913
  905MOL0     C24802   8.918   6.180   4.162 -0.8080 -0.1280 -0.7202
  905MOL0     N24803   8.613   5.793   4.588  0.5162 -0.5623  0.0167
  905MOL0     N24804   8.560   5.743   4.701  0.3523 -0.6565 -0.0546
  905MOL0     C24805   8.809   4.774   4.945  0.2475  0.2609 -0.3057
  905MOL0     C24806   8.880   4.696   4.857 -0.0951 -0.6817 -0.0494
  905MOL0     C24807   8.936   4.538   4.428  0.2915 -0.6646 -0.0589
  905MOL0     C24808   9.037   4.443   4.448 -0.6944  0.2259  0.6390
  905MOL0     C24809   9.096   4.373   4.346  0.1089 -0.4018  0.5743
  905MOL0     C24810   9.075   4.403   4.215 -0.0645 -0.0144  0.0096
  905MOL0     O24811   9.152   4.352   4.117  0.1786  0.3757  0.0595
  905MOL0     C24812   9.228   4.462   4.060 -0.2558 -0.5124  0.2335
  905MOL0     C24813   9.224   4.464   3.909 -0.0970  0.3896  0.8624
  905MOL0     C24814   9.298   4.593   3.853  0.1063 -1.0810  0.7603
  905MOL0     C24815   9.186   4.701   3.822  0.2218  1.0795 -0.1489
  905MOL0     C24816   9.149   4.772   3.951 -0.6916 -0.2488 -0.1110
  905MOL0     C24817   9.104   4.810   4.057  0.4887  0.2635 -0.0837
  905MOL0     C24818   8.968   4.489   4.195  0.1697 -0.5558 -0.6303
  905MOL0     C24819   8.898   4.558   4.293  0.7478  0.2334 -0.5141
  905MOL0     C24820   8.798   4.660   4.239  0.2970 -0.3101  0.5562
  905MOL0     H24821   8.643   4.474   4.766 -1.0228  1.5636 -0.5726
  905MOL0     H24822   8.521   4.590   4.945  0.3662  1.1203  0.0662
  905MOL0     H24823   8.752   4.924   5.153 -0.3757  0.3459 -1.4401
  905MOL0     H24824   8.612   4.916   5.251  0.4419  2.0557 -1.1070
  905MOL0     H24825   8.469   5.011   5.117 -0.0763 -0.0601 -2.5541
  905MOL0     H24826   8.593   5.124   5.157  2.0752 -0.2811 -0.6830
  905MOL0     H24827   8.705   5.041   4.933 -0.4671 -0.3343  1.0162
  905MOL0     H24828   8.534   4.978   4.902 -1.6393 -2.0926  3.6485
  905MOL0     H24829   8.442   5.173   4.875  1.6617 -3.5066  0.7101
  905MOL0     H24830   8.569   5.281   4.948  2.0603  0.6336 -0.1197
  905MOL0     H24831   8.541   5.167   4.672 -0.1842  0.7524 -1.3850
  905MOL0     H24832   8.700   5.180   4.738 -0.0409  0.1602 -3.8325
  905MOL0     H24833   8.647   5.459   4.755  0.8685  3.0811 -4.4344
  905MOL0     H24834   8.635   5.379   4.595 -2.8281  0.0788 -1.3053
  905MOL0     H24835   8.385   5.351   4.764 -2.7533  3.5042  1.2342
  905MOL0     H24836   8.399   5.396   4.606 -0.3807  1.0203  0.3586
  905MOL0     H24837   8.303   5.564   4.760 -0.1881 -0.9077  2.1280
  905MOL0     H24838   8.450   5.560   4.856 -0.8148 -2.2121 -0.1558
  905MOL0     H24839   8.374   5.594   4.473 -3.7181 -1.7343  4.8813
  905MOL0     H24840   8.553   5.678   4.276  1.1495 -1.2491  0.2676
  905MOL0     H24841   8.687   5.775   4.343 -0.0321  0.4588 -2.0374
  905MOL0     H24842   8.538   5.892   4.180 -1.7744  2.3991 -0.1087
  905MOL0     H24843   8.400   5.876   4.294 -0.1029 -1.1992  0.6488
  905MOL0     H24844   8.482   6.110   4.335  1.0025  1.1208 -0.1236
  905MOL0     H24845   8.555   6.018   4.462  1.1329 -0.5086  0.1592
  905MOL0     H24846   8.747   6.114   4.387 -1.9422  1.0393  1.4431
  905MOL0     H24847   8.743   5.986   4.263  0.9147  0.8365  0.7547
  905MOL0     H24848   8.659   6.365   4.036 -0.2808  1.2366  1.1539
  905MOL0     H24849   8.904   6.489   3.798  0.0312 -0.1540  0.2672
  905MOL0     H24850   8.859   6.591   3.933 -0.4328  1.4762 -0.8679
  905MOL0     H24851   8.734   6.487   3.855  0.4278 -0.9278  0.8963
  905MOL0     H24852   9.473   6.271   3.897  1.7183  0.2194 -0.1685
  905MOL0     H24853   9.701   6.405   3.880 -1.9903 -4.2710  0.3128
  905MOL0     H24854   9.728   6.771   4.119 -1.3753 -2.8202  0.7695
  905MOL0     H24855   9.818   6.617   4.120 -1.0077 -1.0361 -1.0306
  905MOL0     H24856   9.897   6.859   3.945 -0.8562  2.7712  3.4344
  905MOL0     H24857   9.965   6.835   4.089  1.7100 -2.3876  2.4128
  905MOL0     H24858  10.022   6.586   3.996  1.8249  0.0421 -1.8079
  905MOL0     H24859  10.123   6.733   3.964  1.6226 -1.5083 -2.1700
  905MOL0     H24860  10.017   6.766   3.758 -0.9782  0.5987  1.3643
  905MOL0     H24861   9.910   6.628   3.777 -1.0104  3.9942 -0.4558
  905MOL0     H24862  10.094   6.565   3.628  0.5962 -0.7752 -0.1363
  905MOL0     H24863  10.212   6.644   3.738  0.4772 -0.4741  2.5828
  905MOL0     H24864  10.189   6.451   3.901  3.3169 -1.0191 -0.1444
  905MOL0     H24865  10.252   6.426   3.743  0.3441 -1.1705 -0.0553
  905MOL0     H24866  10.069   6.298   3.660  1.5809  0.8680  0.5314
  905MOL0     H24867   9.958   6.391   3.744 -2.0365 -2.6981  0.4171
  905MOL0     H24868   9.981   6.159   3.853 -0.5055 -0.1810  2.6942
  905MOL0     H24869  10.000   6.301   3.960 -0.5321 -2.9867  0.9285
  905MOL0     H24870   9.477   6.743   4.039 -0.1299 -1.0183  2.6979
  905MOL0     H24871   9.286   6.615   4.056 -0.8496 -0.1192 -0.9188
  905MOL0     H24872   9.120   6.217   4.152  0.8407 -0.8860 -1.0081
  905MOL0     H24873   8.938   6.098   4.230  1.0113 -1.3767 -2.6488
  905MOL0     H24874   8.850   4.865   4.986 -0.2117 -0.3993  1.7611
  905MOL0     H24875   8.971   4.737   4.816 -0.7620 -0.1476 -1.0490
  905MOL0     H24876   9.084   4.439   4.545  0.7047 -0.6121 -0.0411
  905MOL0     H24877   9.164   4.291   4.365  1.5992  1.0048  1.6522
  905MOL0     H24878   9.197   4.559   4.101  2.0851 -0.4644  2.1153
  905MOL0     H24879   9.329   4.453   4.100  0.0720  3.1606  0.6253
  905MOL0     H24880   9.127   4.460   3.859  0.4155  0.0725 -0.1331
  905MOL0     H24881   9.281   4.377   3.876  1.1406  1.7324 -0.7609
  905MOL0     H24882   9.376   4.629   3.921  0.1950 -0.9685  0.5992
  905MOL0     H24883   9.345   4.572   3.756 -3.1344  1.1418 -1.5215
  905MOL0     H24884   9.095   4.654   3.783 -1.3713  1.5523  2.6558
  905MOL0     H24885   9.230   4.773   3.753 -1.5487 -0.3652 -2.9689
  905MOL0     H24886   9.064   4.840   4.152 -0.4914 -0.5662 -0.2143
  905MOL0     H24887   8.940   4.506   4.091  1.0011  1.5752 -0.5637
  905MOL0     H24888   8.705   4.658   4.297 -0.3425 -0.8361 -0.4547
  905MOL0     H24889   8.844   4.759   4.244  3.4832 -1.6684  0.3970
  905MOL0     H24890   8.768   4.633   4.137 -0.3992 -0.2984  0.7499
  906MOL0     O24891   8.816   6.531   8.319 -0.1276 -0.4494 -0.7001
  906MOL0     C24892   8.718   6.604   8.346  0.5913 -0.0588  0.9962
  906MOL0     O24893   8.721   6.745   8.326  0.2290  0.1833  0.1896
  906MOL0     C24894   8.815   6.793   8.233 -0.3406 -0.5627  0.6759
  906MOL0     C24895   8.866   6.918   8.281 -0.0970  0.1965  0.8180
  906MOL0     C24896   8.947   6.996   8.194 -0.4174  0.0632  0.0180
  906MOL0     C24897   8.979   6.948   8.063  0.3436 -0.3507 -0.1676
  906MOL0     O24898   9.086   7.015   7.998  0.4698  0.3630 -0.2729
  906MOL0     C24899   9.152   6.967   7.889  0.1314  1.2516 -0.4480
  906MOL0     C24900   9.268   7.044   7.851 -0.4793 -0.2957 -0.4557
  906MOL0     C24901   9.379   7.037   7.962 -0.3473 -0.1995  0.5853
  906MOL0     C24902   9.500   7.122   7.934  0.3039 -1.0793 -0.3135
  906MOL0     C24903   9.589   7.082   7.809  0.6438 -0.2051  0.3341
  906MOL0     C24904   9.670   6.955   7.845 -0.1579 -0.0958  0.9326
  906MOL0     C24905   9.758   6.904   7.728 -0.6407 -0.6624 -0.6620
  906MOL0     C24906   9.822   6.769   7.759 -0.1772 -0.3648 -0.7148
  906MOL0     N24907   9.949   6.783   7.834 -0.2852 -0.4917  1.0042
  906MOL0     C24908   9.964   6.829   7.962  0.1155 -0.5434  0.5358
  906MOL0     C24909  10.096   6.829   7.982 -0.5925 -0.0516  0.3539
  906MOL0     C24910  10.180   6.850   8.104  0.1049  0.0264 -0.6642
  906MOL0     C24911  10.108   6.874   8.239 -0.3003 -0.2035  0.9120
  906MOL0     C24912  10.212   6.889   8.357  0.3643 -0.3725  0.1154
  906MOL0     C24913  10.283   6.753   8.389  0.1018  0.5742 -0.1942
  906MOL0     O24914  10.315   6.739   8.535 -0.1083 -0.0893  0.0124
  906MOL0     C24915  10.448   6.737   8.580 -0.1606 -0.0003  0.3837
  906MOL0     C24916  10.460   6.718   8.718 -0.8443 -0.2849 -0.2333
  906MOL0     C24917  10.586   6.711   8.780 -0.9295 -0.5448  0.4696
  906MOL0     C24918  10.593   6.690   8.929 -0.1553 -0.2071 -0.2246
  906MOL0     C24919  10.705   6.737   8.696  0.4899  0.4079 -0.6450
  906MOL0     C24920  10.841   6.727   8.757 -0.2797 -0.5301 -0.1578
  906MOL0     O24921  10.927   6.653   8.685 -0.5437 -0.0764 -0.5552
  906MOL0     C24922  11.050   6.618   8.735  0.9172 -0.7492  0.1801
  906MOL0     C24923  11.069   6.567   8.864  0.4802  0.2727 -0.3694
  906MOL0     C24924  11.191   6.510   8.898  0.7047 -0.2555  0.6562
  906MOL0     C24925  11.297   6.527   8.814 -0.9927  0.3880 -0.7864
  906MOL0     O24926  11.421   6.500   8.868 -0.8048 -0.0351  1.0510
  906MOL0     C24927  11.516   6.430   8.777  0.5999  0.0381  0.7186
  906MOL0     C24928  11.624   6.530   8.729 -0.1830  0.6283 -0.3142
  906MOL0     C24929  11.728   6.458   8.638  0.5450 -1.2587  0.6756
  906MOL0     C24930  11.838   6.559   8.603  0.3491 -0.4465  0.5803
  906MOL0     C24931  11.931   6.495   8.497  0.5874  0.7652  0.7209
  906MOL0     C24932  12.067   6.569   8.488 -0.2605  0.0566  0.5938
  906MOL0     C24933  12.166   6.507   8.393  1.0059  0.6441 -0.0314
  906MOL0     C24934  12.308   6.554   8.428  0.7651  0.4261 -0.1487
  906MOL0    Cl24935  12.347   6.710   8.354  0.0495 -0.0792 -0.3329
  906MOL0     C24936  11.281   6.586   8.685 -0.1947  0.2095  0.5601
  906MOL0     C24937  11.157   6.628   8.647 -0.4766 -0.1723  0.5194
  906MOL0     O24938  10.866   6.799   8.852  0.4545 -0.3799  0.1478
  906MOL0     C24939  10.685   6.750   8.560 -0.6061  0.2794  0.5977
  906MOL0     C24940  10.561   6.748   8.496  1.0119 -0.6947 -0.6655
  906MOL0     N24941  10.156   6.793   7.863  0.1530 -0.0501  0.1089
  906MOL0     N24942  10.068   6.757   7.773  0.0686 -0.4707 -0.1480
  906MOL0     C24943   8.931   6.821   8.027 -0.1273 -0.1218  0.1193
  906MOL0     C24944   8.848   6.751   8.105  1.5027 -0.9172 -0.1153
  906MOL0     C24945   8.598   6.529   8.397  0.5111  0.6641 -0.2451
  906MOL0     C24946   8.605   6.395   8.420 -0.5215 -0.1251 -0.6942
  906MOL0     C24947   8.502   6.325   8.479 -0.0294 -0.3580  1.3240
  906MOL0     C24948   8.389   6.394   8.524 -0.0466 -0.3111 -0.3694
  906MOL0     O24949   8.277   6.350   8.586  0.3807 -0.6787 -0.4915
  906MOL0     C24950   8.250   6.208   8.607 -0.8596 -0.1761  0.1717
  906MOL0     C24951   8.096   6.175   8.623  0.3910 -0.2761  0.0987
  906MOL0     C24952   8.029   6.263   8.718 -0.0103  0.5318 -0.6606
  906MOL0     C24953   8.088   6.246   8.860  0.4150 -0.3965 -0.1199
  906MOL0     C24954   8.075   6.116   8.920 -0.1300  0.3734 -0.6484
  906MOL0     C24955   8.084   6.027   8.996  0.2950  0.6002  0.0167
  906MOL0     C24956   8.387   6.534   8.522  0.9957 -0.3447  1.0695
  906MOL0     C24957   8.487   6.597   8.446  0.9517 -0.4478  0.3908
  906MOL0     C24958   8.453   6.738   8.411 -1.5514 -0.1286 -0.3379
  906MOL0     H24959   8.834   6.958   8.377 -0.5563 -0.9841  1.1764
  906MOL0     H24960   8.993   7.088   8.228 -1.4673 -0.9173  4.6676
  906MOL0     H24961   9.080   6.964   7.807 -0.7009  1.3758  0.2631
  906MOL0     H24962   9.186   6.865   7.910 -1.7073  0.6899 -0.0097
  906MOL0     H24963   9.314   7.018   7.755  1.8926  2.0147 -0.0898
  906MOL0     H24964   9.232   7.148   7.849  0.8792  0.3141  1.9460
  906MOL0     H24965   9.339   7.066   8.060  0.4162  1.1582  0.5200
  906MOL0     H24966   9.423   6.938   7.967 -2.0030 -0.9539  0.9536
  906MOL0     H24967   9.469   7.227   7.935 -0.8275 -1.3884  1.9544
  906MOL0     H24968   9.565   7.119   8.022 -1.0520 -1.3958  0.7023
  906MOL0     H24969   9.663   7.155   7.776 -0.8647 -0.7751 -5.1547
  906MOL0     H24970   9.535   7.066   7.716  3.5272 -3.0517 -1.0684
  906MOL0     H24971   9.740   6.982   7.924 -1.6778  1.1993  1.8940
  906MOL0     H24972   9.606   6.873   7.876  1.0750 -2.4029 -2.0926
  906MOL0     H24973   9.836   6.980   7.715  0.0415 -0.8965  1.5916
  906MOL0     H24974   9.697   6.892   7.638 -1.6137  1.6091 -0.3700
  906MOL0     H24975   9.752   6.717   7.825 -0.2924  0.9976  0.2730
  906MOL0     H24976   9.846   6.711   7.669  1.9349 -0.4206 -0.1749
  906MOL0     H24977   9.889   6.851   8.038 -1.1923  1.4840 -1.2193
  906MOL0     H24978  10.258   6.923   8.082  2.0732 -1.2855  1.4123
  906MOL0     H24979  10.225   6.750   8.110 -1.7482 -0.8661 -1.0914
  906MOL0     H24980  10.054   6.966   8.218 -0.5042 -0.4001  0.5533
  906MOL0     H24981  10.037   6.793   8.257  0.6321 -1.4423 -0.6501
  906MOL0     H24982  10.286   6.962   8.322 -1.3515  0.3189 -2.3742
  906MOL0     H24983  10.160   6.934   8.442  1.1615  0.4277  0.1938
  906MOL0     H24984  10.216   6.671   8.363  1.7360 -1.1952  0.8022
  906MOL0     H24985  10.361   6.726   8.317 -1.9768 -1.2118 -1.9127
  906MOL0     H24986  10.367   6.731   8.773  1.2654  4.1277  2.8588
  906MOL0     H24987  10.499   6.729   8.970 -1.2384 -1.2205 -1.6226
  906MOL0     H24988  10.679   6.748   8.964 -0.4648 -0.0656  0.3093
  906MOL0     H24989  10.604   6.586   8.960  4.3441  0.4193  0.9563
  906MOL0     H24990  10.984   6.574   8.930  0.4504  1.5548 -0.5220
  906MOL0     H24991  11.207   6.457   8.992 -2.4493 -1.0687  0.8665
  906MOL0     H24992  11.566   6.356   8.839  2.7370  1.9837  1.4380
  906MOL0     H24993  11.466   6.398   8.684 -1.9866  0.8592  1.7372
  906MOL0     H24994  11.586   6.622   8.682 -0.0731 -0.6626 -3.1521
  906MOL0     H24995  11.684   6.556   8.817  0.4671 -0.1139 -0.5263
  906MOL0     H24996  11.668   6.410   8.560  1.0004 -0.4731 -0.1879
  906MOL0     H24997  11.773   6.375   8.693  0.7935 -0.4400  1.7288
  906MOL0     H24998  11.891   6.591   8.694  0.5215  1.3114 -0.0921
  906MOL0     H24999  11.798   6.651   8.560 -4.2733 -2.6996 -0.5922
  906MOL0     H25000  11.952   6.394   8.532  1.6948  0.9294  0.5439
  906MOL0     H25001  11.890   6.496   8.396  0.1953 -1.9967  0.7915
  906MOL0     H25002  12.110   6.571   8.589 -0.8556 -3.0843  1.0186
  906MOL0     H25003  12.047   6.669   8.449  1.7688 -0.2443 -1.4446
  906MOL0     H25004  12.146   6.531   8.288 -0.3103 -1.7437 -0.4126
  906MOL0     H25005  12.174   6.398   8.402  0.8866  0.7187  1.2594
  906MOL0     H25006  12.379   6.479   8.393 -0.6917 -0.9945 -0.1449
  906MOL0     H25007  12.327   6.547   8.536 -0.0262  1.1838  0.0558
  906MOL0     H25008  11.363   6.601   8.615 -1.4091  4.4841 -0.2315
  906MOL0     H25009  11.141   6.668   8.547  2.3420 -1.0937 -0.3920
  906MOL0     H25010  10.775   6.768   8.503 -0.1300 -0.7108  1.0133
  906MOL0     H25011  10.554   6.747   8.388 -2.4323 -3.0397 -0.5697
  906MOL0     H25012   8.956   6.765   7.938 -1.5712 -1.8642  0.7576
  906MOL0     H25013   8.791   6.670   8.061  2.2507 -0.1334 -2.6824
  906MOL0     H25014   8.688   6.336   8.384  0.6977  1.5318 -0.7027
  906MOL0     H25015   8.522   6.218   8.488 -1.1441 -1.0315 -2.2885
  906MOL0     H25016   8.296   6.152   8.524 -1.6368 -0.9374  0.2406
  906MOL0     H25017   8.302   6.172   8.696 -0.9038  0.2763  0.3828
  906MOL0     H25018   8.080   6.071   8.650 -2.6170  0.6182  2.2739
  906MOL0     H25019   8.037   6.192   8.533 -1.9215  1.3687  1.8237
  906MOL0     H25020   8.030   6.368   8.687 -2.4689  0.3540 -1.5721
  906MOL0     H25021   7.927   6.227   8.730  1.1247 -2.0116  3.2499
  906MOL0     H25022   8.038   6.316   8.928 -0.9418 -1.4268 -0.0249
  906MOL0     H25023   8.191   6.284   8.865 -1.0929  4.3315 -0.2437
  906MOL0     H25024   8.110   5.935   9.044  4.0886  0.0797 -2.5689
  906MOL0     H25025   8.310   6.591   8.572 -0.5609 -0.7027 -0.7691
  906MOL0     H25026   8.346   6.754   8.396 -1.8741  0.0929  1.8859
  906MOL0     H25027   8.484   6.800   8.496  1.4305 -0.2102 -1.2542
  906MOL0     H25028   8.494   6.777   8.317  0.9383 -1.7838 -0.0334
  907MOL0     O25029   3.982   9.262   3.763  0.0880  0.1530  0.3183
  907MOL0     C25030   3.940   9.199   3.859 -0.3774 -0.9023  0.1771
  907MOL0     O25031   4.000   9.085   3.914 -0.1758 -0.4496 -0.1763
  907MOL0     C25032   4.077   9.004   3.836  0.4168  0.3249  0.1490
  907MOL0     C25033   4.209   8.987   3.869  0.0229  0.1352 -0.0508
  907MOL0     C25034   4.308   8.913   3.796 -0.6158  0.7404  0.5361
  907MOL0     C25035   4.278   8.873   3.670 -0.7495  0.3483 -0.1776
  907MOL0     O25036   4.373   8.802   3.598 -0.2508  0.3401  0.0390
  907MOL0     C25037   4.358   8.792   3.456  0.4360 -0.4385  0.7146
  907MOL0     C25038   4.457   8.701   3.398  0.2842  0.3949 -0.8461
  907MOL0     C25039   4.431   8.658   3.248  0.0023 -0.3579  0.4916
  907MOL0     C25040   4.438   8.765   3.143  0.4468 -0.5725 -0.8675
  907MOL0     C25041   4.434   8.714   2.993  0.7888 -0.4160  0.7169
  907MOL0     C25042   4.529   8.602   2.964 -0.1808  0.6584  0.4162
  907MOL0     C25043   4.553   8.576   2.810  0.5948  0.4373 -0.2150
  907MOL0     C25044   4.647   8.692   2.750  0.1170 -0.5769 -0.4120
  907MOL0     N25045   4.685   8.646   2.621 -0.3747  0.5029 -0.1415
  907MOL0     C25046   4.605   8.637   2.506  0.1455  0.2583 -1.0978
  907MOL0     C25047   4.674   8.568   2.413 -0.3878 -0.1869  0.8291
  907MOL0     C25048   4.621   8.543   2.271  0.4833  0.3393  0.5531
  907MOL0     C25049   4.710   8.445   2.192  0.2162 -0.2005  0.7435
  907MOL0     C25050   4.709   8.305   2.256 -0.3066 -0.1645 -0.1872
  907MOL0     C25051   4.771   8.211   2.149 -0.1574  0.4064 -0.2625
  907MOL0     O25052   4.910   8.221   2.106 -0.1445  0.5114 -1.3385
  907MOL0     C25053   4.951   8.170   1.979  0.2462 -0.1154 -0.5784
  907MOL0     C25054   5.056   8.231   1.919 -0.7261 -0.3194 -0.8881
  907MOL0     C25055   5.094   8.190   1.788 -0.0332  0.1759 -0.2479
  907MOL0     C25056   5.217   8.257   1.732  0.4005  0.8752 -1.3915
  907MOL0     C25057   4.999   8.122   1.706 -0.0857 -0.5714  0.3250
  907MOL0     C25058   5.011   8.103   1.559 -0.2161 -0.0845  0.0520
  907MOL0     O25059   4.922   8.010   1.505 -0.7528 -0.0778 -0.0383
  907MOL0     C25060   4.927   7.985   1.370 -0.5040  0.3803  0.5326
  907MOL0     C25061   4.810   7.947   1.312  0.1445  0.0322  1.3121
  907MOL0     C25062   4.813   7.920   1.174 -0.0391  0.9839  0.5182
  907MOL0     C25063   4.926   7.913   1.095  0.0457 -0.6308  0.1385
  907MOL0     O25064   4.923   7.872   0.965 -0.3710 -0.5209 -0.1422
  907MOL0     C25065   4.812   7.896   0.873  0.1650  0.5358  0.9363
  907MOL0     C25066   4.846   7.818   0.753  1.2202 -0.2423 -0.4726
  907MOL0     C25067   4.725   7.810   0.651 -0.3168 -0.0175 -0.6271
  907MOL0     C25068   4.744   7.740   0.527 -0.2388  0.6023  0.3397
  907MOL0     C25069   4.632   7.762   0.425 -0.6564 -0.3065 -0.0114
  907MOL0     C25070   4.494   7.712   0.480  0.1699 -0.2076 -0.3828
  907MOL0     C25071   4.383   7.719   0.383  0.4549  0.1868  0.4973
  907MOL0     C25072   4.249   7.654   0.425 -0.2711 -0.9384  1.2954
  907MOL0    Cl25073   4.261   7.483   0.450  0.4413 -0.2766 -0.3175
  907MOL0     C25074   5.045   7.937   1.161  0.2557  0.0932  0.4513
  907MOL0     C25075   5.047   7.971   1.295  0.9708 -0.0301 -0.6701
  907MOL0     O25076   5.076   8.175   1.486  0.0497  0.1356  0.0431
  907MOL0     C25077   4.904   8.054   1.775  0.3258  0.3046  0.6689
  907MOL0     C25078   4.870   8.080   1.907 -0.2363  0.2754  0.0021
  907MOL0     N25079   4.800   8.546   2.468 -0.6974  0.3063 -1.1782
  907MOL0     N25080   4.800   8.586   2.590 -0.0994  1.3092 -0.0677
  907MOL0     C25081   4.147   8.899   3.626 -0.5183  0.0650  0.6772
  907MOL0     C25082   4.049   8.957   3.703 -0.6418  0.1944 -0.2641
  907MOL0     C25083   3.839   9.254   3.946 -0.7827 -0.1061  0.8721
  907MOL0     C25084   3.806   9.179   4.060  0.0314 -0.7015 -0.3050
  907MOL0     C25085   3.697   9.217   4.141  0.8914 -0.8049  1.0329
  907MOL0     C25086   3.641   9.347   4.128  0.1613  0.3905 -0.8081
  907MOL0     O25087   3.543   9.371   4.225 -0.2530  0.1094 -1.0068
  907MOL0     C25088   3.472   9.484   4.224 -0.4106 -0.6520  0.8012
  907MOL0     C25089   3.441   9.532   4.367  0.9393 -1.0679  0.9919
  907MOL0     C25090   3.557   9.553   4.455 -1.0333  0.0183  0.1270
  907MOL0     C25091   3.513   9.615   4.589  0.0200  0.3278  1.0146
  907MOL0     C25092   3.627   9.589   4.676  1.0684  0.1062  0.0965
  907MOL0     C25093   3.720   9.547   4.751  0.0442 -0.6697 -0.7351
  907MOL0     C25094   3.681   9.431   4.022  1.1920  1.3020 -0.5594
  907MOL0     C25095   3.769   9.378   3.922 -0.2532 -0.4054 -0.4144
  907MOL0     C25096   3.796   9.472   3.814 -0.1358  0.4277  0.2803
  907MOL0     H25097   4.235   9.004   3.973  0.7575 -0.1964 -0.1711
  907MOL0     H25098   4.403   8.886   3.842 -0.7166 -4.4497 -1.5888
  907MOL0     H25099   4.349   8.888   3.406 -1.4269 -1.0383 -0.1901
  907MOL0     H25100   4.260   8.750   3.431  0.5118 -1.6888  2.3421
  907MOL0     H25101   4.556   8.747   3.404  0.3232  0.1594  0.7091
  907MOL0     H25102   4.462   8.608   3.455  0.3223  2.1577  2.2440
  907MOL0     H25103   4.513   8.591   3.222 -1.2368 -1.2152 -1.4281
  907MOL0     H25104   4.337   8.601   3.249 -0.8176  0.9414  1.4855
  907MOL0     H25105   4.354   8.835   3.138 -0.0173 -1.2045 -2.1974
  907MOL0     H25106   4.539   8.806   3.148  0.1786  0.0353 -0.2694
  907MOL0     H25107   4.454   8.797   2.924 -2.4154  0.2847  0.4538
  907MOL0     H25108   4.334   8.674   2.974  1.2120 -0.7053 -1.0793
  907MOL0     H25109   4.625   8.628   3.009 -0.3848 -1.2865  2.1232
  907MOL0     H25110   4.501   8.508   3.011 -0.0450 -2.0171 -4.2957
  907MOL0     H25111   4.450   8.578   2.772  0.0887  1.4851  1.1003
  907MOL0     H25112   4.598   8.478   2.794  0.3668  0.1675  0.7156
  907MOL0     H25113   4.599   8.789   2.742 -0.0170 -0.3718  2.0606
  907MOL0     H25114   4.733   8.704   2.817  0.5647  2.1125 -1.3638
  907MOL0     H25115   4.507   8.678   2.488  1.2688  2.1798 -3.4337
  907MOL0     H25116   4.605   8.641   2.226 -0.2463  0.4107  0.9585
  907MOL0     H25117   4.529   8.485   2.285 -0.1312  0.7360 -1.4948
  907MOL0     H25118   4.659   8.434   2.095 -0.4740 -1.7735  1.2430
  907MOL0     H25119   4.807   8.492   2.177 -0.3072 -0.1740 -4.5037
  907MOL0     H25120   4.761   8.298   2.352 -1.9752 -2.0060  0.6449
  907MOL0     H25121   4.605   8.277   2.277  0.0192 -0.7757  0.6558
  907MOL0     H25122   4.764   8.108   2.185 -2.7788 -0.4099 -2.7741
  907MOL0     H25123   4.703   8.211   2.064  0.4853  0.5267 -0.7773
  907MOL0     H25124   5.124   8.305   1.958 -0.6415 -0.9889  0.2867
  907MOL0     H25125   5.288   8.304   1.801 -0.1920  1.7837 -1.3777
  907MOL0     H25126   5.193   8.332   1.656  2.5855  1.5364 -1.5172
  907MOL0     H25127   5.274   8.177   1.685 -1.1814  0.0182 -1.8945
  907MOL0     H25128   4.715   7.951   1.364 -2.2916  0.6084 -2.7521
  907MOL0     H25129   4.717   7.892   1.132 -0.2441  4.3653 -1.5811
  907MOL0     H25130   4.713   7.856   0.898  1.3464 -2.8361  0.8025
  907MOL0     H25131   4.793   8.003   0.865 -2.0534  0.1062 -0.3318
  907MOL0     H25132   4.924   7.878   0.704  1.4152  0.4622  0.6740
  907MOL0     H25133   4.892   7.718   0.761 -0.8133 -1.6072 -3.6993
  907MOL0     H25134   4.681   7.908   0.634 -0.1753  0.8162  3.0557
  907MOL0     H25135   4.648   7.748   0.699 -0.1308 -0.7083 -1.2059
  907MOL0     H25136   4.760   7.634   0.548 -3.9767  0.0596  1.1541
  907MOL0     H25137   4.834   7.788   0.488  0.3768  0.2848  1.3166
  907MOL0     H25138   4.619   7.865   0.390 -2.2606 -0.3392  0.4152
  907MOL0     H25139   4.650   7.698   0.338  2.1265  0.8731 -0.3963
  907MOL0     H25140   4.469   7.780   0.563 -1.3069  5.4962 -4.8736
  907MOL0     H25141   4.510   7.612   0.521 -0.4973 -0.5798 -0.9955
  907MOL0     H25142   4.415   7.677   0.287 -0.4260 -2.1701  1.1653
  907MOL0     H25143   4.366   7.827   0.374 -1.3818 -0.0171  1.0279
  907MOL0     H25144   4.185   7.677   0.340  2.4010  0.6968 -0.4340
  907MOL0     H25145   4.208   7.696   0.517 -0.7626 -2.5151  1.8405
  907MOL0     H25146   5.138   7.925   1.107  1.1862  0.0394  1.9800
  907MOL0     H25147   5.137   7.970   1.355 -1.2412 -1.5912  3.0013
  907MOL0     H25148   4.847   7.981   1.720  1.8593 -0.2802 -0.1974
  907MOL0     H25149   4.777   8.030   1.933  0.4646 -2.3099 -2.0529
  907MOL0     H25150   4.125   8.885   3.520 -1.4047 -0.5194  0.9214
  907MOL0     H25151   3.949   8.964   3.660 -0.7180 -1.5462 -0.4605
  907MOL0     H25152   3.851   9.083   4.085 -0.0824 -0.1301  2.4013
  907MOL0     H25153   3.664   9.156   4.224 -2.1658  1.0484  1.3074
  907MOL0     H25154   3.528   9.562   4.170  0.9898 -2.6566 -0.7941
  907MOL0     H25155   3.377   9.462   4.174 -0.6725  0.9139  0.5670
  907MOL0     H25156   3.365   9.468   4.412 -0.7854 -0.0666 -0.3527
  907MOL0     H25157   3.400   9.633   4.358  2.9113 -0.3955 -2.5873
  907MOL0     H25158   3.602   9.454   4.472  3.9444  1.7872 -1.0044
  907MOL0     H25159   3.630   9.622   4.411  0.8559  0.3678  3.4611
  907MOL0     H25160   3.424   9.564   4.627  0.6349 -1.1498  0.5496
  907MOL0     H25161   3.503   9.723   4.590  1.6696  0.5091  0.6321
  907MOL0     H25162   3.797   9.530   4.822  1.3114  2.1364 -1.2757
  907MOL0     H25163   3.660   9.537   4.027  2.6397  1.5548  1.4747
  907MOL0     H25164   3.900   9.507   3.811  0.8308 -2.3304 -0.8943
  907MOL0     H25165   3.772   9.425   3.718  1.8145  1.6299 -0.8723
  907MOL0     H25166   3.725   9.551   3.840  1.1054  0.6179  3.6293
  908MOL0     O25167   6.546   6.311   3.991 -0.7503  0.4457 -0.0551
  908MOL0     C25168   6.443   6.254   3.971 -0.1860 -0.8926  0.2298
  908MOL0     O25169   6.411   6.131   4.009 -0.0311  0.3703 -0.1310
  908MOL0     C25170   6.485   6.076   4.108  0.2309  0.4011  0.8096
  908MOL0     C25171   6.448   6.099   4.241 -0.8198  0.5619  0.8303
  908MOL0     C25172   6.523   6.053   4.344  0.1131 -0.5918 -0.2598
  908MOL0     C25173   6.642   5.978   4.321  0.0240 -0.9622 -0.3131
  908MOL0     O25174   6.701   5.925   4.430  0.2026  0.4942 -0.3053
  908MOL0     C25175   6.795   5.815   4.419 -0.4199 -0.7585 -0.2669
  908MOL0     C25176   6.941   5.850   4.382  0.1128 -0.6853  0.0019
  908MOL0     C25177   7.016   5.933   4.486  1.2049 -0.2220  0.0044
  908MOL0     C25178   6.959   6.068   4.522  0.3529 -0.3585 -0.5003
  908MOL0     C25179   6.997   6.176   4.414  0.4409  0.2292 -0.2665
  908MOL0     C25180   6.944   6.314   4.448 -0.1745  0.3209 -0.9768
  908MOL0     C25181   6.992   6.422   4.348  0.3900 -0.3321 -0.3374
  908MOL0     C25182   6.918   6.561   4.379 -0.5000  0.5259  1.2318
  908MOL0     N25183   6.954   6.606   4.515 -0.4572  0.1160  0.8118
  908MOL0     C25184   7.040   6.716   4.531  0.0937  0.5469  0.0064
  908MOL0     C25185   7.060   6.718   4.663  0.1861 -0.4443  0.4299
  908MOL0     C25186   7.135   6.820   4.744  0.3366 -0.5590  0.3649
  908MOL0     C25187   7.052   6.951   4.780 -0.1686  0.2473  0.1841
  908MOL0     C25188   6.914   6.926   4.840 -0.2971  0.5050  0.1550
  908MOL0     C25189   6.830   7.054   4.870 -0.3006  0.2843 -0.1137
  908MOL0     O25190   6.816   7.125   4.739 -0.1974  0.2635  0.3055
  908MOL0     C25191   6.784   7.256   4.742  0.8382 -0.3307 -0.6020
  908MOL0     C25192   6.808   7.338   4.635 -0.1553 -0.5523 -0.2376
  908MOL0     C25193   6.789   7.471   4.637 -1.3612  0.3473 -0.0368
  908MOL0     C25194   6.814   7.539   4.507  0.3162 -0.0906  0.4165
  908MOL0     C25195   6.756   7.537   4.758  0.1498  0.4702 -0.3056
  908MOL0     C25196   6.753   7.686   4.780 -0.2734 -0.0573  0.3601
  908MOL0     O25197   6.701   7.739   4.898 -0.0909 -0.4492  0.4350
  908MOL0     C25198   6.685   7.873   4.917  0.7820  0.4308  0.1409
  908MOL0     C25199   6.727   7.929   5.040  0.4261 -0.3877 -0.4363
  908MOL0     C25200   6.709   8.070   5.067 -0.3034 -0.1277  0.3970
  908MOL0     C25201   6.654   8.160   4.970 -0.1914 -0.4089 -0.2267
  908MOL0     O25202   6.636   8.296   4.981 -0.6434  0.5740  0.0268
  908MOL0     C25203   6.557   8.326   5.097  0.0325 -0.6490  0.9276
  908MOL0     C25204   6.589   8.476   5.150  0.1671 -0.5685 -1.2305
  908MOL0     C25205   6.735   8.529   5.166 -0.3106 -0.0350 -0.4709
  908MOL0     C25206   6.795   8.574   5.031 -0.7758  0.1752  0.4159
  908MOL0     C25207   6.927   8.660   5.037 -0.3208 -0.4591  0.2126
  908MOL0     C25208   6.992   8.663   4.899 -0.2353  0.0862  0.2055
  908MOL0     C25209   7.115   8.756   4.902  0.8579 -0.2215 -0.1727
  908MOL0     C25210   7.208   8.739   4.778 -0.3874  0.0095 -0.4317
  908MOL0    Cl25211   7.111   8.746   4.631  0.3538 -0.0507 -0.3537
  908MOL0     C25212   6.601   8.100   4.853  0.6701 -0.7527 -0.6333
  908MOL0     C25213   6.613   7.964   4.833 -1.0156  0.5625 -0.0158
  908MOL0     O25214   6.782   7.756   4.688 -0.0765 -0.5874  0.4583
  908MOL0     C25215   6.740   7.456   4.866  0.4385 -0.7640 -0.7999
  908MOL0     C25216   6.745   7.317   4.863  0.4897  0.1342  0.8278
  908MOL0     N25217   6.981   6.613   4.718  0.8649  0.3361 -0.4740
  908MOL0     N25218   6.919   6.551   4.632  0.5224 -0.1892 -0.1661
  908MOL0     C25219   6.678   5.943   4.192 -0.5631 -0.3966 -0.1862
  908MOL0     C25220   6.597   5.991   4.088  0.4859  0.5425  0.8461
  908MOL0     C25221   6.325   6.323   3.897 -0.1761  0.5791 -0.1776
  908MOL0     C25222   6.254   6.255   3.799  0.4611  0.3053 -0.0256
  908MOL0     C25223   6.140   6.311   3.734 -0.3262  0.8769  0.4047
  908MOL0     C25224   6.097   6.436   3.766  0.4680 -0.6260  0.3984
  908MOL0     O25225   5.993   6.498   3.702 -0.0946  0.1757 -0.4259
  908MOL0     C25226   6.025   6.620   3.639  0.0298  0.2362 -0.4922
  908MOL0     C25227   5.904   6.648   3.552  0.7749  0.5818  0.0668
  908MOL0     C25228   5.893   6.796   3.513  0.1815 -0.0894 -0.3728
  908MOL0     C25229   5.989   6.822   3.388 -0.0805  0.1970  0.8464
  908MOL0     C25230   6.029   6.970   3.378 -0.2304  0.1982 -0.3087
  908MOL0     C25231   6.078   7.084   3.368  0.2973 -0.7864 -0.0679
  908MOL0     C25232   6.176   6.512   3.858  0.2751 -0.6219 -0.5016
  908MOL0     C25233   6.285   6.454   3.927  0.2394 -0.4443 -0.5711
  908MOL0     C25234   6.359   6.546   4.026  0.3011 -0.0383 -0.4607
  908MOL0     H25235   6.361   6.157   4.268 -1.7378 -0.1271 -0.5276
  908MOL0     H25236   6.503   6.093   4.443 -1.1605  3.3225 -1.8758
  908MOL0     H25237   6.757   5.739   4.350 -1.3608 -1.6467  1.1676
  908MOL0     H25238   6.801   5.770   4.519  0.0467  3.2543  1.7057
  908MOL0     H25239   6.999   5.760   4.358  1.7244  0.6441 -1.3748
  908MOL0     H25240   6.930   5.899   4.285  3.1390  0.3870  0.0819
  908MOL0     H25241   7.025   5.875   4.578  1.1978  1.5970  1.1973
  908MOL0     H25242   7.115   5.951   4.444  0.3462  0.7326 -1.7340
  908MOL0     H25243   6.852   6.064   4.546 -0.2850  1.4460 -2.6918
  908MOL0     H25244   7.016   6.113   4.604 -0.3611  3.0392 -1.7128
  908MOL0     H25245   6.956   6.152   4.315  0.4229  0.4126 -0.3041
  908MOL0     H25246   7.106   6.169   4.414  0.3750 -1.7876  1.5100
  908MOL0     H25247   6.836   6.309   4.460 -0.3145 -1.1800 -2.4979
  908MOL0     H25248   6.990   6.340   4.544 -0.2404  1.6184 -1.2721
  908MOL0     H25249   6.975   6.398   4.243 -2.8819 -2.9328  0.6507
  908MOL0     H25250   7.096   6.455   4.358  0.0721  1.7487 -2.7788
  908MOL0     H25251   6.950   6.637   4.307  0.3144 -1.0463 -0.1239
  908MOL0     H25252   6.812   6.541   4.361 -0.3815 -1.0153  2.0254
  908MOL0     H25253   7.068   6.785   4.452  1.3379  1.1351  0.9318
  908MOL0     H25254   7.229   6.847   4.696 -0.5198  3.6689  0.6928
  908MOL0     H25255   7.171   6.778   4.839  2.2838 -1.9811 -0.9309
  908MOL0     H25256   7.119   7.005   4.849  1.4978 -0.9757 -0.3989
  908MOL0     H25257   7.051   7.006   4.686 -0.7096  0.1312  0.1201
  908MOL0     H25258   6.867   6.861   4.766  0.9561  1.5629 -1.6623
  908MOL0     H25259   6.919   6.866   4.931  0.5933 -0.2105 -0.3403
  908MOL0     H25260   6.726   7.032   4.899 -0.6300 -0.2784 -1.6178
  908MOL0     H25261   6.886   7.113   4.944 -0.3520  0.1205  0.0548
  908MOL0     H25262   6.830   7.279   4.547 -0.6585 -2.4299  0.8325
  908MOL0     H25263   6.801   7.471   4.423  1.4535  1.1273 -0.7732
  908MOL0     H25264   6.909   7.594   4.507 -0.0292  0.6304  2.4632
  908MOL0     H25265   6.737   7.615   4.490  0.0027  0.0600  2.2526
  908MOL0     H25266   6.778   7.876   5.120 -0.9191  0.1865  0.8228
  908MOL0     H25267   6.745   8.101   5.164  1.0608  0.3647 -0.2318
  908MOL0     H25268   6.453   8.315   5.064  0.2076  3.5442 -1.7259
  908MOL0     H25269   6.579   8.263   5.184 -1.7403  0.3395  2.1486
  908MOL0     H25270   6.538   8.540   5.078  0.8719  0.7307 -0.6041
  908MOL0     H25271   6.550   8.487   5.251 -2.0490 -0.2795 -2.0649
  908MOL0     H25272   6.802   8.453   5.206 -0.8400 -0.0722  0.3560
  908MOL0     H25273   6.741   8.613   5.235  3.4252  0.3716 -1.1094
  908MOL0     H25274   6.719   8.628   4.975  1.4527  1.8596 -1.1433
  908MOL0     H25275   6.818   8.480   4.979  1.4610 -1.8045  4.4556
  908MOL0     H25276   6.904   8.757   5.083  3.3580  0.7616 -0.2460
  908MOL0     H25277   7.000   8.622   5.109  1.4947  1.4747 -0.5340
  908MOL0     H25278   6.924   8.690   4.817 -2.5615 -2.7256  1.0377
  908MOL0     H25279   7.026   8.563   4.874 -0.8669 -0.3086  0.8624
  908MOL0     H25280   7.176   8.741   4.991 -0.5312  1.8670  1.2305
  908MOL0     H25281   7.074   8.857   4.895  1.9015  0.1052 -4.5590
  908MOL0     H25282   7.248   8.638   4.792 -0.3730 -0.0151 -0.6439
  908MOL0     H25283   7.285   8.816   4.784  1.9927 -2.2573 -0.1084
  908MOL0     H25284   6.556   8.169   4.782 -0.5273 -2.3060 -1.4657
  908MOL0     H25285   6.572   7.914   4.746 -0.2918  2.5355 -1.5622
  908MOL0     H25286   6.722   7.497   4.965 -3.8691 -2.7335 -0.5387
  908MOL0     H25287   6.729   7.263   4.956 -0.3053 -0.0570  0.5830
  908MOL0     H25288   6.770   5.891   4.166 -1.2108 -0.1224 -3.3280
  908MOL0     H25289   6.623   5.962   3.986 -2.7473  0.0299  0.0411
  908MOL0     H25290   6.291   6.157   3.772  0.0127  0.4728 -1.3157
  908MOL0     H25291   6.102   6.247   3.655 -1.0691  1.7257  0.0713
  908MOL0     H25292   6.039   6.709   3.702 -0.0558  0.5305 -0.8802
  908MOL0     H25293   6.112   6.605   3.576  1.2133 -2.9091  1.6673
  908MOL0     H25294   5.817   6.615   3.610  0.2718 -0.3477 -1.1594
  908MOL0     H25295   5.909   6.594   3.457 -1.8338  0.0561  0.1560
  908MOL0     H25296   5.792   6.816   3.477  1.0280  2.9266 -1.3612
  908MOL0     H25297   5.924   6.848   3.604  1.4992 -3.5500  1.3579
  908MOL0     H25298   5.935   6.801   3.295  0.7516 -1.5816  0.7448
  908MOL0     H25299   6.072   6.751   3.391 -2.1427 -2.7289 -2.4627
  908MOL0     H25300   6.120   7.182   3.373 -1.6048  0.0396  0.9429
  908MOL0     H25301   6.159   6.616   3.886  2.5713 -0.5191  0.7427
  908MOL0     H25302   6.373   6.495   4.121 -1.8796 -1.1972 -0.6967
  908MOL0     H25303   6.447   6.581   3.971 -0.2870  3.1534  0.4151
  908MOL0     H25304   6.296   6.629   4.060  0.8205 -0.9408  3.0125
  909MOL0     O25305  11.057   1.699   5.257  0.0909 -0.2809  0.8693
  909MOL0     C25306  11.108   1.626   5.335  0.1698 -0.8598 -0.9095
  909MOL0     O25307  11.201   1.665   5.429  0.7095 -0.2484  0.2165
  909MOL0     C25308  11.256   1.794   5.426 -1.2221  0.7928  0.0501
  909MOL0     C25309  11.389   1.805   5.469 -0.3625  0.4303 -0.1097
  909MOL0     C25310  11.454   1.929   5.480  0.5770  0.2678  0.1631
  909MOL0     C25311  11.391   2.044   5.438  0.9309  0.3102  0.1748
  909MOL0     O25312  11.444   2.172   5.444 -0.0650 -0.2177 -0.3302
  909MOL0     C25313  11.589   2.173   5.481 -0.1585  1.1364  0.1688
  909MOL0     C25314  11.645   2.314   5.482  0.5071  0.9416  0.1295
  909MOL0     C25315  11.801   2.306   5.474  0.7570 -0.3034 -0.6216
  909MOL0     C25316  11.864   2.298   5.616  1.4268 -0.2498 -0.1897
  909MOL0     C25317  12.012   2.355   5.631  0.0967  0.6218  0.4581
  909MOL0     C25318  12.119   2.263   5.679  0.2606  0.8297 -0.4021
  909MOL0     C25319  12.241   2.328   5.758 -0.0737 -0.4492  0.2410
  909MOL0     C25320  12.315   2.416   5.648  0.6495 -0.4749 -0.1718
  909MOL0     N25321  12.355   2.344   5.528  0.8969  1.1473 -0.0721
  909MOL0     C25322  12.429   2.228   5.541 -0.1102  0.4793 -0.2689
  909MOL0     C25323  12.454   2.193   5.420 -0.0776 -0.0681 -0.4532
  909MOL0     C25324  12.520   2.067   5.382 -0.2300  0.0865  0.5829
  909MOL0     C25325  12.434   1.940   5.400 -0.4314  0.4465  0.1465
  909MOL0     C25326  12.494   1.813   5.324  0.4650 -0.6689 -1.1947
  909MOL0     C25327  12.637   1.766   5.383  0.5534  0.4526  0.9772
  909MOL0     O25328  12.623   1.758   5.524  0.0348 -0.3300 -0.1248
  909MOL0     C25329  12.701   1.689   5.602 -0.9176  1.0080 -0.4710
  909MOL0     C25330  12.834   1.659   5.561 -0.2862  0.3070 -0.0433
  909MOL0     C25331  12.914   1.575   5.641  1.2311  0.6364 -0.5417
  909MOL0     C25332  13.050   1.536   5.579 -0.1368  0.2502 -0.5433
  909MOL0     C25333  12.857   1.509   5.756 -0.4979 -0.2106  0.3215
  909MOL0     C25334  12.941   1.424   5.845  0.4703  0.3547 -0.0749
  909MOL0     O25335  13.054   1.364   5.802  0.8157  0.7291  0.6699
  909MOL0     C25336  13.164   1.359   5.880 -0.6868 -0.9252 -0.6714
  909MOL0     C25337  13.256   1.259   5.842 -0.4194 -0.6958  0.5995
  909MOL0     C25338  13.372   1.259   5.907 -0.5758  0.5993 -0.2647
  909MOL0     C25339  13.409   1.351   6.008  0.6001 -0.1471 -0.5149
  909MOL0     O25340  13.540   1.364   6.064  0.2479  0.1917 -0.8591
  909MOL0     C25341  13.638   1.262   6.036 -0.6718 -0.5872  0.2057
  909MOL0     C25342  13.774   1.325   6.063  0.6289  0.6999 -0.3037
  909MOL0     C25343  13.891   1.251   6.010  0.9093  0.3622 -0.3801
  909MOL0     C25344  14.018   1.332   6.033 -0.4415  0.2507  0.2069
  909MOL0     C25345  14.131   1.261   5.970  0.0250 -0.4341  0.0491
  909MOL0     C25346  14.265   1.339   5.980  0.3228 -0.0765 -1.0817
  909MOL0     C25347  14.371   1.289   5.891  0.1017 -0.8876 -0.3017
  909MOL0     C25348  14.494   1.371   5.887  1.0824  0.1807  0.5635
  909MOL0    Cl25349  14.570   1.391   6.047  0.0295 -0.0160  0.7933
  909MOL0     C25350  13.321   1.448   6.042 -0.2379  0.0344  0.4150
  909MOL0     C25351  13.201   1.460   5.973 -0.7986  0.7952  0.3996
  909MOL0     O25352  12.905   1.428   5.962 -0.3701 -0.4966  0.2942
  909MOL0     C25353  12.721   1.533   5.791  0.1594 -0.8597 -0.2776
  909MOL0     C25354  12.648   1.630   5.711 -0.2106 -0.2612 -0.4307
  909MOL0     N25355  12.404   2.291   5.330  0.2064  0.7384 -0.5356
  909MOL0     N25356  12.337   2.379   5.405 -0.8602  0.6655  0.8337
  909MOL0     C25357  11.255   2.033   5.396 -0.1642 -0.6894 -0.8624
  909MOL0     C25358  11.191   1.915   5.395  0.4504 -0.0180 -0.6025
  909MOL0     C25359  11.077   1.479   5.332  0.6933  1.2697  0.2718
  909MOL0     C25360  10.961   1.431   5.263 -0.3626  0.3268 -0.2570
  909MOL0     C25361  10.918   1.299   5.258 -0.5137  0.1915  0.0939
  909MOL0     C25362  10.986   1.201   5.329  1.1590  0.6280 -0.5111
  909MOL0     O25363  10.931   1.071   5.320 -0.0846 -0.5245 -0.0091
  909MOL0     C25364  10.977   0.981   5.417 -1.5189  0.7846  0.3955
  909MOL0     C25365  11.093   0.906   5.348 -0.4836  0.3086  0.0877
  909MOL0     C25366  11.199   0.866   5.443 -0.7663  0.1265  0.3356
  909MOL0     C25367  11.318   0.809   5.355 -0.1854 -0.4471 -0.4650
  909MOL0     C25368  11.430   0.912   5.329 -0.6854 -0.1805 -0.4504
  909MOL0     C25369  11.511   1.000   5.308 -0.5536  0.6119  0.7713
  909MOL0     C25370  11.100   1.247   5.402  0.3079 -0.6330  0.1697
  909MOL0     C25371  11.150   1.376   5.401 -0.0491 -0.1592  0.6890
  909MOL0     C25372  11.283   1.399   5.464 -0.4137 -0.4264  0.9774
  909MOL0     H25373  11.444   1.722   5.514 -1.2955 -0.6315 -0.8662
  909MOL0     H25374  11.544   1.927   5.541 -0.3223 -0.6488  1.5257
  909MOL0     H25375  11.655   2.113   5.418 -1.8753 -0.0476 -0.5896
  909MOL0     H25376  11.594   2.135   5.584 -2.2823  1.2835  0.3774
  909MOL0     H25377  11.615   2.362   5.388 -0.0043  2.7852  1.1731
  909MOL0     H25378  11.606   2.366   5.571  1.8810 -1.8578  2.5180
  909MOL0     H25379  11.825   2.216   5.416  0.9844  0.4463 -1.7312
  909MOL0     H25380  11.851   2.389   5.423 -0.7194  0.9671 -0.0666
  909MOL0     H25381  11.808   2.353   5.692  0.1750 -0.4634 -0.9201
  909MOL0     H25382  11.854   2.194   5.651 -2.8936 -0.2629 -0.8446
  909MOL0     H25383  11.996   2.433   5.706  0.6973  1.0446  0.1575
  909MOL0     H25384  12.042   2.400   5.535 -0.4417 -0.2839 -0.1419
  909MOL0     H25385  12.076   2.184   5.741  1.6383 -0.3812 -0.9288
  909MOL0     H25386  12.144   2.193   5.598 -0.7559 -0.2229  0.1705
  909MOL0     H25387  12.313   2.256   5.798 -0.7770 -0.7414  1.0035
  909MOL0     H25388  12.208   2.389   5.842  0.6491 -1.2080  1.0930
  909MOL0     H25389  12.248   2.499   5.626  0.0600 -0.6021  1.0525
  909MOL0     H25390  12.412   2.453   5.681 -0.1543 -0.2919  2.1506
  909MOL0     H25391  12.460   2.185   5.635 -3.1439  0.9384  1.0756
  909MOL0     H25392  12.609   2.060   5.444 -0.2560  1.8277  0.8569
  909MOL0     H25393  12.545   2.076   5.276 -0.4074 -0.5533  0.4763
  909MOL0     H25394  12.425   1.920   5.507  1.2979 -2.1559 -0.0916
  909MOL0     H25395  12.334   1.966   5.365 -1.1635  0.4971  2.1421
  909MOL0     H25396  12.424   1.730   5.316 -0.1760  0.0004 -2.8894
  909MOL0     H25397  12.511   1.837   5.219  0.5322 -1.1084 -1.2871
  909MOL0     H25398  12.682   1.680   5.333  2.9346  1.4281  1.2820
  909MOL0     H25399  12.699   1.854   5.361 -1.0722  0.9335 -2.2812
  909MOL0     H25400  12.884   1.710   5.479  1.3952 -0.3363  0.5419
  909MOL0     H25401  13.050   1.576   5.477  1.7293 -3.4057 -2.1825
  909MOL0     H25402  13.065   1.427   5.578  0.7037  0.3615 -0.9948
  909MOL0     H25403  13.119   1.576   5.653 -2.3079 -0.2947  1.8961
  909MOL0     H25404  13.231   1.174   5.779  3.4465 -0.4415 -1.5934
  909MOL0     H25405  13.443   1.178   5.890 -0.0285  0.1955  3.2730
  909MOL0     H25406  13.623   1.165   6.084 -0.9796 -0.3672  0.5557
  909MOL0     H25407  13.637   1.249   5.927 -0.0986  1.8965 -0.1487
  909MOL0     H25408  13.775   1.424   6.016 -0.8503  0.0642 -1.7685
  909MOL0     H25409  13.792   1.352   6.167  3.5080  0.8084 -0.7399
  909MOL0     H25410  13.881   1.235   5.903  3.1754  0.8558 -0.7241
  909MOL0     H25411  13.895   1.156   6.065 -1.1475  1.6040  2.1664
  909MOL0     H25412  14.032   1.353   6.140 -0.8695  0.4810  0.2208
  909MOL0     H25413  14.003   1.427   5.982 -1.5836  0.4632  0.8896
  909MOL0     H25414  14.134   1.160   6.011 -1.2026 -1.5164 -2.3376
  909MOL0     H25415  14.109   1.245   5.864 -1.4764  2.1475 -0.1157
  909MOL0     H25416  14.305   1.339   6.082 -1.6879 -4.2314 -0.0825
  909MOL0     H25417  14.252   1.446   5.960 -0.7654  1.0670  4.2550
  909MOL0     H25418  14.325   1.265   5.795 -1.2424 -3.1636  0.8214
  909MOL0     H25419  14.393   1.188   5.924 -1.7593 -1.2699 -0.0847
  909MOL0     H25420  14.460   1.468   5.852 -1.2975 -0.1913  1.6415
  909MOL0     H25421  14.569   1.322   5.824 -0.9607 -0.2034 -1.6710
  909MOL0     H25422  13.348   1.509   6.128  2.8451 -2.3092  1.2923
  909MOL0     H25423  13.125   1.535   5.996 -0.6014  1.2919 -0.5346
  909MOL0     H25424  12.665   1.491   5.873 -0.6916  0.5761 -0.1005
  909MOL0     H25425  12.540   1.635   5.725 -0.3192 -2.1812 -0.3172
  909MOL0     H25426  11.207   2.124   5.362 -0.9924 -1.6397 -2.3282
  909MOL0     H25427  11.087   1.912   5.364  0.2051 -1.5184  0.2558
  909MOL0     H25428  10.892   1.500   5.214  0.3459  1.3089  0.1061
  909MOL0     H25429  10.831   1.273   5.200 -0.4671 -0.1130  0.1596
  909MOL0     H25430  10.998   1.027   5.514  2.4345 -1.0653  0.6202
  909MOL0     H25431  10.894   0.911   5.432 -0.1444 -1.0657 -0.1486
  909MOL0     H25432  11.152   0.963   5.275  0.7340 -3.4446 -2.1698
  909MOL0     H25433  11.057   0.824   5.286  1.5883  0.1512 -0.9829
  909MOL0     H25434  11.234   0.944   5.511 -2.2988  1.6241 -0.5512
  909MOL0     H25435  11.166   0.776   5.495 -1.0190  1.5536  2.7582
  909MOL0     H25436  11.280   0.748   5.272  0.6529 -1.1244 -0.3623
  909MOL0     H25437  11.367   0.728   5.410 -1.7749 -1.2800 -0.2416
  909MOL0     H25438  11.578   1.076   5.275  0.8710 -1.4216 -1.2604
  909MOL0     H25439  11.162   1.175   5.454 -1.6127 -1.1310  1.8742
  909MOL0     H25440  11.345   1.309   5.463  1.4505  0.7430 -2.1458
  909MOL0     H25441  11.336   1.470   5.400 -0.7273 -1.2725 -0.2462
  909MOL0     H25442  11.272   1.426   5.570 -4.5007 -1.0148  0.8381
  910MOL0     O25443   6.711   0.298   2.608 -0.2401 -0.0780 -0.2433
  910MOL0     C25444   6.667   0.216   2.688  1.0144 -0.7394  0.9312
  910MOL0     O25445   6.709   0.200   2.811  0.5367  0.2576  0.6903
  910MOL0     C25446   6.767   0.310   2.861 -0.1934  0.4923 -0.4362
  910MOL0     C25447   6.905   0.299   2.873 -0.0887 -0.0376  0.0495
  910MOL0     C25448   6.982   0.406   2.935  0.2304  0.1379 -0.1201
  910MOL0     C25449   6.914   0.519   2.985 -1.4064  0.0596 -0.6782
  910MOL0     O25450   6.993   0.616   3.042 -0.7485  0.0752 -0.1452
  910MOL0     C25451   6.932   0.735   3.104 -0.8952 -0.0308 -0.0738
  910MOL0     C25452   7.031   0.850   3.148  0.7370  0.0747  0.4263
  910MOL0     C25453   6.956   0.966   3.208 -0.9363 -0.6929 -0.3242
  910MOL0     C25454   7.050   1.088   3.247  0.2022  0.2136  0.3860
  910MOL0     C25455   6.960   1.215   3.254 -0.1534  0.3045 -0.1793
  910MOL0     C25456   7.046   1.339   3.284  0.2134 -0.2391  0.6275
  910MOL0     C25457   6.958   1.462   3.297 -0.2255 -0.4494 -0.4605
  910MOL0     C25458   6.903   1.525   3.162  0.4334  0.0316 -0.8698
  910MOL0     N25459   6.930   1.669   3.157  0.1055  0.4540  0.8558
  910MOL0     C25460   7.044   1.726   3.100  1.1068 -0.0147 -1.1505
  910MOL0     C25461   7.010   1.859   3.100 -0.2420 -0.0007 -0.7526
  910MOL0     C25462   7.088   1.964   3.030  0.5078  0.1332 -0.5168
  910MOL0     C25463   7.238   1.953   3.064 -0.5170  0.9002  0.7003
  910MOL0     C25464   7.266   1.992   3.218 -0.3667  0.0627  0.8534
  910MOL0     C25465   7.368   1.906   3.276 -0.4563 -0.4487 -0.1395
  910MOL0     O25466   7.329   1.777   3.297 -0.1278  0.5764 -0.3132
  910MOL0     C25467   7.428   1.681   3.303  0.5845  0.8682 -0.1616
  910MOL0     C25468   7.400   1.540   3.296 -0.5351 -0.6507 -0.0894
  910MOL0     C25469   7.504   1.442   3.304  0.6851 -0.4377  0.8015
  910MOL0     C25470   7.474   1.298   3.288  0.3113  0.5171  0.2720
  910MOL0     C25471   7.636   1.481   3.330 -0.4177 -0.0781  0.6472
  910MOL0     C25472   7.747   1.387   3.331  0.1966 -0.3962  0.3030
  910MOL0     O25473   7.743   1.274   3.413  0.1883 -0.0529  0.1672
  910MOL0     C25474   7.864   1.219   3.448 -0.5712  0.0300  0.3959
  910MOL0     C25475   7.921   1.255   3.568 -0.1858 -0.7777  0.3281
  910MOL0     C25476   8.050   1.209   3.611  0.4334  0.2293 -0.3069
  910MOL0     C25477   8.126   1.131   3.523 -0.0126 -0.5613  0.2790
  910MOL0     O25478   8.253   1.087   3.557 -0.2196  0.3429 -0.0531
  910MOL0     C25479   8.315   1.005   3.458 -0.1081 -0.0989 -0.0879
  910MOL0     C25480   8.439   0.959   3.516 -0.5874  0.1224  0.6917
  910MOL0     C25481   8.532   0.900   3.417 -0.1736 -0.1062 -0.4385
  910MOL0     C25482   8.662   0.826   3.476 -0.0418  0.1680  0.1862
  910MOL0     C25483   8.745   0.743   3.379 -0.5445  0.4173 -0.4313
  910MOL0     C25484   8.671   0.615   3.339 -1.1996 -0.8154  0.7516
  910MOL0     C25485   8.702   0.581   3.188 -0.5228  0.2424 -0.2964
  910MOL0     C25486   8.663   0.432   3.156 -0.8926  0.4779 -0.4136
  910MOL0    Cl25487   8.653   0.418   2.977  0.7320 -0.1982 -0.2480
  910MOL0     C25488   8.066   1.099   3.397 -0.4290 -0.4982  0.0807
  910MOL0     C25489   7.940   1.145   3.358  0.0056  0.9573 -0.2136
  910MOL0     O25490   7.834   1.424   3.255 -0.2501 -0.4217 -0.4286
  910MOL0     C25491   7.663   1.618   3.341  0.1099  0.5228 -0.0193
  910MOL0     C25492   7.557   1.716   3.339 -0.4892  1.1048 -0.1566
  910MOL0     N25493   6.884   1.874   3.155 -0.1301 -0.0410  1.0899
  910MOL0     N25494   6.836   1.760   3.186  0.2168 -0.3077  0.2307
  910MOL0     C25495   6.772   0.522   2.980  0.0264  0.5247 -0.0364
  910MOL0     C25496   6.709   0.422   2.915  0.6854  0.2903 -0.1703
  910MOL0     C25497   6.540   0.137   2.650  0.8390  0.1094  0.4542
  910MOL0     C25498   6.449   0.115   2.751 -0.3588 -0.3395 -1.1131
  910MOL0     C25499   6.319   0.062   2.733  0.3207  1.4451  0.3527
  910MOL0     C25500   6.284   0.013   2.609  0.1638  0.1978  0.5004
  910MOL0     O25501   6.165  -0.050   2.580 -0.5491  0.0238  0.5123
  910MOL0     C25502   6.076  -0.075   2.684  0.9669 -0.1282  0.2379
  910MOL0     C25503   5.963  -0.165   2.633 -0.3395  0.6626 -0.2889
  910MOL0     C25504   6.010  -0.273   2.535  0.2526  0.4811  0.0256
  910MOL0     C25505   5.890  -0.369   2.503  0.0308  0.3999  0.5400
  910MOL0     C25506   5.823  -0.306   2.389 -0.6369  0.5758 -0.1611
  910MOL0     C25507   5.757  -0.253   2.304 -0.1757  0.2663 -0.9517
  910MOL0     C25508   6.377   0.023   2.505 -0.1662 -0.0019  0.1920
  910MOL0     C25509   6.499   0.092   2.525  0.4018  0.1942  0.7495
  910MOL0     C25510   6.576   0.118   2.391 -0.1869  0.3780  0.1421
  910MOL0     H25511   6.963   0.211   2.849  0.7838 -0.1335  2.3236
  910MOL0     H25512   7.090   0.395   2.945  0.4175  0.4691 -1.4798
  910MOL0     H25513   6.874   0.703   3.191  1.1886 -0.4871  1.2324
  910MOL0     H25514   6.859   0.783   3.039 -1.6261  0.7053  1.2341
  910MOL0     H25515   7.109   0.815   3.217  0.9918  1.0951  0.6776
  910MOL0     H25516   7.083   0.892   3.061 -0.6483  3.0128  0.8949
  910MOL0     H25517   6.875   1.004   3.145 -1.7682 -1.6551  0.1428
  910MOL0     H25518   6.911   0.936   3.303  1.3277 -1.1263  0.6767
  910MOL0     H25519   7.092   1.071   3.347  0.0833  0.0602  0.4107
  910MOL0     H25520   7.130   1.106   3.175  0.6372  3.1062  1.4689
  910MOL0     H25521   6.891   1.193   3.336  0.8083  0.0473  0.5922
  910MOL0     H25522   6.905   1.235   3.162 -3.7511 -1.1915  1.4313
  910MOL0     H25523   7.101   1.321   3.377  0.1346  1.4426  1.0332
  910MOL0     H25524   7.122   1.359   3.207 -1.0805  0.5538 -0.4918
  910MOL0     H25525   7.031   1.537   3.328  1.7902 -1.4151 -2.5745
  910MOL0     H25526   6.894   1.443   3.384 -3.5097 -0.3652 -2.6689
  910MOL0     H25527   6.947   1.468   3.080  4.7224  0.6642  0.7096
  910MOL0     H25528   6.794   1.521   3.166  0.4502 -2.0904  3.6783
  910MOL0     H25529   7.138   1.678   3.074  2.1301  1.1441  0.2627
  910MOL0     H25530   7.050   2.065   3.049  3.5419  1.3543 -0.4132
  910MOL0     H25531   7.077   1.951   2.922 -2.0212 -3.4579 -0.0118
  910MOL0     H25532   7.274   1.851   3.048  0.8959  1.4171  0.4501
  910MOL0     H25533   7.303   2.018   3.005  0.4337  0.4750  1.2516
  910MOL0     H25534   7.309   2.092   3.214  0.4381 -0.2704  0.9293
  910MOL0     H25535   7.173   1.994   3.277 -0.9519 -1.7739  0.0671
  910MOL0     H25536   7.449   1.918   3.203  0.0241 -2.2894  0.0363
  910MOL0     H25537   7.407   1.943   3.372  0.9157  0.0535 -0.8688
  910MOL0     H25538   7.300   1.514   3.263 -1.5142  0.4050  1.8520
  910MOL0     H25539   7.448   1.265   3.389  0.5657  0.0382  0.1862
  910MOL0     H25540   7.541   1.222   3.248 -0.2970  0.4136 -0.5836
  910MOL0     H25541   7.390   1.284   3.218  0.4048  0.6462  0.1336
  910MOL0     H25542   7.854   1.302   3.640  1.6664 -2.3082  3.2217
  910MOL0     H25543   8.079   1.227   3.714  0.6126 -3.1757  0.3525
  910MOL0     H25544   8.249   0.920   3.437 -1.9366  1.0201  0.8088
  910MOL0     H25545   8.336   1.064   3.368  0.4143  3.5911  2.2350
  910MOL0     H25546   8.484   1.052   3.552  2.1933 -0.7531 -0.2821
  910MOL0     H25547   8.422   0.888   3.598 -1.5276 -2.0049 -1.2234
  910MOL0     H25548   8.566   0.981   3.352 -3.0432  0.0279 -1.9378
  910MOL0     H25549   8.478   0.840   3.342 -0.3356  2.7193 -2.7657
  910MOL0     H25550   8.627   0.762   3.558 -4.8079  1.2261 -0.7267
  910MOL0     H25551   8.724   0.906   3.517 -0.0988 -0.7875  2.3188
  910MOL0     H25552   8.751   0.801   3.286 -1.0313 -0.3276 -0.9343
  910MOL0     H25553   8.848   0.728   3.412 -0.0978  0.1678 -1.8557
  910MOL0     H25554   8.564   0.633   3.343 -1.3825 -1.1254 -1.2858
  910MOL0     H25555   8.703   0.528   3.398  0.2856 -2.1909 -1.8661
  910MOL0     H25556   8.805   0.593   3.155 -0.9823 -2.5367 -3.2203
  910MOL0     H25557   8.643   0.657   3.136  0.8648  1.2769 -0.3954
  910MOL0     H25558   8.563   0.413   3.196 -0.9380 -2.3256 -1.6376
  910MOL0     H25559   8.730   0.358   3.201 -1.2754  0.9795  1.0280
  910MOL0     H25560   8.107   1.042   3.314 -2.6687  1.1512 -2.3021
  910MOL0     H25561   7.898   1.126   3.259  0.6247  0.3104 -0.3640
  910MOL0     H25562   7.765   1.647   3.365 -0.0660  0.3863  0.9177
  910MOL0     H25563   7.585   1.819   3.357  0.6190  1.1048 -1.7287
  910MOL0     H25564   6.715   0.604   3.023  0.5551  1.2270 -0.6468
  910MOL0     H25565   6.601   0.430   2.911  0.3968 -2.0151  1.2015
  910MOL0     H25566   6.472   0.147   2.852  0.4532  0.6461 -1.5910
  910MOL0     H25567   6.250   0.057   2.817 -0.7667 -0.0722 -0.5576
  910MOL0     H25568   6.130  -0.120   2.767  1.9797  3.6943  1.8705
  910MOL0     H25569   6.043   0.026   2.712  1.2163 -0.2973  1.1677
  910MOL0     H25570   5.880  -0.105   2.596 -1.3079 -0.6538 -0.3481
  910MOL0     H25571   5.926  -0.209   2.726  0.3552 -0.3504 -0.4770
  910MOL0     H25572   6.049  -0.229   2.443 -1.0760  0.2081 -0.7003
  910MOL0     H25573   6.090  -0.327   2.587  1.0890  0.1152 -1.5900
  910MOL0     H25574   5.821  -0.376   2.587  0.5507 -0.2655  0.9230
  910MOL0     H25575   5.941  -0.463   2.480  4.6057  1.4980  4.5692
  910MOL0     H25576   5.708  -0.192   2.231  0.6876  0.7007 -1.1762
  910MOL0     H25577   6.348  -0.025   2.412  0.4849  1.1751 -0.6430
  910MOL0     H25578   6.683   0.104   2.408 -0.8184 -1.9253  2.9844
  910MOL0     H25579   6.541   0.048   2.314 -0.4302  2.0544 -1.3420
  910MOL0     H25580   6.561   0.214   2.340  0.6415  0.1563 -0.5659
  911MOL0     O25581  11.070  10.229   9.375 -0.9151  0.1259 -0.1999
  911MOL0     C25582  11.001  10.204   9.272 -0.1968 -0.2598  0.5868
  911MOL0     O25583  10.990  10.089   9.200 -0.7649  0.7427 -0.0252
  911MOL0     C25584  11.090  10.000   9.226 -0.3464 -0.2446 -0.5314
  911MOL0     C25585  11.048   9.871   9.251 -0.4161 -0.2373  0.2787
  911MOL0     C25586  11.129   9.759   9.259 -0.6129 -0.7346  0.3986
  911MOL0     C25587  11.265   9.779   9.249 -1.0194  0.2579 -0.6210
  911MOL0     O25588  11.352   9.675   9.240 -0.0765 -0.6299  0.3469
  911MOL0     C25589  11.502   9.699   9.261  2.0326 -0.1254  0.0046
  911MOL0     C25590  11.568   9.722   9.120 -0.1717  0.3312 -0.2245
  911MOL0     C25591  11.708   9.777   9.132 -0.6818 -1.0814 -0.5129
  911MOL0     C25592  11.735   9.909   9.209  0.0810  0.1139  0.1057
  911MOL0     C25593  11.889   9.940   9.231 -0.1698  0.9956  0.0663
  911MOL0     C25594  11.920  10.032   9.340 -0.2269  0.4358 -0.6558
  911MOL0     C25595  12.075  10.032   9.375  0.1831 -0.0402  0.8837
  911MOL0     C25596  12.115   9.910   9.461 -0.0140 -0.3358 -0.1436
  911MOL0     N25597  12.235   9.943   9.543  0.4399 -0.2866 -0.0476
  911MOL0     C25598  12.355   9.981   9.491  0.5804  0.3507  0.1890
  911MOL0     C25599  12.435  10.011   9.594 -0.8629  0.5508  0.3223
  911MOL0     C25600  12.584  10.052   9.575 -0.5012 -0.0870 -0.7174
  911MOL0     C25601  12.671  10.080   9.701 -0.2863  0.5470  0.7118
  911MOL0     C25602  12.688   9.951   9.787 -0.0334 -0.4854  0.7048
  911MOL0     C25603  12.774   9.996   9.907 -0.1983  0.5230  0.3164
  911MOL0     O25604  12.918  10.004   9.870  1.2144 -0.3181  0.0087
  911MOL0     C25605  12.993   9.886   9.875  0.4400 -0.8912 -1.0445
  911MOL0     C25606  13.133   9.907   9.873  0.7576 -0.2822 -1.6712
  911MOL0     C25607  13.214   9.794   9.898 -0.3753  0.2072 -1.3151
  911MOL0     C25608  13.364   9.826   9.914  0.4994  0.1739 -0.1475
  911MOL0     C25609  13.161   9.664   9.919 -0.0502  0.0632 -0.1920
  911MOL0     C25610  13.237   9.537   9.937 -0.4363 -0.1417  0.2554
  911MOL0     O25611  13.163   9.424   9.916 -0.0588 -0.4149  0.1216
  911MOL0     C25612  13.204   9.295   9.955 -0.1420  0.6834 -0.2427
  911MOL0     C25613  13.262   9.262  10.081  0.3516 -0.2482 -0.8439
  911MOL0     C25614  13.308   9.138  10.108 -1.2725  0.3437 -0.1530
  911MOL0     C25615  13.290   9.036  10.006  0.1711  0.1521  0.0029
  911MOL0     O25616  13.338   8.911  10.010  0.0941  0.4473 -0.0660
  911MOL0     C25617  13.478   8.893  10.048 -1.0581 -0.5688  0.0706
  911MOL0     C25618  13.549   8.778   9.980 -0.3209 -0.2114  0.2319
  911MOL0     C25619  13.500   8.631  10.005 -0.4288  0.4596 -0.2374
  911MOL0     C25620  13.583   8.578  10.120 -0.8442 -0.1260 -0.0701
  911MOL0     C25621  13.544   8.437  10.155  0.2416 -0.9637  0.4341
  911MOL0     C25622  13.584   8.403  10.297 -0.0992  0.2657 -0.1643
  911MOL0     C25623  13.738   8.393  10.311 -0.8115  0.7420 -0.1298
  911MOL0     C25624  13.774   8.378  10.469 -0.2929 -0.0383  0.4462
  911MOL0    Cl25625  13.666   8.259  10.553 -0.2237  0.2389 -0.1239
  911MOL0     C25626  13.233   9.070   9.891  0.4714 -0.7573 -0.2487
  911MOL0     C25627  13.180   9.197   9.861 -0.5935 -0.4660  0.0855
  911MOL0     O25628  13.351   9.542   9.979  0.4186  0.1514 -0.0155
  911MOL0     C25629  13.025   9.652   9.909  0.2467  0.4125  0.3163
  911MOL0     C25630  12.940   9.762   9.890 -0.0557  0.5002  0.7473
  911MOL0     N25631  12.367   9.987   9.714  0.1391 -0.1186  0.3557
  911MOL0     N25632  12.242   9.956   9.681 -0.4533 -0.5803 -0.3415
  911MOL0     C25633  11.314   9.916   9.229 -0.3701 -0.2214  0.1389
  911MOL0     C25634  11.226  10.018   9.204  0.5462 -0.7248  0.0433
  911MOL0     C25635  10.916  10.321   9.222 -0.5965 -0.1954 -0.2714
  911MOL0     C25636  10.802  10.298   9.142  0.1602  0.6224  0.8886
  911MOL0     C25637  10.719  10.402   9.106 -0.3751  0.8219  0.6317
  911MOL0     C25638  10.738  10.531   9.142 -0.2630 -0.0655  0.1775
  911MOL0     O25639  10.665  10.640   9.094 -0.4299  0.0982 -0.2050
  911MOL0     C25640  10.699  10.770   9.131 -0.0280 -0.2426  0.1292
  911MOL0     C25641  10.591  10.868   9.071 -0.2202  0.4793 -0.6657
  911MOL0     C25642  10.607  10.907   8.926 -0.3135  0.7339  0.6705
  911MOL0     C25643  10.489  10.988   8.881 -0.1974 -0.6655  0.3722
  911MOL0     C25644  10.486  11.002   8.736  0.2531  0.5738 -0.7783
  911MOL0     C25645  10.472  11.029   8.620 -0.4453 -0.3768  0.6654
  911MOL0     C25646  10.847  10.559   9.233  0.5894 -0.1835 -0.3769
  911MOL0     C25647  10.938  10.464   9.270  0.5787 -0.0161  0.0377
  911MOL0     C25648  11.068  10.513   9.331  0.4500 -0.6274  0.2561
  911MOL0     H25649  10.941   9.855   9.265 -0.3590  0.0510  1.0915
  911MOL0     H25650  11.083   9.660   9.252 -1.2779 -0.4255  0.3234
  911MOL0     H25651  11.530   9.606   9.310  1.5919 -0.6314 -0.6833
  911MOL0     H25652  11.513   9.784   9.329 -0.2318  0.1892  0.0606
  911MOL0     H25653  11.572   9.625   9.070 -1.8020 -0.4838  1.1103
  911MOL0     H25654  11.505   9.785   9.057  0.5238  0.2012 -1.0677
  911MOL0     H25655  11.769   9.694   9.171  1.0022 -0.2778 -1.3405
  911MOL0     H25656  11.753   9.788   9.033 -1.3920 -1.8953 -0.9365
  911MOL0     H25657  11.676   9.991   9.167 -1.1929 -0.0009  1.5992
  911MOL0     H25658  11.690   9.900   9.308 -3.9601  1.4028 -1.3913
  911MOL0     H25659  11.929   9.971   9.134  0.6796 -2.6223 -0.8894
  911MOL0     H25660  11.941   9.846   9.247  3.7833  2.9446 -0.0598
  911MOL0     H25661  11.890  10.133   9.313 -0.3328  0.7373  0.5280
  911MOL0     H25662  11.862  10.005   9.429 -0.3521  2.8670  0.0477
  911MOL0     H25663  12.091  10.120   9.437  0.3310 -0.9972  2.2453
  911MOL0     H25664  12.145  10.031   9.291  0.3842 -2.4634  0.9880
  911MOL0     H25665  12.034   9.888   9.531  1.5213  2.1193  2.5777
  911MOL0     H25666  12.124   9.817   9.403  0.9904 -1.3258  1.5229
  911MOL0     H25667  12.386   9.985   9.387 -1.3244 -0.5473 -0.4429
  911MOL0     H25668  12.582  10.140   9.510 -1.4428 -0.5969 -1.4100
  911MOL0     H25669  12.622   9.965   9.521 -1.8140 -0.5079 -1.0061
  911MOL0     H25670  12.769  10.097   9.655  0.0222 -0.7848  0.8249
  911MOL0     H25671  12.622  10.163   9.753 -1.4634  0.2324  0.1318
  911MOL0     H25672  12.592   9.902   9.804 -1.0083 -0.5453 -3.7686
  911MOL0     H25673  12.748   9.887   9.723 -1.2146  0.7881 -1.8149
  911MOL0     H25674  12.755  10.099   9.940  1.9646  1.0025  0.2789
  911MOL0     H25675  12.754   9.924   9.986 -4.1106  0.1349 -0.8420
  911MOL0     H25676  13.164  10.011   9.871 -1.0085  0.2790 -3.9981
  911MOL0     H25677  13.403   9.824  10.016 -2.0404  1.6426  0.9405
  911MOL0     H25678  13.378   9.924   9.867  0.6425  0.4486  0.4638
  911MOL0     H25679  13.424   9.756   9.855  2.9144  0.6043  1.6459
  911MOL0     H25680  13.272   9.348  10.146 -0.6823 -0.3733 -0.5083
  911MOL0     H25681  13.362   9.117  10.200  0.7277 -1.4755 -1.6458
  911MOL0     H25682  13.530   8.983  10.014  0.7189 -1.7467 -0.4983
  911MOL0     H25683  13.493   8.887  10.157 -2.1996  2.6247  0.5036
  911MOL0     H25684  13.535   8.786   9.872  1.3321 -0.9395 -0.0740
  911MOL0     H25685  13.656   8.785  10.005 -0.5630  1.5520  0.9575
  911MOL0     H25686  13.516   8.565   9.919  0.0059 -0.9398  0.8927
  911MOL0     H25687  13.393   8.628  10.027 -0.1337  1.3750  1.4476
  911MOL0     H25688  13.586   8.648  10.205 -3.9477  1.1158 -0.8373
  911MOL0     H25689  13.684   8.576  10.079 -1.7611 -1.4075 -2.4063
  911MOL0     H25690  13.435   8.435  10.165  0.1753  0.6525  0.1838
  911MOL0     H25691  13.570   8.360  10.082 -0.6706 -0.3614 -0.5462
  911MOL0     H25692  13.532   8.310  10.321 -0.0920 -0.0660 -1.3928
  911MOL0     H25693  13.543   8.473  10.370 -0.0011 -1.4078  1.5817
  911MOL0     H25694  13.784   8.487  10.282 -1.8487  1.6382  1.0468
  911MOL0     H25695  13.767   8.300  10.260 -2.3963 -0.6370  1.3602
  911MOL0     H25696  13.754   8.471  10.524 -1.1242 -0.5976  1.1282
  911MOL0     H25697  13.878   8.348  10.483 -0.3844 -1.9027 -2.2251
  911MOL0     H25698  13.205   8.987   9.827  2.5166 -0.8027 -1.1658
  911MOL0     H25699  13.123   9.228   9.774 -1.2044  1.0984  0.9955
  911MOL0     H25700  12.972   9.563   9.940  1.0477  0.0874  0.7836
  911MOL0     H25701  12.834   9.736   9.892 -0.0242  0.2365 -0.2715
  911MOL0     H25702  11.419   9.942   9.216 -0.5417 -0.2325 -1.4717
  911MOL0     H25703  11.250  10.119   9.171 -0.3223 -0.4585  0.2001
  911MOL0     H25704  10.770  10.196   9.120  2.5917 -0.3225  1.3646
  911MOL0     H25705  10.630  10.382   9.046  0.6798 -1.6459 -0.2613
  911MOL0     H25706  10.688  10.776   9.240 -2.6911  1.7929 -0.1580
  911MOL0     H25707  10.803  10.794   9.106  0.9668 -1.4910  2.6962
  911MOL0     H25708  10.593  10.961   9.129  2.7147  0.9965 -1.4254
  911MOL0     H25709  10.494  10.820   9.085  1.1818 -1.9372  1.8031
  911MOL0     H25710  10.703  10.956   8.910 -1.7968  3.6344 -0.1047
  911MOL0     H25711  10.619  10.815   8.869 -2.0358 -0.5726  2.2843
  911MOL0     H25712  10.495  11.088   8.924  0.4698 -0.3307 -0.4476
  911MOL0     H25713  10.401  10.935   8.918  0.2578 -2.6710 -1.2110
  911MOL0     H25714  10.444  11.051   8.519  0.6434  1.1738  0.6757
  911MOL0     H25715  10.861  10.654   9.283  0.2001  0.9478 -2.3310
  911MOL0     H25716  11.094  10.476   9.430  0.0487 -0.1163  0.5607
  911MOL0     H25717  11.152  10.497   9.262  0.9928 -0.0837  0.7889
  911MOL0     H25718  11.058  10.619   9.355 -0.3282 -0.9639  1.4953
  912MOL0     O25719   2.494   3.458   5.773  0.2345 -0.1403  0.1601
  912MOL0     C25720   2.534   3.543   5.691 -0.2922 -0.4319 -0.6484
  912MOL0     O25721   2.461   3.647   5.629 -0.2325  0.0125 -0.6161
  912MOL0     C25722   2.325   3.653   5.638  0.0607 -0.0348  0.4518
  912MOL0     C25723   2.246   3.538   5.630  1.2418  0.4273 -0.4307
  912MOL0     C25724   2.105   3.537   5.660 -0.1915  0.8355  0.8371
  912MOL0     C25725   2.035   3.660   5.663  0.8162 -0.6130  0.6521
  912MOL0     O25726   1.897   3.656   5.677 -0.2088  0.9960 -0.0385
  912MOL0     C25727   1.829   3.774   5.637 -1.0315  0.6278  0.4768
  912MOL0     C25728   1.680   3.746   5.644  0.1822  0.3671 -0.2743
  912MOL0     C25729   1.658   3.604   5.592  0.0243  0.3012 -1.1140
  912MOL0     C25730   1.515   3.572   5.551  0.3731  0.4759 -0.9705
  912MOL0     C25731   1.441   3.493   5.663  0.0281 -0.3349 -0.6976
  912MOL0     C25732   1.294   3.479   5.628 -0.0068  0.9698 -0.4442
  912MOL0     C25733   1.222   3.383   5.732 -1.1177 -0.0576  0.9787
  912MOL0     C25734   1.085   3.435   5.779 -1.0359  0.5874  0.3104
  912MOL0     N25735   1.119   3.567   5.833  0.5627 -0.0776  0.0787
  912MOL0     C25736   1.211   3.581   5.941  0.7498  0.4985  0.1619
  912MOL0     C25737   1.193   3.713   5.974 -1.2130 -0.2297 -0.2433
  912MOL0     C25738   1.284   3.785   6.077 -0.4318  0.6038 -0.5826
  912MOL0     C25739   1.428   3.736   6.063  0.0760 -0.0905 -0.9553
  912MOL0     C25740   1.519   3.834   6.148  0.4057 -0.5289  0.3461
  912MOL0     C25741   1.672   3.812   6.123  0.5341  0.7865 -0.2641
  912MOL0     O25742   1.766   3.900   6.192  0.3059 -0.3761 -0.8020
  912MOL0     C25743   1.896   3.894   6.142 -0.2944 -0.7567  0.3167
  912MOL0     C25744   1.985   3.975   6.222 -0.7537 -0.2115 -0.0751
  912MOL0     C25745   2.123   3.975   6.199  0.5380 -0.2601  0.1055
  912MOL0     C25746   2.216   4.048   6.296  0.0275  0.4702  0.8439
  912MOL0     C25747   2.171   3.903   6.088 -0.1898  0.1915 -0.2698
  912MOL0     C25748   2.321   3.889   6.062  0.6947  0.3187  0.6261
  912MOL0     O25749   2.402   3.995   6.086  0.0449 -0.2927  0.2368
  912MOL0     C25750   2.536   3.963   6.079  0.4847  0.9448  1.2048
  912MOL0     C25751   2.612   3.977   6.200  0.1088  0.3603  0.0227
  912MOL0     C25752   2.751   3.961   6.199  0.1173 -0.1651  0.1692
  912MOL0     C25753   2.813   3.912   6.083 -0.2200 -0.8830 -0.6395
  912MOL0     O25754   2.943   3.870   6.092 -0.2778 -0.4669 -0.4837
  912MOL0     C25755   2.973   3.774   6.199  0.1383 -0.5299  0.0767
  912MOL0     C25756   3.124   3.744   6.202  0.3238  0.1988  0.5031
  912MOL0     C25757   3.169   3.673   6.067  0.4089  0.3386 -0.1906
  912MOL0     C25758   3.319   3.672   6.051  0.6265  0.4871  0.6229
  912MOL0     C25759   3.365   3.612   5.919  0.1653 -0.3484  0.6289
  912MOL0     C25760   3.512   3.654   5.905 -0.8556 -0.1565 -0.0414
  912MOL0     C25761   3.564   3.614   5.763 -0.9062 -0.1241  0.2899
  912MOL0     C25762   3.718   3.639   5.742  0.9891 -0.3437  0.3838
  912MOL0    Cl25763   3.806   3.541   5.869 -0.3580  1.0200  0.1047
  912MOL0     C25764   2.741   3.889   5.968 -0.2772 -1.1298  0.5244
  912MOL0     C25765   2.608   3.919   5.966  0.2100  0.1768 -0.3545
  912MOL0     O25766   2.365   3.776   6.033  0.6298  0.5480 -0.2014
  912MOL0     C25767   2.086   3.825   6.008  0.4088 -0.1836  0.6260
  912MOL0     C25768   1.950   3.819   6.041  0.3387 -0.0184  0.1500
  912MOL0     N25769   1.116   3.773   5.886 -0.2846 -0.2418 -0.0394
  912MOL0     N25770   1.072   3.696   5.804  0.4345  0.5843  0.5487
  912MOL0     C25771   2.114   3.776   5.660  0.5109 -0.7356  0.2657
  912MOL0     C25772   2.250   3.774   5.636  0.2169  0.1516  0.1054
  912MOL0     C25773   2.678   3.535   5.654  0.8887 -0.5324  0.3199
  912MOL0     C25774   2.708   3.551   5.518 -1.0589 -0.1836 -0.1272
  912MOL0     C25775   2.847   3.544   5.474  0.4647  0.1916 -0.1690
  912MOL0     C25776   2.947   3.537   5.573 -0.2476 -0.1611  0.0812
  912MOL0     O25777   3.079   3.527   5.551 -0.2904 -0.1942  0.3376
  912MOL0     C25778   3.135   3.501   5.427  0.2566 -0.1495  0.2667
  912MOL0     C25779   3.162   3.344   5.420  0.0392  0.4065  0.5009
  912MOL0     C25780   3.264   3.297   5.524  0.2871  0.0917  0.4475
  912MOL0     C25781   3.397   3.370   5.504  0.6548  0.3749 -0.0138
  912MOL0     C25782   3.508   3.291   5.556  1.0125  0.7572 -0.0877
  912MOL0     C25783   3.586   3.218   5.612 -0.6378 -0.2237 -0.0670
  912MOL0     C25784   2.911   3.533   5.706 -0.2321 -0.3916 -0.1154
  912MOL0     C25785   2.779   3.537   5.752 -0.3581 -0.2396  0.2170
  912MOL0     C25786   2.751   3.519   5.902  0.2911  0.0712 -0.5867
  912MOL0     H25787   2.285   3.437   5.617 -2.2447 -1.1693  0.2212
  912MOL0     H25788   2.068   3.435   5.672  0.2485  0.3502 -1.4036
  912MOL0     H25789   1.859   3.801   5.535  2.8738 -1.0131  0.9943
  912MOL0     H25790   1.863   3.848   5.709  2.5296 -1.7746  1.5230
  912MOL0     H25791   1.652   3.752   5.749 -0.3737 -1.6390 -0.2520
  912MOL0     H25792   1.629   3.818   5.580 -1.8377  1.2972  2.2176
  912MOL0     H25793   1.729   3.577   5.513 -0.3936 -3.2766 -0.4587
  912MOL0     H25794   1.675   3.532   5.673 -2.1578  0.1159 -0.7658
  912MOL0     H25795   1.455   3.663   5.547 -5.9842 -3.0461  1.0728
  912MOL0     H25796   1.509   3.529   5.450  0.9118 -1.8628 -0.0840
  912MOL0     H25797   1.456   3.545   5.758 -0.9649 -1.9832  0.4235
  912MOL0     H25798   1.492   3.396   5.670 -0.0538 -0.4384 -1.4537
  912MOL0     H25799   1.255   3.581   5.636  0.3167  1.3141 -2.6562
  912MOL0     H25800   1.283   3.443   5.525 -0.4497  3.7659 -1.4788
  912MOL0     H25801   1.293   3.374   5.815 -3.3495 -1.1911  2.8603
  912MOL0     H25802   1.201   3.284   5.692 -0.7815  0.5709 -0.8651
  912MOL0     H25803   1.011   3.435   5.698 -0.2496 -0.0492 -0.4339
  912MOL0     H25804   1.045   3.368   5.856 -2.4999  0.3721 -0.5986
  912MOL0     H25805   1.260   3.500   5.993 -2.1691 -1.5828 -0.0459
  912MOL0     H25806   1.243   3.743   6.169  0.9934  1.0389  0.2778
  912MOL0     H25807   1.270   3.892   6.089 -1.2270  0.2912  1.6187
  912MOL0     H25808   1.448   3.634   6.095 -0.8829 -0.1605 -0.5339
  912MOL0     H25809   1.447   3.744   5.956 -0.2508 -0.8539 -1.0782
  912MOL0     H25810   1.493   3.938   6.123 -4.8527 -1.4049  1.0589
  912MOL0     H25811   1.505   3.806   6.253 -0.5521 -0.5341  0.2215
  912MOL0     H25812   1.698   3.716   6.169  3.0296  1.2246 -0.6035
  912MOL0     H25813   1.693   3.794   6.017 -2.1176  0.0194 -0.7353
  912MOL0     H25814   1.952   4.037   6.305  0.9640  1.7004 -0.7424
  912MOL0     H25815   2.314   4.002   6.311  1.1459  2.7358  0.9502
  912MOL0     H25816   2.166   4.048   6.393 -2.7327 -2.5715 -0.3972
  912MOL0     H25817   2.251   4.144   6.257 -0.5956  0.0916 -0.7366
  912MOL0     H25818   2.547   3.998   6.284 -1.2225  0.0051 -0.9009
  912MOL0     H25819   2.807   3.984   6.290 -1.1019  1.5408  0.5581
  912MOL0     H25820   2.955   3.804   6.302  0.8666  0.6813 -0.1281
  912MOL0     H25821   2.914   3.689   6.164 -0.5014  1.1162 -3.2382
  912MOL0     H25822   3.192   3.823   6.235  4.6268 -2.5201 -0.9101
  912MOL0     H25823   3.119   3.661   6.274  0.8115  0.0335  0.3515
  912MOL0     H25824   3.127   3.733   5.987  2.1466 -0.6705 -1.9340
  912MOL0     H25825   3.129   3.571   6.073 -1.5529  1.1089  1.5968
  912MOL0     H25826   3.376   3.621   6.128  2.1745  1.2661  0.0262
  912MOL0     H25827   3.358   3.774   6.055  1.3893  0.1753  1.5427
  912MOL0     H25828   3.341   3.506   5.929 -5.8495  0.7378  0.9060
  912MOL0     H25829   3.308   3.643   5.831  2.3878  0.3862 -0.6459
  912MOL0     H25830   3.578   3.615   5.982  0.1844 -3.5820 -2.3904
  912MOL0     H25831   3.525   3.762   5.915 -0.4969 -0.3706  2.2670
  912MOL0     H25832   3.512   3.682   5.695 -2.1138 -0.9851  0.3228
  912MOL0     H25833   3.544   3.510   5.734 -0.0994 -0.3015  0.3170
  912MOL0     H25834   3.738   3.744   5.766 -1.9671  0.1558  1.0946
  912MOL0     H25835   3.749   3.612   5.641 -0.7577  2.2836 -0.9747
  912MOL0     H25836   2.797   3.859   5.879 -1.1746 -0.3761 -0.3156
  912MOL0     H25837   2.557   3.902   5.872 -1.8674  0.6981  0.6056
  912MOL0     H25838   2.118   3.768   5.921 -0.5743 -0.5029  0.4714
  912MOL0     H25839   1.889   3.748   5.986  2.3753 -1.6434 -0.1519
  912MOL0     H25840   2.061   3.870   5.663 -0.3839 -1.2268  0.0251
  912MOL0     H25841   2.297   3.871   5.625 -1.1691  0.7103 -1.2743
  912MOL0     H25842   2.633   3.549   5.440  0.3931 -2.7750 -1.6010
  912MOL0     H25843   2.865   3.521   5.370 -2.3827 -0.6767 -0.5437
  912MOL0     H25844   3.068   3.531   5.346 -3.3988 -2.5774  2.1376
  912MOL0     H25845   3.229   3.557   5.419 -0.1508  0.8483  2.1361
  912MOL0     H25846   3.205   3.342   5.320 -0.0778  0.3801  0.4516
  912MOL0     H25847   3.065   3.297   5.437  0.7043  0.2889  5.8534
  912MOL0     H25848   3.229   3.300   5.627  3.5209  1.8723  1.6611
  912MOL0     H25849   3.284   3.191   5.507  0.9901  0.6580 -3.2674
  912MOL0     H25850   3.385   3.461   5.564  2.8114  0.0213  1.0461
  912MOL0     H25851   3.416   3.401   5.401 -0.6442  0.8560 -0.1249
  912MOL0     H25852   3.661   3.166   5.668 -0.7600 -1.4817 -1.0049
  912MOL0     H25853   2.986   3.523   5.784 -1.8186  0.8088  1.6474
  912MOL0     H25854   2.712   3.420   5.926  0.0453  0.0209 -1.1790
  912MOL0     H25855   2.843   3.525   5.961  0.4654  1.7880 -0.9742
  912MOL0     H25856   2.675   3.589   5.939 -0.2804 -1.2731  0.8845
  913MOL0     O25857   4.613   6.451   4.078  0.1818 -0.4022  0.4868
  913MOL0     C25858   4.588   6.542   3.998  0.1592  0.7680  0.0309
  913MOL0     O25859   4.682   6.604   3.917  0.7535  0.6012  0.7372
  913MOL0     C25860   4.814   6.568   3.926 -0.4124  0.0020  0.5341
  913MOL0     C25861   4.919   6.655   3.959  0.3940 -0.2463 -0.2262
  913MOL0     C25862   5.051   6.617   3.941  0.4161 -1.0352  0.5255
  913MOL0     C25863   5.088   6.489   3.899  0.2529  0.3240  0.0515
  913MOL0     O25864   5.219   6.467   3.885  0.3657  0.4870 -0.0509
  913MOL0     C25865   5.270   6.334   3.883  0.9067 -0.0491 -0.5832
  913MOL0     C25866   5.388   6.300   3.799  0.0811  0.7120 -0.4039
  913MOL0     C25867   5.506   6.406   3.805 -0.1929 -0.0135 -0.5781
  913MOL0     C25868   5.599   6.399   3.681 -0.1654  0.7455 -1.3486
  913MOL0     C25869   5.643   6.259   3.649  0.1318 -0.6328  1.0086
  913MOL0     C25870   5.762   6.273   3.544  0.1425  0.5220  0.3031
  913MOL0     C25871   5.795   6.124   3.513  0.1654  0.0481 -0.2292
  913MOL0     C25872   5.831   6.098   3.370 -0.8782 -0.1198  0.0742
  913MOL0     N25873   5.970   6.136   3.352 -0.6788  0.3006  0.7558
  913MOL0     C25874   6.011   6.270   3.332 -0.1871  0.2771 -0.0163
  913MOL0     C25875   6.142   6.273   3.351 -0.5755  0.4124 -0.2890
  913MOL0     C25876   6.236   6.401   3.329  0.2355 -0.0829 -0.0203
  913MOL0     C25877   6.367   6.389   3.402  0.3390 -0.7291  0.4335
  913MOL0     C25878   6.492   6.321   3.329 -0.5314  0.0524 -0.3826
  913MOL0     C25879   6.622   6.342   3.397 -0.3882  0.4228  0.0802
  913MOL0     O25880   6.684   6.470   3.358  0.1619 -0.4516 -0.0996
  913MOL0     C25881   6.819   6.482   3.341 -0.4466  0.5919 -0.6962
  913MOL0     C25882   6.887   6.581   3.261  0.3782  0.4185  0.7658
  913MOL0     C25883   7.023   6.590   3.246  0.0083 -0.4901  0.2470
  913MOL0     C25884   7.072   6.709   3.155  0.0657 -1.0463 -0.2051
  913MOL0     C25885   7.108   6.517   3.327  0.6634  0.9383 -0.7733
  913MOL0     C25886   7.250   6.528   3.328  0.4353 -0.1626 -0.7754
  913MOL0     O25887   7.297   6.656   3.323  0.6028 -0.0055  0.4264
  913MOL0     C25888   7.425   6.666   3.328  0.0921  0.4880 -0.1107
  913MOL0     C25889   7.496   6.648   3.448  0.3678  0.1086  1.0617
  913MOL0     C25890   7.630   6.674   3.436  0.8797 -0.0276 -0.1724
  913MOL0     C25891   7.700   6.689   3.314 -0.6235  0.0641 -0.0267
  913MOL0     O25892   7.843   6.699   3.310 -0.4562  0.0827 -0.5404
  913MOL0     C25893   7.920   6.685   3.428  0.5593 -0.2080 -1.1903
  913MOL0     C25894   8.067   6.674   3.385  0.4277  0.0164 -0.8015
  913MOL0     C25895   8.116   6.804   3.319 -0.4504 -0.2181  0.6612
  913MOL0     C25896   8.177   6.895   3.425  0.1888  0.3915 -0.1038
  913MOL0     C25897   8.243   7.020   3.365 -0.0548 -0.3801 -0.6376
  913MOL0     C25898   8.306   7.111   3.474 -0.1799  0.0120  0.3289
  913MOL0     C25899   8.205   7.219   3.512  0.5194 -0.0666 -0.2476
  913MOL0     C25900   8.249   7.323   3.612 -0.5878  0.4966  0.6708
  913MOL0    Cl25901   8.379   7.419   3.549  0.3934 -1.1004  0.0972
  913MOL0     C25902   7.632   6.701   3.197  0.1427  0.4029  0.1081
  913MOL0     C25903   7.489   6.691   3.204 -0.1253  0.4396 -0.2935
  913MOL0     O25904   7.319   6.428   3.344  0.6122  0.5231  0.2095
  913MOL0     C25905   7.046   6.423   3.412 -0.2891 -0.3724 -0.5468
  913MOL0     C25906   6.904   6.402   3.417  0.2173 -0.5414 -0.1189
  913MOL0     N25907   6.187   6.142   3.396  0.2740 -0.2442  0.0318
  913MOL0     N25908   6.084   6.069   3.405 -0.3587  0.4668  0.3559
  913MOL0     C25909   4.982   6.396   3.886  0.8451  0.0010 -0.2507
  913MOL0     C25910   4.846   6.437   3.891 -1.3273 -0.8527 -0.4162
  913MOL0     C25911   4.450   6.583   3.996  0.0027  0.9243 -0.2191
  913MOL0     C25912   4.352   6.490   4.039 -0.0164  0.3796 -0.2018
  913MOL0     C25913   4.223   6.536   4.061  0.3568 -0.4805 -0.1877
  913MOL0     C25914   4.169   6.665   4.037  0.0564 -0.8371 -0.1606
  913MOL0     O25915   4.035   6.695   4.057 -0.1587  0.4866 -0.2578
  913MOL0     C25916   3.987   6.818   4.016  0.3693 -0.4733  0.7288
  913MOL0     C25917   3.833   6.849   4.053 -0.5029 -0.2043  1.1386
  913MOL0     C25918   3.744   6.745   3.991 -0.6275 -0.5581  0.3853
  913MOL0     C25919   3.607   6.793   4.010 -0.2634  0.7729  0.2044
  913MOL0     C25920   3.522   6.700   3.934  0.3448 -0.3001  0.1195
  913MOL0     C25921   3.469   6.617   3.872  0.6451  0.2241  0.4220
  913MOL0     C25922   4.267   6.753   3.992 -0.4362 -0.9938 -0.2257
  913MOL0     C25923   4.407   6.716   3.970  0.8750  0.0999 -0.4430
  913MOL0     C25924   4.495   6.834   3.925 -0.7463  0.8971 -0.3556
  913MOL0     H25925   4.883   6.749   4.000 -0.0675 -0.5202  0.0060
  913MOL0     H25926   5.120   6.701   3.946  0.0202 -0.6798  0.1795
  913MOL0     H25927   5.191   6.268   3.844 -0.9602  1.4700  0.4297
  913MOL0     H25928   5.273   6.309   3.990 -0.6715  3.7676  0.5265
  913MOL0     H25929   5.440   6.210   3.833  2.2073  1.9872 -0.0933
  913MOL0     H25930   5.355   6.289   3.695 -1.0257  0.3862 -0.0307
  913MOL0     H25931   5.467   6.508   3.803 -1.6627 -0.5189  0.2046
  913MOL0     H25932   5.562   6.391   3.898 -3.2167  0.6952  1.5421
  913MOL0     H25933   5.551   6.429   3.588  0.0569  0.1749 -1.6535
  913MOL0     H25934   5.694   6.451   3.699  0.5632 -0.5845 -1.1907
  913MOL0     H25935   5.562   6.204   3.600 -0.2403 -0.7370  1.7259
  913MOL0     H25936   5.678   6.203   3.737  0.4855 -1.3853  0.4041
  913MOL0     H25937   5.746   6.318   3.445 -0.0066  1.3339  0.6914
  913MOL0     H25938   5.839   6.326   3.600  1.7364  0.3898 -1.6754
  913MOL0     H25939   5.711   6.059   3.539  0.4264  0.0615  0.6732
  913MOL0     H25940   5.879   6.094   3.575  0.3189  2.1390  0.6614
  913MOL0     H25941   5.817   5.991   3.353 -1.9972  0.1117 -0.5576
  913MOL0     H25942   5.761   6.145   3.300 -1.6519 -0.8877  0.3106
  913MOL0     H25943   5.952   6.357   3.303  2.4686  1.2692 -3.0435
  913MOL0     H25944   6.178   6.484   3.370  2.2615  1.7235 -0.6515
  913MOL0     H25945   6.251   6.416   3.222 -0.3614 -0.2372 -0.1289
  913MOL0     H25946   6.403   6.491   3.416 -1.0274 -0.5374  3.1900
  913MOL0     H25947   6.352   6.348   3.503  1.8061  0.5380  1.2076
  913MOL0     H25948   6.476   6.213   3.331 -0.4999  0.0277  2.3754
  913MOL0     H25949   6.488   6.362   3.227 -1.9780  1.8004  0.3184
  913MOL0     H25950   6.602   6.332   3.504 -2.2587  1.4483 -0.1181
  913MOL0     H25951   6.680   6.257   3.360  2.2247  2.5847 -1.1070
  913MOL0     H25952   6.817   6.652   3.217  1.1861 -0.9885 -3.1670
  913MOL0     H25953   7.111   6.792   3.214 -0.0505 -1.6854  0.8019
  913MOL0     H25954   6.991   6.739   3.088  0.0783  0.7457  0.5453
  913MOL0     H25955   7.152   6.678   3.088  0.4114 -0.4944 -0.0536
  913MOL0     H25956   7.447   6.632   3.543  0.0879  0.8596  1.0528
  913MOL0     H25957   7.690   6.681   3.526  1.4900 -0.4786 -0.5295
  913MOL0     H25958   7.894   6.773   3.488 -1.5524 -0.2409 -1.9658
  913MOL0     H25959   7.896   6.597   3.488 -0.0186 -0.0078 -1.1147
  913MOL0     H25960   8.131   6.638   3.467 -2.7098 -0.3339  1.6795
  913MOL0     H25961   8.068   6.598   3.306 -0.5818 -0.4900 -0.3469
  913MOL0     H25962   8.038   6.860   3.265  0.7407 -0.4201 -1.3737
  913MOL0     H25963   8.185   6.766   3.243 -2.1338 -2.1992  0.0205
  913MOL0     H25964   8.253   6.837   3.477  0.7177  0.1532 -1.1080
  913MOL0     H25965   8.098   6.926   3.495 -1.8565 -3.6967 -0.2758
  913MOL0     H25966   8.319   6.999   3.289  0.0916 -1.8030 -0.1109
  913MOL0     H25967   8.170   7.084   3.313 -1.2811 -0.0155  1.4271
  913MOL0     H25968   8.388   7.159   3.420 -0.3244 -2.8878 -2.8464
  913MOL0     H25969   8.342   7.061   3.564  3.6872  2.1299  0.1974
  913MOL0     H25970   8.117   7.171   3.555 -2.4578  2.6783 -2.7153
  913MOL0     H25971   8.181   7.277   3.422  2.9480 -0.1056 -1.0106
  913MOL0     H25972   8.277   7.261   3.698 -1.8186  0.4335  1.0450
  913MOL0     H25973   8.158   7.377   3.640 -0.8946 -0.2303  1.0988
  913MOL0     H25974   7.683   6.715   3.102  1.5454  1.8761  1.0267
  913MOL0     H25975   7.427   6.701   3.116  1.3528 -0.8027 -1.5184
  913MOL0     H25976   7.108   6.374   3.486  0.2652  2.1462  0.7686
  913MOL0     H25977   6.861   6.329   3.485  0.3461  1.2855  2.0357
  913MOL0     H25978   4.994   6.289   3.871  1.7599 -0.4842  3.1572
  913MOL0     H25979   4.764   6.368   3.877 -2.6358  0.6735 -0.5195
  913MOL0     H25980   4.367   6.385   4.060 -1.9712  0.5130  2.3098
  913MOL0     H25981   4.157   6.454   4.089 -0.1728 -0.9710 -2.6278
  913MOL0     H25982   4.043   6.908   4.046 -0.8527  1.2973 -1.8640
  913MOL0     H25983   4.015   6.824   3.911  2.0996  3.6644  1.1968
  913MOL0     H25984   3.801   6.950   4.026  0.9389  0.5662  2.2023
  913MOL0     H25985   3.820   6.836   4.161  0.5880 -2.8058  1.0436
  913MOL0     H25986   3.757   6.731   3.883 -1.0375  2.0418 -0.0726
  913MOL0     H25987   3.755   6.645   4.034  0.2701 -0.8067 -0.3854
  913MOL0     H25988   3.603   6.893   3.966  2.0254  0.6608 -0.3622
  913MOL0     H25989   3.584   6.790   4.117  1.1421 -0.8638  0.4985
  913MOL0     H25990   3.426   6.541   3.811 -1.0560  1.7390 -0.3857
  913MOL0     H25991   4.236   6.856   3.976 -0.7539 -1.0898 -0.2280
  913MOL0     H25992   4.459   6.926   3.971 -0.5001  1.2598 -0.8760
  913MOL0     H25993   4.601   6.823   3.953 -0.6220 -2.2354 -1.6236
  913MOL0     H25994   4.491   6.842   3.816 -1.4013  0.4214 -0.3676
  914MOL0     O25995   1.320   3.278   1.564  0.4008 -0.2694  0.8350
  914MOL0     C25996   1.223   3.293   1.485 -0.5030  0.1897 -0.2966
  914MOL0     O25997   1.091   3.269   1.518 -1.2102 -0.3688  0.2081
  914MOL0     C25998   1.061   3.232   1.652 -0.9712 -0.0390 -0.4225
  914MOL0     C25999   1.096   3.294   1.767 -1.4585  0.3086  0.6157
  914MOL0     C26000   1.058   3.246   1.888  0.4228 -0.7111 -0.7566
  914MOL0     C26001   0.987   3.127   1.900 -0.4497  0.8857  0.8508
  914MOL0     O26002   0.966   3.090   2.023 -0.6712 -0.3486  0.5306
  914MOL0     C26003   0.973   2.949   2.052  0.0447  0.0460  0.1377
  914MOL0     C26004   0.985   2.921   2.202 -0.7272 -0.7432 -0.3429
  914MOL0     C26005   1.132   2.887   2.235  0.6230 -0.8159 -0.6471
  914MOL0     C26006   1.135   2.831   2.380 -0.2354  0.0663  0.9167
  914MOL0     C26007   1.271   2.789   2.443 -0.0919  0.1346  0.0496
  914MOL0     C26008   1.382   2.892   2.412 -0.7719  0.5411 -0.6964
  914MOL0     C26009   1.521   2.860   2.468 -0.5463 -0.0757 -0.5553
  914MOL0     C26010   1.520   2.896   2.622 -0.1679  0.2160  0.3828
  914MOL0     N26011   1.636   2.869   2.701 -0.5749 -0.1898  0.1375
  914MOL0     C26012   1.757   2.913   2.660 -1.0059  0.1516 -0.3367
  914MOL0     C26013   1.837   2.897   2.765  0.0248 -0.5589 -0.2500
  914MOL0     C26014   1.982   2.932   2.783 -0.1405  0.2734  0.8602
  914MOL0     C26015   2.009   3.079   2.799 -0.3326  0.3112 -0.4825
  914MOL0     C26016   2.159   3.113   2.833  0.5986 -0.3388  0.1608
  914MOL0     C26017   2.258   3.029   2.751  0.1943 -0.2692 -0.0915
  914MOL0     O26018   2.247   3.060   2.607 -0.0589  0.0109 -0.5659
  914MOL0     C26019   2.366   3.101   2.544 -0.5755  1.1534 -0.0160
  914MOL0     C26020   2.430   3.215   2.593  0.0850 -0.8330  0.2214
  914MOL0     C26021   2.551   3.265   2.536  0.2178 -0.1368  0.0875
  914MOL0     C26022   2.585   3.408   2.568  0.0339 -0.4579  0.7121
  914MOL0     C26023   2.618   3.190   2.440 -0.3624  0.6438  0.9709
  914MOL0     C26024   2.752   3.212   2.380  0.6475  0.1046  0.9944
  914MOL0     O26025   2.826   3.097   2.336  0.3379 -0.1498  0.8276
  914MOL0     C26026   2.958   3.121   2.317 -0.6009  0.2431  1.4863
  914MOL0     C26027   3.050   3.079   2.409  0.6088  0.6507  0.2620
  914MOL0     C26028   3.192   3.106   2.393 -0.5793  0.4354 -0.1108
  914MOL0     C26029   3.237   3.172   2.280  0.1449 -0.1859  1.0718
  914MOL0     O26030   3.370   3.188   2.254 -0.6118  0.3466 -0.4750
  914MOL0     C26031   3.433   3.296   2.316 -0.4138  0.3753 -0.0973
  914MOL0     C26032   3.582   3.274   2.320 -0.0336 -0.0091 -0.8698
  914MOL0     C26033   3.671   3.401   2.338 -0.1773  0.0516  0.5733
  914MOL0     C26034   3.626   3.473   2.461  0.5039 -0.6596 -0.6070
  914MOL0     C26035   3.687   3.615   2.488 -0.5642 -0.4334  0.0076
  914MOL0     C26036   3.802   3.601   2.591  0.2585 -0.2775 -0.1449
  914MOL0     C26037   3.901   3.718   2.585  0.4433 -0.0475  0.5369
  914MOL0     C26038   4.012   3.702   2.482  0.0259  0.3906 -0.5753
  914MOL0    Cl26039   3.980   3.578   2.355  0.1989  0.0214 -0.4148
  914MOL0     C26040   3.145   3.223   2.185 -0.3579 -0.0225 -0.0221
  914MOL0     C26041   3.005   3.196   2.208  0.2771 -0.9738  0.6739
  914MOL0     O26042   2.785   3.325   2.357 -0.0285 -0.4870  0.1108
  914MOL0     C26043   2.556   3.060   2.402  0.1438  0.5129 -0.6480
  914MOL0     C26044   2.436   3.018   2.453 -0.8180  0.0344 -0.6033
  914MOL0     N26045   1.762   2.858   2.876  0.7102 -0.3068  0.3532
  914MOL0     N26046   1.644   2.829   2.833  0.4360 -0.4393  1.4469
  914MOL0     C26047   0.959   3.061   1.778  0.6005 -0.2027 -0.3285
  914MOL0     C26048   0.996   3.116   1.661 -0.4159  0.2724  0.5550
  914MOL0     C26049   1.257   3.344   1.351  0.1094  0.5512 -0.0269
  914MOL0     C26050   1.152   3.392   1.270  0.0386 -0.2633 -0.4824
  914MOL0     C26051   1.181   3.448   1.147 -0.1387  0.1880  0.2000
  914MOL0     C26052   1.313   3.462   1.104  0.0624  0.0734  0.5525
  914MOL0     O26053   1.332   3.541   0.994  0.9069  0.8522  0.4530
  914MOL0     C26054   1.463   3.598   0.990  0.2572  0.1003  0.7325
  914MOL0     C26055   1.462   3.718   0.889  0.0156  0.3454  0.0324
  914MOL0     C26056   1.574   3.821   0.918  0.1088  0.5213 -0.1768
  914MOL0     C26057   1.714   3.762   0.911 -0.2764  0.4480  0.7993
  914MOL0     C26058   1.811   3.866   0.900 -0.3016  0.2168  0.3925
  914MOL0     C26059   1.905   3.947   0.866 -0.0471  0.6835  0.4025
  914MOL0     C26060   1.409   3.400   1.179 -0.2094  0.0721  1.2537
  914MOL0     C26061   1.384   3.332   1.295  0.3333  0.2531  0.4161
  914MOL0     C26062   1.503   3.245   1.347  0.8479  0.0943 -0.3808
  914MOL0     H26063   1.152   3.387   1.767  0.0635 -0.5752  1.1926
  914MOL0     H26064   1.101   3.291   1.977 -1.6276  0.3725 -0.2499
  914MOL0     H26065   1.052   2.905   1.991  0.5571  1.5259 -0.2955
  914MOL0     H26066   0.874   2.910   2.023 -0.1546 -0.9352  1.9569
  914MOL0     H26067   0.946   3.006   2.257 -1.8323  0.2661 -2.5862
  914MOL0     H26068   0.924   2.833   2.226 -1.8131 -0.0329 -0.4506
  914MOL0     H26069   1.173   2.814   2.165 -0.2547 -1.8977 -0.0746
  914MOL0     H26070   1.191   2.979   2.233 -0.9729  0.2846  0.4126
  914MOL0     H26071   1.095   2.914   2.439  2.5788  1.8002  0.5472
  914MOL0     H26072   1.074   2.740   2.384  0.4089 -0.6978 -2.9336
  914MOL0     H26073   1.295   2.691   2.402 -2.9893 -0.8220  0.4469
  914MOL0     H26074   1.255   2.764   2.548 -2.4451 -6.3575 -1.4222
  914MOL0     H26075   1.406   2.892   2.305 -0.8064  1.3514 -0.7064
  914MOL0     H26076   1.344   2.993   2.430 -0.5259  0.6791 -0.9388
  914MOL0     H26077   1.586   2.932   2.416  1.4656 -0.4124  1.3577
  914MOL0     H26078   1.552   2.755   2.457 -0.1190 -0.1579  1.1807
  914MOL0     H26079   1.493   3.001   2.629 -1.1282 -0.0568  0.9901
  914MOL0     H26080   1.438   2.842   2.670  0.5738 -2.0081 -0.6851
  914MOL0     H26081   1.784   2.954   2.563 -3.7707 -0.8243 -1.6462
  914MOL0     H26082   2.031   2.891   2.694 -0.0505  0.6579  0.7302
  914MOL0     H26083   2.011   2.882   2.875 -3.5002 -2.5288  0.6157
  914MOL0     H26084   1.970   3.127   2.709 -0.8092  0.0794 -0.4019
  914MOL0     H26085   1.948   3.112   2.882 -1.2719  1.1161 -1.4692
  914MOL0     H26086   2.176   3.219   2.810  0.9460 -0.2183  0.9346
  914MOL0     H26087   2.162   3.104   2.942 -2.7175  0.6230  0.4299
  914MOL0     H26088   2.358   3.055   2.787  0.4419 -1.9243  0.5402
  914MOL0     H26089   2.231   2.924   2.764  0.1192 -0.7422 -3.2682
  914MOL0     H26090   2.375   3.275   2.665 -1.6900 -2.7646  0.5692
  914MOL0     H26091   2.624   3.422   2.670 -0.0919  2.8463  0.4250
  914MOL0     H26092   2.490   3.463   2.563 -1.7528 -3.4407 -1.5723
  914MOL0     H26093   2.652   3.455   2.496  0.6689 -2.7842 -0.2817
  914MOL0     H26094   3.017   3.020   2.494  3.7046 -0.2327  0.9644
  914MOL0     H26095   3.263   3.058   2.460 -0.9674 -2.2028 -1.4557
  914MOL0     H26096   3.421   3.382   2.249  0.7694 -0.9872 -2.1939
  914MOL0     H26097   3.394   3.324   2.414  0.8876  3.8168 -0.4342
  914MOL0     H26098   3.608   3.207   2.403 -0.3264  0.4500 -0.4058
  914MOL0     H26099   3.612   3.218   2.231  1.5817 -1.0636  0.2683
  914MOL0     H26100   3.671   3.459   2.245  0.4021  0.9685  1.1266
  914MOL0     H26101   3.771   3.360   2.351 -0.2316 -0.5608 -0.8185
  914MOL0     H26102   3.652   3.411   2.547  1.3212 -0.8738 -0.9973
  914MOL0     H26103   3.519   3.497   2.460  0.7375  0.6062  0.9050
  914MOL0     H26104   3.728   3.648   2.392 -1.8298 -1.5607 -0.9500
  914MOL0     H26105   3.621   3.697   2.518  2.5775  2.0585  0.7296
  914MOL0     H26106   3.859   3.509   2.581 -1.8685 -1.6581 -0.1049
  914MOL0     H26107   3.753   3.590   2.688  2.3806 -1.1122  0.8935
  914MOL0     H26108   3.953   3.737   2.680  1.9995  1.6834 -0.6013
  914MOL0     H26109   3.844   3.810   2.566 -0.0797 -0.4617  0.0719
  914MOL0     H26110   4.102   3.673   2.538 -0.8755 -0.3453  0.5548
  914MOL0     H26111   4.026   3.795   2.427 -1.4460 -0.8860 -3.2754
  914MOL0     H26112   3.166   3.271   2.090  2.1394 -0.9444 -0.0036
  914MOL0     H26113   2.941   3.232   2.128 -0.3539 -0.3848  1.4308
  914MOL0     H26114   2.612   2.995   2.335  1.2300 -0.1736  0.8570
  914MOL0     H26115   2.390   2.937   2.397 -2.5800  1.9283 -2.0520
  914MOL0     H26116   0.906   2.967   1.771 -0.1403  0.2836 -1.5962
  914MOL0     H26117   0.975   3.068   1.566  2.2892  1.5458 -0.8149
  914MOL0     H26118   1.048   3.385   1.303  0.5263 -2.6193  0.7682
  914MOL0     H26119   1.097   3.491   1.092  0.8959 -0.0795 -1.6604
  914MOL0     H26120   1.486   3.629   1.093  0.1138 -0.1878  0.8517
  914MOL0     H26121   1.544   3.531   0.960 -0.0249  0.3180 -0.5450
  914MOL0     H26122   1.360   3.759   0.890 -1.8447 -3.7440 -0.0058
  914MOL0     H26123   1.482   3.680   0.789  1.2882 -0.3580  0.5231
  914MOL0     H26124   1.577   3.901   0.844  2.7028  1.2399  0.5755
  914MOL0     H26125   1.556   3.869   1.015  2.3314  0.0388  0.5369
  914MOL0     H26126   1.712   3.690   0.829 -0.4422 -1.2048  2.2119
  914MOL0     H26127   1.745   3.706   0.999  2.0794 -1.4821 -1.1156
  914MOL0     H26128   1.966   4.030   0.837 -1.8944  1.9581 -0.0993
  914MOL0     H26129   1.509   3.398   1.137 -0.5418  0.3481  0.4438
  914MOL0     H26130   1.483   3.137   1.340  0.7072 -0.0717  1.9349
  914MOL0     H26131   1.593   3.266   1.287  0.7706 -1.1590 -0.9783
  914MOL0     H26132   1.520   3.260   1.454 -2.8958  0.3093  0.3112
  915MOL0     O26133   0.676  10.632   8.207 -0.3965 -0.1665  0.2624
  915MOL0     C26134   0.732  10.717   8.281 -0.1229  0.3981  1.1471
  915MOL0     O26135   0.868  10.732   8.297 -0.4850  0.2994  0.4782
  915MOL0     C26136   0.959  10.648   8.229  0.0900 -0.0153 -0.5703
  915MOL0     C26137   0.946  10.598   8.099 -0.4738 -0.9402  0.3378
  915MOL0     C26138   1.028  10.492   8.059  0.5120  0.8420 -0.0725
  915MOL0     C26139   1.137  10.444   8.121  0.0900  0.6931  0.6621
  915MOL0     O26140   1.213  10.343   8.061 -0.2651  0.1710 -0.4296
  915MOL0     C26141   1.336  10.306   8.121  0.0359 -0.6929 -0.0848
  915MOL0     C26142   1.452  10.380   8.049  0.0238 -0.3574  0.0962
  915MOL0     C26143   1.485  10.513   8.126  0.5976  0.0080 -0.8051
  915MOL0     C26144   1.610  10.580   8.069 -0.6556 -0.1490 -0.1312
  915MOL0     C26145   1.623  10.725   8.131  0.1341  0.1524 -0.1767
  915MOL0     C26146   1.750  10.812   8.088  0.4825  0.0002  0.2091
  915MOL0     C26147   1.756  10.825   7.933 -0.1651  0.1132 -0.3763
  915MOL0     C26148   1.848  10.932   7.884  1.7012  0.0084  0.0584
  915MOL0     N26149   1.986  10.893   7.909 -0.1586  0.0968 -0.0349
  915MOL0     C26150   2.083  10.975   7.963 -0.1736  0.1318  1.0625
  915MOL0     C26151   2.192  10.900   7.979 -0.2606  0.3809 -0.4495
  915MOL0     C26152   2.331  10.946   8.032  0.8072  0.2144  0.5432
  915MOL0     C26153   2.428  10.947   7.912  0.1773 -0.0592  0.8747
  915MOL0     C26154   2.563  10.994   7.965  0.1109 -0.1401 -0.0876
  915MOL0     C26155   2.634  10.881   8.035  0.5766  0.0736  0.1570
  915MOL0     O26156   2.743  10.932   8.099 -0.4622 -0.0206 -0.0444
  915MOL0     C26157   2.814  10.839   8.169 -0.0291  1.0444  0.0654
  915MOL0     C26158   2.768  10.707   8.208  0.2736 -0.4917  0.3219
  915MOL0     C26159   2.853  10.617   8.277 -0.7028  0.2942 -0.3397
  915MOL0     C26160   2.801  10.480   8.325  0.3714  0.3123  0.0286
  915MOL0     C26161   2.988  10.669   8.307  0.0739  0.3326  0.3997
  915MOL0     C26162   3.091  10.583   8.374  0.5516  0.9565 -0.2456
  915MOL0     O26163   3.064  10.543   8.498 -0.1241 -0.2964  0.5837
  915MOL0     C26164   3.165  10.522   8.584  0.4625  0.0809  0.3716
  915MOL0     C26165   3.150  10.412   8.676  0.5579 -0.4932 -0.2180
  915MOL0     C26166   3.252  10.390   8.774 -0.8923 -0.5530 -0.1936
  915MOL0     C26167   3.362  10.473   8.779 -0.0103 -0.0368  0.7374
  915MOL0     O26168   3.462  10.439   8.869 -0.3784 -0.8267  0.2047
  915MOL0     C26169   3.516  10.557   8.952  0.4457 -0.5629  1.0342
  915MOL0     C26170   3.597  10.519   9.074 -0.0866  0.1390  0.1479
  915MOL0     C26171   3.571  10.371   9.113  0.0292  0.0405 -0.6673
  915MOL0     C26172   3.647  10.348   9.241  0.6207  1.0400  0.3752
  915MOL0     C26173   3.629  10.205   9.288  0.3463  1.1361  0.8954
  915MOL0     C26174   3.480  10.180   9.325 -0.1281 -0.0198  0.1304
  915MOL0     C26175   3.464  10.066   9.429  0.3436  0.5316  0.4822
  915MOL0     C26176   3.314  10.046   9.475  1.2437  0.1963  1.3001
  915MOL0    Cl26177   3.189  10.062   9.343  0.3741 -0.0839 -0.2344
  915MOL0     C26178   3.380  10.584   8.683  0.3101 -0.1212  0.3657
  915MOL0     C26179   3.277  10.607   8.594  0.2438  0.4154 -0.5104
  915MOL0     O26180   3.192  10.555   8.307  0.5200  0.6349 -0.5271
  915MOL0     C26181   3.033  10.799   8.262 -0.3790 -1.0095 -0.0161
  915MOL0     C26182   2.940  10.884   8.190 -0.8669  0.7599  0.5989
  915MOL0     N26183   2.169  10.775   7.930  0.5833 -0.4022 -0.5660
  915MOL0     N26184   2.046  10.772   7.899  0.2843 -0.2315 -0.4461
  915MOL0     C26185   1.161  10.504   8.243 -0.2460 -0.0832 -1.1224
  915MOL0     C26186   1.078  10.612   8.291  0.1471  0.2364  0.2112
  915MOL0     C26187   0.632  10.811   8.353 -1.3952  0.1290 -0.2859
  915MOL0     C26188   0.495  10.778   8.345 -0.5452  0.4584 -0.1803
  915MOL0     C26189   0.399  10.856   8.405  0.5834 -0.1704  0.8536
  915MOL0     C26190   0.439  10.977   8.465 -0.0787 -0.7934 -0.2235
  915MOL0     O26191   0.362  11.053   8.545  0.1734 -0.0008 -0.4639
  915MOL0     C26192   0.227  11.023   8.561  0.3028  1.1994  0.0854
  915MOL0     C26193   0.162  11.093   8.681 -0.4598  0.8084  0.1162
  915MOL0     C26194   0.008  11.068   8.682 -0.0542 -0.2652  0.1792
  915MOL0     C26195  -0.067  11.177   8.748  0.0894  0.7656 -0.1752
  915MOL0     C26196  -0.042  11.164   8.887  0.0612  0.1117 -0.4112
  915MOL0     C26197  -0.018  11.142   9.007  0.0443  0.1833 -0.5703
  915MOL0     C26198   0.573  11.016   8.474  0.9552  0.8849 -0.5311
  915MOL0     C26199   0.672  10.931   8.427  0.5621  0.7072 -0.1854
  915MOL0     C26200   0.824  10.960   8.450  0.4853 -0.3631  0.1669
  915MOL0     H26201   0.860  10.632   8.042 -1.0846 -1.0734  1.1510
  915MOL0     H26202   0.996  10.451   7.963  2.3800 -0.3233 -0.2552
  915MOL0     H26203   1.356  10.200   8.100  3.6790  0.6651 -5.5200
  915MOL0     H26204   1.335  10.319   8.230 -0.4602  0.1756 -0.1815
  915MOL0     H26205   1.542  10.317   8.051 -0.0665 -0.8096 -3.5002
  915MOL0     H26206   1.421  10.399   7.946 -1.3972  2.1093  0.9067
  915MOL0     H26207   1.400  10.583   8.125 -1.8455 -2.7550 -0.3909
  915MOL0     H26208   1.500  10.489   8.232 -1.7034 -3.3917 -1.0910
  915MOL0     H26209   1.698  10.522   8.096 -0.4769 -0.1917 -0.7852
  915MOL0     H26210   1.601  10.581   7.960  2.7086 -0.9257 -0.5116
  915MOL0     H26211   1.639  10.717   8.239  2.8261 -3.5884 -0.6560
  915MOL0     H26212   1.525  10.773   8.122 -0.6065 -1.3495 -0.5666
  915MOL0     H26213   1.739  10.909   8.137  0.5436 -0.1556  0.5326
  915MOL0     H26214   1.841  10.758   8.115  0.1606  0.8364  3.3630
  915MOL0     H26215   1.660  10.847   7.886 -0.0169  0.6833 -0.4235
  915MOL0     H26216   1.785  10.726   7.896  1.8809  0.3674  0.3892
  915MOL0     H26217   1.826  10.938   7.777 -0.1758  0.8144  0.4382
  915MOL0     H26218   1.828  11.033   7.923 -3.6572 -0.7249 -0.0920
  915MOL0     H26219   2.070  11.079   7.990 -1.3332  0.1436  0.5207
  915MOL0     H26220   2.363  10.881   8.114 -1.2580 -0.9400  0.4995
  915MOL0     H26221   2.318  11.048   8.068  1.9106  1.1072 -1.4452
  915MOL0     H26222   2.428  10.845   7.871  0.8297 -1.7549  4.6650
  915MOL0     H26223   2.400  11.014   7.830  3.6985  1.9202  1.0789
  915MOL0     H26224   2.621  11.028   7.878  1.0039  1.5453  1.1151
  915MOL0     H26225   2.544  11.073   8.038 -2.7297 -1.6453  0.9741
  915MOL0     H26226   2.560  10.839   8.104 -3.7971  0.1395 -3.9503
  915MOL0     H26227   2.666  10.806   7.962  1.8262 -0.1846  0.9456
  915MOL0     H26228   2.669  10.677   8.176 -0.1476  2.7428 -1.8826
  915MOL0     H26229   2.851  10.397   8.274  1.3476  3.1311 -4.1705
  915MOL0     H26230   2.692  10.482   8.311 -0.4614  0.5131  4.9144
  915MOL0     H26231   2.790  10.466   8.433 -3.2972  1.9497  0.0327
  915MOL0     H26232   3.069  10.339   8.671 -1.7498  1.9796 -2.4365
  915MOL0     H26233   3.246  10.306   8.843 -0.4378 -0.0706  0.4390
  915MOL0     H26234   3.573  10.617   8.881 -0.1281 -2.2985 -1.0101
  915MOL0     H26235   3.434  10.625   8.977  1.1409  0.0808  1.5983
  915MOL0     H26236   3.703  10.526   9.049  0.0875 -2.2835 -0.0816
  915MOL0     H26237   3.578  10.594   9.151  1.8382  1.6404 -0.7464
  915MOL0     H26238   3.601  10.292   9.043  1.3301 -0.9296  0.9197
  915MOL0     H26239   3.463  10.364   9.131 -0.5838  0.4167 -3.6719
  915MOL0     H26240   3.623  10.416   9.323 -2.0672  1.5549 -0.7473
  915MOL0     H26241   3.754  10.372   9.234  1.1791  0.5840  4.6502
  915MOL0     H26242   3.668  10.130   9.219 -3.6650 -0.7790  0.4413
  915MOL0     H26243   3.687  10.190   9.379 -0.5326 -1.3206  1.1230
  915MOL0     H26244   3.421  10.175   9.233  1.0221  1.5559 -0.7364
  915MOL0     H26245   3.442  10.270   9.375  1.5778  0.1605  1.1756
  915MOL0     H26246   3.538  10.080   9.508 -0.7642  1.1908  1.4279
  915MOL0     H26247   3.487   9.976   9.371  0.0895 -0.7059  2.2416
  915MOL0     H26248   3.288  10.126   9.545 -0.2762  0.1844  0.7985
  915MOL0     H26249   3.287   9.949   9.517  2.9825 -0.1405  1.7145
  915MOL0     H26250   3.467  10.648   8.691  0.1914  0.1290 -0.2964
  915MOL0     H26251   3.299  10.691   8.529 -0.5096  0.8199 -0.2468
  915MOL0     H26252   3.130  10.834   8.294 -0.4130 -0.5910 -0.3660
  915MOL0     H26253   2.973  10.982   8.160 -1.4828  0.8865  0.3245
  915MOL0     H26254   1.232  10.456   8.310 -1.4615 -3.3300 -1.9611
  915MOL0     H26255   1.096  10.640   8.394  0.2061 -0.9044  0.5294
  915MOL0     H26256   0.464  10.682   8.306  1.8636 -0.2357 -0.5578
  915MOL0     H26257   0.293  10.836   8.394  0.8780 -0.9917 -0.7158
  915MOL0     H26258   0.169  11.059   8.476  0.9326  1.1445 -0.3820
  915MOL0     H26259   0.204  10.918   8.583 -3.4047  1.6857 -0.8761
  915MOL0     H26260   0.187  11.198   8.666  0.8865  0.4554 -0.2915
  915MOL0     H26261   0.202  11.070   8.780  0.1032 -0.0816 -0.3076
  915MOL0     H26262  -0.024  11.073   8.578  0.0860  4.5205  0.1208
  915MOL0     H26263  -0.016  10.967   8.716 -0.0412 -1.2135 -2.4288
  915MOL0     H26264  -0.174  11.171   8.725 -0.1197 -1.7077  1.0743
  915MOL0     H26265  -0.036  11.277   8.715  1.1819  0.3653 -0.3907
  915MOL0     H26266   0.004  11.129   9.111 -0.8914 -1.4737 -0.5437
  915MOL0     H26267   0.613  11.105   8.521 -0.3367  0.5041  1.4174
  915MOL0     H26268   0.871  10.989   8.356 -0.5115 -1.2111 -0.6186
  915MOL0     H26269   0.820  11.045   8.518 -5.7275 -1.6526  2.0642
  915MOL0     H26270   0.867  10.869   8.493  0.6605 -1.4721 -2.1927
  916MOL0     O26271   4.683   6.113   2.073 -0.1415 -0.2301 -0.1458
  916MOL0     C26272   4.662   6.098   2.197  0.9125 -0.5282 -1.0537
  916MOL0     O26273   4.744   6.125   2.297 -0.3776  0.4462 -0.5205
  916MOL0     C26274   4.862   6.189   2.271 -0.2768  0.4929  0.2275
  916MOL0     C26275   4.976   6.143   2.330 -0.0775 -0.4792 -0.8120
  916MOL0     C26276   5.098   6.205   2.302  0.4189  0.0801 -0.4202
  916MOL0     C26277   5.108   6.310   2.218  1.3653  0.1034  0.7198
  916MOL0     O26278   5.226   6.374   2.216  0.2039 -0.7551  0.1798
  916MOL0     C26279   5.228   6.511   2.162  0.5990  0.0882  0.7373
  916MOL0     C26280   5.364   6.578   2.160 -0.4563  1.0445 -0.6008
  916MOL0     C26281   5.392   6.620   2.305  0.5534 -0.4912 -0.0189
  916MOL0     C26282   5.532   6.683   2.316  0.1125  0.2509  0.7832
  916MOL0     C26283   5.553   6.762   2.446 -0.5848  0.5012 -0.0914
  916MOL0     C26284   5.447   6.877   2.470 -0.0383 -0.0816  0.4513
  916MOL0     C26285   5.490   6.967   2.585  0.4202 -0.1827  0.2305
  916MOL0     C26286   5.380   7.028   2.671  0.0337 -0.4323 -0.6743
  916MOL0     N26287   5.330   6.947   2.785  0.8313 -0.4797 -0.7026
  916MOL0     C26288   5.256   6.837   2.776  0.5037 -0.5297  0.3555
  916MOL0     C26289   5.228   6.796   2.905 -0.2978  0.7186  0.0666
  916MOL0     C26290   5.125   6.695   2.935 -0.4605  0.1407 -0.0016
  916MOL0     C26291   5.174   6.583   3.034 -0.2550 -0.2478 -0.4254
  916MOL0     C26292   5.094   6.447   3.010  1.0601 -0.4887 -0.3867
  916MOL0     C26293   5.137   6.353   3.125 -0.1038  0.1087 -0.7868
  916MOL0     O26294   5.115   6.406   3.253  0.7174  0.5408 -0.5679
  916MOL0     C26295   4.991   6.373   3.319 -0.4990 -0.5912 -0.2717
  916MOL0     C26296   4.891   6.289   3.260 -0.1868 -0.6456 -0.3081
  916MOL0     C26297   4.779   6.256   3.335 -0.1100 -0.2394  0.0285
  916MOL0     C26298   4.681   6.164   3.263  0.1308  0.2698 -0.8569
  916MOL0     C26299   4.758   6.306   3.465  0.3009 -0.1820 -0.2587
  916MOL0     C26300   4.628   6.300   3.539 -0.1105  0.0708 -0.1253
  916MOL0     O26301   4.509   6.349   3.474 -0.2830  0.0189 -0.3149
  916MOL0     C26302   4.388   6.313   3.524 -0.7459 -0.8955  0.5458
  916MOL0     C26303   4.349   6.358   3.650  0.0216  0.4644 -0.8992
  916MOL0     C26304   4.219   6.311   3.695  0.1718 -0.5054 -0.2398
  916MOL0     C26305   4.128   6.239   3.612 -0.6218 -0.2519 -0.8440
  916MOL0     O26306   4.003   6.213   3.656  0.4416 -0.3682 -0.5099
  916MOL0     C26307   3.920   6.129   3.583  0.3785  0.6114  0.1455
  916MOL0     C26308   3.784   6.106   3.661 -0.3903 -0.2640  0.3901
  916MOL0     C26309   3.666   6.191   3.604  0.5633 -0.8993 -0.2959
  916MOL0     C26310   3.548   6.144   3.692  0.6310 -1.1147 -0.3095
  916MOL0     C26311   3.404   6.167   3.639  0.6274  0.2096 -0.8103
  916MOL0     C26312   3.354   6.302   3.674  0.3885  0.2398  0.1740
  916MOL0     C26313   3.205   6.333   3.643 -0.4469 -0.0335 -0.1594
  916MOL0     C26314   3.117   6.282   3.764 -0.2082  0.1537  0.2345
  916MOL0    Cl26315   2.941   6.288   3.701  0.0712 -0.1114  0.0180
  916MOL0     C26316   4.187   6.204   3.487 -0.0969  0.1601 -0.9636
  916MOL0     C26317   4.309   6.236   3.439  0.3733 -0.3534 -0.3808
  916MOL0     O26318   4.639   6.275   3.661 -0.0337 -0.4224  0.2019
  916MOL0     C26319   4.863   6.389   3.521 -0.4560  0.1843  0.6707
  916MOL0     C26320   4.980   6.414   3.454 -0.9558  0.0717 -0.2794
  916MOL0     N26321   5.296   6.880   2.990 -0.1302  0.0068 -0.3708
  916MOL0     N26322   5.357   6.967   2.915 -0.1891 -1.1340 -0.9396
  916MOL0     C26323   4.999   6.350   2.139  1.0187  0.3792  0.0088
  916MOL0     C26324   4.873   6.294   2.181  0.7137 -1.4393 -0.1291
  916MOL0     C26325   4.528   6.036   2.244 -0.2998 -0.7225 -0.0835
  916MOL0     C26326   4.532   5.955   2.361 -0.2813 -0.7490 -0.3619
  916MOL0     C26327   4.414   5.904   2.423  0.6117 -0.9730 -0.6637
  916MOL0     C26328   4.292   5.921   2.350  1.1590 -0.7319 -0.4757
  916MOL0     O26329   4.168   5.868   2.390  0.4288 -0.8261  0.0625
  916MOL0     C26330   4.161   5.783   2.504  0.2290  0.3430 -0.2640
  916MOL0     C26331   4.020   5.736   2.516 -0.7308  0.0992 -0.1023
  916MOL0     C26332   4.001   5.629   2.623 -1.2607  0.0099 -0.3564
  916MOL0     C26333   3.956   5.500   2.554  0.7880 -0.0607 -0.2152
  916MOL0     C26334   3.937   5.387   2.654 -0.2395  0.2183 -0.0058
  916MOL0     C26335   3.921   5.282   2.701  0.6483  0.1269  0.1996
  916MOL0     C26336   4.288   5.985   2.232  0.5282  0.0955  0.1243
  916MOL0     C26337   4.405   6.046   2.167 -0.0014 -0.2330 -0.8001
  916MOL0     C26338   4.380   6.129   2.046  0.2844  0.7021 -0.2533
  916MOL0     H26339   4.970   6.063   2.403 -0.3477  1.5936  1.5670
  916MOL0     H26340   5.185   6.171   2.357  0.4850  0.3518 -0.3540
  916MOL0     H26341   5.165   6.574   2.225  1.9968 -0.2431  2.5543
  916MOL0     H26342   5.187   6.510   2.060 -2.7379 -0.2537  1.9334
  916MOL0     H26343   5.436   6.499   2.136 -3.8223 -2.9646  1.2251
  916MOL0     H26344   5.369   6.658   2.086 -2.4481 -2.5084 -4.9921
  916MOL0     H26345   5.330   6.708   2.321  0.4082 -0.5211 -0.4090
  916MOL0     H26346   5.372   6.543   2.380 -1.3189  0.5171  0.5855
  916MOL0     H26347   5.600   6.599   2.300 -2.2594 -1.2083 -3.3669
  916MOL0     H26348   5.542   6.757   2.236 -0.1564  2.4082  2.6505
  916MOL0     H26349   5.655   6.801   2.440 -0.2559  0.5161  3.4553
  916MOL0     H26350   5.552   6.696   2.533 -0.9914  1.3120  0.5361
  916MOL0     H26351   5.446   6.937   2.378 -1.6703 -1.1478 -0.2598
  916MOL0     H26352   5.346   6.840   2.491 -1.4088  2.3618 -1.3605
  916MOL0     H26353   5.556   7.041   2.539 -0.9120  0.3369 -0.9067
  916MOL0     H26354   5.550   6.902   2.649 -0.1112  1.0516  2.0563
  916MOL0     H26355   5.412   7.127   2.707 -1.8796 -0.6113  1.7799
  916MOL0     H26356   5.293   7.051   2.609 -0.6731  0.0745  0.4803
  916MOL0     H26357   5.226   6.787   2.684  0.7549 -4.4144  2.1802
  916MOL0     H26358   5.093   6.659   2.837 -2.6254 -0.6090  0.9325
  916MOL0     H26359   5.035   6.737   2.981 -1.5942 -0.9107 -1.2135
  916MOL0     H26360   5.282   6.575   3.014 -0.3886 -0.0769 -1.2649
  916MOL0     H26361   5.150   6.613   3.136 -0.3436 -0.0192 -0.5120
  916MOL0     H26362   4.986   6.462   3.015  1.0541 -0.0554 -1.4712
  916MOL0     H26363   5.105   6.402   2.911 -2.1726 -0.1389 -0.9974
  916MOL0     H26364   5.102   6.250   3.117  0.8246 -0.2277 -0.6646
  916MOL0     H26365   5.245   6.338   3.115  0.0963  1.9351 -1.9534
  916MOL0     H26366   4.901   6.262   3.155 -0.6454 -0.9605 -0.2685
  916MOL0     H26367   4.727   6.077   3.216  0.5161 -2.6411  4.2078
  916MOL0     H26368   4.622   6.202   3.180 -1.2312  0.7481  0.2940
  916MOL0     H26369   4.608   6.124   3.334 -0.1605  2.4870  0.1781
  916MOL0     H26370   4.406   6.422   3.717 -2.7050  0.2098  1.8435
  916MOL0     H26371   4.195   6.348   3.794  1.8393  0.9815 -0.3237
  916MOL0     H26372   3.898   6.174   3.485 -2.8140 -0.2959  0.3311
  916MOL0     H26373   3.974   6.035   3.571  0.8930  0.8918  0.2830
  916MOL0     H26374   3.762   5.999   3.656 -1.7131 -0.0431  0.9946
  916MOL0     H26375   3.808   6.126   3.766  0.4390  3.6293 -0.3745
  916MOL0     H26376   3.642   6.161   3.501  0.3843 -2.2651  0.1291
  916MOL0     H26377   3.690   6.298   3.613 -0.6003 -0.6818  0.5570
  916MOL0     H26378   3.562   6.186   3.792 -0.1859 -2.5344  0.4245
  916MOL0     H26379   3.553   6.035   3.703 -1.5170 -1.0228  3.3129
  916MOL0     H26380   3.386   6.155   3.531  1.2074 -2.3071 -0.6794
  916MOL0     H26381   3.347   6.092   3.695 -0.9077  2.6380  1.0582
  916MOL0     H26382   3.413   6.371   3.614  0.6962 -0.2851 -0.1378
  916MOL0     H26383   3.373   6.311   3.782  1.5457 -0.1311  0.0111
  916MOL0     H26384   3.177   6.299   3.543 -1.3182  1.2914 -0.3973
  916MOL0     H26385   3.184   6.441   3.648 -3.9084 -0.4373 -2.5311
  916MOL0     H26386   3.132   6.337   3.857 -0.9959  0.0529  0.4328
  916MOL0     H26387   3.143   6.179   3.788  2.6317  1.1525  1.9647
  916MOL0     H26388   4.128   6.134   3.429  0.8580 -2.4370  1.0426
  916MOL0     H26389   4.334   6.211   3.337 -0.8649  0.2652 -0.8620
  916MOL0     H26390   4.860   6.403   3.629 -1.6204 -1.8213  0.9534
  916MOL0     H26391   5.069   6.452   3.504 -0.6825 -0.1943 -0.5563
  916MOL0     H26392   4.994   6.431   2.067  0.9785  1.5993  1.3110
  916MOL0     H26393   4.782   6.337   2.142  2.3683 -0.3433 -3.0457
  916MOL0     H26394   4.630   5.940   2.405  0.1472  4.3256  1.1657
  916MOL0     H26395   4.414   5.859   2.522 -1.2106 -1.1696 -0.7201
  916MOL0     H26396   4.226   5.697   2.491  2.4115  1.6457  1.3853
  916MOL0     H26397   4.171   5.848   2.591  0.7987 -1.5382  1.1281
  916MOL0     H26398   3.991   5.700   2.417  0.9150 -0.8940 -0.2678
  916MOL0     H26399   3.965   5.828   2.536 -0.2959  0.5827 -1.0861
  916MOL0     H26400   4.100   5.611   2.664 -0.3947 -0.7376 -2.5759
  916MOL0     H26401   3.930   5.665   2.698  0.2541  1.0533  0.6108
  916MOL0     H26402   4.031   5.478   2.477 -0.9719  1.6551 -2.5607
  916MOL0     H26403   3.859   5.517   2.506  0.8074 -0.6263 -0.4689
  916MOL0     H26404   3.916   5.182   2.738  0.8828  0.2394  0.5380
  916MOL0     H26405   4.195   5.993   2.178  0.9492 -0.3987 -0.6823
  916MOL0     H26406   4.407   6.069   1.959  0.8468 -1.0343  1.0761
  916MOL0     H26407   4.274   6.157   2.037  0.0220 -0.3852 -0.5944
  916MOL0     H26408   4.449   6.214   2.038  1.8545 -0.5607 -0.4276
  917MOL0     O26409   8.847   9.724   5.257  0.2119  0.4665  0.1384
  917MOL0     C26410   8.919   9.817   5.230  0.0454  0.4769  0.4351
  917MOL0     O26411   8.980   9.895   5.328  0.4921  0.0809  0.0234
  917MOL0     C26412   8.981   9.843   5.457  0.5090  0.3485 -0.2101
  917MOL0     C26413   8.895   9.910   5.547  0.0547 -0.0311 -0.3323
  917MOL0     C26414   8.899   9.866   5.684  0.0164 -0.2944 -0.4987
  917MOL0     C26415   8.979   9.755   5.724 -0.1220  0.4398  0.1227
  917MOL0     O26416   8.958   9.704   5.852  0.0925 -0.6763 -0.2209
  917MOL0     C26417   8.989   9.568   5.879 -0.2071  0.5612 -0.8785
  917MOL0     C26418   8.965   9.539   6.030  0.7441  1.0577 -0.0748
  917MOL0     C26419   8.993   9.385   6.063 -0.1998 -0.1416 -0.1549
  917MOL0     C26420   8.957   9.350   6.203 -0.4825 -0.7863 -0.8844
  917MOL0     C26421   9.018   9.209   6.236  0.5341  0.1486  0.6653
  917MOL0     C26422   8.957   9.156   6.374  0.0848  0.1713  0.9024
  917MOL0     C26423   9.074   9.083   6.444  0.0045  0.2347  0.1597
  917MOL0     C26424   9.052   9.000   6.567  0.3734  0.1046 -0.4375
  917MOL0     N26425   9.166   8.981   6.662 -0.0900 -0.5854 -0.5813
  917MOL0     C26426   9.303   8.955   6.638  0.1960 -0.1633 -0.6434
  917MOL0     C26427   9.358   8.903   6.756 -0.3732 -0.5608  0.0574
  917MOL0     C26428   9.497   8.846   6.782  0.0493 -0.0474  0.1935
  917MOL0     C26429   9.491   8.730   6.885  0.3924  0.3449 -0.2222
  917MOL0     C26430   9.630   8.680   6.912 -0.2560 -0.1778 -0.0828
  917MOL0     C26431   9.622   8.548   6.987  0.1280 -0.8556  0.0293
  917MOL0     O26432   9.756   8.507   7.014 -0.1384 -0.0711 -0.1061
  917MOL0     C26433   9.778   8.388   7.086  0.4569  0.5301  0.3611
  917MOL0     C26434   9.910   8.338   7.102 -0.1393 -0.3905 -0.3288
  917MOL0     C26435   9.940   8.214   7.162  0.0493  0.0913 -0.5992
  917MOL0     C26436  10.078   8.162   7.168 -0.4386 -0.0895 -0.1925
  917MOL0     C26437   9.836   8.146   7.231  0.4652 -0.0095 -0.0823
  917MOL0     C26438   9.853   8.051   7.345 -0.6561  0.0292  0.4284
  917MOL0     O26439   9.978   8.053   7.416 -0.0691 -0.2992 -0.0143
  917MOL0     C26440  10.023   7.946   7.486  0.3569 -0.0121  0.0109
  917MOL0     C26441  10.141   7.962   7.565 -0.4683  0.5363 -0.1286
  917MOL0     C26442  10.179   7.865   7.660 -0.6079  0.4531 -0.1675
  917MOL0     C26443  10.113   7.738   7.664  0.2696  0.3123  0.2000
  917MOL0     O26444  10.158   7.627   7.731 -0.9150  0.0690 -0.3339
  917MOL0     C26445  10.236   7.650   7.847 -1.0357 -0.4786 -0.3449
  917MOL0     C26446  10.380   7.589   7.825  0.1655  0.1147  0.4580
  917MOL0     C26447  10.484   7.683   7.762 -0.2850 -0.1742  0.0930
  917MOL0     C26448  10.632   7.646   7.779  0.0748  0.9468 -0.0042
  917MOL0     C26449  10.677   7.520   7.705 -0.1849 -0.2008  0.3997
  917MOL0     C26450  10.792   7.457   7.767  0.1770 -0.5427 -0.1500
  917MOL0     C26451  10.853   7.373   7.653 -0.1091 -0.0153 -0.1005
  917MOL0     C26452  10.985   7.304   7.700  0.3004  0.0367  0.5541
  917MOL0    Cl26453  10.944   7.190   7.839 -0.2165  0.0651  0.5646
  917MOL0     C26454   9.999   7.724   7.584 -0.1160 -0.4643 -0.6209
  917MOL0     C26455   9.954   7.826   7.499  1.1341  0.8278  0.0574
  917MOL0     O26456   9.757   7.984   7.373  1.0961  0.2544  1.3051
  917MOL0     C26457   9.708   8.189   7.207  0.0399 -0.6956  0.0844
  917MOL0     C26458   9.673   8.296   7.125  0.6527 -0.2563 -0.0017
  917MOL0     N26459   9.255   8.922   6.847 -0.2960  0.6084 -0.0311
  917MOL0     N26460   9.150   8.969   6.796  0.2239 -0.5563 -0.3166
  917MOL0     C26461   9.073   9.699   5.632 -0.0860 -0.5854  0.2613
  917MOL0     C26462   9.070   9.745   5.500  0.2086 -0.5224 -0.0665
  917MOL0     C26463   8.924   9.842   5.087  0.7187  0.0593  0.3528
  917MOL0     C26464   8.942   9.977   5.047 -0.0689 -1.1522 -0.5057
  917MOL0     C26465   8.923  10.023   4.916 -0.1214  1.4532 -0.4010
  917MOL0     C26466   8.901   9.928   4.814  0.4115  0.6202  0.2488
  917MOL0     O26467   8.890   9.976   4.687  0.4551  0.9989  0.3087
  917MOL0     C26468   8.762   9.949   4.630 -0.1055 -1.0874 -0.6200
  917MOL0     C26469   8.768   9.859   4.505 -0.7059 -0.2283  0.5813
  917MOL0     C26470   8.856   9.920   4.400 -0.6369  0.5736  0.3498
  917MOL0     C26471   8.849   9.840   4.270 -1.2049 -0.5238  0.0466
  917MOL0     C26472   8.889   9.702   4.284 -0.1405 -0.2890 -0.8016
  917MOL0     C26473   8.910   9.580   4.308 -0.3608  0.5295 -0.2370
  917MOL0     C26474   8.909   9.791   4.844 -0.2576  0.6213 -0.3513
  917MOL0     C26475   8.915   9.748   4.981  0.2977  0.0954 -0.1111
  917MOL0     C26476   8.908   9.588   5.001 -0.9287 -0.0077  0.2534
  917MOL0     H26477   8.819   9.978   5.510 -1.1507 -2.3509 -2.4044
  917MOL0     H26478   8.830   9.915   5.752  0.8328 -0.3292  0.3655
  917MOL0     H26479   9.095   9.549   5.858  0.4768  1.1265  1.6745
  917MOL0     H26480   8.935   9.498   5.815  0.8195 -1.0771 -0.0121
  917MOL0     H26481   9.038   9.597   6.088 -0.2764  1.2004  1.1286
  917MOL0     H26482   8.864   9.557   6.070 -0.0810 -1.8022 -0.6799
  917MOL0     H26483   8.926   9.322   6.003 -0.2189  0.4376 -0.7487
  917MOL0     H26484   9.098   9.372   6.039 -0.2420  1.3978 -1.3213
  917MOL0     H26485   9.004   9.423   6.270 -0.1578 -1.2468 -0.6095
  917MOL0     H26486   8.848   9.349   6.216 -0.2783  1.2661  1.8735
  917MOL0     H26487   9.127   9.217   6.228  0.4746  0.0627 -0.3770
  917MOL0     H26488   8.982   9.138   6.162 -2.8658 -0.3734  2.6487
  917MOL0     H26489   8.922   9.238   6.437  1.5839  3.0502 -1.7896
  917MOL0     H26490   8.876   9.085   6.354  0.9240 -0.7661  0.7017
  917MOL0     H26491   9.143   9.158   6.486  1.3428 -2.1981  2.6257
  917MOL0     H26492   9.137   9.028   6.374 -2.1391 -2.4110  0.1572
  917MOL0     H26493   8.977   9.046   6.633 -0.8729 -1.4748 -0.7010
  917MOL0     H26494   9.015   8.903   6.534  0.0278  0.3879 -0.9070
  917MOL0     H26495   9.351   8.951   6.541 -0.1242 -0.8161 -0.7818
  917MOL0     H26496   9.558   8.929   6.818 -0.6973  1.4704 -1.8878
  917MOL0     H26497   9.544   8.826   6.686 -1.4911  2.9655 -1.3042
  917MOL0     H26498   9.440   8.767   6.974 -1.0863  0.4399 -1.0858
  917MOL0     H26499   9.429   8.650   6.843  0.4476 -0.1210  0.5642
  917MOL0     H26500   9.666   8.664   6.810  0.8485  0.0570  0.2545
  917MOL0     H26501   9.685   8.761   6.961 -1.2620  0.7044 -0.3822
  917MOL0     H26502   9.576   8.568   7.085  3.8331  1.6584  1.4886
  917MOL0     H26503   9.574   8.472   6.925 -0.1736 -0.2305 -0.5146
  917MOL0     H26504   9.978   8.405   7.052 -1.6115  1.9524  0.6663
  917MOL0     H26505  10.078   8.054   7.153 -0.0548 -0.0222 -0.7072
  917MOL0     H26506  10.124   8.182   7.265 -2.1954 -0.6835  0.8019
  917MOL0     H26507  10.138   8.206   7.088 -3.6603  3.0014 -1.1828
  917MOL0     H26508  10.190   8.058   7.561  2.7868 -0.9392  0.7224
  917MOL0     H26509  10.268   7.877   7.720 -1.5317  0.5738  1.2304
  917MOL0     H26510  10.235   7.755   7.877 -1.3022 -1.0686  1.8251
  917MOL0     H26511  10.186   7.598   7.929 -1.4179 -0.2116 -0.4050
  917MOL0     H26512  10.418   7.553   7.922 -0.4462  2.9298  1.8474
  917MOL0     H26513  10.360   7.499   7.766  0.5222  0.0751  0.3977
  917MOL0     H26514  10.478   7.783   7.806  1.5440  0.5212 -1.1118
  917MOL0     H26515  10.466   7.703   7.656 -0.8518  2.3712  0.6121
  917MOL0     H26516  10.651   7.634   7.887  2.0751 -0.5173 -0.4643
  917MOL0     H26517  10.693   7.732   7.751  0.1927  0.4961 -1.1754
  917MOL0     H26518  10.593   7.450   7.713 -0.0195 -0.4094  0.3017
  917MOL0     H26519  10.687   7.552   7.601 -1.9953 -4.3807 -1.2852
  917MOL0     H26520  10.773   7.397   7.856  2.9110 -4.2863 -1.8069
  917MOL0     H26521  10.868   7.529   7.802 -0.7219  0.3393  0.0302
  917MOL0     H26522  10.880   7.434   7.565  1.9682  0.0608  0.5374
  917MOL0     H26523  10.782   7.296   7.622  0.3024 -1.0647  1.4695
  917MOL0     H26524  11.070   7.366   7.728  0.8017 -0.5857  0.4493
  917MOL0     H26525  11.023   7.233   7.626 -3.8990 -0.9170 -0.9671
  917MOL0     H26526   9.948   7.630   7.603 -0.0656 -0.5720 -1.0091
  917MOL0     H26527   9.860   7.794   7.455  0.9031  1.6331 -0.0486
  917MOL0     H26528   9.623   8.146   7.259 -1.0643 -0.5761 -1.5604
  917MOL0     H26529   9.573   8.326   7.096  0.3133  0.1204  1.5124
  917MOL0     H26530   9.154   9.639   5.671  2.3420  1.2547 -1.6508
  917MOL0     H26531   9.152   9.723   5.433 -0.2686  2.6511 -1.9020
  917MOL0     H26532   8.955  10.049   5.127 -2.2908 -1.3441  0.0880
  917MOL0     H26533   8.928  10.129   4.891 -0.8789  1.2920 -1.3157
  917MOL0     H26534   8.694   9.919   4.710 -0.7655  1.4445 -0.1208
  917MOL0     H26535   8.731  10.050   4.602 -0.7422 -1.4977 -1.4226
  917MOL0     H26536   8.661   9.856   4.483 -1.0114  0.8592  1.7906
  917MOL0     H26537   8.805   9.762   4.540  2.6742  1.2481  1.5292
  917MOL0     H26538   8.832  10.024   4.373  3.5501  1.2394 -1.7074
  917MOL0     H26539   8.959   9.929   4.437  0.2628  1.3688 -2.1004
  917MOL0     H26540   8.908   9.887   4.191 -2.1314  0.4621 -0.0941
  917MOL0     H26541   8.744   9.849   4.239 -0.6505 -0.8646 -2.0451
  917MOL0     H26542   8.918   9.474   4.319 -2.5312  0.4443  1.0397
  917MOL0     H26543   8.904   9.717   4.764  0.8416 -1.4500  1.3819
  917MOL0     H26544   8.966   9.552   4.915  0.8357  0.1155  1.3495
  917MOL0     H26545   8.957   9.566   5.096 -1.2086  0.9304  0.6300
  917MOL0     H26546   8.810   9.538   5.005 -1.5964  1.3103  1.1995
  918MOL0     O26547   3.236  11.364   2.937 -0.8237 -0.0755  0.0367
  918MOL0     C26548   3.269  11.347   3.054  0.3323 -0.3579  0.5798
  918MOL0     O26549   3.188  11.289   3.140  0.4128  0.0772  0.3590
  918MOL0     C26550   3.069  11.231   3.105  0.0525 -0.4073 -0.1202
  918MOL0     C26551   3.053  11.096   3.068 -0.5615 -0.2775 -0.7598
  918MOL0     C26552   2.927  11.043   3.033  0.2389 -0.2309  0.4513
  918MOL0     C26553   2.805  11.120   3.056 -1.0519 -0.1027 -0.1747
  918MOL0     O26554   2.690  11.043   3.043  0.5696 -0.0196 -0.2122
  918MOL0     C26555   2.567  11.107   3.082  0.0105 -0.0770 -0.9387
  918MOL0     C26556   2.448  11.002   3.077  0.0119  0.7123 -0.1990
  918MOL0     C26557   2.495  10.869   3.151  0.4876  0.0989  0.3444
  918MOL0     C26558   2.379  10.769   3.147 -0.1447 -0.3311 -0.3779
  918MOL0     C26559   2.421  10.645   3.235 -0.0345 -0.3362 -0.2606
  918MOL0     C26560   2.516  10.558   3.154 -0.2905 -0.1855 -0.2911
  918MOL0     C26561   2.539  10.430   3.241 -0.2676  0.3058 -0.5827
  918MOL0     C26562   2.654  10.349   3.205 -0.6353 -0.2392  0.4067
  918MOL0     N26563   2.623  10.222   3.266 -0.2143  0.4984  0.3727
  918MOL0     C26564   2.625  10.181   3.393  0.2472 -0.9554 -0.1088
  918MOL0     C26565   2.557  10.064   3.394 -0.3273 -0.6031  0.1368
  918MOL0     C26566   2.521   9.987   3.514  0.6397  0.1155 -0.2324
  918MOL0     C26567   2.619   9.876   3.558  0.3584  0.3912  0.0576
  918MOL0     C26568   2.628   9.751   3.481  0.2012  0.4753  0.3142
  918MOL0     C26569   2.720   9.655   3.551  0.2092  0.6655 -0.1226
  918MOL0     O26570   2.699   9.531   3.480 -0.2436  0.4341  0.3077
  918MOL0     C26571   2.769   9.514   3.363 -0.5097 -0.7989 -0.7142
  918MOL0     C26572   2.738   9.403   3.293  0.1380 -0.0304  0.6878
  918MOL0     C26573   2.802   9.350   3.174 -0.6270  0.6786 -0.5295
  918MOL0     C26574   2.764   9.216   3.122 -0.2407 -0.0395 -0.4153
  918MOL0     C26575   2.911   9.430   3.128  0.3579  0.1973 -0.0252
  918MOL0     C26576   2.974   9.400   2.997 -0.3164 -0.5394 -0.2947
  918MOL0     O26577   2.916   9.304   2.912 -0.3862  0.0813  0.4375
  918MOL0     C26578   2.975   9.288   2.790  0.5505 -0.4595 -0.8196
  918MOL0     C26579   2.874   9.301   2.693 -0.1129  0.4089 -0.2025
  918MOL0     C26580   2.909   9.291   2.564  0.3952 -0.0808  1.2037
  918MOL0     C26581   3.040   9.246   2.523  0.1850 -0.4486  0.1111
  918MOL0     O26582   3.066   9.244   2.387 -0.0986 -1.2868  0.6743
  918MOL0     C26583   3.179   9.182   2.333  0.0041 -0.2842  0.4947
  918MOL0     C26584   3.154   9.186   2.185 -0.0267 -0.0871 -0.1041
  918MOL0     C26585   3.258   9.090   2.108 -0.9416 -0.3231 -0.6863
  918MOL0     C26586   3.230   9.110   1.957  0.4896  0.4804 -0.6455
  918MOL0     C26587   3.308   9.001   1.888 -0.2296 -0.1603 -0.6579
  918MOL0     C26588   3.459   9.002   1.900 -0.3773 -0.2653  0.1672
  918MOL0     C26589   3.535   9.140   1.889 -1.0258  0.4604  0.1811
  918MOL0     C26590   3.683   9.128   1.854  0.5289  0.1425 -0.1136
  918MOL0    Cl26591   3.757   9.002   1.967  0.0064 -0.0239  0.2578
  918MOL0     C26592   3.137   9.230   2.622 -0.1570 -0.7321  0.3572
  918MOL0     C26593   3.106   9.260   2.759 -0.5211  0.7149 -0.0954
  918MOL0     O26594   3.087   9.451   2.979  0.0990 -0.3825 -0.2539
  918MOL0     C26595   2.938   9.552   3.192 -0.4772 -0.4175  0.5059
  918MOL0     C26596   2.875   9.594   3.308 -0.2996  0.1898  0.1415
  918MOL0     N26597   2.528  10.024   3.269  0.3899 -0.1955  0.4772
  918MOL0     N26598   2.559  10.128   3.189 -0.4788 -0.4861  0.4936
  918MOL0     C26599   2.822  11.253   3.084 -0.7318 -0.4534 -0.8876
  918MOL0     C26600   2.953  11.310   3.090 -0.5284  0.2381 -0.0040
  918MOL0     C26601   3.404  11.396   3.089 -0.3845 -0.4771 -0.3546
  918MOL0     C26602   3.414  11.436   3.222 -0.1090  0.4365  0.6012
  918MOL0     C26603   3.529  11.496   3.275 -0.4046  0.2025 -0.0937
  918MOL0     C26604   3.641  11.514   3.195  0.1325 -0.3313 -0.9387
  918MOL0     O26605   3.751  11.571   3.257  0.1309 -0.0130 -0.2614
  918MOL0     C26606   3.883  11.587   3.193 -0.0544 -0.2658  0.3607
  918MOL0     C26607   3.998  11.590   3.298  0.8499 -0.0486  0.0983
  918MOL0     C26608   4.038  11.449   3.365 -0.2377  0.6422  0.2941
  918MOL0     C26609   4.143  11.373   3.279 -0.8247 -0.2360 -0.2154
  918MOL0     C26610   4.275  11.439   3.286  0.8539  0.2069  0.0271
  918MOL0     C26611   4.380  11.491   3.267  0.0138 -0.9098  0.3856
  918MOL0     C26612   3.639  11.473   3.060 -0.1369 -0.5841  0.4967
  918MOL0     C26613   3.523  11.416   3.002  0.5721 -1.1862 -0.0368
  918MOL0     C26614   3.538  11.377   2.860  0.2361  0.3029  1.3517
  918MOL0     H26615   3.139  11.030   3.078 -1.0079 -0.4458  3.7604
  918MOL0     H26616   2.911  10.941   3.000 -2.1884 -0.0408  0.8618
  918MOL0     H26617   2.539  11.191   3.018 -0.3807  1.4649  1.1395
  918MOL0     H26618   2.567  11.150   3.183 -1.4737 -2.1549  0.0336
  918MOL0     H26619   2.359  11.037   3.131 -1.8697 -3.7985  0.0365
  918MOL0     H26620   2.415  10.992   2.973  0.3108 -1.5354 -0.1286
  918MOL0     H26621   2.578  10.824   3.094 -0.8542 -0.6100 -1.1333
  918MOL0     H26622   2.533  10.885   3.252 -0.2248  5.8794  0.0024
  918MOL0     H26623   2.292  10.818   3.191  1.7300  0.2377  3.0110
  918MOL0     H26624   2.357  10.747   3.041 -1.8274  4.4026 -1.2280
  918MOL0     H26625   2.329  10.589   3.255 -0.5073 -0.5494 -2.7123
  918MOL0     H26626   2.466  10.668   3.332  2.3215 -1.1590 -1.0868
  918MOL0     H26627   2.471  10.516   3.063 -0.1152 -1.5288  0.2270
  918MOL0     H26628   2.607  10.614   3.134 -0.6008  0.9802  1.3290
  918MOL0     H26629   2.451  10.366   3.233  0.2722 -0.5676  0.2371
  918MOL0     H26630   2.547  10.455   3.347 -2.2671  0.7513 -0.4970
  918MOL0     H26631   2.678  10.330   3.100 -3.4407 -4.5837  0.2925
  918MOL0     H26632   2.739  10.395   3.257 -3.2117  1.1468  3.7463
  918MOL0     H26633   2.667  10.239   3.474 -1.2945 -0.9692  0.7369
  918MOL0     H26634   2.425   9.940   3.491 -0.2383  1.6992  0.0207
  918MOL0     H26635   2.506  10.055   3.599 -0.6417  0.5956 -0.8299
  918MOL0     H26636   2.723   9.909   3.563  0.8873 -1.0311 -0.6686
  918MOL0     H26637   2.601   9.851   3.663 -0.5919 -2.5903 -0.6979
  918MOL0     H26638   2.531   9.702   3.488  0.0958  0.7775  0.9702
  918MOL0     H26639   2.659   9.771   3.378  3.4034  0.3515  1.1532
  918MOL0     H26640   2.825   9.686   3.562  0.2559 -0.1728  2.7135
  918MOL0     H26641   2.683   9.638   3.652 -1.1233  0.4096 -0.6345
  918MOL0     H26642   2.649   9.349   3.323  0.1786 -1.4032 -1.4425
  918MOL0     H26643   2.852   9.151   3.118  0.6412  0.9830  1.2713
  918MOL0     H26644   2.717   9.221   3.024  0.6349 -0.0039 -0.8369
  918MOL0     H26645   2.702   9.158   3.192  1.5475  0.1747  1.4650
  918MOL0     H26646   2.780   9.331   2.740  0.2592  1.8705 -0.3433
  918MOL0     H26647   2.834   9.320   2.491  1.9711  0.7804 -0.1476
  918MOL0     H26648   3.271   9.240   2.347  0.4111 -0.9372  0.5628
  918MOL0     H26649   3.191   9.082   2.375 -1.2722 -1.0033 -0.7776
  918MOL0     H26650   3.053   9.156   2.158  0.6066 -1.1115 -1.4880
  918MOL0     H26651   3.163   9.286   2.143  0.1163 -0.3750 -0.7698
  918MOL0     H26652   3.242   8.987   2.141  3.5475 -1.2585 -0.7806
  918MOL0     H26653   3.361   9.116   2.135 -1.2619 -1.2246  1.6773
  918MOL0     H26654   3.267   9.209   1.929  4.0401 -0.2389  0.8121
  918MOL0     H26655   3.124   9.095   1.936  0.0303  0.4065  1.5063
  918MOL0     H26656   3.277   8.901   1.921 -1.1494  1.1496  2.9468
  918MOL0     H26657   3.280   8.997   1.782 -0.0244 -1.0875 -0.6838
  918MOL0     H26658   3.495   8.930   1.826  2.6299 -0.5347  1.7120
  918MOL0     H26659   3.485   8.958   1.997  4.5240  0.0123 -0.7400
  918MOL0     H26660   3.516   9.197   1.980 -0.1132  0.6769  0.2477
  918MOL0     H26661   3.479   9.199   1.815 -2.2316 -0.3913  0.3815
  918MOL0     H26662   3.738   9.219   1.879 -0.3347  0.6858 -0.1296
  918MOL0     H26663   3.706   9.105   1.750  1.7593 -0.4711  0.2777
  918MOL0     H26664   3.239   9.201   2.599  0.6774  0.7887  1.8877
  918MOL0     H26665   3.182   9.251   2.836 -0.4910 -2.3575 -0.3739
  918MOL0     H26666   3.017   9.617   3.155  1.6700 -2.1817  1.6928
  918MOL0     H26667   2.903   9.688   3.354 -1.9644  1.3137 -1.0453
  918MOL0     H26668   2.735  11.318   3.087  0.2596  1.0441 -2.4927
  918MOL0     H26669   2.968  11.416   3.109  1.2508 -0.2912  1.8958
  918MOL0     H26670   3.326  11.410   3.279 -1.1439  0.1372 -1.0725
  918MOL0     H26671   3.536  11.529   3.378  1.1988 -2.5784  0.8050
  918MOL0     H26672   3.914  11.501   3.132 -0.4799 -2.3756  2.9128
  918MOL0     H26673   3.877  11.669   3.122  1.7097  0.8299  1.4060
  918MOL0     H26674   3.952  11.644   3.381 -2.1067 -0.8897 -0.8596
  918MOL0     H26675   4.093  11.634   3.267  1.3308  0.0288  1.6187
  918MOL0     H26676   4.083  11.477   3.460 -1.4385  1.8315  0.5324
  918MOL0     H26677   3.946  11.391   3.376  0.8558 -0.7931  2.4978
  918MOL0     H26678   4.125  11.362   3.172  3.0123  2.2201 -1.3191
  918MOL0     H26679   4.162  11.282   3.338 -0.9615  2.4040  4.3541
  918MOL0     H26680   4.474  11.541   3.258 -0.0090 -1.0299 -0.5850
  918MOL0     H26681   3.728  11.482   2.998 -1.0966 -0.4772 -0.9150
  918MOL0     H26682   3.504  11.273   2.860 -0.1158  0.4100  2.3056
  918MOL0     H26683   3.476  11.433   2.789  1.6672 -0.4654 -0.5746
  918MOL0     H26684   3.639  11.382   2.820 -0.4321 -0.7479 -0.6190
  919MOL0     O26685  10.988   5.393   8.012 -0.4267  0.3319 -0.1818
  919MOL0     C26686  10.938   5.353   8.115  0.1788  0.7111 -0.5390
  919MOL0     O26687  11.009   5.300   8.221  0.0357  1.1431 -0.0506
  919MOL0     C26688  11.136   5.255   8.190 -0.8228  0.2264  0.4578
  919MOL0     C26689  11.243   5.303   8.270 -0.3839  0.0808  0.1659
  919MOL0     C26690  11.369   5.262   8.257 -0.2776  0.3787  0.1333
  919MOL0     C26691  11.405   5.166   8.162 -0.2400 -0.1998 -0.2245
  919MOL0     O26692  11.526   5.099   8.167  0.2706  0.0164  0.1638
  919MOL0     C26693  11.630   5.159   8.238 -0.2757 -0.3533  0.7033
  919MOL0     C26694  11.756   5.086   8.209  0.2733  0.0659 -0.6771
  919MOL0     C26695  11.735   4.933   8.244 -0.9352 -0.4852  0.0734
  919MOL0     C26696  11.872   4.859   8.212 -0.1278 -0.8608 -0.0695
  919MOL0     C26697  11.912   4.868   8.068  0.0961  0.0444  1.1313
  919MOL0     C26698  12.012   4.754   8.025 -0.7369  0.0117  0.6035
  919MOL0     C26699  12.150   4.771   8.096 -0.3558 -0.1546  1.4135
  919MOL0     C26700  12.204   4.918   8.076  0.1936 -0.2866  0.0749
  919MOL0     N26701  12.339   4.954   8.135 -0.6256  0.4549 -0.1020
  919MOL0     C26702  12.447   5.005   8.062 -0.1498  0.2048 -0.2584
  919MOL0     C26703  12.532   5.050   8.161  0.1559  0.9315  1.2078
  919MOL0     C26704  12.679   5.084   8.138 -0.2558 -0.2826  0.1072
  919MOL0     C26705  12.719   5.177   8.025  0.0233  0.1359 -0.4457
  919MOL0     C26706  12.623   5.301   8.011  0.6843  0.0215 -0.4729
  919MOL0     C26707  12.623   5.392   8.140  1.7601 -0.4290  0.4653
  919MOL0     O26708  12.542   5.513   8.131  0.1925  0.0671 -0.4248
  919MOL0     C26709  12.405   5.506   8.139  0.5763  0.1209  0.2334
  919MOL0     C26710  12.338   5.397   8.192  0.9269 -0.3328  0.4415
  919MOL0     C26711  12.199   5.399   8.197  0.8766 -0.6777  0.3476
  919MOL0     C26712  12.135   5.276   8.249  0.4133 -0.1656 -0.0007
  919MOL0     C26713  12.129   5.503   8.131  0.0070  0.2385  0.1582
  919MOL0     C26714  11.972   5.511   8.114  0.1070  0.1140 -0.2539
  919MOL0     O26715  11.915   5.599   8.021  0.5196 -0.6572 -0.8414
  919MOL0     C26716  11.784   5.604   7.984 -0.1083  0.4519  0.3097
  919MOL0     C26717  11.663   5.534   8.043 -0.0179  0.6668  0.1830
  919MOL0     C26718  11.534   5.568   7.993 -0.1481 -0.7434  0.6424
  919MOL0     C26719  11.520   5.651   7.882  0.1009 -0.1511  0.5452
  919MOL0     O26720  11.397   5.672   7.843  0.3539 -0.2524  0.4316
  919MOL0     C26721  11.373   5.790   7.772  0.2179 -0.0502  0.1584
  919MOL0     C26722  11.228   5.813   7.738  0.4281  0.6913 -0.2969
  919MOL0     C26723  11.160   5.690   7.689 -0.2495  0.6344  0.0882
  919MOL0     C26724  11.021   5.732   7.650 -0.0260  0.8281  1.1987
  919MOL0     C26725  10.942   5.606   7.611  0.6079 -0.5223 -0.5059
  919MOL0     C26726  10.841   5.650   7.496  0.3946  0.7454  0.3812
  919MOL0     C26727  10.732   5.538   7.471 -0.2425 -0.0024 -0.9175
  919MOL0     C26728  10.593   5.577   7.414  0.1698 -0.5613  0.0452
  919MOL0    Cl26729  10.618   5.636   7.239  0.0615  0.0755 -0.2443
  919MOL0     C26730  11.639   5.712   7.828 -0.1872 -0.1347  0.5487
  919MOL0     C26731  11.760   5.694   7.880  0.2031  0.1228  0.1793
  919MOL0     O26732  11.914   5.448   8.193  1.3927  0.5805 -0.7834
  919MOL0     C26733  12.200   5.620   8.089 -0.5217 -0.1894 -0.0338
  919MOL0     C26734  12.342   5.619   8.088  0.6562  1.1468 -0.2277
  919MOL0     N26735  12.469   5.037   8.288  0.0300 -0.4800 -0.4835
  919MOL0     N26736  12.355   4.983   8.269  0.3325  0.6395  0.2666
  919MOL0     C26737  11.303   5.129   8.074  0.1457  0.4331 -0.3704
  919MOL0     C26738  11.167   5.164   8.092 -0.0378 -0.6227  1.2718
  919MOL0     C26739  10.785   5.341   8.118 -0.0462  0.9862  0.1745
  919MOL0     C26740  10.729   5.214   8.159 -0.9569 -0.1514 -0.3523
  919MOL0     C26741  10.589   5.208   8.181  0.2084  0.5397  0.7525
  919MOL0     C26742  10.502   5.309   8.152 -0.3858  0.2098 -0.4067
  919MOL0     O26743  10.371   5.321   8.188  0.2125  0.0079  0.3806
  919MOL0     C26744  10.321   5.232   8.289 -0.1754  0.6619  0.3458
  919MOL0     C26745  10.230   5.308   8.382  0.0634 -0.4706  1.1838
  919MOL0     C26746  10.302   5.426   8.454 -0.5377  0.1551 -0.0166
  919MOL0     C26747  10.218   5.501   8.551 -0.2385  0.3289 -0.0130
  919MOL0     C26748  10.099   5.561   8.482 -0.5133  0.1473 -0.5364
  919MOL0     C26749  10.013   5.614   8.416  0.4451  0.2919 -0.3961
  919MOL0     C26750  10.562   5.427   8.104 -0.2357  0.3852 -1.0741
  919MOL0     C26751  10.696   5.446   8.074  0.1629 -0.4916 -0.0070
  919MOL0     C26752  10.752   5.574   8.023  0.5442 -0.8586 -0.7705
  919MOL0     H26753  11.227   5.378   8.346 -0.4232 -1.7824  2.0966
  919MOL0     H26754  11.445   5.295   8.326  2.2006 -3.7004 -0.3253
  919MOL0     H26755  11.621   5.148   8.347  1.2874  0.7418  0.9812
  919MOL0     H26756  11.634   5.266   8.215  0.5765 -0.5577 -0.1648
  919MOL0     H26757  11.773   5.094   8.101 -1.2000  3.2971 -0.7974
  919MOL0     H26758  11.840   5.133   8.261 -0.8161  0.8081  0.4473
  919MOL0     H26759  11.720   4.925   8.352 -2.4037 -1.4049 -0.1718
  919MOL0     H26760  11.649   4.899   8.186  1.7758 -3.4350 -2.6627
  919MOL0     H26761  11.953   4.901   8.273  1.4456  1.8095 -3.6363
  919MOL0     H26762  11.850   4.754   8.235  0.3876 -1.3286 -1.6447
  919MOL0     H26763  11.941   4.973   8.062 -2.0806  0.6446 -0.0055
  919MOL0     H26764  11.823   4.861   8.005  2.8622 -1.2772 -3.0501
  919MOL0     H26765  11.954   4.663   8.039 -2.9479  1.2611  0.1183
  919MOL0     H26766  12.036   4.751   7.918 -1.8127 -2.5020  0.3618
  919MOL0     H26767  12.219   4.698   8.053 -0.9551  0.5869 -0.9290
  919MOL0     H26768  12.142   4.752   8.204 -1.0660 -3.9660  0.8140
  919MOL0     H26769  12.192   4.949   7.972  0.8494  2.8377  0.8273
  919MOL0     H26770  12.135   4.980   8.134 -0.1435  0.4409 -1.0561
  919MOL0     H26771  12.451   5.008   7.953 -3.7065  0.1654 -0.5147
  919MOL0     H26772  12.742   4.995   8.133 -0.1107 -0.1039 -3.2642
  919MOL0     H26773  12.711   5.130   8.232 -0.7351  0.0642  0.1059
  919MOL0     H26774  12.823   5.198   8.050  0.7917 -3.6537  0.1504
  919MOL0     H26775  12.708   5.120   7.932 -1.6237  1.6905 -1.2708
  919MOL0     H26776  12.667   5.361   7.931  0.1586 -1.5431 -1.9770
  919MOL0     H26777  12.522   5.265   7.993  1.2875 -1.8384 -0.3106
  919MOL0     H26778  12.590   5.334   8.227  0.5774 -1.7880 -0.8369
  919MOL0     H26779  12.724   5.428   8.164 -0.0590  2.3454  5.6042
  919MOL0     H26780  12.398   5.312   8.223  0.3788 -0.9226 -0.0723
  919MOL0     H26781  12.205   5.210   8.302  1.2757  0.5168 -0.2509
  919MOL0     H26782  12.088   5.220   8.168  0.3419  0.5057 -0.4259
  919MOL0     H26783  12.053   5.304   8.316  1.4008  1.3107  0.6555
  919MOL0     H26784  11.675   5.464   8.125 -0.3340 -0.0561 -0.3745
  919MOL0     H26785  11.444   5.515   8.024 -1.8000  0.5099 -1.7483
  919MOL0     H26786  11.384   5.885   7.824 -2.5057  1.2627 -1.4619
  919MOL0     H26787  11.439   5.785   7.685  1.0516 -3.6545  0.8337
  919MOL0     H26788  11.175   5.855   7.824  1.3788  1.9008 -0.2847
  919MOL0     H26789  11.231   5.886   7.657  1.6434  0.5134 -0.4248
  919MOL0     H26790  11.142   5.613   7.766 -2.2501  3.3300  2.5430
  919MOL0     H26791  11.204   5.643   7.601  0.0292 -1.2660  1.1625
  919MOL0     H26792  11.023   5.801   7.566  0.1303  0.2709  0.7351
  919MOL0     H26793  10.964   5.786   7.727 -2.7364  0.8227 -0.6568
  919MOL0     H26794  11.007   5.528   7.570  2.8770  2.1316 -2.3185
  919MOL0     H26795  10.898   5.566   7.703  1.7333  1.8566  1.1627
  919MOL0     H26796  10.885   5.657   7.396  1.4283 -3.5154  0.3695
  919MOL0     H26797  10.783   5.739   7.526  1.5661  0.9910  2.0317
  919MOL0     H26798  10.712   5.503   7.573 -1.7542  1.5497 -0.6264
  919MOL0     H26799  10.775   5.455   7.414 -1.7905 -2.6791  1.5488
  919MOL0     H26800  10.541   5.649   7.477  1.1946  0.9127 -0.7273
  919MOL0     H26801  10.532   5.486   7.417 -0.8367  0.1160  1.6661
  919MOL0     H26802  11.630   5.772   7.738 -4.9067  0.5098  1.2027
  919MOL0     H26803  11.845   5.741   7.831  0.3039 -1.7739 -1.6058
  919MOL0     H26804  12.152   5.714   8.066  0.8211  0.7580  0.9219
  919MOL0     H26805  12.413   5.697   8.060  1.6305  1.6885  3.3081
  919MOL0     H26806  11.317   5.052   7.998  0.0362  0.2018 -0.1573
  919MOL0     H26807  11.095   5.119   8.024  1.1096 -2.5908  1.2916
  919MOL0     H26808  10.793   5.132   8.192  1.4216  1.9267  0.5785
  919MOL0     H26809  10.543   5.119   8.221 -0.7858  0.2954 -0.8749
  919MOL0     H26810  10.265   5.156   8.234 -0.6293 -0.5180  2.3525
  919MOL0     H26811  10.408   5.192   8.341  1.4447 -1.0629 -3.3457
  919MOL0     H26812  10.192   5.234   8.453  0.2232 -3.3740 -1.5554
  919MOL0     H26813  10.148   5.340   8.316  1.3647 -1.1400 -0.8357
  919MOL0     H26814  10.391   5.379   8.496  0.3194  2.4621  0.9294
  919MOL0     H26815  10.334   5.498   8.379 -1.1883  0.5813  0.1082
  919MOL0     H26816  10.283   5.581   8.588  0.8267 -0.7374  0.4649
  919MOL0     H26817  10.193   5.428   8.628  0.3791 -2.8185 -2.5872
  919MOL0     H26818   9.933   5.665   8.367 -0.1732 -1.4915 -1.3388
  919MOL0     H26819  10.496   5.513   8.093  0.5717  0.9893 -1.3176
  919MOL0     H26820  10.670   5.639   7.992  1.3175  1.6213  1.9673
  919MOL0     H26821  10.803   5.636   8.098 -3.0339  3.6814 -1.6214
  919MOL0     H26822  10.809   5.561   7.931  0.5550  1.0052 -1.0595
  920MOL0     O26823   4.736   5.210   3.902  0.1922 -0.4513 -0.6428
  920MOL0     C26824   4.667   5.285   3.835 -0.9111 -0.4491 -1.2271
  920MOL0     O26825   4.717   5.358   3.736  0.3070 -0.3037 -0.6732
  920MOL0     C26826   4.852   5.355   3.720 -0.0731 -0.0687  0.4431
  920MOL0     C26827   4.920   5.443   3.801  0.4084  0.0932 -0.3001
  920MOL0     C26828   5.057   5.455   3.772  0.0439  0.3155 -0.7313
  920MOL0     C26829   5.121   5.380   3.672  0.7245  0.3579 -0.3878
  920MOL0     O26830   5.248   5.415   3.626 -0.4156 -0.4565 -0.0563
  920MOL0     C26831   5.295   5.550   3.652  0.3472  0.4817  0.1998
  920MOL0     C26832   5.424   5.569   3.580 -0.4177  1.3535 -0.5593
  920MOL0     C26833   5.414   5.531   3.429  0.6391 -1.4027  0.3245
  920MOL0     C26834   5.457   5.637   3.330 -0.3308 -0.1671 -0.3041
  920MOL0     C26835   5.463   5.578   3.193  0.1389  0.3732  0.2495
  920MOL0     C26836   5.455   5.684   3.084 -0.2543  0.3712 -0.6928
  920MOL0     C26837   5.490   5.620   2.949  0.3473  0.1048  0.3513
  920MOL0     C26838   5.473   5.711   2.820  1.1691 -0.7391 -0.5161
  920MOL0     N26839   5.563   5.820   2.836  0.0142 -0.2751  0.8558
  920MOL0     C26840   5.689   5.818   2.784  0.0308 -0.5981  0.9983
  920MOL0     C26841   5.745   5.936   2.809  0.7228 -0.3441 -0.1597
  920MOL0     C26842   5.889   5.990   2.770  0.1170  0.2271 -0.2156
  920MOL0     C26843   5.983   5.981   2.893  0.4118 -0.1090 -0.6412
  920MOL0     C26844   5.992   5.843   2.965  0.2956 -0.4890  0.4776
  920MOL0     C26845   6.118   5.831   3.055  0.0158 -0.1484  0.7210
  920MOL0     O26846   6.241   5.788   2.977  0.6662 -0.2512 -0.1403
  920MOL0     C26847   6.358   5.822   3.041 -1.0036  0.1033  0.1692
  920MOL0     C26848   6.476   5.798   2.965 -0.0208 -0.0299 -0.6115
  920MOL0     C26849   6.608   5.833   3.009 -0.3241 -0.4620  0.2804
  920MOL0     C26850   6.721   5.796   2.913  0.0370  0.2333  0.0681
  920MOL0     C26851   6.624   5.900   3.136 -0.8146 -0.1184  0.1605
  920MOL0     C26852   6.760   5.938   3.180 -0.0296  0.1293 -0.6716
  920MOL0     O26853   6.854   5.961   3.092  0.6185  0.4289 -0.0099
  920MOL0     C26854   6.986   5.950   3.143  0.2252 -0.5771  0.5756
  920MOL0     C26855   7.038   5.819   3.139  0.0417  0.3959  0.3762
  920MOL0     C26856   7.173   5.807   3.170  0.1473  0.0362 -0.1089
  920MOL0     C26857   7.252   5.918   3.215  0.2343 -0.2217 -0.0558
  920MOL0     O26858   7.380   5.890   3.256 -0.9644 -0.1669 -0.1584
  920MOL0     C26859   7.453   5.990   3.332 -0.8441  0.5831  0.6711
  920MOL0     C26860   7.555   5.906   3.416 -0.1724 -0.6624 -0.4024
  920MOL0     C26861   7.649   5.995   3.497  0.1007  0.1811  0.6697
  920MOL0     C26862   7.726   6.098   3.409 -0.1875 -0.1173 -0.1059
  920MOL0     C26863   7.868   6.118   3.454 -1.0355  0.3218  0.6689
  920MOL0     C26864   7.958   5.991   3.454  0.2079  1.0426 -0.2410
  920MOL0     C26865   8.103   6.036   3.457  0.0085  1.0563  0.6373
  920MOL0     C26866   8.185   5.952   3.557  0.4985 -0.7238 -0.4531
  920MOL0    Cl26867   8.346   6.030   3.582 -0.0715  0.3641 -0.0209
  920MOL0     C26868   7.196   6.045   3.191 -0.5700  0.2377  0.1848
  920MOL0     C26869   7.063   6.062   3.170  0.3900 -0.9540  0.1218
  920MOL0     O26870   6.778   5.956   3.301  0.1639  0.5228 -0.0687
  920MOL0     C26871   6.505   5.912   3.220 -0.3016 -0.1677 -0.5767
  920MOL0     C26872   6.379   5.868   3.171  0.5470  0.2844 -0.1754
  920MOL0     N26873   5.651   6.010   2.873  0.1966 -0.5380 -0.4253
  920MOL0     N26874   5.545   5.942   2.890  1.2704 -0.2329  0.2012
  920MOL0     C26875   5.045   5.287   3.596 -0.0696 -0.7183 -0.1381
  920MOL0     C26876   4.908   5.276   3.621 -0.6404 -0.2820 -0.0070
  920MOL0     C26877   4.525   5.303   3.869 -0.2480 -0.9584  0.3004
  920MOL0     C26878   4.463   5.179   3.903 -0.0150 -0.2981  0.0025
  920MOL0     C26879   4.328   5.175   3.923  0.3041  0.4826 -0.0286
  920MOL0     C26880   4.250   5.283   3.906  1.0439  0.5975  0.5326
  920MOL0     O26881   4.109   5.267   3.919  0.0255 -0.0259 -0.3592
  920MOL0     C26882   4.036   5.381   3.942 -0.4475  0.3467 -0.3059
  920MOL0     C26883   3.897   5.335   3.993 -0.0673 -0.4022  0.7096
  920MOL0     C26884   3.779   5.341   3.901 -0.4667 -0.1230  0.6874
  920MOL0     C26885   3.790   5.259   3.771 -0.4672  0.2455 -0.1019
  920MOL0     C26886   3.677   5.289   3.695  0.2273  0.3206  0.4695
  920MOL0     C26887   3.578   5.311   3.629 -0.8684 -0.6655 -0.0119
  920MOL0     C26888   4.306   5.396   3.859 -0.6479  0.0667  0.4365
  920MOL0     C26889   4.442   5.413   3.844 -0.3146  0.1140  0.4339
  920MOL0     C26890   4.514   5.547   3.805  1.7075  0.6325 -0.2466
  920MOL0     H26891   4.871   5.518   3.863 -1.2623  0.5362 -2.0621
  920MOL0     H26892   5.114   5.528   3.828  2.6768  0.3108 -3.2126
  920MOL0     H26893   5.306   5.570   3.758 -0.0040 -0.6350  0.4634
  920MOL0     H26894   5.228   5.623   3.606  3.1498  2.1635 -1.4286
  920MOL0     H26895   5.469   5.667   3.598 -2.0211  1.6534  2.5510
  920MOL0     H26896   5.493   5.495   3.620 -0.2028  2.8533  2.0301
  920MOL0     H26897   5.471   5.438   3.417  0.6647 -1.4452  0.7749
  920MOL0     H26898   5.309   5.505   3.411  0.5577 -1.0587  0.3009
  920MOL0     H26899   5.394   5.726   3.339  1.4821  1.0327  1.7321
  920MOL0     H26900   5.554   5.681   3.358 -1.3943  0.7870  2.1847
  920MOL0     H26901   5.375   5.512   3.188  0.3166  0.0656  0.9652
  920MOL0     H26902   5.549   5.511   3.185 -1.0088 -0.9608 -1.9304
  920MOL0     H26903   5.354   5.724   3.092 -0.0354  0.6827  1.0295
  920MOL0     H26904   5.532   5.758   3.108 -0.2725  0.4224 -0.7950
  920MOL0     H26905   5.433   5.528   2.937  1.7325 -0.5970 -1.2090
  920MOL0     H26906   5.596   5.594   2.947  0.6717  1.0322  2.4498
  920MOL0     H26907   5.502   5.655   2.730 -1.9219  0.9630 -2.7407
  920MOL0     H26908   5.370   5.745   2.806  1.7227  0.0552 -3.1210
  920MOL0     H26909   5.736   5.734   2.735 -0.6982  0.7365 -2.2791
  920MOL0     H26910   5.861   6.093   2.747 -2.0709 -0.1195  0.6707
  920MOL0     H26911   5.923   5.945   2.677  0.3702 -0.3458  0.1481
  920MOL0     H26912   6.085   6.010   2.867  0.8580  0.3744  1.4041
  920MOL0     H26913   5.957   6.061   2.963  0.6618  0.1044 -0.7886
  920MOL0     H26914   5.898   5.822   3.018  0.4522 -0.8271  0.6215
  920MOL0     H26915   5.996   5.761   2.893 -1.7429 -1.3741  1.2873
  920MOL0     H26916   6.135   5.924   3.110  3.0759 -0.7292  0.9128
  920MOL0     H26917   6.103   5.752   3.129 -0.1365 -0.3016  0.5261
  920MOL0     H26918   6.463   5.762   2.863 -1.5536  0.5273 -0.6425
  920MOL0     H26919   6.796   5.732   2.961  2.6021  3.1630  0.2213
  920MOL0     H26920   6.777   5.882   2.876  0.6743 -0.9334 -1.7743
  920MOL0     H26921   6.689   5.745   2.822  0.5302 -2.2115  1.1816
  920MOL0     H26922   6.983   5.732   3.105  2.1343 -1.0901  0.5930
  920MOL0     H26923   7.222   5.710   3.176  2.3874  1.2170  3.0000
  920MOL0     H26924   7.503   6.060   3.263 -0.7679 -0.3536 -0.2517
  920MOL0     H26925   7.391   6.053   3.396 -1.9945 -1.0216  1.1917
  920MOL0     H26926   7.506   5.835   3.482 -0.8787 -0.4425 -0.6825
  920MOL0     H26927   7.620   5.875   3.334  0.6372  1.3497 -0.5871
  920MOL0     H26928   7.716   5.933   3.557  1.7612  0.1081 -1.1654
  920MOL0     H26929   7.588   6.049   3.569 -3.3298  1.1479 -2.6109
  920MOL0     H26930   7.686   6.199   3.418  0.2245  0.1050 -0.7886
  920MOL0     H26931   7.722   6.064   3.305 -4.6249  0.7130 -0.3810
  920MOL0     H26932   7.913   6.189   3.385  2.0346 -3.7925 -2.0351
  920MOL0     H26933   7.865   6.152   3.558  0.8888  5.3287 -0.6498
  920MOL0     H26934   7.933   5.945   3.358 -0.6412  2.3704 -0.6911
  920MOL0     H26935   7.937   5.936   3.546 -0.1026  0.8444 -0.4328
  920MOL0     H26936   8.125   6.142   3.471  0.4527  1.3321 -1.6824
  920MOL0     H26937   8.144   6.023   3.356  0.0758  0.2557  0.7548
  920MOL0     H26938   8.210   5.855   3.514 -1.0732 -1.4278  0.1399
  920MOL0     H26939   8.123   5.928   3.644  0.3632  0.1803 -0.2835
  920MOL0     H26940   7.261   6.131   3.205  0.9625 -1.1349  1.8999
  920MOL0     H26941   7.028   6.163   3.156 -0.4063 -1.2389  0.0019
  920MOL0     H26942   6.522   5.950   3.320 -0.6267 -0.2855 -0.4773
  920MOL0     H26943   6.299   5.879   3.244  1.2847 -0.4432  0.7529
  920MOL0     H26944   5.099   5.248   3.510  0.7811 -0.8612  0.4443
  920MOL0     H26945   4.844   5.227   3.549  1.8127 -1.0282 -1.8044
  920MOL0     H26946   4.525   5.091   3.919  3.0243  1.8094  0.7656
  920MOL0     H26947   4.279   5.089   3.968  0.3199  0.4339 -0.1025
  920MOL0     H26948   4.083   5.434   4.025 -0.9760 -1.5133  1.2838
  920MOL0     H26949   4.019   5.442   3.853  1.2328 -3.5044 -3.5934
  920MOL0     H26950   3.873   5.389   4.085 -0.9854  0.1016  0.1887
  920MOL0     H26951   3.911   5.232   4.029  1.0666 -0.0284  1.3909
  920MOL0     H26952   3.690   5.305   3.953  0.0127  2.7056  3.7442
  920MOL0     H26953   3.774   5.448   3.878 -4.1559  0.1320  2.1087
  920MOL0     H26954   3.791   5.151   3.788 -0.0288  0.5059  1.7037
  920MOL0     H26955   3.880   5.288   3.717 -0.3460  0.2227  0.0893
  920MOL0     H26956   3.484   5.330   3.581 -0.3775  1.2336 -0.3152
  920MOL0     H26957   4.252   5.485   3.828 -0.5730  0.4391  1.3479
  920MOL0     H26958   4.605   5.569   3.861  0.7043  0.8028  1.3729
  920MOL0     H26959   4.532   5.534   3.698 -0.5772 -1.4861 -0.4743
  920MOL0     H26960   4.438   5.624   3.821 -0.3481 -1.1897 -0.7840
  921MOL0     O26961   7.253   7.881   9.999 -0.4334  0.1629  0.4669
  921MOL0     C26962   7.170   7.890  10.096 -0.2866 -0.2115  0.2172
  921MOL0     O26963   7.174   7.815  10.209 -0.6460 -0.0740 -0.3186
  921MOL0     C26964   7.292   7.736  10.217  0.0367  0.0695 -0.6468
  921MOL0     C26965   7.413   7.790  10.260  0.6458  0.4582 -0.2279
  921MOL0     C26966   7.532   7.707  10.245  0.4593 -0.5251  1.2175
  921MOL0     C26967   7.527   7.574  10.203 -0.9353  0.4420 -0.3557
  921MOL0     O26968   7.650   7.510  10.186 -0.3345 -0.3238  0.4157
  921MOL0     C26969   7.639   7.393  10.098  0.1238 -0.0944  0.0188
  921MOL0     C26970   7.773   7.328  10.088  0.5360  1.5784 -0.3948
  921MOL0     C26971   7.800   7.234  10.210  1.0322 -0.0081  0.1845
  921MOL0     C26972   7.934   7.156  10.194 -0.6314  0.0883 -0.3476
  921MOL0     C26973   8.063   7.251  10.212  0.6038 -0.0718  0.6959
  921MOL0     C26974   8.196   7.163  10.215  0.3128  0.2557  0.6180
  921MOL0     C26975   8.312   7.251  10.193  0.1849 -0.8206 -0.1368
  921MOL0     C26976   8.445   7.171  10.220 -0.5348  0.7958 -0.0118
  921MOL0     N26977   8.459   7.038  10.156  0.1424 -0.2679  0.7638
  921MOL0     C26978   8.492   7.015  10.026 -0.1313 -0.0029  0.2776
  921MOL0     C26979   8.498   6.882  10.010  0.1758 -0.5477  0.8288
  921MOL0     C26980   8.533   6.805   9.889 -0.2022  0.2764 -0.5064
  921MOL0     C26981   8.642   6.691   9.931 -0.1155 -0.2060  0.0545
  921MOL0     C26982   8.643   6.602   9.813  0.1282  0.4265  0.5733
  921MOL0     C26983   8.753   6.494   9.828  0.2129 -0.0305 -0.7574
  921MOL0     O26984   8.768   6.444   9.698  0.2196 -0.6598  0.1465
  921MOL0     C26985   8.860   6.349   9.679 -0.2851  0.2290  0.7726
  921MOL0     C26986   8.956   6.302   9.770 -0.0396 -0.0595 -0.2776
  921MOL0     C26987   9.064   6.220   9.738  0.8547 -0.1792  0.1941
  921MOL0     C26988   9.164   6.199   9.848 -0.4288 -0.1786  0.4310
  921MOL0     C26989   9.070   6.175   9.605  0.8337  0.2104 -0.5104
  921MOL0     C26990   9.176   6.083   9.554 -0.3648 -1.0941 -0.0043
  921MOL0     O26991   9.153   6.025   9.426 -0.5650  0.3549 -0.4302
  921MOL0     C26992   9.260   5.965   9.367  0.6507 -0.2191 -0.4456
  921MOL0     C26993   9.326   5.850   9.424 -0.6751 -0.2149  0.7630
  921MOL0     C26994   9.447   5.815   9.353 -0.7511  0.1692  0.6543
  921MOL0     C26995   9.503   5.878   9.241  0.5877 -1.0503 -0.7707
  921MOL0     O26996   9.614   5.845   9.168 -0.4899  0.0323 -0.5293
  921MOL0     C26997   9.683   5.729   9.213 -0.6953 -0.1992  0.1073
  921MOL0     C26998   9.805   5.696   9.136 -0.2598 -0.1449 -0.9560
  921MOL0     C26999   9.804   5.678   8.983  0.5040  0.7909  0.7153
  921MOL0     C27000   9.904   5.560   8.943 -0.5518 -0.2375 -0.5657
  921MOL0     C27001  10.043   5.612   8.970 -0.3055 -0.5935 -0.7184
  921MOL0     C27002  10.139   5.498   8.945  0.3436 -0.6530 -0.2471
  921MOL0     C27003  10.289   5.535   8.976 -0.4392  0.0056 -0.3450
  921MOL0     C27004  10.306   5.528   9.127  0.3946  0.0637  0.4296
  921MOL0    Cl27005  10.352   5.364   9.158  0.3722 -0.2386  0.2457
  921MOL0     C27006   9.435   5.992   9.203 -0.0678  0.0034 -0.1326
  921MOL0     C27007   9.315   6.029   9.259  1.1169 -0.2394  0.6878
  921MOL0     O27008   9.266   6.055   9.630 -0.2326  0.5170 -0.4205
  921MOL0     C27009   8.971   6.219   9.509 -0.8275 -0.2051  0.8816
  921MOL0     C27010   8.874   6.313   9.547  0.5195 -0.4000 -0.6949
  921MOL0     N27011   8.482   6.828  10.136  0.5843  0.5620  0.0851
  921MOL0     N27012   8.457   6.928  10.221  0.8476  0.9150  0.2622
  921MOL0     C27013   7.399   7.520  10.181  0.5689  0.3901  1.1042
  921MOL0     C27014   7.285   7.606  10.174 -0.2718  0.3569 -0.8075
  921MOL0     C27015   7.067   8.006  10.085 -0.0879 -0.4307 -0.3363
  921MOL0     C27016   6.974   8.015  10.191  0.2881 -0.2744 -0.5858
  921MOL0     C27017   6.887   8.122  10.188  1.0074  0.2171  0.0944
  921MOL0     C27018   6.883   8.224  10.090 -0.1595  0.7441 -0.4339
  921MOL0     O27019   6.792   8.326  10.116  0.2334 -0.3469  0.4615
  921MOL0     C27020   6.835   8.457  10.058 -0.2099  0.6907 -1.1937
  921MOL0     C27021   6.783   8.576  10.139 -0.1827  0.4481  0.7594
  921MOL0     C27022   6.633   8.577  10.148 -0.4731  0.2604  0.9209
  921MOL0     C27023   6.566   8.614  10.011  0.8583 -0.1094 -0.3184
  921MOL0     C27024   6.431   8.649  10.033  0.1622 -0.8184  0.9164
  921MOL0     C27025   6.318   8.674  10.056 -0.2823 -0.2257 -0.1963
  921MOL0     C27026   6.978   8.212   9.987  0.4362  0.0324  0.0102
  921MOL0     C27027   7.071   8.104   9.983 -0.6289  0.4831 -0.1121
  921MOL0     C27028   7.164   8.110   9.863  0.3268 -0.1145  0.1715
  921MOL0     H27029   7.418   7.894  10.291 -1.2766  0.1039  1.4420
  921MOL0     H27030   7.628   7.754  10.262  0.7892  1.6041 -4.5094
  921MOL0     H27031   7.603   7.409   9.996 -0.3232  0.2030  0.2216
  921MOL0     H27032   7.572   7.316  10.137 -0.8979  0.8264  0.1138
  921MOL0     H27033   7.787   7.270   9.997 -0.4867  1.7820 -0.6934
  921MOL0     H27034   7.854   7.402  10.080  1.1475  1.5513  3.5359
  921MOL0     H27035   7.815   7.288  10.304 -0.8965 -1.8115  1.6430
  921MOL0     H27036   7.716   7.167  10.231 -1.0035  2.8359  2.0398
  921MOL0     H27037   7.933   7.068  10.259  0.1020  0.4017  0.1043
  921MOL0     H27038   7.949   7.112  10.095  2.3909 -0.8465  0.4008
  921MOL0     H27039   8.046   7.307  10.304 -0.5253  1.4361 -0.3911
  921MOL0     H27040   8.064   7.323  10.130  1.2897 -0.8881 -0.0367
  921MOL0     H27041   8.212   7.117  10.313 -0.4065  2.5746  1.9107
  921MOL0     H27042   8.187   7.092  10.133  3.0777  0.2322  0.2556
  921MOL0     H27043   8.302   7.339  10.259 -2.1236 -0.4963 -0.8259
  921MOL0     H27044   8.304   7.290  10.091 -3.6736 -2.0424 -0.4646
  921MOL0     H27045   8.529   7.236  10.194  0.4029 -0.4911 -0.3532
  921MOL0     H27046   8.452   7.148  10.327  4.3802  4.3004  0.7460
  921MOL0     H27047   8.498   7.084   9.942 -1.9806 -0.0771  0.0390
  921MOL0     H27048   8.574   6.864   9.806  1.6062  0.0387  0.1726
  921MOL0     H27049   8.442   6.756   9.854 -0.7655 -0.6415  2.0464
  921MOL0     H27050   8.737   6.743   9.945  0.1005 -0.8034  0.8297
  921MOL0     H27051   8.623   6.645  10.028 -0.7143  0.3664  0.2215
  921MOL0     H27052   8.548   6.549   9.804 -1.1606  2.5072  1.2955
  921MOL0     H27053   8.665   6.674   9.733  0.8987  1.3755  1.6066
  921MOL0     H27054   8.847   6.534   9.867  0.8684 -0.1264 -2.1678
  921MOL0     H27055   8.724   6.419   9.903  1.8509  0.1116  0.0705
  921MOL0     H27056   8.959   6.343   9.871  4.1788  0.0817 -0.2720
  921MOL0     H27057   9.133   6.251   9.939  1.8991 -0.3768  1.4062
  921MOL0     H27058   9.268   6.229   9.829  0.2412  0.5544  4.3320
  921MOL0     H27059   9.155   6.094   9.877 -3.6344 -0.3879 -0.9181
  921MOL0     H27060   9.282   5.793   9.505 -1.4228 -2.3234 -1.0341
  921MOL0     H27061   9.497   5.727   9.391  1.0024  1.5896  1.8613
  921MOL0     H27062   9.721   5.745   9.314 -0.5524  0.5454 -0.0545
  921MOL0     H27063   9.613   5.646   9.205 -3.1103  1.6700  0.8252
  921MOL0     H27064   9.880   5.772   9.159  1.3300 -1.1268 -2.5876
  921MOL0     H27065   9.832   5.598   9.175  1.4586 -1.9700 -5.9590
  921MOL0     H27066   9.833   5.774   8.940 -1.0604  0.5321 -1.0198
  921MOL0     H27067   9.702   5.651   8.957  0.7146 -0.3208  0.9819
  921MOL0     H27068   9.887   5.535   8.838 -2.8648 -2.1171  0.1762
  921MOL0     H27069   9.881   5.471   9.002 -4.3142  1.9874  1.7430
  921MOL0     H27070  10.064   5.695   8.901 -0.5654 -0.4325 -0.6043
  921MOL0     H27071  10.066   5.649   9.070 -2.2495 -0.7622 -0.1785
  921MOL0     H27072  10.132   5.470   8.840  4.1861 -0.4773 -0.6975
  921MOL0     H27073  10.114   5.417   9.014 -2.1634 -0.6056 -0.9932
  921MOL0     H27074  10.312   5.637   8.944 -1.1663 -0.0682 -1.1319
  921MOL0     H27075  10.358   5.467   8.926  3.5415  0.2305  4.1390
  921MOL0     H27076  10.213   5.554   9.179 -1.2186 -0.6201 -1.9588
  921MOL0     H27077  10.391   5.589   9.160  1.5039 -1.8008  1.1753
  921MOL0     H27078   9.479   6.059   9.130 -1.1825 -0.2384 -1.0483
  921MOL0     H27079   9.262   6.119   9.231  0.2757 -0.6503  0.9314
  921MOL0     H27080   8.978   6.186   9.406  1.6632 -0.1442  0.9709
  921MOL0     H27081   8.804   6.355   9.475  2.8120  1.5611 -1.9251
  921MOL0     H27082   7.382   7.417  10.150 -3.2535  1.4151 -0.8607
  921MOL0     H27083   7.195   7.569  10.126  1.4325 -0.9863 -3.2148
  921MOL0     H27084   6.971   7.944  10.274 -0.1449 -0.1816 -0.5165
  921MOL0     H27085   6.820   8.112  10.273 -1.2461 -2.9947 -1.8831
  921MOL0     H27086   6.943   8.472  10.053  0.1052 -0.8642  0.1797
  921MOL0     H27087   6.808   8.455   9.952 -1.0381 -1.7557 -1.0031
  921MOL0     H27088   6.830   8.665  10.096  1.4370 -1.4144 -1.6448
  921MOL0     H27089   6.831   8.572  10.237 -2.1223  0.0619  1.7401
  921MOL0     H27090   6.600   8.477  10.178 -2.2318 -0.1105 -1.8627
  921MOL0     H27091   6.605   8.655  10.220  0.0021  2.9340 -1.6168
  921MOL0     H27092   6.571   8.534   9.936  1.0599  1.0056 -1.5234
  921MOL0     H27093   6.617   8.704   9.976 -0.0020  0.1504 -0.9408
  921MOL0     H27094   6.217   8.692  10.087  0.6516  2.8272  1.5018
  921MOL0     H27095   6.983   8.285   9.907 -0.4077  1.5406  1.2727
  921MOL0     H27096   7.155   8.206   9.813  4.0966  1.3669  1.9585
  921MOL0     H27097   7.266   8.118   9.902  0.2260  0.2412  0.3660
  921MOL0     H27098   7.150   8.024   9.797  1.7431 -0.8631  0.8065
  922MOL0     O27099   9.166   0.726  10.965 -0.6140 -0.5435 -0.5982
  922MOL0     C27100   9.149   0.643  10.877  0.4917  0.3862 -0.1327
  922MOL0     O27101   9.237   0.623  10.776  0.0855 -0.1286 -0.5887
  922MOL0     C27102   9.374   0.653  10.797 -0.6941 -0.2881 -0.5751
  922MOL0     C27103   9.451   0.638  10.916 -0.0304  0.0949  0.0696
  922MOL0     C27104   9.588   0.666  10.924 -0.4637  0.0871 -0.9878
  922MOL0     C27105   9.652   0.702  10.804  0.5265  0.2565  0.3148
  922MOL0     O27106   9.789   0.728  10.826  0.6244 -0.7192  0.5056
  922MOL0     C27107   9.863   0.756  10.711 -0.1399 -0.3106 -0.5107
  922MOL0     C27108  10.009   0.792  10.762 -0.3075 -0.0580 -0.7092
  922MOL0     C27109  10.100   0.813  10.642  0.5558  0.1078 -0.0290
  922MOL0     C27110  10.236   0.856  10.701 -0.0219  0.4593  0.8223
  922MOL0     C27111  10.339   0.870  10.595  0.6208 -0.3711  0.3833
  922MOL0     C27112  10.429   0.996  10.612  0.5497  0.1606 -0.6890
  922MOL0     C27113  10.545   0.988  10.508 -0.0212 -0.2368 -0.6109
  922MOL0     C27114  10.651   1.089  10.536 -0.2164 -0.3314 -0.6345
  922MOL0     N27115  10.741   1.087  10.414 -0.9675 -0.4862 -0.4563
  922MOL0     C27116  10.706   1.121  10.288  0.5376 -0.4676  0.0671
  922MOL0     C27117  10.824   1.093  10.218 -0.1103 -0.5646 -0.0558
  922MOL0     C27118  10.849   1.108  10.063 -0.4246 -1.1255 -1.0847
  922MOL0     C27119  10.974   1.186  10.033  0.7632 -0.2475 -0.7964
  922MOL0     C27120  11.017   1.170   9.889  0.1064  0.3022 -0.2881
  922MOL0     C27121  11.148   1.248   9.868  0.1194 -0.2393  0.1307
  922MOL0     O27122  11.124   1.389   9.894  0.0106  0.1184 -0.1638
  922MOL0     C27123  11.218   1.472   9.845 -0.4743 -0.4669 -0.0090
  922MOL0     C27124  11.214   1.612   9.877  0.8303 -0.6186  0.4504
  922MOL0     C27125  11.305   1.709   9.830  0.6721 -0.4586  0.2556
  922MOL0     C27126  11.277   1.858   9.868  0.2879 -0.2182  0.4248
  922MOL0     C27127  11.409   1.670   9.741  0.1547  0.2043 -0.1683
  922MOL0     C27128  11.528   1.754   9.704  0.1066 -0.2512  0.2982
  922MOL0     O27129  11.553   1.867   9.772 -0.0624 -0.0664 -0.1015
  922MOL0     C27130  11.662   1.941   9.758  0.1365 -0.4360  0.7130
  922MOL0     C27131  11.793   1.889   9.758  1.1640  0.4911 -0.0320
  922MOL0     C27132  11.908   1.963   9.733 -0.4996 -0.5511 -1.3363
  922MOL0     C27133  11.893   2.098   9.707 -0.6462 -0.2389  0.7812
  922MOL0     O27134  12.006   2.180   9.698 -0.0067 -0.2423  0.6464
  922MOL0     C27135  12.001   2.314   9.726  0.4352 -0.4772 -0.1251
  922MOL0     C27136  12.144   2.356   9.768  1.5328  0.3220  0.3409
  922MOL0     C27137  12.181   2.508   9.742  0.4684  0.2638  0.0598
  922MOL0     C27138  12.212   2.534   9.591 -0.8413  0.5051  1.5228
  922MOL0     C27139  12.296   2.663   9.561 -0.2296 -0.4789 -0.3354
  922MOL0     C27140  12.437   2.667   9.631 -0.0489  1.0068  0.2353
  922MOL0     C27141  12.515   2.801   9.610  0.1132  0.2701  0.0346
  922MOL0     C27142  12.503   2.896   9.731  0.0142 -0.3937  0.5265
  922MOL0    Cl27143  12.342   2.952   9.741 -0.2446 -0.1283  0.0601
  922MOL0     C27144  11.766   2.159   9.708  0.3324 -0.1366  0.3354
  922MOL0     C27145  11.653   2.081   9.737  0.3028  0.7732  0.6069
  922MOL0     O27146  11.602   1.708   9.616  0.2443 -0.6207  0.4684
  922MOL0     C27147  11.414   1.529   9.715  0.5062 -0.2728  0.3431
  922MOL0     C27148  11.326   1.431   9.759 -1.2674 -0.5720  0.4667
  922MOL0     N27149  10.923   1.066  10.308 -0.2168  0.0507 -1.0011
  922MOL0     N27150  10.871   1.049  10.423  0.6382 -0.2617  0.9534
  922MOL0     C27151   9.582   0.718  10.685  0.3765 -0.0810 -0.9386
  922MOL0     C27152   9.441   0.689  10.685 -0.8274  0.7029 -0.6050
  922MOL0     C27153   9.019   0.559  10.871 -1.6808 -0.3349 -0.3680
  922MOL0     C27154   8.996   0.476  10.765  0.6584  0.1444  0.7400
  922MOL0     C27155   8.889   0.391  10.750  0.6167 -0.6414 -0.1928
  922MOL0     C27156   8.790   0.398  10.845 -0.5326 -0.8628  0.5031
  922MOL0     O27157   8.688   0.314  10.837  0.2373  0.2156  0.3520
  922MOL0     C27158   8.606   0.348  10.729 -0.2194  1.3517 -0.1281
  922MOL0     C27159   8.512   0.235  10.724  0.4996  0.1594 -0.1234
  922MOL0     C27160   8.457   0.186  10.861 -0.3920  0.7099 -0.0373
  922MOL0     C27161   8.330   0.113  10.854  0.9766 -0.3357 -0.5434
  922MOL0     C27162   8.271   0.064  10.975  0.6576 -0.1469  0.2576
  922MOL0     C27163   8.242   0.036  11.091  0.0313  0.4769 -0.1240
  922MOL0     C27164   8.808   0.483  10.950  1.0319 -1.2592 -0.3504
  922MOL0     C27165   8.921   0.560  10.969  0.2366 -0.7816 -0.0866
  922MOL0     C27166   8.937   0.636  11.099  0.0410  0.4447 -0.0543
  922MOL0     H27167   9.396   0.602  11.002 -1.5929  1.2483 -0.3904
  922MOL0     H27168   9.637   0.656  11.021 -1.4278  0.9043 -0.3980
  922MOL0     H27169   9.824   0.846  10.663  1.7804  2.1242  2.1908
  922MOL0     H27170   9.876   0.676  10.636  0.4287 -1.3672  0.6757
  922MOL0     H27171  10.015   0.877  10.830  1.9550 -2.4388  2.4293
  922MOL0     H27172  10.051   0.712  10.825 -1.1264  1.1166  1.4532
  922MOL0     H27173  10.112   0.719  10.587 -0.2904  0.0707 -0.1534
  922MOL0     H27174  10.043   0.886  10.584  1.1584  0.0052 -0.7613
  922MOL0     H27175  10.218   0.950  10.753 -2.9466  1.3791 -1.5615
  922MOL0     H27176  10.272   0.781  10.773 -1.5908 -4.1025 -2.6967
  922MOL0     H27177  10.291   0.878  10.498  1.8073  0.3116 -0.1790
  922MOL0     H27178  10.389   0.773  10.588 -1.0679 -1.5613  3.0638
  922MOL0     H27179  10.377   1.088  10.580 -0.1529 -0.5111 -1.5333
  922MOL0     H27180  10.477   1.008  10.710 -1.2814 -1.2644  0.4527
  922MOL0     H27181  10.508   1.021  10.410  0.6919  0.5443 -0.6269
  922MOL0     H27182  10.591   0.889  10.506 -1.8032 -1.0827 -1.2066
  922MOL0     H27183  10.605   1.187  10.553  1.0704 -0.1051  1.9914
  922MOL0     H27184  10.715   1.068  10.621  0.4046  0.2669 -0.9508
  922MOL0     H27185  10.609   1.153  10.251  0.8210  2.2125  1.4063
  922MOL0     H27186  10.762   1.157  10.018  0.9927 -2.0876 -5.3980
  922MOL0     H27187  10.854   1.012  10.010  1.2285 -1.1691 -0.9045
  922MOL0     H27188  10.960   1.292  10.054  2.9474 -0.2353  0.9950
  922MOL0     H27189  11.055   1.159  10.101  0.7154  0.1121 -0.5946
  922MOL0     H27190  11.034   1.066   9.859 -0.2829  0.1320  0.0731
  922MOL0     H27191  10.938   1.205   9.823 -0.7183 -1.1050 -0.1032
  922MOL0     H27192  11.228   1.219   9.937  1.2660  2.5870  0.1088
  922MOL0     H27193  11.183   1.236   9.765  0.9461  2.3557  0.0482
  922MOL0     H27194  11.127   1.638   9.937 -0.4254 -0.7732 -1.2345
  922MOL0     H27195  11.182   1.863   9.922  0.0360  1.8977 -0.1385
  922MOL0     H27196  11.282   1.925   9.782  0.2384  2.3679  2.3126
  922MOL0     H27197  11.353   1.904   9.931 -1.2650  1.0510  1.4346
  922MOL0     H27198  11.790   1.781   9.769 -3.0582  0.6007  1.9222
  922MOL0     H27199  12.010   1.927   9.740 -1.0505 -1.9840 -0.0230
  922MOL0     H27200  11.984   2.370   9.634  2.1604  1.3999  0.6281
  922MOL0     H27201  11.929   2.333   9.806 -0.0166  0.1602 -0.6801
  922MOL0     H27202  12.158   2.352   9.876  4.8474 -1.1348 -0.0311
  922MOL0     H27203  12.224   2.302   9.717  1.1138  0.0428 -0.0318
  922MOL0     H27204  12.263   2.538   9.808  0.1761  1.4043 -0.0675
  922MOL0     H27205  12.092   2.571   9.754  0.4340  0.2553 -0.1421
  922MOL0     H27206  12.123   2.527   9.528 -0.5878  0.2370  1.1892
  922MOL0     H27207  12.274   2.452   9.555 -1.6182  0.8366 -0.6681
  922MOL0     H27208  12.301   2.674   9.452  2.6454  4.0246  0.0252
  922MOL0     H27209  12.233   2.744   9.599 -2.7189 -1.4157 -2.1271
  922MOL0     H27210  12.491   2.586   9.582 -2.4242 -0.9912  0.7463
  922MOL0     H27211  12.441   2.655   9.739 -1.0580  1.4134  0.3322
  922MOL0     H27212  12.473   2.838   9.516  1.0799 -1.1615 -0.9963
  922MOL0     H27213  12.620   2.784   9.585  0.1678  2.7487 -1.8061
  922MOL0     H27214  12.572   2.979   9.714 -0.8703  0.1991 -0.3600
  922MOL0     H27215  12.515   2.844   9.827 -1.0568  0.3265  1.0755
  922MOL0     H27216  11.762   2.263   9.675  2.7999 -0.4461 -1.1866
  922MOL0     H27217  11.553   2.123   9.742  0.0820  0.1641  1.3535
  922MOL0     H27218  11.499   1.486   9.663  0.9231 -1.8488  2.2308
  922MOL0     H27219  11.341   1.331   9.719 -0.6283 -0.3062  0.0147
  922MOL0     H27220   9.634   0.763  10.600  0.7332  0.0821 -0.6379
  922MOL0     H27221   9.400   0.705  10.586 -0.1807  0.4785 -0.9166
  922MOL0     H27222   9.066   0.463  10.683 -0.4956 -3.3221  0.1223
  922MOL0     H27223   8.888   0.323  10.666  1.1856 -1.0540  0.1357
  922MOL0     H27224   8.558   0.443  10.753  0.5493  1.0838  2.8265
  922MOL0     H27225   8.657   0.352  10.632 -1.4024 -1.0518 -0.9407
  922MOL0     H27226   8.553   0.149  10.670 -1.2034  0.4106 -1.9130
  922MOL0     H27227   8.429   0.267  10.661  1.2227  0.7982 -0.7735
  922MOL0     H27228   8.536   0.128  10.909 -0.0196 -0.3708 -1.8930
  922MOL0     H27229   8.425   0.272  10.921 -2.4449  0.0184 -0.0596
  922MOL0     H27230   8.351   0.026  10.791 -1.0230 -1.1153 -0.2154
  922MOL0     H27231   8.253   0.174  10.808  1.4327 -1.1787 -2.5321
  922MOL0     H27232   8.227   0.001  11.191  0.1291 -1.2715 -0.6923
  922MOL0     H27233   8.728   0.478  11.023  0.5402 -1.9923 -0.9309
  922MOL0     H27234   9.036   0.616  11.141  0.0883 -1.7552 -1.0848
  922MOL0     H27235   8.931   0.739  11.061  3.7118  0.3197 -1.3025
  922MOL0     H27236   8.870   0.594  11.174  0.1018 -0.0861 -0.2998
  923MOL0     O27237   1.098   0.233  11.175 -0.3585 -0.2322  0.5900
  923MOL0     C27238   1.200   0.166  11.204  1.0691  0.0486  0.5318
  923MOL0     O27239   1.204   0.069  11.294  0.0676  0.7636 -0.1572
  923MOL0     C27240   1.088   0.057  11.367 -0.0488  0.3165  0.7324
  923MOL0     C27241   1.068   0.136  11.485  0.3500 -0.3216  0.2661
  923MOL0     C27242   0.954   0.119  11.563 -0.0394  0.5650 -0.1802
  923MOL0     C27243   0.861   0.020  11.526  0.3384 -0.1786 -0.2487
  923MOL0     O27244   0.755  -0.002  11.613 -0.1832 -0.2654  1.0417
  923MOL0     C27245   0.654   0.100  11.600  0.1607 -0.1429 -0.9494
  923MOL0     C27246   0.519   0.028  11.619 -0.3542 -0.3622 -0.3872
  923MOL0     C27247   0.473  -0.078  11.516  0.2699 -0.7282  0.5532
  923MOL0     C27248   0.316  -0.094  11.509 -0.7488  1.1457  0.1302
  923MOL0     C27249   0.241   0.005  11.410  0.8757  0.1999  0.1341
  923MOL0     C27250   0.085  -0.005  11.382 -0.0503  0.6600 -0.2694
  923MOL0     C27251   0.033   0.090  11.283  0.3697 -0.4450 -0.2912
  923MOL0     C27252   0.065   0.062  11.131  0.0128 -0.2897 -0.3498
  923MOL0     N27253   0.105   0.185  11.062 -0.2619 -0.0371 -0.2374
  923MOL0     C27254   0.228   0.246  11.062  0.0309 -0.0046 -0.6564
  923MOL0     C27255   0.219   0.348  10.975  0.2792 -0.1161  0.3581
  923MOL0     C27256   0.324   0.446  10.939  0.3149  0.0489  0.2556
  923MOL0     C27257   0.374   0.521  11.063  0.1380 -0.2773  0.4297
  923MOL0     C27258   0.506   0.604  11.035  0.3840 -0.0616 -0.4535
  923MOL0     C27259   0.558   0.669  11.158  0.5353 -0.1110  0.0249
  923MOL0     O27260   0.551   0.808  11.133  0.0289 -0.3658 -0.2508
  923MOL0     C27261   0.637   0.894  11.191  0.1377 -0.1154 -0.0760
  923MOL0     C27262   0.655   1.025  11.138 -0.3765  0.0442  0.3427
  923MOL0     C27263   0.747   1.118  11.191 -0.0530 -0.1087 -0.7549
  923MOL0     C27264   0.767   1.252  11.127 -0.5067 -0.1164  0.3176
  923MOL0     C27265   0.822   1.078  11.306 -0.2305  0.2479  0.3389
  923MOL0     C27266   0.930   1.151  11.379 -0.6763  0.0275  0.7592
  923MOL0     O27267   1.003   1.078  11.472 -0.7974  0.1063 -0.4750
  923MOL0     C27268   1.121   1.127  11.514  0.8899  0.3412 -0.1160
  923MOL0     C27269   1.138   1.237  11.597  0.4592  0.0387  0.8092
  923MOL0     C27270   1.259   1.274  11.642 -0.7453  0.3443 -0.2464
  923MOL0     C27271   1.368   1.195  11.611 -0.7537 -0.5038 -0.0297
  923MOL0     O27272   1.488   1.258  11.642 -0.6374 -0.1643 -0.1924
  923MOL0     C27273   1.603   1.216  11.577  0.2646 -0.0665  0.4938
  923MOL0     C27274   1.719   1.296  11.616  0.0786 -0.3016  0.2208
  923MOL0     C27275   1.766   1.250  11.752  0.5460 -0.2455 -0.6563
  923MOL0     C27276   1.879   1.341  11.789  0.3520  0.5206  0.9829
  923MOL0     C27277   1.976   1.282  11.892 -0.8890  1.3689  0.0730
  923MOL0     C27278   2.092   1.211  11.829 -0.2752 -0.3037 -0.1627
  923MOL0     C27279   2.159   1.114  11.917  0.1991  0.5646 -0.1308
  923MOL0     C27280   2.243   1.021  11.836 -0.7343 -0.2279  0.1517
  923MOL0    Cl27281   2.337   0.915  11.951  0.7481 -0.3669  0.2256
  923MOL0     C27282   1.360   1.082  11.534 -0.0707  0.8450  0.2225
  923MOL0     C27283   1.235   1.046  11.491 -0.4388  0.1357 -0.1968
  923MOL0     O27284   0.953   1.272  11.350  0.2474  0.3525  0.5597
  923MOL0     C27285   0.799   0.946  11.353  0.2178  0.1060 -0.0348
  923MOL0     C27286   0.699   0.861  11.305  0.6974  0.3778 -0.0138
  923MOL0     N27287   0.089   0.353  10.920  0.2207 -0.1217 -0.0978
  923MOL0     N27288   0.021   0.253  10.975 -0.0257  0.9898 -0.5193
  923MOL0     C27289   0.883  -0.063  11.416 -0.2395 -0.4568 -0.2430
  923MOL0     C27290   0.993  -0.040  11.341 -0.0376 -0.1061  0.5420
  923MOL0     C27291   1.332   0.193  11.136 -0.3388  0.6243  0.6289
  923MOL0     C27292   1.446   0.133  11.186  0.2635  0.9464  0.1727
  923MOL0     C27293   1.575   0.157  11.136 -0.2187 -0.9353 -1.0836
  923MOL0     C27294   1.598   0.275  11.053 -0.0837  0.9540 -1.2053
  923MOL0     O27295   1.707   0.329  11.009  0.3477 -0.3846 -0.4228
  923MOL0     C27296   1.821   0.238  11.007  0.4808  0.2364 -0.9583
  923MOL0     C27297   1.938   0.279  10.911  0.3438  0.5384 -0.2335
  923MOL0     C27298   1.913   0.232  10.767 -0.5380  0.4179  0.7253
  923MOL0     C27299   2.031   0.277  10.685 -0.1182 -0.0616  0.2986
  923MOL0     C27300   2.039   0.421  10.680  0.0978  0.2495 -0.3295
  923MOL0     C27301   2.042   0.539  10.698  0.0206 -0.4291 -0.2796
  923MOL0     C27302   1.481   0.330  11.010 -0.7601  0.2196  0.2839
  923MOL0     C27303   1.350   0.294  11.037 -0.3933  0.0067 -0.3302
  923MOL0     C27304   1.241   0.370  10.954  0.2996  1.0276 -0.7613
  923MOL0     H27305   1.148   0.206  11.505 -1.8788  2.7787 -0.8162
  923MOL0     H27306   0.942   0.189  11.645  5.0467  0.7147  0.7493
  923MOL0     H27307   0.649   0.145  11.501 -0.1144  0.4847 -0.6533
  923MOL0     H27308   0.666   0.181  11.673 -2.1765 -2.4978  2.3870
  923MOL0     H27309   0.522  -0.024  11.716  0.5885 -2.3948 -1.4516
  923MOL0     H27310   0.436   0.099  11.625 -0.4926 -0.4710 -0.9895
  923MOL0     H27311   0.504  -0.054  11.414 -0.2548 -2.1114  0.0382
  923MOL0     H27312   0.512  -0.175  11.545  2.6353  0.7291  2.6534
  923MOL0     H27313   0.306  -0.202  11.491 -0.2249  1.3028 -1.2473
  923MOL0     H27314   0.280  -0.078  11.611 -2.5417  0.9189 -0.4200
  923MOL0     H27315   0.278   0.007  11.307 -3.1984  0.5986 -1.5105
  923MOL0     H27316   0.259   0.106  11.450 -0.3685  0.9515 -1.1356
  923MOL0     H27317   0.060  -0.107  11.351  0.1679  0.5461 -0.0750
  923MOL0     H27318   0.046   0.007  11.484  1.7224 -3.7739  1.1958
  923MOL0     H27319   0.075   0.188  11.307 -0.7593  0.1580 -0.6935
  923MOL0     H27320  -0.075   0.097  11.300  0.3778  0.1268 -0.4300
  923MOL0     H27321   0.138  -0.018  11.120 -0.9230 -1.1389 -0.4635
  923MOL0     H27322  -0.035   0.032  11.098 -0.3592 -0.2634  0.6930
  923MOL0     H27323   0.318   0.226  11.119 -0.7115  1.3656  1.0944
  923MOL0     H27324   0.295   0.520  10.864  0.0028  1.3741  1.6232
  923MOL0     H27325   0.403   0.384  10.896  0.7562  0.0449  1.0383
  923MOL0     H27326   0.299   0.598  11.085 -0.5895 -0.2117 -2.0061
  923MOL0     H27327   0.385   0.457  11.151  0.0666  1.2825  1.6255
  923MOL0     H27328   0.581   0.540  10.988 -0.1016  1.4047 -3.4687
  923MOL0     H27329   0.477   0.684  10.966 -0.7811  2.1905  2.3952
  923MOL0     H27330   0.497   0.638  11.243 -1.0471  1.0019 -0.6485
  923MOL0     H27331   0.661   0.638  11.173  0.9077  0.5972 -0.9132
  923MOL0     H27332   0.589   1.066  11.063  1.4603  1.6504 -0.4753
  923MOL0     H27333   0.785   1.338  11.191 -2.6091  2.0332 -1.7841
  923MOL0     H27334   0.678   1.275  11.067 -1.6559 -6.0108 -0.8729
  923MOL0     H27335   0.852   1.236  11.059 -2.2468 -1.6301 -1.6454
  923MOL0     H27336   1.056   1.305  11.616  1.0743  0.5537  1.6567
  923MOL0     H27337   1.274   1.369  11.691 -0.7313  1.2186 -1.8850
  923MOL0     H27338   1.613   1.111  11.608  1.6228 -0.2296 -0.4219
  923MOL0     H27339   1.595   1.209  11.468 -0.0125  0.9512  0.4359
  923MOL0     H27340   1.799   1.295  11.542 -2.1888  1.6695 -2.5213
  923MOL0     H27341   1.684   1.400  11.610  0.1464 -0.3299 -0.8582
  923MOL0     H27342   1.794   1.145  11.759  0.4224 -0.3414 -1.4636
  923MOL0     H27343   1.683   1.281  11.816 -2.2488 -2.5408 -2.9176
  923MOL0     H27344   1.835   1.433  11.828 -0.0633  0.1933  1.2881
  923MOL0     H27345   1.943   1.361  11.703  0.1746 -3.0466 -0.1625
  923MOL0     H27346   2.031   1.358  11.950  0.6691 -0.3298  0.9310
  923MOL0     H27347   1.939   1.212  11.967  0.7370 -0.1635 -0.4960
  923MOL0     H27348   2.169   1.284  11.800 -0.4609  0.1536  0.4836
  923MOL0     H27349   2.049   1.160  11.742 -1.6058 -2.3686  1.6226
  923MOL0     H27350   2.087   1.049  11.968  0.8854  0.8293  1.2451
  923MOL0     H27351   2.217   1.175  11.987 -0.8386  1.0967  0.2903
  923MOL0     H27352   2.318   1.076  11.779 -1.8013 -1.1391 -2.2880
  923MOL0     H27353   2.199   0.970  11.750  0.7794  0.7480 -1.2590
  923MOL0     H27354   1.449   1.033  11.494 -0.2294  0.2350  0.5922
  923MOL0     H27355   1.238   0.944  11.456 -0.5293 -0.2330  0.8182
  923MOL0     H27356   0.844   0.914  11.447 -0.5681 -0.5755  0.1155
  923MOL0     H27357   0.688   0.768  11.361 -1.2534  0.5862  0.0236
  923MOL0     H27358   0.804  -0.127  11.378 -0.4124  0.0029 -0.6781
  923MOL0     H27359   1.005  -0.095  11.248  0.1430  0.4733  0.2224
  923MOL0     H27360   1.431   0.054  11.260  0.4751  0.1519 -0.6087
  923MOL0     H27361   1.660   0.102  11.175  1.6729  2.5378  0.2037
  923MOL0     H27362   1.854   0.229  11.111 -1.9342 -1.7779 -0.2504
  923MOL0     H27363   1.793   0.135  10.981 -0.5878 -0.2977  1.9026
  923MOL0     H27364   2.033   0.232  10.935  1.7482  4.6367  3.6264
  923MOL0     H27365   1.948   0.387  10.922 -2.0972  1.0142 -1.9655
  923MOL0     H27366   1.911   0.123  10.764 -1.5709  0.4208  0.7623
  923MOL0     H27367   1.818   0.276  10.734 -3.0088 -2.5581  3.1982
  923MOL0     H27368   2.020   0.244  10.581  0.2244  0.7570 -0.0020
  923MOL0     H27369   2.123   0.233  10.723 -0.1149 -0.4286 -0.1277
  923MOL0     H27370   2.037   0.645  10.710  2.1474 -0.0944 -1.7368
  923MOL0     H27371   1.499   0.412  10.942 -1.4421  3.0270  3.2243
  923MOL0     H27372   1.241   0.478  10.967 -3.0817  1.5097 -3.2780
  923MOL0     H27373   1.273   0.366  10.849  0.5272 -0.5792 -0.6601
  923MOL0     H27374   1.135   0.343  10.963 -0.0566  1.5561 -2.7686
  924MOL0     O27375   6.126  10.812   7.257 -0.4067 -0.4567 -0.1147
  924MOL0     C27376   6.030  10.758   7.306 -0.2667 -0.2557  0.2783
  924MOL0     O27377   6.017  10.703   7.434 -0.3401 -1.1033  0.4346
  924MOL0     C27378   6.133  10.669   7.500 -0.2469  0.4347  0.4101
  924MOL0     C27379   6.208  10.562   7.452  0.5376 -0.3975 -0.4529
  924MOL0     C27380   6.328  10.531   7.519  0.3818 -0.0977  0.3598
  924MOL0     C27381   6.368  10.595   7.632  0.2221 -0.0868  0.3500
  924MOL0     O27382   6.475  10.530   7.692 -0.6580  0.1154 -1.0826
  924MOL0     C27383   6.505  10.557   7.827 -0.0608 -0.5606  0.2271
  924MOL0     C27384   6.601  10.678   7.816 -0.2478 -0.2593 -1.3919
  924MOL0     C27385   6.745  10.632   7.792  0.0570 -0.1698 -0.7087
  924MOL0     C27386   6.834  10.765   7.778  0.5598 -0.7430 -0.7260
  924MOL0     C27387   6.973  10.724   7.742  0.4584 -0.6853  0.0079
  924MOL0     C27388   7.073  10.838   7.788 -0.2171 -0.6935  0.2670
  924MOL0     C27389   7.211  10.807   7.733  1.1736  0.6969  0.1575
  924MOL0     C27390   7.278  10.687   7.795 -0.5035 -0.1743 -0.5113
  924MOL0     N27391   7.408  10.653   7.728  0.5605 -0.1109 -0.1963
  924MOL0     C27392   7.514  10.610   7.798 -0.1334  0.0722  0.2939
  924MOL0     C27393   7.575  10.535   7.701  0.7861 -0.1083 -0.1314
  924MOL0     C27394   7.711  10.472   7.715 -0.6700 -0.8502 -0.1286
  924MOL0     C27395   7.827  10.577   7.685  0.3256 -0.2665 -0.0854
  924MOL0     C27396   7.956  10.494   7.708 -0.7291 -0.7339 -0.0981
  924MOL0     C27397   8.085  10.552   7.652 -1.1615 -0.0455  0.1101
  924MOL0     O27398   8.109  10.686   7.715  0.1616  0.5400  0.2133
  924MOL0     C27399   8.234  10.711   7.761  0.2177 -0.5701  0.2093
  924MOL0     C27400   8.248  10.794   7.874  0.9689 -0.5078  0.8961
  924MOL0     C27401   8.374  10.831   7.928 -0.1150  0.1964  0.0824
  924MOL0     C27402   8.372  10.935   8.045 -0.8989 -0.2325  0.0165
  924MOL0     C27403   8.488  10.778   7.876 -1.0394  0.4638 -0.4160
  924MOL0     C27404   8.624  10.796   7.927  0.1825 -0.1385 -0.7376
  924MOL0     O27405   8.717  10.695   7.902 -0.5527 -0.1095  0.1352
  924MOL0     C27406   8.849  10.704   7.927  0.1260 -0.0815 -0.8748
  924MOL0     C27407   8.913  10.606   7.995 -0.1303  1.1508  1.1413
  924MOL0     C27408   9.058  10.612   8.008  0.6618 -0.5986 -0.5142
  924MOL0     C27409   9.137  10.710   7.940 -0.9976  0.0393 -0.6185
  924MOL0     O27410   9.274  10.724   7.973  0.5668 -0.5095 -1.5139
  924MOL0     C27411   9.350  10.834   7.922  0.3332 -0.1667 -0.9157
  924MOL0     C27412   9.487  10.836   7.997  0.1856  0.5450  0.8510
  924MOL0     C27413   9.469  10.877   8.143  0.0366  0.4967  0.4532
  924MOL0     C27414   9.605  10.884   8.226  0.7847  0.6813  0.4549
  924MOL0     C27415   9.724  10.964   8.178  0.2997  0.4643  0.5861
  924MOL0     C27416   9.826  11.011   8.278  0.3312  1.2008 -0.8187
  924MOL0     C27417   9.902  10.898   8.351  0.4638  0.2921  0.7661
  924MOL0     C27418   9.975  10.941   8.474  0.2619  0.4116  0.4157
  924MOL0    Cl27419  10.085  11.078   8.454  0.1797  0.1598 -0.1835
  924MOL0     C27420   9.065  10.809   7.869 -0.0641  0.3443  0.2290
  924MOL0     C27421   8.925  10.799   7.855  0.1131 -0.0925  0.2493
  924MOL0     O27422   8.650  10.905   7.987 -0.3060  0.5639  0.2800
  924MOL0     C27423   8.481  10.698   7.767  0.2201 -0.5149 -0.3036
  924MOL0     C27424   8.355  10.665   7.707 -0.0728  0.5579  0.5052
  924MOL0     N27425   7.499  10.538   7.576 -1.1614  0.0173  0.9087
  924MOL0     N27426   7.403  10.609   7.600  0.5987 -0.2812 -0.0198
  924MOL0     C27427   6.298  10.706   7.676  0.2225  0.4940 -0.2842
  924MOL0     C27428   6.181  10.741   7.607  0.3398 -0.3979  0.1554
  924MOL0     C27429   5.896  10.788   7.238 -0.5286  0.6429  0.1747
  924MOL0     C27430   5.796  10.695   7.237  0.1691  0.5524 -0.0996
  924MOL0     C27431   5.674  10.707   7.172 -0.7262 -0.2719  0.1896
  924MOL0     C27432   5.642  10.821   7.096  0.3781 -0.6897 -0.0966
  924MOL0     O27433   5.522  10.842   7.034  0.1293 -0.5391  0.4284
  924MOL0     C27434   5.421  10.739   7.039 -0.9872 -0.2058  0.6000
  924MOL0     C27435   5.439  10.631   6.930 -0.7854  0.2262  0.5451
  924MOL0     C27436   5.345  10.512   6.942  0.8226 -0.5749  0.2815
  924MOL0     C27437   5.193  10.537   6.923 -0.3935 -0.0421 -0.4693
  924MOL0     C27438   5.163  10.602   6.794 -0.3730 -0.5209 -0.2316
  924MOL0     C27439   5.138  10.670   6.696 -1.0645  0.2826 -0.1539
  924MOL0     C27440   5.736  10.921   7.098 -0.7135 -0.1681  0.8337
  924MOL0     C27441   5.865  10.901   7.158  0.2711 -0.0335  0.8320
  924MOL0     C27442   5.963  11.018   7.137 -0.7686  0.3245 -0.4337
  924MOL0     H27443   6.169  10.497   7.374  1.0515 -1.0760 -0.1522
  924MOL0     H27444   6.387  10.446   7.486 -0.5031 -0.2990 -0.7643
  924MOL0     H27445   6.553  10.471   7.875 -1.8164 -1.1258  1.0621
  924MOL0     H27446   6.413  10.568   7.884 -0.1899 -2.2319  0.3825
  924MOL0     H27447   6.574  10.752   7.740  2.1713  2.1757 -0.0546
  924MOL0     H27448   6.587  10.737   7.908 -0.6529  1.9729 -2.8010
  924MOL0     H27449   6.778  10.567   7.874 -2.3160 -2.8988 -1.7479
  924MOL0     H27450   6.758  10.576   7.700 -0.9984  0.0283 -0.9891
  924MOL0     H27451   6.801  10.831   7.697 -0.6588 -1.3347 -0.7499
  924MOL0     H27452   6.831  10.815   7.875 -1.4244 -0.6412 -0.8014
  924MOL0     H27453   6.987  10.708   7.635 -0.2307 -4.5520  0.3291
  924MOL0     H27454   7.000  10.627   7.787 -2.0703 -1.7380 -0.5260
  924MOL0     H27455   7.058  10.939   7.749  3.5103  0.4298  1.3289
  924MOL0     H27456   7.073  10.845   7.897 -1.2284 -0.0280  0.2393
  924MOL0     H27457   7.275  10.893   7.752  1.9957 -0.0518  0.9198
  924MOL0     H27458   7.207  10.795   7.624  1.3993  1.7683  0.0226
  924MOL0     H27459   7.282  10.691   7.904 -0.5067 -0.3016 -0.5058
  924MOL0     H27460   7.206  10.606   7.780 -0.5410 -0.5332  1.3887
  924MOL0     H27461   7.553  10.620   7.899  0.6687 -2.4968  0.3297
  924MOL0     H27462   7.732  10.388   7.648  0.9178  0.2234 -1.0660
  924MOL0     H27463   7.726  10.428   7.814 -3.7002 -0.2563  0.6900
  924MOL0     H27464   7.828  10.616   7.582  3.7218  0.0963 -0.0337
  924MOL0     H27465   7.818  10.658   7.758 -2.4530  1.4397 -2.0969
  924MOL0     H27466   7.976  10.486   7.815  3.9324 -0.9245 -0.7702
  924MOL0     H27467   7.947  10.389   7.677  2.1417 -0.6956 -1.3737
  924MOL0     H27468   8.178  10.495   7.653 -0.7551  0.5342 -1.4957
  924MOL0     H27469   8.077  10.569   7.544 -0.5079 -1.7354 -0.2336
  924MOL0     H27470   8.155  10.830   7.917  1.5313 -0.0078  1.7432
  924MOL0     H27471   8.275  10.945   8.095  0.3695 -1.4012  2.9762
  924MOL0     H27472   8.389  11.033   8.002 -0.9974  0.0767  0.6694
  924MOL0     H27473   8.437  10.920   8.132  1.1004  0.0725 -1.3736
  924MOL0     H27474   8.855  10.520   8.028  0.4972  0.0740 -0.4394
  924MOL0     H27475   9.125  10.548   8.065  2.2159  1.1097 -0.3256
  924MOL0     H27476   9.378  10.824   7.817  1.5031 -0.1808 -0.6164
  924MOL0     H27477   9.306  10.931   7.945  0.7773 -0.5052  1.6457
  924MOL0     H27478   9.535  10.739   7.978 -0.8969  0.0049  0.8062
  924MOL0     H27479   9.549  10.914   7.951 -0.5176  3.0354  3.7978
  924MOL0     H27480   9.400  10.809   8.192 -0.1516  0.9758  0.8591
  924MOL0     H27481   9.432  10.980   8.151 -2.2368 -0.2674  0.5618
  924MOL0     H27482   9.634  10.779   8.229  2.4110  1.0309 -1.3560
  924MOL0     H27483   9.585  10.919   8.328  0.7770  1.6649  0.1275
  924MOL0     H27484   9.766  10.927   8.083 -2.3790  2.1764 -1.4097
  924MOL0     H27485   9.678  11.058   8.147  3.3497  1.7963 -0.3982
  924MOL0     H27486   9.767  11.053   8.360 -0.8583 -0.3785 -0.7929
  924MOL0     H27487   9.894  11.091   8.250  0.8401  1.7966  1.8077
  924MOL0     H27488   9.975  10.855   8.282  0.0537 -1.2859  1.2814
  924MOL0     H27489   9.833  10.822   8.386  0.7527 -0.1084  0.4727
  924MOL0     H27490  10.039  10.858   8.503  2.5146  1.1112 -2.1064
  924MOL0     H27491   9.894  10.975   8.539  0.7940  1.9498  0.3177
  924MOL0     H27492   9.107  10.894   7.817  0.0060  1.2618  1.7188
  924MOL0     H27493   8.885  10.877   7.791  1.6635  0.9832  0.5205
  924MOL0     H27494   8.564  10.647   7.718  1.2310  0.9952 -0.2145
  924MOL0     H27495   8.365  10.589   7.630 -3.1442 -0.6317  1.1267
  924MOL0     H27496   6.330  10.755   7.767 -0.2238  0.8608 -0.3212
  924MOL0     H27497   6.119  10.823   7.643 -1.2198 -1.4916  0.0770
  924MOL0     H27498   5.805  10.600   7.287 -1.2663  0.3470 -0.1874
  924MOL0     H27499   5.607  10.623   7.186  0.2702 -1.4015 -1.4430
  924MOL0     H27500   5.428  10.699   7.141  0.5174 -1.2344  0.1273
  924MOL0     H27501   5.321  10.783   7.036 -0.2918  1.5153  1.2901
  924MOL0     H27502   5.540  10.588   6.924 -0.9208  0.0750 -1.1381
  924MOL0     H27503   5.426  10.681   6.834 -2.6262  0.0386  0.6589
  924MOL0     H27504   5.389  10.451   6.862  1.3148 -1.8532  1.4790
  924MOL0     H27505   5.352  10.456   7.036 -1.0325  0.7574  1.2594
  924MOL0     H27506   5.153  10.605   6.998 -0.7518  0.7342 -1.3364
  924MOL0     H27507   5.133  10.447   6.934  1.9631 -2.2226 -3.4761
  924MOL0     H27508   5.111  10.730   6.611 -2.0289  4.3068  2.7251
  924MOL0     H27509   5.719  11.008   7.036  0.8453 -1.6433 -1.8370
  924MOL0     H27510   5.908  11.107   7.103  1.5119  0.8160 -3.2193
  924MOL0     H27511   6.013  11.049   7.229 -0.8855 -0.4561 -0.1036
  924MOL0     H27512   6.045  10.996   7.068 -0.0048 -2.7240  1.2947
  925MOL0     O27513   9.769   7.113  10.436  0.5435 -1.1993 -0.0464
  925MOL0     C27514   9.785   6.989  10.425  1.0991 -0.0653  0.0076
  925MOL0     O27515   9.902   6.927  10.398  1.1040 -0.4915  0.0748
  925MOL0     C27516  10.016   6.996  10.423 -0.5045 -0.0718 -0.1335
  925MOL0     C27517  10.098   7.079  10.344  0.4833  0.1690  0.5204
  925MOL0     C27518  10.213   7.136  10.400 -0.0206  0.3613  0.1787
  925MOL0     C27519  10.246   7.125  10.533  0.5160 -0.5071  0.6219
  925MOL0     O27520  10.358   7.188  10.575  0.0304 -0.2055 -0.3580
  925MOL0     C27521  10.359   7.327  10.585 -0.0480 -0.5923  0.5111
  925MOL0     C27522  10.498   7.389  10.563 -1.0136 -0.2871  0.3385
  925MOL0     C27523  10.509   7.540  10.564 -0.3360 -0.4092  0.6406
  925MOL0     C27524  10.636   7.591  10.488  0.0777 -0.1053 -0.2104
  925MOL0     C27525  10.679   7.734  10.514  0.2257 -0.2058 -0.9225
  925MOL0     C27526  10.712   7.758  10.663  0.2106  0.5434 -0.0258
  925MOL0     C27527  10.757   7.902  10.683 -0.0341 -1.0337 -0.5026
  925MOL0     C27528  10.831   7.918  10.815 -0.3292 -0.5053 -0.4322
  925MOL0     N27529  10.975   7.908  10.794 -0.0529  0.7810 -0.4700
  925MOL0     C27530  11.060   8.012  10.766 -0.1596  0.0072  0.3753
  925MOL0     C27531  11.182   7.955  10.778 -0.7203  0.4986  0.1852
  925MOL0     C27532  11.306   8.034  10.778  0.3642 -0.1151  0.4892
  925MOL0     C27533  11.433   7.953  10.798  0.7341 -1.1131  0.1253
  925MOL0     C27534  11.470   7.867  10.679  0.5423 -0.0630  0.2737
  925MOL0     C27535  11.600   7.778  10.696 -0.3688 -0.0545 -0.7460
  925MOL0     O27536  11.715   7.866  10.720 -0.4038 -0.5639  0.1412
  925MOL0     C27537  11.841   7.797  10.719 -0.2347  0.0765 -0.6930
  925MOL0     C27538  11.873   7.675  10.662  0.4032  0.0166 -0.0520
  925MOL0     C27539  12.004   7.629  10.655  0.0441 -0.4809  0.3230
  925MOL0     C27540  12.016   7.493  10.581  0.6054 -0.0021 -0.3630
  925MOL0     C27541  12.108   7.701  10.713  0.2827 -0.0327 -0.8019
  925MOL0     C27542  12.253   7.670  10.721  0.2244  0.5418  1.3584
  925MOL0     O27543  12.334   7.781  10.715  0.3759  0.3934  0.2488
  925MOL0     C27544  12.468   7.750  10.746  0.2401 -0.7093 -0.1986
  925MOL0     C27545  12.549   7.682  10.654  0.5415  0.8813 -0.0618
  925MOL0     C27546  12.685   7.660  10.673 -0.4890  0.1605  0.3807
  925MOL0     C27547  12.748   7.710  10.792  0.6858 -0.6072  0.0432
  925MOL0     O27548  12.878   7.678  10.827  0.1288 -0.5325  0.6220
  925MOL0     C27549  12.966   7.616  10.728  0.5658 -1.0143  0.0471
  925MOL0     C27550  13.109   7.639  10.786 -1.0323  0.4205 -0.1927
  925MOL0     C27551  13.213   7.581  10.690  1.5487 -0.0382  0.3828
  925MOL0     C27552  13.184   7.439  10.624 -0.5583 -0.8003  0.3306
  925MOL0     C27553  13.292   7.410  10.520 -0.2918 -0.1164  0.3356
  925MOL0     C27554  13.283   7.497  10.381  0.4248  0.8348  0.2932
  925MOL0     C27555  13.327   7.396  10.268  0.2348  1.0968 -0.6579
  925MOL0     C27556  13.470   7.353  10.285 -0.9612  0.1362 -0.0003
  925MOL0    Cl27557  13.578   7.497  10.277 -0.3441  0.2471 -0.7167
  925MOL0     C27558  12.666   7.779  10.887  0.5191 -0.1514 -0.4635
  925MOL0     C27559  12.534   7.798  10.861  1.0692 -0.0964 -0.2930
  925MOL0     O27560  12.283   7.555  10.727 -0.2754 -0.1992  0.0375
  925MOL0     C27561  12.072   7.831  10.771 -0.4027 -0.4529  0.6048
  925MOL0     C27562  11.942   7.869  10.777 -0.3003 -0.0054  0.1163
  925MOL0     N27563  11.176   7.824  10.793 -0.1587  0.2070  0.0933
  925MOL0     N27564  11.050   7.798  10.808 -0.7537  0.2404 -0.0418
  925MOL0     C27565  10.167   7.051  10.614  0.5149 -0.4674  0.2037
  925MOL0     C27566  10.062   6.984  10.560  0.3870 -0.1390  0.4315
  925MOL0     C27567   9.664   6.910  10.457  0.0381  0.6676 -0.0082
  925MOL0     C27568   9.694   6.772  10.481  0.2151  0.5072  0.0375
  925MOL0     C27569   9.595   6.681  10.515 -0.1325 -0.9815 -0.3922
  925MOL0     C27570   9.462   6.715  10.508  1.0670  0.5778 -0.6115
  925MOL0     O27571   9.371   6.617  10.531 -0.2885 -0.0296 -0.1067
  925MOL0     C27572   9.230   6.657  10.534 -0.0837  0.6066 -0.2448
  925MOL0     C27573   9.146   6.532  10.550  0.5901  0.0620 -0.3107
  925MOL0     C27574   9.183   6.430  10.665 -0.0829 -0.3319  0.7768
  925MOL0     C27575   9.106   6.296  10.674 -0.2389 -0.6528  0.2067
  925MOL0     C27576   8.958   6.311  10.675 -0.9359  0.2624  0.7087
  925MOL0     C27577   8.838   6.297  10.692  0.6548  0.2697 -0.1325
  925MOL0     C27578   9.436   6.854  10.494  0.0480  0.4994 -0.5378
  925MOL0     C27579   9.530   6.954  10.467  0.2428  0.2701  1.0592
  925MOL0     C27580   9.478   7.095  10.444 -0.3182 -0.0138  0.6203
  925MOL0     H27581  10.060   7.103  10.245 -2.0648  2.2868  1.8719
  925MOL0     H27582  10.274   7.200  10.337 -1.1024  0.7445 -0.5180
  925MOL0     H27583  10.331   7.357  10.687 -0.3605 -1.0706  0.5678
  925MOL0     H27584  10.286   7.363  10.513  1.4139  2.2387  0.3047
  925MOL0     H27585  10.552   7.337  10.644 -3.8697 -2.6564  0.9091
  925MOL0     H27586  10.537   7.349  10.469  0.2492 -0.3932  0.8836
  925MOL0     H27587  10.420   7.588  10.522  1.9616  3.9519  0.1526
  925MOL0     H27588  10.499   7.572  10.668 -1.0613  3.1593 -0.3903
  925MOL0     H27589  10.731   7.538  10.502  1.1283  1.7053 -0.2376
  925MOL0     H27590  10.614   7.577  10.382  0.2765  0.6289 -0.3529
  925MOL0     H27591  10.591   7.793  10.488 -1.3276 -2.3225 -0.6695
  925MOL0     H27592  10.762   7.758  10.447  0.3915 -0.4426 -0.8076
  925MOL0     H27593  10.634   7.749  10.739  2.7192 -1.8610  2.5078
  925MOL0     H27594  10.795   7.688  10.675  0.3129  0.4189 -1.3288
  925MOL0     H27595  10.671   7.969  10.684  0.7448  0.0518 -2.1161
  925MOL0     H27596  10.821   7.941  10.603 -1.2875 -0.5628 -1.3053
  925MOL0     H27597  10.808   8.017  10.856 -2.7579 -1.3718  0.5106
  925MOL0     H27598  10.794   7.851  10.893 -2.3635  0.5746 -0.3817
  925MOL0     H27599  11.045   8.118  10.744  0.1940 -0.5322 -3.0945
  925MOL0     H27600  11.292   8.111  10.854 -2.6041 -0.3397  0.2543
  925MOL0     H27601  11.313   8.090  10.685 -1.9004  0.5510  0.6707
  925MOL0     H27602  11.517   8.021  10.817  0.3837 -0.8609  0.8499
  925MOL0     H27603  11.429   7.896  10.892  0.4378 -1.6069 -0.1867
  925MOL0     H27604  11.387   7.801  10.652 -0.8025  0.9499  1.7435
  925MOL0     H27605  11.493   7.933  10.594  1.7210 -2.1888 -1.1412
  925MOL0     H27606  11.586   7.703  10.774 -0.8495  1.2799  0.5068
  925MOL0     H27607  11.604   7.726  10.600 -1.7342 -0.2199 -0.7373
  925MOL0     H27608  11.797   7.613  10.614  2.1458  0.4477 -3.6755
  925MOL0     H27609  12.068   7.416  10.639  0.6894 -0.5816 -1.2023
  925MOL0     H27610  12.083   7.514  10.497  1.8134  0.6929  0.7295
  925MOL0     H27611  11.920   7.460  10.542 -0.2857  0.4668  1.3156
  925MOL0     H27612  12.491   7.650  10.568  0.9189 -1.2455  0.4138
  925MOL0     H27613  12.735   7.603  10.595 -0.3947 -2.8366  2.4943
  925MOL0     H27614  12.951   7.507  10.721  0.5938 -0.9159 -2.0071
  925MOL0     H27615  12.955   7.667  10.632  1.3168 -0.5090  0.2246
  925MOL0     H27616  13.116   7.745  10.811  0.4499  0.1391  0.6989
  925MOL0     H27617  13.112   7.586  10.882 -0.0877  0.4811 -0.1810
  925MOL0     H27618  13.300   7.578  10.757  0.9421  0.5439  1.2190
  925MOL0     H27619  13.215   7.649  10.605  0.4407 -1.6007 -0.9669
  925MOL0     H27620  13.088   7.444  10.572  0.0288  2.5480 -0.6303
  925MOL0     H27621  13.195   7.361  10.701 -0.9310  0.4716  1.7251
  925MOL0     H27622  13.394   7.411  10.559  0.8740  2.9121 -2.3269
  925MOL0     H27623  13.260   7.309  10.492  0.1521  0.2286 -1.5610
  925MOL0     H27624  13.345   7.587  10.380  0.6771  0.6789  1.1094
  925MOL0     H27625  13.184   7.529  10.348 -0.9872 -2.6067  0.7969
  925MOL0     H27626  13.307   7.439  10.169 -2.0229  0.5180 -0.5034
  925MOL0     H27627  13.261   7.309  10.273 -0.9604  1.9715 -0.7828
  925MOL0     H27628  13.508   7.291  10.203 -0.4972 -3.0522  2.4345
  925MOL0     H27629  13.487   7.295  10.376  2.4759  1.2145  0.1978
  925MOL0     H27630  12.709   7.814  10.981  1.2203 -0.1088 -0.7951
  925MOL0     H27631  12.479   7.853  10.938 -1.4891 -1.3136 -1.1262
  925MOL0     H27632  12.144   7.901  10.811 -0.4514 -0.2838  0.3986
  925MOL0     H27633  11.910   7.970  10.801 -0.6359 -0.4878  1.8679
  925MOL0     H27634  10.196   7.047  10.718 -2.6109  0.6025  1.2126
  925MOL0     H27635   9.993   6.931  10.625  1.7938 -1.8617  0.6015
  925MOL0     H27636   9.789   6.720  10.483  0.1747  0.4371  1.7134
  925MOL0     H27637   9.599   6.574  10.533 -0.8663 -0.8235  0.8557
  925MOL0     H27638   9.221   6.711  10.629  1.5292  3.6329 -1.6745
  925MOL0     H27639   9.202   6.716  10.446  0.8204  0.1083 -0.8871
  925MOL0     H27640   9.157   6.478  10.456 -1.6082 -1.9238  0.4792
  925MOL0     H27641   9.048   6.576  10.572  1.4571  1.2391  1.4661
  925MOL0     H27642   9.290   6.415  10.649  0.0541  0.9397  0.3119
  925MOL0     H27643   9.161   6.490  10.754  1.7094  2.1596 -0.3326
  925MOL0     H27644   9.139   6.236  10.759 -1.3705 -1.6286 -0.0183
  925MOL0     H27645   9.128   6.239  10.584 -0.7956  0.8368 -0.9330
  925MOL0     H27646   8.731   6.290  10.704  0.4693  1.8570 -0.5680
  925MOL0     H27647   9.339   6.899  10.514 -0.2881 -0.2922 -0.3340
  925MOL0     H27648   9.443   7.105  10.341  1.6648 -0.9856 -0.1967
  925MOL0     H27649   9.400   7.118  10.518 -1.2183  1.1504 -0.6471
  925MOL0     H27650   9.544   7.176  10.475 -1.6080  1.6140 -0.6828
  926MOL0     O27651   8.390   7.709  10.276  0.3695 -1.0742 -0.5162
  926MOL0     C27652   8.388   7.728  10.154  0.1079 -0.3173 -0.0960
  926MOL0     O27653   8.503   7.718  10.075 -0.9612 -0.5864  0.3216
  926MOL0     C27654   8.612   7.662  10.143  0.7151  0.6173 -0.7951
  926MOL0     C27655   8.718   7.728  10.199 -0.9961 -0.2385 -0.0702
  926MOL0     C27656   8.828   7.656  10.250  0.2194 -0.1718  0.1786
  926MOL0     C27657   8.819   7.519  10.255  0.2181  0.1209  0.6844
  926MOL0     O27658   8.930   7.445  10.293 -0.0551 -0.0694  0.2504
  926MOL0     C27659   9.050   7.466  10.215  0.6167  0.9380  0.6717
  926MOL0     C27660   9.174   7.414  10.280 -0.2805 -0.1868 -0.6269
  926MOL0     C27661   9.293   7.501  10.235 -0.2671 -0.6553  0.0898
  926MOL0     C27662   9.423   7.421  10.227 -0.9575  0.5480  0.8478
  926MOL0     C27663   9.559   7.494  10.258 -0.1895 -0.4096 -0.3600
  926MOL0     C27664   9.684   7.419  10.231 -0.0510  0.3623  0.5760
  926MOL0     C27665   9.812   7.492  10.276  0.7597 -0.1570 -0.0346
  926MOL0     C27666   9.947   7.441  10.244 -1.4540  1.4765  0.1969
  926MOL0     N27667  10.055   7.537  10.276  0.5906 -0.8111  0.0201
  926MOL0     C27668  10.099   7.644  10.197  0.0976  0.2514 -0.1033
  926MOL0     C27669  10.191   7.700  10.275  0.2036 -0.0769  0.0796
  926MOL0     C27670  10.290   7.815  10.242  0.7976 -0.3267  0.7723
  926MOL0     C27671  10.206   7.949  10.247  0.2546  0.0242  0.5127
  926MOL0     C27672  10.266   8.064  10.173  0.6902  0.7148 -0.0706
  926MOL0     C27673  10.418   8.078  10.206 -0.1869  1.2429 -0.3606
  926MOL0     O27674  10.431   8.093  10.348  0.1867  0.1053 -0.2765
  926MOL0     C27675  10.545   8.142  10.394 -0.5709 -0.0677  0.1335
  926MOL0     C27676  10.676   8.123  10.338 -0.1107  0.7313 -0.1313
  926MOL0     C27677  10.790   8.178  10.400  0.0629  0.1422 -0.4137
  926MOL0     C27678  10.920   8.152  10.328  0.4107  1.0218 -0.1503
  926MOL0     C27679  10.778   8.257  10.525  0.3194  0.0811  0.5098
  926MOL0     C27680  10.881   8.328  10.600 -0.3172  0.1218  0.1184
  926MOL0     O27681  10.955   8.414  10.524  0.2012 -0.0738  0.6809
  926MOL0     C27682  11.056   8.479  10.589 -0.0950 -0.2547  0.3067
  926MOL0     C27683  11.175   8.419  10.567  0.1132  0.6122  0.3560
  926MOL0     C27684  11.296   8.483  10.600 -0.3188 -0.5859 -0.1797
  926MOL0     C27685  11.289   8.613  10.661  0.7599 -0.9696 -0.4622
  926MOL0     O27686  11.410   8.657  10.710  0.9642  0.2984 -0.3659
  926MOL0     C27687  11.409   8.763  10.810  0.5210 -0.1246 -0.2280
  926MOL0     C27688  11.559   8.799  10.841  0.4776  0.8417  0.5181
  926MOL0     C27689  11.618   8.867  10.716 -0.2493  0.0906 -0.7948
  926MOL0     C27690  11.768   8.877  10.742 -0.5722  0.7756 -0.0013
  926MOL0     C27691  11.853   8.922  10.625  0.1822  0.0880  0.4083
  926MOL0     C27692  11.999   8.940  10.652  0.9185 -0.1543 -0.6872
  926MOL0     C27693  12.074   8.813  10.683 -0.5327  0.3476  0.1387
  926MOL0     C27694  12.214   8.825  10.631  0.1938 -0.3300 -0.3728
  926MOL0    Cl27695  12.298   8.953  10.715 -0.5614 -0.6067  0.1192
  926MOL0     C27696  11.162   8.678  10.671 -0.2941  0.0351 -0.1987
  926MOL0     C27697  11.047   8.611  10.628 -0.3837  0.3342 -0.9146
  926MOL0     O27698  10.891   8.312  10.718 -0.2497  0.6791 -0.2857
  926MOL0     C27699  10.647   8.260  10.586 -0.6280  0.1221  0.6582
  926MOL0     C27700  10.529   8.207  10.518  0.8582 -0.1228 -0.2025
  926MOL0     N27701  10.191   7.632  10.394  0.2240 -0.4494 -0.3546
  926MOL0     N27702  10.115   7.530  10.391 -0.4285 -0.1330 -0.4264
  926MOL0     C27703   8.705   7.445  10.210 -0.6048 -0.3749  0.4385
  926MOL0     C27704   8.604   7.523  10.161 -0.4321 -0.6931  1.3132
  926MOL0     C27705   8.256   7.750  10.099  0.4021 -1.0008  0.0391
  926MOL0     C27706   8.256   7.809   9.974  1.0408 -0.6102 -0.6664
  926MOL0     C27707   8.134   7.835   9.908 -0.3878 -0.2852  0.8323
  926MOL0     C27708   8.015   7.796   9.961 -0.5233 -0.5183 -0.2258
  926MOL0     O27709   7.902   7.822   9.887  1.2223  0.9178 -0.3005
  926MOL0     C27710   7.794   7.735   9.882  0.4519  0.2251 -0.2465
  926MOL0     C27711   7.833   7.604   9.819  0.5303  0.0636 -0.7745
  926MOL0     C27712   7.887   7.605   9.675  0.5762  0.6689 -0.1434
  926MOL0     C27713   7.923   7.463   9.630 -0.5788  0.7875  0.4681
  926MOL0     C27714   7.880   7.441   9.488  0.8538 -0.4818 -0.6220
  926MOL0     C27715   7.844   7.414   9.373  0.2502  0.0276 -0.6480
  926MOL0     C27716   8.013   7.724  10.085 -0.7770 -0.4490  0.4648
  926MOL0     C27717   8.131   7.699  10.158 -0.0389 -0.2472 -0.4237
  926MOL0     C27718   8.114   7.621  10.283 -0.2333  0.4049 -0.0393
  926MOL0     H27719   8.719   7.837  10.191  0.1548 -0.3329 -2.1628
  926MOL0     H27720   8.917   7.700  10.293  0.4588 -0.4900  0.0120
  926MOL0     H27721   9.073   7.571  10.197  0.6849  0.8652  0.3138
  926MOL0     H27722   9.024   7.424  10.117  0.4645 -0.8811  1.4510
  926MOL0     H27723   9.152   7.422  10.387  0.4044 -2.5324 -0.2557
  926MOL0     H27724   9.189   7.308  10.258  0.6752  0.0555 -1.1898
  926MOL0     H27725   9.282   7.544  10.135 -0.2989 -4.1317 -1.5638
  926MOL0     H27726   9.323   7.573  10.311  1.5365 -1.8938  0.5994
  926MOL0     H27727   9.434   7.345  10.306 -0.4038  0.1998  0.4475
  926MOL0     H27728   9.427   7.368  10.131  2.3555  2.2657 -0.1051
  926MOL0     H27729   9.564   7.506  10.367  1.5592 -0.0290 -0.4672
  926MOL0     H27730   9.545   7.592  10.211 -2.2368  0.0131  0.9977
  926MOL0     H27731   9.680   7.322  10.281  1.1469 -0.6746 -1.2118
  926MOL0     H27732   9.686   7.405  10.123  0.6283 -1.8349  0.8185
  926MOL0     H27733   9.809   7.490  10.386  0.4442 -0.5025 -0.0481
  926MOL0     H27734   9.803   7.594  10.237 -4.3047 -1.3694 -2.9524
  926MOL0     H27735   9.966   7.346  10.296  0.9550  1.2877 -0.9233
  926MOL0     H27736   9.971   7.426  10.139  3.9711  2.0556  1.0673
  926MOL0     H27737  10.067   7.672  10.097 -0.2432  1.6902  0.3855
  926MOL0     H27738  10.326   7.801  10.140 -0.7609  0.2795  0.1044
  926MOL0     H27739  10.385   7.821  10.295  1.2097  1.8930 -0.1032
  926MOL0     H27740  10.111   7.916  10.204  0.4240 -1.2514  1.0596
  926MOL0     H27741  10.193   7.975  10.353 -2.2037  1.5773 -0.0974
  926MOL0     H27742  10.269   8.046  10.065  0.5330  0.4098 -0.0267
  926MOL0     H27743  10.209   8.158  10.183  1.0649  1.5861 -4.3191
  926MOL0     H27744  10.470   7.983  10.190  0.5427  1.4499  0.6547
  926MOL0     H27745  10.448   8.164  10.145 -2.7769  0.9511 -2.1921
  926MOL0     H27746  10.692   8.059  10.251  2.2347  0.4392  0.4639
  926MOL0     H27747  10.939   8.045  10.317 -0.2923  0.8283  0.4375
  926MOL0     H27748  11.008   8.191  10.380  1.6900 -0.8878 -0.8241
  926MOL0     H27749  10.908   8.196  10.228 -0.8570  2.4549  0.5856
  926MOL0     H27750  11.183   8.317  10.529  1.0211 -0.2464  2.7040
  926MOL0     H27751  11.399   8.452  10.582 -1.0643 -3.5054  0.1755
  926MOL0     H27752  11.358   8.852  10.773  2.8936  0.6342 -1.8935
  926MOL0     H27753  11.356   8.736  10.902  0.7384  0.7396  0.1601
  926MOL0     H27754  11.558   8.869  10.925 -0.5480  1.8468 -0.2979
  926MOL0     H27755  11.607   8.703  10.860 -0.1434  0.6697  1.2716
  926MOL0     H27756  11.574   8.967  10.708  0.1054  0.1689 -1.8908
  926MOL0     H27757  11.594   8.806  10.628  2.3355 -0.6866 -1.0502
  926MOL0     H27758  11.808   8.783  10.780  0.2887  1.9971  2.2941
  926MOL0     H27759  11.783   8.941  10.830  3.1811 -0.5876  0.5400
  926MOL0     H27760  11.843   8.846  10.547 -0.9889 -2.3491  2.7790
  926MOL0     H27761  11.810   9.012  10.579 -4.8304 -0.7155  2.8087
  926MOL0     H27762  12.014   8.996  10.745 -1.6646 -1.0891  0.3791
  926MOL0     H27763  12.047   9.003  10.577  1.7365  0.7530  0.5513
  926MOL0     H27764  12.023   8.731  10.632  0.7725  0.0626 -0.7646
  926MOL0     H27765  12.075   8.797  10.791  2.2757  0.4899  0.2053
  926MOL0     H27766  12.217   8.852  10.525  1.2492  3.7120  0.5114
  926MOL0     H27767  12.262   8.728  10.645 -0.3016 -0.6983 -1.1911
  926MOL0     H27768  11.152   8.774  10.720 -0.4230  0.8041 -1.6892
  926MOL0     H27769  10.942   8.639  10.633 -0.8578 -1.3515 -0.9533
  926MOL0     H27770  10.639   8.289  10.690  1.0725 -1.1840  1.2065
  926MOL0     H27771  10.437   8.213  10.575  1.8186 -2.0371  1.6946
  926MOL0     H27772   8.702   7.336  10.215 -1.5830 -0.3418  0.7210
  926MOL0     H27773   8.525   7.462  10.119 -0.1056 -2.0710  2.6545
  926MOL0     H27774   8.352   7.833   9.929  0.8871  0.0929 -0.6305
  926MOL0     H27775   8.129   7.886   9.812  2.3273  0.3541  0.9606
  926MOL0     H27776   7.738   7.722   9.975  1.5302 -2.0956  0.1443
  926MOL0     H27777   7.720   7.778   9.814  0.1948 -1.1241 -0.8544
  926MOL0     H27778   7.735   7.556   9.816  0.1970  0.8046 -2.1416
  926MOL0     H27779   7.895   7.552   9.893  3.7266  4.8685  0.3909
  926MOL0     H27780   7.811   7.644   9.607 -0.6860  0.2739  1.0055
  926MOL0     H27781   7.974   7.671   9.669  2.1927 -1.3881 -0.7555
  926MOL0     H27782   7.873   7.389   9.694  0.3632  0.8127  1.2520
  926MOL0     H27783   8.032   7.452   9.637 -0.7284 -2.6004 -0.6380
  926MOL0     H27784   7.808   7.385   9.277  2.5504 -1.2895 -1.1924
  926MOL0     H27785   7.920   7.675  10.110  0.8142 -3.1788  1.5940
  926MOL0     H27786   8.130   7.692  10.365 -2.9556  2.3317 -1.0095
  926MOL0     H27787   8.009   7.596  10.301 -0.4424  2.4683  2.1697
  926MOL0     H27788   8.182   7.535  10.291  0.9367  1.2701 -0.3829
  927MOL0     O27789  10.822   1.555   1.025  0.1005  0.1427 -0.0805
  927MOL0     C27790  10.751   1.464   1.075 -0.6565  0.2631  0.5558
  927MOL0     O27791  10.757   1.433   1.210  0.5318 -0.3526 -0.7037
  927MOL0     C27792  10.844   1.500   1.296  0.3997  0.3096 -0.6784
  927MOL0     C27793  10.790   1.563   1.409 -0.3036  0.4687 -0.7646
  927MOL0     C27794  10.879   1.626   1.501  1.3840 -0.3240 -0.1861
  927MOL0     C27795  11.022   1.628   1.492  0.4743  0.6768  0.0915
  927MOL0     O27796  11.089   1.669   1.602  0.6451 -0.0407  0.1889
  927MOL0     C27797  11.222   1.730   1.585 -0.5592 -0.4502  0.0667
  927MOL0     C27798  11.213   1.869   1.515 -0.5638 -0.1564  0.4811
  927MOL0     C27799  11.357   1.920   1.478 -0.6785 -0.5540 -0.1375
  927MOL0     C27800  11.434   1.974   1.596 -0.1465 -0.8735  0.5506
  927MOL0     C27801  11.585   2.004   1.561 -0.2857  0.7723  0.2210
  927MOL0     C27802  11.673   2.058   1.677 -0.0189  0.9491 -0.9673
  927MOL0     C27803  11.834   2.040   1.664  0.8942  0.5370  0.1774
  927MOL0     C27804  11.900   1.910   1.700  0.3143 -0.3484 -1.0513
  927MOL0     N27805  11.865   1.853   1.831 -0.7872 -0.0608  0.7603
  927MOL0     C27806  11.829   1.910   1.950  0.0331  0.3870 -0.1123
  927MOL0     C27807  11.825   1.795   2.031  0.1028 -0.8582  0.1125
  927MOL0     C27808  11.807   1.792   2.190  0.4577 -0.7459 -0.1142
  927MOL0     C27809  11.672   1.858   2.234  0.3827 -0.4486  0.3543
  927MOL0     C27810  11.561   1.759   2.214  0.6113 -0.0284 -0.0119
  927MOL0     C27811  11.428   1.812   2.253  0.5820 -0.1516  0.2833
  927MOL0     O27812  11.409   1.827   2.394  0.4541  0.1825 -0.4181
  927MOL0     C27813  11.343   1.735   2.473  0.2092  0.4343 -0.0742
  927MOL0     C27814  11.300   1.777   2.598  0.6405 -0.4845  0.9175
  927MOL0     C27815  11.212   1.695   2.677  0.0412  0.0814  0.7428
  927MOL0     C27816  11.147   1.748   2.794 -0.7691  0.6163 -0.1519
  927MOL0     C27817  11.195   1.561   2.637 -0.1958 -0.2229  0.8619
  927MOL0     C27818  11.119   1.458   2.712  1.2974  0.0798  0.5112
  927MOL0     O27819  11.005   1.406   2.659  0.7573 -0.2177  0.0880
  927MOL0     C27820  10.901   1.358   2.728  0.5758 -0.1851 -0.1507
  927MOL0     C27821  10.860   1.413   2.853  0.6346  1.1206 -0.9329
  927MOL0     C27822  10.747   1.358   2.922  0.2114  0.1477  1.2094
  927MOL0     C27823  10.671   1.250   2.869  0.3246  0.2004  0.0986
  927MOL0     O27824  10.564   1.201   2.946  0.3314 -0.2460  0.2221
  927MOL0     C27825  10.487   1.087   2.903  0.6412  1.2033  0.2088
  927MOL0     C27826  10.370   1.094   3.005 -0.6173  0.4417 -0.1217
  927MOL0     C27827  10.409   1.072   3.157  0.6549 -0.2382  0.5497
  927MOL0     C27828  10.457   0.933   3.192 -0.2401 -0.1100  0.1858
  927MOL0     C27829  10.529   0.938   3.324  0.0501 -0.2538 -0.2562
  927MOL0     C27830  10.593   0.804   3.371  0.6365 -0.8268 -0.1754
  927MOL0     C27831  10.659   0.817   3.517  0.3364 -0.0443 -0.9476
  927MOL0     C27832  10.798   0.883   3.507 -0.9618 -0.8627 -1.0861
  927MOL0    Cl27833  10.786   1.059   3.516 -0.4046 -0.0060 -0.3765
  927MOL0     C27834  10.718   1.190   2.757  0.5834 -0.0619  0.9531
  927MOL0     C27835  10.824   1.240   2.689  0.0814 -0.3440  0.0495
  927MOL0     O27836  11.161   1.428   2.824 -0.2356  0.5867 -0.1756
  927MOL0     C27837  11.258   1.516   2.526 -0.4454 -0.7308  0.5516
  927MOL0     C27838  11.327   1.600   2.441  1.3982  0.5200 -0.4380
  927MOL0     N27839  11.866   1.681   1.959 -0.7888 -0.1991  0.0586
  927MOL0     N27840  11.904   1.720   1.843 -1.0483  0.0846 -0.8643
  927MOL0     C27841  11.070   1.557   1.381 -0.5373 -0.6716  0.9363
  927MOL0     C27842  10.987   1.496   1.286  0.0408  0.2838 -0.3552
  927MOL0     C27843  10.673   1.381   0.985 -0.5867  0.1170  0.5346
  927MOL0     C27844  10.670   1.419   0.844 -0.8623  0.3490  0.5109
  927MOL0     C27845  10.624   1.333   0.744 -0.6900  0.9231  0.2879
  927MOL0     C27846  10.565   1.212   0.779  0.9122 -0.3173  0.6649
  927MOL0     O27847  10.525   1.120   0.684 -0.3071 -0.1782  0.8427
  927MOL0     C27848  10.642   1.037   0.641  0.3291 -0.2489  0.5098
  927MOL0     C27849  10.717   1.092   0.513 -0.2888  1.0313  0.0577
  927MOL0     C27850  10.626   1.080   0.391  0.2311 -0.4876 -0.2647
  927MOL0     C27851  10.717   1.087   0.267  0.1261  0.3742  0.1454
  927MOL0     C27852  10.650   1.066   0.140  0.2894  0.5491 -0.8058
  927MOL0     C27853  10.584   1.059   0.038 -0.7284 -0.6305  0.9952
  927MOL0     C27854  10.563   1.175   0.909 -0.4033 -0.3382 -0.2690
  927MOL0     C27855  10.611   1.259   1.014 -0.7484  0.1930  0.3833
  927MOL0     C27856  10.586   1.212   1.149 -0.2745 -0.6799  0.1097
  927MOL0     H27857  10.682   1.574   1.410 -0.1969  2.0253  1.2035
  927MOL0     H27858  10.825   1.667   1.586  0.7565 -0.3005 -0.5893
  927MOL0     H27859  11.292   1.657   1.542 -0.6999 -1.1327  0.9511
  927MOL0     H27860  11.254   1.751   1.687  0.2359  2.3704 -0.6918
  927MOL0     H27861  11.159   1.854   1.421 -1.3124 -1.7655  1.1273
  927MOL0     H27862  11.153   1.938   1.573 -2.7282  1.4429 -3.2747
  927MOL0     H27863  11.418   1.843   1.429 -1.4804 -0.6421 -1.0245
  927MOL0     H27864  11.344   1.996   1.401 -1.4724 -1.5531 -1.0228
  927MOL0     H27865  11.387   2.070   1.620  1.6295 -0.3753  2.3322
  927MOL0     H27866  11.409   1.916   1.686 -0.8459 -2.1969 -0.4458
  927MOL0     H27867  11.586   2.067   1.472  0.4815 -0.0283 -0.3574
  927MOL0     H27868  11.636   1.910   1.538  1.0617  2.1596 -3.1079
  927MOL0     H27869  11.643   2.163   1.682  0.5440  1.0610  0.9498
  927MOL0     H27870  11.648   2.029   1.780  3.7069 -0.7388 -0.3832
  927MOL0     H27871  11.863   2.113   1.739  0.5258  0.3583  0.5023
  927MOL0     H27872  11.863   2.074   1.565  4.8846 -2.5667  0.0546
  927MOL0     H27873  11.875   1.837   1.622 -0.0613  0.5075 -1.7516
  927MOL0     H27874  12.009   1.923   1.699  0.3395 -0.5486 -1.8262
  927MOL0     H27875  11.825   2.017   1.968 -0.0101  0.3507  0.0927
  927MOL0     H27876  11.896   1.846   2.223  3.0347 -2.5165 -3.5889
  927MOL0     H27877  11.813   1.692   2.234 -2.8555 -0.7416  0.6189
  927MOL0     H27878  11.676   1.871   2.343 -3.2816 -0.0959  0.5803
  927MOL0     H27879  11.652   1.957   2.193 -0.5795 -0.1250  1.5433
  927MOL0     H27880  11.559   1.734   2.108 -1.1469  2.1838 -0.5807
  927MOL0     H27881  11.579   1.678   2.285  4.1986  2.9318  2.8802
  927MOL0     H27882  11.431   1.914   2.214  2.1486 -0.1324  0.3920
  927MOL0     H27883  11.359   1.737   2.212  0.9896  0.1095 -0.9293
  927MOL0     H27884  11.317   1.879   2.630  0.9559 -0.7436  1.5940
  927MOL0     H27885  11.046   1.717   2.821 -0.6097  0.0903 -0.1355
  927MOL0     H27886  11.142   1.856   2.783  0.2796  0.8266  1.1620
  927MOL0     H27887  11.221   1.729   2.872  0.0935 -0.8906 -1.2826
  927MOL0     H27888  10.905   1.501   2.897 -1.3591  1.3682  0.7343
  927MOL0     H27889  10.723   1.393   3.022 -1.3972 -2.5722  1.8575
  927MOL0     H27890  10.453   1.104   2.801 -1.2293 -1.5084  0.2576
  927MOL0     H27891  10.546   0.995   2.909 -2.8664 -1.1608  1.4742
  927MOL0     H27892  10.311   1.183   2.980 -0.6550  0.2132 -0.8713
  927MOL0     H27893  10.301   1.011   2.985 -0.4948  0.3561 -0.1906
  927MOL0     H27894  10.326   1.100   3.223  1.4306  0.1913  1.3807
  927MOL0     H27895  10.490   1.145   3.172  0.6973 -0.3465  0.8578
  927MOL0     H27896  10.523   0.901   3.111 -3.8264 -1.6527 -2.4043
  927MOL0     H27897  10.374   0.861   3.190 -0.3341 -0.1074  2.1573
  927MOL0     H27898  10.594   1.025   3.330 -1.5317  0.8818  1.6776
  927MOL0     H27899  10.462   0.974   3.403 -0.7862 -0.3701 -0.8915
  927MOL0     H27900  10.666   0.763   3.301  0.4631  0.6014 -1.2494
  927MOL0     H27901  10.509   0.734   3.371 -1.0813  1.0106 -3.5280
  927MOL0     H27902  10.668   0.719   3.565 -0.8349 -0.2633 -1.1356
  927MOL0     H27903  10.595   0.874   3.585  1.4027  0.7663 -0.6016
  927MOL0     H27904  10.863   0.845   3.427  0.0978 -2.0944  0.3051
  927MOL0     H27905  10.857   0.855   3.595 -2.0829  0.4521  0.1490
  927MOL0     H27906  10.652   1.111   2.724 -2.1361  0.9375  3.5397
  927MOL0     H27907  10.856   1.192   2.597 -0.8133 -0.9608  0.0440
  927MOL0     H27908  11.250   1.411   2.500  1.7492 -0.6980 -0.5435
  927MOL0     H27909  11.367   1.560   2.348  0.1730  0.2324 -0.8692
  927MOL0     H27910  11.178   1.546   1.374 -0.4639 -0.1887  1.2994
  927MOL0     H27911  11.023   1.429   1.208  0.1930 -2.2687  1.7632
  927MOL0     H27912  10.713   1.510   0.802 -0.1544  0.2557  1.0009
  927MOL0     H27913  10.614   1.363   0.640  0.5431  2.0435  0.4668
  927MOL0     H27914  10.715   1.021   0.721  0.0135 -0.0546  0.8353
  927MOL0     H27915  10.606   0.939   0.609  1.5515  0.0648 -2.0445
  927MOL0     H27916  10.804   1.026   0.502  0.7072  2.1331  1.1159
  927MOL0     H27917  10.756   1.193   0.523 -1.9635  1.5747  1.5287
  927MOL0     H27918  10.578   0.982   0.391  1.6299 -1.2466  1.7984
  927MOL0     H27919  10.549   1.158   0.401  0.3864 -0.4029  0.2715
  927MOL0     H27920  10.797   1.012   0.266 -0.4517 -0.2498  0.4190
  927MOL0     H27921  10.780   1.177   0.269  2.8903 -1.4651  1.6005
  927MOL0     H27922  10.527   1.055  -0.052 -0.8342 -2.1659  1.1124
  927MOL0     H27923  10.544   1.071   0.934  0.7565 -0.8440 -1.3614
  927MOL0     H27924  10.496   1.150   1.154 -1.6439  1.0019 -1.9694
  927MOL0     H27925  10.674   1.163   1.191  1.6468  0.9301 -1.7808
  927MOL0     H27926  10.565   1.296   1.215  1.9082  0.3743 -0.4298
  928MOL0     O27927   8.906   0.779   4.783 -0.0737  0.0445 -0.3732
  928MOL0     C27928   8.922   0.741   4.670 -0.7007 -0.3740 -0.3048
  928MOL0     O27929   8.830   0.743   4.569 -0.5011  0.1597  0.1491
  928MOL0     C27930   8.708   0.781   4.607 -1.2724 -0.8759 -0.1660
  928MOL0     C27931   8.601   0.689   4.623 -0.3219  0.6180 -0.3886
  928MOL0     C27932   8.473   0.723   4.651  0.2167  0.0881  0.3740
  928MOL0     C27933   8.437   0.861   4.643  0.0201 -0.6985 -0.1793
  928MOL0     O27934   8.307   0.908   4.642 -0.6461  0.3262  0.6105
  928MOL0     C27935   8.203   0.810   4.621  0.1326  0.5836  0.0392
  928MOL0     C27936   8.053   0.856   4.635 -0.1779 -0.8319  0.8652
  928MOL0     C27937   7.992   0.890   4.496  0.5003  1.0185 -0.1157
  928MOL0     C27938   7.850   0.948   4.511 -0.6369  0.4787 -0.2607
  928MOL0     C27939   7.750   0.855   4.551 -0.5445  0.7976  0.2827
  928MOL0     C27940   7.608   0.905   4.547  0.2385  0.0228 -0.0173
  928MOL0     C27941   7.520   0.798   4.612  1.2235 -0.0679  0.2966
  928MOL0     C27942   7.373   0.810   4.564 -0.9796  0.7210  0.3677
  928MOL0     N27943   7.290   0.716   4.634 -0.1141  0.1490 -0.0242
  928MOL0     C27944   7.313   0.650   4.756 -0.3365 -0.0673 -0.6963
  928MOL0     C27945   7.191   0.611   4.805 -0.8049 -0.0350  1.4554
  928MOL0     C27946   7.170   0.568   4.942  0.3372 -0.0245 -0.3568
  928MOL0     C27947   7.045   0.632   5.015  0.4955 -0.4987 -0.1143
  928MOL0     C27948   7.027   0.534   5.133  0.7601 -0.5963 -0.7503
  928MOL0     C27949   6.921   0.591   5.230 -0.3381 -0.3277  0.1173
  928MOL0     O27950   6.985   0.708   5.287  0.1753 -0.3710 -0.6906
  928MOL0     C27951   6.915   0.797   5.372  0.3349 -0.2298 -0.5641
  928MOL0     C27952   6.993   0.889   5.448 -0.0898 -0.3418  0.3968
  928MOL0     C27953   6.943   0.989   5.530 -0.2310  0.1563  0.3485
  928MOL0     C27954   7.032   1.087   5.597 -0.1491 -0.1309 -1.0190
  928MOL0     C27955   6.795   0.991   5.554 -0.4008  0.6316  1.1900
  928MOL0     C27956   6.722   1.083   5.642  0.3417 -0.6181 -0.2013
  928MOL0     O27957   6.774   1.208   5.643 -0.1185 -0.1079 -0.0064
  928MOL0     C27958   6.743   1.303   5.741 -0.1530 -0.3261  0.1734
  928MOL0     C27959   6.792   1.429   5.708 -0.0814 -0.2730  0.1706
  928MOL0     C27960   6.769   1.534   5.796 -0.3192  0.3342  0.2357
  928MOL0     C27961   6.693   1.518   5.911  0.5329 -0.1136 -0.4480
  928MOL0     O27962   6.663   1.616   6.009  0.1839 -0.1992 -0.2009
  928MOL0     C27963   6.742   1.733   6.005 -0.1709  0.2761  0.4089
  928MOL0     C27964   6.727   1.804   6.138 -0.3623 -0.2641 -0.1295
  928MOL0     C27965   6.589   1.855   6.173  0.0790  0.1843 -0.2074
  928MOL0     C27966   6.561   2.002   6.123 -0.4364 -0.0554 -0.2176
  928MOL0     C27967   6.446   2.070   6.192  0.7668 -0.3380 -0.6807
  928MOL0     C27968   6.313   1.991   6.201 -0.1590  0.2832 -0.2888
  928MOL0     C27969   6.217   2.077   6.286 -0.7462  0.6186 -0.0113
  928MOL0     C27970   6.106   1.994   6.363 -0.2746  0.5589 -0.5102
  928MOL0    Cl27971   5.958   1.989   6.254  0.2146  0.4482  0.0124
  928MOL0     C27972   6.655   1.392   5.936 -0.8277  0.3781 -0.7947
  928MOL0     C27973   6.663   1.281   5.855  0.5532 -0.2713  0.2130
  928MOL0     O27974   6.617   1.045   5.697 -0.6545  0.0205  0.5085
  928MOL0     C27975   6.722   0.885   5.483 -0.5079  0.3265 -0.1745
  928MOL0     C27976   6.780   0.790   5.397  0.6542 -0.9000 -0.1333
  928MOL0     N27977   7.094   0.653   4.712  1.1227  0.3928 -0.2051
  928MOL0     N27978   7.156   0.712   4.614  0.2002 -0.1064  1.1166
  928MOL0     C27979   8.543   0.958   4.622  0.3820 -0.0636 -0.2597
  928MOL0     C27980   8.679   0.919   4.595  0.4433  0.5211 -0.7899
  928MOL0     C27981   9.039   0.659   4.636 -0.6206  0.0230 -0.8965
  928MOL0     C27982   9.086   0.652   4.509 -0.0478 -0.2207 -0.2560
  928MOL0     C27983   9.200   0.574   4.478 -0.0663 -0.6789 -0.4099
  928MOL0     C27984   9.259   0.487   4.569  0.4996 -1.3822 -0.1546
  928MOL0     O27985   9.352   0.391   4.538 -0.1829 -0.1974 -0.5413
  928MOL0     C27986   9.475   0.458   4.480  0.8509  0.4258 -0.8106
  928MOL0     C27987   9.563   0.358   4.402  0.0653 -0.5768 -0.1417
  928MOL0     C27988   9.633   0.250   4.485  0.5413 -1.1224  0.6339
  928MOL0     C27989   9.730   0.168   4.399  1.0268 -0.2804 -0.0615
  928MOL0     C27990   9.765   0.051   4.479 -0.8919  1.0731  0.7642
  928MOL0     C27991   9.813  -0.055   4.522  0.5821  0.2791 -0.3130
  928MOL0     C27992   9.209   0.482   4.697 -0.3613 -0.3552  0.7893
  928MOL0     C27993   9.107   0.564   4.732  0.8628 -0.8882 -0.1780
  928MOL0     C27994   9.049   0.552   4.868  0.6914  0.4494  0.3989
  928MOL0     H27995   8.623   0.583   4.613  0.4823  0.3599  2.9703
  928MOL0     H27996   8.389   0.655   4.661 -0.4128  0.2362 -2.7914
  928MOL0     H27997   8.214   0.745   4.708  1.0438 -0.5667 -0.8951
  928MOL0     H27998   8.215   0.748   4.532  2.2205 -2.5318  2.2981
  928MOL0     H27999   7.992   0.776   4.678 -1.0373  0.2807  1.7718
  928MOL0     H28000   8.038   0.939   4.704 -3.2146 -1.8000  1.5327
  928MOL0     H28001   8.054   0.969   4.454 -2.0206  2.2573 -1.7586
  928MOL0     H28002   7.975   0.805   4.429 -1.5752  0.9756  0.3954
  928MOL0     H28003   7.855   1.023   4.590  1.8620 -1.5901  1.7002
  928MOL0     H28004   7.823   0.995   4.415 -0.4661 -3.1007 -2.2310
  928MOL0     H28005   7.767   0.814   4.651  0.0384 -0.3146 -0.2519
  928MOL0     H28006   7.753   0.772   4.481 -0.6215 -0.6832  1.9764
  928MOL0     H28007   7.604   0.990   4.616 -3.3448 -2.4635  3.2841
  928MOL0     H28008   7.578   0.929   4.445 -1.3316 -0.4620  0.2865
  928MOL0     H28009   7.517   0.815   4.720 -0.7280  1.7202  0.0249
  928MOL0     H28010   7.551   0.698   4.580 -1.8347 -1.1741  0.4379
  928MOL0     H28011   7.340   0.914   4.567  1.2488  1.7435 -3.2276
  928MOL0     H28012   7.366   0.783   4.458  0.4656 -1.1729  0.6947
  928MOL0     H28013   7.411   0.650   4.804  1.2696 -0.5328 -3.7139
  928MOL0     H28014   7.263   0.581   4.998 -0.8065 -0.0923  1.6181
  928MOL0     H28015   7.155   0.460   4.949  2.2740 -0.3927 -1.0391
  928MOL0     H28016   7.051   0.734   5.055 -0.6190 -0.3506 -0.2939
  928MOL0     H28017   6.954   0.614   4.956 -0.4578  0.0255  1.1381
  928MOL0     H28018   6.982   0.438   5.103 -4.6134  0.3869  2.7124
  928MOL0     H28019   7.118   0.527   5.194  0.2215  1.3821  0.3698
  928MOL0     H28020   6.830   0.616   5.174  0.1505 -0.8657 -0.9511
  928MOL0     H28021   6.898   0.520   5.310  2.1757 -0.4144  0.8588
  928MOL0     H28022   7.098   0.903   5.428 -0.5626  1.5251 -1.0449
  928MOL0     H28023   6.974   1.109   5.687 -0.0502  0.0323 -0.9950
  928MOL0     H28024   7.048   1.180   5.542 -0.8601  0.1105 -0.8288
  928MOL0     H28025   7.130   1.041   5.611 -0.5686 -0.6707  0.2716
  928MOL0     H28026   6.841   1.459   5.616 -2.5158  3.4501 -0.1557
  928MOL0     H28027   6.805   1.633   5.772 -0.1379 -0.3330 -2.5203
  928MOL0     H28028   6.847   1.708   5.986  0.2371  1.8829  0.3712
  928MOL0     H28029   6.695   1.785   5.921 -2.4376 -3.1280 -0.5970
  928MOL0     H28030   6.749   1.721   6.207  0.9862 -0.2280 -0.4883
  928MOL0     H28031   6.805   1.880   6.141  1.5872 -2.1615 -0.1951
  928MOL0     H28032   6.571   1.839   6.280 -1.9635 -0.0799 -0.5578
  928MOL0     H28033   6.526   1.784   6.118  3.1228  0.0929 -4.0153
  928MOL0     H28034   6.538   2.001   6.016  0.4323  0.5503 -0.4199
  928MOL0     H28035   6.645   2.071   6.138 -2.0634  1.4162  3.1594
  928MOL0     H28036   6.476   2.087   6.296 -1.8605  0.3886  0.0152
  928MOL0     H28037   6.423   2.165   6.144 -2.3424 -0.6042  0.1069
  928MOL0     H28038   6.324   1.888   6.236 -1.6280 -0.0591 -0.7713
  928MOL0     H28039   6.270   1.986   6.101  0.5324  2.6601 -0.7793
  928MOL0     H28040   6.164   2.158   6.237 -2.4985  0.5132  1.5917
  928MOL0     H28041   6.275   2.134   6.360  2.1436  1.4556 -2.7174
  928MOL0     H28042   6.086   2.051   6.454  0.4277  2.9364 -1.7617
  928MOL0     H28043   6.151   1.900   6.395  1.2646  1.9399  1.6333
  928MOL0     H28044   6.595   1.372   6.025 -0.9759  1.0586 -0.7365
  928MOL0     H28045   6.619   1.183   5.871  1.7532 -1.6888 -3.7722
  928MOL0     H28046   6.615   0.869   5.491 -0.3081 -0.7241  0.7984
  928MOL0     H28047   6.716   0.718   5.347 -0.6263 -0.9180  1.4699
  928MOL0     H28048   8.520   1.063   4.607  5.0650  1.1426 -0.8037
  928MOL0     H28049   8.755   0.994   4.580  0.1865  1.0246  0.3037
  928MOL0     H28050   9.050   0.712   4.426  2.1512  1.0286 -0.4021
  928MOL0     H28051   9.243   0.584   4.379  0.7797 -3.4720 -0.3879
  928MOL0     H28052   9.434   0.525   4.404 -2.4541  0.5070  0.8410
  928MOL0     H28053   9.524   0.508   4.563 -0.5567 -1.2573  1.1210
  928MOL0     H28054   9.640   0.422   4.357  1.3324 -2.1858 -0.3549
  928MOL0     H28055   9.500   0.327   4.318  1.5426  1.3673 -2.0923
  928MOL0     H28056   9.692   0.294   4.565 -1.9859  2.2251  0.8531
  928MOL0     H28057   9.555   0.186   4.527  0.8317 -2.9221 -1.3901
  928MOL0     H28058   9.814   0.229   4.363  0.2127  1.8067  1.3621
  928MOL0     H28059   9.667   0.127   4.319  1.0140  0.8634 -0.6623
  928MOL0     H28060   9.845  -0.150   4.559 -0.5919  1.1777  3.3914
  928MOL0     H28061   9.245   0.409   4.769  0.3059 -0.2326  0.5832
  928MOL0     H28062   8.946   0.520   4.846  1.6573 -2.2147 -0.7104
  928MOL0     H28063   9.100   0.476   4.928 -2.4731 -3.2688 -1.1110
  928MOL0     H28064   9.048   0.649   4.917 -3.8301  1.2439 -0.7601
  929MOL0     O28065   5.369   4.595  10.464  0.2255  0.1848  0.0577
  929MOL0     C28066   5.391   4.716  10.469 -0.4683  0.4000 -0.9068
  929MOL0     O28067   5.514   4.769  10.440  0.5314  0.3555  0.1755
  929MOL0     C28068   5.607   4.720  10.345 -0.4390 -0.4248  0.7577
  929MOL0     C28069   5.728   4.780  10.354 -0.8079  0.3911  0.0233
  929MOL0     C28070   5.839   4.728  10.289  0.1947 -0.3973  0.8803
  929MOL0     C28071   5.832   4.615  10.208  0.1262 -1.2076 -0.1025
  929MOL0     O28072   5.950   4.573  10.157  0.2432  0.3846 -0.5928
  929MOL0     C28073   5.935   4.449  10.085 -0.3727  0.2098  0.2797
  929MOL0     C28074   6.082   4.410  10.024  0.7340  0.1122 -0.4228
  929MOL0     C28075   6.181   4.374  10.144  0.3793 -0.0534  0.0860
  929MOL0     C28076   6.321   4.385  10.093  0.3069 -0.4397  0.2776
  929MOL0     C28077   6.420   4.333  10.198 -1.0439 -0.3245  0.1077
  929MOL0     C28078   6.448   4.187  10.177 -0.0804 -0.4222 -0.6606
  929MOL0     C28079   6.582   4.146  10.245 -0.1519 -0.0102 -0.1276
  929MOL0     C28080   6.589   3.981  10.261 -0.2430 -0.5334 -1.0609
  929MOL0     N28081   6.724   3.923  10.249 -0.1261  0.4854  0.2511
  929MOL0     C28082   6.822   3.976  10.323 -0.4989 -0.5134 -0.8023
  929MOL0     C28083   6.942   3.914  10.295  0.3091 -0.5396  0.0250
  929MOL0     C28084   7.081   3.931  10.351 -0.5424 -0.6028 -0.7649
  929MOL0     C28085   7.192   3.959  10.255 -0.7510  0.4451 -0.5940
  929MOL0     C28086   7.334   3.999  10.312 -0.3892  0.2037 -0.2194
  929MOL0     C28087   7.424   4.011  10.191 -0.5179  0.2642  0.0194
  929MOL0     O28088   7.563   4.033  10.227  0.7492  0.2168 -0.4484
  929MOL0     C28089   7.590   4.136  10.307 -0.9628  0.3110 -0.3023
  929MOL0     C28090   7.533   4.260  10.295  0.2330  0.2226 -0.1372
  929MOL0     C28091   7.573   4.370  10.378  0.2996  0.0834 -0.0277
  929MOL0     C28092   7.512   4.503  10.359 -0.2721 -0.1437  0.2616
  929MOL0     C28093   7.676   4.351  10.468  0.1897  0.0339 -0.7473
  929MOL0     C28094   7.715   4.467  10.554 -0.2870 -0.1019  0.4562
  929MOL0     O28095   7.853   4.465  10.583 -0.4747 -0.2768 -1.1722
  929MOL0     C28096   7.902   4.541  10.681  0.0112 -0.3276 -0.6930
  929MOL0     C28097   7.870   4.676  10.699  0.1144  0.3161 -0.0786
  929MOL0     C28098   7.929   4.739  10.809  1.0015 -0.8685  0.1741
  929MOL0     C28099   8.019   4.676  10.896  0.0947  0.1292  0.7676
  929MOL0     O28100   8.072   4.742  11.000 -0.1180  0.2995 -0.3076
  929MOL0     C28101   8.157   4.851  10.970  0.0732  1.0453 -0.4232
  929MOL0     C28102   8.210   4.912  11.101 -0.9561  0.1628  1.0408
  929MOL0     C28103   8.313   5.021  11.069  0.1233  0.3675 -0.6134
  929MOL0     C28104   8.260   5.138  11.000  0.1726  0.6309 -0.1057
  929MOL0     C28105   8.341   5.268  11.042 -0.4378 -0.0930  0.4770
  929MOL0     C28106   8.280   5.397  10.971  0.0043  0.5865 -0.0291
  929MOL0     C28107   8.393   5.509  10.968  0.2231  0.3478  0.3955
  929MOL0     C28108   8.480   5.505  10.843 -0.3203 -0.0192  0.5107
  929MOL0    Cl28109   8.388   5.507  10.686  0.4218  0.3528 -0.5598
  929MOL0     C28110   8.057   4.543  10.869  0.4350 -0.1504 -0.6480
  929MOL0     C28111   7.990   4.477  10.768 -1.0684 -0.3562  0.6505
  929MOL0     O28112   7.631   4.538  10.607 -0.2803 -0.3598 -0.4365
  929MOL0     C28113   7.753   4.229  10.463 -0.8860  0.1319  0.4411
  929MOL0     C28114   7.709   4.124  10.385  0.9453 -0.3150 -0.2084
  929MOL0     N28115   6.902   3.830  10.192 -0.4749  0.5910 -0.5256
  929MOL0     N28116   6.770   3.828  10.166  0.3798  0.2532  0.1972
  929MOL0     C28117   5.702   4.560  10.202 -0.2707  0.2923 -0.4054
  929MOL0     C28118   5.587   4.609  10.263 -0.9958  0.4089 -0.4704
  929MOL0     C28119   5.280   4.819  10.464 -0.5113 -0.0349  0.3296
  929MOL0     C28120   5.288   4.944  10.409  0.7276  0.7552  0.0811
  929MOL0     C28121   5.189   5.043  10.406 -0.1145  0.2290 -0.8838
  929MOL0     C28122   5.074   5.019  10.478  0.5966  0.0120  0.9086
  929MOL0     O28123   4.976   5.109  10.508  0.3086 -0.2146  0.2876
  929MOL0     C28124   4.920   5.178  10.392 -0.0735  0.2726 -1.2150
  929MOL0     C28125   4.834   5.297  10.441  0.0026  0.2017 -0.5941
  929MOL0     C28126   4.743   5.258  10.563  0.2413 -0.2647 -0.6488
  929MOL0     C28127   4.626   5.362  10.593  0.4163  0.9144  0.5245
  929MOL0     C28128   4.587   5.371  10.728  0.4892 -0.3258 -0.7762
  929MOL0     C28129   4.550   5.379  10.844  0.2215  0.8293  0.4462
  929MOL0     C28130   5.056   4.891  10.537 -0.1364  0.3501  0.7146
  929MOL0     C28131   5.161   4.793  10.537  1.0300  0.1439  0.1217
  929MOL0     C28132   5.133   4.680  10.633 -0.0356 -0.2719 -0.0340
  929MOL0     H28133   5.748   4.858  10.426  3.2688 -1.0514  0.7463
  929MOL0     H28134   5.939   4.770  10.302  0.4636 -0.5290 -0.5640
  929MOL0     H28135   5.865   4.459  10.003  1.5789 -2.1862 -1.8596
  929MOL0     H28136   5.899   4.371  10.154  0.1410  0.4290  0.8028
  929MOL0     H28137   6.082   4.321   9.961 -0.7725 -0.2391  0.0418
  929MOL0     H28138   6.114   4.503   9.975  1.7119  1.0602  1.8365
  929MOL0     H28139   6.160   4.441  10.228  1.3661 -0.6972  0.8673
  929MOL0     H28140   6.171   4.273  10.186 -3.5846  0.1867  0.0376
  929MOL0     H28141   6.326   4.325  10.002 -1.0259 -3.5925  2.1345
  929MOL0     H28142   6.352   4.490  10.082 -1.6187  0.1407 -0.0128
  929MOL0     H28143   6.369   4.358  10.291 -1.8491 -3.4137  0.6308
  929MOL0     H28144   6.510   4.395  10.192 -0.8896 -0.4772  0.6830
  929MOL0     H28145   6.379   4.139  10.247  2.1521  0.2701  2.2383
  929MOL0     H28146   6.452   4.152  10.074 -3.9463 -1.4634 -0.6119
  929MOL0     H28147   6.598   4.195  10.342 -0.2861  1.1093 -0.6613
  929MOL0     H28148   6.673   4.173  10.192  0.2267 -1.1879 -0.1011
  929MOL0     H28149   6.550   3.950  10.358 -0.8955  0.0384 -1.1344
  929MOL0     H28150   6.512   3.948  10.191  0.2553  1.4367 -2.6254
  929MOL0     H28151   6.821   4.065  10.386 -3.9327  0.4333 -1.9528
  929MOL0     H28152   7.104   3.840  10.408 -2.4440  1.0421  3.0184
  929MOL0     H28153   7.089   4.023  10.409  2.2929 -1.1136 -0.1953
  929MOL0     H28154   7.200   3.861  10.209 -0.3720 -0.8839  2.1320
  929MOL0     H28155   7.154   4.033  10.184  1.1074 -0.6440 -2.8354
  929MOL0     H28156   7.333   4.100  10.353 -0.5188  1.0386 -2.1509
  929MOL0     H28157   7.371   3.933  10.391  0.7872 -0.7001 -1.4755
  929MOL0     H28158   7.418   3.915  10.138 -1.3257  0.7910 -0.8776
  929MOL0     H28159   7.384   4.090  10.127 -0.5680  0.6899  0.5663
  929MOL0     H28160   7.444   4.279  10.235  0.6676 -1.9683 -1.6142
  929MOL0     H28161   7.445   4.516  10.445  2.3279  2.5559  2.0942
  929MOL0     H28162   7.447   4.498  10.271 -0.9904  1.9096  0.6207
  929MOL0     H28163   7.567   4.596  10.343  1.0811 -1.1271 -1.0774
  929MOL0     H28164   7.785   4.721  10.648 -2.2595  1.1398  4.1491
  929MOL0     H28165   7.889   4.838  10.824 -1.4539 -1.4026 -2.1072
  929MOL0     H28166   8.236   4.822  10.899 -0.5044  0.4752 -0.8475
  929MOL0     H28167   8.099   4.930  10.923 -0.9408  0.6540  0.1494
  929MOL0     H28168   8.128   4.954  11.161  0.9615  0.2252  3.7834
  929MOL0     H28169   8.264   4.840  11.163 -0.3141  0.8832  1.3481
  929MOL0     H28170   8.387   4.974  11.002 -0.7369 -0.2881 -1.1234
  929MOL0     H28171   8.353   5.049  11.167  0.0054 -0.8372 -0.2045
  929MOL0     H28172   8.154   5.158  11.019 -0.9751 -2.8139 -1.9764
  929MOL0     H28173   8.271   5.125  10.892 -0.2011 -0.7816  0.0181
  929MOL0     H28174   8.343   5.284  11.150 -3.1083  2.6158  0.2505
  929MOL0     H28175   8.445   5.245  11.017 -0.3013  0.9942  0.0250
  929MOL0     H28176   8.189   5.436  11.019  0.6906  2.3089 -0.0859
  929MOL0     H28177   8.256   5.370  10.868  0.1911  0.2142  0.0203
  929MOL0     H28178   8.461   5.506  11.054 -1.7807  0.9020  2.0890
  929MOL0     H28179   8.352   5.610  10.965  1.2370  0.7291 -0.8409
  929MOL0     H28180   8.551   5.422  10.846 -0.6697 -0.3380 -0.0161
  929MOL0     H28181   8.543   5.594  10.835 -1.3443  0.5183 -2.8120
  929MOL0     H28182   8.125   4.490  10.935  2.0225  1.3831 -0.9937
  929MOL0     H28183   8.024   4.374  10.761 -1.8239 -0.9925  4.3621
  929MOL0     H28184   7.842   4.226  10.525 -1.3005  1.5106  1.1181
  929MOL0     H28185   7.764   4.032  10.378 -0.7106 -1.3063 -0.7563
  929MOL0     H28186   5.683   4.474  10.139 -1.5512 -0.5910  1.0980
  929MOL0     H28187   5.495   4.553  10.246 -1.1531  0.3313  0.5524
  929MOL0     H28188   5.367   4.975  10.340 -0.6913 -1.4299 -2.7853
  929MOL0     H28189   5.205   5.142  10.365  1.4976  0.7933  1.0023
  929MOL0     H28190   4.994   5.227  10.328  0.1119  2.2188  0.3833
  929MOL0     H28191   4.863   5.112  10.326  0.3889 -1.9903  0.4963
  929MOL0     H28192   4.773   5.334  10.358 -4.6817 -2.9257  1.0435
  929MOL0     H28193   4.897   5.381  10.473  0.8064 -0.2113 -1.0352
  929MOL0     H28194   4.698   5.159  10.554 -1.2456  0.2633  0.5518
  929MOL0     H28195   4.800   5.251  10.656  0.0284  0.7475 -0.4291
  929MOL0     H28196   4.548   5.338  10.520  0.7227 -1.3403  0.8662
  929MOL0     H28197   4.676   5.454  10.564  2.0292 -0.2220 -0.4586
  929MOL0     H28198   4.528   5.405  10.945  0.1238 -1.1042  0.9639
  929MOL0     H28199   4.964   4.866  10.587  0.4962 -3.6223  0.2629
  929MOL0     H28200   5.032   4.680  10.674 -0.8571 -0.2452 -1.9477
  929MOL0     H28201   5.145   4.590  10.573  0.6882  0.9979 -1.8898
  929MOL0     H28202   5.202   4.677  10.718 -1.1096 -1.4078  0.8294
  930MOL0     O28203  10.159   2.561   4.610 -0.4207 -0.5380  0.5342
  930MOL0     C28204  10.132   2.573   4.722 -0.0147  0.1879 -0.3724
  930MOL0     O28205  10.069   2.477   4.794 -0.0134  0.4019 -0.5062
  930MOL0     C28206  10.041   2.356   4.732 -0.2918  0.6107  0.2145
  930MOL0     C28207   9.960   2.351   4.614 -0.2684 -0.1359 -0.0942
  930MOL0     C28208   9.932   2.229   4.556 -0.7110 -0.8791  0.4338
  930MOL0     C28209   9.956   2.112   4.628 -0.0815  0.9236 -0.1926
  930MOL0     O28210   9.911   1.994   4.576 -0.0667 -0.1831  0.1177
  930MOL0     C28211   9.820   1.918   4.657 -0.0480  0.5845  0.6836
  930MOL0     C28212   9.686   1.882   4.589 -0.1112  1.5243 -1.2140
  930MOL0     C28213   9.581   1.999   4.602 -1.0399  0.4473 -0.2989
  930MOL0     C28214   9.462   1.971   4.517  0.0904  0.3118 -0.2093
  930MOL0     C28215   9.367   1.862   4.559  0.1953  0.2316 -0.2200
  930MOL0     C28216   9.279   1.816   4.442  0.5351 -0.5310  0.2340
  930MOL0     C28217   9.148   1.896   4.435  0.6767 -0.1736 -0.0908
  930MOL0     C28218   9.058   1.846   4.328  0.7911 -0.0875  0.5836
  930MOL0     N28219   8.920   1.816   4.366  0.3231  0.5502  0.4619
  930MOL0     C28220   8.863   1.689   4.373  0.2725  0.9761  0.1062
  930MOL0     C28221   8.741   1.699   4.434 -0.5344 -0.0482 -0.6066
  930MOL0     C28222   8.646   1.594   4.460  0.0551 -0.2221  1.1128
  930MOL0     C28223   8.709   1.478   4.544  0.7125  0.2715  0.0853
  930MOL0     C28224   8.781   1.526   4.673 -0.5642 -0.1255  0.0245
  930MOL0     C28225   8.814   1.405   4.754  0.3299 -0.7564  0.6814
  930MOL0     O28226   8.916   1.328   4.698 -0.3200  0.2675 -0.5974
  930MOL0     C28227   9.039   1.318   4.754 -0.7535 -0.1307  0.9598
  930MOL0     C28228   9.101   1.430   4.814  0.5133  0.5736  0.0564
  930MOL0     C28229   9.232   1.415   4.860 -0.6827 -0.2472 -1.1424
  930MOL0     C28230   9.300   1.538   4.905 -0.1660 -0.1171 -0.1884
  930MOL0     C28231   9.301   1.291   4.847 -0.2635 -0.6568 -0.4238
  930MOL0     C28232   9.438   1.267   4.887  0.8195  0.2342 -0.1883
  930MOL0     O28233   9.458   1.155   4.959  0.4058  0.6334 -0.3040
  930MOL0     C28234   9.567   1.153   5.039  0.3085  0.5055 -0.9374
  930MOL0     C28235   9.619   1.031   5.079  0.5826 -0.1950  0.4502
  930MOL0     C28236   9.735   1.016   5.152 -0.0726 -0.1922  0.3217
  930MOL0     C28237   9.791   1.128   5.204 -0.4120  0.7728  0.4208
  930MOL0     O28238   9.899   1.104   5.282  0.2701 -0.0721  0.0856
  930MOL0     C28239  10.005   1.197   5.302 -0.8768 -0.6865 -0.0370
  930MOL0     C28240  10.128   1.135   5.373  0.3955  0.2526  0.3874
  930MOL0     C28241  10.230   1.241   5.389 -0.1500  0.1007  0.2818
  930MOL0     C28242  10.371   1.187   5.431  0.8566  0.3962  0.6721
  930MOL0     C28243  10.480   1.297   5.448 -0.6688 -0.7232  0.8437
  930MOL0     C28244  10.595   1.237   5.521 -0.7775 -1.1137 -0.0313
  930MOL0     C28245  10.699   1.348   5.521 -0.7013 -0.4438  0.2883
  930MOL0     C28246  10.839   1.328   5.596  0.4424  0.8195 -0.4957
  930MOL0    Cl28247  10.817   1.349   5.768  0.2642  0.4954  0.0928
  930MOL0     C28248   9.741   1.254   5.182 -0.6044 -0.1362  0.8943
  930MOL0     C28249   9.622   1.266   5.104 -0.3397  0.6163  0.3598
  930MOL0     O28250   9.519   1.353   4.843  0.4838 -0.0848 -0.6323
  930MOL0     C28251   9.232   1.181   4.802  0.5085 -0.3264  0.2098
  930MOL0     C28252   9.109   1.198   4.746  0.3805  0.1568  0.1432
  930MOL0     N28253   8.725   1.839   4.458 -0.2847  0.0445  0.3290
  930MOL0     N28254   8.835   1.900   4.425 -0.6683  0.4706 -0.3319
  930MOL0     C28255  10.037   2.112   4.746 -0.5935  0.5045 -0.6555
  930MOL0     C28256  10.089   2.240   4.785 -0.0416 -0.0517 -0.0655
  930MOL0     C28257  10.147   2.707   4.783  0.9645 -0.3925 -0.6409
  930MOL0     C28258  10.111   2.727   4.913  0.6117  1.2851 -0.0432
  930MOL0     C28259  10.108   2.856   4.972 -0.9890  0.3065 -0.7012
  930MOL0     C28260  10.151   2.973   4.908  0.3885 -0.2737 -0.7345
  930MOL0     O28261  10.151   3.085   4.983  0.0419  0.3932  0.4847
  930MOL0     C28262  10.155   3.203   4.905  0.4465 -0.0687  0.5965
  930MOL0     C28263  10.149   3.330   4.994  0.7832  0.1550 -0.1544
  930MOL0     C28264  10.276   3.359   5.070 -0.4897 -0.1344 -0.1907
  930MOL0     C28265  10.250   3.447   5.185  0.0303 -0.1361  0.1349
  930MOL0     C28266  10.335   3.568   5.193 -0.9143 -0.2137  0.2074
  930MOL0     C28267  10.406   3.668   5.225 -0.0073 -0.2182 -0.0921
  930MOL0     C28268  10.205   2.956   4.778  0.2033 -0.3183  0.3470
  930MOL0     C28269  10.205   2.828   4.715  0.2264 -0.6373  0.2642
  930MOL0     C28270  10.275   2.813   4.574 -0.2944 -0.9317 -0.8316
  930MOL0     H28271   9.915   2.440   4.570 -3.7770 -1.2498  0.9050
  930MOL0     H28272   9.892   2.227   4.455  0.2165 -1.8887  0.0672
  930MOL0     H28273   9.801   1.952   4.760  0.2381 -1.1140  1.3435
  930MOL0     H28274   9.873   1.823   4.670  0.5853  0.9379  0.7791
  930MOL0     H28275   9.694   1.864   4.481 -2.0017  2.6495 -1.5763
  930MOL0     H28276   9.644   1.793   4.638  0.4814  1.8623 -0.0606
  930MOL0     H28277   9.540   2.005   4.704 -0.7936  2.7070 -0.2861
  930MOL0     H28278   9.638   2.086   4.570  1.1710 -0.6989  0.3176
  930MOL0     H28279   9.384   2.048   4.526 -0.9345 -0.7486  0.3139
  930MOL0     H28280   9.487   1.955   4.411 -0.7278 -0.9257 -0.2411
  930MOL0     H28281   9.314   1.904   4.645  3.8939  2.4968  1.2173
  930MOL0     H28282   9.424   1.780   4.603  1.8944 -0.7339 -3.7927
  930MOL0     H28283   9.324   1.821   4.342 -0.2854  0.3950 -0.1052
  930MOL0     H28284   9.261   1.713   4.476 -1.7564  0.3253  1.8967
  930MOL0     H28285   9.169   2.003   4.426 -2.1378  0.6351  1.6212
  930MOL0     H28286   9.106   1.884   4.535  1.1369 -2.7549 -0.1442
  930MOL0     H28287   9.054   1.922   4.250 -0.1767 -1.4787 -0.7549
  930MOL0     H28288   9.094   1.751   4.287 -1.5260 -1.5136  1.6328
  930MOL0     H28289   8.901   1.598   4.327  0.1296  0.7808  0.3738
  930MOL0     H28290   8.609   1.551   4.367  0.0161  0.2646  0.8971
  930MOL0     H28291   8.565   1.641   4.517 -1.4606 -1.7381  0.3065
  930MOL0     H28292   8.628   1.416   4.582  1.7750 -1.3559 -0.1962
  930MOL0     H28293   8.783   1.425   4.483 -0.0527 -0.7191 -0.0081
  930MOL0     H28294   8.873   1.584   4.659  1.6207 -2.6301  2.7039
  930MOL0     H28295   8.710   1.589   4.727  0.6459  0.5072  0.9317
  930MOL0     H28296   8.836   1.431   4.858  1.7187  1.2845 -0.0654
  930MOL0     H28297   8.724   1.343   4.751 -0.9264  1.0125 -2.4375
  930MOL0     H28298   9.055   1.528   4.823  1.6114  1.2707 -1.4909
  930MOL0     H28299   9.218   1.597   4.948  1.6475 -0.5229  4.3086
  930MOL0     H28300   9.339   1.592   4.818 -0.8145  1.4558  0.4602
  930MOL0     H28301   9.369   1.521   4.987  1.9217  2.8447 -1.1851
  930MOL0     H28302   9.567   0.936   5.072 -0.2898 -0.1370  3.9823
  930MOL0     H28303   9.786   0.924   5.179  1.5730  0.7983  0.7373
  930MOL0     H28304  10.051   1.227   5.208  0.1249 -0.9886  0.3480
  930MOL0     H28305   9.975   1.286   5.357  2.7154 -0.8239  2.4997
  930MOL0     H28306  10.106   1.080   5.465 -0.0376 -1.4254 -0.6812
  930MOL0     H28307  10.182   1.059   5.315  0.7190 -1.6166  2.9781
  930MOL0     H28308  10.192   1.311   5.463 -0.1898 -2.1808  2.5437
  930MOL0     H28309  10.245   1.296   5.295 -1.3785 -2.5830 -1.6120
  930MOL0     H28310  10.412   1.114   5.361 -0.2129  0.9403 -0.5435
  930MOL0     H28311  10.356   1.138   5.528 -0.4412  2.8284  1.7807
  930MOL0     H28312  10.503   1.342   5.352 -2.8780 -0.3230  0.4619
  930MOL0     H28313  10.441   1.381   5.506 -1.0439 -0.8701  0.8065
  930MOL0     H28314  10.645   1.153   5.473 -0.2971 -1.6623  1.3665
  930MOL0     H28315  10.557   1.206   5.619 -1.1549  0.7596  0.4605
  930MOL0     H28316  10.654   1.423   5.587  1.2465 -0.2772  1.4896
  930MOL0     H28317  10.711   1.389   5.420  0.2341  2.4387  1.4715
  930MOL0     H28318  10.918   1.397   5.565  2.9480 -1.1794  1.0562
  930MOL0     H28319  10.886   1.230   5.584 -0.2316  0.1743  1.5931
  930MOL0     H28320   9.789   1.339   5.230 -1.3234  0.1647  1.0971
  930MOL0     H28321   9.564   1.357   5.094 -0.6534  0.4859  0.9129
  930MOL0     H28322   9.277   1.082   4.797  1.0331 -0.1567  1.3175
  930MOL0     H28323   9.062   1.108   4.707  0.2161 -0.6965  2.1948
  930MOL0     H28324  10.068   2.020   4.794 -3.4204  0.2672  0.8949
  930MOL0     H28325  10.171   2.242   4.856 -0.2678 -0.0055  0.1961
  930MOL0     H28326  10.101   2.646   4.983  0.8100  1.7248  0.5042
  930MOL0     H28327  10.071   2.853   5.074  1.4549 -0.3037  0.2565
  930MOL0     H28328  10.241   3.196   4.838 -0.8449 -1.6520 -1.0068
  930MOL0     H28329  10.066   3.197   4.842  0.8174 -0.2242  0.0767
  930MOL0     H28330  10.077   3.295   5.069 -2.3476 -1.5495 -3.5978
  930MOL0     H28331  10.114   3.422   4.945 -0.5820 -0.6025 -0.6505
  930MOL0     H28332  10.321   3.262   5.094 -3.7175 -1.5011  0.8468
  930MOL0     H28333  10.339   3.414   5.000 -2.5671  1.8904 -0.5752
  930MOL0     H28334  10.260   3.391   5.278  1.0392  1.1350  0.8277
  930MOL0     H28335  10.144   3.477   5.185  0.1405  0.3281 -1.3123
  930MOL0     H28336  10.468   3.756   5.227 -0.9727  0.5330 -1.5400
  930MOL0     H28337  10.239   3.039   4.717  0.0285 -0.2284  0.3707
  930MOL0     H28338  10.195   2.797   4.501  0.0175  0.6512 -1.5705
  930MOL0     H28339  10.328   2.902   4.539  0.4111 -1.8267 -2.1037
  930MOL0     H28340  10.345   2.730   4.587  0.7587  0.4377  5.0800
  931MOL0     O28341   1.772   1.814   7.324  0.2963  0.4425 -0.5685
  931MOL0     C28342   1.808   1.709   7.380  0.3540  0.3668  0.8717
  931MOL0     O28343   1.877   1.612   7.315 -0.5179 -0.4795 -0.4834
  931MOL0     C28344   1.893   1.618   7.179 -0.9383 -0.3721  0.1317
  931MOL0     C28345   1.783   1.636   7.099  0.1938 -1.3265 -0.1624
  931MOL0     C28346   1.783   1.637   6.961 -0.1485  0.2595 -1.0526
  931MOL0     C28347   1.902   1.594   6.899  0.1855  0.4301  0.6152
  931MOL0     O28348   1.898   1.592   6.756  0.2190 -0.0068 -0.4555
  931MOL0     C28349   1.995   1.503   6.699  0.6217 -0.1855  0.1398
  931MOL0     C28350   1.969   1.476   6.548  0.0178 -0.5910  0.4446
  931MOL0     C28351   1.986   1.603   6.456  0.3897 -0.0281 -0.0728
  931MOL0     C28352   2.139   1.635   6.447  0.3456 -0.8904  0.2222
  931MOL0     C28353   2.171   1.746   6.336  0.4734  0.3239  1.0946
  931MOL0     C28354   2.206   1.885   6.411 -0.0956  0.0293 -0.0814
  931MOL0     C28355   2.234   1.999   6.318  0.1545 -0.3457  0.3860
  931MOL0     C28356   2.305   2.115   6.389  0.1554 -0.5821  0.6130
  931MOL0     N28357   2.447   2.104   6.424 -0.1507 -0.1535  0.0394
  931MOL0     C28358   2.557   2.088   6.347 -0.6461 -0.0339  0.1440
  931MOL0     C28359   2.659   2.084   6.437  0.5437  0.5180  0.2959
  931MOL0     C28360   2.801   2.053   6.393  0.3541 -0.3454 -0.0605
  931MOL0     C28361   2.880   2.172   6.334  0.2429  0.2603  0.1080
  931MOL0     C28362   2.890   2.298   6.426 -0.5806  0.5082  0.5429
  931MOL0     C28363   2.968   2.281   6.559  0.6530 -0.6257 -0.3964
  931MOL0     O28364   3.106   2.306   6.535 -0.7156 -0.7754 -0.1596
  931MOL0     C28365   3.208   2.266   6.625  0.3415 -0.4103  0.3639
  931MOL0     C28366   3.328   2.254   6.568 -0.5325  0.5801  0.1424
  931MOL0     C28367   3.437   2.214   6.649 -0.9767 -0.5082  0.6059
  931MOL0     C28368   3.571   2.206   6.580 -0.4003  0.1509  0.8525
  931MOL0     C28369   3.421   2.178   6.787  0.1847 -0.6152 -0.3141
  931MOL0     C28370   3.527   2.151   6.886 -0.9011  0.1249 -0.8638
  931MOL0     O28371   3.490   2.108   7.011 -0.1403  0.1409 -0.2844
  931MOL0     C28372   3.586   2.071   7.095 -0.0895  0.1312 -0.2729
  931MOL0     C28373   3.587   1.934   7.132 -0.0945 -0.3048 -0.8125
  931MOL0     C28374   3.685   1.897   7.223  0.0013  0.1001  0.8604
  931MOL0     C28375   3.783   1.981   7.281 -0.1716  0.0355  0.3382
  931MOL0     O28376   3.880   1.934   7.364 -0.7050 -0.4610  0.1180
  931MOL0     C28377   3.951   1.809   7.348  0.3658  0.5437 -0.4241
  931MOL0     C28378   4.058   1.844   7.253  0.6487 -0.1382 -0.0167
  931MOL0     C28379   4.138   1.972   7.281 -0.4794 -0.0435  0.0926
  931MOL0     C28380   4.186   1.995   7.421 -0.6557 -0.4114 -0.1220
  931MOL0     C28381   4.288   1.882   7.464 -0.5902 -0.9615  0.3726
  931MOL0     C28382   4.308   1.893   7.617 -0.1728  0.4947  0.6578
  931MOL0     C28383   4.411   1.789   7.675  0.1500 -0.7406 -0.1995
  931MOL0     C28384   4.445   1.835   7.821 -0.6643  0.7028 -0.0148
  931MOL0    Cl28385   4.587   1.934   7.817  0.2270 -0.0532  0.0050
  931MOL0     C28386   3.777   2.112   7.239  0.1841  0.8098 -0.0944
  931MOL0     C28387   3.680   2.164   7.149 -0.3553 -0.2680 -0.0594
  931MOL0     O28388   3.645   2.169   6.849  0.0491  0.3367 -0.1592
  931MOL0     C28389   3.293   2.201   6.840  0.4500  0.9023 -0.4921
  931MOL0     C28390   3.195   2.232   6.754  0.5088 -0.1219 -0.0840
  931MOL0     N28391   2.614   2.097   6.569  0.0912  0.6487 -0.1472
  931MOL0     N28392   2.481   2.107   6.556 -0.3088  0.6668  0.1490
  931MOL0     C28393   2.013   1.566   6.983 -0.3797 -0.5751 -0.7216
  931MOL0     C28394   2.008   1.576   7.122 -0.3002 -0.3030  0.4885
  931MOL0     C28395   1.779   1.679   7.529 -0.4987  0.8037  1.1210
  931MOL0     C28396   1.822   1.552   7.585 -0.9152  1.1921  0.2284
  931MOL0     C28397   1.797   1.534   7.725 -0.2293 -0.4053 -0.3990
  931MOL0     C28398   1.751   1.629   7.810  0.1941 -0.3807 -0.2628
  931MOL0     O28399   1.738   1.599   7.946 -0.4736  0.9035 -0.5967
  931MOL0     C28400   1.727   1.709   8.039  0.1572  0.3558  0.2771
  931MOL0     C28401   1.594   1.676   8.116  0.3841 -0.4576 -0.9793
  931MOL0     C28402   1.464   1.707   8.050  0.2917  0.5017  0.5384
  931MOL0     C28403   1.360   1.676   8.148  0.3868 -0.4208 -0.1469
  931MOL0     C28404   1.227   1.701   8.089 -0.1615  0.4816 -0.0459
  931MOL0     C28405   1.111   1.709   8.040 -0.0032 -0.3676  0.4541
  931MOL0     C28406   1.706   1.746   7.746  0.5713  0.9984  0.4026
  931MOL0     C28407   1.710   1.770   7.606  0.0939 -0.0795 -1.0576
  931MOL0     C28408   1.640   1.897   7.564 -0.6398  0.1991  0.0207
  931MOL0     H28409   1.688   1.654   7.149  1.5927  0.8258  1.9489
  931MOL0     H28410   1.691   1.647   6.904  0.6611 -1.1065 -2.6797
  931MOL0     H28411   1.990   1.403   6.743  0.7137 -1.0175 -1.6905
  931MOL0     H28412   2.096   1.543   6.711  0.5292  1.0814 -2.5835
  931MOL0     H28413   2.031   1.391   6.516 -0.7951 -1.0690  0.0909
  931MOL0     H28414   1.864   1.450   6.534 -0.3343  1.1730 -0.4574
  931MOL0     H28415   1.949   1.579   6.356 -0.4548  1.2475 -0.0941
  931MOL0     H28416   1.930   1.690   6.492  0.8843 -0.3647  1.5871
  931MOL0     H28417   2.170   1.662   6.548 -1.0455  1.5552  0.0809
  931MOL0     H28418   2.174   1.539   6.407 -0.1632 -0.0015 -2.6394
  931MOL0     H28419   2.087   1.763   6.268  2.4734  0.3580 -1.5363
  931MOL0     H28420   2.253   1.703   6.279  1.5891  0.9412  2.1791
  931MOL0     H28421   2.125   1.913   6.478 -0.3149  1.1921 -0.8121
  931MOL0     H28422   2.298   1.869   6.467 -0.7595 -1.3305  0.6689
  931MOL0     H28423   2.140   2.023   6.268  1.5484  0.4238 -2.0329
  931MOL0     H28424   2.301   1.961   6.240 -0.6020 -0.0889 -0.3942
  931MOL0     H28425   2.293   2.200   6.321 -1.2973  0.0637  1.6302
  931MOL0     H28426   2.238   2.137   6.473  0.4592 -3.5614  1.7568
  931MOL0     H28427   2.570   2.074   6.240  0.1090  0.3495  0.1798
  931MOL0     H28428   2.779   1.969   6.326 -3.1655  1.8573 -1.9273
  931MOL0     H28429   2.852   2.007   6.478 -2.1498 -2.8194  0.2630
  931MOL0     H28430   2.976   2.126   6.309  0.8174 -1.5878  4.8025
  931MOL0     H28431   2.825   2.211   6.248  1.4299  1.9239  0.0317
  931MOL0     H28432   2.937   2.378   6.369 -2.2674  1.9441  1.0492
  931MOL0     H28433   2.789   2.339   6.438 -0.7214  0.4100 -0.2668
  931MOL0     H28434   2.932   2.345   6.640 -2.3805 -0.1957 -1.9812
  931MOL0     H28435   2.955   2.180   6.600  2.2280 -0.7387 -0.0990
  931MOL0     H28436   3.330   2.285   6.464  3.7347 -0.4189 -0.2411
  931MOL0     H28437   3.629   2.297   6.598 -0.7520  1.0744 -2.1086
  931MOL0     H28438   3.551   2.197   6.473  3.3653 -1.8345  0.1731
  931MOL0     H28439   3.615   2.107   6.593 -2.6108 -1.6577 -3.3790
  931MOL0     H28440   3.512   1.864   7.097  0.0325 -0.5943 -0.5116
  931MOL0     H28441   3.690   1.796   7.262  1.9061  0.0760  0.6489
  931MOL0     H28442   3.992   1.775   7.443  0.5372 -0.1224 -0.7252
  931MOL0     H28443   3.897   1.717   7.323  0.4918  0.2525  0.3607
  931MOL0     H28444   4.130   1.762   7.255  2.1761  1.1492 -0.2793
  931MOL0     H28445   4.017   1.841   7.152 -2.7700  3.2497  1.0101
  931MOL0     H28446   4.081   2.059   7.249 -1.0470 -0.1350  0.8110
  931MOL0     H28447   4.225   1.969   7.215  0.4195  0.8061  1.2006
  931MOL0     H28448   4.103   1.982   7.491 -2.7284 -1.5828 -2.6317
  931MOL0     H28449   4.225   2.095   7.441  0.2369 -0.9886  1.2022
  931MOL0     H28450   4.262   1.778   7.440  0.2544 -0.9571 -0.6358
  931MOL0     H28451   4.379   1.899   7.406 -0.0342  0.0319  1.4981
  931MOL0     H28452   4.212   1.874   7.666  0.4208 -1.4750  1.1604
  931MOL0     H28453   4.343   1.993   7.642 -1.8166  1.6158 -1.2031
  931MOL0     H28454   4.511   1.792   7.629 -0.1336  1.3115 -0.7717
  931MOL0     H28455   4.371   1.687   7.682  1.8329 -1.3460  1.6618
  931MOL0     H28456   4.472   1.748   7.882  0.2258 -0.7287 -2.3479
  931MOL0     H28457   4.353   1.882   7.855 -1.3317  0.3673 -1.3028
  931MOL0     H28458   3.856   2.171   7.284 -0.7628  1.3016  1.0021
  931MOL0     H28459   3.683   2.269   7.125  1.5906 -0.1525  0.5553
  931MOL0     H28460   3.282   2.219   6.947 -2.0400  0.9940 -0.7128
  931MOL0     H28461   3.098   2.245   6.800  0.6370 -3.6462  1.4522
  931MOL0     H28462   2.109   1.535   6.943 -1.6964 -3.4611 -1.9271
  931MOL0     H28463   2.092   1.549   7.186 -1.4591 -2.8667  1.0681
  931MOL0     H28464   1.847   1.459   7.534 -2.5769  0.0260  1.4429
  931MOL0     H28465   1.809   1.434   7.764 -2.4781 -0.9326 -0.9328
  931MOL0     H28466   1.814   1.701   8.105  0.5797 -1.5139 -0.4409
  931MOL0     H28467   1.733   1.811   8.002 -0.6881  1.6090  3.2722
  931MOL0     H28468   1.604   1.723   8.214 -0.6442  0.8094 -1.4441
  931MOL0     H28469   1.590   1.571   8.144  0.6848 -0.2215 -0.0087
  931MOL0     H28470   1.474   1.813   8.028 -1.4560  0.3861 -1.1426
  931MOL0     H28471   1.453   1.660   7.951 -2.7235  0.1780  0.9375
  931MOL0     H28472   1.377   1.737   8.238  0.4141  3.9232 -2.7843
  931MOL0     H28473   1.373   1.572   8.177 -2.7289 -1.0793 -0.7992
  931MOL0     H28474   1.014   1.703   7.993  0.3632 -0.5938 -0.2878
  931MOL0     H28475   1.650   1.816   7.806 -1.7097  0.5187 -1.0336
  931MOL0     H28476   1.566   1.867   7.489 -0.9217 -0.0129  0.3828
  931MOL0     H28477   1.598   1.949   7.650 -0.4737  0.7938 -0.2524
  931MOL0     H28478   1.719   1.963   7.526  1.7231 -2.3607  0.1203
  932MOL0     O28479  10.135   9.248   1.329  0.2761  0.4565 -0.0002
  932MOL0     C28480  10.082   9.357   1.354 -0.6423  0.2785 -0.0995
  932MOL0     O28481   9.997   9.382   1.472 -0.7506  0.5560 -0.8184
  932MOL0     C28482   9.954   9.270   1.535 -0.3656  0.1012  0.1362
  932MOL0     C28483  10.031   9.239   1.649 -0.3472 -0.7565  0.5444
  932MOL0     C28484  10.017   9.113   1.706  0.2362 -0.9490  0.0767
  932MOL0     C28485   9.910   9.028   1.657 -1.2294  0.6900 -1.1949
  932MOL0     O28486   9.884   8.912   1.728  0.2760  0.5313  0.5825
  932MOL0     C28487   9.825   8.797   1.664 -0.6747 -0.8807 -0.4250
  932MOL0     C28488   9.932   8.710   1.609 -0.2806 -0.0872 -0.4880
  932MOL0     C28489  10.031   8.653   1.726  0.7682 -0.6362  0.4476
  932MOL0     C28490  10.132   8.555   1.671 -0.6022  0.6694 -1.0621
  932MOL0     C28491  10.221   8.485   1.775 -0.0417 -0.1303  0.3899
  932MOL0     C28492  10.310   8.579   1.865 -0.4799  0.2760 -0.2310
  932MOL0     C28493  10.425   8.512   1.946  0.1855  0.3574 -0.4288
  932MOL0     C28494  10.553   8.514   1.871 -0.0457  0.0735  0.4182
  932MOL0     N28495  10.656   8.443   1.944  0.3671  0.2693 -0.8367
  932MOL0     C28496  10.642   8.327   2.020 -0.1306 -0.2300  0.1005
  932MOL0     C28497  10.749   8.321   2.104 -0.4926 -0.4981 -0.4944
  932MOL0     C28498  10.759   8.221   2.216  0.0099 -0.4481 -0.6562
  932MOL0     C28499  10.899   8.184   2.251 -0.5281  0.6452  0.5445
  932MOL0     C28500  10.914   8.092   2.374  0.7676 -0.7774  0.1561
  932MOL0     C28501  11.051   8.030   2.379 -0.0507 -0.1383 -0.2953
  932MOL0     O28502  11.149   8.130   2.383 -0.4424 -0.1880 -0.6990
  932MOL0     C28503  11.281   8.092   2.394  0.0158 -0.2627  0.0566
  932MOL0     C28504  11.373   8.200   2.385  0.1652 -0.3686 -0.7487
  932MOL0     C28505  11.514   8.180   2.382 -0.2377  1.1988 -0.9689
  932MOL0     C28506  11.609   8.298   2.359  0.5974  0.5456  0.3716
  932MOL0     C28507  11.558   8.042   2.404 -0.5213 -0.3690 -0.2726
  932MOL0     C28508  11.703   8.010   2.430  0.0628  0.1470  0.5102
  932MOL0     O28509  11.796   8.096   2.379 -0.3637 -0.5412 -0.0457
  932MOL0     C28510  11.932   8.102   2.403  0.0065  0.7941 -0.5993
  932MOL0     C28511  12.011   7.988   2.426 -0.6472 -0.2147  0.9560
  932MOL0     C28512  12.155   7.994   2.435 -0.0493 -0.1602  0.8704
  932MOL0     C28513  12.218   8.112   2.411 -0.1001  0.0114 -1.3042
  932MOL0     O28514  12.361   8.132   2.420  0.3590 -0.4986  0.3283
  932MOL0     C28515  12.435   8.071   2.316 -0.9023  0.3664 -0.6238
  932MOL0     C28516  12.574   8.043   2.367  0.1551 -0.5132  0.3382
  932MOL0     C28517  12.671   8.163   2.367  0.3913  0.3686 -0.5584
  932MOL0     C28518  12.738   8.200   2.225 -0.0226  0.2509 -0.9163
  932MOL0     C28519  12.857   8.304   2.260 -0.4998  0.2306  0.0021
  932MOL0     C28520  12.934   8.345   2.137  0.3907  0.2557 -0.2101
  932MOL0     C28521  13.042   8.449   2.147  0.2379  0.0601 -0.8137
  932MOL0     C28522  12.986   8.574   2.199  0.4557  0.1272 -0.2747
  932MOL0    Cl28523  13.106   8.707   2.189  0.0020  0.0239  0.0048
  932MOL0     C28524  12.143   8.229   2.391  0.1661  0.2244 -0.5227
  932MOL0     C28525  12.009   8.217   2.374 -0.0182  0.0891  0.4446
  932MOL0     O28526  11.727   7.907   2.500  0.4028 -0.7347 -1.0732
  932MOL0     C28527  11.466   7.940   2.424 -0.4435  0.6723 -1.0723
  932MOL0     C28528  11.329   7.963   2.408  0.3622 -0.1496 -0.4560
  932MOL0     N28529  10.831   8.429   2.072  0.4050  0.0791 -0.3236
  932MOL0     N28530  10.769   8.503   1.981 -0.2581  0.3880  1.0541
  932MOL0     C28531   9.826   9.066   1.545 -0.6709 -0.0093  0.3763
  932MOL0     C28532   9.859   9.178   1.478 -0.5386 -0.5228  0.1505
  932MOL0     C28533  10.110   9.468   1.259 -0.1500  0.0287  1.4267
  932MOL0     C28534  10.080   9.599   1.311 -0.3568  0.2133 -0.0709
  932MOL0     C28535  10.120   9.713   1.241 -0.3940 -0.4551  0.3747
  932MOL0     C28536  10.173   9.698   1.117 -0.0215 -0.9720 -0.5575
  932MOL0     O28537  10.219   9.807   1.044 -0.0193 -0.3110  0.5988
  932MOL0     C28538  10.163   9.933   1.080  0.0374  0.4673  0.5426
  932MOL0     C28539  10.222  10.040   0.987 -0.8730  0.0150  0.5096
  932MOL0     C28540  10.203  10.020   0.834  0.1822  0.2650  0.4890
  932MOL0     C28541  10.059  10.006   0.785  0.5020 -0.0463 -0.6562
  932MOL0     C28542   9.982  10.124   0.818  0.2986  0.0274  1.1361
  932MOL0     C28543   9.914  10.218   0.854  0.4396 -0.5586 -0.2972
  932MOL0     C28544  10.212   9.573   1.069  0.2146  0.2683 -1.8163
  932MOL0     C28545  10.182   9.452   1.133 -0.1080 -0.1203 -0.5803
  932MOL0     C28546  10.227   9.322   1.060  0.5173 -0.1125  0.8301
  932MOL0     H28547  10.109   9.307   1.681  1.5190 -1.3997 -2.2935
  932MOL0     H28548  10.075   9.091   1.794  0.1571 -0.2291  0.3211
  932MOL0     H28549   9.761   8.831   1.581 -2.9441  0.4364  1.7101
  932MOL0     H28550   9.768   8.739   1.737 -1.5194 -1.1187 -1.2432
  932MOL0     H28551   9.886   8.624   1.561 -0.0170 -2.7280  3.5625
  932MOL0     H28552   9.987   8.759   1.527 -1.0018  2.5029  0.4624
  932MOL0     H28553  10.085   8.730   1.781  0.2580  0.0274  0.0296
  932MOL0     H28554   9.958   8.607   1.794  0.9497  0.6612  1.5562
  932MOL0     H28555  10.078   8.482   1.610 -0.0064  0.0310 -0.8418
  932MOL0     H28556  10.200   8.614   1.608  1.0182  3.0800  2.6197
  932MOL0     H28557  10.290   8.425   1.715  1.5952  1.6936  0.3558
  932MOL0     H28558  10.162   8.414   1.833 -2.3712  1.9895  0.7998
  932MOL0     H28559  10.357   8.661   1.810  1.7162 -0.4363  0.4877
  932MOL0     H28560  10.255   8.632   1.943  1.1438  0.2526  0.9739
  932MOL0     H28561  10.390   8.409   1.960 -3.9253  1.4657 -1.2965
  932MOL0     H28562  10.432   8.551   2.048 -1.9726  1.5352 -0.6844
  932MOL0     H28563  10.539   8.476   1.770  1.3275 -2.1641  1.0193
  932MOL0     H28564  10.587   8.618   1.865 -2.3651  0.8969  0.2733
  932MOL0     H28565  10.555   8.262   2.020  0.0254 -0.4525 -0.5656
  932MOL0     H28566  10.698   8.131   2.204 -1.7536  0.5195  0.5673
  932MOL0     H28567  10.718   8.265   2.308  0.0391 -2.7091  0.5051
  932MOL0     H28568  10.945   8.134   2.165  2.0034  0.8932  1.6501
  932MOL0     H28569  10.972   8.263   2.271 -0.8833  1.0613  0.1997
  932MOL0     H28570  10.902   8.148   2.467  2.0669 -3.8146  2.3158
  932MOL0     H28571  10.835   8.017   2.364  0.6221 -0.8562  1.6268
  932MOL0     H28572  11.057   7.962   2.464 -0.7174  0.4739  0.2536
  932MOL0     H28573  11.066   7.970   2.290  4.4541  0.2273 -0.0200
  932MOL0     H28574  11.318   8.293   2.377  0.4650  0.0790  1.7134
  932MOL0     H28575  11.703   8.305   2.416  1.8889 -1.5982 -1.3158
  932MOL0     H28576  11.549   8.386   2.384 -0.7500 -0.0122 -0.8134
  932MOL0     H28577  11.643   8.295   2.255  1.6693  0.8135  0.6931
  932MOL0     H28578  11.957   7.894   2.435 -0.0138 -1.0279 -2.4955
  932MOL0     H28579  12.217   7.909   2.460 -0.6476 -1.7867 -2.5606
  932MOL0     H28580  12.387   7.974   2.297  0.1557 -0.8025  2.1042
  932MOL0     H28581  12.434   8.122   2.220  0.0659 -0.5335 -1.1218
  932MOL0     H28582  12.564   8.018   2.473 -3.3750  0.9096  0.4839
  932MOL0     H28583  12.622   7.962   2.311 -2.1399 -0.6977 -1.5167
  932MOL0     H28584  12.744   8.141   2.446  0.4259  0.0854 -0.6684
  932MOL0     H28585  12.613   8.243   2.413  0.0345 -1.9279  3.4154
  932MOL0     H28586  12.665   8.232   2.150  0.7424  0.8104 -1.4434
  932MOL0     H28587  12.777   8.108   2.180 -0.0325 -0.7032  0.9391
  932MOL0     H28588  12.820   8.399   2.300  2.9273  1.1204  1.4125
  932MOL0     H28589  12.925   8.257   2.332 -0.0467  0.2409 -0.4132
  932MOL0     H28590  12.861   8.394   2.072 -1.9088 -2.5172  0.0668
  932MOL0     H28591  12.977   8.257   2.088 -0.8759 -0.6957  0.3130
  932MOL0     H28592  13.066   8.463   2.041 -0.7649  2.3294 -0.7997
  932MOL0     H28593  13.130   8.412   2.201  0.3026  0.4281 -0.6597
  932MOL0     H28594  12.955   8.556   2.302 -1.6943 -0.3126 -0.9578
  932MOL0     H28595  12.897   8.612   2.147  0.1805 -0.5557 -0.3130
  932MOL0     H28596  12.199   8.319   2.367 -1.7768  0.9191 -2.8478
  932MOL0     H28597  11.954   8.301   2.333  0.2066  0.5538  1.0836
  932MOL0     H28598  11.506   7.844   2.457  0.5870  2.1681  2.6155
  932MOL0     H28599  11.258   7.886   2.437  2.0436 -0.3149  3.8145
  932MOL0     H28600   9.740   9.017   1.500  1.5192 -1.9852 -1.9937
  932MOL0     H28601   9.790   9.202   1.398  2.2833  0.5872 -2.1105
  932MOL0     H28602  10.046   9.603   1.414  2.0863 -1.2976  0.8900
  932MOL0     H28603  10.115   9.811   1.287 -2.8398 -0.5220  0.4039
  932MOL0     H28604  10.056   9.941   1.060  0.8477  2.3989 -4.4262
  932MOL0     H28605  10.196   9.955   1.182  0.8150 -1.1003  0.6454
  932MOL0     H28606  10.331  10.038   1.004 -0.9397 -2.6248  1.1022
  932MOL0     H28607  10.179  10.133   1.025 -1.2213  1.2761 -2.6851
  932MOL0     H28608  10.256  10.104   0.789  1.2349  1.2298  3.3317
  932MOL0     H28609  10.257   9.929   0.804  4.2066  2.0745  1.6042
  932MOL0     H28610  10.001   9.923   0.825 -5.3242  3.1152 -1.3982
  932MOL0     H28611  10.055   9.988   0.677  1.2759  3.8756 -1.5050
  932MOL0     H28612   9.857  10.308   0.868 -2.2831 -1.7493 -2.5996
  932MOL0     H28613  10.265   9.583   0.975  1.3036 -0.9155 -1.3568
  932MOL0     H28614  10.301   9.354   0.986 -1.3068 -1.9465 -1.9760
  932MOL0     H28615  10.277   9.250   1.125  0.9191 -0.3348  0.2820
  932MOL0     H28616  10.146   9.277   1.003 -1.7987  3.7710  0.6800
  933MOL0     O28617  10.858   4.338   6.988 -0.2332 -0.2171  0.5450
  933MOL0     C28618  10.772   4.372   6.904 -0.9404 -0.0373 -0.5677
  933MOL0     O28619  10.785   4.469   6.815  0.8032 -0.1955 -0.1165
  933MOL0     C28620  10.913   4.519   6.799  0.6638 -0.1540 -0.5936
  933MOL0     C28621  11.003   4.470   6.706  0.5000 -0.7365 -0.4806
  933MOL0     C28622  11.129   4.522   6.685  0.3290  0.3532  0.2326
  933MOL0     C28623  11.183   4.625   6.764 -0.1906  0.2900  0.0793
  933MOL0     O28624  11.309   4.659   6.725  0.0676 -0.0288  0.4810
  933MOL0     C28625  11.370   4.752   6.807 -0.0771  0.0188  0.0941
  933MOL0     C28626  11.506   4.781   6.739 -0.7983  0.5075  0.3279
  933MOL0     C28627  11.613   4.814   6.846 -0.3510 -0.4801 -0.2997
  933MOL0     C28628  11.748   4.843   6.780  0.2034  0.3771 -0.1147
  933MOL0     C28629  11.864   4.859   6.871 -0.2611 -0.0939  0.6248
  933MOL0     C28630  11.968   4.937   6.792  0.2564 -0.4375  0.5193
  933MOL0     C28631  12.100   4.946   6.871 -0.2851  0.1122 -0.1150
  933MOL0     C28632  12.220   4.985   6.772  0.4262  0.1557 -0.6740
  933MOL0     N28633  12.347   5.007   6.831  0.0560 -0.1328 -0.2920
  933MOL0     C28634  12.466   4.989   6.765  1.1924  0.0252  0.2589
  933MOL0     C28635  12.557   5.041   6.843  0.1814  0.0662 -0.2782
  933MOL0     C28636  12.699   5.054   6.794 -0.7187 -0.8260  0.0132
  933MOL0     C28637  12.776   4.921   6.792 -0.4832  0.0672 -0.0973
  933MOL0     C28638  12.834   4.911   6.933 -0.8605  0.7959  0.4392
  933MOL0     C28639  12.868   4.769   6.976  0.3618 -0.6228 -0.2168
  933MOL0     O28640  12.982   4.733   6.896 -0.1735 -0.2607 -0.3880
  933MOL0     C28641  13.111   4.779   6.930 -0.2930  0.5567  0.0461
  933MOL0     C28642  13.161   4.794   7.052  0.6916  0.5452 -0.3675
  933MOL0     C28643  13.298   4.822   7.080 -0.5767  0.0947  0.0876
  933MOL0     C28644  13.340   4.839   7.229  0.4174 -0.5759  0.1690
  933MOL0     C28645  13.390   4.834   6.970  0.2235 -0.1959  0.2463
  933MOL0     C28646  13.532   4.875   6.986 -0.1833  0.1041 -0.2540
  933MOL0     O28647  13.597   4.947   6.877  0.0493  0.5514 -0.1770
  933MOL0     C28648  13.740   4.933   6.869  0.0453 -0.5058 -0.0040
  933MOL0     C28649  13.790   4.838   6.771  0.0535  0.5867  0.0386
  933MOL0     C28650  13.928   4.838   6.748  0.0416 -0.4931 -0.2042
  933MOL0     C28651  14.022   4.923   6.809  0.1386 -0.2510 -0.0775
  933MOL0     O28652  14.159   4.910   6.787 -0.4397  0.1961  0.5790
  933MOL0     C28653  14.219   4.800   6.856 -0.6685  0.9288  0.1688
  933MOL0     C28654  14.288   4.709   6.747  1.0744 -1.0007 -0.1788
  933MOL0     C28655  14.372   4.590   6.783  0.4130  0.1434 -0.8880
  933MOL0     C28656  14.510   4.634   6.826 -0.4673  0.2006  0.1194
  933MOL0     C28657  14.611   4.518   6.848 -0.3301  0.3210  0.0633
  933MOL0     C28658  14.751   4.569   6.893  0.1359  0.3573 -0.5890
  933MOL0     C28659  14.829   4.475   6.990  0.2626  0.7311  0.1143
  933MOL0     C28660  14.966   4.534   7.027 -0.7268 -0.6449 -0.7978
  933MOL0    Cl28661  15.049   4.435   7.157 -0.4954  0.2093 -0.3138
  933MOL0     C28662  13.972   5.014   6.899 -0.8823  0.0832 -0.6300
  933MOL0     C28663  13.835   5.013   6.932 -0.4079 -0.1467 -0.3007
  933MOL0     O28664  13.586   4.847   7.087 -0.2167  0.5681  0.7246
  933MOL0     C28665  13.334   4.827   6.839  0.5644 -0.7544  0.0992
  933MOL0     C28666  13.193   4.808   6.823  0.3257  0.0865 -0.2733
  933MOL0     N28667  12.508   5.090   6.963  0.1105 -0.5416  0.5834
  933MOL0     N28668  12.374   5.068   6.958  0.6581  0.5331  0.7586
  933MOL0     C28669  11.090   4.678   6.858  0.5691  0.2546 -0.3969
  933MOL0     C28670  10.957   4.628   6.870  0.2691  0.2201  0.3764
  933MOL0     C28671  10.640   4.300   6.929 -1.0062 -0.4643 -0.1603
  933MOL0     C28672  10.615   4.232   7.047  0.2671 -0.4858 -0.2967
  933MOL0     C28673  10.489   4.173   7.076  0.8093 -0.0860  0.4945
  933MOL0     C28674  10.396   4.159   6.976  0.4320 -0.6211 -0.2580
  933MOL0     O28675  10.280   4.091   6.994 -0.2877 -0.4406  0.0689
  933MOL0     C28676  10.301   3.969   7.064  0.7559  0.7557  0.3158
  933MOL0     C28677  10.173   3.888   7.057  0.0232  0.5794  0.2885
  933MOL0     C28678  10.122   3.847   6.920 -0.4690 -0.9046  0.5207
  933MOL0     C28679  10.211   3.736   6.862 -0.3433 -0.3925 -0.3501
  933MOL0     C28680  10.161   3.689   6.732  0.5449 -0.2962  0.3798
  933MOL0     C28681  10.099   3.650   6.633 -0.4578 -0.5110 -0.9303
  933MOL0     C28682  10.420   4.215   6.858 -0.0314  0.1305  0.3278
  933MOL0     C28683  10.531   4.301   6.836  0.2539 -0.2883 -0.2007
  933MOL0     C28684  10.520   4.371   6.699  0.6002  0.4226 -1.5152
  933MOL0     H28685  10.968   4.383   6.653  1.6791  0.0627 -2.6774
  933MOL0     H28686  11.201   4.488   6.610  0.3079  0.6527  0.0768
  933MOL0     H28687  11.399   4.715   6.905  3.3616  0.2290 -0.7417
  933MOL0     H28688  11.326   4.851   6.819 -0.4343 -0.1614  0.2841
  933MOL0     H28689  11.539   4.689   6.691  0.3643  1.0330  0.0721
  933MOL0     H28690  11.485   4.866   6.673  2.1459  0.7446 -0.4153
  933MOL0     H28691  11.583   4.892   6.916 -0.4345 -0.1719 -0.6761
  933MOL0     H28692  11.619   4.725   6.909  2.4162 -1.7596 -2.1330
  933MOL0     H28693  11.768   4.753   6.721 -2.7258 -0.5450  0.1661
  933MOL0     H28694  11.742   4.933   6.718 -2.0057  0.2262 -0.2035
  933MOL0     H28695  11.908   4.763   6.901 -1.1488 -1.4564 -2.0721
  933MOL0     H28696  11.843   4.916   6.961  0.3736  0.4361  0.4460
  933MOL0     H28697  11.995   4.885   6.700  0.6903  0.1465  0.3057
  933MOL0     H28698  11.933   5.034   6.754 -0.8467 -0.0766  2.3330
  933MOL0     H28699  12.125   4.852   6.921  0.3077 -0.0093 -0.6315
  933MOL0     H28700  12.085   5.024   6.946 -1.6151 -1.5665  1.4516
  933MOL0     H28701  12.219   4.903   6.701 -0.5116 -0.2074 -0.2618
  933MOL0     H28702  12.186   5.069   6.710 -1.1338 -1.9844 -2.8757
  933MOL0     H28703  12.478   4.961   6.661  0.8232  1.1530 -0.0997
  933MOL0     H28704  12.757   5.121   6.858 -0.2763 -1.3940  0.2245
  933MOL0     H28705  12.694   5.095   6.693 -0.5877 -0.0362  0.3200
  933MOL0     H28706  12.709   4.838   6.767 -0.5234 -0.4622  1.6517
  933MOL0     H28707  12.844   4.925   6.707  0.2530 -0.5485  0.4508
  933MOL0     H28708  12.918   4.981   6.940 -0.2707  0.4059 -1.8295
  933MOL0     H28709  12.754   4.941   7.001 -0.8534 -0.5089  1.0449
  933MOL0     H28710  12.887   4.772   7.084 -2.6247  1.3088  0.3746
  933MOL0     H28711  12.782   4.702   6.967  0.5371 -1.0229  0.8969
  933MOL0     H28712  13.109   4.764   7.143 -0.9122 -0.3422 -1.5305
  933MOL0     H28713  13.258   4.830   7.300 -0.0869  2.6821  0.1580
  933MOL0     H28714  13.387   4.936   7.245 -0.4463  0.0733 -1.0761
  933MOL0     H28715  13.419   4.768   7.255  2.0288  0.0031 -2.6859
  933MOL0     H28716  13.722   4.772   6.719  0.4685  1.2687 -1.4285
  933MOL0     H28717  13.960   4.768   6.672  2.8252  0.8491 -0.3727
  933MOL0     H28718  14.294   4.833   6.928  0.9341 -0.5925 -0.7513
  933MOL0     H28719  14.141   4.741   6.905 -1.0603 -0.6062 -2.1274
  933MOL0     H28720  14.210   4.678   6.677  1.2118 -2.6989  0.3692
  933MOL0     H28721  14.351   4.777   6.690  1.6446 -0.7783  0.6946
  933MOL0     H28722  14.369   4.527   6.694 -1.1113  1.4309 -1.7948
  933MOL0     H28723  14.308   4.547   6.861 -1.0239 -0.8135 -2.5171
  933MOL0     H28724  14.507   4.699   6.914  1.8872  0.9857 -0.3272
  933MOL0     H28725  14.550   4.704   6.753 -1.3374 -0.1458 -0.7078
  933MOL0     H28726  14.574   4.451   6.926 -0.5182  0.4965  0.1246
  933MOL0     H28727  14.642   4.463   6.758  2.8962  0.4799  0.9530
  933MOL0     H28728  14.734   4.661   6.950  2.9092  0.7890 -0.3158
  933MOL0     H28729  14.810   4.589   6.803 -2.0661 -0.4981 -2.3175
  933MOL0     H28730  14.845   4.383   6.934 -4.0602  0.4237 -0.9861
  933MOL0     H28731  14.762   4.460   7.075  1.4362  0.2027  0.9633
  933MOL0     H28732  14.957   4.631   7.076 -1.2636 -0.9827 -0.2126
  933MOL0     H28733  15.023   4.547   6.934  0.8944 -0.1209  0.2279
  933MOL0     H28734  14.036   5.080   6.955 -1.1532 -0.2305  0.0648
  933MOL0     H28735  13.803   5.102   6.984 -3.1663 -0.8174 -0.6843
  933MOL0     H28736  13.390   4.834   6.746  0.3242 -1.8783 -0.1478
  933MOL0     H28737  13.156   4.804   6.722  2.8109 -0.6859 -1.2264
  933MOL0     H28738  11.095   4.771   6.914 -0.2836  1.7506 -2.6730
  933MOL0     H28739  10.884   4.679   6.933 -1.3521 -1.1083 -0.3319
  933MOL0     H28740  10.685   4.210   7.127 -3.1728  0.9371  3.4782
  933MOL0     H28741  10.484   4.127   7.174  4.6449 -1.4707  0.1990
  933MOL0     H28742  10.383   3.911   7.020  0.1604 -0.2990  0.5404
  933MOL0     H28743  10.326   3.984   7.169  2.9355 -0.5381  0.0355
  933MOL0     H28744  10.098   3.957   7.098  0.3863  1.6135 -0.7305
  933MOL0     H28745  10.173   3.802   7.125  0.2407 -0.4104 -0.9146
  933MOL0     H28746  10.020   3.808   6.931 -1.7551  1.4527 -2.0299
  933MOL0     H28747  10.120   3.934   6.854 -2.4527 -1.5174 -0.2934
  933MOL0     H28748  10.219   3.656   6.936  0.2345  2.5039  2.9600
  933MOL0     H28749  10.312   3.773   6.841 -0.2308 -1.1923 -1.3467
  933MOL0     H28750  10.051   3.605   6.548 -2.8197  1.2939 -0.6570
  933MOL0     H28751  10.339   4.213   6.785 -2.5282 -2.0031  2.9156
  933MOL0     H28752  10.560   4.301   6.625 -0.5964 -0.3415 -1.4729
  933MOL0     H28753  10.415   4.392   6.675 -1.1128 -1.4247  3.2096
  933MOL0     H28754  10.576   4.465   6.706  1.5500 -0.1542 -1.2680
  934MOL0     O28755   2.854   5.858   1.976 -0.5502 -1.1984  0.4848
  934MOL0     C28756   2.805   5.772   2.051 -0.2425 -0.2492  0.0287
  934MOL0     O28757   2.862   5.653   2.083  0.4659 -0.5019 -0.4390
  934MOL0     C28758   2.962   5.614   2.007  0.3552 -0.0071  1.0078
  934MOL0     C28759   2.938   5.519   1.913 -0.8985 -1.4248  0.0578
  934MOL0     C28760   3.044   5.487   1.821 -1.3777  0.2873 -0.5891
  934MOL0     C28761   3.166   5.557   1.831  0.1841 -0.1108  0.2807
  934MOL0     O28762   3.255   5.535   1.729  0.4950 -0.5114  0.7140
  934MOL0     C28763   3.385   5.496   1.764  0.1973 -0.2278  0.0303
  934MOL0     C28764   3.469   5.469   1.628 -0.0164  0.7317 -0.9111
  934MOL0     C28765   3.623   5.484   1.653 -0.1185  0.0582  0.3518
  934MOL0     C28766   3.698   5.481   1.515  0.4738 -0.1767  0.2766
  934MOL0     C28767   3.841   5.537   1.531 -0.4355  0.1297 -0.1391
  934MOL0     C28768   3.941   5.507   1.418 -0.3065  1.3892 -0.2910
  934MOL0     C28769   4.080   5.565   1.434  0.1067 -0.3759 -0.7173
  934MOL0     C28770   4.096   5.718   1.444  0.6742  0.3777 -0.1280
  934MOL0     N28771   4.233   5.758   1.455 -0.3412  0.9399 -0.2859
  934MOL0     C28772   4.293   5.783   1.579 -0.0270  0.3939  0.1740
  934MOL0     C28773   4.427   5.788   1.547 -0.7042  0.0519 -0.0006
  934MOL0     C28774   4.549   5.831   1.628  0.0501  0.2716 -0.6033
  934MOL0     C28775   4.609   5.964   1.591 -0.6155 -0.0660 -0.8126
  934MOL0     C28776   4.735   5.998   1.672  0.2410  0.5336 -0.7156
  934MOL0     C28777   4.867   5.919   1.629  0.4653  0.5072  0.3972
  934MOL0     O28778   4.864   5.792   1.691  0.5363  0.6342  0.3314
  934MOL0     C28779   4.988   5.732   1.727 -0.7784 -0.3451 -0.1182
  934MOL0     C28780   5.115   5.774   1.696 -0.0109 -0.1745  1.0650
  934MOL0     C28781   5.223   5.720   1.765  0.0416  0.0494 -0.3607
  934MOL0     C28782   5.358   5.776   1.740  0.3581  0.3311 -0.2933
  934MOL0     C28783   5.208   5.612   1.858  0.0896  1.1945  0.0939
  934MOL0     C28784   5.308   5.553   1.945 -0.8849 -0.5412  0.1387
  934MOL0     O28785   5.268   5.450   2.026  0.5258  0.1048  0.0107
  934MOL0     C28786   5.357   5.421   2.128 -0.4010  0.1350 -0.9427
  934MOL0     C28787   5.366   5.499   2.245  0.8868  0.5644  1.1196
  934MOL0     C28788   5.463   5.470   2.339  0.3862 -1.0619  0.0887
  934MOL0     C28789   5.539   5.354   2.327 -1.0756  0.0924  1.0586
  934MOL0     O28790   5.624   5.316   2.431  0.5153  0.1857 -0.0513
  934MOL0     C28791   5.759   5.282   2.397 -0.0314 -0.1113  0.5218
  934MOL0     C28792   5.848   5.264   2.513 -1.5436 -0.4632  0.7257
  934MOL0     C28793   5.989   5.217   2.464  0.2294  0.6216 -0.1420
  934MOL0     C28794   6.093   5.225   2.573 -0.5986  0.1559 -0.2804
  934MOL0     C28795   6.084   5.120   2.688 -1.3708  0.0145  0.1953
  934MOL0     C28796   6.210   5.134   2.785  0.6438 -0.0853  0.2907
  934MOL0     C28797   6.220   5.032   2.899 -1.0916 -0.5107 -0.1053
  934MOL0     C28798   6.101   5.027   2.988  0.6217  0.4719 -0.1314
  934MOL0    Cl28799   6.143   4.889   3.103 -0.1042  0.0590  0.2116
  934MOL0     C28800   5.530   5.275   2.210  0.4922 -0.5645 -0.0892
  934MOL0     C28801   5.446   5.312   2.108 -0.1722 -0.1946  0.4417
  934MOL0     O28802   5.429   5.590   1.933  0.2886  0.0471  0.3987
  934MOL0     C28803   5.075   5.567   1.875  0.2673  0.4219  0.5737
  934MOL0     C28804   4.970   5.628   1.819  0.1641  0.7006 -0.4240
  934MOL0     N28805   4.440   5.757   1.419 -0.0532 -0.6170 -0.3695
  934MOL0     N28806   4.325   5.733   1.368  0.6283 -0.7351 -0.5220
  934MOL0     C28807   3.180   5.650   1.925  0.4957  0.2178 -0.0987
  934MOL0     C28808   3.081   5.673   2.016 -0.7075  0.2793 -0.0985
  934MOL0     C28809   2.667   5.811   2.098 -0.1858  0.7624 -1.5250
  934MOL0     C28810   2.643   5.945   2.139  0.0878  0.0032 -0.1294
  934MOL0     C28811   2.514   5.983   2.180 -0.3168  0.1936 -0.1733
  934MOL0     C28812   2.420   5.887   2.209  0.2508  0.7295 -0.6472
  934MOL0     O28813   2.289   5.922   2.262  0.0145 -0.3590  0.2643
  934MOL0     C28814   2.244   6.055   2.232  0.2632  0.8385 -0.6721
  934MOL0     C28815   2.092   6.074   2.254  0.4017  0.2275 -1.1606
  934MOL0     C28816   2.055   6.204   2.185 -0.1681 -0.0624 -0.1679
  934MOL0     C28817   1.911   6.241   2.229  0.1509 -0.4611  0.3625
  934MOL0     C28818   1.884   6.236   2.369 -0.1293 -0.3863 -0.2064
  934MOL0     C28819   1.850   6.222   2.487 -0.6384  0.4785 -0.5633
  934MOL0     C28820   2.437   5.764   2.162 -0.7569  0.8381  0.1539
  934MOL0     C28821   2.562   5.715   2.106 -1.6720 -0.3054  0.0363
  934MOL0     C28822   2.572   5.582   2.041  0.4610 -0.1174  0.3313
  934MOL0     H28823   2.838   5.478   1.906 -2.0311  1.2207 -0.0626
  934MOL0     H28824   3.043   5.413   1.742 -0.8282 -3.0801  2.2802
  934MOL0     H28825   3.384   5.407   1.828  1.5934 -1.0461 -1.0082
  934MOL0     H28826   3.439   5.574   1.817 -1.1094  0.5081  0.3073
  934MOL0     H28827   3.439   5.371   1.590 -0.8149  0.5523  0.1196
  934MOL0     H28828   3.439   5.548   1.558 -3.0676  2.9728  2.5518
  934MOL0     H28829   3.634   5.578   1.708  3.3407  0.6999 -1.1801
  934MOL0     H28830   3.677   5.407   1.709  1.5498 -1.5363 -3.1326
  934MOL0     H28831   3.699   5.380   1.472 -2.3009  0.8321 -2.5494
  934MOL0     H28832   3.649   5.545   1.441 -2.4193 -0.3686  1.9081
  934MOL0     H28833   3.897   5.502   1.619  0.2615 -0.5068 -0.8219
  934MOL0     H28834   3.826   5.645   1.544  1.5259  0.7346 -2.2302
  934MOL0     H28835   3.947   5.397   1.413 -6.3536  0.7611 -3.0365
  934MOL0     H28836   3.895   5.538   1.324  1.0848 -0.4175 -1.6476
  934MOL0     H28837   4.133   5.527   1.347  0.5441 -0.1032 -0.5707
  934MOL0     H28838   4.122   5.519   1.524 -0.6664 -2.7752 -1.4900
  934MOL0     H28839   4.040   5.765   1.363 -0.8193 -1.5299 -0.2872
  934MOL0     H28840   4.046   5.748   1.537 -0.3624  2.0246 -1.1786
  934MOL0     H28841   4.237   5.796   1.671  0.3598 -1.3580  0.7000
  934MOL0     H28842   4.620   5.750   1.610  0.6570  0.2505  1.6875
  934MOL0     H28843   4.516   5.832   1.732 -0.2419 -0.3527 -0.6875
  934MOL0     H28844   4.631   5.963   1.484 -1.2606  3.0308 -1.0665
  934MOL0     H28845   4.526   6.031   1.614  0.1561  0.7388 -0.2593
  934MOL0     H28846   4.759   6.103   1.652  1.9334  0.4202  0.4878
  934MOL0     H28847   4.719   5.989   1.780  3.2177  1.2661 -0.1266
  934MOL0     H28848   4.888   5.901   1.523 -0.3618  1.6058  0.0182
  934MOL0     H28849   4.953   5.977   1.663  1.0203  2.7039 -4.0055
  934MOL0     H28850   5.133   5.845   1.616  0.6857 -0.1104  1.2735
  934MOL0     H28851   5.420   5.688   1.721 -0.1005 -0.4095  1.4375
  934MOL0     H28852   5.395   5.833   1.826 -2.1013  1.4881  0.0784
  934MOL0     H28853   5.360   5.840   1.652 -2.5477 -1.4079 -1.7739
  934MOL0     H28854   5.304   5.587   2.258 -1.4406 -0.6980 -0.6001
  934MOL0     H28855   5.474   5.521   2.435 -1.3161 -3.3215  1.5898
  934MOL0     H28856   5.761   5.193   2.334  3.1964 -2.3256  3.3445
  934MOL0     H28857   5.802   5.363   2.339  0.2968 -0.2729  0.5407
  934MOL0     H28858   5.849   5.349   2.582 -3.8538  0.3784 -0.1632
  934MOL0     H28859   5.807   5.177   2.566 -0.5589  0.3212  2.8685
  934MOL0     H28860   6.021   5.293   2.392  0.9421  0.2076 -0.2770
  934MOL0     H28861   5.991   5.121   2.410  2.2410 -1.4799  3.3033
  934MOL0     H28862   6.086   5.326   2.616  2.8872  1.4509 -2.3523
  934MOL0     H28863   6.191   5.224   2.525 -0.2067 -0.1097  0.5169
  934MOL0     H28864   5.986   5.132   2.736  0.4117 -0.7538  4.4507
  934MOL0     H28865   6.091   5.019   2.648  0.2251  0.2335 -0.1511
  934MOL0     H28866   6.219   5.237   2.822  0.3213 -0.2040  0.7149
  934MOL0     H28867   6.289   5.115   2.712  1.1024  2.2240  0.0934
  934MOL0     H28868   6.305   5.065   2.960 -1.1646 -0.4311 -0.0452
  934MOL0     H28869   6.257   4.935   2.865  3.2695  0.6243  0.7987
  934MOL0     H28870   6.006   5.004   2.940  0.5496  2.2372 -0.9256
  934MOL0     H28871   6.098   5.125   3.038  0.7778  1.4250 -1.9027
  934MOL0     H28872   5.584   5.181   2.206  0.2446 -0.7530  0.7826
  934MOL0     H28873   5.448   5.259   2.013  1.4437 -0.2851  0.4930
  934MOL0     H28874   5.055   5.484   1.941 -0.7937  1.7982  2.0757
  934MOL0     H28875   4.873   5.581   1.813  1.6782 -2.4951 -2.5491
  934MOL0     H28876   3.269   5.713   1.933 -0.5913  1.7903  0.0159
  934MOL0     H28877   3.088   5.753   2.089  0.9275  0.5303 -0.5009
  934MOL0     H28878   2.713   6.026   2.158  0.5084 -0.2042 -0.7667
  934MOL0     H28879   2.506   6.088   2.204 -1.3378 -0.4327  2.6300
  934MOL0     H28880   2.302   6.124   2.294  2.4076 -0.3673 -1.2183
  934MOL0     H28881   2.262   6.080   2.127 -1.1245 -0.2012 -1.1981
  934MOL0     H28882   2.074   6.076   2.362 -2.9914  0.8799 -1.6515
  934MOL0     H28883   2.028   5.997   2.212  2.4102 -0.8793 -2.3543
  934MOL0     H28884   2.119   6.290   2.204  1.6876 -1.0540 -1.5415
  934MOL0     H28885   2.065   6.179   2.079  1.9555  0.6484 -0.1738
  934MOL0     H28886   1.850   6.170   2.173 -2.5419  2.1831 -0.2854
  934MOL0     H28887   1.887   6.341   2.193  1.4038  0.6821  2.4935
  934MOL0     H28888   1.829   6.217   2.592  1.9457  2.1133  0.1189
  934MOL0     H28889   2.350   5.699   2.161 -0.2453  0.1395 -1.1118
  934MOL0     H28890   2.472   5.547   2.014 -0.0145  0.8188  0.8333
  934MOL0     H28891   2.628   5.602   1.949  0.5755 -2.8231 -0.2632
  934MOL0     H28892   2.619   5.510   2.109  3.4502  0.2163 -1.2066
  935MOL0     O28893   9.619   0.113  10.017  0.3652 -0.2752  0.7953
  935MOL0     C28894   9.510   0.069  10.060  0.8302 -0.0214  0.7581
  935MOL0     O28895   9.452  -0.039   9.999  0.3160 -0.2847  0.0818
  935MOL0     C28896   9.523  -0.113   9.912  0.1356  0.1971  0.7249
  935MOL0     C28897   9.637  -0.187   9.958  0.4064 -1.3720  0.2863
  935MOL0     C28898   9.715  -0.263   9.867  0.0230 -0.7753 -0.1969
  935MOL0     C28899   9.680  -0.270   9.725  0.2673 -0.3087 -0.4411
  935MOL0     O28900   9.753  -0.342   9.636 -0.5925  0.5162  0.7520
  935MOL0     C28901   9.886  -0.290   9.610 -0.3382  1.0027  0.9887
  935MOL0     C28902   9.874  -0.158   9.535 -0.0793  0.4362  0.2733
  935MOL0     C28903  10.017  -0.102   9.477  0.6064 -1.5188 -0.3252
  935MOL0     C28904  10.026  -0.118   9.322  0.1294 -0.0908  0.2693
  935MOL0     C28905  10.170  -0.082   9.290 -0.1251 -0.3612  0.1386
  935MOL0     C28906  10.202  -0.099   9.141  0.8133  0.6370 -0.0227
  935MOL0     C28907  10.230   0.029   9.059 -0.5166  0.3713 -0.3300
  935MOL0     C28908  10.375   0.087   9.076  0.6369  0.2323 -0.1916
  935MOL0     N28909  10.481  -0.015   9.051  0.5427 -1.0951 -0.4572
  935MOL0     C28910  10.569  -0.003   8.946 -0.9529  0.1934 -0.1209
  935MOL0     C28911  10.668  -0.093   8.964 -1.3103  0.5120  0.3659
  935MOL0     C28912  10.784  -0.127   8.870  0.0607 -0.3161  0.1169
  935MOL0     C28913  10.903  -0.198   8.955  0.3192 -0.5939 -0.5271
  935MOL0     C28914  10.977  -0.079   9.022  0.4868  0.0079  0.1564
  935MOL0     C28915  11.112  -0.062   8.967 -0.2064  0.2330  0.3471
  935MOL0     O28916  11.100  -0.013   8.829  0.2200 -0.4392 -0.8185
  935MOL0     C28917  11.212   0.027   8.761 -0.7209  0.8209 -0.7043
  935MOL0     C28918  11.187   0.077   8.633  0.8959 -0.8807  0.0083
  935MOL0     C28919  11.284   0.124   8.551 -0.3590 -0.2230 -0.5310
  935MOL0     C28920  11.228   0.173   8.420  0.3445 -0.0077  0.0580
  935MOL0     C28921  11.415   0.138   8.600  0.3819 -0.5236 -0.6361
  935MOL0     C28922  11.526   0.199   8.518 -0.0238  0.7830  0.0265
  935MOL0     O28923  11.639   0.210   8.589 -0.3960  0.3832  0.1434
  935MOL0     C28924  11.735   0.292   8.544 -0.2315 -0.2547  0.3428
  935MOL0     C28925  11.858   0.244   8.508  0.4890  0.7672  0.2441
  935MOL0     C28926  11.962   0.323   8.454 -0.4783  0.6141  0.8898
  935MOL0     C28927  11.939   0.460   8.442 -0.7535  0.9139  0.2110
  935MOL0     O28928  12.045   0.527   8.376  0.2318 -0.3487  0.4108
  935MOL0     C28929  12.063   0.664   8.401 -0.1294  0.4803 -0.9704
  935MOL0     C28930  12.161   0.724   8.300 -0.1327  0.2314 -0.0131
  935MOL0     C28931  12.307   0.682   8.333  0.7851 -1.0160 -0.1862
  935MOL0     C28932  12.360   0.768   8.452  0.2715  1.4001  0.2363
  935MOL0     C28933  12.511   0.755   8.489  0.1286 -0.2314 -0.0961
  935MOL0     C28934  12.566   0.883   8.572 -0.2997 -0.0260  0.7872
  935MOL0     C28935  12.703   0.862   8.644  0.1266 -0.7124  0.0778
  935MOL0     C28936  12.809   0.818   8.548  0.3852 -0.1220  0.2923
  935MOL0    Cl28937  12.835   0.948   8.418 -0.6874  0.4397 -0.2951
  935MOL0     C28938  11.810   0.513   8.478 -0.5304 -0.1365 -0.1531
  935MOL0     C28939  11.711   0.425   8.524  0.5684 -0.5846 -0.0691
  935MOL0     O28940  11.510   0.224   8.400 -1.1989 -0.8812 -0.2812
  935MOL0     C28941  11.441   0.083   8.732 -0.2456 -0.2085  0.3584
  935MOL0     C28942  11.341   0.026   8.808  0.7649  0.8385  0.8529
  935MOL0     N28943  10.631  -0.149   9.083 -0.6692  0.0638 -0.4074
  935MOL0     N28944  10.532  -0.095   9.147  0.0240  0.4997 -0.1635
  935MOL0     C28945   9.563  -0.200   9.688 -0.1031 -0.4182  0.4085
  935MOL0     C28946   9.485  -0.121   9.780 -0.2186  1.2426  0.1358
  935MOL0     C28947   9.450   0.142  10.170  0.3496  0.6606  0.3626
  935MOL0     C28948   9.323   0.103  10.206  0.9281  0.2365 -0.1706
  935MOL0     C28949   9.256   0.156  10.322 -0.4758  0.1370  0.7046
  935MOL0     C28950   9.321   0.245  10.401 -0.1605 -0.6751 -0.5869
  935MOL0     O28951   9.248   0.276  10.518 -0.1128 -0.2096  0.0910
  935MOL0     C28952   9.321   0.331  10.630  0.6706 -0.8888  0.3531
  935MOL0     C28953   9.407   0.232  10.701  0.4234 -0.0123  0.0247
  935MOL0     C28954   9.488   0.298  10.810  0.1883 -0.2157  0.2322
  935MOL0     C28955   9.617   0.377  10.764  0.1244 -0.0412  0.5227
  935MOL0     C28956   9.711   0.285  10.716  0.2190  0.2312 -1.4629
  935MOL0     C28957   9.777   0.202  10.654  0.0051  0.4506  0.4836
  935MOL0     C28958   9.456   0.275  10.371  0.0549  0.1550  0.6039
  935MOL0     C28959   9.521   0.232  10.251 -0.0909 -0.2167 -0.1120
  935MOL0     C28960   9.667   0.277  10.241  0.6532 -0.2606 -0.4379
  935MOL0     H28961   9.664  -0.184  10.063  1.2808 -0.9329  0.0606
  935MOL0     H28962   9.792  -0.320   9.919 -0.4514 -0.6302  0.6737
  935MOL0     H28963   9.943  -0.354   9.542 -1.8916  0.7497 -0.1351
  935MOL0     H28964   9.935  -0.277   9.706 -0.8113  0.7725  1.2645
  935MOL0     H28965   9.809  -0.160   9.447  1.0020  1.1169 -0.5902
  935MOL0     H28966   9.827  -0.088   9.604 -1.3459  0.3045 -0.4340
  935MOL0     H28967  10.021   0.005   9.499  0.7557 -1.1373 -2.1032
  935MOL0     H28968  10.104  -0.143   9.531  0.8088  1.0331  1.4619
  935MOL0     H28969   9.986  -0.214   9.287 -1.7046 -0.9719  4.1705
  935MOL0     H28970   9.966  -0.040   9.274  2.7918  2.2085  0.4107
  935MOL0     H28971  10.236  -0.152   9.343 -0.0329 -0.3799  0.0013
  935MOL0     H28972  10.188   0.023   9.314 -0.7379 -0.4806  1.1573
  935MOL0     H28973  10.280  -0.173   9.122 -1.1905 -1.6771  0.1955
  935MOL0     H28974  10.113  -0.145   9.097  0.1523  1.7363  0.1173
  935MOL0     H28975  10.147   0.099   9.070  0.2685  1.1525  0.8723
  935MOL0     H28976  10.221  -0.002   8.955 -0.8552 -0.8167  0.0345
  935MOL0     H28977  10.383   0.176   9.013 -2.5672  1.6478  1.1825
  935MOL0     H28978  10.399   0.115   9.179  2.6355 -1.3223 -0.1699
  935MOL0     H28979  10.566   0.051   8.851  0.9549  0.1248 -0.2540
  935MOL0     H28980  10.826  -0.040   8.820  1.3334  0.8947  3.0888
  935MOL0     H28981  10.733  -0.193   8.799  0.5449 -2.1306  1.3816
  935MOL0     H28982  10.869  -0.272   9.028  0.5696 -1.0705 -0.8870
  935MOL0     H28983  10.959  -0.255   8.881 -0.4332  1.0457 -2.4612
  935MOL0     H28984  10.918   0.013   9.022 -0.3695 -0.5131  1.3615
  935MOL0     H28985  10.977  -0.124   9.122 -2.0850 -2.3874 -0.7742
  935MOL0     H28986  11.166   0.003   9.037 -1.5298 -0.8929  2.5023
  935MOL0     H28987  11.175  -0.151   8.972 -0.6263 -0.0177  1.5730
  935MOL0     H28988  11.085   0.106   8.608  1.8963  1.9295 -1.2650
  935MOL0     H28989  11.275   0.122   8.335  1.1647 -0.8780  0.9991
  935MOL0     H28990  11.236   0.282   8.421  0.1890  0.0173 -0.7343
  935MOL0     H28991  11.125   0.138   8.413  0.2436  0.2902  0.0573
  935MOL0     H28992  11.868   0.137   8.524 -0.0225  0.8105  0.9214
  935MOL0     H28993  12.056   0.279   8.423 -0.6683  0.8974 -0.1190
  935MOL0     H28994  11.975   0.727   8.385 -1.8242 -1.5381 -0.0793
  935MOL0     H28995  12.094   0.680   8.505 -2.9274 -0.4598  0.0897
  935MOL0     H28996  12.132   0.699   8.198  1.2665  0.6828 -0.5452
  935MOL0     H28997  12.165   0.832   8.310  0.6828  0.2572 -0.5276
  935MOL0     H28998  12.374   0.713   8.252 -1.2236  1.2305 -1.1248
  935MOL0     H28999  12.315   0.575   8.352  1.0469 -1.5159 -2.6784
  935MOL0     H29000  12.313   0.728   8.542  1.7959 -1.1036  0.0219
  935MOL0     H29001  12.332   0.871   8.431  0.3757  0.9683 -2.3744
  935MOL0     H29002  12.546   0.663   8.538 -1.9546 -0.4596  1.0882
  935MOL0     H29003  12.566   0.757   8.395 -2.0610 -1.6847 -1.4882
  935MOL0     H29004  12.487   0.919   8.638 -2.7090  0.0954 -1.9571
  935MOL0     H29005  12.573   0.961   8.495 -0.8632  0.3715  1.1325
  935MOL0     H29006  12.692   0.791   8.727 -0.2064 -0.7454  0.0042
  935MOL0     H29007  12.735   0.955   8.691  0.5068 -1.0072  0.4165
  935MOL0     H29008  12.780   0.723   8.501  0.8779 -0.3585  0.4604
  935MOL0     H29009  12.898   0.789   8.605  1.0739 -1.8272 -1.5062
  935MOL0     H29010  11.780   0.616   8.460 -1.2937 -0.1842  0.7766
  935MOL0     H29011  11.609   0.461   8.537  0.2553 -1.1959 -0.7767
  935MOL0     H29012  11.541   0.085   8.773 -0.1663  0.6328  0.1350
  935MOL0     H29013  11.350   0.002   8.914  0.7003 -0.7707  0.5103
  935MOL0     H29014   9.527  -0.213   9.586  0.8122  0.4403 -0.0477
  935MOL0     H29015   9.408  -0.059   9.736  0.4690 -0.5079 -4.0211
  935MOL0     H29016   9.275   0.026  10.147  0.1949  1.8487 -1.7884
  935MOL0     H29017   9.160   0.110  10.346  0.3716 -2.8481 -1.1183
  935MOL0     H29018   9.375   0.421  10.600 -2.2977  0.5643 -1.0068
  935MOL0     H29019   9.241   0.367  10.696 -0.4419  3.1506 -2.8171
  935MOL0     H29020   9.474   0.181  10.631  0.9524  0.0757  0.4596
  935MOL0     H29021   9.342   0.153  10.740 -2.1754  0.7671 -2.3264
  935MOL0     H29022   9.429   0.369  10.868  0.0970 -0.2570  0.1905
  935MOL0     H29023   9.519   0.215  10.874 -2.7579  0.4872  2.8336
  935MOL0     H29024   9.655   0.445  10.841  0.6853  0.8164 -0.4849
  935MOL0     H29025   9.595   0.443  10.680 -0.1238  0.2771  0.8327
  935MOL0     H29026   9.829   0.122  10.605 -0.0552 -0.7631  2.3031
  935MOL0     H29027   9.515   0.345  10.431  3.0576 -1.2839 -0.4880
  935MOL0     H29028   9.707   0.332  10.327 -0.3629  0.4040 -0.3783
  935MOL0     H29029   9.735   0.191  10.240 -0.5865 -1.3249  1.2531
  935MOL0     H29030   9.675   0.327  10.144 -3.1711  0.8729 -0.3433
  936MOL0     O29031   1.192   9.071   6.297  0.4470  1.1016 -0.3665
  936MOL0     C29032   1.138   9.047   6.411 -0.1184  0.2741  0.8094
  936MOL0     O29033   1.097   8.925   6.467  0.4237 -0.5079 -0.2451
  936MOL0     C29034   1.115   8.808   6.399  0.3560 -0.9680 -0.1175
  936MOL0     C29035   1.004   8.719   6.400  0.1746  0.5335 -0.1915
  936MOL0     C29036   1.017   8.601   6.333 -0.1553  0.0270 -0.3736
  936MOL0     C29037   1.138   8.561   6.269 -0.3505 -0.0850  0.0628
  936MOL0     O29038   1.163   8.445   6.193 -0.0695 -0.2037  0.1780
  936MOL0     C29039   1.050   8.405   6.111  0.1170 -0.3544  0.1409
  936MOL0     C29040   1.085   8.281   6.035  0.0255  0.1923  0.3076
  936MOL0     C29041   0.968   8.241   5.948  0.6579 -0.6170 -0.3835
  936MOL0     C29042   1.014   8.143   5.841  0.4911  0.2815  0.1431
  936MOL0     C29043   0.996   7.987   5.874  0.1183  0.7000 -0.1422
  936MOL0     C29044   0.848   7.936   5.879 -0.0571 -0.3690  0.4474
  936MOL0     C29045   0.842   7.792   5.922  0.3367  0.4347  1.0629
  936MOL0     C29046   0.700   7.723   5.907 -0.2135 -0.2457  0.3890
  936MOL0     N29047   0.619   7.769   6.021 -0.0326  0.6825 -0.2853
  936MOL0     C29048   0.562   7.896   6.029 -0.0404 -0.2958 -0.5739
  936MOL0     C29049   0.505   7.903   6.154  1.0002  0.2446  0.2093
  936MOL0     C29050   0.445   8.031   6.208 -0.4720  0.3204 -0.7190
  936MOL0     C29051   0.301   8.048   6.156  0.2515 -0.7606  0.6156
  936MOL0     C29052   0.290   8.077   6.002 -0.0121 -0.1016  0.6028
  936MOL0     C29053   0.149   8.121   5.958 -0.6172  0.1247  0.1808
  936MOL0     O29054   0.147   8.183   5.827 -0.5911 -0.3799 -0.0301
  936MOL0     C29055   0.029   8.220   5.773  0.3860  0.4137  0.3258
  936MOL0     C29056  -0.015   8.168   5.656  0.0940  0.6931  0.4280
  936MOL0     C29057  -0.125   8.210   5.591 -0.0883  0.8343 -0.3639
  936MOL0     C29058  -0.155   8.149   5.458 -0.1096 -0.0392  0.2944
  936MOL0     C29059  -0.212   8.309   5.652 -0.1535 -0.1907  0.3207
  936MOL0     C29060  -0.350   8.334   5.609  0.0736 -0.3533 -0.8637
  936MOL0     O29061  -0.396   8.464   5.635  0.3618  0.6868 -0.6114
  936MOL0     C29062  -0.524   8.502   5.594 -0.3439  0.0362  0.4043
  936MOL0     C29063  -0.560   8.520   5.455 -0.6060  0.5161 -0.4778
  936MOL0     C29064  -0.684   8.583   5.426 -0.0212  0.5431  0.3621
  936MOL0     C29065  -0.771   8.621   5.532 -0.7257  0.4228  0.5937
  936MOL0     O29066  -0.893   8.673   5.504 -0.0088 -0.3889  0.3767
  936MOL0     C29067  -0.933   8.697   5.365 -0.2481  0.0857 -0.8161
  936MOL0     C29068  -1.085   8.703   5.385 -0.0058 -0.6210  0.0455
  936MOL0     C29069  -1.158   8.704   5.248 -0.6655 -0.4932 -0.1279
  936MOL0     C29070  -1.188   8.839   5.180  0.0038 -0.5158 -0.8603
  936MOL0     C29071  -1.228   8.816   5.033 -0.6916 -0.8405  0.1621
  936MOL0     C29072  -1.287   8.939   4.976  0.3540  0.3142 -0.2280
  936MOL0     C29073  -1.428   8.969   5.034 -0.0487 -0.0057  0.5599
  936MOL0     C29074  -1.529   8.986   4.917 -0.4020 -0.2522  0.2659
  936MOL0    Cl29075  -1.544   8.818   4.849  0.1406 -0.0620 -0.1525
  936MOL0     C29076  -0.734   8.599   5.663 -0.0737  0.2621 -0.6650
  936MOL0     C29077  -0.620   8.537   5.694 -0.4441  0.3462 -1.0480
  936MOL0     O29078  -0.413   8.243   5.557 -0.2378  0.3329 -0.0540
  936MOL0     C29079  -0.169   8.368   5.772  0.2220  0.8787 -0.6734
  936MOL0     C29080  -0.055   8.319   5.826 -0.2498 -0.6896 -0.2045
  936MOL0     N29081   0.530   7.795   6.223  0.6070  0.4915 -0.3510
  936MOL0     N29082   0.601   7.714   6.142  0.1585 -1.1350 -0.2913
  936MOL0     C29083   1.247   8.651   6.274 -0.0691  1.4804  0.2667
  936MOL0     C29084   1.240   8.770   6.343  0.1488 -1.0039  0.0056
  936MOL0     C29085   1.089   9.167   6.485 -0.5576  0.3804 -0.2885
  936MOL0     C29086   0.948   9.176   6.512  0.0335  0.1910  0.4510
  936MOL0     C29087   0.889   9.276   6.590 -0.3234  0.7033  0.8125
  936MOL0     C29088   0.970   9.386   6.623  0.5317 -0.0849 -0.4489
  936MOL0     O29089   0.907   9.491   6.694  0.6918  0.2165  0.8812
  936MOL0     C29090   0.810   9.568   6.614  0.9226 -0.8458 -0.4214
  936MOL0     C29091   0.714   9.635   6.723  0.2070  0.4945 -0.1501
  936MOL0     C29092   0.586   9.697   6.664  0.3328  0.1502 -0.5726
  936MOL0     C29093   0.501   9.749   6.770  0.0311 -0.1171 -0.6270
  936MOL0     C29094   0.368   9.772   6.713  0.3743  0.3269 -1.5658
  936MOL0     C29095   0.250   9.769   6.674 -0.2129  0.2110 -0.6535
  936MOL0     C29096   1.105   9.388   6.586 -0.5398  0.3184 -0.0442
  936MOL0     C29097   1.175   9.274   6.525 -1.2018 -0.0819 -0.3689
  936MOL0     C29098   1.324   9.261   6.513 -0.0326  0.1215 -0.5216
  936MOL0     H29099   0.923   8.735   6.471 -1.1388 -1.4391 -1.1570
  936MOL0     H29100   0.925   8.544   6.334  1.6807 -3.2125 -1.0131
  936MOL0     H29101   1.035   8.489   6.042  0.5172 -1.0651 -0.8269
  936MOL0     H29102   0.963   8.394   6.176  0.4746  0.5049  0.7806
  936MOL0     H29103   1.180   8.297   5.984 -0.8427 -0.3893 -1.5821
  936MOL0     H29104   1.101   8.201   6.108 -0.7589 -0.4030 -0.1575
  936MOL0     H29105   0.887   8.192   6.004 -2.5768  1.6208 -2.6728
  936MOL0     H29106   0.928   8.331   5.900  0.9779 -0.5079 -0.4481
  936MOL0     H29107   0.947   8.150   5.755  1.0365 -0.8122 -0.3922
  936MOL0     H29108   1.113   8.172   5.803 -0.1754  1.3056 -0.8730
  936MOL0     H29109   1.031   7.970   5.976 -0.4867 -0.1080 -0.0590
  936MOL0     H29110   1.047   7.931   5.795 -1.5070 -2.4167  0.8617
  936MOL0     H29111   0.790   8.002   5.943  1.9814  2.1999 -0.1574
  936MOL0     H29112   0.810   7.947   5.777  1.2745  0.7352  0.0242
  936MOL0     H29113   0.875   7.785   6.026 -1.3418  0.8281  1.6455
  936MOL0     H29114   0.917   7.738   5.862 -0.9561 -0.7162  0.4003
  936MOL0     H29115   0.650   7.754   5.816  2.4017 -0.4024 -1.2096
  936MOL0     H29116   0.720   7.615   5.903 -0.8056 -0.3196 -0.9141
  936MOL0     H29117   0.570   7.982   5.964  2.1185  0.4681  0.5766
  936MOL0     H29118   0.507   8.117   6.183  2.3752  0.5446  5.3952
  936MOL0     H29119   0.449   8.034   6.317  0.9662  0.0628 -0.7520
  936MOL0     H29120   0.254   7.951   6.172 -0.8286 -0.5758 -1.2271
  936MOL0     H29121   0.252   8.127   6.215  3.4817  3.4743 -1.7999
  936MOL0     H29122   0.362   8.156   5.977  0.0821 -0.0397  1.0510
  936MOL0     H29123   0.306   7.984   5.948 -3.4298  1.1816 -3.0432
  936MOL0     H29124   0.084   8.033   5.958  0.9335 -1.1838  3.3354
  936MOL0     H29125   0.126   8.201   6.030 -0.4936  1.2590 -1.0001
  936MOL0     H29126   0.051   8.097   5.608  2.0562  2.6058  0.0931
  936MOL0     H29127  -0.184   8.046   5.482 -0.6763 -0.2149 -1.0792
  936MOL0     H29128  -0.068   8.151   5.391 -2.2148 -0.5677 -2.6516
  936MOL0     H29129  -0.233   8.202   5.402  0.2002 -1.2568 -1.3647
  936MOL0     H29130  -0.487   8.501   5.377  1.2911  1.4096  0.9779
  936MOL0     H29131  -0.700   8.604   5.321 -2.7623  2.1330  1.0064
  936MOL0     H29132  -0.891   8.785   5.316  0.6402 -0.0374 -0.2929
  936MOL0     H29133  -0.896   8.613   5.305  3.5776 -0.3123  1.7532
  936MOL0     H29134  -1.114   8.609   5.434 -2.6876 -0.8693 -1.7872
  936MOL0     H29135  -1.121   8.788   5.444  0.0012 -1.0897  0.7417
  936MOL0     H29136  -1.260   8.667   5.256 -1.2657  0.7193 -1.7374
  936MOL0     H29137  -1.109   8.637   5.177 -1.4966 -0.2190 -0.9724
  936MOL0     H29138  -1.092   8.892   5.177  0.2809 -0.6656  2.0918
  936MOL0     H29139  -1.270   8.891   5.231 -0.5235 -2.6115  0.5737
  936MOL0     H29140  -1.147   8.777   4.970  1.6332  3.0235  0.4326
  936MOL0     H29141  -1.308   8.742   5.044  0.7205 -2.2107  1.9868
  936MOL0     H29142  -1.286   8.933   4.867 -4.0683  1.2613 -0.5240
  936MOL0     H29143  -1.226   9.024   5.010  1.1364 -0.7615  1.1584
  936MOL0     H29144  -1.417   9.063   5.090  3.0858  0.2289 -0.2563
  936MOL0     H29145  -1.465   8.883   5.090  2.3660 -1.5081 -0.0339
  936MOL0     H29146  -1.490   9.058   4.844 -0.9705 -0.7251 -0.5168
  936MOL0     H29147  -1.632   9.011   4.944  0.3348  2.6822  0.6802
  936MOL0     H29148  -0.809   8.633   5.734 -1.1405  1.5521 -2.3259
  936MOL0     H29149  -0.582   8.538   5.796 -3.4990  0.6128  0.2036
  936MOL0     H29150  -0.221   8.443   5.831  0.2917 -0.1945  0.8072
  936MOL0     H29151  -0.037   8.348   5.929  1.0616 -1.5845 -0.1568
  936MOL0     H29152   1.330   8.622   6.211 -1.5015  1.0590 -1.5326
  936MOL0     H29153   1.312   8.849   6.324  0.4059 -0.8392  1.5968
  936MOL0     H29154   0.896   9.083   6.488  2.0630 -2.0255  3.8319
  936MOL0     H29155   0.786   9.277   6.624 -0.1861  2.6641  1.3274
  936MOL0     H29156   0.847   9.642   6.542 -2.2542 -1.1069 -2.5024
  936MOL0     H29157   0.747   9.498   6.560  0.4799 -0.6938 -0.1027
  936MOL0     H29158   0.778   9.719   6.749  0.6594  0.6216 -1.5822
  936MOL0     H29159   0.684   9.571   6.807 -0.0916  1.1926  0.2865
  936MOL0     H29160   0.616   9.767   6.585  1.0969 -0.4973 -0.8828
  936MOL0     H29161   0.533   9.623   6.603 -4.5826  4.2475 -1.9110
  936MOL0     H29162   0.545   9.843   6.804 -0.2319  0.8516 -2.7972
  936MOL0     H29163   0.502   9.681   6.855  2.3611 -1.3011 -1.5108
  936MOL0     H29164   0.150   9.754   6.638 -1.6275  1.4500  2.3834
  936MOL0     H29165   1.164   9.476   6.605  1.9533 -1.0229 -1.0174
  936MOL0     H29166   1.355   9.161   6.544  0.0372  0.8861  2.1066
  936MOL0     H29167   1.354   9.264   6.408 -0.4915  0.6220 -0.6437
  936MOL0     H29168   1.379   9.326   6.581 -2.3047  1.4974  0.0992
  937MOL0     O29169   8.857   3.296  10.214 -0.1817  0.3579  1.3254
  937MOL0     C29170   8.767   3.377  10.196  0.4302 -0.5523 -0.5370
  937MOL0     O29171   8.787   3.507  10.155 -0.2308 -0.2083  0.2027
  937MOL0     C29172   8.905   3.577  10.169 -0.1507  0.0107 -0.0606
  937MOL0     C29173   8.902   3.696  10.250 -0.2853  0.1335  0.5109
  937MOL0     C29174   9.017   3.769  10.273 -0.6301  0.1566 -0.2894
  937MOL0     C29175   9.139   3.722  10.217  0.4518 -0.2003 -0.0886
  937MOL0     O29176   9.261   3.786  10.230 -0.1510 -0.1117 -0.5708
  937MOL0     C29177   9.256   3.914  10.299 -0.1578  0.2391 -0.0102
  937MOL0     C29178   9.395   3.978  10.311 -0.1282 -0.2593  0.4737
  937MOL0     C29179   9.476   3.962  10.179 -0.1182 -0.1505 -0.4224
  937MOL0     C29180   9.569   4.080  10.177 -0.5369 -0.4420 -0.2042
  937MOL0     C29181   9.663   4.107  10.053 -0.0696 -0.8093 -0.2082
  937MOL0     C29182   9.766   3.991  10.036 -0.2832  0.8384  0.0368
  937MOL0     C29183   9.872   4.008   9.923 -0.1295  0.1355 -0.5495
  937MOL0     C29184   9.971   3.906   9.921 -0.2943  0.3982 -0.6326
  937MOL0     N29185   9.917   3.770   9.878 -0.2503 -0.0944  0.3406
  937MOL0     C29186   9.878   3.719   9.755 -0.0507  0.0703 -0.6155
  937MOL0     C29187   9.851   3.594   9.767  0.1839  0.4737  0.3172
  937MOL0     C29188   9.826   3.488   9.654 -0.5867  0.6345 -0.0293
  937MOL0     C29189   9.961   3.422   9.613  0.3910  0.3479 -0.5256
  937MOL0     C29190   9.936   3.342   9.482  0.7845  0.0381 -0.4805
  937MOL0     C29191  10.080   3.319   9.419  1.1785  0.1482 -0.2468
  937MOL0     O29192  10.073   3.214   9.322 -0.8461  0.0868  0.2134
  937MOL0     C29193  10.190   3.195   9.253  1.0259 -0.3697  0.4270
  937MOL0     C29194  10.176   3.135   9.137  0.0064 -0.9802  0.2643
  937MOL0     C29195  10.282   3.110   9.051  0.9721 -0.6014  0.1337
  937MOL0     C29196  10.247   3.051   8.913  0.1485 -0.1967  0.2403
  937MOL0     C29197  10.409   3.153   9.096 -0.7172  0.7747  0.2430
  937MOL0     C29198  10.536   3.121   9.020  0.5638 -0.5831 -0.3420
  937MOL0     O29199  10.532   3.011   8.942  0.0763  0.4446  0.6699
  937MOL0     C29200  10.646   2.989   8.868 -0.2235 -0.0388  1.9027
  937MOL0     C29201  10.643   2.990   8.723  0.0547  0.1545 -1.2402
  937MOL0     C29202  10.751   2.952   8.642  0.1769 -0.0290 -0.6892
  937MOL0     C29203  10.865   2.908   8.702 -0.6575  0.1488 -1.1556
  937MOL0     O29204  10.977   2.885   8.617 -0.2670 -0.1097 -0.3444
  937MOL0     C29205  11.105   2.934   8.666 -0.0189  0.4683 -0.4354
  937MOL0     C29206  11.215   2.923   8.564 -0.7822  0.4612 -0.2259
  937MOL0     C29207  11.346   2.903   8.640  0.0100  0.2727  0.4081
  937MOL0     C29208  11.487   2.918   8.567  0.7776 -0.0416 -0.1487
  937MOL0     C29209  11.499   3.034   8.468 -1.2016 -0.0084  0.5556
  937MOL0     C29210  11.495   3.175   8.523 -1.0383  0.8325  0.3314
  937MOL0     C29211  11.489   3.280   8.407 -0.0335  0.5590 -0.1461
  937MOL0     C29212  11.475   3.421   8.470  0.4198 -0.2514 -0.3317
  937MOL0    Cl29213  11.631   3.480   8.544  0.0584 -0.3953 -0.2071
  937MOL0     C29214  10.868   2.895   8.849  0.0657 -0.0540  0.4015
  937MOL0     C29215  10.763   2.932   8.933  0.5606 -0.3300 -0.1850
  937MOL0     O29216  10.632   3.199   9.033  0.4758  0.2371  0.5517
  937MOL0     C29217  10.431   3.200   9.219  0.1239 -1.0365 -0.3433
  937MOL0     C29218  10.320   3.226   9.298 -0.3996 -0.6199  0.9068
  937MOL0     N29219   9.863   3.561   9.902  0.6926  0.0075 -0.6041
  937MOL0     N29220   9.913   3.668   9.963 -0.8379  0.4913  0.6320
  937MOL0     C29221   9.138   3.592  10.143 -0.2011 -0.2262  1.4235
  937MOL0     C29222   9.018   3.520  10.123  0.1791 -0.2423  0.2655
  937MOL0     C29223   8.624   3.330  10.188  0.3655 -0.4530  0.0238
  937MOL0     C29224   8.527   3.425  10.206 -0.5857  0.2718  0.8967
  937MOL0     C29225   8.395   3.384  10.199 -0.2491  0.1880 -0.0942
  937MOL0     C29226   8.360   3.246  10.199  0.4687  0.1366  0.2066
  937MOL0     O29227   8.232   3.205  10.214  0.0909  0.3381 -0.0780
  937MOL0     C29228   8.136   3.289  10.144  0.2939 -0.1855 -0.5341
  937MOL0     C29229   8.004   3.213  10.130  0.6568  0.9846  0.0271
  937MOL0     C29230   7.963   3.127  10.259 -0.0285  0.7572 -0.0530
  937MOL0     C29231   7.851   3.020  10.245 -0.0514  0.0156  0.5447
  937MOL0     C29232   7.881   2.914  10.143 -0.1851 -0.0999  0.1057
  937MOL0     C29233   7.926   2.836  10.060  0.2544  1.2099  0.0255
  937MOL0     C29234   8.459   3.150  10.191  0.9051 -1.0225  0.2410
  937MOL0     C29235   8.589   3.190  10.175  0.0715 -0.2844  0.5447
  937MOL0     C29236   8.679   3.072  10.146  0.4411 -0.2837 -0.3603
  937MOL0     H29237   8.811   3.714  10.307 -0.9330 -0.7948 -0.1793
  937MOL0     H29238   9.014   3.864  10.325 -1.1582 -0.6273  1.1469
  937MOL0     H29239   9.214   3.907  10.399 -1.3344 -0.6612 -0.5357
  937MOL0     H29240   9.193   3.988  10.248 -0.7190 -0.1615  0.0907
  937MOL0     H29241   9.387   4.082  10.345  1.3782 -0.6602  2.1911
  937MOL0     H29242   9.446   3.923  10.390 -2.1923 -1.0835  1.2986
  937MOL0     H29243   9.521   3.863  10.173 -1.6997 -0.8565 -1.1537
  937MOL0     H29244   9.407   3.965  10.094 -1.1693 -1.6495  0.3539
  937MOL0     H29245   9.510   4.170  10.197 -0.3510  0.1650 -2.1387
  937MOL0     H29246   9.641   4.064  10.257  1.5143  1.8517 -1.4395
  937MOL0     H29247   9.717   4.199  10.078 -0.8236 -0.4367  0.0685
  937MOL0     H29248   9.600   4.119   9.965  2.5758 -1.7202 -2.3777
  937MOL0     H29249   9.826   3.977  10.126  0.5346  1.6130 -0.3696
  937MOL0     H29250   9.708   3.899  10.024  2.0851 -0.9614  1.6528
  937MOL0     H29251   9.913   4.109   9.938 -2.0867  1.1300 -1.3953
  937MOL0     H29252   9.834   4.007   9.821  4.1689  0.3872 -2.3428
  937MOL0     H29253  10.064   3.935   9.872  0.7736 -0.3227  0.8793
  937MOL0     H29254   9.988   3.875  10.025 -2.9909 -3.0008 -1.0214
  937MOL0     H29255   9.885   3.770   9.660  3.7884 -2.1208 -1.7402
  937MOL0     H29256   9.787   3.537   9.564  0.5753  1.1363 -0.2863
  937MOL0     H29257   9.756   3.418   9.699 -0.5016  1.0980  0.8354
  937MOL0     H29258  10.031   3.504   9.597  0.8550  0.4053  1.4703
  937MOL0     H29259  10.000   3.357   9.692 -1.3587  0.5579  0.5670
  937MOL0     H29260   9.887   3.246   9.499  0.3131 -0.4807 -3.9455
  937MOL0     H29261   9.879   3.402   9.411  1.1632  0.1483 -0.6933
  937MOL0     H29262  10.130   3.405   9.373  0.4890  1.2387  0.9435
  937MOL0     H29263  10.148   3.285   9.499  2.6364 -1.2921 -2.0167
  937MOL0     H29264  10.079   3.108   9.096 -0.3480 -1.0010  1.0995
  937MOL0     H29265  10.142   3.075   8.893 -0.2738 -2.8892 -1.1652
  937MOL0     H29266  10.256   2.942   8.913  0.0465 -0.2106  1.2233
  937MOL0     H29267  10.312   3.092   8.835  1.0771 -3.6994 -1.0002
  937MOL0     H29268  10.548   3.022   8.682  0.0505  0.9684 -0.6066
  937MOL0     H29269  10.750   2.961   8.534 -1.2039  0.0771 -0.6921
  937MOL0     H29270  11.095   3.041   8.689  4.3141  0.6019  1.7277
  937MOL0     H29271  11.126   2.878   8.758  2.0992  1.1557 -0.4568
  937MOL0     H29272  11.186   2.839   8.500 -0.9598 -0.1223  0.6049
  937MOL0     H29273  11.209   3.011   8.500 -1.9920  1.3448  1.0377
  937MOL0     H29274  11.345   2.806   8.690  0.2484 -0.4784 -0.9967
  937MOL0     H29275  11.350   2.977   8.721  0.8804  0.1994  0.4373
  937MOL0     H29276  11.503   2.821   8.519  0.2179  0.3267 -1.0870
  937MOL0     H29277  11.573   2.939   8.633 -1.0974  1.5454  1.9683
  937MOL0     H29278  11.594   3.026   8.415 -1.6433 -0.6665 -0.1761
  937MOL0     H29279  11.429   3.007   8.388  1.5579 -0.9191 -1.7396
  937MOL0     H29280  11.587   3.194   8.578 -1.3016  0.2141  0.9990
  937MOL0     H29281  11.404   3.185   8.584 -1.2053  1.8652 -0.0638
  937MOL0     H29282  11.400   3.265   8.345  0.0701  1.9875 -0.6831
  937MOL0     H29283  11.583   3.281   8.352 -0.6410 -1.3313 -1.3241
  937MOL0     H29284  11.393   3.437   8.541  0.1744  4.3415 -1.3365
  937MOL0     H29285  11.458   3.493   8.389  2.4212 -1.1501 -1.6125
  937MOL0     H29286  10.959   2.853   8.890  1.0495 -1.9944 -3.3703
  937MOL0     H29287  10.758   2.917   9.041  0.6465 -0.0707 -0.1430
  937MOL0     H29288  10.524   3.225   9.269  0.0194  0.4710 -0.8569
  937MOL0     H29289  10.348   3.274   9.392  1.9170  0.6583 -0.3373
  937MOL0     H29290   9.226   3.566  10.084 -2.8826 -0.1784 -3.0925
  937MOL0     H29291   9.022   3.426  10.068  0.0685 -0.9799  1.4968
  937MOL0     H29292   8.553   3.524  10.240 -0.3451  0.6984 -0.4594
  937MOL0     H29293   8.322   3.459  10.225 -0.8701 -0.7191  0.8791
  937MOL0     H29294   8.101   3.380  10.193  3.2912  1.9604 -2.0603
  937MOL0     H29295   8.169   3.312  10.043 -3.5917 -2.9263 -2.7000
  937MOL0     H29296   8.013   3.139  10.050  1.8676  0.0256  0.9958
  937MOL0     H29297   7.916   3.273  10.105 -0.4129 -0.4568  0.1999
  937MOL0     H29298   8.049   3.077  10.305 -0.0449  1.0510  0.2986
  937MOL0     H29299   7.931   3.190  10.343 -1.6252  2.8356 -2.0955
  937MOL0     H29300   7.753   3.068  10.237  0.1865  0.9482  2.4842
  937MOL0     H29301   7.850   2.960  10.336  0.1869  0.9498  1.1827
  937MOL0     H29302   7.983   2.785   9.984  3.3860  0.2547  2.8079
  937MOL0     H29303   8.429   3.046  10.181  3.9468 -2.2018  1.8135
  937MOL0     H29304   8.621   2.993  10.097 -1.2784  1.0432 -0.5531
  937MOL0     H29305   8.754   3.101  10.071  3.4816 -0.5738  2.3633
  937MOL0     H29306   8.726   3.031  10.235 -0.0056  2.7831  1.4190
  938MOL0     O29307   2.147   0.855   2.318 -1.0376 -0.1982 -0.0207
  938MOL0     C29308   2.248   0.820   2.251  0.1480  0.0050 -0.6115
  938MOL0     O29309   2.252   0.709   2.181 -1.0180 -0.4497 -0.0578
  938MOL0     C29310   2.142   0.625   2.176  1.0845 -0.5116 -0.7934
  938MOL0     C29311   2.083   0.600   2.047 -0.1497 -0.1961 -0.3209
  938MOL0     C29312   1.977   0.511   2.030  0.4706  0.1362  0.6260
  938MOL0     C29313   1.926   0.445   2.138 -0.2768 -0.4792 -0.4882
  938MOL0     O29314   1.811   0.375   2.131 -0.3741  0.5464  1.1453
  938MOL0     C29315   1.824   0.232   2.098 -0.2923 -0.6316  0.8820
  938MOL0     C29316   1.728   0.141   2.180  0.3436 -0.1424  0.4121
  938MOL0     C29317   1.726   0.002   2.124 -0.9696 -0.4865 -0.6364
  938MOL0     C29318   1.601  -0.069   2.172  0.7732  0.4030 -0.2440
  938MOL0     C29319   1.622  -0.102   2.323 -0.0085 -0.4283  1.2101
  938MOL0     C29320   1.496  -0.175   2.381 -0.2384 -0.2111 -1.2176
  938MOL0     C29321   1.474  -0.144   2.540  0.8803 -0.8841  0.8833
  938MOL0     C29322   1.339  -0.224   2.579  0.0056 -0.4533 -0.0611
  938MOL0     N29323   1.204  -0.178   2.528  0.2486  0.0754  0.3600
  938MOL0     C29324   1.169  -0.063   2.462  0.5712  1.0518  0.2247
  938MOL0     C29325   1.036  -0.071   2.450 -0.1374  0.7026 -0.6980
  938MOL0     C29326   0.927   0.032   2.394  0.1405 -0.3734 -0.6173
  938MOL0     C29327   0.863  -0.014   2.259 -0.1911  0.4295  0.1678
  938MOL0     C29328   0.965  -0.008   2.140 -0.4734 -0.1337  0.8147
  938MOL0     C29329   0.888  -0.060   2.006 -0.7817 -0.1605 -0.6905
  938MOL0     O29330   0.811   0.051   1.956 -0.0413 -0.6979  0.7260
  938MOL0     C29331   0.707   0.019   1.866  0.4002  0.3103 -0.0453
  938MOL0     C29332   0.603   0.115   1.866  0.0453  0.3701  0.2752
  938MOL0     C29333   0.500   0.087   1.774  0.4521 -1.1334 -0.1155
  938MOL0     C29334   0.390   0.192   1.771 -0.3550  0.4590 -0.3283
  938MOL0     C29335   0.490  -0.034   1.701 -0.5087 -0.5639  0.0112
  938MOL0     C29336   0.384  -0.057   1.597 -0.0006  0.6335 -0.6838
  938MOL0     O29337   0.390  -0.182   1.550 -0.6264 -0.3079 -0.0237
  938MOL0     C29338   0.299  -0.242   1.470  0.1347  0.0417 -0.9013
  938MOL0     C29339   0.327  -0.381   1.442  0.0867  0.7431 -0.8866
  938MOL0     C29340   0.236  -0.472   1.382 -0.1574 -0.6052  0.7278
  938MOL0     C29341   0.117  -0.423   1.328 -0.2046  0.9955  0.7663
  938MOL0     O29342   0.023  -0.493   1.251  0.3527  0.5532 -0.5558
  938MOL0     C29343   0.028  -0.636   1.261 -0.5740 -0.4875  0.3504
  938MOL0     C29344  -0.076  -0.706   1.182  0.5558  0.1085 -0.3456
  938MOL0     C29345  -0.211  -0.656   1.219 -0.1241  0.3062 -0.3664
  938MOL0     C29346  -0.312  -0.711   1.118 -0.5326  0.0552 -0.5236
  938MOL0     C29347  -0.459  -0.658   1.129 -1.0425  0.3391  0.2988
  938MOL0     C29348  -0.462  -0.504   1.092 -0.7378 -0.0592 -0.5117
  938MOL0     C29349  -0.605  -0.444   1.090  0.1872 -0.9399 -0.0485
  938MOL0     C29350  -0.604  -0.301   1.037 -0.2671  0.1352 -0.2243
  938MOL0    Cl29351  -0.769  -0.245   1.017  0.0328  0.4827  0.0794
  938MOL0     C29352   0.093  -0.280   1.344  0.3020  1.3006 -0.7765
  938MOL0     C29353   0.182  -0.193   1.399  0.1667 -0.6062 -0.2138
  938MOL0     O29354   0.306   0.022   1.561 -0.2434  0.3993  0.1442
  938MOL0     C29355   0.593  -0.128   1.719 -0.5305 -0.6814 -0.2992
  938MOL0     C29356   0.703  -0.104   1.792  0.5968 -0.6867 -0.5484
  938MOL0     N29357   0.990  -0.185   2.516 -0.6651 -0.8229 -0.2547
  938MOL0     N29358   1.087  -0.240   2.568  0.4261 -0.2348  1.1040
  938MOL0     C29359   1.977   0.479   2.268  0.3754  0.0783  0.9713
  938MOL0     C29360   2.089   0.564   2.287 -0.1407  0.0741 -0.1903
  938MOL0     C29361   2.368   0.912   2.248 -1.2987 -0.1311  0.5066
  938MOL0     C29362   2.498   0.861   2.217  0.1631 -0.0787 -0.1800
  938MOL0     C29363   2.617   0.937   2.224  0.5868 -0.1618 -0.8628
  938MOL0     C29364   2.603   1.070   2.249 -0.1368  0.1236  0.3390
  938MOL0     O29365   2.714   1.141   2.260 -0.4311 -1.0798 -0.1062
  938MOL0     C29366   2.710   1.258   2.356 -1.0848 -0.0850 -0.3888
  938MOL0     C29367   2.852   1.286   2.399 -0.2255 -0.0136  0.5528
  938MOL0     C29368   2.859   1.374   2.518  0.0298 -0.2816  0.0194
  938MOL0     C29369   2.999   1.425   2.557 -0.5013 -1.0381 -1.0078
  938MOL0     C29370   3.102   1.326   2.557 -0.6561  0.3787  0.0709
  938MOL0     C29371   3.199   1.249   2.561 -0.2147 -0.6404 -0.2352
  938MOL0     C29372   2.478   1.131   2.279 -0.6517 -0.5314  0.1960
  938MOL0     C29373   2.360   1.052   2.271  0.7076 -0.3893  0.1266
  938MOL0     C29374   2.229   1.133   2.291 -0.0787  0.7802 -0.2986
  938MOL0     H29375   2.140   0.642   1.965 -0.7302  1.0599 -0.0934
  938MOL0     H29376   1.940   0.483   1.932 -1.3821  1.6738  0.8203
  938MOL0     H29377   1.927   0.199   2.115 -0.3406 -0.8566  0.7462
  938MOL0     H29378   1.792   0.228   1.993 -3.0433 -0.4102  1.6264
  938MOL0     H29379   1.755   0.139   2.286 -0.0759 -3.0438  0.5314
  938MOL0     H29380   1.625   0.178   2.173 -0.2651 -1.6487  0.9463
  938MOL0     H29381   1.724   0.016   2.016  1.1863  0.2222 -0.6278
  938MOL0     H29382   1.796  -0.076   2.156 -2.3321 -1.7460 -0.6357
  938MOL0     H29383   1.512  -0.008   2.155  0.6392  0.4947  0.7080
  938MOL0     H29384   1.600  -0.164   2.119 -0.6452 -0.5072  1.3538
  938MOL0     H29385   1.634  -0.013   2.385 -2.8558 -1.2766  3.1903
  938MOL0     H29386   1.713  -0.161   2.336  0.2435 -0.6973 -1.2014
  938MOL0     H29387   1.409  -0.140   2.325 -1.4462 -0.4819  0.4153
  938MOL0     H29388   1.503  -0.284   2.370  1.6189 -0.2801  0.1327
  938MOL0     H29389   1.465  -0.037   2.564  1.1908 -0.3873 -1.0521
  938MOL0     H29390   1.559  -0.181   2.598  0.1967 -2.1454  1.1060
  938MOL0     H29391   1.344  -0.332   2.563 -2.6911 -0.5730 -0.5918
  938MOL0     H29392   1.330  -0.226   2.688  2.1884 -3.0096  0.1802
  938MOL0     H29393   1.232   0.017   2.425  0.8743 -0.7142 -3.5980
  938MOL0     H29394   0.966   0.131   2.371 -0.2679 -0.2909 -0.9654
  938MOL0     H29395   0.848   0.048   2.468 -1.6926  0.6983 -2.7011
  938MOL0     H29396   0.828  -0.117   2.268 -0.1797  0.3706 -0.4210
  938MOL0     H29397   0.783   0.054   2.228  1.0009  2.0729  0.5309
  938MOL0     H29398   0.999   0.096   2.128 -0.6775 -0.2490 -1.2117
  938MOL0     H29399   1.044  -0.077   2.171 -0.7128 -0.6220  0.3548
  938MOL0     H29400   0.960  -0.092   1.930 -0.2055 -0.8619  0.1264
  938MOL0     H29401   0.826  -0.146   2.033 -1.4851  0.4971 -0.1633
  938MOL0     H29402   0.615   0.208   1.919  1.7038 -0.2622  1.0904
  938MOL0     H29403   0.359   0.229   1.672 -2.7625 -0.0889  0.1461
  938MOL0     H29404   0.397   0.276   1.840 -2.4788  1.5482 -1.3354
  938MOL0     H29405   0.301   0.138   1.804  1.3825 -0.9170  2.4974
  938MOL0     H29406   0.426  -0.416   1.472 -0.6850  0.5266  1.6118
  938MOL0     H29407   0.270  -0.571   1.353  2.4391  0.8475 -1.5980
  938MOL0     H29408   0.121  -0.675   1.216 -1.3764 -0.7911 -1.1145
  938MOL0     H29409   0.022  -0.674   1.363  1.4525 -1.9252 -0.0078
  938MOL0     H29410  -0.044  -0.702   1.077  2.6784  1.7565  0.2879
  938MOL0     H29411  -0.072  -0.813   1.202 -0.2720  0.3014  0.9523
  938MOL0     H29412  -0.212  -0.547   1.232  1.6795  0.1763  1.4193
  938MOL0     H29413  -0.234  -0.694   1.320  1.2811  2.1297  0.7098
  938MOL0     H29414  -0.310  -0.820   1.125  2.5379 -0.1327 -2.4694
  938MOL0     H29415  -0.271  -0.684   1.020  0.3910  1.2605  0.1662
  938MOL0     H29416  -0.524  -0.707   1.056 -1.1681 -0.5592  1.0067
  938MOL0     H29417  -0.501  -0.684   1.226 -0.7023 -1.9104 -0.0894
  938MOL0     H29418  -0.426  -0.500   0.988 -0.4106 -0.7357 -0.4323
  938MOL0     H29419  -0.410  -0.449   1.171 -1.9340 -0.3506  0.4942
  938MOL0     H29420  -0.638  -0.442   1.194 -0.0823  0.8824 -0.1313
  938MOL0     H29421  -0.681  -0.503   1.038 -0.4699  0.0243 -0.2145
  938MOL0     H29422  -0.547  -0.302   0.943 -0.3202 -1.9404 -0.2808
  938MOL0     H29423  -0.556  -0.222   1.096  0.4896  0.8815 -1.7511
  938MOL0     H29424   0.003  -0.244   1.297  0.4414 -0.1717 -2.3061
  938MOL0     H29425   0.156  -0.089   1.416  1.4940 -0.1357 -0.9265
  938MOL0     H29426   0.603  -0.215   1.654  0.6449 -1.2309  0.5952
  938MOL0     H29427   0.786  -0.174   1.801  0.8907 -0.2371  0.4132
  938MOL0     H29428   1.933   0.440   2.359 -1.3489 -0.6946 -0.1301
  938MOL0     H29429   2.127   0.581   2.387 -3.2332  1.4278  0.8578
  938MOL0     H29430   2.510   0.755   2.196  1.0833  0.1825 -1.0221
  938MOL0     H29431   2.714   0.889   2.225 -0.2580 -1.9453  0.0329
  938MOL0     H29432   2.668   1.348   2.309 -1.6861  1.0324  2.1411
  938MOL0     H29433   2.660   1.234   2.450  0.8532  0.7453  0.9334
  938MOL0     H29434   2.914   1.307   2.311 -1.2114  1.4538  0.1734
  938MOL0     H29435   2.903   1.196   2.436  0.1248  0.0287  0.1797
  938MOL0     H29436   2.797   1.461   2.494  0.5446 -0.9034 -4.3546
  938MOL0     H29437   2.816   1.321   2.604 -0.2789  0.1958  0.1655
  938MOL0     H29438   2.988   1.469   2.657 -2.2333 -2.0450 -0.7120
  938MOL0     H29439   3.017   1.497   2.478  1.4833  1.4343  1.4828
  938MOL0     H29440   3.282   1.181   2.557  0.0876 -0.2706 -0.2977
  938MOL0     H29441   2.460   1.234   2.308 -0.6684 -1.5516  4.4314
  938MOL0     H29442   2.254   1.237   2.314  0.9766  0.3278  0.6876
  938MOL0     H29443   2.155   1.128   2.210 -0.0364  1.8576 -0.4252
  938MOL0     H29444   2.174   1.092   2.377  0.2747 -1.1838 -0.9627
  939MOL0     O29445   3.013  11.260   3.572 -0.5433 -0.0575 -0.2235
  939MOL0     C29446   2.994  11.183   3.664  0.6557 -0.2212 -0.6047
  939MOL0     O29447   3.073  11.158   3.768 -0.5024  0.0101  0.0477
  939MOL0     C29448   3.201  11.215   3.777  0.0929 -0.0682  0.3925
  939MOL0     C29449   3.274  11.247   3.668 -0.7772  0.4672  0.9792
  939MOL0     C29450   3.402  11.309   3.669  0.7254  0.2677  0.2448
  939MOL0     C29451   3.454  11.339   3.799 -0.6514 -0.0998  0.5680
  939MOL0     O29452   3.572  11.418   3.829 -0.7984  0.1590 -0.8447
  939MOL0     C29453   3.623  11.492   3.724  1.2082  0.6468 -0.6663
  939MOL0     C29454   3.747  11.547   3.789 -0.2084 -0.0283  0.8862
  939MOL0     C29455   3.843  11.596   3.680 -1.0484 -0.5979  0.7673
  939MOL0     C29456   3.951  11.693   3.739 -0.7276 -0.5387 -0.6973
  939MOL0     C29457   4.047  11.749   3.634  0.6806 -0.4336  0.8604
  939MOL0     C29458   4.189  11.779   3.692 -0.6364  0.1295 -0.7349
  939MOL0     C29459   4.289  11.673   3.731 -0.3368 -0.8918  0.3167
  939MOL0     C29460   4.318  11.569   3.623  0.4118 -0.1321 -1.0422
  939MOL0     N29461   4.411  11.463   3.669  0.8529 -0.2942  0.2710
  939MOL0     C29462   4.541  11.453   3.617  0.1805 -0.2074  0.2828
  939MOL0     C29463   4.590  11.341   3.670 -0.1188  0.1191  0.0535
  939MOL0     C29464   4.722  11.260   3.648  0.3923  0.4512  0.0375
  939MOL0     C29465   4.702  11.112   3.679 -0.9045  0.3810 -0.1613
  939MOL0     C29466   4.609  11.022   3.580  0.1762 -0.7708  0.4100
  939MOL0     C29467   4.673  10.973   3.438 -0.1330 -0.1301 -1.2111
  939MOL0     O29468   4.678  11.097   3.355 -0.5044 -0.5710  0.2475
  939MOL0     C29469   4.610  11.079   3.239 -0.7146 -0.0764 -1.3912
  939MOL0     C29470   4.664  11.053   3.114 -0.4362  0.0136 -0.3779
  939MOL0     C29471   4.600  11.030   2.993  0.7926 -0.2904 -0.8657
  939MOL0     C29472   4.682  11.022   2.875 -0.7172  0.1760  0.0489
  939MOL0     C29473   4.453  11.039   3.001  0.6379  0.8596  0.4352
  939MOL0     C29474   4.364  11.030   2.878  0.0013 -0.1731 -0.6497
  939MOL0     O29475   4.230  11.069   2.901  0.0733  0.8767 -0.3594
  939MOL0     C29476   4.135  11.038   2.809  0.8452  0.0989  0.4027
  939MOL0     C29477   4.014  11.104   2.839 -0.4063 -0.8159  0.2641
  939MOL0     C29478   3.900  11.084   2.759  0.4050  0.4791 -0.5387
  939MOL0     C29479   3.901  10.989   2.655 -0.0843  0.2265 -0.1313
  939MOL0     O29480   3.804  10.976   2.561  1.1274  0.0970  0.3533
  939MOL0     C29481   3.696  11.066   2.549  0.5488  0.2137 -0.0359
  939MOL0     C29482   3.638  11.059   2.406 -0.9698  0.0868 -1.3410
  939MOL0     C29483   3.595  10.921   2.358 -1.1798  0.8018  0.3115
  939MOL0     C29484   3.707  10.849   2.287  0.0992  0.3647  0.2519
  939MOL0     C29485   3.754  10.905   2.142  0.2389  0.5399 -0.0078
  939MOL0     C29486   3.641  10.897   2.038 -1.2697 -0.3189 -1.1205
  939MOL0     C29487   3.705  10.943   1.906 -0.9195  0.0877  0.1481
  939MOL0     C29488   3.617  10.936   1.784 -0.6458 -0.4129  0.7922
  939MOL0    Cl29489   3.679  11.032   1.635 -0.4507  0.1148 -0.3474
  939MOL0     C29490   4.018  10.924   2.622 -0.6104 -0.0146 -0.2657
  939MOL0     C29491   4.136  10.939   2.703  0.4414 -0.2470 -0.0672
  939MOL0     O29492   4.416  11.017   2.766  0.3396 -0.2497 -0.3479
  939MOL0     C29493   4.393  11.046   3.133  0.0120  0.2809  0.9780
  939MOL0     C29494   4.471  11.071   3.250  0.3185  0.7358  0.3781
  939MOL0     N29495   4.488  11.289   3.751 -0.3885 -0.2195 -0.7666
  939MOL0     N29496   4.386  11.361   3.752 -0.5267 -0.4485 -0.2739
  939MOL0     C29497   3.384  11.312   3.915  0.3388  0.6104  0.1326
  939MOL0     C29498   3.257  11.252   3.909  0.6767  0.0060  1.4810
  939MOL0     C29499   2.853  11.111   3.666  0.1730  0.6506 -0.6816
  939MOL0     C29500   2.804  11.064   3.791  0.0797  0.0853  0.0001
  939MOL0     C29501   2.684  10.988   3.799  0.1933  0.3071 -0.4056
  939MOL0     C29502   2.606  10.969   3.690 -0.0063  0.8085  0.2294
  939MOL0     O29503   2.518  10.865   3.708  0.4073 -0.8345  0.8425
  939MOL0     C29504   2.405  10.871   3.621  0.5537 -0.5118 -0.7043
  939MOL0     C29505   2.321  10.990   3.671  0.3192  0.6554 -0.0181
  939MOL0     C29506   2.171  10.967   3.623 -0.3163 -0.2474  0.6585
  939MOL0     C29507   2.059  11.067   3.663 -0.3384  0.2923  0.5298
  939MOL0     C29508   2.037  11.047   3.805 -0.5092 -0.5441 -0.5920
  939MOL0     C29509   2.033  11.047   3.925  0.1679  0.0141  0.9830
  939MOL0     C29510   2.635  11.032   3.570  0.8435 -1.3766 -0.4006
  939MOL0     C29511   2.757  11.099   3.555 -0.0355 -0.0214  0.1101
  939MOL0     C29512   2.799  11.127   3.414 -0.4134 -0.3802  0.1970
  939MOL0     H29513   3.249  11.208   3.570  0.8180  2.2694 -0.2084
  939MOL0     H29514   3.450  11.323   3.572  0.5733 -0.4169  0.0673
  939MOL0     H29515   3.552  11.563   3.682 -0.2113 -0.9457 -1.1013
  939MOL0     H29516   3.647  11.417   3.648 -2.3024 -0.7077 -0.6640
  939MOL0     H29517   3.712  11.633   3.847 -3.2126 -0.2728 -0.3759
  939MOL0     H29518   3.806  11.481   3.853  2.6947  1.2484 -0.3118
  939MOL0     H29519   3.894  11.515   3.626  2.6268 -0.0541  3.0175
  939MOL0     H29520   3.784  11.660   3.614 -1.1780  0.8368  2.2049
  939MOL0     H29521   3.900  11.785   3.768 -2.0019 -0.0693 -3.9616
  939MOL0     H29522   4.008  11.647   3.820 -1.7486 -2.5353 -1.0447
  939MOL0     H29523   4.001  11.834   3.583  3.4998  1.4511  1.1934
  939MOL0     H29524   4.058  11.673   3.557  1.6644 -0.1520  0.7153
  939MOL0     H29525   4.250  11.846   3.631  1.2565 -0.9317 -0.0946
  939MOL0     H29526   4.161  11.827   3.786 -1.0162 -0.6331 -0.4414
  939MOL0     H29527   4.258  11.614   3.817  0.4002 -0.6150  0.7849
  939MOL0     H29528   4.378  11.731   3.757  0.9002 -1.5747 -2.0660
  939MOL0     H29529   4.229  11.516   3.589 -0.7954  0.7334  0.6441
  939MOL0     H29530   4.357  11.619   3.534  1.9074  0.4574 -0.0954
  939MOL0     H29531   4.589  11.519   3.546 -1.9594  2.3071  1.0467
  939MOL0     H29532   4.806  11.298   3.708  1.6148  0.7688 -1.7808
  939MOL0     H29533   4.756  11.278   3.545 -0.9539 -0.2893 -0.5534
  939MOL0     H29534   4.797  11.060   3.669  0.6660  2.6048  1.8500
  939MOL0     H29535   4.673  11.101   3.784 -0.1876  0.1184  0.0093
  939MOL0     H29536   4.576  10.928   3.626  0.3761 -2.7986 -3.2028
  939MOL0     H29537   4.513  11.074   3.573 -1.2897 -2.9846  2.6937
  939MOL0     H29538   4.773  10.930   3.449 -0.9736 -1.8634  0.1164
  939MOL0     H29539   4.611  10.893   3.396 -0.8437  0.2956 -0.9819
  939MOL0     H29540   4.771  11.039   3.111 -0.6733 -2.5443  0.8784
  939MOL0     H29541   4.679  11.120   2.826  1.8487 -0.1305 -0.8336
  939MOL0     H29542   4.660  10.954   2.792 -4.1665  1.5937 -0.4050
  939MOL0     H29543   4.779  10.994   2.916 -0.6383 -1.8026 -1.3485
  939MOL0     H29544   4.018  11.165   2.929  0.1331 -0.6852  0.1526
  939MOL0     H29545   3.802  11.127   2.780 -1.2700 -3.6908  1.4249
  939MOL0     H29546   3.626  11.048   2.630 -1.9418  2.8088 -1.4648
  939MOL0     H29547   3.744  11.163   2.562  0.0219  0.3718  0.7597
  939MOL0     H29548   3.552  11.127   2.412 -0.7602  0.3448 -1.2396
  939MOL0     H29549   3.716  11.106   2.346  0.5359 -0.5875  0.0066
  939MOL0     H29550   3.495  10.921   2.315 -2.2626 -0.4031  2.6377
  939MOL0     H29551   3.576  10.857   2.445  1.9657  0.3409  0.7849
  939MOL0     H29552   3.679  10.744   2.278 -1.1387  0.7875 -1.1081
  939MOL0     H29553   3.795  10.844   2.352 -0.7342 -2.4097  1.3116
  939MOL0     H29554   3.793  11.007   2.148  1.0473  0.1494  2.3886
  939MOL0     H29555   3.828  10.836   2.101  0.7538 -1.1024  3.3204
  939MOL0     H29556   3.569  10.976   2.062 -1.9374 -1.2656  0.1137
  939MOL0     H29557   3.592  10.800   2.042 -2.5069  0.2590 -1.6840
  939MOL0     H29558   3.793  10.881   1.888  0.9265  1.7479  2.6720
  939MOL0     H29559   3.743  11.045   1.919  2.6967 -1.1347  0.2646
  939MOL0     H29560   3.514  10.965   1.804 -1.8635 -2.4409 -1.8861
  939MOL0     H29561   3.607  10.831   1.753 -1.0734  0.1056 -0.9319
  939MOL0     H29562   4.015  10.843   2.550  0.3960 -3.5389  3.2582
  939MOL0     H29563   4.225  10.881   2.679  0.3988  0.5415 -2.4112
  939MOL0     H29564   4.285  11.044   3.142 -0.3089  4.5330  0.1566
  939MOL0     H29565   4.426  11.097   3.345 -0.8206  3.8101 -0.8640
  939MOL0     H29566   3.426  11.341   4.010  0.9439 -1.6876  0.6365
  939MOL0     H29567   3.213  11.225   4.005  2.1766  1.3946  2.6074
  939MOL0     H29568   2.858  11.081   3.883  1.4020  0.2603 -0.7867
  939MOL0     H29569   2.641  10.932   3.881 -2.4598  0.7905 -1.3645
  939MOL0     H29570   2.431  10.880   3.515  0.0902  0.9683 -0.7157
  939MOL0     H29571   2.348  10.780   3.643 -1.9104  0.9488 -0.6512
  939MOL0     H29572   2.367  11.083   3.637  1.3441 -0.0717 -0.7170
  939MOL0     H29573   2.310  10.972   3.778 -3.1937 -1.5717 -0.5893
  939MOL0     H29574   2.180  10.965   3.514 -4.1475 -0.0079  0.1881
  939MOL0     H29575   2.135  10.866   3.645 -0.6685 -0.2930 -0.0912
  939MOL0     H29576   1.965  11.050   3.610  0.7759 -2.2157 -0.8437
  939MOL0     H29577   2.101  11.167   3.651  0.1172  0.1083  0.5671
  939MOL0     H29578   2.019  11.034   4.031 -2.8281 -0.3324  0.6121
  939MOL0     H29579   2.568  11.020   3.485  1.3616 -0.9310 -0.8755
  939MOL0     H29580   2.717  11.132   3.342 -2.5774 -0.0633  2.5563
  939MOL0     H29581   2.854  11.222   3.412  2.2843 -1.8423 -0.1135
  939MOL0     H29582   2.875  11.054   3.385 -1.4758 -0.5175 -2.5122
  940MOL0     O29583   8.237   9.618   6.461  0.2575 -0.0095  0.1230
  940MOL0     C29584   8.122   9.600   6.496  0.6327  0.7770 -0.4300
  940MOL0     O29585   8.077   9.499   6.576 -0.1173 -0.4656 -0.2061
  940MOL0     C29586   8.168   9.408   6.617  0.9514  0.4293  0.3555
  940MOL0     C29587   8.217   9.295   6.549  0.3735 -0.2464  0.1029
  940MOL0     C29588   8.311   9.205   6.613 -0.2697 -0.2273 -0.1694
  940MOL0     C29589   8.360   9.241   6.732  0.0736  0.3040  0.0056
  940MOL0     O29590   8.429   9.134   6.788 -0.1180 -0.0725 -0.3247
  940MOL0     C29591   8.510   9.162   6.906  0.2241 -0.0170 -0.7678
  940MOL0     C29592   8.616   9.060   6.940 -0.6440 -0.3530 -0.8467
  940MOL0     C29593   8.706   9.041   6.817  0.2203 -0.9640 -0.0905
  940MOL0     C29594   8.689   8.896   6.765 -0.1374  0.5016  0.5197
  940MOL0     C29595   8.725   8.779   6.850 -0.1374  0.5693 -0.2390
  940MOL0     C29596   8.876   8.782   6.880  0.1845  0.5333  0.2322
  940MOL0     C29597   8.935   8.655   6.952  0.1436  0.1275  0.0610
  940MOL0     C29598   9.088   8.676   6.982  0.6605 -0.0600  0.6072
  940MOL0     N29599   9.123   8.569   7.062 -0.2781  0.3989  0.0661
  940MOL0     C29600   9.186   8.573   7.185 -0.1249 -0.1643  0.0340
  940MOL0     C29601   9.226   8.444   7.206 -0.0434  0.2135  0.7272
  940MOL0     C29602   9.298   8.389   7.335  1.1270  0.0143  0.1864
  940MOL0     C29603   9.430   8.463   7.364 -0.1585  0.3958 -0.7950
  940MOL0     C29604   9.530   8.386   7.456  0.2746 -0.2738  0.3176
  940MOL0     C29605   9.598   8.480   7.539 -0.0676 -0.4229  0.0504
  940MOL0     O29606   9.691   8.390   7.605 -0.0550 -0.3003  0.5252
  940MOL0     C29607   9.829   8.386   7.572 -0.0743  1.1757 -0.5330
  940MOL0     C29608   9.901   8.445   7.461  0.0609  0.4814  0.4186
  940MOL0     C29609  10.041   8.446   7.451  0.5828  0.7314  0.0128
  940MOL0     C29610  10.109   8.504   7.329  0.0661  0.4171 -0.4290
  940MOL0     C29611  10.110   8.395   7.564 -0.0867  0.0912  0.2414
  940MOL0     C29612  10.257   8.417   7.581  0.4799  0.1907  0.7256
  940MOL0     O29613  10.309   8.534   7.531  0.5978  0.0842 -0.0260
  940MOL0     C29614  10.440   8.555   7.565  0.0713 -1.2237 -0.0006
  940MOL0     C29615  10.468   8.668   7.644  0.0460 -0.0214 -0.2455
  940MOL0     C29616  10.599   8.704   7.668 -0.3536  0.0142 -0.1409
  940MOL0     C29617  10.711   8.645   7.609  0.1636  0.2697  0.3815
  940MOL0     O29618  10.845   8.672   7.625 -0.3014 -0.7397 -0.3125
  940MOL0     C29619  10.881   8.812   7.660 -0.6156 -1.0704 -0.3699
  940MOL0     C29620  11.036   8.805   7.677  0.1823 -0.1200  0.0002
  940MOL0     C29621  11.107   8.941   7.664  0.3903 -0.3032 -0.0402
  940MOL0     C29622  11.156   9.014   7.789 -0.1558  0.0091  0.2937
  940MOL0     C29623  11.211   9.153   7.758  1.1868  0.0031 -1.2376
  940MOL0     C29624  11.334   9.171   7.661  0.0633 -0.4767 -0.6207
  940MOL0     C29625  11.343   9.317   7.633  0.0055 -0.4969  0.6523
  940MOL0     C29626  11.464   9.373   7.708 -0.3579  0.3359  0.0569
  940MOL0    Cl29627  11.438   9.544   7.725  0.0711  0.2723  0.0035
  940MOL0     C29628  10.677   8.541   7.532 -0.1740 -0.3830  0.0532
  940MOL0     C29629  10.547   8.487   7.506  0.1411  0.5864 -0.1900
  940MOL0     O29630  10.314   8.328   7.635 -0.3318  0.0485 -0.5895
  940MOL0     C29631  10.042   8.326   7.671 -0.2085  0.0662  0.3154
  940MOL0     C29632   9.901   8.316   7.664  0.4638  0.2300 -0.0944
  940MOL0     N29633   9.183   8.358   7.105 -0.0903 -0.3831 -0.5860
  940MOL0     N29634   9.122   8.437   7.020  0.8220 -0.0783 -0.9314
  940MOL0     C29635   8.326   9.358   6.795 -0.0218 -1.4134  0.8121
  940MOL0     C29636   8.223   9.438   6.741 -0.4801 -0.3437  0.5694
  940MOL0     C29637   8.013   9.702   6.463  0.2705 -0.9215 -1.0515
  940MOL0     C29638   7.898   9.719   6.548 -0.0700  0.4164 -0.7337
  940MOL0     C29639   7.805   9.817   6.529 -0.6567 -0.6518  0.0825
  940MOL0     C29640   7.810   9.913   6.431  0.0020  0.4463  1.4753
  940MOL0     O29641   7.706  10.001   6.423  0.2894 -0.3911 -0.0510
  940MOL0     C29642   7.703  10.115   6.335  0.3872  0.4529 -0.2245
  940MOL0     C29643   7.562  10.163   6.301  0.3027  0.5314 -0.3401
  940MOL0     C29644   7.483  10.057   6.234 -1.1085 -0.5911 -1.0418
  940MOL0     C29645   7.402   9.975   6.338 -0.6889 -0.5289 -0.0742
  940MOL0     C29646   7.278  10.046   6.367 -1.1541 -0.0818 -0.4076
  940MOL0     C29647   7.178  10.106   6.404 -0.6696  0.2087  0.0445
  940MOL0     C29648   7.922   9.903   6.348 -0.0932  0.4832  0.0739
  940MOL0     C29649   8.016   9.798   6.362 -0.0999 -0.2379 -0.7642
  940MOL0     C29650   8.123   9.786   6.251 -0.2283  0.0511 -0.2447
  940MOL0     H29651   8.178   9.267   6.452  0.3099 -2.3075  0.6706
  940MOL0     H29652   8.347   9.114   6.567  1.7877  0.2648  0.3602
  940MOL0     H29653   8.443   9.160   6.993 -1.3726 -2.3059 -1.9328
  940MOL0     H29654   8.553   9.261   6.894 -0.7448  0.4057 -0.8061
  940MOL0     H29655   8.690   9.094   7.013 -0.0309  0.9349 -2.0202
  940MOL0     H29656   8.569   8.967   6.973 -0.5600 -0.1063 -0.0103
  940MOL0     H29657   8.684   9.109   6.734  0.8514 -0.7550 -0.0892
  940MOL0     H29658   8.809   9.052   6.850  1.2823 -1.3580 -3.0108
  940MOL0     H29659   8.589   8.880   6.725 -1.2459  4.2149  1.4138
  940MOL0     H29660   8.751   8.883   6.676 -0.0875 -1.0179  0.7498
  940MOL0     H29661   8.698   8.687   6.798 -0.5114  0.1811  0.6215
  940MOL0     H29662   8.666   8.778   6.942 -0.3529 -0.5345 -0.3800
  940MOL0     H29663   8.930   8.789   6.786 -1.4045 -0.9773 -0.8576
  940MOL0     H29664   8.899   8.867   6.945  0.9584 -0.2655  1.0324
  940MOL0     H29665   8.915   8.565   6.893 -0.5440 -0.5453  1.3028
  940MOL0     H29666   8.873   8.633   7.039 -0.8744 -1.9420 -1.1125
  940MOL0     H29667   9.152   8.694   6.895 -1.0865  1.3129 -0.4488
  940MOL0     H29668   9.104   8.763   7.046  2.3701  0.4473 -0.4354
  940MOL0     H29669   9.200   8.662   7.245  0.4040 -0.2998  0.1120
  940MOL0     H29670   9.316   8.281   7.327 -1.1161 -0.2948 -2.2126
  940MOL0     H29671   9.223   8.405   7.413 -0.0490  0.4605 -0.9930
  940MOL0     H29672   9.478   8.468   7.266  1.1955  2.0697 -0.0945
  940MOL0     H29673   9.414   8.563   7.405  2.0823  0.1520  0.8571
  940MOL0     H29674   9.478   8.316   7.522  2.3736 -1.6742  0.5755
  940MOL0     H29675   9.603   8.328   7.398  2.1939  0.0616  2.2501
  940MOL0     H29676   9.648   8.555   7.476  0.3687  0.7059  1.6763
  940MOL0     H29677   9.523   8.521   7.607  0.6775  1.0343  0.0478
  940MOL0     H29678   9.831   8.505   7.404 -2.7170 -1.0579  1.9883
  940MOL0     H29679  10.035   8.508   7.248  0.6728 -1.1553 -1.1078
  940MOL0     H29680  10.191   8.440   7.294  0.4847  2.7119 -4.2967
  940MOL0     H29681  10.135   8.609   7.343 -1.6167  1.6419 -4.8029
  940MOL0     H29682  10.397   8.733   7.695  2.5519  0.2158  3.2681
  940MOL0     H29683  10.617   8.781   7.743 -1.2480 -0.3460  0.4625
  940MOL0     H29684  10.860   8.889   7.585  0.5833  0.7987  1.0955
  940MOL0     H29685  10.843   8.850   7.755  0.8859  1.0625 -0.5339
  940MOL0     H29686  11.048   8.761   7.776 -1.0246 -0.5262 -0.0274
  940MOL0     H29687  11.085   8.742   7.602  3.1620  1.1086  0.7325
  940MOL0     H29688  11.035   9.008   7.615 -0.2522  0.1857  1.5015
  940MOL0     H29689  11.199   8.922   7.607  2.0710  2.4277  1.5427
  940MOL0     H29690  11.236   8.963   7.845 -0.5224  2.4237  3.2587
  940MOL0     H29691  11.069   9.023   7.855 -1.4698 -0.5639 -1.2712
  940MOL0     H29692  11.127   9.210   7.719  1.8103  0.5009 -1.8704
  940MOL0     H29693  11.234   9.204   7.852  0.9314  1.6091 -2.0112
  940MOL0     H29694  11.323   9.122   7.564 -2.4182  0.8393 -1.0982
  940MOL0     H29695  11.431   9.135   7.697 -0.5557 -1.7973 -0.2022
  940MOL0     H29696  11.247   9.361   7.658 -1.1101 -0.9743 -2.3964
  940MOL0     H29697  11.347   9.335   7.526 -1.6397  1.8142  0.9123
  940MOL0     H29698  11.556   9.347   7.656 -0.3456  1.9960 -0.8046
  940MOL0     H29699  11.472   9.322   7.804 -0.2343  1.0960  0.4590
  940MOL0     H29700  10.760   8.495   7.477  0.2467  2.6062 -2.0671
  940MOL0     H29701  10.534   8.405   7.436  3.3721  0.3965 -0.7446
  940MOL0     H29702  10.096   8.283   7.755  1.9470  1.4995 -0.2239
  940MOL0     H29703   9.863   8.248   7.739 -3.0402  2.5333  0.4615
  940MOL0     H29704   8.371   9.388   6.889 -0.0416 -0.5012  0.5405
  940MOL0     H29705   8.197   9.531   6.791 -0.7023 -1.1297  1.9819
  940MOL0     H29706   7.875   9.656   6.634  0.3091  1.3046  0.0436
  940MOL0     H29707   7.712   9.813   6.585  1.0488  0.0373  3.1454
  940MOL0     H29708   7.758  10.200   6.376 -1.2596  0.8359  1.3368
  940MOL0     H29709   7.752  10.084   6.242  1.0747  0.2321  0.2029
  940MOL0     H29710   7.571  10.243   6.228  1.9844 -0.3217 -1.1179
  940MOL0     H29711   7.512  10.204   6.389 -1.4651 -0.4296 -0.8423
  940MOL0     H29712   7.416  10.096   6.157 -1.0065 -1.1480 -1.4236
  940MOL0     H29713   7.559   9.994   6.187  0.0167  0.4210 -0.6392
  940MOL0     H29714   7.459   9.956   6.429 -1.5154  1.6934  1.0142
  940MOL0     H29715   7.376   9.878   6.296  1.0901 -0.6865 -0.8721
  940MOL0     H29716   7.091  10.163   6.431 -2.3697 -2.1158 -0.2673
  940MOL0     H29717   7.927   9.970   6.263 -2.4185  1.3363  0.5359
  940MOL0     H29718   8.116   9.856   6.167  0.0627  4.0445  2.7798
  940MOL0     H29719   8.212   9.814   6.309 -1.4436  2.5874  0.5418
  940MOL0     H29720   8.125   9.680   6.225 -0.1406  0.1978 -0.8667
  941MOL0     O29721   7.787   6.350   1.145 -0.7922 -0.9249  0.0853
  941MOL0     C29722   7.788   6.332   1.268 -0.9012 -0.1032 -0.2713
  941MOL0     O29723   7.860   6.395   1.361 -0.2940 -0.9044 -0.3589
  941MOL0     C29724   7.969   6.475   1.330 -0.9020  0.2221  0.3026
  941MOL0     C29725   7.957   6.613   1.360 -0.2980  0.6144 -0.2868
  941MOL0     C29726   8.057   6.703   1.323 -0.1827 -0.2917 -1.3750
  941MOL0     C29727   8.179   6.656   1.266  0.5958  0.3511  0.2396
  941MOL0     O29728   8.286   6.732   1.230 -0.4384 -0.4901  0.3149
  941MOL0     C29729   8.322   6.842   1.304 -0.8837  0.9903 -0.1171
  941MOL0     C29730   8.469   6.890   1.281  0.4602  0.0432  0.3670
  941MOL0     C29731   8.510   6.976   1.406  0.1459 -0.8454 -0.8729
  941MOL0     C29732   8.665   7.011   1.403 -0.1595  0.3739  0.1898
  941MOL0     C29733   8.702   7.117   1.505 -0.0863  0.6228  0.1510
  941MOL0     C29734   8.696   7.077   1.649 -0.4035 -0.0824  0.4637
  941MOL0     C29735   8.817   7.003   1.689 -0.5240 -0.5258 -1.0675
  941MOL0     C29736   8.826   6.978   1.846  0.2169 -0.4492  0.2182
  941MOL0     N29737   8.941   6.888   1.885 -0.5134 -0.1541  0.0603
  941MOL0     C29738   9.063   6.921   1.941 -1.0521 -0.6972  0.3129
  941MOL0     C29739   9.119   6.799   1.980  0.0612 -0.8690 -0.6923
  941MOL0     C29740   9.253   6.776   2.030 -0.3254  1.1942 -0.4608
  941MOL0     C29741   9.267   6.728   2.180 -0.4080 -0.0870  0.4292
  941MOL0     C29742   9.217   6.588   2.220  0.1271  0.9663  0.2289
  941MOL0     C29743   9.238   6.554   2.366  0.6776  0.4582 -0.8596
  941MOL0     O29744   9.273   6.414   2.384 -0.5377  0.5025 -0.0823
  941MOL0     C29745   9.291   6.360   2.511 -0.0817  0.4336 -0.2189
  941MOL0     C29746   9.279   6.442   2.628  0.7703  0.6764 -0.2173
  941MOL0     C29747   9.301   6.388   2.757 -0.0790 -0.1287 -0.7118
  941MOL0     C29748   9.283   6.478   2.867 -0.2991  0.2686  0.0604
  941MOL0     C29749   9.345   6.253   2.766 -0.3179 -0.7033 -0.4637
  941MOL0     C29750   9.387   6.191   2.893  0.1660 -0.3405 -0.7541
  941MOL0     O29751   9.341   6.067   2.913 -0.8441 -0.0308 -0.7665
  941MOL0     C29752   9.381   6.016   3.036 -0.3386 -0.5609  0.2686
  941MOL0     C29753   9.474   5.914   3.038 -0.0744 -0.8140 -0.3346
  941MOL0     C29754   9.504   5.857   3.162 -0.0369  0.0050  0.6347
  941MOL0     C29755   9.422   5.888   3.271 -0.8860  0.9233 -0.5403
  941MOL0     O29756   9.438   5.838   3.395 -0.3547 -0.0382 -0.4415
  941MOL0     C29757   9.566   5.773   3.427  0.8742 -0.3810 -0.2405
  941MOL0     C29758   9.544   5.637   3.483  0.3065 -0.3695 -0.2017
  941MOL0     C29759   9.675   5.561   3.503  0.3743  0.0946  0.2213
  941MOL0     C29760   9.776   5.645   3.589 -0.2037 -0.0974 -0.0728
  941MOL0     C29761   9.820   5.583   3.715  0.7455  1.0578  0.2269
  941MOL0     C29762   9.932   5.477   3.705 -0.3146 -0.5207 -0.8828
  941MOL0     C29763   9.987   5.438   3.841 -0.2585  0.9069 -0.1007
  941MOL0     C29764   9.873   5.368   3.927  0.1535  0.2616  0.2844
  941MOL0    Cl29765   9.808   5.218   3.847  0.0600 -0.6331 -0.0675
  941MOL0     C29766   9.329   5.986   3.268  0.2400  0.2911 -0.2102
  941MOL0     C29767   9.318   6.054   3.152  0.1622 -0.9024 -0.0948
  941MOL0     O29768   9.459   6.256   2.975 -0.2468  0.5072 -0.1699
  941MOL0     C29769   9.345   6.172   2.656  0.9234 -0.0706  0.4556
  941MOL0     C29770   9.320   6.228   2.529 -0.4797  0.5440  0.0440
  941MOL0     N29771   9.025   6.702   1.951 -0.6226  0.4258 -0.0044
  941MOL0     N29772   8.926   6.755   1.891  0.9788 -0.1547 -0.7946
  941MOL0     C29773   8.194   6.513   1.235 -0.0546 -0.0206  0.1868
  941MOL0     C29774   8.088   6.425   1.265 -0.5677 -0.5380  0.2118
  941MOL0     C29775   7.667   6.259   1.319 -0.0932  0.7607  0.0795
  941MOL0     C29776   7.580   6.323   1.410 -0.0596  0.5192 -0.2618
  941MOL0     C29777   7.472   6.254   1.456 -0.7804  0.2447 -0.2386
  941MOL0     C29778   7.432   6.124   1.413  0.1868  0.1773 -0.2904
  941MOL0     O29779   7.325   6.047   1.454 -0.0921  0.2898  0.2578
  941MOL0     C29780   7.251   6.095   1.564  0.1420  0.4955 -0.2720
  941MOL0     C29781   7.141   6.001   1.611  0.2799  0.1139 -0.0746
  941MOL0     C29782   7.011   5.989   1.529  0.3346  0.4621  0.0263
  941MOL0     C29783   6.935   5.858   1.551 -0.2518 -0.5230  0.3452
  941MOL0     C29784   6.860   5.863   1.677 -0.0899 -1.0819 -0.0881
  941MOL0     C29785   6.802   5.888   1.780 -0.1214  0.7987  0.6831
  941MOL0     C29786   7.522   6.059   1.329  0.3437  0.1544 -0.0224
  941MOL0     C29787   7.634   6.125   1.273  0.9013 -0.7065 -0.4441
  941MOL0     C29788   7.721   6.046   1.189 -0.5361  0.7344  0.9876
  941MOL0     H29789   7.862   6.655   1.391 -1.8838 -3.2284  0.6517
  941MOL0     H29790   8.042   6.809   1.340  1.9399  0.0149 -1.1283
  941MOL0     H29791   8.317   6.824   1.412  3.5013 -0.4475  0.0612
  941MOL0     H29792   8.245   6.915   1.278 -0.9478  1.2671  0.7979
  941MOL0     H29793   8.551   6.820   1.264 -0.3394 -1.0607  0.8856
  941MOL0     H29794   8.469   6.952   1.191  2.2948 -2.0497 -1.1850
  941MOL0     H29795   8.451   7.068   1.398  2.1427  0.4673 -1.3893
  941MOL0     H29796   8.483   6.927   1.500  1.3075 -2.2323 -1.2216
  941MOL0     H29797   8.712   6.914   1.415 -3.0062 -0.9595  1.6702
  941MOL0     H29798   8.686   7.060   1.308 -2.7819  2.0443  0.3453
  941MOL0     H29799   8.625   7.194   1.492 -0.1985  0.6511  0.9675
  941MOL0     H29800   8.802   7.155   1.485 -0.6719  2.3684  0.3961
  941MOL0     H29801   8.689   7.171   1.705  2.8400  0.1246  0.7232
  941MOL0     H29802   8.611   7.011   1.669 -1.4561  1.5536  1.6782
  941MOL0     H29803   8.905   7.062   1.661  0.0843  0.3920  2.3782
  941MOL0     H29804   8.820   6.903   1.645  2.4694 -1.4082  0.8889
  941MOL0     H29805   8.841   7.081   1.878 -0.3594 -0.7598  1.5806
  941MOL0     H29806   8.737   6.933   1.890 -0.4661  1.6235  1.0870
  941MOL0     H29807   9.106   7.020   1.941 -1.1703 -0.6446 -0.1435
  941MOL0     H29808   9.323   6.858   2.012  1.9528 -0.4325  0.4584
  941MOL0     H29809   9.297   6.704   1.961  0.8651  2.5085 -1.1284
  941MOL0     H29810   9.368   6.742   2.220  0.8631 -4.0741 -0.9073
  941MOL0     H29811   9.223   6.801   2.249  1.6619  1.3484  0.2917
  941MOL0     H29812   9.113   6.575   2.189 -0.1726  1.1023  1.1464
  941MOL0     H29813   9.273   6.514   2.162 -1.0059  1.2703 -1.3091
  941MOL0     H29814   9.305   6.625   2.415 -2.0829  2.2882  0.5604
  941MOL0     H29815   9.148   6.575   2.425 -0.7260 -1.4350 -2.1993
  941MOL0     H29816   9.245   6.545   2.619 -0.7381  0.8191  4.4513
  941MOL0     H29817   9.272   6.579   2.826  2.2772  0.8926  0.7683
  941MOL0     H29818   9.368   6.477   2.935 -1.1940 -1.1565  1.2353
  941MOL0     H29819   9.201   6.446   2.932 -0.0407 -2.7821 -0.9276
  941MOL0     H29820   9.517   5.879   2.945  0.2679 -2.3857  0.3718
  941MOL0     H29821   9.583   5.785   3.142 -0.3371  0.4030 -2.6764
  941MOL0     H29822   9.637   5.767   3.345 -3.0402 -3.0105 -3.8914
  941MOL0     H29823   9.613   5.835   3.504 -1.6681  0.0965  1.0692
  941MOL0     H29824   9.490   5.649   3.577 -1.5145 -2.1574 -0.9409
  941MOL0     H29825   9.471   5.588   3.418 -0.1584  0.2981 -0.1819
  941MOL0     H29826   9.714   5.551   3.401 -0.5000 -0.6210 -0.0592
  941MOL0     H29827   9.651   5.466   3.551 -3.0169  1.7007  2.0519
  941MOL0     H29828   9.739   5.744   3.618 -0.1206  0.3711 -1.4784
  941MOL0     H29829   9.861   5.658   3.520 -1.9259  0.6545 -2.1803
  941MOL0     H29830   9.845   5.670   3.776 -6.0108  2.1806  2.2955
  941MOL0     H29831   9.735   5.542   3.771  1.2831  0.8756  0.9195
  941MOL0     H29832  10.014   5.511   3.640 -0.2271  0.2482 -0.3916
  941MOL0     H29833   9.893   5.384   3.663  1.9587 -0.9818 -2.1484
  941MOL0     H29834  10.031   5.523   3.894  1.8305 -0.4930  0.5084
  941MOL0     H29835  10.075   5.375   3.827  0.9641  1.5795  3.4355
  941MOL0     H29836   9.804   5.446   3.960 -0.6324 -1.2394  2.3869
  941MOL0     H29837   9.914   5.333   4.022  2.3802 -1.4578 -1.2230
  941MOL0     H29838   9.253   5.995   3.344  0.7160 -1.7250  0.5638
  941MOL0     H29839   9.232   6.120   3.145  1.4197  0.7218 -0.6832
  941MOL0     H29840   9.375   6.068   2.662 -0.0830 -0.3248  1.4508
  941MOL0     H29841   9.334   6.173   2.437  0.3630 -2.8175  2.0166
  941MOL0     H29842   8.287   6.485   1.186  0.2887 -0.8191  1.2640
  941MOL0     H29843   8.096   6.323   1.231  0.2417  0.2228 -2.0666
  941MOL0     H29844   7.602   6.419   1.455  0.7370 -1.9761  5.5174
  941MOL0     H29845   7.403   6.308   1.520  0.7599 -0.5030  2.1666
  941MOL0     H29846   7.321   6.111   1.647  0.8444  2.2979 -1.1709
  941MOL0     H29847   7.202   6.192   1.550  2.0602  1.4784 -0.4578
  941MOL0     H29848   7.115   6.038   1.711  2.2917  0.4219  0.3697
  941MOL0     H29849   7.183   5.900   1.608  0.4131  0.1675 -0.0004
  941MOL0     H29850   6.954   6.082   1.542 -1.3172 -0.2729 -1.5643
  941MOL0     H29851   7.054   6.003   1.429 -0.6305 -0.7234 -0.5745
  941MOL0     H29852   6.999   5.770   1.542  0.2179 -0.1901  0.4126
  941MOL0     H29853   6.861   5.858   1.470 -1.3414  0.1243  1.3154
  941MOL0     H29854   6.744   5.908   1.868 -0.2394  0.5720  0.6563
  941MOL0     H29855   7.505   5.958   1.292 -1.1820  0.4562 -0.2282
  941MOL0     H29856   7.685   5.944   1.173 -1.1619  1.4030 -3.1718
  941MOL0     H29857   7.726   6.080   1.085  1.0066 -0.8277  0.4993
  941MOL0     H29858   7.824   6.054   1.226 -0.0946 -1.5175  0.3804
  942MOL0     O29859   5.232   8.232   3.755  0.4967 -0.2794  0.4299
  942MOL0     C29860   5.221   8.118   3.707  0.2111  0.4368  0.1510
  942MOL0     O29861   5.293   8.001   3.745 -0.2951 -0.5188  0.3489
  942MOL0     C29862   5.364   8.007   3.865 -0.0532 -0.1778  0.7131
  942MOL0     C29863   5.311   7.937   3.972 -0.3190 -0.6024 -0.2577
  942MOL0     C29864   5.387   7.920   4.085  0.9423  0.0993 -0.1116
  942MOL0     C29865   5.509   7.977   4.109 -0.8631  0.9154 -0.4864
  942MOL0     O29866   5.577   7.949   4.232 -0.3613 -0.2911  0.2280
  942MOL0     C29867   5.691   8.021   4.256 -0.3700  0.1777 -0.6436
  942MOL0     C29868   5.724   7.997   4.404 -0.7429 -0.2726 -0.2180
  942MOL0     C29869   5.816   8.106   4.468  0.2094 -0.1349  0.5520
  942MOL0     C29870   5.883   8.048   4.600  0.2238 -0.3400  0.0846
  942MOL0     C29871   5.779   8.026   4.720  0.8581 -0.2376  0.7051
  942MOL0     C29872   5.858   7.995   4.844 -0.1035 -0.8008  0.0408
  942MOL0     C29873   5.757   7.954   4.946 -0.2910 -0.1266  0.2531
  942MOL0     C29874   5.648   8.052   4.988 -0.5471  0.1919  0.6012
  942MOL0     N29875   5.603   8.028   5.124  0.3397 -0.2648  0.0973
  942MOL0     C29876   5.673   8.063   5.236 -0.7747  0.2906  0.2444
  942MOL0     C29877   5.586   8.033   5.329 -0.7628 -0.5472 -0.5401
  942MOL0     C29878   5.607   8.050   5.480 -0.1370  0.7295  0.3709
  942MOL0     C29879   5.616   8.199   5.509 -0.7820  0.0047 -0.1807
  942MOL0     C29880   5.687   8.209   5.643  0.7644  0.0726  0.1505
  942MOL0     C29881   5.714   8.358   5.677  0.7135 -0.7523 -0.5848
  942MOL0     O29882   5.707   8.379   5.821 -0.2330  0.5111 -0.1343
  942MOL0     C29883   5.805   8.319   5.892  0.5687 -0.2364 -0.5085
  942MOL0     C29884   5.791   8.305   6.032  0.4219  0.8659  0.2647
  942MOL0     C29885   5.886   8.261   6.129  0.6454  0.4777 -0.0149
  942MOL0     C29886   5.845   8.264   6.271 -0.3631 -0.4211 -0.1277
  942MOL0     C29887   6.006   8.212   6.083 -0.1752 -0.4334  0.3465
  942MOL0     C29888   6.116   8.148   6.168  0.7830  0.4019  0.6940
  942MOL0     O29889   6.237   8.188   6.148  0.2071  0.5841  0.3955
  942MOL0     C29890   6.331   8.134   6.222 -0.0250  0.1136  0.3679
  942MOL0     C29891   6.372   8.007   6.201 -0.3316 -0.2427  0.7129
  942MOL0     C29892   6.478   7.946   6.264  0.6281 -0.6390 -0.0662
  942MOL0     C29893   6.543   8.015   6.365 -1.2923  0.4330 -0.3274
  942MOL0     O29894   6.660   7.959   6.406  0.5894 -0.6798 -0.1033
  942MOL0     C29895   6.718   8.019   6.523 -0.1855  0.4953  0.4961
  942MOL0     C29896   6.806   7.927   6.601  0.0540 -0.0133  0.3369
  942MOL0     C29897   6.925   7.871   6.518  0.2289 -0.8449 -0.7013
  942MOL0     C29898   7.030   7.791   6.602  0.0251 -0.2036  0.4763
  942MOL0     C29899   7.094   7.866   6.725 -0.3201 -1.1503  0.3306
  942MOL0     C29900   7.215   7.803   6.782 -0.4406 -0.0851  0.0681
  942MOL0     C29901   7.332   7.847   6.695 -0.0606 -1.0632 -0.0422
  942MOL0     C29902   7.464   7.778   6.717  1.0669 -0.1608 -0.1688
  942MOL0    Cl29903   7.547   7.836   6.857  0.0965 -0.0131  0.0096
  942MOL0     C29904   6.506   8.147   6.399  0.2295  0.3466 -0.3560
  942MOL0     C29905   6.403   8.206   6.317 -0.1808 -0.3781 -1.4516
  942MOL0     O29906   6.076   8.072   6.262  0.0685  0.4631 -0.1534
  942MOL0     C29907   6.029   8.241   5.944 -0.2993  0.0744  0.6083
  942MOL0     C29908   5.937   8.290   5.851 -0.6686 -0.1707 -0.7995
  942MOL0     N29909   5.468   7.979   5.278  0.4873 -0.1380  0.1616
  942MOL0     N29910   5.480   7.984   5.149 -0.8108  0.5320  0.0228
  942MOL0     C29911   5.549   8.070   4.004 -0.1092 -0.5949  0.5685
  942MOL0     C29912   5.487   8.069   3.882 -0.1159 -0.5648 -0.3445
  942MOL0     C29913   5.120   8.109   3.599 -0.6305  0.3008 -0.6983
  942MOL0     C29914   5.006   8.203   3.612  0.3832 -0.5141 -0.0217
  942MOL0     C29915   4.902   8.202   3.520 -0.1241 -0.4141  0.3877
  942MOL0     C29916   4.898   8.117   3.412 -0.0026  0.5360 -0.0384
  942MOL0     O29917   4.786   8.106   3.325  0.0332  0.8815  0.6841
  942MOL0     C29918   4.701   8.221   3.313 -0.3282 -0.1772  0.0708
  942MOL0     C29919   4.774   8.336   3.231  0.0206  0.2635  0.3885
  942MOL0     C29920   4.804   8.278   3.080  0.3748  0.1466  0.0193
  942MOL0     C29921   4.865   8.373   2.995  0.2806 -0.1144 -0.3124
  942MOL0     C29922   4.890   8.321   2.861 -0.3235  0.9085  0.6028
  942MOL0     C29923   4.887   8.274   2.748  1.1563 -0.2028 -0.0697
  942MOL0     C29924   4.999   8.021   3.406  0.0055  0.7939  0.7993
  942MOL0     C29925   5.109   8.014   3.496 -0.8083  0.0617  0.0032
  942MOL0     C29926   5.217   7.913   3.474 -1.1466 -0.4446  0.2837
  942MOL0     H29927   5.227   7.869   3.969 -0.4899 -0.4988  1.3635
  942MOL0     H29928   5.349   7.853   4.162  0.7777 -0.2101 -0.4575
  942MOL0     H29929   5.674   8.127   4.235 -0.8819 -0.1660 -2.0627
  942MOL0     H29930   5.780   7.992   4.198 -0.9100  0.0130 -1.3979
  942MOL0     H29931   5.630   7.994   4.461 -1.1599 -1.6442 -0.9271
  942MOL0     H29932   5.777   7.901   4.403 -0.1114  0.0514 -2.2896
  942MOL0     H29933   5.890   8.131   4.391 -1.2133 -0.4940 -0.9828
  942MOL0     H29934   5.762   8.197   4.494 -0.0027  0.0121 -0.3600
  942MOL0     H29935   5.932   7.955   4.570  0.8043 -0.4264  1.2562
  942MOL0     H29936   5.964   8.112   4.635 -0.0335  0.1013 -0.1217
  942MOL0     H29937   5.706   7.950   4.690  2.1014 -0.6437 -1.5559
  942MOL0     H29938   5.719   8.117   4.721  1.8230  0.4921 -1.5549
  942MOL0     H29939   5.928   7.914   4.824  0.8995  0.3047 -1.1368
  942MOL0     H29940   5.916   8.085   4.864 -0.4435 -0.0888 -1.9355
  942MOL0     H29941   5.818   7.927   5.033  1.1548  1.1296 -0.3248
  942MOL0     H29942   5.708   7.859   4.920 -0.4672 -0.8540  2.9779
  942MOL0     H29943   5.694   8.152   4.985  1.0135 -0.5241 -0.7750
  942MOL0     H29944   5.564   8.045   4.918 -0.9568 -0.4746  1.1541
  942MOL0     H29945   5.766   8.110   5.265 -2.4691  2.0637  3.2650
  942MOL0     H29946   5.704   8.001   5.495  1.6760  2.6011 -3.7145
  942MOL0     H29947   5.526   7.993   5.526  0.2751 -0.3856 -0.2408
  942MOL0     H29948   5.664   8.251   5.425 -3.2396  2.0117 -0.4689
  942MOL0     H29949   5.517   8.246   5.519 -1.5648 -1.5264 -0.4981
  942MOL0     H29950   5.623   8.159   5.716  1.4791 -0.2008  0.6069
  942MOL0     H29951   5.778   8.148   5.644 -0.3044 -1.5603  0.5112
  942MOL0     H29952   5.813   8.392   5.645  0.8733  1.1034  1.6216
  942MOL0     H29953   5.650   8.430   5.625  1.6846  0.9483  0.4712
  942MOL0     H29954   5.693   8.343   6.060 -0.9722 -1.1971 -1.4553
  942MOL0     H29955   5.786   8.183   6.316 -0.1851  0.3949  1.6534
  942MOL0     H29956   5.783   8.353   6.287  0.0918 -0.2391  0.6605
  942MOL0     H29957   5.928   8.271   6.342  0.3253  1.7834 -1.0746
  942MOL0     H29958   6.343   7.962   6.106  4.1702 -0.3901 -0.8337
  942MOL0     H29959   6.524   7.855   6.226 -1.5366 -2.4637  1.3875
  942MOL0     H29960   6.767   8.114   6.503 -0.7451  0.3322 -1.9784
  942MOL0     H29961   6.630   8.038   6.586 -0.6269 -0.6190  0.2535
  942MOL0     H29962   6.852   7.984   6.681  1.8930 -0.4161 -0.3698
  942MOL0     H29963   6.750   7.847   6.650  3.2347 -1.6637  1.5684
  942MOL0     H29964   6.995   7.946   6.481  1.0055 -2.0703 -1.8113
  942MOL0     H29965   6.879   7.808   6.441  0.5053 -2.1079  0.1379
  942MOL0     H29966   7.107   7.758   6.532  0.6862 -2.2545  2.0591
  942MOL0     H29967   6.986   7.697   6.637 -0.8750  0.6461  1.7515
  942MOL0     H29968   7.121   7.968   6.697  4.7687 -2.2875  0.1279
  942MOL0     H29969   7.016   7.882   6.799 -2.2402  3.8512 -2.3155
  942MOL0     H29970   7.218   7.694   6.778 -3.6818 -0.3367 -4.4474
  942MOL0     H29971   7.236   7.842   6.882 -2.3277 -1.3843  1.0505
  942MOL0     H29972   7.345   7.954   6.712  2.3769 -1.3095 -0.0517
  942MOL0     H29973   7.297   7.831   6.593  0.5367  0.7025 -0.5580
  942MOL0     H29974   7.530   7.795   6.631 -0.2201 -0.6947 -1.3007
  942MOL0     H29975   7.446   7.671   6.734 -0.3316 -0.2425 -1.8944
  942MOL0     H29976   6.551   8.207   6.477  1.9619 -1.4745  0.1449
  942MOL0     H29977   6.387   8.312   6.337  1.2327 -0.4277  0.1936
  942MOL0     H29978   6.124   8.214   5.899  0.8914  1.2648  2.3006
  942MOL0     H29979   5.990   8.317   5.761  1.4530 -1.2079  0.0755
  942MOL0     H29980   5.632   8.139   4.007  1.1478 -1.9734  5.0488
  942MOL0     H29981   5.525   8.124   3.796 -1.4948  0.8324 -0.1074
  942MOL0     H29982   4.978   8.268   3.694 -0.1779 -0.5682 -0.1652
  942MOL0     H29983   4.818   8.264   3.549  0.6436  1.3520 -0.9576
  942MOL0     H29984   4.616   8.196   3.248 -0.8839 -0.1787  0.7798
  942MOL0     H29985   4.662   8.253   3.410  1.4520 -2.5873  1.7196
  942MOL0     H29986   4.864   8.374   3.279  0.0382 -2.2012  2.5567
  942MOL0     H29987   4.701   8.418   3.228 -0.5979 -0.2633  0.6153
  942MOL0     H29988   4.865   8.187   3.083 -0.8241 -0.6551  1.2730
  942MOL0     H29989   4.711   8.242   3.037  0.4449 -0.9322  0.7390
  942MOL0     H29990   4.956   8.412   3.044  0.7173 -2.2084  0.6327
  942MOL0     H29991   4.787   8.450   2.992  1.3476  1.0789  0.6899
  942MOL0     H29992   4.863   8.242   2.649  2.1016  1.4224 -0.8701
  942MOL0     H29993   5.008   7.952   3.323  0.0645 -0.0553  1.4897
  942MOL0     H29994   5.242   7.863   3.568  1.4998 -1.0224 -0.6294
  942MOL0     H29995   5.192   7.847   3.390 -0.1698 -0.8036  0.2594
  942MOL0     H29996   5.313   7.961   3.451 -0.1905 -1.8898  1.0488
  943MOL0     O29997  11.101   8.682   8.011  0.0839 -0.3821  0.0290
  943MOL0     C29998  11.203   8.688   8.069 -0.6921 -0.5911  1.2337
  943MOL0     O29999  11.223   8.741   8.191 -0.9693  1.2134 -0.1083
  943MOL0     C30000  11.139   8.805   8.272  0.7531  0.3452 -0.4726
  943MOL0     C30001  11.185   8.910   8.342  0.6165 -0.2593  0.0538
  943MOL0     C30002  11.105   8.970   8.439  0.5369 -0.1782 -0.5782
  943MOL0     C30003  10.971   8.937   8.462  0.2507  0.3197 -0.8382
  943MOL0     O30004  10.908   8.993   8.569  0.5710 -0.0778  0.1348
  943MOL0     C30005  10.767   8.983   8.567 -0.1680 -0.5541 -0.0847
  943MOL0     C30006  10.714   9.056   8.696  0.2604  0.4301 -0.1766
  943MOL0     C30007  10.551   9.038   8.712 -0.9323  0.0810 -0.1369
  943MOL0     C30008  10.479   9.128   8.808 -0.1919 -0.1040 -0.7323
  943MOL0     C30009  10.540   9.108   8.943 -0.2083  0.3899  0.0196
  943MOL0     C30010  10.485   9.212   9.051 -0.1259  0.5631  0.7832
  943MOL0     C30011  10.347   9.182   9.097 -0.1799  0.9731 -0.6510
  943MOL0     C30012  10.297   9.305   9.177 -0.3102  0.2698  0.8101
  943MOL0     N30013  10.150   9.296   9.211 -0.4037  0.2049  0.0105
  943MOL0     C30014  10.042   9.258   9.123 -0.6519 -0.4205 -0.2837
  943MOL0     C30015   9.928   9.275   9.197  0.2854 -0.5123  0.5169
  943MOL0     C30016   9.788   9.242   9.162  0.1019  0.0490  0.3582
  943MOL0     C30017   9.737   9.323   9.035  0.0741  0.2082 -0.2721
  943MOL0     C30018   9.603   9.274   8.973  0.6520 -0.0895  0.4689
  943MOL0     C30019   9.487   9.268   9.067  0.4097 -0.0758 -0.7431
  943MOL0     O30020   9.454   9.393   9.129 -0.2635 -0.3375  1.2768
  943MOL0     C30021   9.314   9.421   9.119  0.1411  0.2763  0.1319
  943MOL0     C30022   9.261   9.514   9.029  0.0484  0.3399  0.0069
  943MOL0     C30023   9.122   9.537   9.037 -0.8049 -0.3426 -0.1812
  943MOL0     C30024   9.063   9.608   8.911 -1.2746  0.4562  0.7142
  943MOL0     C30025   9.044   9.490   9.149  0.1904  0.3769  1.2309
  943MOL0     C30026   8.906   9.540   9.161  0.7805 -0.8600 -0.2650
  943MOL0     O30027   8.831   9.454   9.239  0.1809 -0.1947 -0.5166
  943MOL0     C30028   8.696   9.467   9.263  0.0945 -0.1941  0.4255
  943MOL0     C30029   8.604   9.536   9.183 -0.1630  0.4963  0.8900
  943MOL0     C30030   8.474   9.553   9.235 -0.5055 -0.1999 -1.1771
  943MOL0     C30031   8.434   9.508   9.355  1.1337 -0.8804 -0.6053
  943MOL0     O30032   8.316   9.552   9.410 -0.4334  0.0219  0.3630
  943MOL0     C30033   8.273   9.504   9.543  0.1005  0.5800 -0.5217
  943MOL0     C30034   8.135   9.558   9.584 -0.2874 -0.1309  0.7851
  943MOL0     C30035   8.042   9.508   9.472 -0.3656  0.1304  0.0778
  943MOL0     C30036   7.897   9.524   9.532  0.3215  0.2144 -0.5831
  943MOL0     C30037   7.802   9.453   9.438  0.2638 -0.3302 -0.5598
  943MOL0     C30038   7.661   9.495   9.479  0.7400  0.2083 -0.0157
  943MOL0     C30039   7.557   9.435   9.389 -0.4226  0.5968  0.8610
  943MOL0     C30040   7.418   9.477   9.434 -0.2580 -0.1818 -0.1681
  943MOL0    Cl30041   7.387   9.429   9.604 -0.2963  0.0073  0.2524
  943MOL0     C30042   8.517   9.420   9.419 -0.5164  0.5802 -0.0031
  943MOL0     C30043   8.650   9.412   9.377 -0.0376  1.0456 -0.4916
  943MOL0     O30044   8.856   9.637   9.097  0.2097 -0.1669 -0.5564
  943MOL0     C30045   9.105   9.403   9.238 -0.4070  0.1364 -0.2459
  943MOL0     C30046   9.237   9.365   9.220 -0.9193  0.2212 -0.2547
  943MOL0     N30047   9.967   9.318   9.327 -0.1473 -0.2576 -0.3275
  943MOL0     N30048  10.097   9.331   9.332  0.7875 -0.2457 -0.1225
  943MOL0     C30049  10.920   8.826   8.388  1.0674  0.0667 -0.3183
  943MOL0     C30050  11.005   8.766   8.291 -0.2922  0.4318  0.1828
  943MOL0     C30051  11.315   8.610   7.996  0.1377  1.0844  0.1735
  943MOL0     C30052  11.341   8.636   7.860 -0.4423  0.3564 -0.1107
  943MOL0     C30053  11.429   8.555   7.793 -0.3200  0.1149 -0.3230
  943MOL0     C30054  11.506   8.450   7.856  1.0293  0.0735  0.4176
  943MOL0     O30055  11.602   8.369   7.792 -0.0335 -0.0283  0.1057
  943MOL0     C30056  11.638   8.405   7.654  0.6279 -0.2618 -0.1708
  943MOL0     C30057  11.734   8.522   7.636  0.0817  0.4343 -0.3972
  943MOL0     C30058  11.878   8.480   7.668  0.8520 -0.3076 -0.6829
  943MOL0     C30059  11.967   8.601   7.657  0.6459  0.2455 -0.3478
  943MOL0     C30060  12.106   8.583   7.696  0.8924  0.2288 -0.2439
  943MOL0     C30061  12.224   8.577   7.728  0.5058 -0.7950 -0.6914
  943MOL0     C30062  11.495   8.439   7.992 -0.0284 -0.1493  0.3583
  943MOL0     C30063  11.396   8.514   8.068 -0.1978 -0.0023 -0.0923
  943MOL0     C30064  11.371   8.496   8.207  0.6025  0.0496 -0.8943
  943MOL0     H30065  11.288   8.939   8.328 -0.0849  1.4462 -2.3551
  943MOL0     H30066  11.160   9.040   8.502 -1.2113  2.0516 -1.3866
  943MOL0     H30067  10.745   8.876   8.573  0.4310 -0.6591  0.3521
  943MOL0     H30068  10.717   9.028   8.481  2.3217  2.0193 -0.3643
  943MOL0     H30069  10.758   9.005   8.782 -0.5438  1.2605  0.7578
  943MOL0     H30070  10.750   9.160   8.693  2.0209 -0.1536 -0.7322
  943MOL0     H30071  10.510   9.059   8.612 -1.7951  3.2143  0.7569
  943MOL0     H30072  10.540   8.930   8.721  0.4837 -0.1588 -0.9665
  943MOL0     H30073  10.480   9.233   8.778 -1.2757  0.2241  0.3026
  943MOL0     H30074  10.376   9.094   8.824  0.5345 -1.8166  0.6640
  943MOL0     H30075  10.648   9.122   8.942 -0.2232  0.5204 -1.1776
  943MOL0     H30076  10.519   9.004   8.967 -0.6244  0.3462 -0.5060
  943MOL0     H30077  10.555   9.216   9.135 -1.4020 -3.0810  2.2446
  943MOL0     H30078  10.493   9.312   9.007 -2.0799  0.7239  0.6994
  943MOL0     H30079  10.353   9.094   9.163  0.2681 -0.9716 -3.1559
  943MOL0     H30080  10.278   9.166   9.014  0.4229  0.2171 -1.0237
  943MOL0     H30081  10.340   9.323   9.276 -1.6170  0.6942  1.3236
  943MOL0     H30082  10.319   9.398   9.123  0.1387 -0.6654 -0.6795
  943MOL0     H30083  10.049   9.223   9.020 -0.6467  0.6066 -0.6432
  943MOL0     H30084   9.735   9.273   9.252  3.7596  1.1543  2.3618
  943MOL0     H30085   9.783   9.134   9.147  0.0073 -0.0451  1.0460
  943MOL0     H30086   9.719   9.423   9.076  0.1143  0.0086  0.2473
  943MOL0     H30087   9.814   9.329   8.957  0.5963  0.4129  0.2444
  943MOL0     H30088   9.572   9.328   8.883  4.0725 -3.3595 -3.0482
  943MOL0     H30089   9.625   9.177   8.929  2.1397  0.4404 -0.0391
  943MOL0     H30090   9.399   9.238   9.008 -2.9490  1.8467  2.8395
  943MOL0     H30091   9.512   9.191   9.140  0.8696  3.7189  3.5493
  943MOL0     H30092   9.340   9.540   8.958 -1.7445 -0.3499 -2.3814
  943MOL0     H30093   9.126   9.593   8.823 -0.3561 -2.3594  1.7466
  943MOL0     H30094   9.056   9.716   8.926 -2.1812  0.6532 -0.9433
  943MOL0     H30095   8.965   9.564   8.893  0.3073 -2.6346 -1.1610
  943MOL0     H30096   8.628   9.570   9.083 -1.6144 -1.6397 -0.2640
  943MOL0     H30097   8.390   9.595   9.181  0.8949  0.4468 -2.9462
  943MOL0     H30098   8.274   9.395   9.548  1.3789  0.6179  2.0415
  943MOL0     H30099   8.335   9.532   9.629 -2.3296 -1.0310  1.9359
  943MOL0     H30100   8.105   9.511   9.678 -2.4678  1.5144  0.9788
  943MOL0     H30101   8.131   9.666   9.603 -4.0631  0.3418 -1.5955
  943MOL0     H30102   8.042   9.402   9.445 -3.7517 -0.0814  0.4958
  943MOL0     H30103   8.054   9.563   9.379 -1.0814 -0.1532 -0.1845
  943MOL0     H30104   7.868   9.629   9.537 -1.0012 -0.1355 -0.4673
  943MOL0     H30105   7.880   9.481   9.631  1.5159 -1.5635 -1.0950
  943MOL0     H30106   7.827   9.477   9.334  3.6823  1.5734  0.5451
  943MOL0     H30107   7.808   9.344   9.445 -0.7335 -0.3812 -0.3658
  943MOL0     H30108   7.649   9.604   9.481  0.1085  0.1999  3.3350
  943MOL0     H30109   7.648   9.463   9.583  1.6679 -1.5498 -0.4010
  943MOL0     H30110   7.571   9.327   9.378  0.5782  0.5256  2.5774
  943MOL0     H30111   7.577   9.472   9.288  2.4467 -2.3861  0.1352
  943MOL0     H30112   7.343   9.429   9.371 -2.1276  1.2130  0.9091
  943MOL0     H30113   7.422   9.585   9.416  0.3750 -0.1804 -0.0375
  943MOL0     H30114   8.494   9.366   9.511  2.2604 -0.3578  0.2387
  943MOL0     H30115   8.708   9.359   9.452  0.0688 -1.8081 -2.4085
  943MOL0     H30116   9.034   9.369   9.312  1.5460 -0.2377  1.5696
  943MOL0     H30117   9.289   9.294   9.284  1.0505  1.3073 -0.5478
  943MOL0     H30118  10.818   8.792   8.402  0.1312  2.9280  0.6994
  943MOL0     H30119  10.958   8.677   8.248 -1.1930  0.6270  0.7295
  943MOL0     H30120  11.297   8.712   7.796  0.0655  1.5214  0.8799
  943MOL0     H30121  11.424   8.568   7.686 -3.6484  0.9821 -0.1661
  943MOL0     H30122  11.675   8.319   7.597 -2.2106 -0.2016 -2.3508
  943MOL0     H30123  11.541   8.419   7.603 -0.0690  1.2144  1.4782
  943MOL0     H30124  11.701   8.597   7.709 -0.8390 -0.6916  0.3851
  943MOL0     H30125  11.717   8.556   7.534 -1.5490 -0.9438 -0.6257
  943MOL0     H30126  11.882   8.438   7.769  1.2933 -1.4178 -1.1380
  943MOL0     H30127  11.905   8.399   7.599 -1.7636 -0.6158 -1.4774
  943MOL0     H30128  11.918   8.674   7.722 -0.4037 -2.7101  2.4464
  943MOL0     H30129  11.961   8.626   7.550 -0.0375  4.4195  0.4734
  943MOL0     H30130  12.329   8.587   7.742  0.5476 -1.9540 -0.0875
  943MOL0     H30131  11.550   8.368   8.052 -2.6042 -0.1718  2.9178
  943MOL0     H30132  11.428   8.415   8.253  0.3600  0.3819  0.0150
  943MOL0     H30133  11.400   8.591   8.253 -3.8135  0.2878  1.9796
  943MOL0     H30134  11.265   8.482   8.230  1.2679 -0.5325  2.2808
  944MOL0     O30135   9.931   1.515   9.833 -0.8039 -0.6874 -0.3158
  944MOL0     C30136   9.915   1.442   9.923  0.4420 -0.4052 -0.7706
  944MOL0     O30137   9.997   1.330   9.949  0.4811 -0.7470 -0.1802
  944MOL0     C30138  10.133   1.327   9.913  0.3299 -0.0748  0.4283
  944MOL0     C30139  10.206   1.444   9.900  0.1155 -0.1606  0.9704
  944MOL0     C30140  10.338   1.430   9.857 -0.6115 -0.1124 -0.2590
  944MOL0     C30141  10.400   1.310   9.841  0.4992  0.8382  0.5759
  944MOL0     O30142  10.529   1.292   9.805 -0.1910  0.2264  0.1142
  944MOL0     C30143  10.623   1.390   9.869 -0.9151 -0.1963 -0.2653
  944MOL0     C30144  10.673   1.469   9.747  0.2251 -0.3977  0.5047
  944MOL0     C30145  10.784   1.575   9.788  0.5300  0.4339 -0.2906
  944MOL0     C30146  10.809   1.657   9.661 -0.2004  0.5825 -0.2387
  944MOL0     C30147  10.937   1.730   9.668 -0.3380  0.2630  0.8353
  944MOL0     C30148  10.973   1.836   9.553 -0.2771  0.6692 -0.2903
  944MOL0     C30149  10.995   1.762   9.422  0.3422  0.5750  0.1962
  944MOL0     C30150  10.982   1.861   9.305 -0.3357 -0.4134 -0.3905
  944MOL0     N30151  11.077   1.972   9.325 -0.7469  0.5374 -0.0813
  944MOL0     C30152  11.212   1.943   9.329  0.0717  0.0205 -0.5551
  944MOL0     C30153  11.264   2.060   9.386 -0.5808 -0.2793  0.8590
  944MOL0     C30154  11.405   2.105   9.409 -0.2687  0.0356 -0.0527
  944MOL0     C30155  11.507   2.065   9.308  0.4825  0.5122 -0.6864
  944MOL0     C30156  11.653   2.087   9.359 -0.2196 -0.2502 -0.0792
  944MOL0     C30157  11.756   2.076   9.243  0.5679 -0.7863  0.3953
  944MOL0     O30158  11.780   1.952   9.194 -0.4580 -0.1343  0.1201
  944MOL0     C30159  11.878   1.878   9.256 -0.1842 -0.1006 -0.0507
  944MOL0     C30160  11.930   1.780   9.177 -0.5711  1.0912  0.3129
  944MOL0     C30161  12.037   1.685   9.211  0.9339  0.0859  0.3646
  944MOL0     C30162  12.084   1.578   9.109  0.0968 -0.4753 -0.8790
  944MOL0     C30163  12.076   1.691   9.355 -0.8252 -0.6736  0.7774
  944MOL0     C30164  12.191   1.615   9.406  0.3803  0.1506  0.6049
  944MOL0     O30165  12.270   1.674   9.494 -0.4722 -0.6323  0.1368
  944MOL0     C30166  12.369   1.606   9.570 -0.9167 -0.3468  0.4182
  944MOL0     C30167  12.431   1.703   9.644 -0.7222 -0.4321 -0.0233
  944MOL0     C30168  12.524   1.668   9.736 -0.9172  0.7019  0.9071
  944MOL0     C30169  12.559   1.532   9.755 -0.0034 -0.1145 -0.2428
  944MOL0     O30170  12.647   1.496   9.850  0.3752  0.4903 -0.5308
  944MOL0     C30171  12.607   1.502   9.987  0.6027  0.5155  0.7635
  944MOL0     C30172  12.594   1.362  10.049 -0.0933 -0.2701 -0.7809
  944MOL0     C30173  12.724   1.273  10.023 -0.6944 -0.0636 -0.1551
  944MOL0     C30174  12.717   1.130  10.090 -0.2479 -0.2368  0.0443
  944MOL0     C30175  12.843   1.097  10.160  0.2618 -0.2195 -0.4195
  944MOL0     C30176  12.829   0.952  10.212 -0.0946 -0.5411 -0.2863
  944MOL0     C30177  12.960   0.921  10.292  0.3159 -0.0631 -0.3254
  944MOL0     C30178  12.956   0.768  10.319 -0.4576  0.5114 -0.7823
  944MOL0    Cl30179  13.010   0.678  10.182  0.0809  0.0226 -0.6183
  944MOL0     C30180  12.496   1.433   9.682 -0.1490  0.2431  0.8885
  944MOL0     C30181  12.399   1.469   9.586  0.2810 -0.2311 -0.1566
  944MOL0     O30182  12.199   1.495   9.373 -0.2973  0.3467 -0.0043
  944MOL0     C30183  12.028   1.799   9.433 -0.6400 -0.4709  0.0571
  944MOL0     C30184  11.936   1.895   9.389  0.1573  1.1188  0.9551
  944MOL0     N30185  11.158   2.134   9.429 -0.1162  0.1055  0.4629
  944MOL0     N30186  11.051   2.086   9.388  0.7140 -0.0973  0.9268
  944MOL0     C30187  10.321   1.194   9.858 -0.0245  0.2710  0.3663
  944MOL0     C30188  10.184   1.205   9.891  0.4734  0.9343  0.2167
  944MOL0     C30189   9.786   1.448  10.003 -0.0908  0.2757  0.2296
  944MOL0     C30190   9.735   1.320  10.050  0.1843  0.2462 -0.6966
  944MOL0     C30191   9.609   1.309  10.099  0.0036 -0.3081 -0.3181
  944MOL0     C30192   9.525   1.422  10.101 -0.1614  0.1241 -0.3444
  944MOL0     O30193   9.402   1.408  10.149  0.0418 -0.8068 -0.1222
  944MOL0     C30194   9.303   1.514  10.147 -0.1144  0.4726  0.0284
  944MOL0     C30195   9.284   1.606  10.264  0.5044  0.3458  0.7605
  944MOL0     C30196   9.288   1.525  10.398 -0.4730  0.6653  0.0138
  944MOL0     C30197   9.229   1.597  10.509 -0.2887 -0.3982 -0.2063
  944MOL0     C30198   9.231   1.522  10.639 -0.7758  0.1962 -0.1651
  944MOL0     C30199   9.212   1.453  10.735 -0.2546 -0.4295  0.2362
  944MOL0     C30200   9.584   1.547  10.072 -0.3628  0.1998  0.0875
  944MOL0     C30201   9.716   1.569  10.021  0.3164 -0.0060  0.2896
  944MOL0     C30202   9.778   1.716  10.015 -0.1674 -0.1531 -0.2418
  944MOL0     H30203  10.168   1.545   9.915 -1.0231  0.2465 -3.2368
  944MOL0     H30204  10.392   1.523   9.843 -2.2013  1.0749  1.0046
  944MOL0     H30205  10.704   1.341   9.925  0.3777  2.3794  0.2320
  944MOL0     H30206  10.587   1.467   9.938  2.4462  0.8631  0.4627
  944MOL0     H30207  10.717   1.408   9.668  0.5720  1.1621 -0.5484
  944MOL0     H30208  10.583   1.517   9.708 -0.2820  0.7931  2.9164
  944MOL0     H30209  10.758   1.644   9.869 -1.4082  0.9908 -1.3148
  944MOL0     H30210  10.876   1.527   9.822  1.1604  1.7029 -0.1698
  944MOL0     H30211  10.818   1.601   9.567  2.7586  1.4907 -0.5912
  944MOL0     H30212  10.723   1.723   9.645 -0.4567  0.3239  0.0547
  944MOL0     H30213  11.021   1.661   9.678  0.2749  0.6397 -1.3273
  944MOL0     H30214  10.933   1.788   9.761 -1.0034 -1.2513  1.8050
  944MOL0     H30215  10.892   1.909   9.560  0.1722  1.1558 -0.0863
  944MOL0     H30216  11.064   1.883   9.593  0.3739 -0.6848 -0.0972
  944MOL0     H30217  10.922   1.682   9.408  3.5781 -2.4202 -1.0845
  944MOL0     H30218  11.086   1.702   9.418 -1.1329 -1.7827  0.4064
  944MOL0     H30219  10.995   1.814   9.207 -2.6751 -0.3155 -0.8111
  944MOL0     H30220  10.882   1.908   9.304 -0.0716  0.1890  0.3077
  944MOL0     H30221  11.272   1.860   9.293  2.1817  1.8031 -1.3962
  944MOL0     H30222  11.434   2.076   9.510 -1.5233 -3.7654 -0.6218
  944MOL0     H30223  11.403   2.214   9.411 -0.0786  0.0335  0.3490
  944MOL0     H30224  11.504   1.956   9.299  0.2410  0.6185 -2.1872
  944MOL0     H30225  11.494   2.102   9.206  2.5028  2.4684 -0.2963
  944MOL0     H30226  11.662   2.188   9.398 -2.6474 -0.1158  0.2929
  944MOL0     H30227  11.686   2.013   9.432  1.1172 -0.3627 -0.7755
  944MOL0     H30228  11.735   2.132   9.151  2.9324 -2.0695 -1.0114
  944MOL0     H30229  11.841   2.124   9.292 -3.3288  1.4070  5.9576
  944MOL0     H30230  11.894   1.780   9.074 -0.4444 -2.4941  0.1521
  944MOL0     H30231  12.187   1.598   9.079  0.5988 -3.0943 -1.0786
  944MOL0     H30232  12.018   1.585   9.021 -3.4892  4.5061  1.7047
  944MOL0     H30233  12.072   1.481   9.156 -2.9781  1.0087  1.8030
  944MOL0     H30234  12.407   1.808   9.635  2.4331  0.3152 -0.9169
  944MOL0     H30235  12.579   1.749   9.782  1.8315  0.2192 -1.2587
  944MOL0     H30236  12.677   1.553  10.054 -0.3262 -0.0792  2.2492
  944MOL0     H30237  12.517   1.564   9.995  0.8938  0.8452  1.6258
  944MOL0     H30238  12.583   1.377  10.157 -3.0088  1.6447 -1.2333
  944MOL0     H30239  12.507   1.311  10.007  1.4347 -3.0567 -0.7699
  944MOL0     H30240  12.811   1.324  10.066 -2.1049  2.3218  0.0736
  944MOL0     H30241  12.734   1.266   9.914 -1.1452  0.5554 -0.2421
  944MOL0     H30242  12.668   1.056  10.026 -1.1973 -0.2973  0.8159
  944MOL0     H30243  12.644   1.133  10.171  1.3752  0.0072  1.5399
  944MOL0     H30244  12.926   1.100  10.088  2.6828  3.0658  2.1535
  944MOL0     H30245  12.862   1.177  10.232 -2.9959  0.2353  0.0813
  944MOL0     H30246  12.827   0.893  10.120  1.6516 -0.9526 -0.1100
  944MOL0     H30247  12.740   0.945  10.275 -1.4836  0.3410 -2.0583
  944MOL0     H30248  12.960   0.969  10.391  2.6812 -2.3560  0.9112
  944MOL0     H30249  13.055   0.945  10.242  0.6259 -0.9907 -0.2047
  944MOL0     H30250  12.863   0.725  10.358  0.2613  1.9601  3.0243
  944MOL0     H30251  13.040   0.752  10.388 -0.5790  1.7261 -0.3259
  944MOL0     H30252  12.508   1.327   9.697  2.1810  0.8496  4.3502
  944MOL0     H30253  12.339   1.392   9.539 -0.3201  0.6045 -0.8107
  944MOL0     H30254  12.057   1.814   9.537 -0.6144 -2.6971  0.4146
  944MOL0     H30255  11.902   1.971   9.459 -0.9830  0.3100  1.3042
  944MOL0     H30256  10.370   1.097   9.855 -0.3268  0.1270 -0.1111
  944MOL0     H30257  10.105   1.134   9.914  0.1026  1.0364 -0.6780
  944MOL0     H30258   9.785   1.225  10.038  1.4253  0.9738 -1.5009
  944MOL0     H30259   9.555   1.221  10.133  1.1392 -0.2698  1.7243
  944MOL0     H30260   9.321   1.576  10.058  1.3311  2.0823  1.3700
  944MOL0     H30261   9.211   1.457  10.131 -0.6934  1.7342 -1.3647
  944MOL0     H30262   9.193   1.667  10.258 -1.2981 -2.0806  1.9432
  944MOL0     H30263   9.362   1.684  10.267  2.1580 -1.2605  1.4942
  944MOL0     H30264   9.221   1.438  10.388  1.4292 -0.9047  0.3263
  944MOL0     H30265   9.389   1.492  10.424 -0.4395 -0.7540 -1.7218
  944MOL0     H30266   9.124   1.615  10.487  0.0246  2.1848  0.0957
  944MOL0     H30267   9.282   1.692  10.515  1.9136 -1.5591  0.2061
  944MOL0     H30268   9.207   1.398  10.827  0.9278  0.1946  0.6961
  944MOL0     H30269   9.523   1.636  10.087  0.2459  0.8471 -1.1508
  944MOL0     H30270   9.738   1.775  10.098 -2.3124 -0.6991 -0.8443
  944MOL0     H30271   9.888   1.712  10.013 -0.1730 -0.4624  0.0060
  944MOL0     H30272   9.758   1.762   9.918 -4.0750 -3.0161 -1.0301
  945MOL0     O30273   2.218   9.820   8.988 -0.1171  0.6023 -0.0284
  945MOL0     C30274   2.275   9.741   8.916  0.0482  0.1011 -0.0243
  945MOL0     O30275   2.371   9.770   8.823  0.2787 -0.0373  0.5386
  945MOL0     C30276   2.471   9.855   8.852 -0.4047 -0.5202  0.5680
  945MOL0     C30277   2.585   9.821   8.932  0.6052  0.3613  1.2604
  945MOL0     C30278   2.675   9.913   8.973 -0.1652 -0.1750 -0.1699
  945MOL0     C30279   2.673  10.047   8.931  0.3621  0.0502 -0.3180
  945MOL0     O30280   2.762  10.151   8.965 -0.0261  0.1775  0.3706
  945MOL0     C30281   2.868  10.114   9.049  0.2160  0.3530 -0.0040
  945MOL0     C30282   2.977  10.212   9.049  0.6359 -0.1834 -0.5411
  945MOL0     C30283   2.938  10.350   9.120  0.7151  0.4726 -0.3430
  945MOL0     C30284   3.064  10.418   9.156 -0.3092 -0.4517 -0.5076
  945MOL0     C30285   3.031  10.541   9.242 -0.9422 -0.0827  0.1898
  945MOL0     C30286   3.170  10.607   9.280 -0.4773 -0.3676  0.0109
  945MOL0     C30287   3.216  10.546   9.422 -0.4177  0.6039  0.7323
  945MOL0     C30288   3.368  10.550   9.432  0.6707  0.0453 -0.0424
  945MOL0     N30289   3.417  10.473   9.551  0.0959 -0.1428  0.0558
  945MOL0     C30290   3.353  10.371   9.616 -0.0617 -0.1991  0.3499
  945MOL0     C30291   3.434  10.350   9.720  0.2595  0.7262 -0.3380
  945MOL0     C30292   3.412  10.239   9.822 -0.5348 -0.9203 -0.0193
  945MOL0     C30293   3.316  10.292   9.934  0.1552  0.9237 -0.1710
  945MOL0     C30294   3.348  10.436   9.995  0.5216 -0.0391 -0.4348
  945MOL0     C30295   3.245  10.458  10.106  0.4303 -0.0774 -0.2442
  945MOL0     O30296   3.209  10.587  10.142 -0.2681 -0.4743  0.6519
  945MOL0     C30297   3.323  10.668  10.161  0.4727 -0.5173  0.0994
  945MOL0     C30298   3.421  10.640  10.262  0.1386  0.6080 -0.0143
  945MOL0     C30299   3.548  10.712  10.269 -0.0663 -0.6056 -0.0119
  945MOL0     C30300   3.656  10.678  10.370  0.6659  0.0240  0.3139
  945MOL0     C30301   3.575  10.817  10.177  0.1502  0.5438  0.7988
  945MOL0     C30302   3.697  10.897  10.150 -0.7512 -0.0103 -0.7522
  945MOL0     O30303   3.684  11.005  10.067  0.8141 -0.1164 -0.4894
  945MOL0     C30304   3.800  11.057  10.020  0.3888  0.4235 -0.3756
  945MOL0     C30305   3.884  11.149  10.090 -0.0485 -0.0143 -0.2214
  945MOL0     C30306   4.018  11.183  10.046 -0.4385  0.2984 -0.4562
  945MOL0     C30307   4.061  11.150   9.917  0.1441 -0.8922  0.5315
  945MOL0     O30308   4.170  11.214   9.852 -0.0971  0.4023  0.2189
  945MOL0     C30309   4.183  11.209   9.712  0.2482  0.1559 -0.0675
  945MOL0     C30310   4.305  11.285   9.673  0.4567 -0.0843  0.4142
  945MOL0     C30311   4.347  11.249   9.526  0.6897 -0.4396  0.8986
  945MOL0     C30312   4.244  11.290   9.428  0.7507  0.8802 -0.3154
  945MOL0     C30313   4.286  11.280   9.274 -0.4431 -0.5424  0.0888
  945MOL0     C30314   4.191  11.361   9.187  0.9732  0.3037  0.6359
  945MOL0     C30315   4.242  11.396   9.051  0.0028  0.8654 -0.1269
  945MOL0     C30316   4.123  11.419   8.958  0.6772 -0.6956 -0.2366
  945MOL0    Cl30317   4.191  11.453   8.798  0.2444 -0.3544 -0.1885
  945MOL0     C30318   3.966  11.062   9.854  0.6066 -0.4887  0.0540
  945MOL0     C30319   3.849  11.016   9.898  0.4229  0.1370 -0.6862
  945MOL0     O30320   3.807  10.855  10.189  0.4077  0.6589  0.7780
  945MOL0     C30321   3.474  10.846  10.080 -0.1495  0.5216  0.1359
  945MOL0     C30322   3.353  10.770  10.074 -0.1458  0.7844  1.1623
  945MOL0     N30323   3.541  10.428   9.715 -0.3930  0.3781 -0.1804
  945MOL0     N30324   3.532  10.495   9.609 -0.1954  0.6258  0.3315
  945MOL0     C30325   2.565  10.073   8.839 -0.4657 -0.2587  0.1202
  945MOL0     C30326   2.468   9.984   8.804 -0.0184  0.1727 -0.2828
  945MOL0     C30327   2.241   9.594   8.931  0.0560  0.5842 -0.4381
  945MOL0     C30328   2.190   9.556   9.052 -0.5279 -0.9469 -0.2313
  945MOL0     C30329   2.149   9.420   9.059 -0.1503 -0.2047 -0.2684
  945MOL0     C30330   2.158   9.330   8.959  0.4009  0.3600  0.5146
  945MOL0     O30331   2.124   9.199   8.978  0.1592  0.2614  0.1625
  945MOL0     C30332   2.041   9.160   9.091 -0.3931 -0.7574  0.4285
  945MOL0     C30333   1.996   9.017   9.067  0.6501  1.3408  0.0962
  945MOL0     C30334   1.925   8.999   8.934 -0.0614 -1.2193 -0.5315
  945MOL0     C30335   1.896   8.856   8.917 -0.4244  0.5423 -0.6034
  945MOL0     C30336   1.806   8.832   8.801 -0.4505 -0.4229  0.4556
  945MOL0     C30337   1.740   8.825   8.701  0.1985 -0.1882  0.0524
  945MOL0     C30338   2.214   9.374   8.834 -0.0489  0.0907 -1.3100
  945MOL0     C30339   2.250   9.511   8.818 -0.3024  0.6233 -0.0703
  945MOL0     C30340   2.296   9.542   8.680 -0.9505 -1.6279  0.1354
  945MOL0     H30341   2.588   9.719   8.968 -0.5405  0.5196  1.8566
  945MOL0     H30342   2.742   9.886   9.054  0.9645 -0.4303 -1.1619
  945MOL0     H30343   2.907  10.017   9.017  2.2231  2.1075 -3.4736
  945MOL0     H30344   2.823  10.102   9.148 -1.4040 -0.7549 -0.8264
  945MOL0     H30345   3.065  10.168   9.097  1.5082  1.2678 -0.7482
  945MOL0     H30346   2.997  10.231   8.943  0.7595 -3.1082 -1.1450
  945MOL0     H30347   2.874  10.412   9.057  0.1141 -1.2178 -1.4965
  945MOL0     H30348   2.884  10.332   9.213  0.3544  1.8802 -0.2660
  945MOL0     H30349   3.122  10.349   9.217 -2.9739 -0.4352  2.2780
  945MOL0     H30350   3.115  10.449   9.064 -0.6831 -2.5845 -1.5126
  945MOL0     H30351   2.972  10.511   9.330  1.3361 -2.7599  0.9373
  945MOL0     H30352   2.975  10.613   9.182 -1.1480  0.4014  0.9365
  945MOL0     H30353   3.246  10.594   9.203  0.1923  2.0618  0.1836
  945MOL0     H30354   3.150  10.714   9.290  1.5861  0.0860 -0.2637
  945MOL0     H30355   3.176  10.445   9.422  0.5776  0.1568 -1.1258
  945MOL0     H30356   3.175  10.601   9.507 -0.0030  0.6408  0.9099
  945MOL0     H30357   3.423  10.507   9.347 -0.5365 -0.2840 -0.6842
  945MOL0     H30358   3.401  10.653   9.446  1.5027 -0.2498  0.2078
  945MOL0     H30359   3.256  10.329   9.594 -0.3564 -0.4987  2.1430
  945MOL0     H30360   3.507  10.209   9.868  0.0394  0.3145 -0.3632
  945MOL0     H30361   3.365  10.156   9.769  1.0794 -0.6508 -2.0112
  945MOL0     H30362   3.214  10.286   9.896  0.2029 -0.0575 -0.1527
  945MOL0     H30363   3.319  10.224  10.020  2.9054  1.5452  0.3231
  945MOL0     H30364   3.451  10.447  10.030  0.3633 -1.6365  0.5847
  945MOL0     H30365   3.331  10.522   9.930 -2.1501  0.7048  1.1145
  945MOL0     H30366   3.151  10.416  10.069  1.9300 -0.9625 -3.2980
  945MOL0     H30367   3.267  10.391  10.190  0.9003 -1.3829 -1.3742
  945MOL0     H30368   3.401  10.556  10.328  0.4113  2.1498  2.1736
  945MOL0     H30369   3.712  10.760  10.416  1.9219 -1.3378  1.2887
  945MOL0     H30370   3.727  10.609  10.324  1.5962 -1.0018  3.1059
  945MOL0     H30371   3.614  10.629  10.458 -2.2834 -1.1455 -1.5803
  945MOL0     H30372   3.853  11.190  10.186  1.1530  0.3829  0.0063
  945MOL0     H30373   4.079  11.238  10.117 -1.5517 -1.2161  1.8004
  945MOL0     H30374   4.197  11.106   9.679 -5.1193 -0.8447 -0.0741
  945MOL0     H30375   4.094  11.246   9.660 -2.6396 -3.5846  1.7129
  945MOL0     H30376   4.298  11.394   9.680  0.6142 -0.0801  0.5194
  945MOL0     H30377   4.389  11.257   9.738 -0.0176  2.7209  2.4350
  945MOL0     H30378   4.368  11.142   9.517 -0.0943 -0.4413 -2.2052
  945MOL0     H30379   4.440  11.301   9.501 -1.1868  2.6637 -0.2462
  945MOL0     H30380   4.200  11.385   9.461 -1.7192 -1.4277  4.0295
  945MOL0     H30381   4.164  11.217   9.444  3.1629 -1.7524  0.8078
  945MOL0     H30382   4.385  11.324   9.262 -0.3909 -1.3633 -3.9997
  945MOL0     H30383   4.282  11.177   9.238  0.8411 -0.3532 -0.6461
  945MOL0     H30384   4.157  11.447   9.246  1.4563  1.6906 -1.0136
  945MOL0     H30385   4.104  11.296   9.175  0.7792  1.0135 -2.7813
  945MOL0     H30386   4.309  11.317   9.015  0.4988 -0.0435  2.5871
  945MOL0     H30387   4.301  11.489   9.054  1.4054  0.0023 -0.1259
  945MOL0     H30388   4.054  11.493   8.999  1.8448  1.1435 -1.4799
  945MOL0     H30389   4.067  11.325   8.950  2.2350 -1.7347  0.4875
  945MOL0     H30390   3.990  11.042   9.751  2.7892  1.0060  0.2044
  945MOL0     H30391   3.793  10.948   9.834 -1.8484  3.2575 -2.2757
  945MOL0     H30392   3.487  10.928  10.009 -0.8005  1.7929  1.4343
  945MOL0     H30393   3.294  10.795   9.986  0.5432  1.4153  0.8679
  945MOL0     H30394   2.550  10.165   8.785  1.5755  2.4377  3.7176
  945MOL0     H30395   2.382  10.019   8.747 -0.1033  4.2582  1.9414
  945MOL0     H30396   2.187   9.615   9.143  0.4231 -0.8550 -0.2535
  945MOL0     H30397   2.127   9.378   9.156 -0.7245 -0.8473 -0.6659
  945MOL0     H30398   2.093   9.169   9.187  1.5756  2.2885 -0.7655
  945MOL0     H30399   1.956   9.228   9.102  0.7621  0.5857  1.3785
  945MOL0     H30400   1.925   8.989   9.145 -2.1646 -0.1865 -2.7935
  945MOL0     H30401   2.073   8.940   9.073 -0.3914  0.1735 -0.8372
  945MOL0     H30402   1.831   9.054   8.923 -1.3509 -3.6496 -2.6733
  945MOL0     H30403   1.992   9.025   8.851  1.0546 -0.1353  0.6498
  945MOL0     H30404   1.847   8.810   9.004  1.7761  1.2832  1.1482
  945MOL0     H30405   1.991   8.803   8.908  0.0677  0.8794  1.7392
  945MOL0     H30406   1.679   8.829   8.613  1.2199  0.2239 -0.6477
  945MOL0     H30407   2.235   9.306   8.751 -1.4232 -1.6773 -0.2850
  945MOL0     H30408   2.405   9.540   8.671 -1.1231 -0.7201 -3.3050
  945MOL0     H30409   2.256   9.471   8.608  1.2959 -1.1403 -1.7148
  945MOL0     H30410   2.262   9.638   8.640  1.1671 -0.6421  0.5554
  946MOL0     O30411  10.440   4.298   4.238 -0.0427 -0.2302 -0.0519
  946MOL0     C30412  10.372   4.236   4.325  0.7904  0.4277  0.8934
  946MOL0     O30413  10.393   4.109   4.368  0.6009 -0.0448 -0.4219
  946MOL0     C30414  10.519   4.068   4.349  0.4461 -0.4603 -0.1948
  946MOL0     C30415  10.546   3.938   4.315 -0.7066 -0.1412  0.0800
  946MOL0     C30416  10.680   3.885   4.305 -0.5479 -0.3531 -0.0353
  946MOL0     C30417  10.792   3.963   4.344 -0.7559 -0.3481 -0.1385
  946MOL0     O30418  10.925   3.915   4.337 -0.0972  0.4871  0.8330
  946MOL0     C30419  11.029   4.020   4.339  0.3480 -0.4821  0.5630
  946MOL0     C30420  11.155   3.956   4.290 -0.3175  0.1003 -0.3852
  946MOL0     C30421  11.192   3.837   4.375  0.4451 -0.3383 -0.5336
  946MOL0     C30422  11.313   3.764   4.307 -0.2476  0.5140  0.2647
  946MOL0     C30423  11.362   3.640   4.385  0.3092  0.6164 -0.0448
  946MOL0     C30424  11.420   3.666   4.521 -1.1290  0.1103 -1.2851
  946MOL0     C30425  11.455   3.534   4.583  0.4087  0.3955  0.5313
  946MOL0     C30426  11.531   3.548   4.710 -0.0378 -0.6478 -0.2902
  946MOL0     N30427  11.674   3.597   4.694  0.1718 -0.5038 -0.2467
  946MOL0     C30428  11.751   3.557   4.583 -0.1404  0.1026  0.6441
  946MOL0     C30429  11.846   3.654   4.575  0.3416  0.0484  0.2051
  946MOL0     C30430  11.938   3.654   4.460 -0.0955 -0.4979  0.0818
  946MOL0     C30431  12.079   3.699   4.503 -0.1081 -0.8771  0.3000
  946MOL0     C30432  12.179   3.696   4.381  0.3007  0.4975 -0.2113
  946MOL0     C30433  12.326   3.719   4.416  0.3977 -0.1936  0.2264
  946MOL0     O30434  12.361   3.856   4.440 -0.5602  0.1163 -0.4944
  946MOL0     C30435  12.479   3.873   4.512  0.0188  1.0046 -1.0482
  946MOL0     C30436  12.492   3.852   4.646 -0.5345  0.2229 -0.9388
  946MOL0     C30437  12.617   3.877   4.711 -0.3371  0.0462 -0.0709
  946MOL0     C30438  12.611   3.868   4.857 -0.1884  0.7536 -0.0351
  946MOL0     C30439  12.726   3.937   4.641  0.2883 -0.2135  0.0215
  946MOL0     C30440  12.853   3.976   4.700  0.3337 -0.6350 -0.8556
  946MOL0     O30441  12.915   4.090   4.670  0.3378 -0.6855 -0.1379
  946MOL0     C30442  13.028   4.124   4.727 -0.1154  0.2099 -0.5800
  946MOL0     C30443  13.054   4.123   4.865  0.3216  0.5059  0.6676
  946MOL0     C30444  13.177   4.160   4.926  0.0443  0.1684  0.0663
  946MOL0     C30445  13.279   4.198   4.845  0.3801 -1.0057 -0.8172
  946MOL0     O30446  13.400   4.224   4.902 -0.0609  0.0147 -0.2371
  946MOL0     C30447  13.499   4.130   4.857  0.4939 -0.1461 -0.3271
  946MOL0     C30448  13.633   4.192   4.907  0.4536  0.8633  0.8052
  946MOL0     C30449  13.750   4.121   4.850  0.1823  0.0455  0.3229
  946MOL0     C30450  13.890   4.165   4.903 -0.3895  0.5679 -0.2230
  946MOL0     C30451  13.990   4.113   4.797  0.5562 -0.1757 -0.1349
  946MOL0     C30452  14.133   4.138   4.840  1.2114 -0.4549  0.0195
  946MOL0     C30453  14.235   4.135   4.726  0.2442  0.9970  0.4439
  946MOL0     C30454  14.379   4.142   4.782 -0.1249  0.4932 -0.1469
  946MOL0    Cl30455  14.497   4.109   4.648 -0.4834 -0.8470 -0.0523
  946MOL0     C30456  13.270   4.183   4.704 -0.1645  0.5366  0.0350
  946MOL0     C30457  13.143   4.155   4.646  0.7495  0.7485  0.0917
  946MOL0     O30458  12.900   3.896   4.780 -0.3165 -0.3336 -1.1795
  946MOL0     C30459  12.714   3.945   4.505 -0.3812  0.5555 -0.2071
  946MOL0     C30460  12.594   3.915   4.448  0.7116  1.2489  0.3450
  946MOL0     N30461  11.832   3.744   4.674 -0.5548 -0.6482  0.2102
  946MOL0     N30462  11.724   3.711   4.744 -0.0544 -0.0493 -0.5001
  946MOL0     C30463  10.757   4.086   4.402  0.3881  0.1578  0.2936
  946MOL0     C30464  10.630   4.141   4.391  0.0572  0.5990 -0.8882
  946MOL0     C30465  10.240   4.295   4.365  0.9198 -0.6995  0.2739
  946MOL0     C30466  10.134   4.211   4.419 -0.9751 -0.2685  0.1232
  946MOL0     C30467  10.011   4.263   4.457  0.1356  0.3341  1.1420
  946MOL0     C30468   9.968   4.390   4.435  0.1961 -0.0973 -0.4079
  946MOL0     O30469   9.838   4.431   4.466  0.7663 -0.0562  0.6081
  946MOL0     C30470   9.793   4.557   4.418 -0.5799  0.8539  0.3536
  946MOL0     C30471   9.646   4.559   4.431  1.6550  0.1661  0.4560
  946MOL0     C30472   9.579   4.442   4.351 -0.4648 -0.0183 -0.5132
  946MOL0     C30473   9.431   4.437   4.364  0.2396 -0.3702 -0.2184
  946MOL0     C30474   9.399   4.393   4.505 -0.3381 -0.1657  0.0610
  946MOL0     C30475   9.369   4.365   4.615  0.3331  0.0543 -0.3009
  946MOL0     C30476  10.066   4.473   4.370  0.2316 -0.4389 -0.2401
  946MOL0     C30477  10.195   4.432   4.340 -0.0212  0.4200  0.1439
  946MOL0     C30478  10.271   4.547   4.271  0.3340  0.2289  0.7776
  946MOL0     H30479  10.459   3.875   4.300  1.0191 -2.0637 -3.0875
  946MOL0     H30480  10.686   3.782   4.271  0.2059 -0.0622 -0.8049
  946MOL0     H30481  11.066   4.047   4.439  1.1586 -0.2703  0.2125
  946MOL0     H30482  10.998   4.108   4.283 -1.5467 -0.3307  1.7573
  946MOL0     H30483  11.136   3.910   4.193 -0.6672 -2.6948  0.9205
  946MOL0     H30484  11.233   4.032   4.279  1.1567 -1.1687  0.8480
  946MOL0     H30485  11.217   3.868   4.477  0.1150  0.0118 -0.5557
  946MOL0     H30486  11.117   3.758   4.383  1.5713 -1.2888  1.4667
  946MOL0     H30487  11.293   3.721   4.209 -0.9491 -3.4723  1.9569
  946MOL0     H30488  11.395   3.836   4.297  2.8300 -3.0639 -3.6615
  946MOL0     H30489  11.430   3.582   4.322  0.4812  0.6475  0.1113
  946MOL0     H30490  11.268   3.586   4.405  0.3400 -1.3084 -4.0521
  946MOL0     H30491  11.510   3.729   4.511 -0.3017 -1.0618 -1.4426
  946MOL0     H30492  11.350   3.720   4.585  0.3068  0.6213 -0.0989
  946MOL0     H30493  11.497   3.461   4.513  0.4771 -0.3519  1.3464
  946MOL0     H30494  11.359   3.489   4.610  1.4301 -1.9551  0.4352
  946MOL0     H30495  11.482   3.602   4.792  1.8684 -2.1133  1.9245
  946MOL0     H30496  11.536   3.452   4.761  1.5578  0.8200  2.5568
  946MOL0     H30497  11.739   3.467   4.523  0.2233  1.6844 -1.9267
  946MOL0     H30498  11.895   3.732   4.396  0.4320  0.6875  1.1420
  946MOL0     H30499  11.932   3.562   4.401  1.4033 -0.7652  0.3073
  946MOL0     H30500  12.067   3.789   4.563 -1.5162 -0.6899 -0.2245
  946MOL0     H30501  12.104   3.616   4.570 -3.0005 -0.7843  1.6481
  946MOL0     H30502  12.176   3.603   4.323  1.9165  0.2498  0.0703
  946MOL0     H30503  12.155   3.773   4.307  0.3727  2.4437  1.6858
  946MOL0     H30504  12.364   3.661   4.500  0.9120  0.2465  0.2995
  946MOL0     H30505  12.380   3.682   4.328 -0.1163 -0.3697 -0.0218
  946MOL0     H30506  12.405   3.821   4.703  0.8103  0.7960  1.5504
  946MOL0     H30507  12.659   3.954   4.904  0.5744 -1.0906  2.8781
  946MOL0     H30508  12.660   3.775   4.889  2.2158  2.1558  0.5249
  946MOL0     H30509  12.506   3.854   4.888  0.4226 -0.4414  1.7150
  946MOL0     H30510  12.975   4.092   4.932  1.3703 -2.1316  0.8421
  946MOL0     H30511  13.193   4.147   5.033  2.7597 -4.3552 -0.5913
  946MOL0     H30512  13.486   4.026   4.890 -0.5589 -0.9495 -2.9701
  946MOL0     H30513  13.512   4.122   4.749 -2.3044 -0.7419 -0.6894
  946MOL0     H30514  13.636   4.298   4.881  1.4700  0.7437  0.3879
  946MOL0     H30515  13.634   4.184   5.016 -0.8815 -0.0825  0.7629
  946MOL0     H30516  13.745   4.151   4.745 -3.2853  0.0761  0.3681
  946MOL0     H30517  13.729   4.014   4.861 -3.3598  0.2333 -2.6622
  946MOL0     H30518  13.906   4.132   5.006 -0.8824  1.9357  0.3143
  946MOL0     H30519  13.900   4.272   4.919 -0.8230  0.8295 -1.5563
  946MOL0     H30520  13.967   4.011   4.763  0.0078  0.2444 -1.0834
  946MOL0     H30521  13.972   4.175   4.708  0.6356  1.7759  1.1438
  946MOL0     H30522  14.153   4.056   4.910  2.0806  0.7653  1.2297
  946MOL0     H30523  14.145   4.230   4.897  0.1498  0.2499 -0.8706
  946MOL0     H30524  14.213   4.219   4.660 -1.2036  0.7750  0.6195
  946MOL0     H30525  14.221   4.042   4.670  0.5207  0.8985  0.5355
  946MOL0     H30526  14.387   4.061   4.855 -4.3995 -0.6654 -0.7206
  946MOL0     H30527  14.392   4.235   4.838  0.0573 -0.4057  1.3581
  946MOL0     H30528  13.357   4.193   4.640 -0.4864  0.6164 -0.3939
  946MOL0     H30529  13.129   4.134   4.540  1.8166  1.3730 -0.1920
  946MOL0     H30530  12.799   3.981   4.449 -2.2049  3.2693 -1.3973
  946MOL0     H30531  12.582   3.930   4.341 -1.5645 -0.2728  0.3125
  946MOL0     H30532  10.833   4.141   4.458  2.3410 -1.7584 -0.3148
  946MOL0     H30533  10.598   4.238   4.426 -1.9047 -0.4323  0.3819
  946MOL0     H30534  10.150   4.105   4.438  1.1619 -0.0831 -0.2846
  946MOL0     H30535   9.927   4.204   4.494  0.8676 -1.2827  0.3068
  946MOL0     H30536   9.844   4.646   4.456 -0.4562  0.8595  0.1766
  946MOL0     H30537   9.810   4.552   4.310  0.7725 -0.3513  0.5983
  946MOL0     H30538   9.598   4.652   4.398 -3.7623 -3.2517 -2.9587
  946MOL0     H30539   9.620   4.557   4.537  3.4719  0.6642  0.9372
  946MOL0     H30540   9.597   4.449   4.243 -0.8701  0.6055 -0.5486
  946MOL0     H30541   9.616   4.344   4.379  0.2705  1.2337  3.4081
  946MOL0     H30542   9.389   4.360   4.299 -0.8848  0.1838 -0.1599
  946MOL0     H30543   9.391   4.538   4.349  4.5721  1.8052  1.0252
  946MOL0     H30544   9.351   4.359   4.721 -1.6961 -0.0040 -0.6119
  946MOL0     H30545  10.018   4.561   4.329 -1.1871 -1.1084 -0.0891
  946MOL0     H30546  10.309   4.609   4.353  0.6509  3.0080 -1.3224
  946MOL0     H30547  10.347   4.517   4.199 -1.1368  0.7939 -1.1228
  946MOL0     H30548  10.200   4.608   4.213  1.3425 -0.4233 -1.2437
  947MOL0     O30549   0.627   6.052  10.175  0.1409  0.1675 -0.0975
  947MOL0     C30550   0.614   5.956  10.102  0.2446 -0.8468  0.1310
  947MOL0     O30551   0.693   5.917   9.996  0.7813 -0.4069  0.2865
  947MOL0     C30552   0.827   5.947   9.986  0.0648  0.7762  0.4462
  947MOL0     C30553   0.918   5.912  10.084  0.5387  0.2557  0.6387
  947MOL0     C30554   1.051   5.946  10.068 -0.5858  0.8682 -0.1560
  947MOL0     C30555   1.094   6.015   9.953 -0.9756  0.1583  0.4653
  947MOL0     O30556   1.225   6.057   9.934  0.4886 -0.9065 -0.1624
  947MOL0     C30557   1.311   6.058  10.049 -0.7275  0.0681 -0.6095
  947MOL0     C30558   1.443   6.124  10.020 -0.2060 -0.6916 -0.4307
  947MOL0     C30559   1.538   6.045   9.926 -0.2691 -0.6584  0.0188
  947MOL0     C30560   1.658   6.119   9.872 -0.9027 -0.2776 -0.5714
  947MOL0     C30561   1.764   6.031   9.800 -0.1114 -0.9988 -0.0742
  947MOL0     C30562   1.888   6.112   9.746  0.4453  0.2953  0.7979
  947MOL0     C30563   1.996   6.008   9.711  0.3660 -0.7121 -0.0344
  947MOL0     C30564   2.132   6.069   9.700 -0.2832  0.2611 -0.8959
  947MOL0     N30565   2.149   6.103   9.563  0.0703  0.2586  0.6964
  947MOL0     C30566   2.204   6.039   9.459 -0.2795 -0.5831 -0.2968
  947MOL0     C30567   2.198   6.118   9.354  0.4189  0.1337 -0.2496
  947MOL0     C30568   2.238   6.066   9.216 -0.2702 -0.0330  0.1733
  947MOL0     C30569   2.390   6.036   9.193  0.0294  0.0375  0.2229
  947MOL0     C30570   2.424   6.018   9.056 -0.2228 -1.0087  0.1441
  947MOL0     C30571   2.570   6.017   9.016  0.1896 -0.3690 -0.2789
  947MOL0     O30572   2.630   5.891   9.054  0.1884  0.3456 -0.0358
  947MOL0     C30573   2.767   5.882   9.015 -0.1887 -0.0781  1.1549
  947MOL0     C30574   2.862   5.906   9.105 -0.1559 -0.0203  0.3265
  947MOL0     C30575   2.999   5.913   9.069  0.3698  0.5940  0.1529
  947MOL0     C30576   3.100   5.946   9.178  0.2429  0.4360 -0.1463
  947MOL0     C30577   3.038   5.879   8.937 -0.3064 -0.3520  0.1121
  947MOL0     C30578   3.175   5.878   8.881  0.0315  0.9209 -0.3656
  947MOL0     O30579   3.273   5.936   8.959  0.0114 -0.5629  0.1668
  947MOL0     C30580   3.409   5.958   8.923 -0.2270  0.8056  0.7522
  947MOL0     C30581   3.449   6.021   8.805  0.8061  0.0894  0.2989
  947MOL0     C30582   3.581   6.026   8.768  0.0378  0.1440  0.0542
  947MOL0     C30583   3.688   5.980   8.850  0.3799 -0.2503  0.7015
  947MOL0     O30584   3.818   5.994   8.820 -0.1249  0.0995 -0.4046
  947MOL0     C30585   3.856   6.049   8.696 -0.0251 -0.0285  0.2278
  947MOL0     C30586   3.999   6.006   8.681  0.0713 -0.3375  0.1283
  947MOL0     C30587   4.058   6.080   8.557  0.5659 -1.2892  1.2695
  947MOL0     C30588   4.192   6.025   8.509 -0.9246  0.3466  0.6050
  947MOL0     C30589   4.226   6.080   8.370  0.0919 -0.5109  0.2820
  947MOL0     C30590   4.320   5.979   8.305 -0.2031 -0.0145 -0.1778
  947MOL0     C30591   4.458   5.977   8.382  0.4268 -0.2216 -0.6451
  947MOL0     C30592   4.569   5.934   8.293 -0.8266 -0.4425 -0.0397
  947MOL0    Cl30593   4.728   5.897   8.375  0.6418  0.1974 -0.3860
  947MOL0     C30594   3.647   5.927   8.976 -0.0723 -0.5417  0.0408
  947MOL0     C30595   3.511   5.913   9.008 -0.2705  0.8321  0.4204
  947MOL0     O30596   3.190   5.834   8.764  0.1955 -0.2879 -0.1056
  947MOL0     C30597   2.933   5.835   8.845 -0.6134  0.3587  0.9375
  947MOL0     C30598   2.797   5.839   8.886 -0.4101 -0.5475  0.1911
  947MOL0     N30599   2.131   6.227   9.390  0.9065 -0.6593  0.0196
  947MOL0     N30600   2.090   6.215   9.507  0.0523 -0.4285 -0.3234
  947MOL0     C30601   0.997   6.056   9.858  0.3578  0.7426  0.1295
  947MOL0     C30602   0.868   6.009   9.869 -0.1932 -0.5549  0.6866
  947MOL0     C30603   0.481   5.896  10.130 -0.3014 -0.3905  0.6809
  947MOL0     C30604   0.368   5.952  10.062 -0.4088 -0.3734  0.0454
  947MOL0     C30605   0.242   5.893  10.070  0.3087 -0.4240  1.1126
  947MOL0     C30606   0.226   5.777  10.145  0.1818 -1.2705  0.1850
  947MOL0     O30607   0.091   5.736  10.155  0.2558  0.6814  0.7151
  947MOL0     C30608   0.060   5.646  10.261  0.0612 -0.1661 -0.2692
  947MOL0     C30609  -0.091   5.604  10.264  0.3069  0.3433  0.3454
  947MOL0     C30610  -0.119   5.498  10.368 -0.1902 -0.6457 -0.2345
  947MOL0     C30611  -0.268   5.487  10.399  0.3743  0.1200  0.1408
  947MOL0     C30612  -0.286   5.369  10.488  0.6929 -0.0915  0.0846
  947MOL0     C30613  -0.298   5.258  10.529  0.2550  1.0143  0.0511
  947MOL0     C30614   0.340   5.720  10.210 -0.5621  0.5460 -0.0965
  947MOL0     C30615   0.467   5.777  10.197  0.9331 -0.4571 -0.8980
  947MOL0     C30616   0.586   5.707  10.250 -0.3044  0.7149 -0.0935
  947MOL0     H30617   0.877   5.855  10.167 -3.2893  2.1563  0.2696
  947MOL0     H30618   1.123   5.917  10.144  0.1577  0.8620 -0.8493
  947MOL0     H30619   1.338   5.959  10.088  1.9682  0.3668 -1.4907
  947MOL0     H30620   1.270   6.115  10.133 -1.3645 -0.9600 -0.2014
  947MOL0     H30621   1.426   6.224   9.980  0.6738 -0.8708 -1.2735
  947MOL0     H30622   1.490   6.124  10.119 -1.6859 -0.7836  0.3042
  947MOL0     H30623   1.580   5.958   9.978 -0.4976 -0.0662  1.2090
  947MOL0     H30624   1.487   6.009   9.836  0.3694 -0.8579 -0.2696
  947MOL0     H30625   1.619   6.201   9.811  1.2476  0.4578 -1.0435
  947MOL0     H30626   1.718   6.147   9.959 -1.6996 -0.1234 -0.0626
  947MOL0     H30627   1.712   5.987   9.714 -0.7875  1.0818 -0.7849
  947MOL0     H30628   1.792   5.948   9.865 -0.5271 -0.6699  0.5357
  947MOL0     H30629   1.850   6.169   9.661  0.3634  0.9346  1.2536
  947MOL0     H30630   1.932   6.178   9.822  2.6352  2.1773 -1.8715
  947MOL0     H30631   1.956   5.939   9.637 -0.0672  0.3366 -0.7855
  947MOL0     H30632   1.999   5.947   9.803  1.0325  1.8537  1.7451
  947MOL0     H30633   2.138   6.156   9.766 -0.0381 -1.8665  2.1221
  947MOL0     H30634   2.209   5.992   9.711  0.4015  0.5684 -3.1290
  947MOL0     H30635   2.256   5.943   9.466  0.3824 -0.1993  0.0973
  947MOL0     H30636   2.208   6.137   9.138  1.2566 -2.0821 -2.4311
  947MOL0     H30637   2.177   5.980   9.186  2.4165 -1.9547 -0.1567
  947MOL0     H30638   2.445   6.126   9.224  2.2708 -1.2333  0.1832
  947MOL0     H30639   2.425   5.953   9.255  1.9794 -1.2449 -2.4264
  947MOL0     H30640   2.380   5.925   9.019 -2.5630 -0.3517  1.1274
  947MOL0     H30641   2.386   6.097   8.991  0.3269 -3.2055 -3.1430
  947MOL0     H30642   2.582   6.014   8.907 -1.6461  0.9484 -0.5671
  947MOL0     H30643   2.628   6.096   9.063  1.3017 -0.0089 -2.1445
  947MOL0     H30644   2.840   5.934   9.207 -0.6916  0.4746  0.0784
  947MOL0     H30645   3.137   6.047   9.156 -0.6181  0.6876 -0.4823
  947MOL0     H30646   3.181   5.874   9.179  1.8605  2.1779  0.8643
  947MOL0     H30647   3.065   5.950   9.282  0.3117 -1.1504 -0.0403
  947MOL0     H30648   3.375   6.049   8.731  1.9700 -2.1036 -1.8587
  947MOL0     H30649   3.602   6.076   8.674 -1.7621 -0.7253 -0.8771
  947MOL0     H30650   3.796   6.012   8.613 -0.7355  1.2917  0.1201
  947MOL0     H30651   3.835   6.157   8.701 -1.4778 -0.2279 -1.0428
  947MOL0     H30652   4.052   6.026   8.775 -0.7901  1.6565  0.2390
  947MOL0     H30653   3.998   5.897   8.672  0.8017 -0.3388 -0.0226
  947MOL0     H30654   4.076   6.186   8.577  1.6307 -0.6304 -2.3537
  947MOL0     H30655   3.982   6.077   8.478  0.8059 -1.4141  1.0430
  947MOL0     H30656   4.174   5.919   8.490 -1.4085  0.6518 -0.7300
  947MOL0     H30657   4.273   6.040   8.581 -1.6630 -1.3136  1.8523
  947MOL0     H30658   4.137   6.098   8.309  0.3636 -1.2306 -0.3440
  947MOL0     H30659   4.263   6.182   8.385 -4.3492  0.8813  4.4103
  947MOL0     H30660   4.342   5.998   8.200  3.6741 -3.6484 -0.3108
  947MOL0     H30661   4.272   5.881   8.300  0.2001 -0.1573 -3.8704
  947MOL0     H30662   4.449   5.909   8.467 -0.1038 -2.7213 -2.5785
  947MOL0     H30663   4.497   6.069   8.427  3.8062 -1.7167 -0.2072
  947MOL0     H30664   4.581   6.001   8.207 -0.0080 -0.3395  0.1460
  947MOL0     H30665   4.524   5.848   8.242 -0.7476  0.1707 -1.1643
  947MOL0     H30666   3.728   5.902   9.044  2.2498 -2.0324 -3.0140
  947MOL0     H30667   3.497   5.870   9.106  1.5696  0.5842  0.6137
  947MOL0     H30668   2.951   5.811   8.741 -2.9378  0.0403  0.5588
  947MOL0     H30669   2.720   5.814   8.815  0.4084 -3.1643  0.1136
  947MOL0     H30670   1.025   6.127   9.781  1.1570  1.1787  0.8152
  947MOL0     H30671   0.800   6.024   9.787 -0.4810 -2.3690  0.5454
  947MOL0     H30672   0.388   6.049  10.019  3.4253  1.3711  4.8436
  947MOL0     H30673   0.151   5.934  10.027  1.9964 -0.8719 -3.5520
  947MOL0     H30674   0.130   5.562  10.256  3.7771  2.6825 -0.0818
  947MOL0     H30675   0.079   5.712  10.345  1.0533 -0.2634 -0.4060
  947MOL0     H30676  -0.108   5.562  10.164  1.9189 -0.0524  0.2133
  947MOL0     H30677  -0.142   5.700  10.271  2.2641  1.5600 -1.0777
  947MOL0     H30678  -0.085   5.401  10.332  1.4574 -0.4761  0.7130
  947MOL0     H30679  -0.061   5.520  10.459 -2.1693  0.1217  0.8932
  947MOL0     H30680  -0.300   5.476  10.295  2.8285  0.4535 -0.7130
  947MOL0     H30681  -0.313   5.573  10.451  0.8987 -0.6627  1.9918
  947MOL0     H30682  -0.323   5.165  10.577 -0.7064  2.5727  2.7460
  947MOL0     H30683   0.330   5.635  10.276  0.0545 -0.2461 -1.0044
  947MOL0     H30684   0.643   5.670  10.165  2.9569  0.9377  1.8181
  947MOL0     H30685   0.647   5.777  10.309  0.4039 -0.8031  1.0477
  947MOL0     H30686   0.554   5.630  10.321 -1.7991  0.0395 -1.4538
  948MOL0     O30687   8.925  10.741  10.410 -0.0628 -0.1189 -0.3416
  948MOL0     C30688   8.865  10.714  10.518  0.5046  0.4837 -0.5297
  948MOL0     O30689   8.908  10.739  10.639 -0.1156 -0.7078 -0.8470
  948MOL0     C30690   9.033  10.804  10.646 -0.0335  0.6637 -0.8744
  948MOL0     C30691   9.152  10.731  10.634  0.5292 -0.5355  0.9364
  948MOL0     C30692   9.267  10.792  10.679 -0.1785 -0.7638  0.7471
  948MOL0     C30693   9.290  10.935  10.709 -0.9334 -0.4473 -0.5453
  948MOL0     O30694   9.405  10.992  10.753 -0.2251 -0.2063 -0.1222
  948MOL0     C30695   9.540  10.941  10.738 -0.5694 -0.7046 -0.1697
  948MOL0     C30696   9.555  10.834  10.847 -1.0212  0.4528 -1.0569
  948MOL0     C30697   9.701  10.817  10.878  0.9951 -0.0208 -0.6063
  948MOL0     C30698   9.783  10.940  10.922  0.1890 -0.7466 -0.9886
  948MOL0     C30699   9.909  10.903  11.007 -0.7126 -0.1777  0.2434
  948MOL0     C30700   9.992  11.017  11.065  0.1355  0.8945  0.1875
  948MOL0     C30701  10.120  10.974  11.131  0.1449  0.2325 -0.2200
  948MOL0     C30702  10.101  10.943  11.281  0.2005  0.3103  0.2870
  948MOL0     N30703  10.235  10.894  11.327 -0.3255 -1.0496  0.2946
  948MOL0     C30704  10.279  10.761  11.334  0.1772 -0.0312  0.4449
  948MOL0     C30705  10.372  10.755  11.428  0.2835 -0.1186 -0.0394
  948MOL0     C30706  10.444  10.637  11.476 -0.4565  0.3833  0.3178
  948MOL0     C30707  10.589  10.669  11.538  0.3774 -0.4232  0.7824
  948MOL0     C30708  10.689  10.719  11.432  0.0989  0.0744 -0.1690
  948MOL0     C30709  10.822  10.766  11.494 -0.1538 -0.1941  0.6279
  948MOL0     O30710  10.901  10.844  11.403 -0.5414 -0.0821  0.1811
  948MOL0     C30711  11.016  10.910  11.439 -0.6633 -0.7423  0.0613
  948MOL0     C30712  11.100  10.975  11.348  0.1150  0.2612  0.0133
  948MOL0     C30713  11.217  11.039  11.390 -0.9701 -0.1494 -0.6267
  948MOL0     C30714  11.286  11.126  11.294  0.0840 -0.8023 -0.4973
  948MOL0     C30715  11.258  11.022  11.526 -0.8505 -0.3534 -0.0259
  948MOL0     C30716  11.386  11.080  11.586  0.2170 -0.3868  0.1303
  948MOL0     O30717  11.392  11.104  11.724 -0.6118 -0.1820  0.0524
  948MOL0     C30718  11.506  11.174  11.773 -0.1685  0.9805  0.0727
  948MOL0     C30719  11.515  11.307  11.767 -0.7512 -0.0395 -0.0244
  948MOL0     C30720  11.625  11.375  11.822 -0.3608  0.3734  0.3242
  948MOL0     C30721  11.732  11.307  11.889  0.2109 -0.0004  0.2612
  948MOL0     O30722  11.826  11.389  11.941 -0.9950  0.0501  0.1966
  948MOL0     C30723  11.895  11.359  12.061 -0.3025 -0.0557  0.4831
  948MOL0     C30724  11.949  11.490  12.122  0.3002  0.2477  0.0488
  948MOL0     C30725  12.050  11.548  12.020  1.0011 -0.2165  0.2072
  948MOL0     C30726  12.122  11.665  12.079 -0.1606 -0.0800 -0.2370
  948MOL0     C30727  12.213  11.722  11.967  0.2894 -0.4671 -0.1263
  948MOL0     C30728  12.304  11.822  12.031  0.5310 -0.0133 -0.2662
  948MOL0     C30729  12.409  11.888  11.937 -0.6919 -1.3653  0.1142
  948MOL0     C30730  12.464  12.020  11.997 -0.2135  0.3760  0.0987
  948MOL0    Cl30731  12.329  12.145  12.023  0.0814 -0.3223  0.4168
  948MOL0     C30732  11.726  11.169  11.889 -0.4474 -0.4874 -0.1293
  948MOL0     C30733  11.621  11.102  11.828 -0.2917 -0.0690  0.0504
  948MOL0     O30734  11.481  11.084  11.507  0.5039 -0.2372  0.1037
  948MOL0     C30735  11.177  10.956  11.617 -0.2139 -0.2301  1.1747
  948MOL0     C30736  11.053  10.912  11.575  0.4765 -0.3883 -0.0186
  948MOL0     N30737  10.401  10.883  11.475  0.2445 -0.0887 -0.0880
  948MOL0     N30738  10.321  10.962  11.413  0.1617  0.8216 -0.1812
  948MOL0     C30739   9.167  10.999  10.719  0.2952  0.0922 -0.4180
  948MOL0     C30740   9.042  10.939  10.688  0.5336  0.2700  0.6124
  948MOL0     C30741   8.725  10.664  10.493  0.4740  0.2401 -0.6333
  948MOL0     C30742   8.648  10.634  10.604 -0.2907  0.0805 -0.5478
  948MOL0     C30743   8.521  10.585  10.595 -0.4258  0.1381 -0.1966
  948MOL0     C30744   8.475  10.537  10.472  0.6982  0.0541  0.9923
  948MOL0     O30745   8.350  10.492  10.484 -0.4071  0.2644  0.3665
  948MOL0     C30746   8.298  10.430  10.362  0.3002 -0.2428 -0.0152
  948MOL0     C30747   8.163  10.368  10.386 -0.6291 -0.3382 -0.4129
  948MOL0     C30748   8.056  10.469  10.450 -0.4688 -0.7786 -0.3577
  948MOL0     C30749   7.922  10.403  10.453 -0.7854  0.6745  0.9561
  948MOL0     C30750   7.822  10.511  10.461 -1.1596  1.2126  0.5445
  948MOL0     C30751   7.745  10.601  10.481 -0.8444 -0.5275  0.6339
  948MOL0     C30752   8.547  10.550  10.355  0.6540  0.0670 -0.1423
  948MOL0     C30753   8.673  10.620  10.364 -0.3912  0.6798  0.2716
  948MOL0     C30754   8.737  10.636  10.226 -0.1839 -0.7666 -0.4753
  948MOL0     H30755   9.152  10.627  10.605 -3.3162 -0.4835  0.3054
  948MOL0     H30756   9.362  10.741  10.665 -0.9396 -1.7583 -1.1672
  948MOL0     H30757   9.616  11.019  10.746  0.0980 -1.3124 -0.4845
  948MOL0     H30758   9.552  10.890  10.641 -2.6180 -1.0904 -0.2590
  948MOL0     H30759   9.501  10.859  10.938  0.2858 -1.7131  0.4241
  948MOL0     H30760   9.514  10.741  10.806 -2.0196 -0.9117  2.6394
  948MOL0     H30761   9.706  10.752  10.967  0.5369  2.4589  1.3450
  948MOL0     H30762   9.751  10.772  10.792 -1.9726 -1.0967 -1.8635
  948MOL0     H30763   9.816  11.005  10.841 -1.2632 -0.7629 -1.6217
  948MOL0     H30764   9.730  11.005  10.992  3.1026 -2.4684  3.2712
  948MOL0     H30765   9.971  10.846  10.936 -1.2546 -0.2703 -0.1680
  948MOL0     H30766   9.877  10.827  11.079 -1.9782 -1.9236 -1.9898
  948MOL0     H30767  10.026  11.083  10.985  2.9981  1.0618  1.4273
  948MOL0     H30768   9.922  11.073  11.127 -0.9301 -0.8857  0.6632
  948MOL0     H30769  10.190  11.057  11.119 -0.3043  1.4777  4.0435
  948MOL0     H30770  10.167  10.891  11.079 -2.1379  0.0931 -2.2310
  948MOL0     H30771  10.061  11.025  11.340 -1.0626 -1.3176  1.7956
  948MOL0     H30772  10.035  10.855  11.276 -1.1888  1.3772 -0.9144
  948MOL0     H30773  10.242  10.679  11.274 -0.5090 -0.6598  1.6987
  948MOL0     H30774  10.474  10.571  11.395  0.1380 -0.3979  1.1533
  948MOL0     H30775  10.374  10.590  11.546 -0.2462 -0.4381 -0.0183
  948MOL0     H30776  10.581  10.743  11.618  4.5545 -0.7776  1.7370
  948MOL0     H30777  10.624  10.572  11.575 -1.7975 -0.9549  1.6325
  948MOL0     H30778  10.706  10.636  11.362 -1.8042 -1.7139  1.3561
  948MOL0     H30779  10.635  10.797  11.377  0.8557  1.6235  1.2169
  948MOL0     H30780  10.790  10.822  11.582  0.0373  0.8918  0.0202
  948MOL0     H30781  10.882  10.682  11.532  0.5398  1.0600  2.4301
  948MOL0     H30782  11.075  10.965  11.243  1.6242  0.3956 -0.3730
  948MOL0     H30783  11.366  11.070  11.243  0.8443  0.1567 -0.4003
  948MOL0     H30784  11.337  11.215  11.333  3.1766 -2.5445 -0.1865
  948MOL0     H30785  11.213  11.155  11.218  0.4533 -4.0326 -2.2869
  948MOL0     H30786  11.453  11.376  11.711 -0.6666  0.6950  0.7723
  948MOL0     H30787  11.625  11.482  11.805  3.3619  1.0121  3.1249
  948MOL0     H30788  11.826  11.303  12.125 -0.4258 -0.7729 -0.2662
  948MOL0     H30789  11.979  11.291  12.044 -0.8457 -0.1722 -2.1545
  948MOL0     H30790  11.868  11.561  12.140 -1.9776 -2.2695  0.3379
  948MOL0     H30791  11.999  11.472  12.218  2.1431  0.4742 -0.8194
  948MOL0     H30792  11.994  11.585  11.933 -2.2422 -0.0037  2.1996
  948MOL0     H30793  12.113  11.463  11.992  0.6432 -0.2484 -0.5319
  948MOL0     H30794  12.181  11.636  12.166  1.5897  1.7405 -0.7558
  948MOL0     H30795  12.051  11.742  12.112 -0.6436 -0.6350  0.0347
  948MOL0     H30796  12.270  11.649  11.910  0.7768  1.6695 -2.5494
  948MOL0     H30797  12.152  11.787  11.903 -0.9282 -2.1222 -0.7322
  948MOL0     H30798  12.354  11.764  12.109  1.0930  0.3528 -0.3458
  948MOL0     H30799  12.236  11.895  12.077 -1.4957 -1.9804  0.0087
  948MOL0     H30800  12.370  11.909  11.837  1.2012 -2.3654 -0.8700
  948MOL0     H30801  12.494  11.821  11.920 -1.4356 -1.8405 -2.0864
  948MOL0     H30802  12.538  12.073  11.936  2.2696 -2.2825  0.5990
  948MOL0     H30803  12.513  12.011  12.095  1.6075  0.8099 -0.7192
  948MOL0     H30804  11.808  11.115  11.935  1.2973  0.4488 -1.9820
  948MOL0     H30805  11.619  10.994  11.835  2.9832 -0.1145  2.0408
  948MOL0     H30806  11.194  10.956  11.724  1.9830  1.5277  0.9091
  948MOL0     H30807  10.998  10.855  11.649  1.4030 -2.1856 -0.6426
  948MOL0     H30808   9.159  11.101  10.756 -0.9692 -0.2474  0.2914
  948MOL0     H30809   8.956  11.001  10.708  0.1657  0.9156 -2.4127
  948MOL0     H30810   8.680  10.675  10.700  3.0698  0.9365 -1.8657
  948MOL0     H30811   8.472  10.589  10.692  0.7919  2.1647  0.3933
  948MOL0     H30812   8.285  10.507  10.285 -0.4299  1.1228  1.4123
  948MOL0     H30813   8.366  10.354  10.323  1.9766  0.4778  1.3837
  948MOL0     H30814   8.180  10.279  10.448 -2.3225  0.1796  0.8628
  948MOL0     H30815   8.125  10.332  10.291  0.5175  0.2858 -1.1286
  948MOL0     H30816   8.090  10.520  10.541  2.2837 -1.1804 -1.0683
  948MOL0     H30817   8.043  10.557  10.385  1.9581  1.9829  2.5487
  948MOL0     H30818   7.918  10.328  10.532  0.9612  1.0395  1.4449
  948MOL0     H30819   7.899  10.347  10.362 -1.3059  0.3948  1.2583
  948MOL0     H30820   7.670  10.677  10.488 -1.3986 -0.8601 -1.2143
  948MOL0     H30821   8.503  10.523  10.260 -1.3750 -1.3116  1.1004
  948MOL0     H30822   8.785  10.733  10.210  1.2719 -1.6830 -1.9709
  948MOL0     H30823   8.815  10.560  10.213 -0.9965 -1.3563 -2.1415
  948MOL0     H30824   8.649  10.639  10.161 -0.9273  3.4182  0.4290
  949MOL0     O30825  10.965  11.287   5.134 -0.4806  0.3551 -0.2797
  949MOL0     C30826  10.925  11.243   5.024  1.2096 -1.5193  0.5059
  949MOL0     O30827  10.965  11.124   4.964  0.1349  0.0995 -0.4518
  949MOL0     C30828  11.050  11.046   5.038 -0.3521  0.0574  0.6008
  949MOL0     C30829  11.182  11.086   5.078  0.2322  0.2543  0.4655
  949MOL0     C30830  11.265  10.992   5.151  0.5086 -0.1265 -0.8747
  949MOL0     C30831  11.210  10.870   5.192 -0.8293 -0.5736  0.2454
  949MOL0     O30832  11.274  10.789   5.277 -0.2856  0.6259 -0.1939
  949MOL0     C30833  11.406  10.811   5.325 -0.9246 -0.3153  0.1496
  949MOL0     C30834  11.511  10.799   5.222  0.4325  0.3241  1.0933
  949MOL0     C30835  11.482  10.680   5.130 -0.2725  0.2996 -0.3822
  949MOL0     C30836  11.606  10.667   5.039 -0.0479  1.1852  0.2783
  949MOL0     C30837  11.602  10.543   4.944  0.1837 -0.0901  0.1028
  949MOL0     C30838  11.736  10.501   4.886  0.1595 -0.4885 -0.3304
  949MOL0     C30839  11.737  10.374   4.808 -0.8102 -0.5025  0.2190
  949MOL0     C30840  11.875  10.335   4.745  0.4122 -0.7432 -0.8907
  949MOL0     N30841  11.882  10.204   4.675  0.0679 -0.4918  0.7112
  949MOL0     C30842  11.884  10.197   4.542 -0.3708  0.1844  1.3719
  949MOL0     C30843  11.868  10.066   4.514 -0.1230 -0.2435 -0.8284
  949MOL0     C30844  11.883   9.993   4.387 -0.7604 -0.0166 -0.1764
  949MOL0     C30845  12.019   9.907   4.373 -0.6459 -0.5694 -0.1143
  949MOL0     C30846  12.005   9.767   4.430 -0.5500 -0.0578 -0.0930
  949MOL0     C30847  12.048   9.746   4.576 -0.1616  0.2020 -0.0715
  949MOL0     O30848  12.177   9.673   4.597  0.4140  0.0847 -0.0484
  949MOL0     C30849  12.209   9.642   4.723 -0.5018 -0.8704  0.3043
  949MOL0     C30850  12.171   9.724   4.832 -0.0464 -0.2702  0.3139
  949MOL0     C30851  12.199   9.688   4.963  0.1298  0.0031 -0.2717
  949MOL0     C30852  12.147   9.777   5.073  0.6313  0.0405  0.7852
  949MOL0     C30853  12.281   9.572   4.988  0.1565 -0.9172  0.1230
  949MOL0     C30854  12.313   9.516   5.124  0.2479  0.5075  0.4458
  949MOL0     O30855  12.447   9.470   5.139 -0.4101  0.0381  0.0151
  949MOL0     C30856  12.495   9.441   5.266  0.9799  0.4672 -0.8191
  949MOL0     C30857  12.529   9.310   5.308 -0.1751  0.3223  0.7556
  949MOL0     C30858  12.583   9.298   5.439  0.1953  1.2534 -0.1727
  949MOL0     C30859  12.583   9.396   5.531 -0.0947 -0.3056 -0.3297
  949MOL0     O30860  12.637   9.372   5.653  0.3014  0.2865  0.2778
  949MOL0     C30861  12.583   9.443   5.764 -0.0121 -0.4629 -0.1650
  949MOL0     C30862  12.437   9.406   5.791  0.9164  0.4036  0.7302
  949MOL0     C30863  12.417   9.256   5.821 -0.2942 -0.5219  0.2295
  949MOL0     C30864  12.473   9.232   5.970 -0.4832  0.1789 -0.3565
  949MOL0     C30865  12.418   9.109   6.045  0.4841 -0.6079 -0.2762
  949MOL0     C30866  12.441   8.968   5.987  0.4120 -0.5871 -0.9285
  949MOL0     C30867  12.316   8.900   5.921  1.0740  0.4009  0.9070
  949MOL0     C30868  12.186   8.887   6.006 -0.0882 -0.6288 -0.1540
  949MOL0    Cl30869  12.206   8.745   6.119  0.1286 -0.2292  0.0254
  949MOL0     C30870  12.540   9.518   5.484 -0.2030  0.5181 -0.4975
  949MOL0     C30871  12.501   9.542   5.357  0.2523 -1.2916  0.3357
  949MOL0     O30872  12.229   9.534   5.213 -0.5996 -0.4558 -0.4220
  949MOL0     C30873  12.335   9.501   4.876  0.0246  0.0243  0.3388
  949MOL0     C30874  12.289   9.524   4.744  0.2482  0.1730 -0.9981
  949MOL0     N30875  11.858  10.005   4.643 -0.2105  0.8109  0.3500
  949MOL0     N30876  11.863  10.085   4.733 -0.0662  0.3835 -0.5636
  949MOL0     C30877  11.080  10.832   5.153 -0.2485  0.3513  0.2803
  949MOL0     C30878  10.999  10.917   5.078  0.3633 -0.5944  0.3243
  949MOL0     C30879  10.836  11.335   4.947  0.2074  1.1371  0.2990
  949MOL0     C30880  10.756  11.438   5.011 -0.5390  0.5516 -0.1482
  949MOL0     C30881  10.672  11.525   4.942 -0.5320 -1.0337  0.2789
  949MOL0     C30882  10.660  11.516   4.805  0.7572  0.2062 -0.5834
  949MOL0     O30883  10.570  11.596   4.739 -0.9691 -0.1594  0.2248
  949MOL0     C30884  10.435  11.564   4.749 -0.3310 -0.4430  0.1870
  949MOL0     C30885  10.388  11.430   4.677 -0.6831 -0.5648  0.3897
  949MOL0     C30886  10.390  11.437   4.518 -0.1217 -0.5583  0.1173
  949MOL0     C30887  10.336  11.304   4.448 -0.2793  0.1025 -0.3030
  949MOL0     C30888  10.194  11.278   4.461 -0.4518  0.8947 -1.6864
  949MOL0     C30889  10.087  11.221   4.476 -0.6826  0.4637 -0.0618
  949MOL0     C30890  10.734  11.421   4.745 -0.5860 -0.2030 -0.2648
  949MOL0     C30891  10.819  11.328   4.808  0.8510 -0.9512 -0.5812
  949MOL0     C30892  10.894  11.236   4.710 -0.4381  0.3123 -0.0821
  949MOL0     H30893  11.219  11.183   5.048  2.2368  0.3167  2.8646
  949MOL0     H30894  11.362  11.023   5.189  0.5095  0.1406 -1.0962
  949MOL0     H30895  11.425  10.736   5.402  0.7137 -2.5561 -2.2569
  949MOL0     H30896  11.408  10.914   5.361 -1.2536 -0.1578 -0.2714
  949MOL0     H30897  11.517  10.882   5.151  0.5512 -1.7838 -1.5154
  949MOL0     H30898  11.609  10.777   5.267  0.9977 -2.8366 -1.3662
  949MOL0     H30899  11.478  10.587   5.188  1.3601  0.6370  0.3378
  949MOL0     H30900  11.396  10.685   5.063  0.7470 -0.9589 -1.8740
  949MOL0     H30901  11.616  10.758   4.980 -1.7924 -0.3712 -2.6725
  949MOL0     H30902  11.698  10.656   5.098 -0.8008 -2.0710  1.0726
  949MOL0     H30903  11.528  10.576   4.870 -0.9399 -1.8496  0.3775
  949MOL0     H30904  11.562  10.467   5.012  0.6353 -1.2975 -0.9411
  949MOL0     H30905  11.760  10.581   4.816 -1.1932 -0.5779 -0.9317
  949MOL0     H30906  11.817  10.502   4.959 -1.9101 -1.3129  2.1452
  949MOL0     H30907  11.666  10.383   4.726 -1.0522  0.0562  0.4867
  949MOL0     H30908  11.697  10.294   4.872  1.3695 -0.0850  2.2428
  949MOL0     H30909  11.914  10.416   4.683 -1.5491  0.4554 -0.6645
  949MOL0     H30910  11.945  10.318   4.827  0.2495 -2.6574 -1.0990
  949MOL0     H30911  11.908  10.276   4.471 -0.7867  0.3840  1.4525
  949MOL0     H30912  11.882  10.074   4.313 -1.5715 -1.8706 -2.3124
  949MOL0     H30913  11.802   9.920   4.373  1.2385 -2.7776  1.6332
  949MOL0     H30914  12.046   9.907   4.267  2.3157  1.0457  0.5403
  949MOL0     H30915  12.096   9.953   4.435  0.8331 -0.6528 -1.8423
  949MOL0     H30916  11.906   9.722   4.425 -0.1039 -1.0159 -0.3846
  949MOL0     H30917  12.066   9.696   4.375  0.4766 -1.3478  2.5385
  949MOL0     H30918  12.062   9.844   4.622 -2.0006 -0.3498  1.8196
  949MOL0     H30919  11.966   9.699   4.631 -1.0196  3.6532  1.9398
  949MOL0     H30920  12.108   9.811   4.821  2.0976  1.1755 -1.2203
  949MOL0     H30921  12.078   9.728   5.142 -1.5141  1.5954 -0.1437
  949MOL0     H30922  12.095   9.861   5.027 -0.3893 -1.1992 -0.3851
  949MOL0     H30923  12.230   9.813   5.134 -0.0749  1.7624  0.7942
  949MOL0     H30924  12.532   9.225   5.240  2.4128  1.4345 -0.7121
  949MOL0     H30925  12.598   9.196   5.475 -2.1592  1.8856  3.0504
  949MOL0     H30926  12.641   9.412   5.852  0.7389 -0.4289 -0.6320
  949MOL0     H30927  12.589   9.552   5.751 -0.8919 -0.2296  1.2709
  949MOL0     H30928  12.403   9.468   5.874 -0.8546  1.3388 -0.6038
  949MOL0     H30929  12.370   9.422   5.705 -1.0933 -2.2195  1.6721
  949MOL0     H30930  12.471   9.203   5.742  0.4041  0.3091  0.1212
  949MOL0     H30931  12.311   9.236   5.809 -0.1286  0.1654 -3.3340
  949MOL0     H30932  12.454   9.314   6.039  0.5517 -2.0025  2.7428
  949MOL0     H30933  12.581   9.215   5.966 -0.7980 -1.9627 -2.0257
  949MOL0     H30934  12.471   9.110   6.141 -3.0030 -0.6872  1.8523
  949MOL0     H30935  12.315   9.141   6.063  1.8458  2.9409  2.2016
  949MOL0     H30936  12.489   8.913   6.069 -2.5444 -0.2246  1.2055
  949MOL0     H30937  12.510   8.976   5.902  0.6111  0.8556 -0.6563
  949MOL0     H30938  12.360   8.804   5.892  1.2327  1.6200 -3.7060
  949MOL0     H30939  12.294   8.947   5.825 -0.2272 -0.4036  0.7874
  949MOL0     H30940  12.105   8.873   5.935  2.1354  0.2260 -3.0793
  949MOL0     H30941  12.162   8.978   6.061 -0.2148  1.1179 -2.8941
  949MOL0     H30942  12.551   9.608   5.544  0.8533 -1.5636  2.6575
  949MOL0     H30943  12.473   9.643   5.328 -1.2681 -2.7361 -4.1308
  949MOL0     H30944  12.403   9.418   4.893 -1.2897 -0.8952  1.2326
  949MOL0     H30945  12.323   9.459   4.664 -1.8660  0.2589 -2.0552
  949MOL0     H30946  11.031  10.744   5.191 -2.5621  1.2431 -0.4876
  949MOL0     H30947  10.903  10.881   5.043  0.4591  0.9992 -1.7717
  949MOL0     H30948  10.758  11.444   5.119 -1.5382  0.1774 -0.0959
  949MOL0     H30949  10.635  11.601   5.011 -1.0161 -0.3769 -0.6778
  949MOL0     H30950  10.418  11.570   4.857  2.0965 -3.0772  0.8616
  949MOL0     H30951  10.374  11.643   4.705 -2.9729 -2.7314 -0.5623
  949MOL0     H30952  10.286  11.417   4.714 -1.1207  1.1545 -0.1254
  949MOL0     H30953  10.443  11.339   4.705 -1.3923 -0.6997  1.4126
  949MOL0     H30954  10.338  11.529   4.492  0.6194 -1.1382 -4.1297
  949MOL0     H30955  10.497  11.450   4.496  1.1731 -3.4318  3.6469
  949MOL0     H30956  10.391  11.216   4.483 -0.6425 -0.5908 -1.4027
  949MOL0     H30957  10.359  11.306   4.341 -0.4953  1.7667 -0.3376
  949MOL0     H30958  10.013  11.147   4.497 -0.1221  0.2754  1.3573
  949MOL0     H30959  10.732  11.412   4.637 -2.0120  3.0630 -0.6164
  949MOL0     H30960  10.872  11.136   4.748  1.8503  0.8853  3.1957
  949MOL0     H30961  10.872  11.234   4.603  2.0231 -2.5799 -0.6652
  949MOL0     H30962  11.002  11.252   4.702  0.0709 -2.9866 -1.3973
  950MOL0     O30963   2.273  10.890   1.984  0.1512  0.5527  0.8253
  950MOL0     C30964   2.345  10.887   1.883  0.2546 -0.1163  0.1501
  950MOL0     O30965   2.383  10.996   1.804 -0.7703 -0.4652 -0.3085
  950MOL0     C30966   2.352  11.118   1.840 -0.7199  0.4429  0.0508
  950MOL0     C30967   2.230  11.164   1.886 -0.0260  0.4616  0.8430
  950MOL0     C30968   2.214  11.301   1.923 -0.7376  0.4426 -0.5095
  950MOL0     C30969   2.326  11.384   1.937 -0.2243  0.7362 -0.1650
  950MOL0     O30970   2.309  11.514   1.987  0.2909 -1.1501 -0.5179
  950MOL0     C30971   2.413  11.612   1.959 -1.1273 -0.0623  0.0605
  950MOL0     C30972   2.375  11.760   1.975 -0.0986  0.0807 -0.8406
  950MOL0     C30973   2.504  11.849   1.939  1.0260 -0.0975 -0.3083
  950MOL0     C30974   2.622  11.820   2.027  0.0995 -0.4291 -0.2492
  950MOL0     C30975   2.713  11.935   2.022  0.2916 -0.0206  0.4530
  950MOL0     C30976   2.843  11.900   2.103  0.3402  0.2501 -0.4907
  950MOL0     C30977   2.938  12.011   2.143  0.3210  0.6888 -0.2570
  950MOL0     C30978   3.013  12.056   2.019  0.2458  0.6202  0.3074
  950MOL0     N30979   3.101  11.944   1.967  0.1571  0.5705  0.5523
  950MOL0     C30980   3.211  11.905   2.039 -0.3219  0.2569 -0.0981
  950MOL0     C30981   3.265  11.792   1.974  0.5479  0.1491 -0.2527
  950MOL0     C30982   3.380  11.707   2.019  0.0237 -0.1888  0.1284
  950MOL0     C30983   3.507  11.790   2.027 -0.0321  0.0961 -0.0883
  950MOL0     C30984   3.527  11.897   2.128  0.1040  0.4566  0.6752
  950MOL0     C30985   3.640  11.861   2.221 -1.0391 -0.4132  0.3747
  950MOL0     O30986   3.772  11.876   2.161  0.2834 -0.1091 -0.1301
  950MOL0     C30987   3.882  11.852   2.238  0.4776 -0.1620  0.6611
  950MOL0     C30988   3.994  11.819   2.164 -0.3102  0.1066 -0.2071
  950MOL0     C30989   4.110  11.765   2.222 -0.1630  0.5454 -0.1279
  950MOL0     C30990   4.216  11.705   2.132 -0.6397 -1.2753  0.5938
  950MOL0     C30991   4.118  11.748   2.361  0.3669  0.8752  0.2743
  950MOL0     C30992   4.224  11.673   2.429 -0.3652 -0.7040 -1.0466
  950MOL0     O30993   4.259  11.552   2.392 -0.5819  0.0464  0.1692
  950MOL0     C30994   4.381  11.504   2.433 -0.0268 -0.5095 -0.2490
  950MOL0     C30995   4.498  11.586   2.428 -0.0330 -0.1012  1.2973
  950MOL0     C30996   4.628  11.522   2.455  0.0020 -0.5994 -0.6267
  950MOL0     C30997   4.635  11.396   2.514 -0.3448 -0.9984  0.5878
  950MOL0     O30998   4.752  11.343   2.559  0.1298 -0.1186  0.3611
  950MOL0     C30999   4.879  11.402   2.527  0.0190  0.0542 -0.1379
  950MOL0     C31000   4.994  11.332   2.590 -0.0927  0.3165  0.7224
  950MOL0     C31001   4.972  11.288   2.732 -0.1937  0.1611 -0.5379
  950MOL0     C31002   5.069  11.178   2.781  0.4039 -0.2129  0.0699
  950MOL0     C31003   5.050  11.142   2.925 -0.6489  0.4948 -0.8988
  950MOL0     C31004   5.083  10.994   2.974 -0.6068  0.4835  0.4890
  950MOL0     C31005   5.108  10.977   3.125  0.4732 -0.0269 -0.2355
  950MOL0     C31006   5.252  10.997   3.181  0.2569 -0.0839  0.0098
  950MOL0    Cl31007   5.235  10.995   3.366  0.0159 -0.3819  0.3361
  950MOL0     C31008   4.516  11.325   2.532 -0.6141 -0.3615  0.4571
  950MOL0     C31009   4.394  11.371   2.482 -0.6723 -1.4382 -0.0606
  950MOL0     O31010   4.277  11.737   2.518 -0.8673 -0.5550  0.4552
  950MOL0     C31011   4.007  11.790   2.436 -0.8224 -0.1583  0.0553
  950MOL0     C31012   3.889  11.836   2.379 -1.6314 -0.8806 -0.1381
  950MOL0     N31013   3.176  11.772   1.866 -0.2491 -0.5454 -0.2573
  950MOL0     N31014   3.086  11.864   1.857 -1.1588  0.8268  0.4766
  950MOL0     C31015   2.446  11.334   1.898  0.8319  0.1632  0.9379
  950MOL0     C31016   2.460  11.205   1.846 -0.1938  0.2108 -0.1331
  950MOL0     C31017   2.375  10.758   1.826 -0.4499 -0.3822 -0.3130
  950MOL0     C31018   2.384  10.746   1.683 -0.7848 -0.1768 -0.8320
  950MOL0     C31019   2.423  10.628   1.617 -0.0200 -0.0442  0.2832
  950MOL0     C31020   2.413  10.511   1.699 -0.7020  0.5236 -0.2820
  950MOL0     O31021   2.437  10.380   1.666  0.3043 -0.5403  0.4914
  950MOL0     C31022   2.422  10.342   1.530  0.1707 -0.1317  0.2228
  950MOL0     C31023   2.278  10.356   1.493  0.6803 -0.4467 -0.1911
  950MOL0     C31024   2.186  10.255   1.572  0.0928 -0.2314  0.0698
  950MOL0     C31025   2.034  10.283   1.562 -0.3480 -0.4653 -0.1390
  950MOL0     C31026   1.982  10.286   1.422 -0.2685  0.9114  0.2794
  950MOL0     C31027   1.958  10.291   1.302 -0.1542 -0.1708 -0.0408
  950MOL0     C31028   2.399  10.517   1.842 -0.1107  0.2839 -0.1586
  950MOL0     C31029   2.381  10.638   1.906  0.6647  0.7764  0.7646
  950MOL0     C31030   2.360  10.633   2.062  0.2966  0.2026 -0.1045
  950MOL0     H31031   2.141  11.102   1.887  0.6767 -0.8825 -3.0405
  950MOL0     H31032   2.115  11.341   1.946 -0.2569  2.1710 -1.2759
  950MOL0     H31033   2.459  11.605   1.860  0.6521  1.9916  0.6530
  950MOL0     H31034   2.492  11.588   2.032 -0.6366  0.2397 -0.3639
  950MOL0     H31035   2.298  11.795   1.905 -1.4675 -0.2967  0.4166
  950MOL0     H31036   2.348  11.787   2.078 -0.0317  2.1051 -1.3182
  950MOL0     H31037   2.526  11.817   1.837  1.0222 -2.8161  0.4513
  950MOL0     H31038   2.471  11.953   1.937 -0.2027 -0.4512 -3.7638
  950MOL0     H31039   2.586  11.805   2.129 -0.8277  0.4976 -0.4278
  950MOL0     H31040   2.672  11.731   1.987  1.0627  0.5329 -1.2403
  950MOL0     H31041   2.657  12.021   2.061 -1.2181 -0.8913  0.2736
  950MOL0     H31042   2.747  11.955   1.920 -0.0917 -0.7168  0.1809
  950MOL0     H31043   2.818  11.846   2.194  2.0598 -1.5181 -1.0021
  950MOL0     H31044   2.898  11.821   2.052  1.1689  1.9521 -2.3687
  950MOL0     H31045   3.009  11.979   2.220  0.6267 -0.7538 -1.1120
  950MOL0     H31046   2.869  12.086   2.184 -1.2308 -1.2919  0.9533
  950MOL0     H31047   2.946  12.094   1.941 -0.2782  2.6266  1.6520
  950MOL0     H31048   3.077  12.143   2.039  1.6302  0.0056 -1.1986
  950MOL0     H31049   3.253  11.947   2.129  2.8010  0.8576 -1.6594
  950MOL0     H31050   3.386  11.631   1.940 -0.6527  1.1950 -1.2964
  950MOL0     H31051   3.358  11.662   2.116  3.3462 -0.4558  0.8673
  950MOL0     H31052   3.599  11.733   2.015  0.2666  0.2766  1.2066
  950MOL0     H31053   3.499  11.836   1.928 -3.7851 -0.3413 -0.1554
  950MOL0     H31054   3.546  11.981   2.061  1.5321 -1.2660 -1.1905
  950MOL0     H31055   3.436  11.911   2.187  0.7284  0.7872  1.5762
  950MOL0     H31056   3.625  11.909   2.318 -1.0491 -0.8568  0.5959
  950MOL0     H31057   3.640  11.756   2.253  0.6643 -0.2237  1.0978
  950MOL0     H31058   3.985  11.804   2.057  0.6490 -1.5716 -0.0914
  950MOL0     H31059   4.179  11.612   2.087 -0.0556  0.1014 -3.1404
  950MOL0     H31060   4.310  11.676   2.180  0.5797 -0.4382 -1.1535
  950MOL0     H31061   4.250  11.777   2.056  1.7876 -1.3739  1.4940
  950MOL0     H31062   4.485  11.682   2.379  2.0190 -1.5710 -2.6465
  950MOL0     H31063   4.717  11.584   2.455 -0.4242  0.1435  2.1339
  950MOL0     H31064   4.895  11.409   2.420  0.7268  0.6802  0.0001
  950MOL0     H31065   4.876  11.501   2.575  0.0022  0.1876 -0.4107
  950MOL0     H31066   5.029  11.248   2.529  5.0832  1.8195  1.1327
  950MOL0     H31067   5.080  11.400   2.585  1.4320 -1.6320 -1.7586
  950MOL0     H31068   4.866  11.262   2.736 -0.0194 -0.5483 -0.4999
  950MOL0     H31069   4.984  11.372   2.802 -1.8378  0.1992 -0.2610
  950MOL0     H31070   5.169  11.221   2.772 -0.1783  1.9576  2.7904
  950MOL0     H31071   5.047  11.092   2.716 -2.7923  0.2096  0.4250
  950MOL0     H31072   5.107  11.207   2.992  0.0046 -0.3002 -0.6724
  950MOL0     H31073   4.943  11.159   2.941 -0.4547 -0.7033  2.4123
  950MOL0     H31074   5.167  10.957   2.915  0.5907  1.5688  1.4646
  950MOL0     H31075   5.009  10.917   2.950  0.0290  0.3690 -1.2630
  950MOL0     H31076   5.077  10.877   3.157 -0.7361 -0.2582 -1.9893
  950MOL0     H31077   5.030  11.035   3.175 -2.6912 -4.1751  0.1529
  950MOL0     H31078   5.276  11.100   3.153 -1.4572 -0.0310 -1.4417
  950MOL0     H31079   5.316  10.918   3.140  1.1524 -0.4021  1.9163
  950MOL0     H31080   4.521  11.232   2.587  1.2512 -0.3284  0.4185
  950MOL0     H31081   4.313  11.304   2.510 -1.4024 -0.8577 -0.7403
  950MOL0     H31082   4.014  11.782   2.545 -0.2958  1.3242  0.1485
  950MOL0     H31083   3.806  11.857   2.445  0.3463 -1.5057  2.7617
  950MOL0     H31084   2.542  11.384   1.892  1.2338 -0.6775 -0.0540
  950MOL0     H31085   2.550  11.166   1.799 -0.7698  0.5975 -1.6102
  950MOL0     H31086   2.377  10.836   1.623  0.9800 -0.4895 -1.5616
  950MOL0     H31087   2.442  10.624   1.510  1.7142  0.1285  0.5599
  950MOL0     H31088   2.480  10.398   1.456  0.5166  0.7008  1.0951
  950MOL0     H31089   2.441  10.235   1.524  0.8231  0.0052 -0.2318
  950MOL0     H31090   2.261  10.324   1.390 -1.5646  1.2713 -0.4176
  950MOL0     H31091   2.240  10.457   1.512  1.9866 -0.3769  2.6216
  950MOL0     H31092   2.193  10.152   1.535 -0.9061 -0.6972  1.1213
  950MOL0     H31093   2.218  10.255   1.676  1.2971 -2.2313 -0.2516
  950MOL0     H31094   2.003  10.378   1.606 -1.2581  0.2102 -2.1547
  950MOL0     H31095   1.986  10.208   1.625  0.8663 -1.7429 -0.6789
  950MOL0     H31096   1.951  10.289   1.195 -1.4884 -3.2886  0.0086
  950MOL0     H31097   2.401  10.421   1.894  1.2773 -0.1194 -0.8823
  950MOL0     H31098   2.425  10.704   2.114  0.4254  0.8596 -1.1493
  950MOL0     H31099   2.255  10.665   2.070 -0.3888 -1.5430 -1.4268
  950MOL0     H31100   2.375  10.530   2.098  1.9647 -0.1166 -1.6170
  951MOL0     O31101   0.089   1.937   8.065 -0.2231 -0.1053 -0.4574
  951MOL0     C31102   0.010   1.888   7.982  0.1205  0.3756  0.1335
  951MOL0     O31103   0.049   1.812   7.875 -0.1371 -0.1225 -0.1511
  951MOL0     C31104   0.158   1.736   7.906  0.3244  1.0086  0.2948
  951MOL0     C31105   0.234   1.696   7.795 -0.5236 -0.2843  0.2569
  951MOL0     C31106   0.360   1.623   7.809  0.0363 -0.0712 -0.0342
  951MOL0     C31107   0.385   1.579   7.945 -0.6571 -0.3544 -0.2213
  951MOL0     O31108   0.512   1.524   7.981  0.6093 -0.0979  0.3879
  951MOL0     C31109   0.624   1.594   7.939 -0.5902 -0.0595  0.2257
  951MOL0     C31110   0.737   1.599   8.035  0.0059  0.9491 -0.1311
  951MOL0     C31111   0.796   1.462   8.065  0.7709  0.1840  0.4102
  951MOL0     C31112   0.904   1.466   8.170  0.4751  0.0481 -0.0873
  951MOL0     C31113   0.937   1.325   8.215  0.3128  1.1607  0.0484
  951MOL0     C31114   1.032   1.335   8.340  0.5717  0.6293  0.4364
  951MOL0     C31115   1.180   1.344   8.304  0.6031  0.3860  0.3016
  951MOL0     C31116   1.257   1.350   8.429  0.1859 -0.0351  0.3740
  951MOL0     N31117   1.400   1.369   8.412 -0.8691 -0.5104  0.3657
  951MOL0     C31118   1.498   1.272   8.403  0.9867  0.6476  0.1605
  951MOL0     C31119   1.615   1.333   8.424  0.2574 -0.6107  0.5691
  951MOL0     C31120   1.749   1.283   8.468 -0.0033  0.0626 -0.1803
  951MOL0     C31121   1.834   1.267   8.346  0.2188  0.1647 -0.2704
  951MOL0     C31122   1.846   1.397   8.257 -1.1317  0.4579  0.6596
  951MOL0     C31123   1.961   1.374   8.150  0.2863  0.4721  0.7192
  951MOL0     O31124   1.928   1.260   8.071 -0.1586  0.7275  0.1294
  951MOL0     C31125   1.994   1.248   7.946  1.1162 -1.0634  0.4769
  951MOL0     C31126   1.907   1.210   7.840  0.0638  0.5418 -0.1392
  951MOL0     C31127   1.954   1.216   7.708  0.5603  0.2232 -0.3745
  951MOL0     C31128   1.874   1.148   7.605  0.1075 -0.4788 -0.0968
  951MOL0     C31129   2.078   1.275   7.678 -0.4110 -0.7514  0.5251
  951MOL0     C31130   2.135   1.295   7.544 -0.1033 -1.0804  0.2429
  951MOL0     O31131   2.268   1.332   7.537 -0.3638 -0.2858 -0.2913
  951MOL0     C31132   2.320   1.353   7.412  0.7699  0.1443 -0.5398
  951MOL0     C31133   2.373   1.248   7.346 -0.0828 -0.5172  0.6116
  951MOL0     C31134   2.414   1.257   7.207  0.6070  0.5675 -0.8096
  951MOL0     C31135   2.414   1.379   7.144 -0.0493  0.8799 -0.4204
  951MOL0     O31136   2.432   1.391   7.010 -0.0654  0.8439 -0.3767
  951MOL0     C31137   2.362   1.298   6.922 -0.4100 -0.3697  0.7693
  951MOL0     C31138   2.441   1.175   6.872 -0.3616  0.2252 -0.4411
  951MOL0     C31139   2.558   1.205   6.775  0.7356 -0.4960 -0.0568
  951MOL0     C31140   2.688   1.152   6.824  0.3052  0.0712 -1.0454
  951MOL0     C31141   2.799   1.196   6.719  0.7259 -0.3254 -0.1854
  951MOL0     C31142   2.932   1.156   6.782 -0.2608  0.9661  0.1782
  951MOL0     C31143   3.042   1.174   6.679  0.1624  0.1570  0.4127
  951MOL0     C31144   3.181   1.182   6.737  0.4814  0.0743 -1.1340
  951MOL0    Cl31145   3.186   1.304   6.864 -0.5634 -0.1390  0.0517
  951MOL0     C31146   2.349   1.486   7.212  0.2197 -0.9342  0.0818
  951MOL0     C31147   2.306   1.473   7.344  1.3243  0.8104 -0.1737
  951MOL0     O31148   2.061   1.280   7.446 -0.3963  0.6305  0.0401
  951MOL0     C31149   2.167   1.307   7.786  0.4248  0.2569  0.8324
  951MOL0     C31150   2.124   1.299   7.916  0.3938 -0.1989  0.2128
  951MOL0     N31151   1.588   1.468   8.424 -0.5762  0.5215  0.2625
  951MOL0     N31152   1.463   1.490   8.430 -0.6462 -0.2326  0.1723
  951MOL0     C31153   0.295   1.598   8.056 -0.0367  0.1033  1.0756
  951MOL0     C31154   0.181   1.677   8.030 -0.0448  0.3753  0.7703
  951MOL0     C31155  -0.137   1.928   7.986 -0.1675  0.1904  0.7806
  951MOL0     C31156  -0.184   1.994   8.102 -0.2846  0.3140 -0.0403
  951MOL0     C31157  -0.314   2.049   8.108 -0.3708  0.3443 -0.0741
  951MOL0     C31158  -0.407   2.027   8.008  0.3033 -0.7199 -0.0228
  951MOL0     O31159  -0.544   2.069   8.016  0.2237 -0.7977 -0.2850
  951MOL0     C31160  -0.641   1.982   8.072 -0.5468 -0.0376 -0.3294
  951MOL0     C31161  -0.787   2.042   8.040 -0.2391 -0.3711  0.0091
  951MOL0     C31162  -0.837   1.996   7.912  0.1138  0.4096 -0.0034
  951MOL0     C31163  -0.931   1.879   7.928 -0.2966 -0.7175  0.6417
  951MOL0     C31164  -1.012   1.866   7.809  1.1372  0.5142 -0.3788
  951MOL0     C31165  -1.078   1.864   7.708 -0.5235 -0.2587 -0.1010
  951MOL0     C31166  -0.364   1.970   7.889 -0.1731  1.1939 -0.4540
  951MOL0     C31167  -0.230   1.914   7.872  0.5279 -0.2436 -0.1341
  951MOL0     C31168  -0.203   1.846   7.742  0.4993 -0.0177 -0.0309
  951MOL0     H31169   0.194   1.740   7.704  1.1224  2.1029  0.6055
  951MOL0     H31170   0.422   1.613   7.720 -0.8778  0.5645 -0.7722
  951MOL0     H31171   0.604   1.701   7.923  0.0012 -0.1244 -1.1424
  951MOL0     H31172   0.653   1.554   7.841  0.4014  1.1805 -0.0290
  951MOL0     H31173   0.808   1.668   7.989  0.9746 -1.1958 -2.0032
  951MOL0     H31174   0.696   1.630   8.132 -0.1822 -0.0138  0.1059
  951MOL0     H31175   0.713   1.400   8.099  0.1610  0.4199 -0.6061
  951MOL0     H31176   0.828   1.410   7.974 -2.1575 -0.3740 -0.3876
  951MOL0     H31177   0.997   1.513   8.135 -0.6490  1.7412 -0.9513
  951MOL0     H31178   0.861   1.522   8.253  0.3626  0.0110 -0.1196
  951MOL0     H31179   0.981   1.257   8.142 -3.8622 -1.9679  0.0804
  951MOL0     H31180   0.841   1.278   8.242  0.0356  2.3186  1.1803
  951MOL0     H31181   0.994   1.417   8.403  0.7023  1.3577 -0.4100
  951MOL0     H31182   1.024   1.241   8.395 -0.2346  0.1013 -0.5587
  951MOL0     H31183   1.202   1.432   8.243 -2.1015  0.3105 -0.8804
  951MOL0     H31184   1.216   1.259   8.245 -0.1415  0.1814  0.1389
  951MOL0     H31185   1.221   1.439   8.482 -0.0302 -0.8902  1.6957
  951MOL0     H31186   1.234   1.260   8.487  0.4723 -0.8742 -0.7831
  951MOL0     H31187   1.485   1.164   8.408 -2.8271  1.0014  1.0394
  951MOL0     H31188   1.741   1.191   8.526  3.1023 -1.2093 -1.5730
  951MOL0     H31189   1.791   1.358   8.536 -3.4405  2.0943 -0.0143
  951MOL0     H31190   1.936   1.239   8.376  0.2974  1.4987  0.8156
  951MOL0     H31191   1.782   1.185   8.298 -0.0806  0.0524  0.2400
  951MOL0     H31192   1.750   1.412   8.206 -2.4976  1.2226  3.2913
  951MOL0     H31193   1.866   1.494   8.304  0.5774  1.6106 -2.1197
  951MOL0     H31194   1.978   1.466   8.093  2.5572  0.4100  1.1847
  951MOL0     H31195   2.052   1.345   8.204  0.3851  1.2409  0.9806
  951MOL0     H31196   1.808   1.182   7.873 -0.0165  0.4179 -0.4822
  951MOL0     H31197   1.780   1.106   7.644  0.1930  1.0307  1.9306
  951MOL0     H31198   1.936   1.069   7.563  1.1666  1.5330 -2.5330
  951MOL0     H31199   1.856   1.215   7.521  2.0643  1.4243  0.9072
  951MOL0     H31200   2.379   1.156   7.404 -0.5152 -0.1583  1.2349
  951MOL0     H31201   2.451   1.174   7.148  0.0328  0.6568 -1.2979
  951MOL0     H31202   2.266   1.267   6.965 -1.6730 -1.2948 -2.3470
  951MOL0     H31203   2.345   1.357   6.831 -2.4340 -2.9937 -0.7120
  951MOL0     H31204   2.481   1.122   6.959  0.6001  1.5192 -0.0557
  951MOL0     H31205   2.366   1.110   6.827 -1.0100  1.3308 -1.0076
  951MOL0     H31206   2.564   1.312   6.753 -1.4170  0.6945  4.1140
  951MOL0     H31207   2.543   1.148   6.682 -0.1624 -0.1887 -0.1116
  951MOL0     H31208   2.691   1.044   6.843 -0.4786  0.5129  2.3768
  951MOL0     H31209   2.705   1.210   6.916 -1.2798  1.4582 -1.5765
  951MOL0     H31210   2.787   1.153   6.619 -2.6028  2.4168 -1.1764
  951MOL0     H31211   2.796   1.304   6.701  0.8165 -0.3761 -0.5098
  951MOL0     H31212   2.932   1.048   6.803  0.7849  1.2370  1.6914
  951MOL0     H31213   2.957   1.218   6.868  3.4391 -1.2887  0.9315
  951MOL0     H31214   3.024   1.275   6.643  2.4810  0.2507 -0.6519
  951MOL0     H31215   3.031   1.097   6.602 -0.9340 -0.4369  1.1224
  951MOL0     H31216   3.250   1.208   6.656  0.7813  0.3752 -0.7859
  951MOL0     H31217   3.195   1.086   6.786  2.3427  1.2960  0.9133
  951MOL0     H31218   2.346   1.576   7.152 -3.8677 -1.1468 -0.3192
  951MOL0     H31219   2.254   1.561   7.382 -1.2048 -0.9471  0.7255
  951MOL0     H31220   2.268   1.343   7.771  0.7714  0.5033  3.2950
  951MOL0     H31221   2.195   1.331   7.992 -0.8093  2.7249  0.2498
  951MOL0     H31222   0.304   1.549   8.152 -1.4986 -1.2267  0.5733
  951MOL0     H31223   0.116   1.690   8.116 -0.9457 -1.8204  0.5007
  951MOL0     H31224  -0.111   2.012   8.180  1.4974 -0.0312 -1.5471
  951MOL0     H31225  -0.342   2.111   8.192  0.8363  2.4423 -1.1475
  951MOL0     H31226  -0.627   1.880   8.034  1.6829 -0.6720  1.9100
  951MOL0     H31227  -0.632   1.981   8.181 -2.9876  3.4084  0.0555
  951MOL0     H31228  -0.771   2.150   8.029 -1.6223 -0.1026  0.4666
  951MOL0     H31229  -0.861   2.028   8.119  0.1459 -0.2878  0.3870
  951MOL0     H31230  -0.884   2.082   7.864 -1.9399 -0.5741  0.1477
  951MOL0     H31231  -0.755   1.960   7.848 -1.3241 -2.4228 -0.3850
  951MOL0     H31232  -1.002   1.903   8.008 -2.7114  1.2264 -1.8563
  951MOL0     H31233  -0.867   1.792   7.946  2.4836  0.0746 -3.9199
  951MOL0     H31234  -1.141   1.859   7.622 -0.9851 -1.7591  0.2946
  951MOL0     H31235  -0.432   1.960   7.806  0.2782  0.1067 -0.7117
  951MOL0     H31236  -0.128   1.890   7.675  0.5671 -1.1240 -0.7086
  951MOL0     H31237  -0.166   1.746   7.764 -0.1482 -0.7714 -2.1343
  951MOL0     H31238  -0.294   1.823   7.686  0.8409 -2.5847  0.3719
  952MOL0     O31239   0.423   6.014   2.776  0.1980  0.4519 -0.4385
  952MOL0     C31240   0.473   6.063   2.872  0.6826  0.1431  0.2801
  952MOL0     O31241   0.608   6.086   2.888  0.0302 -0.6923  0.3424
  952MOL0     C31242   0.697   6.068   2.784 -0.8443 -0.4308 -0.6685
  952MOL0     C31243   0.816   6.003   2.809 -0.2501  0.4736 -0.2688
  952MOL0     C31244   0.911   5.990   2.711 -0.4615 -0.5431  0.3352
  952MOL0     C31245   0.877   6.044   2.584 -0.5996  0.3715  0.5568
  952MOL0     O31246   0.960   6.027   2.470 -0.0805  0.2794 -0.4174
  952MOL0     C31247   1.083   5.962   2.469 -0.9741  0.0047 -0.6394
  952MOL0     C31248   1.140   5.917   2.340 -0.3822  0.4414 -0.6560
  952MOL0     C31249   1.131   6.044   2.243 -0.3095  0.0895  0.0864
  952MOL0     C31250   1.201   6.002   2.107 -0.4898  0.3291 -0.5944
  952MOL0     C31251   1.209   6.123   2.018  0.3001 -0.0755 -0.0679
  952MOL0     C31252   1.276   6.098   1.881  0.2354 -0.5718 -0.7355
  952MOL0     C31253   1.406   6.023   1.880 -0.0761 -0.0336 -0.5060
  952MOL0     C31254   1.532   6.098   1.921  0.2040  0.3787 -0.5305
  952MOL0     N31255   1.546   6.110   2.071 -0.6782 -0.3284  0.3409
  952MOL0     C31256   1.554   6.008   2.162 -0.3824  0.2481 -0.8039
  952MOL0     C31257   1.549   6.063   2.278 -0.8970 -0.3420  0.6222
  952MOL0     C31258   1.552   6.001   2.412  0.1543 -0.0988 -0.4775
  952MOL0     C31259   1.597   5.858   2.407 -0.6826  0.1533 -0.3143
  952MOL0     C31260   1.635   5.809   2.549 -0.1665 -0.2667  0.1228
  952MOL0     C31261   1.725   5.694   2.553  0.1433  0.2736 -0.9685
  952MOL0     O31262   1.865   5.727   2.519  0.1832 -0.1447  0.3372
  952MOL0     C31263   1.918   5.637   2.434  1.2162  0.3134 -0.4881
  952MOL0     C31264   1.900   5.497   2.435 -0.5116  0.9408  0.1634
  952MOL0     C31265   1.983   5.413   2.362  0.4674 -0.4982  0.5347
  952MOL0     C31266   1.984   5.266   2.384  0.0517  0.0290 -1.3713
  952MOL0     C31267   2.074   5.473   2.273  0.0771  0.0050 -0.0769
  952MOL0     C31268   2.149   5.389   2.176 -0.8088  0.7491 -0.8093
  952MOL0     O31269   2.088   5.283   2.124  0.2516 -0.0692 -0.0446
  952MOL0     C31270   2.155   5.204   2.037  0.7443  0.8862  0.0488
  952MOL0     C31271   2.210   5.252   1.917  0.0480  0.4962 -0.3261
  952MOL0     C31272   2.287   5.176   1.837 -0.0234 -0.0570 -0.2540
  952MOL0     C31273   2.308   5.045   1.861  0.0424 -0.0814 -0.5878
  952MOL0     O31274   2.384   4.966   1.782 -0.1046  0.4200 -0.0686
  952MOL0     C31275   2.481   5.013   1.700  0.7101  0.0677  0.0347
  952MOL0     C31276   2.616   5.009   1.765 -0.0340  1.0317  0.1878
  952MOL0     C31277   2.739   4.991   1.675  0.3966 -0.1941  0.0356
  952MOL0     C31278   2.871   4.996   1.753  0.7260  0.7085  0.3391
  952MOL0     C31279   2.998   4.980   1.665 -0.6550 -0.2528  0.2113
  952MOL0     C31280   3.024   5.097   1.578 -0.0387  0.1051  0.4317
  952MOL0     C31281   3.154   5.078   1.501  0.2666 -0.6910  0.4774
  952MOL0     C31282   3.266   5.133   1.588 -0.2322  0.2727  0.5076
  952MOL0    Cl31283   3.415   5.138   1.476 -0.3203 -0.0348  0.0630
  952MOL0     C31284   2.247   4.993   1.975 -0.4200 -0.6830 -1.4473
  952MOL0     C31285   2.179   5.071   2.070 -0.3277  0.6326  0.2655
  952MOL0     O31286   2.258   5.432   2.145 -0.0632  0.9338  0.3877
  952MOL0     C31287   2.098   5.612   2.278  0.4530 -0.2297  0.2893
  952MOL0     C31288   2.022   5.689   2.359  0.4853 -0.3940 -0.1872
  952MOL0     N31289   1.538   6.199   2.265  0.3292 -0.5296 -0.3181
  952MOL0     N31290   1.536   6.225   2.134  0.3784  0.9034 -0.2152
  952MOL0     C31291   0.762   6.113   2.560 -0.1324  0.1253 -0.7380
  952MOL0     C31292   0.670   6.125   2.661 -0.3839  0.3527 -0.2401
  952MOL0     C31293   0.386   6.082   2.989 -0.2081  0.0098 -0.0284
  952MOL0     C31294   0.455   6.051   3.101 -0.2296 -0.3199  0.0153
  952MOL0     C31295   0.392   6.072   3.225 -0.1273  1.0480 -0.3375
  952MOL0     C31296   0.261   6.127   3.233  0.3771  0.4729 -0.0143
  952MOL0     O31297   0.185   6.165   3.336 -0.0812  0.6358  0.0731
  952MOL0     C31298   0.240   6.151   3.467 -0.1083 -0.5121 -0.4910
  952MOL0     C31299   0.129   6.181   3.574 -0.2514  0.8417 -0.5020
  952MOL0     C31300   0.021   6.069   3.589 -0.2283 -0.0133  0.4139
  952MOL0     C31301  -0.092   6.095   3.678  0.2640 -0.7901 -1.1316
  952MOL0     C31302  -0.054   6.150   3.813  0.4201 -0.0627  0.6367
  952MOL0     C31303  -0.025   6.199   3.918 -0.0887  0.5549 -0.2479
  952MOL0     C31304   0.199   6.156   3.113  0.1486  0.7397  0.1740
  952MOL0     C31305   0.258   6.139   2.993 -0.5508 -0.9880  0.2503
  952MOL0     C31306   0.180   6.191   2.874 -0.0727  1.1735  0.3779
  952MOL0     H31307   0.838   5.960   2.906 -1.7772  2.4013  1.0047
  952MOL0     H31308   1.006   5.948   2.743  0.4802 -0.7332 -2.4143
  952MOL0     H31309   1.090   5.869   2.526 -1.4452  0.3419 -0.0228
  952MOL0     H31310   1.155   6.033   2.512 -0.8892  0.3330 -1.3135
  952MOL0     H31311   1.242   5.876   2.343 -0.2624  0.7857  0.6618
  952MOL0     H31312   1.086   5.831   2.299 -2.3807  0.8050  1.0456
  952MOL0     H31313   1.025   6.062   2.224 -1.5097 -3.6524  2.1749
  952MOL0     H31314   1.196   6.119   2.287 -1.8351 -0.2895  3.2834
  952MOL0     H31315   1.300   5.957   2.119  0.1217  1.3113 -1.6888
  952MOL0     H31316   1.128   5.926   2.078 -1.8957  0.0631  3.0917
  952MOL0     H31317   1.255   6.204   2.075  0.3235 -1.5708  2.2072
  952MOL0     H31318   1.109   6.155   1.990  0.4663 -1.2136 -2.1655
  952MOL0     H31319   1.196   6.051   1.824 -0.8663 -0.0150  0.3214
  952MOL0     H31320   1.277   6.191   1.822  0.5158 -0.5417 -0.6875
  952MOL0     H31321   1.415   5.993   1.775 -0.2526  0.3572 -0.6360
  952MOL0     H31322   1.395   5.928   1.933 -3.3907 -0.1827 -1.2239
  952MOL0     H31323   1.623   6.050   1.883 -0.0935 -2.0507  1.5656
  952MOL0     H31324   1.535   6.198   1.877  2.4954  1.5770  2.0079
  952MOL0     H31325   1.561   5.900   2.158 -3.2394 -0.2590  2.6476
  952MOL0     H31326   1.447   5.998   2.442 -0.3632 -1.7510 -2.2477
  952MOL0     H31327   1.612   6.060   2.482 -0.7926 -0.5096  0.7130
  952MOL0     H31328   1.516   5.788   2.384 -2.9468  2.4466  0.2915
  952MOL0     H31329   1.685   5.848   2.343 -0.7870 -1.3144 -0.2695
  952MOL0     H31330   1.685   5.891   2.602  0.2927  0.2771 -1.1293
  952MOL0     H31331   1.544   5.787   2.606 -1.9100  2.5737 -1.3473
  952MOL0     H31332   1.736   5.665   2.658  0.5073  0.2471 -1.0140
  952MOL0     H31333   1.682   5.609   2.499 -0.1520 -0.7913  0.8786
  952MOL0     H31334   1.843   5.459   2.519  0.5787  0.1947  0.5837
  952MOL0     H31335   2.085   5.232   2.410  0.7998  2.7631 -0.3918
  952MOL0     H31336   1.937   5.201   2.310  1.3780 -3.1405  0.3377
  952MOL0     H31337   1.924   5.250   2.474 -0.0162  1.1349 -1.2125
  952MOL0     H31338   2.203   5.352   1.876  0.1114  0.9890  0.8394
  952MOL0     H31339   2.323   5.229   1.749 -1.4364 -1.1866 -1.5694
  952MOL0     H31340   2.475   4.944   1.614 -5.2324  1.0934 -0.8405
  952MOL0     H31341   2.453   5.113   1.667 -2.5290  0.1083  2.4489
  952MOL0     H31342   2.630   5.099   1.825 -0.9346  0.6352  1.0301
  952MOL0     H31343   2.615   4.923   1.833 -3.1060  0.2461 -0.6915
  952MOL0     H31344   2.739   5.066   1.596  3.4429 -1.1854 -1.0642
  952MOL0     H31345   2.738   4.888   1.636  2.0535 -0.0369 -0.4955
  952MOL0     H31346   2.862   4.918   1.828  0.2557  0.7636  0.3435
  952MOL0     H31347   2.874   5.092   1.806 -1.7090 -0.2746  2.4542
  952MOL0     H31348   3.086   4.957   1.725 -0.3335 -4.3571 -1.4884
  952MOL0     H31349   2.989   4.892   1.600  1.7765  1.3700 -2.5739
  952MOL0     H31350   3.030   5.186   1.642 -2.2766  0.0911  0.7228
  952MOL0     H31351   2.934   5.096   1.516 -0.8331  1.2776  1.5242
  952MOL0     H31352   3.154   5.143   1.412 -0.0652  2.5435  2.6674
  952MOL0     H31353   3.164   4.975   1.465 -1.1449 -0.3565 -0.9967
  952MOL0     H31354   3.283   5.079   1.681 -3.5236 -0.7643  0.6410
  952MOL0     H31355   3.239   5.236   1.615 -3.3607 -0.0492 -0.8707
  952MOL0     H31356   2.249   4.885   1.986 -1.0675 -0.6393 -0.8184
  952MOL0     H31357   2.144   5.023   2.160  1.7057 -0.4644  0.5395
  952MOL0     H31358   2.168   5.662   2.212  0.5554  1.0730  1.3380
  952MOL0     H31359   2.043   5.795   2.357  2.3486 -0.7334 -0.2442
  952MOL0     H31360   0.737   6.150   2.461 -3.4476 -0.5109 -0.2605
  952MOL0     H31361   0.575   6.171   2.637 -0.6897 -0.6545 -1.0396
  952MOL0     H31362   0.557   6.016   3.107  0.0394  0.4117 -0.3430
  952MOL0     H31363   0.449   6.056   3.316 -0.4525 -0.6298 -0.3881
  952MOL0     H31364   0.262   6.045   3.480  1.1359 -0.0682  1.4483
  952MOL0     H31365   0.335   6.202   3.479 -0.9382  1.0717 -0.3790
  952MOL0     H31366   0.075   6.273   3.546 -0.5739  0.6653 -0.4617
  952MOL0     H31367   0.184   6.195   3.667 -0.2962 -3.4887  0.3452
  952MOL0     H31368  -0.005   6.052   3.484  0.5634  0.7879  0.0756
  952MOL0     H31369   0.073   5.983   3.633 -0.4545  1.3650  3.6583
  952MOL0     H31370  -0.154   6.007   3.694 -2.7344  0.5573 -4.2221
  952MOL0     H31371  -0.155   6.174   3.637 -0.9053 -2.9027 -3.6762
  952MOL0     H31372   0.013   6.246   4.006 -1.8201 -1.7984  1.9098
  952MOL0     H31373   0.099   6.193   3.132 -0.4085 -1.2977  1.5587
  952MOL0     H31374   0.101   6.265   2.890 -1.7819 -0.3327 -0.7411
  952MOL0     H31375   0.249   6.233   2.800 -0.4583  0.5801 -0.3341
  952MOL0     H31376   0.128   6.106   2.829  2.1583  1.1946 -2.5646
  953MOL0     O31377   9.224   8.796   3.058  0.5337  0.3915  0.0241
  953MOL0     C31378   9.172   8.769   2.950  0.0199  0.0117 -1.0201
  953MOL0     O31379   9.239   8.748   2.838 -0.6361  0.3801  0.2588
  953MOL0     C31380   9.371   8.774   2.834  1.1436 -0.7281  0.3781
  953MOL0     C31381   9.415   8.885   2.764 -0.7191  0.3204 -0.2422
  953MOL0     C31382   9.555   8.902   2.767 -0.4873  0.1214  0.3067
  953MOL0     C31383   9.649   8.819   2.827 -0.9588  0.2119 -0.4175
  953MOL0     O31384   9.779   8.850   2.818 -0.5945  0.1465  0.0831
  953MOL0     C31385   9.865   8.754   2.894 -0.3009  0.2138  0.8165
  953MOL0     C31386  10.004   8.815   2.869  0.3822 -0.2083 -0.1652
  953MOL0     C31387  10.100   8.794   2.988 -0.1340 -0.5518  0.2081
  953MOL0     C31388  10.121   8.647   3.000 -0.5825 -0.4686  0.3853
  953MOL0     C31389  10.199   8.609   3.130 -0.1009 -0.5320 -0.0403
  953MOL0     C31390  10.240   8.462   3.125 -0.4151 -1.0727 -0.6753
  953MOL0     C31391  10.288   8.405   3.264  0.0495  0.1110  0.1270
  953MOL0     C31392  10.381   8.499   3.344 -0.2749 -0.3020 -0.4163
  953MOL0     N31393  10.458   8.434   3.451 -0.6304 -0.1993 -0.0053
  953MOL0     C31394  10.507   8.515   3.559  0.7686  0.8969  0.3943
  953MOL0     C31395  10.600   8.421   3.617  0.0155  0.0163  0.0141
  953MOL0     C31396  10.710   8.425   3.729  0.7557 -0.4127  0.5348
  953MOL0     C31397  10.749   8.568   3.767  0.5359  0.2261 -0.0900
  953MOL0     C31398  10.815   8.655   3.662  0.5243 -0.4034  0.0003
  953MOL0     C31399  10.879   8.787   3.725  0.9357  0.0904  0.5737
  953MOL0     O31400  11.006   8.745   3.789 -0.8809  0.4409 -0.0967
  953MOL0     C31401  11.078   8.829   3.862  0.9916  0.6171 -0.4130
  953MOL0     C31402  11.192   8.778   3.923 -0.6188  0.4340  0.0984
  953MOL0     C31403  11.278   8.858   3.996 -0.2646  0.5645  0.7616
  953MOL0     C31404  11.393   8.780   4.048  0.0676  0.3050  0.6488
  953MOL0     C31405  11.242   8.995   4.015  0.0874  0.1823  0.9924
  953MOL0     C31406  11.315   9.086   4.110 -0.9204  0.2920  0.6795
  953MOL0     O31407  11.298   9.225   4.108  0.0959 -0.2182 -0.0486
  953MOL0     C31408  11.356   9.290   4.212  0.2545  0.6684 -0.8839
  953MOL0     C31409  11.288   9.291   4.331 -0.1014 -0.0876  0.1284
  953MOL0     C31410  11.338   9.371   4.439 -0.1570  0.7473 -0.8934
  953MOL0     C31411  11.443   9.462   4.424 -0.3425  0.7386  0.0521
  953MOL0     O31412  11.477   9.541   4.530  0.2606 -0.5673 -0.8049
  953MOL0     C31413  11.618   9.569   4.546 -0.5580  0.6376 -0.1747
  953MOL0     C31414  11.667   9.575   4.690 -0.2341  1.0560  0.1501
  953MOL0     C31415  11.602   9.690   4.774 -0.6369  0.8253  0.3263
  953MOL0     C31416  11.673   9.688   4.905 -0.7044  0.2868 -0.7511
  953MOL0     C31417  11.641   9.822   4.977  0.8749  0.2953  1.1963
  953MOL0     C31418  11.731   9.862   5.097  0.0946 -0.0117 -0.2139
  953MOL0     C31419  11.751   9.751   5.194 -0.6970 -0.3098 -0.0829
  953MOL0     C31420  11.834   9.780   5.317 -0.6705  0.4571 -0.0643
  953MOL0    Cl31421  11.858   9.618   5.404 -0.3373 -0.2047 -0.1873
  953MOL0     C31422  11.499   9.460   4.294  0.8862  0.6920  0.1740
  953MOL0     C31423  11.455   9.380   4.190 -1.4866 -0.0635 -0.9960
  953MOL0     O31424  11.369   9.024   4.203 -0.1576  0.1647 -0.2944
  953MOL0     C31425  11.127   9.047   3.945 -0.4902  0.2917 -0.0556
  953MOL0     C31426  11.041   8.967   3.873  0.2754 -1.4207  0.3122
  953MOL0     N31427  10.597   8.301   3.549  1.1257 -0.6206 -0.2902
  953MOL0     N31428  10.514   8.315   3.456  0.2695 -0.2972 -0.1560
  953MOL0     C31429   9.595   8.707   2.891 -0.0229 -0.5440  0.2988
  953MOL0     C31430   9.455   8.683   2.898 -0.4360  0.0586  0.2848
  953MOL0     C31431   9.027   8.771   2.941  0.0529 -0.8091 -0.4006
  953MOL0     C31432   8.970   8.794   2.808  0.5091 -0.2221  1.4288
  953MOL0     C31433   8.836   8.794   2.790 -0.3795  0.7335  0.9085
  953MOL0     C31434   8.746   8.762   2.892 -0.1147 -0.0696 -0.1387
  953MOL0     O31435   8.606   8.769   2.868 -0.5297  0.9405 -0.3934
  953MOL0     C31436   8.518   8.702   2.968  0.8096 -0.4340  0.3118
  953MOL0     C31437   8.377   8.693   2.904  0.2764  1.0107 -0.0867
  953MOL0     C31438   8.304   8.830   2.890  0.0388 -0.7115  0.8185
  953MOL0     C31439   8.169   8.820   2.833  0.2347 -0.2328  0.2757
  953MOL0     C31440   8.101   8.954   2.801 -0.6672 -0.7792 -0.4540
  953MOL0     C31441   8.070   9.071   2.770  0.2263  0.0621 -0.9187
  953MOL0     C31442   8.803   8.743   3.020 -0.0258 -0.0306 -0.3566
  953MOL0     C31443   8.938   8.748   3.048 -1.5290  0.5145  0.2512
  953MOL0     C31444   8.974   8.699   3.188 -0.7378  0.6519  0.1170
  953MOL0     H31445   9.353   8.957   2.712 -0.3754 -0.6887 -2.1539
  953MOL0     H31446   9.578   8.981   2.696 -1.7586 -0.1332 -0.4406
  953MOL0     H31447   9.860   8.656   2.847 -2.8123  0.2136  0.9376
  953MOL0     H31448   9.848   8.746   3.002 -1.6112 -2.1308  0.5043
  953MOL0     H31449  10.040   8.773   2.775 -1.8156 -0.0490 -1.1276
  953MOL0     H31450   9.996   8.923   2.854 -0.8548 -0.3044 -0.3486
  953MOL0     H31451  10.196   8.842   2.968  0.9335 -1.9038  1.8846
  953MOL0     H31452  10.049   8.831   3.078 -3.4075 -0.4730 -1.5148
  953MOL0     H31453  10.027   8.590   2.998 -2.0585  1.8060  0.6659
  953MOL0     H31454  10.171   8.620   2.907  0.9796 -1.0696  1.3722
  953MOL0     H31455  10.150   8.638   3.223 -0.5993  1.4211 -0.8418
  953MOL0     H31456  10.286   8.676   3.127 -0.1993 -0.1542  2.8527
  953MOL0     H31457  10.154   8.402   3.095  0.1763 -1.9066 -0.7629
  953MOL0     H31458  10.310   8.442   3.044  1.3735 -0.7081  0.6939
  953MOL0     H31459  10.341   8.311   3.248 -2.4667 -1.1456 -1.7005
  953MOL0     H31460  10.194   8.378   3.313 -0.8940  0.5766 -1.3257
  953MOL0     H31461  10.449   8.546   3.272 -1.4716  3.1697  0.5353
  953MOL0     H31462  10.327   8.583   3.389  2.4370  1.7731 -0.7845
  953MOL0     H31463  10.490   8.619   3.586  3.6741  1.5786 -0.0668
  953MOL0     H31464  10.801   8.375   3.694  1.3547  0.8989  0.1859
  953MOL0     H31465  10.668   8.375   3.817 -0.2098 -1.5613 -0.5398
  953MOL0     H31466  10.651   8.612   3.788  0.8308  0.7110  0.2865
  953MOL0     H31467  10.812   8.567   3.856 -1.5206  2.1242  1.5000
  953MOL0     H31468  10.900   8.607   3.613 -1.0404 -2.7435 -0.5755
  953MOL0     H31469  10.750   8.687   3.580  2.4943  2.0593 -0.7499
  953MOL0     H31470  10.905   8.858   3.647 -0.5276 -1.6923 -1.6789
  953MOL0     H31471  10.816   8.827   3.805  0.7425 -2.3282  1.7430
  953MOL0     H31472  11.207   8.673   3.905  0.1471  0.4122  0.7979
  953MOL0     H31473  11.489   8.827   4.025  1.0195 -2.4415 -1.5515
  953MOL0     H31474  11.396   8.677   4.010  2.4447  1.5022 -2.9322
  953MOL0     H31475  11.375   8.770   4.156  2.2511 -2.3857  0.8767
  953MOL0     H31476  11.209   9.218   4.348  0.4649 -0.6746  0.3077
  953MOL0     H31477  11.293   9.382   4.537  1.0546  1.2124 -0.3771
  953MOL0     H31478  11.678   9.506   4.480 -2.9336 -1.3269 -0.6042
  953MOL0     H31479  11.639   9.670   4.511  0.1279 -0.7246 -4.1682
  953MOL0     H31480  11.642   9.477   4.732  1.4775  0.3264 -0.4468
  953MOL0     H31481  11.776   9.575   4.685 -0.2603  2.3057 -3.5481
  953MOL0     H31482  11.493   9.691   4.783 -0.7502  0.5342 -0.9137
  953MOL0     H31483  11.634   9.782   4.725 -0.0694 -0.6839 -2.3127
  953MOL0     H31484  11.780   9.664   4.896  0.5335  2.8017  3.7587
  953MOL0     H31485  11.639   9.609   4.972 -0.3699  2.7789  2.6119
  953MOL0     H31486  11.632   9.904   4.905  1.6883 -0.9659 -0.3905
  953MOL0     H31487  11.540   9.807   5.018  0.3945 -2.0760 -0.6782
  953MOL0     H31488  11.700   9.950   5.153  1.8226  1.5568 -1.6081
  953MOL0     H31489  11.829   9.880   5.053 -0.2816 -0.1084 -1.1358
  953MOL0     H31490  11.808   9.668   5.152  0.9450  0.4479  0.5421
  953MOL0     H31491  11.649   9.717   5.211 -0.9072 -0.1082 -0.8945
  953MOL0     H31492  11.770   9.838   5.384  2.2465  0.5624  2.8753
  953MOL0     H31493  11.932   9.824   5.294  0.1525 -1.5158 -0.5655
  953MOL0     H31494  11.585   9.520   4.264  1.3708  0.8955  1.8819
  953MOL0     H31495  11.491   9.374   4.088  0.6901 -1.2738 -0.2296
  953MOL0     H31496  11.095   9.149   3.967 -1.9763  0.1382 -1.2979
  953MOL0     H31497  10.946   9.011   3.842  0.9301  0.0420  0.2964
  953MOL0     H31498   9.664   8.632   2.928  0.7789 -0.4573 -0.9536
  953MOL0     H31499   9.411   8.603   2.956 -5.9607  1.8792 -0.7891
  953MOL0     H31500   9.017   8.806   2.711 -1.1545 -2.1869  0.2969
  953MOL0     H31501   8.798   8.802   2.689 -2.5231 -3.9281  1.0733
  953MOL0     H31502   8.559   8.606   3.001  0.4555 -0.1345  1.6614
  953MOL0     H31503   8.503   8.753   3.063 -3.0909 -2.1227  0.8222
  953MOL0     H31504   8.306   8.636   2.965 -0.1897  0.2584 -1.3075
  953MOL0     H31505   8.382   8.645   2.806  0.6402 -1.3156  1.0125
  953MOL0     H31506   8.289   8.879   2.986 -0.7635  0.8138 -0.0351
  953MOL0     H31507   8.363   8.895   2.824 -0.2090 -0.2691  1.0347
  953MOL0     H31508   8.095   8.767   2.894  0.4806 -1.3032 -0.3400
  953MOL0     H31509   8.181   8.760   2.743 -3.3381  0.9876 -1.1916
  953MOL0     H31510   8.038   9.174   2.770  2.7201  0.8971 -0.3528
  953MOL0     H31511   8.733   8.735   3.102 -1.6221  0.2256 -1.6454
  953MOL0     H31512   8.949   8.593   3.192  3.9659 -0.7793 -1.4990
  953MOL0     H31513   9.079   8.695   3.217 -0.5425 -0.2183 -0.6848
  953MOL0     H31514   8.921   8.750   3.269 -0.0510  0.4461  0.7127
  954MOL0     O31515   1.888   5.050  10.719  0.2284  0.4675 -0.7286
  954MOL0     C31516   1.844   5.034  10.605 -0.0633 -0.6068 -0.8850
  954MOL0     O31517   1.928   5.036  10.499 -0.1671 -0.2047 -0.1006
  954MOL0     C31518   2.066   5.045  10.508 -0.1551 -0.0951 -0.0045
  954MOL0     C31519   2.141   4.960  10.586  0.5576  0.2936 -0.1027
  954MOL0     C31520   2.287   4.954  10.571  0.7530 -0.4797  0.0720
  954MOL0     C31521   2.356   5.025  10.474  0.1975  0.2448 -0.5597
  954MOL0     O31522   2.486   4.999  10.458 -0.6301 -0.7722  0.0741
  954MOL0     C31523   2.579   5.117  10.463  0.8487 -0.0721 -0.0813
  954MOL0     C31524   2.707   5.061  10.523 -0.4434 -0.6337 -0.0279
  954MOL0     C31525   2.812   5.023  10.419  0.0803 -0.1429 -0.3115
  954MOL0     C31526   2.793   4.879  10.391 -0.6295  0.2246  0.0077
  954MOL0     C31527   2.886   4.851  10.267  0.0247 -0.5066  0.1049
  954MOL0     C31528   2.872   4.710  10.217 -0.4302  0.0141 -0.0448
  954MOL0     C31529   2.730   4.683  10.168 -0.4962 -0.5162 -0.3082
  954MOL0     C31530   2.705   4.544  10.125 -0.1049  1.0316 -0.1205
  954MOL0     N31531   2.706   4.453  10.245 -0.3730 -0.2976  0.3170
  954MOL0     C31532   2.593   4.399  10.296 -0.5468 -0.1405 -0.0752
  954MOL0     C31533   2.631   4.320  10.402 -0.8379 -0.7600 -0.2673
  954MOL0     C31534   2.550   4.228  10.495  0.2571  0.3529  0.2841
  954MOL0     C31535   2.414   4.296  10.537 -0.6876 -0.2361  0.4118
  954MOL0     C31536   2.307   4.196  10.560  0.2730  0.2700 -0.4076
  954MOL0     C31537   2.185   4.258  10.627  0.2887  0.5804  0.1776
  954MOL0     O31538   2.071   4.165  10.647  0.5439 -0.9942 -0.4834
  954MOL0     C31539   1.983   4.133  10.543  0.2600 -0.0205 -0.4234
  954MOL0     C31540   1.871   4.047  10.577 -0.5376 -0.4315  0.0304
  954MOL0     C31541   1.773   4.009  10.481  0.1629 -0.3426 -0.8045
  954MOL0     C31542   1.680   3.904  10.534 -0.3844  0.0083 -0.5512
  954MOL0     C31543   1.783   4.060  10.343 -0.3465  0.0787 -0.4767
  954MOL0     C31544   1.681   4.026  10.239 -0.2822  0.4131 -0.5218
  954MOL0     O31545   1.562   3.959  10.276 -0.0998  0.6422 -0.6122
  954MOL0     C31546   1.481   3.928  10.178  0.5018 -0.3940 -0.2353
  954MOL0     C31547   1.385   4.012  10.126  0.4270  0.4843 -0.0112
  954MOL0     C31548   1.309   3.983  10.009 -0.4186 -0.0662  0.6761
  954MOL0     C31549   1.337   3.866   9.931 -0.0565  0.0119 -0.7665
  954MOL0     O31550   1.269   3.824   9.823 -0.0908  0.2919  0.5869
  954MOL0     C31551   1.201   3.915   9.736  0.6589 -0.6127  0.0259
  954MOL0     C31552   1.139   3.837   9.616 -0.0323  0.4664 -0.5064
  954MOL0     C31553   1.024   3.760   9.667 -0.2813  0.2045  0.3745
  954MOL0     C31554   0.943   3.680   9.565  0.2202  0.4631  0.3075
  954MOL0     C31555   0.854   3.777   9.481 -0.3835  0.5537  0.2462
  954MOL0     C31556   0.743   3.703   9.412  0.7296  0.8628  0.0251
  954MOL0     C31557   0.776   3.564   9.348  0.5537 -1.1383  0.3738
  954MOL0     C31558   0.645   3.515   9.281 -0.9533  0.0488 -0.4967
  954MOL0    Cl31559   0.670   3.366   9.179  0.0036  0.6050 -0.4332
  954MOL0     C31560   1.423   3.775   9.988  0.0663  0.3568 -0.6708
  954MOL0     C31561   1.491   3.809  10.101  0.8522  0.8048 -1.0233
  954MOL0     O31562   1.713   4.057  10.122 -0.4321  0.6215 -0.3017
  954MOL0     C31563   1.890   4.145  10.311 -0.1575  0.3207  0.4171
  954MOL0     C31564   1.982   4.183  10.408 -0.7587  0.3427  0.3047
  954MOL0     N31565   2.771   4.336  10.405  0.3488  0.1676  0.6252
  954MOL0     N31566   2.814   4.413  10.308 -0.1156 -0.4331  0.2842
  954MOL0     C31567   2.281   5.116  10.396 -0.6310  0.0267 -0.6639
  954MOL0     C31568   2.141   5.125  10.420 -0.5348  0.0494  0.5762
  954MOL0     C31569   1.703   5.016  10.573  1.1149  0.1209 -0.3521
  954MOL0     C31570   1.663   5.010  10.438  1.0537 -0.4124 -0.4032
  954MOL0     C31571   1.527   4.991  10.394  0.4485  0.3525  0.2259
  954MOL0     C31572   1.435   4.965  10.493  0.0745 -0.2205 -0.3834
  954MOL0     O31573   1.304   4.936  10.461 -0.1631 -0.9924  0.0279
  954MOL0     C31574   1.206   5.023  10.523  0.3897  0.4324  0.2542
  954MOL0     C31575   1.084   5.010  10.426  0.4938  0.0769 -0.3870
  954MOL0     C31576   1.101   5.052  10.276 -1.3428  0.2655 -0.2061
  954MOL0     C31577   0.976   5.040  10.196  0.4548 -0.9990 -0.5154
  954MOL0     C31578   0.962   4.892  10.187 -0.4863 -0.7030 -0.5495
  954MOL0     C31579   0.962   4.772  10.186 -0.0523 -0.0164 -0.0287
  954MOL0     C31580   1.472   4.951  10.626 -0.4607 -0.9723  0.7344
  954MOL0     C31581   1.601   4.982  10.674 -0.7072  0.2640 -0.6627
  954MOL0     C31582   1.616   4.981  10.825  0.1975  0.3878  0.8444
  954MOL0     H31583   2.108   4.890  10.662  0.3974 -1.7954 -2.0042
  954MOL0     H31584   2.338   4.891  10.643  1.0496  2.1079  2.3046
  954MOL0     H31585   2.538   5.194  10.529  0.9110  0.9295 -1.1929
  954MOL0     H31586   2.587   5.163  10.365 -0.8920 -1.3032 -0.8530
  954MOL0     H31587   2.765   5.133  10.582 -1.2001  0.3206 -0.4139
  954MOL0     H31588   2.682   4.987  10.600 -1.4244  2.2829  2.6985
  954MOL0     H31589   2.797   5.083  10.329  0.7471  1.7054  0.7455
  954MOL0     H31590   2.913   5.039  10.457 -0.4153  1.3224  0.4578
  954MOL0     H31591   2.832   4.815  10.470  3.7227  0.0936 -1.9836
  954MOL0     H31592   2.687   4.857  10.372 -0.2501  0.2676 -2.4864
  954MOL0     H31593   2.991   4.859  10.297  0.8462 -0.1349 -2.5825
  954MOL0     H31594   2.866   4.925  10.189 -0.9352 -2.0333 -1.1520
  954MOL0     H31595   2.938   4.715  10.130  1.3183  2.0287  1.2636
  954MOL0     H31596   2.915   4.639  10.288  2.6460  0.1849 -1.5707
  954MOL0     H31597   2.718   4.739  10.075 -2.9010 -3.2971 -1.8553
  954MOL0     H31598   2.659   4.717  10.244 -1.1990 -2.5149  0.0094
  954MOL0     H31599   2.607   4.530  10.080  0.7548 -1.8965 -1.3187
  954MOL0     H31600   2.786   4.503  10.064  0.6750  0.7759  1.0486
  954MOL0     H31601   2.491   4.415  10.262 -0.3694  1.8198  0.1837
  954MOL0     H31602   2.597   4.197  10.588  0.5841 -0.8996 -0.2764
  954MOL0     H31603   2.520   4.149  10.425 -0.8047  1.7848 -0.9590
  954MOL0     H31604   2.432   4.346  10.633  1.5845  1.7095 -0.9236
  954MOL0     H31605   2.393   4.367  10.457 -0.8643 -2.6882 -1.8783
  954MOL0     H31606   2.277   4.147  10.467  0.1013  1.6678 -1.1241
  954MOL0     H31607   2.339   4.116  10.627  0.3925  0.7718  0.1417
  954MOL0     H31608   2.220   4.300  10.722  0.7508  1.6577 -0.4471
  954MOL0     H31609   2.149   4.341  10.566 -1.9399  0.3655  1.1302
  954MOL0     H31610   1.852   4.015  10.679  0.1182  2.9337  1.3527
  954MOL0     H31611   1.582   3.953  10.537  1.1382  3.3296 -0.6243
  954MOL0     H31612   1.697   3.866  10.635 -0.3996 -0.8979 -0.8808
  954MOL0     H31613   1.687   3.811  10.476  0.4470 -1.2191  1.4315
  954MOL0     H31614   1.381   4.111  10.170  0.1855  1.6895 -2.5767
  954MOL0     H31615   1.240   4.050   9.958  1.1771 -0.4734 -2.2611
  954MOL0     H31616   1.122   3.965   9.792  2.1241  0.5772  1.0985
  954MOL0     H31617   1.274   3.990   9.705  1.3800 -1.3045  0.0101
  954MOL0     H31618   1.096   3.900   9.537 -0.5399  0.2168 -0.4321
  954MOL0     H31619   1.216   3.775   9.570 -0.1913 -1.3642  1.5433
  954MOL0     H31620   0.961   3.837   9.712  0.6862  2.6990 -2.1640
  954MOL0     H31621   1.045   3.689   9.747 -3.5531 -3.4452 -1.6020
  954MOL0     H31622   0.868   3.616   9.612 -1.0448  2.0923  0.5834
  954MOL0     H31623   1.010   3.627   9.496  0.5675  0.7123  0.4457
  954MOL0     H31624   0.814   3.847   9.554  2.3365  3.3671 -0.7401
  954MOL0     H31625   0.914   3.828   9.406 -3.3269  0.4579 -2.3658
  954MOL0     H31626   0.705   3.777   9.342  0.7801 -0.5750 -1.5750
  954MOL0     H31627   0.666   3.687   9.488  0.4110 -1.5211 -0.7215
  954MOL0     H31628   0.806   3.498   9.430 -1.1355  1.0143  2.8853
  954MOL0     H31629   0.848   3.564   9.266 -0.4676 -3.1786 -0.5944
  954MOL0     H31630   0.609   3.597   9.218 -0.4079 -1.8035 -3.3713
  954MOL0     H31631   0.565   3.491   9.352 -1.1617 -0.5541 -0.9278
  954MOL0     H31632   1.437   3.674   9.952  2.0296  0.6091 -0.7196
  954MOL0     H31633   1.564   3.740  10.142  1.3208  1.4932 -0.6751
  954MOL0     H31634   1.906   4.177  10.209 -0.5360 -4.3362 -1.3422
  954MOL0     H31635   2.052   4.260  10.377 -0.1191  0.6576  2.3546
  954MOL0     H31636   2.323   5.170  10.312  1.1214  2.3908  1.5767
  954MOL0     H31637   2.091   5.183  10.344  0.0515 -0.1235  0.0486
  954MOL0     H31638   1.746   5.007  10.369  1.9790 -2.0986  0.7301
  954MOL0     H31639   1.504   4.997  10.289  3.3112  1.5860 -0.4453
  954MOL0     H31640   1.166   4.990  10.620 -1.8630 -0.3426 -0.8608
  954MOL0     H31641   1.248   5.124  10.530  0.2767  0.3841  2.1255
  954MOL0     H31642   1.011   5.076  10.475  0.2820 -1.0866  0.9520
  954MOL0     H31643   1.040   4.909  10.432 -1.1997  0.8494  1.8396
  954MOL0     H31644   1.141   5.153  10.278 -1.3679  0.2908  2.4891
  954MOL0     H31645   1.186   4.998  10.233 -0.3081  0.9707  0.9034
  954MOL0     H31646   0.997   5.082  10.098 -0.3693 -1.7954 -1.0503
  954MOL0     H31647   0.893   5.088  10.248  2.5465  0.7661  1.3781
  954MOL0     H31648   0.956   4.670  10.217 -2.0966  0.3827  1.0393
  954MOL0     H31649   1.393   4.926  10.697  0.6377 -1.3500  1.8648
  954MOL0     H31650   1.526   4.943  10.874 -2.6592  1.6020 -2.9979
  954MOL0     H31651   1.693   4.907  10.850 -1.6002 -0.6002  4.0443
  954MOL0     H31652   1.626   5.084  10.861 -1.8385  0.4154  1.4832
  955MOL0     O31653   0.271   2.385   0.704 -0.2960  0.2770  0.2357
  955MOL0     C31654   0.169   2.350   0.638 -1.6748  0.7066 -0.6533
  955MOL0     O31655   0.113   2.217   0.634  0.3408 -0.7162 -0.6836
  955MOL0     C31656   0.164   2.108   0.702 -0.8637 -0.9889  0.7598
  955MOL0     C31657   0.103   1.979   0.677  0.1472 -0.6885  0.1713
  955MOL0     C31658   0.139   1.864   0.744 -0.6513  0.2277  0.1115
  955MOL0     C31659   0.243   1.863   0.837 -0.1950 -0.7306 -0.0111
  955MOL0     O31660   0.261   1.742   0.898 -0.7851  0.5237  0.6115
  955MOL0     C31661   0.371   1.745   0.990  0.0749 -0.5729  0.2275
  955MOL0     C31662   0.494   1.708   0.913 -0.4226 -0.9118 -0.1288
  955MOL0     C31663   0.618   1.694   0.999 -0.5163 -0.2662  1.3241
  955MOL0     C31664   0.753   1.673   0.920 -0.1010  0.1948  0.7194
  955MOL0     C31665   0.780   1.765   0.815 -0.3939 -0.5845 -0.0719
  955MOL0     C31666   0.914   1.733   0.750 -0.3431  0.3674  0.9214
  955MOL0     C31667   1.035   1.814   0.806  0.9065  0.3805 -0.6927
  955MOL0     C31668   1.156   1.773   0.726 -0.7502  0.3258  0.5840
  955MOL0     N31669   1.285   1.849   0.738  0.9012  0.6012 -0.0738
  955MOL0     C31670   1.323   1.957   0.665  0.7001  0.0253 -0.7526
  955MOL0     C31671   1.438   2.001   0.725  0.1854 -0.0996  1.2384
  955MOL0     C31672   1.504   2.132   0.673 -0.3977  0.6331  0.5170
  955MOL0     C31673   1.651   2.126   0.680 -0.2842  0.1707 -0.1939
  955MOL0     C31674   1.710   2.262   0.649 -0.0375 -0.5479  0.6662
  955MOL0     C31675   1.864   2.268   0.671 -0.0692  0.8243 -0.6152
  955MOL0     O31676   1.935   2.377   0.619  0.1343 -0.5065 -0.9453
  955MOL0     C31677   1.864   2.488   0.581  0.9861  0.2930  0.5817
  955MOL0     C31678   1.833   2.591   0.675  0.1405 -0.7383  0.6620
  955MOL0     C31679   1.765   2.705   0.645  0.4145 -0.1191  0.7419
  955MOL0     C31680   1.742   2.818   0.752  0.5817  0.2032 -0.4425
  955MOL0     C31681   1.717   2.728   0.513  0.0482 -0.1177 -0.6988
  955MOL0     C31682   1.641   2.844   0.472 -0.2733  0.8840  0.0189
  955MOL0     O31683   1.707   2.965   0.471 -0.1865 -0.0809  0.0145
  955MOL0     C31684   1.649   3.076   0.422  0.4166 -0.2386  0.8789
  955MOL0     C31685   1.682   3.116   0.298 -0.6868  0.1475 -0.0992
  955MOL0     C31686   1.615   3.230   0.247  0.6750  0.1692  1.0026
  955MOL0     C31687   1.522   3.305   0.321  0.3035  0.2194  0.6461
  955MOL0     O31688   1.462   3.422   0.280  0.4030 -0.6166  0.7214
  955MOL0     C31689   1.534   3.512   0.204 -0.1217  0.2669 -0.3670
  955MOL0     C31690   1.436   3.566   0.103  0.9250  0.4709  0.3761
  955MOL0     C31691   1.493   3.683   0.014  0.2692 -0.0346  0.3921
  955MOL0     C31692   1.423   3.820   0.052  0.1946 -0.3902 -0.0593
  955MOL0     C31693   1.399   3.915  -0.076 -0.4194  0.6382 -0.9747
  955MOL0     C31694   1.312   4.041  -0.043  0.3459  0.6166  0.5104
  955MOL0     C31695   1.309   4.138  -0.157  0.4772 -0.9724  0.0200
  955MOL0     C31696   1.233   4.279  -0.139  0.0136 -0.5420 -0.5013
  955MOL0    Cl31697   1.197   4.345  -0.300  0.0345  0.1639  0.1091
  955MOL0     C31698   1.484   3.250   0.437  0.7575  0.8336  0.6065
  955MOL0     C31699   1.540   3.131   0.491 -0.1066 -1.1357 -1.3580
  955MOL0     O31700   1.520   2.823   0.444 -0.0234  0.6482  0.3766
  955MOL0     C31701   1.753   2.639   0.410 -0.5657  0.3182 -0.0468
  955MOL0     C31702   1.823   2.514   0.448  0.1800 -0.0156  0.4810
  955MOL0     N31703   1.467   1.907   0.826  0.2955 -0.9772  0.1356
  955MOL0     N31704   1.372   1.824   0.836  0.0953  0.0477 -0.3923
  955MOL0     C31705   0.316   1.983   0.851  0.5925  0.2540  0.7368
  955MOL0     C31706   0.275   2.098   0.789  0.4540 -0.3991  0.2302
  955MOL0     C31707   0.125   2.452   0.549 -0.2123 -0.9852 -0.4091
  955MOL0     C31708   0.064   2.413   0.428  0.2430 -0.1704 -0.4787
  955MOL0     C31709   0.015   2.499   0.333  0.0372 -0.6122 -0.1612
  955MOL0     C31710   0.031   2.637   0.345 -0.0050 -0.3149  0.8921
  955MOL0     O31711  -0.010   2.714   0.240  0.6839  0.5919  0.4507
  955MOL0     C31712   0.105   2.805   0.217 -0.0451 -0.0799 -0.1292
  955MOL0     C31713   0.147   2.794   0.066  0.0819 -0.4495 -1.0681
  955MOL0     C31714   0.024   2.837  -0.025  0.7629 -0.4909 -0.4843
  955MOL0     C31715   0.060   2.806  -0.173 -0.1332 -0.6977 -0.3098
  955MOL0     C31716   0.165   2.904  -0.217 -0.4647 -0.2497  0.8138
  955MOL0     C31717   0.272   2.968  -0.233  0.3325  0.3767  0.3499
  955MOL0     C31718   0.073   2.688   0.474 -0.6563  0.3238 -0.1588
  955MOL0     C31719   0.121   2.594   0.575  0.0425  0.5391  0.3024
  955MOL0     C31720   0.192   2.653   0.700 -0.5065  0.6708  0.3811
  955MOL0     H31721   0.023   1.969   0.604  1.7389 -0.0199 -1.7512
  955MOL0     H31722   0.075   1.777   0.732  0.4268 -0.4600 -0.9735
  955MOL0     H31723   0.344   1.672   1.067 -2.9920  1.6048  1.4042
  955MOL0     H31724   0.393   1.836   1.046 -1.2490 -1.4503  2.3033
  955MOL0     H31725   0.470   1.623   0.847 -1.3714  0.3515 -1.4775
  955MOL0     H31726   0.518   1.791   0.846 -0.8799  0.3560  1.2471
  955MOL0     H31727   0.624   1.795   1.040  0.9075  0.3926 -0.3778
  955MOL0     H31728   0.613   1.618   1.078 -0.5497  0.9894  2.5611
  955MOL0     H31729   0.833   1.668   0.994  1.1695 -1.4632 -0.6996
  955MOL0     H31730   0.758   1.570   0.883 -3.1953  0.0293  0.4601
  955MOL0     H31731   0.776   1.867   0.854 -0.0605 -0.2047 -0.9932
  955MOL0     H31732   0.706   1.758   0.735 -1.1037  1.1711  0.3903
  955MOL0     H31733   0.926   1.625   0.749  1.1217  0.5040  0.4938
  955MOL0     H31734   0.903   1.759   0.644 -0.7027  0.0870  0.8884
  955MOL0     H31735   1.058   1.792   0.911  0.0589 -1.0699 -0.7785
  955MOL0     H31736   1.008   1.920   0.806 -2.1889 -0.3214 -0.2595
  955MOL0     H31737   1.178   1.668   0.745 -2.0403  0.2258  1.6669
  955MOL0     H31738   1.139   1.774   0.618  4.1490 -3.6008 -0.5965
  955MOL0     H31739   1.265   2.009   0.589  1.8904 -0.1004 -1.7763
  955MOL0     H31740   1.465   2.213   0.734  0.5023  0.9550  0.6734
  955MOL0     H31741   1.476   2.154   0.569  0.5138  0.7866  0.2926
  955MOL0     H31742   1.681   2.098   0.781 -0.8355 -0.5696 -0.2274
  955MOL0     H31743   1.690   2.058   0.604 -0.5549 -1.2566  0.9213
  955MOL0     H31744   1.694   2.269   0.541 -0.6918 -0.9595  0.7265
  955MOL0     H31745   1.659   2.341   0.704  1.9315 -0.5861  2.6952
  955MOL0     H31746   1.887   2.241   0.774 -0.0710  1.0478 -0.5556
  955MOL0     H31747   1.892   2.175   0.621  1.2925  0.7829  0.1953
  955MOL0     H31748   1.871   2.570   0.774  0.2607  1.9241  1.2672
  955MOL0     H31749   1.649   2.799   0.806  0.9318 -1.2115 -0.3024
  955MOL0     H31750   1.745   2.920   0.713 -0.3254 -0.0735 -1.2564
  955MOL0     H31751   1.829   2.812   0.818  1.7175 -1.3168 -1.9747
  955MOL0     H31752   1.757   3.072   0.234 -1.9132  0.1965 -1.6189
  955MOL0     H31753   1.652   3.253   0.147 -0.5465  1.6487  0.8507
  955MOL0     H31754   1.573   3.592   0.266  0.5049 -0.3362  0.0271
  955MOL0     H31755   1.609   3.449   0.155 -0.5717 -2.4675  2.1894
  955MOL0     H31756   1.407   3.479   0.043  3.1543  0.0472 -0.1881
  955MOL0     H31757   1.344   3.602   0.149  1.9637  2.4329  1.0191
  955MOL0     H31758   1.473   3.672  -0.093 -0.9835  1.6265  0.4140
  955MOL0     H31759   1.602   3.692   0.007  0.7722 -4.5868 -3.6998
  955MOL0     H31760   1.488   3.869   0.124  2.9556  0.1036 -2.6643
  955MOL0     H31761   1.317   3.818   0.079  0.0853  3.5226  0.2823
  955MOL0     H31762   1.501   3.942  -0.103  0.3083  0.1822  1.0876
  955MOL0     H31763   1.345   3.854  -0.148 -0.3674 -0.2574 -0.2711
  955MOL0     H31764   1.354   4.094   0.044  1.1280 -0.3886  0.7693
  955MOL0     H31765   1.209   4.009  -0.027  0.2560  1.5392  2.0767
  955MOL0     H31766   1.258   4.090  -0.241  3.0234 -0.8399 -1.7550
  955MOL0     H31767   1.413   4.159  -0.186 -0.1161 -0.7128 -2.1266
  955MOL0     H31768   1.300   4.348  -0.086  2.2913 -1.7522 -1.6696
  955MOL0     H31769   1.142   4.263  -0.081  1.1989 -0.7157  1.4142
  955MOL0     H31770   1.398   3.295   0.485  2.1936  2.6550  1.6065
  955MOL0     H31771   1.510   3.095   0.589  2.3030 -0.3932 -0.2637
  955MOL0     H31772   1.724   2.674   0.312  0.2470  3.3246  0.6827
  955MOL0     H31773   1.840   2.438   0.373  1.6962  0.9505 -0.1968
  955MOL0     H31774   0.409   1.986   0.907  0.4697 -0.4692  0.9848
  955MOL0     H31775   0.322   2.193   0.812 -0.6183  0.1635  0.1232
  955MOL0     H31776   0.052   2.308   0.402  2.2042 -0.6761  0.4735
  955MOL0     H31777  -0.031   2.463   0.242 -2.2540  0.6026  0.4237
  955MOL0     H31778   0.075   2.909   0.237  1.6969  0.3331  0.4530
  955MOL0     H31779   0.194   2.785   0.277  0.1373  1.8526  0.3244
  955MOL0     H31780   0.163   2.689   0.042 -0.1204 -1.2508  1.9048
  955MOL0     H31781   0.238   2.850   0.043  0.5268 -0.2938  0.9330
  955MOL0     H31782  -0.061   2.774  -0.000 -1.0597  0.4288 -3.8475
  955MOL0     H31783   0.010   2.943  -0.003  1.9835 -0.6089  1.0949
  955MOL0     H31784  -0.024   2.832  -0.238  0.6064 -2.1148 -1.9057
  955MOL0     H31785   0.070   2.698  -0.186 -3.1094 -1.2218  0.9457
  955MOL0     H31786   0.374   3.000  -0.241 -0.0035  1.4030  0.1321
  955MOL0     H31787   0.072   2.793   0.501  1.6417 -0.1147  1.9891
  955MOL0     H31788   0.163   2.758   0.713  1.3863  1.3418 -0.4369
  955MOL0     H31789   0.170   2.599   0.793  0.0549  1.1025  0.7675
  955MOL0     H31790   0.299   2.658   0.677 -0.9594  1.1806 -1.9419
  956MOL0     O31791   9.617   1.253   7.121 -0.0241  0.0390 -0.1768
  956MOL0     C31792   9.708   1.170   7.140  0.9374  0.1437 -0.2072
  956MOL0     O31793   9.752   1.075   7.047  0.4581 -0.2080 -0.9220
  956MOL0     C31794   9.672   1.067   6.937 -0.0707 -1.1263 -0.3583
  956MOL0     C31795   9.537   1.029   6.941 -0.5165  1.3221  0.2017
  956MOL0     C31796   9.464   1.010   6.825 -0.2779  0.1717  0.2589
  956MOL0     C31797   9.531   1.024   6.693  0.2952  0.0133 -0.0097
  956MOL0     O31798   9.492   1.014   6.564  0.3337  0.4886  0.6036
  956MOL0     C31799   9.354   0.984   6.538 -0.1053 -0.3418 -0.7015
  956MOL0     C31800   9.315   1.001   6.397 -0.4738 -0.1648  0.0537
  956MOL0     C31801   9.163   0.951   6.390  0.1005 -0.0916 -0.0315
  956MOL0     C31802   9.105   1.018   6.262  0.6343  0.0383  0.1230
  956MOL0     C31803   8.957   0.978   6.261  0.4235  0.4381  0.4778
  956MOL0     C31804   8.902   1.013   6.116 -0.0130  0.7999 -0.1809
  956MOL0     C31805   8.778   0.930   6.073 -0.2895 -0.5167  0.4055
  956MOL0     C31806   8.756   0.920   5.919  0.9790 -0.9173 -0.8451
  956MOL0     N31807   8.623   0.850   5.897 -0.0233 -0.2290  0.0296
  956MOL0     C31808   8.501   0.914   5.897  0.3680 -0.1308  0.0652
  956MOL0     C31809   8.409   0.814   5.868 -0.1932  0.9389  0.0864
  956MOL0     C31810   8.263   0.819   5.887  0.6647 -0.3068  0.1185
  956MOL0     C31811   8.213   0.743   6.008  0.8698 -0.4235 -0.2356
  956MOL0     C31812   8.197   0.838   6.134  0.5731 -0.8330 -0.4800
  956MOL0     C31813   8.166   0.750   6.258 -0.6351 -0.0835  0.2444
  956MOL0     O31814   8.163   0.827   6.376  0.3054 -0.3945 -0.5630
  956MOL0     C31815   8.064   0.922   6.391  0.4557 -0.2958 -0.3420
  956MOL0     C31816   8.088   1.029   6.477 -0.6988  0.1779 -0.5772
  956MOL0     C31817   7.992   1.128   6.498  1.0010  0.2721  1.0163
  956MOL0     C31818   8.017   1.232   6.601  0.3701  1.1785  0.3541
  956MOL0     C31819   7.872   1.125   6.433  0.1657  0.4340  0.6187
  956MOL0     C31820   7.754   1.213   6.461  0.1229  1.0017  0.8115
  956MOL0     O31821   7.786   1.347   6.475  0.6316 -0.5190  0.1583
  956MOL0     C31822   7.710   1.427   6.556  0.4524  0.1780 -0.2407
  956MOL0     C31823   7.780   1.498   6.662  0.2965 -0.0276  0.4976
  956MOL0     C31824   7.709   1.594   6.731  0.1538 -0.2445 -0.2519
  956MOL0     C31825   7.568   1.612   6.709 -0.7706 -0.4513  0.7505
  956MOL0     O31826   7.504   1.704   6.796 -0.7973 -0.1250  0.9548
  956MOL0     C31827   7.371   1.669   6.837 -0.7156 -0.0873 -0.4220
  956MOL0     C31828   7.300   1.796   6.877  0.6403  0.7734 -1.5389
  956MOL0     C31829   7.157   1.774   6.914 -0.2781  0.1059  0.0608
  956MOL0     C31830   7.104   1.904   6.981  0.7283  0.2433  0.2648
  956MOL0     C31831   6.958   1.898   7.017  0.4994  0.2110  0.0377
  956MOL0     C31832   6.893   2.040   7.033 -0.1571 -0.9127  0.6130
  956MOL0     C31833   6.738   2.030   7.057  0.1156 -0.1989  0.2369
  956MOL0     C31834   6.666   2.172   7.047  0.4683  0.2964 -0.3028
  956MOL0    Cl31835   6.717   2.255   7.191  0.4906  0.1246  0.1122
  956MOL0     C31836   7.501   1.528   6.615  0.4214 -0.4134 -0.7765
  956MOL0     C31837   7.574   1.445   6.536  0.2473 -0.1653  0.7140
  956MOL0     O31838   7.640   1.167   6.464 -0.9458  0.6604  0.8558
  956MOL0     C31839   7.845   1.021   6.340 -0.4674 -1.1211  0.0492
  956MOL0     C31840   7.944   0.920   6.312 -0.2512  0.6113 -0.1643
  956MOL0     N31841   8.484   0.704   5.853 -0.5245  0.0556 -0.0423
  956MOL0     N31842   8.618   0.721   5.878  0.6927 -0.0645 -0.3387
  956MOL0     C31843   9.668   1.064   6.692  0.7370  0.4831 -0.5002
  956MOL0     C31844   9.730   1.088   6.817 -0.1990  0.2134 -0.0403
  956MOL0     C31845   9.780   1.173   7.270 -0.6704  0.4895  0.4900
  956MOL0     C31846   9.918   1.199   7.271  0.1462  0.7896 -0.0220
  956MOL0     C31847   9.984   1.198   7.393  0.2784 -0.5260 -0.2146
  956MOL0     C31848   9.923   1.162   7.514 -0.9490 -0.3562  0.3376
  956MOL0     O31849   9.976   1.144   7.640  0.3393  0.5510 -0.2472
  956MOL0     C31850  10.113   1.153   7.652 -0.3943  0.0921  0.2264
  956MOL0     C31851  10.170   1.293   7.659  0.9253 -0.5222 -0.5625
  956MOL0     C31852  10.096   1.381   7.750  0.1894  0.0754 -0.0486
  956MOL0     C31853  10.111   1.537   7.728  0.6497  0.8599  0.3886
  956MOL0     C31854  10.108   1.619   7.852 -0.9820 -0.7840 -0.5758
  956MOL0     C31855  10.117   1.694   7.950 -1.3160  0.0725  0.1454
  956MOL0     C31856   9.793   1.148   7.504  1.1978  0.4844  0.3967
  956MOL0     C31857   9.719   1.153   7.387  0.6245 -0.2324 -0.7255
  956MOL0     C31858   9.581   1.103   7.401  0.2747 -0.8688  0.3865
  956MOL0     H31859   9.484   1.006   7.033  1.0780 -2.9981  0.2791
  956MOL0     H31860   9.358   0.987   6.815 -0.5002  1.7197 -1.4560
  956MOL0     H31861   9.284   1.038   6.601 -0.3341  0.1691 -1.3875
  956MOL0     H31862   9.335   0.876   6.543 -0.2885 -0.2699  0.3185
  956MOL0     H31863   9.320   1.108   6.377  2.0245  0.2914  2.4842
  956MOL0     H31864   9.383   0.946   6.332 -1.0482  0.7195 -1.3474
  956MOL0     H31865   9.148   0.843   6.390 -0.2952 -0.0360  0.1108
  956MOL0     H31866   9.101   0.983   6.474 -1.6764 -0.1044 -1.2877
  956MOL0     H31867   9.117   1.126   6.271 -1.0749  0.3712 -0.9768
  956MOL0     H31868   9.152   0.985   6.169 -2.0827 -1.1712 -0.9391
  956MOL0     H31869   8.904   1.035   6.339 -3.0808 -1.7021 -0.1007
  956MOL0     H31870   8.932   0.872   6.264 -0.9627  0.6540 -1.4546
  956MOL0     H31871   8.881   1.121   6.112  1.5173  1.1068 -1.0492
  956MOL0     H31872   8.972   1.004   6.033 -0.0617 -2.2171  0.0031
  956MOL0     H31873   8.687   0.972   6.118 -2.6632 -1.8026 -2.8514
  956MOL0     H31874   8.804   0.829   6.105  0.3871 -0.1018  1.2131
  956MOL0     H31875   8.745   1.023   5.884 -0.4239  0.5475  3.3107
  956MOL0     H31876   8.839   0.862   5.878  3.1609 -0.1337  2.1272
  956MOL0     H31877   8.475   1.015   5.928 -1.9446 -0.6278 -0.0623
  956MOL0     H31878   8.218   0.770   5.801  0.7012  0.7995 -0.5501
  956MOL0     H31879   8.228   0.922   5.883  2.0969  0.2653  1.3648
  956MOL0     H31880   8.118   0.694   5.980  2.5691 -2.4190 -3.0541
  956MOL0     H31881   8.284   0.670   6.047 -1.5064 -2.4667  0.5781
  956MOL0     H31882   8.280   0.903   6.160 -0.3511  0.2975 -0.2977
  956MOL0     H31883   8.111   0.905   6.126  2.0646  1.2141 -0.1204
  956MOL0     H31884   8.074   0.691   6.248  0.5333 -1.9158 -0.2393
  956MOL0     H31885   8.235   0.666   6.266 -3.6211 -2.6389  1.1996
  956MOL0     H31886   8.183   1.026   6.531 -0.8625 -2.3618 -0.2951
  956MOL0     H31887   7.933   1.239   6.670  1.4794 -0.1061  1.9010
  956MOL0     H31888   8.017   1.333   6.558 -0.4486  1.2746  0.5781
  956MOL0     H31889   8.113   1.231   6.653  1.3869  1.2407 -1.4247
  956MOL0     H31890   7.888   1.490   6.668  0.3027 -0.5614 -0.1868
  956MOL0     H31891   7.761   1.651   6.808 -2.6058 -1.3241  2.6195
  956MOL0     H31892   7.301   1.635   6.759 -1.9021 -1.1735  1.0598
  956MOL0     H31893   7.379   1.595   6.917  0.9358 -1.5156 -1.8424
  956MOL0     H31894   7.353   1.845   6.960  4.6196 -2.1176 -2.0831
  956MOL0     H31895   7.317   1.876   6.804 -1.2383  2.8102  0.1029
  956MOL0     H31896   7.147   1.687   6.980 -1.1507 -0.3147 -0.6013
  956MOL0     H31897   7.088   1.750   6.833 -1.7897 -3.0308  2.0671
  956MOL0     H31898   7.114   1.994   6.919 -1.3141  1.5712  1.7256
  956MOL0     H31899   7.152   1.917   7.078  0.2421 -1.0348  0.6925
  956MOL0     H31900   6.896   1.839   6.949  3.6703  0.4174 -3.2973
  956MOL0     H31901   6.947   1.858   7.118 -1.6854 -0.0977 -0.2884
  956MOL0     H31902   6.910   2.089   6.936 -3.5366 -1.3701 -0.3630
  956MOL0     H31903   6.953   2.096   7.104  1.6149 -3.9218  1.6931
  956MOL0     H31904   6.727   1.985   7.156 -1.3510  3.0696  1.7279
  956MOL0     H31905   6.685   1.963   6.989  1.8294 -1.0878 -0.2772
  956MOL0     H31906   6.559   2.153   7.054  0.4559  0.8167  1.7215
  956MOL0     H31907   6.700   2.218   6.954 -1.1261  0.4891 -0.8104
  956MOL0     H31908   7.393   1.531   6.600 -0.0898  2.4396  2.2507
  956MOL0     H31909   7.527   1.390   6.455  4.3195 -2.7531 -0.2306
  956MOL0     H31910   7.750   1.006   6.289  0.0357 -1.5981 -0.7765
  956MOL0     H31911   7.930   0.831   6.252  4.1098 -1.0531  0.9211
  956MOL0     H31912   9.732   1.067   6.604  2.9789 -1.6810  0.9054
  956MOL0     H31913   9.838   1.095   6.826 -0.2798 -0.3964  2.4894
  956MOL0     H31914   9.964   1.210   7.173  0.0453 -1.0522 -0.3137
  956MOL0     H31915  10.092   1.206   7.389  0.7610 -4.4332  0.7193
  956MOL0     H31916  10.146   1.100   7.742 -0.4149  0.5131  0.4871
  956MOL0     H31917  10.161   1.098   7.571 -2.4951  1.1794 -1.8933
  956MOL0     H31918  10.176   1.341   7.561 -0.6178 -1.1621 -1.0007
  956MOL0     H31919  10.267   1.283   7.709  1.4756 -0.0100 -1.5090
  956MOL0     H31920   9.990   1.363   7.729 -0.1360  0.9494  0.8246
  956MOL0     H31921  10.112   1.361   7.856 -0.3539  0.2179  0.0635
  956MOL0     H31922  10.025   1.569   7.668  1.4733  4.3232  0.8691
  956MOL0     H31923  10.208   1.557   7.681  1.0731 -0.1891  0.7867
  956MOL0     H31924  10.120   1.756   8.037 -0.6150  0.2597 -0.0096
  956MOL0     H31925   9.757   1.118   7.602  0.2604 -3.2097 -0.9062
  956MOL0     H31926   9.523   1.177   7.345  0.6525 -0.3510  0.6757
  956MOL0     H31927   9.572   1.003   7.357  0.7843 -0.8925  0.3294
  956MOL0     H31928   9.538   1.117   7.500 -1.6767  3.0970 -0.8028
  957MOL0     O31929   7.370   4.365   7.832 -0.9207 -0.2413 -0.0646
  957MOL0     C31930   7.340   4.454   7.913 -0.5165 -0.8713  0.6041
  957MOL0     O31931   7.425   4.501   8.021  0.5549  0.4106  0.6356
  957MOL0     C31932   7.551   4.448   8.033 -1.1223 -0.5490 -0.6222
  957MOL0     C31933   7.662   4.536   8.022 -0.5208  0.3679  0.3645
  957MOL0     C31934   7.797   4.489   8.028  1.7024  0.0176 -0.2262
  957MOL0     C31935   7.813   4.352   8.057  0.2921 -0.0870 -0.9438
  957MOL0     O31936   7.925   4.282   8.063 -0.1676  0.9326  0.1079
  957MOL0     C31937   8.048   4.338   8.009 -0.1756 -0.5538 -0.2497
  957MOL0     C31938   8.122   4.403   8.125  0.0027 -0.2088 -0.0643
  957MOL0     C31939   8.175   4.299   8.223 -1.0414 -0.3417  0.0478
  957MOL0     C31940   8.239   4.370   8.342  0.3247 -0.6394 -0.8689
  957MOL0     C31941   8.368   4.446   8.303 -0.2193 -0.6888  0.1989
  957MOL0     C31942   8.438   4.522   8.412  0.1158  0.3681  0.1650
  957MOL0     C31943   8.578   4.563   8.370 -0.4801  0.1604  0.7806
  957MOL0     C31944   8.643   4.647   8.481 -0.2017 -0.8699  0.0380
  957MOL0     N31945   8.779   4.693   8.450  0.1698  0.0009  0.2390
  957MOL0     C31946   8.836   4.740   8.330 -0.3448 -0.0377  0.3612
  957MOL0     C31947   8.955   4.791   8.356 -0.1098  0.4294 -0.7706
  957MOL0     C31948   9.053   4.868   8.260 -0.3678 -0.2922  0.1556
  957MOL0     C31949   9.185   4.924   8.315  1.1227  0.2841  0.5820
  957MOL0     C31950   9.164   5.036   8.416 -0.2090 -0.6002 -0.4220
  957MOL0     C31951   9.307   5.079   8.474  0.2136  0.0230 -0.3851
  957MOL0     O31952   9.271   5.158   8.584 -1.0611 -0.0136 -0.0391
  957MOL0     C31953   9.211   5.283   8.566 -0.8327 -0.3804  0.3737
  957MOL0     C31954   9.204   5.356   8.446  0.2227 -0.4251  0.3444
  957MOL0     C31955   9.135   5.477   8.434 -0.4118 -0.7507 -0.5330
  957MOL0     C31956   9.133   5.543   8.299  0.4052 -0.1646  0.2728
  957MOL0     C31957   9.068   5.534   8.550 -0.1330  0.0073 -0.2112
  957MOL0     C31958   8.986   5.655   8.549 -0.3437 -0.1609 -0.7041
  957MOL0     O31959   8.929   5.697   8.672  0.0273 -0.9617 -0.3858
  957MOL0     C31960   8.872   5.821   8.671  0.7898 -0.0291 -0.7970
  957MOL0     C31961   8.931   5.938   8.730  0.0601  1.1889 -0.3346
  957MOL0     C31962   8.867   6.057   8.739 -0.1325  0.0949 -0.2392
  957MOL0     C31963   8.736   6.071   8.695  0.1522 -0.4443 -0.3116
  957MOL0     O31964   8.657   6.182   8.711 -0.1716 -0.5811  0.0088
  957MOL0     C31965   8.697   6.286   8.813 -0.2604 -0.2923  0.3727
  957MOL0     C31966   8.580   6.378   8.838  0.5897  0.4008  0.5050
  957MOL0     C31967   8.621   6.487   8.935 -0.9738  0.1722  0.4538
  957MOL0     C31968   8.545   6.617   8.941  0.3600 -0.6811 -0.3718
  957MOL0     C31969   8.607   6.728   9.029  0.6060  0.4203  0.0356
  957MOL0     C31970   8.633   6.680   9.176  0.3324 -0.4351 -0.5409
  957MOL0     C31971   8.700   6.776   9.271  0.0198 -0.2801  0.3203
  957MOL0     C31972   8.693   6.752   9.421 -0.1529  1.2324  0.1632
  957MOL0    Cl31973   8.544   6.838   9.485 -0.2551 -0.2477  0.4370
  957MOL0     C31974   8.670   5.959   8.635  0.1661 -0.9378  0.4257
  957MOL0     C31975   8.741   5.840   8.614  0.5534  0.0052 -0.7355
  957MOL0     O31976   8.972   5.719   8.447 -0.0412 -0.2302  0.3449
  957MOL0     C31977   9.081   5.457   8.663  0.2283 -0.4029 -0.3432
  957MOL0     C31978   9.148   5.339   8.669 -0.0776 -0.2498 -0.0930
  957MOL0     N31979   8.984   4.761   8.489  0.7044  1.1163 -0.6506
  957MOL0     N31980   8.876   4.710   8.542  0.2273  0.1917  0.1709
  957MOL0     C31981   7.702   4.276   8.091  0.2460  0.5035  0.2492
  957MOL0     C31982   7.572   4.323   8.081 -0.4156  0.0131  0.0193
  957MOL0     C31983   7.198   4.492   7.912 -0.5310  0.8886 -0.1063
  957MOL0     C31984   7.131   4.492   8.037  0.2164 -0.9296 -0.0134
  957MOL0     C31985   6.997   4.531   8.050  0.1195  0.6154 -0.0643
  957MOL0     C31986   6.925   4.567   7.931  0.6393 -0.5203 -0.3749
  957MOL0     O31987   6.784   4.586   7.928 -0.1148  0.0288  0.4573
  957MOL0     C31988   6.708   4.561   8.047 -0.1051 -0.5285 -0.6193
  957MOL0     C31989   6.564   4.549   8.010  0.8188  0.0756  0.1203
  957MOL0     C31990   6.542   4.420   7.938 -0.3793 -0.3621  0.1826
  957MOL0     C31991   6.395   4.423   7.896  0.5437 -0.4381 -0.0229
  957MOL0     C31992   6.375   4.329   7.785 -0.4959  0.2438 -0.7402
  957MOL0     C31993   6.337   4.270   7.684 -0.4202  0.1411  0.5916
  957MOL0     C31994   6.990   4.564   7.812 -0.0720  0.3827  0.4957
  957MOL0     C31995   7.119   4.522   7.794  0.0214  0.6732  0.1001
  957MOL0     C31996   7.176   4.532   7.650  0.0682 -0.4857  0.3473
  957MOL0     H31997   7.640   4.642   8.021  0.2542  0.5501  1.3284
  957MOL0     H31998   7.889   4.547   8.032  3.1950 -2.2581  0.6936
  957MOL0     H31999   8.027   4.424   7.944  0.6754  1.0474  1.4869
  957MOL0     H32000   8.109   4.270   7.949 -2.3037 -0.0522 -3.1626
  957MOL0     H32001   8.203   4.458   8.077 -1.5684 -1.0318 -4.0825
  957MOL0     H32002   8.061   4.465   8.191  0.8538 -0.5363  1.0595
  957MOL0     H32003   8.095   4.238   8.267  1.0581 -2.7097  0.8106
  957MOL0     H32004   8.257   4.248   8.171  0.9387  0.8269  1.8455
  957MOL0     H32005   8.169   4.443   8.383 -1.7557 -1.8124 -2.1390
  957MOL0     H32006   8.255   4.296   8.420 -2.4655  0.2130  0.6451
  957MOL0     H32007   8.341   4.515   8.222  0.6125 -1.7674 -1.0437
  957MOL0     H32008   8.437   4.382   8.247 -0.9501 -1.8137  0.5671
  957MOL0     H32009   8.386   4.615   8.438  2.1669  1.7970 -0.6686
  957MOL0     H32010   8.442   4.462   8.504  1.7956  2.3663  1.4663
  957MOL0     H32011   8.590   4.615   8.275 -0.0592 -1.3886 -0.0374
  957MOL0     H32012   8.636   4.470   8.370  2.0505  1.6455  1.0217
  957MOL0     H32013   8.581   4.737   8.487  0.3963 -0.3561 -1.2741
  957MOL0     H32014   8.648   4.588   8.573  0.6639  1.8363  1.8307
  957MOL0     H32015   8.778   4.741   8.238  1.2746 -0.2838 -0.6901
  957MOL0     H32016   9.003   4.954   8.215  1.0465  0.0789 -0.7962
  957MOL0     H32017   9.083   4.792   8.186 -0.9928 -2.3790  1.9244
  957MOL0     H32018   9.247   4.847   8.361  4.2797  1.9806 -0.5652
  957MOL0     H32019   9.242   4.957   8.228  0.7834 -2.7704 -0.9376
  957MOL0     H32020   9.112   5.119   8.367  0.5397  2.8441  3.9281
  957MOL0     H32021   9.103   5.004   8.500 -1.3528  3.5250  0.5193
  957MOL0     H32022   9.366   4.993   8.507 -0.0024 -0.2295 -0.6607
  957MOL0     H32023   9.367   5.136   8.402 -0.6493  0.0917 -1.0665
  957MOL0     H32024   9.250   5.322   8.354  3.0561  1.4654  0.9223
  957MOL0     H32025   9.188   5.479   8.230 -1.2976 -1.8327  0.3788
  957MOL0     H32026   9.183   5.640   8.309  1.2322 -0.5970  0.4053
  957MOL0     H32027   9.031   5.555   8.260 -0.1864 -2.1631  1.0760
  957MOL0     H32028   9.033   5.920   8.762 -0.1935 -3.7603 -1.4808
  957MOL0     H32029   8.914   6.140   8.791 -2.7729  0.6064  1.5302
  957MOL0     H32030   8.727   6.232   8.903  1.5195 -2.4089 -1.3509
  957MOL0     H32031   8.777   6.349   8.771 -0.2511 -0.5984 -0.0763
  957MOL0     H32032   8.551   6.417   8.739 -1.5239 -3.1232 -0.4319
  957MOL0     H32033   8.497   6.314   8.869 -0.2553  0.6059 -1.1796
  957MOL0     H32034   8.718   6.531   8.909 -1.6581  2.2305  1.2198
  957MOL0     H32035   8.640   6.440   9.032 -0.3188 -0.2202  0.1466
  957MOL0     H32036   8.446   6.594   8.983  1.5396 -0.3349  2.7994
  957MOL0     H32037   8.533   6.661   8.841  1.7465 -1.5408 -0.9496
  957MOL0     H32038   8.689   6.775   8.972 -0.9554  0.7406 -2.0757
  957MOL0     H32039   8.530   6.806   9.037 -1.7030 -1.5573 -1.5241
  957MOL0     H32040   8.677   6.580   9.171 -0.7713 -1.0025  0.5753
  957MOL0     H32041   8.533   6.667   9.218  1.3761 -2.1936  1.6403
  957MOL0     H32042   8.658   6.872   9.241 -0.5126 -0.8266 -0.7529
  957MOL0     H32043   8.808   6.778   9.251 -0.1855  1.7339 -0.8643
  957MOL0     H32044   8.785   6.781   9.473  0.2155 -1.3479  1.0808
  957MOL0     H32045   8.678   6.646   9.444 -1.3476  1.3621  0.0346
  957MOL0     H32046   8.565   5.971   8.608  0.2628 -3.3218 -1.4261
  957MOL0     H32047   8.709   5.745   8.571  2.2650 -0.5578 -0.8306
  957MOL0     H32048   9.037   5.487   8.757  0.8599 -0.9751  0.1439
  957MOL0     H32049   9.162   5.276   8.756 -3.5703 -1.3895 -0.2023
  957MOL0     H32050   7.714   4.169   8.109  0.5939  0.7500  1.5981
  957MOL0     H32051   7.490   4.259   8.110  1.1487 -2.0152  0.1665
  957MOL0     H32052   7.187   4.471   8.128 -2.0142  0.1999  1.7532
  957MOL0     H32053   6.949   4.526   8.148 -1.9628  0.2314 -1.0532
  957MOL0     H32054   6.747   4.469   8.090 -0.9957 -0.6868 -0.1046
  957MOL0     H32055   6.730   4.640   8.120  1.9293  1.2885 -3.0203
  957MOL0     H32056   6.537   4.635   7.948  3.3877 -1.4392 -3.3909
  957MOL0     H32057   6.504   4.545   8.101 -0.3272  1.4268 -0.5402
  957MOL0     H32058   6.598   4.421   7.845 -2.5488 -0.7734 -1.2087
  957MOL0     H32059   6.573   4.344   8.011  1.7000 -2.2869 -2.4775
  957MOL0     H32060   6.358   4.521   7.865  4.8191  0.9821 -1.5032
  957MOL0     H32061   6.340   4.389   7.984  2.8161 -0.6798  1.3956
  957MOL0     H32062   6.314   4.222   7.591 -1.1192  1.3812  0.1003
  957MOL0     H32063   6.936   4.583   7.720  1.0093  0.4898 -0.1331
  957MOL0     H32064   7.193   4.633   7.611  2.5385 -0.7724  0.5456
  957MOL0     H32065   7.274   4.485   7.636  0.7176  1.2898 -1.6105
  957MOL0     H32066   7.103   4.478   7.589 -1.7236  1.7159  0.3944
  958MOL0     O32067   3.414   8.544   5.018  0.2940 -0.7563  0.1883
  958MOL0     C32068   3.387   8.657   5.048 -0.2236  0.7833 -0.1625
  958MOL0     O32069   3.462   8.736   5.131  0.3885  0.2048 -0.1128
  958MOL0     C32070   3.594   8.710   5.175  0.1968 -0.6781 -0.5790
  958MOL0     C32071   3.694   8.648   5.098  0.5552  0.1971 -0.1810
  958MOL0     C32072   3.820   8.620   5.155  0.3377 -0.2251 -0.1720
  958MOL0     C32073   3.849   8.640   5.285 -0.3128  0.7495  0.1135
  958MOL0     O32074   3.973   8.590   5.330  0.1314 -0.8249  0.2920
  958MOL0     C32075   4.083   8.680   5.338 -0.5326 -0.1628  0.3438
  958MOL0     C32076   4.072   8.767   5.467  0.3256  0.1712 -0.0778
  958MOL0     C32077   4.059   8.674   5.591 -0.6351  0.1696  0.2808
  958MOL0     C32078   4.058   8.749   5.717  0.4497 -0.3949  0.9302
  958MOL0     C32079   4.045   8.651   5.840 -0.0685 -0.5563  0.2552
  958MOL0     C32080   4.175   8.571   5.881  0.0435 -0.5721 -1.1171
  958MOL0     C32081   4.243   8.637   6.008  0.9072  0.0100  0.4116
  958MOL0     C32082   4.291   8.780   5.986  0.5762  0.0904 -1.1120
  958MOL0     N32083   4.362   8.832   6.102  0.1746 -0.0601 -0.4703
  958MOL0     C32084   4.304   8.862   6.216 -0.9532 -0.4826  0.1490
  958MOL0     C32085   4.401   8.926   6.290  0.2345 -0.3047  0.7307
  958MOL0     C32086   4.392   8.956   6.434  0.0779 -0.0536 -0.2436
  958MOL0     C32087   4.518   8.997   6.506 -0.3397 -0.7392 -0.0649
  958MOL0     C32088   4.525   8.987   6.662  0.1709  0.2956  0.0849
  958MOL0     C32089   4.640   9.045   6.744 -0.3239 -0.3230 -0.2877
  958MOL0     O32090   4.767   9.019   6.678 -0.3360  0.0401 -0.1286
  958MOL0     C32091   4.849   9.127   6.673 -0.4385 -0.2658 -0.0872
  958MOL0     C32092   4.866   9.204   6.553 -0.1042  0.0515 -0.1945
  958MOL0     C32093   4.968   9.295   6.534  0.1263  0.0480 -0.7743
  958MOL0     C32094   4.968   9.375   6.401  0.3688  0.8802  0.1295
  958MOL0     C32095   5.053   9.312   6.644 -0.5169 -0.6734 -0.0631
  958MOL0     C32096   5.174   9.393   6.626  0.1828  0.6894 -0.6291
  958MOL0     O32097   5.220   9.451   6.736 -0.6717 -0.4071 -0.6765
  958MOL0     C32098   5.350   9.517   6.727 -0.6440  0.8565  0.4015
  958MOL0     C32099   5.470   9.447   6.721  0.2025 -0.2220  0.0592
  958MOL0     C32100   5.586   9.523   6.704 -0.8399 -0.5912  0.3759
  958MOL0     C32101   5.587   9.659   6.679  0.6750 -0.4327  0.1706
  958MOL0     O32102   5.711   9.723   6.666 -0.3161  0.0806 -0.0790
  958MOL0     C32103   5.713   9.823   6.563  0.7862 -0.2971 -0.7820
  958MOL0     C32104   5.866   9.849   6.532 -0.5608 -0.5400 -0.3202
  958MOL0     C32105   5.951   9.925   6.647  0.0404 -0.0711 -0.1251
  958MOL0     C32106   6.092   9.951   6.607 -0.3388  0.7727  0.4518
  958MOL0     C32107   6.149  10.043   6.714 -0.2207 -0.1274 -0.4401
  958MOL0     C32108   6.301  10.023   6.723  0.3650  0.3030  1.2674
  958MOL0     C32109   6.372  10.096   6.832  0.5612 -0.2092 -0.0789
  958MOL0     C32110   6.314  10.068   6.966 -0.0897 -0.0315  0.6543
  958MOL0    Cl32111   6.443  10.085   7.085  0.4366 -0.0607 -0.3359
  958MOL0     C32112   5.460   9.719   6.673 -0.3442 -0.0563 -0.1744
  958MOL0     C32113   5.343   9.654   6.698 -0.3872 -0.1898 -0.4727
  958MOL0     O32114   5.233   9.383   6.520  0.6712 -0.5920  0.7925
  958MOL0     C32115   5.033   9.244   6.764 -0.3121 -0.9626 -0.6150
  958MOL0     C32116   4.930   9.156   6.775 -0.0420 -0.1263 -1.0929
  958MOL0     N32117   4.512   8.932   6.210  0.3711 -0.4900 -0.7522
  958MOL0     N32118   4.492   8.869   6.101  0.2134  0.7969 -0.3085
  958MOL0     C32119   3.754   8.711   5.365  0.7608  0.7293 -0.3911
  958MOL0     C32120   3.631   8.750   5.304  0.8458 -0.7814 -0.1751
  958MOL0     C32121   3.266   8.715   4.989  0.2817 -0.1942 -0.0585
  958MOL0     C32122   3.271   8.763   4.859 -0.1348  0.6356  0.7589
  958MOL0     C32123   3.171   8.835   4.799 -0.6421  1.2065  0.0755
  958MOL0     C32124   3.053   8.852   4.868 -1.0815 -0.1859 -0.2347
  958MOL0     O32125   2.938   8.920   4.830 -0.2262  0.7791  0.4530
  958MOL0     C32126   2.929   8.954   4.690 -0.2110 -0.0437  0.7627
  958MOL0     C32127   2.923   8.833   4.591  0.5989  0.9479 -0.5469
  958MOL0     C32128   2.778   8.809   4.550  0.7631 -0.3101 -0.3229
  958MOL0     C32129   2.751   8.720   4.428 -0.9807  0.9111 -0.3223
  958MOL0     C32130   2.786   8.582   4.454 -0.6436 -0.2730  0.1421
  958MOL0     C32131   2.788   8.459   4.455  0.2022  0.3931 -0.3273
  958MOL0     C32132   3.042   8.798   4.987  0.3238  0.1721  0.3772
  958MOL0     C32133   3.145   8.722   5.054  0.2664  0.1331 -0.3987
  958MOL0     C32134   3.108   8.642   5.187 -0.6672 -0.2159 -1.3161
  958MOL0     H32135   3.670   8.605   5.002 -1.7025 -0.2689  0.5438
  958MOL0     H32136   3.887   8.576   5.081  0.2447  1.4624 -1.3190
  958MOL0     H32137   4.089   8.739   5.246 -0.8231 -2.6715 -1.3826
  958MOL0     H32138   4.173   8.619   5.343 -0.8901 -0.6237  1.4932
  958MOL0     H32139   4.164   8.827   5.466  1.6827 -1.8110 -0.2476
  958MOL0     H32140   3.984   8.830   5.452 -1.0378 -1.2752  1.5406
  958MOL0     H32141   3.977   8.601   5.583  0.9295 -1.6660  0.0920
  958MOL0     H32142   4.146   8.607   5.597  0.7183  1.8146 -0.4003
  958MOL0     H32143   4.145   8.810   5.742  3.3639 -3.0171 -1.9112
  958MOL0     H32144   3.968   8.809   5.699  1.3173  0.8937  0.7873
  958MOL0     H32145   3.975   8.576   5.800 -1.2928  0.8105 -0.2473
  958MOL0     H32146   3.994   8.704   5.920 -2.1389  1.2757 -2.1192
  958MOL0     H32147   4.137   8.470   5.895 -2.2282  0.2012 -1.3352
  958MOL0     H32148   4.253   8.569   5.803 -0.0415  1.3504 -1.2948
  958MOL0     H32149   4.339   8.588   6.031  1.0221  0.6487  1.3442
  958MOL0     H32150   4.168   8.634   6.088  0.8775  2.6001  0.5684
  958MOL0     H32151   4.356   8.794   5.899  1.4002  1.9314 -0.2574
  958MOL0     H32152   4.212   8.848   5.951 -0.1314 -1.4741 -2.7392
  958MOL0     H32153   4.205   8.837   6.252 -1.1906 -1.0521 -0.8597
  958MOL0     H32154   4.349   8.864   6.477 -0.8645 -0.2944 -1.6464
  958MOL0     H32155   4.316   9.034   6.436  0.4300  0.3158 -1.2029
  958MOL0     H32156   4.601   8.937   6.468  0.8093  0.5576  0.3006
  958MOL0     H32157   4.543   9.099   6.476 -1.4551 -0.3271  0.3432
  958MOL0     H32158   4.444   9.041   6.712  1.0886 -0.0722  2.0699
  958MOL0     H32159   4.523   8.882   6.693  0.5552 -0.0988 -1.1547
  958MOL0     H32160   4.616   9.151   6.756  0.7255 -0.1615  0.4864
  958MOL0     H32161   4.641   9.000   6.844  2.2997  0.0189 -0.0888
  958MOL0     H32162   4.797   9.182   6.472  1.2894 -0.3173 -1.3250
  958MOL0     H32163   4.872   9.412   6.364  0.7986  1.1555 -0.7304
  958MOL0     H32164   5.005   9.309   6.321 -4.0123 -2.2215  0.3148
  958MOL0     H32165   5.032   9.464   6.400  2.0621 -0.2643  1.1284
  958MOL0     H32166   5.459   9.340   6.740 -1.9321  0.3101  2.4492
  958MOL0     H32167   5.686   9.480   6.705  1.9198  4.9248  1.1669
  958MOL0     H32168   5.664   9.776   6.478  1.0257  0.3410 -1.2801
  958MOL0     H32169   5.670   9.919   6.593  1.1514 -0.0259 -1.1161
  958MOL0     H32170   5.915   9.753   6.512  1.1880 -0.2452  2.0528
  958MOL0     H32171   5.891   9.915   6.449  0.8785 -0.4994  0.1322
  958MOL0     H32172   5.954   9.864   6.738  0.3208 -2.9256 -1.9219
  958MOL0     H32173   5.910  10.025   6.664  1.3060  0.2282  1.4369
  958MOL0     H32174   6.106   9.999   6.509 -0.2655  0.5952  0.3740
  958MOL0     H32175   6.145   9.856   6.592 -1.7138  0.0304  0.1129
  958MOL0     H32176   6.118  10.145   6.689 -1.7481 -0.1264  1.2349
  958MOL0     H32177   6.110  10.016   6.813  2.2394  2.4167  1.3727
  958MOL0     H32178   6.344  10.043   6.625 -1.0891  0.1107  0.5639
  958MOL0     H32179   6.311   9.914   6.729  0.9685  0.3509  1.1765
  958MOL0     H32180   6.364  10.201   6.804  0.3337 -0.7062 -2.0706
  958MOL0     H32181   6.480  10.081   6.837  0.5851  0.0282  0.1199
  958MOL0     H32182   6.277   9.965   6.970  0.2433 -0.1687  0.2625
  958MOL0     H32183   6.236  10.143   6.981 -0.0171  0.3144 -0.5736
  958MOL0     H32184   5.469   9.823   6.644  2.0979  0.2825  1.4644
  958MOL0     H32185   5.254   9.714   6.713 -0.1706  0.7020 -2.4158
  958MOL0     H32186   5.102   9.261   6.847 -2.1613  0.7578  0.6687
  958MOL0     H32187   4.923   9.109   6.873  2.6042  2.3707  0.4854
  958MOL0     H32188   3.762   8.715   5.473  0.3194 -0.1458 -0.3178
  958MOL0     H32189   3.550   8.782   5.369  1.1910 -0.3760  0.0602
  958MOL0     H32190   3.365   8.754   4.804 -0.0736  1.5287  0.7028
  958MOL0     H32191   3.201   8.869   4.700  1.8858 -1.4915 -0.2489
  958MOL0     H32192   2.839   9.013   4.674 -0.5937 -0.7503  0.2486
  958MOL0     H32193   3.017   9.011   4.657  0.7374 -1.7966  0.1068
  958MOL0     H32194   2.958   8.742   4.641  1.8784  0.5802 -2.0443
  958MOL0     H32195   2.979   8.845   4.498 -1.3143  0.3486 -1.8376
  958MOL0     H32196   2.725   8.774   4.639  0.4436 -1.9409 -1.1194
  958MOL0     H32197   2.738   8.907   4.522 -3.3119 -1.1276  1.9804
  958MOL0     H32198   2.812   8.743   4.340 -1.7736  1.3520 -0.7675
  958MOL0     H32199   2.644   8.730   4.406 -1.1521  0.8049  0.4307
  958MOL0     H32200   2.785   8.353   4.466  0.5511  0.3641 -0.5138
  958MOL0     H32201   2.945   8.807   5.034 -0.0228 -4.6800  1.0785
  958MOL0     H32202   3.196   8.583   5.214 -1.2535 -1.0525 -1.2092
  958MOL0     H32203   3.080   8.714   5.264  2.2153  0.1334 -0.4787
  958MOL0     H32204   3.023   8.578   5.164 -2.2601  1.5707 -0.6415
  959MOL0     O32205   9.978  11.327   4.998 -0.0559 -0.0723 -0.0495
  959MOL0     C32206   9.979  11.409   5.089 -0.5862  0.0206 -0.1590
  959MOL0     O32207  10.011  11.536   5.079  0.4448  0.0834  0.8463
  959MOL0     C32208  10.042  11.598   4.959  0.3573  0.3853  0.0151
  959MOL0     C32209  10.151  11.682   4.948  0.1538 -0.1473  0.0098
  959MOL0     C32210  10.182  11.761   4.842 -0.6548 -0.6264  0.5712
  959MOL0     C32211  10.104  11.756   4.733  0.2644 -0.1971 -0.1452
  959MOL0     O32212  10.118  11.829   4.620  0.0781  0.0719 -0.3439
  959MOL0     C32213  10.208  11.942   4.623  0.5460 -0.1418 -0.3208
  959MOL0     C32214  10.198  12.020   4.495 -0.9035  0.4034  0.0622
  959MOL0     C32215  10.087  12.120   4.481 -0.5832  0.0524 -0.2394
  959MOL0     C32216   9.945  12.051   4.507  1.0007  0.9355  0.6053
  959MOL0     C32217   9.831  12.150   4.484 -0.3584 -0.3822  0.5154
  959MOL0     C32218   9.806  12.173   4.332 -0.0673 -0.0788  0.1955
  959MOL0     C32219   9.672  12.244   4.319 -0.5348 -0.8622 -0.2764
  959MOL0     C32220   9.625  12.262   4.175  0.1340 -0.1829  0.4292
  959MOL0     N32221   9.568  12.128   4.126 -0.2505 -0.0639 -0.1357
  959MOL0     C32222   9.629  12.032   4.044 -0.0153 -0.5148  0.1316
  959MOL0     C32223   9.546  11.929   4.019  0.1367  0.1254 -0.4705
  959MOL0     C32224   9.560  11.789   3.960 -0.1907 -0.1112  0.1495
  959MOL0     C32225   9.609  11.810   3.816  0.3282 -0.8907 -0.5658
  959MOL0     C32226   9.617  11.690   3.715 -0.2492 -0.2360  0.1869
  959MOL0     C32227   9.495  11.600   3.732 -0.4843  0.4215  0.1795
  959MOL0     O32228   9.372  11.682   3.720  0.1004  0.6276 -0.6597
  959MOL0     C32229   9.323  11.740   3.610  0.0224 -1.2094 -0.5935
  959MOL0     C32230   9.233  11.843   3.630 -0.4758 -0.3760  0.6965
  959MOL0     C32231   9.146  11.885   3.529  0.3052  0.7120 -0.6619
  959MOL0     C32232   9.036  11.985   3.567 -0.6662  0.1925  0.4396
  959MOL0     C32233   9.173  11.839   3.395  0.2433 -0.5432  0.0784
  959MOL0     C32234   9.084  11.868   3.276  0.2655  0.0703  0.6700
  959MOL0     O32235   9.083  11.779   3.172 -0.1624  0.3452  0.1592
  959MOL0     C32236   9.060  11.810   3.050  0.2160  0.5048  0.9616
  959MOL0     C32237   9.097  11.935   2.996  0.8097  1.0360 -0.6702
  959MOL0     C32238   9.050  11.978   2.867 -0.3979  0.1001 -0.3095
  959MOL0     C32239   8.983  11.888   2.783 -1.2052  0.7502 -0.3229
  959MOL0     O32240   8.928  11.934   2.668 -0.1439 -0.7637  0.2653
  959MOL0     C32241   8.827  12.037   2.688  0.0259 -0.2934 -0.3890
  959MOL0     C32242   8.705  11.998   2.611 -0.1645  0.1814 -0.0366
  959MOL0     C32243   8.719  12.042   2.461 -0.3515 -0.0413 -0.4779
  959MOL0     C32244   8.609  11.980   2.388  0.0512 -0.0431  1.1172
  959MOL0     C32245   8.638  11.999   2.242 -0.2806  0.8050  1.3216
  959MOL0     C32246   8.515  11.948   2.156 -0.3496 -0.4180 -0.6188
  959MOL0     C32247   8.398  12.036   2.171  0.3876 -0.4438 -0.0416
  959MOL0     C32248   8.295  12.010   2.055 -0.5339  0.2043 -0.1604
  959MOL0    Cl32249   8.152  12.098   2.121 -0.4380 -0.5193 -0.0238
  959MOL0     C32250   8.965  11.758   2.831  1.3932  0.0392 -0.7551
  959MOL0     C32251   8.993  11.725   2.963 -0.7239  0.4125  1.0228
  959MOL0     O32252   9.018  11.973   3.271  0.2805 -0.0270 -0.2010
  959MOL0     C32253   9.280  11.749   3.379 -0.0773 -0.2480 -0.9727
  959MOL0     C32254   9.352  11.705   3.484 -0.5481  0.5366  0.7248
  959MOL0     N32255   9.427  11.958   4.084 -0.5360  0.1581 -0.4980
  959MOL0     N32256   9.441  12.085   4.133  0.7051 -0.5795  1.3631
  959MOL0     C32257   9.988  11.681   4.730  0.3977  0.5367 -0.5948
  959MOL0     C32258   9.956  11.598   4.848 -0.1654 -0.0885 -0.2942
  959MOL0     C32259   9.948  11.358   5.220 -0.3268  0.7897  0.5437
  959MOL0     C32260   9.988  11.220   5.258  0.0484 -1.3289 -0.1023
  959MOL0     C32261   9.969  11.183   5.390 -0.2398  0.3021 -0.1336
  959MOL0     C32262   9.889  11.256   5.490  0.2402  0.2874  0.1555
  959MOL0     O32263   9.862  11.218   5.611  0.5443  1.0787 -0.3498
  959MOL0     C32264   9.863  11.081   5.650  0.1270 -0.0366 -0.5088
  959MOL0     C32265   9.842  11.066   5.800 -0.2344  1.6815 -0.7430
  959MOL0     C32266   9.798  10.924   5.833 -0.5534 -0.2921  0.5495
  959MOL0     C32267   9.698  10.935   5.944 -0.6988  0.4746 -0.1123
  959MOL0     C32268   9.610  10.815   5.957  0.4074 -0.5065 -0.3568
  959MOL0     C32269   9.529  10.724   5.963 -0.7229  0.1044  0.3235
  959MOL0     C32270   9.856  11.387   5.454  0.0915 -0.2017 -0.5506
  959MOL0     C32271   9.882  11.437   5.321  0.5622  0.6242  0.0269
  959MOL0     C32272   9.826  11.578   5.299 -0.5441  0.6960 -0.1137
  959MOL0     H32273  10.214  11.685   5.036 -0.3317 -2.0739  0.4717
  959MOL0     H32274  10.269  11.826   4.838 -0.0175 -1.4865 -0.1363
  959MOL0     H32275  10.315  11.923   4.612  0.8333  2.4757 -3.5782
  959MOL0     H32276  10.185  12.008   4.708  3.2673  0.8854 -0.2843
  959MOL0     H32277  10.293  12.073   4.487 -1.3583  1.2846  0.3783
  959MOL0     H32278  10.193  11.947   4.413  4.2379 -0.3136  0.0681
  959MOL0     H32279  10.106  12.201   4.552  3.3665 -0.6223 -0.2989
  959MOL0     H32280  10.089  12.157   4.379  1.7162 -0.5482 -0.4534
  959MOL0     H32281   9.936  11.971   4.433  1.4904  2.9388 -1.7881
  959MOL0     H32282   9.931  12.009   4.607 -0.9995 -0.6394 -0.2542
  959MOL0     H32283   9.866  12.242   4.531  2.5450 -1.8487  1.4460
  959MOL0     H32284   9.743  12.108   4.535  1.0222  0.1699  3.5595
  959MOL0     H32285   9.883  12.238   4.288  1.5353 -3.0492 -1.7461
  959MOL0     H32286   9.821  12.079   4.278  2.9038 -0.5597  1.6679
  959MOL0     H32287   9.673  12.347   4.356  0.4248 -1.1246  0.4650
  959MOL0     H32288   9.602  12.179   4.372  1.1776 -2.4208  0.1777
  959MOL0     H32289   9.556  12.346   4.164  0.8449  0.1673 -1.7607
  959MOL0     H32290   9.706  12.282   4.105  0.0434 -0.0014  0.3766
  959MOL0     H32291   9.734  12.027   4.018 -0.0962  0.6928 -0.5187
  959MOL0     H32292   9.464  11.739   3.953  0.1216 -0.9097  1.3600
  959MOL0     H32293   9.637  11.727   4.008 -1.0477 -0.9194  0.5015
  959MOL0     H32294   9.545  11.886   3.769 -0.0157  0.0831  1.3789
  959MOL0     H32295   9.709  11.853   3.823  1.5116 -3.5675  0.1882
  959MOL0     H32296   9.603  11.723   3.612 -0.7282  1.9811  0.9202
  959MOL0     H32297   9.713  11.638   3.712  0.7757  1.6542 -1.8133
  959MOL0     H32298   9.499  11.530   3.647 -0.1934 -0.0729  0.5949
  959MOL0     H32299   9.503  11.543   3.825  3.0835 -0.7022 -0.6678
  959MOL0     H32300   9.242  11.891   3.727  1.3725  0.5983  0.0890
  959MOL0     H32301   9.091  12.078   3.550  3.7777 -1.8751  2.0174
  959MOL0     H32302   9.012  11.979   3.673 -2.1753 -1.2229  0.0673
  959MOL0     H32303   8.948  11.979   3.502 -0.0147 -0.1382 -0.4489
  959MOL0     H32304   9.155  12.002   3.059 -0.7323  1.4313  0.3756
  959MOL0     H32305   9.064  12.079   2.829  3.2378  0.7086  2.1456
  959MOL0     H32306   8.798  12.056   2.792  0.0649 -0.3185 -0.3732
  959MOL0     H32307   8.870  12.128   2.646 -1.6966  1.5205  1.4944
  959MOL0     H32308   8.684  11.892   2.626  1.1915 -0.1877 -0.5505
  959MOL0     H32309   8.623  12.053   2.655 -0.3936  2.2891 -2.8069
  959MOL0     H32310   8.818  12.014   2.424  0.4749 -1.8057  2.7154
  959MOL0     H32311   8.718  12.151   2.450 -1.0598  0.2973  2.2450
  959MOL0     H32312   8.518  12.030   2.423  0.7342  2.6173 -0.5923
  959MOL0     H32313   8.602  11.871   2.395  3.4839 -0.7891 -2.8477
  959MOL0     H32314   8.652  12.102   2.208 -0.5830  0.1765 -0.8466
  959MOL0     H32315   8.731  11.944   2.229 -0.9249 -0.2380  0.9932
  959MOL0     H32316   8.487  11.849   2.194 -0.1248 -0.0218  0.6368
  959MOL0     H32317   8.544  11.948   2.051  1.9468  2.2360 -0.1022
  959MOL0     H32318   8.441  12.137   2.171 -2.7490  1.0355 -0.2053
  959MOL0     H32319   8.351  12.022   2.269 -1.1774  4.1192  0.1156
  959MOL0     H32320   8.276  11.903   2.043 -0.6859  0.3713 -1.5149
  959MOL0     H32321   8.334  12.050   1.961 -0.2583 -1.8839 -0.9868
  959MOL0     H32322   8.917  11.676   2.778  2.0437  0.7627 -2.5329
  959MOL0     H32323   8.972  11.624   2.997 -2.5792  0.4735  0.2009
  959MOL0     H32324   9.312  11.717   3.280  0.8836 -1.1541 -0.3906
  959MOL0     H32325   9.420  11.620   3.475 -0.2959  0.8216 -0.1828
  959MOL0     H32326   9.927  11.669   4.641  1.2926 -3.4156 -0.8756
  959MOL0     H32327   9.868  11.538   4.867 -2.0421  2.0424 -1.7242
  959MOL0     H32328  10.045  11.165   5.184  1.7445  2.6958 -2.0517
  959MOL0     H32329  10.013  11.092   5.431  0.3128  0.3710 -0.5585
  959MOL0     H32330   9.780  11.025   5.604  1.9096 -2.0056 -1.5168
  959MOL0     H32331   9.956  11.033   5.620  1.6732  1.0644  2.1849
  959MOL0     H32332   9.766  11.141   5.823  1.4368  2.9691  0.8586
  959MOL0     H32333   9.936  11.097   5.845 -0.9395  0.4451  1.7671
  959MOL0     H32334   9.746  10.881   5.747 -1.8042  1.3292  0.4557
  959MOL0     H32335   9.881  10.854   5.849 -0.7874 -1.4769 -2.7097
  959MOL0     H32336   9.635  11.024   5.930  0.1121  0.7099 -2.8307
  959MOL0     H32337   9.762  10.949   6.031  1.1022 -0.9566 -1.1531
  959MOL0     H32338   9.459  10.650   5.998  0.2735 -0.8914  0.2876
  959MOL0     H32339   9.800  11.459   5.512 -0.3939 -0.3447 -0.8372
  959MOL0     H32340   9.747  11.607   5.369 -0.1161  2.0328 -0.1650
  959MOL0     H32341   9.910  11.647   5.292  1.1000 -1.3076 -1.4741
  959MOL0     H32342   9.788  11.592   5.197 -0.7123  4.7637  0.3694
  960MOL0     O32343   4.353   0.663   8.755 -0.3257  0.6195  0.2876
  960MOL0     C32344   4.463   0.642   8.697  0.2589 -0.6806 -0.4625
  960MOL0     O32345   4.485   0.564   8.587 -0.6516  0.1088 -0.5691
  960MOL0     C32346   4.368   0.510   8.533 -0.4873 -0.2680 -0.7991
  960MOL0     C32347   4.309   0.563   8.415 -0.8498  0.0509 -0.6414
  960MOL0     C32348   4.201   0.495   8.360 -0.4621  0.7077  0.6611
  960MOL0     C32349   4.146   0.373   8.412 -0.6662  0.4787 -0.3424
  960MOL0     O32350   4.025   0.317   8.362  0.1133 -1.1045  0.2763
  960MOL0     C32351   3.947   0.233   8.453 -0.7104 -0.1752 -0.2517
  960MOL0     C32352   3.819   0.196   8.389 -0.1796 -0.2610  0.8478
  960MOL0     C32353   3.711   0.170   8.493  0.2110 -0.0890 -1.0941
  960MOL0     C32354   3.578   0.152   8.431  1.1752  0.3469  0.1600
  960MOL0     C32355   3.468   0.110   8.543 -0.3521  0.4847 -0.5616
  960MOL0     C32356   3.451  -0.045   8.548  1.2402 -0.4372 -0.1036
  960MOL0     C32357   3.371  -0.079   8.675 -0.8920 -0.2136 -0.4005
  960MOL0     C32358   3.458  -0.059   8.803  0.4473  0.1010  1.0943
  960MOL0     N32359   3.598  -0.113   8.810 -0.2808  0.0138 -0.2643
  960MOL0     C32360   3.655  -0.236   8.766  0.3199  0.3288 -0.1918
  960MOL0     C32361   3.788  -0.206   8.759  0.1981  0.5061  0.4677
  960MOL0     C32362   3.892  -0.301   8.695 -0.6071 -0.2585  0.2636
  960MOL0     C32363   3.921  -0.238   8.554  0.5339 -0.0250 -0.3163
  960MOL0     C32364   4.007  -0.326   8.460  0.1537  0.7674 -0.0752
  960MOL0     C32365   4.154  -0.302   8.466 -0.0614 -0.4332  0.3816
  960MOL0     O32366   4.187  -0.167   8.508 -0.0246 -0.4099 -0.8932
  960MOL0     C32367   4.209  -0.076   8.411  0.0838 -0.3570  0.0682
  960MOL0     C32368   4.129  -0.058   8.299 -0.0879 -0.0611 -0.3673
  960MOL0     C32369   4.162   0.034   8.199 -0.2670  0.0040  0.4331
  960MOL0     C32370   4.072   0.055   8.077  0.6615 -0.7038 -1.0561
  960MOL0     C32371   4.279   0.116   8.210  0.5467  1.5940 -0.9134
  960MOL0     C32372   4.319   0.221   8.117 -0.0658 -0.3950 -0.6470
  960MOL0     O32373   4.452   0.250   8.114 -0.1168  0.1983  0.0723
  960MOL0     C32374   4.486   0.334   8.013 -0.5357 -0.2394  0.2670
  960MOL0     C32375   4.480   0.481   8.035  0.1216 -1.3315  1.5948
  960MOL0     C32376   4.504   0.572   7.928  0.2145  0.1976 -0.4298
  960MOL0     C32377   4.557   0.522   7.813  0.6614  0.5566 -0.0464
  960MOL0     O32378   4.579   0.614   7.714  0.1951  0.2934  0.6176
  960MOL0     C32379   4.706   0.668   7.718  0.8676 -0.3494 -0.9781
  960MOL0     C32380   4.750   0.744   7.592  0.4437  0.0119  0.4939
  960MOL0     C32381   4.709   0.882   7.604 -0.1032 -0.1668  0.2354
  960MOL0     C32382   4.746   0.963   7.481  0.5670 -0.0886  0.7856
  960MOL0     C32383   4.726   1.115   7.494  0.2542  0.8179 -0.7589
  960MOL0     C32384   4.574   1.164   7.501 -0.8523 -0.9595  0.4117
  960MOL0     C32385   4.573   1.317   7.528 -0.2723  0.1587 -0.8878
  960MOL0     C32386   4.512   1.397   7.414 -0.2175  0.8689  0.6228
  960MOL0    Cl32387   4.448   1.548   7.459 -0.0725  0.2399 -0.0469
  960MOL0     C32388   4.571   0.380   7.791 -0.3613 -0.7797 -0.8938
  960MOL0     C32389   4.534   0.294   7.893  0.1801  0.8151  0.5905
  960MOL0     O32390   4.233   0.275   8.039  0.5569  0.5550 -1.6028
  960MOL0     C32391   4.361   0.094   8.325  0.3826  0.8004 -0.8629
  960MOL0     C32392   4.328   0.003   8.420  0.0935  0.2624 -0.6551
  960MOL0     N32393   3.810  -0.082   8.798  0.4672 -0.9714  0.2549
  960MOL0     N32394   3.698  -0.027   8.833  0.3799  0.4524 -0.3723
  960MOL0     C32395   4.211   0.324   8.529  0.2481  0.3548 -0.7402
  960MOL0     C32396   4.315   0.395   8.589  0.5936  0.1940  0.1452
  960MOL0     C32397   4.588   0.701   8.746  0.4365  0.1063 -0.6206
  960MOL0     C32398   4.646   0.795   8.663  0.2276 -0.6057  0.0598
  960MOL0     C32399   4.748   0.880   8.702  0.6575 -0.3544 -0.3014
  960MOL0     C32400   4.796   0.870   8.831 -0.1836  0.9556 -0.6985
  960MOL0     O32401   4.890   0.968   8.849  0.0656  0.4918 -0.2854
  960MOL0     C32402   4.953   0.987   8.968 -0.0455 -0.1181  0.3377
  960MOL0     C32403   4.871   1.084   9.053 -0.4739  0.8863  0.6846
  960MOL0     C32404   4.948   1.134   9.173  0.3287 -0.5666 -0.2106
  960MOL0     C32405   5.014   1.021   9.260 -0.0425 -0.1744  0.3547
  960MOL0     C32406   4.917   0.930   9.319 -0.2892  0.1281 -0.0176
  960MOL0     C32407   4.845   0.847   9.375  0.2765  0.2456 -0.4465
  960MOL0     C32408   4.740   0.777   8.923 -0.6177  0.3005  0.2881
  960MOL0     C32409   4.635   0.690   8.879 -0.1583 -0.6209  0.2328
  960MOL0     C32410   4.562   0.605   8.977  0.0393 -0.3919 -0.5451
  960MOL0     H32411   4.369   0.646   8.378 -1.2277  0.8976  0.5732
  960MOL0     H32412   4.153   0.527   8.268 -0.6513 -0.8710  0.1902
  960MOL0     H32413   3.927   0.292   8.543 -0.1108 -0.4286  0.0573
  960MOL0     H32414   4.001   0.141   8.481  0.6033  0.4153 -0.7515
  960MOL0     H32415   3.783   0.275   8.323 -3.8030 -0.1829  2.6900
  960MOL0     H32416   3.829   0.103   8.332 -0.5500  1.0169 -1.4456
  960MOL0     H32417   3.729   0.077   8.547 -2.5636 -0.6532 -0.9720
  960MOL0     H32418   3.705   0.247   8.571  0.3773  1.7824 -2.8332
  960MOL0     H32419   3.550   0.245   8.381  1.9747  1.2996  1.4363
  960MOL0     H32420   3.593   0.068   8.363  4.4437  1.7583 -1.0389
  960MOL0     H32421   3.378   0.159   8.505 -1.8125 -1.2972  0.4749
  960MOL0     H32422   3.495   0.157   8.638 -3.6902 -1.3860  1.4839
  960MOL0     H32423   3.397  -0.068   8.456 -1.5330  0.2207  1.2770
  960MOL0     H32424   3.543  -0.103   8.532  1.4601 -0.9691  2.5871
  960MOL0     H32425   3.329  -0.179   8.666 -1.3392  0.0601 -1.5489
  960MOL0     H32426   3.288  -0.008   8.681 -0.1401  0.6170  0.6909
  960MOL0     H32427   3.456   0.048   8.825  1.2455  0.8092 -1.8523
  960MOL0     H32428   3.405  -0.118   8.878 -4.9297 -0.6867 -2.7269
  960MOL0     H32429   3.605  -0.327   8.737  3.4256 -1.6558  0.2678
  960MOL0     H32430   3.863  -0.406   8.692 -2.4016  0.1752  1.0246
  960MOL0     H32431   3.984  -0.283   8.752  0.6489 -2.7652 -0.8366
  960MOL0     H32432   3.825  -0.222   8.503 -0.3929  1.5912  1.7422
  960MOL0     H32433   3.973  -0.142   8.564  0.0602  0.0654  1.7819
  960MOL0     H32434   3.988  -0.428   8.495 -3.0946  1.6141  1.0628
  960MOL0     H32435   3.972  -0.317   8.357 -1.9273 -1.8675  0.2930
  960MOL0     H32436   4.198  -0.384   8.525  0.2019  0.7846  1.9480
  960MOL0     H32437   4.192  -0.324   8.366 -0.0633  1.7079 -0.1204
  960MOL0     H32438   4.037  -0.114   8.282 -2.3284  2.9474  0.8571
  960MOL0     H32439   4.120   0.071   7.980  0.1408 -1.4724 -1.4448
  960MOL0     H32440   3.996   0.130   8.102 -0.7606 -1.9858 -1.3871
  960MOL0     H32441   4.007  -0.030   8.055 -0.0552 -0.7021  0.8404
  960MOL0     H32442   4.438   0.531   8.122 -2.7790 -0.7320 -0.0220
  960MOL0     H32443   4.487   0.678   7.939  0.9503  0.4134 -1.2414
  960MOL0     H32444   4.720   0.732   7.806  2.6520 -2.2849  0.2556
  960MOL0     H32445   4.777   0.585   7.720  1.1831 -0.1084  1.9380
  960MOL0     H32446   4.855   0.742   7.560  0.3397  0.4687  0.1047
  960MOL0     H32447   4.697   0.703   7.505  1.0146 -1.5051  0.8296
  960MOL0     H32448   4.753   0.928   7.693  1.6850 -1.0268 -0.1533
  960MOL0     H32449   4.600   0.884   7.617 -0.1929 -1.0943 -0.2373
  960MOL0     H32450   4.693   0.934   7.390  1.4524  1.4763 -0.2835
  960MOL0     H32451   4.852   0.958   7.453  0.6693  1.6972  0.7643
  960MOL0     H32452   4.784   1.139   7.583  2.6352 -1.7289 -1.4821
  960MOL0     H32453   4.775   1.169   7.411  0.3873  0.1487 -1.1194
  960MOL0     H32454   4.530   1.101   7.579  0.3304 -0.7898  1.2412
  960MOL0     H32455   4.522   1.144   7.406 -1.3264  0.1259  0.4254
  960MOL0     H32456   4.674   1.339   7.563  0.4149 -2.6847 -0.8580
  960MOL0     H32457   4.510   1.333   7.616  2.6708  0.8330  1.2605
  960MOL0     H32458   4.426   1.344   7.373  0.6242  1.0169 -1.4308
  960MOL0     H32459   4.586   1.405   7.334  0.3840  0.6072  1.1433
  960MOL0     H32460   4.603   0.346   7.693 -0.8108 -2.1033 -0.5947
  960MOL0     H32461   4.541   0.190   7.862 -0.5735  1.7671 -3.3460
  960MOL0     H32462   4.438   0.166   8.350  1.4607 -0.8132  0.7223
  960MOL0     H32463   4.388   0.000   8.510  0.9206  0.0148 -1.2109
  960MOL0     H32464   4.184   0.232   8.579  0.7030  0.0940 -0.9734
  960MOL0     H32465   4.364   0.357   8.679  0.3296 -0.4384  0.0266
  960MOL0     H32466   4.613   0.829   8.566  1.5727  2.6497  0.6157
  960MOL0     H32467   4.789   0.957   8.637  0.2912  1.5644  1.6395
  960MOL0     H32468   4.967   0.891   9.019 -1.9550 -0.4439  0.3109
  960MOL0     H32469   5.050   1.033   8.947 -1.0528  1.2686 -1.4742
  960MOL0     H32470   4.777   1.038   9.084  1.2023 -2.3932  1.3790
  960MOL0     H32471   4.843   1.165   8.985  0.5298 -0.0511 -0.9297
  960MOL0     H32472   5.028   1.198   9.135 -0.3965  0.7884  0.4448
  960MOL0     H32473   4.879   1.192   9.236 -1.5585 -2.7137 -0.1855
  960MOL0     H32474   5.072   1.057   9.346 -0.4512 -4.8224  2.8985
  960MOL0     H32475   5.077   0.954   9.200 -1.3883 -0.9129 -0.2640
  960MOL0     H32476   4.792   0.774   9.433  1.5873 -0.2503  0.1858
  960MOL0     H32477   4.772   0.781   9.027 -0.5726  3.3550  0.2546
  960MOL0     H32478   4.625   0.578   9.062  0.4028  1.4650 -0.1897
  960MOL0     H32479   4.468   0.649   9.010 -0.6185 -0.7110 -1.9346
  960MOL0     H32480   4.549   0.509   8.926 -0.7764  0.3694 -1.8143
  961MOL0     O32481   6.822   3.565   6.013 -0.3698 -0.5395 -0.5045
  961MOL0     C32482   6.819   3.458   6.065 -0.5735 -0.7809 -1.0630
  961MOL0     O32483   6.714   3.399   6.130 -0.1058 -0.1415 -0.4188
  961MOL0     C32484   6.603   3.484   6.145 -0.2365 -0.1662 -0.3204
  961MOL0     C32485   6.539   3.542   6.032  0.0517  0.6243  0.0969
  961MOL0     C32486   6.415   3.615   6.042  0.1056  0.0164  0.1713
  961MOL0     C32487   6.362   3.631   6.175 -0.5103 -0.4452 -0.2389
  961MOL0     O32488   6.238   3.689   6.176 -0.8056  0.2452 -0.3278
  961MOL0     C32489   6.204   3.766   6.296 -0.6570 -0.4023  0.4175
  961MOL0     C32490   6.067   3.834   6.277 -0.0414 -0.7766 -0.5398
  961MOL0     C32491   6.032   3.896   6.410  0.7169 -0.5467 -0.4497
  961MOL0     C32492   5.922   4.001   6.390  0.0349 -0.0908 -0.9433
  961MOL0     C32493   5.985   4.143   6.370 -0.0239  1.1395  0.4900
  961MOL0     C32494   5.868   4.234   6.372  0.4242 -0.4761 -0.1369
  961MOL0     C32495   5.897   4.372   6.302  0.7795  0.0798  0.5580
  961MOL0     C32496   5.921   4.359   6.156 -0.1052  0.4384  0.7747
  961MOL0     N32497   5.896   4.473   6.075 -0.7627  0.1970  0.1748
  961MOL0     C32498   5.785   4.546   6.078 -0.4663 -0.7173 -0.5084
  961MOL0     C32499   5.813   4.643   5.993  0.5502 -0.7083 -0.6207
  961MOL0     C32500   5.750   4.777   5.971 -0.0877 -0.0388  0.4563
  961MOL0     C32501   5.613   4.806   6.025  0.2969  0.3612  0.1271
  961MOL0     C32502   5.504   4.723   5.948  0.5055 -0.0881 -0.3085
  961MOL0     C32503   5.356   4.784   5.988  0.4991 -0.3611 -0.2424
  961MOL0     O32504   5.339   4.763   6.134  0.4510 -0.5268  1.1203
  961MOL0     C32505   5.217   4.788   6.182 -0.2442 -0.5904  0.0600
  961MOL0     C32506   5.206   4.762   6.322 -0.8999  0.5538  0.1701
  961MOL0     C32507   5.072   4.767   6.384  0.3024  0.0989 -0.0874
  961MOL0     C32508   5.088   4.720   6.529  0.2903 -0.1636  0.3007
  961MOL0     C32509   4.956   4.801   6.312 -0.4926  0.2169  0.4367
  961MOL0     C32510   4.815   4.796   6.368  0.0375  0.0489  0.9016
  961MOL0     O32511   4.796   4.756   6.504  0.0783  0.0963  0.6665
  961MOL0     C32512   4.675   4.744   6.574 -0.5218 -0.4001  0.5137
  961MOL0     C32513   4.549   4.779   6.526  0.4995  0.5238  0.1352
  961MOL0     C32514   4.445   4.800   6.615  0.4286 -0.2022  0.8260
  961MOL0     C32515   4.471   4.775   6.754 -0.4944  0.5509  0.4458
  961MOL0     O32516   4.355   4.788   6.821  0.5525 -0.0915 -0.0411
  961MOL0     C32517   4.357   4.825   6.959 -0.6450  0.0443  0.6909
  961MOL0     C32518   4.243   4.917   6.973  0.3079 -0.1349 -0.2805
  961MOL0     C32519   4.241   4.985   7.120 -0.0797  0.8614  0.0271
  961MOL0     C32520   4.289   4.900   7.236  0.5017  0.5616  0.2146
  961MOL0     C32521   4.253   4.936   7.381  0.3668  0.4495 -0.1133
  961MOL0     C32522   4.337   5.050   7.437  0.2511 -0.5080  0.0231
  961MOL0     C32523   4.332   5.035   7.583  0.4678 -0.2392  0.4424
  961MOL0     C32524   4.400   5.159   7.648 -1.5272  0.2115  0.5423
  961MOL0    Cl32525   4.292   5.300   7.652  0.0108  0.1894 -0.0258
  961MOL0     C32526   4.589   4.718   6.800 -0.4241 -0.6197  0.1036
  961MOL0     C32527   4.696   4.700   6.704  0.4070 -0.1702 -0.3978
  961MOL0     O32528   4.721   4.819   6.288 -0.6367 -0.4567  0.1727
  961MOL0     C32529   4.981   4.845   6.180  0.1879  0.0698 -0.5246
  961MOL0     C32530   5.104   4.837   6.109  0.2429  0.3156 -0.5607
  961MOL0     N32531   5.931   4.618   5.928 -0.6192  0.4236 -0.1193
  961MOL0     N32532   5.983   4.511   5.982  0.0783 -0.8838 -0.4360
  961MOL0     C32533   6.436   3.586   6.279  0.6393  0.1009 -0.3058
  961MOL0     C32534   6.550   3.512   6.269  0.1793  0.4303  0.2489
  961MOL0     C32535   6.953   3.394   6.080  0.0534 -0.0048 -1.3968
  961MOL0     C32536   6.978   3.345   6.208  0.6586 -0.5818  0.9833
  961MOL0     C32537   7.096   3.290   6.243 -0.7776  0.2189  0.9645
  961MOL0     C32538   7.201   3.286   6.150 -0.6726  0.5394 -0.2655
  961MOL0     O32539   7.322   3.237   6.200 -0.3447 -0.0112 -0.2298
  961MOL0     C32540   7.444   3.251   6.125  0.0609 -0.3483  0.3064
  961MOL0     C32541   7.449   3.154   6.000 -0.2913 -0.9507 -0.0599
  961MOL0     C32542   7.556   3.200   5.904 -0.0373  0.7888 -0.6936
  961MOL0     C32543   7.677   3.101   5.905 -0.3643  0.3967  0.6247
  961MOL0     C32544   7.633   2.970   5.861  0.0316 -0.2080 -0.1573
  961MOL0     C32545   7.619   2.859   5.829  0.3899 -0.2972  0.8507
  961MOL0     C32546   7.187   3.341   6.020 -0.3672 -1.0225 -0.0617
  961MOL0     C32547   7.058   3.395   5.988 -1.1495  0.1363  0.2306
  961MOL0     C32548   7.048   3.444   5.848  0.2044 -0.7972 -0.8036
  961MOL0     H32549   6.586   3.515   5.938  1.7465 -2.4782  1.6668
  961MOL0     H32550   6.349   3.645   5.961  3.0567  2.4420 -1.5908
  961MOL0     H32551   6.275   3.848   6.309 -0.7570 -0.0446 -1.1185
  961MOL0     H32552   6.201   3.707   6.388 -2.1774 -1.0085  0.0177
  961MOL0     H32553   6.074   3.906   6.196  0.9131 -1.5218 -1.1421
  961MOL0     H32554   5.997   3.754   6.252  0.5803 -1.1285 -1.1807
  961MOL0     H32555   5.991   3.818   6.475  1.8480  1.4300  2.8453
  961MOL0     H32556   6.115   3.943   6.463 -0.0849  0.8570 -0.3992
  961MOL0     H32557   5.870   3.977   6.297 -1.1331 -3.4759  0.4063
  961MOL0     H32558   5.854   4.001   6.475  2.2372 -0.1186  0.9338
  961MOL0     H32559   6.038   4.156   6.275 -0.0689 -3.1191 -0.3170
  961MOL0     H32560   6.052   4.155   6.455 -0.3130 -1.0240  1.0827
  961MOL0     H32561   5.778   4.190   6.328  0.0308  2.1339 -2.2309
  961MOL0     H32562   5.844   4.257   6.476 -1.2242 -1.9649 -0.1499
  961MOL0     H32563   5.991   4.403   6.348  0.6965  0.0615  0.7423
  961MOL0     H32564   5.819   4.443   6.330  1.6882  1.0154  0.7391
  961MOL0     H32565   6.023   4.326   6.132 -0.5191 -0.9590  0.8675
  961MOL0     H32566   5.854   4.284   6.115  0.9776 -0.8687  1.3258
  961MOL0     H32567   5.695   4.543   6.138  0.0196  1.6797  0.4533
  961MOL0     H32568   5.749   4.789   5.862  0.1068  0.3057  0.4925
  961MOL0     H32569   5.817   4.848   6.020 -0.1070  1.6529 -1.8064
  961MOL0     H32570   5.610   4.774   6.130 -0.3398  2.9406  0.9612
  961MOL0     H32571   5.611   4.915   6.013  0.0240  0.3939  0.4592
  961MOL0     H32572   5.516   4.733   5.839 -0.6769 -0.9330 -0.5400
  961MOL0     H32573   5.510   4.616   5.970 -0.2094 -0.2002 -0.6115
  961MOL0     H32574   5.352   4.890   5.963 -0.2293 -0.6752 -1.5461
  961MOL0     H32575   5.288   4.725   5.926 -0.0297 -1.7800  1.5814
  961MOL0     H32576   5.298   4.734   6.372  0.2851 -1.8117 -2.9978
  961MOL0     H32577   5.192   4.725   6.561  0.0162 -2.5317  1.7938
  961MOL0     H32578   5.064   4.613   6.538  1.2088 -0.5651 -1.5526
  961MOL0     H32579   5.033   4.782   6.600 -1.9967  0.9311 -2.2092
  961MOL0     H32580   4.538   4.793   6.419  0.1635  1.8594  0.3241
  961MOL0     H32581   4.349   4.835   6.581  0.0387 -1.0618  1.0139
  961MOL0     H32582   4.350   4.738   7.026 -0.4201 -1.6656 -1.4123
  961MOL0     H32583   4.449   4.871   6.995  0.4165  0.0587 -1.8571
  961MOL0     H32584   4.256   5.002   6.906 -0.9828  1.0750  0.9464
  961MOL0     H32585   4.146   4.876   6.945  0.5863 -0.0737 -1.3803
  961MOL0     H32586   4.136   5.013   7.131 -0.2234  1.0263 -1.4928
  961MOL0     H32587   4.295   5.079   7.108  3.0914 -0.9361 -1.0098
  961MOL0     H32588   4.397   4.885   7.231  0.2243 -2.8180  1.5535
  961MOL0     H32589   4.237   4.804   7.227  0.9051  0.3112  0.5418
  961MOL0     H32590   4.147   4.960   7.378 -0.3672 -2.3018  0.7519
  961MOL0     H32591   4.274   4.848   7.442 -2.2954 -0.7934 -0.8542
  961MOL0     H32592   4.302   5.149   7.405  2.8813  0.4736 -0.0805
  961MOL0     H32593   4.442   5.037   7.412  0.9716 -2.6582  3.5006
  961MOL0     H32594   4.391   4.945   7.605  2.1768  0.7028 -0.1188
  961MOL0     H32595   4.229   5.024   7.617 -0.3560 -0.2820 -1.8691
  961MOL0     H32596   4.492   5.183   7.594 -1.4518 -1.3754 -0.1013
  961MOL0     H32597   4.433   5.135   7.749  1.9476  2.4092  0.1053
  961MOL0     H32598   4.600   4.698   6.906  0.5179  0.0464  0.1433
  961MOL0     H32599   4.796   4.670   6.731  1.4973  3.4218  0.1233
  961MOL0     H32600   4.898   4.877   6.116 -0.0575 -2.4905 -1.5832
  961MOL0     H32601   5.102   4.857   6.003  1.7849  2.5235 -0.2409
  961MOL0     H32602   6.397   3.587   6.381 -0.3753  1.8239 -0.6718
  961MOL0     H32603   6.586   3.469   6.361 -1.8594 -0.0056  0.9048
  961MOL0     H32604   6.898   3.349   6.281  0.3489  0.8975  0.5907
  961MOL0     H32605   7.125   3.238   6.334  1.1660  1.3726  1.0665
  961MOL0     H32606   7.448   3.355   6.092  1.6487 -1.2815 -2.8855
  961MOL0     H32607   7.529   3.234   6.191 -1.4557  1.3021  2.8411
  961MOL0     H32608   7.352   3.157   5.949 -1.0301 -0.6504  1.3254
  961MOL0     H32609   7.461   3.054   6.042  0.1610  0.2472  2.8545
  961MOL0     H32610   7.509   3.201   5.805  1.7348  1.1719 -1.5620
  961MOL0     H32611   7.589   3.301   5.927 -0.9151  0.4049  2.8314
  961MOL0     H32612   7.734   3.105   5.998 -1.6554 -0.3542  1.4775
  961MOL0     H32613   7.749   3.137   5.831  1.8561  1.4184  3.1263
  961MOL0     H32614   7.613   2.756   5.801  0.0348 -0.0481 -0.0491
  961MOL0     H32615   7.260   3.338   5.940  0.0619 -0.6773  0.3062
  961MOL0     H32616   7.100   3.378   5.779 -1.1658 -0.0399 -2.6345
  961MOL0     H32617   6.943   3.454   5.819 -1.1151  3.2950  3.8747
  961MOL0     H32618   7.083   3.548   5.845 -1.4889 -0.2001 -0.7993
  962MOL0     O32619   4.961   5.009   4.837 -0.4753 -0.9289 -0.2557
  962MOL0     C32620   4.918   5.019   4.954  0.9226 -0.3901  0.3721
  962MOL0     O32621   4.991   5.017   5.067 -0.2665 -0.2702  0.8547
  962MOL0     C32622   5.121   4.996   5.045 -0.4137  0.2454 -0.3746
  962MOL0     C32623   5.217   5.100   5.048  0.0130 -0.4764  0.3148
  962MOL0     C32624   5.352   5.073   5.043  0.4769  0.2787 -1.1614
  962MOL0     C32625   5.401   4.948   5.041  0.8349 -0.4653  0.0332
  962MOL0     O32626   5.538   4.931   5.036  0.4023 -0.6101  0.5982
  962MOL0     C32627   5.575   4.828   4.938 -0.1654 -0.5733  0.4822
  962MOL0     C32628   5.593   4.890   4.799 -1.1204 -0.2054  0.5679
  962MOL0     C32629   5.654   4.779   4.708  0.5924 -0.8884 -0.1168
  962MOL0     C32630   5.662   4.823   4.559 -0.7408 -0.5514  0.6598
  962MOL0     C32631   5.789   4.750   4.508  0.2580  0.0059 -0.9727
  962MOL0     C32632   5.849   4.810   4.379 -0.3937  0.0954  0.2575
  962MOL0     C32633   5.973   4.728   4.346  0.8627  0.2250  0.3217
  962MOL0     C32634   6.060   4.794   4.244 -0.4266 -0.0629 -0.0566
  962MOL0     N32635   6.075   4.729   4.116  0.7248  0.8262  0.3159
  962MOL0     C32636   5.982   4.728   4.014  0.1477  0.2936 -1.5840
  962MOL0     C32637   6.046   4.662   3.913 -0.1541 -0.4271  0.0342
  962MOL0     C32638   6.007   4.636   3.772 -1.4723  0.7190  0.0680
  962MOL0     C32639   5.960   4.766   3.714  0.3556 -0.5945  1.1817
  962MOL0     C32640   6.072   4.882   3.705  0.2528 -0.1330 -0.7328
  962MOL0     C32641   6.015   5.009   3.644 -0.5326  0.6354  0.2525
  962MOL0     O32642   6.109   5.109   3.629 -0.7483  0.0075  0.5567
  962MOL0     C32643   6.223   5.079   3.558  0.0959  0.2204 -0.8659
  962MOL0     C32644   6.336   5.138   3.601 -0.0780  0.1038  0.0386
  962MOL0     C32645   6.456   5.131   3.525  0.0181 -0.6030 -0.8480
  962MOL0     C32646   6.576   5.187   3.598  0.1775  0.2477 -0.8612
  962MOL0     C32647   6.456   5.067   3.400 -0.0232  0.4047 -0.4845
  962MOL0     C32648   6.576   5.048   3.313  0.0012 -0.1456 -0.0589
  962MOL0     O32649   6.565   4.977   3.195  0.1596 -0.6988  1.2344
  962MOL0     C32650   6.663   4.959   3.106 -0.3052 -0.8674  0.3007
  962MOL0     C32651   6.782   4.891   3.137  0.1297 -0.6886 -0.3996
  962MOL0     C32652   6.889   4.882   3.046  0.4349 -0.9050 -0.4692
  962MOL0     C32653   6.885   4.944   2.924  0.5142  0.1078  0.3987
  962MOL0     O32654   6.991   4.946   2.845 -0.3136 -0.4760  0.3268
  962MOL0     C32655   6.978   4.843   2.734 -0.0487  0.5623 -0.6148
  962MOL0     C32656   7.115   4.790   2.692  0.7478 -0.5946  0.1254
  962MOL0     C32657   7.151   4.659   2.754  0.3391 -0.2322 -1.2906
  962MOL0     C32658   7.278   4.590   2.696 -0.2173  0.2631 -0.4560
  962MOL0     C32659   7.305   4.459   2.769 -0.0590 -0.1132  0.2083
  962MOL0     C32660   7.434   4.386   2.729  0.5313  0.3371 -0.1716
  962MOL0     C32661   7.553   4.442   2.803 -0.0604 -0.6352 -0.4001
  962MOL0     C32662   7.681   4.372   2.765 -0.4721 -1.0963 -0.8531
  962MOL0    Cl32663   7.705   4.230   2.889  0.0957 -0.0818 -0.0054
  962MOL0     C32664   6.765   5.002   2.889  0.3462  0.0266  0.0089
  962MOL0     C32665   6.651   5.000   2.971  0.1924  0.1161 -0.0587
  962MOL0     O32666   6.682   5.099   3.339  0.0652 -0.0976  0.1834
  962MOL0     C32667   6.340   5.004   3.363  0.3936  0.0803  0.0219
  962MOL0     C32668   6.219   5.015   3.437 -0.2035  0.4626  0.4681
  962MOL0     N32669   6.172   4.622   3.953  0.0812  0.3330 -0.2806
  962MOL0     N32670   6.184   4.667   4.071  1.0303  0.6722  0.1928
  962MOL0     C32671   5.309   4.842   5.055 -0.1441  0.3527  0.0147
  962MOL0     C32672   5.169   4.866   5.051  0.7001  0.0297 -0.4576
  962MOL0     C32673   4.767   5.027   4.974 -0.2358  0.4938 -0.3386
  962MOL0     C32674   4.719   5.022   5.106  0.7919 -1.0641 -0.6740
  962MOL0     C32675   4.578   5.014   5.131 -0.5555 -0.1826  1.2027
  962MOL0     C32676   4.490   5.020   5.024  0.4525  0.1698  0.7923
  962MOL0     O32677   4.355   5.012   5.031  0.5071 -0.1429  0.2791
  962MOL0     C32678   4.288   5.053   5.148  0.1501 -0.5287 -0.0898
  962MOL0     C32679   4.154   5.108   5.104  0.6040  0.2827  0.0351
  962MOL0     C32680   4.026   5.014   5.103  0.0709 -0.2376 -0.2486
  962MOL0     C32681   4.010   4.922   4.988  1.6534  0.2313 -0.1586
  962MOL0     C32682   3.888   4.842   5.009  0.6107  0.6720 -0.5957
  962MOL0     C32683   3.800   4.760   5.031 -0.1612 -0.3431 -0.3940
  962MOL0     C32684   4.532   5.051   4.894  0.0110  0.0527 -1.3318
  962MOL0     C32685   4.670   5.064   4.866 -0.0139 -0.0018 -0.3707
  962MOL0     C32686   4.715   5.101   4.726 -0.8634  0.0202 -1.0794
  962MOL0     H32687   5.182   5.202   5.057 -1.1961 -0.6422 -1.7697
  962MOL0     H32688   5.422   5.155   5.033  0.7685  0.5770  2.2170
  962MOL0     H32689   5.506   4.744   4.926 -2.2623  1.1258  0.0225
  962MOL0     H32690   5.674   4.795   4.970  0.5053  0.6272 -0.2913
  962MOL0     H32691   5.500   4.928   4.755 -2.3668 -1.2899  2.1556
  962MOL0     H32692   5.655   4.978   4.819 -2.9070  1.0078  1.0591
  962MOL0     H32693   5.751   4.757   4.753 -0.0743 -1.4217  1.1057
  962MOL0     H32694   5.594   4.689   4.725 -0.9672  0.5357  2.7125
  962MOL0     H32695   5.580   4.787   4.496  0.0841 -2.3772  0.5681
  962MOL0     H32696   5.680   4.931   4.554  3.2472 -0.9770  2.3263
  962MOL0     H32697   5.757   4.652   4.469 -1.5545 -0.0726  0.5742
  962MOL0     H32698   5.872   4.746   4.578 -0.4728  0.5536 -0.0521
  962MOL0     H32699   5.770   4.803   4.304  0.0429  1.9444 -0.4481
  962MOL0     H32700   5.878   4.915   4.396  1.6057 -0.5813  1.3067
  962MOL0     H32701   5.960   4.625   4.311  1.2384 -0.1936  1.3540
  962MOL0     H32702   6.030   4.724   4.440  0.1694  1.0097  0.7828
  962MOL0     H32703   6.026   4.899   4.244 -0.2829  0.1499  3.9180
  962MOL0     H32704   6.159   4.793   4.290 -0.5818  3.9548  0.7558
  962MOL0     H32705   5.881   4.765   4.005  0.6643  3.2345  2.1909
  962MOL0     H32706   5.929   4.560   3.781 -0.3345 -0.5395 -0.4621
  962MOL0     H32707   6.092   4.598   3.715  0.0276  3.4365  0.3108
  962MOL0     H32708   5.921   4.740   3.615 -3.2892  2.0984  1.6963
  962MOL0     H32709   5.872   4.793   3.774 -1.2420 -4.3487  0.7590
  962MOL0     H32710   6.102   4.895   3.809  0.7743 -2.4040 -0.5321
  962MOL0     H32711   6.154   4.841   3.645 -1.6506  0.7809 -4.2392
  962MOL0     H32712   5.985   4.979   3.543  0.9971 -2.8008  0.6768
  962MOL0     H32713   5.933   5.035   3.712  0.2079  1.8301  0.7181
  962MOL0     H32714   6.337   5.196   3.693  2.7610  0.2141  0.0240
  962MOL0     H32715   6.631   5.237   3.518  1.0193 -2.3872 -2.0590
  962MOL0     H32716   6.637   5.103   3.633  1.3525  0.9114 -1.2746
  962MOL0     H32717   6.554   5.257   3.679  1.4141 -0.0466 -0.2527
  962MOL0     H32718   6.813   4.848   3.232  0.3517 -0.6070 -0.4328
  962MOL0     H32719   6.984   4.836   3.071  2.9009  3.5072 -0.6855
  962MOL0     H32720   6.920   4.760   2.777  1.7441  0.7461  2.4748
  962MOL0     H32721   6.921   4.887   2.652 -2.0803 -1.0068 -0.1489
  962MOL0     H32722   7.109   4.770   2.585 -2.5956  1.9909 -0.3479
  962MOL0     H32723   7.183   4.875   2.705  0.0946 -0.3451  2.3471
  962MOL0     H32724   7.077   4.579   2.752  2.6808 -2.6256  0.6775
  962MOL0     H32725   7.170   4.675   2.860  0.1041 -1.3284 -1.0742
  962MOL0     H32726   7.368   4.652   2.699 -1.2434  1.9947 -2.2907
  962MOL0     H32727   7.270   4.571   2.589  0.7517  1.2303 -0.7214
  962MOL0     H32728   7.299   4.472   2.878  2.2563  1.9439  0.1824
  962MOL0     H32729   7.226   4.393   2.733  1.7728 -2.1020 -0.3624
  962MOL0     H32730   7.459   4.385   2.622  2.8074 -0.3776  0.2968
  962MOL0     H32731   7.414   4.282   2.758  1.4746  0.6778  1.8569
  962MOL0     H32732   7.549   4.447   2.912 -0.9085  0.1163 -0.4573
  962MOL0     H32733   7.577   4.543   2.767  0.4325 -0.4365  0.4360
  962MOL0     H32734   7.755   4.451   2.776 -3.7681  1.9057  2.3881
  962MOL0     H32735   7.666   4.345   2.660  1.2787 -2.4742 -0.7955
  962MOL0     H32736   6.763   5.034   2.786  0.1569 -0.9973 -0.3239
  962MOL0     H32737   6.565   5.051   2.928 -0.1220 -1.3224 -1.2204
  962MOL0     H32738   6.333   4.968   3.261  3.2500 -0.8587  0.0619
  962MOL0     H32739   6.133   4.962   3.398  0.5883 -1.4894  1.2328
  962MOL0     H32740   5.343   4.739   5.065  0.8754  0.7771  1.1558
  962MOL0     H32741   5.097   4.786   5.065 -1.9688  2.4943  1.1081
  962MOL0     H32742   4.786   5.014   5.191 -0.7108  0.7751  0.7950
  962MOL0     H32743   4.542   5.006   5.233 -4.0801  0.8345  0.2018
  962MOL0     H32744   4.280   4.969   5.217  1.9132 -0.5545  0.1241
  962MOL0     H32745   4.342   5.133   5.199  0.7059  1.0459 -2.8912
  962MOL0     H32746   4.168   5.155   5.006 -1.5233 -1.0682 -0.9951
  962MOL0     H32747   4.140   5.193   5.171 -0.2818  1.5037 -1.6206
  962MOL0     H32748   4.021   4.959   5.197  0.3039  3.1288  1.8837
  962MOL0     H32749   3.938   5.078   5.118  0.6576  0.7644 -0.9659
  962MOL0     H32750   4.092   4.851   4.974  0.6144 -0.3982 -4.3791
  962MOL0     H32751   3.993   4.986   4.900 -0.3091  0.6862  0.5041
  962MOL0     H32752   3.720   4.694   5.057  1.1258 -1.3966  1.0698
  962MOL0     H32753   4.466   5.059   4.808 -2.8844  2.2176  0.9043
  962MOL0     H32754   4.795   5.174   4.733  1.6157 -2.2852 -3.0072
  962MOL0     H32755   4.763   5.018   4.673 -1.7428 -1.4663  0.3496
  962MOL0     H32756   4.643   5.152   4.662  1.3723  2.4731 -1.8062
  963MOL0     O32757   6.673   4.877   6.775  0.5773  0.0449 -0.2363
  963MOL0     C32758   6.588   4.908   6.858 -0.5208  0.1061 -0.2974
  963MOL0     O32759   6.591   5.026   6.933 -0.2456  0.2772 -0.0972
  963MOL0     C32760   6.683   5.121   6.895  0.5121 -0.3979 -0.0648
  963MOL0     C32761   6.681   5.201   6.779  0.9668 -0.2837 -1.3598
  963MOL0     C32762   6.773   5.304   6.760 -0.6690 -0.7213 -0.0141
  963MOL0     C32763   6.882   5.326   6.849  0.6900 -0.0624 -0.6644
  963MOL0     O32764   6.962   5.427   6.818 -0.3309 -0.1066  0.0463
  963MOL0     C32765   7.095   5.429   6.887 -0.2990 -0.9701 -0.8067
  963MOL0     C32766   7.192   5.527   6.826  0.3443  0.4774  0.0994
  963MOL0     C32767   7.214   5.490   6.675 -0.4012  0.0110 -0.6970
  963MOL0     C32768   7.332   5.569   6.616 -0.0324  0.5275 -0.0679
  963MOL0     C32769   7.290   5.716   6.565  0.2497 -0.0431 -0.1884
  963MOL0     C32770   7.388   5.791   6.483 -0.6393  0.0413  0.2493
  963MOL0     C32771   7.349   5.945   6.486 -0.4652  0.6125 -0.9477
  963MOL0     C32772   7.453   6.029   6.413 -0.1549 -0.8778 -0.1407
  963MOL0     N32773   7.405   6.159   6.382 -0.4843  0.2686 -0.0286
  963MOL0     C32774   7.300   6.189   6.287  0.2905  0.5689 -0.2615
  963MOL0     C32775   7.285   6.320   6.299  0.2868 -0.7008 -0.1566
  963MOL0     C32776   7.189   6.412   6.241  0.1377  0.3021 -0.0154
  963MOL0     C32777   7.050   6.380   6.314 -0.8459 -0.2622  0.8599
  963MOL0     C32778   6.994   6.243   6.315 -0.4759  0.7298  0.3068
  963MOL0     C32779   6.840   6.240   6.346  0.0907  0.4335  0.3674
  963MOL0     O32780   6.809   6.292   6.483  0.7079  0.1877  0.1574
  963MOL0     C32781   6.747   6.416   6.496  0.3423 -0.4404 -0.2420
  963MOL0     C32782   6.642   6.442   6.417  0.3102 -0.0224 -0.4757
  963MOL0     C32783   6.574   6.567   6.432 -0.3115 -0.6697 -0.0165
  963MOL0     C32784   6.447   6.585   6.350  0.1690  0.6217 -0.3546
  963MOL0     C32785   6.625   6.671   6.503 -0.8064 -0.0842 -0.1198
  963MOL0     C32786   6.568   6.799   6.540 -0.5254 -0.0456 -0.3994
  963MOL0     O32787   6.654   6.901   6.570 -0.1848 -0.5652  0.7139
  963MOL0     C32788   6.607   7.026   6.582  0.2537 -0.8522  0.0033
  963MOL0     C32789   6.506   7.085   6.493  0.8970  0.0971 -0.1966
  963MOL0     C32790   6.466   7.217   6.509  0.5394  0.0487  0.3260
  963MOL0     C32791   6.532   7.307   6.594 -0.5221 -0.4148  0.9333
  963MOL0     O32792   6.493   7.443   6.611  0.4015  0.7376  0.1976
  963MOL0     C32793   6.562   7.530   6.707  0.4276 -0.2093  0.8310
  963MOL0     C32794   6.521   7.676   6.673  0.2973  1.0101 -0.1366
  963MOL0     C32795   6.364   7.682   6.682  0.0972  0.3668 -0.2154
  963MOL0     C32796   6.336   7.830   6.640  0.9248 -0.0184 -0.0114
  963MOL0     C32797   6.186   7.862   6.647  0.2012 -1.0509 -0.6684
  963MOL0     C32798   6.151   7.988   6.565 -0.1461  0.4915 -0.7002
  963MOL0     C32799   6.200   8.110   6.634  0.8274  0.0589 -0.5026
  963MOL0     C32800   6.134   8.239   6.557 -0.1231 -0.5668  0.3236
  963MOL0    Cl32801   6.180   8.392   6.623 -0.1016 -0.2585  0.7562
  963MOL0     C32802   6.636   7.254   6.669 -0.7885  0.2225 -0.7592
  963MOL0     C32803   6.670   7.118   6.671  0.5240  0.6884 -0.5757
  963MOL0     O32804   6.449   6.817   6.528 -0.4495  0.5665 -0.1843
  963MOL0     C32805   6.745   6.653   6.574 -0.4901  1.4184  0.0854
  963MOL0     C32806   6.810   6.523   6.568  1.0991 -0.0311 -0.9338
  963MOL0     N32807   7.380   6.374   6.382 -0.3741  0.7679 -0.0000
  963MOL0     N32808   7.449   6.278   6.434 -0.6902 -0.8216  0.3075
  963MOL0     C32809   6.875   5.262   6.966  0.5200  0.8528 -0.7177
  963MOL0     C32810   6.789   5.148   6.986  1.0488 -0.2541  0.2339
  963MOL0     C32811   6.458   4.841   6.862 -0.1796 -0.4586 -0.1332
  963MOL0     C32812   6.332   4.910   6.889  0.8073  0.1790  0.8580
  963MOL0     C32813   6.212   4.843   6.881  0.7986  1.2147 -0.4357
  963MOL0     C32814   6.214   4.705   6.871  0.1036  0.0136  0.5967
  963MOL0     O32815   6.095   4.637   6.873  0.0604 -0.2380 -0.2512
  963MOL0     C32816   6.102   4.490   6.873  0.5414  0.5743  0.1106
  963MOL0     C32817   5.957   4.432   6.925  0.2746  1.1700 -0.5489
  963MOL0     C32818   5.921   4.285   6.916  0.4340  0.0534  0.5415
  963MOL0     C32819   5.922   4.235   6.778 -0.1062 -0.0542 -0.2394
  963MOL0     C32820   5.899   4.086   6.772 -0.1608 -0.2300  0.3511
  963MOL0     C32821   5.862   3.972   6.791 -0.8252  0.3212  0.7422
  963MOL0     C32822   6.337   4.642   6.873 -0.4420 -0.3589  0.5699
  963MOL0     C32823   6.457   4.699   6.863 -0.3625 -1.3078 -0.0845
  963MOL0     C32824   6.576   4.603   6.877  0.2512  0.1692  0.3921
  963MOL0     H32825   6.602   5.190   6.706 -1.2573 -2.9624  1.2248
  963MOL0     H32826   6.755   5.361   6.669 -3.6108 -3.0158 -1.0235
  963MOL0     H32827   7.137   5.329   6.903 -3.4635 -2.1053  1.5242
  963MOL0     H32828   7.082   5.461   6.991  1.8237 -3.1350  0.2081
  963MOL0     H32829   7.163   5.632   6.834  2.2185  0.9294  1.5929
  963MOL0     H32830   7.288   5.510   6.876 -0.4653  1.2395  2.0094
  963MOL0     H32831   7.241   5.384   6.672 -1.2562 -0.2176 -0.4601
  963MOL0     H32832   7.120   5.515   6.624 -1.2859  0.0868  0.9005
  963MOL0     H32833   7.415   5.580   6.685 -0.5417 -0.3504  0.7071
  963MOL0     H32834   7.370   5.518   6.527  0.0013 -2.3914  1.4878
  963MOL0     H32835   7.277   5.779   6.654  0.0392 -0.4469  0.0686
  963MOL0     H32836   7.199   5.707   6.506  0.9361 -1.1168 -1.1259
  963MOL0     H32837   7.487   5.777   6.526  0.0015  2.4030 -0.2859
  963MOL0     H32838   7.380   5.762   6.377 -0.7851 -0.1432  0.3101
  963MOL0     H32839   7.336   5.983   6.588 -0.4271 -0.4483 -0.5340
  963MOL0     H32840   7.257   5.965   6.431 -1.3487  4.0434  1.4234
  963MOL0     H32841   7.536   6.043   6.482 -0.0588  0.1729 -0.4499
  963MOL0     H32842   7.493   5.982   6.322  0.5194  0.3090 -0.4784
  963MOL0     H32843   7.255   6.116   6.221 -1.4550  2.5463 -1.3777
  963MOL0     H32844   7.192   6.394   6.133  1.4198 -0.1715  0.0688
  963MOL0     H32845   7.217   6.518   6.243 -2.1039  1.3680 -6.0377
  963MOL0     H32846   7.070   6.401   6.420  3.8923  2.3074 -0.2763
  963MOL0     H32847   6.975   6.444   6.267 -0.0461 -0.2486 -0.4054
  963MOL0     H32848   7.011   6.197   6.218 -2.0877 -0.1994  0.4369
  963MOL0     H32849   7.045   6.183   6.391  1.6125 -2.6289 -3.4096
  963MOL0     H32850   6.799   6.314   6.276 -0.7612  2.8369  3.2042
  963MOL0     H32851   6.806   6.137   6.332 -0.6045  0.7516 -0.3548
  963MOL0     H32852   6.602   6.358   6.361 -1.7882 -1.4424  2.8147
  963MOL0     H32853   6.433   6.498   6.286  0.3649 -1.1737  1.9367
  963MOL0     H32854   6.449   6.685   6.304  1.8744  0.1517 -1.3859
  963MOL0     H32855   6.358   6.582   6.413 -0.7495 -2.7825 -1.6214
  963MOL0     H32856   6.447   7.038   6.416 -1.3788  1.6236  0.5088
  963MOL0     H32857   6.378   7.256   6.459  0.3385  2.0448  2.1066
  963MOL0     H32858   6.548   7.506   6.813 -2.8223 -0.3133  0.5040
  963MOL0     H32859   6.670   7.525   6.695  0.7116  0.8074  2.6036
  963MOL0     H32860   6.560   7.743   6.751 -0.0313 -0.4482  1.3607
  963MOL0     H32861   6.571   7.699   6.579 -0.1051  0.9016 -0.3753
  963MOL0     H32862   6.319   7.667   6.781 -0.3414  2.4367 -0.0651
  963MOL0     H32863   6.323   7.609   6.611  0.0145 -0.4831  0.6787
  963MOL0     H32864   6.364   7.849   6.536 -3.1702 -0.0266 -1.3099
  963MOL0     H32865   6.399   7.894   6.702 -1.5853  1.7382  0.8895
  963MOL0     H32866   6.131   7.778   6.604  0.5282 -2.5286  1.6050
  963MOL0     H32867   6.137   7.872   6.744  1.9618 -2.8973  0.4928
  963MOL0     H32868   6.043   7.994   6.550 -0.3418 -1.6211 -0.4042
  963MOL0     H32869   6.197   7.976   6.466  1.7781 -0.6198  0.2783
  963MOL0     H32870   6.308   8.123   6.639  1.2323 -2.6246 -0.8342
  963MOL0     H32871   6.170   8.110   6.739  3.2337 -1.2037  0.2454
  963MOL0     H32872   6.025   8.240   6.555 -0.3798  2.7808 -4.9175
  963MOL0     H32873   6.171   8.239   6.453  0.5070 -1.3484  0.5378
  963MOL0     H32874   6.690   7.326   6.729  1.6684 -1.7462 -0.4484
  963MOL0     H32875   6.752   7.085   6.734 -1.2779 -0.1036  1.4828
  963MOL0     H32876   6.782   6.727   6.644  0.5950  1.0679 -0.0998
  963MOL0     H32877   6.898   6.498   6.627  0.4444  1.4981  0.7891
  963MOL0     H32878   6.939   5.299   7.046 -0.4243 -1.3036  1.1523
  963MOL0     H32879   6.782   5.088   7.077 -1.0216  0.8224  0.8369
  963MOL0     H32880   6.324   5.017   6.905 -4.5302  0.6085 -2.1172
  963MOL0     H32881   6.120   4.891   6.913  0.5177 -0.8986  2.3261
  963MOL0     H32882   6.112   4.472   6.766 -2.4134 -1.3297  0.0278
  963MOL0     H32883   6.179   4.447   6.937 -0.1487 -0.5484  0.2202
  963MOL0     H32884   5.875   4.485   6.877  0.8755  0.1231 -2.8681
  963MOL0     H32885   5.961   4.445   7.034 -0.4525 -0.7507 -0.2697
  963MOL0     H32886   5.981   4.222   6.982 -0.5124  0.0098  1.3925
  963MOL0     H32887   5.820   4.284   6.958  1.1338 -2.0112  2.3644
  963MOL0     H32888   6.022   4.251   6.736 -0.0791 -2.5195 -1.3105
  963MOL0     H32889   5.845   4.295   6.729 -0.0712  0.7233  0.6311
  963MOL0     H32890   5.864   3.866   6.808  2.8001  0.5257  2.6667
  963MOL0     H32891   6.348   4.534   6.885 -1.0845 -0.6278 -1.0401
  963MOL0     H32892   6.675   4.646   6.896  0.0248  0.8307  0.0986
  963MOL0     H32893   6.552   4.539   6.963 -1.4364  2.4069  1.6876
  963MOL0     H32894   6.561   4.544   6.786 -3.1435  0.3269  0.7078
  964MOL0     O32895   3.825  10.955   9.542 -0.2811 -0.1354 -0.3743
  964MOL0     C32896   3.787  10.923   9.429 -0.1049 -0.2797 -0.4835
  964MOL0     O32897   3.661  10.922   9.389 -0.1978  0.0980 -0.5669
  964MOL0     C32898   3.564  10.937   9.490 -0.6010 -0.7949  0.7136
  964MOL0     C32899   3.480  11.048   9.495  0.0710 -0.4528 -0.4316
  964MOL0     C32900   3.404  11.082   9.610 -0.4535  0.8059  0.3737
  964MOL0     C32901   3.399  10.993   9.718  0.5774 -0.2116 -1.1224
  964MOL0     O32902   3.324  11.016   9.835  0.6915  0.9149  0.0934
  964MOL0     C32903   3.184  11.002   9.809 -0.1380  0.3024  0.3157
  964MOL0     C32904   3.107  11.067   9.920  0.3587 -0.3248 -0.1043
  964MOL0     C32905   3.131  11.222   9.940  1.0905  0.4506 -0.0225
  964MOL0     C32906   3.129  11.297   9.819  0.3685  0.2342 -0.1566
  964MOL0     C32907   3.131  11.453   9.852  0.5388  1.0690 -0.0073
  964MOL0     C32908   2.982  11.492   9.841  0.1157  0.6980 -1.1998
  964MOL0     C32909   2.985  11.638   9.811 -0.2049 -0.4370 -0.0573
  964MOL0     C32910   2.859  11.707   9.863 -0.4207 -0.2290 -0.3010
  964MOL0     N32911   2.817  11.680  10.010  0.1103  0.3844  0.1305
  964MOL0     C32912   2.859  11.748  10.124 -0.4810  0.1558 -0.1438
  964MOL0     C32913   2.803  11.680  10.227  0.2546  0.1677  0.3910
  964MOL0     C32914   2.825  11.696  10.376  0.2962  0.5244 -0.1263
  964MOL0     C32915   2.905  11.582  10.438  0.1087 -0.3216  0.6466
  964MOL0     C32916   2.954  11.636  10.570 -0.0662 -0.1108 -0.8395
  964MOL0     C32917   3.019  11.540  10.662 -0.1507  0.9297 -0.6681
  964MOL0     O32918   2.920  11.448  10.715  0.6898  0.3908  0.3253
  964MOL0     C32919   2.951  11.325  10.764  0.2001 -0.0538  0.5363
  964MOL0     C32920   2.839  11.243  10.785 -0.3768 -0.0504 -0.1540
  964MOL0     C32921   2.853  11.115  10.833 -0.7445 -0.1378 -0.4186
  964MOL0     C32922   2.732  11.039  10.846 -0.0158 -0.5118 -0.6019
  964MOL0     C32923   2.990  11.065  10.870 -0.9511  1.1703  0.1544
  964MOL0     C32924   3.024  10.934  10.941  0.7382 -0.1646  0.3539
  964MOL0     O32925   3.139  10.936  11.015 -0.1065 -0.8596 -0.5030
  964MOL0     C32926   3.197  10.819  11.045 -0.2236  0.5623 -0.1917
  964MOL0     C32927   3.136  10.747  11.147  0.1921 -0.8188  0.4954
  964MOL0     C32928   3.178  10.619  11.178  0.7370 -0.1788 -0.7728
  964MOL0     C32929   3.292  10.566  11.122  0.1649  0.7038  0.6836
  964MOL0     O32930   3.335  10.433  11.142 -0.4506  0.4344  0.2543
  964MOL0     C32931   3.472  10.424  11.203  0.0055 -0.1649 -0.8833
  964MOL0     C32932   3.517  10.272  11.220 -0.3485  0.0370 -0.8330
  964MOL0     C32933   3.624  10.246  11.339  0.7804  1.8223  0.1805
  964MOL0     C32934   3.593  10.312  11.470  0.3519  0.3095 -0.0767
  964MOL0     C32935   3.660  10.243  11.596 -0.8193 -0.4085  0.5005
  964MOL0     C32936   3.639  10.318  11.727  0.8667  0.4370 -0.0049
  964MOL0     C32937   3.726  10.245  11.839  0.7869  0.3191  0.4895
  964MOL0     C32938   3.731  10.350  11.955 -0.7276 -0.2534 -0.3099
  964MOL0    Cl32939   3.563  10.338  12.025 -0.0246  0.0565  0.3371
  964MOL0     C32940   3.362  10.646  11.026 -0.3018  0.3693 -0.8470
  964MOL0     C32941   3.308  10.771  10.984 -0.2013 -0.7714 -0.1575
  964MOL0     O32942   2.949  10.841  10.930  0.3074  0.5685  0.4204
  964MOL0     C32943   3.092  11.152  10.847 -0.1050 -0.2003 -0.1238
  964MOL0     C32944   3.070  11.281  10.802  0.3997 -0.8656 -0.4083
  964MOL0     N32945   2.737  11.574  10.172 -0.6546  1.0443  0.6504
  964MOL0     N32946   2.742  11.571  10.039  0.6128 -0.4636 -0.2556
  964MOL0     C32947   3.472  10.872   9.712  0.4601  0.1456 -0.0662
  964MOL0     C32948   3.553  10.847   9.603  0.0881  0.2065 -0.0899
  964MOL0     C32949   3.888  10.902   9.318  0.7824 -0.1106 -0.5123
  964MOL0     C32950   3.835  10.907   9.186 -0.1905 -1.0906 -0.3343
  964MOL0     C32951   3.919  10.905   9.077 -0.2676  0.2901 -0.0782
  964MOL0     C32952   4.051  10.912   9.093 -0.1926  0.0433  0.5872
  964MOL0     O32953   4.117  10.925   8.974  0.2046 -0.6456 -0.1010
  964MOL0     C32954   4.247  10.998   8.977 -0.9503 -0.2383  0.0083
  964MOL0     C32955   4.275  11.060   8.841  1.1685  0.1998 -0.2931
  964MOL0     C32956   4.415  11.098   8.849 -0.1834 -0.2330  0.0972
  964MOL0     C32957   4.452  11.163   8.719 -0.5078  0.6469 -0.7045
  964MOL0     C32958   4.590  11.191   8.706  0.1080 -0.2836  0.2142
  964MOL0     C32959   4.699  11.238   8.691 -0.6682  0.1870 -1.0857
  964MOL0     C32960   4.110  10.899   9.220 -0.3567 -0.3911  0.7824
  964MOL0     C32961   4.027  10.901   9.334  0.3864  0.4986  0.9658
  964MOL0     C32962   4.096  10.902   9.469 -0.5547 -0.0372  0.4546
  964MOL0     H32963   3.489  11.127   9.421 -1.5445 -0.4940 -0.6977
  964MOL0     H32964   3.347  11.172   9.630  0.6124  1.3971  0.8392
  964MOL0     H32965   3.169  10.894   9.809 -1.7192  0.4788  1.9461
  964MOL0     H32966   3.151  11.043   9.713  0.4525 -0.0033 -0.0206
  964MOL0     H32967   2.999  11.048   9.920  0.5619 -1.5684  0.1155
  964MOL0     H32968   3.144  11.020  10.012  2.5717 -2.9662 -2.1913
  964MOL0     H32969   3.045  11.252  10.000 -1.4835 -0.1331 -3.1594
  964MOL0     H32970   3.229  11.235   9.987  2.5117  3.3423 -3.3317
  964MOL0     H32971   3.220  11.269   9.764  2.3984  0.3893  2.8939
  964MOL0     H32972   3.036  11.269   9.769 -0.9155  2.0664  1.0807
  964MOL0     H32973   3.195  11.506   9.781  2.1125  2.2028  2.1406
  964MOL0     H32974   3.179  11.464   9.950  1.9928 -2.9837 -0.0832
  964MOL0     H32975   2.937  11.436   9.758 -1.1394  1.4231 -1.0408
  964MOL0     H32976   2.930  11.470   9.935 -1.5804 -1.7025 -2.5670
  964MOL0     H32977   3.003  11.646   9.704  1.4357 -5.3317 -0.3931
  964MOL0     H32978   3.073  11.686   9.853  0.6935 -1.0468 -1.2007
  964MOL0     H32979   2.865  11.816   9.850  0.2163  0.3356  3.6409
  964MOL0     H32980   2.775  11.672   9.802 -0.4649 -2.6258  1.0241
  964MOL0     H32981   2.932  11.828  10.133  1.5367 -1.5935 -0.3451
  964MOL0     H32982   2.739  11.710  10.443 -0.6015 -2.1032 -0.6127
  964MOL0     H32983   2.884  11.788  10.382  1.9400 -0.5362  0.8820
  964MOL0     H32984   2.846  11.492  10.459  0.7100 -1.2436 -1.3275
  964MOL0     H32985   2.986  11.554  10.371 -2.3563 -0.8571 -2.3664
  964MOL0     H32986   3.025  11.711  10.537 -0.5906 -0.0099 -1.7665
  964MOL0     H32987   2.862  11.666  10.623 -0.5020 -0.3420 -1.4524
  964MOL0     H32988   3.085  11.482  10.597  1.6408  2.3195 -0.1579
  964MOL0     H32989   3.077  11.594  10.736  0.3923  2.8517 -2.3914
  964MOL0     H32990   2.737  11.275  10.767 -1.0507 -2.5922 -1.2991
  964MOL0     H32991   2.738  10.997  10.947  0.3391  1.2826  0.1540
  964MOL0     H32992   2.743  10.952  10.781 -1.8296 -0.9236 -0.4082
  964MOL0     H32993   2.638  11.093  10.835  1.4770  2.1716 -1.0051
  964MOL0     H32994   3.058  10.798  11.203  0.0226  1.9032 -1.9716
  964MOL0     H32995   3.113  10.560  11.241 -1.7917 -1.5738 -4.3465
  964MOL0     H32996   3.551  10.473  11.147  1.3775 -0.8138  0.4045
  964MOL0     H32997   3.465  10.464  11.305  0.6696 -0.1116 -0.8573
  964MOL0     H32998   3.422  10.231  11.256 -0.6081  0.9301 -0.4994
  964MOL0     H32999   3.545  10.233  11.122 -0.5612  3.5754 -2.4289
  964MOL0     H33000   3.721  10.280  11.303  0.0261  0.8669 -3.1540
  964MOL0     H33001   3.612  10.138  11.351 -1.6873  1.9861 -0.3440
  964MOL0     H33002   3.485  10.315  11.487  0.2170 -3.9897  0.8843
  964MOL0     H33003   3.623  10.417  11.463  2.3018 -0.1543  0.5642
  964MOL0     H33004   3.617  10.146  11.623 -5.8251  1.5725  0.8169
  964MOL0     H33005   3.767  10.229  11.582 -0.5535  0.7047  1.2828
  964MOL0     H33006   3.531  10.314  11.746  0.9436  2.1022  0.9791
  964MOL0     H33007   3.654  10.426  11.741 -0.1995  0.4642  1.0829
  964MOL0     H33008   3.823  10.206  11.809  0.0640 -3.6573  2.6671
  964MOL0     H33009   3.669  10.158  11.874  1.4147 -0.1504  0.3461
  964MOL0     H33010   3.762  10.447  11.916  0.3033 -0.0551  0.9372
  964MOL0     H33011   3.807  10.309  12.022 -1.2739  2.1788  1.9756
  964MOL0     H33012   3.453  10.611  10.980 -0.0761  1.7684 -1.5313
  964MOL0     H33013   3.350  10.836  10.908 -1.8558 -0.2295 -0.6646
  964MOL0     H33014   3.193  11.119  10.870 -0.3380  1.3480  3.9221
  964MOL0     H33015   3.145  11.358  10.787 -0.1208 -0.8274 -3.4595
  964MOL0     H33016   3.456  10.793   9.784  0.6098  0.5028  0.3662
  964MOL0     H33017   3.619  10.761   9.606  1.9646  1.3146 -3.8580
  964MOL0     H33018   3.728  10.921   9.175  0.0045  1.5340  0.3587
  964MOL0     H33019   3.886  10.905   8.974  3.5983 -0.1651 -1.4759
  964MOL0     H33020   4.247  11.074   9.055  1.5737 -1.0372  0.8736
  964MOL0     H33021   4.329  10.929   9.000 -0.1527  0.5411 -0.4262
  964MOL0     H33022   4.202  11.136   8.812 -1.1889 -2.3587 -1.5405
  964MOL0     H33023   4.266  10.981   8.765  0.4738  0.9269 -0.9749
  964MOL0     H33024   4.422  11.168   8.933  3.0813 -2.4114  1.8925
  964MOL0     H33025   4.481  11.015   8.876 -2.3765 -1.4077  2.1686
  964MOL0     H33026   4.409  11.263   8.720  1.6564  1.6925  2.2333
  964MOL0     H33027   4.426  11.107   8.629 -1.2567  1.1181 -0.7861
  964MOL0     H33028   4.795  11.283   8.672 -1.4116  3.1163  1.1579
  964MOL0     H33029   4.218  10.896   9.226 -0.2873 -0.4430 -0.3093
  964MOL0     H33030   4.204  10.888   9.458 -0.6595 -2.0564  1.5442
  964MOL0     H33031   4.084  11.001   9.515  2.8011  2.0513 -2.6014
  964MOL0     H33032   4.060  10.814   9.522  1.5129 -2.6393 -2.1334
  965MOL0     O33033   9.335   0.891   7.236  0.0453 -0.4769 -0.1291
  965MOL0     C33034   9.218   0.907   7.197 -0.2882 -0.5936  0.3987
  965MOL0     O33035   9.118   0.971   7.268 -0.0397  0.4093  0.0011
  965MOL0     C33036   9.129   0.971   7.403 -1.8588  0.7897 -0.2352
  965MOL0     C33037   9.189   1.083   7.469 -0.5668  0.1416  0.4677
  965MOL0     C33038   9.229   1.072   7.601  0.7047 -0.4021 -0.4771
  965MOL0     C33039   9.200   0.954   7.677 -0.0763  0.0453 -0.5963
  965MOL0     O33040   9.220   0.939   7.812 -0.7182  0.6618  0.3790
  965MOL0     C33041   9.351   0.974   7.872 -0.0125  0.1626 -0.3071
  965MOL0     C33042   9.456   0.870   7.831  0.6017 -0.0204 -0.9463
  965MOL0     C33043   9.419   0.741   7.915 -0.6069  0.1988  0.1812
  965MOL0     C33044   9.538   0.640   7.912 -0.5467  0.8896  0.5555
  965MOL0     C33045   9.486   0.504   7.942 -0.7684  0.2965  0.8291
  965MOL0     C33046   9.605   0.411   7.946  0.9684  0.1242 -0.3340
  965MOL0     C33047   9.725   0.445   8.038  0.5515 -0.6464  0.0405
  965MOL0     C33048   9.687   0.467   8.184  0.9073 -0.2217  0.1566
  965MOL0     N33049   9.799   0.456   8.272  0.1625 -0.4455  0.3521
  965MOL0     C33050   9.813   0.344   8.356 -0.3353 -1.2819 -0.0491
  965MOL0     C33051   9.938   0.360   8.412  0.1141 -0.2364  0.3006
  965MOL0     C33052  10.004   0.281   8.517 -0.0146 -0.2128  0.1736
  965MOL0     C33053  10.099   0.363   8.601 -0.7133 -0.1765 -0.2059
  965MOL0     C33054  10.196   0.275   8.690  0.8004  0.0557  1.1895
  965MOL0     C33055  10.281   0.375   8.771  0.0846  0.2141 -0.2257
  965MOL0     O33056  10.390   0.316   8.839  0.6130  0.6366 -0.0552
  965MOL0     C33057  10.492   0.396   8.868 -0.0081  0.1972 -0.1271
  965MOL0     C33058  10.618   0.348   8.828 -0.0307 -0.0006  0.1158
  965MOL0     C33059  10.724   0.439   8.834  0.8639 -0.3209  0.2052
  965MOL0     C33060  10.854   0.384   8.772 -0.6182  0.4697  0.2292
  965MOL0     C33061  10.723   0.558   8.903 -0.7350 -1.1963  0.0260
  965MOL0     C33062  10.844   0.644   8.931 -0.3841 -0.3722  0.5767
  965MOL0     O33063  10.823   0.774   8.956  0.0454  0.1007 -0.1766
  965MOL0     C33064  10.929   0.844   9.008  0.4749  0.1001  1.3816
  965MOL0     C33065  10.996   0.916   8.912 -0.8026 -0.0419  0.1594
  965MOL0     C33066  11.107   0.989   8.952 -0.3575 -0.0520  0.4776
  965MOL0     C33067  11.145   0.998   9.088 -0.3289  0.1813  0.8308
  965MOL0     O33068  11.268   1.053   9.126  0.4329 -0.3953  0.3998
  965MOL0     C33069  11.377   1.045   9.025 -0.8534 -0.6033  0.1944
  965MOL0     C33070  11.393   1.184   8.970 -0.2209  0.0626 -0.1842
  965MOL0     C33071  11.516   1.177   8.890 -0.3711 -0.3865  0.4635
  965MOL0     C33072  11.528   1.305   8.811  0.4495 -0.4707 -0.6969
  965MOL0     C33073  11.655   1.300   8.724 -0.4275  0.6359 -0.8322
  965MOL0     C33074  11.627   1.427   8.638 -0.4987  0.4913 -0.3905
  965MOL0     C33075  11.739   1.450   8.547  1.2479  0.4856 -0.0435
  965MOL0     C33076  11.705   1.561   8.449  0.0324 -0.8565 -0.2343
  965MOL0    Cl33077  11.578   1.531   8.338 -0.1548 -0.3197 -0.0109
  965MOL0     C33078  11.072   0.935   9.181 -0.5303 -0.1377  0.4896
  965MOL0     C33079  10.959   0.856   9.146 -0.0225 -0.3268  1.0293
  965MOL0     O33080  10.950   0.585   8.964  0.6451 -0.4901  0.1559
  965MOL0     C33081  10.598   0.606   8.944  0.5651 -0.1638  0.7456
  965MOL0     C33082  10.481   0.527   8.920  0.6782 -0.7895  0.1730
  965MOL0     N33083   9.997   0.465   8.344 -0.4128  0.0039 -0.3735
  965MOL0     N33084   9.922   0.522   8.260  0.8451 -0.9236  0.9333
  965MOL0     C33085   9.140   0.840   7.606  0.0301  0.3472 -0.2116
  965MOL0     C33086   9.110   0.846   7.472 -0.4738 -0.8229  0.3196
  965MOL0     C33087   9.172   0.850   7.073 -0.5834 -0.4373 -0.0275
  965MOL0     C33088   9.051   0.885   7.016  0.1079 -0.4790 -0.4415
  965MOL0     C33089   9.015   0.859   6.884 -0.3116  0.5559 -0.6053
  965MOL0     C33090   9.107   0.779   6.802 -0.2642  0.5838 -0.2278
  965MOL0     O33091   9.078   0.760   6.670  0.1289 -0.5245  0.0540
  965MOL0     C33092   9.042   0.632   6.625 -0.0004 -0.5818 -0.3596
  965MOL0     C33093   8.884   0.622   6.602  0.2857 -0.5277 -0.3296
  965MOL0     C33094   8.836   0.716   6.491 -0.5085 -0.9613 -0.3869
  965MOL0     C33095   8.683   0.726   6.503 -0.0039 -0.8498  0.2525
  965MOL0     C33096   8.621   0.735   6.371  0.2498 -0.4609 -0.6129
  965MOL0     C33097   8.573   0.755   6.261  0.1901  0.3280  0.0353
  965MOL0     C33098   9.220   0.720   6.865  0.3490  0.7766  0.4038
  965MOL0     C33099   9.254   0.750   6.997  0.1473 -1.0640  0.5405
  965MOL0     C33100   9.380   0.689   7.052 -0.1935  0.4281  0.8765
  965MOL0     H33101   9.199   1.176   7.413  0.1863  1.0111  1.9612
  965MOL0     H33102   9.271   1.157   7.653 -2.8420  0.9826  0.3868
  965MOL0     H33103   9.344   0.965   7.981  1.5747  1.1389 -0.0978
  965MOL0     H33104   9.382   1.077   7.851 -3.9070  0.8852 -3.8487
  965MOL0     H33105   9.452   0.855   7.722  0.3422 -0.8093 -0.8385
  965MOL0     H33106   9.554   0.903   7.864  0.8409 -2.1340  0.6473
  965MOL0     H33107   9.397   0.753   8.021  2.2953 -0.3066  0.9453
  965MOL0     H33108   9.326   0.699   7.875 -1.7248  1.0245  1.8081
  965MOL0     H33109   9.588   0.640   7.814  0.0570 -1.1541  0.8056
  965MOL0     H33110   9.611   0.686   7.979 -0.1043  3.8747 -1.7538
  965MOL0     H33111   9.409   0.466   7.874 -0.4953 -0.5814  0.9970
  965MOL0     H33112   9.431   0.514   8.036 -1.2269  0.8372  0.5097
  965MOL0     H33113   9.588   0.304   7.960  0.2950 -0.2362 -3.2576
  965MOL0     H33114   9.645   0.422   7.845  2.4836  1.7881  0.3748
  965MOL0     H33115   9.788   0.529   8.008  4.5608 -2.7983  1.6313
  965MOL0     H33116   9.791   0.358   8.038  3.9521  1.7446 -1.0340
  965MOL0     H33117   9.637   0.564   8.194 -1.7334 -1.3241 -1.3319
  965MOL0     H33118   9.602   0.401   8.202 -1.2010  1.8347 -1.4346
  965MOL0     H33119   9.743   0.265   8.378 -0.1098 -1.4211  0.1752
  965MOL0     H33120  10.062   0.207   8.461  3.5274  2.4008  0.0234
  965MOL0     H33121   9.928   0.235   8.581 -1.8918  2.9532  0.4580
  965MOL0     H33122  10.157   0.436   8.544 -3.3850  3.0977  0.9596
  965MOL0     H33123  10.036   0.421   8.668 -1.3592 -0.4380 -0.5700
  965MOL0     H33124  10.129   0.212   8.750 -0.8435 -0.1894 -0.7820
  965MOL0     H33125  10.263   0.209   8.633  1.4466  1.7003 -0.0088
  965MOL0     H33126  10.312   0.452   8.700  0.1878 -0.6576 -1.1574
  965MOL0     H33127  10.219   0.411   8.853  1.2926 -2.0792  1.8174
  965MOL0     H33128  10.640   0.246   8.798  0.4242  0.4143 -1.0239
  965MOL0     H33129  10.908   0.450   8.704 -3.3853  0.0915 -2.5894
  965MOL0     H33130  10.837   0.298   8.706 -0.9731  1.0064 -0.3986
  965MOL0     H33131  10.922   0.360   8.854 -0.4656  0.8617  0.2185
  965MOL0     H33132  10.977   0.903   8.806  1.9185  0.2115 -0.4141
  965MOL0     H33133  11.158   1.045   8.875 -0.1853 -1.6469 -0.6116
  965MOL0     H33134  11.468   1.020   9.081 -1.7554 -0.6294  1.7201
  965MOL0     H33135  11.359   0.964   8.954  0.4019  0.1362 -1.0138
  965MOL0     H33136  11.302   1.210   8.915 -1.7749 -1.4235  1.5268
  965MOL0     H33137  11.416   1.264   9.041  4.6969  2.3963 -3.8159
  965MOL0     H33138  11.511   1.092   8.821 -0.4835  1.4316 -1.8970
  965MOL0     H33139  11.604   1.179   8.955  1.7760 -3.2264 -2.1044
  965MOL0     H33140  11.538   1.391   8.878  1.6423 -0.5931 -0.7078
  965MOL0     H33141  11.434   1.323   8.757  0.8166  0.6952 -0.9887
  965MOL0     H33142  11.745   1.310   8.785 -2.3887  0.6176  2.2852
  965MOL0     H33143  11.666   1.221   8.648  1.4825  1.2194 -1.2119
  965MOL0     H33144  11.618   1.522   8.690 -3.4302  1.3185 -2.2001
  965MOL0     H33145  11.540   1.419   8.573 -2.6300  0.1310  2.3309
  965MOL0     H33146  11.756   1.364   8.482  0.1070  0.6395 -0.5711
  965MOL0     H33147  11.828   1.465   8.609 -0.9650  1.8690  3.1062
  965MOL0     H33148  11.799   1.578   8.396 -0.8409 -0.0352 -1.5648
  965MOL0     H33149  11.675   1.655   8.497 -0.4915  0.5591 -3.1303
  965MOL0     H33150  11.102   0.962   9.282 -0.9990  1.2991  0.2625
  965MOL0     H33151  10.890   0.812   9.218 -3.7269  3.1611  0.0123
  965MOL0     H33152  10.588   0.700   8.997  2.2564  1.4992 -1.6617
  965MOL0     H33153  10.383   0.550   8.961 -0.2310 -1.6497 -1.4329
  965MOL0     H33154   9.110   0.753   7.664  2.7779 -0.1907  0.5536
  965MOL0     H33155   9.079   0.769   7.402 -1.0452  0.7004 -1.1447
  965MOL0     H33156   8.994   0.952   7.080 -0.3115 -0.9052 -0.3611
  965MOL0     H33157   8.922   0.888   6.838 -1.2973 -0.4664  0.6524
  965MOL0     H33158   9.093   0.609   6.531 -0.7642 -0.7949 -0.7331
  965MOL0     H33159   9.070   0.545   6.685 -1.5087 -2.5379 -2.3165
  965MOL0     H33160   8.834   0.654   6.693  3.8093 -3.1138  2.8262
  965MOL0     H33161   8.855   0.518   6.582 -1.7582  0.1571 -1.1946
  965MOL0     H33162   8.887   0.812   6.486  1.7279 -1.9889  0.9307
  965MOL0     H33163   8.867   0.678   6.393  0.5290  1.2679 -0.9919
  965MOL0     H33164   8.663   0.813   6.567  1.0102  1.4203 -2.3288
  965MOL0     H33165   8.628   0.635   6.531  0.3466 -0.7609  1.2605
  965MOL0     H33166   8.530   0.780   6.166  0.2408 -0.5415 -0.2249
  965MOL0     H33167   9.280   0.655   6.802 -1.6138 -2.1249  1.3373
  965MOL0     H33168   9.459   0.764   7.050 -0.0662  0.2862  0.3244
  965MOL0     H33169   9.374   0.643   7.151 -0.2631  1.0422  1.1621
  965MOL0     H33170   9.421   0.606   6.994  0.5380 -0.0435  2.0384
  966MOL0     O33171   0.531   5.797   8.467 -0.8063 -0.4950 -0.5470
  966MOL0     C33172   0.609   5.859   8.404  0.3230  0.1558 -0.0956
  966MOL0     O33173   0.579   5.944   8.302 -0.7207 -0.7563 -0.6887
  966MOL0     C33174   0.446   5.986   8.284 -0.8727 -0.4694 -0.9234
  966MOL0     C33175   0.360   5.915   8.212  0.1964  0.7086 -0.4178
  966MOL0     C33176   0.229   5.961   8.203  0.2340 -0.2625 -0.0403
  966MOL0     C33177   0.185   6.077   8.265 -0.0159  0.2557 -0.2465
  966MOL0     O33178   0.062   6.130   8.241  0.5481  0.2734  0.2582
  966MOL0     C33179  -0.003   6.099   8.115  0.6150 -0.6838  0.1693
  966MOL0     C33180  -0.120   6.202   8.093  0.3846  0.1951 -0.1975
  966MOL0     C33181  -0.200   6.155   7.972 -0.2239  0.7121 -0.2884
  966MOL0     C33182  -0.311   6.255   7.929  0.1949 -0.2706  0.7478
  966MOL0     C33183  -0.379   6.207   7.799  0.5993  0.0347 -0.0607
  966MOL0     C33184  -0.487   6.306   7.754 -0.1078  0.5415  0.5374
  966MOL0     C33185  -0.524   6.298   7.598 -0.8391  0.3701 -0.0239
  966MOL0     C33186  -0.649   6.378   7.559 -0.8024  0.2568  0.2853
  966MOL0     N33187  -0.654   6.508   7.632  0.1838  0.7999 -0.3890
  966MOL0     C33188  -0.580   6.613   7.589 -0.0231 -0.3103  0.7797
  966MOL0     C33189  -0.578   6.696   7.696  0.0380 -0.3611 -0.7904
  966MOL0     C33190  -0.521   6.833   7.728 -0.6014  0.1438 -0.3155
  966MOL0     C33191  -0.367   6.817   7.718 -0.2413 -0.9598 -0.5574
  966MOL0     C33192  -0.296   6.725   7.816  0.3265 -0.1780  0.4605
  966MOL0     C33193  -0.151   6.750   7.831 -0.1650  0.1096  0.3772
  966MOL0     O33194  -0.077   6.729   7.705 -0.5926 -0.2153  0.3598
  966MOL0     C33195   0.057   6.684   7.702  0.1494 -0.2271  0.6153
  966MOL0     C33196   0.092   6.605   7.594  0.3700 -0.0673  0.3035
  966MOL0     C33197   0.218   6.541   7.591  0.3094 -0.8746  0.7821
  966MOL0     C33198   0.248   6.448   7.479 -0.3091 -0.8090  0.6537
  966MOL0     C33199   0.314   6.586   7.693 -0.0455 -0.6248 -0.0808
  966MOL0     C33200   0.454   6.534   7.688  0.2901  0.3149 -0.3197
  966MOL0     O33201   0.508   6.529   7.563 -0.3106  0.2027 -0.3868
  966MOL0     C33202   0.648   6.498   7.561 -0.9930 -0.3481 -0.5140
  966MOL0     C33203   0.746   6.598   7.593  0.0636 -0.3427  0.2477
  966MOL0     C33204   0.881   6.578   7.572 -0.6029 -0.8364 -1.4984
  966MOL0     C33205   0.928   6.460   7.524  0.1176  0.5147 -1.4754
  966MOL0     O33206   1.053   6.434   7.495 -0.4866 -0.0998  1.1358
  966MOL0     C33207   1.163   6.501   7.574  0.5356 -0.0725 -0.6486
  966MOL0     C33208   1.292   6.425   7.538  0.8148  0.2628 -0.1515
  966MOL0     C33209   1.299   6.291   7.622 -0.4825 -1.3409 -0.7445
  966MOL0     C33210   1.436   6.223   7.602  0.1436 -0.6727  0.4290
  966MOL0     C33211   1.434   6.077   7.645  0.0300  0.0463 -0.6969
  966MOL0     C33212   1.534   5.983   7.583 -0.0663  0.0390  0.2266
  966MOL0     C33213   1.670   6.023   7.644  0.1674  1.0336  0.0292
  966MOL0     C33214   1.776   5.921   7.620  0.9720 -0.8206  0.7549
  966MOL0    Cl33215   1.724   5.776   7.703  0.1337  0.3023 -0.3023
  966MOL0     C33216   0.835   6.349   7.505 -0.1230 -0.4177 -0.1310
  966MOL0     C33217   0.695   6.376   7.509 -0.6391 -0.1499 -0.4528
  966MOL0     O33218   0.512   6.509   7.792  0.5293 -0.3308  0.1018
  966MOL0     C33219   0.277   6.663   7.800  0.8794  0.7677 -0.5342
  966MOL0     C33220   0.144   6.707   7.810 -0.1793  0.0647 -0.5222
  966MOL0     N33221  -0.652   6.637   7.795  0.4015  0.2559 -0.3042
  966MOL0     N33222  -0.710   6.527   7.757  0.0189 -0.5885  0.8540
  966MOL0     C33223   0.271   6.152   8.336  0.0070 -0.0252 -0.2330
  966MOL0     C33224   0.407   6.112   8.343 -0.5258 -0.6154 -0.4211
  966MOL0     C33225   0.755   5.832   8.426 -0.0907 -0.0231 -0.5828
  966MOL0     C33226   0.850   5.934   8.415  0.4893 -0.1041  0.8077
  966MOL0     C33227   0.989   5.925   8.422  0.0627  1.0803 -0.0268
  966MOL0     C33228   1.042   5.795   8.433  0.0202 -0.1960 -0.5774
  966MOL0     O33229   1.180   5.787   8.438 -0.3900  0.0266 -0.2634
  966MOL0     C33230   1.245   5.661   8.448 -0.9112  0.0417 -0.2098
  966MOL0     C33231   1.398   5.692   8.442 -0.0745  0.2292  1.3663
  966MOL0     C33232   1.424   5.754   8.298 -0.2816  0.0241  1.0945
  966MOL0     C33233   1.553   5.818   8.282 -0.4205  0.3639  1.2686
  966MOL0     C33234   1.576   5.857   8.138 -0.8083 -0.9667  0.1292
  966MOL0     C33235   1.585   5.889   8.019  0.4523 -0.0281  0.5544
  966MOL0     C33236   0.952   5.690   8.448  0.8352  0.0443 -0.1939
  966MOL0     C33237   0.812   5.702   8.441 -0.6512  0.4309  0.0757
  966MOL0     C33238   0.730   5.579   8.475 -0.2799 -1.1501 -0.1698
  966MOL0     H33239   0.401   5.825   8.168  1.4308  2.6024 -3.4908
  966MOL0     H33240   0.155   5.911   8.142  0.2457  1.1674 -1.2800
  966MOL0     H33241  -0.052   6.002   8.124  0.1075 -0.3384  1.2641
  966MOL0     H33242   0.062   6.096   8.027  0.2481  1.3509 -0.2397
  966MOL0     H33243  -0.172   6.204   8.189 -1.1180 -1.6928 -0.9019
  966MOL0     H33244  -0.082   6.303   8.075 -0.5616  0.5262 -0.3684
  966MOL0     H33245  -0.123   6.144   7.895 -0.2401  0.0798 -0.2203
  966MOL0     H33246  -0.238   6.056   7.998  4.7104 -0.4904  4.1633
  966MOL0     H33247  -0.386   6.260   8.009  2.6568  1.6002  3.1359
  966MOL0     H33248  -0.278   6.358   7.914 -0.4499 -0.4564 -2.6676
  966MOL0     H33249  -0.419   6.105   7.803 -0.5060  0.3059 -2.4472
  966MOL0     H33250  -0.311   6.216   7.714  0.8152  1.0483  0.1984
  966MOL0     H33251  -0.581   6.278   7.803 -0.6235 -0.2224 -0.8304
  966MOL0     H33252  -0.462   6.411   7.772 -0.3920  0.0565  5.1269
  966MOL0     H33253  -0.546   6.194   7.573  1.5180 -0.2840  0.3780
  966MOL0     H33254  -0.428   6.322   7.551  0.2299 -1.3925  1.1566
  966MOL0     H33255  -0.638   6.404   7.453 -0.4433 -0.0424  0.2487
  966MOL0     H33256  -0.731   6.311   7.587  0.0593 -1.0460 -0.2345
  966MOL0     H33257  -0.523   6.630   7.498  1.7755  2.2544  2.2745
  966MOL0     H33258  -0.545   6.870   7.828  3.0501 -1.1288  1.2304
  966MOL0     H33259  -0.562   6.908   7.660 -0.7275 -0.5666 -1.0335
  966MOL0     H33260  -0.334   6.789   7.617  2.0043 -2.7911  0.5738
  966MOL0     H33261  -0.344   6.921   7.744 -2.4217 -1.1241  2.6054
  966MOL0     H33262  -0.331   6.748   7.917  1.7679  2.3789  0.4569
  966MOL0     H33263  -0.315   6.619   7.793  2.0220 -0.3361 -0.3849
  966MOL0     H33264  -0.128   6.857   7.844  0.3148  0.2103 -1.1024
  966MOL0     H33265  -0.119   6.702   7.924 -2.2452  1.9353  2.1857
  966MOL0     H33266   0.022   6.575   7.516 -1.5569 -0.7507  2.2043
  966MOL0     H33267   0.312   6.498   7.406  1.0803  1.0622  3.0254
  966MOL0     H33268   0.159   6.409   7.428 -1.2532  1.8389  0.1243
  966MOL0     H33269   0.304   6.372   7.534 -0.7078 -1.9953 -0.5205
  966MOL0     H33270   0.713   6.698   7.620 -1.3491 -0.5334 -0.6482
  966MOL0     H33271   0.954   6.657   7.589 -1.1880 -0.5310 -0.2216
  966MOL0     H33272   1.185   6.599   7.531 -3.2167 -0.3796 -3.8569
  966MOL0     H33273   1.152   6.511   7.682  0.3076  0.2273 -0.6995
  966MOL0     H33274   1.279   6.392   7.434 -1.7454 -2.6636  0.9281
  966MOL0     H33275   1.377   6.490   7.556 -1.8098  3.2324  2.9261
  966MOL0     H33276   1.218   6.227   7.586 -2.4722 -1.4716  3.3983
  966MOL0     H33277   1.288   6.310   7.729  0.6129 -0.0519 -0.8367
  966MOL0     H33278   1.520   6.279   7.645  1.9859 -1.1716 -2.2841
  966MOL0     H33279   1.456   6.226   7.495 -2.4374 -0.2341 -0.0885
  966MOL0     H33280   1.454   6.077   7.753  0.0328 -3.5186 -0.5806
  966MOL0     H33281   1.331   6.045   7.627 -1.6771  3.3389  1.9333
  966MOL0     H33282   1.533   5.998   7.475 -2.3757  0.6668  0.2829
  966MOL0     H33283   1.510   5.877   7.595  0.5933  0.1561  3.3945
  966MOL0     H33284   1.655   6.044   7.750  1.0203  2.5683 -0.1213
  966MOL0     H33285   1.714   6.115   7.605 -0.3536  2.0021  1.6106
  966MOL0     H33286   1.866   5.968   7.661 -1.0454  2.4420  1.8250
  966MOL0     H33287   1.793   5.893   7.516 -1.2710 -0.5365  0.2740
  966MOL0     H33288   0.872   6.253   7.470  1.6042  0.1104  0.1683
  966MOL0     H33289   0.630   6.291   7.490  0.0356 -0.2677 -2.4145
  966MOL0     H33290   0.348   6.688   7.878 -1.2528  2.0922  1.0906
  966MOL0     H33291   0.114   6.769   7.894  1.1761 -2.6625  2.1858
  966MOL0     H33292   0.237   6.240   8.389  1.4932 -0.6528  1.9150
  966MOL0     H33293   0.484   6.170   8.394 -0.0073 -0.8127 -0.9583
  966MOL0     H33294   0.811   6.034   8.401 -1.0480 -0.8832 -1.1412
  966MOL0     H33295   1.045   6.018   8.434 -0.0596  1.1913 -0.3296
  966MOL0     H33296   1.228   5.605   8.540 -1.5937 -3.6941 -2.3846
  966MOL0     H33297   1.221   5.588   8.369 -1.9553  2.8677 -2.7038
  966MOL0     H33298   1.456   5.601   8.459  0.1814 -0.4371 -2.1846
  966MOL0     H33299   1.429   5.767   8.515  4.9269  2.7081 -2.6332
  966MOL0     H33300   1.425   5.669   8.229  0.0368  0.0176  1.1074
  966MOL0     H33301   1.343   5.824   8.273  0.0117  0.4529  1.3270
  966MOL0     H33302   1.640   5.757   8.309  1.4108  2.9197  1.4679
  966MOL0     H33303   1.560   5.905   8.348  1.9267  0.6633  0.7017
  966MOL0     H33304   1.591   5.903   7.913  0.7920  1.8729  0.7944
  966MOL0     H33305   0.998   5.593   8.467  0.0155 -0.5906 -1.3228
  966MOL0     H33306   0.702   5.588   8.580 -0.4161  0.1066 -0.3031
  966MOL0     H33307   0.646   5.564   8.405 -0.1092  0.4160 -0.7447
  966MOL0     H33308   0.798   5.494   8.463  3.1092  1.2600  0.7970
  967MOL0     O33309   4.745   5.224   8.172 -0.5812  0.2153  1.0641
  967MOL0     C33310   4.663   5.153   8.108 -0.4830 -0.8035 -0.5122
  967MOL0     O33311   4.686   5.027   8.054  0.8300  0.2477 -0.1497
  967MOL0     C33312   4.769   4.937   8.113 -1.2379  0.6603  0.1334
  967MOL0     C33313   4.897   4.965   8.162 -0.2069  0.5030  1.2352
  967MOL0     C33314   4.990   4.866   8.177 -0.3360  0.2595  1.2925
  967MOL0     C33315   4.955   4.734   8.155 -0.1922 -0.6859  0.7890
  967MOL0     O33316   5.049   4.632   8.180 -0.9354 -0.5189 -0.1460
  967MOL0     C33317   5.013   4.532   8.274 -0.3631  0.5999 -0.2941
  967MOL0     C33318   4.978   4.396   8.202 -0.5467 -0.4335  0.2939
  967MOL0     C33319   4.951   4.277   8.300  1.1197 -0.1227 -0.5970
  967MOL0     C33320   5.072   4.223   8.373 -0.0698  0.7331  0.1865
  967MOL0     C33321   5.031   4.106   8.461 -0.9373  0.2379  0.7701
  967MOL0     C33322   5.154   4.075   8.544  0.6047  1.4343 -0.0776
  967MOL0     C33323   5.141   3.938   8.633 -0.5814  0.2183 -0.2712
  967MOL0     C33324   5.124   3.819   8.542  0.3802  0.1127  0.4971
  967MOL0     N33325   5.133   3.686   8.610  0.0562  0.3850 -0.3244
  967MOL0     C33326   5.241   3.602   8.620 -0.8415  0.1732  0.2333
  967MOL0     C33327   5.210   3.527   8.728  0.0573  0.2470  1.1146
  967MOL0     C33328   5.304   3.439   8.799  0.1261  0.2300 -0.3486
  967MOL0     C33329   5.407   3.518   8.894 -0.1930 -0.4532  0.2640
  967MOL0     C33330   5.513   3.596   8.811  0.4284  0.3684  0.2271
  967MOL0     C33331   5.617   3.663   8.900  0.7498 -1.2897  0.2235
  967MOL0     O33332   5.699   3.568   8.974 -0.4550 -0.4951 -0.6866
  967MOL0     C33333   5.806   3.629   9.038 -0.2993 -0.0245 -1.6252
  967MOL0     C33334   5.820   3.765   9.070 -0.1958 -0.2432  0.3551
  967MOL0     C33335   5.936   3.813   9.143  0.1080  0.0176 -0.0946
  967MOL0     C33336   5.938   3.955   9.189 -0.2486  0.6306 -0.3763
  967MOL0     C33337   6.037   3.729   9.180  0.7482 -0.0717 -0.0335
  967MOL0     C33338   6.159   3.756   9.264 -0.2529  0.1138  0.5183
  967MOL0     O33339   6.274   3.696   9.230 -0.3620 -0.2292  0.4629
  967MOL0     C33340   6.393   3.727   9.293  0.2187 -0.5785 -0.5077
  967MOL0     C33341   6.494   3.632   9.269  0.0784 -0.3669  0.1835
  967MOL0     C33342   6.619   3.652   9.331 -0.4793  0.1589  0.1727
  967MOL0     C33343   6.649   3.760   9.414  0.7005 -0.2864 -0.9342
  967MOL0     O33344   6.776   3.778   9.468  0.0311  0.5963 -0.5592
  967MOL0     C33345   6.879   3.681   9.427 -0.8596 -0.2058 -0.2815
  967MOL0     C33346   7.006   3.702   9.504  1.3471  0.2819 -0.3657
  967MOL0     C33347   7.017   3.622   9.632  0.0076  0.1801 -0.0979
  967MOL0     C33348   7.029   3.471   9.615 -0.7480  0.6512 -0.0393
  967MOL0     C33349   7.161   3.438   9.528  0.7501  1.2317 -0.2258
  967MOL0     C33350   7.285   3.503   9.567 -0.7244 -1.0089  0.4643
  967MOL0     C33351   7.399   3.466   9.483 -0.2083 -0.8553  0.8312
  967MOL0     C33352   7.526   3.539   9.528  0.4325 -0.7694 -0.7417
  967MOL0    Cl33353   7.652   3.474   9.419 -0.1686 -0.6399  0.2270
  967MOL0     C33354   6.545   3.854   9.439  0.2307 -0.2612 -0.6127
  967MOL0     C33355   6.424   3.843   9.377 -0.1603  0.3841 -0.1374
  967MOL0     O33356   6.137   3.824   9.360 -0.9030  0.1068 -0.2829
  967MOL0     C33357   6.022   3.597   9.141 -0.8605  0.3328 -1.0764
  967MOL0     C33358   5.907   3.544   9.082  0.3439  0.0155 -0.6643
  967MOL0     N33359   5.078   3.546   8.774 -0.1619 -0.2013 -0.1373
  967MOL0     N33360   5.039   3.644   8.704  0.7482  0.4842 -0.0759
  967MOL0     C33361   4.826   4.699   8.117 -0.9017  0.4966  0.1592
  967MOL0     C33362   4.739   4.802   8.086 -0.6895  0.1937  0.4335
  967MOL0     C33363   4.530   5.220   8.106  0.4191 -0.0790 -0.2496
  967MOL0     C33364   4.507   5.354   8.155 -0.5841 -0.8552  0.5109
  967MOL0     C33365   4.388   5.423   8.148  0.1736  0.2881  0.1846
  967MOL0     C33366   4.277   5.358   8.092  0.2204  0.4125 -0.2987
  967MOL0     O33367   4.160   5.433   8.096  0.1539  0.7632 -0.1575
  967MOL0     C33368   4.040   5.367   8.061  0.2105 -0.0758 -0.0543
  967MOL0     C33369   3.914   5.462   8.055 -1.3008  0.1434 -0.1974
  967MOL0     C33370   3.918   5.562   7.937 -0.7633  0.9467 -0.3609
  967MOL0     C33371   3.790   5.624   7.893  1.4296 -0.5101 -0.5616
  967MOL0     C33372   3.723   5.685   8.009  0.9698  1.2449 -0.0122
  967MOL0     C33373   3.655   5.732   8.104 -0.0295  0.3142  0.0780
  967MOL0     C33374   4.288   5.228   8.045  0.1465 -0.6043  0.2019
  967MOL0     C33375   4.407   5.153   8.057 -0.1522 -0.5994 -0.5618
  967MOL0     C33376   4.402   5.008   8.021 -0.6970 -0.6271  0.6954
  967MOL0     H33377   4.936   5.065   8.178  0.3829  0.5518 -0.2552
  967MOL0     H33378   5.095   4.891   8.195  0.8975 -2.4665 -1.2167
  967MOL0     H33379   4.935   4.563   8.345  1.3264  0.3475  1.7706
  967MOL0     H33380   5.095   4.519   8.346 -0.3897  0.2267 -0.3294
  967MOL0     H33381   4.888   4.406   8.140  0.3359  0.0869 -0.9551
  967MOL0     H33382   5.056   4.366   8.131 -0.0091  0.8234  0.3266
  967MOL0     H33383   4.874   4.306   8.372  0.6053 -0.9941 -0.7856
  967MOL0     H33384   4.896   4.203   8.242 -0.8089  0.1025  0.8358
  967MOL0     H33385   5.149   4.201   8.299 -0.0946  0.5900  0.2022
  967MOL0     H33386   5.120   4.305   8.428  1.5706  1.4367 -2.1628
  967MOL0     H33387   5.015   4.023   8.391  2.1250  2.6934 -3.2957
  967MOL0     H33388   4.937   4.113   8.517 -2.1374  3.0305 -1.3633
  967MOL0     H33389   5.240   4.050   8.482  0.4546 -0.4115  0.3854
  967MOL0     H33390   5.189   4.155   8.610  1.1467 -0.3235  1.9219
  967MOL0     H33391   5.062   3.940   8.708  1.4099  1.3080  1.9605
  967MOL0     H33392   5.241   3.934   8.679 -0.0323  4.9027 -0.5865
  967MOL0     H33393   5.021   3.827   8.506  0.0741  0.3684  1.4237
  967MOL0     H33394   5.194   3.817   8.457 -0.5253 -2.3173 -0.2744
  967MOL0     H33395   5.335   3.621   8.568  0.4785 -5.0244  0.2091
  967MOL0     H33396   5.364   3.368   8.741  0.6816 -1.2889  1.9542
  967MOL0     H33397   5.248   3.383   8.875 -0.5812 -0.0085 -1.0303
  967MOL0     H33398   5.352   3.592   8.954 -0.6264 -0.6105  0.0638
  967MOL0     H33399   5.460   3.454   8.965 -0.7431 -1.1747  0.0319
  967MOL0     H33400   5.568   3.531   8.742  0.1961 -0.3763  0.7337
  967MOL0     H33401   5.464   3.672   8.749  0.3763 -1.9001 -2.7462
  967MOL0     H33402   5.688   3.723   8.841 -1.2885  0.6796 -0.3516
  967MOL0     H33403   5.563   3.734   8.964 -0.5074 -1.1294 -0.9662
  967MOL0     H33404   5.737   3.825   9.035 -1.8479 -1.0291  2.6454
  967MOL0     H33405   5.874   4.026   9.135 -2.4102  0.5579  1.8739
  967MOL0     H33406   6.043   3.985   9.186  0.8169 -1.5307  4.6049
  967MOL0     H33407   5.901   3.952   9.292  1.9989 -0.3010  0.4459
  967MOL0     H33408   6.461   3.554   9.201 -0.7523  0.5386 -0.4738
  967MOL0     H33409   6.698   3.583   9.301 -0.6610 -0.5370  1.2646
  967MOL0     H33410   6.846   3.578   9.445 -0.6422  0.1550  2.6560
  967MOL0     H33411   6.897   3.679   9.319 -0.5782  0.2607 -0.2461
  967MOL0     H33412   7.090   3.678   9.438  2.3660 -1.1533  1.3659
  967MOL0     H33413   7.003   3.809   9.529 -2.6361  0.9200 -2.7123
  967MOL0     H33414   6.928   3.634   9.695 -1.7745  2.2175 -2.7925
  967MOL0     H33415   7.101   3.650   9.697  2.4139 -4.9592 -0.4277
  967MOL0     H33416   6.947   3.425   9.559  1.3372  0.5387 -3.2580
  967MOL0     H33417   7.037   3.423   9.713 -0.3740  0.8875  0.0493
  967MOL0     H33418   7.184   3.332   9.539 -1.1099  0.5953 -1.7316
  967MOL0     H33419   7.135   3.449   9.422  3.1276 -0.4535 -1.0623
  967MOL0     H33420   7.302   3.478   9.673 -1.5894  4.1296  2.1047
  967MOL0     H33421   7.272   3.612   9.568 -2.6113 -1.1927  1.3270
  967MOL0     H33422   7.377   3.497   9.380  2.4513  1.3737  0.8004
  967MOL0     H33423   7.424   3.360   9.489 -2.7173 -1.4849  1.2775
  967MOL0     H33424   7.564   3.508   9.626 -1.5628 -0.3617  0.2254
  967MOL0     H33425   7.516   3.648   9.533  0.6390 -0.7034 -1.6835
  967MOL0     H33426   6.561   3.941   9.502  0.9914 -0.7262 -0.1450
  967MOL0     H33427   6.342   3.910   9.398 -1.4087 -1.4500  1.2110
  967MOL0     H33428   6.101   3.525   9.160 -1.2016 -0.1167 -1.3555
  967MOL0     H33429   5.906   3.437   9.065  2.6507  0.1129 -1.8649
  967MOL0     H33430   4.799   4.595   8.107  1.0764 -0.5551  4.0014
  967MOL0     H33431   4.636   4.784   8.055 -0.0353 -0.9293 -1.2188
  967MOL0     H33432   4.592   5.403   8.202  0.8468  0.8227 -3.4085
  967MOL0     H33433   4.380   5.520   8.195 -0.9709  0.5254 -0.4787
  967MOL0     H33434   4.057   5.312   7.968  0.9644 -1.7592  1.0325
  967MOL0     H33435   4.030   5.292   8.140  1.8389  0.4212  0.6615
  967MOL0     H33436   3.908   5.512   8.152  0.1394 -1.0415  0.5573
  967MOL0     H33437   3.827   5.402   8.025 -2.0986  2.5183 -3.1633
  967MOL0     H33438   3.984   5.644   7.967  1.7033 -0.8420 -0.6121
  967MOL0     H33439   3.956   5.514   7.846 -1.8672 -1.3605  0.3128
  967MOL0     H33440   3.718   5.569   7.831 -1.0421  0.4952  1.2580
  967MOL0     H33441   3.810   5.711   7.829 -5.7417  0.5555 -2.2486
  967MOL0     H33442   3.603   5.766   8.191 -0.1293 -1.1873  0.6412
  967MOL0     H33443   4.201   5.177   8.006 -2.2767  3.0372  0.3749
  967MOL0     H33444   4.458   4.979   7.932  1.9270  1.1260  1.6507
  967MOL0     H33445   4.452   4.941   8.092  0.9138 -2.8837 -2.3603
  967MOL0     H33446   4.295   4.984   8.022 -1.8696  3.7371  0.1931
  968MOL0     O33447   8.463   7.462   6.373 -0.1519 -0.1701  0.5878
  968MOL0     C33448   8.377   7.544   6.349 -1.2709  0.0032  0.4611
  968MOL0     O33449   8.404   7.676   6.333  0.3559 -0.8769  0.2565
  968MOL0     C33450   8.534   7.703   6.302  0.1457 -0.1650 -0.0185
  968MOL0     C33451   8.628   7.736   6.397 -0.2684 -1.2719 -0.5062
  968MOL0     C33452   8.764   7.766   6.356  0.4011  0.4523 -0.0543
  968MOL0     C33453   8.803   7.754   6.229 -0.2261 -0.3411  0.0795
  968MOL0     O33454   8.929   7.797   6.195 -0.5774  0.2529 -1.0068
  968MOL0     C33455   8.990   7.728   6.084 -0.6503  0.3150  0.1887
  968MOL0     C33456   9.136   7.713   6.121 -0.2915  1.0906 -0.2300
  968MOL0     C33457   9.226   7.683   6.004  0.0662 -0.2907 -0.0091
  968MOL0     C33458   9.338   7.791   5.995 -0.4233  0.0212  0.8895
  968MOL0     C33459   9.447   7.761   5.889  0.7950 -0.0431 -0.0995
  968MOL0     C33460   9.553   7.873   5.895 -0.4186  0.5749 -0.1646
  968MOL0     C33461   9.674   7.838   5.811  0.0889  0.4030 -0.3363
  968MOL0     C33462   9.751   7.956   5.748  0.2527 -0.1568 -0.2650
  968MOL0     N33463   9.829   8.019   5.854  0.3972 -0.0140  0.0205
  968MOL0     C33464   9.773   8.109   5.938 -0.1974 -0.3310 -0.4509
  968MOL0     C33465   9.865   8.106   6.043  0.0546  0.7540  0.2643
  968MOL0     C33466   9.840   8.181   6.169 -0.1981 -0.5266 -0.5234
  968MOL0     C33467   9.815   8.333   6.140 -0.5846  0.3969  0.3968
  968MOL0     C33468   9.818   8.413   6.280  0.4061  0.2283  0.6610
  968MOL0     C33469   9.956   8.440   6.341  0.2188 -0.7847 -0.6537
  968MOL0     O33470  10.050   8.487   6.245 -0.4509  0.3649  0.0665
  968MOL0     C33471  10.178   8.507   6.287 -0.3277  0.5479  0.9462
  968MOL0     C33472  10.273   8.542   6.185  0.6569 -1.1114  0.4279
  968MOL0     C33473  10.406   8.583   6.213 -0.6788  1.2793 -0.6461
  968MOL0     C33474  10.489   8.639   6.101 -0.0795  0.0311 -0.4093
  968MOL0     C33475  10.454   8.557   6.343  0.5343 -0.4643  0.1093
  968MOL0     C33476  10.597   8.575   6.381 -0.4484  0.2190  0.6600
  968MOL0     O33477  10.618   8.621   6.506  0.2341 -0.7116 -0.2570
  968MOL0     C33478  10.730   8.598   6.572  1.0710 -0.6146 -0.6306
  968MOL0     C33479  10.789   8.471   6.564 -0.1849  0.0012  0.6576
  968MOL0     C33480  10.911   8.454   6.627  0.4102  0.3099  0.6084
  968MOL0     C33481  10.959   8.546   6.719 -0.6966  0.1853 -0.3377
  968MOL0     O33482  11.076   8.531   6.794  0.7172 -0.2060  0.3133
  968MOL0     C33483  11.111   8.394   6.827 -0.0434 -0.6010 -0.1339
  968MOL0     C33484  11.219   8.399   6.945 -0.2615  1.1741  0.2913
  968MOL0     C33485  11.312   8.283   6.938  0.0790  0.0819 -0.4019
  968MOL0     C33486  11.458   8.322   6.990  0.3126 -0.2000 -0.1757
  968MOL0     C33487  11.533   8.192   7.031  0.1901 -0.5671  0.6922
  968MOL0     C33488  11.650   8.232   7.123  0.3525  0.7307 -0.0369
  968MOL0     C33489  11.759   8.324   7.061 -0.8504  0.0045  0.4368
  968MOL0     C33490  11.870   8.350   7.164  0.5224  0.8444 -1.0670
  968MOL0    Cl33491  11.816   8.375   7.334  0.5424  0.5837 -0.0487
  968MOL0     C33492  10.881   8.657   6.741 -0.1327  0.8346 -0.5010
  968MOL0     C33493  10.770   8.692   6.668 -0.7758  0.5741 -0.0071
  968MOL0     O33494  10.685   8.535   6.299  0.8703  0.7728 -0.5156
  968MOL0     C33495  10.364   8.508   6.443 -0.3099 -0.6834  0.1266
  968MOL0     C33496  10.227   8.487   6.420 -0.5926 -0.1986 -0.2616
  968MOL0     N33497   9.964   8.010   6.010  0.0828  0.7599  0.0775
  968MOL0     N33498   9.943   7.958   5.898 -0.4402 -0.8974 -0.6443
  968MOL0     C33499   8.711   7.701   6.138 -0.8272  1.0344  0.4973
  968MOL0     C33500   8.573   7.673   6.167 -0.5874 -0.2204 -0.5499
  968MOL0     C33501   8.231   7.510   6.336 -0.2087 -0.0705 -0.3198
  968MOL0     C33502   8.126   7.608   6.330  0.5120 -0.0906  0.0183
  968MOL0     C33503   7.990   7.573   6.326  0.3260  0.0582 -0.0287
  968MOL0     C33504   7.947   7.441   6.323 -0.9835 -0.8249  1.0328
  968MOL0     O33505   7.814   7.396   6.320 -0.0995 -0.5199  0.6901
  968MOL0     C33506   7.712   7.499   6.328  0.7047  0.1844  0.3244
  968MOL0     C33507   7.578   7.430   6.319  1.0650  0.5992  0.5654
  968MOL0     C33508   7.459   7.516   6.371 -0.1418 -0.2300 -0.2937
  968MOL0     C33509   7.324   7.440   6.366  0.0816  0.9903  0.0065
  968MOL0     C33510   7.264   7.444   6.235 -0.9422  1.2091 -0.7797
  968MOL0     C33511   7.206   7.457   6.127  0.5560 -0.1681  0.3167
  968MOL0     C33512   8.045   7.351   6.312  0.8942 -0.3884  0.5532
  968MOL0     C33513   8.184   7.378   6.318  0.0099  0.9794 -0.2327
  968MOL0     C33514   8.286   7.267   6.290  0.7387 -0.2078 -1.2254
  968MOL0     H33515   8.595   7.768   6.495  2.0526  1.2083 -0.4107
  968MOL0     H33516   8.832   7.805   6.431 -1.0359  0.4837  1.2660
  968MOL0     H33517   8.977   7.774   5.986 -3.0148 -1.8869 -0.6519
  968MOL0     H33518   8.961   7.623   6.074  0.1795 -0.1064  1.7379
  968MOL0     H33519   9.163   7.808   6.168 -3.2526  0.8828  2.2116
  968MOL0     H33520   9.154   7.627   6.186 -1.5908  0.7382 -0.3060
  968MOL0     H33521   9.281   7.589   6.019 -0.3262 -0.8538 -1.8708
  968MOL0     H33522   9.171   7.663   5.912 -1.8958 -0.8983  1.2310
  968MOL0     H33523   9.282   7.885   5.986 -2.9331 -1.5442 -1.3451
  968MOL0     H33524   9.383   7.783   6.095 -1.2383 -0.4667  1.2260
  968MOL0     H33525   9.397   7.752   5.792  1.1554  4.0464 -0.8595
  968MOL0     H33526   9.484   7.663   5.919 -0.3067  0.0759  1.9107
  968MOL0     H33527   9.510   7.962   5.849  2.2559  1.9782 -0.1818
  968MOL0     H33528   9.578   7.896   6.000 -5.4375  0.6057  1.2843
  968MOL0     H33529   9.629   7.789   5.724  2.0246  2.9517 -2.9628
  968MOL0     H33530   9.742   7.776   5.871  3.7509  3.4551 -0.9278
  968MOL0     H33531   9.807   7.927   5.659 -0.3044  0.9764 -1.0202
  968MOL0     H33532   9.685   8.035   5.711  1.4385 -0.2415 -2.7147
  968MOL0     H33533   9.673   8.150   5.934  0.4171  2.4507  4.5049
  968MOL0     H33534   9.921   8.168   6.242 -2.2210  1.1151  2.2308
  968MOL0     H33535   9.751   8.145   6.222 -1.4658  2.2067 -0.6381
  968MOL0     H33536   9.889   8.376   6.072  0.8676  2.4261  3.0223
  968MOL0     H33537   9.717   8.340   6.094 -0.1178  4.2392 -0.3362
  968MOL0     H33538   9.783   8.513   6.252 -1.7572 -0.6204  0.1977
  968MOL0     H33539   9.749   8.362   6.347  0.7155  0.9089  1.5188
  968MOL0     H33540   9.946   8.513   6.422 -0.1510 -0.1727 -1.2498
  968MOL0     H33541   9.999   8.347   6.380 -1.4709 -0.0625  3.4913
  968MOL0     H33542  10.230   8.553   6.086 -1.0986  1.9491  1.3906
  968MOL0     H33543  10.526   8.739   6.125  1.4478 -0.3481 -1.0530
  968MOL0     H33544  10.429   8.640   6.009  0.6839  0.5006 -0.9127
  968MOL0     H33545  10.572   8.570   6.083  0.8369  1.4516 -1.9594
  968MOL0     H33546  10.759   8.396   6.491 -1.8228  3.2704 -2.3221
  968MOL0     H33547  10.978   8.373   6.600  2.4396  0.9070  3.3892
  968MOL0     H33548  11.023   8.341   6.863  2.1931 -3.8240  1.1398
  968MOL0     H33549  11.144   8.351   6.732 -3.0427  2.3175 -2.7530
  968MOL0     H33550  11.275   8.491   6.924  0.9451  0.4506  0.2325
  968MOL0     H33551  11.173   8.397   7.044  0.9828 -0.6969  0.8787
  968MOL0     H33552  11.317   8.232   6.842 -1.0495 -2.0809  0.6038
  968MOL0     H33553  11.280   8.202   7.004  2.7485  0.2307  1.2246
  968MOL0     H33554  11.447   8.382   7.081 -0.3553  0.3930 -0.6369
  968MOL0     H33555  11.512   8.369   6.907 -1.4930 -1.1754 -1.9759
  968MOL0     H33556  11.480   8.118   7.092  0.3595  0.8031  2.5975
  968MOL0     H33557  11.573   8.144   6.941 -0.4025  0.2819 -0.0392
  968MOL0     H33558  11.698   8.138   7.154  0.2178  1.2155  1.7355
  968MOL0     H33559  11.611   8.271   7.217  1.7901 -1.2688  1.4926
  968MOL0     H33560  11.713   8.418   7.030  0.7080  0.1909 -1.5129
  968MOL0     H33561  11.799   8.293   6.964 -1.7034  1.5770 -0.4545
  968MOL0     H33562  11.915   8.445   7.136  0.6364  0.4660 -2.2218
  968MOL0     H33563  11.956   8.282   7.158  0.8561  1.1720 -0.1612
  968MOL0     H33564  10.904   8.725   6.823  1.0819  0.2399 -0.3181
  968MOL0     H33565  10.707   8.780   6.675 -3.0607 -0.9480 -0.5576
  968MOL0     H33566  10.402   8.497   6.544  2.1535 -0.2914 -0.6858
  968MOL0     H33567  10.175   8.436   6.501  0.8357  0.9010  1.4339
  968MOL0     H33568   8.717   7.695   6.030 -1.4585  0.2264  0.4971
  968MOL0     H33569   8.507   7.643   6.087  0.4933  3.4920 -3.1327
  968MOL0     H33570   8.159   7.711   6.344  1.9582 -0.8032  2.4165
  968MOL0     H33571   7.913   7.650   6.316 -0.7037 -1.1694 -2.3083
  968MOL0     H33572   7.719   7.545   6.426  2.8620 -2.0028  1.3110
  968MOL0     H33573   7.714   7.579   6.253  0.7491 -0.0021  0.1221
  968MOL0     H33574   7.590   7.332   6.367 -1.2190 -0.5538 -0.9866
  968MOL0     H33575   7.544   7.410   6.217  0.0959 -0.8248  1.1201
  968MOL0     H33576   7.477   7.558   6.470  1.1494  0.0401 -0.6205
  968MOL0     H33577   7.449   7.599   6.300  1.3974  0.1347 -0.1235
  968MOL0     H33578   7.259   7.489   6.439  0.3538 -0.2006  1.0999
  968MOL0     H33579   7.342   7.336   6.397 -0.3107  0.2965 -1.9527
  968MOL0     H33580   7.150   7.465   6.036  0.1416  0.1266  0.6016
  968MOL0     H33581   8.009   7.249   6.313 -0.1607 -0.1275 -2.2584
  968MOL0     H33582   8.239   7.177   6.251 -0.8186 -0.5453  1.2253
  968MOL0     H33583   8.361   7.304   6.219  2.7545  0.1190  0.9428
  968MOL0     H33584   8.329   7.236   6.386 -2.6896  0.5560  0.7121
  969MOL0     O33585  11.234   2.364   0.155  0.1029  0.2520 -0.4175
  969MOL0     C33586  11.149   2.297   0.097  0.1456 -0.5239  0.4952
  969MOL0     O33587  11.156   2.164   0.079  0.2272 -0.5058  0.5447
  969MOL0     C33588  11.211   2.075   0.177 -0.0797  0.6216 -0.7224
  969MOL0     C33589  11.212   1.942   0.147  0.3922  1.9467  0.1912
  969MOL0     C33590  11.252   1.837   0.229 -0.2993  0.3514  0.0366
  969MOL0     C33591  11.300   1.872   0.361 -0.7463  0.5840  0.0523
  969MOL0     O33592  11.350   1.798   0.458 -0.0044  0.5293 -0.1198
  969MOL0     C33593  11.352   1.662   0.441 -0.4345  1.0107 -0.4061
  969MOL0     C33594  11.435   1.584   0.543  0.2098  0.3148 -0.6580
  969MOL0     C33595  11.374   1.576   0.691  0.2506 -0.1009  0.3747
  969MOL0     C33596  11.466   1.504   0.793  0.2056 -0.2090 -0.6422
  969MOL0     C33597  11.399   1.505   0.932  0.3888 -0.0906 -0.4796
  969MOL0     C33598  11.433   1.374   1.011  0.6066 -0.3952  0.8132
  969MOL0     C33599  11.515   1.386   1.134 -0.6679  0.0562 -0.1444
  969MOL0     C33600  11.645   1.451   1.102 -0.0462  0.1471 -0.0270
  969MOL0     N33601  11.743   1.422   1.204 -0.3596  0.3262 -0.7606
  969MOL0     C33602  11.821   1.312   1.228 -0.0567 -1.7676  0.6565
  969MOL0     C33603  11.926   1.348   1.308 -0.3126  0.2241 -0.3403
  969MOL0     C33604  12.046   1.255   1.314 -0.1262 -0.4892  0.6777
  969MOL0     C33605  12.160   1.308   1.407 -0.0230  0.9350  0.8453
  969MOL0     C33606  12.264   1.201   1.426  0.2643  0.8276 -0.0470
  969MOL0     C33607  12.361   1.240   1.537 -0.8072 -0.4489 -0.3665
  969MOL0     O33608  12.456   1.333   1.480  0.2964 -0.5977 -0.7820
  969MOL0     C33609  12.568   1.371   1.558  0.4620  0.6733  0.2507
  969MOL0     C33610  12.597   1.321   1.687  0.6144  0.3419  0.5748
  969MOL0     C33611  12.693   1.366   1.766  0.1309  1.7958 -0.1513
  969MOL0     C33612  12.701   1.301   1.906  0.7930  1.2374  0.2951
  969MOL0     C33613  12.771   1.484   1.724  0.5988  0.1245  0.1717
  969MOL0     C33614  12.872   1.558   1.811  0.0162  0.2197  0.0620
  969MOL0     O33615  12.848   1.550   1.947  0.4233 -0.3009 -0.5926
  969MOL0     C33616  12.948   1.552   2.039  0.1373 -0.6161 -0.0240
  969MOL0     C33617  13.091   1.534   2.022  0.2438  0.4720 -0.1656
  969MOL0     C33618  13.173   1.536   2.129 -0.3086 -0.4626  0.7997
  969MOL0     C33619  13.128   1.543   2.255 -0.0976  0.1850  0.9246
  969MOL0     O33620  13.212   1.541   2.362 -0.4442 -0.7088 -0.0275
  969MOL0     C33621  13.352   1.520   2.335  0.1010 -0.3475 -0.1827
  969MOL0     C33622  13.438   1.517   2.453  0.6482  0.4123 -0.4364
  969MOL0     C33623  13.396   1.426   2.573  0.7279  0.4035 -0.4981
  969MOL0     C33624  13.274   1.480   2.658  0.3671  0.1379  1.3256
  969MOL0     C33625  13.261   1.398   2.779 -0.6843  0.6039 -0.2266
  969MOL0     C33626  13.124   1.396   2.838 -0.1537 -0.1923 -1.1467
  969MOL0     C33627  13.122   1.294   2.961 -0.8633  0.3006  0.1089
  969MOL0     C33628  12.973   1.295   3.017 -0.1906 -0.0159  0.1152
  969MOL0    Cl33629  12.872   1.198   2.894  0.0371  0.0079 -0.1643
  969MOL0     C33630  12.990   1.563   2.273 -0.8320 -0.3493 -0.4632
  969MOL0     C33631  12.901   1.581   2.167 -0.0047  0.7162 -0.9902
  969MOL0     O33632  12.958   1.637   1.763  0.2506 -0.5098 -0.3615
  969MOL0     C33633  12.759   1.529   1.594  1.2107  0.0185  0.5689
  969MOL0     C33634  12.662   1.467   1.510  0.6606 -0.1448  0.1192
  969MOL0     N33635  11.907   1.481   1.349 -0.2271  1.0698  0.9343
  969MOL0     N33636  11.795   1.518   1.289  0.2805  0.2948 -0.0854
  969MOL0     C33637  11.304   2.010   0.396 -0.8454  0.2637  0.4518
  969MOL0     C33638  11.257   2.103   0.306  0.2638 -0.6435  0.9684
  969MOL0     C33639  11.046   2.365   0.015 -0.7926 -0.0943  0.4336
  969MOL0     C33640  11.000   2.297  -0.099  0.0632 -0.3387 -0.1380
  969MOL0     C33641  10.893   2.355  -0.175  0.6956  0.3382 -0.3666
  969MOL0     C33642  10.840   2.482  -0.144  0.2574  0.4087 -0.6413
  969MOL0     O33643  10.751   2.547  -0.223 -0.2015 -0.1390 -0.4049
  969MOL0     C33644  10.660   2.475  -0.300  0.0466 -0.2921  0.4696
  969MOL0     C33645  10.556   2.401  -0.219 -0.0645  0.3955 -0.2560
  969MOL0     C33646  10.425   2.364  -0.288 -0.1520  0.6781 -0.6589
  969MOL0     C33647  10.342   2.264  -0.210  1.0214  0.1106 -0.0405
  969MOL0     C33648  10.199   2.273  -0.233  0.4322 -0.7608 -0.6825
  969MOL0     C33649  10.085   2.301  -0.252 -0.4154 -0.3594  0.0693
  969MOL0     C33650  10.888   2.540  -0.026  0.1755  1.6618 -0.3155
  969MOL0     C33651  10.991   2.488   0.052 -0.6958 -0.1290  0.5670
  969MOL0     C33652  11.052   2.587   0.152 -0.4524  0.4710 -0.2223
  969MOL0     H33653  11.184   1.922   0.044  0.2154  0.3024  0.5379
  969MOL0     H33654  11.251   1.733   0.198  3.3067 -0.0114  0.6813
  969MOL0     H33655  11.381   1.642   0.337 -1.4575  0.6839 -0.6419
  969MOL0     H33656  11.247   1.632   0.450  0.7918 -3.4138  2.3341
  969MOL0     H33657  11.439   1.479   0.515 -1.8578  0.4508 -1.6507
  969MOL0     H33658  11.536   1.628   0.550  1.5518 -2.7803  1.8220
  969MOL0     H33659  11.356   1.677   0.729 -2.3891  0.1753 -1.4027
  969MOL0     H33660  11.276   1.527   0.694  0.1137  0.1984  1.0755
  969MOL0     H33661  11.478   1.401   0.756 -0.4231 -0.5069 -0.0511
  969MOL0     H33662  11.568   1.543   0.787  0.0221  0.4138  0.1317
  969MOL0     H33663  11.290   1.514   0.921  0.3251  0.1454  0.2830
  969MOL0     H33664  11.426   1.590   0.996 -4.5929  1.9847 -0.5987
  969MOL0     H33665  11.340   1.322   1.036 -0.8342  2.0004  0.7112
  969MOL0     H33666  11.485   1.306   0.942 -0.6512 -4.1917  3.3038
  969MOL0     H33667  11.550   1.285   1.157 -1.6518 -0.4277 -0.7040
  969MOL0     H33668  11.459   1.437   1.213  0.5254  0.0371  0.7528
  969MOL0     H33669  11.691   1.433   1.004 -1.9231 -1.3236 -0.7104
  969MOL0     H33670  11.633   1.559   1.097  3.6174  0.6604 -0.5420
  969MOL0     H33671  11.806   1.223   1.168 -2.6062  0.9187 -3.1339
  969MOL0     H33672  12.086   1.247   1.213 -0.5641  1.7446  0.2807
  969MOL0     H33673  12.012   1.153   1.336 -0.6323 -1.1859 -2.7657
  969MOL0     H33674  12.197   1.409   1.387 -3.5848  2.4695  1.3712
  969MOL0     H33675  12.122   1.325   1.508  1.2505 -1.2678  1.7759
  969MOL0     H33676  12.217   1.105   1.451  2.8431 -0.6164 -0.3565
  969MOL0     H33677  12.313   1.179   1.330 -0.2921  2.6095 -0.7803
  969MOL0     H33678  12.304   1.284   1.619  2.0004 -1.0722  2.0419
  969MOL0     H33679  12.419   1.158   1.579 -0.1754 -0.0343 -0.4231
  969MOL0     H33680  12.528   1.247   1.726 -0.9538  0.5243 -1.6983
  969MOL0     H33681  12.658   1.350   1.993  2.8064 -1.0863  2.7512
  969MOL0     H33682  12.805   1.279   1.933  0.8244  2.5205  1.2861
  969MOL0     H33683  12.650   1.204   1.899  0.4216  1.4844 -0.5381
  969MOL0     H33684  13.133   1.508   1.925  0.9888  2.7792 -0.5410
  969MOL0     H33685  13.276   1.541   2.097 -0.0413  3.2996  1.8100
  969MOL0     H33686  13.365   1.432   2.272  1.3677  1.1746 -2.2022
  969MOL0     H33687  13.386   1.603   2.272 -0.4941 -0.8864 -1.2521
  969MOL0     H33688  13.534   1.481   2.414  1.7463  0.3936  2.0589
  969MOL0     H33689  13.447   1.621   2.486 -2.9431  0.2618  1.5912
  969MOL0     H33690  13.485   1.430   2.636  1.2033  3.6929 -1.1768
  969MOL0     H33691  13.379   1.326   2.531  1.5882 -0.5379  1.2850
  969MOL0     H33692  13.191   1.461   2.589  0.6895 -2.6783  1.5874
  969MOL0     H33693  13.297   1.582   2.688 -0.7692  1.0122 -0.5871
  969MOL0     H33694  13.285   1.296   2.748  1.4793  0.9968 -0.0163
  969MOL0     H33695  13.328   1.421   2.863  1.5235 -1.8274 -1.1668
  969MOL0     H33696  13.049   1.370   2.764 -0.8313  0.1369 -0.5942
  969MOL0     H33697  13.093   1.489   2.887 -0.7116 -0.2188 -1.4423
  969MOL0     H33698  13.190   1.322   3.042 -0.2718  0.2319 -0.3567
  969MOL0     H33699  13.151   1.193   2.929 -1.6671  0.4161 -1.0603
  969MOL0     H33700  12.938   1.397   3.032 -0.4072  0.4454 -2.8755
  969MOL0     H33701  12.966   1.244   3.113 -1.1693  2.6675  1.5641
  969MOL0     H33702  12.958   1.571   2.376 -0.1112 -0.0594 -0.2560
  969MOL0     H33703  12.798   1.605   2.192  0.2071 -0.9733  2.0104
  969MOL0     H33704  12.820   1.613   1.562 -0.1870  1.5263  1.6734
  969MOL0     H33705  12.643   1.513   1.413 -0.3803 -0.1828  0.2927
  969MOL0     H33706  11.347   2.035   0.492  0.0103  2.6911 -0.4921
  969MOL0     H33707  11.261   2.203   0.346  2.5275 -0.0365 -0.5936
  969MOL0     H33708  11.029   2.198  -0.130 -0.2410  0.0435 -1.7328
  969MOL0     H33709  10.862   2.288  -0.255  1.6459 -0.0175 -0.4555
  969MOL0     H33710  10.621   2.540  -0.378 -2.4297 -0.5901  1.3669
  969MOL0     H33711  10.719   2.403  -0.358  0.8163 -0.4384  1.3958
  969MOL0     H33712  10.542   2.476  -0.141 -0.5189 -0.5613  0.6104
  969MOL0     H33713  10.603   2.315  -0.171 -2.8120 -1.1380 -0.1296
  969MOL0     H33714  10.363   2.454  -0.293 -0.1073  0.6641 -1.7391
  969MOL0     H33715  10.450   2.329  -0.389  0.8694 -0.7075  0.0397
  969MOL0     H33716  10.363   2.263  -0.102  1.5599  2.0388 -0.0718
  969MOL0     H33717  10.360   2.162  -0.244  1.7754  0.7695 -1.7195
  969MOL0     H33718   9.988   2.336  -0.283  1.3290  1.6710 -3.8983
  969MOL0     H33719  10.844   2.638  -0.009  0.4042  2.3015 -2.9556
  969MOL0     H33720  11.018   2.566   0.254  1.2889  1.1633  0.5321
  969MOL0     H33721  11.161   2.593   0.143 -0.3781  0.4494  0.5418
  969MOL0     H33722  11.006   2.685   0.136 -0.7577  0.5802  1.1689
  970MOL0     O33723   8.271   6.391   2.579 -0.1888 -0.9929 -0.1129
  970MOL0     C33724   8.336   6.314   2.509  0.0736 -0.3455  0.1962
  970MOL0     O33725   8.467   6.315   2.498 -0.0748  0.3206  0.3260
  970MOL0     C33726   8.548   6.380   2.597 -0.5441  0.3211 -0.2663
  970MOL0     C33727   8.540   6.363   2.738 -0.8613  0.2051 -0.2867
  970MOL0     C33728   8.622   6.438   2.826 -0.3886 -0.2660  0.1918
  970MOL0     C33729   8.715   6.534   2.781 -0.3195  0.1014 -0.2737
  970MOL0     O33730   8.785   6.609   2.868  0.6577 -0.0511 -0.1065
  970MOL0     C33731   8.862   6.537   2.965  0.1448 -0.5010 -0.9530
  970MOL0     C33732   8.952   6.629   3.053  0.5216  0.8420 -0.1751
  970MOL0     C33733   9.034   6.541   3.143  0.0844 -1.0280 -0.5207
  970MOL0     C33734   9.175   6.605   3.177  0.1129  0.4552 -0.5964
  970MOL0     C33735   9.196   6.610   3.329  0.1060  1.3090  0.0746
  970MOL0     C33736   9.340   6.659   3.356  0.1727 -0.2439 -0.1043
  970MOL0     C33737   9.363   6.682   3.512  0.7092 -0.3360  0.3084
  970MOL0     C33738   9.394   6.551   3.581 -0.1541  0.6572  0.1683
  970MOL0     N33739   9.508   6.476   3.540  0.2086 -0.1919 -0.1924
  970MOL0     C33740   9.489   6.367   3.466  0.3618  0.0865 -0.2983
  970MOL0     C33741   9.598   6.289   3.490  0.6757  0.0240 -0.2340
  970MOL0     C33742   9.636   6.170   3.410 -0.0276  0.0582 -0.5151
  970MOL0     C33743   9.788   6.157   3.380  0.0759  0.3320  0.7593
  970MOL0     C33744   9.813   6.063   3.256  0.2273 -0.6194 -0.1646
  970MOL0     C33745   9.757   6.121   3.118  0.4251 -0.3559 -0.4343
  970MOL0     O33746   9.783   6.031   3.008 -0.6523  0.3588 -0.1013
  970MOL0     C33747   9.755   6.083   2.881 -0.8417 -0.5339 -0.3991
  970MOL0     C33748   9.744   6.216   2.846 -0.7203 -0.1773  0.1403
  970MOL0     C33749   9.716   6.271   2.715  0.2105  0.4063 -0.8241
  970MOL0     C33750   9.695   6.414   2.702 -0.5643 -0.0176 -0.1848
  970MOL0     C33751   9.708   6.177   2.612 -0.4407  0.2727 -1.1583
  970MOL0     C33752   9.700   6.209   2.469  0.5875  0.5049  0.1584
  970MOL0     O33753   9.752   6.326   2.427  0.0025  1.1389 -0.0992
  970MOL0     C33754   9.741   6.356   2.297 -0.0936 -0.0052  0.8992
  970MOL0     C33755   9.862   6.372   2.220 -0.2359  0.8700 -1.4406
  970MOL0     C33756   9.853   6.428   2.091 -0.4155  0.0225  0.2391
  970MOL0     C33757   9.721   6.462   2.039 -0.7618  0.4010 -0.0406
  970MOL0     O33758   9.719   6.496   1.914  0.0877 -0.2272  0.2128
  970MOL0     C33759   9.669   6.393   1.827 -0.3125 -1.5866  0.2186
  970MOL0     C33760   9.648   6.453   1.679  0.2672 -1.2852 -0.4677
  970MOL0     C33761   9.534   6.561   1.664  0.7897  1.0100  1.0821
  970MOL0     C33762   9.469   6.552   1.523 -0.5901  0.2587  1.2560
  970MOL0     C33763   9.578   6.603   1.423 -0.0092 -0.2379 -0.6962
  970MOL0     C33764   9.531   6.604   1.274  0.0029  0.6455 -0.5343
  970MOL0     C33765   9.657   6.596   1.179  0.1938 -1.0889 -1.0176
  970MOL0     C33766   9.608   6.618   1.033  0.2790  0.1445 -0.0945
  970MOL0    Cl33767   9.739   6.656   0.934 -0.0336 -0.3518 -0.0722
  970MOL0     C33768   9.607   6.450   2.121  0.2466  0.0265  0.2891
  970MOL0     C33769   9.617   6.399   2.249  0.2818  0.3794 -0.0995
  970MOL0     O33770   9.633   6.132   2.400  0.4568  0.4625  0.0382
  970MOL0     C33771   9.715   6.035   2.649  0.1656  0.0017  0.6847
  970MOL0     C33772   9.755   5.989   2.777  0.2166 -0.9797 -0.5365
  970MOL0     N33773   9.685   6.351   3.577 -0.0924  0.4438  0.1159
  970MOL0     N33774   9.628   6.468   3.606 -0.2969 -0.4434 -0.5026
  970MOL0     C33775   8.724   6.552   2.641  0.1761 -0.0283 -0.9047
  970MOL0     C33776   8.636   6.479   2.557 -0.3627 -0.9338  0.1443
  970MOL0     C33777   8.262   6.209   2.443 -0.1602 -0.4107 -0.2249
  970MOL0     C33778   8.161   6.141   2.515  0.2668 -0.3169  0.0815
  970MOL0     C33779   8.083   6.041   2.461 -0.1974  0.2366  0.5977
  970MOL0     C33780   8.099   5.993   2.332  0.8477  0.3012  0.0006
  970MOL0     O33781   8.012   5.891   2.290  0.2990  0.0516 -0.7196
  970MOL0     C33782   7.948   5.922   2.170  0.4059  0.4306 -0.0748
  970MOL0     C33783   7.843   6.030   2.175 -0.8050 -0.0908 -0.7016
  970MOL0     C33784   7.753   6.020   2.296  0.4266 -0.2702 -0.4509
  970MOL0     C33785   7.636   5.912   2.290  0.4716 -1.1490 -0.3268
  970MOL0     C33786   7.518   5.954   2.364  0.2310 -0.2727 -0.5504
  970MOL0     C33787   7.412   5.976   2.426 -0.7017 -1.3965 -0.1159
  970MOL0     C33788   8.204   6.054   2.254  0.8194  0.4867  0.7761
  970MOL0     C33789   8.289   6.156   2.308 -0.4329  0.3516 -0.3649
  970MOL0     C33790   8.404   6.208   2.225 -0.4025  0.1757  0.0096
  970MOL0     H33791   8.485   6.280   2.782  1.7184 -2.4583 -1.7214
  970MOL0     H33792   8.604   6.405   2.928  2.3075  0.6212  1.0503
  970MOL0     H33793   8.911   6.449   2.923 -1.1040 -1.0429 -1.3127
  970MOL0     H33794   8.785   6.498   3.033  1.6869 -1.3280  0.4008
  970MOL0     H33795   9.021   6.681   2.985  0.9824  0.9813  0.3965
  970MOL0     H33796   8.888   6.704   3.101 -0.1104 -0.5049  1.1462
  970MOL0     H33797   8.984   6.522   3.239 -1.7904  5.2259  0.1419
  970MOL0     H33798   9.052   6.447   3.089 -0.5454 -0.2711 -2.1054
  970MOL0     H33799   9.257   6.552   3.129  1.3885  0.8882  1.0152
  970MOL0     H33800   9.181   6.708   3.138  0.1702 -0.0375 -1.9370
  970MOL0     H33801   9.173   6.511   3.371  0.7375  0.5985 -1.1929
  970MOL0     H33802   9.125   6.678   3.378 -0.5801 -0.8274  2.2505
  970MOL0     H33803   9.409   6.586   3.313 -0.8204 -0.4692 -1.3793
  970MOL0     H33804   9.364   6.744   3.292 -1.9103  1.0717  0.7740
  970MOL0     H33805   9.281   6.740   3.556  0.6858  0.5958 -0.9088
  970MOL0     H33806   9.453   6.744   3.522  0.5155  0.2029 -1.0783
  970MOL0     H33807   9.399   6.580   3.686  0.3528 -1.0752  0.6621
  970MOL0     H33808   9.308   6.486   3.564 -1.4530  1.9582  1.4833
  970MOL0     H33809   9.403   6.337   3.405  2.7145 -4.5417 -1.8493
  970MOL0     H33810   9.576   6.182   3.320  0.8395  2.3663 -0.8646
  970MOL0     H33811   9.609   6.075   3.457  1.7804 -0.0142  0.4580
  970MOL0     H33812   9.840   6.248   3.351  0.6884  0.1254  1.1871
  970MOL0     H33813   9.839   6.134   3.474  0.9518  2.6711  0.9017
  970MOL0     H33814   9.919   6.062   3.231  0.2994 -0.5649  0.1313
  970MOL0     H33815   9.774   5.962   3.273  2.0572 -1.2456  0.5425
  970MOL0     H33816   9.653   6.152   3.132  0.5916  0.3016 -0.6177
  970MOL0     H33817   9.824   6.205   3.103  0.3892 -0.4505 -1.1251
  970MOL0     H33818   9.736   6.294   2.921 -2.0631  1.2916 -1.4615
  970MOL0     H33819   9.787   6.469   2.684 -1.6002  1.3708 -1.4544
  970MOL0     H33820   9.656   6.456   2.795  0.7817 -2.2215  1.5040
  970MOL0     H33821   9.630   6.447   2.621 -2.5802  0.4327  1.5186
  970MOL0     H33822   9.954   6.354   2.276 -1.5483  0.3147  0.6401
  970MOL0     H33823   9.940   6.436   2.027 -1.5623 -1.8485 -1.6689
  970MOL0     H33824   9.748   6.318   1.816  0.3662 -0.6869 -1.4351
  970MOL0     H33825   9.576   6.350   1.866  0.6557 -1.1061  3.3456
  970MOL0     H33826   9.746   6.499   1.662  0.3204 -0.9561  0.6510
  970MOL0     H33827   9.625   6.363   1.620  0.9615 -2.3249  0.8013
  970MOL0     H33828   9.552   6.667   1.684 -3.0029  2.6806 -2.8050
  970MOL0     H33829   9.456   6.529   1.735 -1.0307  0.8341 -0.8948
  970MOL0     H33830   9.381   6.616   1.524 -0.2204  0.7782  1.9801
  970MOL0     H33831   9.440   6.450   1.497  3.0453 -0.1054 -2.3864
  970MOL0     H33832   9.593   6.707   1.450  1.3371 -0.7593  0.7073
  970MOL0     H33833   9.670   6.545   1.435 -0.0934 -0.0182  1.3418
  970MOL0     H33834   9.480   6.699   1.253  0.0919  0.9472  0.5466
  970MOL0     H33835   9.486   6.506   1.258  2.9159 -0.7219 -0.9135
  970MOL0     H33836   9.704   6.497   1.184 -1.0554 -1.6653 -0.2471
  970MOL0     H33837   9.725   6.675   1.210 -2.2986  1.1003 -0.7494
  970MOL0     H33838   9.530   6.695   1.023  1.8530  1.7118 -0.7979
  970MOL0     H33839   9.566   6.529   0.985  0.1136 -1.1305  2.2829
  970MOL0     H33840   9.517   6.492   2.078  1.2706  1.5768 -0.4151
  970MOL0     H33841   9.533   6.396   2.318  2.0462  1.8803  2.2731
  970MOL0     H33842   9.720   5.961   2.571  1.2595  0.3435  0.4139
  970MOL0     H33843   9.777   5.886   2.805 -1.3419 -1.1540  0.1380
  970MOL0     H33844   8.794   6.627   2.604  1.2212 -0.5328 -0.0088
  970MOL0     H33845   8.629   6.494   2.450 -0.2884  0.3937  0.3107
  970MOL0     H33846   8.140   6.165   2.619  2.2452  1.9509  0.0396
  970MOL0     H33847   8.003   5.999   2.521  1.2546 -3.0546  0.4501
  970MOL0     H33848   8.026   5.948   2.099  1.7598  0.6357  1.4436
  970MOL0     H33849   7.898   5.834   2.128 -1.3297  0.8576  0.9669
  970MOL0     H33850   7.786   6.010   2.084 -1.1266  0.6006 -0.6586
  970MOL0     H33851   7.904   6.121   2.175 -2.2881  1.1228  3.3937
  970MOL0     H33852   7.808   5.991   2.386  1.1433 -1.1989 -1.1689
  970MOL0     H33853   7.711   6.121   2.304 -0.1969 -0.5705  0.1386
  970MOL0     H33854   7.676   5.813   2.313  1.6469 -1.3619 -2.9583
  970MOL0     H33855   7.614   5.911   2.183 -0.0183  2.6913 -0.4028
  970MOL0     H33856   7.323   5.995   2.482  1.8292 -1.5539  4.3679
  970MOL0     H33857   8.238   6.019   2.157 -1.7548 -1.7327  0.5752
  970MOL0     H33858   8.490   6.219   2.292 -0.9642  1.3546  0.5878
  970MOL0     H33859   8.426   6.126   2.156 -0.8462 -0.2361  0.3506
  970MOL0     H33860   8.398   6.301   2.167  1.2647 -0.0988 -0.6580
  971MOL0     O33861   7.661   0.215   0.951 -0.4482 -0.3007  0.3141
  971MOL0     C33862   7.581   0.207   1.034  0.3527 -0.3757 -0.4154
  971MOL0     O33863   7.608   0.196   1.172  0.1171 -0.1968 -0.0820
  971MOL0     C33864   7.730   0.144   1.213  0.0907 -0.3679  0.4239
  971MOL0     C33865   7.789   0.036   1.154 -0.3541  0.5215 -0.0480
  971MOL0     C33866   7.911  -0.018   1.192 -0.2493  0.0026 -0.3451
  971MOL0     C33867   7.972   0.040   1.307 -0.8673  0.8228 -0.2873
  971MOL0     O33868   8.084  -0.007   1.370 -0.1540 -0.0876  0.1537
  971MOL0     C33869   8.181  -0.059   1.290  0.1723 -0.4575  0.0477
  971MOL0     C33870   8.266  -0.139   1.382  0.4211 -0.3301 -0.3463
  971MOL0     C33871   8.351  -0.044   1.475  0.5802 -0.1153 -0.1356
  971MOL0     C33872   8.418  -0.130   1.585  0.1738  0.3954  0.5512
  971MOL0     C33873   8.512  -0.040   1.677  0.1925  0.8740  0.3851
  971MOL0     C33874   8.567  -0.111   1.799 -0.2399  1.0845 -0.6060
  971MOL0     C33875   8.653  -0.244   1.775  0.8763 -0.0846 -0.0617
  971MOL0     C33876   8.735  -0.297   1.896 -0.0586 -0.1473  0.2135
  971MOL0     N33877   8.845  -0.217   1.950 -0.1666 -0.6701 -0.4211
  971MOL0     C33878   8.843  -0.136   2.064 -0.2392  0.3367  0.4092
  971MOL0     C33879   8.954  -0.056   2.051  0.3879 -0.2590 -0.6556
  971MOL0     C33880   9.014   0.031   2.154 -0.2172 -0.0073 -0.2596
  971MOL0     C33881   8.931   0.156   2.179 -0.2230 -0.0628  0.7231
  971MOL0     C33882   8.981   0.225   2.303 -0.1441 -0.4361 -0.1662
  971MOL0     C33883   9.114   0.303   2.286  0.8123 -0.0239  0.1334
  971MOL0     O33884   9.223   0.212   2.289 -0.1675  0.2143 -0.4757
  971MOL0     C33885   9.304   0.218   2.398 -0.5632 -0.1520  1.0194
  971MOL0     C33886   9.438   0.215   2.370  0.7781 -0.0335  0.9487
  971MOL0     C33887   9.530   0.211   2.472  0.2260  0.5861  0.5325
  971MOL0     C33888   9.673   0.192   2.438 -0.3844 -0.5975 -0.4332
  971MOL0     C33889   9.482   0.211   2.602  0.0794  0.2534 -0.3785
  971MOL0     C33890   9.571   0.206   2.728  0.1186  0.3791  0.8269
  971MOL0     O33891   9.516   0.136   2.836 -0.2512 -0.4530  0.6243
  971MOL0     C33892   9.606   0.107   2.935 -0.3347  0.3508 -0.8628
  971MOL0     C33893   9.549   0.100   3.064  0.4667 -0.7720  0.5855
  971MOL0     C33894   9.612   0.075   3.181 -0.0042  0.1373  0.0731
  971MOL0     C33895   9.748   0.031   3.168 -0.1263  0.0034 -0.7505
  971MOL0     O33896   9.836  -0.017   3.270  0.8179  0.1758  0.5060
  971MOL0     C33897   9.823   0.010   3.402  0.6733  0.4374  0.1151
  971MOL0     C33898   9.916  -0.085   3.484  0.8264  1.1174 -1.3888
  971MOL0     C33899   9.933  -0.052   3.632 -0.0369 -0.2771  0.1491
  971MOL0     C33900   9.826  -0.113   3.725  0.1585  0.7618  0.1477
  971MOL0     C33901   9.862  -0.093   3.873  0.9630 -0.4067 -0.1742
  971MOL0     C33902   9.763  -0.165   3.966  0.2685  0.4008 -0.0553
  971MOL0     C33903   9.795  -0.139   4.105  0.1819  1.1094 -0.2167
  971MOL0     C33904   9.917  -0.222   4.164  0.3636 -0.3079 -0.3128
  971MOL0    Cl33905   9.875  -0.393   4.143  0.0320  0.0577  0.6993
  971MOL0     C33906   9.808   0.021   3.039 -0.2789 -0.5014  0.0189
  971MOL0     C33907   9.736   0.059   2.925 -0.1511  0.2448 -0.2515
  971MOL0     O33908   9.687   0.258   2.720  0.3972  0.0327  0.2794
  971MOL0     C33909   9.342   0.219   2.631  0.4846  0.0006  0.1704
  971MOL0     C33910   9.254   0.223   2.525  0.3843  0.6129 -0.5101
  971MOL0     N33911   9.024  -0.099   1.937  0.6556  0.5903  1.2158
  971MOL0     N33912   8.958  -0.192   1.876 -0.3510 -0.0418  0.0263
  971MOL0     C33913   7.915   0.156   1.361 -0.1114  0.4338 -0.4876
  971MOL0     C33914   7.788   0.201   1.328  0.0946  0.8436  1.6878
  971MOL0     C33915   7.439   0.217   0.991  0.0118  0.0205  0.3387
  971MOL0     C33916   7.407   0.269   0.862 -0.4481  1.0200  0.8527
  971MOL0     C33917   7.273   0.283   0.823 -0.1262 -0.8560  0.3036
  971MOL0     C33918   7.168   0.259   0.905  0.1528 -0.3379  0.8034
  971MOL0     O33919   7.040   0.287   0.887  0.3072 -0.4537 -1.1274
  971MOL0     C33920   6.986   0.299   0.752 -0.9082  0.1979 -0.0783
  971MOL0     C33921   6.972   0.444   0.711  0.2954 -0.4476  0.2019
  971MOL0     C33922   6.880   0.509   0.809  0.3936 -1.5301 -0.3963
  971MOL0     C33923   6.863   0.667   0.785  0.1899  0.7643 -0.5580
  971MOL0     C33924   6.736   0.710   0.850 -0.2666  0.0783  0.6616
  971MOL0     C33925   6.635   0.744   0.903  0.3311  0.6993  1.0267
  971MOL0     C33926   7.192   0.213   1.035 -0.0219 -0.1130  0.2354
  971MOL0     C33927   7.324   0.188   1.074  0.5977 -0.2416  0.4636
  971MOL0     C33928   7.327   0.110   1.200  0.9644  0.5041 -0.1693
  971MOL0     H33929   7.745  -0.017   1.070 -0.1024 -1.2433  0.8787
  971MOL0     H33930   7.940  -0.114   1.151 -0.4640 -0.4486  0.5416
  971MOL0     H33931   8.236   0.018   1.236  2.3769 -3.6893 -2.7130
  971MOL0     H33932   8.144  -0.136   1.222 -1.2087  0.9183 -0.8297
  971MOL0     H33933   8.205  -0.209   1.441  3.2088 -0.0631  3.2072
  971MOL0     H33934   8.344  -0.186   1.322  1.6475 -0.2197  1.0977
  971MOL0     H33935   8.428   0.002   1.413  0.1318  0.0124 -0.6038
  971MOL0     H33936   8.293   0.032   1.529  0.1073 -0.1956 -0.5199
  971MOL0     H33937   8.342  -0.174   1.650  1.9984  1.9476  3.9614
  971MOL0     H33938   8.477  -0.212   1.545 -1.2998 -0.1567 -0.6020
  971MOL0     H33939   8.455   0.051   1.700 -0.0670  0.4256  1.6116
  971MOL0     H33940   8.596  -0.006   1.616  1.4852  0.0090  1.6480
  971MOL0     H33941   8.634  -0.040   1.848 -0.8925  0.6113  1.0872
  971MOL0     H33942   8.487  -0.131   1.872  0.6573  1.1740  0.4308
  971MOL0     H33943   8.709  -0.231   1.682  0.4275 -0.2264 -0.3513
  971MOL0     H33944   8.577  -0.320   1.757 -0.4842  1.2332 -0.0737
  971MOL0     H33945   8.667  -0.305   1.981 -2.4951 -1.9758 -1.7411
  971MOL0     H33946   8.765  -0.399   1.868 -0.2650 -0.1090 -0.1432
  971MOL0     H33947   8.784  -0.149   2.153  0.7881 -1.6055  0.8727
  971MOL0     H33948   9.111   0.061   2.115 -0.5745 -3.7222 -5.1261
  971MOL0     H33949   9.030  -0.036   2.239 -2.2232 -1.6595 -1.0955
  971MOL0     H33950   8.933   0.211   2.085 -1.5524 -1.1838  0.0005
  971MOL0     H33951   8.832   0.115   2.200  0.5634 -1.3982  2.0718
  971MOL0     H33952   8.904   0.294   2.337  2.1005  1.5493  1.1979
  971MOL0     H33953   8.993   0.147   2.379  1.1296  0.6790  0.8173
  971MOL0     H33954   9.102   0.353   2.190  3.1162 -0.1580 -0.2862
  971MOL0     H33955   9.118   0.383   2.361 -0.7266 -0.4926  0.7481
  971MOL0     H33956   9.456   0.190   2.266  0.0143 -1.8967  1.2189
  971MOL0     H33957   9.717   0.100   2.477  3.7188  1.4962  0.5267
  971MOL0     H33958   9.735   0.272   2.479  0.8484 -2.1036  0.7893
  971MOL0     H33959   9.680   0.205   2.330  0.9545 -0.0900 -0.3133
  971MOL0     H33960   9.449   0.139   3.079 -0.0502 -0.0768 -3.6409
  971MOL0     H33961   9.566   0.085   3.278  1.1007 -2.2046  0.9303
  971MOL0     H33962   9.865   0.109   3.423 -0.9914  0.6954  2.7261
  971MOL0     H33963   9.716   0.003   3.428  1.2669 -1.1163  2.5453
  971MOL0     H33964   9.895  -0.192   3.470 -1.1207  1.2076  0.3215
  971MOL0     H33965  10.019  -0.077   3.449  2.1581 -1.3519  1.5050
  971MOL0     H33966   9.947   0.056   3.649 -1.7167 -0.1549  0.9250
  971MOL0     H33967  10.029  -0.099   3.657 -0.3586  0.2120  2.5685
  971MOL0     H33968   9.843  -0.221   3.720 -1.1118  0.5039  0.8140
  971MOL0     H33969   9.722  -0.093   3.697  0.1618 -0.6539 -1.0121
  971MOL0     H33970   9.965  -0.127   3.874  0.2776 -2.7834 -2.1324
  971MOL0     H33971   9.863   0.014   3.898 -0.2058 -0.4913  0.3221
  971MOL0     H33972   9.759  -0.268   3.931 -0.3841  0.8120 -1.2353
  971MOL0     H33973   9.662  -0.129   3.942  0.6455 -0.0632 -2.5172
  971MOL0     H33974   9.703  -0.169   4.156  1.1657  0.1863  1.0717
  971MOL0     H33975   9.813  -0.032   4.119  1.3844  0.7140  1.7293
  971MOL0     H33976   9.937  -0.188   4.266 -1.9358 -1.4130  0.5816
  971MOL0     H33977  10.007  -0.202   4.104  1.3981 -1.8104  0.6655
  971MOL0     H33978   9.910  -0.017   3.039  0.1963  0.7113 -0.5335
  971MOL0     H33979   9.781   0.044   2.827  1.9573  2.5905  0.2554
  971MOL0     H33980   9.315   0.232   2.736  4.0790  0.9605  1.1251
  971MOL0     H33981   9.147   0.225   2.542  0.4137  0.3042 -0.2752
  971MOL0     H33982   7.944   0.203   1.455 -2.9569  0.0262  0.6814
  971MOL0     H33983   7.749   0.287   1.382 -0.4165  1.2628  0.6764
  971MOL0     H33984   7.481   0.295   0.788 -0.5801  0.3725  0.4928
  971MOL0     H33985   7.257   0.339   0.731  4.3637 -2.0914 -1.5478
  971MOL0     H33986   7.051   0.249   0.679 -1.4478 -0.2107 -0.2817
  971MOL0     H33987   6.886   0.255   0.746 -0.3090 -1.2887  0.3891
  971MOL0     H33988   6.929   0.450   0.610 -0.2951  1.2109  0.5106
  971MOL0     H33989   7.072   0.488   0.705  1.6664 -2.8305  2.8896
  971MOL0     H33990   6.786   0.454   0.800  1.4059 -3.0809 -1.9987
  971MOL0     H33991   6.914   0.494   0.912 -2.5636  3.3969  1.6776
  971MOL0     H33992   6.865   0.675   0.676 -0.8934 -0.9444 -0.7370
  971MOL0     H33993   6.943   0.716   0.841 -1.5427 -0.2221  3.0814
  971MOL0     H33994   6.558   0.792   0.961  2.3027  4.2844  0.9522
  971MOL0     H33995   7.106   0.191   1.097 -0.4412  3.7254  1.2747
  971MOL0     H33996   7.328   0.187   1.277 -1.0723  1.3201 -0.8651
  971MOL0     H33997   7.236   0.051   1.219  0.9409  0.0611 -1.5138
  971MOL0     H33998   7.415   0.046   1.209 -1.6674 -3.2288  1.7154
  972MOL0     O33999   2.927  10.028   0.453 -0.3143 -0.4706 -0.7299
  972MOL0     C34000   2.902   9.963   0.355  0.4862  0.6643 -0.3195
  972MOL0     O34001   2.774   9.919   0.317  0.2118 -0.3121  0.1618
  972MOL0     C34002   2.680   9.945   0.416  0.7740  0.5057  0.3620
  972MOL0     C34003   2.662   9.841   0.511  0.3142 -0.6551 -0.1115
  972MOL0     C34004   2.544   9.837   0.595 -0.3890 -0.8098  0.5656
  972MOL0     C34005   2.455   9.941   0.589 -0.5062  0.0383  0.7272
  972MOL0     O34006   2.355   9.955   0.675 -0.3958  0.6831 -1.0786
  972MOL0     C34007   2.397   9.959   0.811 -0.4591  0.5357  0.1445
  972MOL0     C34008   2.268   9.951   0.880  0.8129  0.1363 -0.1180
  972MOL0     C34009   2.288   9.934   1.027 -0.0707  1.0850  0.2220
  972MOL0     C34010   2.165   9.975   1.107  0.6033 -0.2200 -0.3024
  972MOL0     C34011   2.066   9.852   1.114 -2.0820  0.7313  0.2836
  972MOL0     C34012   1.924   9.885   1.165  0.2467  1.0207 -0.3990
  972MOL0     C34013   1.818   9.774   1.138 -0.4325 -0.1717  0.6478
  972MOL0     C34014   1.778   9.749   0.987 -0.5795  0.0891 -0.4240
  972MOL0     N34015   1.656   9.671   0.957  0.1665 -0.6351 -1.2824
  972MOL0     C34016   1.533   9.720   0.955  0.9892  0.9495  0.3689
  972MOL0     C34017   1.453   9.621   0.906 -0.7049 -0.1803  0.1485
  972MOL0     C34018   1.307   9.618   0.866 -0.0309  0.0792  0.2752
  972MOL0     C34019   1.219   9.603   0.983 -0.4698 -0.6348 -0.4905
  972MOL0     C34020   1.205   9.470   1.055 -0.6799 -0.1868  0.3286
  972MOL0     C34021   1.144   9.476   1.193  0.2641  0.0571  0.7722
  972MOL0     O34022   1.009   9.524   1.200 -0.2397 -0.1489  1.2919
  972MOL0     C34023   0.918   9.430   1.230  0.4609  0.1439  0.1041
  972MOL0     C34024   0.929   9.288   1.214 -0.0478 -0.9592  0.4445
  972MOL0     C34025   0.817   9.200   1.227 -0.5483  0.1317  0.8193
  972MOL0     C34026   0.841   9.052   1.199 -0.2258  0.1298 -0.7635
  972MOL0     C34027   0.694   9.257   1.251 -0.4335 -1.3341 -0.9105
  972MOL0     C34028   0.565   9.184   1.270 -0.3713  0.0449 -1.1312
  972MOL0     O34029   0.572   9.056   1.277  0.1289 -0.1529  0.1554
  972MOL0     C34030   0.455   8.987   1.308  0.1035 -0.2841 -0.0733
  972MOL0     C34031   0.358   8.971   1.210 -0.8829  0.1139  0.1189
  972MOL0     C34032   0.238   8.906   1.249  0.2694  0.3153 -0.4281
  972MOL0     C34033   0.214   8.871   1.385 -0.1556  0.2887 -0.3503
  972MOL0     O34034   0.087   8.825   1.418  0.3348  0.0815  0.0809
  972MOL0     C34035   0.030   8.838   1.548 -0.5246  0.1945 -0.1553
  972MOL0     C34036   0.034   8.703   1.634  0.3607  0.5180  0.6624
  972MOL0     C34037  -0.054   8.730   1.759 -0.8596  0.7264 -0.7793
  972MOL0     C34038  -0.197   8.690   1.741 -0.4023 -0.3688 -0.1930
  972MOL0     C34039  -0.282   8.735   1.856  1.3044  0.8134  0.2494
  972MOL0     C34040  -0.308   8.881   1.862  0.4398 -0.5731  0.5813
  972MOL0     C34041  -0.395   8.886   1.994  0.8821  0.3009  0.1806
  972MOL0     C34042  -0.387   9.033   2.046 -0.4764  0.4240 -0.0332
  972MOL0    Cl34043  -0.504   9.057   2.179 -0.1164 -0.0883 -0.2366
  972MOL0     C34044   0.316   8.887   1.485 -0.3833 -0.7669  0.1954
  972MOL0     C34045   0.439   8.940   1.442 -0.1076 -0.2355  1.1529
  972MOL0     O34046   0.460   9.250   1.277 -0.7279 -0.5467 -0.2453
  972MOL0     C34047   0.682   9.399   1.255  0.5582  0.1163  0.9598
  972MOL0     C34048   0.785   9.480   1.242  0.2621 -0.0467 -0.5164
  972MOL0     N34049   1.539   9.508   0.893 -0.0262 -0.1235 -0.8220
  972MOL0     N34050   1.662   9.545   0.931 -0.7007 -0.8961  0.2584
  972MOL0     C34051   2.477  10.044   0.494  0.5650 -0.6671 -0.0359
  972MOL0     C34052   2.586  10.052   0.407  0.0958  0.1137 -0.0972
  972MOL0     C34053   3.010   9.929   0.252  0.2001  0.6346 -0.0899
  972MOL0     C34054   2.967   9.857   0.141 -0.5666  0.7320 -0.3118
  972MOL0     C34055   3.049   9.827   0.039 -0.1901 -1.0290  0.3154
  972MOL0     C34056   3.179   9.872   0.031 -0.3354 -0.5390 -1.0190
  972MOL0     O34057   3.277   9.856  -0.066 -0.3303  0.5024  0.3901
  972MOL0     C34058   3.244   9.753  -0.166 -0.2761  0.0422  0.1795
  972MOL0     C34059   3.347   9.753  -0.280  0.1200 -0.0637  0.0711
  972MOL0     C34060   3.496   9.737  -0.243  0.0080  0.0380 -0.1993
  972MOL0     C34061   3.535   9.608  -0.158 -0.7662  0.5821 -0.2550
  972MOL0     C34062   3.531   9.498  -0.247  0.7420 -0.7677 -0.0033
  972MOL0     C34063   3.502   9.403  -0.324 -0.6124  0.0715  0.1546
  972MOL0     C34064   3.230   9.925   0.149 -0.4837 -0.3656  0.0815
  972MOL0     C34065   3.148   9.953   0.266 -0.2585  1.0894  1.1069
  972MOL0     C34066   3.216  10.012   0.394  0.0607 -0.2395 -0.6880
  972MOL0     H34067   2.734   9.761   0.522 -0.8334 -1.8755 -1.1629
  972MOL0     H34068   2.524   9.757   0.665  0.6437 -1.5334  0.0716
  972MOL0     H34069   2.448  10.053   0.835 -1.2329  1.4097 -1.4701
  972MOL0     H34070   2.474   9.889   0.842 -1.5934 -1.3449 -1.0723
  972MOL0     H34071   2.210  10.040   0.856  1.5695  1.0514  1.3087
  972MOL0     H34072   2.216   9.861   0.846  0.4005 -0.8586  2.8815
  972MOL0     H34073   2.322   9.834   1.059 -1.4584  0.7625  0.7812
  972MOL0     H34074   2.359  10.012   1.056  0.7437  0.0843  1.0031
  972MOL0     H34075   2.188  10.010   1.207 -1.5682  0.4516  0.0233
  972MOL0     H34076   2.110  10.051   1.050  1.9959 -0.4096 -1.9901
  972MOL0     H34077   2.105   9.781   1.187  0.6442 -0.7740 -2.4413
  972MOL0     H34078   2.061   9.804   1.016  2.5787 -3.6750  1.8217
  972MOL0     H34079   1.926   9.906   1.272 -1.2633 -0.7430  0.0272
  972MOL0     H34080   1.884   9.974   1.114  1.1659  1.2413 -0.7626
  972MOL0     H34081   1.723   9.799   1.186 -0.5806 -2.1703  1.5133
  972MOL0     H34082   1.860   9.679   1.173  0.7441  0.7938  1.9667
  972MOL0     H34083   1.770   9.848   0.941 -1.8929 -0.8408 -2.3476
  972MOL0     H34084   1.853   9.689   0.935  1.9235  2.1036  0.6648
  972MOL0     H34085   1.505   9.825   0.962  0.1550  0.6478  2.6904
  972MOL0     H34086   1.288   9.535   0.797 -1.3715  0.4591  0.1636
  972MOL0     H34087   1.273   9.702   0.806 -5.3779 -2.2984 -0.6534
  972MOL0     H34088   1.251   9.673   1.061 -1.7175  1.0508 -1.4037
  972MOL0     H34089   1.119   9.642   0.960  0.7488  4.1238  1.0387
  972MOL0     H34090   1.161   9.402   0.981 -0.0797  2.5617 -2.7841
  972MOL0     H34091   1.309   9.437   1.059 -0.2539  1.0648 -0.0693
  972MOL0     H34092   1.165   9.379   1.240 -2.4391 -0.2956  1.3989
  972MOL0     H34093   1.201   9.549   1.251  3.5226 -1.5077 -0.2303
  972MOL0     H34094   1.027   9.252   1.183 -0.4388 -1.9322  0.3077
  972MOL0     H34095   0.771   9.026   1.119 -1.1552  0.7535 -0.1756
  972MOL0     H34096   0.820   8.986   1.284 -0.0103 -1.1878 -1.6954
  972MOL0     H34097   0.939   9.016   1.166 -0.5200  0.2680 -1.8114
  972MOL0     H34098   0.365   9.015   1.111 -1.6131  2.6073  1.1042
  972MOL0     H34099   0.161   8.894   1.174  0.2396 -2.9451 -0.0477
  972MOL0     H34100   0.083   8.909   1.613 -0.6681 -1.9477  2.4989
  972MOL0     H34101  -0.074   8.866   1.529 -0.0291  3.6463  1.4085
  972MOL0     H34102   0.012   8.614   1.575 -3.0638  1.3081  0.5153
  972MOL0     H34103   0.132   8.694   1.682 -0.1691 -1.2884  1.4813
  972MOL0     H34104  -0.038   8.831   1.796 -2.1939  0.6081  0.1835
  972MOL0     H34105  -0.018   8.665   1.839 -0.3174  1.4634 -0.4155
  972MOL0     H34106  -0.200   8.581   1.740 -1.2644 -0.3495 -0.5189
  972MOL0     H34107  -0.236   8.723   1.644 -0.1092 -2.1773 -0.9530
  972MOL0     H34108  -0.377   8.681   1.858  0.8409  1.5707 -0.7340
  972MOL0     H34109  -0.241   8.698   1.951  1.9643 -2.2903 -1.1409
  972MOL0     H34110  -0.352   8.934   1.777  0.1844  2.6979  2.5905
  972MOL0     H34111  -0.217   8.937   1.886  0.2098  1.0227 -1.8294
  972MOL0     H34112  -0.356   8.828   2.078 -1.2863  1.9411  2.4761
  972MOL0     H34113  -0.490   8.834   1.976  1.4285 -0.0689 -1.9446
  972MOL0     H34114  -0.412   9.106   1.969 -1.5090  1.2143  1.0203
  972MOL0     H34115  -0.288   9.057   2.086 -0.6690  2.6261 -0.7271
  972MOL0     H34116   0.279   8.862   1.584 -2.5266  2.1453  0.2703
  972MOL0     H34117   0.522   8.956   1.510 -0.1731  1.5070  0.8783
  972MOL0     H34118   0.590   9.455   1.273 -0.3929 -2.0444  3.3929
  972MOL0     H34119   0.792   9.588   1.239 -0.3558  0.0212  0.1934
  972MOL0     H34120   2.412  10.131   0.495  0.8520 -0.4311 -1.0363
  972MOL0     H34121   2.610  10.136   0.343  1.7532  1.3822  1.9971
  972MOL0     H34122   2.870   9.809   0.142  0.1701 -0.9231  2.7308
  972MOL0     H34123   3.012   9.768  -0.044  2.5713  0.1029 -1.8696
  972MOL0     H34124   3.257   9.654  -0.122 -3.6769  0.4045  2.4381
  972MOL0     H34125   3.141   9.752  -0.204 -0.7386 -0.7544  1.3966
  972MOL0     H34126   3.335   9.843  -0.341 -1.7964 -1.2656 -1.4553
  972MOL0     H34127   3.313   9.672  -0.346  0.1535  0.8516 -1.1032
  972MOL0     H34128   3.563   9.744  -0.329  2.7611  1.6179  1.8729
  972MOL0     H34129   3.516   9.832  -0.193  1.1601 -0.8744  1.1633
  972MOL0     H34130   3.460   9.582  -0.084  0.4374  0.1110  0.8472
  972MOL0     H34131   3.632   9.618  -0.108  0.1193 -4.7609 -0.3421
  972MOL0     H34132   3.468   9.320  -0.382 -1.1638  1.0915 -1.0424
  972MOL0     H34133   3.335   9.951   0.161 -0.4854  0.4328 -1.4171
  972MOL0     H34134   3.198  10.117   0.421  3.0078  0.1759 -0.0205
  972MOL0     H34135   3.181   9.947   0.474 -1.4469  0.9765 -0.3110
  972MOL0     H34136   3.325  10.009   0.381 -0.1020  1.8243 -3.5507
  973MOL0     O34137   4.575   7.277   2.126  0.6489 -0.4546 -0.2331
  973MOL0     C34138   4.527   7.168   2.097  0.5100  0.5595  0.1852
  973MOL0     O34139   4.559   7.083   1.992  0.2855 -0.5821  0.0982
  973MOL0     C34140   4.662   7.134   1.909 -0.5443  0.6324 -0.6327
  973MOL0     C34141   4.799   7.135   1.938 -0.8866  0.4339  0.2456
  973MOL0     C34142   4.899   7.193   1.849 -0.2536  0.3794  0.4919
  973MOL0     C34143   4.858   7.229   1.720 -0.2785 -1.3444  0.2838
  973MOL0     O34144   4.961   7.261   1.629 -0.5123  0.3197 -0.3764
  973MOL0     C34145   4.924   7.278   1.495  0.2450 -0.1575 -0.5566
  973MOL0     C34146   5.044   7.297   1.394  0.4100 -0.0816  0.4075
  973MOL0     C34147   4.982   7.302   1.250 -0.2228  0.3598  0.4521
  973MOL0     C34148   5.095   7.269   1.149  0.0101  0.8765 -0.0697
  973MOL0     C34149   5.069   7.325   1.010  0.0557  0.2636 -0.3005
  973MOL0     C34150   4.963   7.269   0.928 -0.5643  0.4783  0.8799
  973MOL0     C34151   4.821   7.326   0.949 -0.3654 -0.1706 -0.0961
  973MOL0     C34152   4.813   7.457   0.868 -0.1533 -0.3319  1.0469
  973MOL0     N34153   4.680   7.516   0.907  0.1021  0.5643  0.3206
  973MOL0     C34154   4.568   7.507   0.832 -0.0638 -0.1588 -0.0687
  973MOL0     C34155   4.481   7.597   0.888 -0.9151 -0.4362  0.0852
  973MOL0     C34156   4.337   7.610   0.857 -0.4639  0.4806  0.3632
  973MOL0     C34157   4.259   7.476   0.834 -0.4827  0.0257  0.2642
  973MOL0     C34158   4.111   7.491   0.808 -0.1329  0.4020 -0.0063
  973MOL0     C34159   4.054   7.376   0.734  0.4819 -0.8060 -0.2390
  973MOL0     O34160   4.109   7.250   0.770 -0.0295 -0.2702 -0.3254
  973MOL0     C34161   4.050   7.134   0.718 -0.1241  0.7537  0.7203
  973MOL0     C34162   4.075   7.018   0.798 -1.3675 -0.4149  0.7614
  973MOL0     C34163   4.028   6.891   0.767 -0.4885  0.2579  0.2549
  973MOL0     C34164   4.089   6.777   0.860  0.0425 -0.1037  0.4507
  973MOL0     C34165   3.952   6.866   0.650 -0.0702  0.0317 -0.3881
  973MOL0     C34166   3.918   6.734   0.599 -1.5461 -0.6941  0.3603
  973MOL0     O34167   3.822   6.723   0.506  0.3892 -0.1065  0.1082
  973MOL0     C34168   3.783   6.593   0.471  0.7242 -0.3726 -0.1120
  973MOL0     C34169   3.821   6.528   0.359  0.3672  0.0396  0.1574
  973MOL0     C34170   3.788   6.399   0.327  0.3012 -0.0006 -0.3386
  973MOL0     C34171   3.706   6.325   0.410  0.0018 -0.3452  0.2679
  973MOL0     O34172   3.667   6.203   0.378 -0.2337  0.1067  0.0767
  973MOL0     C34173   3.632   6.112   0.482  0.2699  0.2426  0.0016
  973MOL0     C34174   3.607   5.972   0.431 -0.7938  0.5205  0.0386
  973MOL0     C34175   3.555   5.881   0.552 -0.4600 -0.4878  0.4093
  973MOL0     C34176   3.518   5.741   0.519  0.3155 -0.2634  0.5375
  973MOL0     C34177   3.478   5.658   0.644  0.0112 -0.0262 -0.5883
  973MOL0     C34178   3.455   5.514   0.613  0.7519  0.5859  0.1158
  973MOL0     C34179   3.455   5.422   0.746 -0.0663  0.0065 -0.0378
  973MOL0     C34180   3.448   5.273   0.709  0.0611 -0.7940 -0.1940
  973MOL0    Cl34181   3.308   5.244   0.605 -0.1773  0.2518 -0.1163
  973MOL0     C34182   3.661   6.389   0.530 -0.1365 -0.4109  0.1990
  973MOL0     C34183   3.694   6.523   0.554 -0.1679  1.0861 -0.7024
  973MOL0     O34184   3.986   6.640   0.636 -0.1913  0.6124  0.2722
  973MOL0     C34185   3.934   6.976   0.561 -0.1419 -0.3789 -0.4759
  973MOL0     C34186   3.975   7.105   0.600 -0.8978  0.2990  0.0076
  973MOL0     N34187   4.551   7.648   0.999  0.6399  0.2040 -0.1272
  973MOL0     N34188   4.668   7.600   1.011  0.6509 -0.9472  0.5292
  973MOL0     C34189   4.715   7.227   1.689 -0.5435 -0.3300 -1.0005
  973MOL0     C34190   4.618   7.189   1.782  0.3805  0.8415 -0.1016
  973MOL0     C34191   4.429   7.115   2.193 -0.3669  0.1966  0.0793
  973MOL0     C34192   4.409   6.976   2.216 -0.5418  0.8464 -0.3340
  973MOL0     C34193   4.310   6.932   2.307 -0.6593  0.7385  0.1742
  973MOL0     C34194   4.237   7.015   2.388  0.3107 -0.7209  0.0405
  973MOL0     O34195   4.145   6.977   2.483 -0.8054  1.0323 -0.2730
  973MOL0     C34196   4.208   6.968   2.609  0.3832  0.4930  0.2844
  973MOL0     C34197   4.300   6.843   2.628  0.0211 -1.0617  0.2293
  973MOL0     C34198   4.213   6.722   2.644  0.2166 -0.7333 -0.0066
  973MOL0     C34199   4.300   6.596   2.654  0.6000 -0.1532  0.5951
  973MOL0     C34200   4.221   6.492   2.721  0.9456  0.3009 -0.5731
  973MOL0     C34201   4.146   6.419   2.785  0.3793 -0.5536  0.2956
  973MOL0     C34202   4.253   7.153   2.360 -0.2096  0.4954 -0.7127
  973MOL0     C34203   4.331   7.198   2.255  0.0899 -0.6614  0.7218
  973MOL0     C34204   4.324   7.349   2.228 -0.3788  0.1188  0.0004
  973MOL0     H34205   4.827   7.113   2.041  0.4087 -0.6880 -0.3159
  973MOL0     H34206   5.005   7.185   1.874  0.0713  3.0322  0.2832
  973MOL0     H34207   4.861   7.367   1.496  1.1306  0.4704  0.2034
  973MOL0     H34208   4.862   7.192   1.466  0.2785 -0.0676 -0.9027
  973MOL0     H34209   5.103   7.386   1.417  0.4035 -0.0787  0.4125
  973MOL0     H34210   5.113   7.213   1.396 -1.7641 -2.1789 -2.6715
  973MOL0     H34211   4.901   7.228   1.243 -0.0541  0.2639 -0.6355
  973MOL0     H34212   4.952   7.405   1.229  0.2192  0.4237  0.1289
  973MOL0     H34213   5.185   7.311   1.195  0.5144  1.1911 -1.2910
  973MOL0     H34214   5.115   7.162   1.140  0.3456  0.7969  1.3555
  973MOL0     H34215   5.165   7.309   0.959 -0.0037 -2.2985  0.2765
  973MOL0     H34216   5.043   7.431   1.013 -2.6487 -0.3586  2.0104
  973MOL0     H34217   5.000   7.287   0.827 -1.9412 -0.9448  0.0775
  973MOL0     H34218   4.959   7.160   0.936  0.8105  0.2109 -1.2306
  973MOL0     H34219   4.800   7.348   1.054  0.0932  0.4308 -0.1234
  973MOL0     H34220   4.743   7.252   0.927  0.1918 -0.2139 -2.0763
  973MOL0     H34221   4.896   7.525   0.892  0.5728 -1.0046  0.5096
  973MOL0     H34222   4.819   7.435   0.761  2.1171  0.5535  0.9312
  973MOL0     H34223   4.549   7.447   0.744  2.3561  0.4987 -1.1065
  973MOL0     H34224   4.331   7.647   0.754 -2.1176 -1.4109 -0.2658
  973MOL0     H34225   4.287   7.670   0.934 -0.4117  2.5290 -1.1100
  973MOL0     H34226   4.306   7.414   0.757 -0.6709 -0.0695  0.2259
  973MOL0     H34227   4.264   7.428   0.932 -1.9573  1.6165  1.1769
  973MOL0     H34228   4.056   7.496   0.902 -3.0657 -1.6953 -1.4385
  973MOL0     H34229   4.088   7.584   0.756  2.3438  0.8513 -0.4003
  973MOL0     H34230   3.950   7.391   0.765  0.0241  1.1195 -2.4267
  973MOL0     H34231   4.062   7.391   0.626 -1.7912 -0.1434 -0.3598
  973MOL0     H34232   4.124   7.045   0.891 -2.5350  1.3834  0.9036
  973MOL0     H34233   4.174   6.813   0.918  0.8836  1.6704 -1.7759
  973MOL0     H34234   4.142   6.704   0.799  1.8109  0.8666  0.7649
  973MOL0     H34235   4.013   6.717   0.912 -1.5081  1.5667  0.2122
  973MOL0     H34236   3.878   6.580   0.282 -0.7817 -0.2372 -0.9123
  973MOL0     H34237   3.812   6.343   0.237  0.4235 -1.6306  0.6666
  973MOL0     H34238   3.701   6.110   0.566  0.1173 -0.3636  0.1204
  973MOL0     H34239   3.539   6.137   0.534 -0.6308 -0.0258 -1.4275
  973MOL0     H34240   3.534   5.984   0.351 -0.8068  1.2176  0.1489
  973MOL0     H34241   3.697   5.926   0.390 -1.7197 -1.0632 -0.3256
  973MOL0     H34242   3.458   5.923   0.580  0.2729  0.7278  1.2597
  973MOL0     H34243   3.617   5.893   0.641 -1.4306  0.4416  0.9905
  973MOL0     H34244   3.612   5.708   0.474  0.9222 -0.1609  1.6976
  973MOL0     H34245   3.441   5.722   0.444  1.6855 -0.9806 -0.7439
  973MOL0     H34246   3.568   5.666   0.705  0.1481  0.8885 -0.8945
  973MOL0     H34247   3.396   5.705   0.699  1.9886  3.4969 -0.3690
  973MOL0     H34248   3.530   5.463   0.551  1.3073 -0.4684  1.5780
  973MOL0     H34249   3.356   5.502   0.568  0.6345 -1.3965  0.7681
  973MOL0     H34250   3.371   5.434   0.815  1.0040 -0.1041  1.3311
  973MOL0     H34251   3.552   5.432   0.795 -0.5936 -1.4266  1.3871
  973MOL0     H34252   3.445   5.204   0.794  0.5198  0.6353  1.0454
  973MOL0     H34253   3.538   5.246   0.652 -0.7969 -0.6708 -1.6376
  973MOL0     H34254   3.601   6.333   0.600 -1.6354  1.2608  0.3254
  973MOL0     H34255   3.663   6.566   0.648 -3.0498  0.9844 -1.5046
  973MOL0     H34256   3.890   6.974   0.462  2.1105 -1.8520 -1.5117
  973MOL0     H34257   3.942   7.190   0.541 -0.5081  0.4416 -0.0088
  973MOL0     H34258   4.690   7.259   1.588  0.8252  0.8739 -0.9934
  973MOL0     H34259   4.512   7.185   1.764  0.4360 -4.2659 -0.8750
  973MOL0     H34260   4.486   6.910   2.177 -1.4138 -0.7080  0.4648
  973MOL0     H34261   4.300   6.824   2.311 -0.6855  0.7126 -0.6049
  973MOL0     H34262   4.266   7.059   2.626  0.4138  0.2874  1.4170
  973MOL0     H34263   4.132   6.959   2.688 -2.6188 -2.5430 -2.5783
  973MOL0     H34264   4.359   6.849   2.720 -1.6288 -1.3915  1.3650
  973MOL0     H34265   4.370   6.832   2.545  2.8125  0.9585  2.1639
  973MOL0     H34266   4.143   6.739   2.726 -1.6815 -2.2917 -1.2286
  973MOL0     H34267   4.148   6.713   2.557 -0.2380  1.3956  0.0593
  973MOL0     H34268   4.384   6.625   2.718  0.1072 -2.3361  2.3025
  973MOL0     H34269   4.344   6.557   2.561 -2.7337 -0.2702 -1.0829
  973MOL0     H34270   4.080   6.346   2.829 -0.0420 -2.5943 -3.3142
  973MOL0     H34271   4.186   7.221   2.411 -0.0663 -0.0927  0.2840
  973MOL0     H34272   4.414   7.402   2.259 -0.2095  0.9368 -1.7817
  973MOL0     H34273   4.317   7.361   2.119  0.8346  0.1202 -0.0872
  973MOL0     H34274   4.241   7.401   2.277 -1.3988 -0.0768 -1.4538
  974MOL0     O34275   8.856   6.141   6.090  0.0345  0.0136  0.3824
  974MOL0     C34276   8.845   6.030   6.133  0.0285  0.1098 -0.0207
  974MOL0     O34277   8.930   5.933   6.116 -0.1467  0.2738  0.6640
  974MOL0     C34278   9.049   5.962   6.064 -0.7557  0.7788  0.2059
  974MOL0     C34279   9.146   6.050   6.131  0.3308  0.5313  0.4291
  974MOL0     C34280   9.269   6.082   6.078 -0.0205 -0.0132 -0.5353
  974MOL0     C34281   9.307   6.014   5.963  0.5400 -1.2310 -0.3993
  974MOL0     O34282   9.424   6.038   5.901  0.2162  0.7794 -0.1089
  974MOL0     C34283   9.530   6.112   5.969 -0.0186  0.2263  0.1388
  974MOL0     C34284   9.645   6.124   5.866 -0.0120  0.0177 -0.4813
  974MOL0     C34285   9.672   5.982   5.806  0.2562 -1.0724 -1.2966
  974MOL0     C34286   9.819   5.984   5.756 -0.4493  0.3086 -0.0754
  974MOL0     C34287   9.830   5.882   5.641  0.3416  0.2244 -0.2701
  974MOL0     C34288   9.957   5.891   5.560 -0.3779 -0.5806  0.4697
  974MOL0     C34289   9.964   5.802   5.438  0.0307 -1.5299 -0.0620
  974MOL0     C34290   9.965   5.655   5.472  0.3381  0.6388  0.4303
  974MOL0     N34291  10.099   5.617   5.516 -0.0822 -0.8098 -0.0860
  974MOL0     C34292  10.210   5.584   5.436 -0.4633 -0.3722 -1.1303
  974MOL0     C34293  10.309   5.556   5.523 -0.6291  0.2620  0.4575
  974MOL0     C34294  10.444   5.507   5.479 -0.3038  0.2821  0.9375
  974MOL0     C34295  10.448   5.351   5.481 -0.5254 -0.6038 -0.4889
  974MOL0     C34296  10.590   5.297   5.511 -0.2420  0.7572 -0.0961
  974MOL0     C34297  10.608   5.150   5.484 -1.1461  0.7283 -0.4033
  974MOL0     O34298  10.663   5.078   5.593  0.3029  0.0358 -0.1728
  974MOL0     C34299  10.657   4.942   5.582  0.3132 -0.3442 -0.5730
  974MOL0     C34300  10.741   4.880   5.674  0.9076 -0.4499 -0.2674
  974MOL0     C34301  10.758   4.735   5.683 -0.8946 -0.2902 -0.8264
  974MOL0     C34302  10.841   4.669   5.806  0.6156 -1.0473 -0.2537
  974MOL0     C34303  10.707   4.658   5.578  0.3413  0.3900 -0.5906
  974MOL0     C34304  10.720   4.504   5.572  0.0651 -0.1449  0.2501
  974MOL0     O34305  10.798   4.439   5.660  0.7631  0.5058  0.1201
  974MOL0     C34306  10.805   4.306   5.646 -0.4932  0.2526 -0.8426
  974MOL0     C34307  10.885   4.245   5.546  0.6228 -0.6584 -0.0529
  974MOL0     C34308  10.901   4.106   5.534  0.3275  0.5711  0.8806
  974MOL0     C34309  10.847   4.018   5.628  0.4946 -0.9265 -0.3455
  974MOL0     O34310  10.863   3.881   5.622  0.3190  0.3600  0.4667
  974MOL0     C34311  10.746   3.799   5.626  0.2620  0.3930 -0.0784
  974MOL0     C34312  10.767   3.644   5.614 -0.1974  0.4910  0.7466
  974MOL0     C34313  10.642   3.576   5.567 -0.2811 -0.8943  0.2567
  974MOL0     C34314  10.661   3.418   5.565  0.1623 -1.3637  0.1056
  974MOL0     C34315  10.531   3.368   5.506  0.2014  0.5430  0.1800
  974MOL0     C34316  10.523   3.214   5.515  0.2738  0.9816  1.1362
  974MOL0     C34317  10.397   3.160   5.440 -0.2970  1.0407  0.1668
  974MOL0     C34318  10.378   3.012   5.456  0.3384  0.4375  0.3603
  974MOL0    Cl34319  10.236   2.961   5.336 -0.4680  0.4409  0.0672
  974MOL0     C34320  10.777   4.075   5.729 -0.1500 -0.6299  0.5589
  974MOL0     C34321  10.751   4.222   5.743  0.1351  0.0401  0.2420
  974MOL0     O34322  10.651   4.447   5.483  0.0214 -0.0975  0.5979
  974MOL0     C34323  10.629   4.722   5.476  0.9092 -0.6540  0.0416
  974MOL0     C34324  10.600   4.857   5.481  0.0729 -0.2342 -0.4832
  974MOL0     N34325  10.260   5.600   5.649 -0.1467 -0.3970  0.4548
  974MOL0     N34326  10.141   5.630   5.652  0.6718 -0.1228 -0.3211
  974MOL0     C34327   9.219   5.926   5.897 -0.8168 -0.2100 -0.1249
  974MOL0     C34328   9.090   5.914   5.940  0.2481 -0.2058 -0.3163
  974MOL0     C34329   8.723   6.008   6.214 -0.6804 -0.6457 -0.2094
  974MOL0     C34330   8.641   6.117   6.249  0.3641 -0.7366 -0.2186
  974MOL0     C34331   8.517   6.108   6.315 -0.0608 -0.2603 -0.5908
  974MOL0     C34332   8.469   5.980   6.350 -0.0700  0.6151 -1.0140
  974MOL0     O34333   8.355   5.979   6.431  0.1930 -0.1313 -0.3022
  974MOL0     C34334   8.296   5.853   6.467  0.0096 -0.3692 -0.4167
  974MOL0     C34335   8.149   5.871   6.495 -0.2959  0.2196 -0.0909
  974MOL0     C34336   8.064   5.944   6.395  0.1324 -0.3711 -0.4476
  974MOL0     C34337   7.922   5.967   6.447  0.1076  0.4507  0.4917
  974MOL0     C34338   7.826   5.988   6.341 -0.6005  0.7480  0.7996
  974MOL0     C34339   7.760   5.998   6.240 -0.6738  0.5638  0.0499
  974MOL0     C34340   8.542   5.868   6.304 -0.2524  0.0365 -0.2160
  974MOL0     C34341   8.667   5.882   6.246  1.5142 -0.5493 -0.1328
  974MOL0     C34342   8.717   5.738   6.197 -0.4742 -0.0358 -0.1532
  974MOL0     H34343   9.126   6.090   6.230  0.3741  1.7243 -0.0221
  974MOL0     H34344   9.334   6.153   6.126 -0.7938  2.0069 -2.3174
  974MOL0     H34345   9.561   6.055   6.057 -1.2744  1.1162  1.2036
  974MOL0     H34346   9.502   6.210   6.008 -2.0071 -1.0865  2.2928
  974MOL0     H34347   9.609   6.191   5.788 -1.9602  0.5703  0.8029
  974MOL0     H34348   9.731   6.173   5.912  0.9740  2.5416 -4.5123
  974MOL0     H34349   9.665   5.905   5.884 -2.4669  1.4280  1.1600
  974MOL0     H34350   9.606   5.966   5.720 -2.4454 -0.3692  0.5268
  974MOL0     H34351   9.833   6.081   5.708 -1.2581 -0.5050 -2.0929
  974MOL0     H34352   9.892   5.970   5.836  0.6566  2.0760 -0.7262
  974MOL0     H34353   9.746   5.903   5.574  1.2052 -1.4816 -1.9800
  974MOL0     H34354   9.816   5.782   5.682 -0.0603  0.8745  1.2626
  974MOL0     H34355   9.976   5.996   5.535 -0.8243 -0.6935 -0.3682
  974MOL0     H34356  10.046   5.876   5.621  1.3846 -0.3660 -1.9079
  974MOL0     H34357  10.054   5.826   5.381  0.1792  0.5490  0.9568
  974MOL0     H34358   9.876   5.811   5.374 -0.2612 -0.7948  0.4314
  974MOL0     H34359   9.888   5.621   5.542  1.2016 -4.9666 -0.8764
  974MOL0     H34360   9.939   5.592   5.386 -0.0279  0.5967  0.5681
  974MOL0     H34361  10.225   5.566   5.330 -1.9392 -0.6114 -1.3206
  974MOL0     H34362  10.513   5.552   5.550  0.4574  0.4962  0.0893
  974MOL0     H34363  10.461   5.549   5.379 -0.7494  1.4983  1.3574
  974MOL0     H34364  10.382   5.314   5.560  0.8334  0.4720  1.2273
  974MOL0     H34365  10.410   5.316   5.385 -1.3470  1.2429 -0.8843
  974MOL0     H34366  10.664   5.341   5.443  0.2656 -0.5011 -0.3852
  974MOL0     H34367  10.622   5.316   5.614  1.3006 -2.5626  0.1683
  974MOL0     H34368  10.513   5.103   5.457 -0.6476 -0.0464 -0.8456
  974MOL0     H34369  10.671   5.146   5.395 -1.6879 -1.1312 -0.7557
  974MOL0     H34370  10.784   4.931   5.760 -2.3358  0.7904  0.7782
  974MOL0     H34371  10.875   4.753   5.867 -2.5748 -0.7354  1.3254
  974MOL0     H34372  10.931   4.616   5.775  0.5685 -0.3177 -1.7324
  974MOL0     H34373  10.774   4.609   5.869  1.4428 -1.7471 -0.0301
  974MOL0     H34374  10.934   4.311   5.475  0.7293 -1.2586 -0.5400
  974MOL0     H34375  10.973   4.073   5.460 -1.6112  3.0156 -2.3778
  974MOL0     H34376  10.703   3.826   5.723  1.0613  2.1573 -0.1609
  974MOL0     H34377  10.674   3.837   5.553  0.1199 -0.1026 -0.1976
  974MOL0     H34378  10.850   3.635   5.544 -0.5598 -0.7997  0.4438
  974MOL0     H34379  10.800   3.594   5.706  5.7638 -0.3220 -1.4063
  974MOL0     H34380  10.614   3.618   5.470  1.9619 -2.4795 -1.1738
  974MOL0     H34381  10.565   3.600   5.641 -2.1417 -1.7490 -1.3098
  974MOL0     H34382  10.678   3.367   5.660  4.1903 -0.6807 -0.0810
  974MOL0     H34383  10.744   3.401   5.496 -0.9276  0.4875 -1.7716
  974MOL0     H34384  10.440   3.411   5.548 -0.8788  1.4483 -2.8499
  974MOL0     H34385  10.545   3.388   5.399  0.7895 -3.0454 -0.5607
  974MOL0     H34386  10.514   3.188   5.620  3.5632  2.5071  1.9235
  974MOL0     H34387  10.617   3.171   5.479  2.1552  2.8579  3.4484
  974MOL0     H34388  10.417   3.185   5.335  0.3838  0.2669  0.1011
  974MOL0     H34389  10.307   3.214   5.468  0.7236  2.0682  1.5989
  974MOL0     H34390  10.356   2.991   5.561  1.0415  0.0912  0.4467
  974MOL0     H34391  10.461   2.942   5.444 -1.3650 -2.1084  2.1902
  974MOL0     H34392  10.727   4.017   5.806  0.3330  0.4734  1.7288
  974MOL0     H34393  10.702   4.259   5.833  0.2239 -2.7591  1.5678
  974MOL0     H34394  10.571   4.671   5.400 -0.4821 -2.9250  2.4437
  974MOL0     H34395  10.541   4.909   5.406  1.1674  2.5713  0.4853
  974MOL0     H34396   9.257   5.873   5.810 -1.6660 -2.0256  0.5578
  974MOL0     H34397   9.024   5.840   5.894  1.0003 -1.2513  0.2257
  974MOL0     H34398   8.670   6.221   6.238 -1.8917  0.1281  1.4656
  974MOL0     H34399   8.469   6.197   6.356 -0.1495 -0.8361  0.6107
  974MOL0     H34400   8.306   5.796   6.374  0.9172  2.2708 -2.0579
  974MOL0     H34401   8.337   5.819   6.562 -0.3732 -2.1285 -0.8350
  974MOL0     H34402   8.139   5.921   6.592 -1.5010 -1.3041  0.6170
  974MOL0     H34403   8.108   5.773   6.519  1.6062 -0.1387  2.1673
  974MOL0     H34404   8.110   6.042   6.379 -0.6802 -0.1194 -1.3969
  974MOL0     H34405   8.063   5.903   6.293  1.6677 -0.2222 -0.5418
  974MOL0     H34406   7.913   6.053   6.515 -1.5025  2.3050 -1.8976
  974MOL0     H34407   7.886   5.873   6.492 -0.5086 -1.1903 -3.1024
  974MOL0     H34408   7.701   5.996   6.151 -1.7823  0.7311  0.7496
  974MOL0     H34409   8.495   5.772   6.324 -2.5511  1.0798 -0.2295
  974MOL0     H34410   8.773   5.745   6.103  0.6976 -1.4025  0.4111
  974MOL0     H34411   8.763   5.689   6.283 -2.7229  2.9803  3.0709
  974MOL0     H34412   8.633   5.677   6.162 -0.5011  0.6505 -1.3359
  975MOL0     O34413   7.688   8.037  11.018 -0.0132 -0.2431  0.3680
  975MOL0     C34414   7.667   7.986  11.123 -0.3079  0.3731  0.5092
  975MOL0     O34415   7.755   7.997  11.227 -0.7889  0.1076  0.5169
  975MOL0     C34416   7.888   7.999  11.203 -0.6670  0.1669  0.0201
  975MOL0     C34417   7.949   7.905  11.118 -0.1344 -0.0167 -0.7460
  975MOL0     C34418   8.086   7.917  11.092  0.2097 -0.6965 -0.3370
  975MOL0     C34419   8.164   8.022  11.163  0.1653 -0.3144 -0.0612
  975MOL0     O34420   8.302   8.038  11.154 -0.6057 -0.1213  0.3214
  975MOL0     C34421   8.347   8.074  11.026 -0.0919  0.6192 -0.4666
  975MOL0     C34422   8.465   8.166  11.031  0.0832 -0.1645  0.4239
  975MOL0     C34423   8.525   8.212  10.893 -1.1254 -0.2016 -0.1890
  975MOL0     C34424   8.664   8.283  10.908  1.0723 -0.1500 -0.6031
  975MOL0     C34425   8.776   8.251  10.805  0.4651 -0.3100 -0.1362
  975MOL0     C34426   8.748   8.300  10.663 -0.1985  0.3156 -0.4072
  975MOL0     C34427   8.865   8.273  10.565 -0.6042  0.1794 -0.4688
  975MOL0     C34428   8.883   8.388  10.464 -0.5385 -0.1173  0.3636
  975MOL0     N34429   9.000   8.357  10.382  0.0267 -0.1931 -0.0302
  975MOL0     C34430   9.117   8.422  10.411  0.2150  0.6308 -0.3468
  975MOL0     C34431   9.214   8.352  10.351  0.5767  0.0312  0.4569
  975MOL0     C34432   9.360   8.379  10.347  0.0799 -0.8932 -0.1347
  975MOL0     C34433   9.380   8.481  10.239  1.0651  0.1720 -0.0669
  975MOL0     C34434   9.521   8.526  10.193  0.1317  0.5003 -0.1321
  975MOL0     C34435   9.588   8.415  10.120  0.1897 -0.6192 -0.6791
  975MOL0     O34436   9.508   8.390  10.003  0.1697 -0.0501  0.3115
  975MOL0     C34437   9.477   8.257   9.976 -0.2454  0.1517  0.8957
  975MOL0     C34438   9.521   8.199   9.854 -0.7793 -0.1444 -0.6199
  975MOL0     C34439   9.494   8.068   9.817 -1.0496 -0.7688 -0.5880
  975MOL0     C34440   9.565   8.008   9.696  0.1385  0.5515  0.6181
  975MOL0     C34441   9.403   8.003   9.897  0.0510  0.1061  0.3945
  975MOL0     C34442   9.345   7.861   9.857  1.1911 -0.0002 -0.8854
  975MOL0     O34443   9.274   7.790   9.957  0.1683  0.1287  0.3251
  975MOL0     C34444   9.193   7.684   9.914  0.2764  0.5352  0.4703
  975MOL0     C34445   9.046   7.684   9.903 -0.4396 -0.0736 -1.1281
  975MOL0     C34446   8.969   7.576   9.866  0.0367  0.1350  0.6961
  975MOL0     C34447   9.035   7.459   9.843  0.1298  1.0845  0.6279
  975MOL0     O34448   8.985   7.334   9.802  0.1393  0.4411 -0.4669
  975MOL0     C34449   8.845   7.327   9.800 -0.3464 -0.2947 -0.2282
  975MOL0     C34450   8.790   7.195   9.753 -0.0051  0.6900 -1.0791
  975MOL0     C34451   8.837   7.080   9.838  0.6212  1.0453  0.7719
  975MOL0     C34452   8.845   7.098   9.990 -0.8814 -1.1813  0.3095
  975MOL0     C34453   8.913   6.986  10.063 -0.2325  0.2167  0.2621
  975MOL0     C34454   8.892   6.975  10.210 -0.6952 -0.0148  0.4266
  975MOL0     C34455   8.955   7.094  10.277 -0.9188  0.1108 -0.3922
  975MOL0     C34456   8.971   7.091  10.424  0.6540  0.8465 -0.3170
  975MOL0    Cl34457   9.072   6.965  10.490 -0.2575  0.1179 -0.0245
  975MOL0     C34458   9.177   7.450   9.850  0.3888 -0.4423 -0.4808
  975MOL0     C34459   9.259   7.562   9.882  0.0187  0.1577  0.8560
  975MOL0     O34460   9.357   7.832   9.740 -0.0823  0.5785 -0.0149
  975MOL0     C34461   9.353   8.054  10.021  0.0523  0.0181  0.0357
  975MOL0     C34462   9.411   8.172  10.068 -0.0655 -0.0307  0.3717
  975MOL0     N34463   9.152   8.244  10.280 -0.4384  0.4618  0.2115
  975MOL0     N34464   9.028   8.241  10.316 -0.5765  0.0542 -0.1818
  975MOL0     C34465   8.094   8.110  11.240 -0.1572 -0.7585 -0.4261
  975MOL0     C34466   7.958   8.102  11.264 -0.2845  0.3959 -0.3907
  975MOL0     C34467   7.550   7.893  11.134 -0.2792  0.7725 -0.1609
  975MOL0     C34468   7.504   7.867  11.262  0.2388  1.1454  0.2087
  975MOL0     C34469   7.408   7.773  11.292  0.1778  0.7014 -0.6501
  975MOL0     C34470   7.335   7.703  11.191 -0.6010  0.0867 -0.2511
  975MOL0     O34471   7.228   7.623  11.226 -0.3144  0.1082 -0.3413
  975MOL0     C34472   7.169   7.531  11.130  0.0626 -0.2491 -0.5690
  975MOL0     C34473   7.044   7.599  11.060 -0.3169 -0.5361  0.3024
  975MOL0     C34474   6.922   7.616  11.146  0.0992 -0.0283 -0.1181
  975MOL0     C34475   6.794   7.657  11.070 -0.4263 -0.3160  0.8085
  975MOL0     C34476   6.804   7.787  11.006 -0.0284  0.2656  0.2422
  975MOL0     C34477   6.827   7.892  10.947 -0.5679 -0.1247 -0.7522
  975MOL0     C34478   7.371   7.737  11.059 -1.0198  0.6582 -0.2157
  975MOL0     C34479   7.481   7.819  11.027  0.2766 -0.5810  0.0392
  975MOL0     C34480   7.520   7.826  10.883  0.1498  0.1029 -0.4560
  975MOL0     H34481   7.890   7.822  11.080 -3.7700  0.4450  3.2284
  975MOL0     H34482   8.122   7.838  11.026 -0.5699 -0.4104 -1.1135
  975MOL0     H34483   8.263   8.117  10.972 -1.3630 -0.3666  0.6614
  975MOL0     H34484   8.390   7.985  10.979  2.9439  0.7640  1.7268
  975MOL0     H34485   8.436   8.257  11.084 -0.9440 -0.3173  0.1350
  975MOL0     H34486   8.539   8.112  11.091 -0.4044 -0.5506  0.6772
  975MOL0     H34487   8.558   8.114  10.854 -0.1763 -0.0537  0.2135
  975MOL0     H34488   8.456   8.264  10.826 -1.0497  1.5888  1.0687
  975MOL0     H34489   8.643   8.390  10.921 -3.4705 -0.9766  0.7716
  975MOL0     H34490   8.697   8.264  11.011 -0.4114  3.0907  0.6145
  975MOL0     H34491   8.788   8.143  10.794  1.3271 -0.1213 -1.1654
  975MOL0     H34492   8.873   8.289  10.839 -1.0614  0.8704  3.3777
  975MOL0     H34493   8.662   8.243  10.627 -0.9215 -0.0996  1.7794
  975MOL0     H34494   8.729   8.408  10.668 -0.4002  0.3330 -1.4881
  975MOL0     H34495   8.848   8.178  10.514  1.3856 -0.5067  0.0507
  975MOL0     H34496   8.961   8.260  10.616 -0.6342  1.0620 -0.1686
  975MOL0     H34497   8.796   8.375  10.399  1.0250  1.7677 -2.2973
  975MOL0     H34498   8.884   8.485  10.514  0.3714  0.1946 -0.2364
  975MOL0     H34499   9.131   8.514  10.468  0.7039 -0.0085  0.5858
  975MOL0     H34500   9.415   8.284  10.337 -0.4726 -1.4094  1.3565
  975MOL0     H34501   9.393   8.422  10.442  0.0522 -0.0535 -0.5060
  975MOL0     H34502   9.333   8.439  10.150 -0.3657 -1.0628  1.2238
  975MOL0     H34503   9.327   8.570  10.274 -0.9469 -0.7734 -0.5655
  975MOL0     H34504   9.505   8.617  10.136 -3.3978 -0.5478 -1.1279
  975MOL0     H34505   9.586   8.549  10.278  2.2056 -0.5971 -1.3676
  975MOL0     H34506   9.681   8.456  10.079  0.2066  1.6737  1.4295
  975MOL0     H34507   9.606   8.329  10.184 -0.4941  1.0498  1.9034
  975MOL0     H34508   9.586   8.264   9.797 -1.0184 -0.0965 -0.8379
  975MOL0     H34509   9.601   7.907   9.721 -3.1379 -0.6825  0.9103
  975MOL0     H34510   9.656   8.065   9.676 -2.7346  5.1177 -0.8480
  975MOL0     H34511   9.506   7.997   9.605  0.8969 -0.8896  0.2610
  975MOL0     H34512   8.996   7.776   9.931  1.0916  0.0598  1.4988
  975MOL0     H34513   8.861   7.578   9.869 -0.2507 -4.5778  1.6149
  975MOL0     H34514   8.813   7.349   9.902 -3.3518 -3.2613 -0.3610
  975MOL0     H34515   8.809   7.401   9.728  1.5560 -0.8401 -1.8551
  975MOL0     H34516   8.681   7.200   9.749 -0.0635 -0.8698 -2.8879
  975MOL0     H34517   8.814   7.199   9.646  2.1782  0.3511 -0.6515
  975MOL0     H34518   8.938   7.057   9.804  1.1301  1.4896  1.9347
  975MOL0     H34519   8.771   6.996   9.818 -0.6808  2.4904 -1.5530
  975MOL0     H34520   8.750   7.120  10.041 -1.5699  3.2268 -2.3106
  975MOL0     H34521   8.908   7.186  10.008 -0.8615 -1.5217  2.1358
  975MOL0     H34522   8.878   6.894  10.014  2.8232 -0.3942 -1.0438
  975MOL0     H34523   9.021   6.989  10.045 -0.2649  0.8317  0.1715
  975MOL0     H34524   8.947   6.886  10.241 -0.8799 -0.5624 -0.7741
  975MOL0     H34525   8.785   6.960  10.228 -0.7817 -0.3510 -0.3630
  975MOL0     H34526   8.903   7.185  10.246  0.4714  0.7738 -0.8726
  975MOL0     H34527   9.057   7.109  10.239 -1.2587  1.2358 -0.8995
  975MOL0     H34528   8.873   7.090  10.473  0.8543  2.7747  0.1778
  975MOL0     H34529   9.011   7.185  10.462 -2.2878  0.9574  3.1361
  975MOL0     H34530   9.224   7.355   9.829 -0.1907 -1.0324  0.7741
  975MOL0     H34531   9.366   7.554   9.866 -0.3008 -1.2681 -0.8813
  975MOL0     H34532   9.281   8.000  10.082  0.7934  0.5822  1.4597
  975MOL0     H34533   9.365   8.212  10.158 -3.6944 -0.3225 -1.1861
  975MOL0     H34534   8.147   8.186  11.297  3.7404 -3.0669 -0.5843
  975MOL0     H34535   7.924   8.175  11.337 -0.2055 -1.4931  1.6470
  975MOL0     H34536   7.533   7.907  11.359 -2.3549 -2.1779  2.5754
  975MOL0     H34537   7.387   7.761  11.398  1.3566  1.4744 -0.3024
  975MOL0     H34538   7.244   7.498  11.058  2.9428  0.8678  1.6963
  975MOL0     H34539   7.145   7.450  11.200 -1.2442 -1.2201 -2.0843
  975MOL0     H34540   7.012   7.535  10.977 -1.7193 -0.6631  0.9171
  975MOL0     H34541   7.076   7.698  11.026 -2.1535  0.1764  0.5777
  975MOL0     H34542   6.901   7.513  11.176  0.1225  0.2139  0.7501
  975MOL0     H34543   6.929   7.680  11.234 -1.9604  0.1265 -0.0166
  975MOL0     H34544   6.717   7.656  11.147 -0.2285 -0.3784  1.0066
  975MOL0     H34545   6.771   7.580  10.995 -1.5494 -1.9881  2.7816
  975MOL0     H34546   6.858   7.978  10.893  3.4138 -1.5257 -1.0083
  975MOL0     H34547   7.329   7.677  10.979 -3.1701  0.5120  0.9675
  975MOL0     H34548   7.628   7.808  10.874  0.3958  1.8722 -1.6116
  975MOL0     H34549   7.465   7.747  10.831  0.9225 -0.1505 -0.9063
  975MOL0     H34550   7.487   7.919  10.836 -0.2230  1.0176  1.5206
  976MOL0     O34551  10.712   3.300   0.753  0.7159  0.1835 -0.5421
  976MOL0     C34552  10.794   3.215   0.728  0.1958 -0.3774 -0.4135
  976MOL0     O34553  10.820   3.109   0.805  0.0075  0.2458  0.0839
  976MOL0     C34554  10.802   3.126   0.937 -0.9725  0.0970  0.8762
  976MOL0     C34555  10.918   3.130   1.022  0.2660  0.5073 -1.3492
  976MOL0     C34556  10.900   3.145   1.159  0.2086  0.3348 -0.3994
  976MOL0     C34557  10.768   3.155   1.211  0.4530 -0.0658 -0.8059
  976MOL0     O34558  10.763   3.171   1.349 -0.2933  0.5451  0.2743
  976MOL0     C34559  10.638   3.153   1.422 -0.0011  0.8483 -0.0211
  976MOL0     C34560  10.640   3.211   1.564  0.5246  1.1014 -0.1770
  976MOL0     C34561  10.699   3.119   1.669 -0.3638  0.0509  0.4032
  976MOL0     C34562  10.610   2.992   1.700  0.1016 -0.0928 -0.1246
  976MOL0     C34563  10.691   2.904   1.795 -0.2692  0.3100 -0.4055
  976MOL0     C34564  10.795   2.826   1.706 -0.2210  1.7601  0.2732
  976MOL0     C34565  10.869   2.724   1.800  0.1258 -0.5297 -0.1666
  976MOL0     C34566  10.963   2.790   1.904 -0.0292  0.3534 -0.8366
  976MOL0     N34567  11.039   2.675   1.960 -0.1300  0.0728 -0.2320
  976MOL0     C34568  11.175   2.672   1.928 -1.2411  0.2920 -0.8252
  976MOL0     C34569  11.219   2.593   2.031  1.3492  0.2610  0.2042
  976MOL0     C34570  11.358   2.544   2.052 -0.1819 -0.3521 -0.3807
  976MOL0     C34571  11.376   2.394   2.079  0.0468 -0.4679 -0.7038
  976MOL0     C34572  11.415   2.313   1.956  0.4290  0.2112 -0.1453
  976MOL0     C34573  11.556   2.328   1.914 -0.2427 -0.5224 -0.8242
  976MOL0     O34574  11.634   2.272   2.020 -0.5086  0.1513  0.0679
  976MOL0     C34575  11.775   2.274   2.025 -0.0366  0.3568 -0.8416
  976MOL0     C34576  11.845   2.204   2.126 -0.5190 -0.5725  0.5214
  976MOL0     C34577  11.974   2.179   2.117 -0.1147 -0.2555 -0.2807
  976MOL0     C34578  12.034   2.090   2.233 -0.7188 -0.2773 -0.2494
  976MOL0     C34579  12.052   2.235   2.013 -0.0819  0.5892 -0.2340
  976MOL0     C34580  12.198   2.212   2.001 -0.4341  0.2717  0.4373
  976MOL0     O34581  12.268   2.133   2.088  0.8622 -0.1899 -0.2182
  976MOL0     C34582  12.407   2.138   2.070 -0.0746 -0.1317  0.1799
  976MOL0     C34583  12.460   2.041   1.976  0.4968  0.2138 -1.1243
  976MOL0     C34584  12.605   2.037   1.957 -0.0808 -0.1870  0.2511
  976MOL0     C34585  12.694   2.127   2.034  0.1091  0.6301 -0.3957
  976MOL0     O34586  12.828   2.133   2.028 -0.1154  0.3826 -0.2745
  976MOL0     C34587  12.905   2.012   1.990 -0.1033 -0.6757  0.0186
  976MOL0     C34588  13.042   2.057   2.036  0.7700  0.5880 -0.0598
  976MOL0     C34589  13.149   1.955   2.006 -1.0586  0.5089  0.1293
  976MOL0     C34590  13.202   1.960   1.865 -0.1988 -0.0125  0.0075
  976MOL0     C34591  13.275   1.828   1.822 -0.2229 -0.0695  0.4306
  976MOL0     C34592  13.390   1.788   1.914 -0.1877 -0.2359 -0.7470
  976MOL0     C34593  13.512   1.882   1.894 -0.5121 -0.2707 -1.1504
  976MOL0     C34594  13.609   1.844   2.000 -0.1584 -0.5562  0.1679
  976MOL0    Cl34595  13.772   1.912   1.974 -0.0506  0.6671 -0.6537
  976MOL0     C34596  12.635   2.215   2.121 -0.0631 -0.0791 -0.9469
  976MOL0     C34597  12.497   2.218   2.139  0.0745  0.0707 -0.5035
  976MOL0     O34598  12.256   2.281   1.914 -0.0319  0.4708  0.2443
  976MOL0     C34599  11.986   2.317   1.920 -0.5296  0.5905  0.4236
  976MOL0     C34600  11.852   2.339   1.927  0.7672  0.7473  0.6027
  976MOL0     N34601  11.117   2.567   2.121  0.5762 -0.5362  0.6235
  976MOL0     N34602  11.005   2.615   2.076 -0.2401 -0.6628 -0.6271
  976MOL0     C34603  10.661   3.135   1.123 -0.4313 -0.8606 -0.4118
  976MOL0     C34604  10.673   3.124   0.986 -1.0990  0.7775 -0.0769
  976MOL0     C34605  10.856   3.217   0.586 -0.0133 -0.5649 -0.2860
  976MOL0     C34606  10.909   3.100   0.546  0.3083 -0.3873 -0.0248
  976MOL0     C34607  10.982   3.086   0.423 -0.5587  1.0853  0.0593
  976MOL0     C34608  11.002   3.201   0.340 -0.3554 -0.2331  0.4404
  976MOL0     O34609  11.072   3.202   0.223 -0.5852 -0.6441 -0.0366
  976MOL0     C34610  11.077   3.082   0.138  0.2521 -0.0908 -0.3837
  976MOL0     C34611  10.945   3.075   0.051  0.3359  0.5545 -0.2967
  976MOL0     C34612  10.928   3.187  -0.051 -0.2641 -0.7553  0.0170
  976MOL0     C34613  10.784   3.223  -0.095  0.0272  0.4347  0.1024
  976MOL0     C34614  10.795   3.347  -0.175 -0.0501 -0.6276 -0.1720
  976MOL0     C34615  10.805   3.454  -0.228 -0.0185 -0.3818  0.6909
  976MOL0     C34616  10.954   3.324   0.385  0.1579  0.0857 -0.1525
  976MOL0     C34617  10.875   3.335   0.504  1.0473 -0.0417  0.4116
  976MOL0     C34618  10.815   3.465   0.537  0.3050  0.0099 -0.2439
  976MOL0     H34619  11.020   3.125   0.985  1.2725  0.9296  1.1487
  976MOL0     H34620  10.967   3.134   1.244 -0.0018  0.4784 -0.2175
  976MOL0     H34621  10.622   3.045   1.416  3.4345  0.2337 -0.3917
  976MOL0     H34622  10.555   3.199   1.367 -2.0950 -0.3663  1.9517
  976MOL0     H34623  10.698   3.304   1.566  1.9389  0.3216 -2.0589
  976MOL0     H34624  10.536   3.233   1.590 -0.3637 -1.4476 -1.2948
  976MOL0     H34625  10.803   3.102   1.640 -0.6282 -2.6527  0.7685
  976MOL0     H34626  10.706   3.173   1.764 -2.9979 -2.6872  2.3638
  976MOL0     H34627  10.516   3.026   1.743 -0.2554 -2.5045  1.1922
  976MOL0     H34628  10.582   2.936   1.610  1.0895  0.8409 -1.0392
  976MOL0     H34629  10.632   2.824   1.841  0.8814 -1.4748 -1.8901
  976MOL0     H34630  10.747   2.967   1.864  2.7031  0.7837 -3.0136
  976MOL0     H34631  10.737   2.775   1.629  1.2745  1.2985 -0.5725
  976MOL0     H34632  10.868   2.891   1.656  1.0914 -0.8227 -1.3545
  976MOL0     H34633  10.927   2.660   1.733  1.0700 -0.4982  0.5943
  976MOL0     H34634  10.791   2.668   1.853  0.8197 -1.3474  0.0061
  976MOL0     H34635  11.025   2.862   1.850 -0.6151  0.9800 -0.6956
  976MOL0     H34636  10.897   2.832   1.981  0.4636 -2.9668  1.5990
  976MOL0     H34637  11.231   2.695   1.838  1.8258 -1.8871  0.3562
  976MOL0     H34638  11.393   2.595   2.143 -2.0355  0.4767 -0.0983
  976MOL0     H34639  11.435   2.566   1.977  3.6365 -3.5735  2.1193
  976MOL0     H34640  11.450   2.375   2.158 -0.7406 -1.7943 -0.2679
  976MOL0     H34641  11.284   2.358   2.124  0.3502 -0.5152 -0.1121
  976MOL0     H34642  11.403   2.207   1.981 -0.7417  0.4606  0.4284
  976MOL0     H34643  11.348   2.347   1.877  1.6590  2.1689 -0.4077
  976MOL0     H34644  11.559   2.281   1.816 -0.1538  0.0818 -1.1162
  976MOL0     H34645  11.576   2.436   1.909 -3.6927  0.8140  4.9642
  976MOL0     H34646  11.771   2.172   2.199 -3.4942 -0.1172 -2.0508
  976MOL0     H34647  12.099   2.151   2.298 -4.7795  3.0334  1.1549
  976MOL0     H34648  12.079   1.999   2.192  1.5191  0.6793 -0.0558
  976MOL0     H34649  11.958   2.057   2.304  1.7007 -0.2583  2.5805
  976MOL0     H34650  12.394   1.976   1.921  0.7684  0.2210 -1.4633
  976MOL0     H34651  12.653   1.962   1.895  4.4036  1.7464  0.9668
  976MOL0     H34652  12.871   1.920   2.038 -1.1380 -0.0001  0.6235
  976MOL0     H34653  12.905   2.000   1.881  2.4509 -0.2473 -0.1040
  976MOL0     H34654  13.066   2.161   2.012  2.2145  0.7396  1.8215
  976MOL0     H34655  13.040   2.063   2.145 -0.5455  1.5809 -0.1190
  976MOL0     H34656  13.110   1.856   2.031  1.8505  0.4503  6.7755
  976MOL0     H34657  13.234   1.969   2.074 -0.8412  2.7505 -0.5438
  976MOL0     H34658  13.274   2.040   1.847  2.9546 -1.6220  4.0425
  976MOL0     H34659  13.122   1.977   1.792  1.2064  0.4560 -1.4938
  976MOL0     H34660  13.203   1.745   1.815 -1.5530  1.1007 -0.1990
  976MOL0     H34661  13.309   1.852   1.721  0.7689 -1.0847  0.4975
  976MOL0     H34662  13.409   1.686   1.881  1.6529  0.3297 -1.5396
  976MOL0     H34663  13.361   1.777   2.019 -3.5229 -2.8820 -1.7700
  976MOL0     H34664  13.477   1.985   1.910 -0.0520 -0.3905  0.9124
  976MOL0     H34665  13.550   1.875   1.792 -2.7240  0.1190 -2.0629
  976MOL0     H34666  13.615   1.734   1.995  1.5127 -0.4770 -0.0042
  976MOL0     H34667  13.569   1.874   2.098  3.8556 -0.4027  1.9563
  976MOL0     H34668  12.703   2.277   2.178  0.0718 -0.5484 -0.5897
  976MOL0     H34669  12.458   2.292   2.208  1.6635  3.4605 -2.9146
  976MOL0     H34670  12.049   2.352   1.839  0.0092 -0.2947  0.4394
  976MOL0     H34671  11.817   2.399   1.843  2.2046 -0.1339 -0.6824
  976MOL0     H34672  10.555   3.134   1.149 -0.4376 -1.2398 -0.4458
  976MOL0     H34673  10.581   3.105   0.932 -1.1176 -1.4127  0.6343
  976MOL0     H34674  10.922   3.012   0.609  4.7791  1.6398  2.3493
  976MOL0     H34675  11.024   2.987   0.407 -1.7171 -0.0996  3.3934
  976MOL0     H34676  11.165   3.099   0.076 -0.8233  1.8145 -1.4952
  976MOL0     H34677  11.089   2.993   0.200 -1.1765  0.0135  0.0838
  976MOL0     H34678  10.861   3.061   0.119  1.3292 -0.1466  0.8326
  976MOL0     H34679  10.944   2.979  -0.002  0.9630  1.0248 -1.1762
  976MOL0     H34680  10.960   3.283  -0.011 -0.1973 -2.1828  3.8098
  976MOL0     H34681  10.991   3.164  -0.137  0.7627  0.0982  0.5120
  976MOL0     H34682  10.729   3.247  -0.004  2.9697  0.3388  2.0375
  976MOL0     H34683  10.736   3.139  -0.147 -3.0157 -0.2633  3.5905
  976MOL0     H34684  10.809   3.545  -0.284  3.5275  0.3978  2.0087
  976MOL0     H34685  10.997   3.408   0.332 -0.5305  0.9106  0.5594
  976MOL0     H34686  10.865   3.504   0.626 -2.3830  2.5367  0.3129
  976MOL0     H34687  10.831   3.536   0.456 -1.3020 -2.7230 -3.1899
  976MOL0     H34688  10.709   3.458   0.565  0.2622  1.6410  0.0875
  977MOL0     O34689   9.852   8.050   2.326 -0.2053 -0.6638  0.2810
  977MOL0     C34690   9.792   8.003   2.428 -0.1660 -0.2128 -0.3209
  977MOL0     O34691   9.837   7.907   2.519  0.2057 -0.3223 -0.0016
  977MOL0     C34692   9.957   7.850   2.504  0.3204  0.2214  0.0476
  977MOL0     C34693  10.025   7.800   2.617  0.2553 -0.8485  0.2857
  977MOL0     C34694  10.147   7.723   2.606 -0.4861 -0.6383  0.3323
  977MOL0     C34695  10.202   7.695   2.479 -0.6046 -0.6487 -0.4551
  977MOL0     O34696  10.311   7.619   2.449  0.1703  0.6434  0.4815
  977MOL0     C34697  10.367   7.514   2.536 -0.6222  0.0292 -0.5866
  977MOL0     C34698  10.471   7.448   2.444 -0.7491 -0.2407 -0.7174
  977MOL0     C34699  10.432   7.347   2.332 -0.4399 -0.5890 -0.3007
  977MOL0     C34700  10.545   7.323   2.236  0.1540  0.1732 -0.1451
  977MOL0     C34701  10.646   7.218   2.288  0.5404 -0.2269 -0.1244
  977MOL0     C34702  10.789   7.210   2.222 -0.0559 -0.3958 -1.0240
  977MOL0     C34703  10.773   7.184   2.070 -0.7004  0.4919  0.0281
  977MOL0     C34704  10.679   7.082   2.014 -0.7136  0.8230 -0.2717
  977MOL0     N34705  10.710   7.063   1.871 -0.0993 -0.1757  0.0203
  977MOL0     C34706  10.816   6.982   1.826 -0.8242 -0.4012 -0.6788
  977MOL0     C34707  10.820   6.997   1.693 -0.3060 -0.3050 -0.4105
  977MOL0     C34708  10.923   6.941   1.604  0.4798  0.0927  0.1085
  977MOL0     C34709  10.849   6.863   1.496  0.3526  0.2061  0.1100
  977MOL0     C34710  10.945   6.829   1.380  0.7411 -0.6464  0.9249
  977MOL0     C34711  10.964   6.955   1.288 -0.9517  0.9290 -0.8813
  977MOL0     O34712  11.059   6.908   1.190  0.2271 -0.1176  0.1716
  977MOL0     C34713  11.143   7.006   1.144  0.3765  0.0711  0.3071
  977MOL0     C34714  11.107   7.142   1.139  0.0861 -0.2453 -0.4069
  977MOL0     C34715  11.185   7.245   1.093 -0.2187 -0.9937  0.5141
  977MOL0     C34716  11.132   7.392   1.102 -0.0345 -0.1406 -0.3699
  977MOL0     C34717  11.309   7.205   1.030  0.2955 -0.0153  0.4387
  977MOL0     C34718  11.385   7.291   0.939 -0.9969 -0.3517 -0.0323
  977MOL0     O34719  11.460   7.217   0.849 -0.0520  0.0606 -0.0017
  977MOL0     C34720  11.585   7.262   0.811 -0.1885  0.1463  0.4264
  977MOL0     C34721  11.688   7.299   0.905  0.0645  1.1592 -0.7074
  977MOL0     C34722  11.813   7.343   0.863  0.3713  0.3153 -0.4403
  977MOL0     C34723  11.844   7.359   0.729 -0.5834 -0.3100  1.3079
  977MOL0     O34724  11.964   7.419   0.705 -0.4166  0.0054  0.9758
  977MOL0     C34725  12.024   7.418   0.571  0.1303  0.2313  0.6240
  977MOL0     C34726  11.979   7.548   0.494  0.3807  0.3531 -0.0753
  977MOL0     C34727  12.008   7.524   0.349 -1.1714  1.0005 -0.5447
  977MOL0     C34728  12.008   7.651   0.267  1.5552 -0.3836 -0.5076
  977MOL0     C34729  12.066   7.637   0.126 -0.8286 -0.3674  0.5404
  977MOL0     C34730  12.058   7.761   0.042  0.3726 -0.4434  0.6869
  977MOL0     C34731  12.136   7.881   0.084 -0.6808 -0.1118  0.0568
  977MOL0     C34732  12.287   7.873   0.110  0.4203 -0.6567  0.7064
  977MOL0    Cl34733  12.344   8.037   0.140  0.2426 -0.0261 -0.0139
  977MOL0     C34734  11.744   7.334   0.629 -0.6353  0.0595 -0.2241
  977MOL0     C34735  11.621   7.280   0.670  0.3103  0.9027 -0.0787
  977MOL0     O34736  11.383   7.414   0.953 -0.0316  0.8275  0.1252
  977MOL0     C34737  11.349   7.071   1.035  0.2436 -0.1377 -0.6323
  977MOL0     C34738  11.261   6.973   1.091 -0.4156  0.2027 -0.4281
  977MOL0     N34739  10.725   7.085   1.658  0.1519 -0.4178  0.2549
  977MOL0     N34740  10.663   7.129   1.763 -0.2418 -0.7243  0.0044
  977MOL0     C34741  10.134   7.742   2.366  0.4346 -0.3675 -0.6157
  977MOL0     C34742  10.009   7.815   2.382 -0.5688  0.6413 -0.1059
  977MOL0     C34743   9.665   8.057   2.462  0.2667  0.8754 -1.2570
  977MOL0     C34744   9.611   8.024   2.588  0.0089  0.5532 -0.3911
  977MOL0     C34745   9.478   8.046   2.618 -0.1251 -0.1443  0.5277
  977MOL0     C34746   9.397   8.108   2.524  0.1920  0.6019  0.6574
  977MOL0     O34747   9.265   8.124   2.550 -0.3163  0.3390  0.1430
  977MOL0     C34748   9.205   8.064   2.668 -0.3435 -0.5044  0.6488
  977MOL0     C34749   9.057   8.097   2.662  0.4472 -0.9912 -0.3431
  977MOL0     C34750   9.032   8.244   2.670  0.6058 -0.4058 -0.3228
  977MOL0     C34751   8.883   8.272   2.688 -0.4881 -0.1436  0.1846
  977MOL0     C34752   8.864   8.414   2.645 -0.3415  0.9403  0.0495
  977MOL0     C34753   8.853   8.517   2.589  0.4142 -0.9706 -0.3590
  977MOL0     C34754   9.453   8.160   2.406 -0.4312  0.0922  0.0344
  977MOL0     C34755   9.583   8.130   2.372  0.8684  0.3821  1.0625
  977MOL0     C34756   9.624   8.170   2.234 -0.4381 -0.1829  0.7603
  977MOL0     H34757   9.980   7.833   2.710 -3.4766  2.0512 -2.2464
  977MOL0     H34758  10.199   7.672   2.686 -1.8060 -2.0349  0.3409
  977MOL0     H34759  10.294   7.445   2.579  0.8823 -0.9232  0.5693
  977MOL0     H34760  10.416   7.566   2.619 -1.6047  1.6601 -0.9952
  977MOL0     H34761  10.516   7.533   2.391 -0.0157 -1.0895 -1.4856
  977MOL0     H34762  10.553   7.421   2.512 -0.8180  2.5196  0.6332
  977MOL0     H34763  10.397   7.255   2.379  0.2934  0.0585  1.6099
  977MOL0     H34764  10.354   7.403   2.280 -0.8143  0.5441  1.3947
  977MOL0     H34765  10.501   7.312   2.136 -2.2747  4.6586  0.1428
  977MOL0     H34766  10.605   7.415   2.238  0.7018 -0.1886  0.3218
  977MOL0     H34767  10.602   7.118   2.282 -1.2206  0.4139  1.1576
  977MOL0     H34768  10.658   7.244   2.394  0.1559  0.6127 -0.2731
  977MOL0     H34769  10.833   7.310   2.228  0.1675 -0.4545 -1.5962
  977MOL0     H34770  10.854   7.137   2.270 -0.2565 -0.2778 -0.5720
  977MOL0     H34771  10.870   7.161   2.026  0.1407 -0.0058  2.0224
  977MOL0     H34772  10.748   7.284   2.033 -2.3658  1.5010  3.4661
  977MOL0     H34773  10.687   6.983   2.061  1.6608  0.5379 -1.1464
  977MOL0     H34774  10.580   7.124   2.033 -0.3211  2.5844 -1.9133
  977MOL0     H34775  10.890   6.924   1.882 -1.7662 -0.6462  0.3510
  977MOL0     H34776  10.991   6.891   1.673  0.7626  2.7322  1.9190
  977MOL0     H34777  10.975   7.030   1.567  1.3793  0.3110  1.8140
  977MOL0     H34778  10.812   6.772   1.544 -0.9980  0.8992  0.4271
  977MOL0     H34779  10.769   6.922   1.451 -2.4034 -3.1761  0.1374
  977MOL0     H34780  11.039   6.789   1.419 -0.9409 -3.1320  2.7610
  977MOL0     H34781  10.899   6.746   1.325 -0.3073 -1.1529  2.4940
  977MOL0     H34782  10.868   6.989   1.248 -0.8327  1.2082 -0.9352
  977MOL0     H34783  11.001   7.037   1.351 -0.3796  0.4778 -0.6149
  977MOL0     H34784  11.014   7.175   1.183 -2.2580 -2.5256 -3.2373
  977MOL0     H34785  11.074   7.412   1.193  2.4004  0.9334  1.0688
  977MOL0     H34786  11.073   7.430   1.018  0.0804  0.9937  0.0411
  977MOL0     H34787  11.210   7.468   1.111  0.0920  0.0321 -2.5439
  977MOL0     H34788  11.670   7.294   1.012  0.2589  1.6249 -0.6500
  977MOL0     H34789  11.899   7.370   0.924 -1.2555 -0.1678  2.2428
  977MOL0     H34790  12.131   7.398   0.578  0.3730  0.8429 -0.9461
  977MOL0     H34791  12.001   7.326   0.516 -2.6826  2.2742 -1.9763
  977MOL0     H34792  11.873   7.566   0.512  0.2822  0.3666 -0.6625
  977MOL0     H34793  12.037   7.636   0.525  1.2420 -0.0049 -0.6485
  977MOL0     H34794  11.945   7.443   0.310 -0.0142  0.2364 -0.8989
  977MOL0     H34795  12.113   7.495   0.344 -0.8736  2.2357 -2.7182
  977MOL0     H34796  12.072   7.725   0.315  3.4932 -1.0447 -1.9322
  977MOL0     H34797  11.907   7.693   0.257  0.9809 -0.9577  2.1164
  977MOL0     H34798  12.167   7.595   0.127 -0.7284 -0.1210  0.7428
  977MOL0     H34799  12.014   7.559   0.069 -0.5487  0.4920 -0.9361
  977MOL0     H34800  11.952   7.783   0.027  0.7589  0.4103 -1.0349
  977MOL0     H34801  12.081   7.725  -0.058  2.1778  2.1113  0.0968
  977MOL0     H34802  12.093   7.905   0.181 -1.2910 -0.6836 -0.0578
  977MOL0     H34803  12.118   7.958   0.008  0.7913 -0.1141 -0.3303
  977MOL0     H34804  12.334   7.834   0.020 -0.2891 -0.7750  0.3817
  977MOL0     H34805  12.308   7.795   0.184  0.0164 -0.7217  0.7519
  977MOL0     H34806  11.768   7.353   0.525 -1.7681  2.3121 -0.1324
  977MOL0     H34807  11.536   7.270   0.602  0.7217  0.5626 -0.5542
  977MOL0     H34808  11.441   7.032   0.994  0.7669 -0.6412  0.9320
  977MOL0     H34809  11.297   6.870   1.090  0.6374  0.5028  1.7683
  977MOL0     H34810  10.164   7.712   2.266 -0.9327  3.4090 -2.3538
  977MOL0     H34811   9.962   7.837   2.287  3.5416  0.6653 -2.3821
  977MOL0     H34812   9.661   7.963   2.662 -3.3876 -1.0438  0.7705
  977MOL0     H34813   9.437   7.996   2.705  0.4356 -0.9114  0.3655
  977MOL0     H34814   9.213   7.955   2.672 -1.8779 -0.6089  2.8687
  977MOL0     H34815   9.248   8.090   2.764 -0.1123  0.3668  0.3210
  977MOL0     H34816   8.979   8.048   2.721 -1.6508  0.8756 -1.3886
  977MOL0     H34817   9.023   8.060   2.565  0.1715  0.6428 -0.8958
  977MOL0     H34818   9.085   8.288   2.755 -0.1000 -0.1731  0.0005
  977MOL0     H34819   9.059   8.291   2.575 -0.5072 -1.5861 -1.2612
  977MOL0     H34820   8.855   8.267   2.793  2.9478  0.3188  1.2555
  977MOL0     H34821   8.829   8.206   2.620  1.1619  1.5589 -3.0078
  977MOL0     H34822   8.822   8.609   2.542 -3.9498 -1.5022  1.0867
  977MOL0     H34823   9.392   8.214   2.335  1.6347  1.9522 -0.4265
  977MOL0     H34824   9.549   8.211   2.167  2.1568 -0.1679 -2.3755
  977MOL0     H34825   9.692   8.253   2.255  1.2068 -0.4021 -2.9718
  977MOL0     H34826   9.677   8.100   2.170 -0.6417  0.5235 -0.2137
  978MOL0     O34827   9.969   7.114   8.477 -0.2706 -0.3713  0.0164
  978MOL0     C34828   9.888   7.128   8.572 -0.5549 -0.2371  1.2336
  978MOL0     O34829   9.854   7.036   8.661 -0.7852 -0.1189 -0.7222
  978MOL0     C34830   9.897   6.911   8.629  0.1912  0.4242 -0.8308
  978MOL0     C34831   9.827   6.824   8.543 -1.2943 -0.2117  0.0013
  978MOL0     C34832   9.879   6.694   8.510  0.8151  0.3029  0.2902
  978MOL0     C34833   9.985   6.645   8.576  0.1629  0.4829  0.3870
  978MOL0     O34834  10.032   6.518   8.530 -0.5714 -0.8797  0.3010
  978MOL0     C34835  10.139   6.456   8.602 -0.2582 -0.4182 -0.9629
  978MOL0     C34836  10.213   6.342   8.521 -0.2768 -0.0516  0.2048
  978MOL0     C34837  10.319   6.258   8.606  0.5494  0.6730  0.2824
  978MOL0     C34838  10.445   6.325   8.659 -0.6590 -0.3586 -0.0998
  978MOL0     C34839  10.563   6.238   8.717 -0.4447 -0.8093  0.5615
  978MOL0     C34840  10.663   6.306   8.798 -0.4992 -0.4907 -0.4583
  978MOL0     C34841  10.785   6.212   8.825  0.1236  0.5750 -0.4222
  978MOL0     C34842  10.864   6.263   8.938 -0.3044  0.1302 -0.5979
  978MOL0     N34843  10.993   6.181   8.954  0.3647 -0.6373 -0.4331
  978MOL0     C34844  11.112   6.198   8.889 -0.9319  0.5743  0.9351
  978MOL0     C34845  11.194   6.092   8.923 -0.2647 -1.0064  1.2255
  978MOL0     C34846  11.338   6.076   8.870 -0.4340 -0.1655  0.1833
  978MOL0     C34847  11.340   6.051   8.720  0.3766  0.1539 -0.0804
  978MOL0     C34848  11.479   6.068   8.659 -0.0215 -0.0360  0.0552
  978MOL0     C34849  11.579   5.972   8.692  0.3355  0.5734  0.0933
  978MOL0     O34850  11.649   5.985   8.814  0.6985  0.1652 -0.2907
  978MOL0     C34851  11.738   5.901   8.866  0.5034  0.4843  0.1715
  978MOL0     C34852  11.781   5.930   8.996  0.3595 -0.4097 -0.2448
  978MOL0     C34853  11.875   5.835   9.049  0.5581 -0.6534 -0.2487
  978MOL0     C34854  11.919   5.856   9.196 -0.2683  0.3608 -0.1879
  978MOL0     C34855  11.931   5.729   8.973  0.2285 -0.5568 -0.0859
  978MOL0     C34856  12.025   5.626   9.037 -0.3449  0.7196  0.0451
  978MOL0     O34857  12.022   5.498   8.981 -0.1952  0.0252 -0.1748
  978MOL0     C34858  12.143   5.435   9.000  0.3023  0.1059 -0.2929
  978MOL0     C34859  12.247   5.460   8.920 -0.3127 -1.0806 -0.0595
  978MOL0     C34860  12.375   5.393   8.931  0.3263  0.1312  0.1527
  978MOL0     C34861  12.395   5.300   9.032  0.8850  0.6480 -0.5396
  978MOL0     O34862  12.512   5.230   9.045 -0.8555  1.9969  0.3104
  978MOL0     C34863  12.503   5.093   9.084  0.9024  0.2703 -1.1420
  978MOL0     C34864  12.641   5.040   9.042 -0.9731 -0.3008  0.5699
  978MOL0     C34865  12.657   4.890   9.013  0.0958 -0.7158 -0.2321
  978MOL0     C34866  12.806   4.833   9.013 -0.1020 -0.0814 -0.6689
  978MOL0     C34867  12.886   4.880   8.895 -0.1961  0.1515 -0.1125
  978MOL0     C34868  13.037   4.854   8.913 -0.0804 -0.0961 -0.1686
  978MOL0     C34869  13.085   4.711   8.911  0.1958 -0.2021 -0.6790
  978MOL0     C34870  13.233   4.707   8.957 -0.6652 -0.4771 -0.6191
  978MOL0    Cl34871  13.298   4.541   8.933  0.1543  0.0087  0.1501
  978MOL0     C34872  12.283   5.277   9.118  0.9694  0.0743  0.2930
  978MOL0     C34873  12.161   5.340   9.102 -0.0114 -0.5913 -1.0144
  978MOL0     O34874  12.106   5.658   9.124  0.4453  0.1817 -0.5929
  978MOL0     C34875  11.878   5.698   8.845  1.2528  0.5192 -0.1693
  978MOL0     C34876  11.782   5.782   8.790 -0.2180 -0.1044 -0.8747
  978MOL0     N34877  11.121   6.016   9.010 -0.4739  0.5071 -0.0491
  978MOL0     N34878  11.008   6.072   9.036 -0.0958  0.3468  0.1396
  978MOL0     C34879  10.041   6.721   8.682  0.5301 -0.8715  0.2480
  978MOL0     C34880   9.999   6.856   8.709 -0.3407  0.1552 -0.1553
  978MOL0     C34881   9.825   7.254   8.576  0.1073 -0.1156 -0.4203
  978MOL0     C34882   9.692   7.260   8.612 -0.5252 -0.5972  0.2420
  978MOL0     C34883   9.627   7.377   8.643 -0.4629 -0.3977  0.2054
  978MOL0     C34884   9.684   7.503   8.638 -0.5471 -1.4405  0.3860
  978MOL0     O34885   9.606   7.612   8.677  0.3365 -0.6758  0.1197
  978MOL0     C34886   9.632   7.737   8.606 -0.2511  0.3329 -0.3612
  978MOL0     C34887   9.530   7.749   8.492 -0.2765  0.1749 -0.3305
  978MOL0     C34888   9.389   7.781   8.539  0.8957  0.8344  1.0411
  978MOL0     C34889   9.315   7.654   8.596 -0.3603 -0.7370 -0.6688
  978MOL0     C34890   9.168   7.666   8.584 -1.2656  0.6345 -0.9618
  978MOL0     C34891   9.049   7.658   8.569 -0.2867 -0.7477  0.2426
  978MOL0     C34892   9.817   7.504   8.602  1.0147  0.9109 -1.0826
  978MOL0     C34893   9.889   7.384   8.567  0.2341  0.1939 -0.6703
  978MOL0     C34894  10.037   7.406   8.531  0.8512  0.2837 -0.1131
  978MOL0     H34895   9.745   6.859   8.482 -0.2335  1.0249 -0.7683
  978MOL0     H34896   9.832   6.634   8.434  1.3442  0.1769  0.0571
  978MOL0     H34897  10.110   6.420   8.701 -3.4079  0.3327 -1.5243
  978MOL0     H34898  10.212   6.535   8.622 -1.2242  0.7192 -1.7499
  978MOL0     H34899  10.139   6.276   8.476 -2.6645  1.6002  1.5085
  978MOL0     H34900  10.262   6.385   8.433 -0.6110  0.2942  0.1865
  978MOL0     H34901  10.274   6.201   8.687  1.2671 -0.5309 -0.1404
  978MOL0     H34902  10.362   6.193   8.529 -2.4620 -0.2345 -0.7782
  978MOL0     H34903  10.486   6.387   8.579  0.0004  0.6354  0.9715
  978MOL0     H34904  10.414   6.386   8.744 -1.6124 -1.7398  0.5937
  978MOL0     H34905  10.608   6.197   8.626 -3.7338  0.6476 -1.9569
  978MOL0     H34906  10.529   6.151   8.774  1.8751 -2.4838 -0.4539
  978MOL0     H34907  10.712   6.389   8.746  0.9368 -2.3243 -2.1392
  978MOL0     H34908  10.621   6.335   8.895  1.2428 -2.7123  1.0396
  978MOL0     H34909  10.850   6.211   8.737 -0.0095  0.4204 -0.5194
  978MOL0     H34910  10.752   6.112   8.857 -0.0658  0.9655  0.6600
  978MOL0     H34911  10.884   6.371   8.927  1.5127  0.0001  0.8943
  978MOL0     H34912  10.816   6.252   9.035  0.1948  2.4500 -0.0017
  978MOL0     H34913  11.147   6.280   8.828  1.0132 -1.7611 -1.3249
  978MOL0     H34914  11.385   5.996   8.927  0.0626  1.5300  2.2686
  978MOL0     H34915  11.391   6.168   8.895  2.3679 -1.0955 -1.8142
  978MOL0     H34916  11.314   5.947   8.701 -2.3468  0.8691 -0.6275
  978MOL0     H34917  11.265   6.105   8.662  1.6469 -0.8416 -2.7913
  978MOL0     H34918  11.451   6.060   8.553  1.2772 -0.5967 -0.2721
  978MOL0     H34919  11.514   6.168   8.687  1.8052 -0.2728 -1.1635
  978MOL0     H34920  11.534   5.872   8.686  1.9528 -0.0930 -2.3279
  978MOL0     H34921  11.655   5.970   8.614  1.5815  0.1865  1.2810
  978MOL0     H34922  11.758   6.022   9.049  2.6167  0.1336 -0.0876
  978MOL0     H34923  11.927   5.765   9.255 -2.2297  0.8930  0.9631
  978MOL0     H34924  11.851   5.921   9.251 -0.2356  1.2356 -1.1508
  978MOL0     H34925  12.015   5.908   9.211 -1.1535  1.4623  2.0897
  978MOL0     H34926  12.242   5.532   8.839 -0.2095 -1.6551 -0.5814
  978MOL0     H34927  12.453   5.423   8.862 -1.5260 -0.0834 -2.1363
  978MOL0     H34928  12.470   5.078   9.187 -1.6026  1.6090 -1.6728
  978MOL0     H34929  12.423   5.041   9.031  0.6743 -1.1324  0.4827
  978MOL0     H34930  12.681   5.093   8.955  1.3945  0.1855  1.8802
  978MOL0     H34931  12.720   5.058   9.115  1.7161 -2.1293 -1.6984
  978MOL0     H34932  12.607   4.881   8.916  0.9293  2.5533 -1.1142
  978MOL0     H34933  12.611   4.839   9.098  2.5448 -2.4672  0.1121
  978MOL0     H34934  12.804   4.724   9.003  2.5989 -0.2135 -0.4232
  978MOL0     H34935  12.853   4.858   9.109 -0.5651 -1.2186 -0.1207
  978MOL0     H34936  12.849   4.835   8.802 -2.2358 -0.7291  1.0787
  978MOL0     H34937  12.880   4.989   8.890  2.1861  0.4645  1.9144
  978MOL0     H34938  13.063   4.902   9.008  1.4704 -1.9367  0.3926
  978MOL0     H34939  13.092   4.900   8.831  1.2503 -0.2206  0.6204
  978MOL0     H34940  13.085   4.686   8.805  0.3604  0.3805 -0.8189
  978MOL0     H34941  13.018   4.645   8.966 -0.9361 -2.3870 -4.3353
  978MOL0     H34942  13.237   4.733   9.064  0.2345 -1.9797 -0.2720
  978MOL0     H34943  13.297   4.767   8.893  2.1395 -0.1754  2.2207
  978MOL0     H34944  12.287   5.206   9.200 -4.3856  1.1003  1.8990
  978MOL0     H34945  12.078   5.316   9.167 -1.3903  1.9313 -1.7107
  978MOL0     H34946  11.917   5.614   8.787 -0.5523 -2.1917  2.2513
  978MOL0     H34947  11.738   5.761   8.693 -1.3581  0.8076 -0.5716
  978MOL0     H34948  10.103   6.676   8.758 -0.8434  0.2022  2.0916
  978MOL0     H34949  10.042   6.900   8.799  0.7626 -1.7332  0.3079
  978MOL0     H34950   9.639   7.166   8.628  1.8785 -1.7754  2.0196
  978MOL0     H34951   9.524   7.353   8.668 -1.9240  1.1853 -3.5209
  978MOL0     H34952   9.625   7.818   8.680  2.0501  0.4474 -0.1875
  978MOL0     H34953   9.727   7.747   8.554 -0.1586  2.1106  0.0922
  978MOL0     H34954   9.527   7.654   8.438 -0.4559 -1.1709  1.8961
  978MOL0     H34955   9.560   7.836   8.433  3.2751  0.4497  1.6389
  978MOL0     H34956   9.371   7.863   8.610  2.0164  1.0429  1.1015
  978MOL0     H34957   9.337   7.814   8.449  0.3206  2.1702  1.8194
  978MOL0     H34958   9.338   7.646   8.702 -0.3777 -0.4059 -0.6395
  978MOL0     H34959   9.354   7.559   8.558  0.2831 -0.6625 -0.2147
  978MOL0     H34960   8.948   7.645   8.536 -0.1677  0.6382 -0.7529
  978MOL0     H34961   9.864   7.602   8.603  0.0724  1.4452  2.3492
  978MOL0     H34962  10.088   7.351   8.610 -0.1736  1.6903  1.6056
  978MOL0     H34963  10.054   7.377   8.427 -0.3849  3.3550 -1.2952
  978MOL0     H34964  10.070   7.510   8.536  0.4642  0.5523 -2.0567
  979MOL0     O34965   6.251   8.486   4.479 -0.1719 -0.1286 -0.7189
  979MOL0     C34966   6.195   8.383   4.485  0.1487  1.0256  0.0268
  979MOL0     O34967   6.119   8.332   4.381  0.3536  0.5107 -0.8330
  979MOL0     C34968   6.157   8.371   4.261 -0.9369  0.2468 -0.4119
  979MOL0     C34969   6.074   8.404   4.161  1.2315 -0.5163 -0.3614
  979MOL0     C34970   6.110   8.412   4.024  0.8767  0.0113  0.3550
  979MOL0     C34971   6.238   8.394   3.978  0.8206  0.7317  0.1453
  979MOL0     O34972   6.261   8.400   3.847  0.2617 -0.1642  0.4684
  979MOL0     C34973   6.380   8.346   3.789 -0.0966 -1.1308 -0.2170
  979MOL0     C34974   6.353   8.335   3.635 -0.0685 -0.0873 -0.9025
  979MOL0     C34975   6.248   8.426   3.583 -0.6673 -0.1729  0.2917
  979MOL0     C34976   6.281   8.567   3.587 -0.6154  0.1296 -0.9143
  979MOL0     C34977   6.171   8.653   3.535 -0.6878  0.2977 -0.4332
  979MOL0     C34978   6.057   8.668   3.628  0.2695  0.2326 -0.6818
  979MOL0     C34979   5.946   8.769   3.576  0.2265 -0.1128  0.9842
  979MOL0     C34980   5.977   8.922   3.604 -0.2134  0.5156  0.5927
  979MOL0     N34981   6.067   8.983   3.502  0.1156 -0.2468 -0.0981
  979MOL0     C34982   6.199   9.017   3.517  0.3840 -0.2850 -0.5971
  979MOL0     C34983   6.230   9.057   3.392  0.4441  0.0756 -0.1069
  979MOL0     C34984   6.372   9.107   3.343  0.5316  0.2082 -0.4147
  979MOL0     C34985   6.424   8.984   3.260 -1.2134 -0.5015 -0.6032
  979MOL0     C34986   6.542   9.024   3.171  0.2103 -0.2789  0.5342
  979MOL0     C34987   6.625   8.910   3.126 -0.0486  0.1392 -0.6911
  979MOL0     O34988   6.555   8.820   3.036 -0.0809  0.2508  0.5984
  979MOL0     C34989   6.625   8.708   2.989 -0.4744 -0.0669  0.5554
  979MOL0     C34990   6.560   8.643   2.886 -0.7404 -0.4033  0.3074
  979MOL0     C34991   6.611   8.525   2.833  0.2981 -0.2162 -1.2954
  979MOL0     C34992   6.514   8.449   2.747 -0.4104 -0.4108 -0.4986
  979MOL0     C34993   6.734   8.476   2.885  0.1088 -0.1478 -0.6299
  979MOL0     C34994   6.802   8.347   2.850  0.7705  0.6436  0.3919
  979MOL0     O34995   6.791   8.312   2.721 -0.4192  0.5304  0.3758
  979MOL0     C34996   6.878   8.221   2.664 -0.4509 -0.6258 -0.5578
  979MOL0     C34997   7.003   8.187   2.711  0.7795 -0.8468  0.7183
  979MOL0     C34998   7.073   8.070   2.661  0.3619  0.0022 -0.3542
  979MOL0     C34999   7.022   8.002   2.553 -0.0606 -0.0249  0.3399
  979MOL0     O35000   7.085   7.883   2.505 -0.1357 -0.8790  0.4694
  979MOL0     C35001   7.005   7.764   2.495  0.3272 -0.1697 -0.1886
  979MOL0     C35002   7.074   7.650   2.427  0.2935 -0.0646 -0.7886
  979MOL0     C35003   6.973   7.533   2.405  0.6675  0.5590 -0.1822
  979MOL0     C35004   7.012   7.465   2.282  0.5095  0.1309  0.0089
  979MOL0     C35005   6.912   7.345   2.266 -0.4094 -0.0913  0.2702
  979MOL0     C35006   6.931   7.274   2.131 -0.0872  0.0143  0.0139
  979MOL0     C35007   6.816   7.176   2.114 -1.1177 -0.6788 -0.5407
  979MOL0     C35008   6.849   7.040   2.047 -0.1826 -0.6863 -0.0976
  979MOL0    Cl35009   6.882   7.088   1.879  0.1692 -0.0341 -0.0704
  979MOL0     C35010   6.892   8.041   2.504 -0.5241  0.3955 -0.3562
  979MOL0     C35011   6.820   8.143   2.563  0.0471  0.3557  0.2842
  979MOL0     O35012   6.873   8.292   2.934  0.7933 -0.3860 -0.6932
  979MOL0     C35013   6.801   8.548   2.991 -0.2018 -0.2650  0.9865
  979MOL0     C35014   6.744   8.660   3.036  0.5466 -0.3202  0.0890
  979MOL0     N35015   6.126   9.052   3.305  0.5081  0.7206  0.5896
  979MOL0     N35016   6.028   9.004   3.375 -0.0296  0.4873  0.0048
  979MOL0     C35017   6.331   8.360   4.082  0.4304 -0.2156 -0.1927
  979MOL0     C35018   6.291   8.343   4.219 -0.8096  0.3159  1.1181
  979MOL0     C35019   6.198   8.310   4.612 -0.3522  0.7168  0.4223
  979MOL0     C35020   6.171   8.383   4.731  0.1877 -0.0172 -0.8088
  979MOL0     C35021   6.177   8.315   4.849 -0.2205  0.7053 -0.2407
  979MOL0     C35022   6.212   8.186   4.858 -0.3378  0.6206 -0.5770
  979MOL0     O35023   6.248   8.139   4.986 -0.2700 -0.6120  0.0384
  979MOL0     C35024   6.268   7.996   5.009  0.5142 -0.5685  0.2721
  979MOL0     C35025   6.228   7.980   5.148  0.2587  0.1429 -0.5955
  979MOL0     C35026   6.298   7.857   5.214 -0.4238  0.3268 -0.8772
  979MOL0     C35027   6.256   7.809   5.353  0.2261 -0.3611 -0.3360
  979MOL0     C35028   6.358   7.731   5.413  0.2852  0.1635  0.5281
  979MOL0     C35029   6.442   7.655   5.462  0.4532  0.2275 -0.7637
  979MOL0     C35030   6.233   8.117   4.737 -0.0486 -0.1288  0.1146
  979MOL0     C35031   6.217   8.175   4.611  0.3472 -0.0259  0.4353
  979MOL0     C35032   6.264   8.085   4.499 -0.8186  1.1335 -0.2359
  979MOL0     H35033   5.971   8.427   4.188  1.7471  1.4942  0.0103
  979MOL0     H35034   6.032   8.427   3.950  1.3816  3.2156  0.3537
  979MOL0     H35035   6.407   8.253   3.840 -2.3117 -0.8919  1.5169
  979MOL0     H35036   6.449   8.428   3.812 -1.5531  0.6903 -1.9636
  979MOL0     H35037   6.441   8.357   3.574 -0.4648  0.8347 -1.1653
  979MOL0     H35038   6.306   8.236   3.633  1.8379 -1.1411  1.6602
  979MOL0     H35039   6.244   8.388   3.480 -1.5407  0.3953  0.1051
  979MOL0     H35040   6.148   8.409   3.623 -1.3338 -0.6752 -1.4722
  979MOL0     H35041   6.321   8.595   3.685  0.5775  1.1904 -1.6682
  979MOL0     H35042   6.369   8.571   3.521 -0.9237 -2.3712 -1.5988
  979MOL0     H35043   6.136   8.613   3.440  2.9627 -0.1399 -1.7590
  979MOL0     H35044   6.212   8.745   3.493 -2.1866  0.2911 -1.9962
  979MOL0     H35045   6.015   8.567   3.636 -1.1247  0.8165 -0.4534
  979MOL0     H35046   6.086   8.698   3.729 -0.0528 -2.2625  0.2168
  979MOL0     H35047   5.854   8.756   3.633 -1.3107 -0.4989 -1.4383
  979MOL0     H35048   5.926   8.734   3.475 -1.9466 -2.2779  2.0443
  979MOL0     H35049   5.877   8.967   3.598 -1.0173 -0.8482  2.6342
  979MOL0     H35050   6.018   8.941   3.704 -1.1975  2.4230  0.6750
  979MOL0     H35051   6.257   9.020   3.609  1.6243  0.0919 -1.3669
  979MOL0     H35052   6.440   9.126   3.427 -1.0018  0.5129  0.8079
  979MOL0     H35053   6.361   9.193   3.277  2.9078  0.9036 -0.0033
  979MOL0     H35054   6.461   8.904   3.325 -0.9676  0.6654  0.7633
  979MOL0     H35055   6.342   8.939   3.205 -0.7106 -1.2915 -0.7303
  979MOL0     H35056   6.502   9.075   3.083 -0.2522 -3.1584 -1.0661
  979MOL0     H35057   6.609   9.096   3.217 -0.3304  0.8660 -0.4244
  979MOL0     H35058   6.705   8.958   3.068 -0.2649  1.2665 -0.0928
  979MOL0     H35059   6.654   8.855   3.215 -1.1604  1.5703  0.6081
  979MOL0     H35060   6.467   8.692   2.859  0.2311  2.3361  1.5493
  979MOL0     H35061   6.463   8.520   2.682 -2.1696  0.4480  1.6981
  979MOL0     H35062   6.439   8.393   2.803 -2.3113 -1.8277 -4.1559
  979MOL0     H35063   6.558   8.366   2.690  2.1343 -0.1050  0.8526
  979MOL0     H35064   7.060   8.252   2.777  2.1149 -1.1158 -0.1397
  979MOL0     H35065   7.173   8.034   2.684  0.1374 -1.4604 -1.5348
  979MOL0     H35066   6.969   7.746   2.597  0.7862  2.9152  0.6132
  979MOL0     H35067   6.916   7.784   2.433  0.5161 -1.5520 -0.9466
  979MOL0     H35068   7.107   7.675   2.326  2.2704 -0.7301 -0.3407
  979MOL0     H35069   7.160   7.622   2.488 -0.2938 -2.4274 -0.9349
  979MOL0     H35070   6.868   7.565   2.399  0.0102 -1.1863  1.1115
  979MOL0     H35071   6.975   7.465   2.490 -0.0336 -0.9104 -1.2976
  979MOL0     H35072   7.115   7.429   2.283  0.4942 -0.0583 -1.6621
  979MOL0     H35073   6.999   7.535   2.199  0.2433  1.2380  0.9647
  979MOL0     H35074   6.924   7.277   2.351  1.5905  0.2154  0.2824
  979MOL0     H35075   6.809   7.381   2.261 -0.4727 -0.4361 -1.7467
  979MOL0     H35076   7.026   7.220   2.127  0.8986  1.5513  1.2931
  979MOL0     H35077   6.925   7.342   2.045 -2.1841 -1.9807 -1.5554
  979MOL0     H35078   6.743   7.231   2.055 -1.5959  0.3430  0.9316
  979MOL0     H35079   6.772   7.153   2.212  0.2448  1.9516  0.7924
  979MOL0     H35080   6.766   6.968   2.047  1.7002 -2.9490 -0.4885
  979MOL0     H35081   6.942   6.995   2.082 -0.1985  0.2699  1.2693
  979MOL0     H35082   6.852   7.979   2.423  2.0804 -4.5123  1.6795
  979MOL0     H35083   6.721   8.177   2.537  0.6076  1.1904 -0.8505
  979MOL0     H35084   6.889   8.507   3.039  0.4699 -0.9808 -0.7998
  979MOL0     H35085   6.789   8.724   3.111 -0.6120  0.8372 -0.1576
  979MOL0     H35086   6.432   8.349   4.046  0.0099 -2.5121 -0.8337
  979MOL0     H35087   6.363   8.301   4.288 -0.3873 -2.5433 -0.9048
  979MOL0     H35088   6.147   8.489   4.728  1.2115  0.2592  0.1414
  979MOL0     H35089   6.169   8.374   4.940 -0.3547  0.9656 -0.4210
  979MOL0     H35090   6.207   7.936   4.941 -0.6036 -0.8706  1.5100
  979MOL0     H35091   6.372   7.966   4.992  0.9222  0.5297  0.7491
  979MOL0     H35092   6.121   7.957   5.151  0.0209  0.7282 -2.8426
  979MOL0     H35093   6.242   8.075   5.200 -2.2052  1.1643 -1.6286
  979MOL0     H35094   6.287   7.774   5.144  0.1929 -1.0540  0.6196
  979MOL0     H35095   6.405   7.878   5.215  0.3030 -2.8697 -0.6948
  979MOL0     H35096   6.166   7.746   5.357  1.5550 -2.3062  1.4452
  979MOL0     H35097   6.229   7.902   5.404 -0.4153  1.0014 -3.0081
  979MOL0     H35098   6.519   7.598   5.510  0.1818 -0.2636 -0.9069
  979MOL0     H35099   6.260   8.012   4.747 -0.7154 -0.1566  2.1044
  979MOL0     H35100   6.200   7.996   4.495  1.1231 -0.4232  1.3082
  979MOL0     H35101   6.254   8.125   4.398 -3.5494 -1.6925 -1.2523
  979MOL0     H35102   6.364   8.044   4.511 -1.4425  0.4043  4.2007
  980MOL0     O35103   3.934   9.460   0.233  0.1595 -0.6246 -0.4160
  980MOL0     C35104   3.906   9.438   0.112 -0.5608 -0.1866  0.1150
  980MOL0     O35105   3.980   9.474  -0.002 -0.7019  0.2866 -0.2302
  980MOL0     C35106   4.115   9.512   0.016  0.7658  0.3863 -1.0207
  980MOL0     C35107   4.155   9.610  -0.065  0.3374  0.0927 -0.2455
  980MOL0     C35108   4.287   9.653  -0.068  0.1574  0.1383  0.1390
  980MOL0     C35109   4.391   9.573  -0.007  0.4785 -1.0223 -0.0944
  980MOL0     O35110   4.522   9.590  -0.026 -0.2073  0.3922 -0.1631
  980MOL0     C35111   4.558   9.705  -0.102  0.8117 -0.0839  0.9325
  980MOL0     C35112   4.716   9.706  -0.098  0.1026  0.0951 -0.7360
  980MOL0     C35113   4.783   9.573  -0.146  0.1306  0.1965  0.2031
  980MOL0     C35114   4.943   9.585  -0.141  0.5198 -0.5001  0.4514
  980MOL0     C35115   5.012   9.485  -0.228 -0.1537 -0.3023 -0.3001
  980MOL0     C35116   5.164   9.506  -0.235 -0.2326  0.1064 -1.0090
  980MOL0     C35117   5.238   9.412  -0.334 -0.3939 -0.2441 -0.0402
  980MOL0     C35118   5.392   9.408  -0.320 -0.0892  0.1974 -0.6041
  980MOL0     N35119   5.444   9.310  -0.411 -0.4665 -0.3650 -0.5070
  980MOL0     C35120   5.491   9.180  -0.380  0.0107 -0.7529  0.4151
  980MOL0     C35121   5.530   9.132  -0.499  0.1034 -0.3210 -0.1691
  980MOL0     C35122   5.588   8.996  -0.519 -0.0814  0.9433 -0.1971
  980MOL0     C35123   5.740   8.993  -0.567  0.2898 -0.2144 -0.0520
  980MOL0     C35124   5.780   8.847  -0.597 -0.0465  0.3335  0.6154
  980MOL0     C35125   5.930   8.825  -0.583  0.1730  0.2376 -0.0758
  980MOL0     O35126   5.961   8.695  -0.640  0.1405  0.5003 -0.7411
  980MOL0     C35127   6.080   8.690  -0.705 -0.0574  0.1009  0.8970
  980MOL0     C35128   6.099   8.757  -0.824  0.7083  0.7608  0.0906
  980MOL0     C35129   6.230   8.768  -0.881  0.0046  0.2761 -0.7596
  980MOL0     C35130   6.233   8.860  -1.002  0.3616  0.7424  0.6277
  980MOL0     C35131   6.346   8.718  -0.818  0.2374  0.4243  0.1071
  980MOL0     C35132   6.480   8.719  -0.871 -0.4489  0.1697  0.5378
  980MOL0     O35133   6.583   8.683  -0.789 -0.2289  0.4495 -0.4291
  980MOL0     C35134   6.695   8.624  -0.839 -0.5356 -0.2663 -0.0254
  980MOL0     C35135   6.817   8.635  -0.775 -0.2614  0.9010  0.5110
  980MOL0     C35136   6.935   8.569  -0.820  0.5602  0.0946  0.5998
  980MOL0     C35137   6.926   8.487  -0.936 -0.4160 -0.4624 -0.1843
  980MOL0     O35138   7.045   8.426  -0.977  0.1778  0.4244  0.3329
  980MOL0     C35139   7.038   8.314  -1.061 -0.5781 -0.0201  0.4278
  980MOL0     C35140   7.166   8.290  -1.139 -0.4576  0.3875 -0.4973
  980MOL0     C35141   7.211   8.419  -1.218 -0.0126 -0.0223  0.2117
  980MOL0     C35142   7.308   8.387  -1.333 -0.0166 -0.3244  0.4657
  980MOL0     C35143   7.442   8.334  -1.286  0.7690 -0.4358  0.4226
  980MOL0     C35144   7.493   8.239  -1.391 -0.3383  0.6768  0.4174
  980MOL0     C35145   7.629   8.181  -1.345  0.2548  0.2813  0.3276
  980MOL0     C35146   7.666   8.055  -1.423 -0.3345 -0.6749 -0.2370
  980MOL0    Cl35147   7.674   8.094  -1.594 -0.6541  0.5985  0.1765
  980MOL0     C35148   6.798   8.468  -0.988  0.1979  0.4045  0.6937
  980MOL0     C35149   6.681   8.523  -0.938  0.0814 -0.5247  0.2900
  980MOL0     O35150   6.492   8.753  -0.991 -0.5735  0.4824 -0.5497
  980MOL0     C35151   6.323   8.653  -0.697 -0.7924  0.0894  0.0420
  980MOL0     C35152   6.192   8.637  -0.641  0.4860  0.1138 -0.5633
  980MOL0     N35153   5.512   9.231  -0.595 -0.3872  0.3156  0.0194
  980MOL0     N35154   5.451   9.336  -0.543 -0.5914 -0.1151  0.0349
  980MOL0     C35155   4.347   9.463   0.064  0.2067 -0.1155 -0.2976
  980MOL0     C35156   4.208   9.434   0.075  0.4516 -0.0172  0.4700
  980MOL0     C35157   3.786   9.368   0.069  0.9373 -0.2300  0.4468
  980MOL0     C35158   3.799   9.266  -0.033 -0.0329 -0.1207 -0.9945
  980MOL0     C35159   3.692   9.190  -0.081 -0.5830  0.3098 -0.6632
  980MOL0     C35160   3.564   9.217  -0.037  0.1620  0.1622  0.5096
  980MOL0     O35161   3.457   9.156  -0.086 -0.5781  0.5085  0.0841
  980MOL0     C35162   3.474   9.013  -0.108  0.3984  0.4001 -0.2520
  980MOL0     C35163   3.335   8.951  -0.140  0.1372 -0.4979 -0.2566
  980MOL0     C35164   3.335   8.803  -0.166 -0.1518  0.1585  0.2805
  980MOL0     C35165   3.216   8.729  -0.100 -0.3568 -0.6935 -0.4450
  980MOL0     C35166   3.223   8.759   0.043 -0.3374  0.9163 -0.4597
  980MOL0     C35167   3.211   8.780   0.166  0.1087 -0.1564 -0.0013
  980MOL0     C35168   3.548   9.318   0.060 -0.5236  0.8198  0.4067
  980MOL0     C35169   3.655   9.394   0.109  0.5247  0.2080  1.0230
  980MOL0     C35170   3.619   9.506   0.216  0.1272  0.8059 -0.3397
  980MOL0     H35171   4.083   9.672  -0.118  2.8997  0.5349 -3.5379
  980MOL0     H35172   4.307   9.748  -0.117 -0.1616  0.9808  1.5939
  980MOL0     H35173   4.513   9.798  -0.064  1.3693  0.5825 -0.0167
  980MOL0     H35174   4.530   9.686  -0.206  2.2749 -1.1635  0.7053
  980MOL0     H35175   4.752   9.787  -0.163  0.1355 -0.8812 -1.9807
  980MOL0     H35176   4.755   9.741  -0.002  0.5345  4.2573 -2.2017
  980MOL0     H35177   4.740   9.485  -0.096 -0.6523 -0.8943 -2.2482
  980MOL0     H35178   4.750   9.568  -0.250 -2.3069  0.9717  0.8764
  980MOL0     H35179   4.966   9.688  -0.172  2.6159 -0.8319  0.7467
  980MOL0     H35180   4.972   9.565  -0.038 -0.5076 -2.9099  0.3290
  980MOL0     H35181   4.983   9.493  -0.333  3.4914 -1.0812 -1.5033
  980MOL0     H35182   4.994   9.380  -0.202  1.7425 -0.8514 -1.0049
  980MOL0     H35183   5.189   9.611  -0.254 -0.7270  0.7133  1.4179
  980MOL0     H35184   5.207   9.474  -0.140 -0.0589  1.5735 -0.5651
  980MOL0     H35185   5.220   9.429  -0.441 -1.3916 -1.3478 -0.0770
  980MOL0     H35186   5.195   9.312  -0.318 -2.8455  1.1588  3.4344
  980MOL0     H35187   5.423   9.510  -0.344  0.3630  0.7403  1.9648
  980MOL0     H35188   5.415   9.391  -0.214  0.6518 -1.0296 -0.9420
  980MOL0     H35189   5.509   9.125  -0.289  2.2250  0.2676  0.6649
  980MOL0     H35190   5.533   8.942  -0.597  1.7237  0.9305 -1.5358
  980MOL0     H35191   5.577   8.936  -0.429 -1.9262 -1.5172 -1.9329
  980MOL0     H35192   5.764   9.057  -0.652 -0.4424 -1.6166 -1.3612
  980MOL0     H35193   5.798   9.029  -0.481 -2.6763  0.1299  1.9393
  980MOL0     H35194   5.713   8.779  -0.542 -2.8762  1.6994 -0.9040
  980MOL0     H35195   5.753   8.835  -0.703  1.1751 -0.1120  0.3473
  980MOL0     H35196   5.966   8.918  -0.628 -4.6942  2.3483 -0.1817
  980MOL0     H35197   5.964   8.825  -0.479 -2.0415  1.9231  0.7311
  980MOL0     H35198   6.014   8.813  -0.861 -0.1377  1.6598  3.0595
  980MOL0     H35199   6.143   8.918  -1.021  1.9322  2.4708 -2.3458
  980MOL0     H35200   6.251   8.796  -1.089  1.0009 -1.3939  2.2443
  980MOL0     H35201   6.315   8.932  -0.998  0.1135  1.0250  0.6373
  980MOL0     H35202   6.820   8.702  -0.690  1.5262  0.2377  0.9951
  980MOL0     H35203   7.031   8.579  -0.771  1.3542 -0.1071 -0.8649
  980MOL0     H35204   7.017   8.222  -1.006 -0.7596 -0.2161  0.0352
  980MOL0     H35205   6.955   8.334  -1.129 -0.1471 -0.6169 -0.2892
  980MOL0     H35206   7.241   8.249  -1.071  0.5734  2.3476 -0.3870
  980MOL0     H35207   7.151   8.215  -1.218  1.6445  1.2499 -1.7864
  980MOL0     H35208   7.260   8.491  -1.152 -3.2784 -0.3072  3.2888
  980MOL0     H35209   7.126   8.462  -1.273 -0.6022 -2.6073 -1.0604
  980MOL0     H35210   7.330   8.475  -1.393 -1.2540 -1.6695 -2.1174
  980MOL0     H35211   7.266   8.312  -1.402  1.6544 -0.5813 -0.3134
  980MOL0     H35212   7.510   8.417  -1.267  1.4538 -0.9927  0.4689
  980MOL0     H35213   7.444   8.282  -1.190  1.6595  1.2021  1.3287
  980MOL0     H35214   7.492   8.290  -1.488 -0.6526  0.9077  0.5396
  980MOL0     H35215   7.432   8.148  -1.390 -1.7530  1.5748 -0.1725
  980MOL0     H35216   7.632   8.148  -1.240  2.7664 -2.4093 -0.4491
  980MOL0     H35217   7.711   8.253  -1.355 -0.0056  0.6127  0.5669
  980MOL0     H35218   7.591   7.980  -1.397 -2.1820  1.9717  2.7041
  980MOL0     H35219   7.762   8.015  -1.387 -0.2749  2.0014  3.1567
  980MOL0     H35220   6.769   8.412  -1.076  0.2501  1.2796  0.1056
  980MOL0     H35221   6.585   8.508  -0.986  0.2519 -1.0061  0.0930
  980MOL0     H35222   6.405   8.620  -0.634 -1.7058  2.3652  2.6715
  980MOL0     H35223   6.192   8.595  -0.541  0.9341  0.7307 -0.2968
  980MOL0     H35224   4.413   9.403   0.126  0.1673  1.1285  1.0116
  980MOL0     H35225   4.172   9.349   0.131  0.3807  1.4209  2.7217
  980MOL0     H35226   3.902   9.243  -0.057  0.7026 -0.5927  2.1279
  980MOL0     H35227   3.721   9.112  -0.150  1.6310  2.2099 -1.9985
  980MOL0     H35228   3.549   8.980  -0.181 -0.5693  1.4413 -1.7725
  980MOL0     H35229   3.507   8.962  -0.017 -0.0762 -1.1014 -0.8880
  980MOL0     H35230   3.289   9.003  -0.225 -1.3579  0.8668  1.3013
  980MOL0     H35231   3.264   8.971  -0.059  0.0927 -3.1872  0.4582
  980MOL0     H35232   3.353   8.781  -0.272 -2.1943 -0.7687  0.0837
  980MOL0     H35233   3.416   8.759  -0.107 -1.7465 -0.0087  2.4655
  980MOL0     H35234   3.216   8.622  -0.122 -3.9431 -1.1394  1.1390
  980MOL0     H35235   3.123   8.765  -0.144 -1.0188 -1.8830 -0.0487
  980MOL0     H35236   3.201   8.795   0.272  0.7829 -0.0206  0.0503
  980MOL0     H35237   3.451   9.354   0.092 -2.8329 -1.4678 -3.3531
  980MOL0     H35238   3.557   9.460   0.293  1.0067  0.1665  0.0046
  980MOL0     H35239   3.713   9.541   0.260  0.6094 -0.7438 -0.0845
  980MOL0     H35240   3.567   9.593   0.176 -1.4357  0.3558  0.6445
  981MOL0     O35241   6.430  10.134   0.481  0.3054  0.2754  0.3862
  981MOL0     C35242   6.493  10.220   0.537 -0.0374  0.2866 -0.9736
  981MOL0     O35243   6.623  10.225   0.536 -0.2763 -1.2326 -0.5456
  981MOL0     C35244   6.707  10.136   0.468  0.1658 -0.0608  0.2756
  981MOL0     C35245   6.686  10.070   0.347  0.1799 -0.2345 -0.3193
  981MOL0     C35246   6.781   9.986   0.288  0.9069 -0.0884  0.0362
  981MOL0     C35247   6.908   9.973   0.341  0.1507 -0.6720  0.2155
  981MOL0     O35248   6.998   9.890   0.266  0.3415  0.4339 -0.4492
  981MOL0     C35249   7.136   9.879   0.310  0.8562 -0.6435  0.3547
  981MOL0     C35250   7.190   9.772   0.232 -0.3961 -0.0530  1.0727
  981MOL0     C35251   7.317   9.724   0.291  0.1575 -0.4651 -0.0069
  981MOL0     C35252   7.421   9.832   0.331 -0.1446 -0.2529  0.3866
  981MOL0     C35253   7.553   9.767   0.383 -0.5097  0.6118 -0.0346
  981MOL0     C35254   7.652   9.865   0.429  0.1144 -0.9238 -0.1145
  981MOL0     C35255   7.795   9.802   0.435  0.0998 -0.4379 -0.7048
  981MOL0     C35256   7.891   9.912   0.487  0.0129 -0.0730 -0.1001
  981MOL0     N35257   8.017   9.833   0.523  0.9142  0.4212  0.5542
  981MOL0     C35258   8.149   9.847   0.477 -0.0806  0.3159  0.0991
  981MOL0     C35259   8.223   9.769   0.560  0.0904  0.0751 -0.8723
  981MOL0     C35260   8.371   9.740   0.560 -0.2584 -0.3000  0.2034
  981MOL0     C35261   8.416   9.640   0.455 -1.1730  0.0695  0.4994
  981MOL0     C35262   8.570   9.620   0.462  0.1921 -0.2466 -0.3838
  981MOL0     C35263   8.623   9.581   0.605 -0.6795  0.2079  0.1695
  981MOL0     O35264   8.758   9.543   0.583  0.0468 -0.0974  0.3329
  981MOL0     C35265   8.830   9.488   0.687  0.1123  0.4691  0.2057
  981MOL0     C35266   8.780   9.460   0.817 -0.2012  0.2493 -0.1021
  981MOL0     C35267   8.857   9.393   0.912  1.0984  0.8666  0.0157
  981MOL0     C35268   8.778   9.369   1.042  0.5674  0.2021 -0.0149
  981MOL0     C35269   8.998   9.361   0.881 -0.3041  0.2379 -0.6449
  981MOL0     C35270   9.083   9.303   0.980 -1.1637  0.2668 -0.9006
  981MOL0     O35271   9.072   9.350   1.106  0.3119  0.4616  0.4599
  981MOL0     C35272   9.109   9.275   1.207 -0.6590  0.5780 -0.6574
  981MOL0     C35273   9.110   9.347   1.321 -0.6452  0.1134 -0.1317
  981MOL0     C35274   9.139   9.280   1.447  0.8647  0.6039  0.1459
  981MOL0     C35275   9.156   9.138   1.462 -0.3496  0.5708  0.8057
  981MOL0     O35276   9.177   9.069   1.577 -0.7583 -0.3802 -0.8918
  981MOL0     C35277   9.134   9.130   1.694 -0.6392 -0.7206 -0.2790
  981MOL0     C35278   9.122   9.040   1.812  0.5619 -0.0397 -0.7696
  981MOL0     C35279   9.076   9.121   1.934 -0.5380  1.0867  0.7989
  981MOL0     C35280   8.936   9.184   1.925 -0.8297  0.1456  0.7836
  981MOL0     C35281   8.874   9.224   2.055  0.4729 -0.0047 -0.1838
  981MOL0     C35282   8.739   9.309   2.034 -0.1440 -0.3105 -0.1846
  981MOL0     C35283   8.750   9.453   1.990  0.4418  0.3562  0.0526
  981MOL0     C35284   8.801   9.557   2.092 -0.7956 -0.2440 -0.8767
  981MOL0    Cl35285   8.725   9.533   2.259 -0.2249 -0.2292 -0.1868
  981MOL0     C35286   9.152   9.069   1.339 -0.2406 -0.3761  0.4260
  981MOL0     C35287   9.124   9.135   1.216 -0.4813  0.4807 -0.0796
  981MOL0     O35288   9.179   9.238   0.949  0.3477 -0.1292 -0.3988
  981MOL0     C35289   9.031   9.369   0.743  0.1129 -0.0878  0.9345
  981MOL0     C35290   8.959   9.435   0.657 -0.4790 -0.6472 -1.4426
  981MOL0     N35291   8.136   9.709   0.648  0.1254  0.1599  0.1075
  981MOL0     N35292   8.019   9.761   0.632 -0.1804  0.0525 -0.4665
  981MOL0     C35293   6.930  10.036   0.464  0.4966 -0.7288 -0.0040
  981MOL0     C35294   6.836  10.122   0.522 -0.3348 -0.1140  0.7137
  981MOL0     C35295   6.416  10.326   0.615  0.3438  0.6479  0.4841
  981MOL0     C35296   6.492  10.414   0.699 -0.3993  0.3461 -0.4297
  981MOL0     C35297   6.438  10.512   0.789  0.3741 -0.3414  0.0109
  981MOL0     C35298   6.298  10.515   0.795 -0.4743 -0.2252 -0.6176
  981MOL0     O35299   6.244  10.591   0.897 -0.3197  0.0187  0.2701
  981MOL0     C35300   6.216  10.516   1.012  0.0166  0.9373 -0.5719
  981MOL0     C35301   6.096  10.572   1.107  0.3470 -0.7237  0.4340
  981MOL0     C35302   5.962  10.577   1.034 -0.7267 -0.1325 -0.1011
  981MOL0     C35303   5.852  10.619   1.132 -1.0765 -0.2946 -0.4181
  981MOL0     C35304   5.717  10.604   1.073 -1.2507 -0.2085 -0.0989
  981MOL0     C35305   5.608  10.601   1.015 -1.0701 -0.1622  0.5849
  981MOL0     C35306   6.221  10.427   0.721  0.2569  0.3989  0.0938
  981MOL0     C35307   6.277  10.338   0.621  0.2093 -0.0861 -0.1415
  981MOL0     C35308   6.183  10.257   0.531  0.0073 -0.7587 -0.3932
  981MOL0     H35309   6.594  10.083   0.291 -2.3333  2.7700  3.9022
  981MOL0     H35310   6.747   9.933   0.200 -2.6538  1.7274  0.1194
  981MOL0     H35311   7.145   9.861   0.418 -0.4369 -1.2620  0.3852
  981MOL0     H35312   7.190   9.970   0.284  1.6861 -0.8815  1.1724
  981MOL0     H35313   7.121   9.688   0.229  1.0910 -1.2949 -0.1079
  981MOL0     H35314   7.214   9.809   0.131 -0.0674 -1.5487  0.5786
  981MOL0     H35315   7.290   9.665   0.379  2.6612 -0.2004  1.0377
  981MOL0     H35316   7.364   9.667   0.211  0.8732  1.2496 -0.8512
  981MOL0     H35317   7.448   9.882   0.237 -0.4065 -1.7791 -0.5357
  981MOL0     H35318   7.372   9.897   0.404  1.6638 -0.0950  1.5080
  981MOL0     H35319   7.588   9.706   0.299  0.4241  1.6245 -0.4067
  981MOL0     H35320   7.526   9.699   0.463 -1.5325  2.5156  1.3271
  981MOL0     H35321   7.642   9.949   0.361 -1.4294 -1.4386 -0.5633
  981MOL0     H35322   7.629   9.902   0.530  0.3802 -0.2126 -0.3123
  981MOL0     H35323   7.842   9.770   0.342  3.8287  0.9206  0.5153
  981MOL0     H35324   7.796   9.719   0.507 -1.2763  0.5473  0.5032
  981MOL0     H35325   7.927   9.985   0.414  1.5653 -1.6214 -0.9739
  981MOL0     H35326   7.855   9.965   0.575 -1.7073 -1.1311 -0.1290
  981MOL0     H35327   8.196   9.921   0.413  3.0996 -2.2287 -0.7366
  981MOL0     H35328   8.400   9.691   0.654 -0.4086  1.1167  1.0152
  981MOL0     H35329   8.429   9.831   0.544  1.7225 -1.1574  2.0096
  981MOL0     H35330   8.363   9.546   0.471 -0.9617  0.2385  2.4355
  981MOL0     H35331   8.386   9.694   0.364 -2.0573  2.4946  2.1248
  981MOL0     H35332   8.601   9.546   0.388 -3.3979  1.2640 -3.7343
  981MOL0     H35333   8.615   9.712   0.424  1.8447 -0.6174  0.5838
  981MOL0     H35334   8.622   9.662   0.678  0.6533 -1.1356  1.7725
  981MOL0     H35335   8.565   9.500   0.650  0.6133 -0.9183 -0.1016
  981MOL0     H35336   8.675   9.469   0.841 -0.5657 -2.2970 -0.4891
  981MOL0     H35337   8.682   9.319   1.026 -0.3254  1.4003  1.4080
  981MOL0     H35338   8.760   9.459   1.101 -1.1464  0.1571 -0.3966
  981MOL0     H35339   8.836   9.308   1.111 -0.2463  2.3826  2.7659
  981MOL0     H35340   9.102   9.455   1.322  0.8937  0.2582  0.5498
  981MOL0     H35341   9.146   9.343   1.535 -1.9854  2.4316 -0.7962
  981MOL0     H35342   9.206   9.207   1.722 -2.4188  1.5869 -1.7706
  981MOL0     H35343   9.031   9.161   1.671 -2.2907 -3.9168  1.9823
  981MOL0     H35344   9.043   8.965   1.803  1.4640 -1.2839  1.0936
  981MOL0     H35345   9.218   8.995   1.836  2.1110  4.3398  2.8945
  981MOL0     H35346   9.154   9.194   1.960  2.5828 -1.6105 -0.3148
  981MOL0     H35347   9.066   9.054   2.019 -0.9945  0.7281  0.4673
  981MOL0     H35348   8.863   9.119   1.876 -1.9006  1.5511  0.4756
  981MOL0     H35349   8.948   9.276   1.866  0.9213  0.7827  2.0384
  981MOL0     H35350   8.853   9.134   2.112 -0.8774  0.8540  0.7359
  981MOL0     H35351   8.949   9.277   2.114 -0.8587  0.5223  1.0889
  981MOL0     H35352   8.680   9.298   2.126 -5.9626 -1.8623 -3.5685
  981MOL0     H35353   8.667   9.258   1.969 -0.3300  1.1340 -1.1856
  981MOL0     H35354   8.647   9.480   1.966 -0.5501  0.4598  3.8009
  981MOL0     H35355   8.799   9.465   1.893  1.5227 -2.6477  0.1079
  981MOL0     H35356   8.781   9.661   2.064  1.1005  1.0750  2.1708
  981MOL0     H35357   8.911   9.563   2.096 -0.8541  0.1212  0.7172
  981MOL0     H35358   9.190   8.967   1.337  2.3622  0.5257 -2.1512
  981MOL0     H35359   9.114   9.063   1.136 -0.0693 -1.5901  1.6275
  981MOL0     H35360   9.126   9.339   0.701 -1.0746 -0.5499 -1.6235
  981MOL0     H35361   8.993   9.444   0.554  3.1478 -0.8901 -0.4048
  981MOL0     H35362   7.026  10.023   0.513  0.7598  0.9143 -0.0484
  981MOL0     H35363   6.872  10.182   0.604  0.4029  2.8769 -1.6421
  981MOL0     H35364   6.599  10.404   0.714 -0.3633  2.7759  1.5026
  981MOL0     H35365   6.492  10.581   0.852  0.0102  0.8373 -0.9091
  981MOL0     H35366   6.191  10.412   0.989 -1.1358  1.3191 -1.1485
  981MOL0     H35367   6.304  10.514   1.077  0.3772  0.1337 -1.0812
  981MOL0     H35368   6.123  10.670   1.148 -1.9187 -1.1373  3.1655
  981MOL0     H35369   6.083  10.510   1.195  0.0350 -3.5385 -1.4645
  981MOL0     H35370   5.969  10.643   0.947 -2.2079 -1.5915 -1.4006
  981MOL0     H35371   5.950  10.473   1.001  0.7184 -0.9099  1.6414
  981MOL0     H35372   5.881  10.716   1.174 -2.5801  0.5748 -1.2701
  981MOL0     H35373   5.858  10.544   1.211  2.4974  1.4702  1.2268
  981MOL0     H35374   5.513  10.608   0.967 -0.4473 -1.0811 -0.8629
  981MOL0     H35375   6.113  10.425   0.727  0.2223 -0.4332 -0.4926
  981MOL0     H35376   6.213  10.265   0.427 -1.3579 -0.8885 -0.8207
  981MOL0     H35377   6.174  10.150   0.552  1.7226 -1.0968 -1.1952
  981MOL0     H35378   6.079  10.291   0.536  0.4187  0.4395  0.4296
  982MOL0     O35379   3.699   1.905   9.904  0.3434  0.0854  0.2832
  982MOL0     C35380   3.820   1.908   9.886  0.5402 -0.0295  0.5454
  982MOL0     O35381   3.876   1.936   9.759 -0.8135  0.5832  0.4692
  982MOL0     C35382   3.797   1.999   9.675  0.1845 -0.6889  0.1317
  982MOL0     C35383   3.722   1.948   9.559  0.2335 -0.0364 -1.2926
  982MOL0     C35384   3.643   2.039   9.484  0.0466  0.0683  0.5907
  982MOL0     C35385   3.641   2.173   9.497  0.3205 -0.2243  0.0673
  982MOL0     O35386   3.574   2.244   9.402 -0.0496  0.2378 -0.4114
  982MOL0     C35387   3.626   2.253   9.267 -1.1672 -0.9841 -0.7307
  982MOL0     C35388   3.624   2.407   9.220  1.0325 -0.0100 -0.1285
  982MOL0     C35389   3.738   2.490   9.287 -0.1387 -0.0639  0.6920
  982MOL0     C35390   3.700   2.636   9.305 -0.3002 -0.2607  0.4344
  982MOL0     C35391   3.779   2.719   9.414  0.4204  0.5786 -0.0374
  982MOL0     C35392   3.922   2.708   9.393  0.8323  0.6047  0.3267
  982MOL0     C35393   4.007   2.808   9.453  0.3915  0.8979  1.2600
  982MOL0     C35394   4.149   2.756   9.475 -0.2618 -0.0282  0.3125
  982MOL0     N35395   4.220   2.882   9.493 -0.4599 -0.1941 -0.1341
  982MOL0     C35396   4.329   2.922   9.419 -0.0780 -0.4224 -0.6622
  982MOL0     C35397   4.360   3.044   9.468 -0.7082  0.5806 -0.4463
  982MOL0     C35398   4.481   3.128   9.439  0.7730  1.0707 -0.6274
  982MOL0     C35399   4.603   3.076   9.514 -0.4917 -0.2421  0.2513
  982MOL0     C35400   4.593   3.121   9.660  0.4053 -0.5054 -0.2261
  982MOL0     C35401   4.681   3.035   9.749 -0.0585 -0.5232 -0.1572
  982MOL0     O35402   4.625   3.045   9.881  0.2424  0.3982  0.4298
  982MOL0     C35403   4.682   2.968   9.974 -0.4543  0.4139 -0.2304
  982MOL0     C35404   4.808   2.908   9.973  0.2463  0.2877 -1.0142
  982MOL0     C35405   4.855   2.846  10.088  0.7977 -0.5172 -0.4005
  982MOL0     C35406   5.002   2.807  10.084  0.5931  0.2559  0.1309
  982MOL0     C35407   4.760   2.830  10.200 -0.4994  0.8218 -0.9251
  982MOL0     C35408   4.798   2.766  10.322  0.2994  0.0015  0.6831
  982MOL0     O35409   4.706   2.773  10.426 -0.3024  0.7358  0.4054
  982MOL0     C35410   4.753   2.740  10.553 -0.2438  0.4682 -0.0767
  982MOL0     C35411   4.859   2.808  10.603  0.4100 -0.3017 -0.3963
  982MOL0     C35412   4.911   2.784  10.725  1.0705  1.0775 -0.1868
  982MOL0     C35413   4.851   2.689  10.808 -0.5445 -0.1809 -0.1881
  982MOL0     O35414   4.912   2.643  10.924  0.2352  0.6608 -0.5339
  982MOL0     C35415   5.035   2.582  10.907 -0.0440 -0.3564  0.0388
  982MOL0     C35416   5.055   2.491  11.026  0.3859  0.3195  0.2481
  982MOL0     C35417   5.167   2.392  10.993  0.1922 -0.7693 -0.8590
  982MOL0     C35418   5.254   2.357  11.114  0.0243 -0.1532 -0.1216
  982MOL0     C35419   5.161   2.302  11.235  0.1034  0.2465  0.2360
  982MOL0     C35420   5.074   2.180  11.211 -0.6040 -0.5108 -0.3382
  982MOL0     C35421   5.169   2.062  11.202  0.5214  0.6349 -0.1166
  982MOL0     C35422   5.240   2.016  11.329 -0.1098 -0.1282  1.1072
  982MOL0    Cl35423   5.283   1.833  11.315 -0.1613  0.1299 -0.1896
  982MOL0     C35424   4.730   2.620  10.764 -0.0075  0.0783  0.6434
  982MOL0     C35425   4.682   2.655  10.637  1.1164  0.1937  0.2684
  982MOL0     O35426   4.912   2.717  10.326  0.1216  0.2533 -0.5315
  982MOL0     C35427   4.630   2.869  10.183  0.8320  1.1753  0.9125
  982MOL0     C35428   4.601   2.942  10.078  0.2670  0.1471 -1.0170
  982MOL0     N35429   4.263   3.077   9.557 -0.2944 -0.0104 -0.0420
  982MOL0     N35430   4.188   2.982   9.572 -0.4509  0.6591 -0.6507
  982MOL0     C35431   3.712   2.224   9.610 -0.2734  0.8674 -0.2902
  982MOL0     C35432   3.788   2.139   9.695  0.1215 -0.4867 -0.0949
  982MOL0     C35433   3.912   1.912   9.991  0.2711  0.2819  0.2504
  982MOL0     C35434   4.028   1.988   9.995 -0.0869 -0.0382  0.9101
  982MOL0     C35435   4.128   1.998  10.093  0.7580  0.3512  0.9416
  982MOL0     C35436   4.107   1.926  10.204 -0.4257  1.2678  0.0031
  982MOL0     O35437   4.204   1.936  10.301  0.1887  0.6007 -0.7689
  982MOL0     C35438   4.159   1.920  10.439  0.3758 -0.6034  0.6092
  982MOL0     C35439   4.239   1.988  10.540 -0.2004 -0.6965 -0.6248
  982MOL0     C35440   4.392   1.957  10.551  0.1105 -0.4799  0.2562
  982MOL0     C35441   4.458   2.035  10.667 -0.6013  0.2952 -0.4708
  982MOL0     C35442   4.606   2.004  10.653 -0.1720  0.0414 -0.2248
  982MOL0     C35443   4.722   1.975  10.647 -0.1126  0.4364  0.4537
  982MOL0     C35444   4.001   1.837  10.212 -0.0694  0.3521  0.3661
  982MOL0     C35445   3.900   1.833  10.110 -0.0382 -0.3715  0.2059
  982MOL0     C35446   3.794   1.717  10.132 -0.6880 -0.5286  0.4373
  982MOL0     H35447   3.738   1.843   9.538  6.2474  0.7414 -2.3873
  982MOL0     H35448   3.594   1.998   9.396 -1.3294  1.9790  0.4058
  982MOL0     H35449   3.546   2.203   9.211 -1.3449 -2.0926  0.4707
  982MOL0     H35450   3.721   2.200   9.250 -0.0772  0.4313  0.7435
  982MOL0     H35451   3.622   2.423   9.112 -0.6761  0.5424 -0.0505
  982MOL0     H35452   3.526   2.443   9.253  1.0315 -1.7966  2.1395
  982MOL0     H35453   3.760   2.444   9.384 -0.6116 -0.0048  0.8322
  982MOL0     H35454   3.832   2.472   9.234  0.1927  0.7845  0.9744
  982MOL0     H35455   3.724   2.682   9.209  0.4519  1.3815  1.3675
  982MOL0     H35456   3.595   2.649   9.334 -0.2574  1.2220  0.0213
  982MOL0     H35457   3.753   2.669   9.508  2.7797 -3.5946 -1.3394
  982MOL0     H35458   3.762   2.827   9.410  0.6699  0.5828 -1.7417
  982MOL0     H35459   3.943   2.606   9.428 -3.9016 -1.2983 -1.5187
  982MOL0     H35460   3.940   2.714   9.285  0.5028 -1.9772  0.0682
  982MOL0     H35461   3.955   2.838   9.544 -1.6951 -0.2044  0.5062
  982MOL0     H35462   3.999   2.898   9.391 -1.5442 -0.0888 -0.0420
  982MOL0     H35463   4.158   2.699   9.568  1.4695  3.2201  2.3288
  982MOL0     H35464   4.193   2.709   9.387  0.1515  0.5144  0.2293
  982MOL0     H35465   4.381   2.874   9.336 -0.2542  1.0633 -1.6704
  982MOL0     H35466   4.451   3.231   9.460 -1.1776  0.9097 -2.2896
  982MOL0     H35467   4.498   3.122   9.331  0.0838 -0.7695 -0.6621
  982MOL0     H35468   4.610   2.967   9.513 -2.4862 -0.4032 -0.2102
  982MOL0     H35469   4.692   3.124   9.470  1.3332 -2.8207  0.8525
  982MOL0     H35470   4.618   3.227   9.663  1.0310 -0.6613  0.7433
  982MOL0     H35471   4.490   3.102   9.691  1.2470 -2.7419  1.5377
  982MOL0     H35472   4.676   2.931   9.716  1.7104 -0.7188  0.0946
  982MOL0     H35473   4.787   3.062   9.751  0.1673 -1.3200 -0.9088
  982MOL0     H35474   4.870   2.933   9.888  2.6758 -0.6535  0.3523
  982MOL0     H35475   5.057   2.837  10.174  0.6322  0.4535  0.0420
  982MOL0     H35476   5.050   2.838   9.990  2.2287  1.2161  1.2273
  982MOL0     H35477   5.004   2.698  10.078 -0.4459  0.2791 -1.3451
  982MOL0     H35478   4.911   2.882  10.545  2.2536 -1.6490 -0.5463
  982MOL0     H35479   4.992   2.848  10.760  0.7103  0.5819  1.7047
  982MOL0     H35480   5.038   2.527  10.813 -3.5109  1.6740 -1.4551
  982MOL0     H35481   5.122   2.648  10.898 -0.4619  0.0211 -1.5922
  982MOL0     H35482   5.077   2.556  11.112  0.3657  0.5497  0.0822
  982MOL0     H35483   4.963   2.439  11.052  1.2690 -0.2685  2.4117
  982MOL0     H35484   5.234   2.444  10.923  2.9072  0.4486  2.3987
  982MOL0     H35485   5.123   2.300  10.953 -1.2546  0.0620 -1.2114
  982MOL0     H35486   5.306   2.449  11.142  0.4524 -0.6395  0.7554
  982MOL0     H35487   5.331   2.287  11.081 -2.0851 -1.9347 -1.5532
  982MOL0     H35488   5.236   2.278  11.311 -1.6704 -1.2117  1.6173
  982MOL0     H35489   5.101   2.383  11.277 -1.2319 -2.4232  4.0569
  982MOL0     H35490   5.017   2.201  11.120  0.9919  1.6634 -0.9073
  982MOL0     H35491   5.006   2.177  11.298  3.7027  2.8044  3.6596
  982MOL0     H35492   5.260   2.084  11.146  1.8355 -3.3108  0.1629
  982MOL0     H35493   5.107   1.982  11.159 -2.7931  1.6295  2.3210
  982MOL0     H35494   5.169   2.031  11.411 -4.2588 -0.4066 -2.1167
  982MOL0     H35495   5.340   2.061  11.333  0.2291 -0.7693  0.0242
  982MOL0     H35496   4.694   2.545  10.833  0.0977  0.9994  1.7331
  982MOL0     H35497   4.598   2.602  10.593  1.3871  0.8440 -1.0819
  982MOL0     H35498   4.551   2.860  10.257 -0.1783  1.5976 -0.0738
  982MOL0     H35499   4.507   2.997  10.074  1.3963  2.4500  1.3731
  982MOL0     H35500   3.697   2.331   9.625  5.5889  1.7974  1.6761
  982MOL0     H35501   3.834   2.194   9.777  0.8933 -0.8169 -0.2962
  982MOL0     H35502   4.049   2.043   9.904  0.2056 -2.1087 -0.3406
  982MOL0     H35503   4.209   2.067  10.073 -0.3428  1.0785 -1.3421
  982MOL0     H35504   4.059   1.959  10.456  0.8245  1.0491 -0.3832
  982MOL0     H35505   4.165   1.813  10.464  0.3275 -0.9577 -0.8380
  982MOL0     H35506   4.202   1.973  10.642  1.5719 -0.8640  0.0236
  982MOL0     H35507   4.234   2.088  10.496  1.0743 -0.1524  0.4003
  982MOL0     H35508   4.415   1.852  10.570 -1.5224 -0.9715 -0.2982
  982MOL0     H35509   4.447   1.977  10.458  2.2845 -0.5037  1.4583
  982MOL0     H35510   4.410   2.020  10.764 -2.9059  4.7991 -0.6565
  982MOL0     H35511   4.433   2.139  10.644  0.1169  0.2044 -1.7293
  982MOL0     H35512   4.825   1.947  10.646 -0.4729 -1.0771  1.7203
  982MOL0     H35513   3.992   1.765  10.293 -0.7476 -0.7643 -0.6755
  982MOL0     H35514   3.694   1.762  10.131  0.7769  2.9893  0.1483
  982MOL0     H35515   3.794   1.638  10.057 -2.5052  1.0107 -1.2973
  982MOL0     H35516   3.811   1.668  10.228  2.5044  0.6074  0.5562
  983MOL0     O35517  10.814   8.891   7.298 -0.1276 -0.7455  0.4148
  983MOL0     C35518  10.769   8.946   7.192  0.3011  0.5277 -0.1214
  983MOL0     O35519  10.836   9.041   7.124 -0.1579 -1.2241 -0.2056
  983MOL0     C35520  10.965   9.058   7.156 -0.9632 -0.4846 -0.6457
  983MOL0     C35521  11.072   9.027   7.081 -0.3613 -0.3672  0.7673
  983MOL0     C35522  11.196   9.089   7.111  0.5833 -0.0274  0.5930
  983MOL0     C35523  11.214   9.163   7.226 -0.4550 -0.2049 -0.1370
  983MOL0     O35524  11.327   9.229   7.271 -0.3459  0.7661 -0.1118
  983MOL0     C35525  11.452   9.192   7.194 -0.4327  0.3939 -0.7246
  983MOL0     C35526  11.585   9.258   7.247 -0.4736  0.1515  0.6438
  983MOL0     C35527  11.613   9.392   7.176 -0.3729 -0.3237 -0.4910
  983MOL0     C35528  11.755   9.424   7.214 -0.8038 -0.4075 -0.2949
  983MOL0     C35529  11.823   9.513   7.118  1.1230  0.9795  1.1338
  983MOL0     C35530  11.787   9.658   7.144 -0.2253 -0.8569  0.7429
  983MOL0     C35531  11.864   9.728   7.248  0.0045 -0.5112  0.0334
  983MOL0     C35532  12.003   9.775   7.196 -0.2122  0.3901  1.1752
  983MOL0     N35533  12.103   9.670   7.170  0.5734 -0.5436 -0.1077
  983MOL0     C35534  12.212   9.689   7.083  0.2615  1.4411 -0.8561
  983MOL0     C35535  12.293   9.589   7.110 -0.7273  0.4597  0.3242
  983MOL0     C35536  12.429   9.559   7.028 -0.1338  0.4466  1.1377
  983MOL0     C35537  12.527   9.676   7.017  0.0215  0.0325 -0.6854
  983MOL0     C35538  12.588   9.674   6.869 -1.1787 -0.4455  0.3056
  983MOL0     C35539  12.659   9.811   6.852 -0.5837  0.5150 -0.2394
  983MOL0     O35540  12.561   9.915   6.837 -0.2755  0.7160 -0.2422
  983MOL0     C35541  12.515   9.948   6.715  0.8523 -0.3913  0.2874
  983MOL0     C35542  12.428  10.057   6.715 -0.3597 -0.1506 -0.5531
  983MOL0     C35543  12.372  10.105   6.594  0.0998  0.6137  0.5630
  983MOL0     C35544  12.293  10.238   6.612  0.4782 -0.1118 -0.4645
  983MOL0     C35545  12.409  10.043   6.466 -0.6123  0.0186  0.5851
  983MOL0     C35546  12.372  10.096   6.332  0.1661  1.0319  0.2651
  983MOL0     O35547  12.448  10.055   6.226  0.7945  0.2961  0.1916
  983MOL0     C35548  12.419  10.115   6.102  0.0839 -0.5463 -0.3778
  983MOL0     C35549  12.349  10.051   5.999  0.7301  0.4813 -0.5069
  983MOL0     C35550  12.295  10.110   5.892 -0.0575 -0.2656  0.6942
  983MOL0     C35551  12.326  10.247   5.873  0.7976  0.6279  0.1195
  983MOL0     O35552  12.286  10.309   5.755 -0.5551 -0.1132 -0.1741
  983MOL0     C35553  12.254  10.242   5.632  0.3026  0.0302  0.6605
  983MOL0     C35554  12.105  10.240   5.614 -0.2013 -0.3228 -0.1953
  983MOL0     C35555  12.063  10.158   5.484  0.1080 -0.3550 -1.3429
  983MOL0     C35556  11.912  10.132   5.474  0.1400  1.0849 -0.1999
  983MOL0     C35557  11.836  10.221   5.374  0.0005  0.6547 -0.0644
  983MOL0     C35558  11.690  10.180   5.368  0.9546 -0.0287  0.0247
  983MOL0     C35559  11.632  10.257   5.243 -0.0561  0.3169 -0.3699
  983MOL0     C35560  11.489  10.229   5.197 -0.0576 -0.1475 -0.2152
  983MOL0    Cl35561  11.417  10.070   5.246 -0.1299  0.3126  0.5765
  983MOL0     C35562  12.404  10.319   5.963  0.2394  0.0882  0.1938
  983MOL0     C35563  12.450  10.251   6.079 -0.8154  0.2694  0.1754
  983MOL0     O35564  12.278  10.175   6.327 -0.3424  0.1859 -0.1498
  983MOL0     C35565  12.495   9.925   6.469  0.4596  0.4604  0.5711
  983MOL0     C35566  12.538   9.879   6.591 -0.0390  0.4506  0.0006
  983MOL0     N35567  12.242   9.519   7.214  0.3393  0.1492 -0.5341
  983MOL0     N35568  12.134   9.570   7.260 -0.7227 -0.0852  1.0697
  983MOL0     C35569  11.105   9.171   7.314  0.7809  1.1643 -0.2479
  983MOL0     C35570  10.982   9.118   7.283 -0.4119  0.0276  1.7410
  983MOL0     C35571  10.643   8.891   7.122  0.1905 -0.3346 -0.6133
  983MOL0     C35572  10.619   8.900   6.978 -0.3087 -0.4721  0.0995
  983MOL0     C35573  10.492   8.871   6.933 -0.2389  1.1878 -0.5183
  983MOL0     C35574  10.389   8.814   7.011  0.1324 -0.5671  0.9920
  983MOL0     O35575  10.260   8.799   6.971  0.3682 -0.5902 -0.3010
  983MOL0     C35576  10.200   8.910   6.902  1.0618  0.1653 -0.3156
  983MOL0     C35577  10.050   8.895   6.888  0.7860  0.0618  0.2784
  983MOL0     C35578   9.985   8.820   7.004 -0.3099 -0.2024  0.2497
  983MOL0     C35579  10.002   8.873   7.149  1.1126 -0.0151 -0.0417
  983MOL0     C35580   9.901   8.827   7.248 -0.8917  0.1139  0.1211
  983MOL0     C35581   9.804   8.813   7.317 -0.1964 -0.3767 -0.4939
  983MOL0     C35582  10.422   8.791   7.141  0.0748 -0.1125 -0.6463
  983MOL0     C35583  10.540   8.833   7.203 -0.0375 -1.2129  0.0670
  983MOL0     C35584  10.555   8.782   7.347 -0.4382  0.3011  0.2356
  983MOL0     H35585  11.059   8.965   6.992 -1.0127 -1.1079  1.3670
  983MOL0     H35586  11.272   9.073   7.036 -1.1930 -2.1114 -0.9092
  983MOL0     H35587  11.429   9.220   7.091  1.0130  3.1025 -0.4015
  983MOL0     H35588  11.466   9.084   7.204 -0.0851  0.6281  1.9057
  983MOL0     H35589  11.566   9.273   7.354 -3.0293  2.4554 -0.0049
  983MOL0     H35590  11.665   9.186   7.234  1.6859  2.3576  1.0113
  983MOL0     H35591  11.609   9.375   7.068  1.1131  2.3066 -1.0403
  983MOL0     H35592  11.532   9.461   7.202 -0.0816  0.3689 -1.3665
  983MOL0     H35593  11.751   9.466   7.315  0.3401  0.5732 -0.6267
  983MOL0     H35594  11.807   9.328   7.216 -0.4630 -0.2199  0.4208
  983MOL0     H35595  11.774   9.491   7.023 -1.5320  1.5296  2.2974
  983MOL0     H35596  11.931   9.495   7.114  0.6360 -2.2092 -1.8518
  983MOL0     H35597  11.798   9.709   7.049  4.1999 -1.0619  0.9789
  983MOL0     H35598  11.679   9.661   7.165 -0.5923 -3.3072 -0.3938
  983MOL0     H35599  11.876   9.666   7.337  0.3078 -0.7804 -0.1911
  983MOL0     H35600  11.793   9.807   7.276  1.4834  1.9103 -2.4828
  983MOL0     H35601  11.982   9.829   7.103  1.3503 -0.2888  0.3938
  983MOL0     H35602  12.043   9.845   7.270 -0.1402  0.9567  0.6195
  983MOL0     H35603  12.244   9.761   7.008 -0.8732  1.6949 -1.1167
  983MOL0     H35604  12.402   9.526   6.928  2.9685  0.3703  0.2026
  983MOL0     H35605  12.477   9.478   7.083 -0.3584  0.6374  1.6166
  983MOL0     H35606  12.468   9.767   7.034  1.9183  1.3769 -0.9685
  983MOL0     H35607  12.606   9.678   7.093  0.9020  2.5106 -1.5599
  983MOL0     H35608  12.655   9.588   6.870 -1.9870 -1.0800  0.7067
  983MOL0     H35609  12.511   9.656   6.793 -2.4140 -3.6521  2.1336
  983MOL0     H35610  12.723   9.829   6.939 -1.3068  3.3503 -0.2038
  983MOL0     H35611  12.719   9.805   6.761 -1.3995  0.3853 -0.7810
  983MOL0     H35612  12.415  10.095   6.816 -1.3460 -1.4249 -0.1642
  983MOL0     H35613  12.191  10.211   6.582  1.1539 -2.9359 -0.4655
  983MOL0     H35614  12.339  10.325   6.565 -0.1088  1.3197  1.4758
  983MOL0     H35615  12.288  10.258   6.720 -0.0071  0.9647 -0.6656
  983MOL0     H35616  12.336   9.947   6.026 -0.8261  1.0691  1.2476
  983MOL0     H35617  12.240  10.046   5.824  2.2049 -1.8764  0.2728
  983MOL0     H35618  12.299  10.293   5.546  2.6080 -2.9754 -0.1249
  983MOL0     H35619  12.277  10.135   5.636 -0.5740 -0.1628  0.6984
  983MOL0     H35620  12.051  10.193   5.697 -0.8685  2.1583  0.8654
  983MOL0     H35621  12.059  10.338   5.601 -3.1961 -1.6335 -0.1469
  983MOL0     H35622  12.099  10.054   5.483 -1.6354 -1.0050 -0.7751
  983MOL0     H35623  12.098  10.205   5.392  0.5502  0.0332 -0.9787
  983MOL0     H35624  11.872  10.159   5.572  1.1406 -0.1224  0.5768
  983MOL0     H35625  11.895  10.026   5.451  1.1234  1.0442 -0.8078
  983MOL0     H35626  11.833  10.326   5.404 -0.5768  0.8684 -0.8462
  983MOL0     H35627  11.886  10.212   5.277  1.2167 -0.0956  0.6019
  983MOL0     H35628  11.643  10.208   5.463 -0.1630 -0.3451 -0.4263
  983MOL0     H35629  11.683  10.072   5.357 -0.1122 -0.0263  0.5571
  983MOL0     H35630  11.700  10.235   5.160 -2.0104 -0.5542 -1.8216
  983MOL0     H35631  11.641  10.365   5.256  0.9774  0.4450 -1.9403
  983MOL0     H35632  11.464  10.240   5.091 -1.1668  0.5316  0.0978
  983MOL0     H35633  11.437  10.312   5.247  0.2900  1.1028 -1.8379
  983MOL0     H35634  12.432  10.421   5.936 -1.0663  0.5603  0.5343
  983MOL0     H35635  12.515  10.301   6.150 -1.2858 -0.1340  0.9066
  983MOL0     H35636  12.542   9.871   6.387  1.0104 -0.3763  1.4169
  983MOL0     H35637  12.605   9.794   6.592  0.0363  0.5116  0.2129
  983MOL0     H35638  11.105   9.225   7.409 -3.3215 -0.0440  0.6510
  983MOL0     H35639  10.886   9.122   7.333 -1.8768  0.0549 -0.9002
  983MOL0     H35640  10.700   8.943   6.918 -1.6398  2.5988  0.3153
  983MOL0     H35641  10.473   8.883   6.827  0.6570 -3.7011 -1.4505
  983MOL0     H35642  10.220   8.998   6.964  1.5411 -0.7266  0.8183
  983MOL0     H35643  10.247   8.910   6.803 -0.4899 -4.0623 -1.2333
  983MOL0     H35644  10.030   8.840   6.795  2.0774  1.1237 -0.6720
  983MOL0     H35645  10.002   8.992   6.871  0.6220 -0.3946 -2.3210
  983MOL0     H35646   9.878   8.832   6.982 -0.3503 -0.1667  0.4617
  983MOL0     H35647  10.005   8.713   6.999  1.8899  0.1091  1.3409
  983MOL0     H35648  10.016   8.981   7.157  2.2591 -0.2299  1.1288
  983MOL0     H35649  10.100   8.837   7.182  1.3229  0.2632 -0.3531
  983MOL0     H35650   9.717   8.798   7.378 -0.7040  2.4573 -0.3773
  983MOL0     H35651  10.358   8.724   7.197 -1.0186 -0.4636 -2.2674
  983MOL0     H35652  10.594   8.851   7.422  0.7270 -0.3328  0.2384
  983MOL0     H35653  10.461   8.743   7.387 -0.2616 -1.3228 -0.8310
  983MOL0     H35654  10.612   8.690   7.334  1.5189  1.6907 -1.6430
  984MOL0     O35655   1.948   3.094   3.332 -0.2085 -0.0538  0.2244
  984MOL0     C35656   2.011   3.198   3.315  0.0972 -0.1574 -0.4855
  984MOL0     O35657   1.963   3.323   3.356 -0.4819 -0.3836  0.6744
  984MOL0     C35658   1.869   3.307   3.458 -0.6418  0.5956  0.4399
  984MOL0     C35659   1.923   3.311   3.590 -0.0970  0.3161  0.2294
  984MOL0     C35660   1.821   3.290   3.691 -0.4259 -0.7870 -0.6811
  984MOL0     C35661   1.688   3.284   3.669  0.1318  0.1571  0.5571
  984MOL0     O35662   1.595   3.283   3.761  0.3989  0.6092 -0.0960
  984MOL0     C35663   1.555   3.412   3.806 -0.0508  0.3635 -0.9031
  984MOL0     C35664   1.428   3.398   3.895 -0.4132 -0.0924 -0.5008
  984MOL0     C35665   1.449   3.356   4.039  0.1984 -1.0962 -0.0704
  984MOL0     C35666   1.474   3.214   4.057 -0.6691  0.0581 -0.6843
  984MOL0     C35667   1.477   3.167   4.202 -0.6152  0.7392 -0.1321
  984MOL0     C35668   1.341   3.189   4.269  1.0547  0.5566  0.6110
  984MOL0     C35669   1.239   3.088   4.208  0.1753  0.5035  0.0967
  984MOL0     C35670   1.102   3.107   4.262 -0.1662 -0.3715 -0.5012
  984MOL0     N35671   1.053   3.244   4.235  0.0024 -0.1228 -0.2063
  984MOL0     C35672   1.024   3.292   4.107  0.1944 -0.3364  0.1427
  984MOL0     C35673   0.956   3.406   4.131  0.4528 -0.1594  0.2307
  984MOL0     C35674   0.893   3.505   4.041  0.3053  0.1039 -0.3822
  984MOL0     C35675   1.000   3.608   3.984 -0.6729  0.0204  0.0744
  984MOL0     C35676   1.120   3.545   3.908  0.2152  0.3580 -0.0952
  984MOL0     C35677   1.075   3.504   3.768  0.0852  0.1096 -0.0332
  984MOL0     O35678   1.183   3.442   3.694 -0.5234 -0.0166 -0.2446
  984MOL0     C35679   1.233   3.520   3.601 -0.0942 -0.5247  0.9998
  984MOL0     C35680   1.296   3.452   3.498 -0.0670  0.1527  0.7444
  984MOL0     C35681   1.358   3.521   3.388  0.5009  0.2300 -0.0910
  984MOL0     C35682   1.435   3.434   3.302  0.5413  0.4129 -0.2905
  984MOL0     C35683   1.355   3.664   3.377  0.4087 -0.0625  0.1658
  984MOL0     C35684   1.407   3.745   3.263  0.2972  0.7451  0.4826
  984MOL0     O35685   1.373   3.871   3.251 -0.0067 -0.1743  0.0293
  984MOL0     C35686   1.417   3.937   3.135  0.4272  0.3596  0.3687
  984MOL0     C35687   1.343   3.914   3.009  0.0108  0.1733 -0.5981
  984MOL0     C35688   1.392   3.968   2.886 -0.7885  0.0290 -0.2459
  984MOL0     C35689   1.503   4.050   2.893  0.9122  0.2497 -0.5262
  984MOL0     O35690   1.544   4.109   2.781 -0.1241  0.4225 -0.8576
  984MOL0     C35691   1.472   4.092   2.655  0.2586  0.3097 -0.0887
  984MOL0     C35692   1.535   4.179   2.546  0.1081 -0.2276  0.5986
  984MOL0     C35693   1.484   4.150   2.405 -0.4930  0.2871  0.2717
  984MOL0     C35694   1.579   4.071   2.318 -0.0963 -0.3482 -0.3563
  984MOL0     C35695   1.595   4.118   2.170 -0.0087  0.0036  0.4839
  984MOL0     C35696   1.475   4.082   2.086 -1.0719 -1.4834  0.7116
  984MOL0     C35697   1.515   4.071   1.943 -0.6490  0.0320 -0.2428
  984MOL0     C35698   1.386   4.081   1.859 -0.4159  0.7503  0.3870
  984MOL0    Cl35699   1.418   4.021   1.688 -0.2070  0.3552  0.2982
  984MOL0     C35700   1.568   4.074   3.006 -0.4321 -0.2356 -0.6800
  984MOL0     C35701   1.529   4.015   3.126  0.2001 -0.4350  0.7564
  984MOL0     O35702   1.492   3.684   3.190  0.2507  0.0599  0.4429
  984MOL0     C35703   1.287   3.730   3.480  0.5756  0.6034 -0.0575
  984MOL0     C35704   1.241   3.661   3.595 -0.2117  0.3161  1.0449
  984MOL0     N35705   0.934   3.419   4.270 -0.3502 -0.2249  0.6452
  984MOL0     N35706   0.986   3.321   4.327  0.5688 -0.2516 -0.7748
  984MOL0     C35707   1.645   3.289   3.535 -0.0746  0.7240  0.3565
  984MOL0     C35708   1.739   3.292   3.426  0.4873 -0.0892 -0.9258
  984MOL0     C35709   2.143   3.198   3.243  0.1670 -0.3887  0.5380
  984MOL0     C35710   2.186   3.323   3.196  0.6313 -0.4622  0.4167
  984MOL0     C35711   2.313   3.338   3.138  0.5007 -0.0835  0.1605
  984MOL0     C35712   2.397   3.228   3.122  0.4292  0.5170  0.7328
  984MOL0     O35713   2.502   3.232   3.039  0.6260  0.8437  0.2638
  984MOL0     C35714   2.585   3.349   3.039  0.5412 -0.5052 -0.2044
  984MOL0     C35715   2.721   3.305   2.978  1.0307 -0.3805  0.0383
  984MOL0     C35716   2.780   3.205   3.075  0.0447 -0.6518  0.0099
  984MOL0     C35717   2.935   3.197   3.068  0.8581 -0.4733 -0.8370
  984MOL0     C35718   2.966   3.155   2.931  0.8095  0.4510 -0.6089
  984MOL0     C35719   2.976   3.136   2.810 -0.2828  0.0967 -1.6151
  984MOL0     C35720   2.350   3.102   3.167 -1.0616  0.6147  0.0505
  984MOL0     C35721   2.226   3.083   3.228 -0.7573 -0.6118  0.1616
  984MOL0     C35722   2.171   2.947   3.264  0.0621 -0.3872 -0.3048
  984MOL0     H35723   2.029   3.316   3.611 -0.1526 -0.1250  0.6446
  984MOL0     H35724   1.843   3.270   3.795  0.2687 -0.4240 -0.7526
  984MOL0     H35725   1.546   3.477   3.719  0.0346  1.2494 -0.2643
  984MOL0     H35726   1.637   3.457   3.861  0.1989 -0.4394 -0.5985
  984MOL0     H35727   1.385   3.499   3.902  0.6979  0.5272 -2.0645
  984MOL0     H35728   1.358   3.329   3.848  0.2669 -1.4344  0.3801
  984MOL0     H35729   1.530   3.416   4.082 -0.8027  1.5895 -1.7323
  984MOL0     H35730   1.359   3.388   4.092  1.4810 -0.2132  1.6645
  984MOL0     H35731   1.408   3.153   3.994  0.2547  0.0795 -1.6955
  984MOL0     H35732   1.574   3.203   4.015  0.7351  0.7442  2.2430
  984MOL0     H35733   1.556   3.216   4.258  3.3297 -3.4659 -1.3773
  984MOL0     H35734   1.501   3.060   4.210  0.2952  1.0868  2.6492
  984MOL0     H35735   1.358   3.164   4.374  0.1861 -1.1417  0.3834
  984MOL0     H35736   1.320   3.296   4.261  5.9867  1.7833  0.8247
  984MOL0     H35737   1.285   2.990   4.226  0.9962  1.0590  1.1608
  984MOL0     H35738   1.228   3.102   4.101  0.4359  0.2886  0.0391
  984MOL0     H35739   1.023   3.041   4.226 -1.1067  1.0181 -1.0965
  984MOL0     H35740   1.104   3.089   4.370  0.5392  0.1417 -0.4185
  984MOL0     H35741   1.069   3.262   4.013  2.7791  1.6415  0.6273
  984MOL0     H35742   0.809   3.552   4.093  0.7512 -0.1462  0.5909
  984MOL0     H35743   0.842   3.450   3.962 -0.4175 -1.5345  1.1640
  984MOL0     H35744   0.954   3.685   3.921 -0.2385  2.4905  2.5576
  984MOL0     H35745   1.033   3.663   4.072 -1.4736 -2.2839  1.9377
  984MOL0     H35746   1.201   3.614   3.883 -0.8711  0.7813 -2.7369
  984MOL0     H35747   1.159   3.457   3.960  2.8820  0.5707 -1.5819
  984MOL0     H35748   1.006   3.420   3.770 -0.0034  0.1927  1.2379
  984MOL0     H35749   1.032   3.594   3.723  1.5246  0.4745 -0.7379
  984MOL0     H35750   1.292   3.345   3.514 -3.6096  0.6708  5.2933
  984MOL0     H35751   1.400   3.442   3.199  1.4953  1.7805 -0.5245
  984MOL0     H35752   1.448   3.327   3.323 -0.3868  0.1713 -0.8851
  984MOL0     H35753   1.539   3.466   3.293  0.8319 -0.7349 -1.2928
  984MOL0     H35754   1.260   3.844   3.006 -2.1721  2.6209 -0.5409
  984MOL0     H35755   1.332   3.959   2.797 -2.6502  2.8980  0.5853
  984MOL0     H35756   1.468   3.985   2.630  1.4678  0.1094  0.5308
  984MOL0     H35757   1.368   4.126   2.659  0.3241  0.7744 -1.7161
  984MOL0     H35758   1.507   4.283   2.565 -2.9297 -0.6403 -1.0184
  984MOL0     H35759   1.643   4.162   2.548  0.5667  1.9554 -1.0307
  984MOL0     H35760   1.476   4.247   2.357 -1.7038  0.3726  0.6067
  984MOL0     H35761   1.385   4.103   2.401 -0.4490  0.2650 -0.7132
  984MOL0     H35762   1.545   3.968   2.333  0.6795 -0.4421  0.9367
  984MOL0     H35763   1.683   4.077   2.354 -0.6662  0.7669  1.2285
  984MOL0     H35764   1.634   4.220   2.162 -1.1488  0.3974 -0.2747
  984MOL0     H35765   1.676   4.052   2.139  1.4563  0.7568  2.4751
  984MOL0     H35766   1.409   4.170   2.091  2.5210  1.3788  3.5482
  984MOL0     H35767   1.416   3.995   2.118 -2.4390 -1.3812 -1.3748
  984MOL0     H35768   1.572   3.980   1.919  0.3477  0.8073 -0.8707
  984MOL0     H35769   1.588   4.149   1.921  1.1310 -1.6105 -0.4278
  984MOL0     H35770   1.342   4.181   1.852 -3.0575 -0.1818  2.1264
  984MOL0     H35771   1.307   4.017   1.899 -1.3084 -0.4501 -2.9285
  984MOL0     H35772   1.658   4.134   2.996  0.2972 -1.6084 -3.9255
  984MOL0     H35773   1.590   4.037   3.213  0.7548 -0.1018  0.2894
  984MOL0     H35774   1.277   3.838   3.473 -1.1400  0.5166  0.5985
  984MOL0     H35775   1.215   3.727   3.677  1.9335  1.4795  0.8484
  984MOL0     H35776   1.537   3.290   3.524 -0.0044  1.0631 -0.3410
  984MOL0     H35777   1.707   3.297   3.322 -1.4326  3.0189 -0.2945
  984MOL0     H35778   2.110   3.400   3.186  0.8153 -0.1384  1.4110
  984MOL0     H35779   2.342   3.438   3.108  3.0776 -1.1114 -1.0927
  984MOL0     H35780   2.544   3.430   2.978  1.1883  0.7115  0.9264
  984MOL0     H35781   2.598   3.403   3.134 -0.5552 -1.1245  0.3129
  984MOL0     H35782   2.778   3.395   2.957  1.1760 -0.4682  0.0543
  984MOL0     H35783   2.715   3.263   2.877 -0.2326  4.8593 -2.4068
  984MOL0     H35784   2.750   3.233   3.176  2.7822 -0.6962  0.9037
  984MOL0     H35785   2.748   3.102   3.056 -0.6884 -0.4374  0.0154
  984MOL0     H35786   2.992   3.142   3.143  0.3960 -1.9213 -1.5046
  984MOL0     H35787   2.981   3.295   3.082  0.4031 -0.2641 -0.8100
  984MOL0     H35788   2.993   3.116   2.706 -1.0103 -1.8124 -1.4062
  984MOL0     H35789   2.416   3.017   3.156  2.2315  2.5253  2.7335
  984MOL0     H35790   2.137   2.939   3.367  0.4821  1.8820  0.0599
  984MOL0     H35791   2.090   2.917   3.196 -1.4476  0.4274  1.0618
  984MOL0     H35792   2.245   2.867   3.255 -0.2861 -0.4569 -4.3670
  985MOL0     O35793   9.779   8.161   2.847  0.0578 -0.5800  0.0321
  985MOL0     C35794   9.796   8.261   2.779 -0.4254 -0.0397  0.2902
  985MOL0     O35795   9.920   8.301   2.728 -0.3465  0.5362 -0.4235
  985MOL0     C35796  10.038   8.253   2.774 -0.1351  0.2256 -0.2689
  985MOL0     C35797  10.158   8.326   2.743  1.1706  0.2363 -0.6886
  985MOL0     C35798  10.278   8.279   2.779 -0.2772  0.3930  0.0314
  985MOL0     C35799  10.294   8.161   2.846  0.0590 -0.1041  0.3560
  985MOL0     O35800  10.415   8.120   2.877 -0.4191  0.2026  0.0154
  985MOL0     C35801  10.497   8.200   2.967  0.0152 -0.0947 -0.2035
  985MOL0     C35802  10.616   8.271   2.897  1.3247 -0.8424 -0.9073
  985MOL0     C35803  10.727   8.297   2.995  0.2832  0.5505  0.0828
  985MOL0     C35804  10.681   8.374   3.120  0.1976  0.0223 -0.2249
  985MOL0     C35805  10.781   8.417   3.225 -0.2205  0.1047  0.3789
  985MOL0     C35806  10.913   8.469   3.162  0.6209 -0.0563  0.8258
  985MOL0     C35807  10.992   8.539   3.276  0.3997  0.1927  0.2656
  985MOL0     C35808  11.133   8.578   3.236  0.5522  0.8831 -0.2690
  985MOL0     N35809  11.201   8.641   3.348 -0.4041  0.3053  0.5454
  985MOL0     C35810  11.247   8.569   3.459 -0.3467 -0.1173 -0.1890
  985MOL0     C35811  11.309   8.679   3.520  0.0779 -0.0161 -0.5877
  985MOL0     C35812  11.382   8.663   3.652 -0.1823  0.3822  0.0281
  985MOL0     C35813  11.532   8.658   3.639  0.5075 -0.5271 -0.5042
  985MOL0     C35814  11.598   8.638   3.774 -0.0451 -0.6181  0.0742
  985MOL0     C35815  11.748   8.626   3.765  0.2586  0.1815  0.2041
  985MOL0     O35816  11.799   8.755   3.760  0.2968 -0.1396  0.3618
  985MOL0     C35817  11.902   8.800   3.684 -0.5426 -0.0894 -0.3282
  985MOL0     C35818  11.950   8.928   3.694 -0.1214  0.4249 -0.1556
  985MOL0     C35819  12.059   8.985   3.612 -0.7958 -0.5612  0.3921
  985MOL0     C35820  12.101   9.134   3.623  0.1778  0.9736  1.0100
  985MOL0     C35821  12.116   8.893   3.518  0.1700  0.0490 -0.0256
  985MOL0     C35822  12.226   8.926   3.431 -0.2836 -0.1517 -0.5192
  985MOL0     O35823  12.298   8.818   3.386  0.1297 -0.3914 -0.3919
  985MOL0     C35824  12.395   8.840   3.294 -1.0531 -0.7793 -0.3371
  985MOL0     C35825  12.517   8.903   3.323  0.4680 -0.0435 -0.1192
  985MOL0     C35826  12.610   8.915   3.216 -0.6368  0.1998  0.3912
  985MOL0     C35827  12.580   8.873   3.082 -0.3727  0.4096  0.1627
  985MOL0     O35828  12.670   8.901   2.984  0.3243 -0.3161 -0.9397
  985MOL0     C35829  12.638   9.030   2.929 -0.1833  0.1301  0.2254
  985MOL0     C35830  12.776   9.106   2.920 -1.1138  0.7324  0.0819
  985MOL0     C35831  12.777   9.232   2.836  1.0192  0.5515  0.6332
  985MOL0     C35832  12.921   9.266   2.815  1.3619  0.8499  0.3193
  985MOL0     C35833  12.919   9.395   2.738 -0.6553 -1.2645  0.6444
  985MOL0     C35834  13.054   9.415   2.673  0.3089 -0.3180  0.9199
  985MOL0     C35835  13.092   9.562   2.640  0.2268  0.6592  0.1730
  985MOL0     C35836  13.236   9.586   2.614 -0.0517 -0.3334 -0.9507
  985MOL0    Cl35837  13.262   9.701   2.484  0.5817 -0.0205  0.5430
  985MOL0     C35838  12.451   8.826   3.051  0.0325 -0.1966  0.1500
  985MOL0     C35839  12.369   8.800   3.160  0.5815  0.7421 -0.0985
  985MOL0     O35840  12.236   9.046   3.393 -0.4378  0.2830 -0.3701
  985MOL0     C35841  12.075   8.757   3.519 -0.2091  0.5447 -0.0251
  985MOL0     C35842  11.967   8.719   3.595 -0.1845  0.0599 -0.6532
  985MOL0     N35843  11.281   8.798   3.455 -0.8681  0.0793  0.2296
  985MOL0     N35844  11.232   8.765   3.345  0.4320 -0.4675  0.0131
  985MOL0     C35845  10.193   8.086   2.878  0.2486 -0.0100 -0.8327
  985MOL0     C35846  10.062   8.130   2.836 -1.1220  0.6180 -0.5193
  985MOL0     C35847   9.683   8.327   2.714 -0.3256 -0.0076  0.0830
  985MOL0     C35848   9.689   8.394   2.592 -0.0604 -0.6876 -0.6659
  985MOL0     C35849   9.579   8.458   2.532 -0.0030  0.1008  0.2118
  985MOL0     C35850   9.460   8.458   2.597  0.7963  0.6704 -0.0265
  985MOL0     O35851   9.362   8.540   2.546 -0.5186  0.0457  0.0507
  985MOL0     C35852   9.231   8.489   2.527  0.4063  0.0675  0.1892
  985MOL0     C35853   9.171   8.573   2.423  0.3049  0.6557 -0.2957
  985MOL0     C35854   9.221   8.572   2.277 -0.7965 -0.0078 -0.2337
  985MOL0     C35855   9.112   8.638   2.185 -0.8353 -0.4063 -0.7511
  985MOL0     C35856   9.076   8.769   2.243  0.7267 -0.2370 -0.2611
  985MOL0     C35857   9.053   8.881   2.291 -0.1625 -0.2642 -0.8219
  985MOL0     C35858   9.440   8.374   2.715  0.3069  0.4597  0.0804
  985MOL0     C35859   9.555   8.315   2.777  0.0021  0.4137 -0.6960
  985MOL0     C35860   9.529   8.249   2.907  0.2103  0.4598 -0.2575
  985MOL0     H35861  10.147   8.422   2.694 -0.2630  0.0043 -0.8503
  985MOL0     H35862  10.362   8.340   2.747  1.6303 -1.3216  1.4686
  985MOL0     H35863  10.543   8.136   3.042 -1.8919  0.9920  2.0394
  985MOL0     H35864  10.427   8.275   3.005  0.8180  0.5101  0.1187
  985MOL0     H35865  10.654   8.219   2.808  0.1026 -1.4335 -1.1073
  985MOL0     H35866  10.582   8.368   2.861  0.4712 -0.3160  1.1647
  985MOL0     H35867  10.777   8.201   3.010  0.6151  0.0901 -3.1092
  985MOL0     H35868  10.793   8.364   2.938  3.4839 -1.6273  0.9495
  985MOL0     H35869  10.632   8.457   3.070 -1.4395 -0.6504  0.1954
  985MOL0     H35870  10.605   8.306   3.160  0.1860 -0.9805 -1.8823
  985MOL0     H35871  10.807   8.332   3.289 -2.0262 -0.5822  0.2458
  985MOL0     H35872  10.738   8.493   3.290  1.0326  1.0721  0.1331
  985MOL0     H35873  10.963   8.381   3.120  0.3553  0.8000 -1.4224
  985MOL0     H35874  10.894   8.535   3.077 -1.5588 -1.3379  0.2265
  985MOL0     H35875  11.010   8.455   3.343  0.3422 -0.4967 -0.5576
  985MOL0     H35876  10.931   8.624   3.307 -0.7128 -0.2376 -0.6713
  985MOL0     H35877  11.189   8.498   3.187 -0.5745 -0.2719  0.2693
  985MOL0     H35878  11.107   8.649   3.156  0.8049  0.4301 -0.7601
  985MOL0     H35879  11.249   8.461   3.476 -2.3061 -0.1445  0.1597
  985MOL0     H35880  11.338   8.574   3.700  0.5177 -0.4598 -0.8400
  985MOL0     H35881  11.370   8.752   3.714  5.2501  1.0645  0.6227
  985MOL0     H35882  11.553   8.580   3.565 -0.4872 -0.4998 -0.8384
  985MOL0     H35883  11.566   8.754   3.597  0.6004  0.3961  1.5655
  985MOL0     H35884  11.581   8.736   3.820  4.3110  0.0970  0.6166
  985MOL0     H35885  11.559   8.559   3.840 -2.5249 -0.8147 -1.4930
  985MOL0     H35886  11.800   8.581   3.850 -0.1999  0.7456  0.7963
  985MOL0     H35887  11.766   8.573   3.671 -1.2582 -1.8549  0.9622
  985MOL0     H35888  11.897   8.985   3.770  2.2897  1.2469  0.9995
  985MOL0     H35889  12.028   9.186   3.685 -0.9317  1.4867 -0.6545
  985MOL0     H35890  12.096   9.187   3.527 -1.5738  1.6312  1.4146
  985MOL0     H35891  12.198   9.152   3.669  0.8467  1.6842 -0.5987
  985MOL0     H35892  12.533   8.952   3.418 -0.3275  1.3583 -0.6747
  985MOL0     H35893  12.701   8.974   3.229  0.7357 -1.4988 -1.0421
  985MOL0     H35894  12.581   9.011   2.838  2.9875 -0.2873 -1.8386
  985MOL0     H35895  12.569   9.082   2.997  0.7047  0.0040  1.2548
  985MOL0     H35896  12.820   9.136   3.016 -1.3732 -1.6692  1.0313
  985MOL0     H35897  12.854   9.036   2.889 -0.4945  1.1879  0.6014
  985MOL0     H35898  12.723   9.313   2.886 -1.7103 -0.2850 -0.7013
  985MOL0     H35899  12.723   9.222   2.741 -5.0145 -0.5410  3.7000
  985MOL0     H35900  12.965   9.189   2.751  2.6661  1.6203  0.2343
  985MOL0     H35901  12.979   9.279   2.908 -0.6259  0.4077  1.6839
  985MOL0     H35902  12.848   9.400   2.654 -1.8162  0.8521  1.6687
  985MOL0     H35903  12.905   9.481   2.804  2.3303  0.6231 -0.9351
  985MOL0     H35904  13.054   9.354   2.583  1.9094  1.7078 -0.5483
  985MOL0     H35905  13.131   9.381   2.742 -2.0211 -0.9320  3.4116
  985MOL0     H35906  13.070   9.633   2.720  2.7981  1.8836 -0.1001
  985MOL0     H35907  13.037   9.589   2.549 -0.9387 -0.4539  0.5144
  985MOL0     H35908  13.290   9.494   2.590 -0.2440 -1.5911  2.7568
  985MOL0     H35909  13.290   9.607   2.707 -0.3838  2.7044 -1.3388
  985MOL0     H35910  12.430   8.797   2.948  3.5863  1.0231 -1.0755
  985MOL0     H35911  12.280   8.740   3.149  2.0496 -1.6672  0.4337
  985MOL0     H35912  12.120   8.675   3.463 -1.8113 -0.6673  0.3889
  985MOL0     H35913  11.955   8.611   3.600  2.1635 -0.2364  0.3911
  985MOL0     H35914  10.207   7.999   2.941  4.1218  0.9281 -0.1179
  985MOL0     H35915   9.983   8.056   2.849 -1.7897  1.3942 -0.0249
  985MOL0     H35916   9.791   8.400   2.555  1.1977 -1.6902  2.2931
  985MOL0     H35917   9.593   8.500   2.434  1.9023  0.4482  0.5970
  985MOL0     H35918   9.228   8.384   2.499 -2.0205  0.0089  0.3887
  985MOL0     H35919   9.176   8.505   2.621  3.2883 -0.5212  2.0979
  985MOL0     H35920   9.170   8.672   2.470 -0.5821  0.9328 -0.8831
  985MOL0     H35921   9.070   8.533   2.410  0.9573 -0.4420 -2.5158
  985MOL0     H35922   9.322   8.614   2.275 -0.7165 -0.0587  1.5351
  985MOL0     H35923   9.234   8.467   2.248 -0.8481 -0.2268  0.5289
  985MOL0     H35924   9.023   8.575   2.174 -1.3688 -0.1647  1.5311
  985MOL0     H35925   9.157   8.645   2.086  2.4034  1.3760  0.6787
  985MOL0     H35926   9.043   8.978   2.336  0.7920 -0.0919 -0.9655
  985MOL0     H35927   9.340   8.357   2.754 -1.5670  1.8568 -3.6419
  985MOL0     H35928   9.605   8.281   2.979  1.1605 -0.1319 -0.9685
  985MOL0     H35929   9.429   8.266   2.948  1.0443  3.0533  0.9678
  985MOL0     H35930   9.539   8.140   2.900 -0.3505  0.4778 -1.9246
  986MOL0     O35931   5.051   3.923   0.105  0.2042 -0.1157 -0.4954
  986MOL0     C35932   4.950   3.903   0.042 -0.0187  0.0564 -0.3867
  986MOL0     O35933   4.938   3.817  -0.068  0.3862  0.0530 -0.6101
  986MOL0     C35934   5.050   3.766  -0.123 -0.0590 -0.0142  0.1118
  986MOL0     C35935   5.101   3.644  -0.074  0.0741 -0.7089 -0.3816
  986MOL0     C35936   5.218   3.583  -0.127 -0.5792 -0.4207  0.2204
  986MOL0     C35937   5.274   3.647  -0.239  0.0637  0.5677  1.2143
  986MOL0     O35938   5.380   3.591  -0.305  0.8657  1.2167  0.5798
  986MOL0     C35939   5.494   3.678  -0.330  0.5474  0.7548  0.1640
  986MOL0     C35940   5.616   3.608  -0.369 -0.4596  0.4278 -0.1090
  986MOL0     C35941   5.606   3.563  -0.523  0.2722  0.5228  0.0502
  986MOL0     C35942   5.726   3.486  -0.576  0.3211  1.0129  0.2350
  986MOL0     C35943   5.698   3.439  -0.722 -0.5543 -0.2248 -0.0516
  986MOL0     C35944   5.783   3.314  -0.746 -0.0418  0.1563  0.1524
  986MOL0     C35945   5.805   3.303  -0.902 -0.5090 -0.6055 -0.7068
  986MOL0     C35946   5.900   3.184  -0.907 -0.3639  0.1058 -0.4203
  986MOL0     N35947   5.934   3.160  -1.046  0.3964 -0.5878  0.3316
  986MOL0     C35948   6.004   3.246  -1.126  0.3007 -0.1502  0.2487
  986MOL0     C35949   6.002   3.189  -1.248 -0.0544  0.1688  0.3070
  986MOL0     C35950   6.065   3.254  -1.365 -0.1858  0.7607 -0.2138
  986MOL0     C35951   6.213   3.283  -1.337  0.6509  0.3074  0.4739
  986MOL0     C35952   6.290   3.152  -1.327 -0.2540  0.6686  0.4858
  986MOL0     C35953   6.430   3.156  -1.275  0.0362  0.0957 -0.7272
  986MOL0     O35954   6.504   3.253  -1.349  0.6201  0.1160  0.0021
  986MOL0     C35955   6.642   3.263  -1.317 -0.0121 -0.0626 -0.0609
  986MOL0     C35956   6.711   3.363  -1.384 -0.1661  0.0063  0.3624
  986MOL0     C35957   6.844   3.391  -1.364 -0.9283 -0.3832 -1.0339
  986MOL0     C35958   6.904   3.503  -1.447  0.5559  1.0078  0.1095
  986MOL0     C35959   6.917   3.319  -1.258  1.1614 -0.6090  0.5869
  986MOL0     C35960   7.061   3.349  -1.222  0.8406  0.5872 -0.6082
  986MOL0     O35961   7.128   3.447  -1.284 -0.1887 -0.2701 -0.0347
  986MOL0     C35962   7.252   3.490  -1.244 -0.2568 -0.8833  0.8960
  986MOL0     C35963   7.366   3.438  -1.302  0.6243  0.1757  0.5956
  986MOL0     C35964   7.493   3.486  -1.272  1.0052  0.4470  0.4167
  986MOL0     C35965   7.507   3.579  -1.166 -1.4328 -0.2816  0.4178
  986MOL0     O35966   7.633   3.624  -1.154 -0.5504 -0.5960 -0.0696
  986MOL0     C35967   7.658   3.729  -1.065 -0.0934 -0.3556  0.7545
  986MOL0     C35968   7.814   3.733  -1.052  0.2876 -0.3358  0.3051
  986MOL0     C35969   7.857   3.608  -0.963 -0.3361 -0.3027  0.7690
  986MOL0     C35970   8.002   3.576  -0.974  0.7211 -0.0404  0.4578
  986MOL0     C35971   8.017   3.433  -0.926  0.8057 -0.0843 -1.1563
  986MOL0     C35972   8.167   3.394  -0.941  0.7695  0.5141 -0.4056
  986MOL0     C35973   8.211   3.273  -0.853 -0.0474  0.2609  0.4362
  986MOL0     C35974   8.202   3.138  -0.911  1.1405  0.5976  0.0331
  986MOL0    Cl35975   8.252   3.016  -0.798  0.0552 -0.1474  0.1275
  986MOL0     C35976   7.387   3.614  -1.096 -1.0762 -1.3315  0.6288
  986MOL0     C35977   7.266   3.588  -1.141  0.4071  0.0072  0.5876
  986MOL0     O35978   7.097   3.277  -1.129 -0.3678 -0.6084  0.0813
  986MOL0     C35979   6.843   3.205  -1.199 -0.1198 -1.3488  0.5235
  986MOL0     C35980   6.703   3.171  -1.227 -1.1138 -0.4674 -0.3617
  986MOL0     N35981   5.924   3.075  -1.249 -0.1547 -0.0167 -0.2774
  986MOL0     N35982   5.901   3.058  -1.126  0.2963  0.5399 -0.4504
  986MOL0     C35983   5.212   3.762  -0.296  0.2089  0.0742 -0.8391
  986MOL0     C35984   5.100   3.823  -0.231 -0.0654 -0.8451 -1.1424
  986MOL0     C35985   4.822   3.949   0.094  0.7991  1.0037  0.0002
  986MOL0     C35986   4.698   3.922   0.022 -0.0228  1.2759 -0.4293
  986MOL0     C35987   4.579   3.974   0.063  0.0895  0.2117 -0.3654
  986MOL0     C35988   4.569   4.067   0.171  0.6038  0.4837  0.2932
  986MOL0     O35989   4.455   4.129   0.214 -0.2812  0.5656  1.1141
  986MOL0     C35990   4.328   4.091   0.170  0.0318  0.0368  0.0420
  986MOL0     C35991   4.225   4.157   0.248  0.2817  1.2024 -0.0670
  986MOL0     C35992   4.187   4.073   0.378 -0.9856  0.3863 -0.6278
  986MOL0     C35993   4.291   4.070   0.491 -0.1403 -0.2503 -0.4846
  986MOL0     C35994   4.228   4.013   0.605 -0.1735 -0.0050 -0.2051
  986MOL0     C35995   4.188   3.985   0.714  0.3402  0.8216  0.0940
  986MOL0     C35996   4.682   4.093   0.242 -0.9447  0.1497  0.8359
  986MOL0     C35997   4.807   4.033   0.215 -0.5627  0.1715  0.2823
  986MOL0     C35998   4.927   4.088   0.300 -0.7031 -0.0534  0.2445
  986MOL0     H35999   5.040   3.610   0.009  1.1341  1.7810  1.5363
  986MOL0     H36000   5.266   3.489  -0.101  0.1223  0.2189  1.2633
  986MOL0     H36001   5.506   3.744  -0.244 -3.3366  1.3674  0.4460
  986MOL0     H36002   5.464   3.747  -0.410 -0.0523  0.1616 -0.1419
  986MOL0     H36003   5.698   3.680  -0.360  0.0992  0.0851 -1.9264
  986MOL0     H36004   5.626   3.522  -0.302  0.8716 -0.5080 -1.4136
  986MOL0     H36005   5.521   3.495  -0.529  0.9570 -0.2073 -2.1672
  986MOL0     H36006   5.599   3.654  -0.583  1.2171  0.8204  0.3712
  986MOL0     H36007   5.824   3.535  -0.573 -0.2884  2.4446 -1.6161
  986MOL0     H36008   5.745   3.407  -0.502 -2.5105 -0.7563 -0.7630
  986MOL0     H36009   5.741   3.517  -0.786 -0.2224  1.1222  1.7536
  986MOL0     H36010   5.593   3.428  -0.750 -0.3084  0.2618 -1.2481
  986MOL0     H36011   5.880   3.331  -0.697 -0.7685  1.6348  1.1334
  986MOL0     H36012   5.740   3.219  -0.714  0.3152  0.9397  3.2439
  986MOL0     H36013   5.858   3.384  -0.951 -1.5807  0.5775  0.0195
  986MOL0     H36014   5.714   3.280  -0.958 -1.2973 -3.5422  1.5214
  986MOL0     H36015   6.003   3.197  -0.873 -0.1997 -2.2415  0.1385
  986MOL0     H36016   5.847   3.100  -0.860  1.0650 -0.3337  0.4593
  986MOL0     H36017   6.055   3.334  -1.089  0.2297 -0.4985  1.1883
  986MOL0     H36018   6.032   3.357  -1.386  1.8534  1.9757  2.0573
  986MOL0     H36019   6.059   3.190  -1.453 -0.0204  0.1554  0.2143
  986MOL0     H36020   6.252   3.344  -1.419  1.6578 -2.0278 -0.9038
  986MOL0     H36021   6.236   3.348  -1.252 -0.6343  0.9203  0.3665
  986MOL0     H36022   6.238   3.077  -1.268 -3.3626  0.6607 -2.0212
  986MOL0     H36023   6.298   3.111  -1.428 -0.2297 -2.5460  1.6940
  986MOL0     H36024   6.424   3.179  -1.168  3.1202 -1.0239 -0.2177
  986MOL0     H36025   6.473   3.056  -1.284  1.1664  0.4728  0.2373
  986MOL0     H36026   6.654   3.415  -1.460 -2.0305 -1.1644  0.9032
  986MOL0     H36027   6.838   3.531  -1.530  0.3083 -0.7680 -0.3423
  986MOL0     H36028   6.989   3.459  -1.500  0.2622 -2.4190  2.1367
  986MOL0     H36029   6.917   3.593  -1.387 -2.9576  1.8446 -0.1454
  986MOL0     H36030   7.373   3.372  -1.388  1.5450  1.7254 -0.5593
  986MOL0     H36031   7.578   3.445  -1.325 -0.6189 -2.3291 -0.2893
  986MOL0     H36032   7.624   3.827  -1.102  1.5360  0.3689  1.0565
  986MOL0     H36033   7.627   3.701  -0.964  1.4849  1.9764  1.9956
  986MOL0     H36034   7.862   3.736  -1.150  0.3969  2.3496  0.3499
  986MOL0     H36035   7.850   3.823  -1.001 -0.2151 -0.5026  0.9802
  986MOL0     H36036   7.804   3.525  -1.010 -2.8480  0.6414  1.7865
  986MOL0     H36037   7.819   3.626  -0.862  1.4027  0.4227  1.3359
  986MOL0     H36038   8.061   3.645  -0.913  2.2812  1.4302 -2.5191
  986MOL0     H36039   8.041   3.577  -1.076  0.6302 -0.8920  0.4082
  986MOL0     H36040   7.981   3.451  -0.825 -0.2825 -0.7266 -1.4221
  986MOL0     H36041   7.947   3.364  -0.974 -0.6073  0.7826 -0.3952
  986MOL0     H36042   8.229   3.480  -0.917 -2.1262  2.3371  1.1030
  986MOL0     H36043   8.177   3.364  -1.046 -1.0303  2.1320 -1.0803
  986MOL0     H36044   8.156   3.278  -0.759  1.2039 -1.3702  1.3211
  986MOL0     H36045   8.317   3.293  -0.833 -0.2820  2.3160 -0.1458
  986MOL0     H36046   8.255   3.119  -1.005 -0.9449  0.6318 -1.2065
  986MOL0     H36047   8.096   3.115  -0.925  2.0364 -4.2366 -0.8721
  986MOL0     H36048   7.403   3.673  -1.007  0.6610 -1.3433  0.3639
  986MOL0     H36049   7.178   3.634  -1.099  0.2088  0.6061 -0.4454
  986MOL0     H36050   6.886   3.143  -1.120 -0.8273 -2.0464  0.3743
  986MOL0     H36051   6.653   3.083  -1.190 -1.1916 -1.9349 -3.6021
  986MOL0     H36052   5.258   3.806  -0.384  5.2121  0.7363  1.7492
  986MOL0     H36053   5.046   3.917  -0.240 -1.1270 -0.8923  2.9283
  986MOL0     H36054   4.697   3.855  -0.064  5.4013  1.8368 -1.2434
  986MOL0     H36055   4.490   3.944   0.010 -0.2135 -1.3987  0.9728
  986MOL0     H36056   4.331   4.104   0.061 -1.2453  1.9325  0.1839
  986MOL0     H36057   4.322   3.984   0.191 -1.9077  0.3195  1.1239
  986MOL0     H36058   4.135   4.183   0.191 -1.4554 -1.1371  1.3847
  986MOL0     H36059   4.265   4.252   0.283  3.4373 -0.4819  1.2927
  986MOL0     H36060   4.088   4.102   0.414 -1.0829  2.6421 -2.4358
  986MOL0     H36061   4.190   3.971   0.339  0.2896  0.6471 -1.2596
  986MOL0     H36062   4.336   4.167   0.512  2.6128 -1.4045 -0.6939
  986MOL0     H36063   4.375   4.007   0.463  1.9992  2.8434 -1.5529
  986MOL0     H36064   4.156   3.949   0.810 -0.9894  1.8606  0.0600
  986MOL0     H36065   4.675   4.163   0.325 -0.5337 -2.1487  2.9495
  986MOL0     H36066   4.893   4.150   0.383 -1.9022 -1.6556  1.0054
  986MOL0     H36067   4.986   4.004   0.338  0.0096  0.1075 -0.4796
  986MOL0     H36068   4.989   4.147   0.232 -0.5986 -0.0782  0.3171
  987MOL0     O36069  10.264   9.031   2.242 -0.0587 -0.3369 -0.1105
  987MOL0     C36070  10.226   9.148   2.226  0.8817 -0.1166 -0.6749
  987MOL0     O36071  10.296   9.257   2.263  0.6251  0.0942  0.6393
  987MOL0     C36072  10.406   9.240   2.331  0.8128 -0.0972 -0.2943
  987MOL0     C36073  10.415   9.265   2.464 -0.0894  0.0445  0.0570
  987MOL0     C36074  10.532   9.243   2.538 -0.0277 -0.2343 -0.4296
  987MOL0     C36075  10.651   9.199   2.472  0.4853  0.2600 -0.0830
  987MOL0     O36076  10.763   9.179   2.552  0.1542 -1.0434 -0.1719
  987MOL0     C36077  10.881   9.120   2.504  0.3943 -0.8973  0.0270
  987MOL0     C36078  10.976   9.103   2.618 -0.0949 -0.3462 -0.3634
  987MOL0     C36079  10.913   9.047   2.749 -0.2950 -0.1598  0.1507
  987MOL0     C36080  11.045   9.020   2.844  0.9334  0.2553 -0.4482
  987MOL0     C36081  10.991   8.980   2.981 -1.0053  0.3842  0.6939
  987MOL0     C36082  11.115   8.962   3.073  0.0722  0.2326  0.5050
  987MOL0     C36083  11.172   9.097   3.131 -0.8276 -0.5589  0.5602
  987MOL0     C36084  11.297   9.078   3.233  0.4204  0.3586  0.3846
  987MOL0     N36085  11.384   9.190   3.213 -0.3979  0.4236  0.2011
  987MOL0     C36086  11.384   9.302   3.289 -0.3878  0.0360  0.1944
  987MOL0     C36087  11.481   9.383   3.252  0.7561  0.8797  0.7966
  987MOL0     C36088  11.508   9.512   3.315 -0.4658 -0.3409 -0.1496
  987MOL0     C36089  11.393   9.612   3.280  0.6362 -0.3197 -0.2413
  987MOL0     C36090  11.423   9.761   3.324 -0.2195 -0.0004  0.0780
  987MOL0     C36091  11.329   9.870   3.272  0.1741  1.2540 -0.0894
  987MOL0     O36092  11.212   9.869   3.357  0.4478  0.6235 -0.1633
  987MOL0     C36093  11.094   9.870   3.284 -0.1609 -0.0215  0.1213
  987MOL0     C36094  11.064   9.978   3.208  0.7599 -0.6774 -0.1270
  987MOL0     C36095  10.937   9.988   3.139  0.1322 -0.4620  0.1971
  987MOL0     C36096  10.915  10.115   3.067  0.4392  0.5400 -0.5384
  987MOL0     C36097  10.848   9.879   3.137  0.8398  0.2982  0.0146
  987MOL0     C36098  10.711   9.885   3.076  0.1228 -0.9859  0.9741
  987MOL0     O36099  10.669   9.992   3.004 -0.0970  0.0110  0.1944
  987MOL0     C36100  10.545  10.002   2.940 -0.3561  0.5633  0.6314
  987MOL0     C36101  10.427   9.913   2.946  0.0819 -0.6746 -0.2704
  987MOL0     C36102  10.303   9.947   2.901  0.4306  0.1912  0.4766
  987MOL0     C36103  10.281  10.069   2.834  0.0206 -0.3320  0.6004
  987MOL0     O36104  10.159  10.111   2.777 -1.0226  0.3703 -0.6545
  987MOL0     C36105  10.051  10.143   2.870  0.2764 -0.7480  0.0409
  987MOL0     C36106   9.945  10.207   2.793 -0.2614 -1.0511  0.7564
  987MOL0     C36107   9.842  10.105   2.748  0.1150 -0.9674  0.0247
  987MOL0     C36108   9.770  10.163   2.619  0.2265 -0.1985 -0.6582
  987MOL0     C36109   9.695  10.059   2.542  0.5233  0.3299  0.6214
  987MOL0     C36110   9.630  10.117   2.415 -0.5321  0.6205 -0.2551
  987MOL0     C36111   9.574  10.004   2.331  0.5722 -0.2032  0.6044
  987MOL0     C36112   9.540  10.059   2.191  0.1655 -1.0277  0.9970
  987MOL0    Cl36113   9.364  10.113   2.186 -0.4423  0.0052  0.2371
  987MOL0     C36114  10.390  10.151   2.816 -0.2594 -1.2428 -0.6930
  987MOL0     C36115  10.515  10.109   2.863 -0.5827  0.1010  0.2061
  987MOL0     O36116  10.639   9.788   3.107 -0.4664 -0.2287 -0.5062
  987MOL0     C36117  10.886   9.766   3.213  1.1726  0.0654 -0.4176
  987MOL0     C36118  11.004   9.759   3.285 -0.4182 -0.8233 -0.1042
  987MOL0     N36119  11.542   9.321   3.144 -0.2840 -0.7068  0.2802
  987MOL0     N36120  11.483   9.214   3.118  0.2088  0.9746  0.4842
  987MOL0     C36121  10.643   9.178   2.333 -0.1654 -0.0286  0.1125
  987MOL0     C36122  10.524   9.195   2.267  0.7637 -0.0538 -0.0400
  987MOL0     C36123  10.102   9.185   2.170 -0.0499  0.7071 -1.1629
  987MOL0     C36124  10.047   9.316   2.195  0.2470 -0.1688 -0.1545
  987MOL0     C36125   9.913   9.348   2.162  0.0350 -0.6540  0.8333
  987MOL0     C36126   9.839   9.255   2.085  1.0645  0.0180 -0.1441
  987MOL0     O36127   9.703   9.271   2.064  0.4570 -0.0261 -0.3178
  987MOL0     C36128   9.678   9.316   1.932 -0.1939 -0.9450 -0.0256
  987MOL0     C36129   9.569   9.219   1.885 -0.1487 -0.4202 -0.3092
  987MOL0     C36130   9.563   9.197   1.733  0.1014  0.1834 -0.3469
  987MOL0     C36131   9.525   9.330   1.672 -0.4888  0.1196 -0.0956
  987MOL0     C36132   9.487   9.310   1.535  0.4126  0.7247 -0.4164
  987MOL0     C36133   9.457   9.273   1.425  0.1776  0.0230 -0.2324
  987MOL0     C36134   9.891   9.132   2.057 -0.6262 -0.4714  0.7458
  987MOL0     C36135  10.026   9.104   2.090  0.4909  0.2473  1.3068
  987MOL0     C36136  10.060   8.970   2.040 -0.4242 -0.4009  0.9776
  987MOL0     H36137  10.319   9.287   2.509  0.0178 -2.1026  1.5075
  987MOL0     H36138  10.531   9.260   2.645 -0.4791 -0.1267 -0.4532
  987MOL0     H36139  10.927   9.186   2.429 -1.9703  1.0771  0.1715
  987MOL0     H36140  10.854   9.029   2.451  1.6983 -1.1538 -0.2151
  987MOL0     H36141  11.064   9.048   2.585  0.9705  0.8016  0.5009
  987MOL0     H36142  11.014   9.201   2.647 -0.0056  0.0722 -1.8105
  987MOL0     H36143  10.846   9.117   2.799 -0.3126  2.8230 -3.5872
  987MOL0     H36144  10.862   8.954   2.724 -2.1945  0.5803  1.1274
  987MOL0     H36145  11.115   8.948   2.802  0.0607 -0.1005 -1.3398
  987MOL0     H36146  11.103   9.113   2.842  2.3438 -0.5929 -2.3307
  987MOL0     H36147  10.941   8.883   2.978  0.4121 -0.4034  1.6447
  987MOL0     H36148  10.918   9.057   3.006 -1.3039  2.1143 -4.3125
  987MOL0     H36149  11.079   8.909   3.161  2.1762 -0.1998  1.1789
  987MOL0     H36150  11.194   8.898   3.030 -0.5979 -1.0959  1.2172
  987MOL0     H36151  11.094   9.146   3.189 -0.8272 -1.1167  1.0445
  987MOL0     H36152  11.203   9.161   3.048  2.0182  1.5343  3.0165
  987MOL0     H36153  11.259   9.073   3.336  1.0429  2.2223  0.7501
  987MOL0     H36154  11.351   8.987   3.204 -2.3490 -1.2555 -0.0637
  987MOL0     H36155  11.310   9.334   3.361 -1.9724  0.2936 -1.4594
  987MOL0     H36156  11.602   9.542   3.269 -0.5006 -0.5077 -0.3350
  987MOL0     H36157  11.518   9.486   3.420  0.2021  0.7734  0.0700
  987MOL0     H36158  11.382   9.606   3.172  1.8883  1.2673 -0.4862
  987MOL0     H36159  11.302   9.583   3.333 -0.5931  4.3489  0.6253
  987MOL0     H36160  11.435   9.767   3.432  2.8299  0.3332 -0.1932
  987MOL0     H36161  11.517   9.802   3.285 -1.0501  1.6435 -0.2832
  987MOL0     H36162  11.380   9.963   3.300  1.4179  0.1101  1.7783
  987MOL0     H36163  11.301   9.863   3.167 -0.3393 -0.7900  0.1440
  987MOL0     H36164  11.120  10.070   3.218 -0.2533 -0.1337  0.8877
  987MOL0     H36165  10.899  10.094   2.961  2.2749  0.3134 -0.8067
  987MOL0     H36166  10.998  10.187   3.072  0.0943  0.9496 -0.6386
  987MOL0     H36167  10.824  10.155   3.112  1.0576  1.3865  0.0018
  987MOL0     H36168  10.436   9.811   2.983  1.7945  0.1833  1.9405
  987MOL0     H36169  10.217   9.881   2.899 -0.4860  1.1530  3.3067
  987MOL0     H36170  10.015  10.051   2.917 -1.7935  0.8513  1.7696
  987MOL0     H36171  10.098  10.210   2.943  1.6908 -0.3609 -1.1759
  987MOL0     H36172   9.896  10.287   2.850 -0.4341  1.1709 -2.2173
  987MOL0     H36173   9.998  10.253   2.709  0.0617 -1.4595  0.7382
  987MOL0     H36174   9.785  10.083   2.838  1.2832 -0.3032  0.9558
  987MOL0     H36175   9.883  10.009   2.715  1.3421 -0.6949  0.7064
  987MOL0     H36176   9.840  10.217   2.553 -2.5722  2.6291 -1.5612
  987MOL0     H36177   9.701  10.242   2.650 -1.4874 -0.7222 -2.8732
  987MOL0     H36178   9.764   9.975   2.527  1.9891  1.5643  0.3158
  987MOL0     H36179   9.614  10.018   2.604  0.4977 -1.1144 -0.3031
  987MOL0     H36180   9.708  10.176   2.366  1.2609  1.0137  2.8066
  987MOL0     H36181   9.550  10.188   2.439 -1.6641  0.1440 -2.3331
  987MOL0     H36182   9.485   9.965   2.380 -0.7261  0.9169 -0.7526
  987MOL0     H36183   9.643   9.924   2.304 -0.7631 -1.4625  0.8022
  987MOL0     H36184   9.553   9.977   2.120  3.5431 -1.8939  2.4120
  987MOL0     H36185   9.605  10.142   2.162 -1.1894  0.1365  1.2025
  987MOL0     H36186  10.380  10.240   2.755  1.4586  0.1306  0.8960
  987MOL0     H36187  10.606  10.168   2.858  0.2265 -0.3254  4.8490
  987MOL0     H36188  10.823   9.678   3.224  3.4618 -1.3456  3.6671
  987MOL0     H36189  11.041   9.681   3.350 -0.9441 -1.7193 -0.8516
  987MOL0     H36190  10.738   9.166   2.281 -0.3626 -2.5800  0.2335
  987MOL0     H36191  10.515   9.164   2.163 -4.8713 -0.3894  0.2049
  987MOL0     H36192  10.100   9.385   2.259  1.9129 -1.8719  0.3973
  987MOL0     H36193   9.867   9.437   2.204  1.8113  1.3793 -1.2452
  987MOL0     H36194   9.656   9.423   1.927 -0.2433 -1.0113 -3.2058
  987MOL0     H36195   9.766   9.302   1.868 -1.0832 -2.2999 -1.0304
  987MOL0     H36196   9.476   9.256   1.931  0.8467 -1.2542  2.5908
  987MOL0     H36197   9.593   9.118   1.918  1.5284  0.6446  1.9849
  987MOL0     H36198   9.664   9.165   1.703 -0.2329 -1.2910  0.0423
  987MOL0     H36199   9.489   9.120   1.713  1.3492 -1.1079 -0.1548
  987MOL0     H36200   9.612   9.396   1.673  1.2417 -2.0403  2.1264
  987MOL0     H36201   9.441   9.384   1.716  0.0336  0.4137  0.5432
  987MOL0     H36202   9.432   9.251   1.323 -0.4692  1.3036 -0.3734
  987MOL0     H36203   9.823   9.062   2.009 -1.9549 -0.0601  1.9556
  987MOL0     H36204  10.168   8.960   2.026  0.4995  3.1559  3.8450
  987MOL0     H36205  10.024   8.897   2.112  3.7253 -2.5355  1.1674
  987MOL0     H36206  10.026   8.945   1.939  1.2006 -1.1214  0.5701
  988MOL0     O36207   3.296   6.774   7.866  0.4286 -0.0306 -0.0075
  988MOL0     C36208   3.190   6.829   7.830 -0.6615 -0.4728  0.2033
  988MOL0     O36209   3.135   6.935   7.903 -0.6704  0.3095  0.5487
  988MOL0     C36210   3.153   6.931   8.042  0.2093  1.0108  0.0586
  988MOL0     C36211   3.152   7.053   8.104 -0.7233 -0.6294 -0.4804
  988MOL0     C36212   3.188   7.062   8.238 -0.5973 -0.5677 -0.3412
  988MOL0     C36213   3.227   6.947   8.310  0.5141 -1.6479 -0.0156
  988MOL0     O36214   3.264   6.963   8.443 -0.8756 -0.2949 -0.3816
  988MOL0     C36215   3.229   6.856   8.530  0.0363 -0.2270 -0.2606
  988MOL0     C36216   3.250   6.911   8.664 -0.3279  0.0121  0.0311
  988MOL0     C36217   3.393   6.945   8.685 -0.1139  0.9212  0.4957
  988MOL0     C36218   3.411   7.043   8.808  0.1681  0.8865  0.4106
  988MOL0     C36219   3.561   7.053   8.839  0.5883  0.1537  0.1990
  988MOL0     C36220   3.589   7.095   8.991  0.3224 -0.4248 -0.0780
  988MOL0     C36221   3.721   7.054   9.031  0.0000 -0.2435  0.1995
  988MOL0     C36222   3.753   7.114   9.172  0.1138  0.0730 -0.0977
  988MOL0     N36223   3.881   7.076   9.232 -0.3153 -0.7630 -0.2396
  988MOL0     C36224   4.009   7.101   9.172 -0.0057 -0.3159  0.6810
  988MOL0     C36225   4.088   7.053   9.268  0.0108  0.8911 -0.0462
  988MOL0     C36226   4.233   7.043   9.250 -0.6802  0.7334  0.1322
  988MOL0     C36227   4.289   6.917   9.178 -0.0117 -1.5380 -0.3694
  988MOL0     C36228   4.445   6.924   9.182  1.0055  0.7084 -0.9379
  988MOL0     C36229   4.498   6.788   9.133  0.9561 -0.0409 -0.2720
  988MOL0     O36230   4.642   6.805   9.117  0.9289  0.6807  0.6474
  988MOL0     C36231   4.709   6.729   9.034  0.0713  1.0048  1.1149
  988MOL0     C36232   4.761   6.790   8.919 -0.4706  1.0167 -0.1969
  988MOL0     C36233   4.827   6.716   8.822  0.8154 -0.2088 -0.1309
  988MOL0     C36234   4.869   6.804   8.710  0.7304 -0.9878  0.2206
  988MOL0     C36235   4.842   6.571   8.836  0.5533  0.0320  0.1601
  988MOL0     C36236   4.901   6.483   8.734  0.2778  0.3761  0.8611
  988MOL0     O36237   4.896   6.349   8.760  0.0690  0.7047 -0.1018
  988MOL0     C36238   4.974   6.270   8.677 -0.0312  0.3158 -0.6854
  988MOL0     C36239   4.928   6.176   8.586 -0.0173 -0.2579  0.4095
  988MOL0     C36240   5.014   6.090   8.522 -0.0889  0.2775  0.5986
  988MOL0     C36241   5.151   6.092   8.553 -0.0367  0.2127 -0.5648
  988MOL0     O36242   5.236   6.004   8.479 -0.0879  0.0660 -0.2007
  988MOL0     C36243   5.381   6.003   8.510  0.3176  0.1759  0.4776
  988MOL0     C36244   5.439   5.903   8.413  0.1623 -0.3185  0.0310
  988MOL0     C36245   5.427   5.758   8.460 -0.0712  0.2939  0.0050
  988MOL0     C36246   5.453   5.647   8.358 -0.4086 -0.2537  0.5407
  988MOL0     C36247   5.429   5.510   8.411 -0.1535 -0.0243  0.5128
  988MOL0     C36248   5.521   5.480   8.540 -0.4825 -0.7592  0.1595
  988MOL0     C36249   5.531   5.333   8.565  0.4216 -1.3617 -0.5285
  988MOL0     C36250   5.643   5.284   8.653 -0.4905 -0.1701  0.1380
  988MOL0    Cl36251   5.604   5.297   8.822 -0.6096 -0.1247  0.0700
  988MOL0     C36252   5.194   6.179   8.652 -0.0683  0.8945  0.4401
  988MOL0     C36253   5.105   6.268   8.716  0.1293  0.5355  0.1782
  988MOL0     O36254   4.956   6.529   8.630  0.1033 -0.0934 -0.3636
  988MOL0     C36255   4.788   6.515   8.954 -0.3513 -0.4686  0.6757
  988MOL0     C36256   4.717   6.594   9.048  0.0546  0.3452 -0.1003
  988MOL0     N36257   4.018   6.996   9.369  0.3181  0.5498 -0.0565
  988MOL0     N36258   3.889   7.015   9.352  0.3720  0.6812 -0.1275
  988MOL0     C36259   3.219   6.825   8.251  0.7526 -0.1358  0.3142
  988MOL0     C36260   3.175   6.816   8.114  0.4092  0.3085 -0.4911
  988MOL0     C36261   3.113   6.769   7.714 -0.4601  0.0863 -0.6287
  988MOL0     C36262   3.191   6.699   7.627 -0.5795 -0.1958 -0.4299
  988MOL0     C36263   3.133   6.634   7.513  1.0161 -0.5344  0.2120
  988MOL0     C36264   2.993   6.629   7.494 -0.7468 -0.5443 -0.4592
  988MOL0     O36265   2.947   6.574   7.379  0.0184 -0.3379 -0.3861
  988MOL0     C36266   2.809   6.531   7.348 -0.4064  0.0872 -0.7093
  988MOL0     C36267   2.815   6.483   7.202  0.3319  0.5028  0.1230
  988MOL0     C36268   2.688   6.408   7.141  0.3754 -0.5561 -0.2075
  988MOL0     C36269   2.689   6.361   6.993 -0.7636  0.0512 -0.7848
  988MOL0     C36270   2.824   6.310   6.968 -0.2388  0.2289 -0.1717
  988MOL0     C36271   2.940   6.274   6.948 -0.4464 -1.4377  0.5887
  988MOL0     C36272   2.916   6.695   7.590  0.4314 -0.4139  0.6412
  988MOL0     C36273   2.975   6.763   7.694 -0.9387 -0.1242  0.2703
  988MOL0     C36274   2.867   6.822   7.783 -0.1813 -0.3725 -0.7001
  988MOL0     H36275   3.134   7.151   8.060  5.2088  1.6101  1.0611
  988MOL0     H36276   3.203   7.156   8.290 -0.4771  0.1056 -1.5503
  988MOL0     H36277   3.291   6.766   8.516 -1.0525 -1.4492  2.0786
  988MOL0     H36278   3.125   6.828   8.511 -0.8632  1.4737  1.7390
  988MOL0     H36279   3.203   7.008   8.684 -0.2712  0.1193 -0.3505
  988MOL0     H36280   3.215   6.847   8.745 -2.2230 -0.9206 -1.4461
  988MOL0     H36281   3.451   6.853   8.699 -0.0176  1.1659  1.8004
  988MOL0     H36282   3.441   7.001   8.604 -4.3013 -1.0297 -3.8507
  988MOL0     H36283   3.367   7.143   8.809 -0.4077  0.6733  3.0814
  988MOL0     H36284   3.361   6.987   8.887 -2.7239  0.4954 -1.5542
  988MOL0     H36285   3.606   7.123   8.768 -0.7489  0.8149 -0.0277
  988MOL0     H36286   3.610   6.960   8.808  0.5549 -0.5524  2.1043
  988MOL0     H36287   3.571   7.202   8.978  0.0746 -0.5221 -0.5465
  988MOL0     H36288   3.507   7.052   9.051 -0.1656 -0.5835 -0.8473
  988MOL0     H36289   3.802   7.094   8.968  1.1729 -0.2646  1.6346
  988MOL0     H36290   3.714   6.945   9.034 -2.0096 -0.1548 -0.1170
  988MOL0     H36291   3.741   7.222   9.165 -2.9290 -0.1892 -0.3247
  988MOL0     H36292   3.676   7.077   9.240 -0.6715 -1.2740 -1.6482
  988MOL0     H36293   4.038   7.152   9.081 -2.0540  1.1094  0.7421
  988MOL0     H36294   4.268   7.045   9.354 -2.0497 -1.9524  0.7285
  988MOL0     H36295   4.266   7.132   9.196 -0.1740 -0.2496 -1.2167
  988MOL0     H36296   4.251   6.827   9.229  1.0857 -0.7810  1.9377
  988MOL0     H36297   4.250   6.922   9.076 -1.0664  0.8364  0.0995
  988MOL0     H36298   4.491   6.997   9.115  3.4187 -1.5489 -1.9105
  988MOL0     H36299   4.475   6.943   9.286  0.7489 -0.8055 -0.5636
  988MOL0     H36300   4.468   6.716   9.209 -1.5564  2.7003  1.5489
  988MOL0     H36301   4.451   6.755   9.039  0.5003  0.1764 -0.1243
  988MOL0     H36302   4.746   6.898   8.912 -2.0608  0.8106 -0.1605
  988MOL0     H36303   4.825   6.903   8.705 -4.1658 -2.9212  0.1453
  988MOL0     H36304   4.835   6.763   8.615 -2.2096  0.2580  0.6225
  988MOL0     H36305   4.978   6.807   8.698  0.6623 -0.7530 -0.3616
  988MOL0     H36306   4.826   6.166   8.551  0.8255 -1.0244 -1.9791
  988MOL0     H36307   4.983   6.019   8.447 -2.3983 -0.2424  1.9734
  988MOL0     H36308   5.430   6.097   8.485  1.0224  0.1893  1.8318
  988MOL0     H36309   5.391   5.985   8.617 -1.9756  0.6961  0.8435
  988MOL0     H36310   5.386   5.916   8.318 -2.5008  0.9513  1.5908
  988MOL0     H36311   5.544   5.926   8.391 -0.2566 -0.1824 -2.0465
  988MOL0     H36312   5.319   5.752   8.477 -0.9982  1.3390 -4.2470
  988MOL0     H36313   5.490   5.743   8.548 -0.4864  2.9689  0.8426
  988MOL0     H36314   5.558   5.656   8.327 -0.5402 -3.7420 -1.3701
  988MOL0     H36315   5.389   5.667   8.272 -1.3934 -0.6269  1.1659
  988MOL0     H36316   5.327   5.507   8.449  0.7856  1.2904  3.4284
  988MOL0     H36317   5.447   5.435   8.333  0.0881  1.5235 -0.9826
  988MOL0     H36318   5.474   5.521   8.630 -0.8695 -1.9187  0.5078
  988MOL0     H36319   5.623   5.517   8.526 -1.6032  2.9111  0.6919
  988MOL0     H36320   5.551   5.295   8.464 -1.2940  3.1184 -2.8506
  988MOL0     H36321   5.431   5.297   8.594 -0.4360  0.2236 -1.3706
  988MOL0     H36322   5.740   5.330   8.637 -0.4176 -0.9234 -1.9835
  988MOL0     H36323   5.674   5.183   8.623  0.3946  0.4290 -1.0549
  988MOL0     H36324   5.300   6.191   8.673 -0.5178  0.6668  3.2158
  988MOL0     H36325   5.150   6.346   8.777  2.9097 -0.1937 -0.7963
  988MOL0     H36326   4.790   6.408   8.967 -2.5336 -0.7603 -0.9081
  988MOL0     H36327   4.662   6.557   9.133 -1.8974 -1.0121 -1.8618
  988MOL0     H36328   3.246   6.730   8.297  3.1929  0.5254  0.3815
  988MOL0     H36329   3.172   6.713   8.079 -2.7348  0.6561 -1.4806
  988MOL0     H36330   3.300   6.702   7.632 -0.5593 -0.1298 -0.8589
  988MOL0     H36331   3.191   6.586   7.436  2.1758  1.0439  0.0736
  988MOL0     H36332   2.772   6.443   7.403 -1.4088  1.5246  1.0146
  988MOL0     H36333   2.737   6.611   7.362 -0.5897 -0.3098  0.7600
  988MOL0     H36334   2.897   6.411   7.198  0.0239  0.1462  0.1801
  988MOL0     H36335   2.844   6.569   7.142  0.7510  0.8573  0.8147
  988MOL0     H36336   2.679   6.315   7.197  1.9008 -2.4572 -2.8935
  988MOL0     H36337   2.593   6.459   7.159  2.3138  4.2650 -1.7615
  988MOL0     H36338   2.662   6.451   6.937  0.6325  1.8165  1.1950
  988MOL0     H36339   2.623   6.276   6.976  0.2264 -0.7446 -0.7808
  988MOL0     H36340   3.036   6.250   6.906 -1.6612  0.5909 -3.9241
  988MOL0     H36341   2.809   6.690   7.570  0.6863 -0.2411 -0.8934
  988MOL0     H36342   2.802   6.738   7.810  2.1045 -2.3088 -0.8931
  988MOL0     H36343   2.904   6.877   7.870 -2.7170 -0.3711  0.4653
  988MOL0     H36344   2.807   6.895   7.727 -0.3263 -0.0576 -0.1381
  989MOL0     O36345   1.273   6.697   3.496  0.0964  0.4988 -0.0748
  989MOL0     C36346   1.179   6.634   3.452 -0.2052 -0.5896  0.7613
  989MOL0     O36347   1.168   6.607   3.312  0.0246 -0.2798 -0.2990
  989MOL0     C36348   1.249   6.651   3.214 -1.2283  0.2522  1.0514
  989MOL0     C36349   1.213   6.617   3.084  0.0640 -0.0829  0.1778
  989MOL0     C36350   1.291   6.656   2.970  0.5608 -0.0567 -0.4633
  989MOL0     C36351   1.403   6.730   2.987 -0.4040 -0.9853 -1.0334
  989MOL0     O36352   1.483   6.762   2.880  0.0344 -0.1881  0.0782
  989MOL0     C36353   1.622   6.713   2.885 -0.0060  0.2925 -1.4244
  989MOL0     C36354   1.695   6.736   2.750  0.3890 -0.4264  0.4547
  989MOL0     C36355   1.812   6.641   2.722 -0.3153  0.7675 -0.6989
  989MOL0     C36356   1.897   6.695   2.607  0.7864  0.5060 -0.6160
  989MOL0     C36357   1.981   6.576   2.553  0.0388  1.1580 -0.0537
  989MOL0     C36358   2.095   6.539   2.648 -0.3359 -0.4779 -0.4560
  989MOL0     C36359   2.200   6.437   2.596  0.0367  0.7972  0.0925
  989MOL0     C36360   2.328   6.512   2.582  0.3993  0.5360  0.0434
  989MOL0     N36361   2.430   6.425   2.562 -0.0389 -0.4992 -0.0104
  989MOL0     C36362   2.526   6.380   2.654  0.7094 -0.5512 -0.1651
  989MOL0     C36363   2.600   6.298   2.575  0.1044 -0.7128  1.0695
  989MOL0     C36364   2.731   6.227   2.606  0.3179 -0.0962 -1.0024
  989MOL0     C36365   2.692   6.097   2.673  0.1813 -0.5486  1.1935
  989MOL0     C36366   2.804   5.998   2.679 -0.3495  0.6174 -0.2180
  989MOL0     C36367   2.936   6.059   2.724  0.0298 -0.2916 -0.4001
  989MOL0     O36368   3.028   5.954   2.775  1.6094 -0.4165  0.9673
  989MOL0     C36369   3.131   6.004   2.840 -0.0724 -0.5504 -0.0699
  989MOL0     C36370   3.224   5.912   2.893 -0.2040  0.4422  0.5101
  989MOL0     C36371   3.328   5.955   2.974  0.1953 -0.6364 -0.1667
  989MOL0     C36372   3.406   5.842   3.042 -0.3376 -0.4166  0.6908
  989MOL0     C36373   3.343   6.093   3.004 -1.4262  0.0665 -0.1717
  989MOL0     C36374   3.468   6.153   3.078 -0.6130 -0.4455 -0.4327
  989MOL0     O36375   3.492   6.284   3.046 -0.4655  0.0037  0.1145
  989MOL0     C36376   3.601   6.339   3.101 -0.1941 -0.2667 -0.4196
  989MOL0     C36377   3.635   6.342   3.231 -0.4919 -0.3301 -0.5493
  989MOL0     C36378   3.747   6.422   3.276  0.4351 -0.0175  0.4480
  989MOL0     C36379   3.812   6.506   3.183  0.7097  1.0671  0.2647
  989MOL0     O36380   3.911   6.584   3.231 -0.2228 -0.3381 -0.8431
  989MOL0     C36381   4.034   6.608   3.159  0.4918 -0.4300  0.5996
  989MOL0     C36382   4.128   6.485   3.169  0.8483 -0.2296  0.9062
  989MOL0     C36383   4.274   6.523   3.154  0.0959 -0.5937  0.5778
  989MOL0     C36384   4.341   6.409   3.090 -0.0246  1.1058 -0.4567
  989MOL0     C36385   4.496   6.418   3.091 -0.0259  0.1299 -0.1168
  989MOL0     C36386   4.539   6.558   3.036  0.2704  0.9880  0.8102
  989MOL0     C36387   4.690   6.568   3.047 -0.4818  0.4734  0.3565
  989MOL0     C36388   4.729   6.712   3.049 -0.0151  0.2144 -0.1827
  989MOL0    Cl36389   4.735   6.789   2.889 -0.2490 -0.3311  0.2472
  989MOL0     C36390   3.787   6.495   3.047  0.9692  0.8608  0.1450
  989MOL0     C36391   3.680   6.414   3.011  0.4887 -0.0016 -0.1432
  989MOL0     O36392   3.541   6.083   3.144  0.0654  0.2914 -0.4634
  989MOL0     C36393   3.259   6.185   2.946  0.2595  0.1863 -0.4428
  989MOL0     C36394   3.154   6.147   2.864 -0.3162 -0.3280  1.4408
  989MOL0     N36395   2.550   6.296   2.445  0.1867 -0.2038 -0.7598
  989MOL0     N36396   2.449   6.378   2.440 -0.3471  0.0271 -0.1572
  989MOL0     C36397   1.426   6.785   3.115  0.7965  0.1210 -0.1022
  989MOL0     C36398   1.352   6.742   3.224  0.2553 -0.1138 -0.0600
  989MOL0     C36399   1.065   6.589   3.534  0.8304  0.0365  0.3174
  989MOL0     C36400   0.937   6.583   3.476  1.1568  0.0349 -0.5315
  989MOL0     C36401   0.818   6.558   3.550  0.1128 -0.3917 -0.3012
  989MOL0     C36402   0.832   6.528   3.690  1.3558  0.3136  1.3177
  989MOL0     O36403   0.716   6.480   3.765 -0.5984  0.5648 -0.3740
  989MOL0     C36404   0.669   6.344   3.743  2.2625  0.3474  0.6036
  989MOL0     C36405   0.648   6.290   3.884  0.3079 -0.3153 -0.5048
  989MOL0     C36406   0.775   6.278   3.975  0.9578 -0.3316  0.7848
  989MOL0     C36407   0.849   6.149   3.946  0.1559 -0.1168  0.1303
  989MOL0     C36408   0.942   6.166   3.831 -0.1907  0.2326  1.1240
  989MOL0     C36409   1.007   6.205   3.736  0.2808  0.6633  0.2691
  989MOL0     C36410   0.957   6.533   3.745 -0.0807  0.7220 -0.0548
  989MOL0     C36411   1.070   6.560   3.670  0.0170  0.6281 -0.1517
  989MOL0     C36412   1.196   6.542   3.748  0.3569  1.0076 -0.0322
  989MOL0     H36413   1.116   6.572   3.064 -0.1876  0.4620  0.1262
  989MOL0     H36414   1.265   6.628   2.868 -0.0610  0.1782 -0.3754
  989MOL0     H36415   1.613   6.609   2.918  0.3974  0.5790 -0.3810
  989MOL0     H36416   1.666   6.773   2.964 -1.4541  2.4418 -2.1467
  989MOL0     H36417   1.623   6.727   2.668  0.8122 -0.4908  0.0844
  989MOL0     H36418   1.734   6.838   2.757  1.0046 -0.5461 -1.0303
  989MOL0     H36419   1.880   6.630   2.807 -1.7305  1.9801  0.6347
  989MOL0     H36420   1.776   6.544   2.687 -0.7483  0.1881  1.2518
  989MOL0     H36421   1.819   6.731   2.540 -2.0093 -0.0151  2.1522
  989MOL0     H36422   1.955   6.786   2.629 -1.1006  0.9410  3.3684
  989MOL0     H36423   2.026   6.607   2.459  1.6922 -3.2034 -0.9655
  989MOL0     H36424   1.917   6.489   2.535  2.4816 -0.3588 -2.0977
  989MOL0     H36425   2.145   6.630   2.685 -0.5579 -0.8089  0.7050
  989MOL0     H36426   2.054   6.498   2.741  0.6139 -1.1334 -0.3083
  989MOL0     H36427   2.173   6.387   2.503  1.7351 -0.4794  0.2507
  989MOL0     H36428   2.220   6.349   2.658 -2.8376 -1.2287 -1.5902
  989MOL0     H36429   2.323   6.581   2.497 -2.9450  0.3905 -0.0132
  989MOL0     H36430   2.345   6.567   2.676  4.4546  1.5269 -1.0523
  989MOL0     H36431   2.530   6.417   2.756  0.0881 -0.8263 -0.0393
  989MOL0     H36432   2.780   6.292   2.679  0.3890  1.3838 -2.3140
  989MOL0     H36433   2.794   6.202   2.520 -0.5432  0.2657 -1.7712
  989MOL0     H36434   2.632   6.120   2.762  0.2672  0.3105  1.0334
  989MOL0     H36435   2.617   6.054   2.607  0.1455 -0.4522  1.1719
  989MOL0     H36436   2.767   5.920   2.746 -2.4946 -0.2732 -2.3037
  989MOL0     H36437   2.810   5.952   2.580  2.1657 -2.8258  1.3138
  989MOL0     H36438   2.975   6.122   2.645 -0.8760 -0.3518 -0.9111
  989MOL0     H36439   2.909   6.122   2.810  2.3931 -1.0271  0.9691
  989MOL0     H36440   3.212   5.806   2.874  0.0131  0.4176  0.5130
  989MOL0     H36441   3.513   5.853   3.020 -0.3366  2.4066  1.6694
  989MOL0     H36442   3.381   5.743   3.004 -0.2322  0.4887 -1.9045
  989MOL0     H36443   3.393   5.868   3.148 -0.8353  3.4914 -0.1565
  989MOL0     H36444   3.569   6.295   3.304  0.2000  0.2887  0.5108
  989MOL0     H36445   3.782   6.434   3.378  1.5339 -2.1372  0.3796
  989MOL0     H36446   4.013   6.648   3.060  1.0691 -0.0878  0.6147
  989MOL0     H36447   4.085   6.691   3.208  1.0594  0.2478 -1.0788
  989MOL0     H36448   4.120   6.423   3.259  3.7803 -2.8617 -0.4408
  989MOL0     H36449   4.104   6.421   3.084  0.3962  1.3139 -0.1673
  989MOL0     H36450   4.322   6.554   3.248  0.9176  0.0100 -0.0195
  989MOL0     H36451   4.273   6.608   3.085  3.2528 -0.2842  0.7345
  989MOL0     H36452   4.298   6.396   2.991 -3.0909 -1.6849  1.0319
  989MOL0     H36453   4.302   6.320   3.140  2.9283 -1.2738 -2.1421
  989MOL0     H36454   4.530   6.406   3.194  0.8286 -2.1372 -0.6060
  989MOL0     H36455   4.527   6.330   3.034  0.6523 -1.4859  2.5587
  989MOL0     H36456   4.505   6.642   3.096 -0.9104  0.6320  0.6585
  989MOL0     H36457   4.503   6.597   2.941  0.6994  3.6994  1.6835
  989MOL0     H36458   4.733   6.524   2.956  3.8105  2.7547  0.9992
  989MOL0     H36459   4.738   6.522   3.134  0.2046  1.0714  0.3063
  989MOL0     H36460   4.830   6.717   3.092 -0.0320  1.8734 -0.2872
  989MOL0     H36461   4.668   6.764   3.123 -2.6738  1.3608 -2.9702
  989MOL0     H36462   3.842   6.556   2.976  2.0494 -0.5006 -0.2539
  989MOL0     H36463   3.653   6.411   2.906  0.3306  1.6478 -0.1827
  989MOL0     H36464   3.272   6.293   2.957  0.6021  0.0802  0.2026
  989MOL0     H36465   3.083   6.217   2.821  0.2782 -1.4980 -1.7330
  989MOL0     H36466   1.515   6.845   3.128  2.3506 -2.4674  2.3423
  989MOL0     H36467   1.387   6.784   3.318  1.3823 -1.0593 -0.0223
  989MOL0     H36468   0.922   6.603   3.370 -0.5422  1.3812 -0.0627
  989MOL0     H36469   0.721   6.563   3.501  0.0815 -0.1924 -0.2196
  989MOL0     H36470   0.572   6.346   3.693  1.4459 -2.7813  1.8500
  989MOL0     H36471   0.739   6.274   3.696  0.1894 -0.3175 -1.7136
  989MOL0     H36472   0.601   6.193   3.869  0.8766 -1.1365  2.4054
  989MOL0     H36473   0.574   6.361   3.925  0.6235 -0.3156  0.0623
  989MOL0     H36474   0.837   6.368   3.967 -1.2884  1.3626  1.3034
  989MOL0     H36475   0.724   6.270   4.071 -0.4128 -1.9933 -0.0335
  989MOL0     H36476   0.786   6.060   3.957  2.9879 -2.5521 -1.7828
  989MOL0     H36477   0.917   6.144   4.031  2.4362  1.4759 -1.4433
  989MOL0     H36478   1.075   6.249   3.665  1.6538 -0.2123  1.0062
  989MOL0     H36479   0.961   6.509   3.851  2.7526  2.7289  0.4149
  989MOL0     H36480   1.221   6.638   3.794  0.5530  1.3025 -0.7380
  989MOL0     H36481   1.186   6.465   3.825 -0.1984  0.7664 -0.3403
  989MOL0     H36482   1.275   6.517   3.676 -2.2740  2.1814 -3.6248
  990MOL0     O36483   6.202  11.428   5.374 -0.8887  0.2728 -0.0566
  990MOL0     C36484   6.253  11.488   5.275  0.1786  0.4687  0.1557
  990MOL0     O36485   6.352  11.451   5.197  0.3880  0.3886 -0.5907
  990MOL0     C36486   6.427  11.335   5.209  0.0747 -0.0584  0.3189
  990MOL0     C36487   6.384  11.209   5.262  1.3352  0.6162  1.0825
  990MOL0     C36488   6.470  11.106   5.263 -0.4694  0.4787 -0.2934
  990MOL0     C36489   6.604  11.108   5.225 -0.9618 -0.5376 -0.4834
  990MOL0     O36490   6.699  11.007   5.243  0.6145 -0.0202  0.6665
  990MOL0     C36491   6.830  11.020   5.184 -0.0898 -0.2237 -1.3735
  990MOL0     C36492   6.889  10.903   5.264 -0.0456  0.0802  0.3086
  990MOL0     C36493   7.034  10.864   5.224 -0.2852 -0.1365 -0.1486
  990MOL0     C36494   7.136  10.982   5.263  0.3991  0.3264  0.1958
  990MOL0     C36495   7.277  10.924   5.252  0.6370 -0.2555 -0.1334
  990MOL0     C36496   7.381  11.035   5.256 -0.3529  0.9592 -0.6478
  990MOL0     C36497   7.506  10.973   5.309 -0.3768  0.0979  0.4503
  990MOL0     C36498   7.624  11.060   5.279 -0.3812  0.5586  0.3677
  990MOL0     N36499   7.639  11.201   5.315  0.1978 -0.3762  0.5322
  990MOL0     C36500   7.711  11.246   5.422  0.0444 -0.6112 -1.3181
  990MOL0     C36501   7.714  11.384   5.402 -0.1693  0.5183  0.6964
  990MOL0     C36502   7.798  11.483   5.481 -1.2271 -0.4139 -0.0394
  990MOL0     C36503   7.959  11.476   5.470  0.5964  0.2886  0.0535
  990MOL0     C36504   8.014  11.609   5.526  0.1084 -0.8562  0.5672
  990MOL0     C36505   8.164  11.609   5.505 -0.0876 -0.3438  0.5534
  990MOL0     O36506   8.217  11.733   5.553 -0.3790  0.2863  0.1021
  990MOL0     C36507   8.213  11.758   5.685 -0.5125  0.3654 -0.6865
  990MOL0     C36508   8.302  11.677   5.752 -0.1408 -0.7602 -0.6121
  990MOL0     C36509   8.323  11.698   5.891 -0.2855 -0.1039  0.2736
  990MOL0     C36510   8.417  11.591   5.947  1.0598 -0.7346 -0.6003
  990MOL0     C36511   8.235  11.796   5.961 -0.2652  0.1753  0.5738
  990MOL0     C36512   8.231  11.805   6.105  0.2064  0.0217 -0.2094
  990MOL0     O36513   8.294  11.711   6.177  0.3338  0.3560  0.3474
  990MOL0     C36514   8.299  11.719   6.319 -0.4118 -0.1981  0.1001
  990MOL0     C36515   8.347  11.834   6.378 -0.5306 -0.2123  0.1218
  990MOL0     C36516   8.352  11.844   6.514  0.1161  0.0940  0.0954
  990MOL0     C36517   8.313  11.741   6.598 -0.8006 -0.0580 -0.8775
  990MOL0     O36518   8.340  11.777   6.730  0.2031  0.0230  0.3591
  990MOL0     C36519   8.420  11.682   6.802 -0.1182  0.8125 -0.7506
  990MOL0     C36520   8.483  11.752   6.922  0.0446  0.0681 -0.2733
  990MOL0     C36521   8.594  11.849   6.883 -0.0655 -0.3782 -0.2396
  990MOL0     C36522   8.666  11.906   7.015 -0.1899 -0.5279  0.2544
  990MOL0     C36523   8.763  12.021   6.979  0.6643  1.0246 -0.1237
  990MOL0     C36524   8.825  12.085   7.096 -0.4911  0.1690  0.7933
  990MOL0     C36525   8.930  11.994   7.171 -0.1170  0.3750 -0.9618
  990MOL0     C36526   9.027  11.925   7.082 -0.0680  0.6044  0.6503
  990MOL0    Cl36527   9.164  11.856   7.175 -0.0484  0.0978  0.0604
  990MOL0     C36528   8.275  11.619   6.542  0.0201 -0.3965  0.2129
  990MOL0     C36529   8.262  11.614   6.399  0.0424  1.0919  1.2175
  990MOL0     O36530   8.175  11.909   6.150  0.0830 -0.5174 -0.0054
  990MOL0     C36531   8.142  11.872   5.883  0.3992 -1.0523 -0.3846
  990MOL0     C36532   8.140  11.854   5.746  0.1465  1.0611 -0.7512
  990MOL0     N36533   7.629  11.414   5.296 -0.4397  0.2297 -0.0208
  990MOL0     N36534   7.585  11.305   5.248 -0.3583  0.9173  1.0230
  990MOL0     C36535   6.649  11.231   5.174  0.6736  0.3384  0.1028
  990MOL0     C36536   6.556  11.345   5.161 -0.0338 -0.3145  1.0740
  990MOL0     C36537   6.181  11.617   5.251  0.4296 -0.1476  0.5323
  990MOL0     C36538   6.043  11.611   5.222  0.2793 -0.3152 -1.0130
  990MOL0     C36539   5.970  11.724   5.188  0.2196  0.4664 -0.7824
  990MOL0     C36540   6.033  11.845   5.196 -0.2561 -0.1208 -0.2165
  990MOL0     O36541   5.963  11.960   5.169  0.1213 -0.2187  0.5143
  990MOL0     C36542   5.834  11.976   5.229 -0.2986 -0.4762  0.5458
  990MOL0     C36543   5.792  12.123   5.246 -0.8626 -0.1128  0.9471
  990MOL0     C36544   5.692  12.139   5.361 -0.1933 -0.2765  0.4947
  990MOL0     C36545   5.647  12.285   5.373 -0.3963 -0.2642 -0.7912
  990MOL0     C36546   5.588  12.327   5.243 -0.1136 -0.2212 -0.4433
  990MOL0     C36547   5.545  12.390   5.154  0.2675  0.5715  0.1883
  990MOL0     C36548   6.166  11.856   5.237 -0.0465  0.4151 -0.1400
  990MOL0     C36549   6.244  11.740   5.259 -0.6746  1.0258  0.1636
  990MOL0     C36550   6.374  11.758   5.327  0.0916 -0.3536  0.4649
  990MOL0     H36551   6.281  11.201   5.297  1.0382 -0.3801  0.0531
  990MOL0     H36552   6.431  11.018   5.313  2.2711 -1.1535 -0.8125
  990MOL0     H36553   6.876  11.113   5.215  0.7270 -1.0188 -0.1412
  990MOL0     H36554   6.847  11.008   5.076 -1.9616 -0.0286 -1.7198
  990MOL0     H36555   6.889  10.937   5.369 -0.6824  0.5341  0.1715
  990MOL0     H36556   6.823  10.819   5.242  0.9448 -0.4742 -0.5974
  990MOL0     H36557   7.057  10.782   5.293 -1.5844 -1.1937 -0.9316
  990MOL0     H36558   7.051  10.847   5.117  1.9954 -0.1915  0.1699
  990MOL0     H36559   7.127  11.068   5.196 -2.2481 -0.9243 -1.1682
  990MOL0     H36560   7.106  11.011   5.364 -2.4478 -3.5919  0.6983
  990MOL0     H36561   7.293  10.861   5.163 -3.0513 -1.8860  0.1449
  990MOL0     H36562   7.286  10.860   5.340  0.2112 -0.5342 -0.2878
  990MOL0     H36563   7.401  11.089   5.163 -0.3020  2.9071  0.4423
  990MOL0     H36564   7.337  11.105   5.328  2.3927  0.9241  1.1846
  990MOL0     H36565   7.538  10.875   5.274 -0.0950  0.7739 -1.3457
  990MOL0     H36566   7.505  10.966   5.418  3.3804 -0.4127  0.5865
  990MOL0     H36567   7.706  11.020   5.339 -1.4044  0.2324  1.6084
  990MOL0     H36568   7.654  11.043   5.175 -1.3417 -0.6512  0.2543
  990MOL0     H36569   7.767  11.192   5.498 -0.1126  1.5955  0.4655
  990MOL0     H36570   7.775  11.475   5.587  0.9850  3.9315  1.0157
  990MOL0     H36571   7.766  11.584   5.453  1.0790 -0.2160 -2.4040
  990MOL0     H36572   7.995  11.389   5.526  3.6793  0.8269 -0.8913
  990MOL0     H36573   7.993  11.459   5.368  2.3684 -1.5987  0.8802
  990MOL0     H36574   7.958  11.690   5.480 -3.6136 -3.4957 -0.0273
  990MOL0     H36575   7.996  11.609   5.634  1.2406 -0.3949  0.7693
  990MOL0     H36576   8.211  11.523   5.554  0.9114 -0.6593 -0.8842
  990MOL0     H36577   8.189  11.609   5.398  1.0560 -2.5134  0.7559
  990MOL0     H36578   8.360  11.604   5.697 -1.3274 -1.2261 -1.2701
  990MOL0     H36579   8.474  11.633   6.030 -0.7739  0.6702  0.0182
  990MOL0     H36580   8.495  11.561   5.876  1.2641 -3.1855  0.5572
  990MOL0     H36581   8.361  11.503   5.981  0.6678 -1.5324 -3.1154
  990MOL0     H36582   8.384  11.921   6.325  1.4664 -1.0886 -0.0163
  990MOL0     H36583   8.390  11.936   6.558 -1.0933  0.2852  0.7753
  990MOL0     H36584   8.356  11.596   6.823 -1.3376  1.6935 -0.7777
  990MOL0     H36585   8.509  11.654   6.745  0.6349 -0.8038  1.0963
  990MOL0     H36586   8.406  11.814   6.968 -2.0743 -0.9630 -2.1985
  990MOL0     H36587   8.519  11.673   6.988 -1.8737 -0.4408  0.2174
  990MOL0     H36588   8.544  11.929   6.829  0.2173  1.4526  2.0556
  990MOL0     H36589   8.669  11.809   6.815  0.9028  0.3533  0.3687
  990MOL0     H36590   8.724  11.830   7.067  0.0947 -2.4796 -2.6719
  990MOL0     H36591   8.592  11.955   7.079 -2.6282 -1.2919 -1.7785
  990MOL0     H36592   8.829  11.983   6.901 -2.3804 -0.2170 -2.3133
  990MOL0     H36593   8.698  12.091   6.924  0.1078  0.0277 -0.7752
  990MOL0     H36594   8.743  12.120   7.159 -1.4176 -0.3019 -0.1275
  990MOL0     H36595   8.886  12.171   7.065  0.7108 -0.7944  0.3979
  990MOL0     H36596   8.878  11.922   7.234  1.7858 -0.2441 -0.0151
  990MOL0     H36597   8.976  12.058   7.247 -0.4955 -0.5074  0.0318
  990MOL0     H36598   9.065  12.010   7.025 -0.7808  1.1317  0.9489
  990MOL0     H36599   8.979  11.843   7.027 -1.5863  1.9882 -0.1779
  990MOL0     H36600   8.240  11.535   6.600 -2.0143  2.5337  3.6983
  990MOL0     H36601   8.211  11.526   6.360 -0.7853  1.7700  0.7440
  990MOL0     H36602   8.063  11.935   5.924  0.3921 -0.9812 -0.5069
  990MOL0     H36603   8.072  11.912   5.685  0.8854  0.4544 -2.1839
  990MOL0     H36604   6.749  11.247   5.136  0.4961  0.3928 -0.3519
  990MOL0     H36605   6.593  11.438   5.120 -1.8254 -0.0868 -0.1463
  990MOL0     H36606   5.998  11.512   5.222 -1.2302  0.2272 -4.1950
  990MOL0     H36607   5.865  11.718   5.162  0.5498 -0.8288 -1.9231
  990MOL0     H36608   5.755  11.918   5.180 -0.7530  0.0686  0.6222
  990MOL0     H36609   5.849  11.939   5.331  0.7140  1.8806  1.3119
  990MOL0     H36610   5.739  12.153   5.155 -1.7578  0.2358  1.5739
  990MOL0     H36611   5.882  12.184   5.259 -0.3415 -1.1289  2.4284
  990MOL0     H36612   5.600  12.082   5.347 -0.4313  0.1827  0.1432
  990MOL0     H36613   5.734  12.111   5.458  0.2078 -3.8802 -0.5766
  990MOL0     H36614   5.735  12.346   5.394 -1.1645  0.2460  1.1921
  990MOL0     H36615   5.571  12.307   5.450  1.9067  1.4404  1.1544
  990MOL0     H36616   5.516  12.448   5.068  1.2931  0.8847  0.0387
  990MOL0     H36617   6.206  11.955   5.257 -1.2088  1.1602 -1.3312
  990MOL0     H36618   6.372  11.729   5.433 -0.9006  2.6894  1.3993
  990MOL0     H36619   6.448  11.706   5.266 -0.4702  1.3817 -1.8098
  990MOL0     H36620   6.408  11.861   5.317  2.4807 -0.9458  1.7695
  991MOL0     O36621   6.488   7.423   1.467  0.1820 -0.3612  0.3122
  991MOL0     C36622   6.584   7.415   1.549  0.6793  0.2310  0.3923
  991MOL0     O36623   6.693   7.330   1.535  0.7464  0.3491  0.7342
  991MOL0     C36624   6.694   7.276   1.413  0.1134 -0.1488  0.4106
  991MOL0     C36625   6.780   7.336   1.321  0.4204  0.5668  0.4577
  991MOL0     C36626   6.783   7.281   1.198 -0.2772 -0.0274  1.3071
  991MOL0     C36627   6.734   7.156   1.159  0.2068 -0.1184 -0.2915
  991MOL0     O36628   6.767   7.113   1.034 -0.2146  0.1070 -0.5249
  991MOL0     C36629   6.727   6.979   0.992 -1.0320  0.0479 -0.9588
  991MOL0     C36630   6.788   6.958   0.864 -0.3462 -0.9592 -0.0232
  991MOL0     C36631   6.717   6.837   0.809 -0.4790  0.4691  0.5762
  991MOL0     C36632   6.797   6.782   0.695  0.1193  0.5434 -0.0042
  991MOL0     C36633   6.770   6.862   0.566  0.6505 -0.5583 -0.4302
  991MOL0     C36634   6.851   6.809   0.448  0.9006 -0.3260 -0.2839
  991MOL0     C36635   7.002   6.817   0.469 -0.4320  0.2926 -0.6708
  991MOL0     C36636   7.048   6.952   0.528 -0.6502 -0.3446 -0.1840
  991MOL0     N36637   7.195   6.944   0.546 -0.2707  0.1535 -0.5107
  991MOL0     C36638   7.252   6.945   0.675  0.0817 -0.2619  0.4397
  991MOL0     C36639   7.382   6.917   0.651 -0.0394 -0.4359  0.0487
  991MOL0     C36640   7.494   6.919   0.757 -0.4781  0.2898 -0.4438
  991MOL0     C36641   7.608   6.831   0.725  0.2458  0.0050 -0.3622
  991MOL0     C36642   7.739   6.918   0.674  0.3871  0.4086  0.8210
  991MOL0     C36643   7.824   6.991   0.780 -0.2520  0.1206 -0.0398
  991MOL0     O36644   7.781   7.118   0.826 -0.4139 -0.3412  0.0380
  991MOL0     C36645   7.873   7.187   0.902  0.4918  0.4007 -0.0502
  991MOL0     C36646   7.994   7.142   0.957 -0.2923  0.3729 -0.0330
  991MOL0     C36647   8.079   7.226   1.033  0.6482  0.1628 -1.1116
  991MOL0     C36648   8.213   7.169   1.091  0.1267 -0.6535 -0.2531
  991MOL0     C36649   8.039   7.359   1.056  0.7081  0.2914  1.0488
  991MOL0     C36650   8.106   7.453   1.146  0.7695  0.6294  0.1864
  991MOL0     O36651   8.106   7.582   1.105  0.3908 -0.4276 -0.6018
  991MOL0     C36652   8.181   7.679   1.165 -0.2474  0.9122  0.3926
  991MOL0     C36653   8.124   7.751   1.261  0.3719 -0.2788 -0.3877
  991MOL0     C36654   8.197   7.839   1.349  0.1224 -0.6362  0.1828
  991MOL0     C36655   8.332   7.852   1.335  0.2870  1.1917 -0.2909
  991MOL0     O36656   8.402   7.941   1.411 -0.8469 -0.0752  0.0196
  991MOL0     C36657   8.544   7.919   1.429  1.0472  0.1529  0.7817
  991MOL0     C36658   8.589   7.987   1.556  0.8387  0.0474  1.1026
  991MOL0     C36659   8.594   8.140   1.528 -0.8420  0.1856 -0.6852
  991MOL0     C36660   8.637   8.211   1.659  0.2082 -0.2314  0.5011
  991MOL0     C36661   8.786   8.220   1.694  0.4056  1.0423 -0.4138
  991MOL0     C36662   8.851   8.334   1.621  0.7693  0.6599 -0.9126
  991MOL0     C36663   9.002   8.337   1.666 -0.0025  0.6513  0.5264
  991MOL0     C36664   9.083   8.212   1.611 -0.3065 -0.0981  0.1277
  991MOL0    Cl36665   9.026   8.167   1.449  0.2395 -0.3310 -0.1805
  991MOL0     C36666   8.397   7.773   1.229 -0.1706  1.0926 -0.0029
  991MOL0     C36667   8.322   7.682   1.145  0.0461 -0.7032 -0.5681
  991MOL0     O36668   8.148   7.407   1.249  0.4210 -0.0783 -0.3955
  991MOL0     C36669   7.919   7.404   0.995 -1.1992  0.1917 -0.1066
  991MOL0     C36670   7.834   7.317   0.928  0.0681  0.2431  0.0168
  991MOL0     N36671   7.401   6.902   0.519  1.3640 -0.0210  0.3523
  991MOL0     N36672   7.290   6.921   0.455 -0.2691 -0.2448 -0.4337
  991MOL0     C36673   6.656   7.090   1.259  0.0598 -0.3128  0.4213
  991MOL0     C36674   6.628   7.152   1.383 -0.9020 -0.7930  0.0584
  991MOL0     C36675   6.584   7.502   1.671  0.0031 -0.2525  0.3402
  991MOL0     C36676   6.647   7.453   1.781  0.1086 -0.7656 -0.1659
  991MOL0     C36677   6.641   7.519   1.903  0.1584  0.9723  0.5091
  991MOL0     C36678   6.559   7.634   1.918 -0.4615 -0.4184  0.5336
  991MOL0     O36679   6.548   7.712   2.035 -0.1000 -0.0142  0.2907
  991MOL0     C36680   6.558   7.644   2.164  0.3390  0.1455 -0.5416
  991MOL0     C36681   6.548   7.753   2.280  0.6248 -0.2675  0.2125
  991MOL0     C36682   6.544   7.690   2.418  0.5968  0.5033  0.5067
  991MOL0     C36683   6.427   7.591   2.438  0.7513  0.3427 -0.3617
  991MOL0     C36684   6.460   7.449   2.396  0.0869 -0.1302 -0.0953
  991MOL0     C36685   6.492   7.337   2.366 -0.7521  0.3601  0.6008
  991MOL0     C36686   6.491   7.675   1.805 -0.9074  0.1569 -0.2250
  991MOL0     C36687   6.507   7.622   1.679 -0.0871  0.4260 -0.7924
  991MOL0     C36688   6.451   7.691   1.551  0.5341 -0.0180 -0.1695
  991MOL0     H36689   6.836   7.423   1.352  2.1842 -0.4807  0.3391
  991MOL0     H36690   6.843   7.328   1.121 -0.4337 -1.4615  0.2677
  991MOL0     H36691   6.618   6.974   0.987 -1.0193  0.1092 -1.2873
  991MOL0     H36692   6.761   6.908   1.068  2.2126  2.7558  0.3852
  991MOL0     H36693   6.776   7.041   0.794  2.5520 -0.0286  0.4124
  991MOL0     H36694   6.894   6.940   0.888 -0.6701 -3.3899 -0.1644
  991MOL0     H36695   6.724   6.753   0.879 -2.7015 -0.2233  0.0626
  991MOL0     H36696   6.611   6.855   0.788 -1.1569 -0.4463  2.8461
  991MOL0     H36697   6.903   6.786   0.720  0.1100  0.8970 -0.0174
  991MOL0     H36698   6.770   6.678   0.671 -1.4622  0.5265  1.5763
  991MOL0     H36699   6.787   6.969   0.584 -1.1696 -0.4920  1.2022
  991MOL0     H36700   6.663   6.860   0.543  0.6816 -1.4796 -0.5307
  991MOL0     H36701   6.808   6.710   0.428 -0.3703  0.1904 -0.2001
  991MOL0     H36702   6.829   6.867   0.358 -1.1970 -1.0036 -0.2775
  991MOL0     H36703   7.050   6.796   0.373 -1.1659 -1.3430 -0.7017
  991MOL0     H36704   7.036   6.742   0.540 -1.9575  1.0921  0.9976
  991MOL0     H36705   7.018   7.033   0.461  2.6510  0.1506 -1.2442
  991MOL0     H36706   7.004   6.974   0.625  0.1675 -1.1638  0.3922
  991MOL0     H36707   7.204   6.981   0.765 -0.7854  1.6776 -0.7323
  991MOL0     H36708   7.445   6.896   0.852 -2.4698  2.9309 -0.6971
  991MOL0     H36709   7.529   7.021   0.774 -2.1278  1.3146 -2.7216
  991MOL0     H36710   7.643   6.767   0.806 -2.5640 -2.1061 -0.6675
  991MOL0     H36711   7.580   6.757   0.649  1.7764 -1.9076  0.8540
  991MOL0     H36712   7.802   6.859   0.608 -0.7421 -2.4863  2.1477
  991MOL0     H36713   7.692   6.996   0.613  0.6088  2.2560  2.8521
  991MOL0     H36714   7.825   6.914   0.857  1.1364 -0.8890 -1.0228
  991MOL0     H36715   7.924   7.000   0.737 -1.3156 -2.2166 -3.4444
  991MOL0     H36716   8.020   7.038   0.943  0.9952  0.8309 -1.3505
  991MOL0     H36717   8.294   7.239   1.068  2.2870 -2.2662  1.9763
  991MOL0     H36718   8.237   7.071   1.050  2.6017 -0.4630  0.5690
  991MOL0     H36719   8.209   7.151   1.199 -0.3211  2.0896  0.2575
  991MOL0     H36720   8.017   7.734   1.268  0.2732  0.2904 -0.4692
  991MOL0     H36721   8.163   7.893   1.436 -0.6451  2.1169 -1.6911
  991MOL0     H36722   8.567   7.812   1.434  4.5117  0.4733 -3.0093
  991MOL0     H36723   8.594   7.958   1.340 -0.4442  1.7634  0.5953
  991MOL0     H36724   8.517   7.964   1.635 -0.6025  0.3412 -0.0894
  991MOL0     H36725   8.693   7.953   1.568  1.2259  1.4921  2.1039
  991MOL0     H36726   8.490   8.166   1.506 -1.9949 -1.3600  2.3648
  991MOL0     H36727   8.663   8.157   1.445 -0.0936 -3.2892 -0.9181
  991MOL0     H36728   8.590   8.151   1.738 -1.3766 -0.4683 -0.5878
  991MOL0     H36729   8.585   8.307   1.666 -2.2297 -1.5103  1.0676
  991MOL0     H36730   8.787   8.251   1.799 -1.9361  0.2625 -0.0819
  991MOL0     H36731   8.839   8.126   1.677  0.4982  0.9748  0.2317
  991MOL0     H36732   8.800   8.427   1.647  2.0537  1.6337 -1.7878
  991MOL0     H36733   8.849   8.335   1.512  0.2104 -1.5100 -0.9700
  991MOL0     H36734   9.014   8.356   1.773 -0.4081 -1.0474  0.9026
  991MOL0     H36735   9.046   8.425   1.618  2.0244 -1.5724 -1.9879
  991MOL0     H36736   9.078   8.127   1.679 -0.7718  2.2797  3.3374
  991MOL0     H36737   9.181   8.261   1.621 -0.7805  0.9937 -0.4066
  991MOL0     H36738   8.505   7.776   1.218 -0.0072 -0.3835  1.0464
  991MOL0     H36739   8.367   7.620   1.068 -0.5188  0.4483 -1.8680
  991MOL0     H36740   7.903   7.510   1.013 -2.2491 -0.3007  2.2863
  991MOL0     H36741   7.751   7.362   0.875 -0.7591  3.3137  3.4635
  991MOL0     H36742   6.609   6.996   1.232  0.6023  0.0004 -1.8373
  991MOL0     H36743   6.557   7.110   1.453  0.4444  0.2089  2.1336
  991MOL0     H36744   6.696   7.356   1.786  2.2194  0.2787  0.4060
  991MOL0     H36745   6.699   7.468   1.980 -2.8925  0.0730  2.3726
  991MOL0     H36746   6.473   7.575   2.157 -1.2979  2.2063 -3.7371
  991MOL0     H36747   6.649   7.588   2.184 -2.5293 -4.3212  1.4658
  991MOL0     H36748   6.456   7.802   2.246  2.2116  0.6342 -3.1879
  991MOL0     H36749   6.632   7.822   2.274 -0.5251  1.2016  0.2516
  991MOL0     H36750   6.643   7.649   2.442  0.7417  0.8609  0.5323
  991MOL0     H36751   6.523   7.769   2.491 -0.7979  0.2879  0.3684
  991MOL0     H36752   6.339   7.620   2.378  2.1852  3.5200 -1.1295
  991MOL0     H36753   6.389   7.583   2.540 -0.1671 -2.1594 -0.8334
  991MOL0     H36754   6.529   7.240   2.338  1.4134  0.5513  2.4286
  991MOL0     H36755   6.430   7.762   1.827 -0.3999 -0.4332  4.8287
  991MOL0     H36756   6.528   7.691   1.474  2.1635  0.1959  1.3972
  991MOL0     H36757   6.352   7.651   1.524 -0.8075  1.2044  2.5367
  991MOL0     H36758   6.435   7.794   1.586 -2.2709 -0.9913  1.8270
  992MOL0     O36759  10.081   2.680   1.752 -0.2497 -0.2453 -0.5026
  992MOL0     C36760  10.137   2.615   1.838  0.3764 -0.5395 -0.2906
  992MOL0     O36761  10.112   2.482   1.861 -0.6615 -0.5045 -0.3417
  992MOL0     C36762  10.033   2.405   1.787  1.0478 -0.5322 -0.1748
  992MOL0     C36763   9.939   2.328   1.849 -0.2219 -0.0880 -1.1221
  992MOL0     C36764   9.867   2.236   1.780 -0.2432 -0.4157  0.5634
  992MOL0     C36765   9.882   2.216   1.642  0.5696 -0.6914  0.6993
  992MOL0     O36766   9.804   2.137   1.561  0.4817 -0.3485  0.3872
  992MOL0     C36767   9.739   2.032   1.631 -0.7166  0.4929 -0.8120
  992MOL0     C36768   9.645   1.954   1.532 -0.7284  0.2159 -0.0164
  992MOL0     C36769   9.543   1.881   1.630 -1.1221  0.1766 -0.0574
  992MOL0     C36770   9.461   1.777   1.551 -0.9997 -0.0078 -0.4185
  992MOL0     C36771   9.364   1.698   1.645 -0.3345  1.2901  0.3714
  992MOL0     C36772   9.278   1.591   1.566  0.7010  0.7172 -0.2325
  992MOL0     C36773   9.163   1.546   1.662  0.3574  0.6260 -0.6952
  992MOL0     C36774   9.210   1.447   1.768  0.4538 -0.0228  1.4516
  992MOL0     N36775   9.097   1.428   1.859  0.5859  0.0232  0.0271
  992MOL0     C36776   9.093   1.473   1.988 -0.0727 -0.4130 -0.0432
  992MOL0     C36777   8.986   1.420   2.053 -0.6214 -0.6079  0.2135
  992MOL0     C36778   8.933   1.431   2.193 -0.4276 -0.1155  0.3341
  992MOL0     C36779   8.934   1.299   2.278 -0.2473  0.9238  0.7540
  992MOL0     C36780   9.073   1.229   2.274 -0.0921 -0.4797  0.6218
  992MOL0     C36781   9.159   1.286   2.380  0.4179  0.0129 -0.5715
  992MOL0     O36782   9.275   1.195   2.410  0.1252 -0.6564 -0.0271
  992MOL0     C36783   9.371   1.236   2.510  0.0711  0.1289  0.2853
  992MOL0     C36784   9.337   1.310   2.620 -0.4521 -0.4849  0.1187
  992MOL0     C36785   9.424   1.359   2.715  0.0659  0.4165 -0.3039
  992MOL0     C36786   9.362   1.423   2.839  0.7259  0.0024  0.4479
  992MOL0     C36787   9.562   1.336   2.692  0.3528 -0.5402  0.1469
  992MOL0     C36788   9.663   1.379   2.779 -0.4995  0.2606 -0.3511
  992MOL0     O36789   9.788   1.320   2.752  0.0027 -0.1465  0.5767
  992MOL0     C36790   9.906   1.364   2.806 -0.3851 -0.0432  0.2085
  992MOL0     C36791   9.977   1.463   2.744 -0.1543 -0.7829 -0.4475
  992MOL0     C36792  10.093   1.516   2.797  1.4155 -0.4093  0.1470
  992MOL0     C36793  10.136   1.468   2.921  0.0109 -0.2640 -1.5538
  992MOL0     O36794  10.242   1.523   2.996  0.0537  0.0137 -0.7036
  992MOL0     C36795  10.355   1.571   2.922 -0.3714 -0.4142 -0.3709
  992MOL0     C36796  10.473   1.582   3.024  0.0522 -0.1682  0.3468
  992MOL0     C36797  10.457   1.673   3.144 -0.0925  0.5955  0.1190
  992MOL0     C36798  10.574   1.656   3.241 -0.4959  0.1007 -0.8690
  992MOL0     C36799  10.563   1.525   3.305  0.5736 -0.7002 -0.6740
  992MOL0     C36800  10.673   1.495   3.413 -0.1411 -0.4411 -0.1728
  992MOL0     C36801  10.650   1.569   3.548  0.7577 -0.2890  0.1437
  992MOL0     C36802  10.745   1.539   3.665 -0.0560 -0.9061 -0.7321
  992MOL0    Cl36803  10.919   1.603   3.646  0.4541 -0.0430  0.1226
  992MOL0     C36804  10.066   1.368   2.983  0.1590 -0.4208  0.6124
  992MOL0     C36805   9.957   1.313   2.925 -0.1500 -0.2177 -0.6091
  992MOL0     O36806   9.637   1.457   2.866  0.1403 -0.3327 -0.5186
  992MOL0     C36807   9.606   1.258   2.580  0.1063 -0.1245  1.4138
  992MOL0     C36808   9.506   1.202   2.493 -0.2118  0.7371 -0.0719
  992MOL0     N36809   8.923   1.347   1.955  0.1127 -0.1379  0.0894
  992MOL0     N36810   8.989   1.351   1.845  0.2276 -0.2526 -0.0585
  992MOL0     C36811   9.979   2.295   1.581 -0.8679 -0.0547  0.5586
  992MOL0     C36812  10.059   2.381   1.653  0.1172 -1.0631  0.0839
  992MOL0     C36813  10.244   2.688   1.915 -0.1068 -0.4354  0.5106
  992MOL0     C36814  10.324   2.608   2.000 -0.0958  0.6360 -0.2120
  992MOL0     C36815  10.427   2.672   2.082  0.1759  0.7833 -0.4238
  992MOL0     C36816  10.450   2.808   2.070  0.1004  0.2849 -0.3414
  992MOL0     O36817  10.552   2.873   2.136 -0.5699 -0.4118 -0.7999
  992MOL0     C36818  10.649   2.802   2.214 -0.2709 -0.3858 -0.0649
  992MOL0     C36819  10.720   2.904   2.301 -0.6916 -0.3578 -0.8931
  992MOL0     C36820  10.823   2.979   2.221  0.3919 -0.1256  0.7797
  992MOL0     C36821  10.860   3.115   2.283  0.5986  0.1205  0.0670
  992MOL0     C36822  10.983   3.094   2.372  0.0123 -0.8795  0.5745
  992MOL0     C36823  11.068   3.071   2.455 -0.1145  0.0189  0.8907
  992MOL0     C36824  10.372   2.885   1.985  0.4328 -0.3025 -0.5684
  992MOL0     C36825  10.263   2.837   1.903  0.0568  0.4475 -0.7618
  992MOL0     C36826  10.191   2.935   1.823  0.1170  0.5641  0.5637
  992MOL0     H36827   9.935   2.330   1.958 -1.7654 -1.6225 -1.1065
  992MOL0     H36828   9.790   2.182   1.835 -2.3701 -0.7425 -2.4688
  992MOL0     H36829   9.681   2.071   1.715 -0.8673 -0.8454 -0.2804
  992MOL0     H36830   9.811   1.959   1.668 -2.4894  0.7582  3.8513
  992MOL0     H36831   9.598   2.023   1.461 -1.1366  0.1619  0.1971
  992MOL0     H36832   9.697   1.875   1.476 -2.1455  1.5295 -3.4825
  992MOL0     H36833   9.585   1.822   1.712  0.1208  1.9554  0.6427
  992MOL0     H36834   9.474   1.949   1.680  0.2730  0.1304  2.0522
  992MOL0     H36835   9.401   1.826   1.474  1.8652  1.3906 -1.9233
  992MOL0     H36836   9.525   1.703   1.501 -0.6354  0.2639 -0.3589
  992MOL0     H36837   9.300   1.773   1.693 -2.8756 -0.7657  0.4175
  992MOL0     H36838   9.420   1.658   1.731  1.4179 -0.9927 -1.6946
  992MOL0     H36839   9.245   1.639   1.474  0.8042 -0.1709 -0.7437
  992MOL0     H36840   9.333   1.500   1.540  0.6835 -0.2911  2.8346
  992MOL0     H36841   9.085   1.499   1.601  2.3277 -1.5476 -1.6988
  992MOL0     H36842   9.120   1.634   1.712 -1.2355 -0.6728  0.3076
  992MOL0     H36843   9.226   1.347   1.727 -0.6314  0.6589 -0.8206
  992MOL0     H36844   9.293   1.487   1.826 -0.4238 -2.0253  4.2993
  992MOL0     H36845   9.165   1.522   2.052 -0.1737  0.7749 -0.8033
  992MOL0     H36846   8.830   1.468   2.188 -0.4461 -0.2868 -0.8584
  992MOL0     H36847   8.976   1.504   2.262 -1.9966  0.2639  0.9491
  992MOL0     H36848   8.916   1.333   2.381  0.9625 -1.1478  1.7249
  992MOL0     H36849   8.857   1.229   2.245  0.6189  0.3498 -0.1018
  992MOL0     H36850   9.062   1.127   2.312 -2.7173  0.6082  3.1339
  992MOL0     H36851   9.122   1.214   2.177 -0.6508  0.3629  0.1945
  992MOL0     H36852   9.191   1.389   2.360 -2.4991  1.6805  2.3580
  992MOL0     H36853   9.102   1.288   2.473  0.1083 -0.0016 -0.7606
  992MOL0     H36854   9.234   1.342   2.632 -0.4470  0.1940 -1.4333
  992MOL0     H36855   9.254   1.409   2.844  0.7217  0.3606  1.7042
  992MOL0     H36856   9.389   1.528   2.853  0.9956  0.1272 -0.8923
  992MOL0     H36857   9.405   1.374   2.927 -0.2759 -3.8733 -0.9880
  992MOL0     H36858   9.935   1.503   2.653 -1.8307  0.3254  0.7460
  992MOL0     H36859  10.160   1.591   2.757  0.0239  1.8547  1.7960
  992MOL0     H36860  10.377   1.499   2.842 -4.3072  0.5486 -2.5653
  992MOL0     H36861  10.342   1.671   2.879  0.6698 -0.7412 -1.5053
  992MOL0     H36862  10.501   1.481   3.057  0.8634 -0.3136 -0.7437
  992MOL0     H36863  10.558   1.624   2.970 -0.9755  0.8751 -0.4992
  992MOL0     H36864  10.359   1.661   3.192 -1.6681  4.2301 -1.8111
  992MOL0     H36865  10.462   1.775   3.105 -1.4075  0.9700  0.8758
  992MOL0     H36866  10.569   1.733   3.319  0.3793  0.6421 -1.3362
  992MOL0     H36867  10.671   1.671   3.193  0.9315  0.9263  2.0057
  992MOL0     H36868  10.471   1.521   3.365  1.5530  1.4285  1.1191
  992MOL0     H36869  10.563   1.440   3.237  0.4889 -0.5351 -0.8820
  992MOL0     H36870  10.762   1.540   3.369 -1.6246  2.0555 -0.8106
  992MOL0     H36871  10.689   1.387   3.425 -1.6105 -0.7165 -0.4845
  992MOL0     H36872  10.556   1.531   3.590  0.0821  0.9377 -0.2065
  992MOL0     H36873  10.623   1.673   3.527  1.6113 -0.4857 -2.2022
  992MOL0     H36874  10.753   1.432   3.690 -0.0485 -0.4165  1.5484
  992MOL0     H36875  10.705   1.583   3.756  2.5577  1.1379 -0.4396
  992MOL0     H36876  10.107   1.327   3.075 -2.3760 -2.0722  1.1090
  992MOL0     H36877   9.898   1.239   2.979 -0.3948  0.0503 -0.5123
  992MOL0     H36878   9.710   1.234   2.558 -0.1603  1.4170 -2.0469
  992MOL0     H36879   9.529   1.148   2.401  1.0974  0.2659  0.5076
  992MOL0     H36880   9.981   2.292   1.473  1.1204 -1.2905  0.5745
  992MOL0     H36881  10.130   2.447   1.604  0.5165 -0.0292  1.9557
  992MOL0     H36882  10.298   2.503   2.011 -1.9701  0.9937 -0.9278
  992MOL0     H36883  10.470   2.612   2.161 -0.9752 -1.4613 -1.4072
  992MOL0     H36884  10.599   2.724   2.272 -3.5880  2.8543  1.8645
  992MOL0     H36885  10.725   2.747   2.156 -0.2033  2.5544 -3.0751
  992MOL0     H36886  10.778   2.864   2.385 -1.8022  0.3592  0.2347
  992MOL0     H36887  10.642   2.967   2.344  0.6042  1.3594 -0.9916
  992MOL0     H36888  10.919   2.928   2.210  0.6616 -0.0126  2.4273
  992MOL0     H36889  10.782   2.995   2.121  2.9209 -2.7727 -0.8266
  992MOL0     H36890  10.774   3.147   2.342 -1.6564 -3.4845 -0.9855
  992MOL0     H36891  10.883   3.189   2.206 -0.5217  1.6477  1.1375
  992MOL0     H36892  11.144   3.028   2.517 -1.0734 -0.9768  1.4024
  992MOL0     H36893  10.398   2.990   1.979  1.0617 -0.4958 -1.5609
  992MOL0     H36894  10.219   3.040   1.834  0.7349  0.6858 -1.7235
  992MOL0     H36895  10.218   2.901   1.723 -2.3153  1.8812 -0.6420
  992MOL0     H36896  10.083   2.940   1.841  0.1572 -0.8369  1.3769
  993MOL0     O36897   4.397   1.308   0.860 -0.0136  0.2560 -0.3669
  993MOL0     C36898   4.307   1.228   0.885 -0.2910  0.1770  0.4328
  993MOL0     O36899   4.328   1.103   0.940  0.8619 -0.8662 -0.4184
  993MOL0     C36900   4.454   1.043   0.963  0.3721  0.3118  0.0214
  993MOL0     C36901   4.455   0.906   0.921 -0.1098 -0.1785  0.7469
  993MOL0     C36902   4.582   0.834   0.945 -0.5878 -0.8721 -0.0281
  993MOL0     C36903   4.690   0.896   1.007  0.0207  0.1693 -1.1289
  993MOL0     O36904   4.798   0.819   1.041  0.6195 -0.1704 -0.3947
  993MOL0     C36905   4.870   0.853   1.156 -0.0245 -0.4045  0.2369
  993MOL0     C36906   4.931   0.722   1.213  0.5030 -0.2991 -0.2606
  993MOL0     C36907   5.017   0.734   1.332 -0.1410 -0.4149 -0.1802
  993MOL0     C36908   5.073   0.600   1.390 -0.6400  0.6264 -0.4465
  993MOL0     C36909   5.161   0.623   1.511  0.4992 -0.2309  0.2737
  993MOL0     C36910   5.235   0.496   1.556  0.0804  0.0861 -0.4187
  993MOL0     C36911   5.147   0.421   1.653 -0.2641 -0.2096 -1.2472
  993MOL0     C36912   5.179   0.271   1.667 -0.7801 -0.4731 -0.5003
  993MOL0     N36913   5.307   0.264   1.752  1.0584  0.9418 -0.0440
  993MOL0     C36914   5.433   0.231   1.709 -0.5302 -0.1092  0.0547
  993MOL0     C36915   5.511   0.247   1.820  0.0737 -0.3642 -0.5883
  993MOL0     C36916   5.660   0.253   1.833 -0.2019 -0.2536  0.2433
  993MOL0     C36917   5.689   0.393   1.833 -0.1348  0.1474  0.1443
  993MOL0     C36918   5.836   0.430   1.830 -0.0788 -0.0724 -0.0247
  993MOL0     C36919   5.900   0.463   1.960 -0.3849 -0.0975  1.1920
  993MOL0     O36920   5.924   0.338   2.027 -0.0296 -0.0538 -0.6623
  993MOL0     C36921   6.027   0.246   1.997 -0.2387 -0.6095 -0.7831
  993MOL0     C36922   6.019   0.112   2.052  0.2268 -0.3880  0.0723
  993MOL0     C36923   6.120   0.018   2.029  0.7314 -0.1403 -0.1457
  993MOL0     C36924   6.087  -0.125   2.066  0.7935 -0.4814  0.6585
  993MOL0     C36925   6.240   0.049   1.973 -0.6189  0.2334 -0.2083
  993MOL0     C36926   6.371  -0.017   1.967  0.1088  0.4686 -0.2650
  993MOL0     O36927   6.481   0.055   1.931  0.3755 -0.6568 -0.1934
  993MOL0     C36928   6.610   0.006   1.955  0.0642  0.2776 -0.0311
  993MOL0     C36929   6.714   0.051   1.871 -0.1790  0.5477 -0.8448
  993MOL0     C36930   6.844  -0.001   1.888  0.5913  0.3413  0.0760
  993MOL0     C36931   6.878  -0.083   1.997  0.0334  0.9346 -0.7755
  993MOL0     O36932   7.005  -0.125   2.022 -0.2211 -0.0089 -0.2936
  993MOL0     C36933   7.105  -0.037   1.969  0.1795 -0.7219 -0.2012
  993MOL0     C36934   7.234  -0.081   2.014 -0.0198 -0.1606  0.2157
  993MOL0     C36935   7.247  -0.097   2.171  0.1294 -0.7597  0.7489
  993MOL0     C36936   7.154   0.017   2.244  0.6529  0.4518  0.7807
  993MOL0     C36937   7.174   0.004   2.393 -0.2080  0.4818 -0.7033
  993MOL0     C36938   7.081   0.100   2.481 -0.5672  0.3207  0.4441
  993MOL0     C36939   7.048   0.243   2.452  0.2740  0.6089 -0.6756
  993MOL0     C36940   6.968   0.268   2.315  0.2665  1.3180  0.1595
  993MOL0    Cl36941   6.868   0.409   2.312  0.2254 -0.4306 -0.2978
  993MOL0     C36942   6.774  -0.126   2.079  0.1276 -0.3465 -0.4643
  993MOL0     C36943   6.645  -0.083   2.058  0.0063 -0.1698  0.6377
  993MOL0     O36944   6.368  -0.139   1.983 -0.1466  0.2890  0.2351
  993MOL0     C36945   6.246   0.190   1.936  0.5062  0.8889  0.9365
  993MOL0     C36946   6.145   0.282   1.934 -0.8526  0.0546 -1.2828
  993MOL0     N36947   5.425   0.294   1.924 -0.1924 -0.1875  0.5643
  993MOL0     N36948   5.298   0.298   1.887  0.1831  0.2584  0.5501
  993MOL0     C36949   4.680   1.033   1.043  0.6368  0.0033  0.5758
  993MOL0     C36950   4.567   1.110   1.024  0.1072  0.8618  0.3758
  993MOL0     C36951   4.161   1.284   0.883 -0.1456 -0.2672  0.2813
  993MOL0     C36952   4.049   1.193   0.910 -0.8167 -0.1987 -0.8264
  993MOL0     C36953   3.918   1.232   0.898  0.0653 -1.5164 -0.3780
  993MOL0     C36954   3.889   1.364   0.872 -0.5456 -0.1850  0.1279
  993MOL0     O36955   3.764   1.413   0.851  0.5587  0.2070 -0.0469
  993MOL0     C36956   3.654   1.318   0.845  0.7283  0.3351 -0.7689
  993MOL0     C36957   3.530   1.404   0.821  0.7121 -0.4529 -0.0425
  993MOL0     C36958   3.407   1.326   0.772  0.6449 -0.0158  0.2793
  993MOL0     C36959   3.277   1.412   0.744 -0.5552  0.3161  0.6756
  993MOL0     C36960   3.163   1.320   0.747 -0.1650 -0.1996 -0.6650
  993MOL0     C36961   3.083   1.243   0.769  1.3421 -0.4779 -0.0016
  993MOL0     C36962   3.995   1.452   0.856  0.4816 -0.0649 -0.5060
  993MOL0     C36963   4.133   1.421   0.857 -0.5031  0.2603 -0.3756
  993MOL0     C36964   4.235   1.530   0.821 -0.0760 -0.2700 -0.3627
  993MOL0     H36965   4.366   0.865   0.875 -0.1998 -0.5828  1.2657
  993MOL0     H36966   4.580   0.727   0.926 -3.9817 -0.8565 -0.3492
  993MOL0     H36967   4.804   0.900   1.229 -0.4840  0.3753 -0.6489
  993MOL0     H36968   4.957   0.916   1.133 -1.4701  0.5225 -3.2527
  993MOL0     H36969   4.856   0.645   1.232  0.3466 -0.8482 -2.7702
  993MOL0     H36970   5.003   0.678   1.143 -0.6138 -0.7595 -1.1449
  993MOL0     H36971   5.101   0.798   1.302 -0.8033  0.1699 -0.8381
  993MOL0     H36972   4.964   0.780   1.415 -2.8706  0.7574 -2.4175
  993MOL0     H36973   4.994   0.527   1.412  0.8396 -1.5304 -1.8300
  993MOL0     H36974   5.143   0.554   1.320 -1.7564 -0.1713 -1.0721
  993MOL0     H36975   5.114   0.668   1.599  0.5088  0.7689 -0.2134
  993MOL0     H36976   5.225   0.700   1.466 -1.4080 -0.4631 -3.1822
  993MOL0     H36977   5.262   0.442   1.465  2.3772 -3.3786  2.0535
  993MOL0     H36978   5.329   0.524   1.603 -0.8330 -1.4663  2.5663
  993MOL0     H36979   5.040   0.424   1.630 -0.6780  0.8502  0.6026
  993MOL0     H36980   5.153   0.469   1.751 -0.0046 -0.7778 -0.9826
  993MOL0     H36981   5.097   0.216   1.714 -1.9057  0.8781 -0.7971
  993MOL0     H36982   5.176   0.233   1.565 -2.0944  0.9970 -1.0560
  993MOL0     H36983   5.456   0.197   1.609  0.0011  0.4530 -0.0248
  993MOL0     H36984   5.712   0.197   1.754 -0.2629 -0.9645  0.6906
  993MOL0     H36985   5.694   0.203   1.925  2.4703 -1.4667 -1.2891
  993MOL0     H36986   5.644   0.439   1.745  1.7358  2.7375  0.4023
  993MOL0     H36987   5.641   0.432   1.924  0.4005  1.3220 -0.0555
  993MOL0     H36988   5.893   0.358   1.770 -3.2042  0.0837 -3.5729
  993MOL0     H36989   5.848   0.521   1.771  0.1238 -0.8211 -1.1798
  993MOL0     H36990   5.993   0.514   1.935 -1.4427  1.8528  1.0614
  993MOL0     H36991   5.837   0.543   2.000 -0.8939  1.2059 -1.9263
  993MOL0     H36992   5.920   0.083   2.087  0.8381 -0.3801  1.9138
  993MOL0     H36993   6.136  -0.192   1.994  0.2934 -1.1253  0.9073
  993MOL0     H36994   5.980  -0.137   2.048  0.3849  0.5959  2.2196
  993MOL0     H36995   6.102  -0.142   2.173 -0.6664 -1.3163  0.7479
  993MOL0     H36996   6.703   0.126   1.793  2.2148  1.2463 -0.5844
  993MOL0     H36997   6.913   0.049   1.821 -1.1356  1.4308 -0.9811
  993MOL0     H36998   7.093  -0.047   1.861 -5.5160 -1.0620  0.1665
  993MOL0     H36999   7.103   0.069   1.996  2.0155 -0.6120 -0.3518
  993MOL0     H37000   7.262  -0.178   1.971 -1.2489  0.9112 -3.2810
  993MOL0     H37001   7.309  -0.009   1.979 -0.3849  0.7470  1.2293
  993MOL0     H37002   7.353  -0.077   2.189 -0.5927  2.5280  2.0387
  993MOL0     H37003   7.225  -0.199   2.202 -0.9740 -0.3992  1.2109
  993MOL0     H37004   7.048  -0.001   2.223  0.9752  0.8202 -1.4581
  993MOL0     H37005   7.178   0.117   2.208  0.3689 -0.2358 -1.5198
  993MOL0     H37006   7.176  -0.100   2.424  2.9025  0.7645  0.3536
  993MOL0     H37007   7.275   0.041   2.412 -0.3925  0.8895 -0.5084
  993MOL0     H37008   7.111   0.090   2.585  1.9008  1.3188 -0.1107
  993MOL0     H37009   6.984   0.050   2.473 -0.9232  1.0675 -0.1488
  993MOL0     H37010   7.132   0.313   2.459 -1.3877  2.8422 -1.5470
  993MOL0     H37011   6.980   0.267   2.534  1.5514 -0.3068  0.6831
  993MOL0     H37012   6.910   0.178   2.293  0.8206  0.7721  0.8766
  993MOL0     H37013   7.043   0.278   2.236  0.8075  3.6147  0.8940
  993MOL0     H37014   6.790  -0.196   2.160 -2.0956  0.9101  1.1933
  993MOL0     H37015   6.567  -0.124   2.123 -0.2157 -0.3826  0.2392
  993MOL0     H37016   6.330   0.217   1.873 -1.0491 -2.6267 -3.2043
  993MOL0     H37017   6.165   0.377   1.886  0.2115  0.3620 -0.2634
  993MOL0     H37018   4.772   1.072   1.085  1.6077  0.6069 -1.8882
  993MOL0     H37019   4.574   1.214   1.054  2.8916  0.0881  2.9347
  993MOL0     H37020   4.065   1.087   0.926  1.1962 -0.2499 -2.6425
  993MOL0     H37021   3.845   1.157   0.926  0.9086 -1.8793  0.9630
  993MOL0     H37022   3.672   1.247   0.763 -0.4122 -1.2082  0.2579
  993MOL0     H37023   3.646   1.268   0.942 -0.1442 -0.8372 -1.4298
  993MOL0     H37024   3.557   1.492   0.762  1.2538  0.5871  1.6849
  993MOL0     H37025   3.503   1.454   0.914  0.9533  0.4938 -0.4679
  993MOL0     H37026   3.428   1.269   0.681  0.3628  2.3371 -1.3595
  993MOL0     H37027   3.370   1.258   0.850 -2.0111  0.5567 -0.3998
  993MOL0     H37028   3.281   1.461   0.646 -0.8445 -2.1782 -0.6848
  993MOL0     H37029   3.275   1.494   0.816  0.2775  1.4166 -0.5159
  993MOL0     H37030   3.005   1.178   0.804  0.0913  0.8899 -0.1447
  993MOL0     H37031   3.971   1.557   0.847 -0.8246 -0.2991  0.0984
  993MOL0     H37032   4.295   1.494   0.737  0.7995  0.6885 -0.1713
  993MOL0     H37033   4.177   1.621   0.804 -3.9973 -2.3688  0.5920
  993MOL0     H37034   4.308   1.555   0.899 -0.7546  2.3811 -0.4626
  994MOL0     O37035   1.017  10.091   7.212 -0.5674 -0.6859  0.2794
  994MOL0     C37036   0.952   9.999   7.270 -0.2609  0.6997  0.6735
  994MOL0     O37037   0.825  10.006   7.293  0.6283  0.3016  0.1259
  994MOL0     C37038   0.747  10.111   7.256  0.0438 -0.5411 -0.7594
  994MOL0     C37039   0.683  10.189   7.352 -0.1663  0.5837 -0.6117
  994MOL0     C37040   0.593  10.297   7.312  0.2754 -0.1475 -0.4629
  994MOL0     C37041   0.581  10.336   7.178 -0.5608 -0.0670  0.6451
  994MOL0     O37042   0.508  10.437   7.128 -0.2195 -0.1732  0.2772
  994MOL0     C37043   0.379  10.388   7.084  1.0378 -0.0722 -0.1626
  994MOL0     C37044   0.258  10.464   7.162  0.6112 -0.3254  1.1231
  994MOL0     C37045   0.255  10.598   7.096  0.3361 -1.0671 -0.0220
  994MOL0     C37046   0.145  10.684   7.160 -0.6147 -0.8430 -0.6175
  994MOL0     C37047   0.142  10.821   7.083 -0.3837  0.7211 -0.6851
  994MOL0     C37048   0.047  10.910   7.146 -0.1230  0.1730  0.3287
  994MOL0     C37049   0.049  11.042   7.073 -0.0703 -0.7701 -0.7551
  994MOL0     C37050  -0.079  11.126   7.114 -0.1807 -0.0753  0.4891
  994MOL0     N37051  -0.078  11.252   7.044  0.4721 -0.0730  0.0291
  994MOL0     C37052  -0.011  11.363   7.087 -0.1577  0.0826  0.0325
  994MOL0     C37053  -0.023  11.445   6.979  0.1310  0.2781 -0.0558
  994MOL0     C37054   0.025  11.587   6.971 -0.2790  0.6430  0.1444
  994MOL0     C37055  -0.095  11.673   7.003  0.7801 -1.1626 -0.5230
  994MOL0     C37056  -0.078  11.833   6.987  0.4669  0.2114 -0.1599
  994MOL0     C37057  -0.063  11.881   6.847 -0.5569 -0.3692 -0.7673
  994MOL0     O37058  -0.165  11.835   6.752 -0.4063 -1.0048 -0.9054
  994MOL0     C37059  -0.119  11.761   6.653  0.2477 -0.1374 -0.2097
  994MOL0     C37060  -0.161  11.631   6.642 -0.3008  0.0394 -0.0185
  994MOL0     C37061  -0.103  11.539   6.551  1.5032  0.3074  0.1931
  994MOL0     C37062  -0.153  11.396   6.559  0.2874  0.0480 -0.5937
  994MOL0     C37063  -0.003  11.581   6.451  0.2249  0.4649  0.5840
  994MOL0     C37064   0.067  11.480   6.361 -0.1182 -0.0188  1.1247
  994MOL0     O37065   0.196  11.514   6.316  0.4703  0.2966  0.1708
  994MOL0     C37066   0.264  11.426   6.234  0.2079 -0.7999  0.0473
  994MOL0     C37067   0.308  11.301   6.267 -0.0190 -0.1542 -1.3898
  994MOL0     C37068   0.380  11.220   6.179 -0.6311  0.4872  0.2768
  994MOL0     C37069   0.412  11.263   6.048  0.3767 -0.0655 -0.1903
  994MOL0     O37070   0.490  11.185   5.971  0.3599  0.0886 -0.1459
  994MOL0     C37071   0.564  11.233   5.852 -0.1452  0.0661 -0.2979
  994MOL0     C37072   0.664  11.127   5.818  0.0697 -1.0930 -0.6911
  994MOL0     C37073   0.595  11.004   5.759  0.9067  1.0208 -0.1209
  994MOL0     C37074   0.696  10.904   5.700  0.7529  0.1018  0.2967
  994MOL0     C37075   0.719  10.793   5.805  0.1819  0.1109  0.0621
  994MOL0     C37076   0.840  10.707   5.770  0.4284  0.2693 -0.2857
  994MOL0     C37077   0.835  10.645   5.634  0.5156  1.5496 -0.1889
  994MOL0     C37078   0.975  10.610   5.595 -0.3059  0.7026 -0.0854
  994MOL0    Cl37079   0.978  10.497   5.462  0.1505  0.0690 -0.0829
  994MOL0     C37080   0.355  11.390   6.018  0.0731  0.8082  0.0981
  994MOL0     C37081   0.278  11.467   6.104  0.4188 -0.1574 -0.5321
  994MOL0     O37082   0.008  11.377   6.324  0.5002 -0.3313  0.8378
  994MOL0     C37083   0.039  11.714   6.455 -1.2395 -0.6895 -0.0988
  994MOL0     C37084  -0.018  11.803   6.558 -0.5682 -0.4796  0.3230
  994MOL0     N37085  -0.105  11.386   6.877 -0.6938 -0.4017  0.0604
  994MOL0     N37086  -0.135  11.269   6.920  0.3412  0.0737  0.1237
  994MOL0     C37087   0.652  10.260   7.077  0.2211  0.6167 -0.1737
  994MOL0     C37088   0.734  10.151   7.121 -0.5944  0.0214  0.8983
  994MOL0     C37089   1.019   9.872   7.315  0.5315  0.1888 -0.1597
  994MOL0     C37090   0.937   9.762   7.355  0.1885 -0.3554  0.3136
  994MOL0     C37091   0.995   9.647   7.403 -0.4690 -0.1656 -1.1480
  994MOL0     C37092   1.133   9.637   7.402  0.1649 -0.2466  0.7154
  994MOL0     O37093   1.190   9.512   7.426  0.5297 -0.1500  0.5590
  994MOL0     C37094   1.127   9.397   7.367 -0.2525  0.1667 -0.9262
  994MOL0     C37095   1.234   9.294   7.319 -0.0703 -0.6145 -0.2352
  994MOL0     C37096   1.306   9.346   7.189 -0.3611  0.0974 -0.8648
  994MOL0     C37097   1.260   9.269   7.059 -0.3911  1.0743  0.1516
  994MOL0     C37098   1.325   9.333   6.944 -0.4662 -0.5131 -0.9230
  994MOL0     C37099   1.393   9.396   6.864  0.7365 -0.4489 -0.4333
  994MOL0     C37100   1.219   9.738   7.366 -0.8380  1.0191  0.0801
  994MOL0     C37101   1.161   9.862   7.326 -0.6600  0.6406 -0.5302
  994MOL0     C37102   1.263   9.963   7.289  0.0122  0.1044 -0.1535
  994MOL0     H37103   0.702  10.155   7.453  1.7246 -0.4755 -1.2707
  994MOL0     H37104   0.539  10.344   7.393 -0.4915 -1.1238 -0.3896
  994MOL0     H37105   0.372  10.284   7.117  0.8774  0.1442  0.4982
  994MOL0     H37106   0.372  10.395   6.975 -0.5993 -1.0482 -0.1531
  994MOL0     H37107   0.172  10.401   7.140  0.5724  0.0797  0.0308
  994MOL0     H37108   0.277  10.474   7.269 -2.9651  0.0271  1.8487
  994MOL0     H37109   0.352  10.647   7.106 -1.3670  2.5733  0.4800
  994MOL0     H37110   0.223  10.605   6.992 -1.7770 -0.6072  0.6056
  994MOL0     H37111   0.044  10.642   7.154 -1.1715  0.2938  0.3788
  994MOL0     H37112   0.176  10.698   7.264  1.5261  1.7147 -1.4797
  994MOL0     H37113   0.112  10.800   6.980  3.0631 -0.9373 -1.4848
  994MOL0     H37114   0.246  10.855   7.092  0.4818 -1.6961 -0.7115
  994MOL0     H37115  -0.054  10.867   7.148  0.8363 -2.2384  1.3545
  994MOL0     H37116   0.082  10.937   7.246 -0.3248  0.4729  0.3175
  994MOL0     H37117   0.043  11.025   6.965 -2.0883  3.0722 -1.4149
  994MOL0     H37118   0.144  11.096   7.084 -0.7584  0.5435 -1.0355
  994MOL0     H37119  -0.178  11.085   7.091  0.0357  0.5438 -1.7782
  994MOL0     H37120  -0.080  11.147   7.221 -2.4500 -0.2224  0.5472
  994MOL0     H37121   0.054  11.377   7.173  1.5904  0.8339 -1.3396
  994MOL0     H37122   0.079  11.604   6.877 -0.8760  0.0626 -0.3152
  994MOL0     H37123   0.108  11.610   7.039  0.9377  2.3848 -1.7938
  994MOL0     H37124  -0.188  11.633   6.963 -0.6745  1.7789 -0.2932
  994MOL0     H37125  -0.118  11.664   7.110  0.0203  2.8290 -0.2116
  994MOL0     H37126  -0.155  11.892   7.036  0.1424  0.8004 -1.3401
  994MOL0     H37127   0.020  11.862   7.028  0.6506 -1.1179  0.3777
  994MOL0     H37128  -0.050  11.990   6.844 -4.7485  0.3321  0.3946
  994MOL0     H37129   0.033  11.838   6.816  1.8407  1.9860  2.6525
  994MOL0     H37130  -0.238  11.590   6.707  0.6248 -3.1634 -0.7389
  994MOL0     H37131  -0.070  11.325   6.564  0.9311  0.8022 -0.4668
  994MOL0     H37132  -0.214  11.379   6.469 -1.6759 -1.8320  0.9771
  994MOL0     H37133  -0.225  11.374   6.639  1.2852 -0.3615  0.2111
  994MOL0     H37134   0.307  11.268   6.370 -2.1589 -0.1390 -1.3643
  994MOL0     H37135   0.425  11.131   6.220 -0.7354  0.5333  0.4926
  994MOL0     H37136   0.502  11.254   5.764  0.4487  0.7074 -0.5781
  994MOL0     H37137   0.620  11.325   5.874 -2.5924  1.9534 -1.4294
  994MOL0     H37138   0.734  11.163   5.742 -0.5529  1.2744 -0.2219
  994MOL0     H37139   0.723  11.101   5.907 -2.1758 -1.5592  0.7423
  994MOL0     H37140   0.522  11.038   5.684 -1.1181  0.9339  1.6983
  994MOL0     H37141   0.535  10.945   5.829  1.0997 -0.9626 -1.5340
  994MOL0     H37142   0.790  10.957   5.679  2.0688 -1.3057  2.2440
  994MOL0     H37143   0.655  10.874   5.603  1.7341 -2.2680  0.5188
  994MOL0     H37144   0.737  10.833   5.906  1.2343  1.2523 -0.5477
  994MOL0     H37145   0.631  10.727   5.805  1.1559 -1.2288 -0.5667
  994MOL0     H37146   0.850  10.621   5.836  0.6761 -1.0770 -1.9968
  994MOL0     H37147   0.925  10.775   5.777 -0.4431  1.4002 -0.3504
  994MOL0     H37148   0.789  10.712   5.561 -0.2186  0.4260 -0.7813
  994MOL0     H37149   0.776  10.553   5.638  2.7050  0.0807  0.6970
  994MOL0     H37150   1.026  10.588   5.689 -1.5649  4.5202  1.6914
  994MOL0     H37151   1.029  10.701   5.569  1.7884 -0.9421 -1.9027
  994MOL0     H37152   0.374  11.431   5.920  2.3163  1.0151  0.5727
  994MOL0     H37153   0.224  11.550   6.060  1.9643 -0.0857 -2.4090
  994MOL0     H37154   0.132  11.743   6.407  0.0337 -3.4093  0.5491
  994MOL0     H37155   0.023  11.902   6.565 -1.4214 -0.2032  1.6812
  994MOL0     H37156   0.639  10.291   6.974 -0.1166  4.5705  0.9055
  994MOL0     H37157   0.780  10.088   7.045 -3.6382 -3.0300  1.3249
  994MOL0     H37158   0.829   9.766   7.342  0.2002 -0.6923  0.0817
  994MOL0     H37159   0.928   9.567   7.432 -3.9690  2.8169 -0.1928
  994MOL0     H37160   1.065   9.354   7.446  1.4185  0.2949  0.5026
  994MOL0     H37161   1.069   9.420   7.278  0.4536  1.0683 -1.1666
  994MOL0     H37162   1.185   9.199   7.295 -0.9586 -0.2314  0.0360
  994MOL0     H37163   1.306   9.275   7.399  5.0061  0.8216 -3.9255
  994MOL0     H37164   1.300   9.453   7.168 -1.3966 -0.0421 -1.3417
  994MOL0     H37165   1.410   9.325   7.215  0.7172  1.2850 -3.7522
  994MOL0     H37166   1.152   9.289   7.059 -0.1967  2.2643  1.4465
  994MOL0     H37167   1.283   9.163   7.071 -2.1887  0.7065  0.6781
  994MOL0     H37168   1.451   9.446   6.790  1.1402 -1.6308 -0.9383
  994MOL0     H37169   1.325   9.724   7.382 -1.3725 -0.4374  3.1019
  994MOL0     H37170   1.285   9.962   7.182  0.9837  0.1865  0.0393
  994MOL0     H37171   1.229  10.060   7.326 -1.1463 -0.9440  1.6820
  994MOL0     H37172   1.359   9.949   7.338  1.8101 -1.6191 -3.7465
  995MOL0     O37173   3.713   1.786  10.934 -0.2147  0.2840 -0.6240
  995MOL0     C37174   3.778   1.778  11.036 -0.7902  0.2167 -0.0682
  995MOL0     O37175   3.730   1.730  11.151 -0.2504 -0.6471  0.1231
  995MOL0     C37176   3.594   1.709  11.161 -0.3056 -0.6200 -0.2341
  995MOL0     C37177   3.544   1.584  11.136 -1.0576  0.5101 -0.8560
  995MOL0     C37178   3.397   1.561  11.154  0.7364 -0.4864  0.3954
  995MOL0     C37179   3.312   1.674  11.203 -0.0019  0.3981  0.5359
  995MOL0     O37180   3.179   1.647  11.212 -0.4239  0.4650 -0.0049
  995MOL0     C37181   3.080   1.751  11.227 -1.3414 -0.0199 -0.3470
  995MOL0     C37182   2.937   1.712  11.187 -0.7150  0.2072  1.0853
  995MOL0     C37183   2.851   1.829  11.221  0.1744 -0.0330  0.2719
  995MOL0     C37184   2.842   1.906  11.093 -0.1376  0.0477 -0.2424
  995MOL0     C37185   2.761   2.033  11.097  0.0850 -0.3694  0.1623
  995MOL0     C37186   2.798   2.112  10.972  0.3445  0.7562  0.3265
  995MOL0     C37187   2.724   2.243  10.963 -0.1579 -0.2265 -0.0536
  995MOL0     C37188   2.735   2.326  10.834  0.2218  0.3123 -0.3769
  995MOL0     N37189   2.870   2.348  10.798 -0.0814 -0.4068  0.4359
  995MOL0     C37190   2.925   2.302  10.677  0.2511 -0.4545 -0.2200
  995MOL0     C37191   3.043   2.367  10.664  0.4890  0.3837 -0.0528
  995MOL0     C37192   3.137   2.360  10.546  0.7778 -0.0558  0.8945
  995MOL0     C37193   3.226   2.239  10.550  1.3459  0.0782  0.2388
  995MOL0     C37194   3.346   2.250  10.462  0.1037 -0.0173 -0.0284
  995MOL0     C37195   3.432   2.376  10.478  0.9059 -0.0768 -0.6185
  995MOL0     O37196   3.395   2.473  10.377 -0.1203  0.2247  0.3959
  995MOL0     C37197   3.500   2.554  10.335  0.2634 -0.7013  0.1171
  995MOL0     C37198   3.604   2.589  10.426  0.3370  0.5705 -0.7828
  995MOL0     C37199   3.717   2.669  10.386 -0.5769 -0.0162 -0.0980
  995MOL0     C37200   3.829   2.692  10.476 -0.9436 -0.1893 -0.4362
  995MOL0     C37201   3.717   2.722  10.254  1.0227 -0.6583  1.2356
  995MOL0     C37202   3.832   2.789  10.198  0.2845 -0.2640  1.0939
  995MOL0     O37203   3.818   2.927  10.181  0.6324  0.5338  0.1925
  995MOL0     C37204   3.917   3.010  10.135 -0.2294  0.9331  0.1955
  995MOL0     C37205   3.932   3.134  10.189 -0.5658  0.0538 -0.5173
  995MOL0     C37206   4.018   3.225  10.136  0.4336 -0.2818  1.1696
  995MOL0     C37207   4.090   3.197  10.024 -0.4173  0.4156  0.6409
  995MOL0     O37208   4.187   3.289   9.986 -0.0208  0.1497 -0.3287
  995MOL0     C37209   4.295   3.240   9.910 -0.1968 -0.4899  0.6368
  995MOL0     C37210   4.364   3.352   9.850  0.5594  0.0245  0.0669
  995MOL0     C37211   4.304   3.409   9.722 -0.1901 -0.2049  0.5856
  995MOL0     C37212   4.148   3.432   9.738 -0.5591  1.5177  0.8067
  995MOL0     C37213   4.103   3.525   9.631 -0.1966 -0.2964 -0.3586
  995MOL0     C37214   4.135   3.679   9.658 -0.0568 -0.2263 -0.4567
  995MOL0     C37215   4.088   3.751   9.533 -0.2402 -1.1440  0.6763
  995MOL0     C37216   4.113   3.901   9.557  0.4160 -0.3541  0.0873
  995MOL0    Cl37217   4.047   3.992   9.419  0.3539 -0.2061  0.4600
  995MOL0     C37218   4.066   3.073   9.961  0.4754 -0.4543 -0.6070
  995MOL0     C37219   3.983   2.982  10.016 -0.4325 -0.0807 -0.3433
  995MOL0     O37220   3.936   2.730  10.180 -0.2921  0.2836  0.3962
  995MOL0     C37221   3.603   2.698  10.169 -0.0293 -0.4090  0.9236
  995MOL0     C37222   3.495   2.613  10.206  0.4878 -0.3477  0.1466
  995MOL0     N37223   3.064   2.443  10.782  0.8230  0.6339 -0.5696
  995MOL0     N37224   2.958   2.431  10.860  0.5702  0.2197 -0.5817
  995MOL0     C37225   3.376   1.795  11.238 -0.5439  1.0528 -0.7078
  995MOL0     C37226   3.514   1.804  11.213 -0.4231  0.8220 -1.1458
  995MOL0     C37227   3.918   1.836  11.042 -0.4125  0.7477 -0.2795
  995MOL0     C37228   3.993   1.808  11.157 -0.0799 -0.0645  0.5026
  995MOL0     C37229   4.125   1.856  11.182 -0.5018  0.8906  0.7270
  995MOL0     C37230   4.180   1.945  11.090  0.0543 -1.3055 -0.0078
  995MOL0     O37231   4.310   1.991  11.097 -0.3040 -0.1079  0.1418
  995MOL0     C37232   4.375   1.986  11.226  0.4147  0.2656  0.7870
  995MOL0     C37233   4.301   2.070  11.330  0.2204  1.0121 -0.3168
  995MOL0     C37234   4.382   2.189  11.383  0.6500 -0.1677 -0.3395
  995MOL0     C37235   4.327   2.250  11.512  0.6171 -0.4040  0.6124
  995MOL0     C37236   4.197   2.309  11.480 -0.2916 -0.3950 -0.8280
  995MOL0     C37237   4.094   2.357  11.450  0.0843 -0.5319 -0.4756
  995MOL0     C37238   4.101   1.984  10.980  0.2143  0.1713 -0.9064
  995MOL0     C37239   3.973   1.926  10.953 -0.1577  0.2508  0.2047
  995MOL0     C37240   3.900   1.990  10.827 -0.0420 -0.0460 -0.5238
  995MOL0     H37241   3.617   1.512  11.101  0.1476  1.9518 -1.4240
  995MOL0     H37242   3.351   1.463  11.144  1.1944 -0.7468  0.7691
  995MOL0     H37243   3.111   1.836  11.165  0.6664 -0.6311 -0.2688
  995MOL0     H37244   3.087   1.780  11.333 -0.2237  1.8913 -0.8772
  995MOL0     H37245   2.923   1.677  11.085 -1.2323  1.1632  0.8078
  995MOL0     H37246   2.899   1.638  11.258 -0.9206 -1.5641 -0.8037
  995MOL0     H37247   2.753   1.785  11.241  1.2078 -3.7825 -1.8983
  995MOL0     H37248   2.896   1.879  11.306 -0.6406 -0.6688  1.0975
  995MOL0     H37249   2.938   1.942  11.056 -1.4766  1.1773 -2.8798
  995MOL0     H37250   2.797   1.839  11.020  1.9915  0.1951 -1.7773
  995MOL0     H37251   2.790   2.090  11.186 -2.8737  0.1204  0.9106
  995MOL0     H37252   2.655   2.007  11.086  0.7874 -2.6544 -2.2126
  995MOL0     H37253   2.904   2.128  10.950  0.3731 -1.9178 -2.1760
  995MOL0     H37254   2.773   2.053  10.883 -2.8486  0.8052  1.0601
  995MOL0     H37255   2.770   2.304  11.042  2.6066 -0.8918 -1.0466
  995MOL0     H37256   2.618   2.236  10.989 -0.0807 -1.5970 -0.0323
  995MOL0     H37257   2.674   2.268  10.764  2.5585 -3.1955  0.2185
  995MOL0     H37258   2.684   2.422  10.848  2.8087  1.5379  1.6996
  995MOL0     H37259   2.870   2.243  10.604  0.6669 -0.5514 -0.4513
  995MOL0     H37260   3.195   2.454  10.548  1.1379 -0.2708  3.2958
  995MOL0     H37261   3.081   2.368  10.452  3.5805  0.6871 -0.8616
  995MOL0     H37262   3.257   2.233  10.655  2.2981 -0.7865 -0.0764
  995MOL0     H37263   3.153   2.161  10.527 -1.0669  2.4553 -0.6862
  995MOL0     H37264   3.401   2.161  10.494 -0.9589 -0.3592  0.9209
  995MOL0     H37265   3.326   2.236  10.356  2.3737 -3.2559 -0.1683
  995MOL0     H37266   3.428   2.427  10.575  2.0932  3.4627 -2.2686
  995MOL0     H37267   3.533   2.340  10.457  1.6492 -1.1847  3.7399
  995MOL0     H37268   3.599   2.545  10.525  1.4989  0.5199 -0.7419
  995MOL0     H37269   3.874   2.788  10.452  0.0449 -0.3465  0.6845
  995MOL0     H37270   3.892   2.603  10.459 -2.1455 -1.3197  0.7509
  995MOL0     H37271   3.793   2.708  10.578  0.8700  1.9624 -0.0799
  995MOL0     H37272   3.872   3.166  10.274 -0.7993  1.1228 -1.0643
  995MOL0     H37273   4.015   3.327  10.174 -3.9088  1.3107 -2.5182
  995MOL0     H37274   4.377   3.210   9.975  1.6861  1.2143 -0.8060
  995MOL0     H37275   4.276   3.164   9.834  0.8844 -1.9281  1.7576
  995MOL0     H37276   4.376   3.431   9.924 -0.5150 -1.6917  2.1907
  995MOL0     H37277   4.468   3.329   9.825  0.3737  0.1502 -0.8874
  995MOL0     H37278   4.330   3.337   9.643  0.8056 -2.5933  2.9565
  995MOL0     H37279   4.354   3.504   9.705 -1.4397  0.5306  0.9147
  995MOL0     H37280   4.131   3.482   9.834  1.5763  0.1295  1.9854
  995MOL0     H37281   4.101   3.334   9.749  3.4727 -0.8085 -0.6047
  995MOL0     H37282   4.145   3.491   9.536  0.3672 -1.2511  0.2096
  995MOL0     H37283   3.994   3.520   9.627 -0.2557  1.3263 -1.7650
  995MOL0     H37284   4.239   3.713   9.669 -0.8883  2.6117 -0.4540
  995MOL0     H37285   4.069   3.709   9.740 -1.4013  0.7091 -1.8291
  995MOL0     H37286   3.981   3.753   9.515 -0.4847  1.8007  1.9075
  995MOL0     H37287   4.140   3.716   9.444 -1.0899 -0.0845 -0.2648
  995MOL0     H37288   4.218   3.921   9.579  0.8170 -4.5931  3.2125
  995MOL0     H37289   4.063   3.937   9.647  0.2977  1.8322 -0.7753
  995MOL0     H37290   4.097   3.061   9.858 -2.3658  3.8497 -2.2249
  995MOL0     H37291   3.973   2.893   9.954 -0.8952  0.3096 -0.8303
  995MOL0     H37292   3.605   2.727  10.064  0.2768  3.7158  1.8889
  995MOL0     H37293   3.413   2.590  10.138  1.3000 -0.0254 -0.9854
  995MOL0     H37294   3.321   1.878  11.281 -1.2491  1.4608 -2.3232
  995MOL0     H37295   3.561   1.897  11.242  2.5717 -0.5033 -1.4641
  995MOL0     H37296   3.946   1.734  11.221  0.0888  0.9608  1.8790
  995MOL0     H37297   4.156   1.819  11.279 -3.0371  0.6464  1.5081
  995MOL0     H37298   4.384   1.882  11.261 -1.9529 -0.6769 -1.1240
  995MOL0     H37299   4.478   2.014  11.200  0.1151  1.3005  0.6675
  995MOL0     H37300   4.257   2.003  11.404 -1.1377  0.7834 -1.2863
  995MOL0     H37301   4.215   2.113  11.277 -0.1069 -1.5403 -2.0251
  995MOL0     H37302   4.482   2.151  11.405 -0.0498 -1.9118  0.0298
  995MOL0     H37303   4.396   2.275  11.318 -0.7314  0.8211  0.6355
  995MOL0     H37304   4.393   2.327  11.551 -3.4136  3.0815  1.2275
  995MOL0     H37305   4.308   2.183  11.596 -0.5305 -0.3118  0.4401
  995MOL0     H37306   4.015   2.424  11.423  1.1432  1.5292  1.2015
  995MOL0     H37307   4.150   2.048  10.908 -0.3508  0.0065 -1.4400
  995MOL0     H37308   3.797   2.021  10.850  0.2075  0.6850 -0.3581
  995MOL0     H37309   3.952   2.085  10.809  1.8795 -0.8266  0.5866
  995MOL0     H37310   3.907   1.925  10.740  1.7922  0.7937 -1.0446
  996MOL0     O37311   4.974   0.464   6.999 -0.4117  0.4835  0.1680
  996MOL0     C37312   4.950   0.518   7.106  0.0559  0.5785 -0.1168
  996MOL0     O37313   4.945   0.660   7.116 -0.7201 -0.3262 -0.7331
  996MOL0     C37314   4.963   0.740   7.002 -1.3709  0.3866 -0.7342
  996MOL0     C37315   5.098   0.776   6.973 -1.4540 -0.3563  0.2482
  996MOL0     C37316   5.122   0.852   6.858  0.9277  0.5538  0.7100
  996MOL0     C37317   5.020   0.896   6.769 -0.3835 -0.0835 -0.1889
  996MOL0     O37318   5.030   0.978   6.658 -0.7562  0.2036 -0.0814
  996MOL0     C37319   5.160   0.997   6.602 -0.5281  0.6191 -0.5968
  996MOL0     C37320   5.159   1.074   6.475  0.6670  0.3357  0.1800
  996MOL0     C37321   5.142   1.231   6.485 -0.3198  0.0060 -0.6764
  996MOL0     C37322   5.247   1.314   6.560  0.0364  0.3294  0.9508
  996MOL0     C37323   5.389   1.304   6.497 -0.1641  0.9967 -0.4302
  996MOL0     C37324   5.419   1.437   6.430  0.2634 -0.5236  0.0692
  996MOL0     C37325   5.558   1.450   6.367 -0.5716  0.5165 -0.9532
  996MOL0     C37326   5.669   1.423   6.472  0.2105  0.2261  0.2774
  996MOL0     N37327   5.797   1.437   6.411  0.5487 -0.2768  0.4632
  996MOL0     C37328   5.873   1.549   6.408  0.0008  0.3233  0.1787
  996MOL0     C37329   5.998   1.506   6.361 -0.4042  0.0905 -1.5270
  996MOL0     C37330   6.124   1.580   6.370  0.2489 -0.5656 -0.3801
  996MOL0     C37331   6.231   1.528   6.487  0.9378  0.1879  0.0351
  996MOL0     C37332   6.361   1.606   6.487  0.3665 -0.2044 -0.2162
  996MOL0     C37333   6.459   1.569   6.602  0.2031  0.7579  0.3728
  996MOL0     O37334   6.578   1.640   6.614 -0.5377 -0.6320 -0.1818
  996MOL0     C37335   6.681   1.610   6.526  0.2635 -0.2209  0.4037
  996MOL0     C37336   6.805   1.676   6.549  0.0263 -0.5132 -1.6351
  996MOL0     C37337   6.917   1.655   6.473 -0.1277  0.7255  0.3618
  996MOL0     C37338   7.032   1.753   6.496 -0.9123  0.8131  1.0482
  996MOL0     C37339   6.907   1.558   6.364  0.3494  0.3934  0.3837
  996MOL0     C37340   7.022   1.529   6.280  0.3739  0.3364  0.1865
  996MOL0     O37341   7.026   1.560   6.142  0.0855 -0.1767  0.2669
  996MOL0     C37342   7.102   1.484   6.062  0.2680  0.0324 -0.1826
  996MOL0     C37343   7.090   1.514   5.926  0.0485  0.2122 -0.3660
  996MOL0     C37344   7.153   1.431   5.827  1.2885 -0.1140 -0.5934
  996MOL0     C37345   7.227   1.320   5.865  0.9827 -0.2220  0.4999
  996MOL0     O37346   7.285   1.251   5.771  0.3432  0.2381  0.4799
  996MOL0     C37347   7.385   1.159   5.803  0.3432 -0.5476 -0.3390
  996MOL0     C37348   7.438   1.099   5.681 -0.5836  0.7768  0.8794
  996MOL0     C37349   7.452   1.193   5.560  0.5227  0.0779 -0.3653
  996MOL0     C37350   7.494   1.132   5.428  1.6396 -0.4460  0.3620
  996MOL0     C37351   7.580   1.225   5.336  1.8053 -0.8615 -0.6399
  996MOL0     C37352   7.584   1.180   5.193  0.3283  0.0539 -0.0076
  996MOL0     C37353   7.706   1.235   5.117  0.3313  0.3539 -1.1216
  996MOL0     C37354   7.710   1.182   4.971  0.1953 -0.1870 -0.5253
  996MOL0    Cl37355   7.881   1.163   4.924  0.3628  0.4614 -0.1516
  996MOL0     C37356   7.238   1.290   5.996  0.4084  0.3920 -0.1461
  996MOL0     C37357   7.177   1.367   6.099 -0.7831 -0.5063  0.0889
  996MOL0     O37358   7.117   1.497   6.347 -0.1980  0.6922 -0.4106
  996MOL0     C37359   6.787   1.487   6.338  0.2561  0.7295  0.2278
  996MOL0     C37360   6.672   1.519   6.416 -0.3102  0.0921 -0.4451
  996MOL0     N37361   5.983   1.372   6.322  0.5972  0.4073 -0.7231
  996MOL0     N37362   5.861   1.333   6.357 -0.0452  0.3524 -0.4344
  996MOL0     C37363   4.893   0.848   6.802  0.3648  0.2064  0.2980
  996MOL0     C37364   4.861   0.781   6.922 -0.2200  0.3414  0.3560
  996MOL0     C37365   4.903   0.438   7.217 -0.1636 -1.3742  0.0668
  996MOL0     C37366   4.805   0.505   7.297 -0.1830  0.2303 -0.6760
  996MOL0     C37367   4.736   0.432   7.398 -0.0650  0.1735  0.8441
  996MOL0     C37368   4.765   0.295   7.412 -0.3732 -0.9104 -0.7399
  996MOL0     O37369   4.701   0.217   7.512 -0.2666 -0.5967  0.6282
  996MOL0     C37370   4.662   0.084   7.480 -0.5242 -0.0806 -0.7175
  996MOL0     C37371   4.651  -0.001   7.605  0.0016  0.3974 -0.0274
  996MOL0     C37372   4.787  -0.011   7.678 -0.3470 -0.1512 -0.9478
  996MOL0     C37373   4.776  -0.117   7.799 -0.1822 -1.1835 -0.3231
  996MOL0     C37374   4.724  -0.052   7.924  0.0883  0.7015  0.6976
  996MOL0     C37375   4.660   0.003   8.005 -0.7987  0.3921 -0.3906
  996MOL0     C37376   4.869   0.242   7.336 -0.0107  0.0998  0.5660
  996MOL0     C37377   4.936   0.308   7.234  0.2541  0.4291 -0.6501
  996MOL0     C37378   5.053   0.232   7.163 -0.0644 -0.0908  0.8772
  996MOL0     H37379   5.181   0.745   7.036 -1.5199  1.6789  1.4506
  996MOL0     H37380   5.225   0.869   6.827  0.8153 -1.1616 -0.7694
  996MOL0     H37381   5.204   0.898   6.585  0.3144  0.9632 -0.4692
  996MOL0     H37382   5.219   1.052   6.675 -0.9187  0.0989  0.1153
  996MOL0     H37383   5.245   1.057   6.410  1.6588  2.8854  0.6773
  996MOL0     H37384   5.068   1.053   6.419 -0.1074  2.9421  0.3074
  996MOL0     H37385   5.153   1.265   6.381 -0.0711  0.1800 -0.5936
  996MOL0     H37386   5.044   1.256   6.526  1.0559  3.0960  1.0732
  996MOL0     H37387   5.208   1.416   6.568  0.2522  0.4863  0.1295
  996MOL0     H37388   5.263   1.283   6.664  0.5533  0.7108  0.9928
  996MOL0     H37389   5.379   1.233   6.414  1.7006 -0.7575  0.7465
  996MOL0     H37390   5.463   1.273   6.571  1.0349  3.2894 -0.5744
  996MOL0     H37391   5.347   1.463   6.352 -2.1782  2.3309  2.9880
  996MOL0     H37392   5.409   1.517   6.504  0.2031 -2.1110  1.8858
  996MOL0     H37393   5.569   1.549   6.322  0.6561  0.8468  0.0267
  996MOL0     H37394   5.568   1.377   6.285 -1.4393  1.5305 -2.0004
  996MOL0     H37395   5.650   1.495   6.552  3.5869  1.1896  0.3737
  996MOL0     H37396   5.653   1.322   6.513  0.1632  1.4855  3.7224
  996MOL0     H37397   5.837   1.638   6.458  0.7634  0.0885  1.1661
  996MOL0     H37398   6.099   1.687   6.369 -3.0086 -1.2392 -2.2164
  996MOL0     H37399   6.181   1.570   6.277  0.7099 -0.5154 -0.1076
  996MOL0     H37400   6.176   1.549   6.579  0.4550  1.1446 -0.4635
  996MOL0     H37401   6.246   1.420   6.485  1.8306  0.2362  2.0105
  996MOL0     H37402   6.412   1.614   6.390  0.2438  1.0926 -0.1892
  996MOL0     H37403   6.341   1.712   6.502  0.5760 -0.2324  0.2939
  996MOL0     H37404   6.410   1.578   6.699  0.3254 -2.9825  0.9614
  996MOL0     H37405   6.489   1.464   6.592  0.6976  1.0084 -0.9596
  996MOL0     H37406   6.799   1.740   6.636 -0.2966  1.3328 -2.9364
  996MOL0     H37407   7.059   1.792   6.397  0.7240 -0.0565  1.1094
  996MOL0     H37408   7.127   1.709   6.528 -2.0536 -1.4318  1.5385
  996MOL0     H37409   7.020   1.840   6.560  3.2816  0.6057  2.4474
  996MOL0     H37410   7.033   1.603   5.905 -0.3697  0.4010  1.3724
  996MOL0     H37411   7.144   1.464   5.724 -2.2371  0.4396 -0.2235
  996MOL0     H37412   7.468   1.192   5.866 -1.0240  1.2924  0.6371
  996MOL0     H37413   7.351   1.081   5.871 -1.4607  2.1556  2.1371
  996MOL0     H37414   7.533   1.048   5.694 -0.2716 -0.1903 -3.5451
  996MOL0     H37415   7.365   1.022   5.652  1.4231 -1.0622  0.4066
  996MOL0     H37416   7.535   1.257   5.592  0.6650 -1.1178  1.8826
  996MOL0     H37417   7.376   1.271   5.548  1.5961  0.9995 -1.4855
  996MOL0     H37418   7.399   1.109   5.378 -0.7765  1.2443  3.7662
  996MOL0     H37419   7.534   1.032   5.445 -0.7559 -2.0383 -2.4306
  996MOL0     H37420   7.544   1.327   5.349  0.1598 -1.7246  2.6708
  996MOL0     H37421   7.680   1.221   5.379  1.5881 -0.4747 -0.0843
  996MOL0     H37422   7.495   1.216   5.139  1.3553  2.7459 -0.0522
  996MOL0     H37423   7.580   1.071   5.196 -3.0436  0.0887  1.1502
  996MOL0     H37424   7.795   1.200   5.170 -1.6632 -1.1746  1.4462
  996MOL0     H37425   7.702   1.344   5.113  1.5204  0.9183  4.6207
  996MOL0     H37426   7.673   1.268   4.915 -1.8303 -0.6947 -0.0275
  996MOL0     H37427   7.652   1.094   4.943 -1.2093 -0.1214  1.9363
  996MOL0     H37428   7.287   1.199   6.026  0.4868  0.4402 -0.1274
  996MOL0     H37429   7.192   1.327   6.199  2.5791  0.9641  0.3350
  996MOL0     H37430   6.774   1.421   6.252 -2.8044  1.0781  0.3307
  996MOL0     H37431   6.579   1.474   6.385 -1.7383  2.4017  0.1733
  996MOL0     H37432   4.810   0.877   6.740 -0.4777  0.3370  1.4529
  996MOL0     H37433   4.758   0.762   6.949 -0.1778  3.2222  3.2842
  996MOL0     H37434   4.766   0.604   7.279 -1.6542 -0.5910 -2.3843
  996MOL0     H37435   4.661   0.470   7.466 -1.9051  0.2644 -1.1470
  996MOL0     H37436   4.568   0.095   7.425 -1.6284 -1.1066  0.8739
  996MOL0     H37437   4.728   0.034   7.410 -2.1254 -1.1425 -1.5407
  996MOL0     H37438   4.631  -0.105   7.578  1.0646 -1.0634  4.1210
  996MOL0     H37439   4.573   0.033   7.674  0.6798  1.2881  0.3185
  996MOL0     H37440   4.863  -0.054   7.612  0.2886 -1.4927  0.5691
  996MOL0     H37441   4.829   0.078   7.724  2.6592 -2.0551  0.2844
  996MOL0     H37442   4.872  -0.169   7.797  0.2858 -0.3221 -1.5863
  996MOL0     H37443   4.701  -0.192   7.768 -0.9798 -0.6756  0.3328
  996MOL0     H37444   4.618   0.051   8.090  2.2517  1.2249  0.7774
  996MOL0     H37445   4.889   0.135   7.334 -3.1553 -0.6174 -2.7561
  996MOL0     H37446   5.141   0.298   7.170 -0.3258  0.3106  0.3897
  996MOL0     H37447   5.065   0.127   7.191 -0.8727 -0.5375 -0.3837
  996MOL0     H37448   5.035   0.224   7.056  0.7262  0.4273  0.6971
  997MOL0     O37449   4.247   5.051   1.205 -0.1359 -0.4428  0.7306
  997MOL0     C37450   4.211   5.140   1.127 -0.6082  0.3273  0.7407
  997MOL0     O37451   4.292   5.198   1.026  0.2426 -0.5715 -0.2743
  997MOL0     C37452   4.415   5.146   0.997  0.5259 -1.5295  0.3965
  997MOL0     C37453   4.520   5.186   1.077 -0.7325 -0.1306 -0.1923
  997MOL0     C37454   4.650   5.142   1.043  0.4076 -0.3252 -0.2990
  997MOL0     C37455   4.678   5.079   0.921  1.0826  0.1181 -0.0636
  997MOL0     O37456   4.800   5.043   0.870 -0.4984  0.2752  0.0444
  997MOL0     C37457   4.910   5.119   0.915 -0.2323  0.5661  0.2653
  997MOL0     C37458   4.975   5.058   1.042  0.0645 -1.3448  0.5846
  997MOL0     C37459   5.095   5.142   1.091 -0.0909 -0.2224 -0.2452
  997MOL0     C37460   5.226   5.134   1.017 -0.3162 -0.1513 -0.9558
  997MOL0     C37461   5.341   5.192   1.103 -0.5342 -0.5345  0.4071
  997MOL0     C37462   5.479   5.171   1.043  0.5559  0.0142 -0.1386
  997MOL0     C37463   5.522   5.023   1.040  0.6609 -0.4821  0.2931
  997MOL0     C37464   5.664   5.019   1.008  1.3646  0.1875  1.1060
  997MOL0     N37465   5.757   5.034   1.127  0.3414 -0.8595 -0.1359
  997MOL0     C37466   5.754   5.149   1.208 -0.3643 -0.6383  0.2233
  997MOL0     C37467   5.815   5.103   1.326 -0.0842 -0.1435  0.1841
  997MOL0     C37468   5.828   5.169   1.464 -0.3033  0.3226 -1.0366
  997MOL0     C37469   5.970   5.209   1.478 -0.3039  0.0290 -0.1901
  997MOL0     C37470   5.985   5.253   1.627  0.0259 -0.7751 -0.2071
  997MOL0     C37471   6.131   5.320   1.656 -0.1749  0.0265 -0.9481
  997MOL0     O37472   6.227   5.213   1.674  0.4377 -0.2698  0.1055
  997MOL0     C37473   6.351   5.239   1.718  0.0890 -0.0662 -0.1295
  997MOL0     C37474   6.418   5.356   1.693 -0.1192 -0.3887 -0.3880
  997MOL0     C37475   6.548   5.391   1.736 -0.6020  0.2130 -0.8183
  997MOL0     C37476   6.620   5.518   1.690  0.5342  0.6079 -0.0096
  997MOL0     C37477   6.604   5.284   1.807 -0.5794  1.1286 -0.7275
  997MOL0     C37478   6.740   5.295   1.864 -0.3897 -0.5572 -0.4612
  997MOL0     O37479   6.820   5.181   1.867  0.3170  0.2331 -0.2730
  997MOL0     C37480   6.950   5.187   1.891 -0.9892  0.6805  0.4055
  997MOL0     C37481   6.995   5.165   2.021  0.2739  0.1817 -0.0393
  997MOL0     C37482   7.132   5.153   2.041  0.0905 -0.2428 -0.0418
  997MOL0     C37483   7.223   5.161   1.933 -0.3790  0.2086  0.0141
  997MOL0     O37484   7.354   5.149   1.958  0.4802 -0.3792  0.0996
  997MOL0     C37485   7.439   5.240   1.889 -0.5825 -0.0781  0.1130
  997MOL0     C37486   7.531   5.286   1.988 -0.8745  1.1659  0.6206
  997MOL0     C37487   7.643   5.185   2.021  0.0220 -0.2051  0.6273
  997MOL0     C37488   7.753   5.259   2.097  0.2942 -0.7396  0.7701
  997MOL0     C37489   7.883   5.165   2.121 -0.0273 -0.3253 -0.3383
  997MOL0     C37490   7.946   5.216   2.256 -0.4960  0.3891  0.1050
  997MOL0     C37491   8.084   5.146   2.275 -0.5197  0.4383  0.4367
  997MOL0     C37492   8.158   5.184   2.394  0.4952  0.7148 -0.5252
  997MOL0    Cl37493   8.208   5.357   2.401  0.4322  0.1828 -0.7702
  997MOL0     C37494   7.175   5.170   1.798 -0.4618  0.5083  0.3669
  997MOL0     C37495   7.037   5.187   1.784  0.5114 -0.3241 -0.8548
  997MOL0     O37496   6.768   5.403   1.918 -0.5138 -0.5382 -0.0856
  997MOL0     C37497   6.549   5.156   1.822  1.5156 -0.0488  0.3835
  997MOL0     C37498   6.424   5.137   1.768 -0.1718  0.2400 -0.1874
  997MOL0     N37499   5.871   4.980   1.302 -0.2187 -0.5875 -0.1252
  997MOL0     N37500   5.826   4.936   1.189  0.0482 -0.5721  0.5190
  997MOL0     C37501   4.571   5.040   0.848  0.0421  0.3595 -0.3798
  997MOL0     C37502   4.437   5.077   0.876 -0.2256 -0.3335 -0.5517
  997MOL0     C37503   4.070   5.193   1.125 -0.3265  0.5653 -0.1747
  997MOL0     C37504   4.024   5.236   1.008  1.1148 -0.1771  0.1042
  997MOL0     C37505   3.892   5.291   0.994  0.0152 -0.5328  0.0951
  997MOL0     C37506   3.809   5.307   1.105 -0.7391 -0.1209 -0.8799
  997MOL0     O37507   3.677   5.345   1.084 -0.3681  0.1187  0.9994
  997MOL0     C37508   3.579   5.363   1.186 -0.5320  0.0609 -0.7544
  997MOL0     C37509   3.444   5.380   1.115 -0.6502 -0.5887  1.4255
  997MOL0     C37510   3.333   5.374   1.219  0.0544  0.5895 -0.4171
  997MOL0     C37511   3.199   5.389   1.147  0.0817  0.5251  0.2273
  997MOL0     C37512   3.090   5.362   1.242  0.4919  0.1202  0.1111
  997MOL0     C37513   3.001   5.323   1.319  0.3517 -0.0925 -0.4939
  997MOL0     C37514   3.856   5.239   1.223  0.0358 -0.1128  0.4870
  997MOL0     C37515   3.985   5.189   1.232 -0.7940  0.1048 -0.3310
  997MOL0     C37516   4.023   5.129   1.362 -0.2660  0.1792 -0.2029
  997MOL0     H37517   4.498   5.238   1.170 -3.8481 -2.9594  0.8334
  997MOL0     H37518   4.724   5.170   1.118 -0.1069 -0.0854  0.1249
  997MOL0     H37519   4.889   5.225   0.935  1.3654  1.0185 -0.3150
  997MOL0     H37520   4.980   5.119   0.832  0.3958  0.7533  0.7871
  997MOL0     H37521   4.899   5.061   1.120 -0.4958  0.2932  0.0025
  997MOL0     H37522   5.009   4.955   1.028  0.9895 -0.9692 -0.0543
  997MOL0     H37523   5.058   5.245   1.097 -0.5022 -0.4312  0.8930
  997MOL0     H37524   5.110   5.103   1.192 -1.0020 -1.4328 -0.5636
  997MOL0     H37525   5.248   5.028   1.003 -2.4821 -0.5587 -1.7029
  997MOL0     H37526   5.224   5.176   0.917  1.5738  0.9812 -0.5585
  997MOL0     H37527   5.328   5.149   1.203 -2.9607 -0.8266  0.0143
  997MOL0     H37528   5.338   5.299   1.128  0.2069 -0.9835  2.7305
  997MOL0     H37529   5.479   5.223   0.947  1.1218  0.0469 -0.1243
  997MOL0     H37530   5.532   5.225   1.122 -2.4411  1.5193  0.9865
  997MOL0     H37531   5.475   4.981   0.950  1.3945  1.4662 -1.0728
  997MOL0     H37532   5.489   4.974   1.132 -1.9413  1.9896  0.8098
  997MOL0     H37533   5.684   4.922   0.960 -1.1396 -0.9992  2.2160
  997MOL0     H37534   5.685   5.090   0.929  2.8124 -1.0263  0.3469
  997MOL0     H37535   5.705   5.241   1.180 -4.1066 -2.6854 -0.6384
  997MOL0     H37536   5.814   5.098   1.546  3.5336  0.2597 -0.2457
  997MOL0     H37537   5.748   5.243   1.474 -0.5951 -0.2884  1.7285
  997MOL0     H37538   6.034   5.124   1.451 -1.4151 -0.6118 -0.8981
  997MOL0     H37539   6.000   5.287   1.408 -2.4990 -1.8353 -3.4601
  997MOL0     H37540   5.903   5.321   1.651  0.5246 -0.5087  0.8046
  997MOL0     H37541   5.986   5.173   1.701  1.4284 -0.9934 -0.4448
  997MOL0     H37542   6.157   5.401   1.588 -0.8053 -0.4935 -1.8357
  997MOL0     H37543   6.124   5.378   1.748 -1.8903  3.2687 -2.9396
  997MOL0     H37544   6.372   5.439   1.641  0.7551  0.0334 -0.5147
  997MOL0     H37545   6.617   5.517   1.580 -1.5380  1.2424 -0.0110
  997MOL0     H37546   6.725   5.519   1.720  0.1164 -2.7555  2.0552
  997MOL0     H37547   6.572   5.611   1.720  0.5046  0.4810  0.3371
  997MOL0     H37548   6.921   5.152   2.100 -2.2398 -0.5428 -2.3689
  997MOL0     H37549   7.173   5.133   2.139  1.1352  0.2979 -0.3578
  997MOL0     H37550   7.495   5.187   1.812 -0.2530  0.4334 -0.0075
  997MOL0     H37551   7.385   5.324   1.846 -0.1707  0.2645  0.2558
  997MOL0     H37552   7.574   5.380   1.950  0.3869  1.2112  2.0824
  997MOL0     H37553   7.477   5.296   2.082 -2.0184 -0.5438  0.1982
  997MOL0     H37554   7.695   5.158   1.929  0.9810  1.3379  0.6882
  997MOL0     H37555   7.609   5.091   2.065  4.6035 -2.3238  0.1716
  997MOL0     H37556   7.726   5.294   2.197  2.1840 -1.6312  1.6382
  997MOL0     H37557   7.772   5.355   2.047 -1.5404 -1.3254 -1.2228
  997MOL0     H37558   7.842   5.065   2.138  1.8395 -1.2659 -1.1482
  997MOL0     H37559   7.948   5.150   2.034  0.1123  0.0526 -0.3014
  997MOL0     H37560   7.877   5.192   2.338  0.3969 -2.4028  0.1502
  997MOL0     H37561   7.950   5.325   2.249  0.8804  0.2647 -1.8582
  997MOL0     H37562   8.156   5.177   2.198 -0.2661 -1.8925 -0.3465
  997MOL0     H37563   8.071   5.038   2.273 -0.2402  0.3921  0.9597
  997MOL0     H37564   8.253   5.130   2.403 -0.5476 -0.8871  2.9497
  997MOL0     H37565   8.105   5.161   2.487 -1.0332  2.3004 -0.9443
  997MOL0     H37566   7.237   5.167   1.709  2.0251  0.9910  1.9798
  997MOL0     H37567   6.997   5.196   1.684 -2.2433 -0.9404  0.1051
  997MOL0     H37568   6.599   5.083   1.885  1.0210  0.5754  1.5118
  997MOL0     H37569   6.385   5.036   1.776  0.9617 -0.3686 -1.8660
  997MOL0     H37570   4.587   5.000   0.748  0.9260 -2.3950  0.7699
  997MOL0     H37571   4.357   5.063   0.803 -1.3244  0.2678  0.5073
  997MOL0     H37572   4.084   5.244   0.918  2.2429 -0.1676  0.8437
  997MOL0     H37573   3.862   5.323   0.894 -2.4676 -0.8097  0.6787
  997MOL0     H37574   3.568   5.279   1.256 -0.6348 -0.6940 -1.6475
  997MOL0     H37575   3.606   5.449   1.247  1.1117 -1.2943  0.5248
  997MOL0     H37576   3.433   5.302   1.040 -1.1757 -0.1047  0.9920
  997MOL0     H37577   3.434   5.480   1.071 -0.0391 -1.9064 -1.9801
  997MOL0     H37578   3.332   5.276   1.268  1.2141  2.1716  3.1035
  997MOL0     H37579   3.334   5.449   1.298 -0.3376 -0.2983  0.4503
  997MOL0     H37580   3.201   5.315   1.066  0.7908 -0.4976  1.1508
  997MOL0     H37581   3.183   5.485   1.096  2.1689 -0.5932 -2.8167
  997MOL0     H37582   2.924   5.291   1.386 -0.1356 -0.8077 -1.3773
  997MOL0     H37583   3.793   5.245   1.311 -1.5628  2.8101 -0.7245
  997MOL0     H37584   4.060   5.026   1.365  2.1683  0.9736  2.7621
  997MOL0     H37585   4.101   5.196   1.399  2.0423  1.0515 -5.6943
  997MOL0     H37586   3.935   5.124   1.427 -0.8775 -2.7665 -1.1119
  998MOL0     O37587   3.575   9.146   9.103  0.6536 -0.2038  0.7851
  998MOL0     C37588   3.494   9.051   9.074 -0.7685 -0.5294  0.2832
  998MOL0     O37589   3.520   8.915   9.103 -0.2057 -0.0550 -0.4137
  998MOL0     C37590   3.632   8.873   9.149 -0.8007 -0.1163  0.1324
  998MOL0     C37591   3.686   8.902   9.279 -0.4016 -0.5081  0.2636
  998MOL0     C37592   3.811   8.852   9.318 -0.1575 -0.2100  0.3795
  998MOL0     C37593   3.893   8.787   9.229  0.0797 -0.3383 -0.3188
  998MOL0     O37594   4.013   8.741   9.269 -0.0863 -0.2220  0.7547
  998MOL0     C37595   4.124   8.783   9.195 -0.6250 -0.0082  0.5325
  998MOL0     C37596   4.236   8.804   9.293  0.5475 -0.2888 -0.2224
  998MOL0     C37597   4.284   8.664   9.335  0.8393  0.5217 -0.8533
  998MOL0     C37598   4.382   8.669   9.458  0.3074  0.5449  0.0297
  998MOL0     C37599   4.516   8.710   9.416 -1.1275 -0.4408  0.3622
  998MOL0     C37600   4.584   8.606   9.324 -0.7353 -0.9341 -0.1400
  998MOL0     C37601   4.734   8.626   9.310 -0.4392  1.1637 -0.0425
  998MOL0     C37602   4.768   8.763   9.261  0.1374 -0.5789  0.4788
  998MOL0     N37603   4.906   8.795   9.246 -0.2367  0.2159  0.1677
  998MOL0     C37604   4.992   8.745   9.151  0.6094  0.3174  0.1591
  998MOL0     C37605   5.106   8.809   9.172 -0.5417  0.4067  0.5412
  998MOL0     C37606   5.235   8.798   9.079  0.7611 -0.5679 -0.0976
  998MOL0     C37607   5.339   8.694   9.133 -0.0733 -0.6034 -0.3791
  998MOL0     C37608   5.357   8.680   9.290 -0.2453  0.7220  0.5897
  998MOL0     C37609   5.436   8.553   9.310  0.8831 -0.4377  0.2047
  998MOL0     O37610   5.374   8.431   9.258 -0.7833 -0.5256  0.1900
  998MOL0     C37611   5.446   8.317   9.229  0.4768 -0.4518 -0.0594
  998MOL0     C37612   5.567   8.291   9.293 -0.4461  0.0876 -0.3454
  998MOL0     C37613   5.643   8.179   9.259  0.4794  0.2606 -0.0178
  998MOL0     C37614   5.768   8.162   9.342  0.5048 -0.0262 -0.4980
  998MOL0     C37615   5.604   8.086   9.158  0.6539  0.1709 -0.7716
  998MOL0     C37616   5.686   7.970   9.126 -0.5973 -0.7521  0.2910
  998MOL0     O37617   5.652   7.911   9.006 -0.1981 -0.3255 -0.1385
  998MOL0     C37618   5.701   7.799   8.958 -0.0811  0.3153 -0.2197
  998MOL0     C37619   5.615   7.732   8.873  0.5318  0.4447  0.6790
  998MOL0     C37620   5.638   7.603   8.829  0.3841 -1.0264 -0.0753
  998MOL0     C37621   5.770   7.541   8.855  0.5398 -0.3017  0.5852
  998MOL0     O37622   5.804   7.414   8.819  0.6348  0.2108 -0.5522
  998MOL0     C37623   5.706   7.345   8.737 -0.5590  0.5626  0.0981
  998MOL0     C37624   5.782   7.235   8.659 -0.1936 -0.2042 -0.4231
  998MOL0     C37625   5.838   7.124   8.753 -0.1470  0.1740 -0.2128
  998MOL0     C37626   5.731   7.015   8.766 -0.6541 -0.0154 -0.1782
  998MOL0     C37627   5.788   6.899   8.836 -0.0142  0.6826 -0.1405
  998MOL0     C37628   5.862   6.799   8.749 -0.3476 -0.2586  0.1528
  998MOL0     C37629   5.901   6.674   8.824 -0.2547  0.3375 -0.6809
  998MOL0     C37630   6.031   6.606   8.771  0.2399 -1.0691  0.3963
  998MOL0    Cl37631   6.182   6.701   8.766  0.1113 -0.0305  0.5499
  998MOL0     C37632   5.859   7.615   8.928 -0.8949 -0.4935 -0.0755
  998MOL0     C37633   5.826   7.741   8.988 -0.1016 -0.2603  0.4993
  998MOL0     O37634   5.792   7.952   9.180  0.1358  0.5089  0.0434
  998MOL0     C37635   5.484   8.110   9.101  0.9141  0.3576 -0.6091
  998MOL0     C37636   5.409   8.232   9.128 -0.4221  0.3216  1.1118
  998MOL0     N37637   5.099   8.881   9.283 -0.2959  0.1462  0.0167
  998MOL0     N37638   4.976   8.876   9.328 -0.1966 -0.1245 -0.3634
  998MOL0     C37639   3.853   8.778   9.092  0.8814 -0.4457  0.4174
  998MOL0     C37640   3.722   8.806   9.058  0.4344 -0.7689  0.5260
  998MOL0     C37641   3.401   9.071   8.965  0.2860  0.3726  0.1717
  998MOL0     C37642   3.334   9.200   8.958  0.2336  0.2706  0.5661
  998MOL0     C37643   3.238   9.224   8.867 -0.0546 -0.0379  0.2474
  998MOL0     C37644   3.191   9.131   8.776  0.3754 -0.2566  0.6156
  998MOL0     O37645   3.091   9.172   8.687 -0.3223  0.1813 -0.0091
  998MOL0     C37646   3.042   9.071   8.596  0.2687  0.3985  0.4176
  998MOL0     C37647   2.915   9.134   8.536  0.3221 -0.7728 -0.1461
  998MOL0     C37648   2.833   9.020   8.469  0.3298  0.4948 -0.0393
  998MOL0     C37649   2.697   9.076   8.431  0.4290  0.2385  0.6830
  998MOL0     C37650   2.609   8.961   8.408 -0.2846  0.8199  0.1239
  998MOL0     C37651   2.531   8.873   8.385  0.1138 -0.3743 -0.9620
  998MOL0     C37652   3.240   9.004   8.782  0.3299 -0.2129 -0.1023
  998MOL0     C37653   3.352   8.971   8.874 -0.2852 -0.4832  0.4531
  998MOL0     C37654   3.406   8.831   8.867  0.3432 -0.2992  0.2087
  998MOL0     H37655   3.639   8.968   9.351  0.8420 -0.5041  1.0997
  998MOL0     H37656   3.837   8.856   9.424  0.4511  1.4635  0.1983
  998MOL0     H37657   4.099   8.878   9.148 -2.5562 -1.1300 -0.7973
  998MOL0     H37658   4.132   8.701   9.123 -3.3342 -0.4202  0.6058
  998MOL0     H37659   4.322   8.858   9.252  1.9700 -1.3800  1.2080
  998MOL0     H37660   4.199   8.855   9.382 -0.3546 -1.4884  0.1147
  998MOL0     H37661   4.199   8.604   9.369  2.0747 -1.7282 -1.5379
  998MOL0     H37662   4.333   8.619   9.248  2.5978 -0.0577  0.3836
  998MOL0     H37663   4.353   8.728   9.544  1.3271 -1.7772  2.1044
  998MOL0     H37664   4.391   8.575   9.513 -1.9013  0.5070  0.3845
  998MOL0     H37665   4.578   8.733   9.503 -0.9923 -1.0858  0.4380
  998MOL0     H37666   4.514   8.806   9.363  0.0354 -1.4532 -1.6470
  998MOL0     H37667   4.552   8.511   9.367 -1.5682 -0.2806  0.7243
  998MOL0     H37668   4.535   8.615   9.226 -1.3629 -1.0387  0.1555
  998MOL0     H37669   4.757   8.552   9.233  0.7060 -0.8867  2.1550
  998MOL0     H37670   4.791   8.610   9.402  1.8578  0.9085 -1.4487
  998MOL0     H37671   4.707   8.779   9.171  0.0699 -0.3492  0.5641
  998MOL0     H37672   4.729   8.828   9.340 -0.7356  1.3686 -1.4574
  998MOL0     H37673   4.970   8.670   9.076  3.0790 -1.6319  1.2693
  998MOL0     H37674   5.276   8.899   9.075 -1.4400  0.6021  2.9078
  998MOL0     H37675   5.197   8.771   8.981  1.0263 -0.2459 -0.2934
  998MOL0     H37676   5.321   8.589   9.109  1.2130 -0.7827 -0.5881
  998MOL0     H37677   5.437   8.714   9.091  1.2764 -2.0563  1.8438
  998MOL0     H37678   5.403   8.772   9.327 -1.4183  0.6941  2.2050
  998MOL0     H37679   5.258   8.685   9.336 -0.9420  2.1672 -0.9387
  998MOL0     H37680   5.530   8.566   9.257  1.7298 -1.3175  1.4426
  998MOL0     H37681   5.462   8.547   9.416  2.8525  1.1023 -0.1313
  998MOL0     H37682   5.597   8.358   9.373 -1.6804 -0.8881  0.9932
  998MOL0     H37683   5.849   8.154   9.269  1.0876 -1.3400  0.2575
  998MOL0     H37684   5.760   8.069   9.399 -0.5723 -1.6849 -3.1242
  998MOL0     H37685   5.781   8.249   9.406 -2.7416  0.1102  0.1578
  998MOL0     H37686   5.519   7.778   8.857  0.3493  0.8237  2.5739
  998MOL0     H37687   5.562   7.555   8.767 -1.6190 -0.4602  1.7890
  998MOL0     H37688   5.630   7.302   8.803  0.6862  0.0269  1.2106
  998MOL0     H37689   5.668   7.414   8.660 -0.3860 -0.3184 -0.7926
  998MOL0     H37690   5.713   7.193   8.585 -1.3658 -1.9585  1.5603
  998MOL0     H37691   5.856   7.287   8.598  1.7150 -2.6062 -0.2793
  998MOL0     H37692   5.842   7.169   8.853 -2.4984  0.6719 -0.2867
  998MOL0     H37693   5.939   7.098   8.720 -0.2428 -0.7976  0.2424
  998MOL0     H37694   5.704   6.989   8.663  0.3495 -1.2747 -0.1493
  998MOL0     H37695   5.650   7.062   8.822 -2.0943 -2.9655  0.4047
  998MOL0     H37696   5.849   6.932   8.920  0.6358  0.1671 -0.3987
  998MOL0     H37697   5.706   6.840   8.877  1.3537  0.9695  3.2764
  998MOL0     H37698   5.951   6.849   8.709 -1.3531  1.0395 -0.5515
  998MOL0     H37699   5.810   6.762   8.661  0.0869 -1.8263  0.5313
  998MOL0     H37700   5.815   6.606   8.826  0.3979 -0.5397 -1.2838
  998MOL0     H37701   5.915   6.694   8.931 -2.5271 -0.4689 -0.1714
  998MOL0     H37702   6.006   6.557   8.676  1.7771  0.0553 -0.6335
  998MOL0     H37703   6.065   6.532   8.844  1.3156  0.1150  1.1297
  998MOL0     H37704   5.954   7.570   8.955 -1.6010 -2.7700 -1.1243
  998MOL0     H37705   5.908   7.781   9.046  2.9091 -3.9890 -0.8023
  998MOL0     H37706   5.456   8.050   9.016  1.4980  0.1258 -0.6459
  998MOL0     H37707   5.323   8.258   9.068  2.0362  1.6195 -2.1566
  998MOL0     H37708   3.919   8.727   9.023 -0.0340  0.6178 -1.3312
  998MOL0     H37709   3.691   8.777   8.958 -0.0427 -3.2619  1.3198
  998MOL0     H37710   3.368   9.266   9.037  1.9626 -0.4168  0.4244
  998MOL0     H37711   3.187   9.320   8.871 -2.7512 -1.2807 -1.5214
  998MOL0     H37712   3.117   9.044   8.521 -0.0095  1.3996 -0.2272
  998MOL0     H37713   3.015   8.985   8.658  0.1400  1.3723  1.7507
  998MOL0     H37714   2.929   9.216   8.466  0.8675 -0.5218  0.2534
  998MOL0     H37715   2.852   9.174   8.616  0.1001 -0.4136 -0.4936
  998MOL0     H37716   2.893   8.984   8.385  2.3491  2.9825  0.1997
  998MOL0     H37717   2.809   8.945   8.544  0.6020 -1.1862 -1.5579
  998MOL0     H37718   2.699   9.131   8.336 -1.3876  0.1873  0.5741
  998MOL0     H37719   2.657   9.143   8.508 -1.4991 -1.7015  1.4662
  998MOL0     H37720   2.459   8.794   8.374 -2.1000  1.5597 -1.1449
  998MOL0     H37721   3.199   8.926   8.720 -0.1030 -1.3119  1.5063
  998MOL0     H37722   3.378   8.765   8.785  1.0069 -0.8838  0.4457
  998MOL0     H37723   3.513   8.851   8.859 -0.1357  2.4524 -0.6284
  998MOL0     H37724   3.382   8.781   8.961  2.3956  1.5738  1.8522
  999MOL0     O37725   6.822   9.554   2.147  0.4983 -0.4932 -0.2223
  999MOL0     C37726   6.765   9.463   2.088  0.0145  0.1319 -0.2359
  999MOL0     O37727   6.648   9.404   2.129  0.1338  0.1749 -0.0238
  999MOL0     C37728   6.617   9.433   2.261 -0.1499  0.0508 -0.1182
  999MOL0     C37729   6.501   9.516   2.289 -0.4601  0.9679  0.5673
  999MOL0     C37730   6.468   9.536   2.425  0.6320 -0.0178 -0.3884
  999MOL0     C37731   6.537   9.478   2.528 -0.2545  0.0540 -0.2129
  999MOL0     O37732   6.497   9.495   2.661 -0.4278 -0.6898 -0.4441
  999MOL0     C37733   6.588   9.483   2.773  0.4586 -0.6433 -0.0373
  999MOL0     C37734   6.550   9.579   2.887 -0.1576 -0.1296 -0.0829
  999MOL0     C37735   6.656   9.569   2.997 -0.1753 -0.1339 -0.0044
  999MOL0     C37736   6.619   9.638   3.131  0.5522  0.3327  0.5784
  999MOL0     C37737   6.578   9.783   3.126  0.5573 -0.5322  0.3660
  999MOL0     C37738   6.691   9.889   3.100  0.4446 -0.0886 -0.0635
  999MOL0     C37739   6.761   9.928   3.229  0.0092  0.0719 -0.8340
  999MOL0     C37740   6.892  10.005   3.217  0.3257 -0.1395  0.6514
  999MOL0     N37741   6.951  10.031   3.348 -0.0730  0.4287  0.0252
  999MOL0     C37742   6.899  10.130   3.419 -1.2639  0.3946  0.7434
  999MOL0     C37743   6.969  10.131   3.531  1.2241  0.0443 -0.2019
  999MOL0     C37744   6.968  10.230   3.643 -0.3098 -0.0780 -0.7412
  999MOL0     C37745   6.896  10.188   3.775 -0.2661 -0.9867 -0.5177
  999MOL0     C37746   6.980  10.113   3.885 -1.2101  0.2630  0.0324
  999MOL0     C37747   6.882  10.070   4.005  0.9600  1.2874  0.3885
  999MOL0     O37748   6.814  10.191   4.043 -0.3818  0.9884 -0.4163
  999MOL0     C37749   6.723  10.177   4.146  0.3340 -1.0629 -0.7556
  999MOL0     C37750   6.730  10.087   4.261 -0.6102 -0.0032 -1.0834
  999MOL0     C37751   6.625  10.091   4.357 -0.8834  0.6194  0.0704
  999MOL0     C37752   6.642   9.978   4.457 -0.1964  0.1323 -0.2692
  999MOL0     C37753   6.521  10.182   4.348  0.2577  0.7710  0.0229
  999MOL0     C37754   6.401  10.160   4.427 -1.2134 -0.0270  0.2620
  999MOL0     O37755   6.389  10.031   4.471 -0.6737  0.3944 -0.1593
  999MOL0     C37756   6.274   9.990   4.547 -0.0421 -1.4822  0.2132
  999MOL0     C37757   6.248  10.008   4.677 -0.3408 -0.1623 -0.2101
  999MOL0     C37758   6.134   9.962   4.739  0.6519  0.8201  0.6329
  999MOL0     C37759   6.035   9.897   4.664 -0.0071  0.1833  0.2072
  999MOL0     O37760   5.928   9.819   4.716 -0.5658 -0.0379  0.0724
  999MOL0     C37761   5.857   9.870   4.834  0.0459 -0.0634 -0.2552
  999MOL0     C37762   5.723   9.934   4.784 -0.3753  0.5810  0.1752
  999MOL0     C37763   5.628   9.838   4.714 -1.1420 -0.2317 -0.5436
  999MOL0     C37764   5.501   9.917   4.683 -1.0479 -0.0847 -0.3135
  999MOL0     C37765   5.395   9.840   4.599  0.4758  0.8270 -0.0284
  999MOL0     C37766   5.264   9.908   4.611  0.0557  0.8945 -0.6478
  999MOL0     C37767   5.168   9.872   4.491  0.3014  0.0702  0.1613
  999MOL0     C37768   5.030   9.929   4.516  0.1395 -0.7585  1.0964
  999MOL0    Cl37769   5.033  10.104   4.537  0.4455 -0.0927 -0.3145
  999MOL0     C37770   6.060   9.882   4.528  0.1870 -0.0424  0.5403
  999MOL0     C37771   6.174   9.931   4.469  0.8695 -0.5525 -0.4612
  999MOL0     O37772   6.332  10.259   4.450  0.7102  0.3911  0.4172
  999MOL0     C37773   6.517  10.270   4.246 -0.0801 -0.2043 -0.0624
  999MOL0     C37774   6.616  10.266   4.145  0.4451 -0.2019 -0.0271
  999MOL0     N37775   7.063  10.021   3.531  0.9679 -0.4410  0.1590
  999MOL0     N37776   7.053   9.974   3.415  0.0374 -0.1846 -0.4886
  999MOL0     C37777   6.657   9.401   2.495 -0.0055 -0.1544 -0.0367
  999MOL0     C37778   6.689   9.373   2.364 -0.4012 -0.0498  0.9366
  999MOL0     C37779   6.838   9.406   1.972  0.2440 -0.5785  0.0518
  999MOL0     C37780   6.836   9.264   1.967 -0.0133 -1.0439  0.5705
  999MOL0     C37781   6.890   9.196   1.856 -0.0536  1.0817  0.2784
  999MOL0     C37782   6.944   9.271   1.751  0.2251 -0.7409  1.0421
  999MOL0     O37783   7.014   9.212   1.645  0.8197  0.3359  0.6221
  999MOL0     C37784   7.072   9.083   1.660 -0.2020  0.2417  0.0691
  999MOL0     C37785   7.190   9.045   1.567  0.5147  0.5025  0.1026
  999MOL0     C37786   7.250   8.906   1.604 -0.4445 -0.4570 -0.0327
  999MOL0     C37787   7.362   8.854   1.504  0.2133 -0.5245 -0.7086
  999MOL0     C37788   7.312   8.840   1.367  0.9846 -0.0597 -0.2786
  999MOL0     C37789   7.251   8.827   1.262  0.4545 -0.8224 -0.4203
  999MOL0     C37790   6.929   9.414   1.745  0.4513 -0.4434  0.2372
  999MOL0     C37791   6.880   9.479   1.855 -0.1657  0.1727 -1.0169
  999MOL0     C37792   6.869   9.623   1.859 -0.0902 -0.2270 -0.7501
  999MOL0     H37793   6.450   9.561   2.204 -0.3089 -0.2308 -0.1837
  999MOL0     H37794   6.393   9.603   2.466  0.8255 -1.0220  1.6944
  999MOL0     H37795   6.693   9.486   2.744  0.9418 -2.1127  1.3842
  999MOL0     H37796   6.578   9.386   2.824  0.7437  0.3752  2.0956
  999MOL0     H37797   6.554   9.684   2.854 -0.5233  0.1867  0.8401
  999MOL0     H37798   6.455   9.541   2.924  0.4423 -0.1818  1.4529
  999MOL0     H37799   6.680   9.467   3.025 -1.8875 -0.2423  1.1930
  999MOL0     H37800   6.750   9.611   2.959  1.5531 -3.4312  0.2927
  999MOL0     H37801   6.533   9.583   3.171  0.0617 -0.9663 -2.0625
  999MOL0     H37802   6.699   9.643   3.205 -1.1454  2.6818  2.4114
  999MOL0     H37803   6.534   9.807   3.223 -0.9494 -2.0994  0.1122
  999MOL0     H37804   6.500   9.802   3.052  0.0750 -0.8661  0.7810
  999MOL0     H37805   6.776   9.858   3.038  1.6819  2.7452  0.0801
  999MOL0     H37806   6.647   9.980   3.057 -0.5284 -0.7635 -0.5318
  999MOL0     H37807   6.788   9.842   3.291  2.4746  1.2708 -0.1367
  999MOL0     H37808   6.692   9.993   3.283 -0.7663 -0.7834 -0.7591
  999MOL0     H37809   6.958   9.947   3.152  0.6796  0.8987  0.0653
  999MOL0     H37810   6.878  10.097   3.160  0.2498 -0.7717 -0.3904
  999MOL0     H37811   6.827  10.208   3.395 -1.5158 -0.6716 -2.4911
  999MOL0     H37812   6.932  10.330   3.618  0.5559  0.6206  0.6406
  999MOL0     H37813   7.076  10.237   3.663 -0.5412  1.3815  0.1460
  999MOL0     H37814   6.845  10.281   3.802 -1.5423 -1.8544  0.1647
  999MOL0     H37815   6.804  10.135   3.746 -0.7017  0.1304 -1.2511
  999MOL0     H37816   7.019  10.020   3.843 -0.1920 -1.1121  3.6490
  999MOL0     H37817   7.059  10.176   3.925 -0.8900 -0.5130  0.6377
  999MOL0     H37818   6.812   9.997   3.965  2.4527  0.3267 -0.5680
  999MOL0     H37819   6.943  10.026   4.084  0.6318 -0.6909 -0.4187
  999MOL0     H37820   6.813  10.018   4.275 -2.9420 -2.8487 -0.3055
  999MOL0     H37821   6.607  10.000   4.558  1.1885 -0.6571  0.4241
  999MOL0     H37822   6.749   9.959   4.471 -0.4356 -1.5066 -0.4868
  999MOL0     H37823   6.601   9.881   4.429  0.9532 -1.6808  3.5442
  999MOL0     H37824   6.324  10.067   4.728  1.2607 -0.5037 -2.0577
  999MOL0     H37825   6.111   9.972   4.845 -1.5099  0.6679  0.2137
  999MOL0     H37826   5.828   9.798   4.912  0.6840  0.3914  0.4198
  999MOL0     H37827   5.913   9.947   4.888 -1.6959 -0.3384  2.0857
  999MOL0     H37828   5.670   9.975   4.870 -0.4534  0.6145  0.1103
  999MOL0     H37829   5.744  10.020   4.720 -2.4867  0.4953 -0.7291
  999MOL0     H37830   5.621   9.746   4.772  1.4904 -1.4965 -2.0528
  999MOL0     H37831   5.676   9.791   4.627 -1.6809 -1.7426 -0.0519
  999MOL0     H37832   5.535  10.008   4.633  2.5206  0.6359  2.9268
  999MOL0     H37833   5.455   9.949   4.777  0.1865  0.1224  0.2484
  999MOL0     H37834   5.431   9.847   4.496  2.9601 -1.7990  0.5442
  999MOL0     H37835   5.390   9.734   4.627 -2.0310  0.3629 -1.7955
  999MOL0     H37836   5.276  10.015   4.625  1.9002  0.4684  1.5611
  999MOL0     H37837   5.215   9.867   4.699 -0.9110 -0.8048 -1.9111
  999MOL0     H37838   5.145   9.765   4.490 -1.1529  0.3411  1.0563
  999MOL0     H37839   5.214   9.903   4.397 -0.8784 -0.3902 -0.5872
  999MOL0     H37840   4.979   9.869   4.592  2.1535 -1.8898  1.6277
  999MOL0     H37841   4.989   9.903   4.418 -0.1498 -0.9857  1.2772
  999MOL0     H37842   5.995   9.817   4.469  1.5991  1.3040 -2.7644
  999MOL0     H37843   6.199   9.890   4.372 -1.1127 -3.5583  0.1777
  999MOL0     H37844   6.428  10.331   4.237 -0.5122 -0.6188  1.1640
  999MOL0     H37845   6.612  10.342   4.068  1.1853 -2.5306 -2.5127
  999MOL0     H37846   6.712   9.350   2.574  2.4549  2.3329  0.0486
  999MOL0     H37847   6.762   9.301   2.329 -1.3651 -0.4801 -0.2728
  999MOL0     H37848   6.801   9.204   2.050 -1.7714 -0.9974 -0.0876
  999MOL0     H37849   6.908   9.089   1.856  2.5334  1.0644 -5.8371
  999MOL0     H37850   7.106   9.061   1.762 -1.0290 -4.6771 -0.4906
  999MOL0     H37851   6.990   9.014   1.641  0.4766 -1.5746  3.1030
  999MOL0     H37852   7.271   9.118   1.577  0.5831  0.6152 -1.2047
  999MOL0     H37853   7.163   9.048   1.461  1.3157  1.2097 -0.0953
  999MOL0     H37854   7.300   8.922   1.700  2.3050 -4.2081 -0.5901
  999MOL0     H37855   7.181   8.824   1.627  0.8642 -1.4507  0.4923
  999MOL0     H37856   7.429   8.774   1.538  2.1834  1.4488  0.3311
  999MOL0     H37857   7.439   8.931   1.490 -0.5877  0.6891  1.1467
  999MOL0     H37858   7.189   8.817   1.175 -3.4785  1.2886  1.8576
  999MOL0     H37859   6.963   9.475   1.662 -1.0621  0.1290  0.0173
  999MOL0     H37860   6.932   9.650   1.944  1.1758  0.0035 -1.7285
  999MOL0     H37861   6.911   9.672   1.771  0.2106  1.5445  0.3277
  999MOL0     H37862   6.765   9.655   1.871  0.4841  1.3706  0.3810
 1000MOL0     O37863   8.677   2.656  11.379  0.2221 -0.2982  0.2095
 1000MOL0     C37864   8.640   2.651  11.257  0.6064 -0.4510  0.7326
 1000MOL0     O37865   8.676   2.745  11.158  0.0528  0.3885 -0.0153
 1000MOL0     C37866   8.768   2.842  11.200  0.3563  0.8394  0.0489
 1000MOL0     C37867   8.725   2.958  11.266 -0.1003  0.3675  0.6528
 1000MOL0     C37868   8.823   3.051  11.283  0.9287  0.4502 -0.7643
 1000MOL0     C37869   8.962   3.030  11.262  0.1122  0.1895  0.0143
 1000MOL0     O37870   9.040   3.126  11.312 -0.4091  0.3040 -0.4570
 1000MOL0     C37871   9.181   3.105  11.295  0.1538 -0.1641 -0.0061
 1000MOL0     C37872   9.257   3.216  11.369  0.1478  0.3295 -0.1396
 1000MOL0     C37873   9.405   3.205  11.321 -0.4018  0.4653 -0.2010
 1000MOL0     C37874   9.482   3.098  11.397  0.7842 -0.6180 -0.1823
 1000MOL0     C37875   9.631   3.107  11.369  0.3491  0.2025  0.3812
 1000MOL0     C37876   9.700   3.212  11.452 -0.1665 -0.3546 -0.4006
 1000MOL0     C37877   9.837   3.235  11.392  0.5234  0.1844  0.3605
 1000MOL0     C37878   9.918   3.343  11.468 -0.6851 -0.1901 -0.0989
 1000MOL0     N37879  10.046   3.358  11.395 -0.0871 -0.7567  0.1470
 1000MOL0     C37880  10.075   3.387  11.272  0.1897 -1.1417 -0.0924
 1000MOL0     C37881  10.213   3.380  11.261 -0.6004 -1.0088 -0.0372
 1000MOL0     C37882  10.307   3.417  11.150 -1.2797  0.8138 -0.4149
 1000MOL0     C37883  10.413   3.311  11.127 -0.2017  0.5551 -0.0769
 1000MOL0     C37884  10.515   3.343  11.016 -0.0423  0.4174  0.0280
 1000MOL0     C37885  10.454   3.352  10.877  0.9486  0.1249 -0.5512
 1000MOL0     O37886  10.390   3.230  10.841 -0.7021  0.1578  0.0911
 1000MOL0     C37887  10.307   3.233  10.731  1.3236  0.8648  0.6444
 1000MOL0     C37888  10.249   3.346  10.677  0.1467  0.2024 -0.5341
 1000MOL0     C37889  10.163   3.339  10.565  0.1246 -0.4383  0.1948
 1000MOL0     C37890  10.132   3.468  10.502  0.3694 -0.6114 -0.1947
 1000MOL0     C37891  10.118   3.208  10.520  0.2648  0.8869 -0.4757
 1000MOL0     C37892  10.013   3.174  10.416  0.4908 -0.7971 -0.1049
 1000MOL0     O37893   9.994   3.046  10.388 -0.5870  0.1842 -0.4142
 1000MOL0     C37894   9.886   2.996  10.319 -0.1730  0.2056  0.3752
 1000MOL0     C37895   9.758   3.045  10.345  0.6370 -0.2438  0.7424
 1000MOL0     C37896   9.649   2.997  10.271 -1.1052  0.0170  0.3975
 1000MOL0     C37897   9.665   2.898  10.182  0.1871  1.2039 -1.0284
 1000MOL0     O37898   9.567   2.868  10.095  0.4426  0.1524 -0.6298
 1000MOL0     C37899   9.542   2.728  10.077 -0.2666 -0.4952  1.2154
 1000MOL0     C37900   9.395   2.698  10.091 -0.5075  0.0932  0.7838
 1000MOL0     C37901   9.320   2.751   9.962  0.9524  0.1974 -1.2572
 1000MOL0     C37902   9.167   2.740   9.976  1.0947 -0.2817 -0.6977
 1000MOL0     C37903   9.101   2.767   9.835  0.5752  0.0741 -0.1864
 1000MOL0     C37904   8.946   2.761   9.845  0.0246  0.0970  0.2439
 1000MOL0     C37905   8.881   2.762   9.709 -0.1577  0.2763  0.9856
 1000MOL0     C37906   8.731   2.725   9.710 -0.8207 -0.4324  0.0696
 1000MOL0    Cl37907   8.629   2.812   9.832  0.2646 -0.3803 -0.0147
 1000MOL0     C37908   9.793   2.834  10.164 -0.0661 -0.2827  0.4511
 1000MOL0     C37909   9.906   2.883  10.240 -0.2750 -0.1093  0.0472
 1000MOL0     O37910   9.961   3.268  10.352 -0.3429  0.0964  0.3352
 1000MOL0     C37911  10.181   3.093  10.578 -0.1903  0.2481 -0.2160
 1000MOL0     C37912  10.280   3.107  10.680  0.2382 -0.2270  0.6561
 1000MOL0     N37913  10.261   3.329  11.378 -0.4084 -0.1161  0.4835
 1000MOL0     N37914  10.161   3.316  11.462 -0.2598 -0.5750  0.2165
 1000MOL0     C37915   9.001   2.911  11.193  0.3940 -0.1734  0.8222
 1000MOL0     C37916   8.896   2.823  11.161 -0.2899  0.5031  0.3007
 1000MOL0     C37917   8.557   2.540  11.204  0.4338  0.0613  0.1064
 1000MOL0     C37918   8.550   2.511  11.060 -0.8320  0.6630  0.2735
 1000MOL0     C37919   8.465   2.414  11.014 -0.0775 -0.4362  0.2476
 1000MOL0     C37920   8.379   2.347  11.099  0.1106 -0.2797  1.3602
 1000MOL0     O37921   8.293   2.242  11.064  0.0169  0.1872 -0.5873
 1000MOL0     C37922   8.256   2.234  10.925 -0.4207 -0.7437 -0.1521
 1000MOL0     C37923   8.173   2.356  10.875  0.1492 -0.4808  0.5876
 1000MOL0     C37924   8.060   2.383  10.977 -0.4938  0.1031  0.0358
 1000MOL0     C37925   7.949   2.460  10.908  0.0455 -0.4450  0.1196
 1000MOL0     C37926   7.825   2.474  10.988 -0.8319  0.0338  0.7058
 1000MOL0     C37927   7.716   2.465  11.049 -1.5615 -1.0475  0.2460
 1000MOL0     C37928   8.379   2.372  11.239 -0.3644 -0.0957 -1.1729
 1000MOL0     C37929   8.469   2.469  11.288  0.2131 -0.3894 -0.0954
 1000MOL0     C37930   8.451   2.500  11.437  0.0162  0.0910 -1.4993
 1000MOL0     H37931   8.621   2.982  11.286  0.0264  0.1883  1.5860
 1000MOL0     H37932   8.797   3.147  11.326 -0.7239  0.0646 -0.8485
 1000MOL0     H37933   9.195   3.120  11.188 -0.2967  1.9742  0.1885
 1000MOL0     H37934   9.224   3.013  11.336 -0.6841 -0.1337  0.9939
 1000MOL0     H37935   9.208   3.309  11.338  1.1604  0.0275 -2.9519
 1000MOL0     H37936   9.260   3.196  11.477 -1.4428  0.5103 -0.0411
 1000MOL0     H37937   9.400   3.181  11.214 -1.9455  2.1022 -0.5428
 1000MOL0     H37938   9.469   3.293  11.333 -0.2129  0.2876  0.0844
 1000MOL0     H37939   9.473   3.119  11.504  0.7775  1.5227 -0.5525
 1000MOL0     H37940   9.437   3.002  11.372  0.4843  0.2287 -3.2394
 1000MOL0     H37941   9.648   3.120  11.262  0.9020  0.9893  0.5558
 1000MOL0     H37942   9.673   3.009  11.395  0.8583  1.2691  4.2392
 1000MOL0     H37943   9.633   3.298  11.454 -0.8412 -0.8827  0.7934
 1000MOL0     H37944   9.714   3.172  11.553 -0.2923  1.7490  0.4962
 1000MOL0     H37945   9.825   3.273  11.290  0.5651 -0.2121  0.2063
 1000MOL0     H37946   9.882   3.136  11.398 -2.0328 -1.0860 -0.2195
 1000MOL0     H37947   9.858   3.434  11.469  1.7030  1.4586  0.5660
 1000MOL0     H37948   9.948   3.312  11.569  1.7045  2.4703  0.1209
 1000MOL0     H37949   9.998   3.417  11.201 -0.7768 -1.9327  0.5866
 1000MOL0     H37950  10.351   3.513  11.175 -1.2053  0.1442  2.3631
 1000MOL0     H37951  10.244   3.428  11.061 -2.8172  1.5660  0.7248
 1000MOL0     H37952  10.457   3.283  11.223 -0.3355  0.6128  0.0033
 1000MOL0     H37953  10.377   3.218  11.082 -1.3794  2.3639 -3.1992
 1000MOL0     H37954  10.556   3.443  11.033  3.6942 -1.3318  2.8422
 1000MOL0     H37955  10.597   3.272  11.028  1.2810  2.0195  0.9075
 1000MOL0     H37956  10.378   3.430  10.893 -0.5139 -1.2220 -0.6257
 1000MOL0     H37957  10.535   3.379  10.808  2.7106 -0.5640  1.1624
 1000MOL0     H37958  10.282   3.443  10.712 -2.7408  2.0428 -2.5068
 1000MOL0     H37959  10.193   3.548  10.544  0.9507  0.0247 -2.1551
 1000MOL0     H37960  10.026   3.476  10.528  0.5370  0.6994  0.1620
 1000MOL0     H37961  10.134   3.472  10.393 -2.1152 -0.9416 -0.3164
 1000MOL0     H37962   9.736   3.131  10.408  1.0481  0.6080 -0.2379
 1000MOL0     H37963   9.557   3.055  10.285  0.0646  2.0100  0.2323
 1000MOL0     H37964   9.575   2.704   9.976 -0.8746  3.8781 -0.2372
 1000MOL0     H37965   9.594   2.655  10.139  0.8562 -2.2757 -1.6416
 1000MOL0     H37966   9.381   2.591  10.106  0.5461 -0.2301 -0.3621
 1000MOL0     H37967   9.362   2.741  10.186  2.1800  4.7184 -0.0640
 1000MOL0     H37968   9.345   2.690   9.875  1.3371  0.2109 -1.1606
 1000MOL0     H37969   9.350   2.852   9.933 -1.2430  1.0763 -0.6395
 1000MOL0     H37970   9.147   2.825  10.042  4.1054 -0.0389  0.0521
 1000MOL0     H37971   9.133   2.651  10.030 -1.2069 -0.1084 -1.7460
 1000MOL0     H37972   9.143   2.864   9.804  3.5615 -0.0558  2.8648
 1000MOL0     H37973   9.142   2.687   9.773  2.9621  0.1831  1.1246
 1000MOL0     H37974   8.930   2.856   9.897  1.1824 -0.1461  1.0868
 1000MOL0     H37975   8.915   2.675   9.904  0.7506 -0.6182 -0.3907
 1000MOL0     H37976   8.935   2.686   9.651 -1.6752 -0.3380  0.3327
 1000MOL0     H37977   8.902   2.858   9.662  0.4328 -0.3277 -0.0163
 1000MOL0     H37978   8.711   2.619   9.726  0.4684 -0.6359  0.4326
 1000MOL0     H37979   8.693   2.754   9.611 -2.1441  1.1277  0.9934
 1000MOL0     H37980   9.801   2.761  10.084 -0.5921  2.9735 -2.8702
 1000MOL0     H37981  10.006   2.842  10.229 -1.2739 -4.5242  4.1446
 1000MOL0     H37982  10.156   2.992  10.547  0.8196  0.6533 -2.5035
 1000MOL0     H37983  10.336   3.019  10.711 -0.9969 -1.0018  0.7754
 1000MOL0     H37984   9.105   2.888  11.174  1.0599  0.1439  3.6655
 1000MOL0     H37985   8.919   2.731  11.109  1.4426 -0.5503  2.7502
 1000MOL0     H37986   8.599   2.562  10.978 -0.9134 -1.3773 -1.1122
 1000MOL0     H37987   8.455   2.400  10.907  0.4432  2.3172 -0.2271
 1000MOL0     H37988   8.345   2.230  10.862 -1.2105 -1.4593 -1.2750
 1000MOL0     H37989   8.210   2.136  10.911 -0.4165 -1.0619  1.8863
 1000MOL0     H37990   8.150   2.344  10.769  4.0970  1.8152 -0.7472
 1000MOL0     H37991   8.231   2.448  10.879 -1.3696  0.7987 -3.0511
 1000MOL0     H37992   8.020   2.289  11.018 -2.8572  0.7178 -0.6711
 1000MOL0     H37993   8.100   2.448  11.055 -0.9754  0.6863 -0.1884
 1000MOL0     H37994   7.924   2.399  10.821  0.8527  0.6557 -0.9170
 1000MOL0     H37995   7.983   2.559  10.875 -0.4349 -0.4661 -0.4538
 1000MOL0     H37996   7.619   2.452  11.094 -1.7268 -2.3285 -0.4487
 1000MOL0     H37997   8.316   2.309  11.301 -0.9440  0.7351 -0.8953
 1000MOL0     H37998   8.367   2.442  11.476  0.7774  1.0905  2.0754
 1000MOL0     H37999   8.547   2.489  11.487  1.2014 -0.2992 -3.7839
 1000MOL0     H38000   8.416   2.603  11.450  2.3618  0.9932 -1.8691
 1001MOL0     O38001   6.518   7.391   6.104 -0.0793  1.1066  0.2085
 1001MOL0     C38002   6.494   7.447   6.209 -0.5218  0.4366  0.5099
 1001MOL0     O38003   6.578   7.471   6.312  0.2307 -0.4766  0.1880
 1001MOL0     C38004   6.695   7.395   6.332  0.7333  0.1687 -0.1471
 1001MOL0     C38005   6.800   7.471   6.394  0.1135  0.8045  0.0677
 1001MOL0     C38006   6.926   7.406   6.418  0.2939 -0.3089  0.0952
 1001MOL0     C38007   6.944   7.272   6.386 -0.0923 -0.1669  0.0455
 1001MOL0     O38008   7.045   7.204   6.426 -0.3223  0.1012  0.5773
 1001MOL0     C38009   7.002   7.095   6.517  0.0177 -1.4923 -0.5583
 1001MOL0     C38010   7.126   7.036   6.584  0.6991 -0.2026  0.0771
 1001MOL0     C38011   7.071   6.947   6.705  0.4831  0.1270  0.2872
 1001MOL0     C38012   7.194   6.895   6.782  0.1974  0.6412 -0.5188
 1001MOL0     C38013   7.150   6.820   6.906  0.6799  0.3637 -0.7908
 1001MOL0     C38014   7.064   6.908   7.002 -0.1772  0.1430 -0.5015
 1001MOL0     C38015   7.048   6.822   7.139 -0.8385  0.0963  0.1832
 1001MOL0     C38016   6.994   6.675   7.121 -0.4142 -0.9756 -0.2521
 1001MOL0     N38017   6.869   6.655   7.051 -0.2096  0.2637  0.1733
 1001MOL0     C38018   6.758   6.711   7.101  0.2294 -0.4661  0.1814
 1001MOL0     C38019   6.660   6.692   7.011  0.3368  1.4641  0.6287
 1001MOL0     C38020   6.515   6.720   6.993  0.2945 -1.0167  0.1615
 1001MOL0     C38021   6.468   6.843   6.904  0.7712 -0.6296 -0.9409
 1001MOL0     C38022   6.320   6.837   6.883 -0.3445  0.6736  0.0258
 1001MOL0     C38023   6.270   6.956   6.798  0.5067  1.3030  0.0953
 1001MOL0     O38024   6.134   6.931   6.753  0.4549 -0.2174 -0.7218
 1001MOL0     C38025   6.056   7.040   6.697 -0.1209  0.5498 -1.1360
 1001MOL0     C38026   6.110   7.163   6.668  1.1014 -0.1580  0.1926
 1001MOL0     C38027   6.037   7.275   6.617  0.2033 -0.2222  0.1015
 1001MOL0     C38028   6.114   7.405   6.607 -0.5297  0.1107 -0.5558
 1001MOL0     C38029   5.895   7.257   6.592  0.7151 -0.0181 -1.0862
 1001MOL0     C38030   5.809   7.361   6.524  0.2030 -0.1122 -0.1520
 1001MOL0     O38031   5.842   7.486   6.495 -0.2660  0.0717 -0.3987
 1001MOL0     C38032   5.752   7.553   6.414 -0.1607  0.6476  0.5658
 1001MOL0     C38033   5.726   7.508   6.280 -0.6449  0.2894  0.5289
 1001MOL0     C38034   5.631   7.575   6.203 -0.8787 -0.1840 -0.3565
 1001MOL0     C38035   5.555   7.684   6.250 -0.3067  0.2088 -0.4669
 1001MOL0     O38036   5.461   7.752   6.176 -0.3442 -0.4247  0.7089
 1001MOL0     C38037   5.496   7.892   6.148 -0.3305 -0.7419  0.4832
 1001MOL0     C38038   5.362   7.970   6.100 -0.6684 -0.0798 -0.3013
 1001MOL0     C38039   5.346   7.955   5.948 -0.1088  0.4217 -0.6104
 1001MOL0     C38040   5.205   7.992   5.883  0.5756 -0.0599  0.2138
 1001MOL0     C38041   5.201   7.987   5.729 -0.0267  0.5056  0.1906
 1001MOL0     C38042   5.224   7.851   5.665 -0.5005 -0.5773 -0.5843
 1001MOL0     C38043   5.223   7.874   5.510  0.2289  0.1721 -0.6098
 1001MOL0     C38044   5.096   7.906   5.432 -0.0136  0.2507  0.2009
 1001MOL0    Cl38045   4.960   7.785   5.461 -0.2155 -0.2669 -0.3578
 1001MOL0     C38046   5.579   7.718   6.379 -0.7620 -0.5938  0.2231
 1001MOL0     C38047   5.671   7.651   6.461  0.4633  0.1721 -0.2838
 1001MOL0     O38048   5.701   7.306   6.499 -0.5235 -0.7695  0.4545
 1001MOL0     C38049   5.839   7.125   6.633  0.3223 -0.0868  0.2555
 1001MOL0     C38050   5.923   7.024   6.671  0.2440 -0.2075 -0.2887
 1001MOL0     N38051   6.727   6.646   6.901  0.6614  0.0044  0.1561
 1001MOL0     N38052   6.844   6.617   6.924 -0.0533 -0.1842 -0.1184
 1001MOL0     C38053   6.844   7.205   6.315  0.0200 -0.4190  0.2029
 1001MOL0     C38054   6.719   7.268   6.287 -0.0487 -0.1653  0.4984
 1001MOL0     C38055   6.355   7.511   6.196  0.8872  0.3913  0.1981
 1001MOL0     C38056   6.346   7.640   6.231  0.4373 -0.7655  0.2970
 1001MOL0     C38057   6.219   7.699   6.243  0.3446 -0.8004 -0.0753
 1001MOL0     C38058   6.102   7.632   6.212 -0.3416  0.6349  0.2345
 1001MOL0     O38059   5.975   7.686   6.218  0.0126 -0.0543 -0.1442
 1001MOL0     C38060   5.949   7.795   6.127 -0.3539  1.1037  0.4694
 1001MOL0     C38061   6.021   7.810   5.991  0.4495 -0.2727 -0.0179
 1001MOL0     C38062   5.949   7.921   5.914 -0.9345  0.1630 -0.3927
 1001MOL0     C38063   5.829   7.875   5.831 -0.1770  0.1209 -0.3164
 1001MOL0     C38064   5.866   7.807   5.709  1.3701  0.0988 -0.1304
 1001MOL0     C38065   5.894   7.764   5.601  0.5648 -0.5464 -0.5182
 1001MOL0     C38066   6.113   7.496   6.179  0.4498  0.0966  0.1121
 1001MOL0     C38067   6.239   7.430   6.180  0.2531 -0.0816 -0.8455
 1001MOL0     C38068   6.235   7.277   6.161 -1.0782  0.2509  0.5772
 1001MOL0     H38069   6.779   7.573   6.425 -0.6358  1.4941 -2.4415
 1001MOL0     H38070   6.998   7.445   6.488 -2.9229  0.8811  3.0329
 1001MOL0     H38071   6.953   7.007   6.476 -1.0183 -0.8997 -0.6311
 1001MOL0     H38072   6.939   7.142   6.593  2.9112  4.0369 -1.0564
 1001MOL0     H38073   7.183   6.973   6.515  1.0029 -1.3670  1.3407
 1001MOL0     H38074   7.195   7.110   6.625  1.2457 -1.4749  1.5744
 1001MOL0     H38075   7.006   7.015   6.760  1.5317  0.7989  0.7423
 1001MOL0     H38076   7.011   6.862   6.674  0.8283  0.7177 -2.2670
 1001MOL0     H38077   7.248   6.826   6.716  1.7858  1.1182  0.2332
 1001MOL0     H38078   7.263   6.977   6.804  1.4707 -0.0310 -1.8771
 1001MOL0     H38079   7.235   6.788   6.968 -0.1464  1.0926  0.7854
 1001MOL0     H38080   7.087   6.733   6.881  1.1398 -0.6165  1.1893
 1001MOL0     H38081   7.123   6.998   7.024  2.1686 -1.5805  0.7185
 1001MOL0     H38082   6.959   6.929   6.979  0.0032  1.0486 -0.5435
 1001MOL0     H38083   6.985   6.880   7.208  0.6807  1.3501  0.5716
 1001MOL0     H38084   7.146   6.809   7.186 -1.0090 -1.6589  0.1185
 1001MOL0     H38085   7.071   6.615   7.073  0.9820 -0.0202  0.6852
 1001MOL0     H38086   6.992   6.624   7.218 -0.0184  0.2705  0.4396
 1001MOL0     H38087   6.734   6.760   7.195 -0.7183  1.2428 -0.8912
 1001MOL0     H38088   6.463   6.733   7.089  0.6409  0.3053  0.1977
 1001MOL0     H38089   6.478   6.628   6.947  1.4336 -0.8135 -1.2244
 1001MOL0     H38090   6.496   6.933   6.960  1.2010 -1.7683  0.7313
 1001MOL0     H38091   6.524   6.849   6.810  1.9806 -1.2967 -0.2820
 1001MOL0     H38092   6.295   6.751   6.820 -2.3465  0.7203  0.6623
 1001MOL0     H38093   6.268   6.812   6.976 -2.3402 -0.6289 -1.3253
 1001MOL0     H38094   6.252   7.040   6.866  0.1811  0.9252  0.4847
 1001MOL0     H38095   6.334   6.972   6.711  1.5420 -1.6796  0.1734
 1001MOL0     H38096   6.214   7.169   6.699  0.8053 -0.0660  1.1957
 1001MOL0     H38097   6.050   7.493   6.596  2.0211  2.3345  1.1076
 1001MOL0     H38098   6.175   7.399   6.517 -0.4562  3.9468 -0.9363
 1001MOL0     H38099   6.179   7.410   6.695 -1.7987  2.1472  0.3604
 1001MOL0     H38100   5.780   7.427   6.232  1.6575  2.7166 -1.1923
 1001MOL0     H38101   5.607   7.548   6.101 -0.3612  1.0268 -0.8189
 1001MOL0     H38102   5.531   7.937   6.242 -0.4779  1.1829 -0.3378
 1001MOL0     H38103   5.582   7.898   6.081 -0.6951 -2.7193 -0.2324
 1001MOL0     H38104   5.273   7.930   6.148  0.0481 -0.0551  1.0820
 1001MOL0     H38105   5.366   8.077   6.123  4.1349  0.3777 -2.0742
 1001MOL0     H38106   5.376   7.851   5.934  2.9421  1.1505 -0.1759
 1001MOL0     H38107   5.428   8.014   5.907  1.8638 -1.0436  1.0289
 1001MOL0     H38108   5.153   8.079   5.925 -1.6342 -2.2690  2.3420
 1001MOL0     H38109   5.132   7.916   5.912  2.5446 -2.1193  0.0047
 1001MOL0     H38110   5.100   8.022   5.707 -0.1338  0.8017  1.1231
 1001MOL0     H38111   5.278   8.049   5.680  0.2341 -0.5439 -0.7626
 1001MOL0     H38112   5.150   7.771   5.679 -1.2020  0.3019  0.9934
 1001MOL0     H38113   5.321   7.815   5.701 -0.5316 -1.4360 -1.3289
 1001MOL0     H38114   5.250   7.780   5.461  1.9033  0.6606 -0.6833
 1001MOL0     H38115   5.301   7.946   5.485  0.5341  0.3038  0.6704
 1001MOL0     H38116   5.121   7.915   5.326 -4.1283  2.7144 -0.7731
 1001MOL0     H38117   5.057   8.006   5.451 -1.5763 -0.3480  0.2775
 1001MOL0     H38118   5.543   7.811   6.420  1.8715  0.6304 -0.0016
 1001MOL0     H38119   5.684   7.684   6.564 -1.3870  1.2784 -0.3564
 1001MOL0     H38120   5.738   7.094   6.609  0.2618  0.7447 -0.6159
 1001MOL0     H38121   5.879   6.929   6.701  2.0957 -0.7999  0.7190
 1001MOL0     H38122   6.862   7.099   6.300  2.0352 -0.6341  3.2256
 1001MOL0     H38123   6.641   7.213   6.235 -1.5018  3.4074 -1.5249
 1001MOL0     H38124   6.424   7.699   6.277 -1.4132  0.3565  2.1919
 1001MOL0     H38125   6.208   7.797   6.288  0.8903 -1.5651  1.8301
 1001MOL0     H38126   5.844   7.786   6.098 -0.3079  0.6296  0.4440
 1001MOL0     H38127   5.963   7.889   6.182  3.1102  0.3672  1.0330
 1001MOL0     H38128   6.023   7.716   5.936  0.0142 -0.5351  0.4088
 1001MOL0     H38129   6.122   7.847   6.011  0.5433  0.4112 -1.6379
 1001MOL0     H38130   5.903   7.996   5.980 -0.0461  1.4286 -1.1682
 1001MOL0     H38131   6.021   7.971   5.849 -0.5336  0.9030  0.5991
 1001MOL0     H38132   5.770   7.964   5.808 -0.9113 -0.0857  0.6926
 1001MOL0     H38133   5.770   7.810   5.896  0.4817  1.2485  1.4835
 1001MOL0     H38134   5.904   7.722   5.503  0.5530 -2.3227  0.2028
 1001MOL0     H38135   6.023   7.435   6.172 -1.1536  2.4641 -1.6594
 1001MOL0     H38136   6.144   7.232   6.200 -1.1395  0.7600  1.0291
 1001MOL0     H38137   6.240   7.257   6.054  0.3125 -3.5110  1.1740
 1001MOL0     H38138   6.329   7.230   6.192 -2.6352 -2.9197  0.8612
 1002MOL0     O38139   0.704   9.580  10.445 -0.3013  0.1228 -0.6388
 1002MOL0     C38140   0.658   9.651  10.364  0.0907  0.1972 -0.1531
 1002MOL0     O38141   0.732   9.731  10.283  0.2898 -0.9417  0.0429
 1002MOL0     C38142   0.866   9.756  10.286  0.3642 -0.3767 -0.1216
 1002MOL0     C38143   0.940   9.768  10.402 -0.4197  0.6329 -0.1857
 1002MOL0     C38144   1.082   9.797  10.392  0.6621 -0.4995 -0.3462
 1002MOL0     C38145   1.139   9.829  10.270 -0.2821  0.7072 -0.0525
 1002MOL0     O38146   1.271   9.847  10.256 -0.2889 -0.4679 -0.3971
 1002MOL0     C38147   1.337   9.958  10.328  0.0672  0.2248  0.0530
 1002MOL0     C38148   1.485   9.924  10.340 -0.1031  0.2591  0.2664
 1002MOL0     C38149   1.579  10.038  10.351  0.9574 -0.0222 -0.0004
 1002MOL0     C38150   1.709   9.992  10.412  0.1820  0.3043 -0.7419
 1002MOL0     C38151   1.767   9.861  10.349  0.3450 -0.4153 -0.2148
 1002MOL0     C38152   1.916   9.835  10.374 -0.0908  0.3740 -0.0698
 1002MOL0     C38153   1.952   9.859  10.522 -0.7034  0.1503  0.3096
 1002MOL0     C38154   2.106   9.854  10.563 -0.1038 -0.4289  0.3145
 1002MOL0     N38155   2.167   9.722  10.553 -1.0060 -0.0685 -0.2903
 1002MOL0     C38156   2.177   9.629  10.649 -1.2095 -0.3895 -0.5189
 1002MOL0     C38157   2.241   9.524  10.592  0.6361  0.3130 -0.8030
 1002MOL0     C38158   2.283   9.390  10.656 -0.5039 -1.3686  0.0952
 1002MOL0     C38159   2.384   9.402  10.764  0.2826  0.2531 -0.0930
 1002MOL0     C38160   2.410   9.270  10.846 -0.3142  0.4326 -1.5583
 1002MOL0     C38161   2.445   9.148  10.755 -0.7430  0.6603 -0.1464
 1002MOL0     O38162   2.572   9.165  10.690  0.2814 -0.3187  0.7158
 1002MOL0     C38163   2.691   9.135  10.747  0.3066  0.4105 -0.5456
 1002MOL0     C38164   2.703   9.065  10.865 -0.6407  0.9683 -0.1699
 1002MOL0     C38165   2.825   9.047  10.927 -0.4383  0.3915 -0.0183
 1002MOL0     C38166   2.828   8.972  11.063  0.4129  0.3128  1.6526
 1002MOL0     C38167   2.940   9.094  10.864 -0.5330 -0.2043  0.6441
 1002MOL0     C38168   3.074   9.077  10.917  0.2130  0.1069  0.3136
 1002MOL0     O38169   3.170   9.084  10.827  0.0630 -0.7371  0.7350
 1002MOL0     C38170   3.285   9.020  10.856  0.0555  0.8093  0.5934
 1002MOL0     C38171   3.390   9.105  10.861 -0.2776  0.4793  0.4544
 1002MOL0     C38172   3.521   9.066  10.889  0.1611  0.1159 -0.1383
 1002MOL0     C38173   3.544   8.932  10.899 -0.2457 -0.1282 -0.3109
 1002MOL0     O38174   3.673   8.899  10.936 -0.0216 -0.3103 -0.4564
 1002MOL0     C38175   3.696   8.808  11.049 -0.5144  0.0263  0.6973
 1002MOL0     C38176   3.813   8.853  11.134 -0.7236  0.1512 -0.2413
 1002MOL0     C38177   3.872   8.990  11.102  0.1748 -0.6760 -0.4694
 1002MOL0     C38178   3.998   9.009  11.187  0.1133  0.5344 -0.0354
 1002MOL0     C38179   4.053   9.146  11.150  0.0872 -0.3945 -0.3075
 1002MOL0     C38180   4.185   9.183  11.216 -0.8191 -0.5888 -0.0062
 1002MOL0     C38181   4.249   9.315  11.174  1.2308  0.4437  0.3621
 1002MOL0     C38182   4.391   9.287  11.151 -0.6249  0.7033 -0.4432
 1002MOL0    Cl38183   4.471   9.439  11.129 -0.0088  0.3035  0.6387
 1002MOL0     C38184   3.438   8.836  10.893 -0.3373  0.8588  0.2653
 1002MOL0     C38185   3.309   8.880  10.872 -0.1010  0.6041 -0.3721
 1002MOL0     O38186   3.095   9.069  11.038  0.1388  0.0462 -0.6485
 1002MOL0     C38187   2.922   9.167  10.736 -0.3914 -0.3007 -0.7500
 1002MOL0     C38188   2.798   9.183  10.682  0.5714  0.1913 -0.6931
 1002MOL0     N38189   2.260   9.551  10.465 -0.0438 -0.3153 -0.2652
 1002MOL0     N38190   2.215   9.670  10.434  0.5305 -0.7358  0.6371
 1002MOL0     C38191   1.063   9.819  10.156 -0.4362  0.8163  0.5016
 1002MOL0     C38192   0.924   9.781  10.165  0.1938 -0.2160  1.1218
 1002MOL0     C38193   0.510   9.659  10.366 -0.1613 -0.2882  0.3054
 1002MOL0     C38194   0.460   9.728  10.469  2.0997 -0.5049  0.1963
 1002MOL0     C38195   0.318   9.737  10.485 -0.0270  0.9068 -0.7034
 1002MOL0     C38196   0.227   9.668  10.409 -0.2272 -0.5364 -0.3368
 1002MOL0     O38197   0.098   9.668  10.455 -0.0091  0.6023 -0.1306
 1002MOL0     C38198  -0.004   9.616  10.364 -0.0590  0.5154 -0.1567
 1002MOL0     C38199  -0.131   9.624  10.453  0.1775 -0.5260 -0.6319
 1002MOL0     C38200  -0.165   9.770  10.499 -0.0265  0.0697  0.9059
 1002MOL0     C38201  -0.253   9.851  10.399  0.4304 -0.0917 -0.0047
 1002MOL0     C38202  -0.397   9.849  10.405  1.6172  0.3732 -1.0439
 1002MOL0     C38203  -0.519   9.832  10.406 -0.8036  0.4349  1.5065
 1002MOL0     C38204   0.282   9.600  10.296 -0.1536 -0.1229 -0.0742
 1002MOL0     C38205   0.420   9.599  10.273 -0.0650 -0.8123 -0.4311
 1002MOL0     C38206   0.473   9.541  10.145 -0.0725  0.1652 -0.5912
 1002MOL0     H38207   0.897   9.752  10.500 -0.2737 -0.5922 -0.3021
 1002MOL0     H38208   1.136   9.796  10.486 -1.0525  3.3651  0.8922
 1002MOL0     H38209   1.302   9.986  10.427  0.6687 -0.2735  0.4119
 1002MOL0     H38210   1.319  10.045  10.264  1.7382  1.8979  1.7368
 1002MOL0     H38211   1.502   9.857  10.425  2.7306  0.1458 -0.3057
 1002MOL0     H38212   1.516   9.863  10.255 -1.0405 -1.1346  0.8824
 1002MOL0     H38213   1.594  10.078  10.250  1.5005 -2.0476 -0.7925
 1002MOL0     H38214   1.535  10.123  10.403 -1.5586 -0.9534 -0.4543
 1002MOL0     H38215   1.784  10.069  10.390  1.1631 -0.7559 -1.2344
 1002MOL0     H38216   1.701   9.971  10.520  1.3336 -0.5733 -0.8083
 1002MOL0     H38217   1.752   9.869  10.241  1.1145  0.0506 -0.2918
 1002MOL0     H38218   1.699   9.781  10.380  0.8852 -0.5117  0.7883
 1002MOL0     H38219   1.940   9.732  10.347  4.9442  0.5701  2.3995
 1002MOL0     H38220   1.974   9.903  10.310 -0.5770 -0.3850 -1.3611
 1002MOL0     H38221   1.896   9.791  10.586  1.5073 -2.5286 -0.3905
 1002MOL0     H38222   1.918   9.956  10.560 -2.0347  0.2758 -1.1192
 1002MOL0     H38223   2.161   9.925  10.500 -0.4680  1.8615  2.4543
 1002MOL0     H38224   2.119   9.883  10.667 -1.0660 -1.9118  0.8806
 1002MOL0     H38225   2.134   9.628  10.748  0.4716 -3.5787  0.3186
 1002MOL0     H38226   2.321   9.332  10.572 -0.1989  0.8546 -1.3665
 1002MOL0     H38227   2.193   9.352  10.706 -1.3840 -1.5011 -1.5198
 1002MOL0     H38228   2.477   9.431  10.714  0.5073 -2.3323 -1.3237
 1002MOL0     H38229   2.354   9.485  10.829  2.5123  0.1036  1.2249
 1002MOL0     H38230   2.495   9.286  10.914 -0.2530 -0.4590 -1.4124
 1002MOL0     H38231   2.325   9.235  10.905  1.7109 -3.1793 -0.4612
 1002MOL0     H38232   2.451   9.060  10.820  0.8682 -0.5254 -1.8043
 1002MOL0     H38233   2.364   9.114  10.690 -0.7068 -1.7941  0.9704
 1002MOL0     H38234   2.614   9.020  10.908 -0.8329  1.5589  0.0638
 1002MOL0     H38235   2.738   8.912  11.076  1.4114 -1.9025 -0.7131
 1002MOL0     H38236   2.831   9.040  11.149  1.2029  0.2662  1.6702
 1002MOL0     H38237   2.910   8.900  11.067 -0.1957 -0.5578 -0.2423
 1002MOL0     H38238   3.373   9.210  10.838 -2.1989  0.1205  0.0688
 1002MOL0     H38239   3.599   9.141  10.891  0.1815  0.0764  1.2478
 1002MOL0     H38240   3.602   8.802  11.105  0.3148  0.3072  2.1545
 1002MOL0     H38241   3.716   8.707  11.014  1.0485 -0.9487  3.9969
 1002MOL0     H38242   3.777   8.845  11.238 -0.6759 -2.6938 -0.3740
 1002MOL0     H38243   3.895   8.781  11.127  0.4876  1.4110  0.4141
 1002MOL0     H38244   3.803   9.071  11.123 -1.4967 -1.5956 -2.1666
 1002MOL0     H38245   3.907   8.997  10.999  5.9247 -3.8802  0.8286
 1002MOL0     H38246   4.071   8.933  11.157  1.1643  1.0305  1.1506
 1002MOL0     H38247   3.978   8.994  11.293  0.4428  1.9630  0.2506
 1002MOL0     H38248   4.073   9.151  11.043  3.7863 -3.3591  0.0251
 1002MOL0     H38249   3.977   9.218  11.182  0.7931 -0.5625  1.9732
 1002MOL0     H38250   4.253   9.097  11.205  2.1388  1.8134 -2.0479
 1002MOL0     H38251   4.153   9.192  11.320 -0.2012 -0.4691  0.1805
 1002MOL0     H38252   4.233   9.395  11.246 -2.6543  0.3589 -0.1979
 1002MOL0     H38253   4.204   9.339  11.077  2.1850 -0.5399 -0.3575
 1002MOL0     H38254   4.402   9.235  11.055 -2.5547  2.0705 -1.5046
 1002MOL0     H38255   4.437   9.223  11.226  0.2299  0.4294 -1.1820
 1002MOL0     H38256   3.457   8.729  10.893  3.6044  1.3395  3.1827
 1002MOL0     H38257   3.223   8.814  10.862  0.2790  0.1305 -0.5758
 1002MOL0     H38258   3.015   9.206  10.696  1.8462 -1.6043  2.7569
 1002MOL0     H38259   2.788   9.234  10.586 -0.4929 -1.1118 -1.3132
 1002MOL0     H38260   1.113   9.840  10.062  0.2708  0.2400  0.7481
 1002MOL0     H38261   0.860   9.759  10.080  0.6279  0.0837  0.7092
 1002MOL0     H38262   0.515   9.777  10.549  0.5992  1.1889  0.2570
 1002MOL0     H38263   0.281   9.794  10.570  2.6587  1.3602  0.2359
 1002MOL0     H38264  -0.010   9.679  10.275 -1.7071  0.6384  0.0172
 1002MOL0     H38265   0.015   9.519  10.317 -0.3336  1.0712 -1.4388
 1002MOL0     H38266  -0.104   9.566  10.542  3.1649  1.8936  0.2352
 1002MOL0     H38267  -0.218   9.592  10.396  1.0876 -1.8604 -1.2969
 1002MOL0     H38268  -0.224   9.763  10.591 -0.2743  2.2009  0.9567
 1002MOL0     H38269  -0.071   9.822  10.523 -0.8099  2.5250 -0.9973
 1002MOL0     H38270  -0.200   9.830  10.306 -0.9126  1.7234 -1.2521
 1002MOL0     H38271  -0.238   9.956  10.426 -1.0274 -0.5885  3.3825
 1002MOL0     H38272  -0.626   9.824  10.406 -0.9152 -1.7709 -3.2722
 1002MOL0     H38273   0.222   9.556  10.217 -0.9568  2.2797 -0.9069
 1002MOL0     H38274   0.575   9.576  10.127  0.2552 -1.1880 -1.4961
 1002MOL0     H38275   0.479   9.432  10.152 -3.1920 -0.2248 -2.1243
 1002MOL0     H38276   0.407   9.555  10.059  0.8097 -0.7703 -1.4506
 1003MOL0     O38277   0.852   4.315   9.381 -0.0213  0.0520  0.4097
 1003MOL0     C38278   0.817   4.210   9.331 -1.0771 -0.0824  0.5438
 1003MOL0     O38279   0.776   4.106   9.405 -0.1397 -0.0751 -0.4397
 1003MOL0     C38280   0.770   4.128   9.542  1.3572 -1.2002 -0.5135
 1003MOL0     C38281   0.646   4.143   9.625  0.3371  0.3596  0.3385
 1003MOL0     C38282   0.659   4.141   9.766 -0.0060  0.7693 -0.0028
 1003MOL0     C38283   0.784   4.131   9.827 -0.0050  0.4770  0.5009
 1003MOL0     O38284   0.808   4.135   9.955 -0.2969  0.4102 -0.5235
 1003MOL0     C38285   0.725   4.061  10.048  0.2688 -0.0959  0.0727
 1003MOL0     C38286   0.778   3.926  10.076 -0.5028  0.7863  0.6789
 1003MOL0     C38287   0.918   3.933  10.135 -0.1215 -0.1095  0.6172
 1003MOL0     C38288   0.973   3.788  10.146  0.4622 -0.1015 -0.0725
 1003MOL0     C38289   1.078   3.781  10.251  0.5013  0.0265  1.1712
 1003MOL0     C38290   1.140   3.638  10.270  0.0201  0.1351  0.1884
 1003MOL0     C38291   1.208   3.624  10.409  1.1145  0.6889 -0.2614
 1003MOL0     C38292   1.316   3.728  10.441 -0.7009  0.0286  0.6948
 1003MOL0     N38293   1.377   3.703  10.576 -0.1667  0.6544 -0.1806
 1003MOL0     C38294   1.326   3.743  10.694 -0.3131  0.1938 -0.6994
 1003MOL0     C38295   1.398   3.680  10.787  0.0955 -0.5714 -0.0483
 1003MOL0     C38296   1.367   3.672  10.932 -0.0654  0.0388  0.5222
 1003MOL0     C38297   1.410   3.799  11.008 -1.2645 -0.4925  0.5412
 1003MOL0     C38298   1.561   3.831  10.982 -0.0862  0.4151 -0.3137
 1003MOL0     C38299   1.643   3.718  11.056 -0.7889 -0.0531  0.4997
 1003MOL0     O38300   1.776   3.767  11.101  0.3206  0.0616 -0.4245
 1003MOL0     C38301   1.881   3.796  11.010  0.1115  0.6452  0.3023
 1003MOL0     C38302   1.986   3.870  11.066  0.1486  0.0049  0.2147
 1003MOL0     C38303   2.105   3.899  10.994 -0.3693 -0.1225  0.0274
 1003MOL0     C38304   2.214   3.972  11.063  0.2856 -0.1097  0.2648
 1003MOL0     C38305   2.116   3.853  10.859  1.2158 -0.0118  0.5013
 1003MOL0     C38306   2.232   3.879  10.770  0.3660 -0.5818 -0.4641
 1003MOL0     O38307   2.229   3.824  10.647 -0.2409  0.1306 -0.0521
 1003MOL0     C38308   2.328   3.853  10.553  0.1853  0.4515 -0.9434
 1003MOL0     C38309   2.294   3.871  10.418  0.2944  0.0848 -0.3352
 1003MOL0     C38310   2.393   3.902  10.329 -0.1858  0.4151 -0.0171
 1003MOL0     C38311   2.531   3.906  10.363 -0.7926 -0.2778  0.8117
 1003MOL0     O38312   2.606   3.947  10.255 -0.2306  0.3020  0.3855
 1003MOL0     C38313   2.745   3.987  10.286  0.0674 -0.6227  0.7420
 1003MOL0     C38314   2.777   4.076  10.169  0.2550  0.0004  0.6266
 1003MOL0     C38315   2.919   4.117  10.172  0.3906 -0.2321 -0.4121
 1003MOL0     C38316   2.951   4.175  10.036 -0.3631 -0.8851 -0.4816
 1003MOL0     C38317   3.098   4.217  10.026  0.2789  0.3561 -0.5141
 1003MOL0     C38318   3.193   4.102   9.995  0.3446  0.0559  0.2935
 1003MOL0     C38319   3.179   4.069   9.846 -0.6129  1.2701 -0.7897
 1003MOL0     C38320   3.200   3.913   9.820  0.8995 -0.0146  0.3713
 1003MOL0    Cl38321   3.366   3.857   9.861 -0.4648 -0.7265  0.4201
 1003MOL0     C38322   2.568   3.885  10.495  0.3217  0.3450  0.2627
 1003MOL0     C38323   2.468   3.854  10.587 -0.2979 -0.2969 -0.1375
 1003MOL0     O38324   2.318   3.956  10.809  0.3464 -0.1036 -0.3736
 1003MOL0     C38325   2.001   3.800  10.795  0.0418  0.6697  0.6398
 1003MOL0     C38326   1.882   3.773  10.873 -0.2874  0.0382 -0.5045
 1003MOL0     N38327   1.501   3.599  10.719  0.3364 -0.7253 -0.4429
 1003MOL0     N38328   1.486   3.624  10.597 -0.3752  0.3605  0.7972
 1003MOL0     C38329   0.904   4.132   9.747 -0.1015  0.3291  0.9352
 1003MOL0     C38330   0.897   4.121   9.607  0.3432  0.1508  1.2506
 1003MOL0     C38331   0.796   4.197   9.189  1.0098  0.0410  0.5394
 1003MOL0     C38332   0.706   4.101   9.135  0.5679 -0.0416 -0.0313
 1003MOL0     C38333   0.695   4.075   8.996  0.2320  0.4371  0.6005
 1003MOL0     C38334   0.767   4.150   8.902  0.1863 -0.5717 -0.1217
 1003MOL0     O38335   0.757   4.119   8.767  0.1461  0.4864  0.0919
 1003MOL0     C38336   0.886   4.117   8.697 -0.1103 -0.0699 -0.6641
 1003MOL0     C38337   0.869   4.039   8.569  0.6643  0.8020  0.1490
 1003MOL0     C38338   0.984   4.056   8.475 -0.3195 -0.4854  1.3326
 1003MOL0     C38339   1.109   4.014   8.538 -0.3981 -0.0276  1.0338
 1003MOL0     C38340   1.227   4.084   8.482  0.8149  0.3123 -0.3261
 1003MOL0     C38341   1.316   4.147   8.450  0.2330 -0.3863 -0.4941
 1003MOL0     C38342   0.854   4.255   8.951  0.3302  0.1986  0.7308
 1003MOL0     C38343   0.866   4.272   9.088 -0.5005 -0.6238 -0.2414
 1003MOL0     C38344   0.956   4.393   9.119  0.2382  0.5726 -0.1386
 1003MOL0     H38345   0.545   4.137   9.587  0.4077 -1.9147  0.3622
 1003MOL0     H38346   0.571   4.152   9.828 -0.3954 -1.9589  0.0605
 1003MOL0     H38347   0.623   4.060  10.008  0.3957 -0.2228 -0.2550
 1003MOL0     H38348   0.718   4.116  10.142  2.0648 -0.8491  0.6906
 1003MOL0     H38349   0.710   3.878  10.148  0.7366  0.2227  1.5004
 1003MOL0     H38350   0.797   3.870   9.985  3.5197 -0.7574  2.2538
 1003MOL0     H38351   0.991   3.993  10.081  2.2242 -2.4670  0.9414
 1003MOL0     H38352   0.897   3.976  10.233  0.9278  0.2886  0.6796
 1003MOL0     H38353   0.890   3.724  10.176 -2.2384  2.1444 -2.2402
 1003MOL0     H38354   0.997   3.742  10.050 -4.5401 -0.8581 -1.2182
 1003MOL0     H38355   1.037   3.801  10.350  1.5639  0.7346  1.4820
 1003MOL0     H38356   1.150   3.861  10.232  0.7689 -0.7346 -1.4205
 1003MOL0     H38357   1.068   3.555  10.278  0.7460 -0.5960 -0.6051
 1003MOL0     H38358   1.207   3.624  10.184 -0.6272  0.9281 -0.4555
 1003MOL0     H38359   1.254   3.525  10.421 -0.3272 -0.3985 -2.7829
 1003MOL0     H38360   1.128   3.630  10.483 -0.2948  1.8273 -1.8045
 1003MOL0     H38361   1.393   3.714  10.365 -0.9962 -0.4277  0.4724
 1003MOL0     H38362   1.276   3.829  10.428 -1.4737 -0.4280 -0.6344
 1003MOL0     H38363   1.248   3.815  10.719  0.3530  0.4643  0.6427
 1003MOL0     H38364   1.415   3.584  10.974  0.8717 -0.1262 -0.8396
 1003MOL0     H38365   1.259   3.671  10.951  0.1302 -1.2273  1.7200
 1003MOL0     H38366   1.356   3.884  10.966  1.6744 -0.0258 -2.7936
 1003MOL0     H38367   1.384   3.782  11.113 -0.3445 -1.3892  0.6412
 1003MOL0     H38368   1.563   3.834  10.873 -0.0767  3.4269 -0.3357
 1003MOL0     H38369   1.587   3.931  11.019  0.4185  1.2557 -2.7454
 1003MOL0     H38370   1.598   3.671  11.144  2.4161 -1.2913  1.6374
 1003MOL0     H38371   1.662   3.644  10.978 -1.8604 -1.4333  1.4957
 1003MOL0     H38372   1.984   3.917  11.164 -2.3710  4.4578 -1.6433
 1003MOL0     H38373   2.204   3.973  11.172 -0.0717  4.7245  0.3991
 1003MOL0     H38374   2.216   4.074  11.023  1.1653  0.3027  1.3211
 1003MOL0     H38375   2.308   3.916  11.062  1.0532  0.8521  3.8286
 1003MOL0     H38376   2.189   3.881  10.391  0.0516  3.0763  1.3147
 1003MOL0     H38377   2.370   3.927  10.226 -1.7476  0.5606  0.3462
 1003MOL0     H38378   2.752   4.047  10.378  2.3723 -1.1280  0.9661
 1003MOL0     H38379   2.823   3.911  10.290  0.6619 -0.0375  0.5501
 1003MOL0     H38380   2.750   4.039  10.069  1.5571  3.6518 -1.2647
 1003MOL0     H38381   2.714   4.161  10.194  1.3332  0.6068  1.3453
 1003MOL0     H38382   2.992   4.038  10.190 -1.1706 -1.2962  1.7290
 1003MOL0     H38383   2.931   4.201  10.242 -0.2793 -0.3744 -0.1235
 1003MOL0     H38384   2.889   4.264  10.018  1.9522  0.3416 -3.1549
 1003MOL0     H38385   2.928   4.101   9.959  1.7817  2.5787 -4.8936
 1003MOL0     H38386   3.098   4.295   9.949  0.2945  1.2713  0.3878
 1003MOL0     H38387   3.123   4.259  10.124  2.1994  0.7267 -1.0994
 1003MOL0     H38388   3.155   4.023  10.061 -2.5157  0.7411 -0.4243
 1003MOL0     H38389   3.294   4.139  10.017  0.3024  0.7769 -0.6468
 1003MOL0     H38390   3.263   4.112   9.790 -1.1172  1.9178 -1.0634
 1003MOL0     H38391   3.090   4.110   9.798 -0.7681  0.5623 -1.1304
 1003MOL0     H38392   3.167   3.892   9.718 -3.5839 -2.6214  2.0623
 1003MOL0     H38393   3.125   3.865   9.885 -1.2042 -1.0561 -2.6132
 1003MOL0     H38394   2.667   3.909  10.534  0.3668 -0.3973  0.6239
 1003MOL0     H38395   2.498   3.826  10.687  2.5791 -0.8650 -1.0665
 1003MOL0     H38396   1.995   3.765  10.692  1.2478 -0.7909  1.0430
 1003MOL0     H38397   1.796   3.723  10.829 -0.4897 -0.3526  0.3094
 1003MOL0     H38398   0.989   4.142   9.813  0.8974  1.1379 -0.4338
 1003MOL0     H38399   0.990   4.110   9.552 -0.4861  1.9661 -0.6788
 1003MOL0     H38400   0.645   4.037   9.197  2.0906  2.0066  3.8888
 1003MOL0     H38401   0.638   3.996   8.949 -1.5300  1.7086  0.4752
 1003MOL0     H38402   0.911   4.217   8.661  3.3229 -0.0247  1.3839
 1003MOL0     H38403   0.957   4.075   8.768 -0.9616  1.5825  1.2674
 1003MOL0     H38404   0.784   4.088   8.520  1.0495 -1.6741 -3.3857
 1003MOL0     H38405   0.849   3.936   8.597 -3.3646  0.9028 -1.7150
 1003MOL0     H38406   0.966   4.006   8.380  0.1522  1.4510  0.1792
 1003MOL0     H38407   0.985   4.163   8.450  0.2874 -0.6560  0.6133
 1003MOL0     H38408   1.119   3.906   8.530  0.7087  0.1921 -1.1373
 1003MOL0     H38409   1.115   4.035   8.646 -2.4089 -1.3542  1.4503
 1003MOL0     H38410   1.410   4.196   8.431  0.1425  1.7992  3.5659
 1003MOL0     H38411   0.909   4.321   8.884  0.6078 -1.8191 -1.1597
 1003MOL0     H38412   0.899   4.483   9.093  1.2602  1.6974  1.3836
 1003MOL0     H38413   0.986   4.412   9.222  1.1459  1.7730 -0.5969
 1003MOL0     H38414   1.049   4.391   9.061  0.3425 -2.0930  0.0034
 1004MOL0     O38415   4.594   6.120   9.622  0.7610 -0.1679  0.4738
 1004MOL0     C38416   4.469   6.126   9.606 -0.0485 -0.3239 -0.7504
 1004MOL0     O38417   4.396   6.034   9.535 -0.5804  0.6863  0.6346
 1004MOL0     C38418   4.458   5.917   9.507  0.1131 -0.5619  0.0335
 1004MOL0     C38419   4.550   5.890   9.409  0.4967 -0.0562  0.9302
 1004MOL0     C38420   4.610   5.767   9.405 -0.2051  1.2147 -0.5272
 1004MOL0     C38421   4.577   5.663   9.494 -0.2575 -0.0374  0.3416
 1004MOL0     O38422   4.633   5.538   9.497 -0.0055 -1.1218 -0.4892
 1004MOL0     C38423   4.748   5.504   9.414 -0.7584  0.7086  0.4605
 1004MOL0     C38424   4.702   5.450   9.282  0.0342 -0.1409 -0.3029
 1004MOL0     C38425   4.821   5.395   9.195 -0.2071  0.2133 -0.5035
 1004MOL0     C38426   4.772   5.377   9.051 -0.9175  0.1993  0.4145
 1004MOL0     C38427   4.880   5.300   8.975  0.3180 -0.7617  0.3176
 1004MOL0     C38428   4.902   5.150   8.997 -0.3236  0.4777  0.0220
 1004MOL0     C38429   4.996   5.085   8.895  0.5765 -0.0156 -0.3569
 1004MOL0     C38430   5.115   5.167   8.864 -0.5954 -1.2401 -0.2082
 1004MOL0     N38431   5.215   5.085   8.800 -0.6387 -0.3533  0.0178
 1004MOL0     C38432   5.311   5.028   8.878  0.3412  0.5006  0.6080
 1004MOL0     C38433   5.368   4.942   8.783  0.7252 -0.0355 -0.3799
 1004MOL0     C38434   5.475   4.832   8.813  0.2814 -1.0107  0.3670
 1004MOL0     C38435   5.609   4.888   8.758  0.1771 -0.6411 -0.1466
 1004MOL0     C38436   5.626   4.873   8.605 -0.6751 -0.3945  0.0471
 1004MOL0     C38437   5.772   4.832   8.563  0.2016  0.6934  0.5467
 1004MOL0     O38438   5.855   4.937   8.608 -0.1683 -0.6266  0.0888
 1004MOL0     C38439   5.980   4.906   8.654 -0.0693 -0.7697  0.7340
 1004MOL0     C38440   6.001   4.875   8.784  0.2976 -0.7810  0.2487
 1004MOL0     C38441   6.126   4.848   8.826 -0.7171 -0.3731 -0.6569
 1004MOL0     C38442   6.145   4.845   8.978  0.4418 -0.0386 -1.0518
 1004MOL0     C38443   6.240   4.836   8.745  0.5243  0.1219  0.0021
 1004MOL0     C38444   6.375   4.808   8.795  0.2861  0.7235  0.3230
 1004MOL0     O38445   6.477   4.846   8.708 -0.7855  0.2587 -0.4855
 1004MOL0     C38446   6.603   4.796   8.744  0.0173  0.2259  0.5456
 1004MOL0     C38447   6.708   4.874   8.798  0.0646 -0.0315  0.3734
 1004MOL0     C38448   6.827   4.811   8.833  0.0095 -0.0066  0.5060
 1004MOL0     C38449   6.844   4.679   8.813  0.2698  0.6382  0.1594
 1004MOL0     O38450   6.954   4.606   8.855  0.2022  0.1716 -0.3988
 1004MOL0     C38451   7.077   4.684   8.879 -0.6833  0.0233 -0.0248
 1004MOL0     C38452   7.182   4.592   8.931 -0.1775 -0.3339 -0.0476
 1004MOL0     C38453   7.253   4.516   8.814  0.1459 -0.6106  0.3632
 1004MOL0     C38454   7.362   4.423   8.856 -0.6509  0.6256 -0.4244
 1004MOL0     C38455   7.501   4.488   8.847  0.0985 -0.0531 -0.2538
 1004MOL0     C38456   7.539   4.592   8.945  0.3495  0.9387 -0.0993
 1004MOL0     C38457   7.692   4.623   8.942  0.8738 -1.0099 -0.5534
 1004MOL0     C38458   7.783   4.553   9.035 -0.9529 -0.3735 -1.2748
 1004MOL0    Cl38459   7.801   4.384   9.011  0.0058 -0.0517  0.0692
 1004MOL0     C38460   6.747   4.605   8.771 -0.0204  0.0706 -0.3943
 1004MOL0     C38461   6.626   4.660   8.732 -0.0113 -0.0169 -0.5850
 1004MOL0     O38462   6.386   4.739   8.894  1.6424  0.0434 -0.0994
 1004MOL0     C38463   6.214   4.850   8.609 -0.5908 -0.6592 -0.9794
 1004MOL0     C38464   6.089   4.888   8.562  0.3698  0.0502 -0.4081
 1004MOL0     N38465   5.312   4.955   8.661  0.9293  0.9103  0.5376
 1004MOL0     N38466   5.220   5.044   8.667 -0.3440  0.3651 -0.3225
 1004MOL0     C38467   4.487   5.692   9.593  0.8350  0.2304 -0.0698
 1004MOL0     C38468   4.423   5.820   9.598  0.3652  0.0830 -1.4650
 1004MOL0     C38469   4.391   6.226   9.676  0.5317 -0.7693  0.1851
 1004MOL0     C38470   4.250   6.217   9.659 -0.3487  0.4282  0.4285
 1004MOL0     C38471   4.163   6.311   9.693 -1.3976  0.1497  0.6514
 1004MOL0     C38472   4.205   6.423   9.767 -0.4302  0.2085  0.5779
 1004MOL0     O38473   4.098   6.514   9.805 -0.8649 -0.4834 -0.0647
 1004MOL0     C38474   4.140   6.641   9.865 -0.4439  0.4869  0.7910
 1004MOL0     C38475   4.034   6.751   9.842  0.1528 -0.0516 -0.3833
 1004MOL0     C38476   4.001   6.781   9.691 -1.0880  0.8432  0.7153
 1004MOL0     C38477   4.127   6.777   9.596  0.8220  0.7788  0.3426
 1004MOL0     C38478   4.213   6.893   9.622  0.8260 -0.3577 -0.2494
 1004MOL0     C38479   4.288   6.980   9.647  0.1468 -0.2450  0.7311
 1004MOL0     C38480   4.342   6.432   9.797 -0.0457 -0.3309  0.1282
 1004MOL0     C38481   4.437   6.343   9.744  0.0051  0.4516 -0.1436
 1004MOL0     C38482   4.581   6.383   9.783  0.2159 -0.0599  0.0763
 1004MOL0     H38483   4.574   5.955   9.325 -0.1899 -2.9137 -1.6574
 1004MOL0     H38484   4.685   5.747   9.330 -0.0045 -0.8382  0.1517
 1004MOL0     H38485   4.819   5.438   9.463  1.1981  1.2852 -1.4317
 1004MOL0     H38486   4.816   5.586   9.390 -2.3644  2.1834  0.7522
 1004MOL0     H38487   4.630   5.371   9.303  0.0042  0.4442  2.1001
 1004MOL0     H38488   4.650   5.532   9.231  1.1591  1.2887  0.7583
 1004MOL0     H38489   4.906   5.463   9.186  0.8084 -1.0894 -0.8536
 1004MOL0     H38490   4.865   5.307   9.242 -1.4494 -0.2941 -0.2440
 1004MOL0     H38491   4.679   5.319   9.049 -0.2620 -0.8642 -0.2919
 1004MOL0     H38492   4.766   5.472   8.998 -0.6371 -1.7770 -3.4746
 1004MOL0     H38493   4.975   5.352   8.993  2.0999 -2.4249 -3.2410
 1004MOL0     H38494   4.869   5.311   8.867  2.5230 -0.3495  0.0773
 1004MOL0     H38495   4.940   5.143   9.099 -2.9533 -2.9184  0.9584
 1004MOL0     H38496   4.801   5.110   8.987 -0.9398  1.8078  0.8354
 1004MOL0     H38497   4.951   5.060   8.799  2.8521  0.6460 -1.6694
 1004MOL0     H38498   5.031   4.989   8.935 -0.9425 -0.9947 -1.2856
 1004MOL0     H38499   5.076   5.244   8.797 -2.5950  1.1198  3.3891
 1004MOL0     H38500   5.150   5.233   8.944 -3.0155  0.6401 -0.5645
 1004MOL0     H38501   5.338   5.050   8.980 -0.0978  1.1640  0.5895
 1004MOL0     H38502   5.450   4.743   8.755  2.4767 -0.0637 -2.2640
 1004MOL0     H38503   5.459   4.819   8.920 -4.8365  4.4283  0.8413
 1004MOL0     H38504   5.623   4.988   8.800 -3.0804 -1.0985  2.4833
 1004MOL0     H38505   5.689   4.832   8.807  0.8701 -1.2454 -1.9205
 1004MOL0     H38506   5.553   4.799   8.573 -0.6723 -1.5383  2.4488
 1004MOL0     H38507   5.600   4.968   8.557 -1.4736 -0.9056 -0.5410
 1004MOL0     H38508   5.793   4.736   8.611 -0.0493 -0.0383 -0.7720
 1004MOL0     H38509   5.785   4.822   8.455 -1.6776  2.7843  0.0520
 1004MOL0     H38510   5.927   4.880   8.863 -0.1534  2.3086 -0.2739
 1004MOL0     H38511   6.148   4.741   9.011  1.5542  0.6020  1.0137
 1004MOL0     H38512   6.062   4.900   9.023 -0.7033 -2.7720  0.4240
 1004MOL0     H38513   6.238   4.894   9.010 -1.3109  1.1485  2.7300
 1004MOL0     H38514   6.697   4.981   8.817  2.6384  0.2868  0.4540
 1004MOL0     H38515   6.914   4.864   8.871  0.4006 -0.4370  0.2332
 1004MOL0     H38516   7.121   4.740   8.796  1.5520 -2.8179 -0.9359
 1004MOL0     H38517   7.069   4.761   8.956  1.2570 -1.4494  1.7827
 1004MOL0     H38518   7.255   4.654   8.983 -0.4890  1.5945 -1.7900
 1004MOL0     H38519   7.135   4.525   9.004 -1.3591  0.0999 -0.3788
 1004MOL0     H38520   7.286   4.592   8.742 -0.1395  0.6546  1.5358
 1004MOL0     H38521   7.175   4.459   8.762  1.3555  0.3200 -2.7534
 1004MOL0     H38522   7.358   4.337   8.789 -1.1085  0.8190 -0.6543
 1004MOL0     H38523   7.364   4.389   8.960 -0.9494  1.0022 -0.2897
 1004MOL0     H38524   7.567   4.404   8.868 -3.3195 -2.4163  2.2739
 1004MOL0     H38525   7.510   4.532   8.747  2.9752  1.8659  0.7146
 1004MOL0     H38526   7.515   4.547   9.042  1.6818  2.1320  0.8228
 1004MOL0     H38527   7.480   4.682   8.926  1.6885  2.1680  1.3576
 1004MOL0     H38528   7.700   4.730   8.967 -2.0464 -0.9890  0.7500
 1004MOL0     H38529   7.724   4.613   8.838 -1.9865  1.4486 -1.8304
 1004MOL0     H38530   7.756   4.575   9.139  2.2493 -2.3130  0.1508
 1004MOL0     H38531   7.880   4.602   9.026 -1.3330  1.2809  2.1708
 1004MOL0     H38532   6.760   4.500   8.748 -0.1482 -0.2492  0.8662
 1004MOL0     H38533   6.545   4.599   8.692 -0.8431  1.5828 -1.4752
 1004MOL0     H38534   6.303   4.848   8.546  2.4893 -0.7450  2.9496
 1004MOL0     H38535   6.073   4.901   8.455  5.1732 -2.9684 -1.8342
 1004MOL0     H38536   4.453   5.611   9.657 -1.3087  1.9655  1.1196
 1004MOL0     H38537   4.346   5.844   9.671  1.8292  2.2269 -0.5349
 1004MOL0     H38538   4.216   6.132   9.602 -0.0357 -0.1271  1.0564
 1004MOL0     H38539   4.056   6.300   9.674 -1.0468 -2.9944 -0.1093
 1004MOL0     H38540   4.134   6.625   9.973 -0.8553 -0.9501  0.5762
 1004MOL0     H38541   4.240   6.676   9.836  0.0194 -2.7019 -2.0521
 1004MOL0     H38542   4.069   6.844   9.886  1.1831 -0.7056  0.2279
 1004MOL0     H38543   3.946   6.711   9.893 -0.3295  1.4832  0.0444
 1004MOL0     H38544   3.925   6.709   9.661  1.1985 -1.8261  0.8654
 1004MOL0     H38545   3.947   6.875   9.682 -0.8453  1.0177  1.0734
 1004MOL0     H38546   4.088   6.776   9.494 -2.5168  1.3188  1.4570
 1004MOL0     H38547   4.176   6.681   9.615  2.5481  0.3884 -4.6092
 1004MOL0     H38548   4.354   7.062   9.666  0.3321 -0.6174  1.7805
 1004MOL0     H38549   4.376   6.522   9.848 -1.1596  0.2406 -0.1029
 1004MOL0     H38550   4.586   6.491   9.767 -1.1888 -0.0111 -0.1197
 1004MOL0     H38551   4.616   6.357   9.883  1.7609  0.5499 -0.2698
 1004MOL0     H38552   4.645   6.342   9.704  1.9267  1.7079  0.4581
 1005MOL0     O38553   6.771   7.668   6.901  0.5918 -0.0830  0.5189
 1005MOL0     C38554   6.826   7.724   6.994 -1.2780  0.2784  0.3932
 1005MOL0     O38555   6.779   7.843   7.059  0.3649 -0.0158 -0.4644
 1005MOL0     C38556   6.649   7.870   7.054  0.0805 -0.3021  0.0441
 1005MOL0     C38557   6.609   7.963   6.966  0.0467  0.6907  0.8314
 1005MOL0     C38558   6.473   7.994   6.951  0.2462 -0.4292  0.2106
 1005MOL0     C38559   6.373   7.931   7.024 -0.3342  1.0449 -0.8443
 1005MOL0     O38560   6.246   7.975   7.004 -0.4862 -0.2637  0.8353
 1005MOL0     C38561   6.146   7.955   7.104  1.0250  0.2342 -0.2708
 1005MOL0     C38562   6.010   7.944   7.043 -0.2945  0.6110 -0.3280
 1005MOL0     C38563   5.909   8.060   7.061 -0.8284 -0.3885 -0.0481
 1005MOL0     C38564   5.772   8.024   6.999 -0.0142  0.4846  0.1040
 1005MOL0     C38565   5.669   8.128   7.035  0.6390  0.6154  0.6311
 1005MOL0     C38566   5.539   8.113   6.969 -0.2184  0.7489  0.4171
 1005MOL0     C38567   5.482   7.963   6.970 -0.0645 -0.9025  0.2537
 1005MOL0     C38568   5.330   7.954   6.932  0.1369  0.2151 -1.4484
 1005MOL0     N38569   5.240   7.994   7.044 -0.9744  0.7086 -1.1503
 1005MOL0     C38570   5.270   7.977   7.180  0.4686 -0.1999 -0.1269
 1005MOL0     C38571   5.158   8.024   7.244 -0.6737 -0.2550  0.4310
 1005MOL0     C38572   5.152   8.013   7.398  0.5915 -0.4141 -0.3769
 1005MOL0     C38573   5.189   8.151   7.449  0.4494 -0.3191  0.3001
 1005MOL0     C38574   5.161   8.167   7.599 -0.6744  0.0652  0.2385
 1005MOL0     C38575   5.251   8.109   7.704  1.1865  0.4831  1.2869
 1005MOL0     O38576   5.359   8.202   7.731  1.1326  0.6586 -0.1861
 1005MOL0     C38577   5.483   8.165   7.781 -0.0060 -0.3568  1.0732
 1005MOL0     C38578   5.511   8.042   7.830  0.1009 -0.5059  0.3865
 1005MOL0     C38579   5.647   8.017   7.868  0.0326  0.4008 -0.4383
 1005MOL0     C38580   5.697   7.872   7.886  0.5985 -0.3262  1.1459
 1005MOL0     C38581   5.738   8.124   7.868  0.1919  1.1222 -0.6354
 1005MOL0     C38582   5.880   8.109   7.911  0.9472 -0.3606  0.2272
 1005MOL0     O38583   5.977   8.168   7.846  0.6705  0.2576 -0.1838
 1005MOL0     C38584   6.105   8.187   7.886  0.2669  0.0718 -0.3118
 1005MOL0     C38585   6.195   8.086   7.869  0.2743 -0.5971  0.8298
 1005MOL0     C38586   6.332   8.104   7.895  0.4001  0.2386  0.6868
 1005MOL0     C38587   6.374   8.225   7.937 -0.1149 -0.3171  0.0243
 1005MOL0     O38588   6.508   8.248   7.945  0.5091 -0.9452  0.1645
 1005MOL0     C38589   6.592   8.210   7.836  0.2825  0.6965 -0.1499
 1005MOL0     C38590   6.731   8.257   7.870  0.1636  0.1378 -1.1093
 1005MOL0     C38591   6.819   8.248   7.743  0.5310 -0.1276  0.1104
 1005MOL0     C38592   6.962   8.255   7.784  0.2497 -0.4060  0.1384
 1005MOL0     C38593   7.050   8.295   7.671 -0.2002 -0.5148  0.6566
 1005MOL0     C38594   7.002   8.229   7.534 -0.7818 -0.1991 -0.8994
 1005MOL0     C38595   7.110   8.235   7.426 -0.1708  0.4648 -0.6292
 1005MOL0     C38596   7.109   8.119   7.333 -0.3102 -0.0547  0.5663
 1005MOL0    Cl38597   6.953   8.124   7.242 -0.0402  0.1366  0.0612
 1005MOL0     C38598   6.282   8.327   7.973 -0.5419  0.3215 -0.6372
 1005MOL0     C38599   6.143   8.314   7.945  0.1500  0.4057 -0.8497
 1005MOL0     O38600   5.913   8.028   7.999 -0.1197 -0.4131 -0.1501
 1005MOL0     C38601   5.699   8.248   7.828 -0.3844  0.0996 -0.7652
 1005MOL0     C38602   5.579   8.268   7.778  0.6172  0.0259 -0.2872
 1005MOL0     N38603   5.067   8.061   7.150  0.3203 -0.6323  0.1552
 1005MOL0     N38604   5.110   8.046   7.030  0.2289 -0.0474  0.3829
 1005MOL0     C38605   6.417   7.828   7.119 -0.1946 -0.5053 -0.0431
 1005MOL0     C38606   6.555   7.799   7.125 -0.1554 -0.2668  0.3652
 1005MOL0     C38607   6.969   7.691   7.013  0.5292  0.1971 -0.3587
 1005MOL0     C38608   7.045   7.786   7.072 -0.9598 -0.4570  0.4832
 1005MOL0     C38609   7.185   7.766   7.110  0.0478 -0.1429  0.7320
 1005MOL0     C38610   7.238   7.637   7.085  0.8101  0.1055 -0.2779
 1005MOL0     O38611   7.367   7.599   7.107  0.6319 -0.2588  0.0467
 1005MOL0     C38612   7.452   7.693   7.178 -0.0153 -0.3059 -0.3173
 1005MOL0     C38613   7.591   7.643   7.218  0.1978 -0.1992 -0.2353
 1005MOL0     C38614   7.604   7.517   7.307  0.7273 -0.2019  0.1205
 1005MOL0     C38615   7.759   7.498   7.337  0.7631  0.5364  0.1797
 1005MOL0     C38616   7.829   7.440   7.222 -1.0205  0.0162  0.2059
 1005MOL0     C38617   7.899   7.398   7.127  0.2785 -0.0234  0.7079
 1005MOL0     C38618   7.154   7.531   7.033  0.2909 -0.7182  0.3104
 1005MOL0     C38619   7.023   7.557   6.984 -0.2124 -0.4889  0.6086
 1005MOL0     C38620   6.950   7.443   6.913  0.7992 -0.2289  0.4009
 1005MOL0     H38621   6.686   8.006   6.903 -0.4578  0.3988 -0.0022
 1005MOL0     H38622   6.434   8.051   6.867  0.6973  0.1683  0.4001
 1005MOL0     H38623   6.155   8.040   7.172  0.6907 -0.4915  0.7078
 1005MOL0     H38624   6.173   7.865   7.160 -3.5334 -1.4598 -0.3775
 1005MOL0     H38625   6.014   7.912   6.939  1.3447  2.6299 -0.9533
 1005MOL0     H38626   5.959   7.862   7.096 -0.3961  0.5037 -0.5923
 1005MOL0     H38627   5.904   8.100   7.163  0.6846  2.1744 -0.8665
 1005MOL0     H38628   5.954   8.140   7.000  1.0582 -2.3555 -1.3647
 1005MOL0     H38629   5.784   8.017   6.890 -2.2133 -2.5316 -0.0593
 1005MOL0     H38630   5.743   7.928   7.042  2.9515 -0.1419  0.9705
 1005MOL0     H38631   5.699   8.227   6.999 -0.3920  0.9973  0.7836
 1005MOL0     H38632   5.668   8.147   7.143  1.5833 -0.0237  0.7646
 1005MOL0     H38633   5.471   8.188   7.009 -0.4748  0.6096  0.2421
 1005MOL0     H38634   5.553   8.146   6.866  1.5167 -0.4247  0.2222
 1005MOL0     H38635   5.493   7.913   7.066 -1.2987 -0.7277  0.4931
 1005MOL0     H38636   5.542   7.893   6.910 -2.6851 -1.9180 -1.3656
 1005MOL0     H38637   5.313   8.021   6.847 -3.3062  1.1175 -0.2408
 1005MOL0     H38638   5.306   7.851   6.903  3.1980 -1.5875  1.7231
 1005MOL0     H38639   5.361   7.941   7.228  1.1671 -1.7807 -2.4818
 1005MOL0     H38640   5.232   7.945   7.431  0.0753  1.0642  4.8737
 1005MOL0     H38641   5.054   7.989   7.439  0.8148  1.6526  1.5644
 1005MOL0     H38642   5.293   8.177   7.427  0.2506  1.0640  0.8879
 1005MOL0     H38643   5.129   8.223   7.393  1.3638  1.5224  1.6025
 1005MOL0     H38644   5.162   8.276   7.610 -0.0985  0.2833 -1.6223
 1005MOL0     H38645   5.056   8.139   7.610 -1.0545  0.4127 -1.9680
 1005MOL0     H38646   5.187   8.103   7.792  0.6076 -2.2060  0.7606
 1005MOL0     H38647   5.285   8.012   7.669 -1.0534 -0.1509  0.7228
 1005MOL0     H38648   5.434   7.966   7.831 -1.3175  0.8460 -0.9969
 1005MOL0     H38649   5.720   7.864   7.993  0.1423  2.6751  1.5582
 1005MOL0     H38650   5.787   7.869   7.824 -0.5323  3.6712 -1.0051
 1005MOL0     H38651   5.620   7.801   7.855 -0.6980  1.0478  1.1034
 1005MOL0     H38652   6.165   7.990   7.828  1.5795 -1.1472  1.0835
 1005MOL0     H38653   6.402   8.024   7.873 -0.5071 -0.2551 -0.4926
 1005MOL0     H38654   6.594   8.101   7.825 -1.1107  0.7066 -0.6541
 1005MOL0     H38655   6.558   8.249   7.740 -0.2578 -0.8590 -0.6219
 1005MOL0     H38656   6.723   8.363   7.896 -4.0421 -0.7172  2.0914
 1005MOL0     H38657   6.769   8.199   7.954  0.6983 -0.9545 -2.0805
 1005MOL0     H38658   6.779   8.323   7.674 -3.7726 -0.2954  2.1041
 1005MOL0     H38659   6.788   8.154   7.698 -0.3506 -0.5305  1.4967
 1005MOL0     H38660   6.981   8.157   7.829 -2.6486 -0.8188  0.6695
 1005MOL0     H38661   6.976   8.335   7.858 -0.5948 -0.2966  0.1851
 1005MOL0     H38662   7.046   8.403   7.654 -1.7563 -0.8407 -1.5284
 1005MOL0     H38663   7.151   8.265   7.699 -0.2703 -3.3925 -1.6776
 1005MOL0     H38664   6.913   8.274   7.489 -0.5789  0.4869 -0.6342
 1005MOL0     H38665   6.979   8.124   7.553  0.0947 -0.1626  0.5215
 1005MOL0     H38666   7.211   8.241   7.467 -0.1999 -0.9931 -0.3168
 1005MOL0     H38667   7.091   8.321   7.360 -1.3293 -2.5154 -4.5570
 1005MOL0     H38668   7.123   8.025   7.389 -0.7328 -0.3635  0.1635
 1005MOL0     H38669   7.190   8.133   7.261 -1.7272 -1.8603 -1.5398
 1005MOL0     H38670   6.331   8.418   8.007  1.9838 -0.5439 -1.7213
 1005MOL0     H38671   6.066   8.389   7.955 -1.5714 -0.8160 -3.6915
 1005MOL0     H38672   5.779   8.321   7.817 -0.3494 -0.3225 -4.5268
 1005MOL0     H38673   5.563   8.368   7.740  0.8073  0.3328  0.4293
 1005MOL0     H38674   6.347   7.764   7.171 -0.1521 -0.3925  0.1540
 1005MOL0     H38675   6.595   7.730   7.198 -1.6734 -0.0770  1.4285
 1005MOL0     H38676   7.011   7.888   7.087 -2.7144 -1.0492  0.7629
 1005MOL0     H38677   7.252   7.843   7.148  0.7180  0.1395 -0.9321
 1005MOL0     H38678   7.473   7.780   7.115  3.6194  0.2519  1.4394
 1005MOL0     H38679   7.406   7.719   7.274  1.5880  0.6878  0.2127
 1005MOL0     H38680   7.631   7.735   7.262  0.4883 -1.6646  2.8424
 1005MOL0     H38681   7.647   7.627   7.125 -3.3903 -0.9115 -2.4414
 1005MOL0     H38682   7.546   7.528   7.399 -2.5846  0.8823 -1.9601
 1005MOL0     H38683   7.557   7.435   7.252 -2.3758  2.4372 -1.4973
 1005MOL0     H38684   7.763   7.425   7.419  0.1126 -0.7819 -0.9338
 1005MOL0     H38685   7.808   7.593   7.359 -1.5787  1.9911 -0.5632
 1005MOL0     H38686   7.961   7.360   7.049 -1.0610 -1.5047  0.3077
 1005MOL0     H38687   7.192   7.430   7.031 -0.0704 -0.9027  1.5478
 1005MOL0     H38688   6.988   7.348   6.950  1.6652  0.1397  0.4902
 1005MOL0     H38689   6.842   7.444   6.934  0.5181  1.7379 -0.7718
 1005MOL0     H38690   6.975   7.442   6.807 -1.7967  2.9244 -0.4258
 1006MOL0     O38691   2.752   3.333   0.717 -0.3499  0.7033 -0.6399
 1006MOL0     C38692   2.675   3.276   0.642  0.2746 -0.0034  0.5789
 1006MOL0     O38693   2.698   3.245   0.500  0.7129  0.3743 -0.2961
 1006MOL0     C38694   2.825   3.261   0.457  0.1206  0.5576  0.0581
 1006MOL0     C38695   2.924   3.182   0.515  0.5166  0.1435 -0.3656
 1006MOL0     C38696   3.055   3.201   0.478  0.3120  0.2274  0.5301
 1006MOL0     C38697   3.085   3.294   0.374 -0.6607 -0.2801 -0.5208
 1006MOL0     O38698   3.215   3.324   0.349 -0.6183  0.1694 -0.3483
 1006MOL0     C38699   3.274   3.402   0.464 -0.2863  0.9878  0.4435
 1006MOL0     C38700   3.385   3.473   0.395  0.4946 -0.8387 -0.4793
 1006MOL0     C38701   3.474   3.382   0.315  0.1336 -0.5941  0.1770
 1006MOL0     C38702   3.598   3.446   0.258  0.4794  0.0126  0.5076
 1006MOL0     C38703   3.706   3.457   0.359 -0.3508  0.0799 -0.6384
 1006MOL0     C38704   3.849   3.478   0.299  0.1306 -0.4243  2.0892
 1006MOL0     C38705   3.960   3.491   0.400 -0.8522  0.1143 -0.3407
 1006MOL0     C38706   3.977   3.638   0.459 -0.2934  0.1267 -0.5147
 1006MOL0     N38707   4.069   3.647   0.578  0.2190 -0.2390 -1.2041
 1006MOL0     C38708   4.207   3.659   0.568 -0.0396 -0.0662  0.5894
 1006MOL0     C38709   4.256   3.674   0.693 -1.2015  0.7779  0.0999
 1006MOL0     C38710   4.401   3.687   0.739  0.0427  0.8943 -0.5482
 1006MOL0     C38711   4.457   3.546   0.715 -0.0604 -0.4098 -0.6807
 1006MOL0     C38712   4.600   3.543   0.763  0.2723 -0.2021 -0.3927
 1006MOL0     C38713   4.651   3.402   0.736 -1.0595  0.1537 -0.0866
 1006MOL0     O38714   4.791   3.393   0.781  0.0619 -0.6680 -0.1001
 1006MOL0     C38715   4.833   3.316   0.886  0.2307 -1.3015 -0.8520
 1006MOL0     C38716   4.752   3.299   1.002 -0.1351 -0.9103 -0.1124
 1006MOL0     C38717   4.795   3.220   1.103 -0.4247  0.0297 -0.5143
 1006MOL0     C38718   4.706   3.200   1.228  0.4662  0.0138  0.8477
 1006MOL0     C38719   4.929   3.187   1.106 -0.7317  0.1050 -0.2273
 1006MOL0     C38720   5.000   3.132   1.225 -0.3006 -0.8790 -0.6426
 1006MOL0     O38721   5.073   3.023   1.197  0.0601 -0.3661  0.2106
 1006MOL0     C38722   5.100   2.939   1.305 -1.1640  0.8734  1.0587
 1006MOL0     C38723   4.995   2.878   1.379  0.5586 -0.3060  1.0313
 1006MOL0     C38724   5.026   2.800   1.485  0.7063 -0.1352 -0.7906
 1006MOL0     C38725   5.159   2.755   1.515  0.1614 -0.0732 -0.7755
 1006MOL0     O38726   5.188   2.662   1.609 -0.1453  0.8692  0.2487
 1006MOL0     C38727   5.091   2.574   1.659  1.1685  1.0904 -0.4981
 1006MOL0     C38728   5.029   2.630   1.785  0.1745  0.1193 -0.8200
 1006MOL0     C38729   4.923   2.540   1.861  0.8923 -0.4496  0.3262
 1006MOL0     C38730   4.868   2.605   1.984 -0.3098 -0.1453 -0.2220
 1006MOL0     C38731   4.964   2.627   2.096 -0.6608  0.1135  0.0517
 1006MOL0     C38732   4.982   2.508   2.197  0.0670  0.2226  0.1691
 1006MOL0     C38733   5.095   2.543   2.294 -0.2035 -0.2400 -0.0302
 1006MOL0     C38734   5.098   2.445   2.413 -0.2257  0.5681  1.3850
 1006MOL0    Cl38735   5.221   2.490   2.527 -0.2312  0.2278 -0.0842
 1006MOL0     C38736   5.262   2.810   1.444 -0.4788 -0.3711  0.1919
 1006MOL0     C38737   5.239   2.905   1.341  0.9256  0.1583  0.0648
 1006MOL0     O38738   4.980   3.174   1.341  0.8040  0.6375 -0.3983
 1006MOL0     C38739   5.011   3.218   0.995 -0.1637 -0.1147 -0.0869
 1006MOL0     C38740   4.958   3.268   0.876 -0.5686 -0.5130  0.0163
 1006MOL0     N38741   4.146   3.662   0.780 -0.0931  0.0034  0.7425
 1006MOL0     N38742   4.036   3.643   0.709 -0.4236 -0.5803  0.2058
 1006MOL0     C38743   2.993   3.379   0.327 -0.0719  0.1212  0.9162
 1006MOL0     C38744   2.865   3.368   0.373  0.3538  0.1682  0.0337
 1006MOL0     C38745   2.540   3.238   0.714 -0.8522  0.5753  0.0088
 1006MOL0     C38746   2.455   3.161   0.640 -0.0421 -0.5649 -0.3604
 1006MOL0     C38747   2.334   3.123   0.693 -0.6266 -0.2912  0.7251
 1006MOL0     C38748   2.289   3.153   0.823 -0.0146  0.8600  1.1524
 1006MOL0     O38749   2.171   3.100   0.852 -0.4292  0.2250  0.0505
 1006MOL0     C38750   2.110   3.110   0.976 -0.5048 -0.1968 -0.1464
 1006MOL0     C38751   2.183   3.017   1.076 -1.0282 -0.1480 -0.5953
 1006MOL0     C38752   2.199   2.876   1.019  0.1829  0.5096  0.4507
 1006MOL0     C38753   2.293   2.792   1.105  0.1966 -0.3355  0.8610
 1006MOL0     C38754   2.249   2.769   1.244 -0.4160  0.5214 -1.0493
 1006MOL0     C38755   2.223   2.750   1.364 -0.2267  0.8139  0.4462
 1006MOL0     C38756   2.371   3.231   0.898  0.8612 -0.2312 -0.4382
 1006MOL0     C38757   2.498   3.270   0.847 -0.3409 -0.3994 -0.1680
 1006MOL0     C38758   2.582   3.350   0.951  0.3876 -0.3104  0.4526
 1006MOL0     H38759   2.910   3.105   0.590 -1.1795 -0.5997 -1.4164
 1006MOL0     H38760   3.126   3.137   0.527 -0.7324 -0.2178  1.4997
 1006MOL0     H38761   3.317   3.331   0.535  0.6887  0.1020 -0.9670
 1006MOL0     H38762   3.201   3.469   0.511  0.3742  2.6262 -0.7768
 1006MOL0     H38763   3.346   3.557   0.337  0.1732  1.7451  3.1483
 1006MOL0     H38764   3.438   3.536   0.466 -1.0949 -0.1265  0.1202
 1006MOL0     H38765   3.502   3.290   0.366  1.7109  0.2013  0.8275
 1006MOL0     H38766   3.409   3.371   0.227 -1.5823  0.7407  1.2239
 1006MOL0     H38767   3.632   3.383   0.175 -2.4526  0.5929 -1.2966
 1006MOL0     H38768   3.576   3.540   0.206  3.6945 -0.1917 -1.5364
 1006MOL0     H38769   3.704   3.364   0.417  0.0222  1.5459  1.8806
 1006MOL0     H38770   3.682   3.533   0.434 -0.7256 -0.6472 -0.0121
 1006MOL0     H38771   3.863   3.389   0.236 -3.0041 -0.3864  1.1489
 1006MOL0     H38772   3.839   3.568   0.238 -1.8157 -3.3759 -2.4878
 1006MOL0     H38773   4.060   3.467   0.361  1.1865  2.3670  2.9339
 1006MOL0     H38774   3.950   3.430   0.490  2.4102 -2.0533 -1.2654
 1006MOL0     H38775   4.019   3.707   0.384  2.7836 -0.4242  0.5606
 1006MOL0     H38776   3.880   3.673   0.494 -0.1506  0.2681 -0.2591
 1006MOL0     H38777   4.252   3.651   0.469 -1.4392 -0.5415 -0.0264
 1006MOL0     H38778   4.401   3.730   0.839 -3.1448  1.8711 -0.8382
 1006MOL0     H38779   4.450   3.756   0.670  1.8271 -1.2279 -1.5222
 1006MOL0     H38780   4.397   3.472   0.769  2.4878 -3.0046 -1.1691
 1006MOL0     H38781   4.445   3.526   0.609  0.3734  0.9170 -0.9976
 1006MOL0     H38782   4.647   3.619   0.700 -2.9477  0.6214 -2.0720
 1006MOL0     H38783   4.615   3.578   0.865 -1.1233  2.4870 -1.0001
 1006MOL0     H38784   4.598   3.328   0.797 -0.0800  0.6899  1.4751
 1006MOL0     H38785   4.644   3.371   0.631 -3.2670 -0.2212  0.1220
 1006MOL0     H38786   4.653   3.344   1.000  0.5990  0.8289  0.9164
 1006MOL0     H38787   4.747   3.237   1.322 -2.3574 -0.6307  2.4210
 1006MOL0     H38788   4.709   3.093   1.250  2.4982  0.3638  2.6576
 1006MOL0     H38789   4.603   3.235   1.221  0.3820  0.6464  3.9258
 1006MOL0     H38790   4.895   2.913   1.357  1.2101  0.5821 -0.7580
 1006MOL0     H38791   4.948   2.764   1.552  1.4326 -1.3282 -0.5481
 1006MOL0     H38792   5.015   2.547   1.585  1.9905 -0.4901 -0.7973
 1006MOL0     H38793   5.138   2.479   1.687  2.5684  1.7615 -0.4751
 1006MOL0     H38794   5.100   2.654   1.864 -1.8879  1.7371  0.6598
 1006MOL0     H38795   4.980   2.722   1.752  1.7383  0.3145 -2.8461
 1006MOL0     H38796   4.942   2.436   1.888 -2.0674 -0.9519  0.8316
 1006MOL0     H38797   4.834   2.529   1.798  1.0131 -0.6940  0.1977
 1006MOL0     H38798   4.778   2.559   2.023 -0.8392  0.5688 -0.5753
 1006MOL0     H38799   4.853   2.703   1.938 -0.9636 -0.9729 -1.8823
 1006MOL0     H38800   5.063   2.665   2.068 -0.3780  2.3474  3.4942
 1006MOL0     H38801   4.917   2.704   2.158 -2.5078  0.9952 -2.3011
 1006MOL0     H38802   5.006   2.417   2.141  0.3406 -0.2152  0.9825
 1006MOL0     H38803   4.892   2.503   2.259 -0.7843  0.2590 -1.0289
 1006MOL0     H38804   5.083   2.646   2.327  1.6988  0.6402 -1.8816
 1006MOL0     H38805   5.188   2.542   2.237 -0.0692 -0.0171  0.1856
 1006MOL0     H38806   5.130   2.347   2.377  1.2409  0.5725  2.6000
 1006MOL0     H38807   4.999   2.444   2.459 -0.9285  0.0279 -0.0745
 1006MOL0     H38808   5.362   2.781   1.475  1.1774  3.7384 -0.6324
 1006MOL0     H38809   5.319   2.956   1.289  0.9728  2.2801  2.0757
 1006MOL0     H38810   5.116   3.192   0.987 -0.2735 -0.1878 -1.5817
 1006MOL0     H38811   5.011   3.290   0.784 -3.2588  0.2243 -1.4606
 1006MOL0     H38812   3.033   3.441   0.247  1.4352 -2.5291 -0.5045
 1006MOL0     H38813   2.789   3.428   0.325 -1.3978 -0.4445  1.8960
 1006MOL0     H38814   2.486   3.133   0.540 -0.9260 -1.4010 -0.4156
 1006MOL0     H38815   2.270   3.065   0.627 -2.3252  1.1700  1.0078
 1006MOL0     H38816   2.103   3.206   1.028  1.2962  0.0684 -0.3303
 1006MOL0     H38817   2.008   3.078   0.953  0.0078 -0.3615 -2.4034
 1006MOL0     H38818   2.115   3.004   1.161 -0.2748  1.5523  0.3146
 1006MOL0     H38819   2.284   3.049   1.104 -1.1311  0.5358 -0.9828
 1006MOL0     H38820   2.103   2.827   1.040 -0.1916  1.3600  0.7272
 1006MOL0     H38821   2.251   2.863   0.925  0.9088 -0.3462  0.9569
 1006MOL0     H38822   2.395   2.832   1.104  0.4159 -0.8793 -0.5216
 1006MOL0     H38823   2.294   2.698   1.049 -0.8963 -1.5601  2.7602
 1006MOL0     H38824   2.197   2.734   1.467  0.0121 -3.2625  0.0420
 1006MOL0     H38825   2.332   3.262   0.994 -2.0650 -0.5787 -1.4078
 1006MOL0     H38826   2.663   3.293   0.997  2.8431  2.1309 -0.5559
 1006MOL0     H38827   2.636   3.432   0.902 -1.0357  0.7032  0.5101
 1006MOL0     H38828   2.511   3.406   1.012 -0.9833 -0.3849 -0.9996
 1007MOL0     O38829   4.365   5.835   5.404 -0.6637  0.1046  0.1861
 1007MOL0     C38830   4.437   5.881   5.309  0.6282 -0.2765 -0.0667
 1007MOL0     O38831   4.573   5.869   5.300 -0.4707 -0.3280 -0.1420
 1007MOL0     C38832   4.634   5.831   5.419 -0.1069 -0.0344 -0.6719
 1007MOL0     C38833   4.755   5.771   5.394  0.6124 -0.0254  0.3665
 1007MOL0     C38834   4.846   5.753   5.497  0.1834  0.1368  0.0455
 1007MOL0     C38835   4.829   5.791   5.627  0.3755  0.6243 -0.0167
 1007MOL0     O38836   4.924   5.776   5.730  0.1058  0.1395  0.0811
 1007MOL0     C38837   4.926   5.860   5.844 -0.4502 -0.1103 -0.4964
 1007MOL0     C38838   5.003   5.790   5.958  0.5215  0.6715  0.5199
 1007MOL0     C38839   5.128   5.713   5.908 -0.0741 -0.1149 -0.5932
 1007MOL0     C38840   5.228   5.677   6.014 -0.5631 -0.0513  0.6769
 1007MOL0     C38841   5.365   5.629   5.960 -0.3316  0.5078 -0.3309
 1007MOL0     C38842   5.442   5.710   5.855  0.8354 -0.0707 -0.3190
 1007MOL0     C38843   5.575   5.663   5.807  0.1535  0.5312 -0.6179
 1007MOL0     C38844   5.687   5.658   5.913 -0.8452 -0.4962  0.5078
 1007MOL0     N38845   5.824   5.635   5.855 -0.2525  1.0370  0.6640
 1007MOL0     C38846   5.873   5.514   5.806  0.3160  0.6495  0.5287
 1007MOL0     C38847   5.994   5.548   5.758 -0.0528 -0.2349  0.3287
 1007MOL0     C38848   6.087   5.453   5.692  0.2674  0.2505 -0.4973
 1007MOL0     C38849   6.213   5.531   5.638 -0.5198 -0.5717 -0.5708
 1007MOL0     C38850   6.297   5.440   5.536 -0.1776  0.2789  0.7547
 1007MOL0     C38851   6.440   5.493   5.521  0.3411 -0.3886  0.7370
 1007MOL0     O38852   6.509   5.489   5.647  0.2799  0.4025  0.0815
 1007MOL0     C38853   6.645   5.490   5.655  0.6906  0.3325  0.3384
 1007MOL0     C38854   6.729   5.523   5.548  0.2709 -0.2047 -0.9739
 1007MOL0     C38855   6.868   5.555   5.560 -0.3053  0.3554 -0.4820
 1007MOL0     C38856   6.949   5.581   5.435  0.5444  0.5523 -0.3904
 1007MOL0     C38857   6.919   5.550   5.688 -1.2399  0.1703  0.0634
 1007MOL0     C38858   7.069   5.578   5.715 -0.1735 -0.4583 -0.7154
 1007MOL0     O38859   7.161   5.575   5.615 -0.1070 -0.3252 -0.1163
 1007MOL0     C38860   7.285   5.626   5.639  0.1021  0.3378 -0.1513
 1007MOL0     C38861   7.297   5.769   5.628  0.8722  0.0848 -0.8230
 1007MOL0     C38862   7.422   5.813   5.669 -0.4419 -0.2479  0.2230
 1007MOL0     C38863   7.527   5.733   5.716 -0.0724  0.8812 -0.6417
 1007MOL0     O38864   7.646   5.791   5.742 -0.1141 -0.3239 -0.3215
 1007MOL0     C38865   7.748   5.732   5.824  0.2326 -0.2088  0.8584
 1007MOL0     C38866   7.880   5.811   5.793  0.6424 -0.2134 -0.4388
 1007MOL0     C38867   7.926   5.777   5.650  0.4215  0.4086  0.0358
 1007MOL0     C38868   8.037   5.869   5.597 -0.8950  0.0378  0.0827
 1007MOL0     C38869   8.064   5.853   5.445 -0.2900 -0.5961  0.1762
 1007MOL0     C38870   8.137   5.732   5.410 -0.8568 -1.0345 -0.4090
 1007MOL0     C38871   8.133   5.684   5.266 -0.2808 -0.6828 -0.5009
 1007MOL0     C38872   8.201   5.792   5.184  0.4642  1.0941  0.9320
 1007MOL0    Cl38873   8.363   5.728   5.116 -0.1984 -0.3171 -0.2118
 1007MOL0     C38874   7.508   5.594   5.715 -0.1245 -0.6560  0.0506
 1007MOL0     C38875   7.386   5.546   5.671 -0.7916  0.2525  0.1424
 1007MOL0     O38876   7.096   5.625   5.828 -0.1101  0.2711 -0.3037
 1007MOL0     C38877   6.832   5.525   5.793  0.3498 -0.2700  0.1846
 1007MOL0     C38878   6.698   5.484   5.781 -0.6139 -0.7611  0.4238
 1007MOL0     N38879   6.021   5.683   5.792  0.7742  0.4833 -0.5240
 1007MOL0     N38880   5.916   5.735   5.844  0.2824  0.3215  0.0612
 1007MOL0     C38881   4.699   5.841   5.656 -0.1614 -0.8743  0.0677
 1007MOL0     C38882   4.611   5.871   5.546 -0.0996 -0.1644  0.1736
 1007MOL0     C38883   4.383   5.979   5.214 -0.6565  0.0653 -0.7277
 1007MOL0     C38884   4.467   6.075   5.154 -0.5049 -0.4259  0.1900
 1007MOL0     C38885   4.419   6.182   5.078  0.0616 -0.0844  0.6635
 1007MOL0     C38886   4.289   6.202   5.059 -0.0983 -0.0436  0.1827
 1007MOL0     O38887   4.254   6.313   4.991  0.2151 -0.4922  0.3006
 1007MOL0     C38888   4.141   6.384   5.046  0.7191 -0.8461  0.0758
 1007MOL0     C38889   4.116   6.491   4.944 -0.9534  0.7765  0.2130
 1007MOL0     C38890   4.086   6.436   4.802 -0.6253 -0.2489  0.4345
 1007MOL0     C38891   3.963   6.346   4.791  0.5418 -0.1262 -0.1790
 1007MOL0     C38892   3.835   6.418   4.827  0.3794  0.5537  1.0338
 1007MOL0     C38893   3.730   6.483   4.853 -0.0308  0.2303 -0.0112
 1007MOL0     C38894   4.206   6.097   5.108  0.4992 -0.0797  0.7993
 1007MOL0     C38895   4.249   5.986   5.179  0.0513 -0.0501 -0.0548
 1007MOL0     C38896   4.153   5.871   5.210  0.1806 -0.3049  0.6465
 1007MOL0     H38897   4.782   5.749   5.291  1.0453  1.8880  0.0133
 1007MOL0     H38898   4.946   5.720   5.472  0.8552  2.3095 -0.3751
 1007MOL0     H38899   4.831   5.882   5.895  0.4691 -0.5863  1.5373
 1007MOL0     H38900   4.977   5.952   5.816  0.3669 -0.4854 -0.2686
 1007MOL0     H38901   5.033   5.856   6.040 -2.4034  1.0031  1.4283
 1007MOL0     H38902   4.939   5.712   6.001  0.1386  0.3307 -0.6404
 1007MOL0     H38903   5.087   5.620   5.867 -0.5898 -0.4931  0.7460
 1007MOL0     H38904   5.177   5.776   5.833 -0.1282  0.5290 -0.1051
 1007MOL0     H38905   5.234   5.771   6.069 -0.8254  2.0389 -2.5749
 1007MOL0     H38906   5.188   5.603   6.084  0.7867 -0.3741  1.1394
 1007MOL0     H38907   5.355   5.527   5.920  1.1738  0.2383 -0.0842
 1007MOL0     H38908   5.433   5.614   6.045  0.9112 -1.7864 -1.6101
 1007MOL0     H38909   5.384   5.721   5.763  1.0540 -1.1111 -0.5965
 1007MOL0     H38910   5.445   5.815   5.888  3.6648 -0.2121  0.1446
 1007MOL0     H38911   5.614   5.724   5.725  0.4928  1.4746  0.2256
 1007MOL0     H38912   5.546   5.566   5.768 -5.0021 -0.2795  3.9181
 1007MOL0     H38913   5.680   5.744   5.980 -1.0009 -0.5586  0.5738
 1007MOL0     H38914   5.651   5.574   5.975  1.5052 -1.1009  1.1295
 1007MOL0     H38915   5.820   5.420   5.799  0.0868  0.6932  1.5578
 1007MOL0     H38916   6.030   5.397   5.618  0.5698 -2.2157  1.0264
 1007MOL0     H38917   6.110   5.375   5.765 -2.6498  0.0117  0.2855
 1007MOL0     H38918   6.182   5.625   5.592  0.8903  0.0074 -0.3840
 1007MOL0     H38919   6.275   5.560   5.723  1.4939 -0.8848 -1.8731
 1007MOL0     H38920   6.286   5.337   5.569 -1.5077 -1.1212 -3.4909
 1007MOL0     H38921   6.252   5.447   5.437  0.8727 -1.3250  0.1288
 1007MOL0     H38922   6.495   5.448   5.438  0.2732  2.8415 -1.2467
 1007MOL0     H38923   6.431   5.597   5.487  2.3334 -0.0489  1.1402
 1007MOL0     H38924   6.676   5.551   5.458  1.0752 -0.9058 -1.6827
 1007MOL0     H38925   6.888   5.586   5.344  0.9235  1.1682 -0.6207
 1007MOL0     H38926   7.031   5.514   5.408  1.1814  0.5893  1.3424
 1007MOL0     H38927   6.990   5.682   5.442 -0.9657  1.1398  0.3418
 1007MOL0     H38928   7.211   5.823   5.587  0.0880  2.5741  3.4829
 1007MOL0     H38929   7.444   5.919   5.665  1.4616 -0.6545 -1.7644
 1007MOL0     H38930   7.729   5.757   5.929  2.6046 -0.6869  1.4764
 1007MOL0     H38931   7.756   5.623   5.812  0.0292 -0.1496  0.1451
 1007MOL0     H38932   7.869   5.920   5.801  2.8995 -0.0701  1.9026
 1007MOL0     H38933   7.955   5.773   5.862  0.5844 -1.2492 -0.9314
 1007MOL0     H38934   7.841   5.785   5.582  1.5942 -0.7505 -1.6480
 1007MOL0     H38935   7.962   5.674   5.643  0.2267  0.4607 -3.8592
 1007MOL0     H38936   8.123   5.853   5.663 -0.5076  1.9988  0.0911
 1007MOL0     H38937   8.022   5.976   5.610 -0.3137  0.1402 -0.0319
 1007MOL0     H38938   7.971   5.835   5.391  1.9207 -0.6836 -3.9776
 1007MOL0     H38939   8.117   5.939   5.404  0.2800 -1.6701 -1.4162
 1007MOL0     H38940   8.113   5.644   5.470 -1.0686 -2.4213 -2.4396
 1007MOL0     H38941   8.240   5.746   5.444 -1.0862  1.4971 -0.5540
 1007MOL0     H38942   8.027   5.672   5.239 -0.1324  0.3482 -1.6707
 1007MOL0     H38943   8.192   5.594   5.245  0.0165 -0.0229 -2.8312
 1007MOL0     H38944   8.219   5.893   5.220  0.3736  1.9661 -1.3086
 1007MOL0     H38945   8.136   5.796   5.096 -1.3312 -1.5781  1.9971
 1007MOL0     H38946   7.588   5.521   5.730 -0.1075 -0.8127 -0.7651
 1007MOL0     H38947   7.375   5.438   5.676  0.1906  0.1618  0.5192
 1007MOL0     H38948   6.883   5.512   5.888 -0.6113 -1.4199  0.5698
 1007MOL0     H38949   6.639   5.461   5.869 -2.9342  2.0550 -0.2186
 1007MOL0     H38950   4.674   5.877   5.756  0.3316  1.1071 -0.4827
 1007MOL0     H38951   4.531   5.940   5.572  1.7489  0.6904  4.5270
 1007MOL0     H38952   4.573   6.061   5.176 -1.1272 -2.8476  2.1208
 1007MOL0     H38953   4.491   6.248   5.031  0.3931  0.1725  1.5136
 1007MOL0     H38954   4.050   6.327   5.063 -0.6280  0.6683 -1.6747
 1007MOL0     H38955   4.173   6.429   5.141  2.7012  0.6242 -1.2015
 1007MOL0     H38956   4.214   6.539   4.941 -0.5036 -0.1327  0.1847
 1007MOL0     H38957   4.038   6.561   4.974 -0.8161  0.9393  0.1897
 1007MOL0     H38958   4.056   6.517   4.734  1.0549  1.7212  1.9466
 1007MOL0     H38959   4.175   6.383   4.766  0.9033  2.5984 -0.2648
 1007MOL0     H38960   3.972   6.255   4.851  0.6502 -0.3141 -0.4762
 1007MOL0     H38961   3.953   6.323   4.685 -1.4222 -0.8829  0.1367
 1007MOL0     H38962   3.646   6.540   4.887  1.1747 -0.5170  5.0318
 1007MOL0     H38963   4.101   6.098   5.082 -0.0807 -2.1794  2.7403
 1007MOL0     H38964   4.196   5.770   5.212  0.7924 -0.1051  4.2140
 1007MOL0     H38965   4.104   5.896   5.305  0.5363  2.6595  0.1459
 1007MOL0     H38966   4.073   5.872   5.135  0.9392 -0.9944 -0.1898
 1008MOL0     O38967   4.922   7.188   8.065  0.5650 -0.2892  0.6475
 1008MOL0     C38968   4.809   7.185   8.120 -0.1184 -0.5808  0.1905
 1008MOL0     O38969   4.747   7.290   8.196  0.0721  0.5607  0.2511
 1008MOL0     C38970   4.799   7.410   8.173  0.6856 -0.4009 -0.4523
 1008MOL0     C38971   4.935   7.443   8.201 -0.0145  0.1359 -0.2096
 1008MOL0     C38972   4.977   7.569   8.191 -0.5118  0.2722 -0.4721
 1008MOL0     C38973   4.903   7.672   8.137 -0.3886 -0.4638 -0.0653
 1008MOL0     O38974   4.955   7.799   8.106 -0.5819 -0.1767 -0.1680
 1008MOL0     C38975   5.070   7.838   8.176 -0.6473  1.0646 -0.1454
 1008MOL0     C38976   5.117   7.980   8.143  0.2050 -0.7005  0.6314
 1008MOL0     C38977   5.242   8.011   8.234 -0.9902  0.3511  0.2678
 1008MOL0     C38978   5.302   8.149   8.213  0.0603 -0.2410 -0.5727
 1008MOL0     C38979   5.434   8.146   8.281 -1.4398 -0.1497 -1.1223
 1008MOL0     C38980   5.549   8.126   8.185  0.1128 -0.3090 -0.0426
 1008MOL0     C38981   5.688   8.108   8.244 -0.1986 -1.0130 -0.7022
 1008MOL0     C38982   5.738   8.236   8.313  0.0616  0.2469  0.4598
 1008MOL0     N38983   5.883   8.221   8.357 -0.4461  0.2915  0.3336
 1008MOL0     C38984   5.991   8.225   8.276  0.0117  0.5581  0.5646
 1008MOL0     C38985   6.090   8.230   8.368 -0.0463 -0.6451 -0.1886
 1008MOL0     C38986   6.228   8.239   8.325 -0.3659 -0.5747  0.2456
 1008MOL0     C38987   6.285   8.379   8.339  0.0738 -0.4108  0.5030
 1008MOL0     C38988   6.430   8.370   8.314  0.3718 -0.8780 -0.5109
 1008MOL0     C38989   6.502   8.311   8.438  0.6497  0.1441 -0.2202
 1008MOL0     O38990   6.603   8.401   8.488  0.0371 -0.6089  0.8613
 1008MOL0     C38991   6.705   8.343   8.560 -0.6205 -0.4022 -0.2409
 1008MOL0     C38992   6.689   8.250   8.661 -0.1927 -1.0760  0.0777
 1008MOL0     C38993   6.806   8.205   8.731 -0.7173 -0.0970  0.7340
 1008MOL0     C38994   6.784   8.099   8.835 -0.6520  0.8319 -0.9661
 1008MOL0     C38995   6.935   8.255   8.701 -0.2981  0.7459 -0.6509
 1008MOL0     C38996   7.061   8.235   8.778 -0.0581 -0.6315  0.1573
 1008MOL0     O38997   7.044   8.193   8.912 -0.3472 -0.5878 -0.9620
 1008MOL0     C38998   7.154   8.186   8.996  0.3843  0.7499  0.3789
 1008MOL0     C38999   7.236   8.291   9.006 -0.3732  1.2940 -0.1418
 1008MOL0     C39000   7.344   8.287   9.097  0.5689 -0.3814 -0.3831
 1008MOL0     C39001   7.359   8.175   9.176 -0.8028  0.7004 -1.1688
 1008MOL0     O39002   7.460   8.171   9.267 -0.0247 -0.1551 -0.6379
 1008MOL0     C39003   7.540   8.059   9.258 -0.2994  0.2392 -0.5010
 1008MOL0     C39004   7.674   8.104   9.310  0.2168  0.8256  0.1750
 1008MOL0     C39005   7.770   7.985   9.328 -0.2123  0.6015  1.1717
 1008MOL0     C39006   7.890   8.028   9.408  0.6485 -0.5670  0.3469
 1008MOL0     C39007   7.984   7.913   9.458  0.2364  0.3819 -0.7320
 1008MOL0     C39008   8.033   7.820   9.348  1.0229 -0.8542 -0.4479
 1008MOL0     C39009   8.109   7.874   9.229  0.3814  0.0024  0.0226
 1008MOL0     C39010   8.235   7.947   9.285  0.4803  0.7825 -0.7666
 1008MOL0    Cl39011   8.344   7.840   9.373 -0.2659 -0.2265 -0.3391
 1008MOL0     C39012   7.279   8.060   9.160  0.0200 -0.4327  0.2137
 1008MOL0     C39013   7.168   8.072   9.074 -0.8020  0.1826  0.7972
 1008MOL0     O39014   7.169   8.234   8.710 -0.0736 -0.6417 -0.0063
 1008MOL0     C39015   6.949   8.346   8.593 -0.5170 -0.8215  0.0529
 1008MOL0     C39016   6.833   8.377   8.519 -0.7231 -0.7622  0.7387
 1008MOL0     N39017   6.044   8.239   8.493 -0.1882  0.0774 -1.1545
 1008MOL0     N39018   5.917   8.224   8.489  0.4978  0.4218  0.5220
 1008MOL0     C39019   4.773   7.643   8.108  1.0101  0.3069  0.5708
 1008MOL0     C39020   4.718   7.512   8.129 -0.3268 -0.0201  0.1974
 1008MOL0     C39021   4.717   7.079   8.069 -0.3595 -0.1634 -0.2870
 1008MOL0     C39022   4.584   7.117   8.041 -0.6588  0.4008 -0.4067
 1008MOL0     C39023   4.490   7.022   8.000 -0.4278  0.2073 -0.0166
 1008MOL0     C39024   4.527   6.893   7.976  0.1687  0.2178  0.4444
 1008MOL0     O39025   4.439   6.792   7.924 -0.0104 -0.7429 -0.0579
 1008MOL0     C39026   4.307   6.782   7.976  0.5919 -1.0106 -0.8987
 1008MOL0     C39027   4.253   6.641   7.965  0.0663  0.1074 -0.9881
 1008MOL0     C39028   4.312   6.549   8.072  0.0664  0.3067  0.3720
 1008MOL0     C39029   4.229   6.423   8.095  0.2424  0.1493 -0.1610
 1008MOL0     C39030   4.172   6.422   8.229 -0.1092 -0.9624  0.5935
 1008MOL0     C39031   4.128   6.414   8.341  0.4249  0.0382  0.0226
 1008MOL0     C39032   4.648   6.854   8.028 -0.1901 -0.2583 -0.0617
 1008MOL0     C39033   4.745   6.940   8.074  0.0145 -0.6020 -0.9034
 1008MOL0     C39034   4.875   6.875   8.128  0.1679 -0.8862  0.2981
 1008MOL0     H39035   5.009   7.365   8.218 -0.6150 -0.6943 -1.2175
 1008MOL0     H39036   5.081   7.586   8.218 -0.5561 -0.1080 -0.0514
 1008MOL0     H39037   5.150   7.769   8.149 -2.3613 -1.5133  1.0343
 1008MOL0     H39038   5.043   7.841   8.282 -2.8181 -2.9367 -0.4116
 1008MOL0     H39039   5.135   7.986   8.036 -3.4310 -2.1572 -0.2071
 1008MOL0     H39040   5.051   8.063   8.170 -0.0274 -0.7181  0.1126
 1008MOL0     H39041   5.212   8.006   8.339  1.3513 -0.7829  0.9500
 1008MOL0     H39042   5.321   7.937   8.219 -0.8848  0.8229 -1.9380
 1008MOL0     H39043   5.312   8.174   8.107  2.3120  1.2736 -0.0661
 1008MOL0     H39044   5.233   8.223   8.254 -1.6446 -1.7740 -0.5016
 1008MOL0     H39045   5.433   8.059   8.346  0.8311  0.7680  0.2638
 1008MOL0     H39046   5.455   8.234   8.342  1.2527  0.8497 -3.2643
 1008MOL0     H39047   5.532   8.033   8.129 -1.6606 -1.3457  2.0728
 1008MOL0     H39048   5.552   8.209   8.114 -0.4938 -1.6091 -1.6694
 1008MOL0     H39049   5.760   8.085   8.165  2.4160  0.9985  0.9425
 1008MOL0     H39050   5.680   8.021   8.310 -0.6795 -0.6429 -0.2655
 1008MOL0     H39051   5.727   8.318   8.241 -0.1076  0.7953  1.1016
 1008MOL0     H39052   5.678   8.253   8.402 -0.7963  0.4227 -0.1318
 1008MOL0     H39053   5.991   8.233   8.167  0.8393  1.0834  0.5892
 1008MOL0     H39054   6.247   8.198   8.225 -1.5604 -1.4116  0.3339
 1008MOL0     H39055   6.281   8.167   8.388  2.3814 -0.8741 -2.1946
 1008MOL0     H39056   6.240   8.446   8.265  1.0152  0.1694  0.4344
 1008MOL0     H39057   6.263   8.427   8.434 -0.3935  1.3236 -0.4437
 1008MOL0     H39058   6.467   8.328   8.220  1.9729  0.2860 -0.4487
 1008MOL0     H39059   6.458   8.476   8.309 -2.6458  0.1150  0.9592
 1008MOL0     H39060   6.431   8.289   8.519 -1.4470 -1.3388 -2.3312
 1008MOL0     H39061   6.538   8.214   8.405 -1.2807  0.1661 -2.6825
 1008MOL0     H39062   6.591   8.213   8.688 -1.3318  1.1485 -0.8032
 1008MOL0     H39063   6.679   8.091   8.861 -0.1445  1.2826  1.4895
 1008MOL0     H39064   6.822   8.123   8.935 -2.2669 -0.7256  0.0552
 1008MOL0     H39065   6.816   8.000   8.802 -1.2031 -0.1925  1.3920
 1008MOL0     H39066   7.212   8.368   8.934  0.4319  0.6966 -1.0619
 1008MOL0     H39067   7.403   8.377   9.112 -0.5975  0.3654 -0.2167
 1008MOL0     H39068   7.506   7.991   9.336 -0.6921  0.8695 -0.1157
 1008MOL0     H39069   7.552   8.010   9.161  0.0951 -0.3475 -0.1637
 1008MOL0     H39070   7.722   8.167   9.234  0.1322 -1.3917 -1.8429
 1008MOL0     H39071   7.655   8.147   9.408 -3.4786  0.9303 -0.4596
 1008MOL0     H39072   7.785   7.954   9.224 -0.5513  3.7613  0.0935
 1008MOL0     H39073   7.731   7.899   9.383  2.5814  0.5357  3.2340
 1008MOL0     H39074   7.857   8.084   9.496  2.0573  0.0628  0.4923
 1008MOL0     H39075   7.951   8.104   9.358  3.0850 -2.1795  0.7024
 1008MOL0     H39076   8.072   7.960   9.504 -1.0365  1.3999  0.7486
 1008MOL0     H39077   7.930   7.853   9.531  2.5813 -2.3268 -1.0549
 1008MOL0     H39078   7.950   7.780   9.290  1.4054 -1.7748 -0.3674
 1008MOL0     H39079   8.083   7.736   9.397 -1.7047 -1.9079  0.7180
 1008MOL0     H39080   8.039   7.934   9.169  0.5747 -0.5918 -0.8208
 1008MOL0     H39081   8.151   7.792   9.170 -1.0428 -1.2717  0.7058
 1008MOL0     H39082   8.209   8.033   9.346 -0.2301  1.6121 -2.1951
 1008MOL0     H39083   8.292   7.991   9.203  0.1631  4.1667  0.6811
 1008MOL0     H39084   7.277   7.980   9.233  0.4307 -0.6957 -0.0571
 1008MOL0     H39085   7.104   7.985   9.087  0.9356 -1.0456  1.3679
 1008MOL0     H39086   7.047   8.376   8.557 -1.6142  0.5187 -2.0071
 1008MOL0     H39087   6.835   8.446   8.436  0.1120  1.5689  2.5933
 1008MOL0     H39088   4.718   7.713   8.045  0.6028 -1.0025 -0.5911
 1008MOL0     H39089   4.618   7.472   8.118 -0.6194  0.1661  1.9231
 1008MOL0     H39090   4.552   7.215   8.074  2.7303  0.2561  4.2667
 1008MOL0     H39091   4.388   7.051   7.976  0.5717  1.3666 -3.4227
 1008MOL0     H39092   4.314   6.824   8.077 -0.0119  2.6136 -2.1930
 1008MOL0     H39093   4.234   6.845   7.924  0.6876  0.8894  1.1341
 1008MOL0     H39094   4.271   6.608   7.863  0.3601  0.1999 -0.9670
 1008MOL0     H39095   4.146   6.648   7.987  0.5307  1.7845  1.1507
 1008MOL0     H39096   4.414   6.523   8.042  0.1018  0.1801  0.5982
 1008MOL0     H39097   4.329   6.600   8.167 -0.2521 -1.3510  1.3529
 1008MOL0     H39098   4.286   6.331   8.077  0.6881  0.1063  1.3659
 1008MOL0     H39099   4.151   6.408   8.020 -1.9790 -0.9179  2.2032
 1008MOL0     H39100   4.099   6.400   8.443  0.1351  1.8922  0.2255
 1008MOL0     H39101   4.668   6.749   8.043 -2.7802 -0.4513  3.5088
 1008MOL0     H39102   4.946   6.946   8.172 -2.2592  1.7397  0.2720
 1008MOL0     H39103   4.859   6.808   8.213  1.3699 -0.7819  0.6356
 1008MOL0     H39104   4.926   6.829   8.043  2.2352 -0.9195  1.4779
 1009MOL0     O39105   1.614   4.520   2.603 -0.2157  0.0368 -0.2268
 1009MOL0     C39106   1.562   4.594   2.690 -0.2323 -1.1879  0.5986
 1009MOL0     O39107   1.617   4.625   2.811 -0.2284 -0.3604 -0.6335
 1009MOL0     C39108   1.750   4.589   2.831  0.7613  0.3750 -0.5695
 1009MOL0     C39109   1.781   4.493   2.932  0.2460 -0.2822  0.1137
 1009MOL0     C39110   1.909   4.442   2.946 -0.2459 -0.7899  0.1342
 1009MOL0     C39111   2.006   4.498   2.857  0.3144  0.3391  0.4427
 1009MOL0     O39112   2.140   4.480   2.859 -0.5406 -0.3277  0.0553
 1009MOL0     C39113   2.188   4.380   2.956  0.3658  0.8073  0.8538
 1009MOL0     C39114   2.342   4.367   2.955 -0.0173  0.4698  0.1677
 1009MOL0     C39115   2.396   4.308   2.824 -0.2940 -0.6457  0.1508
 1009MOL0     C39116   2.551   4.292   2.824  0.3257  0.2011 -0.3710
 1009MOL0     C39117   2.604   4.241   2.688 -0.6741 -0.5353  0.4706
 1009MOL0     C39118   2.595   4.355   2.586 -0.9802  0.9006  0.0953
 1009MOL0     C39119   2.669   4.482   2.604 -0.1271  0.2637  0.5263
 1009MOL0     C39120   2.803   4.488   2.527  0.2363 -0.5472 -0.2256
 1009MOL0     N39121   2.920   4.454   2.605  0.8037 -0.0318  0.3934
 1009MOL0     C39122   2.943   4.356   2.695 -0.3735  0.0976 -0.5100
 1009MOL0     C39123   3.078   4.345   2.715  0.3286 -0.5465 -0.4848
 1009MOL0     C39124   3.122   4.233   2.798 -0.1516 -0.0946  0.9325
 1009MOL0     C39125   3.246   4.273   2.873 -0.4947  0.0402 -0.4869
 1009MOL0     C39126   3.217   4.341   3.011 -0.0994 -0.0719  0.4393
 1009MOL0     C39127   3.338   4.411   3.065  0.1943  0.0466 -0.4389
 1009MOL0     O39128   3.449   4.320   3.080 -0.9000  0.0448 -0.1354
 1009MOL0     C39129   3.558   4.368   3.147  0.5083 -1.0480 -0.2499
 1009MOL0     C39130   3.561   4.474   3.234  0.0874 -0.0208  0.1160
 1009MOL0     C39131   3.663   4.513   3.306 -0.2984 -0.6808  0.8790
 1009MOL0     C39132   3.640   4.638   3.379 -0.3161 -0.0098 -0.0732
 1009MOL0     C39133   3.786   4.440   3.303  1.0280 -0.3131 -0.6370
 1009MOL0     C39134   3.903   4.482   3.376  1.0268  0.1787  0.2230
 1009MOL0     O39135   3.895   4.538   3.489  0.0102  0.2262  0.0439
 1009MOL0     C39136   3.987   4.492   3.585 -0.2689  0.5633 -0.2185
 1009MOL0     C39137   4.007   4.580   3.699 -0.5413 -0.5668  0.1198
 1009MOL0     C39138   4.079   4.533   3.807 -0.2543  0.2260 -0.4701
 1009MOL0     C39139   4.141   4.405   3.807  0.1370 -0.1322 -0.1020
 1009MOL0     O39140   4.241   4.380   3.905 -0.1163  0.1540 -0.3923
 1009MOL0     C39141   4.263   4.250   3.960  1.7786 -0.8494  0.1856
 1009MOL0     C39142   4.384   4.235   4.045 -0.2443  0.5139 -0.6812
 1009MOL0     C39143   4.508   4.204   3.951  0.3352  1.2463  0.5685
 1009MOL0     C39144   4.624   4.184   4.047  1.0169  0.5524  0.6536
 1009MOL0     C39145   4.749   4.166   3.967 -1.0713  1.1372  0.2928
 1009MOL0     C39146   4.885   4.160   4.037  0.2774  1.2155  0.2433
 1009MOL0     C39147   4.910   4.030   4.114  0.4408  0.2167  0.4195
 1009MOL0     C39148   5.016   4.038   4.226 -0.9799 -0.7519  0.7835
 1009MOL0    Cl39149   5.181   4.034   4.158  0.1053 -0.1124 -0.5695
 1009MOL0     C39150   4.103   4.318   3.701  0.4915 -0.4549 -0.1985
 1009MOL0     C39151   4.038   4.363   3.590  0.6716  0.0458  1.2243
 1009MOL0     O39152   4.005   4.462   3.320  0.1512  0.1861 -0.4829
 1009MOL0     C39153   3.791   4.337   3.206 -0.1497 -0.0761  1.0088
 1009MOL0     C39154   3.671   4.301   3.133 -0.0044 -0.4268 -0.8281
 1009MOL0     N39155   3.141   4.432   2.630  0.2432 -0.3283  0.0896
 1009MOL0     N39156   3.046   4.494   2.562 -0.1157 -0.0141 -0.2238
 1009MOL0     C39157   1.980   4.600   2.762  0.8689  1.4292 -0.3653
 1009MOL0     C39158   1.848   4.643   2.752 -0.6867 -0.0782 -0.2425
 1009MOL0     C39159   1.422   4.644   2.670 -0.2133 -0.7194  0.3143
 1009MOL0     C39160   1.357   4.705   2.777 -0.4886 -0.4339  0.1954
 1009MOL0     C39161   1.222   4.755   2.777 -0.9406 -0.2561 -0.0142
 1009MOL0     C39162   1.157   4.749   2.653 -0.0692  0.1779 -0.1313
 1009MOL0     O39163   1.019   4.772   2.650  0.0581  0.1608  0.4598
 1009MOL0     C39164   0.949   4.718   2.532 -0.2794  0.2398  0.7505
 1009MOL0     C39165   0.794   4.713   2.565 -0.1752 -0.5456  0.3165
 1009MOL0     C39166   0.728   4.844   2.525 -0.5142  0.6917 -0.7648
 1009MOL0     C39167   0.574   4.830   2.497  0.1607 -0.9968 -0.2434
 1009MOL0     C39168   0.518   4.960   2.466 -0.0672  0.8619 -0.6580
 1009MOL0     C39169   0.470   5.066   2.429  0.3808  0.1847  0.8165
 1009MOL0     C39170   1.223   4.680   2.550  0.8210 -1.0629  1.2587
 1009MOL0     C39171   1.353   4.635   2.551 -0.1906 -0.6725  0.5079
 1009MOL0     C39172   1.400   4.573   2.425  0.6418 -0.0466  0.1706
 1009MOL0     H39173   1.702   4.457   2.997 -0.5460  2.9496  1.1016
 1009MOL0     H39174   1.923   4.364   3.020 -1.4937 -0.1497  1.0746
 1009MOL0     H39175   2.154   4.283   2.919  0.7087  0.3451  1.7138
 1009MOL0     H39176   2.161   4.416   3.055 -1.2022  2.8743 -0.2532
 1009MOL0     H39177   2.396   4.460   2.974  0.2574 -0.0095  1.9068
 1009MOL0     H39178   2.350   4.295   3.037  0.8748  0.8386  0.4128
 1009MOL0     H39179   2.347   4.212   2.803  2.0018 -1.8863  0.2014
 1009MOL0     H39180   2.367   4.376   2.744  0.2871  1.5434  1.7306
 1009MOL0     H39181   2.594   4.387   2.858 -0.1821 -0.4392  2.3201
 1009MOL0     H39182   2.562   4.218   2.904 -3.5350 -0.0830  0.1167
 1009MOL0     H39183   2.543   4.155   2.661 -2.4437  1.3504 -1.9579
 1009MOL0     H39184   2.707   4.202   2.695 -1.3463 -2.4767  0.2785
 1009MOL0     H39185   2.628   4.300   2.497 -0.1066  0.1241  0.8802
 1009MOL0     H39186   2.492   4.392   2.580 -1.8225 -1.3332 -0.1033
 1009MOL0     H39187   2.691   4.501   2.710  0.0924  1.3741  0.3006
 1009MOL0     H39188   2.609   4.564   2.563  1.5105  0.3973 -1.8414
 1009MOL0     H39189   2.805   4.420   2.442 -0.2085 -1.3562  0.3989
 1009MOL0     H39190   2.808   4.589   2.484 -2.0742 -0.4017 -0.3222
 1009MOL0     H39191   2.873   4.306   2.760  2.0345 -0.6577  1.6510
 1009MOL0     H39192   3.135   4.146   2.733 -0.1723  1.7911 -1.7469
 1009MOL0     H39193   3.044   4.201   2.867  1.0081 -0.9447  1.8895
 1009MOL0     H39194   3.294   4.177   2.894  2.0587  0.7205 -2.7240
 1009MOL0     H39195   3.314   4.329   2.808  0.4402  0.1332  0.5401
 1009MOL0     H39196   3.143   4.419   2.994 -0.9870 -1.2244 -1.2691
 1009MOL0     H39197   3.166   4.268   3.075 -1.8955  0.4767 -0.3288
 1009MOL0     H39198   3.368   4.491   2.995 -2.6930 -0.1252 -2.0169
 1009MOL0     H39199   3.302   4.459   3.156  3.5958  0.2955  0.9353
 1009MOL0     H39200   3.473   4.537   3.242  0.4797  0.4711  0.7383
 1009MOL0     H39201   3.736   4.691   3.382 -0.9551  1.4606 -2.6829
 1009MOL0     H39202   3.620   4.625   3.486  4.6562  1.9942  1.4003
 1009MOL0     H39203   3.567   4.712   3.344  1.9001  1.3219 -2.2900
 1009MOL0     H39204   3.966   4.680   3.713  0.0676  0.0353 -2.0091
 1009MOL0     H39205   4.094   4.601   3.890 -1.6560  0.8705 -0.7330
 1009MOL0     H39206   4.183   4.235   4.033  1.5855 -3.1928 -0.4173
 1009MOL0     H39207   4.260   4.173   3.883  1.9328  0.0593 -0.7491
 1009MOL0     H39208   4.400   4.325   4.106  0.9160  0.2716 -0.5959
 1009MOL0     H39209   4.370   4.149   4.111  2.2642 -0.2105 -0.9651
 1009MOL0     H39210   4.516   4.284   3.878  1.4254  1.9840  1.4537
 1009MOL0     H39211   4.502   4.107   3.901 -2.4618  0.3515  2.4040
 1009MOL0     H39212   4.609   4.090   4.101  1.9285 -0.0847 -0.1622
 1009MOL0     H39213   4.640   4.278   4.101 -0.3649  1.0915  0.1698
 1009MOL0     H39214   4.733   4.079   3.903 -0.9018  0.1477  1.5513
 1009MOL0     H39215   4.761   4.250   3.898  0.0761  1.3350  0.7024
 1009MOL0     H39216   4.893   4.250   4.099  0.0425  1.9544 -0.7748
 1009MOL0     H39217   4.962   4.167   3.960  0.8554 -1.5413  0.4675
 1009MOL0     H39218   4.926   3.950   4.041  0.1980 -0.9182  1.5864
 1009MOL0     H39219   4.815   4.006   4.162 -0.7931  0.6615 -1.6663
 1009MOL0     H39220   5.006   3.947   4.286 -1.5899  0.7379  3.1159
 1009MOL0     H39221   5.002   4.111   4.307 -0.0289  1.8744 -1.2530
 1009MOL0     H39222   4.133   4.214   3.696 -2.6445 -1.4561 -1.1267
 1009MOL0     H39223   4.020   4.278   3.524  4.4998 -0.8929  1.1532
 1009MOL0     H39224   3.889   4.294   3.185  0.7869  2.9218 -1.5469
 1009MOL0     H39225   3.677   4.210   3.073  0.6174  0.6605 -2.4835
 1009MOL0     H39226   2.052   4.653   2.701  0.3871  1.7468 -0.6591
 1009MOL0     H39227   1.827   4.716   2.674 -2.4347 -0.4255 -0.1350
 1009MOL0     H39228   1.398   4.717   2.877 -2.4166 -2.5244  1.3426
 1009MOL0     H39229   1.172   4.804   2.860 -4.9339 -3.7583 -0.0281
 1009MOL0     H39230   0.963   4.771   2.437 -0.8201  0.7365  0.9480
 1009MOL0     H39231   0.978   4.616   2.502 -0.5101  0.1867  0.7040
 1009MOL0     H39232   0.777   4.701   2.673  0.4891  0.3015  0.5256
 1009MOL0     H39233   0.755   4.629   2.507  1.4085 -0.8647 -0.3535
 1009MOL0     H39234   0.752   4.919   2.601  1.9598  0.1022 -0.8840
 1009MOL0     H39235   0.787   4.875   2.438  2.4923 -3.2171 -0.3763
 1009MOL0     H39236   0.518   4.793   2.583 -0.6980 -0.7908 -0.7054
 1009MOL0     H39237   0.555   4.768   2.409 -0.1486  0.6309 -1.3642
 1009MOL0     H39238   0.422   5.151   2.385 -2.6006 -2.4088 -1.3515
 1009MOL0     H39239   1.165   4.665   2.459  1.2405  1.9061  0.3796
 1009MOL0     H39240   1.438   4.475   2.452  2.7313  0.6866  0.1350
 1009MOL0     H39241   1.321   4.565   2.349  1.3146  2.1069 -0.8651
 1009MOL0     H39242   1.485   4.625   2.379 -0.3190  0.4129 -1.1546
 1010MOL0     O39243   7.357   9.188   7.834 -0.0939  0.8473 -0.1658
 1010MOL0     C39244   7.281   9.161   7.735 -0.2420  0.9216  0.2939
 1010MOL0     O39245   7.317   9.175   7.600 -0.2548  0.2893 -0.1480
 1010MOL0     C39246   7.449   9.213   7.569 -0.8292 -0.1958 -0.0659
 1010MOL0     C39247   7.498   9.155   7.447  0.0004  0.4162 -0.4072
 1010MOL0     C39248   7.636   9.174   7.415  0.4694 -0.1855  0.3817
 1010MOL0     C39249   7.718   9.271   7.471  0.1132  0.2354 -0.7864
 1010MOL0     O39250   7.845   9.304   7.431  0.3308  0.5272  0.6214
 1010MOL0     C39251   7.903   9.198   7.358  0.1483 -0.4804  1.0612
 1010MOL0     C39252   8.044   9.234   7.331  1.0718  0.3388  0.2336
 1010MOL0     C39253   8.132   9.123   7.288  0.7080  0.9868  0.4527
 1010MOL0     C39254   8.273   9.164   7.306  1.2067 -0.1271 -0.1519
 1010MOL0     C39255   8.372   9.055   7.288  0.0510  0.5604  0.2305
 1010MOL0     C39256   8.516   9.111   7.300  0.0799 -0.2582 -0.0709
 1010MOL0     C39257   8.616   9.006   7.353 -0.0474  0.1689 -0.0583
 1010MOL0     C39258   8.653   8.886   7.258 -0.0326  0.0905  0.2964
 1010MOL0     N39259   8.775   8.817   7.301 -0.3843 -0.1535 -0.0928
 1010MOL0     C39260   8.781   8.727   7.404 -0.8981 -0.6333  0.4188
 1010MOL0     C39261   8.915   8.714   7.442 -0.0772  0.2318 -0.3654
 1010MOL0     C39262   8.961   8.634   7.558  0.1410  0.1617 -0.5370
 1010MOL0     C39263   9.033   8.722   7.672 -0.2977 -0.0668  0.0204
 1010MOL0     C39264   9.176   8.692   7.687 -0.0163 -0.1585 -0.3804
 1010MOL0     C39265   9.240   8.773   7.799  0.1539 -0.6644 -0.1242
 1010MOL0     O39266   9.255   8.912   7.765  0.4352 -0.7846 -1.0041
 1010MOL0     C39267   9.369   8.968   7.724  0.2234  0.4021  0.6334
 1010MOL0     C39268   9.365   9.108   7.722  0.0164 -0.5434 -0.0150
 1010MOL0     C39269   9.471   9.180   7.667 -0.1588 -0.2946  1.1515
 1010MOL0     C39270   9.455   9.329   7.657  0.2182  0.4080  0.1581
 1010MOL0     C39271   9.577   9.109   7.598  0.3447 -0.6401  0.3547
 1010MOL0     C39272   9.690   9.169   7.530 -1.0398 -0.2079 -0.0859
 1010MOL0     O39273   9.801   9.092   7.529  0.3033  1.0560 -0.1314
 1010MOL0     C39274   9.928   9.133   7.481 -0.8712 -0.2774  0.0598
 1010MOL0     C39275  10.043   9.101   7.562  0.1265 -0.3846  0.4766
 1010MOL0     C39276  10.172   9.120   7.518 -0.5779 -0.1016  0.2717
 1010MOL0     C39277  10.204   9.187   7.396  0.7955 -0.4550  0.0693
 1010MOL0     O39278  10.337   9.188   7.354  0.4661  0.3484 -0.2906
 1010MOL0     C39279  10.358   9.214   7.213 -0.3626  0.2408  0.3213
 1010MOL0     C39280  10.505   9.238   7.182  0.3655  0.8440 -0.3196
 1010MOL0     C39281  10.566   9.346   7.270 -0.5535 -0.3076  0.5474
 1010MOL0     C39282  10.708   9.371   7.230 -0.0569  0.4054  0.5321
 1010MOL0     C39283  10.789   9.479   7.308  0.0393 -0.3539 -1.2050
 1010MOL0     C39284  10.925   9.494   7.257 -0.2020 -0.0090  0.0121
 1010MOL0     C39285  11.020   9.576   7.353  0.6643 -0.6993  0.2582
 1010MOL0     C39286  11.161   9.572   7.301 -0.2798  0.1255  0.2439
 1010MOL0    Cl39287  11.270   9.642   7.423 -0.1683 -0.0432 -0.2419
 1010MOL0     C39288  10.090   9.243   7.327 -0.9221 -0.4344  0.4828
 1010MOL0     C39289   9.956   9.214   7.371  0.2444  0.2908  0.3289
 1010MOL0     O39290   9.686   9.284   7.490 -0.6301  0.7493 -0.0688
 1010MOL0     C39291   9.566   8.969   7.588 -0.3354 -0.4941  1.0439
 1010MOL0     C39292   9.472   8.899   7.650  1.6353  0.5247  1.3511
 1010MOL0     N39293   8.992   8.798   7.369  0.0545 -0.2280  0.7142
 1010MOL0     N39294   8.906   8.860   7.281  1.1485  1.1350  0.1262
 1010MOL0     C39295   7.660   9.336   7.582 -0.1155 -0.0296 -0.6252
 1010MOL0     C39296   7.533   9.299   7.636 -0.0421 -0.3977  0.4190
 1010MOL0     C39297   7.139   9.126   7.756 -0.8466 -0.6200 -0.7560
 1010MOL0     C39298   7.046   9.175   7.658  0.2334 -0.1549 -0.4002
 1010MOL0     C39299   6.917   9.158   7.691  0.7101 -1.0096 -0.2939
 1010MOL0     C39300   6.879   9.105   7.811 -0.2023  0.7614 -0.0253
 1010MOL0     O39301   6.745   9.101   7.824 -0.5807  0.1902  0.8411
 1010MOL0     C39302   6.686   9.154   7.938  0.1161  0.6285  1.7014
 1010MOL0     C39303   6.681   9.309   7.927  0.5599 -1.0339 -0.0126
 1010MOL0     C39304   6.619   9.375   8.048 -0.0558 -0.8218 -0.0207
 1010MOL0     C39305   6.479   9.322   8.085 -0.3778 -0.5089  0.0587
 1010MOL0     C39306   6.370   9.362   8.000  0.0936  0.4329  0.2618
 1010MOL0     C39307   6.265   9.394   7.932  0.4896  0.3953 -0.1982
 1010MOL0     C39308   6.972   9.030   7.893 -0.0626 -0.0998 -0.1657
 1010MOL0     C39309   7.104   9.046   7.865  0.3092 -0.9842 -0.5683
 1010MOL0     C39310   7.199   8.976   7.950 -0.5116  0.2186  0.4122
 1010MOL0     H39311   7.434   9.090   7.389 -1.3893  3.0951 -2.1045
 1010MOL0     H39312   7.664   9.135   7.317 -2.1796  1.2406 -1.0515
 1010MOL0     H39313   7.854   9.195   7.260 -1.5911  1.3768  1.7866
 1010MOL0     H39314   7.892   9.105   7.416  0.7907 -2.5470 -1.8891
 1010MOL0     H39315   8.038   9.296   7.241 -1.5851 -1.9846 -1.3690
 1010MOL0     H39316   8.072   9.283   7.425 -1.9493  0.1414  1.3677
 1010MOL0     H39317   8.110   9.028   7.338 -1.5556  0.8625 -0.6809
 1010MOL0     H39318   8.133   9.095   7.182 -1.2029  0.8395  0.4401
 1010MOL0     H39319   8.289   9.245   7.235 -0.6367  0.6153  0.2178
 1010MOL0     H39320   8.283   9.217   7.402 -2.4699  1.3304 -0.4415
 1010MOL0     H39321   8.358   9.011   7.189  0.7136  0.2754  0.2597
 1010MOL0     H39322   8.352   8.971   7.356  1.3508 -0.7758 -0.9913
 1010MOL0     H39323   8.546   9.141   7.199 -2.5576  3.0165 -0.0792
 1010MOL0     H39324   8.535   9.200   7.362  0.0111 -0.9780  1.0064
 1010MOL0     H39325   8.576   8.979   7.451 -1.1034  0.1243 -0.4760
 1010MOL0     H39326   8.711   9.053   7.378 -0.9012  2.0702 -0.1891
 1010MOL0     H39327   8.575   8.810   7.258  3.1342 -3.4552  0.3458
 1010MOL0     H39328   8.673   8.932   7.161  1.9292 -2.0266 -0.3859
 1010MOL0     H39329   8.700   8.679   7.459 -2.1561 -0.3028 -1.0759
 1010MOL0     H39330   9.036   8.559   7.532  0.9653  1.1719 -1.1313
 1010MOL0     H39331   8.872   8.581   7.596  0.9084 -0.3578  0.6020
 1010MOL0     H39332   9.031   8.828   7.644  3.2068  0.5035  1.4185
 1010MOL0     H39333   8.979   8.708   7.765 -0.2607  2.4375  0.4808
 1010MOL0     H39334   9.175   8.584   7.700 -3.1554 -0.3398 -1.2943
 1010MOL0     H39335   9.237   8.712   7.598 -0.9989 -2.3392 -1.5977
 1010MOL0     H39336   9.173   8.765   7.885 -0.8644  0.3120 -0.8011
 1010MOL0     H39337   9.337   8.730   7.824  1.1605  2.5281  2.2287
 1010MOL0     H39338   9.280   9.147   7.778  0.5595 -2.8084  2.6014
 1010MOL0     H39339   9.365   9.363   7.709  1.0062  5.7476 -1.4165
 1010MOL0     H39340   9.447   9.358   7.552 -1.5657  0.7588  0.3627
 1010MOL0     H39341   9.531   9.384   7.712 -0.5560 -0.1228  1.7993
 1010MOL0     H39342  10.035   9.056   7.660  0.2368 -1.3238  0.0600
 1010MOL0     H39343  10.244   9.083   7.590 -2.1976  0.9079  2.5425
 1010MOL0     H39344  10.315   9.135   7.151 -2.1828  2.4574 -1.4234
 1010MOL0     H39345  10.305   9.306   7.188 -1.7023 -0.4731  0.4510
 1010MOL0     H39346  10.562   9.146   7.198  2.0183  1.4945 -2.0359
 1010MOL0     H39347  10.513   9.266   7.076  0.6560  2.0932  0.0160
 1010MOL0     H39348  10.555   9.325   7.377 -2.5896 -0.5651  0.3237
 1010MOL0     H39349  10.519   9.444   7.258 -1.7942 -0.8022  1.2582
 1010MOL0     H39350  10.697   9.402   7.126 -0.8131 -1.8206 -0.1126
 1010MOL0     H39351  10.757   9.273   7.237 -0.3669  0.2346  0.3366
 1010MOL0     H39352  10.736   9.575   7.308 -0.2456 -0.5094 -0.9639
 1010MOL0     H39353  10.793   9.442   7.412  1.2338  2.7457 -0.0361
 1010MOL0     H39354  10.918   9.534   7.156  0.9720 -3.0060 -1.3809
 1010MOL0     H39355  10.971   9.395   7.254 -0.7079 -0.2372 -0.3683
 1010MOL0     H39356  11.014   9.533   7.453 -1.3958 -0.2439  0.3703
 1010MOL0     H39357  10.989   9.680   7.350 -1.4895 -1.2569 -3.8825
 1010MOL0     H39358  11.154   9.623   7.204 -1.3550 -0.1103  0.1784
 1010MOL0     H39359  11.210   9.480   7.270  2.8765  2.0492 -0.9528
 1010MOL0     H39360  10.110   9.310   7.243  1.2064 -2.4155 -0.6802
 1010MOL0     H39361   9.870   9.250   7.314 -0.9296 -2.3722  0.2922
 1010MOL0     H39362   9.648   8.912   7.544  0.7163  0.4526  1.7343
 1010MOL0     H39363   9.487   8.793   7.627  1.0950  1.3421 -4.2471
 1010MOL0     H39364   7.712   9.419   7.628 -2.1861  2.4710 -2.4863
 1010MOL0     H39365   7.500   9.345   7.729 -2.5960  0.7365 -0.9274
 1010MOL0     H39366   7.068   9.228   7.565 -0.4262  2.1500  0.6815
 1010MOL0     H39367   6.831   9.200   7.639  0.5005  3.7758  3.2798
 1010MOL0     H39368   6.585   9.115   7.948 -0.2454 -1.1284 -4.7070
 1010MOL0     H39369   6.748   9.133   8.026  1.8545  2.6790  1.0724
 1010MOL0     H39370   6.622   9.344   7.842  0.7503 -1.8741 -0.5019
 1010MOL0     H39371   6.776   9.359   7.905 -0.5633  1.8149  1.2376
 1010MOL0     H39372   6.692   9.362   8.128  1.5256  0.4318 -1.1803
 1010MOL0     H39373   6.630   9.480   8.019  0.9472 -0.7018  0.7610
 1010MOL0     H39374   6.459   9.353   8.188 -1.8687  2.0960 -0.9366
 1010MOL0     H39375   6.483   9.213   8.095  2.8638 -0.5847 -0.7416
 1010MOL0     H39376   6.182   9.431   7.875 -0.4544  1.1083  1.5740
 1010MOL0     H39377   6.939   8.970   7.978  4.3929  3.1815  4.4769
 1010MOL0     H39378   7.265   8.920   7.883 -0.9884 -0.1832  0.2686
 1010MOL0     H39379   7.261   9.041   8.014 -0.9656  2.4109 -1.2298
 1010MOL0     H39380   7.150   8.900   8.011 -1.2163 -0.1205 -0.5585
 1011MOL0     O39381  10.534   2.458   5.902  0.5211  0.3006 -0.0331
 1011MOL0     C39382  10.533   2.567   5.963  0.2769  0.2715  0.3685
 1011MOL0     O39383  10.432   2.653   5.970  0.6916  0.5629 -0.2479
 1011MOL0     C39384  10.319   2.634   5.894  0.1803 -0.7642  0.6744
 1011MOL0     C39385  10.269   2.731   5.805 -0.7954  0.2270 -0.2083
 1011MOL0     C39386  10.153   2.722   5.724 -0.2647  0.1301 -0.7084
 1011MOL0     C39387  10.076   2.602   5.733  0.2154  1.0171 -0.6652
 1011MOL0     O39388   9.960   2.573   5.657  0.1197 -0.1067 -0.2236
 1011MOL0     C39389   9.905   2.670   5.567 -0.4285 -0.4868 -0.4431
 1011MOL0     C39390   9.973   2.672   5.427  0.2033  0.7294 -0.1726
 1011MOL0     C39391   9.938   2.539   5.368 -0.2500  0.4644 -0.0778
 1011MOL0     C39392   9.973   2.541   5.226  0.5555  0.4158 -0.7374
 1011MOL0     C39393   9.949   2.413   5.146  0.8338 -0.8876 -0.8994
 1011MOL0     C39394   9.809   2.367   5.152 -0.9507 -0.2807 -0.8198
 1011MOL0     C39395   9.761   2.302   5.033 -0.7250 -0.2446 -0.5927
 1011MOL0     C39396   9.622   2.243   5.034  1.1193 -0.3640 -0.0584
 1011MOL0     N39397   9.600   2.116   5.108 -0.0814  0.5510  0.1425
 1011MOL0     C39398   9.536   2.005   5.049  0.4447  0.2377  0.4710
 1011MOL0     C39399   9.542   1.914   5.155  0.1702 -0.4368 -0.3488
 1011MOL0     C39400   9.502   1.773   5.142  0.0088  0.3807  0.9436
 1011MOL0     C39401   9.617   1.666   5.139  0.5213 -0.3725 -0.5645
 1011MOL0     C39402   9.704   1.692   5.022  0.6779  0.1756 -0.1660
 1011MOL0     C39403   9.818   1.597   5.001  0.0976 -0.0902 -0.0955
 1011MOL0     O39404   9.874   1.536   5.118  0.6799 -0.5267 -0.2394
 1011MOL0     C39405   9.995   1.575   5.153 -1.8214  0.4689  0.0318
 1011MOL0     C39406  10.104   1.592   5.059  0.7824 -1.0020  0.0687
 1011MOL0     C39407  10.231   1.638   5.090  0.2485  0.1275 -0.0996
 1011MOL0     C39408  10.326   1.667   4.980 -0.8362  0.4052 -0.2126
 1011MOL0     C39409  10.262   1.652   5.232  0.3718 -0.3365 -0.3272
 1011MOL0     C39410  10.397   1.692   5.284  0.4287 -0.0585 -0.6907
 1011MOL0     O39411  10.422   1.653   5.420 -0.7028 -0.7955  0.2154
 1011MOL0     C39412  10.538   1.687   5.485 -0.4985  0.9252  0.0282
 1011MOL0     C39413  10.666   1.695   5.422  0.5072  0.3443 -0.0419
 1011MOL0     C39414  10.776   1.723   5.505 -0.2070 -1.0655  0.7982
 1011MOL0     C39415  10.763   1.734   5.645 -0.2610 -1.0937  0.9406
 1011MOL0     O39416  10.866   1.786   5.723  0.5307 -0.3873 -0.6119
 1011MOL0     C39417  10.981   1.845   5.666 -0.3275  0.4770 -0.4309
 1011MOL0     C39418  11.050   1.913   5.779  0.3427  0.7763 -0.0415
 1011MOL0     C39419  11.191   1.952   5.744  0.3117 -0.5788 -1.1050
 1011MOL0     C39420  11.247   2.026   5.863 -0.7051 -0.3938  1.0239
 1011MOL0     C39421  11.383   2.089   5.828 -0.1648 -0.0599 -0.7136
 1011MOL0     C39422  11.455   2.154   5.946  0.7035  0.0282 -0.2585
 1011MOL0     C39423  11.594   2.202   5.895 -0.8435 -0.7397  0.1003
 1011MOL0     C39424  11.674   2.254   6.012 -1.0579  0.3587 -0.0914
 1011MOL0    Cl39425  11.816   2.356   5.971 -0.3137 -0.4842 -0.5932
 1011MOL0     C39426  10.642   1.719   5.700  0.2881 -0.2980 -0.1119
 1011MOL0     C39427  10.535   1.683   5.624  0.1072  0.0362 -0.7161
 1011MOL0     O39428  10.464   1.774   5.216 -0.1257 -0.2895 -0.0365
 1011MOL0     C39429  10.159   1.609   5.323 -0.2106 -0.2191  0.1853
 1011MOL0     C39430  10.033   1.571   5.287  0.6231 -0.4060 -0.2295
 1011MOL0     N39431   9.606   1.974   5.264  0.3781 -0.1575  0.5759
 1011MOL0     N39432   9.634   2.095   5.234 -0.2958 -0.7476 -0.5842
 1011MOL0     C39433  10.128   2.504   5.819 -0.2838  0.5693  0.2652
 1011MOL0     C39434  10.245   2.515   5.902 -0.0834 -0.2221  0.1845
 1011MOL0     C39435  10.663   2.602   6.031  0.9307  0.4476 -0.7538
 1011MOL0     C39436  10.692   2.734   6.057  0.5255 -0.7147  0.2868
 1011MOL0     C39437  10.810   2.777   6.110 -0.0759  0.4700 -0.1012
 1011MOL0     C39438  10.915   2.688   6.126  0.7660 -0.2646 -0.2867
 1011MOL0     O39439  11.048   2.722   6.148 -0.0037  0.1324  0.1187
 1011MOL0     C39440  11.089   2.860   6.135  0.7159 -0.0709  0.2960
 1011MOL0     C39441  11.109   2.908   5.991  0.3527  0.4112 -0.0176
 1011MOL0     C39442  11.162   3.056   5.986  1.1050 -0.7166  1.0368
 1011MOL0     C39443  11.049   3.163   6.012  0.0860  0.0612  0.0122
 1011MOL0     C39444  10.936   3.145   5.918  0.2387 -0.9239 -0.3195
 1011MOL0     C39445  10.835   3.140   5.847  0.3422 -0.7322  0.6031
 1011MOL0     C39446  10.886   2.553   6.119 -0.2499  0.2953  0.7214
 1011MOL0     C39447  10.761   2.505   6.064 -0.8006 -0.5166 -0.3010
 1011MOL0     C39448  10.746   2.353   6.051  0.0488  0.6726  0.4338
 1011MOL0     H39449  10.343   2.804   5.775 -2.1691  0.6030 -3.0197
 1011MOL0     H39450  10.132   2.801   5.653 -1.2494  1.8506  1.3739
 1011MOL0     H39451   9.912   2.770   5.609 -0.3899  0.2720 -2.1954
 1011MOL0     H39452   9.798   2.647   5.555 -0.3266 -0.6707 -1.0281
 1011MOL0     H39453   9.927   2.755   5.373  1.8717  0.4385 -2.2196
 1011MOL0     H39454  10.080   2.678   5.448  0.2326 -2.2249  1.0780
 1011MOL0     H39455   9.999   2.466   5.422 -1.5821  0.3424  1.3271
 1011MOL0     H39456   9.834   2.506   5.383  0.1911 -0.4810  1.1304
 1011MOL0     H39457   9.913   2.624   5.187 -0.2884 -0.3530 -1.1113
 1011MOL0     H39458  10.074   2.583   5.219  1.2935 -0.2683  3.2151
 1011MOL0     H39459  10.009   2.335   5.193  1.1237  0.7639  1.7003
 1011MOL0     H39460   9.982   2.421   5.042 -0.8543 -4.4263 -1.8403
 1011MOL0     H39461   9.781   2.309   5.241  1.8320  0.3628  0.6076
 1011MOL0     H39462   9.762   2.465   5.156  1.8223  1.1745 -1.2739
 1011MOL0     H39463   9.832   2.221   5.014  0.1426  0.3449  0.0334
 1011MOL0     H39464   9.771   2.378   4.955  1.4454  0.6005  0.4415
 1011MOL0     H39465   9.549   2.311   5.078  0.1326 -1.9181  0.7974
 1011MOL0     H39466   9.596   2.221   4.930 -2.1498 -0.0278  0.5981
 1011MOL0     H39467   9.499   1.998   4.947  2.0207  1.6159 -0.2447
 1011MOL0     H39468   9.431   1.768   5.059 -1.5942  1.5993  2.1787
 1011MOL0     H39469   9.437   1.760   5.229  0.3106 -2.0935  0.8651
 1011MOL0     H39470   9.671   1.690   5.231  3.8473 -3.9756 -1.3230
 1011MOL0     H39471   9.568   1.569   5.144  0.1738 -0.2712 -1.6738
 1011MOL0     H39472   9.647   1.683   4.929 -1.5135 -1.5880  1.2376
 1011MOL0     H39473   9.745   1.794   5.025 -0.8869  0.9551 -2.1751
 1011MOL0     H39474   9.786   1.512   4.940  0.1721 -0.5683  0.5086
 1011MOL0     H39475   9.889   1.646   4.934 -1.3568 -2.7005 -3.8213
 1011MOL0     H39476  10.086   1.576   4.953  2.1836 -0.2623 -0.2987
 1011MOL0     H39477  10.310   1.769   4.944  0.4723  0.3223 -1.1182
 1011MOL0     H39478  10.311   1.605   4.891  1.1217  2.5064 -2.1528
 1011MOL0     H39479  10.432   1.652   5.006 -0.9060  0.3784  0.0616
 1011MOL0     H39480  10.675   1.686   5.314  1.0130 -2.2902  0.1702
 1011MOL0     H39481  10.871   1.742   5.457 -0.7475 -1.3317 -0.4080
 1011MOL0     H39482  11.039   1.764   5.620 -2.4880  1.1261 -4.7747
 1011MOL0     H39483  10.945   1.920   5.595 -0.1185  0.5938 -0.4107
 1011MOL0     H39484  10.983   1.990   5.817 -1.3628 -1.0914  0.9661
 1011MOL0     H39485  11.050   1.840   5.861 -2.1961  1.3199  0.5338
 1011MOL0     H39486  11.188   2.016   5.656 -3.1725  1.7179  0.4629
 1011MOL0     H39487  11.242   1.856   5.730 -1.0691 -1.8216  1.5507
 1011MOL0     H39488  11.264   1.952   5.942  1.2942  1.1010  2.0793
 1011MOL0     H39489  11.178   2.106   5.891 -0.4012  1.2306 -2.2995
 1011MOL0     H39490  11.443   2.007   5.789  1.0122 -0.1112  1.0685
 1011MOL0     H39491  11.378   2.176   5.762  1.1529  3.1387  2.9971
 1011MOL0     H39492  11.472   2.079   6.023  1.2436  1.7462  1.3851
 1011MOL0     H39493  11.402   2.244   5.981  0.0933 -0.6628  0.6430
 1011MOL0     H39494  11.584   2.283   5.822  1.1991  0.9151  1.5400
 1011MOL0     H39495  11.645   2.130   5.830 -0.0096  0.3052 -0.4315
 1011MOL0     H39496  11.706   2.164   6.064  1.3772  0.2212 -1.6710
 1011MOL0     H39497  11.613   2.307   6.085  0.4870  1.0722  0.7198
 1011MOL0     H39498  10.631   1.727   5.807  2.2207 -0.9089  0.1813
 1011MOL0     H39499  10.437   1.689   5.670  0.9164  1.4819  0.8920
 1011MOL0     H39500  10.175   1.619   5.430 -0.5441 -0.9424  0.3038
 1011MOL0     H39501   9.957   1.547   5.360  1.9997  1.2549  1.8585
 1011MOL0     H39502  10.082   2.407   5.832  1.7456 -0.4927 -0.1049
 1011MOL0     H39503  10.274   2.439   5.974  1.3767  1.8702  1.9501
 1011MOL0     H39504  10.624   2.816   6.037 -0.3933 -1.1990  1.3259
 1011MOL0     H39505  10.818   2.883   6.130 -1.4018  1.1045 -2.4842
 1011MOL0     H39506  11.019   2.917   6.197  2.0911  0.1468  1.7317
 1011MOL0     H39507  11.183   2.854   6.190 -0.2074 -0.3483  1.9025
 1011MOL0     H39508  11.016   2.903   5.933 -0.7357  3.6179  1.2616
 1011MOL0     H39509  11.188   2.850   5.942  0.0116  0.5765 -0.7861
 1011MOL0     H39510  11.236   3.065   6.066 -1.3015 -0.4400  3.3830
 1011MOL0     H39511  11.196   3.090   5.888 -2.3363  2.5873  0.7490
 1011MOL0     H39512  11.098   3.261   6.013 -0.9671  0.6095  1.1570
 1011MOL0     H39513  10.999   3.153   6.109 -1.0056  0.5060 -0.4798
 1011MOL0     H39514  10.754   3.148   5.777  1.6569 -0.2198 -0.9256
 1011MOL0     H39515  10.960   2.477   6.143 -4.7393 -3.4677  4.6596
 1011MOL0     H39516  10.830   2.303   6.099 -0.3555 -1.6770 -1.1405
 1011MOL0     H39517  10.660   2.329   6.114  0.5422  2.9954  2.1315
 1011MOL0     H39518  10.736   2.310   5.951  1.2700 -0.8947  0.9394
 1012MOL0     O39519   1.012   0.672   7.255  0.3651  0.1872  0.3907
 1012MOL0     C39520   1.070   0.571   7.294  0.3151  0.0525  0.0830
 1012MOL0     O39521   1.202   0.554   7.280 -0.3468  0.0069 -0.3092
 1012MOL0     C39522   1.273   0.647   7.203  0.1805  0.6074 -0.9112
 1012MOL0     C39523   1.271   0.788   7.232  0.8733  0.0319  0.6877
 1012MOL0     C39524   1.327   0.882   7.143 -0.3721  0.4346  0.1367
 1012MOL0     C39525   1.394   0.830   7.026  0.9313 -0.2774  0.1770
 1012MOL0     O39526   1.453   0.915   6.944 -0.4271  0.3932 -0.5658
 1012MOL0     C39527   1.523   1.035   6.987  0.1311  0.3008 -0.0368
 1012MOL0     C39528   1.604   1.110   6.882  0.1990  0.9730  0.5357
 1012MOL0     C39529   1.576   1.256   6.893 -0.2590  0.9339 -0.7949
 1012MOL0     C39530   1.612   1.331   6.769 -0.2309 -0.2399  0.7136
 1012MOL0     C39531   1.506   1.331   6.655  0.1222  0.7777 -1.0802
 1012MOL0     C39532   1.562   1.425   6.542  0.0978 -0.4345  0.1051
 1012MOL0     C39533   1.434   1.458   6.449 -0.9224  0.0497 -0.9201
 1012MOL0     C39534   1.469   1.507   6.312 -0.1759  0.6402 -0.9295
 1012MOL0     N39535   1.556   1.627   6.319  0.1289  0.3687 -0.2625
 1012MOL0     C39536   1.554   1.750   6.383 -0.2301 -0.3579 -0.4951
 1012MOL0     C39537   1.673   1.816   6.362  0.0187 -0.8734 -0.0154
 1012MOL0     C39538   1.732   1.933   6.424 -0.0388 -0.9279  0.7131
 1012MOL0     C39539   1.769   1.915   6.567  0.4358 -0.0851 -0.6202
 1012MOL0     C39540   1.684   2.011   6.660  0.1087 -0.3048  0.3855
 1012MOL0     C39541   1.710   1.987   6.813  0.5389  0.0456 -0.7371
 1012MOL0     O39542   1.595   2.017   6.899  0.6002 -0.0084 -0.0144
 1012MOL0     C39543   1.521   1.916   6.957  0.4498 -0.0139  0.5623
 1012MOL0     C39544   1.453   1.830   6.871 -0.6293 -0.4670  0.1282
 1012MOL0     C39545   1.387   1.724   6.936  0.1167 -0.2604 -0.0320
 1012MOL0     C39546   1.291   1.638   6.841  0.4764 -0.2170  0.0689
 1012MOL0     C39547   1.396   1.693   7.074 -1.2873  0.6712  0.2260
 1012MOL0     C39548   1.351   1.568   7.128  0.5027 -0.1130 -0.8880
 1012MOL0     O39549   1.405   1.538   7.250 -0.2167 -0.5362  0.6620
 1012MOL0     C39550   1.378   1.428   7.319 -0.2097 -0.3146  0.1848
 1012MOL0     C39551   1.471   1.329   7.337  0.0668 -0.0234  0.4745
 1012MOL0     C39552   1.444   1.226   7.425 -0.2746  0.6366  0.9192
 1012MOL0     C39553   1.314   1.218   7.479  0.8828  0.5175 -0.5737
 1012MOL0     O39554   1.284   1.126   7.582  0.5959  0.0442  0.6582
 1012MOL0     C39555   1.316   0.987   7.558 -1.1900 -0.9078  0.8897
 1012MOL0     C39556   1.426   0.949   7.664  0.4460  0.4399 -0.4371
 1012MOL0     C39557   1.506   0.814   7.624  0.1016  0.0453 -0.8768
 1012MOL0     C39558   1.601   0.822   7.506  0.1997 -0.5233  0.2819
 1012MOL0     C39559   1.687   0.694   7.505  0.8398  0.6524 -0.4959
 1012MOL0     C39560   1.812   0.714   7.414 -0.4072  0.2347 -0.2582
 1012MOL0     C39561   1.795   0.777   7.280  0.1428 -0.2907 -0.2849
 1012MOL0     C39562   1.686   0.695   7.198 -0.9031 -0.3552 -0.3855
 1012MOL0    Cl39563   1.786   0.559   7.141 -0.4294  0.3276  0.1648
 1012MOL0     C39564   1.226   1.319   7.469 -0.8238 -0.8073  0.7381
 1012MOL0     C39565   1.255   1.422   7.381  0.5214 -0.0348  0.3804
 1012MOL0     O39566   1.262   1.501   7.077 -0.0797  0.4608  0.3191
 1012MOL0     C39567   1.468   1.785   7.148  0.2256 -0.4662 -0.3523
 1012MOL0     C39568   1.525   1.902   7.098  0.0795  0.5040  0.5641
 1012MOL0     N39569   1.744   1.739   6.278 -0.7220  0.4735 -0.0547
 1012MOL0     N39570   1.681   1.627   6.267  0.3041  0.4060 -0.1549
 1012MOL0     C39571   1.408   0.693   6.996  0.6682 -0.0838 -0.4247
 1012MOL0     C39572   1.348   0.602   7.091  0.1423  0.4868 -0.1066
 1012MOL0     C39573   0.991   0.461   7.350 -0.6089  0.3205 -0.6599
 1012MOL0     C39574   0.888   0.498   7.444  0.7458  0.6185 -0.8863
 1012MOL0     C39575   0.812   0.403   7.520 -1.0730 -0.1031 -0.7169
 1012MOL0     C39576   0.829   0.268   7.490 -0.5572  0.1574 -0.5639
 1012MOL0     O39577   0.737   0.181   7.537 -0.2420  0.1143  0.6554
 1012MOL0     C39578   0.620   0.153   7.456 -0.9961 -0.3491  0.1544
 1012MOL0     C39579   0.495   0.199   7.526  0.4117  0.6152  0.6136
 1012MOL0     C39580   0.497   0.179   7.684 -0.0635  0.3875  0.5678
 1012MOL0     C39581   0.372   0.225   7.747  0.3868 -0.2032  0.1984
 1012MOL0     C39582   0.367   0.197   7.887  0.3993 -0.4374  0.8969
 1012MOL0     C39583   0.380   0.180   8.005 -0.1006  0.2760 -0.9261
 1012MOL0     C39584   0.925   0.231   7.388  0.0664 -0.2701 -0.0880
 1012MOL0     C39585   1.004   0.322   7.318 -0.1349 -0.4187  0.6255
 1012MOL0     C39586   1.053   0.284   7.186 -0.0959 -0.5675  0.1240
 1012MOL0     H39587   1.205   0.823   7.312  1.3378  0.0007  1.0894
 1012MOL0     H39588   1.324   0.989   7.157  2.5339  0.4179  1.6244
 1012MOL0     H39589   1.589   1.011   7.071  1.0491  0.2446 -0.7513
 1012MOL0     H39590   1.441   1.101   7.016 -0.4116  0.0581 -0.9686
 1012MOL0     H39591   1.713   1.109   6.898  0.1145 -0.1551  1.1539
 1012MOL0     H39592   1.585   1.058   6.787 -0.3378 -0.5080  1.4207
 1012MOL0     H39593   1.470   1.271   6.913 -0.1348  0.7424  0.0629
 1012MOL0     H39594   1.624   1.284   6.988  0.3795 -2.0497 -0.1300
 1012MOL0     H39595   1.622   1.435   6.800  0.9999 -0.9193  2.8361
 1012MOL0     H39596   1.708   1.295   6.730 -0.1310 -2.6791  2.9237
 1012MOL0     H39597   1.417   1.359   6.712  1.8291  0.6013  1.8959
 1012MOL0     H39598   1.488   1.231   6.616 -3.8008  1.7271 -2.1765
 1012MOL0     H39599   1.609   1.516   6.581 -0.0872 -0.1712 -0.2893
 1012MOL0     H39600   1.637   1.375   6.481 -0.4727  1.1137 -1.9397
 1012MOL0     H39601   1.366   1.525   6.502  0.5252 -0.1449  1.3342
 1012MOL0     H39602   1.378   1.366   6.427 -1.9466  1.2413 -3.8095
 1012MOL0     H39603   1.527   1.430   6.262  0.4121 -2.0128  3.3297
 1012MOL0     H39604   1.388   1.522   6.240 -0.5560  0.9754 -0.4371
 1012MOL0     H39605   1.484   1.784   6.459 -3.6932  0.7179 -3.8520
 1012MOL0     H39606   1.662   2.016   6.413 -2.9506 -3.3443 -0.3086
 1012MOL0     H39607   1.825   1.952   6.369 -0.8981  1.0241 -0.1877
 1012MOL0     H39608   1.750   1.815   6.608 -2.9180  1.3288  1.7049
 1012MOL0     H39609   1.874   1.943   6.580  0.3821 -1.0462  3.0819
 1012MOL0     H39610   1.697   2.116   6.630 -0.0343 -0.4097 -0.0606
 1012MOL0     H39611   1.583   1.991   6.621  0.6016  0.7979 -1.6252
 1012MOL0     H39612   1.736   1.882   6.829  1.2802  0.1362 -1.2861
 1012MOL0     H39613   1.793   2.043   6.857 -2.9060  4.1463  1.3395
 1012MOL0     H39614   1.449   1.842   6.763 -1.5258  2.0838  0.3642
 1012MOL0     H39615   1.267   1.694   6.750 -0.0563  0.5222  0.6515
 1012MOL0     H39616   1.197   1.610   6.889  0.1349 -2.5157 -1.7474
 1012MOL0     H39617   1.339   1.542   6.818  1.7057  0.2296  0.6867
 1012MOL0     H39618   1.562   1.322   7.278  0.9517 -1.2613  1.9410
 1012MOL0     H39619   1.530   1.161   7.438 -0.9140 -0.0639  1.7980
 1012MOL0     H39620   1.228   0.924   7.567 -2.5534  0.5758 -1.0582
 1012MOL0     H39621   1.351   0.966   7.456 -4.3769 -2.1179 -0.0705
 1012MOL0     H39622   1.491   1.036   7.676 -2.4902  2.9153 -1.1066
 1012MOL0     H39623   1.373   0.936   7.759  0.7210 -0.5926 -0.4150
 1012MOL0     H39624   1.448   0.721   7.618 -1.7741  1.0153  0.7552
 1012MOL0     H39625   1.561   0.785   7.714 -1.2729 -0.5279 -0.1966
 1012MOL0     H39626   1.666   0.909   7.510 -0.5178  0.0768 -0.6582
 1012MOL0     H39627   1.539   0.829   7.416  1.9298 -0.4644 -0.9549
 1012MOL0     H39628   1.725   0.667   7.604  1.0247 -0.0587 -0.7501
 1012MOL0     H39629   1.624   0.611   7.471  1.4075  0.3405 -0.8100
 1012MOL0     H39630   1.867   0.620   7.409  1.1775  0.9601  2.0057
 1012MOL0     H39631   1.887   0.772   7.470  1.2669 -3.3613  1.5580
 1012MOL0     H39632   1.889   0.788   7.225  0.0983  2.9014  0.0845
 1012MOL0     H39633   1.766   0.879   7.304  2.2684 -0.4522  3.7474
 1012MOL0     H39634   1.638   0.750   7.116 -2.1441 -1.4606 -0.4190
 1012MOL0     H39635   1.596   0.661   7.251 -1.9073  2.9940  0.3085
 1012MOL0     H39636   1.133   1.324   7.524 -1.7748  1.1141 -0.9478
 1012MOL0     H39637   1.184   1.500   7.355  3.0951  1.8838 -1.4658
 1012MOL0     H39638   1.479   1.763   7.254 -2.9309  0.1230  0.2111
 1012MOL0     H39639   1.587   1.964   7.161 -0.2470  0.0492  1.3433
 1012MOL0     H39640   1.463   0.648   6.913 -0.7270  0.7087 -1.8268
 1012MOL0     H39641   1.343   0.494   7.086  0.4305  0.1181  4.0649
 1012MOL0     H39642   0.864   0.602   7.461 -1.8395 -0.2327  1.3134
 1012MOL0     H39643   0.751   0.434   7.604  1.2544 -0.6597  1.3035
 1012MOL0     H39644   0.638   0.211   7.365  3.0593  3.3953  2.8994
 1012MOL0     H39645   0.613   0.046   7.435  0.3544 -0.0420 -2.1578
 1012MOL0     H39646   0.409   0.142   7.488  0.5899  1.1477 -0.6455
 1012MOL0     H39647   0.475   0.304   7.500  1.2859  0.0317 -2.8585
 1012MOL0     H39648   0.524   0.076   7.710  0.2256 -0.2220 -1.9463
 1012MOL0     H39649   0.581   0.242   7.716 -0.3008  2.7227 -2.8867
 1012MOL0     H39650   0.294   0.161   7.705 -0.3323 -0.1063  1.3248
 1012MOL0     H39651   0.336   0.326   7.729 -0.9784 -0.3605  1.7941
 1012MOL0     H39652   0.398   0.168   8.110  0.0621  0.0163 -0.9837
 1012MOL0     H39653   0.927   0.129   7.350  0.6506 -0.3803  0.2429
 1012MOL0     H39654   1.029   0.178   7.171  1.8112 -0.9866 -0.2724
 1012MOL0     H39655   1.000   0.339   7.109 -1.4099 -1.3083  0.4704
 1012MOL0     H39656   1.161   0.301   7.194 -0.0625 -1.1525  1.1447
 1013MOL0     O39657   3.486   3.773  10.938 -0.0749  0.8234  0.6180
 1013MOL0     C39658   3.528   3.653  10.921  0.5643 -0.5373  0.3511
 1013MOL0     O39659   3.658   3.603  10.948 -0.7560 -0.1413 -0.3659
 1013MOL0     C39660   3.767   3.676  10.964 -0.7300 -0.1411  0.5646
 1013MOL0     C39661   3.862   3.606  11.027  0.0979  0.1894  0.2068
 1013MOL0     C39662   3.995   3.662  11.048  0.6566 -0.3563  0.1374
 1013MOL0     C39663   4.019   3.798  11.034  0.9661 -0.2348  0.4232
 1013MOL0     O39664   4.136   3.859  11.066  0.9695 -0.6717 -0.3883
 1013MOL0     C39665   4.190   3.796  11.184 -0.9714 -0.8450 -0.8137
 1013MOL0     C39666   4.316   3.722  11.155 -0.7024  0.0883  0.1683
 1013MOL0     C39667   4.446   3.808  11.139  0.2158  0.3793 -0.4683
 1013MOL0     C39668   4.451   3.912  11.027 -1.0541 -0.3969  0.4001
 1013MOL0     C39669   4.600   3.948  11.000  0.0315  0.0823 -0.6213
 1013MOL0     C39670   4.658   3.853  10.881  0.7455 -0.2955 -0.1601
 1013MOL0     C39671   4.806   3.881  10.871  1.1546  0.0472  0.0264
 1013MOL0     C39672   4.872   3.783  10.781 -0.5900 -0.0796 -0.4214
 1013MOL0     N39673   5.018   3.801  10.773 -0.0411 -0.5555 -0.0359
 1013MOL0     C39674   5.097   3.784  10.661 -0.1144  0.6793 -0.0993
 1013MOL0     C39675   5.227   3.796  10.699  0.0623 -0.9702 -0.0553
 1013MOL0     C39676   5.352   3.767  10.617 -0.6560 -0.0118 -0.8645
 1013MOL0     C39677   5.412   3.633  10.650  0.6425 -0.3705 -0.6771
 1013MOL0     C39678   5.328   3.503  10.622 -0.2137 -0.4115 -0.5142
 1013MOL0     C39679   5.341   3.456  10.475 -0.0484  1.0662  0.0605
 1013MOL0     O39680   5.286   3.537  10.372 -0.2585  0.7097 -0.0471
 1013MOL0     C39681   5.154   3.556  10.356 -0.6039 -0.5475 -0.1507
 1013MOL0     C39682   5.049   3.504  10.429 -0.7605  0.2642 -0.1270
 1013MOL0     C39683   4.924   3.564  10.426  0.6095  0.4266  0.0271
 1013MOL0     C39684   4.824   3.492  10.510  0.0743 -0.1486  0.3663
 1013MOL0     C39685   4.887   3.665  10.339 -0.7251 -0.1471  0.0329
 1013MOL0     C39686   4.754   3.728  10.344  0.8777  0.2956 -0.6390
 1013MOL0     O39687   4.687   3.723  10.222  0.5085  0.4358 -0.0182
 1013MOL0     C39688   4.572   3.801  10.217 -0.2821  0.1696 -0.4846
 1013MOL0     C39689   4.450   3.750  10.193  0.0517  0.9434  0.2573
 1013MOL0     C39690   4.337   3.835  10.209  0.2535  0.7665  0.1522
 1013MOL0     C39691   4.355   3.975  10.216 -0.4532 -0.5836 -0.6557
 1013MOL0     O39692   4.241   4.049  10.224  0.2062 -0.1596  0.1756
 1013MOL0     C39693   4.256   4.193  10.211  0.5239  0.5962 -0.0276
 1013MOL0     C39694   4.116   4.256  10.190  0.6121 -0.4992 -1.2721
 1013MOL0     C39695   4.111   4.411  10.175  0.2288 -0.5278 -0.2812
 1013MOL0     C39696   4.161   4.482  10.300  0.6361 -0.2956 -0.1081
 1013MOL0     C39697   4.184   4.631  10.277  0.1187 -0.8240  0.1093
 1013MOL0     C39698   4.227   4.698  10.408  0.7452  0.9776 -0.3134
 1013MOL0     C39699   4.267   4.843  10.388 -0.6006  0.0093  0.2848
 1013MOL0     C39700   4.285   4.916  10.523  0.8222  0.3669 -1.4459
 1013MOL0    Cl39701   4.114   4.955  10.583 -0.0345  0.0602  0.4297
 1013MOL0     C39702   4.485   4.024  10.220 -0.1931  0.0675 -0.2104
 1013MOL0     C39703   4.588   3.939  10.217 -0.2376  0.0224 -0.6178
 1013MOL0     O39704   4.709   3.765  10.454 -0.1367 -0.2835 -0.0899
 1013MOL0     C39705   4.995   3.700  10.247  0.1753  0.2059 -0.1253
 1013MOL0     C39706   5.126   3.654  10.265 -0.8823 -0.5263  0.4008
 1013MOL0     N39707   5.222   3.828  10.838 -0.3354 -0.1019  0.0917
 1013MOL0     N39708   5.099   3.830  10.876  0.5732  0.3854 -0.5380
 1013MOL0     C39709   3.914   3.878  10.977 -1.1041 -0.3767  0.5664
 1013MOL0     C39710   3.792   3.817  10.937 -0.0170  0.5901 -0.1720
 1013MOL0     C39711   3.424   3.567  10.855 -0.6897  0.9668 -0.6454
 1013MOL0     C39712   3.293   3.616  10.849 -0.2381 -0.5738 -0.1826
 1013MOL0     C39713   3.197   3.537  10.787  0.0494  0.1604  0.4273
 1013MOL0     C39714   3.216   3.410  10.741 -1.0927 -0.1156  1.0997
 1013MOL0     O39715   3.130   3.319  10.679  0.1167 -0.1915 -0.3501
 1013MOL0     C39716   2.995   3.370  10.635  1.1747  0.3502  0.0726
 1013MOL0     C39717   2.904   3.248  10.615 -0.5846 -0.0286  0.0731
 1013MOL0     C39718   2.963   3.147  10.517 -0.4260 -0.9288 -0.2700
 1013MOL0     C39719   2.935   3.212  10.380 -0.7785 -0.3349  0.5413
 1013MOL0     C39720   3.005   3.137  10.271  0.1770 -0.8277 -0.8578
 1013MOL0     C39721   3.074   3.077  10.187 -0.3700 -0.1540 -0.6248
 1013MOL0     C39722   3.342   3.361  10.757 -0.4472 -0.2502 -1.2713
 1013MOL0     C39723   3.448   3.433  10.809 -0.4565 -0.6769 -0.5156
 1013MOL0     C39724   3.584   3.363  10.805  0.6458  0.7310 -0.3227
 1013MOL0     H39725   3.849   3.498  11.034  4.0707 -0.3909  0.5454
 1013MOL0     H39726   4.064   3.583  11.076  0.9219  0.2018  1.1420
 1013MOL0     H39727   4.119   3.734  11.239  1.9439 -1.6977  2.3723
 1013MOL0     H39728   4.211   3.882  11.249 -2.1564  0.4850 -2.1450
 1013MOL0     H39729   4.339   3.647  11.231  2.6178 -1.3081 -1.9875
 1013MOL0     H39730   4.297   3.666  11.063  1.3220  1.0465 -0.9004
 1013MOL0     H39731   4.456   3.856  11.237  1.1157  1.7777 -1.2093
 1013MOL0     H39732   4.524   3.733  11.124 -0.5681 -0.5259 -0.1551
 1013MOL0     H39733   4.392   3.887  10.939 -2.0294  3.2196 -0.1415
 1013MOL0     H39734   4.396   4.000  11.060 -0.4956  0.9368 -2.0441
 1013MOL0     H39735   4.667   3.930  11.084 -1.7242  0.0897  0.8572
 1013MOL0     H39736   4.603   4.053  10.969  1.2484  0.7745  1.6659
 1013MOL0     H39737   4.636   3.751  10.913  1.9767 -0.0821  1.5169
 1013MOL0     H39738   4.600   3.884  10.793 -0.6799 -1.4834  0.3118
 1013MOL0     H39739   4.844   3.864  10.972 -1.0607 -2.9910  0.5201
 1013MOL0     H39740   4.828   3.981  10.834  2.2934 -1.7368 -4.8612
 1013MOL0     H39741   4.851   3.681  10.815  1.4163 -0.3865  0.0581
 1013MOL0     H39742   4.835   3.785  10.678 -2.8741 -1.1329  0.3067
 1013MOL0     H39743   5.069   3.749  10.562  2.1646 -1.4689 -0.0916
 1013MOL0     H39744   5.424   3.841  10.655 -0.5793 -1.5565  2.4512
 1013MOL0     H39745   5.337   3.779  10.510  2.4986 -1.7746 -1.6441
 1013MOL0     H39746   5.509   3.619  10.603  1.7249 -2.9568  1.9904
 1013MOL0     H39747   5.434   3.637  10.757 -0.4585 -1.7724 -0.3653
 1013MOL0     H39748   5.361   3.420  10.685 -0.6245  0.0445  0.3146
 1013MOL0     H39749   5.224   3.527  10.645  0.0456 -1.2233  1.7009
 1013MOL0     H39750   5.444   3.436  10.443 -0.6916 -0.5494 -1.2128
 1013MOL0     H39751   5.286   3.361  10.476 -1.2243  1.7230  0.1941
 1013MOL0     H39752   5.067   3.420  10.495 -1.2920  0.3701  0.1514
 1013MOL0     H39753   4.840   3.385  10.501 -1.7186 -0.6453  2.2519
 1013MOL0     H39754   4.722   3.512  10.473 -0.3672 -2.9855 -0.1727
 1013MOL0     H39755   4.819   3.519  10.616  2.6980 -0.9069  0.7499
 1013MOL0     H39756   4.430   3.643  10.193 -0.9714  0.9948 -3.7793
 1013MOL0     H39757   4.236   3.798  10.195  0.2085  0.7468  0.5132
 1013MOL0     H39758   4.293   4.223  10.310 -0.7751 -2.1311  1.3982
 1013MOL0     H39759   4.324   4.216  10.129  1.7948 -5.1999 -1.0678
 1013MOL0     H39760   4.063   4.211  10.105 -2.3801  0.2234  0.0707
 1013MOL0     H39761   4.045   4.231  10.269  0.1101 -0.2683 -1.6392
 1013MOL0     H39762   4.010   4.453  10.165 -0.5539 -1.8817  1.3264
 1013MOL0     H39763   4.165   4.440  10.085 -1.7060 -0.4455 -1.4813
 1013MOL0     H39764   4.252   4.439  10.342 -0.5375  0.3044  3.3921
 1013MOL0     H39765   4.082   4.472  10.375  1.1177  0.0082  0.4457
 1013MOL0     H39766   4.247   4.672  10.198 -1.5834  5.1642  1.3958
 1013MOL0     H39767   4.087   4.669  10.243 -0.2194 -1.0133  0.8472
 1013MOL0     H39768   4.315   4.656  10.459  1.2007  2.3712  0.1023
 1013MOL0     H39769   4.144   4.687  10.479  2.7989 -1.7872  1.9176
 1013MOL0     H39770   4.195   4.902  10.331 -0.3134  1.4374  1.3469
 1013MOL0     H39771   4.363   4.847  10.335 -1.4375  0.8551 -1.2150
 1013MOL0     H39772   4.331   5.012  10.499  0.3335  1.0787  0.3517
 1013MOL0     H39773   4.340   4.859  10.598  1.3595  1.4850 -0.9777
 1013MOL0     H39774   4.504   4.130  10.229 -4.3429  1.0138 -0.7948
 1013MOL0     H39775   4.690   3.972  10.231 -0.3173  1.3174 -2.6271
 1013MOL0     H39776   4.969   3.776  10.174  0.8236  0.2836 -0.2752
 1013MOL0     H39777   5.212   3.687  10.207 -1.1805  1.5086  1.0278
 1013MOL0     H39778   3.925   3.983  10.953 -0.1292 -0.9759 -1.8503
 1013MOL0     H39779   3.725   3.891  10.895  2.8094  3.8241  0.6170
 1013MOL0     H39780   3.262   3.717  10.876 -1.8156 -1.1971  0.4458
 1013MOL0     H39781   3.098   3.580  10.777 -1.0567 -2.3354 -0.3282
 1013MOL0     H39782   2.962   3.433  10.719 -1.6883 -1.0657  0.1404
 1013MOL0     H39783   3.008   3.435  10.548  1.2149 -0.5399 -0.5900
 1013MOL0     H39784   2.804   3.272  10.579 -1.0398 -0.2957  1.1286
 1013MOL0     H39785   2.891   3.200  10.712  1.5099 -0.8426  0.0198
 1013MOL0     H39786   3.072   3.139  10.524 -0.1681  1.0120 -1.3149
 1013MOL0     H39787   2.920   3.047  10.514 -0.6336 -0.8499  0.0965
 1013MOL0     H39788   2.963   3.317  10.373  0.2129 -0.6266  0.0113
 1013MOL0     H39789   2.828   3.216  10.357 -0.6587  0.7113  0.1433
 1013MOL0     H39790   3.127   3.021  10.113  0.3996  1.1168 -1.0609
 1013MOL0     H39791   3.378   3.268  10.713  2.5680  1.0802 -1.9251
 1013MOL0     H39792   3.655   3.429  10.755  2.3346  1.1346  2.3758
 1013MOL0     H39793   3.628   3.351  10.905 -0.8507 -1.4071  0.1485
 1013MOL0     H39794   3.587   3.260  10.768 -1.1289  1.0744 -1.5286
 1014MOL0     O39795   0.186   2.265   6.383 -0.0385 -0.6184 -0.1184
 1014MOL0     C39796   0.273   2.189   6.417 -0.2744 -0.7191 -0.5425
 1014MOL0     O39797   0.408   2.219   6.414  0.8555 -0.4202  0.1813
 1014MOL0     C39798   0.453   2.346   6.388 -0.0717 -0.5172 -0.0474
 1014MOL0     C39799   0.388   2.447   6.307  0.0285  0.5639 -0.2179
 1014MOL0     C39800   0.437   2.582   6.299  0.4281 -0.5740 -0.1852
 1014MOL0     C39801   0.545   2.611   6.379 -0.4121 -0.3244 -0.3652
 1014MOL0     O39802   0.610   2.735   6.392  0.1756  0.6424 -0.1969
 1014MOL0     C39803   0.529   2.848   6.341 -0.0533  0.3243  0.4030
 1014MOL0     C39804   0.597   2.982   6.362  0.8224  0.9707  1.1149
 1014MOL0     C39805   0.494   3.096   6.343  0.3272 -0.3178 -0.5362
 1014MOL0     C39806   0.541   3.214   6.418  0.5893 -0.5564  0.0164
 1014MOL0     C39807   0.434   3.327   6.396 -0.0272 -0.0070 -0.9017
 1014MOL0     C39808   0.481   3.468   6.437  0.6030  0.5214  0.7013
 1014MOL0     C39809   0.360   3.559   6.442 -0.6559  0.0783  0.8045
 1014MOL0     C39810   0.401   3.703   6.456  0.3010  0.6842 -0.3465
 1014MOL0     N39811   0.440   3.738   6.595 -0.6338  0.7622 -0.4846
 1014MOL0     C39812   0.568   3.733   6.647 -0.5057  0.0345 -1.9380
 1014MOL0     C39813   0.560   3.736   6.782  0.1664  0.2492  1.0767
 1014MOL0     C39814   0.674   3.743   6.878 -0.4222  0.1315 -0.4603
 1014MOL0     C39815   0.722   3.603   6.917 -0.5031 -0.6108  0.0935
 1014MOL0     C39816   0.845   3.599   7.010 -0.2489 -0.9470 -0.2357
 1014MOL0     C39817   0.927   3.485   6.980  0.0305 -0.5490 -0.4315
 1014MOL0     O39818   1.000   3.428   7.097 -0.5418 -0.3534 -0.0785
 1014MOL0     C39819   1.113   3.351   7.073  0.5014  0.6359  0.7114
 1014MOL0     C39820   1.201   3.332   7.180  0.0754  0.1149 -0.4396
 1014MOL0     C39821   1.328   3.269   7.172  0.9442 -0.7399 -0.3320
 1014MOL0     C39822   1.409   3.268   7.289 -0.3404 -0.7160 -0.1448
 1014MOL0     C39823   1.357   3.213   7.044 -0.9662 -0.2361  0.1063
 1014MOL0     C39824   1.475   3.140   7.003 -0.2449 -0.6107  0.4829
 1014MOL0     O39825   1.589   3.192   7.067 -0.2332 -0.0856 -0.1470
 1014MOL0     C39826   1.711   3.151   7.023 -0.4555 -0.1495  0.6381
 1014MOL0     C39827   1.810   3.250   7.016  0.0048  0.6640  1.0838
 1014MOL0     C39828   1.930   3.225   6.948 -0.6109  0.7000  0.7357
 1014MOL0     C39829   1.956   3.092   6.915 -0.1880  0.0506  0.4399
 1014MOL0     O39830   2.070   3.058   6.844 -0.6537  1.1824  0.9712
 1014MOL0     C39831   2.176   3.153   6.826 -0.9409 -0.0383 -0.5632
 1014MOL0     C39832   2.257   3.106   6.709 -0.5747  0.2269 -0.1772
 1014MOL0     C39833   2.208   3.163   6.578  0.5107 -0.5965  0.1468
 1014MOL0     C39834   2.283   3.126   6.453 -0.4921 -0.0701 -0.8721
 1014MOL0     C39835   2.218   3.153   6.320 -0.1848 -0.0646  0.1670
 1014MOL0     C39836   2.230   3.301   6.287 -0.2094  0.3217 -0.6967
 1014MOL0     C39837   2.139   3.330   6.159 -0.2837  0.7643  0.5735
 1014MOL0     C39838   2.178   3.455   6.085 -0.6462 -0.5964  0.4197
 1014MOL0    Cl39839   2.059   3.457   5.946  0.1204  0.5153  0.3808
 1014MOL0     C39840   1.868   2.991   6.943  0.1347  0.3047 -0.3142
 1014MOL0     C39841   1.748   3.021   6.997  0.0501 -0.5784  0.4588
 1014MOL0     O39842   1.475   3.059   6.910 -0.6782  0.5172 -0.4202
 1014MOL0     C39843   1.272   3.228   6.938 -0.5364 -0.2587  0.4536
 1014MOL0     C39844   1.151   3.298   6.948 -0.4703  0.1237 -0.5550
 1014MOL0     N39845   0.423   3.745   6.807  0.0450  0.2559  0.6067
 1014MOL0     N39846   0.360   3.743   6.698  0.0092 -0.6936 -0.1308
 1014MOL0     C39847   0.609   2.517   6.454 -0.5282 -0.1200  0.7584
 1014MOL0     C39848   0.564   2.385   6.461  0.4126 -0.5891 -0.1726
 1014MOL0     C39849   0.231   2.052   6.458 -0.1591 -0.3062 -0.5748
 1014MOL0     C39850   0.304   1.991   6.551 -1.2801  0.8783 -0.2064
 1014MOL0     C39851   0.283   1.858   6.589 -1.3712 -0.0376  0.5204
 1014MOL0     C39852   0.175   1.785   6.539  0.6917 -0.5490 -0.1654
 1014MOL0     O39853   0.142   1.660   6.573 -1.0927  0.4994  0.7722
 1014MOL0     C39854   0.214   1.598   6.679  0.8270 -0.4476  0.1740
 1014MOL0     C39855   0.133   1.478   6.718 -0.1203 -0.8977 -0.0841
 1014MOL0     C39856   0.039   1.493   6.835 -0.4252 -0.5219  0.0582
 1014MOL0     C39857  -0.055   1.613   6.827 -0.5875 -0.0106  1.2522
 1014MOL0     C39858   0.001   1.737   6.891 -0.5253  0.6179  0.6134
 1014MOL0     C39859   0.049   1.833   6.947 -0.4785  0.1662 -0.7440
 1014MOL0     C39860   0.084   1.858   6.471  0.7567  1.1166 -1.3005
 1014MOL0     C39861   0.105   1.986   6.419  0.1804 -1.0028 -0.6362
 1014MOL0     C39862   0.002   2.041   6.327  0.0044 -0.0121 -0.5937
 1014MOL0     H39863   0.298   2.423   6.251 -0.5095  1.2315  0.3364
 1014MOL0     H39864   0.395   2.658   6.233  3.0202 -0.3363 -1.6823
 1014MOL0     H39865   0.432   2.855   6.391 -1.0095 -0.5063 -1.2678
 1014MOL0     H39866   0.503   2.839   6.235  0.7929  0.4702  0.1711
 1014MOL0     H39867   0.653   2.996   6.455  3.5288  1.1541 -0.4414
 1014MOL0     H39868   0.665   2.985   6.276  0.6770 -0.5095  0.9083
 1014MOL0     H39869   0.476   3.116   6.237 -0.7717 -0.8774 -0.4712
 1014MOL0     H39870   0.395   3.075   6.385 -0.7654  2.6915 -1.3568
 1014MOL0     H39871   0.539   3.190   6.524 -2.3828  3.9366  1.2044
 1014MOL0     H39872   0.640   3.236   6.377  0.9413 -2.2182 -0.1027
 1014MOL0     H39873   0.345   3.301   6.454 -0.1295  1.8627 -0.1382
 1014MOL0     H39874   0.411   3.332   6.289 -2.2823 -0.4528 -0.4949
 1014MOL0     H39875   0.517   3.457   6.539  0.4144  0.4024  0.7549
 1014MOL0     H39876   0.561   3.501   6.370 -1.1514  0.7245 -1.4097
 1014MOL0     H39877   0.317   3.526   6.536 -0.9428 -1.2820  0.2183
 1014MOL0     H39878   0.295   3.559   6.354 -1.5277 -3.9470  1.2926
 1014MOL0     H39879   0.475   3.727   6.380  1.6334 -0.5443  0.5231
 1014MOL0     H39880   0.314   3.764   6.430 -1.1307 -0.6296  1.0599
 1014MOL0     H39881   0.664   3.722   6.597  0.5643 -0.1485  0.0723
 1014MOL0     H39882   0.642   3.792   6.970  1.0452  2.4215 -1.0876
 1014MOL0     H39883   0.765   3.798   6.850  1.4573 -1.0290  2.8123
 1014MOL0     H39884   0.642   3.551   6.970 -0.7270  0.5212  0.8997
 1014MOL0     H39885   0.745   3.555   6.822 -0.3999  2.1139 -1.3575
 1014MOL0     H39886   0.913   3.685   7.005  0.1171 -1.2067  0.2002
 1014MOL0     H39887   0.811   3.589   7.114 -1.7318  1.8772 -0.3303
 1014MOL0     H39888   0.865   3.403   6.944  0.7785 -1.7675  0.8909
 1014MOL0     H39889   1.000   3.516   6.905  0.8423 -4.3146 -1.3995
 1014MOL0     H39890   1.179   3.377   7.276  5.0423  1.0949  0.5134
 1014MOL0     H39891   1.359   3.268   7.386  0.0407  0.6127  0.0778
 1014MOL0     H39892   1.475   3.355   7.278 -2.7713  1.2009 -0.5443
 1014MOL0     H39893   1.468   3.176   7.286  0.9949  0.0888  0.7701
 1014MOL0     H39894   1.784   3.348   7.054  3.3500  3.2949 -2.5866
 1014MOL0     H39895   2.004   3.304   6.944 -1.4921  1.5912  1.5405
 1014MOL0     H39896   2.138   3.253   6.804 -0.7426  0.0183 -0.6508
 1014MOL0     H39897   2.228   3.139   6.922  0.0407 -2.1369 -1.3341
 1014MOL0     H39898   2.359   3.141   6.726 -0.7864  0.4607  0.6425
 1014MOL0     H39899   2.254   2.996   6.706 -2.0425  0.2322 -3.9529
 1014MOL0     H39900   2.220   3.271   6.589  2.6020 -0.7791 -0.0720
 1014MOL0     H39901   2.104   3.136   6.558  0.7158  0.9988 -4.2330
 1014MOL0     H39902   2.291   3.017   6.447 -0.3469 -0.0816 -0.5055
 1014MOL0     H39903   2.379   3.178   6.457  0.5649 -1.7121 -2.9321
 1014MOL0     H39904   2.279   3.102   6.246  2.0163  1.9738  0.4697
 1014MOL0     H39905   2.114   3.118   6.322  0.0148 -0.6805  0.0258
 1014MOL0     H39906   2.337   3.320   6.273  0.2506 -1.7897 -0.3349
 1014MOL0     H39907   2.185   3.360   6.368 -0.6641  2.2851 -2.2951
 1014MOL0     H39908   2.032   3.336   6.183 -0.9099  0.6164 -1.8751
 1014MOL0     H39909   2.141   3.248   6.086  1.1237 -0.2258  1.6701
 1014MOL0     H39910   2.281   3.456   6.050 -1.5505 -0.2622 -2.4887
 1014MOL0     H39911   2.164   3.544   6.146 -1.5425 -0.6042  0.2438
 1014MOL0     H39912   1.893   2.893   6.903 -0.4304  0.9038 -2.2215
 1014MOL0     H39913   1.690   2.931   7.013  0.9964 -1.7283 -2.0152
 1014MOL0     H39914   1.287   3.180   6.842 -0.7191 -3.1209  1.7694
 1014MOL0     H39915   1.087   3.292   6.861  0.3946  0.4433 -1.2366
 1014MOL0     H39916   0.697   2.528   6.517 -0.1293  1.8232 -0.0906
 1014MOL0     H39917   0.616   2.306   6.515  0.3382  0.7269  1.9500
 1014MOL0     H39918   0.386   2.043   6.600 -1.1988  0.5898 -0.0380
 1014MOL0     H39919   0.356   1.809   6.653  1.8328  1.3727 -1.7753
 1014MOL0     H39920   0.316   1.572   6.650  1.8964  2.0232  1.4260
 1014MOL0     H39921   0.230   1.654   6.772 -0.1310  0.2397 -0.0612
 1014MOL0     H39922   0.194   1.393   6.748 -2.3486 -2.0598  1.3663
 1014MOL0     H39923   0.075   1.440   6.633 -0.7725 -2.4320  1.0076
 1014MOL0     H39924  -0.023   1.403   6.845  0.6939 -1.2533  0.5963
 1014MOL0     H39925   0.103   1.502   6.923  0.2798  1.6155 -0.6098
 1014MOL0     H39926  -0.136   1.595   6.897 -0.9883  1.3384  1.1549
 1014MOL0     H39927  -0.093   1.624   6.725  2.7025  1.8287  0.0643
 1014MOL0     H39928   0.109   1.915   6.982  0.9482 -1.7818  1.6966
 1014MOL0     H39929  -0.009   1.806   6.449 -0.1190  2.0887 -0.0253
 1014MOL0     H39930   0.042   2.122   6.265 -1.2253 -0.0579 -1.4957
 1014MOL0     H39931  -0.025   1.964   6.253  3.8141 -0.8937 -1.2391
 1014MOL0     H39932  -0.085   2.089   6.374  0.2297  2.2742 -2.3244
 1015MOL0     O39933  10.390   9.390   3.986  0.3175 -0.3258 -0.4369
 1015MOL0     C39934  10.297   9.318   4.023 -1.0781 -0.8611  0.0694
 1015MOL0     O39935  10.287   9.263   4.146  0.4289  0.2875  0.0940
 1015MOL0     C39936  10.411   9.230   4.211 -0.3255 -0.5804 -0.1663
 1015MOL0     C39937  10.441   9.092   4.207 -0.3210  0.4655 -0.0616
 1015MOL0     C39938  10.555   9.042   4.280 -0.0825  0.0415 -0.7335
 1015MOL0     C39939  10.646   9.123   4.345  0.0917 -0.5015 -0.6766
 1015MOL0     O39940  10.765   9.066   4.395  0.5365  0.3302  0.9665
 1015MOL0     C39941  10.857   9.150   4.476  0.3078  0.4238 -0.5444
 1015MOL0     C39942  10.980   9.064   4.500 -0.6779 -0.3885 -0.8772
 1015MOL0     C39943  10.950   8.926   4.563  0.4074  0.3697 -0.3575
 1015MOL0     C39944  11.071   8.861   4.620 -0.4431  0.4541  0.3217
 1015MOL0     C39945  11.189   8.836   4.529  0.6184 -0.0148 -0.3089
 1015MOL0     C39946  11.178   8.729   4.415  0.7786  0.4699  0.1250
 1015MOL0     C39947  11.184   8.577   4.463 -0.6830  0.5760  0.2212
 1015MOL0     C39948  11.197   8.474   4.345  0.6916 -0.0525 -0.0867
 1015MOL0     N39949  11.335   8.423   4.336 -0.0918 -0.6111  0.6530
 1015MOL0     C39950  11.446   8.499   4.370  0.4329 -0.5099  0.1757
 1015MOL0     C39951  11.551   8.423   4.336  0.3064 -0.2048  0.3777
 1015MOL0     C39952  11.689   8.472   4.319 -0.4760  0.3725  0.0509
 1015MOL0     C39953  11.790   8.387   4.390  0.2148 -0.2801  0.1503
 1015MOL0     C39954  11.810   8.426   4.537  0.2323 -1.5701  0.7701
 1015MOL0     C39955  11.919   8.343   4.617  0.1434 -1.0922  0.2612
 1015MOL0     O39956  12.038   8.411   4.589 -0.1179  0.2470  0.7971
 1015MOL0     C39957  12.137   8.414   4.684 -0.1757  0.6516 -0.3713
 1015MOL0     C39958  12.150   8.326   4.791  0.7476 -0.2722  0.2253
 1015MOL0     C39959  12.265   8.329   4.872  0.1897  0.2182 -0.1467
 1015MOL0     C39960  12.262   8.244   4.993  0.1211 -0.2486 -0.6985
 1015MOL0     C39961  12.368   8.421   4.843 -0.0335  0.8561 -0.5546
 1015MOL0     C39962  12.497   8.417   4.916  0.1519 -0.7418 -0.7124
 1015MOL0     O39963  12.557   8.535   4.943  0.2049  0.1749  0.0484
 1015MOL0     C39964  12.676   8.534   5.007 -0.1114 -0.2373 -0.7822
 1015MOL0     C39965  12.675   8.571   5.147  0.2405 -1.0864  0.2143
 1015MOL0     C39966  12.797   8.572   5.218  0.1641 -0.3338 -0.6784
 1015MOL0     C39967  12.919   8.552   5.159  0.2238  1.4137  1.1628
 1015MOL0     O39968  13.037   8.574   5.215 -0.9449  0.4488  0.4543
 1015MOL0     C39969  13.041   8.650   5.336  0.1567 -0.7951  0.5746
 1015MOL0     C39970  13.189   8.684   5.363 -0.3142  0.5396 -0.2602
 1015MOL0     C39971  13.209   8.787   5.470  0.9285 -0.4545 -0.2155
 1015MOL0     C39972  13.170   8.727   5.604  0.6305  0.2802 -0.5127
 1015MOL0     C39973  13.196   8.818   5.726  0.3219 -1.2986  0.4228
 1015MOL0     C39974  13.110   8.775   5.850 -0.8831  0.5349  0.7941
 1015MOL0     C39975  13.134   8.840   5.983 -0.2664 -1.1051  0.0847
 1015MOL0     C39976  13.075   8.765   6.105 -0.0094  0.4590  0.0101
 1015MOL0    Cl39977  13.179   8.620   6.135  0.5413  0.1088  0.0880
 1015MOL0     C39978  12.920   8.515   5.024  0.2721 -0.0227 -0.5370
 1015MOL0     C39979  12.801   8.512   4.951 -0.2250 -0.8520  0.3723
 1015MOL0     O39980  12.545   8.308   4.938  0.2325  0.5170 -0.5032
 1015MOL0     C39981  12.353   8.505   4.727 -0.1346 -0.1099 -0.7638
 1015MOL0     C39982  12.241   8.500   4.652  0.0130  0.1523  0.5968
 1015MOL0     N39983  11.508   8.293   4.311  0.8850  0.6887  0.0537
 1015MOL0     N39984  11.374   8.296   4.296 -0.0510  0.4252 -0.0165
 1015MOL0     C39985  10.608   9.259   4.354 -0.9778 -0.3712  0.1138
 1015MOL0     C39986  10.499   9.313   4.280 -0.2279 -0.6001  0.2364
 1015MOL0     C39987  10.186   9.303   3.925  0.1424  0.2111  0.0951
 1015MOL0     C39988  10.081   9.209   3.952  0.7301  0.3764 -0.3048
 1015MOL0     C39989   9.981   9.183   3.852 -0.1117  0.2334 -0.4607
 1015MOL0     C39990   9.980   9.241   3.731  0.1914  0.4235  0.6291
 1015MOL0     O39991   9.893   9.196   3.635 -0.4657 -0.1705  0.2983
 1015MOL0     C39992   9.818   9.301   3.563 -0.1065  0.3825 -0.4540
 1015MOL0     C39993   9.701   9.241   3.497  0.0679  0.1063 -0.1594
 1015MOL0     C39994   9.599   9.189   3.594  0.0099  0.0254 -0.2623
 1015MOL0     C39995   9.459   9.255   3.583  0.1460 -0.8446 -0.1559
 1015MOL0     C39996   9.376   9.208   3.689  0.1109 -0.0884 -0.3214
 1015MOL0     C39997   9.293   9.181   3.775  0.6169  0.1780  0.5463
 1015MOL0     C39998  10.082   9.321   3.699 -0.1832 -0.6584 -0.7478
 1015MOL0     C39999  10.178   9.361   3.794  0.2439 -0.0701 -0.1027
 1015MOL0     C40000  10.277   9.462   3.733 -0.6850 -0.2562 -0.5065
 1015MOL0     H40001  10.379   9.022   4.152  2.9963 -1.8976 -1.1173
 1015MOL0     H40002  10.575   8.937   4.265  0.9048  0.4612 -2.5578
 1015MOL0     H40003  10.819   9.183   4.574  2.7138  0.2698  0.4981
 1015MOL0     H40004  10.882   9.237   4.415 -2.7295 -0.6801 -3.6973
 1015MOL0     H40005  11.029   9.053   4.403  1.0237 -0.3533 -0.0618
 1015MOL0     H40006  11.044   9.119   4.570 -1.1568  0.8819 -1.4215
 1015MOL0     H40007  10.886   8.934   4.651 -2.5885 -1.1763 -2.2279
 1015MOL0     H40008  10.904   8.863   4.485  0.5511  1.5276 -1.4122
 1015MOL0     H40009  11.112   8.926   4.697  2.7418  0.0061 -0.8624
 1015MOL0     H40010  11.036   8.767   4.666  1.3427  0.4956  1.8792
 1015MOL0     H40011  11.277   8.818   4.590 -1.0524  0.3193  2.3746
 1015MOL0     H40012  11.204   8.936   4.488 -0.9225  1.2097  1.9003
 1015MOL0     H40013  11.083   8.748   4.365 -0.2506 -2.2376  0.8822
 1015MOL0     H40014  11.253   8.749   4.337 -2.4962 -0.9157 -3.7510
 1015MOL0     H40015  11.091   8.563   4.518 -0.9110  0.6106 -0.1521
 1015MOL0     H40016  11.270   8.551   4.525  0.8556  0.8672 -1.6974
 1015MOL0     H40017  11.131   8.389   4.364 -0.7233  0.9006 -0.5629
 1015MOL0     H40018  11.176   8.510   4.244 -0.3121 -1.1788 -0.2951
 1015MOL0     H40019  11.452   8.604   4.397  3.1390 -0.3465 -0.7548
 1015MOL0     H40020  11.695   8.575   4.354  0.4443  0.3441 -0.0088
 1015MOL0     H40021  11.704   8.461   4.211  3.1090 -0.6498  0.5192
 1015MOL0     H40022  11.760   8.283   4.377  0.1298 -0.6028  2.5677
 1015MOL0     H40023  11.891   8.390   4.348 -0.9453 -0.8742 -2.9752
 1015MOL0     H40024  11.825   8.533   4.550 -1.6108 -0.9628 -1.3395
 1015MOL0     H40025  11.712   8.408   4.582 -1.1169  1.9231 -0.4119
 1015MOL0     H40026  11.895   8.347   4.724  1.1682  1.6048  0.4648
 1015MOL0     H40027  11.914   8.238   4.587 -2.2610 -0.8402 -0.4604
 1015MOL0     H40028  12.065   8.264   4.816  0.5273  0.0535  0.2935
 1015MOL0     H40029  12.257   8.310   5.080 -1.5868 -0.5295 -0.5419
 1015MOL0     H40030  12.349   8.178   5.003 -0.2432 -0.3911  2.9650
 1015MOL0     H40031  12.171   8.184   5.005 -1.0089  1.5293  0.0604
 1015MOL0     H40032  12.580   8.584   5.198 -0.8278  1.1462 -2.1453
 1015MOL0     H40033  12.790   8.611   5.319 -1.6650 -0.5517 -0.6807
 1015MOL0     H40034  12.990   8.745   5.315  5.7282  2.4462 -0.3883
 1015MOL0     H40035  13.001   8.602   5.426  0.2226 -3.3694 -0.6746
 1015MOL0     H40036  13.239   8.592   5.397 -0.8993  0.0892 -0.6082
 1015MOL0     H40037  13.245   8.733   5.283 -0.5463  2.3349  0.6233
 1015MOL0     H40038  13.162   8.885   5.456  1.0639  0.0128  2.2501
 1015MOL0     H40039  13.316   8.807   5.472  0.9493  0.0448 -2.8166
 1015MOL0     H40040  13.210   8.628   5.629 -1.4435 -0.2978  0.8049
 1015MOL0     H40041  13.065   8.696   5.605  0.2114  1.4477  2.4646
 1015MOL0     H40042  13.303   8.825   5.748  0.0659 -0.4239  1.4472
 1015MOL0     H40043  13.166   8.921   5.706  2.0943 -0.7681  0.3881
 1015MOL0     H40044  13.123   8.667   5.859  2.4267  0.7972  0.2409
 1015MOL0     H40045  13.003   8.788   5.829 -0.9993 -1.8493 -0.3969
 1015MOL0     H40046  13.095   8.942   5.976  1.5314 -0.4740 -1.8785
 1015MOL0     H40047  13.240   8.859   6.002 -0.1298  1.2874 -2.4241
 1015MOL0     H40048  12.971   8.733   6.094  0.1919 -0.3437  0.4157
 1015MOL0     H40049  13.064   8.830   6.192 -5.1497  0.4019 -0.2823
 1015MOL0     H40050  13.014   8.484   4.978  0.4359 -3.9238  1.9722
 1015MOL0     H40051  12.822   8.503   4.845  1.2108  5.5967 -0.3363
 1015MOL0     H40052  12.426   8.577   4.691  1.8090 -2.8511 -2.7287
 1015MOL0     H40053  12.233   8.542   4.552  1.4671 -2.1192 -0.5422
 1015MOL0     H40054  10.680   9.326   4.398 -0.0216 -2.2235  1.5121
 1015MOL0     H40055  10.475   9.419   4.280 -1.7195 -0.8430  2.7864
 1015MOL0     H40056  10.095   9.159   4.048  0.3822 -0.6110 -0.7519
 1015MOL0     H40057   9.911   9.111   3.895  2.1522 -0.5542  2.1710
 1015MOL0     H40058   9.794   9.379   3.635 -0.7739 -0.7504  0.5888
 1015MOL0     H40059   9.870   9.347   3.478 -0.4548  3.2309  0.7632
 1015MOL0     H40060   9.729   9.158   3.431 -1.2667 -0.4131 -0.1072
 1015MOL0     H40061   9.659   9.315   3.428  0.2309 -1.4019 -1.9565
 1015MOL0     H40062   9.595   9.080   3.590  1.7311 -0.1163  0.6487
 1015MOL0     H40063   9.637   9.207   3.695 -0.5956 -0.5294  0.0733
 1015MOL0     H40064   9.415   9.232   3.486 -0.5907  0.6846 -0.2151
 1015MOL0     H40065   9.458   9.363   3.600 -1.3140 -0.5937 -1.6513
 1015MOL0     H40066   9.219   9.145   3.844  1.3744  0.9969  1.8293
 1015MOL0     H40067  10.076   9.362   3.598 -0.4158  1.1707 -0.0312
 1015MOL0     H40068  10.258   9.482   3.628  1.9856 -0.5403 -1.0909
 1015MOL0     H40069  10.264   9.559   3.783 -0.2038  0.1429 -1.1393
 1015MOL0     H40070  10.379   9.428   3.752 -0.9417 -0.4202  0.6632
 1016MOL0     O40071   1.426   2.532   5.430 -0.7218  0.5108 -0.5316
 1016MOL0     C40072   1.311   2.506   5.384  0.0412 -0.7280 -0.4121
 1016MOL0     O40073   1.283   2.389   5.315 -0.1389 -0.4703 -0.2490
 1016MOL0     C40074   1.363   2.274   5.325  0.0964 -0.5488 -0.5664
 1016MOL0     C40075   1.399   2.219   5.202  0.8235 -0.6831 -0.3881
 1016MOL0     C40076   1.470   2.101   5.204  0.2724  0.6855  0.2793
 1016MOL0     C40077   1.501   2.035   5.329 -0.4162 -0.2105 -0.0644
 1016MOL0     O40078   1.558   1.914   5.324 -0.2237  0.3777  0.6903
 1016MOL0     C40079   1.638   1.889   5.200  0.1074 -0.7826  0.1796
 1016MOL0     C40080   1.722   1.756   5.219 -0.4660 -0.2976  0.1602
 1016MOL0     C40081   1.850   1.801   5.306 -0.5841  0.0018  0.1380
 1016MOL0     C40082   1.929   1.675   5.344  0.2324 -0.0715  0.3286
 1016MOL0     C40083   2.060   1.697   5.425  0.5630 -0.2012 -0.2302
 1016MOL0     C40084   2.017   1.735   5.561 -0.4176  0.5132 -0.2732
 1016MOL0     C40085   2.138   1.760   5.653 -0.0800 -0.8005 -0.8885
 1016MOL0     C40086   2.164   1.641   5.747 -0.1025 -0.2059 -0.0719
 1016MOL0     N40087   2.299   1.654   5.808 -0.3513  0.1636  0.3287
 1016MOL0     C40088   2.331   1.722   5.923  0.0670  0.1067 -0.2830
 1016MOL0     C40089   2.468   1.725   5.928  0.7271 -0.0902 -0.4455
 1016MOL0     C40090   2.542   1.770   6.061  0.2236 -0.2766  1.0236
 1016MOL0     C40091   2.682   1.723   6.087  1.1433  0.0305  0.0887
 1016MOL0     C40092   2.781   1.774   5.970  0.2782 -0.5255 -0.6316
 1016MOL0     C40093   2.934   1.745   5.977  0.5019 -0.4320  0.0239
 1016MOL0     O40094   2.992   1.801   6.098  0.0543 -0.0448 -0.3126
 1016MOL0     C40095   3.129   1.810   6.122 -0.1146  0.0738 -0.7058
 1016MOL0     C40096   3.170   1.880   6.234 -0.2263  0.8743 -0.2647
 1016MOL0     C40097   3.311   1.875   6.269 -0.5934  0.4603 -0.0503
 1016MOL0     C40098   3.369   1.944   6.394  0.3926  1.0313  0.6443
 1016MOL0     C40099   3.404   1.799   6.181  0.4573 -0.7283 -1.0148
 1016MOL0     C40100   3.551   1.794   6.188 -0.4655  0.9246 -0.8445
 1016MOL0     O40101   3.610   1.795   6.309  0.2786 -0.0315  0.2667
 1016MOL0     C40102   3.738   1.838   6.310  0.2870  0.3299 -0.4263
 1016MOL0     C40103   3.777   1.964   6.337  0.1918  0.5259  0.4501
 1016MOL0     C40104   3.915   1.989   6.343 -1.0267  0.1355  0.0762
 1016MOL0     C40105   4.010   1.896   6.330 -0.2640  1.1347  0.5537
 1016MOL0     O40106   4.142   1.924   6.360  0.1044  0.0838  0.1760
 1016MOL0     C40107   4.157   1.986   6.484  0.6390  0.0396  0.8344
 1016MOL0     C40108   4.301   2.011   6.514 -0.1689 -0.5328  0.3699
 1016MOL0     C40109   4.369   1.877   6.544  0.2942  0.1745 -0.2941
 1016MOL0     C40110   4.499   1.897   6.610 -0.3317  0.1007 -0.5442
 1016MOL0     C40111   4.573   1.765   6.624 -1.5369  0.1988 -0.7346
 1016MOL0     C40112   4.694   1.795   6.719 -0.5988 -0.4335  0.3468
 1016MOL0     C40113   4.754   1.683   6.797 -0.5588  0.1071  0.4954
 1016MOL0     C40114   4.804   1.562   6.706  0.5984  0.1169 -0.0081
 1016MOL0    Cl40115   4.953   1.609   6.617 -0.5496 -0.1560  0.0979
 1016MOL0     C40116   3.970   1.758   6.316  0.1540 -0.5035  0.2262
 1016MOL0     C40117   3.830   1.737   6.312 -0.5793  0.9287  0.6388
 1016MOL0     O40118   3.609   1.808   6.081 -0.3876 -0.2296  0.6033
 1016MOL0     C40119   3.353   1.738   6.067  0.4868 -1.5388 -0.0953
 1016MOL0     C40120   3.214   1.742   6.040 -1.2219 -0.6897 -0.7262
 1016MOL0     N40121   2.521   1.659   5.814  0.4959 -0.8086  0.2164
 1016MOL0     N40122   2.421   1.623   5.746 -0.3627 -0.2652 -0.1300
 1016MOL0     C40123   1.450   2.086   5.445 -0.2167 -0.1406  0.4151
 1016MOL0     C40124   1.381   2.211   5.447 -0.4190  0.0778  0.0671
 1016MOL0     C40125   1.193   2.595   5.406  0.5905  0.5113 -1.0220
 1016MOL0     C40126   1.099   2.588   5.305  0.1878 -0.7481  0.2971
 1016MOL0     C40127   0.992   2.672   5.308  0.3812  0.5866  0.3475
 1016MOL0     C40128   0.956   2.749   5.419  0.4164  0.1603 -0.3286
 1016MOL0     O40129   0.836   2.827   5.421  0.2516 -0.3144 -0.0125
 1016MOL0     C40130   0.720   2.780   5.348  0.5285 -0.8690 -0.2884
 1016MOL0     C40131   0.600   2.768   5.434 -0.1530  0.4680  0.3160
 1016MOL0     C40132   0.497   2.658   5.401  0.3520  0.2318  1.2155
 1016MOL0     C40133   0.426   2.683   5.265 -0.6621  0.6899  0.7779
 1016MOL0     C40134   0.350   2.808   5.264 -0.2388  0.1487  0.2040
 1016MOL0     C40135   0.284   2.906   5.238  0.2553 -0.4186  0.1503
 1016MOL0     C40136   1.043   2.745   5.531 -0.2008 -0.1884  0.8378
 1016MOL0     C40137   1.163   2.669   5.516 -0.3501 -0.0249 -0.6446
 1016MOL0     C40138   1.243   2.664   5.640  0.0532 -0.0644  0.4842
 1016MOL0     H40139   1.376   2.272   5.110  2.0837  1.8741  0.6733
 1016MOL0     H40140   1.490   2.067   5.103  1.9860  2.9099 -0.2092
 1016MOL0     H40141   1.711   1.968   5.182 -0.7645  0.2075  0.8757
 1016MOL0     H40142   1.568   1.863   5.120 -2.0222  1.4971  1.1723
 1016MOL0     H40143   1.664   1.677   5.268  0.8981 -2.5190 -1.6267
 1016MOL0     H40144   1.760   1.717   5.124 -1.1276 -2.2911  0.6618
 1016MOL0     H40145   1.910   1.866   5.241 -1.2826 -0.8819 -1.4291
 1016MOL0     H40146   1.818   1.862   5.392 -2.2142  1.9877 -1.7523
 1016MOL0     H40147   1.864   1.610   5.403  2.3020 -1.8978  0.7320
 1016MOL0     H40148   1.956   1.619   5.253 -2.7151  0.7603 -1.1946
 1016MOL0     H40149   2.127   1.777   5.391  1.4617 -0.5907  0.5904
 1016MOL0     H40150   2.116   1.604   5.435  0.2905 -0.3137  0.3111
 1016MOL0     H40151   1.960   1.827   5.554  0.6749  1.2607  0.3221
 1016MOL0     H40152   1.959   1.655   5.607 -2.3918  1.5185 -0.9424
 1016MOL0     H40153   2.120   1.853   5.707  3.2373 -1.3502  1.4411
 1016MOL0     H40154   2.221   1.772   5.583  0.9352  2.1086  0.6636
 1016MOL0     H40155   2.091   1.634   5.828  0.8830 -3.2114  0.6701
 1016MOL0     H40156   2.166   1.553   5.683  1.3110 -0.3030  0.0783
 1016MOL0     H40157   2.268   1.762   6.001  0.2628 -0.6082  0.2516
 1016MOL0     H40158   2.484   1.732   6.146 -1.0348 -0.0224  0.2917
 1016MOL0     H40159   2.531   1.878   6.068  1.2502  0.0221 -1.1370
 1016MOL0     H40160   2.711   1.752   6.188  0.3132  0.1373  0.2996
 1016MOL0     H40161   2.678   1.614   6.081  0.3532  0.0912 -1.0664
 1016MOL0     H40162   2.749   1.753   5.868 -0.7426  1.3375 -0.7331
 1016MOL0     H40163   2.783   1.883   5.977  4.1268 -0.5529  1.7485
 1016MOL0     H40164   2.953   1.638   5.963 -1.2452 -0.8902  0.9321
 1016MOL0     H40165   2.969   1.799   5.888 -2.9789  3.2194  0.5850
 1016MOL0     H40166   3.091   1.916   6.300  1.5248  1.5549  1.5930
 1016MOL0     H40167   3.293   1.977   6.465 -1.5823 -1.2645 -0.2371
 1016MOL0     H40168   3.420   2.038   6.371  1.2311  0.0949 -1.5899
 1016MOL0     H40169   3.439   1.877   6.445 -0.4356 -0.3860 -0.0249
 1016MOL0     H40170   3.702   2.043   6.341 -0.1627  0.8287 -4.6755
 1016MOL0     H40171   3.934   2.091   6.375 -0.9169 -0.0911  0.7446
 1016MOL0     H40172   4.109   2.084   6.476  0.8754  0.2163  1.5365
 1016MOL0     H40173   4.123   1.929   6.571 -0.3083  1.0372  1.1417
 1016MOL0     H40174   4.353   2.055   6.428  1.5040  0.7042  1.9372
 1016MOL0     H40175   4.308   2.073   6.604 -1.4211  0.2633 -0.0530
 1016MOL0     H40176   4.391   1.822   6.451 -0.3486 -5.9975  2.6704
 1016MOL0     H40177   4.314   1.811   6.612  3.0991 -1.6385  0.4149
 1016MOL0     H40178   4.479   1.936   6.710 -1.5601  3.4586 -1.9410
 1016MOL0     H40179   4.560   1.971   6.557 -1.8097  0.8252 -1.2839
 1016MOL0     H40180   4.517   1.681   6.666  1.3818 -1.5063  0.0051
 1016MOL0     H40181   4.602   1.735   6.523 -0.6138  0.7510 -0.6488
 1016MOL0     H40182   4.655   1.867   6.792 -0.0947  1.4518 -1.1493
 1016MOL0     H40183   4.767   1.849   6.658 -1.3742  2.6158  1.9145
 1016MOL0     H40184   4.687   1.632   6.866 -0.2558 -1.3128 -0.2233
 1016MOL0     H40185   4.837   1.712   6.862  1.7535 -0.7347 -1.8780
 1016MOL0     H40186   4.731   1.526   6.633 -2.5138  0.2585  2.8337
 1016MOL0     H40187   4.825   1.477   6.771 -2.1444 -1.1924 -0.6758
 1016MOL0     H40188   4.044   1.679   6.306 -0.1008 -0.5422 -1.6767
 1016MOL0     H40189   3.791   1.636   6.305  0.3431  0.6345 -0.5460
 1016MOL0     H40190   3.418   1.699   5.989 -3.5429 -1.7313 -3.7422
 1016MOL0     H40191   3.173   1.691   5.953 -2.1717  0.2074 -0.8281
 1016MOL0     H40192   1.465   2.033   5.538 -1.9942 -0.3314  0.6287
 1016MOL0     H40193   1.355   2.266   5.536 -0.9969  1.1077 -0.7129
 1016MOL0     H40194   1.099   2.528   5.214 -0.6601  1.1796 -1.0358
 1016MOL0     H40195   0.937   2.701   5.219  0.3397  5.2290  1.6188
 1016MOL0     H40196   0.687   2.846   5.268  0.2019 -0.2478  0.3590
 1016MOL0     H40197   0.732   2.682   5.301  3.0592 -1.0191  0.4794
 1016MOL0     H40198   0.543   2.861   5.437  0.6809  1.1096 -1.9113
 1016MOL0     H40199   0.632   2.751   5.538  1.7016  3.1645  0.3107
 1016MOL0     H40200   0.538   2.559   5.380 -2.3898 -0.5400 -1.1560
 1016MOL0     H40201   0.415   2.642   5.471 -1.7375  1.5815 -0.7537
 1016MOL0     H40202   0.364   2.595   5.244  2.0700 -0.8417 -1.6049
 1016MOL0     H40203   0.494   2.676   5.180 -1.1366 -0.1743  0.4551
 1016MOL0     H40204   0.249   3.006   5.216  3.1894  0.2096 -2.3148
 1016MOL0     H40205   1.018   2.808   5.615  1.5512  2.8995 -0.7835
 1016MOL0     H40206   1.194   2.714   5.725 -0.4778 -0.8342  0.6399
 1016MOL0     H40207   1.273   2.564   5.671 -0.1637  0.4001  2.3341
 1016MOL0     H40208   1.325   2.732   5.616 -0.1804 -0.2006 -0.7749
 1017MOL0     O40209   7.177   6.306   3.853 -0.1171 -1.0870  0.2402
 1017MOL0     C40210   7.178   6.208   3.783  0.0733 -0.2154  0.4942
 1017MOL0     O40211   7.293   6.155   3.731  0.2716  0.1608 -1.0591
 1017MOL0     C40212   7.403   6.230   3.735 -0.7538  0.3709 -0.0733
 1017MOL0     C40213   7.480   6.243   3.853  1.1556  0.1665 -0.0120
 1017MOL0     C40214   7.600   6.305   3.859 -0.3453  0.0527  0.3844
 1017MOL0     C40215   7.649   6.375   3.752 -0.3479  0.1828 -0.1095
 1017MOL0     O40216   7.768   6.443   3.753 -0.1531 -0.2577  0.1332
 1017MOL0     C40217   7.873   6.361   3.794 -0.7185 -0.1048 -0.5483
 1017MOL0     C40218   8.010   6.434   3.764 -0.5897 -0.9193 -0.6585
 1017MOL0     C40219   8.041   6.552   3.852  0.2656  0.0506  0.1537
 1017MOL0     C40220   8.139   6.637   3.782  0.0076  0.6616 -0.5829
 1017MOL0     C40221   8.153   6.781   3.847  0.0687  0.6246  0.2586
 1017MOL0     C40222   8.052   6.888   3.813 -0.3562  0.0965  0.4489
 1017MOL0     C40223   8.090   7.037   3.845  0.0358  0.7371  0.2897
 1017MOL0     C40224   7.967   7.123   3.872  0.4572  1.1744  0.3008
 1017MOL0     N40225   7.891   7.143   3.748 -0.4673 -0.1051  0.4111
 1017MOL0     C40226   7.799   7.055   3.699  0.5112  0.4143 -0.4179
 1017MOL0     C40227   7.768   7.088   3.574 -0.6015 -1.3539  0.7016
 1017MOL0     C40228   7.678   7.006   3.484 -1.0737 -0.5663 -0.8123
 1017MOL0     C40229   7.578   7.099   3.404 -0.3663  0.1962 -1.0782
 1017MOL0     C40230   7.449   7.018   3.391  0.6586 -0.7472 -0.4038
 1017MOL0     C40231   7.332   7.090   3.318  0.3386 -0.7303 -0.7695
 1017MOL0     O40232   7.387   7.132   3.195 -1.1281 -0.1427  0.0280
 1017MOL0     C40233   7.306   7.217   3.112 -0.4927  0.6344 -0.1852
 1017MOL0     C40234   7.370   7.280   3.005  0.2375  0.2022  0.9881
 1017MOL0     C40235   7.294   7.371   2.916  0.4072 -1.3129 -0.7786
 1017MOL0     C40236   7.370   7.429   2.797  0.8205  0.3597 -0.1483
 1017MOL0     C40237   7.151   7.400   2.948  0.1108  0.1846  0.9868
 1017MOL0     C40238   7.063   7.491   2.880  0.2048  0.0820  0.3783
 1017MOL0     O40239   6.974   7.560   2.953  0.3751  0.7489  0.0077
 1017MOL0     C40240   6.891   7.648   2.900 -0.1927 -0.1267  0.6912
 1017MOL0     C40241   6.940   7.782   2.882  0.2111  0.4701  0.9795
 1017MOL0     C40242   6.846   7.884   2.836 -1.5456  0.1797  0.5819
 1017MOL0     C40243   6.716   7.845   2.803  0.4357  0.3686 -0.8103
 1017MOL0     O40244   6.642   7.948   2.773 -0.0027 -0.8816 -0.1235
 1017MOL0     C40245   6.599   8.020   2.896  0.1007  0.9011  0.1802
 1017MOL0     C40246   6.444   8.030   2.899 -0.6209  0.0207 -0.6159
 1017MOL0     C40247   6.368   7.901   2.920  0.4039 -0.1123 -0.1731
 1017MOL0     C40248   6.212   7.909   2.891 -0.0187  1.3744 -0.1177
 1017MOL0     C40249   6.159   7.764   2.908  0.8824  0.2505 -0.4555
 1017MOL0     C40250   6.195   7.664   2.800  0.2240  0.5768  1.1661
 1017MOL0     C40251   6.113   7.539   2.800 -0.4772  0.2428 -0.6044
 1017MOL0     C40252   6.138   7.455   2.675 -0.2440 -0.5021  0.5551
 1017MOL0    Cl40253   6.291   7.385   2.688 -0.3605  0.0396  0.2100
 1017MOL0     C40254   6.671   7.716   2.809 -0.4213 -0.2637 -0.9734
 1017MOL0     C40255   6.752   7.613   2.862 -0.4832  0.0687  0.0883
 1017MOL0     O40256   7.082   7.509   2.762  0.7968 -0.0424 -0.0710
 1017MOL0     C40257   7.094   7.333   3.060  0.1351 -0.1328 -0.3697
 1017MOL0     C40258   7.170   7.251   3.141  0.4771  0.5889  0.3699
 1017MOL0     N40259   7.830   7.216   3.548 -0.8052  0.1884  0.0836
 1017MOL0     N40260   7.906   7.242   3.656 -0.8498 -1.0275 -0.3717
 1017MOL0     C40261   7.579   6.362   3.625  0.7016  0.6516  0.9719
 1017MOL0     C40262   7.462   6.282   3.621 -0.4847  0.2275  0.4575
 1017MOL0     C40263   7.040   6.155   3.750  0.2500  0.7841 -0.4572
 1017MOL0     C40264   6.942   6.179   3.843 -0.3347  0.6115 -0.7551
 1017MOL0     C40265   6.809   6.138   3.822 -0.2176  0.6268  0.2495
 1017MOL0     C40266   6.776   6.054   3.711 -0.3879 -0.1899  0.2411
 1017MOL0     O40267   6.649   6.010   3.707  0.0311  0.9388  0.4298
 1017MOL0     C40268   6.593   5.974   3.577  1.1665  0.3554  0.4902
 1017MOL0     C40269   6.442   5.985   3.591  0.0695  0.8668  0.7912
 1017MOL0     C40270   6.378   5.878   3.679 -0.3655  0.8527  0.5716
 1017MOL0     C40271   6.388   5.736   3.615  0.8201 -0.1304  0.0760
 1017MOL0     C40272   6.363   5.638   3.719 -0.6075 -0.5612  0.8121
 1017MOL0     C40273   6.346   5.544   3.794  0.1520  0.2372 -0.7114
 1017MOL0     C40274   6.878   6.020   3.616 -0.9304 -0.1450  0.0831
 1017MOL0     C40275   7.010   6.072   3.634  0.3093  0.0515 -0.3616
 1017MOL0     C40276   7.122   6.040   3.539  0.9355  0.4404 -0.6955
 1017MOL0     H40277   7.437   6.192   3.938 -1.5584 -0.2734 -1.5093
 1017MOL0     H40278   7.646   6.301   3.957 -1.6377 -1.2764  0.9718
 1017MOL0     H40279   7.885   6.272   3.731  1.1704 -2.3821  2.7665
 1017MOL0     H40280   7.873   6.317   3.894 -5.2708 -0.3916 -0.4545
 1017MOL0     H40281   8.094   6.366   3.777  1.4337  0.9757 -2.9661
 1017MOL0     H40282   8.004   6.469   3.660 -0.2689 -2.1055 -1.0850
 1017MOL0     H40283   7.949   6.612   3.859 -0.3299 -0.7806 -0.3488
 1017MOL0     H40284   8.080   6.520   3.949 -1.3955 -3.3851 -0.1424
 1017MOL0     H40285   8.228   6.575   3.794 -0.1552  0.3574 -0.9632
 1017MOL0     H40286   8.118   6.643   3.675 -2.4834 -1.6244 -0.3201
 1017MOL0     H40287   8.254   6.822   3.837  1.0403 -1.8275 -0.8942
 1017MOL0     H40288   8.146   6.763   3.954 -1.4619 -2.5900 -0.2536
 1017MOL0     H40289   8.042   6.874   3.705  1.9888  1.2316  0.0200
 1017MOL0     H40290   7.957   6.863   3.861 -0.0168 -2.3705 -0.0142
 1017MOL0     H40291   8.142   7.078   3.758 -0.3360  0.0357 -0.2749
 1017MOL0     H40292   8.154   7.034   3.934 -0.8384 -1.1772  0.9136
 1017MOL0     H40293   7.897   7.084   3.946  0.1556  3.9397  1.6161
 1017MOL0     H40294   8.002   7.219   3.911  0.3837  1.1593  0.4035
 1017MOL0     H40295   7.774   6.956   3.737  2.0778  1.0764  2.7305
 1017MOL0     H40296   7.632   6.932   3.550  0.0045 -1.8884 -1.4848
 1017MOL0     H40297   7.741   6.945   3.418 -0.7303 -0.0579 -0.9645
 1017MOL0     H40298   7.568   7.192   3.459  3.2699  0.2267 -0.1654
 1017MOL0     H40299   7.625   7.121   3.307 -0.8449 -0.4630 -1.4678
 1017MOL0     H40300   7.468   6.928   3.333  0.3117 -2.3169  1.7780
 1017MOL0     H40301   7.416   6.990   3.492  1.4076  1.4805  0.5382
 1017MOL0     H40302   7.254   7.015   3.300  1.0972 -1.8906  0.5628
 1017MOL0     H40303   7.285   7.166   3.380 -2.9666 -0.9903 -2.7330
 1017MOL0     H40304   7.474   7.264   2.980 -0.1201 -2.7339  1.1124
 1017MOL0     H40305   7.471   7.387   2.799  1.1528  1.1765  1.2491
 1017MOL0     H40306   7.375   7.536   2.777  3.0398  0.0548 -1.6221
 1017MOL0     H40307   7.320   7.387   2.709  0.2590 -0.4184  0.5301
 1017MOL0     H40308   7.046   7.800   2.894  1.0423  0.0331 -3.7343
 1017MOL0     H40309   6.874   7.989   2.823  2.1770 -0.9375 -2.4797
 1017MOL0     H40310   6.622   7.968   2.989  1.4128 -0.1983 -0.7241
 1017MOL0     H40311   6.644   8.120   2.901  3.0905 -0.3547  0.0170
 1017MOL0     H40312   6.421   8.106   2.974  0.0358  1.2204 -1.6013
 1017MOL0     H40313   6.406   8.067   2.803  0.6651 -0.9643 -1.5475
 1017MOL0     H40314   6.373   7.874   3.026  0.3490  1.9698  0.4002
 1017MOL0     H40315   6.419   7.824   2.862 -0.8061 -0.6046 -0.6136
 1017MOL0     H40316   6.199   7.943   2.787 -1.8720 -0.1705 -0.4425
 1017MOL0     H40317   6.161   7.977   2.959  0.5626  0.8173  0.9011
 1017MOL0     H40318   6.186   7.728   3.008  0.3392 -1.6810 -0.9594
 1017MOL0     H40319   6.051   7.770   2.893  0.8999 -0.9859 -1.1974
 1017MOL0     H40320   6.300   7.641   2.815  0.5462  1.1549 -0.1240
 1017MOL0     H40321   6.191   7.711   2.702 -0.0393 -0.3830  0.7099
 1017MOL0     H40322   6.007   7.565   2.792 -0.6747  0.4381  1.8764
 1017MOL0     H40323   6.129   7.484   2.893 -3.4729  2.7220  1.5832
 1017MOL0     H40324   6.123   7.529   2.596  1.2587  0.8658  1.4887
 1017MOL0     H40325   6.070   7.370   2.657 -1.3823  0.4361  0.2907
 1017MOL0     H40326   6.571   7.693   2.773 -2.3343  0.6602  3.0722
 1017MOL0     H40327   6.714   7.512   2.871 -0.5904  0.1908  1.1943
 1017MOL0     H40328   6.989   7.344   3.082  0.1618 -0.9554  0.1893
 1017MOL0     H40329   7.121   7.223   3.234  0.0575  1.6538  0.4821
 1017MOL0     H40330   7.620   6.404   3.534 -0.3526 -0.4217 -0.0337
 1017MOL0     H40331   7.396   6.268   3.535 -1.3370  1.7594  0.8182
 1017MOL0     H40332   6.960   6.232   3.936  0.7539 -3.5909  1.7014
 1017MOL0     H40333   6.727   6.161   3.890 -0.2840 -0.3270  0.5132
 1017MOL0     H40334   6.625   6.045   3.501 -1.7107  0.1629 -0.9990
 1017MOL0     H40335   6.632   5.878   3.541 -0.1165  0.1639 -0.4407
 1017MOL0     H40336   6.397   5.977   3.492  2.3305 -1.5449 -0.1663
 1017MOL0     H40337   6.424   6.087   3.625  4.2991  1.3948  2.1328
 1017MOL0     H40338   6.436   5.889   3.772  0.1574 -2.8169  0.8238
 1017MOL0     H40339   6.270   5.889   3.689 -0.9075 -0.5168 -2.5503
 1017MOL0     H40340   6.488   5.719   3.575  1.6540  0.5954  1.7431
 1017MOL0     H40341   6.317   5.718   3.533 -0.0467 -0.8753  0.9620
 1017MOL0     H40342   6.328   5.462   3.860  1.0750 -0.1773 -0.9698
 1017MOL0     H40343   6.859   5.951   3.534  2.6875 -1.4026  0.1251
 1017MOL0     H40344   7.202   5.988   3.593  0.5080  1.3516  0.8855
 1017MOL0     H40345   7.087   5.970   3.463 -0.1826  1.1373 -0.8432
 1017MOL0     H40346   7.155   6.137   3.501 -3.6571  2.4605 -0.1296
 1018MOL0     O40347   2.323   4.058   9.590  0.0558 -0.7189  0.7096
 1018MOL0     C40348   2.416   4.069   9.664  0.2779 -1.1315  0.4936
 1018MOL0     O40349   2.431   4.161   9.766 -0.0339 -0.2480 -0.2784
 1018MOL0     C40350   2.335   4.245   9.813 -0.1782 -0.0067  0.3283
 1018MOL0     C40351   2.329   4.265   9.948 -0.0277  0.1586  0.3167
 1018MOL0     C40352   2.236   4.351  10.003  0.1485 -0.0575  0.5091
 1018MOL0     C40353   2.142   4.422   9.926 -0.1058  0.1397 -0.1285
 1018MOL0     O40354   2.055   4.502   9.983  0.3484 -0.0393  0.5302
 1018MOL0     C40355   1.923   4.460   9.959  1.0672  0.2380 -0.0687
 1018MOL0     C40356   1.834   4.534  10.066 -0.1245 -0.0824 -0.1883
 1018MOL0     C40357   1.693   4.559  10.025  0.4367  0.5035 -1.2817
 1018MOL0     C40358   1.681   4.703   9.969 -0.0406 -0.2575 -0.5552
 1018MOL0     C40359   1.548   4.743   9.918 -0.0257  0.2381  1.0381
 1018MOL0     C40360   1.442   4.763  10.026 -0.4797 -1.1327  0.9096
 1018MOL0     C40361   1.327   4.831   9.960  1.0534 -0.3065  0.8199
 1018MOL0     C40362   1.264   4.757   9.829 -0.5166 -0.2523  0.4616
 1018MOL0     N40363   1.126   4.792   9.810 -0.1677 -0.0391  0.9081
 1018MOL0     C40364   1.022   4.714   9.860  0.1758 -0.5946 -0.9389
 1018MOL0     C40365   0.918   4.789   9.826  0.2946 -1.0789  0.4327
 1018MOL0     C40366   0.771   4.755   9.848 -0.9422 -0.4302 -0.0236
 1018MOL0     C40367   0.685   4.715   9.729  0.6785 -0.2325  0.3984
 1018MOL0     C40368   0.729   4.581   9.666 -0.1857 -0.0255  0.4707
 1018MOL0     C40369   0.625   4.499   9.594  0.6811 -0.1885 -0.2245
 1018MOL0     O40370   0.572   4.568   9.478 -0.2017 -0.1081 -0.9011
 1018MOL0     C40371   0.512   4.499   9.377 -0.1749  0.2017  0.7395
 1018MOL0     C40372   0.564   4.519   9.244  0.1311 -0.3449  0.2084
 1018MOL0     C40373   0.514   4.454   9.134  0.3668 -0.0007  0.2590
 1018MOL0     C40374   0.556   4.504   8.998 -0.2006  0.1327 -0.7111
 1018MOL0     C40375   0.411   4.355   9.154  0.7137  0.9370  0.1480
 1018MOL0     C40376   0.357   4.268   9.049 -0.1981 -0.9030 -0.2788
 1018MOL0     O40377   0.396   4.304   8.918  0.5193  0.5629 -0.1258
 1018MOL0     C40378   0.320   4.237   8.829  0.3980 -0.5943 -0.5059
 1018MOL0     C40379   0.196   4.288   8.774 -0.1974 -0.6590  0.0764
 1018MOL0     C40380   0.118   4.220   8.683 -0.3301  0.0226 -0.2611
 1018MOL0     C40381   0.167   4.097   8.626  0.0708 -0.2015 -0.0378
 1018MOL0     O40382   0.087   4.017   8.546  0.1673 -0.6866  0.2329
 1018MOL0     C40383  -0.058   4.010   8.573 -0.0341 -0.1209 -0.3961
 1018MOL0     C40384  -0.109   3.874   8.517  0.3122  0.2865 -0.6604
 1018MOL0     C40385  -0.216   3.824   8.605  0.1736  0.3443 -0.3548
 1018MOL0     C40386  -0.351   3.886   8.560 -0.0618 -0.5358 -0.3713
 1018MOL0     C40387  -0.472   3.807   8.621 -0.3891 -0.4586 -0.1770
 1018MOL0     C40388  -0.600   3.891   8.655  0.2388 -0.6158 -0.5537
 1018MOL0     C40389  -0.634   3.980   8.543  0.0114 -0.4207 -0.4170
 1018MOL0     C40390  -0.759   4.059   8.550  0.4943 -0.6437  0.2963
 1018MOL0    Cl40391  -0.756   4.189   8.432 -0.1329  0.2341 -0.3170
 1018MOL0     C40392   0.298   4.048   8.669 -0.4581  0.0506 -0.0020
 1018MOL0     C40393   0.377   4.117   8.770  0.8265  0.2991 -0.6131
 1018MOL0     O40394   0.288   4.173   9.076 -0.4191 -0.2364  0.5958
 1018MOL0     C40395   0.372   4.330   9.281  0.1687 -0.3762 -0.3382
 1018MOL0     C40396   0.417   4.400   9.399 -0.2892 -0.0999  0.5205
 1018MOL0     N40397   0.963   4.903   9.770 -0.3746 -0.8079  0.4507
 1018MOL0     N40398   1.089   4.908   9.757  0.0674 -0.1095 -0.5620
 1018MOL0     C40399   2.148   4.395   9.788 -0.0230 -0.4451  0.6225
 1018MOL0     C40400   2.237   4.306   9.731 -0.5036 -0.1172  0.7493
 1018MOL0     C40401   2.536   3.979   9.633  0.4293  0.3707 -0.1511
 1018MOL0     C40402   2.632   3.962   9.735  0.1330 -0.1771 -0.7587
 1018MOL0     C40403   2.754   3.897   9.719 -0.6153  0.7692  0.6246
 1018MOL0     C40404   2.779   3.828   9.602 -0.0984  0.1514 -0.2285
 1018MOL0     O40405   2.896   3.763   9.597  0.5699  0.7300 -0.0349
 1018MOL0     C40406   2.906   3.643   9.516 -0.4205 -0.2570  0.1274
 1018MOL0     C40407   3.020   3.553   9.559  0.1516  0.4914  0.4592
 1018MOL0     C40408   3.161   3.599   9.514 -0.1158  0.1196  0.0465
 1018MOL0     C40409   3.262   3.525   9.598  0.4898  0.1315 -0.2751
 1018MOL0     C40410   3.280   3.401   9.527  0.0499  0.1217 -0.6298
 1018MOL0     C40411   3.302   3.294   9.476 -0.9181 -0.2748  0.4314
 1018MOL0     C40412   2.684   3.829   9.494 -0.1973 -0.0550  0.6248
 1018MOL0     C40413   2.562   3.900   9.508  0.3581  0.4043  0.2185
 1018MOL0     C40414   2.460   3.894   9.402  0.0202  0.1444  0.9990
 1018MOL0     H40415   2.401   4.205  10.004  0.1119  0.1561  0.1357
 1018MOL0     H40416   2.236   4.367  10.110 -0.5915 -1.2485  0.6971
 1018MOL0     H40417   1.914   4.351   9.962 -1.5122  0.3385 -1.1394
 1018MOL0     H40418   1.892   4.498   9.861  1.3196  2.1644  0.5586
 1018MOL0     H40419   1.846   4.483  10.162  0.6832  2.4547  1.1474
 1018MOL0     H40420   1.881   4.629  10.094 -1.8634  0.5657  0.6443
 1018MOL0     H40421   1.662   4.486   9.951 -2.3083  3.9737 -3.8599
 1018MOL0     H40422   1.634   4.551  10.117 -0.2985  0.7754 -1.7305
 1018MOL0     H40423   1.719   4.769  10.049  1.6126 -2.5348  0.6814
 1018MOL0     H40424   1.749   4.708   9.883  0.7073 -0.8115 -0.0170
 1018MOL0     H40425   1.524   4.671   9.839 -0.3303  1.1764  0.2552
 1018MOL0     H40426   1.570   4.836   9.865  0.7181  0.6568  2.0713
 1018MOL0     H40427   1.410   4.665  10.063 -0.7197 -2.8539 -3.3777
 1018MOL0     H40428   1.491   4.822  10.104  0.5418  2.5601 -2.2344
 1018MOL0     H40429   1.360   4.928   9.924  0.1228  0.8744  2.9949
 1018MOL0     H40430   1.245   4.838  10.031  2.1092  0.2430  2.0096
 1018MOL0     H40431   1.310   4.806   9.743  0.2109  0.5827  1.3025
 1018MOL0     H40432   1.285   4.650   9.831  0.7360 -0.0712 -1.3429
 1018MOL0     H40433   1.035   4.612   9.895  0.3746  0.5035  2.5571
 1018MOL0     H40434   0.724   4.839   9.900  0.2902  0.9086 -0.9853
 1018MOL0     H40435   0.768   4.684   9.931  1.3264 -0.3522  0.1729
 1018MOL0     H40436   0.584   4.716   9.770  0.6083  1.0191  0.2348
 1018MOL0     H40437   0.674   4.793   9.653 -1.6849 -1.3969 -0.5332
 1018MOL0     H40438   0.803   4.604   9.589 -0.5971  0.3436  0.1781
 1018MOL0     H40439   0.775   4.523   9.746 -0.7072 -2.8469 -1.1457
 1018MOL0     H40440   0.668   4.408   9.553  0.8253  0.7364 -2.2533
 1018MOL0     H40441   0.557   4.471   9.675  1.3900 -1.6242 -0.0928
 1018MOL0     H40442   0.638   4.598   9.239 -0.4535  0.1216 -2.1232
 1018MOL0     H40443   0.596   4.424   8.935 -0.5143  0.3290 -1.1702
 1018MOL0     H40444   0.631   4.581   9.017  1.4554 -2.1067  2.7631
 1018MOL0     H40445   0.471   4.545   8.942 -0.2000  1.0750 -0.0594
 1018MOL0     H40446   0.181   4.396   8.784  0.6912 -0.1568 -3.0090
 1018MOL0     H40447   0.025   4.255   8.638 -0.1215  0.6381 -0.2201
 1018MOL0     H40448  -0.069   4.024   8.681  2.6808 -0.6653  0.0227
 1018MOL0     H40449  -0.104   4.095   8.523  0.6223  0.7666  0.4802
 1018MOL0     H40450  -0.148   3.876   8.415 -2.0114  2.6475  0.1470
 1018MOL0     H40451  -0.025   3.805   8.525 -1.5725 -1.9531  1.0852
 1018MOL0     H40452  -0.196   3.841   8.711 -0.9027 -1.8400  0.2501
 1018MOL0     H40453  -0.224   3.716   8.592 -1.6376  0.3050  0.8371
 1018MOL0     H40454  -0.364   3.890   8.451 -1.1941 -1.8399 -0.3220
 1018MOL0     H40455  -0.356   3.989   8.597 -2.8757 -0.6987 -0.0640
 1018MOL0     H40456  -0.491   3.725   8.551 -0.4272 -0.4449 -0.1829
 1018MOL0     H40457  -0.425   3.767   8.711  2.9496  0.7806 -1.2028
 1018MOL0     H40458  -0.588   3.950   8.746  1.5119  1.0010 -1.7080
 1018MOL0     H40459  -0.684   3.822   8.668 -0.3867 -0.5639 -3.5117
 1018MOL0     H40460  -0.641   3.925   8.449  0.7799  1.6288 -1.7545
 1018MOL0     H40461  -0.546   4.045   8.538  0.0924 -0.5139 -0.2299
 1018MOL0     H40462  -0.769   4.106   8.649 -3.2439  1.7961 -1.0062
 1018MOL0     H40463  -0.857   4.010   8.543 -0.3790  1.2723 -2.9618
 1018MOL0     H40464   0.341   3.966   8.613 -0.8379  0.5967 -1.1240
 1018MOL0     H40465   0.478   4.091   8.799  0.8304 -0.3493 -1.1755
 1018MOL0     H40466   0.293   4.256   9.296  1.3138 -1.2886  1.7206
 1018MOL0     H40467   0.389   4.380   9.501  0.4096 -0.5405  0.6373
 1018MOL0     H40468   2.070   4.445   9.731  1.4123  1.0140 -0.1530
 1018MOL0     H40469   2.212   4.292   9.626 -0.5500  1.6781  0.4902
 1018MOL0     H40470   2.615   4.005   9.833 -0.2948  1.0676 -1.3586
 1018MOL0     H40471   2.820   3.910   9.804 -1.3657  2.8606  0.9296
 1018MOL0     H40472   2.813   3.585   9.511  0.1615 -1.1688 -0.6364
 1018MOL0     H40473   2.929   3.672   9.414 -0.1864 -0.0512  0.2383
 1018MOL0     H40474   3.005   3.452   9.521 -0.5592  0.7855 -0.0785
 1018MOL0     H40475   3.009   3.539   9.667  1.3668  1.7098  0.7750
 1018MOL0     H40476   3.167   3.608   9.405  0.6772  2.0760  0.1977
 1018MOL0     H40477   3.173   3.706   9.533 -0.3558  0.3065 -0.7887
 1018MOL0     H40478   3.223   3.518   9.701 -0.3400  2.4827 -0.3868
 1018MOL0     H40479   3.357   3.577   9.608  0.7108 -0.6014  2.3867
 1018MOL0     H40480   3.319   3.195   9.440  0.7226  0.3017 -0.4925
 1018MOL0     H40481   2.703   3.768   9.406 -4.0404  0.2266 -0.6150
 1018MOL0     H40482   2.378   3.830   9.436  0.8512 -0.5372  1.7721
 1018MOL0     H40483   2.422   3.993   9.373  0.3443 -0.0693 -0.1986
 1018MOL0     H40484   2.500   3.842   9.315 -1.0235  0.6930  0.1692
 1019MOL0     O40485   3.984   1.046   3.905  0.2265 -0.6184 -0.1363
 1019MOL0     C40486   4.004   1.091   3.790  0.2360  0.3144 -0.0819
 1019MOL0     O40487   4.118   1.152   3.753  0.0301  0.4274  0.0445
 1019MOL0     C40488   4.212   1.170   3.853 -0.0997  0.6270 -0.3818
 1019MOL0     C40489   4.187   1.242   3.973 -0.4248  0.3689 -0.1982
 1019MOL0     C40490   4.294   1.268   4.061 -0.2716  0.1376 -0.0332
 1019MOL0     C40491   4.426   1.224   4.035 -0.3453 -1.1534  0.1201
 1019MOL0     O40492   4.526   1.268   4.119 -0.4920  0.3197  0.0674
 1019MOL0     C40493   4.661   1.247   4.077  0.2042 -0.1450 -0.0067
 1019MOL0     C40494   4.752   1.309   4.176  0.3284 -0.2244 -0.2633
 1019MOL0     C40495   4.733   1.242   4.317  0.2017 -0.2229 -0.4724
 1019MOL0     C40496   4.826   1.306   4.419  0.0725  0.6440 -0.1651
 1019MOL0     C40497   4.846   1.213   4.557 -0.3041  0.3085  1.0866
 1019MOL0     C40498   4.720   1.189   4.643 -0.7062  0.2818  0.3535
 1019MOL0     C40499   4.757   1.123   4.776  0.0997  0.1780 -0.0776
 1019MOL0     C40500   4.631   1.100   4.862 -0.5632 -0.1609  0.3987
 1019MOL0     N40501   4.569   1.227   4.918 -0.1201 -0.7234  0.6522
 1019MOL0     C40502   4.468   1.294   4.854  0.3886  0.5894  0.4411
 1019MOL0     C40503   4.412   1.372   4.940  0.3949  0.2648 -0.7857
 1019MOL0     C40504   4.306   1.472   4.907  0.4956  0.0729 -0.1996
 1019MOL0     C40505   4.379   1.586   4.818 -0.4037 -0.1572 -1.4413
 1019MOL0     C40506   4.286   1.689   4.761 -0.1035  0.4483  0.2388
 1019MOL0     C40507   4.177   1.632   4.663 -0.1371  0.4463 -0.0819
 1019MOL0     O40508   4.236   1.548   4.553 -0.1388 -0.4606 -0.4583
 1019MOL0     C40509   4.330   1.610   4.479  0.3677 -0.3884  0.7557
 1019MOL0     C40510   4.330   1.736   4.426  0.2643 -0.5945  0.1121
 1019MOL0     C40511   4.436   1.790   4.359 -0.2133 -0.6303 -0.5612
 1019MOL0     C40512   4.426   1.933   4.316  0.4733  0.3625 -0.5742
 1019MOL0     C40513   4.544   1.707   4.327 -0.2017  0.6455 -0.1197
 1019MOL0     C40514   4.666   1.767   4.267  0.4767  0.0837  0.3683
 1019MOL0     O40515   4.726   1.690   4.173 -0.2975 -0.0947  0.3143
 1019MOL0     C40516   4.858   1.712   4.143  0.7739 -0.2303  0.1357
 1019MOL0     C40517   4.896   1.818   4.062 -0.4087 -0.0865  0.1437
 1019MOL0     C40518   5.030   1.827   4.026  0.1756  0.0083 -0.1389
 1019MOL0     C40519   5.127   1.728   4.069  0.6678 -0.7990  0.8578
 1019MOL0     O40520   5.261   1.734   4.030 -0.4498 -0.8665  0.1065
 1019MOL0     C40521   5.300   1.823   3.917  0.1022 -0.0618  0.5283
 1019MOL0     C40522   5.440   1.817   3.879 -0.0236 -0.1022  0.1720
 1019MOL0     C40523   5.463   1.700   3.791  0.8100 -0.2389  0.5649
 1019MOL0     C40524   5.606   1.671   3.757  0.2723 -0.1164  0.5117
 1019MOL0     C40525   5.696   1.637   3.877 -0.2798 -0.4270 -0.6218
 1019MOL0     C40526   5.837   1.604   3.830  0.4500 -0.4821 -0.6902
 1019MOL0     C40527   5.925   1.599   3.960 -0.7335 -0.3116  0.6437
 1019MOL0     C40528   5.980   1.731   3.999 -0.5830  0.3296 -0.7000
 1019MOL0    Cl40529   6.095   1.710   4.128 -0.3578  0.2294 -0.7410
 1019MOL0     C40530   5.086   1.625   4.149 -0.4486 -0.3731 -0.4023
 1019MOL0     C40531   4.953   1.619   4.198 -0.2075 -0.0515  0.6048
 1019MOL0     O40532   4.708   1.870   4.313  0.3999 -0.6990 -0.2668
 1019MOL0     C40533   4.539   1.571   4.357  0.0622 -1.0574 -0.7903
 1019MOL0     C40534   4.440   1.532   4.448 -1.3434 -0.2205  0.0587
 1019MOL0     N40535   4.466   1.345   5.058  0.2830  0.1354 -0.9418
 1019MOL0     N40536   4.569   1.268   5.044 -0.6873 -0.1114  0.0945
 1019MOL0     C40537   4.441   1.162   3.913  0.1256  0.5834 -0.6015
 1019MOL0     C40538   4.340   1.139   3.821 -0.0551  0.1528  0.3390
 1019MOL0     C40539   3.903   1.048   3.695 -0.9287 -0.2834 -0.3989
 1019MOL0     C40540   3.945   1.055   3.559  1.4723  0.0991  0.2133
 1019MOL0     C40541   3.859   1.001   3.455  1.0205 -1.6623  0.1323
 1019MOL0     C40542   3.733   0.955   3.492  0.1662  0.6602 -0.2176
 1019MOL0     O40543   3.642   0.917   3.398 -0.0594  0.3368  0.3046
 1019MOL0     C40544   3.612   1.018   3.293 -0.1702  0.0382 -1.5285
 1019MOL0     C40545   3.584   1.164   3.354  0.3096  0.1071 -0.0459
 1019MOL0     C40546   3.538   1.248   3.235 -0.1510 -0.1151  1.4799
 1019MOL0     C40547   3.492   1.384   3.280  0.0378  0.2436 -0.0222
 1019MOL0     C40548   3.374   1.371   3.368  0.6929 -0.6306 -0.6170
 1019MOL0     C40549   3.273   1.346   3.434 -0.0924 -0.4437 -0.9691
 1019MOL0     C40550   3.702   0.931   3.624 -0.1279 -0.5731 -0.1114
 1019MOL0     C40551   3.776   0.982   3.730 -0.5926 -0.2252  0.3157
 1019MOL0     C40552   3.726   0.957   3.865  0.7281  0.5030  0.2969
 1019MOL0     H40553   4.087   1.265   4.008 -1.3733 -1.3882 -1.6009
 1019MOL0     H40554   4.278   1.327   4.151  1.3333 -0.3825  0.6311
 1019MOL0     H40555   4.682   1.301   3.984  2.1722  1.2400  1.1714
 1019MOL0     H40556   4.683   1.140   4.078  1.4293  0.0040 -2.6577
 1019MOL0     H40557   4.854   1.286   4.142 -0.0004  0.2898 -1.6359
 1019MOL0     H40558   4.751   1.417   4.191  1.3601 -0.4983  2.3457
 1019MOL0     H40559   4.628   1.248   4.348  0.5545  0.0406  0.7317
 1019MOL0     H40560   4.768   1.139   4.315 -1.2092 -0.7118 -2.1080
 1019MOL0     H40561   4.919   1.329   4.368 -0.9174 -0.0216 -2.3787
 1019MOL0     H40562   4.762   1.391   4.444 -1.9650 -0.9576  0.3164
 1019MOL0     H40563   4.922   1.259   4.621 -1.2040  1.4354  1.3859
 1019MOL0     H40564   4.890   1.121   4.517 -0.2907  1.2277 -1.1441
 1019MOL0     H40565   4.675   1.288   4.658 -2.9456 -0.8663  1.8533
 1019MOL0     H40566   4.632   1.139   4.601 -1.3843  0.6184  1.3406
 1019MOL0     H40567   4.823   1.180   4.842 -1.4503 -1.4169  3.0532
 1019MOL0     H40568   4.805   1.026   4.758  1.4455  0.5218  1.4790
 1019MOL0     H40569   4.561   1.048   4.796  2.5871 -3.4266 -0.6847
 1019MOL0     H40570   4.652   1.038   4.949 -3.2077 -0.9810  0.5366
 1019MOL0     H40571   4.444   1.275   4.750 -0.8458  2.7593  0.2770
 1019MOL0     H40572   4.273   1.517   5.001 -0.0269 -0.1727 -0.2640
 1019MOL0     H40573   4.221   1.421   4.861  0.4821 -0.3707  0.3111
 1019MOL0     H40574   4.465   1.620   4.876  1.0083 -5.3012 -0.0553
 1019MOL0     H40575   4.429   1.543   4.731  1.3556  1.8043 -1.4579
 1019MOL0     H40576   4.231   1.733   4.845 -1.1575  0.8178 -0.6150
 1019MOL0     H40577   4.339   1.776   4.722 -2.0227  0.7841 -1.7942
 1019MOL0     H40578   4.099   1.579   4.717  0.5398  1.5269  2.0363
 1019MOL0     H40579   4.115   1.711   4.620  1.1324  0.5870 -1.7808
 1019MOL0     H40580   4.240   1.795   4.439  1.7416  1.3787  2.0689
 1019MOL0     H40581   4.479   1.998   4.387  1.8725 -1.0303 -0.2848
 1019MOL0     H40582   4.321   1.963   4.311  0.0201 -0.7329  1.6289
 1019MOL0     H40583   4.464   1.953   4.215 -1.5634  0.0894 -1.4436
 1019MOL0     H40584   4.815   1.878   4.022 -0.4068 -0.2938 -0.1712
 1019MOL0     H40585   5.051   1.914   3.964 -0.6332 -0.1421 -0.6374
 1019MOL0     H40586   5.242   1.815   3.825  1.9315  2.1610 -0.9143
 1019MOL0     H40587   5.290   1.926   3.950 -0.2152  0.7349 -1.8579
 1019MOL0     H40588   5.480   1.903   3.825 -3.7706  0.7571 -1.5435
 1019MOL0     H40589   5.495   1.801   3.972 -1.3292 -3.0243  0.5699
 1019MOL0     H40590   5.409   1.716   3.698 -0.8764 -0.6955  1.4231
 1019MOL0     H40591   5.438   1.607   3.843  1.4924 -0.8088 -0.0943
 1019MOL0     H40592   5.657   1.756   3.711 -2.1590  1.5960  0.7861
 1019MOL0     H40593   5.608   1.598   3.676  0.3372 -0.9538  1.2542
 1019MOL0     H40594   5.699   1.727   3.939  2.1798  1.7046 -3.4957
 1019MOL0     H40595   5.652   1.547   3.921 -0.4528  0.0331  0.1656
 1019MOL0     H40596   5.886   1.687   3.778  0.0987  1.7092  2.1934
 1019MOL0     H40597   5.842   1.515   3.767 -1.5686  1.3184 -3.6287
 1019MOL0     H40598   6.008   1.539   3.922 -1.9546 -0.4138 -2.1378
 1019MOL0     H40599   5.862   1.565   4.042 -1.2615  0.6854  0.6602
 1019MOL0     H40600   5.895   1.794   4.027  1.2712  2.4117  0.5711
 1019MOL0     H40601   6.026   1.782   3.914  1.9958 -1.8957 -0.7840
 1019MOL0     H40602   5.165   1.569   4.198  1.0156  2.8595  1.2120
 1019MOL0     H40603   4.925   1.547   4.274  1.9336 -0.2207  1.2776
 1019MOL0     H40604   4.626   1.508   4.343  0.4241 -1.0825  1.2446
 1019MOL0     H40605   4.445   1.434   4.493 -0.5895 -0.6603 -0.9514
 1019MOL0     H40606   4.536   1.124   3.877  0.5344  1.4807 -0.4926
 1019MOL0     H40607   4.368   1.082   3.732  0.2340 -1.2495  1.2978
 1019MOL0     H40608   4.030   1.114   3.526  0.9280  0.4610 -0.5843
 1019MOL0     H40609   3.891   1.020   3.353 -0.6515 -1.6232 -0.4086
 1019MOL0     H40610   3.696   1.019   3.222  2.3645  1.6975  1.2318
 1019MOL0     H40611   3.518   0.978   3.257  0.1708 -0.9422 -1.3660
 1019MOL0     H40612   3.676   1.203   3.399  1.3038 -0.1530 -1.7398
 1019MOL0     H40613   3.513   1.141   3.433  1.7889  1.2957  1.7033
 1019MOL0     H40614   3.628   1.265   3.175  0.2769  1.6629  2.5582
 1019MOL0     H40615   3.479   1.195   3.160 -0.2991 -3.6991  3.8595
 1019MOL0     H40616   3.451   1.446   3.199  0.3532  2.4025  1.3964
 1019MOL0     H40617   3.577   1.441   3.319 -2.0077  1.4064  3.1165
 1019MOL0     H40618   3.184   1.309   3.480 -0.4207  0.3676 -0.9316
 1019MOL0     H40619   3.610   0.875   3.634 -1.2904  1.0496 -1.1632
 1019MOL0     H40620   3.768   0.862   3.899  2.1908  0.9054 -0.3063
 1019MOL0     H40621   3.751   1.031   3.942  0.7531  0.0963  0.6824
 1019MOL0     H40622   3.617   0.967   3.864  0.7886  1.3432 -1.3454
 1020MOL0     O40623   5.349   8.254  11.246  0.7430  0.3350  0.2084
 1020MOL0     C40624   5.410   8.227  11.350  0.3379  0.1136  0.2060
 1020MOL0     O40625   5.373   8.264  11.470  0.2068  0.5890 -0.5784
 1020MOL0     C40626   5.249   8.320  11.497  0.6599  0.8175 -0.0152
 1020MOL0     C40627   5.250   8.434  11.575 -0.4972 -0.4034 -0.2346
 1020MOL0     C40628   5.131   8.482  11.633  0.3054 -0.3599  0.8296
 1020MOL0     C40629   5.008   8.419  11.602  0.8454 -0.7558  0.2155
 1020MOL0     O40630   4.892   8.475  11.650 -0.1207 -0.0163 -0.0080
 1020MOL0     C40631   4.777   8.438  11.562 -0.1599  0.2768  0.3081
 1020MOL0     C40632   4.658   8.517  11.607  0.8367  0.6654  0.8348
 1020MOL0     C40633   4.522   8.445  11.554 -0.9580 -0.2054 -0.9283
 1020MOL0     C40634   4.408   8.519  11.610  0.9830  0.4034 -1.0053
 1020MOL0     C40635   4.271   8.482  11.551  0.3525 -0.1009 -0.1457
 1020MOL0     C40636   4.240   8.326  11.593 -0.2332  0.1830  0.6654
 1020MOL0     C40637   4.100   8.286  11.626  0.3553 -0.3818  0.0695
 1020MOL0     C40638   4.017   8.262  11.506 -0.4462 -0.0339  0.2409
 1020MOL0     N40639   4.013   8.367  11.398 -0.4854 -0.2176  0.3712
 1020MOL0     C40640   4.008   8.343  11.264  0.5059 -0.1197 -0.6790
 1020MOL0     C40641   3.971   8.464  11.211 -0.8447  0.2880 -0.5339
 1020MOL0     C40642   3.959   8.487  11.063 -0.1646  0.2970  0.1230
 1020MOL0     C40643   3.826   8.410  11.010 -0.7043  0.2723 -0.2516
 1020MOL0     C40644   3.809   8.420  10.865  0.7428 -0.5319  0.0780
 1020MOL0     C40645   3.663   8.380  10.836 -0.0541 -0.2951 -0.1920
 1020MOL0     O40646   3.637   8.242  10.848 -0.4761  0.2270 -0.4197
 1020MOL0     C40647   3.509   8.198  10.845  0.4175  0.2233 -0.6384
 1020MOL0     C40648   3.436   8.203  10.728  0.3765  0.6728  0.2052
 1020MOL0     C40649   3.303   8.154  10.717 -0.0561 -0.4783  0.1729
 1020MOL0     C40650   3.247   8.157  10.582 -0.5162 -0.2747  0.1165
 1020MOL0     C40651   3.236   8.111  10.832  0.0345  0.6044 -0.6158
 1020MOL0     C40652   3.096   8.060  10.847  0.5030 -0.1124 -0.5906
 1020MOL0     O40653   3.061   7.997  10.969  0.2317  0.4144 -0.1202
 1020MOL0     C40654   2.934   7.956  10.987 -0.2555 -0.5029  0.0956
 1020MOL0     C40655   2.832   8.047  11.036  0.0907 -0.4322 -0.6893
 1020MOL0     C40656   2.700   7.991  11.060 -0.2331 -0.8132  0.1427
 1020MOL0     C40657   2.683   7.851  11.040 -0.2006  0.3895 -0.0779
 1020MOL0     O40658   2.564   7.797  11.082  0.2229 -0.1536  0.1147
 1020MOL0     C40659   2.497   7.845  11.201 -0.3437  0.4886 -0.3542
 1020MOL0     C40660   2.382   7.738  11.220  0.1698  0.0394 -0.0017
 1020MOL0     C40661   2.302   7.772  11.345  0.0216 -0.0735  0.2294
 1020MOL0     C40662   2.193   7.877  11.310  0.3883  0.0831 -1.1978
 1020MOL0     C40663   2.109   7.913  11.429 -0.2498 -0.3584 -0.1883
 1020MOL0     C40664   2.157   8.031  11.526  0.1528  0.1446  0.9698
 1020MOL0     C40665   2.067   8.040  11.649  0.3849 -0.6195  0.0969
 1020MOL0     C40666   2.092   8.172  11.720 -0.6546 -0.3948 -0.0415
 1020MOL0    Cl40667   1.975   8.222  11.846  0.1202  0.2375 -1.2269
 1020MOL0     C40668   2.775   7.774  10.979 -0.5263 -0.4816  0.2008
 1020MOL0     C40669   2.907   7.825  10.965  0.5650 -0.0646 -0.3122
 1020MOL0     O40670   3.019   8.069  10.749 -0.5326 -0.2847  0.3612
 1020MOL0     C40671   3.322   8.096  10.942  0.2745  0.2819  0.3733
 1020MOL0     C40672   3.452   8.135  10.955  0.1986  0.1913 -0.7370
 1020MOL0     N40673   3.949   8.561  11.307  0.1409  0.1942 -0.4001
 1020MOL0     N40674   3.980   8.495  11.417  0.3129  0.0114 -0.5136
 1020MOL0     C40675   5.004   8.312  11.506 -0.4821  0.4560  0.4380
 1020MOL0     C40676   5.130   8.263  11.453 -0.0335  0.5415  0.1401
 1020MOL0     C40677   5.525   8.133  11.332 -0.2723  0.4344  0.4612
 1020MOL0     C40678   5.574   8.108  11.203  0.0548  0.0100  0.6602
 1020MOL0     C40679   5.681   8.021  11.177  1.1325  0.4596 -0.5215
 1020MOL0     C40680   5.744   7.958  11.282 -0.1602 -0.1794 -0.3683
 1020MOL0     O40681   5.840   7.868  11.282 -0.2912  0.1094  0.2294
 1020MOL0     C40682   5.926   7.861  11.165  0.6538  0.5752 -0.7012
 1020MOL0     C40683   6.072   7.809  11.200 -0.3842 -0.2695  0.5900
 1020MOL0     C40684   6.144   7.791  11.056 -0.0802 -0.1257 -0.5635
 1020MOL0     C40685   6.293   7.785  11.096 -0.1710  0.5485  0.1306
 1020MOL0     C40686   6.380   7.791  10.980  0.2099 -0.5909  0.6416
 1020MOL0     C40687   6.454   7.806  10.891 -0.7098 -1.3254  0.4717
 1020MOL0     C40688   5.698   7.979  11.416  0.2163 -0.1688 -0.5628
 1020MOL0     C40689   5.592   8.064  11.440 -0.0588  0.4007  0.9231
 1020MOL0     C40690   5.536   8.056  11.578  0.1385  0.0070  0.4509
 1020MOL0     H40691   5.344   8.487  11.590 -0.5176 -0.5939  0.6329
 1020MOL0     H40692   5.137   8.571  11.696 -1.2954  1.6359 -1.6335
 1020MOL0     H40693   4.762   8.331  11.579 -0.0629  0.3997  1.1895
 1020MOL0     H40694   4.786   8.461  11.455 -1.9359  0.0366  0.0769
 1020MOL0     H40695   4.658   8.534  11.715 -1.0925  2.6566  0.5997
 1020MOL0     H40696   4.645   8.617  11.565 -2.5101 -0.8363 -2.3090
 1020MOL0     H40697   4.515   8.445  11.445 -3.5331 -1.3134 -0.8417
 1020MOL0     H40698   4.525   8.339  11.584 -1.6084  0.5246  1.9513
 1020MOL0     H40699   4.411   8.498  11.717 -0.9407  0.0683 -0.9793
 1020MOL0     H40700   4.421   8.627  11.599  0.9514  0.3138 -1.9833
 1020MOL0     H40701   4.279   8.485  11.442 -0.9797 -2.9904 -0.4046
 1020MOL0     H40702   4.201   8.552  11.597  0.8847  0.1059  0.3570
 1020MOL0     H40703   4.279   8.262  11.513 -1.5579 -0.0580  0.1943
 1020MOL0     H40704   4.298   8.291  11.680  0.5085 -0.9348 -0.2542
 1020MOL0     H40705   4.062   8.350  11.707 -2.2067 -2.1841  0.4115
 1020MOL0     H40706   4.097   8.188  11.674  1.0678 -0.0013  0.9081
 1020MOL0     H40707   4.053   8.173  11.453 -0.9849 -0.1943  0.1336
 1020MOL0     H40708   3.911   8.248  11.527 -0.4365  2.5768  2.5872
 1020MOL0     H40709   4.019   8.261  11.194 -0.0546 -0.8269  0.0423
 1020MOL0     H40710   4.048   8.448  11.013  2.9626  4.7862  1.5513
 1020MOL0     H40711   3.960   8.595  11.045  0.1422 -0.0399 -2.1802
 1020MOL0     H40712   3.838   8.303  11.030 -1.6237 -0.2302 -2.1797
 1020MOL0     H40713   3.749   8.452  11.076  0.7596  1.5589  0.7161
 1020MOL0     H40714   3.824   8.525  10.838  1.0986 -0.7076 -0.4252
 1020MOL0     H40715   3.878   8.366  10.800 -0.4344 -1.3960 -0.4896
 1020MOL0     H40716   3.603   8.435  10.909  1.6792  1.8707 -0.2734
 1020MOL0     H40717   3.625   8.407  10.738  0.3810 -2.5948 -1.0653
 1020MOL0     H40718   3.496   8.244  10.648  0.2207 -0.2335 -0.3897
 1020MOL0     H40719   3.304   8.211  10.506 -2.4038  2.3396  0.3909
 1020MOL0     H40720   3.153   8.214  10.579 -0.0716  0.4914  0.5220
 1020MOL0     H40721   3.221   8.057  10.547  1.9726 -1.2199  0.7886
 1020MOL0     H40722   2.851   8.150  11.066 -1.9990  0.0627 -0.8930
 1020MOL0     H40723   2.613   8.050  11.087 -1.0121  0.4204 -4.2124
 1020MOL0     H40724   2.559   7.816  11.286 -2.5579 -1.7530  0.5926
 1020MOL0     H40725   2.463   7.949  11.195  2.9848  1.6566 -4.1565
 1020MOL0     H40726   2.324   7.727  11.127  2.1616  1.2054 -1.4546
 1020MOL0     H40727   2.426   7.639  11.238  0.6798  0.6899  2.7889
 1020MOL0     H40728   2.370   7.824  11.414 -0.2640  1.5317 -0.6819
 1020MOL0     H40729   2.263   7.676  11.380 -1.8747 -0.5103 -2.7656
 1020MOL0     H40730   2.125   7.829  11.238  0.2875  1.4215 -2.0455
 1020MOL0     H40731   2.244   7.962  11.263 -1.2883  0.5633 -2.2686
 1020MOL0     H40732   2.005   7.936  11.400 -0.9288 -3.5768 -0.6268
 1020MOL0     H40733   2.103   7.828  11.497 -1.4990  1.0716  1.5988
 1020MOL0     H40734   2.155   8.125  11.469  1.3237  0.4832  1.4489
 1020MOL0     H40735   2.258   8.026  11.567  0.8078 -0.0695 -0.6017
 1020MOL0     H40736   2.089   7.956  11.715  0.3357  0.4192  1.4756
 1020MOL0     H40737   1.959   8.034  11.628  0.2794  0.5595  0.2505
 1020MOL0     H40738   2.089   8.249  11.642  0.0630 -1.5213 -1.2244
 1020MOL0     H40739   2.195   8.168  11.756 -0.2122 -1.9912 -1.3680
 1020MOL0     H40740   2.764   7.666  10.981 -0.1366 -0.5640  3.1013
 1020MOL0     H40741   2.987   7.755  10.943  0.2597 -0.1069 -1.3798
 1020MOL0     H40742   3.282   8.051  11.032 -2.2246 -2.2589 -1.8029
 1020MOL0     H40743   3.504   8.133  11.051  0.6497 -0.3360 -0.9796
 1020MOL0     H40744   4.924   8.259  11.455  2.2884 -0.8853 -2.8471
 1020MOL0     H40745   5.143   8.187  11.376  0.0914  2.3641 -1.7158
 1020MOL0     H40746   5.524   8.166  11.125 -2.8780 -0.5724  1.9926
 1020MOL0     H40747   5.712   8.009  11.074 -0.9952 -0.1705 -1.1456
 1020MOL0     H40748   5.891   7.780  11.101  0.8369  0.1959 -0.3243
 1020MOL0     H40749   5.937   7.959  11.117  2.2234  1.0751  0.6121
 1020MOL0     H40750   6.067   7.715  11.255 -2.8381 -0.3163  0.3588
 1020MOL0     H40751   6.135   7.885  11.248 -0.6754 -0.7983  1.8397
 1020MOL0     H40752   6.114   7.702  10.999  4.1273 -1.8524 -0.3831
 1020MOL0     H40753   6.135   7.877  10.988 -3.8131 -0.7548 -1.0976
 1020MOL0     H40754   6.304   7.689  11.147 -1.5908 -0.2671 -1.0125
 1020MOL0     H40755   6.322   7.870  11.159 -2.1360  1.7283 -0.4473
 1020MOL0     H40756   6.518   7.828  10.808 -3.3914  0.5383 -1.2883
 1020MOL0     H40757   5.739   7.933  11.505 -0.6900  0.9731  0.4922
 1020MOL0     H40758   5.427   8.051  11.581 -0.0037 -3.2105 -2.7323
 1020MOL0     H40759   5.562   7.972  11.644 -2.0716 -0.8814  0.2566
 1020MOL0     H40760   5.558   8.145  11.637 -4.1782  0.6509  1.4014
 1021MOL0     O40761   0.843   1.898  11.198  0.1188  0.8032 -0.1836
 1021MOL0     C40762   0.942   1.862  11.134 -1.1378  1.0575  0.1076
 1021MOL0     O40763   0.955   1.778  11.022  0.2135  1.2060  0.5171
 1021MOL0     C40764   0.832   1.719  10.988 -0.7370 -0.1211 -0.0673
 1021MOL0     C40765   0.831   1.576  10.972  0.2903 -0.8040 -0.1618
 1021MOL0     C40766   0.726   1.508  10.914  0.7767 -0.3192  0.0501
 1021MOL0     C40767   0.604   1.575  10.885 -1.0544  0.4443  0.2617
 1021MOL0     O40768   0.483   1.520  10.855  0.5834  0.0246 -0.5394
 1021MOL0     C40769   0.451   1.392  10.914 -0.0898 -0.6829 -0.1478
 1021MOL0     C40770   0.302   1.375  10.898  0.4931  0.4969 -0.0644
 1021MOL0     C40771   0.255   1.333  10.761  0.0513 -0.5509  0.1599
 1021MOL0     C40772   0.104   1.326  10.745 -0.3990 -0.0945 -0.7164
 1021MOL0     C40773   0.058   1.279  10.604 -0.6024  1.0380  0.1947
 1021MOL0     C40774   0.075   1.127  10.572  0.4499  0.1465 -0.4346
 1021MOL0     C40775  -0.056   1.043  10.593  0.1699  0.4610 -0.0340
 1021MOL0     C40776  -0.132   1.073  10.727 -0.2707 -0.7234 -0.4658
 1021MOL0     N40777  -0.230   0.967  10.759 -0.4863 -0.6490 -0.1756
 1021MOL0     C40778  -0.339   0.940  10.692 -0.6626  0.2182  0.4666
 1021MOL0     C40779  -0.406   0.859  10.771 -0.0432 -0.5083  0.2044
 1021MOL0     C40780  -0.543   0.807  10.749  0.3417  1.0214  0.2577
 1021MOL0     C40781  -0.586   0.683  10.829  0.4251 -0.1083 -0.2195
 1021MOL0     C40782  -0.733   0.657  10.806 -0.1129 -0.2170 -0.2011
 1021MOL0     C40783  -0.776   0.522  10.864  0.3521 -0.2975  0.2757
 1021MOL0     O40784  -0.890   0.478  10.791 -0.4338  0.2382 -0.4237
 1021MOL0     C40785  -1.012   0.505  10.839  0.2738 -0.0536  0.2763
 1021MOL0     C40786  -1.123   0.422  10.809  0.1663 -0.2749  0.2099
 1021MOL0     C40787  -1.247   0.421  10.865  0.7548 -0.0593  1.1144
 1021MOL0     C40788  -1.353   0.323  10.805 -0.0112  0.6213  0.1340
 1021MOL0     C40789  -1.269   0.508  10.972 -1.1515 -0.6425  0.7335
 1021MOL0     C40790  -1.390   0.524  11.056  0.2912 -0.9739  0.4937
 1021MOL0     O40791  -1.391   0.609  11.172 -0.1780  0.3587 -0.1526
 1021MOL0     C40792  -1.509   0.625  11.244  0.2038  0.5682 -0.4948
 1021MOL0     C40793  -1.526   0.749  11.307  0.4747  0.3747  0.4973
 1021MOL0     C40794  -1.649   0.792  11.351  0.7759 -0.7509  0.3572
 1021MOL0     C40795  -1.759   0.709  11.359  0.7251  0.9143 -0.0800
 1021MOL0     O40796  -1.879   0.769  11.409  1.0682  0.5255 -0.1381
 1021MOL0     C40797  -2.011   0.718  11.374 -0.1856  0.8574  0.5102
 1021MOL0     C40798  -2.125   0.818  11.407  0.1516 -0.8213 -0.3172
 1021MOL0     C40799  -2.260   0.749  11.388  0.1654  0.3074 -0.3438
 1021MOL0     C40800  -2.363   0.815  11.481  0.4930  0.5794  0.9287
 1021MOL0     C40801  -2.503   0.770  11.427  0.2680 -0.1604  0.5292
 1021MOL0     C40802  -2.614   0.804  11.522  0.4823 -0.2625 -0.4350
 1021MOL0     C40803  -2.741   0.762  11.455 -0.5058  0.2584 -0.3803
 1021MOL0     C40804  -2.863   0.736  11.553 -1.2666  0.4981 -0.0077
 1021MOL0    Cl40805  -2.838   0.582  11.639  0.0584 -0.1997  0.1268
 1021MOL0     C40806  -1.742   0.578  11.319  0.4102 -0.2205  0.3192
 1021MOL0     C40807  -1.618   0.540  11.260  0.7282  0.4631 -0.1688
 1021MOL0     O40808  -1.486   0.455  11.013 -0.9619  0.2879 -0.5512
 1021MOL0     C40809  -1.165   0.597  11.012 -0.0013 -0.7227  0.2729
 1021MOL0     C40810  -1.041   0.599  10.939  0.1518 -0.4179  0.2706
 1021MOL0     N40811  -0.339   0.854  10.891 -0.2004  0.7461 -0.3338
 1021MOL0     N40812  -0.227   0.907  10.878 -0.0170  0.8867  0.3991
 1021MOL0     C40813   0.609   1.717  10.894  0.2809  0.0828 -0.0705
 1021MOL0     C40814   0.717   1.789  10.949  0.4654 -0.1793  0.1758
 1021MOL0     C40815   1.058   1.934  11.156 -0.0685 -0.1829 -0.4803
 1021MOL0     C40816   1.091   2.041  11.070 -0.6623  0.3521  0.3024
 1021MOL0     C40817   1.200   2.126  11.089  0.2282  0.2321  0.6113
 1021MOL0     C40818   1.283   2.107  11.202  0.8182  0.0657  0.2680
 1021MOL0     O40819   1.373   2.206  11.245 -0.5130 -0.1866 -0.2045
 1021MOL0     C40820   1.509   2.160  11.272 -1.4097  0.3152  1.3535
 1021MOL0     C40821   1.608   2.232  11.177  0.3743  0.4666  0.0184
 1021MOL0     C40822   1.647   2.370  11.217 -0.5679 -0.2895  0.0409
 1021MOL0     C40823   1.775   2.406  11.150 -0.2542 -0.4293  0.6575
 1021MOL0     C40824   1.803   2.553  11.144 -0.7982  0.1333 -0.6413
 1021MOL0     C40825   1.836   2.670  11.151 -0.1802 -0.5836 -0.0065
 1021MOL0     C40826   1.242   2.013  11.297  0.2689  0.5490 -0.4935
 1021MOL0     C40827   1.134   1.931  11.277 -0.5844 -0.6637 -1.0223
 1021MOL0     C40828   1.090   1.834  11.379 -0.0678  0.0697  0.5535
 1021MOL0     H40829   0.912   1.510  11.001  1.2500  0.0547 -0.8028
 1021MOL0     H40830   0.734   1.400  10.905  1.5020 -0.2663 -0.0400
 1021MOL0     H40831   0.465   1.396  11.022  1.6442  1.3381 -0.3951
 1021MOL0     H40832   0.501   1.305  10.870 -1.3262 -2.3380  1.5307
 1021MOL0     H40833   0.269   1.296  10.966  0.8371  1.0642  0.7915
 1021MOL0     H40834   0.251   1.468  10.927 -2.2205 -1.0909  0.5659
 1021MOL0     H40835   0.279   1.408  10.685 -4.2174 -0.3433 -1.2302
 1021MOL0     H40836   0.295   1.237  10.729  1.0549  0.0120 -0.3264
 1021MOL0     H40837   0.060   1.258  10.819 -1.5399  1.2971 -0.0834
 1021MOL0     H40838   0.050   1.419  10.764 -1.2241 -0.4511 -1.2473
 1021MOL0     H40839   0.110   1.337  10.527  0.1733 -0.5894 -0.5403
 1021MOL0     H40840  -0.048   1.301  10.592 -0.7703 -0.2512 -0.8932
 1021MOL0     H40841   0.101   1.117  10.466 -1.3335 -0.5452 -0.8392
 1021MOL0     H40842   0.152   1.093  10.642  1.1251  2.6815  0.1921
 1021MOL0     H40843  -0.025   0.939  10.601  0.9574  0.6741 -0.2548
 1021MOL0     H40844  -0.127   1.050  10.510  0.3429 -1.3223 -0.3548
 1021MOL0     H40845  -0.066   1.079  10.814 -0.9204  1.6082 -0.0717
 1021MOL0     H40846  -0.176   1.173  10.729 -2.2739 -1.5691  0.7014
 1021MOL0     H40847  -0.373   0.981  10.597  0.9137 -0.5565 -0.4800
 1021MOL0     H40848  -0.532   0.766  10.648 -0.6841 -0.6626  0.7903
 1021MOL0     H40849  -0.621   0.883  10.742 -1.9965 -1.3649 -2.1970
 1021MOL0     H40850  -0.529   0.602  10.782 -0.2479 -0.3932 -0.5635
 1021MOL0     H40851  -0.557   0.676  10.934 -2.6507  0.2801  0.7512
 1021MOL0     H40852  -0.795   0.737  10.846  0.6682  1.5458 -2.3138
 1021MOL0     H40853  -0.749   0.655  10.697 -0.7659  1.8230 -0.1868
 1021MOL0     H40854  -0.696   0.449  10.848  1.0512  0.6651 -0.7675
 1021MOL0     H40855  -0.785   0.534  10.973  1.6826 -1.2886  0.5243
 1021MOL0     H40856  -1.106   0.350  10.729  1.1241  1.6138 -1.4102
 1021MOL0     H40857  -1.397   0.255  10.879  0.8255 -2.9807 -2.4014
 1021MOL0     H40858  -1.313   0.258  10.727 -0.2449 -0.3581  0.8148
 1021MOL0     H40859  -1.426   0.384  10.751  1.4909  0.6792 -1.9306
 1021MOL0     H40860  -1.433   0.804  11.310  2.1253 -2.3381  2.3920
 1021MOL0     H40861  -1.656   0.900  11.363 -1.3057 -0.3743 -2.9208
 1021MOL0     H40862  -2.026   0.700  11.267 -0.8203 -0.2932  0.7852
 1021MOL0     H40863  -2.039   0.621  11.416 -2.1394  0.3727 -1.6528
 1021MOL0     H40864  -2.124   0.855  11.510 -5.9703  0.4746 -0.3168
 1021MOL0     H40865  -2.108   0.902  11.340 -0.1072 -0.8176 -0.3795
 1021MOL0     H40866  -2.257   0.647  11.426  3.8998  0.8973  1.3370
 1021MOL0     H40867  -2.286   0.735  11.282  1.2180 -1.4937 -0.4026
 1021MOL0     H40868  -2.352   0.924  11.484  1.4753  0.5321 -0.0906
 1021MOL0     H40869  -2.352   0.779  11.583 -2.2004 -0.3957  0.9425
 1021MOL0     H40870  -2.528   0.807  11.327  0.1735 -0.9587  0.2499
 1021MOL0     H40871  -2.492   0.663  11.409  0.8054 -0.1861  1.0097
 1021MOL0     H40872  -2.606   0.911  11.543  3.2439 -0.7974  1.8212
 1021MOL0     H40873  -2.589   0.753  11.615  1.3574  0.6223 -0.1630
 1021MOL0     H40874  -2.735   0.670  11.395 -2.0997 -1.4741  1.9544
 1021MOL0     H40875  -2.763   0.837  11.379  1.2024  1.2311  0.0533
 1021MOL0     H40876  -2.955   0.726  11.494 -0.6939 -0.0875 -0.8326
 1021MOL0     H40877  -2.881   0.816  11.625  0.4973  1.3976 -0.5033
 1021MOL0     H40878  -1.817   0.503  11.345  0.9474 -0.1486  2.2844
 1021MOL0     H40879  -1.596   0.434  11.246 -2.6515 -0.8787  2.9618
 1021MOL0     H40880  -1.177   0.689  11.069  1.8876  1.3265 -2.3369
 1021MOL0     H40881  -0.972   0.673  10.978  0.1930  1.5988 -3.2251
 1021MOL0     H40882   0.527   1.777  10.856  0.0514 -0.5654 -0.6231
 1021MOL0     H40883   0.717   1.898  10.958  0.1334 -0.2494  1.1890
 1021MOL0     H40884   1.024   2.058  10.987 -0.3515  1.1328  0.2003
 1021MOL0     H40885   1.212   2.216  11.029 -3.1125  0.2313 -0.2606
 1021MOL0     H40886   1.529   2.177  11.378 -3.8699 -0.9276  2.0816
 1021MOL0     H40887   1.523   2.056  11.241 -1.3983  1.1459 -1.8118
 1021MOL0     H40888   1.555   2.243  11.082 -0.0525  2.2705  0.4237
 1021MOL0     H40889   1.692   2.162  11.171 -2.6427 -3.6029  0.5748
 1021MOL0     H40890   1.568   2.443  11.195  0.8080  1.5184  0.8426
 1021MOL0     H40891   1.647   2.377  11.326 -1.1581 -1.9181  0.1750
 1021MOL0     H40892   1.779   2.365  11.049 -0.3353 -0.7848  0.7976
 1021MOL0     H40893   1.851   2.360  11.213 -0.4953  0.3455  1.5423
 1021MOL0     H40894   1.856   2.775  11.152  3.7615 -1.0923  3.5556
 1021MOL0     H40895   1.292   2.010  11.393 -1.0533  0.4304  0.2117
 1021MOL0     H40896   1.178   1.781  11.417 -1.6133 -1.5336  2.0960
 1021MOL0     H40897   1.045   1.887  11.464 -0.9329  1.7722 -0.9096
 1021MOL0     H40898   1.023   1.755  11.343 -2.7049  1.9220  1.0998
 1022MOL0     O40899   2.938   7.735   6.694 -0.2027  0.2864 -0.1887
 1022MOL0     C40900   3.026   7.651   6.710  0.5489 -0.1084  0.5090
 1022MOL0     O40901   3.027   7.520   6.651 -1.1927 -0.1388  0.2336
 1022MOL0     C40902   2.908   7.451   6.636  0.5891  0.0385  0.7126
 1022MOL0     C40903   2.843   7.434   6.510  0.3597  0.1528  0.3623
 1022MOL0     C40904   2.706   7.386   6.505 -0.5236 -1.0008 -0.5684
 1022MOL0     C40905   2.642   7.340   6.623 -0.1423 -0.5596  0.1723
 1022MOL0     O40906   2.512   7.300   6.616  0.5192  0.7761  0.0397
 1022MOL0     C40907   2.427   7.248   6.724  0.3877 -0.7156 -0.1641
 1022MOL0     C40908   2.278   7.278   6.692  0.2952 -0.1029 -0.3875
 1022MOL0     C40909   2.215   7.204   6.575  0.1292 -0.0089  0.2763
 1022MOL0     C40910   2.066   7.213   6.580  0.4883  0.7194  0.2549
 1022MOL0     C40911   1.991   7.069   6.576  0.0577  0.1445  0.0818
 1022MOL0     C40912   1.840   7.095   6.597  0.2050  0.7701  0.3083
 1022MOL0     C40913   1.760   6.958   6.578  0.3067 -0.1816  0.4375
 1022MOL0     C40914   1.777   6.880   6.709  0.2150  0.2234  0.1300
 1022MOL0     N40915   1.680   6.769   6.729  0.3849  0.0705  0.0741
 1022MOL0     C40916   1.544   6.759   6.696  0.5357 -1.3952  0.7670
 1022MOL0     C40917   1.497   6.644   6.737  1.4850 -1.0300 -1.0134
 1022MOL0     C40918   1.351   6.617   6.735 -0.3791  0.7173  0.3534
 1022MOL0     C40919   1.302   6.598   6.597 -0.2279  0.6965 -0.1129
 1022MOL0     C40920   1.296   6.447   6.559 -0.1679 -0.3251 -0.8209
 1022MOL0     C40921   1.207   6.427   6.434  1.0470  0.5988  0.4440
 1022MOL0     O40922   1.270   6.479   6.317  0.3765 -0.2592 -0.3794
 1022MOL0     C40923   1.358   6.404   6.236 -0.0607 -0.1087 -0.5856
 1022MOL0     C40924   1.402   6.467   6.116  0.0920  0.4072  0.5197
 1022MOL0     C40925   1.485   6.407   6.022  0.2304  0.0866 -0.4996
 1022MOL0     C40926   1.496   6.478   5.889 -0.0683 -0.0946 -0.0556
 1022MOL0     C40927   1.546   6.283   6.065  0.3824 -0.2698 -0.2513
 1022MOL0     C40928   1.658   6.222   5.992  0.5573  0.0656  0.4397
 1022MOL0     O40929   1.670   6.085   6.015  0.4361 -0.1277 -0.3991
 1022MOL0     C40930   1.756   5.998   5.958  0.9033 -0.1665  0.0736
 1022MOL0     C40931   1.770   5.870   6.009 -0.8252  0.6304 -0.3455
 1022MOL0     C40932   1.855   5.775   5.956 -0.4186  0.6473 -0.4522
 1022MOL0     C40933   1.939   5.805   5.850  0.4418  0.1023  0.2272
 1022MOL0     O40934   2.025   5.712   5.789  0.2314 -0.2297 -0.0029
 1022MOL0     C40935   2.084   5.616   5.876 -0.1685  0.5736 -0.3020
 1022MOL0     C40936   2.186   5.528   5.791  0.1944  0.8569 -0.2704
 1022MOL0     C40937   2.134   5.445   5.671  0.3464  0.1819 -0.6126
 1022MOL0     C40938   2.130   5.526   5.539 -0.8441  0.3378 -0.4111
 1022MOL0     C40939   2.028   5.461   5.457 -0.0590  0.1822 -0.8102
 1022MOL0     C40940   2.057   5.309   5.437 -1.0190  0.1180  0.4007
 1022MOL0     C40941   1.955   5.244   5.347  0.3687 -0.4329  0.9152
 1022MOL0     C40942   2.002   5.119   5.293  0.4973 -0.5502  0.4600
 1022MOL0    Cl40943   1.889   5.037   5.178  0.3709  0.2262 -0.1737
 1022MOL0     C40944   1.929   5.929   5.792 -0.2973 -0.0725  0.3521
 1022MOL0     C40945   1.842   6.030   5.852 -0.6023 -0.3161  0.1686
 1022MOL0     O40946   1.729   6.298   5.928  0.5150 -0.6632  0.3571
 1022MOL0     C40947   1.505   6.223   6.185  0.2183 -0.2850 -0.1841
 1022MOL0     C40948   1.404   6.273   6.262  0.0325  0.4504 -0.6141
 1022MOL0     N40949   1.602   6.573   6.793 -0.0413  0.1126  0.3049
 1022MOL0     N40950   1.705   6.647   6.786 -0.2397  1.2213 -0.2775
 1022MOL0     C40951   2.714   7.347   6.746 -0.2754  0.4313 -0.2620
 1022MOL0     C40952   2.846   7.393   6.743  0.2565 -0.6848 -0.0743
 1022MOL0     C40953   3.144   7.713   6.771 -0.6120 -0.3486  1.4329
 1022MOL0     C40954   3.190   7.840   6.732  0.3069 -0.3465  0.4557
 1022MOL0     C40955   3.298   7.903   6.799 -0.5826 -0.0205 -0.1951
 1022MOL0     C40956   3.370   7.846   6.905 -0.7626 -0.6051  0.0550
 1022MOL0     O40957   3.475   7.915   6.967  0.4814 -0.1151  0.4535
 1022MOL0     C40958   3.452   7.950   7.101 -0.1457 -0.8296 -0.2945
 1022MOL0     C40959   3.378   8.086   7.106 -0.3899 -0.5614 -0.4900
 1022MOL0     C40960   3.390   8.150   7.242  0.9652  0.4350  0.2806
 1022MOL0     C40961   3.285   8.252   7.280 -0.3481 -0.9672 -0.3550
 1022MOL0     C40962   3.150   8.199   7.312  1.1510 -0.3845 -0.5300
 1022MOL0     C40963   3.038   8.143   7.322 -1.2414  0.1699 -0.3521
 1022MOL0     C40964   3.336   7.713   6.934  0.3454  0.4367  0.3746
 1022MOL0     C40965   3.226   7.649   6.872  0.1261  0.3047  0.5943
 1022MOL0     C40966   3.214   7.504   6.902 -0.1653  0.3552  0.1973
 1022MOL0     H40967   2.893   7.476   6.423  0.3666  0.6326  0.5926
 1022MOL0     H40968   2.656   7.367   6.411  2.1800  1.5964 -2.7040
 1022MOL0     H40969   2.450   7.281   6.825  0.9829 -3.4765  0.6784
 1022MOL0     H40970   2.440   7.140   6.733 -0.6538 -0.6727  3.4571
 1022MOL0     H40971   2.220   7.244   6.778  1.5416  1.3743  1.0867
 1022MOL0     H40972   2.245   7.380   6.674  0.3914 -0.5443 -3.7579
 1022MOL0     H40973   2.260   7.228   6.479  0.6429 -3.3974 -0.4757
 1022MOL0     H40974   2.235   7.097   6.585  1.7215  0.3462  1.2353
 1022MOL0     H40975   2.023   7.260   6.669 -0.6529  1.4069 -0.6207
 1022MOL0     H40976   2.015   7.280   6.509  0.4071  5.0091  3.9524
 1022MOL0     H40977   2.028   6.994   6.645 -1.2535  1.0282  1.8207
 1022MOL0     H40978   2.009   7.036   6.473 -0.2676  1.7957 -0.5494
 1022MOL0     H40979   1.817   7.141   6.693 -1.0554  0.2968  0.2468
 1022MOL0     H40980   1.808   7.162   6.516 -4.1370 -1.7967 -0.3730
 1022MOL0     H40981   1.786   6.902   6.488  2.0777 -0.5487  1.1283
 1022MOL0     H40982   1.654   6.978   6.558  0.3701 -0.7919 -0.5952
 1022MOL0     H40983   1.873   6.827   6.705 -0.4648 -1.2847  2.1589
 1022MOL0     H40984   1.769   6.949   6.794 -1.1919  1.1861 -0.7471
 1022MOL0     H40985   1.482   6.840   6.658  0.4103 -0.8394  2.1109
 1022MOL0     H40986   1.292   6.698   6.777 -2.7787  0.2535 -1.9196
 1022MOL0     H40987   1.347   6.532   6.805 -0.6053  2.3555  2.4460
 1022MOL0     H40988   1.201   6.639   6.588 -0.0880  0.6883 -1.9728
 1022MOL0     H40989   1.365   6.640   6.518  2.8601 -1.3078  1.0867
 1022MOL0     H40990   1.393   6.396   6.565 -1.4192 -2.6164  2.7292
 1022MOL0     H40991   1.245   6.401   6.644  1.4218  0.3973  0.5808
 1022MOL0     H40992   1.205   6.319   6.419 -0.9910  0.4967  1.2631
 1022MOL0     H40993   1.101   6.447   6.446 -0.2287 -1.6289 -4.4484
 1022MOL0     H40994   1.362   6.566   6.095  1.5766  0.9347  0.0697
 1022MOL0     H40995   1.580   6.548   5.885  0.4727 -0.7729 -1.0535
 1022MOL0     H40996   1.401   6.530   5.874 -0.1538  1.1779  3.7310
 1022MOL0     H40997   1.514   6.405   5.810  1.9114  0.1410  0.1206
 1022MOL0     H40998   1.695   5.852   6.085 -0.6705  0.0165 -0.3279
 1022MOL0     H40999   1.870   5.677   5.999  1.8922  0.2915 -1.8669
 1022MOL0     H41000   2.117   5.667   5.967  1.1737 -1.4864  0.4401
 1022MOL0     H41001   2.001   5.554   5.911 -0.6617 -0.1185 -2.5246
 1022MOL0     H41002   2.269   5.586   5.751  0.2863  0.0196 -1.3354
 1022MOL0     H41003   2.216   5.456   5.868 -0.6694  1.6515  0.8427
 1022MOL0     H41004   2.046   5.389   5.704  1.4643 -0.2468  1.8858
 1022MOL0     H41005   2.198   5.358   5.658  0.2329 -0.6161  3.0593
 1022MOL0     H41006   2.229   5.530   5.494 -0.5814  0.3241  0.1564
 1022MOL0     H41007   2.100   5.630   5.552 -1.4247  0.2778 -1.1926
 1022MOL0     H41008   1.935   5.484   5.511  0.8633 -0.4816  1.1823
 1022MOL0     H41009   2.039   5.515   5.363  2.9366  1.6531  0.2432
 1022MOL0     H41010   2.054   5.248   5.528  2.6168 -1.8587 -0.5987
 1022MOL0     H41011   2.159   5.296   5.399 -1.3998 -0.3158 -0.5020
 1022MOL0     H41012   1.927   5.310   5.264  3.5790  3.0015  2.2986
 1022MOL0     H41013   1.868   5.211   5.405 -1.2923  0.8588 -0.7121
 1022MOL0     H41014   2.037   5.051   5.371  0.6631  0.2993  1.1316
 1022MOL0     H41015   2.088   5.148   5.232 -2.3922  2.7638 -2.5090
 1022MOL0     H41016   1.993   5.943   5.705 -3.4262  1.9561 -1.8601
 1022MOL0     H41017   1.844   6.128   5.804  0.8027  0.0120  0.8496
 1022MOL0     H41018   1.552   6.135   6.229 -0.7209 -1.1448 -0.8471
 1022MOL0     H41019   1.394   6.223   6.358 -1.2547  3.2963  0.8664
 1022MOL0     H41020   2.665   7.305   6.833 -2.1269  2.7441 -0.0833
 1022MOL0     H41021   2.897   7.395   6.839  0.1124  0.5972 -0.0012
 1022MOL0     H41022   3.145   7.881   6.642  2.0638 -0.6768 -0.6350
 1022MOL0     H41023   3.323   8.002   6.763 -0.7900  0.8743  1.9294
 1022MOL0     H41024   3.395   7.880   7.164  0.0179 -2.7460 -2.1742
 1022MOL0     H41025   3.554   7.959   7.141  0.1355  3.3348 -1.4828
 1022MOL0     H41026   3.272   8.083   7.082 -0.5267  2.0469 -0.4944
 1022MOL0     H41027   3.415   8.154   7.028 -1.2845  0.4147 -0.0894
 1022MOL0     H41028   3.385   8.075   7.321  3.9388 -0.1189  0.0761
 1022MOL0     H41029   3.480   8.212   7.241  0.8518  0.6340  1.4017
 1022MOL0     H41030   3.276   8.311   7.188 -0.4976 -1.9901 -1.0036
 1022MOL0     H41031   3.321   8.315   7.362  1.5091 -1.4121 -0.7913
 1022MOL0     H41032   2.951   8.083   7.341 -3.6182  3.0243 -1.4375
 1022MOL0     H41033   3.385   7.656   7.012  0.3119 -0.5903 -0.3318
 1022MOL0     H41034   3.305   7.465   6.949  0.7935  1.8599 -0.3080
 1022MOL0     H41035   3.122   7.478   6.955 -0.0905  2.1111  1.2796
 1022MOL0     H41036   3.207   7.444   6.811 -0.1892 -1.2618  1.2261
 1023MOL0     O41037  11.347   5.823   8.463 -0.9892 -0.1600 -0.1614
 1023MOL0     C41038  11.322   5.752   8.363  0.1453 -0.5686 -0.7837
 1023MOL0     O41039  11.381   5.634   8.331 -0.0549 -0.4733  0.8821
 1023MOL0     C41040  11.486   5.589   8.395 -0.3021  0.1405  0.6189
 1023MOL0     C41041  11.465   5.499   8.497 -0.1504 -0.4814 -0.1433
 1023MOL0     C41042  11.576   5.443   8.555  0.7984 -0.3810  0.7424
 1023MOL0     C41043  11.704   5.486   8.523  0.7932  0.1842 -0.7966
 1023MOL0     O41044  11.815   5.438   8.585 -0.1790  0.2350 -0.3178
 1023MOL0     C41045  11.814   5.296   8.592  0.3932 -0.1320  0.3243
 1023MOL0     C41046  11.955   5.247   8.648  0.8939  0.5419  0.4044
 1023MOL0     C41047  11.970   5.090   8.643  0.3942 -0.2742 -0.3822
 1023MOL0     C41048  12.086   5.054   8.740 -0.5000 -0.2670 -0.5613
 1023MOL0     C41049  12.211   5.066   8.666 -0.2533  0.3198  0.5376
 1023MOL0     C41050  12.346   5.014   8.731  1.3005  0.6458  0.5397
 1023MOL0     C41051  12.470   5.054   8.648  0.8895 -0.4136 -0.9838
 1023MOL0     C41052  12.483   5.204   8.645  0.3471 -0.1166  0.6720
 1023MOL0     N41053  12.615   5.239   8.590  0.1634  0.2000  0.1383
 1023MOL0     C41054  12.736   5.222   8.655 -0.5864 -0.0531 -0.2428
 1023MOL0     C41055  12.826   5.274   8.571 -0.2600  0.0235 -0.1345
 1023MOL0     C41056  12.977   5.277   8.589 -0.4022  0.0823 -1.1305
 1023MOL0     C41057  13.041   5.252   8.458 -0.4070  0.0062  0.1566
 1023MOL0     C41058  13.189   5.227   8.464  0.0502 -0.7420 -0.0268
 1023MOL0     C41059  13.270   5.343   8.540 -0.1995  0.1225  0.2459
 1023MOL0     O41060  13.268   5.460   8.457  0.2776 -0.0128 -0.2755
 1023MOL0     C41061  13.360   5.561   8.485 -0.9068 -0.3030  0.5631
 1023MOL0     C41062  13.372   5.661   8.384  1.2499  0.3987  0.2270
 1023MOL0     C41063  13.467   5.763   8.392  0.3040  0.3053  0.5100
 1023MOL0     C41064  13.480   5.862   8.277  0.5007 -0.1900  0.6906
 1023MOL0     C41065  13.556   5.768   8.511 -0.2645  0.4538  0.0824
 1023MOL0     C41066  13.661   5.868   8.536 -0.3050  1.0657  0.6116
 1023MOL0     O41067  13.730   5.864   8.648 -0.7799  0.4796  0.0351
 1023MOL0     C41068  13.801   5.976   8.684 -0.3996  0.1284 -0.4599
 1023MOL0     C41069  13.934   5.977   8.645  0.6223 -0.0632  0.2471
 1023MOL0     C41070  13.998   6.097   8.666 -0.3286  0.1659 -1.5923
 1023MOL0     C41071  13.936   6.211   8.715 -0.0583  0.2433  0.2873
 1023MOL0     O41072  14.010   6.324   8.714  0.0238  0.3468 -1.1404
 1023MOL0     C41073  13.949   6.451   8.736  0.9813 -1.3280 -1.5730
 1023MOL0     C41074  14.053   6.564   8.758 -0.5503  0.2182  1.4147
 1023MOL0     C41075  14.146   6.578   8.636  0.4729  1.0407  0.9481
 1023MOL0     C41076  14.258   6.684   8.632 -0.1230  0.6069  0.0775
 1023MOL0     C41077  14.198   6.824   8.648  0.1209  0.0225  0.5345
 1023MOL0     C41078  14.312   6.923   8.643  0.9931 -0.3046 -0.0281
 1023MOL0     C41079  14.256   7.066   8.669 -0.2245  0.0562 -0.1439
 1023MOL0     C41080  14.370   7.166   8.700  0.5722 -0.1490 -0.0795
 1023MOL0    Cl41081  14.474   7.194   8.551 -0.4662 -0.2913 -0.2713
 1023MOL0     C41082  13.803   6.206   8.747 -0.0115 -0.6794  0.0418
 1023MOL0     C41083  13.735   6.086   8.735  0.0057  0.1313  0.2733
 1023MOL0     O41084  13.682   5.946   8.443 -0.2244 -0.0499  0.0996
 1023MOL0     C41085  13.539   5.664   8.607  0.3234 -0.4722  0.7220
 1023MOL0     C41086  13.446   5.566   8.590  0.2989  0.2306  0.2707
 1023MOL0     N41087  12.762   5.330   8.464  0.5379 -0.7327 -0.2013
 1023MOL0     N41088  12.631   5.306   8.476 -0.9725 -0.7278  0.0911
 1023MOL0     C41089  11.724   5.596   8.438  0.0964  0.4281  0.3379
 1023MOL0     C41090  11.617   5.643   8.365 -0.2017  0.5088 -0.4330
 1023MOL0     C41091  11.210   5.798   8.269  0.3188  0.8334 -0.3633
 1023MOL0     C41092  11.165   5.701   8.181  0.5681  0.1076  0.0335
 1023MOL0     C41093  11.068   5.719   8.083  0.4390  0.1815  0.2387
 1023MOL0     C41094  11.001   5.836   8.076  0.3078 -0.4376 -0.1985
 1023MOL0     O41095  10.911   5.850   7.975  0.0603  1.1243 -0.5097
 1023MOL0     C41096  10.839   5.968   7.964 -0.3927  0.1844 -0.3476
 1023MOL0     C41097  10.755   5.972   7.833 -0.1817  0.4784 -0.4309
 1023MOL0     C41098  10.608   5.945   7.867  0.2221 -0.1665  0.0987
 1023MOL0     C41099  10.525   6.078   7.911  0.8487 -0.2508  0.1835
 1023MOL0     C41100  10.401   6.086   7.834 -0.5420  1.0521 -0.3829
 1023MOL0     C41101  10.308   6.077   7.755 -0.4882  0.1078 -0.2909
 1023MOL0     C41102  11.040   5.938   8.165  0.6639  0.3434 -0.3685
 1023MOL0     C41103  11.137   5.916   8.265  0.2637  0.4141 -0.3467
 1023MOL0     C41104  11.163   6.020   8.361  0.1933 -0.0553 -0.1551
 1023MOL0     H41105  11.361   5.471   8.511  0.0913 -0.9122  0.9211
 1023MOL0     H41106  11.557   5.363   8.627  2.7110 -1.6696 -0.0937
 1023MOL0     H41107  11.792   5.255   8.494  1.5856  1.1214 -0.5051
 1023MOL0     H41108  11.743   5.256   8.665  0.8140 -1.7862 -0.1475
 1023MOL0     H41109  12.040   5.287   8.591  2.6163 -0.5905  2.0577
 1023MOL0     H41110  11.966   5.288   8.749  0.6370 -0.1206  0.7004
 1023MOL0     H41111  11.875   5.056   8.683 -0.1545  3.1167  1.5846
 1023MOL0     H41112  11.981   5.060   8.538 -2.1041 -2.2627 -0.1615
 1023MOL0     H41113  12.092   5.114   8.831 -3.7759 -0.0338 -0.3629
 1023MOL0     H41114  12.068   4.951   8.770  0.6343 -1.1818 -2.7513
 1023MOL0     H41115  12.226   5.174   8.655  0.6995  0.0435 -1.2787
 1023MOL0     H41116  12.202   5.016   8.569 -0.0938 -1.5306  1.4333
 1023MOL0     H41117  12.347   5.060   8.830 -0.0821  1.7964  0.0500
 1023MOL0     H41118  12.344   4.905   8.742 -2.5120  0.6351  1.0754
 1023MOL0     H41119  12.470   5.011   8.548  4.9146 -1.7456 -0.5812
 1023MOL0     H41120  12.560   5.015   8.695  1.8011 -3.8494 -4.9658
 1023MOL0     H41121  12.401   5.235   8.580 -1.4353 -2.4212  1.6798
 1023MOL0     H41122  12.474   5.244   8.746 -0.5650  0.5537  0.3349
 1023MOL0     H41123  12.753   5.189   8.756 -1.6755  2.6971  0.9471
 1023MOL0     H41124  13.017   5.224   8.676  0.8330  1.7972 -0.5971
 1023MOL0     H41125  12.997   5.380   8.620  2.4067 -0.4563 -0.9272
 1023MOL0     H41126  12.992   5.173   8.399 -2.9011  0.2572  1.7454
 1023MOL0     H41127  13.022   5.340   8.396  4.4665  2.1432  1.2736
 1023MOL0     H41128  13.216   5.131   8.509  2.0797 -0.1485  0.1193
 1023MOL0     H41129  13.232   5.214   8.364  0.5132  0.2948  0.0212
 1023MOL0     H41130  13.243   5.357   8.645 -1.0398 -0.1481  0.0786
 1023MOL0     H41131  13.373   5.307   8.544 -0.4011 -0.3858  2.9592
 1023MOL0     H41132  13.313   5.652   8.294  1.6459 -1.4282  0.0956
 1023MOL0     H41133  13.400   5.852   8.203  3.2039 -2.2225 -2.2434
 1023MOL0     H41134  13.576   5.852   8.224 -1.3501  0.2786 -3.0686
 1023MOL0     H41135  13.465   5.964   8.313 -2.2977 -0.3084  0.0738
 1023MOL0     H41136  13.973   5.885   8.602 -2.0789 -1.5137  0.6190
 1023MOL0     H41137  14.101   6.111   8.636 -0.0256 -0.6453 -0.9531
 1023MOL0     H41138  13.873   6.476   8.662 -0.8688 -0.4093  0.5262
 1023MOL0     H41139  13.905   6.444   8.836 -1.0329  1.5862 -2.1438
 1023MOL0     H41140  14.007   6.659   8.784  0.3749  1.4339 -1.0792
 1023MOL0     H41141  14.117   6.540   8.844  0.1581  1.7185  1.3274
 1023MOL0     H41142  14.088   6.585   8.544  1.3965  0.7203  0.3266
 1023MOL0     H41143  14.202   6.484   8.630  1.2352  1.5658 -2.9929
 1023MOL0     H41144  14.306   6.675   8.534  1.9738 -0.0228  1.1047
 1023MOL0     H41145  14.321   6.654   8.716 -0.1765 -2.3906 -0.8407
 1023MOL0     H41146  14.121   6.838   8.570 -0.4309  0.1278  1.0877
 1023MOL0     H41147  14.143   6.825   8.743 -0.4976  1.6578  0.1977
 1023MOL0     H41148  14.367   6.926   8.548  2.4053  0.8444  0.7963
 1023MOL0     H41149  14.393   6.895   8.710  0.8860 -0.9629 -0.1585
 1023MOL0     H41150  14.192   7.071   8.757  0.4872  1.3161  0.3312
 1023MOL0     H41151  14.197   7.096   8.582 -1.5111 -0.2636  0.5918
 1023MOL0     H41152  14.428   7.141   8.790 -0.8041 -0.7022  0.6893
 1023MOL0     H41153  14.323   7.263   8.718  2.2944  1.5790 -3.8383
 1023MOL0     H41154  13.742   6.295   8.758  0.0791 -0.4825 -0.9511
 1023MOL0     H41155  13.631   6.069   8.758  0.3899 -4.5223 -0.3764
 1023MOL0     H41156  13.601   5.658   8.696 -1.3039 -3.0730  1.8173
 1023MOL0     H41157  13.422   5.484   8.657  2.5653 -3.0720 -2.5412
 1023MOL0     H41158  11.822   5.632   8.410  0.5152  1.2154  2.6305
 1023MOL0     H41159  11.636   5.716   8.287  1.3325  1.7115  1.0025
 1023MOL0     H41160  11.206   5.601   8.192 -1.3278 -0.8397 -1.0173
 1023MOL0     H41161  11.035   5.641   8.015  1.4134 -1.3286  1.4540
 1023MOL0     H41162  10.775   5.985   8.051 -2.1470  1.2133 -1.7536
 1023MOL0     H41163  10.909   6.051   7.955  0.4909 -0.5259 -0.1040
 1023MOL0     H41164  10.785   5.893   7.764  0.1088  1.3426 -1.3269
 1023MOL0     H41165  10.769   6.066   7.780  0.7624 -0.0982 -1.2406
 1023MOL0     H41166  10.561   5.900   7.780 -0.6142 -0.3607  0.6330
 1023MOL0     H41167  10.600   5.872   7.948  2.3725  0.8502  1.3192
 1023MOL0     H41168  10.571   6.174   7.885 -0.1928  0.2989  0.3228
 1023MOL0     H41169  10.506   6.082   8.019  0.1947 -0.4622  0.0795
 1023MOL0     H41170  10.233   6.061   7.680 -2.8632 -1.1849  2.2050
 1023MOL0     H41171  11.008   6.042   8.161  0.2516  0.2216 -0.2353
 1023MOL0     H41172  11.150   5.979   8.461 -3.3917 -1.9187 -1.2314
 1023MOL0     H41173  11.270   6.045   8.359  0.1467  0.1163 -0.7897
 1023MOL0     H41174  11.090   6.102   8.354 -0.2902 -0.2197  2.2282
 1024MOL0     O41175  10.135   4.650   9.687  0.8699  0.2272  0.6406
 1024MOL0     C41176  10.016   4.658   9.651  1.0734  1.3512 -0.2104
 1024MOL0     O41177   9.978   4.712   9.532  0.1784 -0.4905 -0.1511
 1024MOL0     C41178  10.072   4.758   9.450 -0.2150  0.1521  0.3699
 1024MOL0     C41179  10.157   4.869   9.472 -0.3857  0.1793 -0.3193
 1024MOL0     C41180  10.259   4.902   9.380 -0.1249  0.4025 -0.2060
 1024MOL0     C41181  10.261   4.830   9.253  0.6602  0.1271 -0.4013
 1024MOL0     O41182  10.354   4.855   9.155  0.0882 -0.7376  0.2378
 1024MOL0     C41183  10.473   4.921   9.189 -0.6259  0.1087 -0.5961
 1024MOL0     C41184  10.560   4.931   9.058 -0.7332 -0.2354  0.1975
 1024MOL0     C41185  10.708   4.933   9.116 -0.4351 -0.6336 -0.0402
 1024MOL0     C41186  10.822   4.950   9.002  0.2001  0.3571 -0.1823
 1024MOL0     C41187  10.817   4.836   8.897  0.0681  0.0157  0.6656
 1024MOL0     C41188  10.946   4.814   8.811 -0.3012  0.0302 -0.2516
 1024MOL0     C41189  11.064   4.749   8.880  0.3318  0.2347 -0.5322
 1024MOL0     C41190  11.057   4.594   8.895  0.6002  0.2829 -0.9127
 1024MOL0     N41191  11.191   4.545   8.924 -0.0403  0.1627  0.8823
 1024MOL0     C41192  11.260   4.561   9.034 -0.3800  0.1240  0.5017
 1024MOL0     C41193  11.376   4.497   9.017 -0.8662  0.6966  0.0834
 1024MOL0     C41194  11.488   4.463   9.120 -0.8833 -0.7659  0.3590
 1024MOL0     C41195  11.438   4.459   9.263  0.2467  0.6787 -0.8788
 1024MOL0     C41196  11.358   4.328   9.301 -0.3965 -0.3885  0.3489
 1024MOL0     C41197  11.439   4.196   9.275 -0.1934 -0.6951  0.3138
 1024MOL0     O41198  11.396   4.100   9.370  0.0945 -0.7440  0.0396
 1024MOL0     C41199  11.458   3.986   9.393  0.3851 -0.8080 -0.1941
 1024MOL0     C41200  11.585   3.951   9.336 -0.9537  0.1117 -0.2051
 1024MOL0     C41201  11.666   3.845   9.373 -0.4263 -0.8065 -0.1225
 1024MOL0     C41202  11.809   3.846   9.333  0.1056  0.2421  0.4208
 1024MOL0     C41203  11.612   3.752   9.463 -0.7047 -0.1551  0.4719
 1024MOL0     C41204  11.681   3.632   9.521  0.2744 -0.2742 -0.8342
 1024MOL0     O41205  11.621   3.570   9.632 -0.0944 -0.2357 -0.4814
 1024MOL0     C41206  11.667   3.448   9.674 -0.0281  0.3726 -0.3222
 1024MOL0     C41207  11.715   3.434   9.804  0.6893 -0.0545 -0.0056
 1024MOL0     C41208  11.770   3.310   9.854 -0.0768 -0.4427 -0.3149
 1024MOL0     C41209  11.765   3.198   9.769  0.4364 -0.6025 -0.0082
 1024MOL0     O41210  11.782   3.067   9.817 -0.3603 -0.0991 -0.1830
 1024MOL0     C41211  11.891   3.049   9.908  0.7022 -0.0796 -0.0791
 1024MOL0     C41212  11.914   2.902   9.969  0.0061 -0.2814  0.6376
 1024MOL0     C41213  12.060   2.877  10.013 -0.1864 -0.6625  0.8189
 1024MOL0     C41214  12.071   2.728  10.057  0.0769  0.0537 -0.9045
 1024MOL0     C41215  12.211   2.701  10.111 -0.2454  0.2194  0.2796
 1024MOL0     C41216  12.230   2.564  10.183  0.0937 -0.0560  0.0415
 1024MOL0     C41217  12.129   2.525  10.301  0.3304  0.4436  0.4835
 1024MOL0     C41218  12.190   2.404  10.374 -0.3556 -0.7519  0.4303
 1024MOL0    Cl41219  12.104   2.391  10.536 -0.3060 -0.2925 -0.1202
 1024MOL0     C41220  11.709   3.209   9.640 -0.2288 -1.0631  0.0664
 1024MOL0     C41221  11.676   3.337   9.588  0.1077 -0.3582 -0.2110
 1024MOL0     O41222  11.790   3.600   9.467 -0.3689  0.0024 -0.4680
 1024MOL0     C41223  11.476   3.781   9.510 -0.5841 -0.4654 -0.0493
 1024MOL0     C41224  11.411   3.899   9.479  0.3229 -0.4012 -0.1277
 1024MOL0     N41225  11.381   4.449   8.884 -0.4910 -0.5362  0.2063
 1024MOL0     N41226  11.265   4.469   8.836  0.0062 -0.6605 -0.3933
 1024MOL0     C41227  10.156   4.744   9.218  0.4450  0.0540  0.1033
 1024MOL0     C41228  10.060   4.709   9.324 -0.5996 -0.3802  0.5495
 1024MOL0     C41229   9.912   4.625   9.751 -0.1038  0.8819  0.3557
 1024MOL0     C41230   9.778   4.665   9.736  0.1879  0.0354 -0.0607
 1024MOL0     C41231   9.681   4.638   9.835 -0.4741  0.3358  0.7310
 1024MOL0     C41232   9.708   4.558   9.947 -0.0940  0.2266  0.3082
 1024MOL0     O41233   9.632   4.526  10.062 -0.3324  0.0201 -0.0136
 1024MOL0     C41234   9.487   4.520  10.037  0.0551  0.5846  0.1312
 1024MOL0     C41235   9.409   4.468  10.152  0.3009 -0.5031 -0.3313
 1024MOL0     C41236   9.439   4.547  10.283 -0.5226 -0.1530 -0.5511
 1024MOL0     C41237   9.317   4.536  10.372  0.2066  0.1422  0.0231
 1024MOL0     C41238   9.276   4.399  10.398 -0.4351  0.3620 -0.5077
 1024MOL0     C41239   9.234   4.284  10.436 -0.7304  0.1467  0.2157
 1024MOL0     C41240   9.831   4.498   9.955 -0.5676 -0.4905  0.2304
 1024MOL0     C41241   9.937   4.534   9.860  0.1610  0.0660 -0.4683
 1024MOL0     C41242  10.061   4.454   9.877 -0.1384  0.1773 -0.7444
 1024MOL0     H41243  10.143   4.909   9.572  1.9106  1.8798 -0.6158
 1024MOL0     H41244  10.332   4.975   9.412  1.7614 -1.0944 -0.8214
 1024MOL0     H41245  10.520   4.861   9.268 -1.0842  0.3393 -0.1409
 1024MOL0     H41246  10.465   5.024   9.223  1.4916 -0.5178  2.1813
 1024MOL0     H41247  10.542   4.847   8.990  1.4758 -1.7561  1.3556
 1024MOL0     H41248  10.538   5.025   9.006 -1.6363  1.3648  3.2177
 1024MOL0     H41249  10.710   5.010   9.193  0.5751 -1.6892  1.0332
 1024MOL0     H41250  10.724   4.839   9.171 -0.4496  0.0510  1.1630
 1024MOL0     H41251  10.824   5.042   8.943  2.3261 -0.8569 -2.2069
 1024MOL0     H41252  10.918   4.934   9.052 -0.1896  0.4374  0.6033
 1024MOL0     H41253  10.732   4.862   8.833  0.3859  1.6619  0.8479
 1024MOL0     H41254  10.791   4.743   8.948 -1.5941 -0.3606 -0.7748
 1024MOL0     H41255  10.918   4.750   8.727  1.5181 -0.4293 -0.5463
 1024MOL0     H41256  10.983   4.913   8.784  1.5906 -0.1265  1.5013
 1024MOL0     H41257  11.082   4.793   8.978  2.6906  0.3163 -0.9542
 1024MOL0     H41258  11.152   4.773   8.820 -1.1278 -2.0168 -3.9476
 1024MOL0     H41259  10.971   4.563   8.956  1.6929  0.0910  0.5823
 1024MOL0     H41260  11.033   4.542   8.802  1.8166 -0.0628 -1.0425
 1024MOL0     H41261  11.235   4.620   9.122  1.6031  1.0135  0.5162
 1024MOL0     H41262  11.556   4.549   9.113  0.5845 -1.8983  0.2133
 1024MOL0     H41263  11.544   4.374   9.089 -2.5459 -1.2998 -1.2797
 1024MOL0     H41264  11.522   4.472   9.333 -0.2932  2.3901 -0.5160
 1024MOL0     H41265  11.376   4.547   9.279  0.8017  1.2581 -1.8418
 1024MOL0     H41266  11.327   4.330   9.406  1.6931 -1.4632  1.0387
 1024MOL0     H41267  11.264   4.338   9.245  1.5139 -0.4418 -3.1951
 1024MOL0     H41268  11.428   4.160   9.172  1.7018  0.3653 -0.3180
 1024MOL0     H41269  11.546   4.220   9.283 -0.6193  0.9869  1.5100
 1024MOL0     H41270  11.637   4.024   9.274  2.1647  1.5679  3.6766
 1024MOL0     H41271  11.879   3.848   9.417  1.7673  2.5890 -0.8919
 1024MOL0     H41272  11.844   3.930   9.272  2.4739 -0.1409  1.1405
 1024MOL0     H41273  11.828   3.750   9.283  0.6070  0.9710 -0.8499
 1024MOL0     H41274  11.704   3.518   9.871 -1.0418 -0.3262  0.1040
 1024MOL0     H41275  11.806   3.307   9.956 -0.3234  0.2727 -0.2050
 1024MOL0     H41276  11.986   3.073   9.860  0.1473  2.3381 -0.0767
 1024MOL0     H41277  11.868   3.120   9.988 -0.4380  1.1529 -1.4436
 1024MOL0     H41278  11.859   2.912  10.063 -0.6892 -1.1308  0.3320
 1024MOL0     H41279  11.857   2.830   9.910 -0.8962 -0.5847  1.8505
 1024MOL0     H41280  12.061   2.939  10.104  0.7320 -0.5167  0.7200
 1024MOL0     H41281  12.128   2.911   9.934 -1.5365 -0.4277 -0.2638
 1024MOL0     H41282  12.056   2.659   9.973 -0.9780 -3.7909  2.1531
 1024MOL0     H41283  11.998   2.700  10.133 -0.3279 -2.5410 -2.1388
 1024MOL0     H41284  12.295   2.711  10.042 -1.1245  0.6905 -0.7595
 1024MOL0     H41285  12.234   2.779  10.183 -1.0968  2.7247 -1.9846
 1024MOL0     H41286  12.333   2.561  10.220  0.4994 -5.7674 -0.6333
 1024MOL0     H41287  12.213   2.484  10.111  0.8108 -1.0029  0.8893
 1024MOL0     H41288  12.033   2.490  10.262  1.1098 -1.2699 -0.0287
 1024MOL0     H41289  12.124   2.608  10.371  2.4968  0.3848  0.7986
 1024MOL0     H41290  12.297   2.420  10.390 -0.1245 -0.0281 -1.5912
 1024MOL0     H41291  12.184   2.315  10.311 -0.4298 -0.0422 -0.5718
 1024MOL0     H41292  11.690   3.119   9.583 -0.9265  0.1322 -1.6805
 1024MOL0     H41293  11.650   3.346   9.483  0.8041  0.9422 -0.2930
 1024MOL0     H41294  11.426   3.722   9.586  1.3297 -0.5716  1.2087
 1024MOL0     H41295  11.318   3.925   9.529 -0.1775  1.1467 -1.7272
 1024MOL0     H41296  10.145   4.700   9.119 -1.8829 -1.5256  0.9854
 1024MOL0     H41297   9.971   4.649   9.306 -0.4062 -0.5223  0.0633
 1024MOL0     H41298   9.759   4.721   9.645  0.7902  0.7988  0.2675
 1024MOL0     H41299   9.581   4.679   9.821 -0.3086  0.0995 -1.5887
 1024MOL0     H41300   9.451   4.619  10.009 -2.6704 -0.9269 -2.2058
 1024MOL0     H41301   9.480   4.451   9.953 -0.5382  0.3653  0.3511
 1024MOL0     H41302   9.432   4.365  10.177 -2.8962 -0.8369  1.7307
 1024MOL0     H41303   9.305   4.470  10.120  0.3263  4.3925 -0.8840
 1024MOL0     H41304   9.524   4.500  10.334 -0.2407  0.4893 -0.4331
 1024MOL0     H41305   9.468   4.651  10.270  0.8543  0.5945  5.5270
 1024MOL0     H41306   9.233   4.585  10.322 -0.2855 -0.8655 -0.1734
 1024MOL0     H41307   9.333   4.594  10.463 -0.4070  0.4441 -0.0555
 1024MOL0     H41308   9.205   4.183  10.456 -0.9677 -0.5491 -3.0990
 1024MOL0     H41309   9.852   4.437  10.042  2.0097  0.9270  0.7122
 1024MOL0     H41310  10.117   4.436   9.785 -2.2804  0.1149 -2.0968
 1024MOL0     H41311  10.140   4.504   9.935  1.1391 -1.0717 -1.3351
 1024MOL0     H41312  10.045   4.353   9.914 -0.0500 -1.0611 -3.8087
  11.46828  11.46828  11.46828
